/*--------------------------------*- C++ -*----------------------------------*\
| =========                 |                                                 |
| \\      /  F ield         | OpenFOAM: The Open Source CFD Toolbox           |
|  \\    /   O peration     | Version:  2312                                  |
|   \\  /    A nd           | Website:  www.openfoam.com                      |
|    \\/     M anipulation  |                                                 |
\*---------------------------------------------------------------------------*/
FoamFile
{
    version     2.0;
    format      ascii;
    arch        "LSB;label=32;scalar=64";
    class       surfaceScalarField;
    location    "20";
    object      phi;
}
// * * * * * * * * * * * * * * * * * * * * * * * * * * * * * * * * * * * * * //

dimensions      [0 3 -1 0 0 0 0];

oriented        oriented;

internalField   nonuniform List<scalar> 
10785
(
-0.000124354
0.00228163
-0.00215728
0.000932086
0.00489955
-0.00595599
0.00393264
0.00491387
-0.00791442
0.00971181
0.00164898
-0.00742815
0.0195185
-0.00552734
-0.00427934
0.0346251
-0.0167167
0.00161009
0.0557861
-0.0314254
0.0102644
0.0828986
-0.048641
0.0215285
0.114855
-0.0673236
0.035367
0.150425
-0.0863533
0.0507833
0.186791
-0.105
0.0686344
0.223742
-0.122562
0.0856112
0.255436
-0.138734
0.107041
0.285232
-0.151741
0.121945
-0.165083
0.148689
0.301626
-0.000556209
0.00283784
0.000281156
0.00406219
0.00429695
0.00089808
0.0134968
-0.00755085
0.0295373
-0.0215679
0.0527649
-0.0399443
0.0819196
-0.0605801
0.11475
-0.0814709
0.148488
-0.101062
0.180626
-0.118492
0.208984
-0.133358
0.232016
-0.145594
0.248874
-0.155592
0.261157
-0.164023
-0.171983
0.268057
-0.000289413
0.00312726
0.00187987
0.00189291
0.00939025
-0.00661231
0.024725
-0.0228856
0.0480585
-0.0449013
0.0769768
-0.0688626
0.107867
-0.09147
0.137212
-0.110817
0.162444
-0.126293
0.182214
-0.138262
0.196426
-0.147571
0.206317
-0.155484
0.21411
-0.163385
0.221637
-0.171551
-0.181752
0.231405
0.000468735
0.00265852
0.00527336
-0.00291171
0.018091
-0.01943
0.0397673
-0.0445619
0.0669353
-0.0720693
0.0946867
-0.096614
0.119043
-0.115826
0.137981
-0.129755
0.151476
-0.139788
0.161003
-0.14779
0.168751
-0.155318
0.176801
-0.163534
0.185725
-0.172308
0.196087
-0.181912
-0.191729
0.206064
0.00148617
0.00117236
0.00997656
-0.0114021
0.0283179
-0.0377713
0.0530299
-0.0692738
0.0778069
-0.0968464
0.098206
-0.117013
0.112897
-0.130518
0.122976
-0.139833
0.130629
-0.147441
0.137735
-0.154896
0.145221
-0.162805
0.152741
-0.171054
0.159898
-0.179465
0.166249
-0.188264
-0.197026
0.171546
0.00282661
-0.00165426
0.0155095
-0.024085
0.0369829
-0.0592447
0.0594896
-0.0917806
0.0775036
-0.11486
0.089867
-0.129376
0.0981498
-0.1388
0.104497
-0.146181
0.110224
-0.153168
0.115666
-0.160337
0.12064
-0.167779
0.125196
-0.175609
0.129687
-0.183957
0.134359
-0.192936
-0.202456
0.13979
0.00456564
-0.0062199
0.0205349
-0.0400542
0.0410076
-0.0797174
0.0579872
-0.10876
0.0693563
-0.126229
0.0765201
-0.13654
0.0814782
-0.143758
0.0854346
-0.150137
0.088873
-0.156606
0.0920211
-0.163486
0.0951439
-0.170902
0.0984011
-0.178867
0.10171
-0.187266
0.104905
-0.196131
-0.205036
0.107485
0.00651662
-0.0127365
0.0233856
-0.0569232
0.0398807
-0.0962126
0.0511829
-0.120062
0.0577568
-0.132803
0.0615271
-0.14031
0.0639619
-0.146193
0.0658452
-0.15202
0.0675245
-0.158285
0.0691048
-0.165066
0.0705165
-0.172313
0.0716424
-0.179992
0.0725565
-0.18818
0.0732483
-0.196823
0.0741534
-0.205941
-0.00457572
-0.000258336
0.00483406
-0.0127903
-0.000175377
0.00838999
-0.0226085
0.000212599
0.00960553
-0.0333753
0.000720454
0.0100464
-0.0449599
0.00134271
0.0102418
-0.057335
0.00211634
0.0102588
-0.0704659
0.00304703
0.0100839
-0.0843081
0.00412809
0.00971403
-0.0988083
0.00534425
0.00915597
-0.113905
0.00667166
0.00842553
-0.129519
0.00807111
0.00754232
-0.145518
0.00947823
0.00652067
-0.16173
0.0108268
0.00538552
-0.178014
0.0120729
0.00421065
0.0132975
-0.194439
0.0031277
-0.00407538
0.00381704
-0.0115543
0.00730353
-0.0205513
0.00920966
-0.0303677
0.0105368
-0.0408144
0.0117894
-0.0518118
0.0131137
-0.0632749
0.0145101
-0.0751031
0.0159563
-0.0871779
0.0174191
-0.0993597
0.0188535
-0.111505
0.0202166
-0.123441
0.0214143
-0.134906
0.0222914
-0.145784
0.0229507
0.0227445
-0.155231
-0.00257015
0.00638719
-0.00782124
0.0125546
-0.0144064
0.0157948
-0.0215466
0.017677
-0.0288446
0.0190875
-0.036077
0.0203461
-0.0430534
0.0214864
-0.0495718
0.0224747
-0.0554183
0.0232656
-0.0603459
0.0237811
-0.0640268
0.0238975
-0.0664774
0.0238648
-0.0666544
0.0224684
-0.0656595
0.0219558
0.018296
-0.061211
-0.000684828
0.00707202
-0.00293369
0.0148035
-0.00622761
0.0190887
-0.00984118
0.0212906
-0.0131783
0.0224246
-0.0158316
0.0229994
-0.0175019
0.0231568
-0.0179148
0.0228875
-0.0167638
0.0221146
-0.0139622
0.0209795
-0.00868485
0.0186202
-0.00149278
0.0166728
0.00898766
0.011988
0.0220899
0.00885359
0.00188021
0.0385057
0.000894864
0.00617715
0.00157748
0.0141209
0.00176831
0.0188979
0.00189188
0.021167
0.0025759
0.0217406
0.00436207
0.0212132
0.00766602
0.0198528
0.0127602
0.0177933
0.020127
0.0147478
0.029509
0.0115974
0.0423582
0.00577105
0.0568096
0.00222144
0.0767504
-0.00795284
0.097908
-0.012304
-0.0274941
0.127282
0.00167682
0.00450033
0.00436004
0.0114376
0.00735592
0.015902
0.010718
0.0178049
0.0148657
0.0175929
0.0202987
0.0157802
0.0274603
0.0126913
0.0366466
0.00860701
0.0483572
0.00303718
0.0624303
-0.00247565
0.0808553
-0.012654
0.101525
-0.0184484
0.12914
-0.0355681
0.157638
-0.0408014
-0.0656374
0.195781
0.00155256
0.00294777
0.00472619
0.00826401
0.0089432
0.011685
0.0140675
0.0126806
0.0202783
0.0113821
0.0279566
0.00810187
0.037575
0.00307289
0.0498215
-0.00363947
0.0654815
-0.0126229
0.0852973
-0.0222914
0.109355
-0.0367117
0.138698
-0.0477909
0.172997
-0.0698677
0.211921
-0.0797251
-0.109035
0.255319
0.000790495
0.00309851
0.00686912
0.0121216
0.0192243
0.0289363
0.0422736
0.0601626
0.0829068
0.111399
0.143321
0.181142
0.218314
0.260534
0.300187
-0.202675
0.00477735
0.00345907
-0.199852
-0.00281468
-8.57565e-06
-0.191123
-0.00525537
-0.00347316
-0.171365
-0.0152448
-0.00451386
-0.14345
-0.0156639
-0.0122509
-0.101994
-0.0214196
-0.0200367
-0.0456492
-0.0220451
-0.0342993
0.016165
-0.0120843
-0.0497299
0.0755696
0.00215077
-0.0615554
0.125052
0.0137362
-0.0632182
0.16335
0.0229284
-0.0612267
0.191757
0.0269101
-0.0553177
0.212537
0.0335063
-0.0542862
0.228214
0.0323663
-0.048043
0.239866
0.0419555
-0.0536077
0.248695
0.035025
-0.0438534
0.255144
0.0510687
-0.0575184
0.26021
0.0358984
-0.0409636
0.26419
0.0594926
-0.0634734
0.267552
0.0400202
-0.0433814
0.270542
0.0602951
-0.0632857
0.272667
0.0537288
-0.0558542
0.274615
0.0479629
-0.0499105
0.275669
0.0731485
-0.074202
0.276101
0.0437644
-0.0441967
0.276633
0.0688929
-0.069425
0.276087
0.0778889
-0.0773429
0.275595
0.0483875
-0.0478956
0.275538
0.0872701
-0.0872133
0.274218
0.103377
-0.102057
0.273139
0.0526781
-0.051599
0.272978
0.104061
-0.1039
0.271786
0.150521
-0.149328
0.269757
0.111072
-0.109044
0.268507
0.0845677
-0.0833177
0.268528
0.132426
-0.132447
0.267452
0.320242
-0.319166
0.219194
-0.216949
-0.16562
0.0151663
-0.166532
-0.00190261
-0.160249
-0.0115377
-0.147216
-0.0282786
-0.123651
-0.0392282
-0.0894132
-0.0556577
-0.0418692
-0.0695891
0.0130394
-0.0669928
0.0667401
-0.05155
0.11279
-0.032314
0.149089
-0.0133707
0.176461
-0.000461789
0.19724
0.0127273
0.213335
0.016272
0.225856
0.0294346
0.235881
0.025
0.243852
0.0430976
0.250616
0.0291336
0.256536
0.0535727
0.261695
0.0348614
0.266439
0.0555513
0.269817
0.0503506
0.272753
0.0450272
0.274408
0.0714937
0.275152
0.0430203
0.275987
0.0680582
0.275505
0.0783702
0.275112
0.0487807
0.27523
0.0871518
0.273902
0.104706
0.272894
0.0536864
0.272923
0.104031
0.271774
0.15167
0.269751
0.113096
0.268612
0.0857067
0.268782
0.132256
0.267713
0.321311
0.221415
-0.0671298
0.0210851
-0.0707555
0.001723
-0.0658006
-0.0164926
-0.0569382
-0.037141
-0.0397469
-0.0564195
-0.0132246
-0.08218
0.0224663
-0.10528
0.0648583
-0.109385
0.106869
-0.0935611
0.14232
-0.0677643
0.169998
-0.041049
0.190944
-0.021408
0.206262
-0.00259079
0.21815
0.00438416
0.22728
0.0203046
0.234783
0.0174974
0.240985
0.0368952
0.246669
0.02345
0.252173
0.0480681
0.257308
0.0297264
0.262455
0.0504042
0.266207
0.0465993
0.269616
0.0416176
0.27163
0.0694798
0.272611
0.0420391
0.273765
0.0669047
0.273429
0.0787064
0.273226
0.0489833
0.273617
0.0867609
0.272411
0.105911
0.271596
0.0545017
0.271928
0.103699
0.27096
0.152638
0.269102
0.114953
0.268224
0.0865848
0.268683
0.131797
0.267779
0.322215
0.22344
0.0333708
0.0262199
0.0282472
0.00684663
0.0285934
-0.0168389
0.0341108
-0.0426584
0.0459278
-0.0682365
0.0650936
-0.101346
0.0915287
-0.131715
0.122694
-0.140551
0.152748
-0.123614
0.178572
-0.0935889
0.199016
-0.0614928
0.214114
-0.036506
0.224819
-0.0132956
0.232343
-0.00313973
0.237788
0.0148597
0.24193
0.0133552
0.245132
0.0336929
0.24819
0.0203927
0.251577
0.0446808
0.255067
0.0262367
0.259211
0.0462596
0.2623
0.0435105
0.265501
0.0384165
0.267509
0.0674721
0.268573
0.040975
0.270023
0.0654545
0.269889
0.0788409
0.269957
0.0489149
0.270719
0.0859992
0.26976
0.10687
0.269254
0.0550078
0.270003
0.102949
0.269355
0.153287
0.267817
0.116491
0.267345
0.0870571
0.268233
0.130909
0.267654
0.322794
0.225097
0.120822
0.03268
0.115078
0.0125907
0.110548
-0.012309
0.109561
-0.0416708
0.114468
-0.0731435
0.125855
-0.112733
0.142627
-0.148487
0.161595
-0.159519
0.179754
-0.141774
0.196289
-0.110123
0.210301
-0.0755053
0.221793
-0.047998
0.230467
-0.0219689
0.237085
-0.00975791
0.2417
0.0102441
0.245116
0.0099391
0.247205
0.0316039
0.248817
0.0187816
0.250593
0.0429044
0.252441
0.0243888
0.255325
0.0433755
0.257423
0.0414125
0.260127
0.0357123
0.261964
0.0656356
0.263036
0.0399025
0.264791
0.0636996
0.264922
0.0787102
0.265337
0.0485001
0.26657
0.0847663
0.265975
0.107464
0.265887
0.0550961
0.26717
0.101666
0.266978
0.153479
0.265907
0.117563
0.265978
0.0869854
0.267435
0.129452
0.267342
0.322888
0.226218
0.189849
0.0386115
0.182468
0.0199724
0.176311
-0.00615203
0.172512
-0.0378721
0.172494
-0.0731254
0.174289
-0.114528
0.178714
-0.152913
0.183883
-0.164688
0.18949
-0.147381
0.196951
-0.117584
0.20581
-0.084364
0.2145
-0.0566885
0.222109
-0.0295778
0.228578
-0.0162266
0.233783
0.00503903
0.238167
0.00555516
0.241225
0.0285454
0.243372
0.0166352
0.245213
0.0410633
0.246651
0.0229502
0.249046
0.0409811
0.250606
0.0398526
0.253035
0.0332827
0.254818
0.0638524
0.25597
0.0387509
0.258096
0.0615734
0.258573
0.0782334
0.25941
0.0476631
0.261216
0.0829604
0.261097
0.107583
0.261527
0.0546659
0.263459
0.099734
0.263857
0.153082
0.263389
0.11803
0.264135
0.0862397
0.2663
0.127287
0.266851
0.322337
0.226646
0.248454
0.0454764
0.239019
0.0294071
0.22892
0.00394747
0.219782
-0.0287341
0.212896
-0.0662399
0.205422
-0.107053
0.195643
-0.143134
0.188731
-0.157775
0.186043
-0.144693
0.188456
-0.119997
0.194033
-0.0899409
0.201273
-0.0639282
0.208463
-0.036768
0.215257
-0.0230206
0.220937
-0.000641266
0.226165
0.000327582
0.230234
0.0244757
0.233345
0.0135249
0.235909
0.0384992
0.237589
0.02127
0.240152
0.0384182
0.241609
0.038396
0.244099
0.0307927
0.246042
0.0619086
0.247387
0.0374059
0.249994
0.0589668
0.250909
0.0773187
0.252233
0.0463383
0.254719
0.0804746
0.255181
0.107121
0.256216
0.0536316
0.258912
0.0970374
0.260029
0.151965
0.26029
0.117769
0.261829
0.0847013
0.264841
0.124275
0.266194
0.320983
0.22623
0.293948
0.0517163
0.283288
0.0400666
0.270362
0.0168732
0.255949
-0.014321
0.240082
-0.0503731
0.222272
-0.0892431
0.201779
-0.122641
0.182419
-0.138415
0.172581
-0.134854
0.171377
-0.118793
0.176339
-0.0949034
0.184334
-0.0719225
0.192455
-0.0448892
0.199864
-0.0304301
0.206031
-0.00680807
0.21183
-0.00547112
0.216638
0.019668
0.220647
0.00951572
0.223991
0.0351552
0.226212
0.0190488
0.229119
0.0355111
0.230792
0.0367233
0.233502
0.028082
0.235777
0.0596338
0.237436
0.0357469
0.240577
0.0558263
0.242038
0.0758577
0.243907
0.0444692
0.247147
0.0772338
0.248302
0.105967
0.250019
0.0519143
0.253575
0.0934814
0.255536
0.150004
0.256646
0.116658
0.259084
0.0822635
0.263072
0.120287
0.265383
0.318672
0.224832
0.515312
0.0523678
-0.515964
0.518512
0.036867
0.518106
0.0172788
0.5125
-0.00871469
0.501929
-0.0398024
0.483499
-0.0708129
0.457368
-0.0965101
0.429018
-0.110065
0.404837
-0.110673
0.386639
-0.100596
0.374209
-0.082473
0.367139
-0.0648525
0.364391
-0.0421411
0.363944
-0.029983
0.365411
-0.00827572
0.36731
-0.00736956
0.369836
0.0171417
0.372588
0.0067639
0.374871
0.0328721
0.376737
0.0171828
0.377826
0.034422
0.379004
0.0355455
0.379682
0.0274036
0.380535
0.0587807
0.381653
0.034629
0.382269
0.0552108
0.383274
0.0748526
0.384308
0.0434352
0.384712
0.0768303
0.385463
0.105216
0.386415
0.0509627
0.386897
0.0929986
0.38722
0.149682
0.387851
0.116027
0.38875
0.0813644
0.38996
0.119077
0.390608
0.318024
0.224948
0.545446
0.0481338
-0.541212
0.547894
0.0344188
0.547611
0.017562
0.542752
-0.00385554
0.529834
-0.026885
0.510028
-0.0510062
0.485332
-0.0718141
0.460366
-0.085099
0.438198
-0.0885054
0.421196
-0.083594
0.409789
-0.0710664
0.40356
-0.058623
0.401563
-0.0401443
0.401685
-0.030105
0.402835
-0.00942608
0.404486
-0.00901995
0.406945
0.0146823
0.408844
0.00486483
0.411096
0.0306202
0.412811
0.0154685
0.413884
0.033349
0.415022
0.0344073
0.415557
0.026868
0.416345
0.0579929
0.417403
0.0335707
0.417955
0.054659
0.419014
0.073794
0.420082
0.0423676
0.420505
0.0764073
0.421376
0.104344
0.422424
0.0499152
0.42291
0.0925126
0.423339
0.149252
0.424149
0.115217
0.425126
0.0803874
0.426407
0.117796
0.427107
0.317324
0.225052
0.575361
0.0429094
-0.570136
0.578179
0.0316007
0.578337
0.0174043
0.57307
0.00141073
0.562999
-0.0168138
0.547479
-0.0354859
0.527783
-0.0521182
0.506516
-0.0638317
0.486348
-0.068338
0.469923
-0.0671687
0.457502
-0.0586453
0.449174
-0.0502954
0.444329
-0.0352992
0.442231
-0.0280066
0.442483
-0.00967828
0.443672
-0.0102089
0.445446
0.0129086
0.447651
0.00265892
0.449595
0.0286769
0.451357
0.0137065
0.452438
0.0322676
0.453667
0.0331787
0.454327
0.0262077
0.455198
0.0571218
0.45628
0.0324886
0.456911
0.0540282
0.458039
0.0726656
0.459141
0.0412657
0.459674
0.0758747
0.460652
0.103366
0.461769
0.0487981
0.462335
0.091947
0.462908
0.148678
0.46385
0.114275
0.464901
0.0793372
0.466297
0.116399
0.467094
0.316527
0.225118
0.610129
0.0380637
-0.605284
0.611982
0.0297485
0.61055
0.018836
0.606012
0.00594874
0.597122
-0.00792433
0.583786
-0.02215
0.5669
-0.0352314
0.548687
-0.0456188
0.531334
-0.0509849
0.516534
-0.0523686
0.505105
-0.0472172
0.496966
-0.0421557
0.491977
-0.0303108
0.489424
-0.025453
0.488649
-0.00890374
0.488715
-0.0102748
0.489952
0.011672
0.491254
0.00135614
0.492888
0.0270436
0.49426
0.0123345
0.495222
0.0313052
0.496232
0.0321688
0.496887
0.0255525
0.497729
0.0562803
0.498786
0.0314317
0.499556
0.0532578
0.500703
0.0715188
0.501843
0.0401261
0.502578
0.0751391
0.503611
0.102333
0.50477
0.0476393
0.505528
0.091188
0.506278
0.147929
0.507282
0.113271
0.508407
0.0782128
0.510008
0.114798
0.510982
0.315552
0.22513
0.647792
0.0343468
-0.644075
0.649369
0.0281719
0.648417
0.0197874
0.644429
0.0099371
0.637187
-0.000682326
0.626765
-0.0117286
0.613582
-0.022048
0.598841
-0.0308773
0.583893
-0.0360376
0.570226
-0.0387015
0.558901
-0.0358923
0.550122
-0.0333768
0.54381
-0.0239987
0.539893
-0.0215355
0.537691
-0.00670209
0.536947
-0.00953045
0.537195
0.0114237
0.538048
0.000503652
0.539156
0.0259355
0.540313
0.0111774
0.541283
0.0303352
0.54233
0.0311211
0.543213
0.02467
0.544167
0.0553259
0.545289
0.0303102
0.546246
0.0523002
0.547397
0.0703687
0.548585
0.0389377
0.549569
0.074155
0.550616
0.101286
0.551809
0.0464464
0.552866
0.0901309
0.553805
0.14699
0.554802
0.112274
0.55602
0.0769946
0.557968
0.11285
0.55922
0.3143
0.225081
0.690056
0.031172
-0.686882
0.691474
0.0267539
0.690602
0.02066
0.687184
0.0133548
0.681176
0.0053259
0.672599
-0.00315152
0.661546
-0.0109954
0.648918
-0.018249
0.635864
-0.0229835
0.623616
-0.0264533
0.613095
-0.0253718
0.604661
-0.0249427
0.598391
-0.0177284
0.594055
-0.0171998
0.591793
-0.0044399
0.590472
-0.00820913
0.590211
0.0116846
0.5907
1.4262e-05
0.591427
0.0252088
0.592193
0.0104112
0.592903
0.0296258
0.593635
0.0303889
0.594433
0.0238718
0.595289
0.05447
0.596332
0.0292667
0.597416
0.0512169
0.598544
0.0692405
0.599761
0.0377203
0.601012
0.0729043
0.602072
0.100227
0.6033
0.0452183
0.60472
0.0887107
0.605869
0.145841
0.606826
0.111317
0.608177
0.0756441
0.610615
0.110413
0.612241
0.312673
0.224971
0.737185
0.0286138
-0.734626
0.738278
0.0256608
0.737555
0.0213828
0.73483
0.0160799
0.729964
0.0101918
0.723048
0.00376471
0.714333
-0.00228038
0.704323
-0.00823913
0.693734
-0.0123949
0.683351
-0.0160698
0.673851
-0.0158727
0.66585
-0.0169414
0.659322
-0.0112001
0.654507
-0.0123847
0.650749
-0.00068179
0.64861
-0.00607053
0.647532
0.0127624
0.647022
0.000524818
0.647265
0.0249651
0.647664
0.0100125
0.648387
0.0289025
0.649099
0.0296771
0.650088
0.0228833
0.651044
0.0535135
0.652118
0.0281929
0.653392
0.0499425
0.654521
0.068112
0.65578
0.0364607
0.657317
0.0713677
0.658404
0.0991397
0.659677
0.0439448
0.661502
0.0868861
0.662895
0.144447
0.663817
0.110396
0.66534
0.0741204
0.668381
0.107372
0.670477
0.310577
0.224775
0.789513
0.0266334
-0.787533
0.790389
0.0247849
0.789854
0.0219175
0.787727
0.0182067
0.783905
0.0140145
0.778414
0.00925519
0.771472
0.00466239
0.763325
-9.28059e-05
0.754351
-0.00342075
0.745223
-0.00694191
0.736569
-0.00721818
0.728962
-0.00933485
0.72269
-0.00492825
0.717689
-0.00738291
0.714281
0.00272542
0.711913
-0.00370198
0.710367
0.0143086
0.709863
0.00102799
0.709698
0.0251308
0.709822
0.00988864
0.71025
0.0284741
0.710639
0.0292881
0.711509
0.0220139
0.712344
0.0526778
0.713323
0.0272138
0.714714
0.0485521
0.715816
0.0670093
0.71713
0.0351475
0.718946
0.0695516
0.720078
0.0980069
0.721426
0.0425974
0.72368
0.0846325
0.725352
0.142775
0.726268
0.109479
0.72801
0.0723791
0.731739
0.103643
0.734403
0.307913
0.22445
0.847534
0.0250765
-0.845977
0.848238
0.0240805
0.84785
0.0223054
0.846219
0.0198373
0.843276
0.0169578
0.839031
0.0135001
0.83357
0.0101238
0.827101
0.00637598
0.81996
0.00371975
0.812571
0.000447374
0.805262
9.11531e-05
0.798654
-0.00272668
0.79271
0.00101507
0.787884
-0.00255664
0.783928
0.00668114
0.780907
-0.000680991
0.778928
0.0162876
0.77753
0.00242592
0.777021
0.0256406
0.776739
0.0101707
0.777137
0.028076
0.77743
0.0289951
0.778382
0.0210615
0.779258
0.0518022
0.780238
0.0262331
0.781795
0.0469953
0.78291
0.0658941
0.784302
0.0337559
0.786402
0.067452
0.787615
0.0967931
0.789068
0.0411447
0.79177
0.0819311
0.793766
0.140779
0.794724
0.108521
0.796739
0.0703635
0.801228
0.0991539
0.804563
0.304578
0.223916
0.911806
0.0238582
-0.910588
0.912377
0.0235098
0.912124
0.0225583
0.910927
0.0210336
0.908728
0.0191575
0.905514
0.0167134
0.90131
0.0143277
0.896265
0.0114212
0.890517
0.0094683
0.884408
0.00655638
0.878222
0.00627672
0.872286
0.00320968
0.866893
0.00640754
0.862326
0.0020109
0.858385
0.0106217
0.855672
0.00203238
0.853408
0.0185513
0.852062
0.00377188
0.851246
0.0264568
0.850758
0.0106581
0.850973
0.0278614
0.851007
0.0289611
0.851872
0.0201968
0.852677
0.0509973
0.853559
0.0253506
0.855256
0.0452985
0.856381
0.0647686
0.857843
0.0322943
0.860245
0.0650504
0.861585
0.0954526
0.86316
0.0395703
0.866335
0.0787559
0.868721
0.138392
0.869794
0.107449
0.872109
0.0680484
0.877445
0.0938179
0.881623
0.3004
0.223116
0.982638
0.0228945
-0.981674
0.983128
0.0230201
0.98301
0.0226757
0.982194
0.0218504
0.980626
0.0207252
0.978286
0.0190533
0.975168
0.0174458
0.971338
0.0152513
0.966882
0.0139245
0.962067
0.0113712
0.957041
0.0113026
0.952137
0.00811319
0.947488
0.0110574
0.943391
0.00610724
0.939789
0.0142242
0.936905
0.0049156
0.934611
0.0208461
0.932954
0.00542846
0.931888
0.0275227
0.931208
0.011338
0.931294
0.0277754
0.931255
0.0290007
0.932115
0.0193369
0.932909
0.0502032
0.933834
0.0244255
0.935646
0.0434866
0.936828
0.0635868
0.938428
0.0306935
0.941109
0.0623702
0.942603
0.0939579
0.944394
0.0377793
0.948044
0.0751057
0.950868
0.135569
0.952122
0.106195
0.95489
0.0652803
0.961086
0.0876221
0.966174
0.295311
0.221796
1.06074
0.0221101
-1.05996
1.0612
0.0225571
1.06122
0.0226619
1.06073
0.0223395
1.05969
0.0217634
1.05808
0.0206671
1.05586
0.0196629
1.05308
0.0180306
1.04978
0.0172261
1.04611
0.0150353
1.04218
0.0152368
1.03822
0.0120683
1.03431
0.0149723
1.03078
0.00963876
1.0275
0.0175062
1.02484
0.0075694
1.02267
0.0230214
1.02103
0.00706945
1.02004
0.0285089
1.01918
0.0121926
1.01933
0.0276334
1.01912
0.0292084
1.01994
0.0185139
1.02078
0.0493621
1.02156
0.0236458
1.0236
0.0414464
1.02486
0.0623325
1.02651
0.0290421
1.02959
0.0592853
1.03134
0.0922138
1.03323
0.0358918
1.03748
0.0708461
1.04088
0.132172
1.04241
0.10467
1.0455
0.0621907
1.05282
0.0803021
1.05928
0.288843
0.220069
1.14615
0.0213844
-1.14543
1.14664
0.0220723
1.14683
0.0224703
1.14666
0.0225086
1.14609
0.0223343
1.14509
0.0216688
1.14362
0.0211281
1.14172
0.0199334
1.13939
0.0195549
1.13676
0.0176701
1.13384
0.0181588
1.13086
0.0150392
1.12779
0.0180469
1.12503
0.0124008
1.12229
0.0202451
1.12015
0.00970554
1.11814
0.0250314
1.11681
0.0084019
1.11575
0.0295724
1.11509
0.0128533
1.11516
0.0275599
1.11506
0.0293125
1.11597
0.0175983
1.11681
0.0485227
1.1178
0.0226584
1.11993
0.0393163
1.12132
0.0609402
1.12323
0.0271283
1.12663
0.0558946
1.12858
0.0902597
1.1309
0.0335705
1.13571
0.0660379
1.13965
0.128235
1.14151
0.102809
1.14546
0.0582384
1.15369
0.0720748
1.16141
0.281118
0.217115
1.24008
0.0207063
-1.23941
1.24067
0.0214857
1.24106
0.0220805
1.24122
0.0223513
1.24111
0.0224428
1.2407
0.022077
1.23996
0.0218715
1.23889
0.0210013
1.23749
0.0209574
1.23582
0.0193348
1.23389
0.0200922
1.23184
0.0170894
1.22965
0.0202378
1.22758
0.0144631
1.22555
0.0222846
1.22379
0.0114582
1.22229
0.0265306
1.22107
0.0096262
1.22044
0.0301973
1.21973
0.0135647
1.22008
0.0272178
1.21994
0.0294504
1.22082
0.0167155
1.22187
0.0474762
1.22265
0.0218703
1.22509
0.0368778
1.22673
0.0593034
1.22861
0.0252444
1.23255
0.0519544
1.23505
0.0877642
1.23728
0.0313385
1.2429
0.0604237
1.24778
0.123347
1.25012
0.100477
1.25424
0.0541114
1.26394
0.0623734
1.27397
0.271088
0.213554
1.34142
0.0198632
-1.34058
1.34216
0.0207435
1.34281
0.0214323
1.34333
0.0218316
1.34369
0.022086
1.34385
0.0219177
1.34378
0.0219427
1.34347
0.0213067
1.34292
0.0215116
1.34216
0.0200889
1.34117
0.0210897
1.34008
0.0181763
1.3388
0.0215162
1.33765
0.0156089
1.33634
0.0235971
1.33543
0.0123708
1.33441
0.0275492
1.33393
0.0101099
1.33349
0.0306388
1.33336
0.0136913
1.33383
0.0267485
1.33412
0.0291625
1.33531
0.0155213
1.33655
0.046239
1.33775
0.020666
1.34037
0.0342592
1.34228
0.0573908
1.3446
0.0229226
1.34896
0.0475959
1.35177
0.0849562
1.35474
0.02837
1.36101
0.0541587
1.36663
0.117721
1.36956
0.0975475
1.37501
0.0486608
1.38553
0.0518551
1.39783
0.258788
0.207189
1.45342
0.0188507
-1.45241
1.45449
0.0196768
1.45553
0.020394
1.45651
0.0208507
1.45741
0.0211872
1.45818
0.0211442
1.45879
0.0213317
1.45924
0.0208627
1.45949
0.0212546
1.45958
0.020002
1.4595
0.021169
1.4593
0.0183793
1.45893
0.0218861
1.45855
0.0159827
1.45815
0.0240046
1.45779
0.0127299
1.45753
0.0278093
1.45732
0.0103218
1.45771
0.0302492
1.4579
0.0134955
1.45892
0.0257251
1.45939
0.0286988
1.46039
0.0145186
1.46196
0.04467
1.46289
0.0197314
1.46587
0.0312862
1.46836
0.0548983
1.47058
0.0207002
1.47565
0.0425264
1.47948
0.0811319
1.48212
0.0257265
1.48934
0.0469382
1.49643
0.110628
1.50019
0.0937881
1.50569
0.0431606
1.51777
0.0397788
1.53352
0.243037
0.19969
1.57118
0.0171636
-1.56949
1.57288
0.017982
1.5746
0.0186657
1.57633
0.0191287
1.57801
0.0195009
1.57962
0.0195361
1.58114
0.0198114
1.58252
0.0194872
1.58379
0.0199804
1.58489
0.0189041
1.58586
0.0202008
1.58662
0.0176189
1.58738
0.0211251
1.58793
0.0154305
1.58852
0.0234165
1.58899
0.0122613
1.58982
0.0269718
1.5904
0.00974357
1.5915
0.0291546
1.59225
0.0127462
1.59379
0.0241787
1.59507
0.0274204
1.59646
0.0131264
1.59883
0.0423078
1.60004
0.0185201
1.60339
0.0279316
1.60658
0.051713
1.60918
0.0180941
1.61478
0.0369332
1.61975
0.0761564
1.623
0.0224802
1.63056
0.0393766
1.63954
0.101645
1.64477
0.0885638
1.65074
0.0371919
1.66215
0.0283614
1.68364
0.221552
0.185354
1.70489
0.0150402
-1.70276
1.70712
0.0157447
1.7094
0.0163899
1.71169
0.0168413
1.71405
0.0171407
1.71635
0.0172384
1.71859
0.0175704
1.72073
0.0173386
1.72276
0.0179543
1.72454
0.0171224
1.72649
0.0182574
1.72809
0.0160189
1.72963
0.0195826
1.73082
0.0142352
1.73282
0.0214162
1.73387
0.0112172
1.73525
0.0255863
1.73576
0.00924086
1.73865
0.0262653
1.74093
0.0104605
1.74377
0.0213358
1.74527
0.0259203
1.74558
0.0128211
1.74803
0.0398593
1.74881
0.0177399
1.75264
0.0240951
1.75707
0.0472879
1.75977
0.0153987
1.76614
0.0305601
1.7728
0.0694992
1.77572
0.0195537
1.78406
0.0310428
1.79502
0.0906823
1.80178
0.0818064
1.80824
0.030729
1.82022
0.0163846
1.84634
0.195424
0.16808
1.83905
0.0108663
-1.83488
1.8432
0.0115934
1.8473
0.0122922
1.85131
0.0128339
1.85535
0.0130959
1.85926
0.0133323
1.86303
0.0138035
1.86665
0.013712
1.8701
0.0145126
1.87299
0.0142294
1.87638
0.0148663
1.87899
0.0134089
1.88191
0.0166635
1.88345
0.0126927
1.88781
0.0170598
1.88873
0.0102987
1.89242
0.0218979
1.89163
0.0100299
1.89817
0.0197196
1.90101
0.0076191
1.90572
0.0166246
1.90812
0.0235208
1.90546
0.0154862
1.91005
0.035271
1.90994
0.017846
1.91263
0.0214037
1.92271
0.0372067
1.92358
0.0145326
1.92831
0.0258299
1.94345
0.0543624
1.94392
0.0190781
1.94635
0.0286193
1.96515
0.0718733
1.98103
0.0659359
1.98048
0.031271
1.97669
0.0201762
2.01728
0.154837
0.130443
2.0242
0.00604899
-2.01938
2.02913
0.00665803
2.03412
0.00730281
2.03907
0.00787937
2.0439
0.00827402
2.04857
0.00866034
2.05316
0.00921182
2.05751
0.0093643
2.06194
0.0100775
2.06592
0.0102491
2.07014
0.0106492
2.07337
0.010181
2.07799
0.0120454
2.08018
0.0104949
2.0852
0.012047
2.08576
0.00973946
2.09276
0.0148917
2.09212
0.0106722
2.09876
0.0130805
2.09754
0.00883545
2.10163
0.012539
2.10697
0.0181792
2.10696
0.015496
2.11773
0.024502
2.11888
0.0166924
2.12168
0.0186051
2.13444
0.0244519
2.13277
0.0161954
2.13604
0.0225679
2.15601
0.0343857
2.15417
0.0209165
2.15319
0.0296076
2.1774
0.0476578
2.19945
0.0438892
2.19319
0.0375273
2.18056
0.0328123
2.23197
0.103424
0.0830157
2.23611
0.00373217
-2.2338
2.23863
0.00414092
2.24138
0.00455815
2.2443
0.0049506
2.24724
0.00533494
2.25023
0.00567274
2.25336
0.0060865
2.2564
0.00632244
2.25971
0.00676369
2.26304
0.00692338
2.26633
0.0073596
2.26927
0.0072379
2.27325
0.00806672
2.27622
0.00752311
2.27974
0.00853091
2.28186
0.00761695
2.2873
0.00945201
2.28992
0.00805122
2.29361
0.0093903
2.29381
0.00863449
2.29689
0.00946319
2.30293
0.0121406
2.30807
0.0103485
2.31777
0.0148056
2.32244
0.0120199
2.3278
0.0132445
2.33584
0.0164193
2.33884
0.0131902
2.34495
0.0164564
2.35708
0.0222632
2.36143
0.0165635
2.36856
0.0224764
2.38559
0.030629
2.40048
0.0289946
2.40697
0.0310397
2.4134
0.0263799
2.45168
0.0651453
0.0529485
2.43888
0.00140455
-2.43656
2.44142
0.00160407
2.44416
0.00181283
2.4471
0.0020179
2.4502
0.00223199
2.45344
0.00243159
2.45688
0.00265116
2.46037
0.00283202
2.46408
0.00305337
2.46779
0.00320676
2.47171
0.003439
2.47543
0.0035221
2.47968
0.00382166
2.48339
0.00380413
2.48779
0.00413527
2.49136
0.00405069
2.49629
0.00452125
2.49997
0.00436978
2.50468
0.0046751
2.50849
0.00483021
2.51296
0.00499029
2.51896
0.00614184
2.52356
0.00574922
2.53116
0.00720923
2.53643
0.00674276
2.54266
0.00701578
2.55076
0.00831613
2.55644
0.00751609
2.56423
0.00866509
2.57547
0.0110241
2.58268
0.00935123
2.593
0.0121533
2.60853
0.0151006
2.62305
0.0144788
2.63645
0.0176369
2.64752
0.0153117
2.68273
0.0299393
0.0241199
2.67804
-2.67664
2.67965
2.68146
2.68348
2.68571
2.68814
2.69079
2.69363
2.69668
2.69989
2.70333
2.70685
2.71067
2.71447
2.71861
2.72266
2.72718
2.73155
2.73623
2.74106
2.74605
2.75219
2.75794
2.76515
2.77189
2.7789
2.78722
2.79474
2.8034
2.81443
2.82378
2.83593
2.85103
2.86551
2.88315
2.89846
2.9284
0.426042
0.0665143
-0.418403
0.435749
0.0977779
0.444435
0.131104
0.454845
0.161135
0.467763
0.193146
0.476584
0.222584
0.496893
0.247749
0.282555
0.46189
0.0581348
-0.453511
0.469773
0.0898955
0.480234
0.120643
0.489019
0.15235
0.50215
0.180016
0.512744
0.211989
0.525166
0.235327
0.266509
0.500111
0.0507868
-0.492763
0.506997
0.0830085
0.515774
0.111866
0.52413
0.143994
0.533894
0.170251
0.544944
0.20094
0.555914
0.224356
0.252287
0.540228
0.0448077
-0.534249
0.546696
0.076541
0.55395
0.104612
0.562372
0.135572
0.57109
0.161533
0.581883
0.190147
0.592704
0.213535
0.239708
0.584153
0.0398266
-0.579172
0.590269
0.0704246
0.596768
0.0981136
0.604717
0.127622
0.61291
0.153341
0.62256
0.180496
0.632591
0.203505
0.228223
0.631904
0.0355125
-0.62759
0.637337
0.0649916
0.643165
0.0922862
0.650271
0.120516
0.657785
0.145827
0.666597
0.171685
0.676049
0.194053
0.217391
0.683402
0.0318666
-0.679756
0.688166
0.0602275
0.693473
0.0869786
0.699976
0.114013
0.707102
0.138701
0.715443
0.163344
0.724435
0.185061
0.207199
0.739302
0.0287307
-0.736166
0.743528
0.0560011
0.748478
0.082029
0.754557
0.107934
0.761352
0.131906
0.769235
0.155461
0.777813
0.176482
0.19748
0.800054
0.0260556
-0.797379
0.803817
0.052238
0.80842
0.0774258
0.814113
0.102241
0.820609
0.125409
0.828181
0.14789
0.836533
0.16813
0.188036
0.866082
0.0238
-0.863827
0.869444
0.0488766
0.873767
0.0731029
0.879203
0.0968044
0.885561
0.119051
0.893
0.140452
0.901273
0.159856
0.178722
0.937839
0.0219339
-0.935973
0.940894
0.0458217
0.945031
0.0689663
0.950329
0.0915067
0.956633
0.112746
0.964029
0.133056
0.972325
0.15156
0.169373
1.01587
0.0203255
-1.01426
1.01873
0.0429603
1.02278
0.0649166
1.02805
0.0862384
1.03443
0.106368
1.04194
0.125543
1.05042
0.143074
0.159842
1.10051
0.0189903
-1.09917
1.10321
0.0402577
1.10722
0.0609075
1.11252
0.0809414
1.11903
0.0998561
1.12674
0.117828
1.13553
0.134291
0.149941
1.19228
0.0178039
-1.19109
1.19498
0.0375532
1.19914
0.0567532
1.20471
0.0753657
1.2116
0.0929703
1.21975
0.109679
1.22902
0.125017
0.139558
1.29101
0.0166438
-1.28985
1.29378
0.0347903
1.29811
0.0524181
1.30394
0.0695368
1.31116
0.0857504
1.3197