/*--------------------------------*- C++ -*----------------------------------*\
| =========                 |                                                 |
| \\      /  F ield         | OpenFOAM: The Open Source CFD Toolbox           |
|  \\    /   O peration     | Version:  2312                                  |
|   \\  /    A nd           | Website:  www.openfoam.com                      |
|    \\/     M anipulation  |                                                 |
\*---------------------------------------------------------------------------*/
FoamFile
{
    version     2.0;
    format      ascii;
    arch        "LSB;label=32;scalar=64";
    class       surfaceScalarField;
    location    "49";
    object      phi;
}
// * * * * * * * * * * * * * * * * * * * * * * * * * * * * * * * * * * * * * //

dimensions      [0 3 -1 0 0 0 0];

oriented        oriented;

internalField   nonuniform List<scalar> 
18180
(
-0.00525147
0.0315523
-0.0263008
0.0191621
-0.0450251
0.0206115
0.03349
-0.0997259
0.0853981
0.0454658
-0.124681
0.112705
0.049613
-0.129193
0.125046
0.0512591
-0.13002
0.128374
0.0531047
-0.130187
0.128341
0.0548502
-0.129661
0.127916
0.0555538
-0.128192
0.127488
0.056406
-0.127019
0.126167
0.0590977
-0.12726
0.124568
0.0633185
-0.126665
0.122444
0.0679204
-0.125521
0.120919
0.0712997
-0.123548
0.120168
0.0737033
-0.121797
0.119394
0.0785272
-0.122708
0.117884
0.0852306
-0.123475
0.116771
0.0928731
-0.123753
0.116111
0.0975985
-0.124048
0.119323
-0.122211
0.116164
0.103645
0.00257617
0.0289761
0.0297919
-0.0722408
0.039726
-0.10966
0.0432105
-0.128166
0.0466248
-0.132608
0.0493808
-0.132776
0.051528
-0.132334
0.0529432
-0.131076
0.0547741
-0.130023
0.0566702
-0.128915
0.0570307
-0.12762
0.0583658
-0.128
0.0607999
-0.127955
0.066061
-0.128809
0.0742086
-0.129945
0.079815
-0.128315
0.0851408
-0.128801
0.0917167
-0.130329
0.0982875
-0.130619
-0.130083
0.106159
0.00926518
0.0197109
0.0298515
-0.0928271
0.0408035
-0.120612
0.045763
-0.133125
0.0467738
-0.133619
0.0469066
-0.132909
0.0467037
-0.132131
0.0466779
-0.131051
0.0471406
-0.130485
0.0487578
-0.130532
0.0521889
-0.131052
0.0541857
-0.129996
0.0570191
-0.130789
0.0594684
-0.131258
0.0604679
-0.130944
0.0649262
-0.132773
0.0707633
-0.134638
0.0754332
-0.134999
0.0820787
-0.137264
-0.13825
0.0902459
0.0179054
0.00180555
0.0358188
-0.11074
0.0436469
-0.12844
0.0445317
-0.13401
0.0431951
-0.132282
0.0423984
-0.132112
0.0427856
-0.132519
0.0438205
-0.132085
0.0448297
-0.131495
0.0459151
-0.131618
0.047295
-0.132431
0.0515367
-0.134238
0.0542597
-0.133512
0.0556063
-0.132605
0.0591445
-0.134482
0.0634993
-0.137128
0.0678512
-0.13899
0.0733986
-0.140547
0.0768915
-0.140757
-0.141791
0.0804319
0.0329444
-0.0311388
0.0387148
-0.116511
0.0385263
-0.128252
0.0368356
-0.132319
0.0355743
-0.131021
0.0360752
-0.132613
0.0369685
-0.133412
0.0375291
-0.132646
0.0389992
-0.132965
0.0412734
-0.133892
0.0426031
-0.133761
0.0420965
-0.133732
0.0446276
-0.136043
0.0502215
-0.138199
0.0539596
-0.13822
0.0561688
-0.139337
0.058874
-0.141695
0.0623902
-0.144063
0.067177
-0.145544
-0.147561
0.0729474
0.0288999
-0.0600388
0.0308488
-0.11846
0.0288128
-0.126216
0.0310519
-0.134558
0.0325072
-0.132476
0.0324196
-0.132526
0.0316186
-0.132611
0.031738
-0.132765
0.0320802
-0.133307
0.0324254
-0.134237
0.034332
-0.135668
0.0368681
-0.136268
0.03687
-0.136045
0.0364937
-0.137822
0.0396501
-0.141377
0.0438894
-0.143576
0.0460087
-0.143814
0.0465645
-0.144619
0.0489704
-0.14795
-0.152142
0.0535515
0.0150882
-0.075127
0.0252599
-0.128632
0.0265135
-0.127469
0.0248198
-0.132865
0.0237461
-0.131402
0.0239446
-0.132724
0.0247183
-0.133385
0.0251274
-0.133174
0.0257081
-0.133888
0.0268372
-0.135366
0.0269087
-0.135739
0.0277693
-0.137128
0.0309247
-0.1392
0.0326986
-0.139596
0.0320232
-0.140701
0.032276
-0.143829
0.0347772
-0.146315
0.0386828
-0.148524
0.0409332
-0.1502
-0.152817
0.0416081
0.0143274
-0.0894544
0.0162237
-0.130528
0.0168842
-0.12813
0.0178186
-0.133799
0.0186525
-0.132236
0.0191521
-0.133224
0.0194742
-0.133707
0.0199432
-0.133643
0.0204148
-0.13436
0.0204682
-0.135419
0.0213788
-0.13665
0.0212868
-0.137036
0.0208213
-0.138734
0.022899
-0.141674
0.0253226
-0.143125
0.025471
-0.143977
0.0254351
-0.146279
0.0261424
-0.149232
0.0291679
-0.153226
-0.156443
0.0327937
0.0070586
-0.096513
0.0125233
-0.135992
0.0143966
-0.130003
0.0143561
-0.133758
0.0138267
-0.131707
0.0127145
-0.132112
0.011656
-0.132648
0.0110296
-0.133017
0.0103675
-0.133697
0.0103532
-0.135405
0.0095256
-0.135822
0.00952649
-0.137037
0.0105869
-0.139795
0.0103048
-0.141392
0.0109639
-0.143784
0.0122622
-0.145276
0.0123994
-0.146417
0.0126386
-0.149471
0.0128713
-0.153458
-0.157636
0.0140641
0.00805113
-0.104564
0.00783659
-0.135778
0.00754953
-0.129716
0.00679433
-0.133003
0.00621768
-0.13113
0.00644634
-0.13234
0.00658066
-0.132782
0.00628592
-0.132722
0.00607072
-0.133482
0.00550282
-0.134837
0.00566841
-0.135988
0.00464569
-0.136014
0.00220523
-0.137354
0.000936332
-0.140123
0.000357028
-0.143205
0.000895075
-0.145814
0.0023045
-0.147826
0.00301112
-0.150177
0.00406317
-0.15451
0.00528035
-0.158853
0.00648307
0.048382
-0.0548651
0.0118563
0.0434067
-0.0487799
0.0161683
0.0173854
-0.0216973
0.0203751
-0.00733217
0.00312533
0.025172
-0.026413
0.0216162
0.0305663
-0.0490013
0.043607
0.037436
-0.0854678
0.0785981
0.0433124
-0.119831
0.113955
0.045033
-0.141677
0.139956
0.0433043
-0.15264
0.154369
0.0423116
-0.158695
0.159688
0.0432739
-0.160087
0.159124
0.0430018
-0.153354
0.153626
0.030813
-0.145443
0.157632
0.00395076
-0.144799
0.171661
-0.0200253
-0.138314
0.16229
-0.0275695
-0.0863432
0.0938874
-0.0304752
-0.0694559
0.0723615
-0.0208954
-0.0298267
0.0202469
0.00676904
-0.000613898
-0.0270505
0.00726398
0.041118
0.0138978
0.0367728
0.0197011
0.0115821
0.0281444
-0.0157755
0.0358361
-0.0341047
0.0444925
-0.0576577
0.0533083
-0.0942836
0.0583882
-0.124911
0.0580735
-0.141362
0.0515235
-0.14609
0.0389993
-0.146171
0.0242348
-0.145322
0.015027
-0.144146
0.00480284
-0.135219
-0.016389
-0.123607
-0.0343905
-0.120312
-0.0257272
-0.0950065
-0.0193732
-0.0758099
-0.00979112
-0.0394088
-0.0148078
0.0117857
0.00728403
0.033834
0.0144744
0.0295824
0.0208226
0.00523388
0.0266827
-0.0216355
0.0298982
-0.0373202
0.0397884
-0.0675479
0.0503843
-0.104879
0.0556425
-0.130169
0.0551566
-0.140877
0.0513471
-0.142281
0.0428252
-0.137649
0.0286509
-0.131148
0.0140823
-0.129578
0.00344781
-0.124584
-0.00678492
-0.113374
-0.0178687
-0.109228
-0.012625
-0.10025
0.00286714
-0.0913021
0.0138895
-0.0504312
-0.0282127
0.0272944
0.00786641
0.0259676
0.0153886
0.0220603
0.0224319
-0.00180946
0.0270421
-0.0262457
0.0347909
-0.045069
0.0507134
-0.0834705
0.0611468
-0.115313
0.0614194
-0.130442
0.0547112
-0.134168
0.0468592
-0.134429
0.0411152
-0.131905
0.0355778
-0.12561
0.0262481
-0.120248
0.0186051
-0.116941
0.0191922
-0.113961
0.0148036
-0.10484
0.00389394
-0.0893405
0.0029858
-0.0903939
0.00950323
-0.0569486
-0.0415895
0.02288
0.00744607
0.0185215
0.0150846
0.0144217
0.0206618
-0.00738661
0.0216763
-0.0272602
0.0378118
-0.0612045
0.0553946
-0.101053
0.062259
-0.122177
0.061339
-0.129522
0.0574617
-0.130291
0.0511544
-0.128121
0.0451845
-0.125935
0.0435864
-0.124012
0.0431265
-0.119788
0.0390081
-0.112823
0.0351703
-0.110123
0.0332642
-0.102934
0.0302585
-0.0863347
0.0214782
-0.0816136
0.0294834
-0.0649538
-0.0577961
0.04569
0.00547439
0.0130471
0.0126625
0.00723362
0.0146197
-0.00934389
0.0260661
-0.0387065
0.0497004
-0.0848389
0.0612987
-0.112651
0.0630403
-0.123919
0.0610832
-0.127565
0.0592071
-0.128415
0.0567615
-0.125676
0.0530655
-0.122239
0.04919
-0.120137
0.0470928
-0.117691
0.0470892
-0.112819
0.0429146
-0.105949
0.0381048
-0.0981239
0.0489004
-0.0971303
0.0557381
-0.0884513
0.0702788
-0.0794946
-0.0784642
0.0909468
0.00271023
0.0103369
0.00521519
0.00472866
0.00956018
-0.0136889
0.0349126
-0.0640589
0.0526598
-0.102586
0.0581837
-0.118175
0.0592881
-0.125023
0.0591815
-0.127458
0.0575582
-0.126792
0.0571596
-0.125277
0.0583186
-0.123398
0.0572447
-0.119063
0.0540321
-0.114478
0.0524232
-0.11121
0.0540232
-0.107549
0.0573571
-0.101458
0.0603249
-0.100098
0.0682928
-0.0964192
0.0799403
-0.091142
-0.0914974
0.0929735
-0.00105369
0.0113906
-0.00270896
0.00638392
0.0184137
-0.0348115
0.0432107
-0.0888559
0.0516555
-0.111031
0.0560993
-0.122619
0.0581706
-0.127095
0.0581868
-0.127475
0.0571786
-0.125783
0.0563532
-0.124452
0.0565287
-0.123573
0.0584644
-0.120999
0.0615551
-0.117569
0.0632012
-0.112857
0.0670051
-0.111352
0.0752507
-0.109703
0.0815323
-0.10638
0.0866896
-0.101577
0.0948835
-0.099336
-0.0971527
0.100539
-0.00399061
0.0153812
0.00197057
0.000422742
0.0292244
-0.0620654
0.0421723
-0.101804
0.0509068
-0.119765
0.0548369
-0.126549
0.0558318
-0.12809
0.0557149
-0.127358
0.0564348
-0.126503
0.0566912
-0.124708
0.0553637
-0.122246
0.0549658
-0.120601
0.0569637
-0.119567
0.0641058
-0.119999
0.0704355
-0.117682
0.0735012
-0.112769
0.0806519
-0.11353
0.0872822
-0.108207
0.0973362
-0.10939
-0.105868
0.106051
-0.0109196
0.0101146
0.0334473
0.0443488
0.0496296
0.0514547
0.0517064
0.0522647
0.0532497
0.0547081
0.0570305
0.0588735
0.060226
0.0603956
0.062107
0.067222
0.0704631
0.0783672
0.0882998
0.0985966
0.0290684
0.0705159
-0.100198
0.0651342
0.117588
-0.153653
0.10878
0.131876
-0.175523
0.147499
0.149337
-0.188056
0.176574
0.163284
-0.192359
0.190338
0.178156
-0.191919
0.206852
0.167422
-0.183937
0.236411
0.14082
-0.170379
0.278723
0.155616
-0.197928
0.325491
0.199544
-0.246312
0.356414
0.23275
-0.263674
0.35209
0.212284
-0.20796
0.323597
0.123215
-0.0947225
0.287266
-0.0458127
0.0821437
0.244726
-0.201577
0.244118
0.200297
-0.299933
0.344362
0.159705
-0.36631
0.406903
0.12174
-0.371796
0.409761
0.0793067
-0.358305
0.400738
0.0508838
-0.349104
0.377527
0.0392018
-0.22852
0.240202
0.0273853
-0.0177932
0.0296097
0.0302297
0.160385
-0.16323
0.0699001
0.224173
-0.263844
0.0941836
0.216025
-0.240308
0.0901831
0.248599
-0.244599
0.092991
0.256713
-0.259521
0.098768
0.212503
-0.21828
0.101354
0.120472
-0.123058
0.107197
-0.00604295
0.00019903
0.118936
-0.129398
0.117659
0.143054
-0.201517
0.177399
0.206716
-0.242252
0.178591
0.26033
-0.291156
0.237542
0.262097
-0.395847
0.394081
0.250982
-0.277626
0.288742
0.258241
0.101025
-0.108285
0.253787
0.324429
-0.319974
0.220027
0.381473
-0.347714
0.198952
0.406078
-0.385003
0.221389
0.178124
-0.200561
0.246185
-0.137301
0.112506
0.2418
-0.333122
0.337506
0.22782
-0.340197
0.354177
0.234482
-0.0705096
0.0638485
0.238257
0.267949
-0.271724
0.214882
0.380912
-0.357537
0.179109
0.396525
-0.360752
0.156561
0.230802
-0.208254
-0.0509536
0.0529888
0.0432899
0.0390118
0.0755244
0.0853531
0.111892
0.0955087
0.150524
0.110706
0.18155
0.132258
0.198665
0.161042
0.210779
0.155308
0.231707
0.119892
0.27801
0.109313
0.334074
0.14348
0.372514
0.19431
0.383225
0.201573
0.361105
0.145336
0.309219
0.00607299
0.259967
-0.152325
0.214356
-0.254323
0.158759
-0.310713
0.105304
-0.318341
0.0623334
-0.315335
0.0296515
-0.316422
0.0199594
-0.218828
0.0193722
-0.0172061
0.0387917
0.140966
0.0727452
0.19022
0.0802936
0.208477
0.083969
0.244924
0.0916399
0.249043
0.0932574
0.210886
0.0930412
0.120688
0.105694
-0.0186961
0.124844
-0.148548
0.140969
-0.217642
0.182912
-0.284196
0.226157
-0.3344
0.227166
-0.396856
0.216672
-0.267133
0.23008
0.0876171
0.230913
0.323596
0.204317
0.408069
0.189717
0.420678
0.210543
0.157298
0.232462
-0.159221
0.227868
-0.328527
0.212324
-0.324654
0.217613
-0.0757988
0.22018
0.265382
0.198149
0.402943
0.166364
0.42831
0.14796
0.249205
-0.0518996
0.0503305
0.0159757
0.0836566
0.052027
0.124005
0.0551603
0.162469
0.0722419
0.193915
0.100812
0.211131
0.143825
0.214648
0.151792
0.222443
0.112097
0.254423
0.0773325
0.313725
0.0841775
0.36871
0.139325
0.382844
0.18744
0.356482
0.171698
0.307196
0.0553587
0.254465
-0.0995941
0.216742
-0.2166
0.172242
-0.266213
0.118723
-0.264822
0.0787804
-0.275392
0.0436039
-0.281246
0.0213896
-0.196614
0.0193947
-0.0152112
0.0400029
0.120358
0.0673274
0.162896
0.0818333
0.193971
0.0885292
0.238228
0.0901787
0.247393
0.0887002
0.212364
0.0881062
0.121282
0.102607
-0.0331968
0.122632
-0.168573
0.13635
-0.23136
0.159774
-0.30762
0.18981
-0.364436
0.190096
-0.397142
0.181781
-0.258818
0.201216
0.0681814
0.207747
0.317065
0.18881
0.427007
0.180164
0.429323
0.198975
0.138487
0.217218
-0.177463
0.213085
-0.324394
0.196592
-0.308161
0.19717
-0.0763763
0.19716
0.265392
0.178751
0.421352
0.152772
0.454288
0.139489
0.262489
-0.0560162
0.0410944
-0.00223866
0.0786446
0.0144768
0.123016
0.0107888
0.161984
0.0332741
0.189935
0.0728604
0.204324
0.129436
0.211015
0.145102
0.214
0.109111
0.232116
0.0592168
0.2804
0.0358934
0.338571
0.0811546
0.366984
0.159027
0.355243
0.183439
0.313719
0.0968824
0.25465
-0.0405249
0.208777
-0.170726
0.177395
-0.234831
0.136372
-0.223799
0.0873625
-0.226383
0.0377189
-0.231602
0.0073694
-0.166264
0.0166522
-0.024494
0.0520032
0.0850067
0.0789227
0.135976
0.0861547
0.186739
0.0883135
0.236069
0.0892131
0.246494
0.0846638
0.216913
0.0817744
0.124172
0.0922296
-0.043652
0.111072
-0.187416
0.124354
-0.244641
0.136029
-0.319296
0.155694
-0.3841
0.158886
-0.400334
0.151266
-0.251198
0.169124
0.0503233
0.180348
0.305841
0.170006
0.437349
0.168485
0.430845
0.186607
0.120366
0.200041
-0.190898
0.195134
-0.319487
0.178362
-0.291389
0.174332
-0.0723461
0.172719
0.267005
0.159641
0.43443
0.139882
0.474047
0.131381
0.27099
-0.0629245
0.0601552
-0.0167039
0.086159
-0.011527
0.119165
-0.0222173
0.157369
-0.00492995
0.192473
0.0377564
0.2193
0.102609
0.230005
0.134397
0.226971
0.112145
0.231772
0.0544155
0.253202
0.0144642
0.298465
0.0358909
0.3407
0.116792
0.345657
0.178481
0.318819
0.12372
0.277771
0.000523608
0.229687
-0.122642
0.186584
-0.191728
0.150115
-0.18733
0.110734
-0.187003
0.063904
-0.184772
0.035438
-0.137798
0.0468974
-0.0359534
0.0700704
0.0618336
0.0778063
0.12824
0.0800545
0.18449
0.08379
0.232334
0.0786552
0.251628
0.0707369
0.224832
0.0684182
0.12649
0.0762827
-0.0515165
0.0969112
-0.208044
0.109117
-0.256847
0.112506
-0.322684
0.121324
-0.392919
0.127615
-0.406625
0.126933
-0.250516
0.141405
0.0358516
0.154645
0.292601
0.151312
0.440682
0.156684
0.425472
0.174605
0.102445
0.183744
-0.200037
0.178313
-0.314057
0.161153
-0.274229
0.151978
-0.0631717
0.14924
0.269744
0.141915
0.441755
0.128005
0.487957
0.12353
0.275465
-0.0723265
0.105432
-0.0311891
0.111103
-0.0171977
0.118399
-0.0295137
0.136325
-0.0228556
0.164639
0.00944212
0.196183
0.0710651
0.210758
0.119822
0.214845
0.108058
0.228735
0.0405253
0.254367
-0.0111678
0.277975
0.0122823
0.293824
0.100944
0.300881
0.171424
0.284051
0.140551
0.250238
0.0343368
0.212544
-0.0849484
0.180503
-0.159687
0.162199
-0.169026
0.13278
-0.157584
0.0932566
-0.145249
0.0677296
-0.112271
0.0670275
-0.0352513
0.0780968
0.0507643
0.0888221
0.117515
0.094869
0.178444
0.0915266
0.235676
0.0811859
0.261969
0.0683587
0.237659
0.0601755
0.134674
0.0651175
-0.0564585
0.0848997
-0.227826
0.0951066
-0.267054
0.0921795
-0.319757
0.0934083
-0.394148
0.0988786
-0.412095
0.102502
-0.254139
0.113134
0.0252194
0.126761
0.278974
0.13043
0.437013
0.144636
0.411266
0.162335
0.0847465
0.16664
-0.204342
0.160219
-0.307636
0.143158
-0.257168
0.131215
-0.0512287
0.129788
0.27117
0.127748
0.443795
0.117616
0.498089
0.116324
0.276757
-0.0838033
0.108967
-0.0471827
0.121615
-0.0298452
0.125401
-0.0333
0.132342
-0.0297971
0.145205
-0.0034205
0.162656
0.0536146
0.182643
0.0998347
0.200641
0.0900599
0.217905
0.0232615
0.243399
-0.036662
0.265244
-0.00956282
0.276591
0.0895975
0.28497
0.163045
0.281667
0.143853
0.265079
0.0509251
0.222981
-0.0428504
0.161825
-0.0985311
0.121946
-0.129146
0.0990587
-0.134696
0.0803305
-0.126521
0.0707826
-0.102723
0.0771087
-0.0415774
0.0934506
0.0344224
0.10175
0.109215
0.0975377
0.182656
0.088176
0.245038
0.0746179
0.275527
0.0607898
0.251487
0.0529433
0.14252
0.0566197
-0.0601349
0.0721878
-0.243395
0.0818471
-0.276713
0.0753416
-0.313252
0.0689746
-0.387781
0.0716447
-0.414765
0.0778868
-0.260382
0.0902339
0.0128723
0.101798
0.26741
0.110665
0.428146
0.133553
0.388378
0.149325
0.0689746
0.15032
-0.205336
0.145123
-0.302439
0.129697
-0.241742
0.116595
-0.0381272
0.115662
0.272103
0.116454
0.443003
0.108478
0.506065
0.109621
0.275614
-0.0973344
0.101561
-0.0482049
0.109094
-0.0373782
0.113963
-0.0381695
0.121591
-0.0374247
0.133976
-0.0158055
0.15329
0.0343003
0.175931
0.0771942
0.196729
0.0692617
0.205726
0.0142651
0.212523
-0.0434592
0.227331
-0.0243708
0.248002
0.0689261
0.259028
0.152019
0.249417
0.153464
0.229091
0.071251
0.197071
-0.0108311
0.153124
-0.054584
0.116554
-0.092576
0.0942977
-0.11244
0.0782067
-0.11043
0.0730989
-0.0976153
0.0834166
-0.0518951
0.101045
0.0167944
0.111039
0.0992207
0.114834
0.178861
0.109289
0.250583
0.0929419
0.291874
0.0742331
0.270196
0.0571262
0.159627
0.0510331
-0.0540418
0.0600993
-0.252461
0.0685931
-0.285207
0.0625652
-0.307224
0.0539914
-0.379207
0.0494946
-0.410268
0.0497797
-0.260667
0.0614628
0.00118909
0.0701954
0.258677
0.0892658
0.409075
0.121942
0.355702
0.134966
0.0559503
0.133963
-0.204333
0.130731
-0.299206
0.118144
-0.229156
0.106697
-0.0266796
0.106366
0.272434
0.108457
0.440912
0.101368
0.513154
0.103971
0.273011
-0.11301
0.107055
-0.0492086
0.10932
-0.0396435
0.106404
-0.0352531
0.105832
-0.0368526
0.114514
-0.0244875
0.137456
0.0113583
0.167339
0.0473111
0.193796
0.0428044
0.197667
0.0103938
0.183752
-0.0295437
0.185834
-0.0264526
0.204143
0.0506168
0.227315
0.128847
0.243434
0.137346
0.234464
0.080221
0.21359
0.0100424
0.194321
-0.0353144
0.166627
-0.0648822
0.133395
-0.0792082
0.106049
-0.0830838
0.0917202
-0.0832861
0.0917565
-0.0519314
0.106297
0.00225342
0.1241
0.0814183
0.12977
0.173191
0.120205
0.260148
0.100556
0.311524
0.0802381
0.290513
0.0624852
0.17738
0.0525345
-0.044091
0.0561714
-0.256098
0.0631321
-0.292167
0.0558232
-0.299915
0.0457166
-0.3691
0.0373474
-0.401899
0.0293904
-0.25271
0.0362517
-0.00567219
0.0463067
0.248622
0.0763021
0.37908
0.111817
0.320187
0.119622
0.0481457
0.119181
-0.203892
0.120822
-0.300848
0.113002
-0.221336
0.10382
-0.0174978
0.101765
0.27449
0.102744
0.439933
0.0957781
0.52012
0.0995561
0.269233
-0.130329
0.102034
-0.0526456
0.108421
-0.0460304
0.109131
-0.0359636
0.104471
-0.0321925
0.1056
-0.0256169
0.119036
-0.00207758
0.144237
0.0221097
0.162708
0.0243343
0.160263
0.0128381
0.140307
-0.00958748
0.126524
-0.01267
0.138002
0.0391389
0.165195
0.101654
0.190155
0.112385
0.199143
0.0712337
0.196781
0.0124041
0.192051
-0.0305839
0.184713
-0.0575443
0.16491
-0.0594055
0.137368
-0.0555421
0.11291
-0.0588279
0.102162
-0.0411837
0.110524
-0.00610819
0.128952
0.0629904
0.145836
0.156307
0.15212
0.253863
0.137928
0.325716
0.11061
0.317832
0.0805711
0.207419
0.0592018
-0.0227217
0.0547276
-0.251624
0.0611428
-0.298583
0.0550969
-0.293869
0.0419951
-0.355998
0.028296
-0.3882
0.00970681
-0.234121
0.00421275
-0.000178131
0.020642
0.232193
0.0643957
0.335326
0.0999332
0.284649
0.103725
0.0443541
0.105194
-0.205361
0.111186
-0.306839
0.108532
-0.218682
0.102278
-0.0112434
0.099453
0.277314
0.0988721
0.440514
0.0917021
0.52729
0.0964224
0.264513
-0.148165
0.167794
-0.0444944
-0.175945
0.160983
-0.0392203
0.157297
-0.0322774
0.151331
-0.0262265
0.147751
-0.0220371
0.149372
-0.00369856
0.158125
0.0133572
0.168809
0.0136505
0.168626
0.0130205
0.152764
0.00627474
0.128726
0.0113679
0.12095
0.0469149
0.146338
0.0762661
0.181122
0.0776014
0.205248
0.0471074
0.204726
0.0129263
0.192113
-0.0179712
0.186534
-0.0519647
0.184809
-0.057681
0.173936
-0.0446691
0.149666
-0.034558
0.126248
-0.0177656
0.113851
0.00628855
0.108989
0.0678532
0.106909
0.158387
0.098108
0.262664
0.0904705
0.333353
0.0830777
0.325225
0.0854293
0.205067
0.100599
-0.0378909
0.116654
-0.267679
0.119705
-0.301634
0.108694
-0.282858
0.0948661
-0.342171
0.0656934
-0.359027
0.0146842
-0.183111
-0.0212735
0.0357796
-0.00836264
0.219282
0.0435134
0.28345
0.0818975
0.246265
0.0980436
0.0282079
0.108628
-0.215945
0.113403
-0.311615
0.105995
-0.211275
0.0927995
0.00195237
0.0853241
0.284789
0.0822304
0.443608
0.0770014
0.532519
0.0854873
0.256027
-0.163124
0.184533
-0.0392353
-0.189792
0.178285
-0.032972
0.174908
-0.0289003
0.170001
-0.0213194
0.163477
-0.0155135
0.164984
-0.00520557
0.170423
0.00791816
0.17731
0.00676326
0.17944
0.0108907
0.173955
0.0117603
0.162974
0.0223484
0.16584
0.0440492
0.186327
0.0557786
0.207956
0.0559724
0.225436
0.0296272
0.227062
0.0113004
0.211076
-0.00198488
0.188798
-0.0296871
0.172195
-0.0410779
0.159312
-0.031786
0.141763
-0.0170086
0.132762
-0.00876432
0.129583
0.00946692
0.124458
0.072978
0.12599
0.156855
0.129087
0.259567
0.12369
0.338751
0.11595
0.332965
0.119868
0.201148
0.127494
-0.045516
0.139325
-0.279511
0.141803
-0.304111
0.127311
-0.268366
0.109764
-0.324624
0.0770443
-0.326308
0.0174335
-0.123501
-0.0204054
0.0736185
0.00245985
0.196417
0.0514578
0.234452
0.0824689
0.215254
0.1037
0.00697671
0.115159
-0.227404
0.117413
-0.313868
0.110925
-0.204786
0.0995211
0.0133563
0.0917681
0.292542
0.0860133
0.449363
0.0795825
0.538949
0.0895523
0.246057
-0.178211
0.201204
-0.0327478
-0.207692
0.195775
-0.027543
0.191763
-0.0248878
0.189306
-0.0188623
0.18406
-0.0102673
0.184774
-0.00591992
0.187194
0.00549775
0.187941
0.00601632
0.189896
0.00893574
0.189682
0.0119746
0.188682
0.0233487
0.198102
0.0346286
0.215145
0.0387357
0.227504
0.0436133
0.235792
0.0213394
0.235082
0.0120102
0.229181
0.00391653
0.227828
-0.0283346
0.221873
-0.0351226
0.204477
-0.0143901
0.181624
0.00584414
0.16941
0.0034502
0.157773
0.0211039
0.149516
0.0812346
0.157731
0.14864
0.165949
0.251349
0.165833
0.338867
0.162483
0.336314
0.160963
0.202669
0.162726
-0.0472786
0.176591
-0.293376
0.179694
-0.307214
0.161414
-0.250085
0.138531
-0.30174
0.10068
-0.288457
0.0335554
-0.0563758
-0.00372954
0.110903
0.0195807
0.173107
0.0540823
0.199951
0.0840201
0.185316
0.118347
-0.0273504
0.131243
-0.2403
0.128405
-0.31103
0.121634
-0.198016
0.112941
0.0220499
0.102991
0.302492
0.0914537
0.4609
0.0829818
0.547421
0.0939961
0.235043
-0.19339
0.219134
-0.0256693
-0.226212
0.214386
-0.0227951
0.209474
-0.0199761
0.206587
-0.0159749
0.204411
-0.00809103
0.203602
-0.00511147
0.204999
0.00410116
0.205295
0.00571994
0.206622
0.0076086
0.207022
0.0115748
0.207902
0.0224689
0.219659
0.0228718
0.230489
0.0279056
0.235964
0.0381379
0.244716
0.0125877
0.244456
0.0122698
0.234201
0.0141717
0.216753
-0.0108861
0.202772
-0.0211419
0.192722
-0.00433951
0.178855
0.0197105
0.170758
0.0115475
0.169669
0.0221927
0.172067
0.0788366
0.185609
0.135098
0.205651
0.231308
0.21669
0.327828
0.215095
0.337909
0.221665
0.196099
0.224185
-0.0497992
0.231434
-0.300625
0.225138
-0.300919
0.191876
-0.216823
0.165394
-0.275258
0.126382
-0.249445
0.0607006
0.00930516
0.0280437
0.14356
0.0426744
0.158476
0.0581281
0.184497
0.0966271
0.146817
0.149651
-0.0803741
0.158967
-0.249616
0.1407
-0.292762
0.128394
-0.185711
0.122698
0.0277457
0.112032
0.313159
0.0975792
0.475352
0.0888066
0.556194
0.10014
0.223709
-0.208787
0.237977
-0.0212086
-0.242437
0.232851
-0.0176693
0.229233
-0.016358
0.225557
-0.0122996
0.223651
-0.00618428
0.223285
-0.00474602
0.223827
0.0035596
0.224937
0.00460935
0.223794
0.00875174
0.227133
0.00823644
0.229364
0.0202371
0.233727
0.0185087
0.242582
0.0190509
0.250604
0.0301156
0.253465
0.00972741
0.256046
0.00968832
0.255651
0.0145664
0.245635
-0.00086945
0.238995
-0.014502
0.229061
0.00559394
0.211523
0.0372492
0.20593
0.0171407
0.202139
0.0259833
0.197288
0.0836871
0.214556
0.11783
0.249407
0.196457
0.268418
0.308817
0.282719
0.323608
0.301306
0.177512
0.28784
-0.0363326
0.275202
-0.287988
0.265031
-0.290747
0.223828
-0.175621
0.197736
-0.249165
0.167162
-0.218871
0.104531
0.0719359
0.0693851
0.178706
0.0659227
0.161939
0.0693952
0.181025
0.122956
0.0932562
0.194256
-0.151674
0.202928
-0.258288
0.170438
-0.260273
0.150398
-0.165671
0.144553
0.033591
0.128521
0.329191
0.10857
0.495303
0.0983257
0.566438
0.109708
0.212327
-0.224409
0.256145
-0.0166575
-0.260696
0.252782
-0.0143067
0.248429
-0.0120046
0.246648
-0.0105187
0.243966
-0.00350222
0.24348
-0.00425947
0.243973
0.00306634
0.244228
0.00435459
0.246861
0.00611883
0.24483
0.0102673
0.25123
0.0138367
0.253794
0.0159453
0.254015
0.0188298
0.267551
0.0165794
0.263429
0.0138494
0.261668
0.011449
0.266194
0.0100408
0.25956
0.00576415
0.25584
-0.010782
0.244541
0.0168929
0.23856
0.0432308
0.233841
0.0218598
0.219873
0.0399508
0.217706
0.0858545
0.247171
0.0883649
0.291874
0.151754
0.317509
0.283181
0.330712
0.310405
0.354504
0.153721
0.343886
-0.025714
0.313518
-0.25762
0.282783
-0.260012
0.233903
-0.126741
0.216243
-0.231505
0.196755
-0.199384
0.143632
0.12506
0.111444
0.210895
0.09519
0.178192
0.095731
0.180484
0.15951
0.0294768
0.235857
-0.228021
0.243711
-0.266141
0.198234
-0.214796
0.167189
-0.134626
0.157652
0.0431286
0.140643
0.346199
0.120772
0.515175
0.111768
0.575442
0.125432
0.198663
-0.239731
0.277378
-0.0118998
-0.282136
0.274691
-0.0116199
0.27036
-0.00767304
0.268677
-0.00883623
0.266233
-0.00105813
0.264738
-0.00276426
0.265673
0.00213165
0.263821
0.00620582
0.268348
0.00159202
0.266527
0.0120889
0.270418
0.00994517
0.277531
0.00883236
0.273528
0.0228332
0.281797
0.00831054
0.283194
0.0124518
0.279872
0.0147713
0.284076
0.00583718
0.277891
0.011949
0.266662
0.000446198
0.255102
0.0284538
0.261825
0.0365075
0.27229
0.011395
0.245051
0.0671891
0.22048
0.110426
0.263041
0.0458034
0.339363
0.0754315
0.363377
0.259167
0.383325
0.290457
0.415207
0.121839
0.387497
0.00199579
0.351271
-0.221394
0.31922
-0.227961
0.266533
-0.0740534
0.248922
-0.213895
0.246227
-0.196688
0.211169
0.160117
0.180918
0.241146
0.144084
0.215026
0.145056
0.179511
0.210305
-0.0357717
0.268198
-0.285915
0.280363
-0.278306
0.240383
-0.174816
0.207648
-0.101891
0.192357
0.0584196
0.167051
0.371505
0.140732
0.541493
0.131525
0.58465
0.148407
0.181781
-0.254128
0.300222
-0.00878577
-0.303336
0.296814
-0.00821207
0.294438
-0.00529764
0.291417
-0.00581479
0.290265
9.33091e-05
0.288156
-0.000654994
0.287808
0.0024797
0.288286
0.00572846
0.287331
0.00254701
0.290843
0.00857646
0.290607
0.0101815
0.295668
0.00377074
0.29823
0.0202717
0.297447
0.00909293
0.303791
0.00610787
0.29645
0.0221121
0.29676
0.00552772
0.301249
0.00746029
0.289874
0.0118205
0.283735
0.0345935
0.287565
0.0326774
0.295397
0.00356257
0.285191
0.0773958
0.253404
0.142212
0.278412
0.0207957
0.357211
-0.00336748
0.394713
0.221665
0.443288
0.241882
0.463705
0.101422
0.435794
0.0299073
0.410241
-0.195841
0.360874
-0.178595
0.296947
-0.010126
0.26412
-0.181068
0.254256
-0.186824
0.253283
0.16109
0.233443
0.260985
0.196283
0.252185
0.239563
0.136232
0.304213
-0.100423
0.302076
-0.283777
0.275667
-0.251897
0.235223
-0.134372
0.208958
-0.0756267
0.205439
0.0619388
0.190053
0.386891
0.165477
0.56607
0.159369
0.590758
0.179934
0.161215
-0.267182
0.323006
-0.00680671
-0.324985
0.319412
-0.0046181
0.318651
-0.00453673
0.314954
-0.00211751
0.315016
3.14381e-05
0.313075
0.00128572
0.312103
0.00345211
0.313739
0.0040927
0.310164
0.00612185
0.314786
0.00395427
0.312701
0.0122666
0.315408
0.00106363
0.320862
0.0148178
0.316845
0.0131099
0.323576
-0.00062335
0.320802
0.0248863
0.319792
0.00653756
0.320662
0.00659018
0.308896
0.0235864
0.316238
0.0272523
0.313384
0.0355311
0.305101
0.0118451
0.326786
0.0557114
0.326357
0.142641
0.318759
0.0283945
0.35089
-0.0354989
0.393587
0.178968
0.460507
0.174962
0.493783
0.0681462
0.46722
0.0564702
0.417325
-0.145946
0.379847
-0.141118
0.359413
0.0103082
0.348662
-0.170316
0.335072
-0.173234
0.32985
0.166312
0.308975
0.28186
0.277619
0.283542
0.341409
0.0724421
0.401128
-0.160141
0.338821
-0.221471
0.275524
-0.188599
0.26456
-0.123408
0.264482
-0.0755489
0.258515
0.0679061
0.232488
0.412917
0.203468
0.59509
0.198742
0.595484
0.220865
0.139092
-0.278113
0.346998
-0.00556956
-0.348235
0.343312
-0.000932642
0.343208
-0.00443207
0.339695
0.00139494
0.340058
-0.000331411
0.338409
0.00293442
0.337646
0.00421593
0.339433
0.00230491
0.33635
0.00920522
0.340063
0.000241582
0.338279
0.0140499
0.338886
0.000456935
0.342841
0.0108632
0.341261
0.0146897
0.343698
-0.00306032
0.34274
0.0258444
0.344324
0.00495343
0.341411
0.00950329
0.336785
0.0282122
0.345919
0.018118
0.341044
0.0404066
0.331493
0.0213956
0.350496
0.036709
0.37172
0.121416
0.366956
0.0331586
0.352381
-0.020924
0.393093
0.138256
0.458018
0.110038
0.474997
0.0511664
0.478856
0.0526116
0.432674
-0.0997637
0.370385
-0.078829
0.373171
0.00752182
0.340921
-0.138066
0.321249
-0.153562
0.377525
0.110036
0.383053
0.276332
0.338134
0.328461
0.361908
0.0486682
0.385353
-0.183586
0.304921
-0.141039
0.201448
-0.085126
0.194787
-0.116747
0.243663
-0.124425
0.278973
0.0325964
0.275299
0.416591
0.253243
0.617146
0.25156
0.597167
0.275446
0.115206
-0.285964
0.372361
-0.00410787
-0.373823
0.369393
0.00203608
0.369012
-0.00405139
0.366202
0.00420479
0.366557
-0.000686553
0.364983
0.00450824
0.364745
0.00445404
0.365726
0.00132396
0.363814
0.0111179
0.36654
-0.00248499
0.364867
0.015723
0.36552
-0.000195561
0.366828
0.00955465
0.36635
0.0151675
0.368138
-0.0048482
0.366946
0.027037
0.370618
0.00128106
0.366669
0.0134519
0.364273
0.0306089
0.373717
0.00867378
0.367809
0.0463141
0.363522
0.0256831
0.374203
0.026028
0.395568
0.100051
0.400006
0.0287203
0.371874
0.00720809
0.407543
0.102587
0.456712
0.0608688
0.452576
0.0553024
0.462572
0.0426157
0.443709
-0.0809005
0.403549
-0.0386691
0.411474
-0.000403107
0.369166
-0.0957582
0.326481
-0.110877
0.385493
0.0510241
0.451828
0.209996
0.481687
0.298603
0.425685
0.104669
0.378392
-0.136292
0.370255
-0.132902
0.308936
-0.0238068
0.260514
-0.0683258
0.28736
-0.151271
0.329383
-0.00942655
0.332065
0.413909
0.315309
0.633902
0.320742
0.591734
0.348569
0.0873785
-0.288076
0.399414
-0.00237623
-0.401146
0.397787
0.00366322
0.39655
-0.00281473
0.39511
0.00564482
0.394679
-0.000255146
0.393607
0.00558046
0.393343
0.00471759
0.393161
0.0015055
0.39262
0.011659
0.393205
-0.00307002
0.393043
0.0158852
0.393158
-0.000310404
0.393443
0.00926988
0.39411
0.0145003
0.394496
-0.0052345
0.394368
0.0271658
0.397101
-0.00145219
0.394081
0.0164714
0.394144
0.0305463
0.400241
0.00257696
0.395804
0.0507508
0.398633
0.022854
0.401815