/*--------------------------------*- C++ -*----------------------------------*\
| =========                 |                                                 |
| \\      /  F ield         | OpenFOAM: The Open Source CFD Toolbox           |
|  \\    /   O peration     | Version:  2512                                  |
|   \\  /    A nd           | Website:  www.openfoam.com                      |
|    \\/     M anipulation  |                                                 |
\*---------------------------------------------------------------------------*/
FoamFile
{
    version     2.0;
    format      ascii;
    arch        "LSB;label=32;scalar=64";
    class       volVectorField;
    location    "186.95";
    object      U;
}
// * * * * * * * * * * * * * * * * * * * * * * * * * * * * * * * * * * * * * //

dimensions      [0 1 -1 0 0 0 0];

internalField   nonuniform List<vector> 
13248
(
(-0.0247175 0.0184524 4.04227e-20)
(-0.0557685 0.0367402 0)
(-0.0713184 0.0426977 -6.98009e-20)
(-0.0671737 0.0434507 6.46335e-20)
(-0.0394908 0.0420856 5.93565e-20)
(0.0157351 0.0398589 0)
(0.101881 0.0373269 0)
(0.21993 0.0350062 1.32679e-19)
(0.366742 0.0335397 -1.41917e-21)
(0.534408 0.0331847 -1.11749e-19)
(0.711289 0.0337499 1.01761e-19)
(0.884121 0.0345374 -6.27932e-20)
(1.04038 0.0345116 0)
(1.17027 0.0325735 -1.0712e-19)
(1.26807 0.027905 1.98788e-19)
(1.33274 0.0201777 -4.73663e-20)
(1.36779 0.00959066 -8.36858e-20)
(1.38034 -0.00314085 7.80267e-20)
(1.37881 -0.0172413 0)
(1.37089 -0.0330079 0)
(1.36064 -0.0462149 0)
(1.3487 -0.0685461 0)
(1.33426 -0.0704752 2.15117e-20)
(1.31356 -0.112631 7.54973e-20)
(-0.0301883 0.0217809 -1.21897e-19)
(-0.0599662 0.0414793 7.70936e-20)
(-0.063707 0.0465606 -4.85378e-22)
(-0.0389239 0.0448566 -9.85937e-20)
(0.0178908 0.0405076 -5.92699e-20)
(0.11014 0.0358041 -5.52681e-20)
(0.238745 0.0322548 -9.88403e-20)
(0.39926 0.0309585 9.28803e-20)
(0.580874 0.0323059 0)
(0.768074 0.0358411 4.99184e-22)
(0.944348 0.0403511 1.70213e-21)
(1.09583 0.0442277 6.36511e-20)
(1.21376 0.045953 0)
(1.29542 0.0445181 0)
(1.34382 0.039649 7.15201e-20)
(1.36616 0.0316714 -1.33518e-19)
(1.37143 0.0214317 7.84647e-20)
(1.36764 0.0095683 -7.31598e-20)
(1.36007 -0.00310055 -3.14231e-20)
(1.3507 -0.0159995 -5.71694e-20)
(1.33911 -0.0294669 -2.26276e-20)
(1.32626 -0.0415415 -4.24555e-20)
(1.30965 -0.0526247 6.25526e-20)
(1.29682 -0.0687896 1.71042e-20)
(-0.0332187 0.0222189 0)
(-0.0575033 0.0409108 0)
(-0.0443126 0.0450407 3.55073e-20)
(0.00756562 0.0421853 3.2284e-20)
(0.100803 0.0372406 -7.25381e-22)
(0.236216 0.0334589 -5.74357e-20)
(0.408461 0.0329286 0)
(0.603643 0.0363914 -4.593e-20)
(0.801781 0.0430732 4.26364e-20)
(0.9826 0.0510705 5.18937e-22)
(1.13091 0.058113 -6.94827e-20)
(1.2394 0.0623359 -6.21809e-20)
(1.30878 0.0627646 1.67123e-21)
(1.34587 0.0594005 -4.91279e-20)
(1.36049 0.0529232 1.18097e-19)
(1.36214 0.0443066 0)
(1.35761 0.0344086 -7.40219e-20)
(1.3503 0.0237314 3.61018e-20)
(1.34137 0.0131602 3.1392e-20)
(1.33073 0.00147443 0)
(1.31938 -0.00770061 2.50475e-20)
(1.3066 -0.0211596 -8.2589e-20)
(1.29414 -0.0262596 7.71266e-20)
(1.28044 -0.0426078 4.59347e-20)
(-0.0337029 0.0202578 -4.30168e-20)
(-0.047417 0.0353507 -4.11447e-20)
(-0.0113746 0.038024 3.66895e-20)
(0.0745312 0.0353278 0)
(0.210708 0.0327809 0)
(0.391405 0.0340978 -1.35161e-21)
(0.599951 0.0406802 0)
(0.811197 0.0513886 -1.4143e-19)
(1.00012 0.063407 1.29006e-19)
(1.14966 0.0736807 -1.55956e-19)
(1.25387 0.0800739 3.48083e-20)
(1.31664 0.0818403 0)
(1.34784 0.0794371 5.49348e-20)
(1.35882 0.0739466 -1.00301e-19)
(1.35882 0.0665008 2.37431e-20)
(1.35354 0.0579431 5.89375e-20)
(1.34564 0.0487092 -3.10326e-21)
(1.33625 0.0392411 -6.36481e-20)
(1.32579 0.0292287 0)
(1.315 0.0197321 0)
(1.30346 0.00969335 -2.16399e-20)
(1.29187 0.000121536 1.906e-20)
(1.27893 -0.00632764 6.71133e-20)
(1.26689 -0.0206199 -6.26566e-20)
(-0.0315128 0.0167813 -4.54248e-20)
(-0.0283161 0.0265599 -4.1938e-20)
(0.037911 0.0280223 1.15719e-19)
(0.165288 0.027785 -6.94617e-20)
(0.34822 0.0315754 6.43415e-20)
(0.568367 0.0420833 1.15589e-19)
(0.795003 0.0579231 -8.05406e-20)
(0.996729 0.0750776 -9.55234e-20)
(1.15317 0.0894304 2.94478e-21)
(1.25879 0.0985032 1.17805e-19)
(1.31995 0.10184 0)
(1.34885 0.100419 3.05348e-20)
(1.35788 0.0957324 0)
(1.3563 0.0890875 -4.76245e-20)
(1.34961 0.0813389 6.63861e-20)
(1.34059 0.0729255 7.88332e-22)
(1.33061 0.0641631 -1.66978e-20)
(1.32028 0.0550588 3.11268e-20)
(1.3099 0.0461404 2.61113e-20)
(1.29917 0.0369488 -2.30324e-20)
(1.2883 0.0285582 2.16303e-20)
(1.27696 0.0196383 -1.90513e-20)
(1.26552 0.0129136 0)
(1.25461 0.00169804 -1.36157e-20)
(-0.0261314 0.0125238 4.54134e-20)
(0.0017701 0.0166754 4.42552e-20)
(0.106496 0.0186301 -3.88558e-20)
(0.281278 0.0244468 7.16669e-20)
(0.508067 0.0386565 -6.63809e-20)
(0.751369 0.0602811 5.92399e-20)
(0.971337 0.0838662 -2.80893e-20)
(1.14155 0.103694 7.17584e-20)
(1.25505 0.116588 -4.43997e-20)
(1.31959 0.12225 7.54984e-20)
(1.34931 0.122163 -1.70975e-19)
(1.35794 0.118276 6.15683e-20)
(1.35544 0.112174 -5.21798e-20)
(1.34782 0.104857 4.85761e-20)
(1.3382 0.0968655 4.07419e-20)
(1.32802 0.0885203 3.49729e-20)
(1.31774 0.0799457 -9.63267e-20)
(1.3074 0.0713915 5.9241e-20)
(1.29684 0.0627143 -2.61075e-20)
(1.2862 0.0543327 6.64217e-20)
(1.27536 0.045927 -2.14744e-20)
(1.26455 0.0377641 -4.99879e-20)
(1.25353 0.0310317 4.56702e-20)
(1.24282 0.0208677 1.36115e-20)
(-0.0166554 0.00800034 0)
(0.044846 0.00769284 5.97597e-22)
(0.19585 0.0134468 8.23133e-20)
(0.419127 0.0296723 -7.56108e-20)
(0.677387 0.0566986 -6.73417e-20)
(0.920874 0.0878547 1.23042e-19)
(1.11289 0.114994 -5.62295e-20)
(1.24172 0.133463 7.25524e-20)
(1.31501 0.142725 -2.1938e-21)
(1.34869 0.144683 -3.94367e-20)
(1.3584 0.141841 8.2955e-20)
(1.35561 0.136238 -1.20433e-19)
(1.34727 0.129181 0)
(1.33693 0.121386 -2.25575e-20)
(1.32609 0.113225 -5.89867e-20)
(1.3152 0.104859 1.84307e-20)
(1.30436 0.0964255 8.86829e-22)
(1.29358 0.087919 -3.82543e-20)
(1.28295 0.0795516 2.95971e-21)
(1.2724 0.0712417 4.34841e-20)
(1.26198 0.0632261 -1.9026e-20)
(1.25161 0.0555491 -6.71825e-21)
(1.24123 0.0482801 2.1327e-20)
(1.23129 0.0396541 0)
(-0.00210876 0.00373583 0)
(0.102198 0.00162867 2.26736e-20)
(0.304515 0.0157164 -1.07724e-19)
(0.569741 0.0459841 3.86544e-20)
(0.839812 0.0851494 -3.58029e-20)
(1.06251 0.121683 -3.20418e-20)
(1.21582 0.148068 -5.48129e-20)
(1.3046 0.162742 2.74867e-20)
(1.34622 0.167823 2.30866e-20)
(1.35901 0.166501 0)
(1.35677 0.161501 4.89945e-20)
(1.34797 0.154612 -7.1325e-20)
(1.33686 0.146817 5.24407e-20)
(1.32524 0.13859 2.25675e-20)
(1.31372 0.130138 -1.78786e-20)
(1.30249 0.121587 -1.44491e-20)
(1.29156 0.112997 -1.33174e-20)
(1.28092 0.104493 4.01921e-20)
(1.27045 0.096073 0)
(1.26016 0.087866 1.91742e-20)
(1.25 0.0798779 1.55112e-20)
(1.23997 0.0721612 -3.89723e-20)
(1.23001 0.064765 -2.57117e-20)
(1.22027 0.05713 2.35463e-20)
(0.0182884 0.000408935 -2.69494e-20)
(0.173751 0.00065226 -1.31528e-21)
(0.427498 0.027984 2.21046e-20)
(0.72063 0.0736403 6.11636e-20)
(0.98221 0.121525 1.71716e-20)
(1.17138 0.158863 -3.27604e-20)
(1.28494 0.181543 2.93093e-20)
(1.34032 0.19142 -2.48169e-20)
(1.35915 0.192464 4.31936e-20)
(1.35868 0.188367 1.77277e-20)
(1.3497 0.181647 -4.99223e-20)
(1.33775 0.173703 1.4351e-20)
(1.32518 0.165201 2.38507e-20)
(1.31284 0.156439 -1.16993e-20)
(1.30095 0.147569 0)
(1.28949 0.138676 1.66134e-20)
(1.27841 0.129847 2.73359e-20)
(1.26765 0.12111 4.25831e-21)
(1.25721 0.112555 -2.21791e-20)
(1.24708 0.104206 8.97988e-21)
(1.23724 0.0961467 0)
(1.22761 0.0884008 -6.73383e-21)
(1.21815 0.0807983 -6.30018e-21)
(1.20889 0.0737876 0)
(0.044822 -0.0010673 0)
(0.257557 0.00701252 1.31531e-20)
(0.556766 0.0516093 2.41207e-20)
(0.860115 0.111154 -6.27586e-20)
(1.09811 0.163202 2.0119e-20)
(1.24944 0.197705 0)
(1.32757 0.215041 2.77828e-20)
(1.35734 0.219902 -3.81637e-20)
(1.36075 0.217282 -2.15374e-20)
(1.35223 0.210813 9.50494e-21)
(1.33947 0.202575 -1.46559e-20)
(1.32581 0.193571 3.54126e-20)
(1.31246 0.184249 1.7165e-20)
(1.29971 0.174808 -1.20308e-20)
(1.28758 0.16535 -1.31038e-21)
(1.27601 0.155954 -3.09415e-20)
(1.26496 0.146673 1.38899e-20)
(1.2544 0.137579 -3.82061e-22)
(1.24424 0.128703 0)
(1.23447 0.120111 -8.98878e-21)
(1.225 0.111833 0)
(1.21577 0.103803 1.92021e-20)
(1.20672 0.0961023 -2.23642e-20)
(1.19775 0.0894767 1.00159e-20)
(0.0771121 0.000298812 -7.7146e-21)
(0.34973 0.0225373 -3.38629e-20)
(0.683171 0.086476 3.81429e-20)
(0.980373 0.156372 2.16216e-20)
(1.18648 0.208265 -1.023e-20)
(1.30124 0.237457 1.6186e-20)
(1.3503 0.248706 -7.8332e-21)
(1.36152 0.24871 1.23913e-20)
(1.35489 0.242781 0)
(1.3416 0.234145 2.65504e-20)
(1.32671 0.224397 -1.25798e-21)
(1.31211 0.214228 -2.06514e-20)
(1.29828 0.203931 8.61912e-21)
(1.28527 0.193639 -9.45876e-21)
(1.27303 0.183435 -3.41607e-21)
(1.26146 0.173383 4.0754e-21)
(1.25049 0.163541 -3.01051e-21)
(1.24004 0.153946 -1.59842e-20)
(1.2301 0.144647 9.68875e-21)
(1.22061 0.135681 1.90493e-21)
(1.21152 0.127062 1.63411e-21)
(1.20276 0.118753 1.40064e-21)
(1.19421 0.110931 0)
(1.18575 0.1042 0)
(0.11421 0.0054829 7.72395e-21)
(0.445053 0.0483092 -7.12894e-21)
(0.798804 0.13137 -1.27841e-20)
(1.0777 0.207283 0)
(1.24916 0.255533 -5.05997e-21)
(1.33151 0.277883 -4.40717e-21)
(1.35798 0.282816 -7.19281e-21)
(1.3563 0.278204 0)
(1.34335 0.269173 0)
(1.32729 0.258391 0)
(1.31124 0.247013 0)
(1.29612 0.235494 0)
(1.28207 0.224028 -5.38425e-21)
(1.269 0.212708 2.41966e-21)
(1.2568 0.201594 4.09321e-21)
(1.24537 0.190736 1.88962e-21)
(1.23464 0.180173 4.52772e-21)
(1.22455 0.169946 0)
(1.21504 0.160087 -1.01632e-21)
(1.20603 0.150625 -9.59728e-22)
(1.19747 0.141549 -1.63668e-21)
(1.18924 0.132837 -1.40284e-21)
(1.18124 0.124799 0)
(1.17336 0.117746 9.21586e-22)
(-0.00316382 0.025725 6.08333e-21)
(-0.0141479 0.0992164 -5.777e-21)
(-0.0329391 0.168453 -1.06828e-20)
(-0.056821 0.222883 0)
(-0.0835211 0.264786 -1.38388e-20)
(-0.11086 0.301369 4.334e-21)
(-0.137057 0.338255 -7.95415e-21)
(-0.160905 0.377484 0)
(-0.181534 0.418526 0)
(-0.198114 0.459728 0)
(-0.209739 0.499057 0)
(-0.215444 0.534308 0)
(-0.214276 0.563175 1.90924e-22)
(-0.205386 0.583351 -5.55227e-21)
(-0.188127 0.592674 1.07992e-20)
(-0.162141 0.589279 1.5879e-20)
(-0.127433 0.571799 5.21097e-21)
(-0.0844043 0.539493 0)
(-0.033995 0.492284 4.89826e-21)
(0.0224728 0.430788 -1.39679e-20)
(0.0836331 0.356409 -9.07488e-21)
(0.148172 0.270876 -8.70949e-21)
(0.211485 0.177145 0)
(0.278097 0.0740775 0)
(-0.00364416 0.0303353 -1.80703e-20)
(-0.0138578 0.110425 2.86417e-20)
(-0.0276846 0.186803 -1.03582e-20)
(-0.0450508 0.24771 -1.94034e-20)
(-0.0648702 0.293628 2.71305e-20)
(-0.0852292 0.331126 -1.67332e-20)
(-0.104122 0.366309 2.34655e-20)
(-0.11996 0.402015 1.42828e-20)
(-0.131594 0.438189 0)
(-0.138091 0.473276 -1.34981e-20)
(-0.13858 0.505191 -6.27591e-22)
(-0.132216 0.531712 1.16711e-20)
(-0.118249 0.550653 1.68904e-20)
(-0.0961074 0.559958 2.24355e-20)
(-0.0655178 0.55784 -9.80854e-21)
(-0.0265339 0.542926 -3.08463e-20)
(0.0204569 0.514387 1.06832e-20)
(0.0746153 0.471997 -3.92414e-20)
(0.134754 0.416197 0)
(0.199595 0.347952 9.38138e-21)
(0.265741 0.269186 9.05837e-21)
(0.336263 0.181237 8.69378e-21)
(0.39765 0.0889932 0)
(0.47006 -0.0109861 0)
(-0.00416548 0.0298576 0)
(-0.0139251 0.11071 5.5145e-20)
(-0.0230044 0.191773 -2.04341e-20)
(-0.0334017 0.259106 1.90193e-20)
(-0.0452366 0.310075 -5.19016e-20)
(-0.0572351 0.349382 0)
(-0.0675049 0.383063 -3.00329e-20)
(-0.0741871 0.41484 1.36121e-20)
(-0.0758341 0.445537 -2.57091e-20)
(-0.071408 0.474068 1.15867e-20)
(-0.0601398 0.498527 7.08905e-20)
(-0.0413902 0.516829 -3.29753e-20)
(-0.0146818 0.52698 -5.56423e-20)
(0.0202027 0.527207 -2.25975e-20)
(0.0631672 0.516085 -2.05158e-21)
(0.11376 0.492667 8.11713e-20)
(0.171195 0.456567 -3.88018e-20)
(0.234407 0.407917 6.17428e-22)
(0.301132 0.347466 0)
(0.372434 0.27672 -3.64911e-20)
(0.438689 0.197411 0)
(0.513673 0.111394 -3.61829e-20)
(0.568694 0.0248704 1.32022e-19)
(0.643917 -0.0687251 3.69762e-22)
(-0.00419434 0.0252677 0)
(-0.0137664 0.101008 -5.40035e-22)
(-0.0193465 0.182943 1.95745e-20)
(-0.0236538 0.255262 -1.78889e-20)
(-0.0276636 0.311758 1.72344e-20)
(-0.0308917 0.354134 9.2784e-20)
(-0.0319633 0.387314 -2.88306e-20)
(-0.0291511 0.415489 -2.62865e-20)
(-0.0208847 0.44054 5.02393e-20)
(-0.00599855 0.462289 -7.2065e-20)
(0.0162761 0.479399 2.14605e-20)
(0.0463899 0.490131 2.08878e-20)
(0.0845059 0.492754 0)
(0.130481 0.485779 2.06511e-20)
(0.183849 0.468111 0)
(0.24382 0.439139 3.73816e-20)
(0.309017 0.398628 -7.7991e-20)
(0.378878 0.347556 1.53002e-20)
(0.448751 0.285771 7.13423e-20)
(0.523657 0.21646 3.64489e-20)
(0.586218 0.140467 0)
(0.664276 0.0604729 -1.00929e-19)
(0.709697 -0.0196309 3.19753e-20)
(0.790871 -0.108734 0)
(-0.00349228 0.0182622 0)
(-0.0129627 0.0840821 -6.3171e-20)
(-0.016939 0.162205 -1.89502e-20)
(-0.0173052 0.236247 -3.53412e-20)
(-0.0150692 0.2972 3.27433e-20)
(-0.0103787 0.343382 -3.05455e-20)
(-0.00262226 0.377524 5.54293e-20)
(0.00938443 0.40336 2.63358e-20)
(0.0269793 0.42348 -7.23766e-20)
(0.051286 0.438776 4.53345e-20)
(0.0830416 0.448831 -6.45641e-20)
(0.12257 0.452539 1.4065e-19)
(0.169802 0.448616 -7.66145e-20)
(0.224294 0.435937 3.63397e-20)
(0.285221 0.413632 1.10915e-19)
(0.351495 0.381635 -3.36162e-20)
(0.421187 0.33928 -3.03135e-20)
(0.494039 0.28903 -3.44067e-20)
(0.563754 0.228502 0)
(0.638984 0.165286 -6.77711e-20)
(0.698508 0.0941618 -6.75947e-20)
(0.780246 0.0214995 9.23334e-20)
(0.822295 -0.0557286 1.20739e-19)
(0.923967 -0.144156 -1.10347e-19)
(-0.00217969 0.0107229 0)
(-0.0115745 0.0638525 -8.14292e-20)
(-0.0159812 0.133623 9.6714e-22)
(-0.0152976 0.204683 6.94273e-20)
(-0.00968033 0.266836 0)
(0.000631092 0.315709 0)
(0.0156156 0.351495 0)
(0.0357023 0.376569 -2.50559e-20)
(0.0616276 0.393427 -1.93999e-23)
(0.0941344 0.403635 4.23512e-20)
(0.133728 0.40768 -6.2539e-20)
(0.180545 0.405287 -7.26396e-22)
(0.234305 0.395814 0)
(0.294309 0.378673 -3.63234e-20)
(0.359453 0.353215 3.42022e-20)
(0.428436 0.320052 -9.66654e-20)
(0.499363 0.277756 1.32138e-19)
(0.571565 0.23087 3.54286e-20)
(0.642617 0.173979 6.01057e-21)
(0.718749 0.11827 -1.19719e-19)
(0.785811 0.0483547 -5.7121e-20)
(0.880607 -0.0183043 2.00102e-19)
(0.940531 -0.0995552 -1.31464e-19)
(1.07361 -0.185884 0)
(-0.000744902 0.00428667 4.2068e-20)
(-0.010359 0.0443609 4.056e-20)
(-0.0170154 0.102535 -3.64374e-20)
(-0.0181348 0.16571 -6.6989e-20)
(-0.0125251 0.224193 6.20628e-20)
(3.46098e-05 0.272318 -5.57618e-20)
(0.0193073 0.308276 7.69281e-20)
(0.0450992 0.332824 -2.47537e-20)
(0.0774152 0.347694 4.33481e-20)
(0.116352 0.354484 0)
(0.161917 0.354199 3.63855e-20)
(0.213878 0.347264 -6.71083e-20)
(0.27169 0.333713 6.78868e-20)
(0.334568 0.313587 -6.31877e-20)
(0.401583 0.286601 0)
(0.47195 0.253775 6.11868e-20)
(0.545966 0.213685 1.20428e-19)
(0.623779 0.170627 -1.14523e-19)
(0.707586 0.116594 -5.56463e-20)
(0.799106 0.0644887 -6.07788e-20)
(0.896866 -0.00676572 1.64457e-19)
(1.01314 -0.0674731 5.06421e-20)
(1.10555 -0.152885 -4.64679e-20)
(1.24532 -0.223794 4.27509e-20)
(4.12482e-05 9.41834e-05 -4.20785e-20)
(-0.010741 0.0288631 1.17138e-19)
(-0.0211402 0.0740612 -3.59563e-20)
(-0.0262234 0.1256 6.55103e-20)
(-0.0234907 0.175484 -6.06936e-20)
(-0.0120407 0.218131 -2.95164e-23)
(0.00804571 0.25076 2.49185e-20)
(0.0362686 0.27289 8.74022e-20)
(0.0720645 0.285352 -1.27421e-21)
(0.114923 0.289394 -3.896e-20)
(0.164384 0.286162 0)
(0.220078 0.276497 -3.20662e-20)
(0.281786 0.260976 6.13482e-20)
(0.349706 0.240018 6.06979e-20)
(0.424591 0.213698 -2.84488e-20)
(0.507762 0.182488 -1.89645e-21)
(0.600907 0.145003 -2.88372e-20)
(0.704741 0.103539 5.289e-20)
(0.820585 0.0522482 5.56556e-20)
(0.94317 0.00262762 -5.42598e-20)
(1.07152 -0.0637361 4.77357e-20)
(1.19318 -0.114637 -4.48803e-20)
(1.29429 -0.191703 0)
(1.38773 -0.235178 -4.27761e-20)
(-0.000790674 -0.000980966 4.07026e-20)
(-0.0143632 0.0195161 -3.89095e-20)
(-0.0295781 0.0519987 3.51908e-20)
(-0.0396711 0.0900077 0)
(-0.0412692 0.12782 0)
(-0.0329205 0.160866 5.16392e-20)
(-0.0143573 0.186376 -4.88918e-20)
(0.0140278 0.203336 4.16741e-20)
(0.0516756 0.211997 -1.96759e-19)
(0.0982527 0.213258 2.75043e-22)
(0.153823 0.208236 3.267e-20)
(0.219166 0.19781 0)
(0.295636 0.182578 -5.94799e-20)
(0.384804 0.162786 1.12774e-19)
(0.487917 0.138544 -8.15437e-20)
(0.605205 0.109568 -1.36976e-19)
(0.734936 0.0758459 -5.17279e-21)
(0.873278 0.0379843 9.66383e-20)
(1.01392 -0.00523412 0)
(1.14821 -0.0479498 0)
(1.26759 -0.099581 -4.77531e-20)
(1.35916 -0.137324 4.4899e-20)
(1.42078 -0.194628 -1.51718e-19)
(1.44092 -0.213624 1.41395e-19)
(-0.00416244 0.00131082 0)
(-0.0223877 0.0170506 0)
(-0.04245 0.0384708 -1.04747e-19)
(-0.0567999 0.0631077 3.28332e-20)
(-0.0617533 0.0877385 1.27457e-21)
(-0.0553417 0.109292 5.26756e-20)
(-0.0365693 0.125673 0)
(-0.00492204 0.135988 -4.25429e-20)
(0.040228 0.140303 3.89543e-20)
(0.100055 0.139271 -6.92927e-20)
(0.176027 0.133609 -1.39484e-22)
(0.269434 0.123877 6.07549e-20)
(0.380852 0.110561 1.33927e-21)
(0.509252 0.0938214 5.75391e-20)
(0.651409 0.073952 -7.75387e-20)
(0.801906 0.050438 0)
(0.953428 0.0244736 1.01314e-19)
(1.09723 -0.00534924 -1.44079e-19)
(1.22418 -0.0363999 4.39706e-20)
(1.32611 -0.0693206 0)
(1.39577 -0.103966 3.81563e-20)
(1.4322 -0.13059 1.46857e-19)
(1.43653 -0.168947 -1.37145e-19)
(1.41336 -0.176488 -1.43936e-19)
(-0.0100909 0.00637343 1.18965e-19)
(-0.0339782 0.0208368 -1.50417e-19)
(-0.0570759 0.0339496 5.53976e-22)
(-0.0721731 0.0472786 3.20085e-20)
(-0.0755171 0.0600967 -5.78956e-20)
(-0.0643968 0.0709383 -5.24837e-20)
(-0.0364046 0.0787411 9.30033e-20)
(0.0106314 0.0830184 -2.57773e-21)
(0.0787501 0.0837415 -7.79645e-20)
(0.169439 0.0812405 1.40348e-19)
(0.28287 0.0760806 -5.24615e-22)
(0.41716 0.0687886 -6.01932e-20)
(0.567703 0.0596021 0)
(0.727594 0.0484422 0)
(0.888175 0.0352808 -2.61899e-20)
(1.04001 0.0194959 -4.87578e-20)
(1.17395 0.00184035 -9.54424e-20)
(1.28192 -0.0195142 8.89742e-20)
(1.35925 -0.0405972 -4.40159e-20)
(1.40348 -0.0660283 7.74504e-20)
(1.41895 -0.0875925 -3.95961e-20)
(1.4125 -0.110239 6.27592e-20)
(1.39408 -0.135986 -1.48212e-19)
(1.37274 -0.143753 2.83162e-20)
(-0.0175158 0.0127582 3.96449e-20)
(-0.0462637 0.0286079 0)
(-0.0683018 0.0367201 6.91317e-20)
(-0.0776859 0.0420861 -6.40152e-20)
(-0.0705573 0.0461529 5.7972e-20)
(-0.0432847 0.0489944 0)
(0.00780039 0.0504707 0)
(0.0855089 0.0503589 -4.25527e-20)
(0.190941 0.0488764 1.52671e-21)
(0.322632 0.0465007 3.6793e-20)
(0.475595 0.0436511 -3.33262e-20)
(0.641748 0.0403446 6.1373e-20)
(0.810831 0.0362567 0)
(0.971876 0.0308219 1.08811e-19)
(1.11467 0.0233596 -2.03707e-19)
(1.23116 0.0133206 1.44198e-19)
(1.31639 0.000639611 8.94622e-20)
(1.36951 -0.015014 -8.34075e-20)
(1.39406 -0.0311056 0)
(1.39677 -0.0513716 0)
(1.38777 -0.0657663 0)
(1.37329 -0.090511 0)
(1.36027 -0.103781 2.78355e-20)
(1.34564 -0.121095 -9.11147e-20)
(0.344672 -0.043816 -5.30642e-21)
(0.414094 -0.198241 5.33299e-21)
(0.477223 -0.372102 -1.56462e-22)
(0.536665 -0.554905 0)
(0.587303 -0.718341 -3.44319e-21)
(0.621338 -0.82809 6.09271e-21)
(0.640205 -0.867813 -5.00314e-22)
(0.64493 -0.857317 -2.10665e-21)
(0.635929 -0.823988 0)
(0.625918 -0.777038 0)
(0.615485 -0.736371 -7.90603e-23)
(0.588918 -0.731614 -7.88122e-23)
(0.545721 -0.748706 -1.60741e-21)
(0.511056 -0.715389 1.47995e-21)
(0.514302 -0.562724 0)
(0.556603 -0.293043 0)
(0.617943 0.0331435 1.95333e-21)
(0.680972 0.333901 -2.25006e-22)
(0.736961 0.540361 -1.53614e-21)
(0.781549 0.640781 -6.7923e-23)
(0.807942 0.671855 0)
(0.820845 0.66272 0)
(0.832344 0.633609 0)
(0.834621 0.627972 0)
(0.815647 0.671701 0)
(0.777814 0.718808 0)
(0.736711 0.678292 3.56349e-22)
(0.705581 0.49707 -5.79703e-22)
(0.693313 0.201099 0)
(0.699392 -0.1194 0)
(0.722801 -0.365385 -3.89985e-22)
(0.754148 -0.499841 3.78933e-22)
(0.786074 -0.552302 1.23298e-22)
(0.799385 -0.57092 0)
(0.777827 -0.585766 0)
(0.718938 -0.585411 1.71586e-22)
(0.651391 -0.518649 -1.66771e-22)
(0.602604 -0.349371 0)
(0.594134 -0.103278 2.13863e-22)
(0.622498 0.140234 -2.98092e-22)
(0.678657 0.309097 7.16058e-23)
(0.711451 0.414781 0)
(0.698753 0.483659 -1.01395e-22)
(0.656525 0.500491 9.85924e-23)
(0.628995 0.423084 0)
(0.623308 0.242751 0)
(0.652339 0.0306518 -5.04206e-23)
(0.674458 -0.182652 1.48403e-22)
(0.677005 -0.344904 0)
(0.654759 -0.43507 0)
(0.647951 -0.41323 -2.59905e-23)
(0.642051 -0.232198 3.89529e-24)
(0.647993 -0.0140762 -2.50516e-24)
(0.62702 0.254489 1.30637e-23)
(0.619087 0.405624 0)
(0.60799 0.347355 0)
(0.613325 0.216312 0)
(0.559192 -0.137704 0)
(0.54811 -0.313818 0)
(0.529418 -0.100053 0)
(0.526979 -0.120696 -5.25884e-22)
(0.584167 -0.265929 -2.13558e-20)
(0.642304 -0.434604 1.32194e-21)
(0.698913 -0.612526 1.8723e-20)
(0.740577 -0.764581 2.40691e-22)
(0.755283 -0.858001 0)
(0.746787 -0.881398 -8.79735e-21)
(0.72648 -0.85471 1.58416e-20)
(0.695623 -0.811348 -7.04074e-21)
(0.662638 -0.761594 5.2498e-21)
(0.635299 -0.713509 -5.01897e-21)
(0.599661 -0.694673 4.97166e-21)
(0.545869 -0.705945 -4.80708e-21)
(0.490415 -0.68928 -1.61991e-22)
(0.463209 -0.569414 -6.90218e-21)
(0.479412 -0.328544 6.70326e-21)
(0.529831 -0.0198411 -6.97941e-21)
(0.595167 0.275232 6.58927e-21)
(0.662925 0.4887 -4.9199e-21)
(0.722742 0.605646 8.51723e-21)
(0.764649 0.652531 -3.64836e-21)
(0.794138 0.651536 -1.55535e-22)
(0.820371 0.628079 -2.27947e-21)
(0.835139 0.631414 4.52874e-21)
(0.82867 0.685566 -2.24835e-21)
(0.803806 0.740146 1.75151e-22)
(0.775816 0.702244 4.09506e-21)
(0.756185 0.516793 9.21354e-22)
(0.752063 0.209955 -9.34024e-21)
(0.759615 -0.123811 8.95418e-21)
(0.776621 -0.380076 -4.16155e-21)
(0.794876 -0.516575 3.63477e-22)
(0.811336 -0.562824 -1.23553e-22)
(0.812637 -0.568448 1.86131e-22)
(0.783338 -0.56814 0)
(0.717231 -0.558667 0)
(0.64204 -0.494417 -6.79972e-22)
(0.587684 -0.338077 4.97787e-22)
(0.578879 -0.109765 5.42658e-22)
(0.612237 0.120658 -7.71571e-25)
(0.671841 0.290801 -6.54707e-22)
(0.705312 0.410146 1.00428e-22)
(0.695608 0.491736 0)
(0.65748 0.512252 0)
(0.631341 0.430074 0)
(0.625876 0.240885 0)
(0.658905 0.0232204 2.645e-22)
(0.685641 -0.18623 -9.9465e-23)
(0.688442 -0.343225 0)
(0.661041 -0.431076 0)
(0.649826 -0.411971 0)
(0.641562 -0.232158 -2.96415e-23)
(0.646383 -0.0135659 1.63749e-23)
(0.628128 0.256888 -3.30586e-23)
(0.62528 0.407022 0)
(0.616935 0.348806 0)
(0.623948 0.220918 3.82098e-23)
(0.564048 -0.129041 1.28896e-22)
(0.545927 -0.312755 0)
(0.535962 -0.0983351 0)
(0.68678 -0.171871 3.58407e-23)
(0.73525 -0.310135 -4.33738e-20)
(0.793516 -0.470534 3.93778e-20)
(0.84987 -0.638719 -3.68063e-20)
(0.882554 -0.775991 -2.42394e-22)
(0.880311 -0.850266 0)
(0.848721 -0.860392 -1.79489e-20)
(0.804938 -0.82719 1.75162e-20)
(0.756786 -0.781978 9.83454e-23)
(0.706677 -0.736666 1.58422e-22)
(0.663641 -0.687204 1.38463e-22)
(0.619951 -0.654816 1.44489e-22)
(0.558509 -0.65702 -9.29961e-21)
(0.486485 -0.653861 9.19403e-21)
(0.433634 -0.568602 0)
(0.423143 -0.363882 3.34068e-22)
(0.456792 -0.0792297 -1.19315e-20)
(0.520488 0.205682 1.17775e-20)
(0.596903 0.425274 0)
(0.668385 0.558965 0)
(0.723888 0.622313 -5.55001e-21)
(0.768667 0.63143 1.01195e-20)
(0.809284 0.614853 -8.81058e-21)
(0.83745 0.626194 -2.0119e-22)
(0.844569 0.690343 9.5416e-21)
(0.833683 0.755097 -1.18838e-20)
(0.81893 0.724086 1.42741e-20)
(0.811459 0.538896 1.13452e-21)
(0.816276 0.226831 -9.50922e-21)
(0.824997 -0.11586 0)
(0.835078 -0.381763 0)
(0.840357 -0.522523 1.83967e-21)
(0.841421 -0.566494 -2.51096e-21)
(0.8308 -0.563012 -2.3338e-24)
(0.795594 -0.548988 1.06294e-21)
(0.723871 -0.531342 -1.03286e-21)
(0.641673 -0.47154 0)
(0.582407 -0.329806 1.63794e-22)
(0.572977 -0.119846 1.31633e-21)
(0.609223 0.0984138 -2.32788e-21)
(0.670317 0.271376 9.5052e-22)
(0.704653 0.404854 7.11085e-23)
(0.699064 0.499367 -9.90985e-22)
(0.664612 0.524423 7.89671e-22)
(0.639014 0.438617 2.75607e-22)
(0.633244 0.240595 3.14898e-22)
(0.669396 0.0165872 -2.65205e-22)
(0.70054 -0.188831 0)
(0.704368 -0.340166 0)
(0.671207 -0.425831 -4.72147e-22)
(0.65484 -0.410921 2.1103e-22)
(0.644145 -0.232917 -1.0757e-22)
(0.648389 -0.0140112 1.28869e-22)
(0.633041 0.257635 1.59619e-22)
(0.635044 0.408087 -5.7489e-23)
(0.629048 0.349897 1.53917e-22)
(0.638306 0.226291 -1.79953e-22)
(0.573903 -0.118515 1.29951e-22)
(0.547978 -0.311961 0)
(0.545916 -0.0979039 0)
(0.826639 -0.209624 -8.5427e-20)
(0.876406 -0.347507 2.85355e-21)
(0.941054 -0.502403 7.80598e-20)
(0.995107 -0.656356 -5.562e-22)
(1.01235 -0.773011 0)
(0.988813 -0.825403 0)
(0.936441 -0.822406 -3.47103e-20)
(0.87392 -0.786274 5.81966e-21)
(0.813181 -0.740216 3.78869e-20)
(0.752617 -0.700057 -1.58193e-21)
(0.697187 -0.657256 -9.25415e-21)
(0.647384 -0.615357 -7.51364e-21)
(0.585062 -0.600851 7.51643e-21)
(0.504063 -0.602191 0)
(0.429459 -0.551862 -9.17096e-21)
(0.393184 -0.392838 8.30876e-21)
(0.40679 -0.141898 0)
(0.462452 0.127921 0)
(0.540848 0.351394 7.22666e-21)
(0.619344 0.501181 -1.23241e-21)
(0.686227 0.58139 -5.44659e-21)
(0.744675 0.601678 -4.22206e-21)
(0.79812 0.592208 4.18478e-21)
(0.839203 0.610069 -4.41467e-21)
(0.8615 0.682791 -7.94734e-22)
(0.865407 0.758729 4.95343e-21)
(0.863435 0.738955 9.01402e-22)
(0.868377 0.560836 1.02432e-23)
(0.882521 0.249029 0)
(0.893325 -0.0998397 9.40999e-21)
(0.897348 -0.375159 -9.66745e-21)
(0.890551 -0.520815 3.8255e-22)
(0.876507 -0.564069 0)
(0.852959 -0.555171 -1.86079e-22)
(0.812705 -0.529719 1.91258e-21)
(0.73775 -0.503063 -3.35092e-21)
(0.649555 -0.448012 -3.20915e-22)
(0.585393 -0.323198 -1.66463e-22)
(0.574659 -0.132797 1.63246e-21)
(0.611922 0.0740015 2.36054e-22)
(0.673677 0.250358 -1.33776e-21)
(0.709613 0.396833 1.12707e-21)
(0.708259 0.504738 1.48513e-23)
(0.677053 0.536761 1.03773e-21)
(0.652444 0.449175 -1.28548e-21)
(0.646267 0.242428 -2.34267e-21)
(0.684226 0.0103735 6.17224e-22)
(0.719138 -0.191243 9.26456e-22)
(0.724617 -0.336133 -1.55179e-21)
(0.685249 -0.418945 8.89045e-22)
(0.662944 -0.40948 -1.01849e-22)
(0.64972 -0.234481 2.06976e-22)
(0.653824 -0.0156476 6.8377e-23)
(0.641466 0.25668 -1.68385e-22)
(0.648027 0.408827 -3.16928e-23)
(0.644053 0.350685 -1.76531e-22)
(0.656117 0.232235 0)
(0.58883 -0.106272 -1.21885e-22)
(0.554349 -0.311189 1.42154e-22)
(0.559043 -0.0986366 0)
(0.962997 -0.245399 8.01181e-20)
(1.02002 -0.381537 -1.53952e-19)
(1.08648 -0.52371 7.30398e-20)
(1.12788 -0.651466 6.06942e-20)
(1.12172 -0.737832 -1.10024e-19)
(1.07402 -0.769617 8.4965e-21)
(1.00453 -0.76083 4.01503e-20)
(0.930196 -0.731648 2.61331e-20)
(0.862522 -0.692457 -2.55573e-20)
(0.798315 -0.655849 0)
(0.735235 -0.621847 -1.49542e-20)
(0.679498 -0.581669 2.78904e-20)
(0.619881 -0.5525 -1.30114e-20)
(0.539657 -0.546431 0)
(0.451239 -0.521049 0)
(0.390742 -0.410387 2.62799e-22)
(0.381586 -0.20214 -1.50033e-20)
(0.42315 0.0463186 1.45668e-20)
(0.496337 0.269669 0)
(0.5765 0.433635 9.74926e-21)
(0.651309 0.530508 -1.69262e-20)
(0.720765 0.563432 1.43646e-20)
(0.785998 0.56141 -1.37531e-20)
(0.840359 0.583055 -1.01981e-21)
(0.876696 0.661905 1.71441e-20)
(0.89403 0.751108 -9.4692e-21)
(0.906443 0.748799 -4.48435e-22)
(0.92421 0.585569 -9.19457e-21)
(0.947131 0.280307 -8.97185e-22)
(0.960997 -0.0721336 1.00768e-20)
(0.960479 -0.356998 5.34058e-22)
(0.943074 -0.509404 -5.38637e-21)
(0.915305 -0.554263 8.87519e-21)
(0.878649 -0.543573 -3.89118e-21)
(0.833995 -0.510577 0)
(0.758424 -0.475565 -1.56584e-21)
(0.665357 -0.424454 1.5172e-21)
(0.595299 -0.317437 -1.27675e-21)
(0.581978 -0.14794 1.5922e-21)
(0.618939 0.0469109 -1.26563e-22)
(0.681019 0.226432 0)
(0.719311 0.386442 -1.09366e-22)
(0.723485 0.508758 4.6139e-22)
(0.696456 0.548497 0)
(0.673211 0.46109 3.42328e-21)
(0.666161 0.246458 -1.2165e-21)
(0.703938 0.00544213 6.72235e-22)
(0.741223 -0.193187 5.98506e-22)
(0.748897 -0.330941 0)
(0.703077 -0.410242 0)
(0.673976 -0.407455 -3.51578e-22)
(0.658042 -0.236926 3.11418e-22)
(0.662388 -0.0185124 -6.89089e-23)
(0.653126 0.253877 -7.85702e-23)
(0.663918 0.408972 1.01752e-22)
(0.661598 0.351008 1.76722e-22)
(0.676971 0.238402 -5.10826e-22)
(0.608743 -0.092418 0)
(0.565101 -0.310138 -2.38668e-22)
(0.575094 -0.100387 -4.88261e-24)
(1.11482 -0.285407 7.35257e-20)
(1.16942 -0.410252 -7.27838e-20)
(1.22196 -0.527911 5.44584e-22)
(1.23642 -0.623846 -4.31162e-22)
(1.20287 -0.682142 4.15308e-22)
(1.13675 -0.700477 -3.41534e-22)
(1.0592 -0.691779 5.06356e-22)
(0.981071 -0.67124 0)
(0.908756 -0.64263 -3.288e-22)
(0.843064 -0.610089 2.64272e-22)
(0.777099 -0.580589 2.14654e-22)
(0.715241 -0.546702 -2.04451e-22)
(0.658443 -0.509967 0)
(0.587219 -0.490567 0)
(0.495848 -0.476479 1.29505e-22)
(0.415166 -0.409967 0)
(0.380549 -0.251891 -1.40126e-22)
(0.401911 -0.0325971 0)
(0.463523 0.183872 -8.63397e-21)
(0.540523 0.358234 1.55844e-20)
(0.619356 0.470315 -1.28112e-20)
(0.697044 0.516077 5.76628e-21)
(0.771854 0.521361 5.5937e-21)
(0.836943 0.546023 -5.42948e-21)
(0.886813 0.629855 -8.58069e-21)
(0.919876 0.730819 8.40681e-21)
(0.945925 0.74655 0)
(0.974221 0.603807 4.90996e-22)
(1.00537 0.314299 0)
(1.02376 -0.0352719 0)
(1.02187 -0.328882 1.39963e-20)
(0.996457 -0.48994 -1.45923e-20)
(0.957061 -0.538316 5.23576e-22)
(0.907146 -0.52867 3.56516e-22)
(0.85743 -0.491477 -2.1295e-22)
(0.784044 -0.448469 -1.08995e-21)
(0.688445 -0.399707 1.05819e-21)
(0.611236 -0.310848 -1.17212e-21)
(0.593204 -0.163843 9.90901e-22)
(0.628651 0.0178462 2.099e-22)
(0.691388 0.199623 -7.30296e-22)
(0.733399 0.371013 -2.77808e-22)
(0.743259 0.507728 6.18677e-22)
(0.720484 0.559701 0)
(0.700454 0.475642 -1.33139e-21)
(0.69344 0.253748 2.43659e-21)
(0.72901 0.00245247 -3.12398e-21)
(0.766541 -0.194746 -6.0251e-22)
(0.77678 -0.324815 0)
(0.724574 -0.399511 1.34149e-22)
(0.687745 -0.404468 -3.83911e-22)
(0.668861 -0.240111 -2.90578e-23)
(0.673743 -0.0227051 6.95088e-23)
(0.66757 0.249243 -1.27834e-24)
(0.682295 0.408779 -5.97912e-23)
(0.681254 0.350955 0)
(0.700357 0.244527 5.11129e-22)
(0.633357 -0.0771412 0)
(0.580263 -0.308518 0)
(0.593818 -0.102999 2.10435e-23)
(1.27207 -0.314814 -6.59146e-20)
(1.30319 -0.416836 6.47906e-20)
(1.32404 -0.501771 -4.25409e-22)
(1.30429 -0.566541 4.42028e-22)
(1.24728 -0.604891 0)
(1.17263 -0.619457 0)
(1.09584 -0.618022 -5.18851e-22)
(1.02205 -0.607252 0)
(0.950569 -0.589506 3.36779e-22)