/*--------------------------------*- C++ -*----------------------------------*\
| =========                 |                                                 |
| \\      /  F ield         | OpenFOAM: The Open Source CFD Toolbox           |
|  \\    /   O peration     | Version:  2312                                  |
|   \\  /    A nd           | Website:  www.openfoam.com                      |
|    \\/     M anipulation  |                                                 |
\*---------------------------------------------------------------------------*/
FoamFile
{
    version     2.0;
    format      ascii;
    arch        "LSB;label=32;scalar=64";
    class       volVectorField;
    location    "106.9";
    object      U;
}
// * * * * * * * * * * * * * * * * * * * * * * * * * * * * * * * * * * * * * //

dimensions      [0 1 -1 0 0 0 0];

internalField   nonuniform List<vector> 
5478
(
(-0.0400851 0.0234353 -7.56428e-20)
(-0.0761081 0.0378895 0)
(-0.0675428 0.0376543 1.13278e-19)
(0.00662523 0.0346964 -1.96899e-19)
(0.161179 0.0325101 1.25968e-19)
(0.385621 0.033549 -3.88207e-20)
(0.643625 0.0398881 -6.30015e-20)
(0.894238 0.0487014 0)
(1.10604 0.0569593 0)
(1.25924 0.0572771 8.16408e-20)
(1.34576 0.0501484 -3.63672e-20)
(1.37422 0.0345747 -6.3279e-20)
(1.35646 0.00234916 -2.53392e-20)
(1.3207 -0.00219209 0)
(1.30376 -0.0665501 7.10724e-20)
(-0.0506829 0.0302241 1.51993e-19)
(-0.0687392 0.0425689 0)
(-0.00596247 0.0362547 0)
(0.158742 0.0304896 -9.96037e-20)
(0.416521 0.0346092 1.30566e-19)
(0.70879 0.0486815 3.64943e-20)
(0.973142 0.0663649 -6.18551e-20)
(1.1716 0.0806798 5.48442e-20)
(1.29163 0.0855147 1.35002e-19)
(1.34084 0.0798452 -1.18095e-19)
(1.34341 0.0662138 2.39947e-21)
(1.32393 0.0447746 0)
(1.30942 0.0298335 2.52959e-20)
(1.30447 0.0062363 0)
(1.29562 -0.0152372 0)
(-0.0534963 0.0288744 -4.39324e-22)
(-0.0365684 0.0351766 -7.17173e-20)
(0.109627 0.0295761 5.21208e-22)
(0.388236 0.0375384 0)
(0.718697 0.0613334 -4.466e-20)
(1.00433 0.0882969 3.75733e-20)
(1.19751 0.107417 3.13643e-20)
(1.29626 0.113575 0)
(1.32606 0.108089 -4.50288e-20)
(1.32275 0.0960554 3.80936e-20)
(1.31201 0.0800893 3.2197e-20)
(1.30651 0.0675703 0)
(1.29853 0.0478247 0)
(1.28014 0.0382485 -6.90504e-20)
(1.25637 0.0169579 6.14914e-20)
(-0.0468306 0.0215681 -8.41579e-20)
(0.0315354 0.0188818 7.07145e-20)
(0.295509 0.0286575 -6.09886e-20)
(0.665509 0.0656941 5.39832e-20)
(0.988807 0.106789 8.99304e-20)
(1.19539 0.133786 -7.50908e-20)
(1.29233 0.142637 -3.13459e-20)
(1.32038 0.138158 2.44262e-20)
(1.32042 0.12771 -2.33848e-20)
(1.3132 0.114522 0)
(1.30377 0.10251 0)
(1.28744 0.0858829 -4.64302e-20)
(1.26806 0.0744937 6.05644e-20)
(1.25194 0.0581612 -3.41398e-20)
(1.2419 0.0404867 0)
(-0.02767 0.0113647 4.269e-20)
(0.149532 0.00639985 3.57499e-20)
(0.537711 0.0527347 -1.29147e-19)
(0.920243 0.115208 1.95569e-21)
(1.16696 0.156944 -1.2516e-21)
(1.28272 0.172695 -1.39948e-21)
(1.31935 0.171205 3.02212e-20)
(1.3217 0.162083 2.53757e-20)
(1.31099 0.149762 1.83788e-20)
(1.29497 0.136944 -2.79858e-21)
(1.27665 0.121873 -4.17745e-20)
(1.262 0.109146 0)
(1.25052 0.0945537 1.90945e-20)
(1.23765 0.0803184 -1.4315e-20)
(1.22062 0.0708009 2.54861e-20)
(0.0100578 0.00113038 -9.33055e-20)
(0.322447 0.0158198 1.00578e-19)
(0.778077 0.103631 -3.47229e-20)
(1.1022 0.172258 2.58546e-20)
(1.26209 0.202607 -4.7931e-20)
(1.3169 0.207217 -3.54493e-20)
(1.32224 0.199679 1.14728e-21)
(1.30874 0.187181 0)
(1.29095 0.17333 3.72052e-20)
(1.2746 0.15842 -3.30859e-20)
(1.26132 0.144895 1.32205e-20)
(1.24707 0.130201 0)
(1.23071 0.117274 8.00418e-21)
(1.21507 0.103453 -1.42942e-20)
(1.20308 0.0915203 0)
(0.0723802 -0.00284854 -1.16876e-20)
(0.524076 0.0589013 1.21522e-21)
(0.969302 0.169103 1.67494e-20)
(1.21421 0.229445 2.84997e-20)
(1.30619 0.246519 -2.17405e-20)
(1.32131 0.241835 3.64485e-20)
(1.30834 0.228849 -8.2631e-21)
(1.28986 0.21368 0)
(1.27212 0.197894 -2.17982e-20)
(1.25517 0.182711 1.53155e-21)
(1.23781 0.167002 1.79996e-20)
(1.22238 0.152528 0)
(1.2099 0.138138 -1.15985e-20)
(1.19835 0.123927 0)
(1.18492 0.11588 7.03538e-21)
(0.15863 0.00759104 -1.30979e-20)
(0.70973 0.129277 0)
(1.10348 0.241596 1.80511e-20)
(1.27377 0.286821 0)
(1.31585 0.29008 0)
(1.30807 0.276958 0)
(1.28791 0.259679 -7.00848e-21)
(1.26676 0.241572 0)
(1.24712 0.22374 4.39581e-21)
(1.2299 0.205984 0)
(1.21575 0.189484 -5.5901e-21)
(1.20254 0.173419 0)
(1.18899 0.158459 3.58994e-21)
(1.1764 0.14463 0)
(1.16584 0.133574 2.30746e-21)
(-0.00825171 -0.00192142 -1.13122e-20)
(-0.0374579 0.0659673 0)
(-0.0822961 0.128854 1.76496e-20)
(-0.129361 0.179242 0)
(-0.173428 0.230208 0)
(-0.21194 0.287481 0)
(-0.24207 0.349019 -1.10161e-20)
(-0.260495 0.41064 0)
(-0.263861 0.466912 9.0147e-21)
(-0.249452 0.511264 0)
(-0.214859 0.536951 -1.52561e-20)
(-0.159775 0.536086 0)
(-0.0866685 0.502725 1.33821e-20)
(0.00623962 0.435591 0)
(0.111515 0.337557 1.18187e-20)
(-0.0059254 0.0150095 5.53945e-20)
(-0.0299106 0.0993277 -3.86439e-20)
(-0.0633442 0.172874 1.58042e-20)
(-0.0981967 0.226046 5.93778e-20)
(-0.128519 0.272709 6.09116e-23)
(-0.150251 0.320912 -4.72254e-20)
(-0.160146 0.369452 3.19729e-20)
(-0.155213 0.413897 0)
(-0.132621 0.449334 2.6256e-20)
(-0.0898446 0.470176 1.33932e-21)
(-0.0277026 0.47011 -1.38683e-20)
(0.056416 0.446489 0)
(0.158227 0.395385 -3.947e-20)
(0.263582 0.304909 0)
(0.397537 0.214651 -6.06973e-20)
(-0.00430124 0.0187728 8.46469e-20)
(-0.0233581 0.109685 1.82808e-20)
(-0.0431312 0.193877 -3.33706e-20)
(-0.0615883 0.252335 -8.59987e-20)
(-0.0736786 0.295145 5.00863e-20)
(-0.0747557 0.332857 4.41229e-20)
(-0.061323 0.367312 -7.68532e-20)
(-0.0308225 0.395389 0)
(0.0181094 0.412009 -6.56417e-20)
(0.0859191 0.413578 5.83587e-20)
(0.176277 0.397017 2.68714e-20)
(0.268951 0.35044 0)
(0.401714 0.2991 2.60747e-20)
(0.493723 0.190356 -4.66738e-20)
(0.648776 0.111544 0)
(-0.00230222 0.0124207 4.02218e-20)
(-0.0193558 0.0968994 -1.08065e-19)
(-0.0296372 0.185797 1.24801e-19)
(-0.0329241 0.250515 -1.07641e-19)
(-0.0264815 0.292608 -4.58773e-20)
(-0.00703762 0.321573 3.98732e-20)
(0.0280542 0.342175 3.7745e-20)
(0.0803066 0.353747 3.1107e-20)
(0.151229 0.356063 -8.83831e-20)
(0.234142 0.337217 -2.58364e-21)
(0.3441 0.31744 2.31076e-20)
(0.4372 0.253612 0)
(0.586628 0.207959 4.45177e-20)
(0.674714 0.108793 1.38091e-19)
(0.857259 0.0251033 -8.12234e-20)
(-0.000538311 0.00291534 -6.68346e-22)
(-0.0192872 0.0701885 6.84982e-20)
(-0.0282546 0.151504 -5.92634e-20)
(-0.0235311 0.215778 5.3027e-20)
(-0.00376127 0.256629 8.94076e-20)
(0.03186 0.279215 -7.72238e-20)
(0.0836758 0.289094 -3.23727e-20)
(0.151438 0.286693 -9.09703e-20)
(0.234605 0.27934 8.13187e-20)
(0.333492 0.24884 0)
(0.448521 0.227189 0)
(0.574542 0.161791 9.16618e-20)
(0.740457 0.11915 -2.13692e-19)
(0.863314 0.0221074 7.80507e-20)
(1.09435 -0.0535189 0)
(-0.00161416 -0.00266831 2.06807e-22)
(-0.0259524 0.0437561 -6.78027e-20)
(-0.0412111 0.105077 1.75789e-19)
(-0.0372887 0.156614 -5.0719e-20)
(-0.0128044 0.18921 -4.35659e-20)
(0.0314216 0.204239 3.73822e-20)
(0.0953022 0.206409 3.23946e-20)
(0.181013 0.198232 5.5101e-20)
(0.291463 0.183156 -9.72823e-20)
(0.431402 0.15592 4.4583e-20)
(0.590482 0.12601 4.16968e-20)
(0.780688 0.0706421 0)
(0.97025 0.0321825 0)
(1.14822 -0.0551707 1.44643e-19)
(1.33899 -0.10145 -1.28345e-19)
(-0.00948056 0.000333678 -4.43501e-22)
(-0.0427517 0.0290183 0)
(-0.066451 0.0645779 0)
(-0.0654423 0.0951688 9.54352e-20)
(-0.0343476 0.113549 -4.3107e-20)
(0.0304775 0.119838 3.49582e-20)
(0.134515 0.116731 5.97803e-20)
(0.279322 0.107746 -5.30032e-20)
(0.461398 0.090993 4.84107e-20)
(0.665414 0.0753153 -4.46273e-20)
(0.880522 0.0450499 -2.22156e-21)
(1.08642 0.019874 0)
(1.25439 -0.0183969 3.25628e-20)
(1.39405 -0.0696305 0)
(1.44111 -0.0967732 0)
(-0.0244108 0.0110619 -7.44585e-20)
(-0.0645625 0.0290468 0)
(-0.0845976 0.0423055 -1.11793e-19)
(-0.0659364 0.0524958 1.93625e-19)
(0.00527431 0.0573727 -2.06008e-19)
(0.137108 0.0568209 -3.2789e-20)
(0.324094 0.0534756 6.12876e-20)
(0.547897 0.0504971 0)
(0.783607 0.0464479 0)
(1.0055 0.0435923 -8.58231e-20)
(1.19347 0.0284802 -4.04595e-20)
(1.32612 0.0206989 6.88523e-20)
(1.40312 -0.0185551 -3.26254e-20)
(1.41284 -0.0366602 0)
(1.36777 -0.0724867 -8.84758e-20)
(0.246332 0.139873 0)
(0.500848 -0.279577 5.00465e-21)
(0.644766 -0.644945 -4.60877e-21)
(0.649384 -0.80654 0)
(0.712961 -0.725959 0)
(0.583913 -0.69577 -8.24384e-23)
(0.420129 -0.621185 0)
(0.528783 -0.2156 0)
(0.701227 0.244162 6.6364e-23)
(0.844198 0.416957 0)
(0.909208 0.49263 0)
(0.841014 0.589061 -8.94944e-23)
(0.778391 0.543254 0)
(0.829222 0.347041 -6.92102e-23)
(0.922276 0.0149426 -7.8218e-23)
(0.973274 -0.249576 0)
(1.01413 -0.502031 -5.56602e-22)
(1.02317 -0.576047 6.52271e-22)
(1.00674 -0.350311 0)
(1.02702 -0.0621889 5.20473e-22)
(1.07206 0.386228 -6.07442e-22)
(1.09443 0.609502 1.25882e-22)
(1.05332 0.32447 -2.12687e-22)
(1.10429 0.064467 2.03225e-22)
(1.13572 -0.372226 -2.05789e-22)
(1.09892 -0.696957 0)
(1.17885 0.0613729 -2.1059e-22)
(1.12006 0.631716 2.01362e-22)
(1.03854 0.186053 -1.30534e-22)
(0.972427 -0.31363 0)
(1.03624 -0.0665402 -6.73508e-23)
(0.973306 0.0760865 0)
(0.921915 -0.0147688 -2.52803e-23)
(0.959492 0.039379 -8.69989e-24)
(0.93973 0.0107022 1.26747e-24)
(0.870854 -0.0159411 -8.4844e-24)
(0.94662 0.0124889 0)
(0.944089 0.01423 2.62984e-24)
(0.516229 0.0122752 2.26078e-20)
(0.739826 -0.390526 -1.73633e-22)
(0.895253 -0.678803 -1.41593e-20)
(0.822089 -0.808554 1.35045e-20)
(0.775787 -0.71394 0)
(0.670489 -0.619375 8.30757e-23)
(0.475638 -0.58667 -1.33371e-22)
(0.472906 -0.287758 0)
(0.639872 0.145511 -6.68646e-23)
(0.812356 0.353621 0)
(0.861608 0.492182 0)
(0.772831 0.613697 9.01429e-23)
(0.702446 0.539813 0)
(0.80389 0.313308 2.49129e-21)
(0.935343 -0.0104726 -2.07627e-21)
(0.999976 -0.267003 2.64903e-21)
(1.04352 -0.512007 -2.52851e-21)
(1.03765 -0.579657 -1.21569e-22)
(1.02112 -0.350428 0)
(1.0166 -0.0755474 0)
(1.04816 0.368029 -1.3527e-22)
(1.09115 0.602907 9.11545e-22)
(1.03564 0.327572 -1.53528e-21)
(1.10517 0.0556408 7.33963e-22)
(1.16521 -0.366549 5.7506e-22)
(1.07543 -0.700213 0)
(1.1586 0.0559589 5.37551e-22)
(1.12043 0.634651 0)
(1.05677 0.2011 1.30994e-22)
(0.981171 -0.313996 -2.59235e-22)
(1.04136 -0.0688685 3.89785e-22)
(0.972647 0.0857061 -3.21396e-23)
(0.920562 -0.014689 5.17928e-23)
(0.96911 0.0376616 -2.14471e-25)
(0.949259 0.017105 1.24773e-23)
(0.874488 -0.0161195 -8.0998e-24)
(0.945207 0.00807519 -5.15933e-25)
(0.946777 0.0143029 4.59081e-25)
(0.757243 -0.0693357 4.5574e-20)
(0.94307 -0.456979 -8.27342e-20)
(1.04786 -0.692326 9.84789e-21)
(0.954083 -0.762925 2.66755e-20)
(0.831605 -0.671765 2.05903e-22)
(0.74059 -0.553599 -1.48746e-22)
(0.584051 -0.542776 1.35658e-22)
(0.502819 -0.349571 -1.75934e-22)
(0.621095 0.0384034 0)
(0.789871 0.296155 6.33585e-21)
(0.84416 0.509636 -6.04376e-21)
(0.76745 0.656603 -1.85797e-22)
(0.676666 0.54849 0)
(0.797708 0.276572 -5.17639e-21)
(0.951728 -0.0304379 4.77971e-21)
(1.02942 -0.268069 -2.64404e-21)
(1.06964 -0.505229 2.52275e-21)
(1.04368 -0.57915 2.36095e-21)
(1.03135 -0.353564 -2.00559e-21)
(1.00445 -0.0877897 0)
(1.01673 0.349962 0)
(1.08311 0.60022 1.51122e-21)
(1.01888 0.3366 -1.44263e-21)
(1.09908 0.0500643 -1.44617e-21)
(1.18724 -0.351972 -4.09254e-22)
(1.04328 -0.696895 1.66491e-21)
(1.12731 0.0413469 4.22892e-23)
(1.11755 0.637423 -8.54626e-22)
(1.07068 0.223593 1.2709e-21)
(0.986173 -0.308271 -1.14174e-21)
(1.04299 -0.0709461 4.93816e-23)
(0.970078 0.0955714 -1.18666e-22)
(0.916485 -0.014864 3.56893e-23)
(0.976275 0.0351324 -3.41239e-23)
(0.957465 0.0238394 -1.02626e-23)
(0.877184 -0.0154668 -7.1133e-24)
(0.941606 0.00374597 1.27717e-23)
(0.947478 0.0141166 2.59191e-24)
(0.975883 -0.14108 0)
(1.1567 -0.467565 3.5945e-20)
(1.17148 -0.65812 -3.53271e-20)
(1.0505 -0.69655 0)
(0.881592 -0.62709 -2.11626e-22)
(0.791441 -0.501977 1.52832e-22)
(0.68267 -0.495033 0)
(0.598454 -0.391847 1.67205e-23)
(0.669526 -0.0667922 -1.21658e-22)
(0.819184 0.219352 0)
(0.848587 0.477332 -6.50052e-21)
(0.718693 0.673418 6.38925e-21)
(0.639866 0.555282 -3.75643e-22)
(0.798982 0.241338 -5.66933e-21)
(0.970206 -0.0542598 5.40505e-21)
(1.05489 -0.272683 3.33378e-22)
(1.09096 -0.497563 0)
(1.04436 -0.579034 -2.65161e-22)
(1.03683 -0.361031 4.7883e-21)
(0.995911 -0.104089 5.62201e-22)
(0.982812 0.315618 -5.98024e-22)
(1.06092 0.58509 -3.67674e-21)
(0.998028 0.344073 -2.18463e-21)
(1.08515 0.0454867 2.62683e-21)
(1.19972 -0.335366 -3.30827e-22)
(1.01138 -0.688689 0)
(1.08766 0.0161185 -5.93079e-22)
(1.10361 0.626229 8.65934e-22)
(1.07573 0.24164 -1.21574e-21)
(0.987604 -0.300986 1.08685e-21)
(1.04145 -0.0745387 -1.69527e-22)
(0.965717 0.104764 0)
(0.910193 -0.0155471 -3.66188e-23)
(0.980899 0.0315823 6.45461e-23)
(0.964128 0.03069 2.52673e-23)
(0.879236 -0.0139704 3.24061e-23)
(0.936459 -0.000411488 -1.27807e-23)
(0.946564 0.0136679 2.69292e-26)
(1.19732 -0.212535 5.34659e-22)
(1.33368 -0.450992 1.11348e-21)
(1.2663 -0.575864 0)
(1.12064 -0.593803 0)
(0.944916 -0.565813 0)
(0.843577 -0.465532 0)
(0.766454 -0.453322 6.36478e-21)
(0.681621 -0.426699 -1.09166e-20)
(0.749799 -0.170115 4.83593e-21)
(0.861538 0.150485 0)
(0.821926 0.511763 -6.54885e-21)
(0.707207 0.742908 6.44416e-21)
(0.678924 0.575708 6.93049e-21)
(0.837427 0.21181 -5.82725e-21)
(0.99859 -0.0765439 5.78405e-21)
(1.07708 -0.268175 -5.85441e-21)
(1.10745 -0.476115 -2.88875e-22)
(1.04309 -0.573223 -4.53191e-21)
(1.03328 -0.371899 4.31875e-21)
(0.982383 -0.116754 6.75265e-22)
(0.940549 0.291475 6.63948e-22)
(1.03698 0.579625 2.2912e-21)
(0.983411 0.356979 -2.63264e-21)
(1.06937 0.0447805 -5.82403e-22)
(1.20152 -0.311825 -2.47609e-22)
(0.983293 -0.677285 -4.92445e-22)
(1.0399 -0.0146405 0)
(1.08972 0.619511 0)
(1.07753 0.266892 0)
(0.986974 -0.28841 0)
(1.03754 -0.0777162 4.48504e-22)
(0.960325 0.114043 -2.63735e-22)
(0.902595 -0.0162833 7.55024e-23)
(0.983239 0.0271369 -2.12436e-22)
(0.969163 0.0375516 2.5485e-23)
(0.880948 -0.0116431 6.33431e-24)
(0.930522 -0.00435167 -2.01964e-23)
(0.944509 0.0129746 -6.41573e-24)
(1.38388 -0.235835 -5.62827e-22)
(1.40969 -0.388895 5.74573e-20)
(1.29504 -0.476196 -5.5229e-20)
(1.14817 -0.502218 -3.32721e-20)
(1.01467 -0.504166 3.16865e-20)
(0.893803 -0.43284 1.76581e-20)
(0.842348 -0.406373 -1.64349e-20)
(0.735603 -0.444156 1.804e-22)
(0.777417 -0.2629 -1.37649e-22)
(0.895284 0.0664268 0)
(0.856249 0.433363 -2.22843e-22)
(0.724628 0.719087 1.41072e-20)
(0.676331 0.605271 -1.34277e-20)
(0.857163 0.219825 -4.22026e-22)
(1.02425 -0.0767303 0)
(1.09897 -0.256691 -5.49431e-21)
(1.12223 -0.451636 9.80925e-21)
(1.04531 -0.564671 -4.11631e-21)
(1.02367 -0.385499 0)
(0.969289 -0.134615 5.0346e-21)
(0.901948 0.245896 -1.50643e-21)
(0.995739 0.552678 -4.4144e-21)
(0.958778 0.367893 -2.16317e-21)
(1.05243 0.0495641 2.12259e-21)
(1.19248 -0.286936 -2.92647e-21)
(0.963768 -0.660912 -1.82495e-21)
(0.988954 -0.0540109 5.1066e-21)
(1.06484 0.593846 -2.57198e-21)
(1.06841 0.286894 2.44551e-21)
(0.983625 -0.276418 -4.86237e-22)
(1.03156 -0.0826784 4.6237e-22)
(0.953795 0.122445 0)
(0.894278 -0.0172109 7.82685e-23)
(0.98359 0.0217644 -1.65802e-23)
(0.972539 0.04423 0)
(0.882536 -0.00859108 -3.73235e-23)
(0.924543 -0.00805639 1.27229e-23)
(0.941834 0.0120628 -2.58677e-24)
(1.42167 -0.196136 0)
(1.37414 -0.295203 0)
(1.2801 -0.372232 -1.73578e-22)
(1.15497 -0.417845 0)
(1.05903 -0.45055 0)
(0.941175 -0.404865 1.81088e-20)
(0.888107 -0.360384 -1.72305e-20)
(0.799299 -0.42269 1.17211e-20)
(0.736951 -0.365001 -1.1162e-20)
(0.884152 -0.0308218 0)
(0.842712 0.437629 -2.52686e-22)
(0.687075 0.773377 2.11952e-22)
(0.721992 0.616246 -1.50316e-20)
(0.906888 0.196187 -2.1903e-22)
(1.05652 -0.094927 1.35868e-20)
(1.11752 -0.250796 1.83082e-22)
(1.13046 -0.423318 -1.35976e-22)
(1.04669 -0.549074 8.88571e-21)
(1.00847 -0.400638 -8.70381e-21)
(0.947743 -0.148655 0)
(0.859175 0.222965 0)
(0.961358 0.545084 -2.2124e-22)
(0.945337 0.377885 0)
(1.04365 0.0523049 1.91743e-21)
(1.17938 -0.256326 1.12016e-21)
(0.946447 -0.642248 -2.51108e-21)
(0.938297 -0.0918754 -5.90223e-21)
(1.04496 0.579853 3.90376e-21)
(1.05974 0.310912 -1.60506e-22)
(0.980319 -0.259589 0)
(1.02488 -0.0868655 -2.97103e-22)
(0.947297 0.131058 2.81713e-22)
(0.886289 -0.0180954 5.12816e-23)
(0.98246 0.0156342 2.52556e-23)
(0.974403 0.0506282 -3.00182e-23)
(0.884156 -0.00496283 1.64742e-23)
(0.919136 -0.0114693 0)
(0.939026 0.0109745 5.16969e-24)
(1.34409 -0.136972 5.42653e-20)
(1.31018 -0.213689 4.91104e-20)
(1.26441 -0.291694 -4.15373e-21)
(1.17716 -0.345031 -7.4502e-20)
(1.08957 -0.402913 3.25331e-20)
(0.988489 -0.387643 -1.68592e-22)
(0.916318 -0.34133 0)
(0.86114 -0.375971 -9.77057e-23)
(0.723795 -0.395534 -8.97951e-23)
(0.774016 -0.18097 0)
(0.785918 0.271334 -1.59202e-20)
(0.712477 0.697889 1.51095e-20)
(0.707237 0.671182 2.29037e-22)
(0.893032 0.273033 1.38618e-20)
(1.07528 -0.0538147 -1.31767e-20)
(1.13799 -0.221795 1.7997e-22)
(1.14306 -0.386892 1.44569e-22)
(1.04903 -0.528186 0)
(0.991618 -0.409272 1.10731e-20)
(0.923726 -0.17317 -1.04847e-20)
(0.813234 0.162773 -5.06762e-21)
(0.911616 0.503663 2.3791e-21)
(0.909697 0.394145 2.50863e-21)
(1.03633 0.0716853 -1.68787e-21)
(1.17068 -0.221481 -8.06611e-22)
(0.926615 -0.614679 7.18045e-21)
(0.890802 -0.143783 -3.54315e-21)
(1.01321 0.539543 2.98066e-21)
(1.04023 0.335256 -2.22057e-21)
(0.975275 -0.240905 0)
(1.0172 -0.0927237 0)
(0.940588 0.138231 0)
(0.879101 -0.018631 3.39996e-23)
(0.980202 0.00866122 -5.10964e-23)
(0.974905 0.0565774 4.60581e-23)
(0.885864 -0.000762072 -2.81209e-23)
(0.914675 -0.0146006 -1.44823e-23)
(0.936463 0.00974224 0)
(1.30249 -0.0889325 0)
(1.29291 -0.151446 0)
(1.25171 -0.214155 0)
(1.1891 -0.234735 0)
(1.11888 -0.291678 0)
(1.03223 -0.310144 0)
(0.969925 -0.261072 0)
(0.937654 -0.284846 0)
(0.768074 -0.372952 0)
(0.645459 -0.236199 0)
(0.68841 0.23316 0)
(0.670959 0.689684 0)
(0.721347 0.637041 0)
(0.996055 0.211948 0)
(1.12565 -0.0757883 0)
(1.15411 -0.192253 0)
(1.15674 -0.329904 0)
(1.04913 -0.503662 0)
(0.9662 -0.435902 0)
(0.892263 -0.180833 0)
(0.785492 0.150851 0)
(0.862953 0.494511 0)
(0.87712 0.38871 0)
(1.04684 0.0664047 0)
(1.17807 -0.196813 0)
(0.887928 -0.597098 0)
(0.849519 -0.180752 0)
(0.986966 0.51766 0)
(1.01796 0.356674 0)
(0.971414 -0.22951 0)
(1.00644 -0.0959383 0)
(0.93174 0.149848 0)
(0.872189 -0.0197196 0)
(0.975711 0.000583413 0)
(0.97336 0.0637448 0)
(0.888063 0.00445019 0)
(0.910517 -0.0179352 0)
(0.933938 0.00817403 0)
(1.23661 -0.0789953 0)
(1.23474 -0.144297 0)
(1.18903 -0.192564 0)
(1.13284 -0.233277 0)
(1.07502 -0.287917 0)
(0.985835 -0.267255 0)
(0.911139 -0.271979 0)
(0.874618 -0.294578 0)
(0.790809 -0.252017 0)
(0.611821 -0.116391 0)
(0.544673 0.267645 0)
(0.587522 0.672411 0)
(0.830207 0.513079 0)
(1.12394 0.0946608 0)
(1.1809 -0.116936 0)
(1.16986 -0.226167 0)
(1.13639 -0.352157 0)
(0.996855 -0.456684 0)
(0.900631 -0.359089 0)
(0.811451 -0.11169 0)
(0.709193 0.181184 0)
(0.79137 0.489698 0)
(0.855307 0.342798 0)
(1.0658 -0.00183586 0)
(1.15982 -0.192141 0)
(0.816181 -0.529131 0)
(0.801992 -0.164173 0)
(0.949837 0.509522 0)
(0.986042 0.342612 0)
(0.974652 -0.231485 0)
(0.995639 -0.0857873 0)
(0.918276 0.167613 0)
(0.868048 -0.0265643 0)
(0.972228 -0.010445 0)
(0.97174 0.0722254 0)
(0.891778 0.0102137 0)
(0.90946 -0.0219908 0)
(0.933438 0.00609736 0)
(1.19032 -0.064652 0)
(1.1906 -0.10606 0)
(1.15827 -0.150713 0)
(1.12237 -0.160941 0)
(1.07006 -0.195808 0)
(1.0015 -0.191023 0)
(0.969358 -0.16539 0)
(0.887482 -0.195655 0)
(0.788228 -0.174564 0)
(0.675895 -0.0329232 0)
(0.588934 0.239368 0)
(0.704824 0.515434 0)
(1.03073 0.345675 0)
(1.22614 0.0233613 0)
(1.20474 -0.120304 0)
(1.16831 -0.178212 0)
(1.13573 -0.259998 0)
(0.983891 -0.388095 0)
(0.832663 -0.332543 0)
(0.698757 -0.0818416 0)
(0.59684 0.180445 0)
(0.716634 0.436837 0)
(0.862164 0.279228 0)
(1.07618 -0.0252282 0)
(1.15242 -0.145341 0)
(0.79294 -0.474756 0)
(0.732721 -0.198135 0)
(0.885948 0.468902 0)
(0.960946 0.332412 0)
(0.983736 -0.225883 0)
(0.981601 -0.0821896 0)
(0.907459 0.180589 0)
(0.870174 -0.0331515 0)
(0.970781 -0.022418 0)
(0.97039 0.0806609 0)
(0.895745 0.0168009 0)
(0.911865 -0.0259388 0)
(0.935945 0.00385201 0)
(1.15101 -0.0492765 0)
(1.15174 -0.0845147 0)
(1.12646 -0.114382 0)
(1.08905 -0.133014 0)
(1.05365 -0.163849 0)
(0.989319 -0.159387 0)
(0.960429 -0.150955 0)
(0.914764 -0.153585 0)
(0.83764 -0.111145 0)
(0.766526 0.0264418 0)
(0.754651 0.20326 0)
(0.907297 0.346267 0)
(1.14157 0.191917 0)
(1.23454 -0.00719607 0)
(1.19843 -0.0791257 0)
(1.13281 -0.176499 0)
(1.07439 -0.258405 0)
(0.941985 -0.3075 0)
(0.763487 -0.225069 0)
(0.592628 0.00189307 0)
(0.521529 0.179702 0)
(0.681057 0.362795 0)
(0.890489 0.189142 0)
(1.0748 -0.0901323 0)
(1.1272 -0.109997 0)
(0.79177 -0.374899 0)
(0.644539 -0.183789 0)
(0.789447 0.42795 0)
(0.953445 0.297522 0)
(1.00507 -0.226881 0)
(0.9668 -0.0692924 0)
(0.897256 0.196294 0)
(0.878276 -0.0421747 0)
(0.971005 -0.0353317 0)
(0.968124 0.0899469 0)
(0.899545 0.0230721 0)
(0.91778 -0.0306987 0)
(0.942217 0.00131086 0)
(1.11779 -0.0382971 0)
(1.11683 -0.0628011 0)
(1.10027 -0.0879221 0)
(1.07398 -0.0974944 0)
(1.04573 -0.117041 0)
(1.00133 -0.109378 0)
(0.976614 -0.0977724 0)
(0.938474 -0.0926074 0)
(0.888432 -0.0561536 0)
(0.846194 0.0409035 0)
(0.883622 0.125756 0)
(1.0075 0.217087 0)
(1.1482 0.130825 0)
(1.17696 -0.0163136 0)
(1.15369 -0.0664366 0)
(1.11611 -0.118112 0)
(1.06654 -0.167662 0)
(0.954911 -0.21898 0)
(0.78669 -0.143392 0)
(0.628026 0.054393 0)
(0.606906 0.140454 0)
(0.751534 0.250007 0)
(0.958417 0.105323 0)
(1.06456 -0.114813 0)
(1.10834 -0.0602472 0)
(0.8473 -0.288006 0)
(0.590972 -0.176469 0)
(0.727457 0.367509 0)
(0.985433 0.254345 0)
(1.03524 -0.218881 0)
(0.949492 -0.0547001 0)
(0.890363 0.20784 0)
(0.893763 -0.0535731 0)
(0.975469 -0.0486272 0)
(0.97122 0.0997206 0)
(0.907069 0.0291427 0)
(0.927903 -0.0362628 0)
(0.952402 -0.00155586 0)
(1.09216 -0.0276982 0)
(1.09301 -0.0454896 0)
(1.08031 -0.0620629 0)
(1.06052 -0.0692321 0)
(1.03957 -0.0844013 0)
(1.00548 -0.076751 0)
(0.987769 -0.0732603 0)
(0.960557 -0.0607146 0)
(0.931836 -0.0330089 0)
(0.917883 0.0306291 0)
(0.95147 0.0727124 0)
(1.01771 0.131755 0)
(1.1132 0.0700776 0)
(1.12664 -0.00576435 0)
(1.11172 -0.0276892 0)
(1.07232 -0.115328 0)
(1.02934 -0.154361 0)
(0.951814 -0.148381 0)
(0.837667 -0.0594885 0)
(0.751666 0.0996942 0)
(0.792028 0.113619 0)
(0.895287 0.173883 0)
(1.04825 0.0511485 0)
(1.05244 -0.14944 0)
(1.0655 -0.0334862 0)
(0.934272 -0.167109 0)
(0.614186 -0.131083 0)
(0.717215 0.27741 0)
(1.02758 0.184801 0)
(1.06227 -0.20566 0)
(0.919749 -0.0276118 0)
(0.888158 0.217702 0)
(0.924038 -0.0668161 0)
(0.983826 -0.0620985 0)
(0.973956 0.110075 0)
(0.916335 0.0351765 0)
(0.940743 -0.0425886 0)
(0.964503 -0.00460822 0)
(1.07284 -0.018637 0)
(1.07371 -0.0308049 0)
(1.06378 -0.0431286 0)
(1.05152 -0.0472937 0)
(1.03442 -0.058169 0)
(1.0134 -0.050893 0)
(0.999378 -0.0496338 0)
(0.982008 -0.034413 0)
(0.967246 -0.019785 0)
(0.962097 0.023649 0)
(0.983784 0.0376486 0)
(1.01873 0.0745888 0)
(1.08173 0.0452694 0)
(1.07303 -0.0127882 0)
(1.08745 -0.0223625 0)
(1.06639 -0.0733543 0)
(1.01269 -0.0906042 0)
(0.953771 -0.0857686 0)
(0.884709 -0.0290368 0)
(0.874797 0.0974939 0)
(0.940519 0.0722004 0)
(0.992244 0.100042 0)
(1.1095 0.0351329 0)
(1.0553 -0.121642 0)
(1.00711 -0.0119157 0)
(1.01022 -0.0846358 0)
(0.749478 -0.0771127 0)
(0.776694 0.184005 0)
(1.06224 0.119038 0)
(1.08037 -0.178105 0)
(0.892661 0.00280071 0)
(0.907189 0.212629 0)
(0.971297 -0.0818053 0)
(0.988055 -0.0700476 0)
(0.968996 0.121564 0)
(0.932098 0.0390242 0)
(0.961326 -0.0508755 0)
(0.981486 -0.00788193 0)
(1.05721 -0.011491 0)
(1.05956 -0.0193336 0)
(1.05175 -0.0282331 0)
(1.04512 -0.0298216 0)
(1.03145 -0.0387008 0)
(1.01973 -0.0310977 0)
(1.00803 -0.0337664 0)
(0.998361 -0.0194051 0)
(0.990455 -0.0136203 0)
(0.987901 0.0126762 0)
(1.00495 0.0197026 0)
(1.01442 0.0383028 0)
(1.0617 0.0221215 0)
(1.05 -0.00924198 0)
(1.05774 -0.0129629 0)
(1.04461 -0.0568963 0)
(1.00287 -0.0683847 0)
(0.975686 -0.0485149 0)
(0.929029 -0.0187295 0)
(0.946905 0.0691223 0)
(1.0083 0.0495231 0)
(1.01658 0.0630718 0)
(1.09865 0.0236909 0)
(1.04386 -0.098991 0)
(0.982911 -0.00966604 0)
(1.02182 -0.0432159 0)
(0.882489 -0.0217296 0)
(0.882923 0.128399 0)
(1.07857 0.0650269 0)
(1.07001 -0.143726 0)
(0.882136 0.0344299 0)
(0.958356 0.194656 0)
(1.02361 -0.0908934 0)
(0.982015 -0.0689509 0)
(0.965753 0.131569 0)
(0.970533 0.0384344 0)
(0.99538 -0.0595666 0)
(1.00058 -0.0108033 0)
(1.04623 -0.00607321 0)
(1.04912 -0.0104015 0)
(1.04298 -0.0174176 0)
(1.03995 -0.0173973 0)
(1.0297 -0.0247133 0)
(1.02307 -0.0182574 0)
(1.0153 -0.0222706 0)
(1.00859 -0.0108886 0)
(1.00661 -0.00974217 0)
(1.0024 0.00604285 0)
(1.01527 0.0087833 0)
(1.01614 0.0171124 0)
(1.04434 0.0110429 0)
(1.03432 -0.00975296 0)
(1.04068 -0.0121705 0)
(1.03653 -0.0340566 0)
(1.00191 -0.0410427 0)
(0.98957 -0.021406 0)
(0.963487 -0.0138432 0)
(0.975148 0.0459033 0)
(1.02065 0.0322438 0)
(1.01605 0.0333816 0)
(1.0796 0.0236375 0)
(1.03227 -0.0645388 0)
(0.98573 0.00376762 0)
(1.01226 -0.0251498 0)
(0.948533 -0.00780534 0)
(0.962752 0.0860378 0)
(1.07858 0.0440789 0)
(1.04767 -0.0996838 0)
(0.895458 0.0478888 0)
(1.02434 0.16323 0)
(1.06634 -0.085739 0)
(0.973166 -0.0568262 0)
(0.97766 0.132232 0)
(1.03002 0.0311515 0)
(1.02909 -0.0623747 0)
(1.00787 -0.00983741 0)
(1.03835 -0.00184883 0)
(1.04096 -0.00425772 0)
(1.0369 -0.00961502 0)
(1.03528 -0.00898153 0)
(1.02879 -0.0148724 0)
(1.02435 -0.00982101 0)
(1.02022 -0.0141384 0)
(1.01475 -0.00598758 0)
(1.0157 -0.00712762 0)
(1.01076 0.00185388 0)
(1.02014 0.00271974 0)
(1.01741 0.00616479 0)
(1.03294 0.00317566 0)
(1.02845 -0.00734178 0)
(1.02799 -0.00938738 0)
(1.02731 -0.0210158 0)
(1.00417 -0.0281046 0)
(0.998144 -0.00993154 0)
(0.987118 -0.0104991 0)
(0.987762 0.026846 0)
(1.02448 0.0227103 0)
(1.01039 0.0172596 0)
(1.05517 0.0204385 0)
(1.02395 -0.0464445 0)
(0.993925 0.00570774 0)
(1.0147 -0.0161855 0)
(0.979304 0.00106835 0)
(0.989619 0.0572342 0)
(1.06216 0.0312642 0)
(1.03374 -0.0626696 0)
(0.922754 0.0423577 0)
(1.06273 0.126147 0)
(1.08224 -0.0682263 0)
(0.962952 -0.0416482 0)
(0.998994 0.115792 0)
(1.07964 0.0213244 0)
(1.04002 -0.0536838 0)
(1.0034 -0.00367428 0)
(1.03262 0.00113835 0)
(1.03457 -0.00020457 0)
(1.03242 -0.00417006 0)
(1.03132 -0.00351288 0)
(1.02774 -0.00810308 0)
(1.02428 -0.00449981 0)
(1.02267 -0.00864614 0)
(1.01808 -0.00284225 0)
(1.02006 -0.00550696 0)
(1.0155 0.000465828 0)
(1.02134 -0.000771546 0)
(1.01875 0.00137442 0)
(1.02584 -0.000388918 0)
(1.02378 -0.00594177 0)
(1.0215 -0.00784143 0)
(1.02188 -0.0119197 0)
(1.0088 -0.017024 0)
(1.00333 -0.00346206 0)
(1.00185 -0.0058687 0)
(0.995294 0.0159261 0)
(1.02314 0.0157693 0)
(1.00935 0.00636303 0)
(1.03895 0.019359 0)
(1.02187 -0.0301867 0)
(0.999034 0.0113509 0)
(1.01508 -0.00916513 0)
(0.9933 0.00327357 0)
(1.00038 0.0359906 0)
(1.04498 0.0251665 0)
(1.02833 -0.0299479 0)
(0.94737 0.0309129 0)
(1.06382 0.0913387 0)
(1.07889 -0.0429197 0)
(0.960461 -0.0260053 0)
(1.01698 0.0875004 0)
(1.09565 0.0152874 0)
(1.03163 -0.0360612 0)
(1.00232 0.00359219 0)
(1.02827 0.00307664 0)
(1.02967 0.00227712 0)
(1.02877 -0.000623499 0)
(1.02793 -0.000114986 0)
(1.02613 -0.00371737 0)
(1.02356 -0.00115244 0)
(1.02313 -0.00493849 0)
(1.01964 -0.000742557 0)
(1.02146 -0.00405864 0)
(1.01771 0.000278589 0)
(1.02141 -0.0021346 0)
(1.01876 -4.43649e-05 0)
(1.02212 -0.00209879 0)
(1.02082 -0.00395396 0)
(1.01877 -0.0055563 0)
(1.01819 -0.00653191 0)
(1.01189 -0.00989797 0)
(1.00667 -0.00133281 0)
(1.00945 -0.00291466 0)
(1.00132 0.00845601 0)
(1.0216 0.0111811 0)
(1.00958 0.0015722 0)
(1.02716 0.0163596 0)
(1.0197 -0.0212519 0)
(1.00256 0.0122497 0)
(1.01694 -0.00710051 0)
(1.00222 0.00689252 0)
(1.00595 0.0236152 0)
(1.03009 0.0170706 0)
(1.02765 -0.00881948 0)
(0.969589 0.021457 0)
(1.05131 0.0634669 0)
(1.06577 -0.0201967 0)
(0.970367 -0.0151656 0)
(1.02717 0.0570576 0)
(1.08589 0.0140962 0)
(1.02255 -0.0175626 0)
(1.00826 0.00783068 0)
(1.0248 0.00419857 0)
(1.02581 0.00368767 0)
(1.02556 0.00154932 0)
(1.02503 0.00188592 0)
(1.02417 -0.000882765 0)
(1.02239 0.000879805 0)
(1.02235 -0.00237085 0)
(1.01987 0.000685655 0)
(1.02129 -0.00272739 0)
(1.01837 0.000768675 0)
(1.02072 -0.00232882 0)
(1.01825 5.59438e-05 0)
(1.02022 -0.00240255 0)
(1.01849 -0.00213404 0)
(1.01763 -0.00386653 0)
(1.01609 -0.00341968 0)
(1.01391 -0.00515859 0)
(1.00943 -0.000445024 0)
(1.01312 -0.000448782 0)
(1.0057 0.00446713 0)
(1.01965 0.00831925 0)
(1.0103 -0.00059796 0)
(1.02125 0.0139487 0)
(1.01816 -0.0139476 0)
(1.00617 0.0138851 0)
(1.01708 -0.00527251 0)
(1.00674 0.00902687 0)
(1.01071 0.0162559 0)
(1.02248 0.0113434 0)
(1.02573 0.0064303 0)
(0.986588 0.0156708 0)
(1.04085 0.0422473 0)
(1.05118 -0.00202678 0)
(0.986771 -0.00724308 0)
(1.03092 0.0329566 0)
(1.06845 0.0162974 0)
(1.0198 -0.00209519 0)
(1.01579 0.00982736 0)
(1.02189 0.00471879 0)
(1.02264 0.00435421 0)
(1.02273 0.00279597 0)
(1.02245 0.00297085 0)
(1.02207 0.000874211 0)
(1.02086 0.00205616 0)
(1.02098 -0.000620671 0)
(1.01927 0.0016709 0)
(1.02033 -0.00153727 0)
(1.01808 0.00147158 0)
(1.01972 -0.00194482 0)
(1.01742 0.00087951 0)
(1.01894 -0.00218347 0)
(1.01692 -0.000468159 0)
(1.01708 -0.00247987 0)
(1.01502 -0.00139617 0)
(1.01489 -0.0021042 0)
(1.01118 -0.000210613 0)
(1.0146 0.00113042 0)
(1.00872 0.0020779 0)
(1.01816 0.00655274 0)
(1.01107 -0.00102398 0)
(1.018 0.0114464 0)
(1.01645 -0.00937955 0)
(1.00896 0.0135146 0)
(1.01724 -0.0050392 0)
(1.00971 0.0105482 0)
(1.01355 0.0118935 0)
(1.01859 0.00633548 0)
(1.02293 0.0145578 0)
(0.999912 0.0105944 0)
(1.03391 0.0279321 0)
(1.03856 0.00999871 0)
(1.00181 -0.00455912 0)
(1.03146 0.0156432 0)
(1.05317 0.0186192 0)
(1.02066 0.00782977 0)
(1.02162 0.00986718 0)
(1.01942 0.00480532 0)
(1.02002 0.00452922 0)
(1.02023 0.00340073 0)
(1.02012 0.00346467 0)
(1.01999 0.00189718 0)
(1.01922 0.00270774 0)
(1.01939 0.000552276 0)
(1.01821 0.00234761 0)
(1.01902 -0.00054594 0)
(1.01729 0.0021714 0)
(1.01856 -0.00129746 0)
(1.01647 0.00180817 0)
(1.01792 -0.00161316 0)
(1.01572 0.000911987 0)
(1.01664 -0.00136557 0)
(1.01432 -5.9557e-05 0)
(1.01532 -0.000245925 0)
(1.01215 -5.2011e-05 0)