/*--------------------------------*- C++ -*----------------------------------*\
| =========                 |                                                 |
| \\      /  F ield         | OpenFOAM: The Open Source CFD Toolbox           |
|  \\    /   O peration     | Version:  2512                                  |
|   \\  /    A nd           | Website:  www.openfoam.com                      |
|    \\/     M anipulation  |                                                 |
\*---------------------------------------------------------------------------*/
FoamFile
{
    version     2.0;
    format      ascii;
    arch        "LSB;label=32;scalar=64";
    class       volScalarField;
    location    "6.05";
    object      p;
}
// * * * * * * * * * * * * * * * * * * * * * * * * * * * * * * * * * * * * * //

dimensions      [0 2 -2 0 0 0 0];

internalField   nonuniform List<scalar> 
13248
(
-0.416415
-0.415158
-0.411588
-0.406299
-0.400505
-0.395795
-0.393717
-0.395113
-0.400184
-0.40806
-0.417053
-0.425051
-0.42997
-0.430192
-0.424853
-0.41397
-0.398299
-0.378962
-0.357037
-0.333507
-0.308698
-0.283604
-0.25685
-0.229325
-0.418749
-0.417867
-0.414632
-0.409779
-0.404435
-0.399831
-0.397142
-0.397032
-0.399371
-0.403182
-0.406919
-0.408898
-0.407736
-0.402644
-0.393514
-0.380782
-0.365134
-0.347268
-0.327782
-0.307153
-0.285784
-0.264031
-0.241766
-0.220211
-0.424985
-0.423731
-0.420534
-0.416129
-0.411239
-0.406733
-0.403343
-0.401332
-0.400347
-0.399521
-0.397752
-0.394058
-0.387832
-0.378914
-0.367495
-0.353935
-0.338629
-0.321971
-0.304294
-0.285975
-0.267179
-0.248317
-0.22925
-0.210221
-0.434473
-0.432206
-0.428684
-0.424289
-0.419482
-0.414687
-0.410117
-0.40567
-0.400967
-0.395488
-0.388749
-0.380442
-0.370484
-0.358959
-0.346045
-0.331949
-0.316896
-0.301093
-0.28476
-0.268087
-0.251257
-0.234568
-0.217845
-0.201749
-0.446552
-0.442943
-0.438689
-0.433903
-0.428698
-0.423008
-0.41657
-0.409116
-0.400508
-0.390737
-0.379885
-0.368074
-0.355435
-0.342085
-0.328125
-0.313651
-0.298755
-0.283546
-0.268138
-0.252669
-0.237267
-0.222072
-0.207041
-0.19252
-0.461103
-0.455983
-0.450791
-0.445268
-0.439057
-0.431597
-0.422388
-0.411359
-0.398839
-0.385307
-0.371182
-0.356747
-0.342151
-0.327458
-0.312689
-0.297856
-0.282991
-0.268141
-0.25337
-0.238749
-0.224352
-0.210271
-0.196481
-0.183287
-0.478277
-0.471597
-0.465342
-0.458659
-0.450578
-0.44022
-0.427312
-0.412329
-0.396094
-0.379362
-0.362642
-0.346188
-0.330083
-0.314323
-0.298876
-0.283716
-0.268828
-0.254218
-0.2399
-0.225903
-0.212261
-0.198996
-0.186124
-0.173796
-0.498136
-0.489879
-0.482366
-0.473885
-0.462805
-0.448394
-0.431101
-0.412067
-0.392428
-0.372979
-0.354134
-0.336041
-0.318701
-0.302055
-0.286032
-0.270569
-0.255624
-0.241164
-0.227175
-0.21365
-0.200584
-0.187977
-0.175855
-0.164228
-0.520333
-0.510518
-0.501406
-0.490207
-0.474892
-0.455503
-0.433506
-0.410561
-0.387867
-0.366071
-0.345421
-0.325939
-0.30755
-0.290148
-0.273629
-0.257907
-0.242909
-0.228578
-0.214867
-0.201738
-0.189161
-0.177117
-0.165601
-0.15452
-0.544067
-0.53272
-0.521474
-0.506398
-0.485721
-0.460821
-0.434134
-0.407556
-0.382129
-0.358268
-0.336039
-0.315349
-0.296056
-0.278012
-0.261084
-0.245156
-0.230131
-0.215926
-0.20247
-0.189704
-0.177575
-0.166051
-0.155086
-0.144534
-0.568069
-0.555198
-0.541042
-0.520853
-0.493966
-0.463384
-0.432229
-0.402337
-0.374469
-0.348783
-0.325174
-0.30345
-0.283404
-0.264849
-0.247617
-0.231568
-0.216579
-0.202545
-0.189377
-0.176994
-0.165333
-0.154341
-0.143922
-0.133945
-0.590688
-0.576282
-0.55823
-0.531787
-0.498184
-0.462021
-0.426734
-0.393884
-0.363883
-0.336638
-0.311885
-0.289339
-0.268734
-0.249838
-0.232452
-0.216406
-0.201555
-0.187776
-0.174958
-0.163012
-0.151871
-0.141468
-0.131686
-0.122448
-0.28942
-0.302135
-0.314987
-0.333193
-0.357191
-0.385642
-0.417151
-0.450161
-0.482938
-0.5136
-0.54019
-0.560752
-0.573418
-0.576489
-0.568553
-0.548683
-0.516571
-0.472698
-0.418
-0.354049
-0.283428
-0.209579
-0.136471
-0.0688532
-0.298739
-0.310593
-0.323041
-0.341017
-0.364917
-0.393424
-0.425148
-0.458541
-0.491872
-0.523265
-0.550771
-0.572449
-0.58645
-0.591089
-0.584961
-0.567052
-0.536885
-0.495686
-0.443531
-0.38167
-0.312338
-0.238785
-0.164716
-0.0940663
-0.320835
-0.330614
-0.342072
-0.359471
-0.383083
-0.411633
-0.443764
-0.477948
-0.512463
-0.545438
-0.574924
-0.598993
-0.615835
-0.623828
-0.621628
-0.608482
-0.584198
-0.548066
-0.500711
-0.442835
-0.375862
-0.3024
-0.22649
-0.150087
-0.349952
-0.356691
-0.366677
-0.383133
-0.406089
-0.434319
-0.466497
-0.501125
-0.536496
-0.570742
-0.601914
-0.628085
-0.647468
-0.658544
-0.660186
-0.651672
-0.632682
-0.602511
-0.561124
-0.508619
-0.445452
-0.373102
-0.296768
-0.217117
-0.379401
-0.382435
-0.390537
-0.405558
-0.427222
-0.454342
-0.485616
-0.519583
-0.554569
-0.588731
-0.620142
-0.646906
-0.667303
-0.679934
-0.683769
-0.677989
-0.662436
-0.63676
-0.600417
-0.552877
-0.494162
-0.424972
-0.350397
-0.271805
-0.403485
-0.402846
-0.408635
-0.421466
-0.440878
-0.465736
-0.49476
-0.526527
-0.559432
-0.591728
-0.621582
-0.647204
-0.667003
-0.679664
-0.684119
-0.679987
-0.666917
-0.644501
-0.612055
-0.568714
-0.514275
-0.449149
-0.378218
-0.303619
-0.419419
-0.415597
-0.418665
-0.428414
-0.444343
-0.465531
-0.490781
-0.518757
-0.547994
-0.576902
-0.603823
-0.62714
-0.645383
-0.657281
-0.662313
-0.659678
-0.648877
-0.629285
-0.600045
-0.560067
-0.509352
-0.448679
-0.382875
-0.314568
-0.427034
-0.421163
-0.421409
-0.427205
-0.438335
-0.454343
-0.474326
-0.497141
-0.521514
-0.546071
-0.569378
-0.590001
-0.606696
-0.618729
-0.624831
-0.624075
-0.61562
-0.598383
-0.571377
-0.533676
-0.486129
-0.430293
-0.371094
-0.311016
-0.428193
-0.421773
-0.419644
-0.421221
-0.426748
-0.43645
-0.450017
-0.466736
-0.485667
-0.505703
-0.525604
-0.544306
-0.560796
-0.573449
-0.580873
-0.581696
-0.574532
-0.558089
-0.531737
-0.495445
-0.451327
-0.401508
-0.350551
-0.299741
-0.425536
-0.419921
-0.416339
-0.414366
-0.41465
-0.418104
-0.425183
-0.435845
-0.449642
-0.465796
-0.483464
-0.501344
-0.517623
-0.530454
-0.537936
-0.538272
-0.529995
-0.512364
-0.48564
-0.451122
-0.411665
-0.369321
-0.327719
-0.286111
-0.421424
-0.417387
-0.413323
-0.409074
-0.40557
-0.404224
-0.406185
-0.412113
-0.422068
-0.435548
-0.451335
-0.467652
-0.482342
-0.493136
-0.497913
-0.495082
-0.483804
-0.464353
-0.437878
-0.406505
-0.372593
-0.337823
-0.304719
-0.271015
-0.41778
-0.41538
-0.411449
-0.406191
-0.400735
-0.396715
-0.395679
-0.398767
-0.406129
-0.417109
-0.430201
-0.443295
-0.454027
-0.460176
-0.460048
-0.452806
-0.438573
-0.41841
-0.39377
-0.366488
-0.33761
-0.308488
-0.280134
-0.252069
-0.00116539
0.0582948
0.0987772
0.122861
0.133831
0.135295
0.130594
0.122407
0.112594
0.102338
0.0923516
0.0830009
0.0745226
0.0668902
0.0601103
0.0541133
0.048841
0.0442
0.0401327
0.0365658
0.0334323
0.0306739
0.0282399
0.0260868
0.0241784
0.022484
0.0209772
0.0196348
0.0184372
0.017367
0.0164087
0.0155489
0.0147756
0.0140782
0.0134469
0.0128734
0.0123498
0.011869
0.0114247
0.0110107
0.0106216
0.0102521
0.00989739
0.00955252
0.00921285
0.00887336
0.00852972
0.00817547
0.0078078
0.00741556
0.00700237
0.00654322
0.00605996
0.00549986
0.00490932
0.00422295
0.00345652
0.00262774
0.00163234
0.000586215
-0.0226518
0.0428712
0.0869947
0.113821
0.12683
0.129977
0.126584
0.119358
0.110312
0.100682
0.0911651
0.0821892
0.073887
0.0664152
0.0597856
0.0538968
0.0487648
0.0441774
0.0401351
0.0365871
0.0334692
0.0307206
0.0282916
0.0261406
0.0242323
0.0225368
0.0210281
0.0196834
0.0184831
0.0174101
0.016449
0.0155865
0.0148105
0.0141104
0.0134767
0.0129008
0.0123749
0.011892
0.0114458
0.0110301
0.0106393
0.0102683
0.00991208
0.00956581
0.00922483
0.00888417
0.00853937
0.00818418
0.00781533
0.00742262
0.00700777
0.0065492
0.00606311
0.00550488
0.00491133
0.00422488
0.00346066
0.00262466
0.00163676
0.000581543
-0.0725285
0.00335688
0.0564916
0.0898238
0.107878
0.115062
0.115154
0.11066
0.103673
0.0956556
0.0874306
0.0794547
0.0719703
0.0650887
0.0588074
0.0532089
0.0482309
0.0438116
0.0399205
0.0364521
0.0333875
0.0306783
0.0282764
0.026143
0.0242461
0.0225583
0.0210544
0.0197125
0.0185136
0.0174408
0.0164794
0.0156159
0.0148388
0.0141375
0.0135024
0.0129251
0.0123978
0.0119134
0.0114657
0.0110487
0.0106567
0.0102845
0.00992715
0.00957974
0.00923771
0.00889611
0.00855036
0.00819442
0.00782456
0.00743154
0.00701514
0.00655731
0.0060684
0.00551217
0.00491554
0.00422893
0.00346687
0.00262326
0.00164247
0.0005774
-0.135965
-0.0521715
0.0113644
0.0533479
0.0784923
0.0916534
0.0967483
0.0966645
0.0931092
0.0876594
0.0814165
0.0749779
0.0686569
0.0626444
0.0570565
0.0519547
0.0472842
0.0431517
0.0393794
0.0361171
0.0331657
0.0305284
0.0281797
0.0260841
0.0242133
0.0225443
0.021054
0.0197214
0.0185287
0.0174599
0.0165008
0.0156387
0.0148621
0.0141607
0.0135253
0.0129474
0.0124194
0.0119342
0.0114855
0.0110674
0.0106745
0.0103014
0.0099432
0.00959493
0.00925207
0.00890973
0.00856323
0.00820675
0.00783604
0.00744287
0.00702505
0.00656806
0.00607642
0.00552222
0.00492249
0.00423567
0.00347547
0.00262408
0.00164969
0.000574094
-0.19188
-0.10865
-0.0394578
0.0101672
0.0426747
0.0624449
0.0733232
0.0782314
0.0791512
0.0771811
0.0735062
0.0690149
0.0642083
0.059361
0.0546496
0.0501874
0.0460141
0.0421848
0.0387626
0.035542
0.0327885
0.0302737
0.0280021
0.0259629
0.0241325
0.0224932
0.0210249
0.0197082
0.0185268
0.017466
0.0165123
0.0156537
0.0148794
0.0141795
0.0135448
0.0129671
0.0124391
0.0119538
0.0115048
0.0110862
0.0106925
0.0103188
0.00996
0.00961116
0.00926775
0.00892489
0.00857783
0.00822099
0.00784961
0.00745647
0.00703739
0.00658135
0.00608711
0.00553495
0.00493215
0.00424513
0.00348638
0.00262733
0.0016584
0.000571775
-0.228056
-0.152602
-0.0863712
-0.0333733
0.00497565
0.0307861
0.0472993
0.0572286
0.0625102
0.0645312
0.0640138
0.0618464
0.0587749
0.0552608
0.0515804
0.0479083
0.0443604
0.0409896
0.0378151
0.0349591
0.0322245
0.0298845
0.02773
0.0257679
0.0239934
0.0223978
0.0209625
0.0196698
0.0185058
0.0174576
0.0165128
0.0156605
0.0148906
0.0141935
0.0135607
0.0129842
0.0124569
0.0119719
0.0115232
0.0111046
0.0107108
0.0103367
0.00997741
0.0096282
0.00928446
0.00894132
0.00859392
0.00823689
0.00786504
0.00747204
0.00705189
0.00659685
0.00610022
0.00555007
0.00494427
0.00425713
0.0034993
0.00263302
0.00166836
0.000570519
-0.245426
-0.179503
-0.122742
-0.0721117
-0.0308588
-0.000584436
0.0206732
0.0352068
0.0445977
0.0501333
0.0529393
0.0535088
0.0524688
0.0504559
0.0479282
0.0451552
0.0422938
0.0394606
0.0367094
0.0340629
0.0316747
0.0293814
0.0273805
0.0255212
0.0238107
0.0222674
0.0208728
0.0196099
0.0184678
0.0174357
0.0165028
0.0156592
0.0148955
0.0142028
0.013573
0.0129987
0.0124727
0.0119887
0.0115405
0.0111224
0.010729
0.0103549
0.00999547
0.00964604
0.00930213
0.00895888
0.00861133
0.00825431
0.00788216
0.00748943
0.00706841
0.00661439
0.0061156
0.00556737
0.00495868
0.00427155
0.00351395
0.0026412
0.00167933
0.000570492
-0.250101
-0.193075
-0.146961
-0.103041
-0.0623438
-0.0297552
-0.00516099
0.0131467
0.0262304
0.0350553
0.0406506
0.0439138
0.045208
0.0449566
0.043733
0.0419559
0.0398676
0.0376208
0.0353274
0.0330462
0.0308094
0.0287969
0.0268789
0.0251648
0.0235443
0.0220756
0.020739
0.0195179
0.0184063
0.0173966
0.0164801
0.0156485
0.0148934
0.014207
0.0135817
0.0130104
0.0124866
0.0120041
0.0115569
0.0111396
0.0107468
0.0103733
0.0100141
0.00966469
0.00932076
0.00897753
0.00862999
0.00827312
0.00790085
0.00750849
0.00708683
0.00663379
0.00613317
0.00558667
0.00497525
0.00428832
0.00353009
0.00265199
0.00169112
0.000572005
-0.247767
-0.20019
-0.162085
-0.125588
-0.0882583
-0.0556788
-0.0293245
-0.00831464
0.00782058
0.0196212
0.0278979
0.0334308
0.0368797
0.0385751
0.0388757
0.0382529
0.0370458
0.0354849
0.0337209
0.0318683
0.0299833
0.0280974
0.0263945
0.0247901
0.0232514
0.021861
0.0205851
0.0194082
0.01833
0.0173453
0.0164475
0.0156299
0.0148853
0.0142065
0.0135867
0.0130195
0.0124986
0.0120181
0.0115724
0.0111561
0.0107642
0.0103915
0.0100329
0.00968392
0.00934023
0.0089972
0.00864983
0.00829323
0.00792102
0.00752911
0.00710704
0.00665491
0.00615284
0.00560781
0.0049939
0.00430738
0.00354753
0.00266557
0.00170356
0.000575491
-0.243054
-0.20448
-0.172727
-0.141255
-0.108307
-0.0777709
-0.0512634
-0.0286878
-0.0102706
0.00406852
0.0148394
0.0226472
0.0280704
0.0315182
0.0333917
0.0340359
0.0338014
0.032971
0.0317582
0.0303277
0.0287928
0.0272051
0.0256184
0.024183
0.0227834
0.0215502
0.0203682
0.0192526
0.0182203
0.0172702
0.016398
0.0155991
0.0148682
0.0141995
0.0135872
0.0130253
0.0125083
0.0120306
0.0115869
0.0111722
0.0107814
0.0104096
0.0100518
0.00970362
0.00936043
0.00901781
0.00867079
0.00831459
0.00794261
0.00755119
0.007129
0.00667759
0.00617457
0.00563062
0.00501455
0.00432865
0.00356603
0.0026821
0.00171648
0.000581545
-0.236766
-0.207102
-0.18022
-0.151548
-0.122082
-0.0945645
-0.0693012
-0.046314
-0.0264721
-0.010261
0.00245108
0.0120628
0.0190925
0.0241468
0.0275003
0.0294375
0.0303038
0.0303949
0.0298689
0.0289377
0.0277598
0.0264567
0.0250775
0.0236626
0.0221872
0.0211998
0.0201478
0.0190953
0.0181061
0.0171894
0.0163431
0.0155641
0.0148482
0.0141906
0.0135864
0.0130305
0.0125178
0.0120431
0.0116016
0.0111885
0.0107989
0.010428
0.0100711
0.0097236
0.00938105
0.00903898
0.00869244
0.00833677
0.00796521
0.00757432
0.00715234
0.00670149
0.00619808
0.00565482
0.00503698
0.00435206
0.00358534
0.00270178
0.00172984
0.000591053
-0.229383
-0.211247
-0.18972
-0.163332
-0.136813
-0.11195
-0.0889277
-0.0669994
-0.0466684
-0.0288531
-0.013923
-0.00186248
0.00754205
0.0146451
0.0197966
0.0232671
0.0253557
0.0264199
0.0267905
0.0266024
0.0260022
0.0251405
0.0241318
0.0230239
0.0221165
0.0207146
0.0197989
0.0188569
0.0179406
0.0170736
0.0162628
0.0155097
0.0148126
0.0141688
0.0135747
0.0130262
0.0125189
0.0120483
0.0116098
0.0111991
0.0108115
0.0104422
0.0100867
0.00974049
0.00939908
0.00905802
0.00871238
0.00835756
0.00798676
0.00759663
0.00717523
0.00672496
0.00622176
0.00567895
0.00505989
0.0043764
0.00360432
0.00272391
0.00174263
0.000604781
-0.207921
-0.203582
-0.18371
-0.158009
-0.132897
-0.10979
-0.0884155
-0.0683462
-0.0496854
-0.0329985
-0.0187256
-0.00696533
0.00241621
0.00970035
0.0151928
0.019152
0.0218381
0.0235156
0.0244152
0.0246848
0.0244708
0.0239232
0.0231661
0.0223111
0.0214416
0.0205471
0.0194741
0.0185577
0.0177023
0.0168857
0.016117
0.0153983
0.0147292
0.014108
0.013532
0.0129981
0.0125025
0.0120411
0.0116101
0.0112053
0.0108224
0.0104569
0.0101046
0.00976106
0.00942186
0.00908259
0.00873848
0.00838479
0.00801527
0.00762537
0.00720569
0.00675378
0.00625361
0.00570685
0.00508999
0.0044045
0.00362646
0.00274941
0.00175516
0.000620682
-0.186638
-0.186106
-0.16912
-0.145556
-0.122676
-0.102317
-0.0839691
-0.0667662
-0.050463
-0.0354829
-0.0223324
-0.0112206
-0.00212549
0.00513757
0.0108267
0.0151357
0.0182189
0.0202798
0.0215452
0.0221784
0.022311
0.0220823
0.0216116
0.0209852
0.0202894
0.0195184
0.0187106
0.0179566
0.0172101
0.0164868
0.0157949
0.0151389
0.0145209
0.0139412
0.0133991
0.0128926
0.0124193
0.0119762
0.0115599
0.011167
0.0107939
0.0104364
0.0100906
0.00975244
0.0094177
0.00908212
0.00874112
0.00838995
0.00802279
0.00763441
0.00721699
0.00676508
0.00626814
0.00571893
0.00510612
0.00441755
0.00363911
0.00276285
0.00176077
0.000628963
-0.168275
-0.168703
-0.155366
-0.135403
-0.115418
-0.0975427
-0.0814699
-0.0663301
-0.0517757
-0.0381143
-0.0258417
-0.0152383
-0.00637813
0.000855562
0.00668473
0.0112456
0.0146331
0.0170352
0.0186692
0.0196758
0.0201637
0.0202588
0.020078
0.0197105
0.0192294
0.0186634
0.0180084
0.0173486
0.0167001
0.0160615
0.0154413
0.0148459
0.0142789
0.0137419
0.0132353
0.0127584
0.0123096
0.0118867
0.0114872
0.0111081
0.0107463
0.010398
0.0100598
0.00972795
0.00939844
0.00906715
0.00872972
0.00838144
0.00801687
0.00763025
0.00721512
0.00676363
0.0062696
0.00571896
0.00510983
0.00441909
0.0036417
0.00276624
0.00175921
0.000631275
-0.150424
-0.151837
-0.141852
-0.125291
-0.107921
-0.0920875
-0.0778505
-0.0645241
-0.0516803
-0.0394513
-0.0282404
-0.0183372
-0.00988876
-0.00285713
0.00294799
0.00763383
0.0112437
0.0139301
0.0158864
0.017225
0.0180314
0.0184241
0.0185173
0.0183936
0.0181124
0.0177029
0.017207
0.016687
0.0161491
0.015603
0.0150607
0.0145307
0.0140184
0.013527
0.0130584
0.0126131
0.0121905
0.0117894
0.0114079
0.0110435
0.0106938
0.0103556
0.0100256
0.00970059
0.00937677
0.00905015
0.00871659
0.00837139
0.00800955
0.00762476
0.00721194
0.00676089
0.00626955
0.00571775
0.00511149
0.00441947
0.00364197
0.00276813
0.00175621
0.0006322
-0.133554
-0.136204
-0.128837
-0.115196
-0.100269
-0.086416
-0.0739421
-0.0623281
-0.0511
-0.0402549
-0.0301075
-0.020934
-0.0129388
-0.00616646
-0.000452627
0.00429614
0.00806793
0.0109733
0.0131915
0.0148142
0.0159034
0.0165667
0.0169127
0.0170138
0.0169266
0.0166995
0.0163736
0.0159862
0.0155598
0.0151099
0.0146494
0.0141886
0.0137345
0.0132921
0.0128646
0.0124535
0.0120595
0.0116822
0.0113203
0.0109721
0.0106358
0.0103088
0.00998828
0.00967105
0.00935369
0.00903238
0.00870324
0.00836159
0.00800289
0.00762031
0.00721007
0.0067598
0.0062712
0.00571864
0.0051149
0.0044222
0.00364381
0.00277195
0.00175522
0.000634172
-0.11877
-0.121941
-0.116446
-0.105265
-0.0926021
-0.0806464
-0.0698141
-0.0597311
-0.0499466
-0.0403838
-0.0312787
-0.0228713
-0.015392
-0.00895226
-0.00341332
0.00131039
0.00515866
0.00820314
0.010617
0.0124746
0.0138084
0.014711
0.0152872
0.0156053
0.0157171
0.0156681
0.0154969
0.0152433
0.0149322
0.0145815
0.0142061
0.0138177
0.0134251
0.0130348
0.0126511
0.012277
0.0119138
0.0115623
0.0112219
0.0108916
0.0105704
0.0102562
0.00994615
0.00963761
0.00932748
0.0090122
0.0086881
0.00835059
0.00799553
0.00761564
0.00720834
0.00675935
0.00627361
0.00572092
0.00511949
0.00442678
0.0036473
0.00277748
0.00175669
0.000636757
-0.105451
-0.108656
-0.104654
-0.0956011
-0.0849877
-0.0747861
-0.0654571
-0.0567495
-0.0482692
-0.0398997
-0.0318107
-0.0241967
-0.0172868
-0.0112393
-0.00594377
-0.00132059
0.00253118
0.00564646
0.00819529
0.0102388
0.0117777
0.0128883
0.0136728
0.0141921
0.0144877
0.0146044
0.014585
0.0144653
0.0142703
0.0140205
0.0137323
0.0134189
0.0130905
0.0127549
0.0124177
0.0120829
0.0117529
0.0114292
0.0111122
0.0108017
0.0104971
0.0101967
0.00989815
0.00959917
0.00929707
0.00898853
0.00867012
0.00833729
0.00798636
0.00760961
0.00720557
0.00675831
0.00627551
0.00572331
0.00512397
0.00443193
0.00365118
0.00278362
0.00175924
0.000638473
-0.0929426
-0.09632
-0.093574
-0.0863286
-0.077514
-0.0688889
-0.0609245
-0.0534612
-0.0461602
-0.0388883
-0.0317687
-0.0249501
-0.0186421
-0.0130309
-0.00803291
-0.00357357
0.000216895
0.00333909
0.00596238
0.00814055
0.00984316
0.0111261
0.0120879
0.0127842
0.0132488
0.0135232
0.0136494
0.0136598
0.0135795
0.0134305
0.0132306
0.0129939
0.0127318
0.0124532
0.0121647
0.0118713
0.0115766
0.0112827
0.0109911
0.010702
0.0104152
0.0101297
0.00984372
0.00955531
0.00926214
0.0089611
0.00864902
0.00832144
0.00797508
0.00760193
0.00720144
0.00675634
0.00627655
0.00572534
0.00512792
0.00443707
0.00365492
0.00278972
0.0017618
0.000639157
-0.0815695
-0.0850656
-0.0832803
-0.077522
-0.0702549
-0.0630213
-0.056279
-0.0499318
-0.0436913
-0.037422
-0.0312134
-0.0251704
-0.0194771
-0.0143347
-0.00967867
-0.00543675
-0.00176489
0.00130609
0.00394632
0.00620689
0.00802838
0.00944519
0.010553
0.0114033
0.0120202
0.0124394
0.0127006
0.0128345
0.0128657
0.0128162
0.0127043
0.012545
0.0123505
0.0121304
0.0118924
0.0116425
0.0113848
0.0111227
0.0108581
0.0105918
0.0103242
0.0100548
0.00978266
0.0095059
0.00922255
0.00892979
0.00862473
0.00830299
0.00796173
0.00759265
0.00719606
0.00675357
0.00627692
0.00572722
0.0051316
0.00444236
0.00365885
0.00279577
0.00176463
0.000639709
-0.0714583
-0.0747937
-0.073715
-0.0691947
-0.0632536
-0.0572332
-0.0515713
-0.0462197
-0.0409315
-0.0355726
-0.0302073
-0.024905
-0.0198254
-0.0151735
-0.0108926
-0.00690983
-0.0034038
-0.000434887
0.00216845
0.00446023
0.00635723
0.0078714
0.00909358
0.0100712
0.010819
0.0113664
0.0117504
0.0119995
0.0121368
0.0121835
0.012158
0.0120755
0.0119488
0.0117881
0.0116019
0.0113968
0.011178
0.0109491
0.0107128
0.0104708
0.0102238
0.009972
0.00971476
0.00945065
0.00917801
0.00889433
0.00859701
0.00828179
0.00794617
0.00758172
0.00718942
0.00675005
0.00627672
0.00572906
0.00513526
0.00444802
0.00366333
0.00280205
0.00176837
0.000640573
-0.0621718
-0.0653553
-0.0648632
-0.0613713
-0.056551
-0.0515772
-0.0468636
-0.0423941
-0.0379535
-0.0334125
-0.0288189
-0.0242138
-0.019733
-0.0155779
-0.0116919
-0.00799872
-0.00469676
-0.00187368
0.000645585
0.00292267
0.00485416
0.00642852
0.00773095
0.00880679
0.0096625
0.0103197
0.0108121
0.0111659
0.0114017
0.0115393
0.0115969
0.0115895
0.0115298
0.0114286
0.0112947
0.0111354
0.0109564
0.010762
0.0105555
0.010339
0.0101139
0.00988093
0.00963968
0.00938922
0.0091282
0.00885444
0.00856561
0.00825758
0.0079282
0.00756894
0.00718137
0.00674564
0.00627589
0.00573078
0.00513891
0.00445405
0.0036684
0.00280875
0.00177308
0.000641665
-0.0536818
-0.0567772
-0.0567331
-0.0540632
-0.0501789
-0.0461038
-0.0422155
-0.038518
-0.0348237
-0.0310107
-0.0271158
-0.0231567
-0.019247
-0.0155821
-0.0121001
-0.00871765
-0.00564919
-0.00300642
-0.000610055
0.00161104
0.003537
0.00513482
0.00648435
0.0076294
0.00856871
0.00931581
0.0099002
0.0103456
0.0106703
0.0108919
0.0110277
0.011092
0.0110974
0.0110547
0.010973
0.0108598
0.0107213
0.0105622
0.0103865
0.0101967
0.00999469
0.00978145
0.00955721
0.00932137
0.00907289
0.00880987
0.00853028
0.00823014
0.00790762
0.00755413
0.00717175
0.00674021
0.00627434
0.00573229
0.00514256
0.00446038
0.00367407
0.00281594
0.00177858
0.000642981
-0.0461417
-0.0490277
-0.049263
-0.0472501
-0.044155
-0.0408495
-0.037672
-0.034643
-0.0315996
-0.0284287
-0.02516
-0.0217918
-0.0184184
-0.0152277
-0.0121488
-0.00908812
-0.00627261
-0.0038357
-0.00159418
0.000534451
0.00241872
0.00400649
0.00537175
0.00655704
0.00755455
0.0083703
0.00902899
0.00955144
0.00995336
0.0102503
0.0104577
0.0105891
0.0106565
0.0106702
0.0106395
0.010572
0.010474
0.0103508
0.0102065
0.0100442
0.00986613
0.00967362
0.00946733
0.009247
0.00901192
0.00876044
0.00849084
0.00819929
0.00788425
0.00753714
0.00716047
0.00673364
0.00627204
0.00573353
0.00514622
0.00446704
0.00368043
0.00282369
0.00178485
0.000644644
-0.0393615
-0.041969
-0.0424021
-0.0409325
-0.0385014
-0.0358476
-0.0332756
-0.0308194
-0.0283383
-0.0257283
-0.0230147
-0.02018
-0.0173022
-0.014561
-0.0118745
-0.00913705
-0.00658542
-0.00437219
-0.0023098
-0.000303107
0.00150853
0.00305602
0.0044075
0.00560503
0.00663558
0.00749796
0.00821213
0.00879604
0.00926231
0.00962418
0.0098952
0.0100876
0.0102124
0.0102796
0.0102978
0.0102747
0.0102167
0.0101292
0.0100166
0.00988228
0.00972874
0.00955771
0.00937014
0.00916612
0.00894522
0.00870605
0.00844715
0.00816488
0.00785796
0.00751785
0.00714741
0.00672585
0.00626896
0.00573447
0.00514995
0.00447407
0.00368753
0.00283212
0.00179193
0.000646743
-0.033166
-0.0355612
-0.0361569
-0.0351234
-0.0332334
-0.0311208
-0.0290591
-0.0270907
-0.0250911
-0.0229656
-0.0207379
-0.0183786
-0.0159519
-0.0136294
-0.0113171
-0.0088965
-0.00661188
-0.00463223
-0.0027654
-0.000902955
0.000810304
0.0022908
0.00360201
0.00478604
0.00582553
0.00671255
0.00746252
0.00809144
0.00860831
0.00902366
0.00934897
0.00959501
0.00977162
0.00988788
0.00995198
0.00997121
0.0099519
0.00989941
0.00981822
0.00971192
0.00958325
0.00943418
0.00926593
0.00907887
0.00887284
0.00864666
0.00839914
0.00812681
0.00782865
0.00749614
0.0071325
0.00671676
0.00626506
0.00573508
0.00515378
0.00448153
0.00369543
0.00284138
0.00179989
0.000649315
-0.0276165
-0.0298106
-0.0304969
-0.0297925
-0.0283395
-0.0266772
-0.0250455
-0.0234893
-0.0218978
-0.0201866
-0.0183799
-0.0164394
-0.0144183
-0.01248
-0.0105182
-0.00840165
-0.00638013
-0.00463678
-0.00297495
-0.00127281
0.000321988
0.00171381
0.00296209
0.0041095
0.00513517
0.00602564
0.00679133
0.00744938
0.00800235
0.00845879
0.00882802
0.00911919
0.00934081
0.00950087
0.00960683
0.00966543
0.00968269
0.00966381
0.00961321
0.00953456
0.00943071
0.00930378
0.0091552
0.00898557
0.00879495
0.00858235
0.00834683
0.00808506
0.00779625
0.00747194
0.00711567
0.00670631
0.00626033
0.00573534
0.00515774
0.00448948
0.0037042
0.00285162
0.00180876
0.000652393
-0.0226951
-0.0246441
-0.0253541
-0.024903
-0.0238105
-0.0225244
-0.0212519
-0.0200404
-0.0187925
-0.017433
-0.0159876
-0.0144116
-0.0127502
-0.0111595
-0.0095207
-0.00769002
-0.00592179
-0.00441134
-0.00295744
-0.00142525
3.65632e-05
0.0013228
0.00248957
0.00358061
0.00457274
0.00544808
0.00621494
0.00688132
0.0074549
0.00793937
0.00834135
0.00866826
0.00892712
0.00912472
0.00926756
0.00936171
0.00941267
0.00942532
0.0094039
0.00935199
0.00927246
0.00916752
0.00903869
0.00888674
0.0087119
0.00851335
0.00829033
0.00803966
0.00776077
0.00744523
0.0070969
0.00669446
0.00625476
0.00573528
0.00516189
0.00449803
0.00371391
0.00286299
0.00181865
0.000656015
-0.0182468
-0.0199763
-0.0206943
-0.020444
-0.0196441
-0.0186665
-0.0176903
-0.016765
-0.0158036
-0.0147397
-0.0136009
-0.0123387
-0.0109925
-0.00971202
-0.00836615
-0.00679971
-0.00527055
-0.00398441
-0.00273578
-0.00137734
-5.71771e-05
0.00111158
0.00218233
0.0032004
0.00414144
0.00498313
0.00573185
0.00639459
0.00697482
0.00747423
0.00789747
0.00825017
0.0085378
0.00876584
0.00893978
0.00906483
0.00914585
0.00918726
0.00919298
0.00916638
0.00911024
0.00902673
0.0089174
0.00878312
0.00862422
0.00844001
0.00822988
0.00799076
0.0077223
0.00741605
0.00707621
0.00668123
0.00624839
0.00573491
0.00516629
0.00450728
0.00372466
0.00287565
0.00182965
0.00066022
-0.0142485
-0.0157918
-0.0165059
-0.016402
-0.015828
-0.0150972
-0.0143635
-0.0136747
-0.0129509
-0.0121335
-0.0112532
-0.0102586
-0.0091856
-0.00817819
-0.00709428
-0.00576833
-0.00446077
-0.00338611
-0.00233522
-0.00114927
2.5221e-05
0.00106914
0.00203412
0.00296703
0.0038422
0.00463459
0.00535123
0.00599626
0.0065697
0.0070713
0.00750423
0.00787243
0.00817984
0.00843066
0.00862922
0.00877982
0.00888658
0.00895333
0.00898354
0.00898027
0.00894609
0.00888303
0.00879261
0.00867569
0.00853265
0.00836288
0.00816587
0.00793863
0.007681
0.00738448
0.00705366
0.00666664
0.00624125
0.00573429
0.005171
0.00451737
0.00373655
0.00288978
0.00184191
0.000665056
-0.0106819
-0.0120444
-0.0127312
-0.0127381
-0.0123443
-0.0118135
-0.0112763
-0.0107788
-0.0102487
-0.00963512
-0.0089707
-0.00820264
-0.00736426
-0.00659479
-0.00574211
-0.00463172
-0.00352616
-0.00264743
-0.00178335
-0.000764467
0.00026523
0.00118165
0.00203496
0.00287338
0.00367045
0.00440586
0.00507758
0.00569153
0.00624512
0.00673688
0.00716829
0.00754174
0.00785978
0.00812531
0.00834154
0.0085118
0.00863938
0.00872744
0.00877893
0.00879647
0.00878233
0.00873833
0.00866585
0.00856565
0.00843813
0.00828266
0.00809883
0.00788364
0.00763714
0.00735073
0.00702938
0.0066508
0.00623343
0.00573351
0.00517612
0.00452842
0.00374971
0.00290557
0.00185559
0.000670583
-0.00749302
-0.00868562
-0.00933558
-0.00942651
-0.00918068
-0.00880917
-0.00842669
-0.00808079
-0.00770817
-0.00726084
-0.00677477
-0.00619702
-0.00555891
-0.00499483
-0.00434368
-0.0034237
-0.00249924
-0.00179863
-0.00110746
-0.000247092
0.000641568
0.00143141
0.0021705
0.00290838
0.00362655
0.00429311
0.00491055
0.00548198
0.00600451
0.00647546
0.00689485
0.00726371
0.00758333
0.00785542
0.00808211
0.00826574
0.00840877
0.00851364
0.00858268
0.00861804
0.00862157
0.00859481
0.0085389
0.00845447
0.00834182
0.00820027
0.00802945
0.00782632
0.00759111
0.00731506
0.00700359
0.00663383
0.00622505
0.00573268
0.00518177
0.00454061
0.00376427
0.00292323
0.00187086
0.000676865
-0.00463577
-0.00567831
-0.00628732
-0.0064376
-0.00630683
-0.00606797
-0.00581558
-0.00559405
-0.00534162
-0.00502435
-0.00468127
-0.00426274
-0.00379503
-0.00340751
-0.00293099
-0.00217755
-0.00141279
-0.000870677
-0.000335497
0.000379159
0.00113478
0.00180215
0.00242767
0.00306872
0.00369902
0.00429191
0.00484663
0.00536672
0.00584891
0.0062895
0.00668739
0.00704251
0.00735509
0.00762576
0.00785566
0.00804621
0.00819905
0.00831587
0.00839837
0.00844813
0.00846657
0.00845483
0.00841378
0.00834381
0.00824508
0.00811681
0.0079586
0.00776734
0.00754343
0.00727785
0.00697655
0.00661595
0.00621627
0.00573193
0.00518805
0.00455411
0.00378036
0.00294295
0.00188794
0.000683976
-0.00209123
-0.00300017
-0.00356404
-0.00375366
-0.00371063
-0.00357425
-0.00342254
-0.00329785
-0.00314553
-0.00293578
-0.00271136
-0.00241835
-0.0020916
-0.00185526
-0.00153213
-0.000927942
-0.00030777
9.07118e-05
0.000483731
0.00106466
0.00169971
0.0022544
0.00277634
0.00332024
0.00386505
0.00438256
0.00487186
0.00533639
0.00577257
0.00617613
0.00654526
0.00687917
0.00717724
0.00743929
0.00766562
0.00785685
0.00801385
0.00813764
0.00822927
0.00828976
0.00832002
0.00832078
0.00829255
0.00823545
0.00814941
0.0080335
0.00788728
0.00770748
0.00749468
0.00723953
0.0069486
0.00659737
0.00620729
0.0057314
0.0051951
0.00456907
0.00379809
0.00296496
0.00190701
0.000691969
0.000189259
-0.000601357
-0.00112213
-0.00134072
-0.00136803
-0.00131407
-0.00124234
-0.00119225
-0.00111171
-0.000973903
-0.000822911
-0.000610426
-0.000370608
-0.000227071
-7.75128e-07
0.000502411
0.00101476
0.00129387
0.00155629
0.00200348
0.00250822
0.00293772
0.0033391
0.00377037
0.00421247
0.00463767
0.00504502
0.00543801
0.005813
0.00616531
0.00649253
0.00679312
0.00706567
0.00730916
0.00752301
0.00770703
0.00786128
0.00798599
0.00808154
0.00814831
0.00818664
0.00819674
0.00817871
0.00813232
0.00805726
0.00795236
0.0078171
0.00764802
0.00744588
0.00720089
0.00692034
0.00657856
0.00619845
0.0057314
0.00520313
0.00458577
0.0038176
0.0029895
0.0019283
0.000700956
0.00219589
0.00150828
0.00102576
0.000780027
0.000684693
0.000655062
0.000640942
0.000605907
0.000598544
0.000640363
0.000684828
0.000778503
0.000888214
0.000896816
0.000990142
0.00136711
0.00176314
0.00193453
0.00209542
0.00244929
0.00287101
0.00322605
0.00355801
0.00392519
0.00430951
0.00468303
0.0050444
0.00539713
0.00573772
0.00606141
0.0063656
0.00664851
0.00690837
0.00714371
0.00735347
0.00753691
0.00769356
0.00782315
0.00792557