/*--------------------------------*- C++ -*----------------------------------*\
| =========                 |                                                 |
| \\      /  F ield         | OpenFOAM: The Open Source CFD Toolbox           |
|  \\    /   O peration     | Version:  2512                                  |
|   \\  /    A nd           | Website:  www.openfoam.com                      |
|    \\/     M anipulation  |                                                 |
\*---------------------------------------------------------------------------*/
FoamFile
{
    version     2.0;
    format      ascii;
    arch        "LSB;label=32;scalar=64";
    class       volScalarField;
    location    "9.45";
    object      p;
}
// * * * * * * * * * * * * * * * * * * * * * * * * * * * * * * * * * * * * * //

dimensions      [0 2 -2 0 0 0 0];

internalField   nonuniform List<scalar> 
13248
(
-0.366567
-0.365297
-0.362403
-0.358278
-0.353722
-0.34985
-0.347844
-0.348544
-0.352311
-0.359002
-0.367908
-0.377909
-0.387675
-0.395866
-0.401326
-0.403224
-0.40115
-0.395161
-0.385579
-0.373245
-0.358234
-0.341826
-0.322192
-0.300342
-0.367498
-0.366721
-0.364045
-0.360024
-0.35549
-0.351442
-0.348843
-0.348466
-0.350589
-0.35494
-0.360753
-0.366939
-0.372309
-0.375799
-0.376641
-0.374466
-0.369285
-0.361397
-0.351241
-0.33916
-0.325429
-0.310235
-0.29325
-0.276165
-0.371556
-0.370671
-0.368017
-0.364218
-0.359922
-0.355871
-0.352845
-0.351372
-0.351568
-0.353094
-0.355248
-0.357145
-0.357939
-0.357002
-0.354012
-0.348945
-0.341951
-0.333277
-0.323067
-0.311579
-0.298803
-0.285106
-0.270437
-0.255429
-0.378537
-0.376987
-0.374083
-0.37027
-0.366006
-0.361808
-0.358143
-0.355273
-0.353176
-0.351542
-0.349874
-0.347635
-0.344403
-0.339941
-0.334188
-0.32718
-0.319005
-0.309734
-0.299485
-0.288364
-0.276451
-0.264068
-0.251001
-0.238324
-0.387994
-0.385345
-0.381849
-0.377697
-0.373154
-0.368458
-0.363746
-0.359049
-0.354309
-0.349385
-0.344098
-0.338285
-0.331845
-0.324737
-0.31695
-0.308493
-0.299382
-0.289661
-0.279374
-0.268586
-0.257374
-0.245863
-0.234047
-0.222556
-0.399667
-0.395692
-0.391347
-0.386573
-0.381368
-0.375649
-0.369267
-0.362178
-0.354474
-0.346305
-0.337805
-0.329065
-0.320127
-0.310993
-0.301645
-0.292055
-0.282209
-0.272094
-0.261726
-0.251133
-0.240357
-0.229502
-0.218542
-0.207982
-0.413641
-0.408208
-0.402875
-0.397203
-0.390803
-0.383281
-0.374413
-0.364349
-0.353493
-0.34228
-0.331029
-0.319919
-0.309008
-0.298281
-0.287689
-0.277177
-0.2667
-0.256232
-0.245765
-0.235303
-0.224872
-0.214487
-0.204179
-0.194249
-0.430039
-0.423083
-0.416637
-0.409672
-0.401302
-0.390999
-0.378828
-0.365373
-0.351365
-0.337388
-0.323795
-0.31073
-0.298207
-0.286172
-0.274549
-0.263266
-0.252264
-0.241498
-0.230936
-0.220562
-0.210365
-0.200348
-0.190555
-0.181093
-0.44876
-0.440257
-0.432489
-0.423621
-0.41228
-0.398209
-0.382129
-0.36512
-0.348104
-0.331654
-0.316037
-0.301309
-0.287421
-0.274283
-0.261797
-0.249874
-0.238438
-0.227427
-0.216792
-0.206495
-0.19651
-0.186818
-0.177443
-0.168355
-0.469288
-0.459258
-0.449818
-0.438173
-0.422769
-0.404145
-0.383858
-0.363351
-0.343545
-0.324877
-0.307474
-0.291294
-0.276228
-0.262151
-0.248943
-0.236495
-0.224716
-0.213528
-0.202864
-0.192667
-0.182888
-0.173498
-0.164481
-0.155725
-0.490678
-0.479152
-0.467488
-0.451975
-0.431504
-0.407846
-0.383318
-0.359491
-0.337126
-0.316464
-0.297478
-0.280033
-0.263963
-0.249107
-0.235318
-0.22247
-0.210452
-0.199171
-0.188543
-0.178498
-0.168976
-0.159926
-0.151283
-0.142928
-0.511579
-0.498591
-0.48393
-0.463391
-0.437069
-0.408183
-0.379559
-0.352666
-0.328004
-0.305588
-0.285244
-0.266746
-0.249873
-0.234423
-0.220224
-0.207127
-0.195001
-0.183738
-0.17324
-0.163425
-0.154229
-0.145596
-0.137446
-0.129687
-0.256498
-0.266996
-0.276862
-0.290613
-0.308971
-0.331126
-0.356232
-0.383408
-0.411716
-0.440173
-0.467777
-0.493541
-0.516531
-0.5359
-0.550917
-0.560994
-0.565693
-0.564724
-0.557914
-0.545194
-0.526631
-0.502459
-0.472941
-0.43841
-0.265777
-0.275477
-0.284997
-0.298562
-0.316823
-0.338962
-0.364118
-0.391391
-0.419819
-0.448397
-0.476103
-0.501934
-0.524946
-0.544288
-0.559234
-0.569202
-0.573771
-0.572679
-0.565779
-0.553002
-0.534413
-0.510264
-0.481018
-0.447221
-0.28459
-0.292491
-0.301156
-0.314178
-0.332046
-0.353948
-0.37901
-0.406314
-0.434873
-0.463656
-0.491614
-0.517721
-0.541014
-0.560632
-0.575848
-0.58609
-0.590959
-0.590229
-0.58382
-0.571848
-0.554486
-0.531898
-0.503985
-0.471502
-0.308518
-0.313851
-0.321249
-0.333381
-0.350495
-0.371783
-0.396364
-0.423308
-0.451618
-0.480244
-0.508119
-0.534202
-0.55752
-0.577205
-0.592535
-0.602953
-0.60808
-0.607749
-0.602006
-0.591026
-0.574971
-0.553901
-0.528764
-0.49583
-0.332574
-0.334863
-0.340683
-0.351564
-0.367472
-0.387624
-0.411136
-0.437075
-0.464461
-0.492266
-0.519417
-0.544889
-0.567716
-0.587045
-0.602169
-0.612562
-0.617878
-0.617998
-0.612974
-0.602811
-0.588239
-0.568253
-0.545069
-0.514372
-0.35254
-0.351869
-0.355862
-0.365022
-0.379145
-0.397505
-0.419232
-0.443366
-0.468999
-0.495196
-0.520831
-0.544983
-0.566721
-0.585219
-0.599803
-0.610004
-0.615384
-0.615907
-0.611751
-0.602625
-0.589579
-0.570823
-0.549306
-0.520442
-0.366281
-0.363091
-0.365051
-0.37198
-0.383607
-0.399348
-0.4184
-0.439894
-0.462948
-0.486649
-0.510059
-0.53227
-0.552417
-0.569734
-0.583564
-0.59341
-0.599169
-0.600483
-0.597504
-0.589714
-0.578165
-0.560805
-0.540433
-0.512542
-0.373531
-0.368706
-0.368641
-0.372829
-0.381146
-0.393325
-0.408767
-0.426723
-0.446395
-0.466967
-0.487605
-0.507485
-0.525816
-0.541795
-0.555061
-0.565192
-0.571683
-0.574165
-0.572593
-0.566345
-0.555978
-0.539708
-0.519631
-0.491776
-0.375522
-0.370186
-0.368436
-0.369717
-0.374174
-0.381989
-0.392948
-0.406568
-0.42224
-0.439286
-0.456981
-0.474567
-0.491209
-0.5067
-0.520164
-0.530867
-0.538298
-0.5419
-0.541311
-0.535823
-0.525627
-0.509482
-0.488767
-0.460396
-0.374151
-0.369331
-0.36653
-0.365293
-0.36602
-0.36933
-0.375509
-0.384503
-0.396015
-0.409565
-0.424524
-0.440316
-0.45644
-0.471746
-0.485327
-0.496325
-0.503907
-0.507292
-0.505982
-0.499448
-0.48809
-0.471277
-0.450345
-0.422517
-0.371223
-0.367573
-0.364391
-0.361429
-0.359265
-0.358839
-0.360895
-0.365854
-0.373804
-0.384512
-0.397548
-0.412139
-0.427254
-0.441723
-0.454353
-0.464038
-0.46974
-0.470808
-0.466786
-0.457752
-0.444388
-0.426974
-0.407535
-0.383223
-0.368236
-0.365914
-0.362798
-0.35893
-0.355024
-0.352186
-0.351473
-0.353656
-0.359132
-0.367768
-0.378976
-0.391777
-0.404921
-0.417051
-0.426842
-0.433187
-0.43522
-0.432646
-0.425273
-0.413866
-0.398778
-0.381327
-0.363017
-0.343447
-0.392267
-0.331216
-0.263128
-0.189459
-0.11449
-0.0422333
0.0215986
0.0731943
0.109694
0.131324
0.140286
0.139752
0.133094
0.123146
0.111922
0.100682
0.0900888
0.0804695
0.071851
0.0642232
0.05752
0.0516039
0.0463805
0.0417666
0.0376996
0.0341062
0.0309223
0.0280975
0.0255909
0.0233652
0.0213863
0.0196235
0.0180499
0.0166425
0.0153811
0.0142483
0.0132287
0.012309
0.0114771
0.0107222
0.0100351
0.00940635
0.00882937
0.00829442
0.00779909
0.00732978
0.0068921
0.00646227
0.00606038
0.00564556
0.00525456
0.00483574
0.00441947
0.00398388
0.0034995
0.0030167
0.00244295
0.0018468
0.00116114
0.000418582
-0.403061
-0.342468
-0.275136
-0.20143
-0.126471
-0.0534797
0.011565
0.0650034
0.102867
0.125955
0.136114
0.136674
0.130812
0.121462
0.110725
0.0998435
0.0895059
0.0800041
0.0715054
0.0639713
0.057345
0.0514961
0.0463575
0.041782
0.0377315
0.0341494
0.0309735
0.0281502
0.0256419
0.0234135
0.0214317
0.0196659
0.0180892
0.0166787
0.0154144
0.0142789
0.0132568
0.0123346
0.0115005
0.0107436
0.0100546
0.00942409
0.00884539
0.00830913
0.00781208
0.00734207
0.00690234
0.00647274
0.00606812
0.00565445
0.00526061
0.00484226
0.00442562
0.00398677
0.00350646
0.00301714
0.00244824
0.00184667
0.0011639
0.000414767
-0.431844
-0.372886
-0.307703
-0.234956
-0.160131
-0.083054
-0.0151857
0.0416081
0.0835031
0.110108
0.123363
0.126629
0.123127
0.115619
0.106333
0.0966016
0.087146
0.0783406
0.0703508
0.0631866
0.056759
0.0510515
0.0460019
0.0415333
0.0376002
0.0340813
0.0309451
0.0281455
0.0256518
0.0234321
0.0214554
0.0196922
0.0181163
0.0167057
0.0154406
0.014304
0.0132805
0.0123569
0.0115213
0.0107629
0.0100724
0.00944059
0.00886048
0.00832319
0.00782465
0.00735414
0.00691251
0.00648334
0.00607607
0.00566376
0.00526714
0.00484939
0.00443252
0.00399037
0.00351434
0.00301839
0.00245444
0.00184734
0.00116727
0.000411254
-0.462865
-0.406243
-0.34358
-0.273121
-0.198419
-0.1228
-0.0523387
0.00790124
0.0540729
0.0850922
0.102607
0.109802
0.110086
0.105704
0.098855
0.0910431
0.0830661
0.075354
0.0681529
0.0615615
0.0555918
0.0502398
0.0454141
0.041129
0.0372288
0.033868
0.0308212
0.0280697
0.0256101
0.0234135
0.0214526
0.0196993
0.0181295
0.0167226
0.0154596
0.0143239
0.0133007
0.0123768
0.0115405
0.0107812
0.0100897
0.00945685
0.00887558
0.00833745
0.00783757
0.00736671
0.0069233
0.00649468
0.00608486
0.005674
0.00527468
0.00485762
0.00444054
0.00399521
0.00352338
0.0030209
0.00246179
0.00184914
0.00117145
0.000408272
-0.480558
-0.431982
-0.374202
-0.308348
-0.236461
-0.162554
-0.0919968
-0.0299923
0.0192917
0.0543148
0.0762748
0.088045
0.0926878
0.0924693
0.0888962
0.0835784
0.077528
0.0712875
0.065186
0.0594071
0.0540332
0.0490933
0.0445862
0.0405025
0.0368925
0.0335256
0.0306108
0.0279303
0.0255195
0.0233581
0.0214225
0.019686
0.0181272
0.0167277
0.0154699
0.0143374
0.0133161
0.0123932
0.0115572
0.0107978
0.0101059
0.00947247
0.00889037
0.00835167
0.00785068
0.00737965
0.00693461
0.00650665
0.00609442
0.0056851
0.00528319
0.00486694
0.00444962
0.00400137
0.00353349
0.0030248
0.00247022
0.00185214
0.00117643
0.000405934
-0.48652
-0.441624
-0.390629
-0.332499
-0.266751
-0.197284
-0.129173
-0.067505
-0.0166569
0.0213929
0.0474295
0.0637188
0.0727959
0.0768856
0.0771906
0.0748118
0.0709552
0.0663877
0.0615568
0.0567278
0.0520562
0.047638
0.0435316
0.0397417
0.0362433
0.033161
0.0303212
0.0277159
0.0253732
0.0232605
0.0213619
0.0196502
0.018108
0.0167202
0.0154706
0.0143438
0.0133262
0.0124057
0.0115711
0.0108125
0.0101207
0.0094872
0.00890463
0.00836564
0.00786376
0.00739273
0.00694626
0.00651906
0.00610461
0.00569688
0.00529253
0.00487722
0.00445956
0.0040088
0.00354441
0.0030301
0.00247952
0.00185637
0.00118209
0.000404335
-0.477549
-0.436496
-0.393358
-0.341407
-0.28244
-0.221132
-0.159676
-0.10138
-0.0507364
-0.0107981
0.0185308
0.0389116
0.0521759
0.0600703
0.0641382
0.0650391
0.0636188
0.0608482
0.0573916
0.0536171
0.0497437
0.0459208
0.0422512
0.0388026
0.0355823
0.0325635
0.0298988
0.027393
0.0251705
0.0231255
0.0212743
0.0195937
0.0180727
0.0167003
0.0154619
0.014343
0.013331
0.0124143
0.0115822
0.010825
0.010134
0.00950092
0.00891828
0.00837927
0.00787676
0.00740587
0.00695819
0.00653179
0.00611537
0.00570921
0.0053026
0.00488837
0.0044702
0.00401751
0.00355591
0.00303682
0.00248951
0.00186184
0.00118833
0.00040364
-0.45513
-0.417573
-0.383257
-0.339124
-0.286525
-0.231831
-0.179447
-0.128571
-0.0808151
-0.0404168
-0.00882333
0.0148617
0.031781
0.0431698
0.0502983
0.0542812
0.0555424
0.0547565
0.0527742
0.050127
0.0471169
0.0439469
0.0407689
0.0376823
0.0347451
0.0319652
0.0293493
0.0269502
0.0248847
0.0229396
0.0211539
0.0195129
0.0180187
0.0166664
0.0154427
0.0143345
0.0133301
0.0124187
0.0115901
0.0108353
0.0101457
0.00951354
0.00893121
0.00839247
0.00788961
0.00741899
0.00697035
0.00654475
0.00612665
0.005722
0.00531334
0.00490033
0.0044814
0.00402752
0.00356779
0.00304504
0.00249999
0.00186864
0.00119503
0.0004041
-0.422275
-0.389016
-0.363192
-0.327081
-0.282771
-0.236133
-0.190495
-0.147613
-0.105396
-0.0665003
-0.0338846
-0.00788109
0.0119762
0.026402
0.0363716
0.042815
0.04659
0.0479634
0.0476261
0.0462124
0.0441507
0.0417171
0.039107
0.0364508
0.0338351
0.0313021
0.0288243
0.0267252
0.0246053
0.0227231
0.0210094
0.0194111
0.0179478
0.0166195
0.0154135
0.0143184
0.0133235
0.0124188
0.0115949
0.0108433
0.0101558
0.00952497
0.00894334
0.00840515
0.00790222
0.00743198
0.00698266
0.00655783
0.00613839
0.00573512
0.0053247
0.00491302
0.00449301
0.00403887
0.00357981
0.00305486
0.00251077
0.00187688
0.00120207
0.000406058
-0.384911
-0.357806
-0.33924
-0.310426
-0.274633
-0.236609
-0.198083
-0.160737
-0.124386
-0.0887554
-0.056582
-0.0292518
-0.00719461
0.00981892
0.0223871
0.0312599
0.037149
0.0405696
0.0419839
0.0419141
0.0408412
0.0391439
0.037111
0.0349163
0.0326678
0.0304309
0.0282512
0.0261538
0.0242626
0.0224398
0.0208286
0.0192811
0.0178555
0.016557
0.0153732
0.0142941
0.0133108
0.0124143
0.0115963
0.0108487
0.010164
0.00953503
0.00895455
0.0084172
0.00791454
0.00744478
0.00699514
0.00657095
0.00615064
0.00574848
0.00533668
0.0049264
0.00450495
0.00405164
0.0035918
0.00306639
0.00252166
0.00188672
0.00120934
0.000409993
-0.351681
-0.33253
-0.318343
-0.29473
-0.26595
-0.234986
-0.202271
-0.169442
-0.137313
-0.105453
-0.07514
-0.0476435
-0.0242555
-0.00540591
0.009136
0.0198884
0.027504
0.0327173
0.0358002
0.0372167
0.0374094
0.0366222
0.035226
0.0334846
0.0315714
0.0295946
0.0276233
0.0257092
0.0238289
0.0220028
0.0205914
0.0191234
0.0177432
0.0164779
0.0153197
0.0142601
0.0132913
0.0124054
0.0115949
0.0108526
0.0101714
0.00954478
0.00896573
0.00842933
0.00792708
0.00745771
0.00700794
0.00658415
0.00616329
0.00576197
0.005349
0.00494032
0.00451686
0.0040657
0.00360335
0.00307964
0.00253229
0.00189822
0.00121672
0.000416668
-0.326218
-0.316171
-0.303763
-0.283812
-0.261079
-0.236694
-0.210045
-0.181582
-0.152478
-0.123513
-0.0959054
-0.069477
-0.0454203
-0.0247713
-0.00780678
0.00558282
0.0157199
0.0230858
0.0280456
0.030988
0.0324248
0.0328226
0.0323943
0.031393
0.0300378
0.0284782
0.0268186
0.0251365
0.0234485
0.0219938
0.0203248
0.0189239
0.0176172
0.0163967
0.0152669
0.0142268
0.0132714
0.012395
0.0115911
0.0108534
0.0101753
0.00955087
0.00897325
0.00843793
0.00793633
0.00746764
0.00701816
0.00659494
0.00617415
0.00577361
0.0053601
0.00495322
0.00452745
0.00408009
0.00361315
0.00309402
0.00254157
0.00191083
0.00122335
0.000426644
-0.296714
-0.302167
-0.289065
-0.268005
-0.245372
-0.222462
-0.198681
-0.17361
-0.14764
-0.121333
-0.0956416
-0.0713342
-0.0491452
-0.0297721
-0.0135532
-0.000464541
0.00971531
0.0173501
0.0227955
0.0264379
0.0286267
0.0296682
0.0298038
0.0292873
0.0283392
0.0271245
0.0257573
0.0243112
0.0228538
0.0214284
0.0202184
0.0186297
0.0173606
0.0161931
0.0151077
0.014104
0.0131777
0.0123244
0.0115388
0.0108156
0.0101492
0.00953395
0.00896387
0.00843407
0.00793774
0.00747169
0.00702678
0.00660345
0.00618763
0.00578494
0.0053757
0.0049679
0.00454163
0.00409833
0.00362511
0.00311177
0.00255267
0.00192494
0.00122954
0.000438149
-0.264507
-0.273849
-0.263827
-0.244016
-0.22266
-0.202052
-0.181612
-0.16029
-0.137892
-0.114918
-0.0923146
-0.0708536
-0.0510466
-0.0334164
-0.0183259
-0.00583412
0.00418096
0.0119553
0.0177688
0.0218842
0.0245458
0.0260496
0.0266594
0.0265991
0.0260631
0.0252067
0.0241443
0.0229539
0.0216872
0.0204075
0.0189974
0.017966
0.0168485
0.0157781
0.0147726
0.0138334
0.0129595
0.0121485
0.0113973
0.0107021
0.0100583
0.00946142
0.00890636
0.00838861
0.00790242
0.00744407
0.00700649
0.00658747
0.0061778
0.00577659
0.00537296
0.00496529
0.00454244
0.0041009
0.00362702
0.00311712
0.0025558
0.00192991
0.00123083
0.000443565
-0.235969
-0.246522
-0.239779
-0.223045
-0.204216
-0.18606
-0.168359
-0.150077
-0.130759
-0.110713
-0.0906674
-0.0713628
-0.0533485
-0.0370785
-0.0228878
-0.0108881
-0.00102642
0.00684349
0.0129122
0.0173749
0.0204534
0.022416
0.0234972
0.023886
0.0237559
0.0232587
0.0225093
0.0215899
0.0205623
0.019485
0.0183578
0.0173359
0.0163174
0.0153379
0.0144069
0.0135296
0.0127075
0.0119397
0.0112246
0.0105592
0.00994026
0.00936391
0.00882596
0.00832224
0.00784796
0.00739901
0.00697004
0.00655691
0.00615403
0.00575592
0.00535804
0.00495179
0.00453306
0.00409321
0.00362072
0.00311346
0.00255205
0.00192817
0.00122769
0.000445145
-0.211229
-0.221153
-0.216952
-0.203329
-0.18698
-0.17092
-0.155368
-0.139502
-0.122787
-0.105325
-0.0876599
-0.0704649
-0.0542828
-0.0394989
-0.0263905
-0.0150846
-0.00558012
0.00219427
0.00836074
0.0130708
0.0165028
0.0188695
0.0203693
0.0211668
0.0214171
0.0212644
0.020822
0.020172
0.0193789
0.0184937
0.0175375
0.0166357
0.0157384
0.014858
0.0140089
0.0131998
0.0124341
0.0117132
0.011037
0.0104039
0.00981165
0.00925743
0.00873794
0.00824936
0.00778797
0.00734919
0.00692955
0.00652284
0.00612721
0.00573272
0.00534062
0.00493657
0.00452149
0.00408422
0.00361276
0.00310856
0.00254713
0.00192553
0.00122425
0.000446087
-0.188419
-0.19791
-0.195545
-0.184572
-0.170582
-0.15654
-0.142954
-0.129268
-0.114931
-0.0998847
-0.0845004
-0.0693377
-0.0548891
-0.0415058
-0.0294403
-0.0188349
-0.00973332
-0.00211843
0.00408501
0.00898389
0.0127029
0.0154076
0.0172708
0.0184367
0.0190399
0.0192139
0.0190679
0.0186802
0.0181125
0.0174233
0.0166606
0.0158959
0.0151157
0.0143373
0.0135752
0.0128389
0.0121342
0.0114642
0.0108303
0.0102325
0.00966961
0.00913977
0.00864067
0.00816888
0.00772177
0.00729436
0.00688503
0.00648566
0.00609791
0.0057078
0.00532181
0.0049207
0.00450927
0.00407543
0.00360471
0.00310432
0.00254268
0.00192357
0.00122198
0.000447151
-0.16781
-0.176909
-0.175723
-0.16687
-0.155055
-0.142974
-0.131251
-0.119519
-0.107275
-0.0943741
-0.0810456
-0.0677289
-0.0548647
-0.0427909
-0.0317517
-0.0218922
-0.0132766
-0.00591982
0.00021838
0.0052034
0.00911327
0.0120763
0.0142416
0.0157294
0.0166519
0.0171293
0.0172639
0.0171294
0.0167902
0.0163077
0.0157286
0.0151027
0.0144451
0.0137741
0.0131034
0.0124443
0.0118046
0.0111892
0.0106012
0.0100417
0.00951101
0.00900798
0.00853139
0.00807826
0.007647
0.00723238
0.00683448
0.0064436
0.00606445
0.00567972
0.00530023
0.00490294
0.00449542
0.00406569
0.0035959
0.00309983
0.00253818
0.00192169
0.00122042
0.000447937
-0.149599
-0.157849
-0.157408
-0.150324
-0.140477
-0.130229
-0.12022
-0.110214
-0.0997866
-0.0887597
-0.0772612
-0.0656323
-0.0542572
-0.043449
-0.0334361
-0.0243571
-0.0162853
-0.00925991
-0.00327003
0.00171766
0.00574194
0.00889718
0.0113091
0.0130735
0.014279
0.0150328
0.0154305
0.0155415
0.0154259
0.0151414
0.0147372
0.0142576
0.0137295
0.0131691
0.0125935
0.0120155
0.0114446
0.0108875
0.0103486
0.00983054
0.00933468
0.00886091
0.00840898
0.00797638
0.00756259
0.00716221
0.00677693
0.00639569
0.00602593
0.0056476
0.00527505
0.0048825
0.00447914
0.00405419
0.00358571
0.00309429
0.00253308
0.00191923
0.001219
0.000448107
-0.133029
-0.140434
-0.140615
-0.135041
-0.126907
-0.118283
-0.109799
-0.101311
-0.0924672
-0.0830811
-0.0732167
-0.0631348
-0.0531562
-0.0435546
-0.0345401
-0.0262461
-0.0187512
-0.0121141
-0.00634435
-0.00142978
0.00263593
0.00591566
0.00851416
0.0105042
0.0119512
0.0129498
0.0135889
0.0139287
0.0140232
0.0139298
0.0136987
0.01337
0.0129715
0.0125238
0.0120462
0.0115526
0.011054
0.0105584
0.0100719
0.00959819
0.00913993
0.00869785
0.00827271
0.00786254
0.00746787
0.00708324
0.00671179
0.00634144
0.00598191
0.00561102
0.00524591
0.00485902
0.00446014
0.00404067
0.00357385
0.0030874
0.0025272
0.00191596
0.00121747
0.000447673
-0.117858
-0.124697
-0.125387
-0.121027
-0.114317
-0.107089
-0.0999461
-0.0927973
-0.0853425
-0.0773991
-0.06899
-0.0603101
-0.0516185
-0.0431481
-0.0350909
-0.027575
-0.0206808
-0.0144779
-0.00898921
-0.00421559
-0.000177229
0.0031606
0.00588526
0.00804933
0.00969483
0.0109034
0.0117561
0.0123045
0.0125965
0.0126866
0.0126228
0.0124425
0.0121739
0.0118406
0.011463
0.0110564
0.0106329
0.0102019
0.00977059
0.00934409
0.00892601
0.00851798
0.00812174
0.00773596
0.00736214
0.00699484
0.00663855
0.00628035
0.00593196
0.00556963
0.00521252
0.00483224
0.00443824
0.00402494
0.00356026
0.00307907
0.00252053
0.00191186
0.00121578
0.000446925
-0.104306
-0.110576
-0.111559
-0.108146
-0.102631
-0.0966149
-0.0906508
-0.0846791
-0.0784402
-0.0717614
-0.064638
-0.0572128
-0.0496934
-0.042275
-0.0351304
-0.0283792
-0.0220977
-0.0163611
-0.0112006
-0.0066258
-0.00267703
0.00065687
0.00344987
0.00573705
0.00753679
0.00891732
0.00995397
0.0106895
0.0111626
0.0114236
0.0115183
0.0114818
0.011342
0.0111229
0.0108463
0.0105283
0.010182
0.00981805
0.0094446
0.00906778
0.00869227
0.00832057
0.00795537
0.00759596
0.00724476
0.00689641
0.0065566
0.00621191
0.00587562
0.00552298
0.00517454
0.00480185
0.00441325
0.00400677
0.00354487
0.00306917
0.0025131
0.00190695
0.00121399
0.000446136
-0.0922514
-0.0977998
-0.0989236
-0.0963036
-0.0918278
-0.086867
-0.0819259
-0.0769726
-0.0717872
-0.0662095
-0.0602141
-0.0539036
-0.0474442
-0.0409973
-0.034714
-0.0287023
-0.0230319
-0.0177796
-0.0129822
-0.00865329
-0.00484808
-0.00157411
0.00123279
0.00359329
0.00550301
0.00701708
0.00820599
0.00910316
0.00973711
0.0101537
0.0103964
0.0104972
0.0104822
0.0103756
0.0101995
0.00997072
0.00970302
0.00940778
0.00909419
0.0087692
0.00843844
0.00810523
0.00777313
0.007442
0.00711511
0.00678731
0.00646536
0.00613553
0.00581238
0.00547063
0.0051316
0.00476749
0.0043849
0.00398592
0.0035275
0.00305756
0.00250483
0.0019012
0.00121207
0.000445365
-0.081239
-0.0861855
-0.0874565
-0.085517
-0.0819175
-0.0778451
-0.073769
-0.0696842
-0.065405
-0.0607806
-0.0557697
-0.050444
-0.0449356
-0.039376
-0.033895
-0.0285881
-0.0235167
-0.0187559
-0.0143448
-0.0102981
-0.00668135
-0.00351659
-0.000745758
0.00164092
0.00361758
0.00522617
0.00653339
0.00756444
0.00833736
0.00889222
0.00926977
0.00949853
0.00960234
0.00960453
0.00952701
0.00938682
0.00919801
0.00897251
0.00872019
0.00844875
0.0081646
0.00787181
0.00757468
0.00727358
0.00697266
0.006667
0.00636429
0.0060507
0.00574178
0.00541209
0.0050833
0.00472875
0.00435289
0.00396209
0.00350796
0.00304408
0.00249556
0.00189462
0.0012099
0.000444566
-0.0712647
-0.0757549
-0.0771349
-0.0757231
-0.0728289
-0.0694949
-0.066153
-0.0628121
-0.0593106
-0.0555069
-0.0513499
-0.0468879
-0.0422258
-0.0374688
-0.0327273
-0.0280841
-0.0235908
-0.0193188
-0.0153066
-0.011568
-0.00817513
-0.0051611
-0.00247067
-0.000101627
0.00190072
0.00356553
0.00495696
0.00609342
0.00698168
0.00765518
0.0081519
0.00849712
0.00871149
0.008817
0.0088345
0.00878085
0.00867011
0.00851441
0.00832408
0.00810734
0.00787125
0.00762043
0.00735984
0.00709041
0.00681702
0.00653503
0.00625293
0.00595694
0.00566337
0.00534693
0.00502927
0.00468526
0.00431695
0.00393498
0.00348604
0.00302855
0.00248511
0.0018872
0.00120736
0.000443728
-0.0624373
-0.0664291
-0.0677888
-0.0667748
-0.0644751
-0.0617786
-0.0590685
-0.0563617
-0.0535207
-0.0504175
-0.046996
-0.043287
-0.0393724
-0.0353351
-0.0312682
-0.0272421
-0.0232984
-0.0195034
-0.015893
-0.012478
-0.00933495
-0.00650496
-0.003933
-0.00162081
0.000369378
0.00205436
0.00349651
0.00470891
0.00568743
0.00645857
0.00705727
0.00750528
0.00781976
0.00802125
0.00812857
0.00815802
0.00812329
0.00803644
0.00790799
0.00774643
0.00755925
0.00735154
0.00712882
0.00689247
0.00664802
0.00639112
0.00613093
0.00585385
0.00557676
0.00527473
0.00496917
0.00463666
0.00427678
0.00390434
0.00346151
0.00301085
0.00247335
0.0018789
0.00120433
0.000442869
-0.054517
-0.0580046
-0.0593193
-0.0586384
-0.0568482
-0.0546941
-0.0525142
-0.0503368
-0.0480497
-0.0455397
-0.0427478
-0.0396903
-0.0364304
-0.0330322
-0.0295738
-0.0261144
-0.0226859
-0.0193485
-0.016134
-0.013049
-0.0101726
-0.0075519
-0.00512927
-0.00290751
-0.000963375
0.000708379
0.00216911
0.00342802
0.00447127
0.00531819
0.00600037
0.00653603
0.0069386
0.00722663
0.00741685
0.00752446
0.00756243
0.00754237
0.00747472
0.00736803
0.00723002
0.00706608
0.00688219
0.00668002
0.0064657
0.00623513
0.00599807
0.00574112
0.00548162
0.00519513
0.00490266
0.00458262
0.0042321
0.00386992
0.00343415
0.00299083
0.00246012
0.00186968
0.00120078
0.000441983
-0.0473389
-0.0504301
-0.0517146
-0.0513045
-0.0499227
-0.0482067
-0.0464624
-0.0447258
-0.0429031
-0.040893
-0.0386359
-0.0361378
-0.0334465
-0.0306107
-0.0276962
-0.0247518
-0.0218
-0.0188946
-0.0160629
-0.0133066
-0.0107059
-0.00831135
-0.00606152
-0.003958
-0.00208948
-0.000460922
0.000988721
0.0022662
0.00334884
0.00424905
0.00499523
0.00560233
0.00607984
0.00644321
0.00670778
0.00688719
0.00699321
0.00703673
0.0070278
0.00697483
0.00688554
0.00676547
0.00662086
0.00645364
0.00627035
0.00606714
0.00585429
0.00561858
0.00537775
0.00510787
0.00482948
0.00452286
0.00418266
0.0038315
0.00340372
0.00296838
0.00244527
0.00185949
0.00119668
0.000441043
-0.0409317
-0.0436721
-0.0448997
-0.044675
-0.0436111
-0.0422573
-0.0408815
-0.0395169
-0.0380834
-0.0364919
-0.0346857
-0.0326641
-0.0304631
-0.0281186
-0.0256856
-0.023204
-0.0206879
-0.0181849
-0.0157171
-0.0132811
-0.0109573
-0.00879842
-0.00673786
-0.00477425
-0.00300563
-0.00144597
-3.4038e-05
0.00123576
0.00233345
0.00326494
0.00405543
0.0047168
0.00525474
0.00568129
0.00601039
0.00625389
0.00642205
0.00652479
0.00657148
0.00657017
0.00652838
0.00645161
0.00634624
0.00621427
0.00606259
0.00588751
0.00569975
0.00548622
0.00526503
0.00501274
0.00474942
0.00445715
0.00412819
0.00378888
0.00337001
0.00294337
0.00242865
0.00184827
0.001192
0.000440027
-0.03524
-0.0376243
-0.0387534
-0.0386691
-0.037875
-0.0368299
-0.0357624
-0.0347049
-0.0335923
-0.0323481
-0.0309191
-0.0293005
-0.0275192
-0.0256001
-0.0235892
-0.0215191
-0.0193963
-0.0172628
-0.0151355
-0.0130057
-0.0109535
-0.00903303
-0.00717142
-0.00536312
-0.00371332
-0.00224357
-0.000892024
0.000346687
0.00143647
0.00237739
0.00319228
0.00389055
0.00447401
0.00495118
0.00533415
0.00563285
0.00585605
0.00601248
0.00611066
0.00615801
0.00616169
0.00612696
0.00606015
0.00596326
0.00584337
0.00569687
0.00553481
0.00534424
0.00514352
0.00490971
0.00466237
0.00438533
0.00406853
0.00374191
0.00333283
0.0029157
0.00241016
0.00183595
0.00118672
0.000438921
-0.0301206
-0.0321918
-0.0332399
-0.033275
-0.032699
-0.0319004
-0.0310803
-0.0302722
-0.029423
-0.028466
-0.0273514
-0.0260717
-0.0246467
-0.0230927
-0.0214483
-0.0197401
-0.0179683
-0.0161701
-0.0143568
-0.0125149
-0.0107241
-0.00903886
-0.00737983
-0.00573648
-0.0042194
-0.00285621
-0.00158336
-0.00039464
0.000668243
0.00159928
0.0024183
0.00313344
0.00374629
0.00426204
0.00468796
0.00503228
0.00530251
0.00550616
0.00565074
0.00574287
0.00578917
0.00579447
0.00576494
0.0057024
0.00561403
0.00549616
0.00536016
0.00519304
0.00501348
0.00479887
0.00456831
0.00430734
0.00400354
0.00369049
0.00329202
0.00288526
0.0023897
0.00182245
0.00118085
0.000437723
-0.0255382
-0.0273447
-0.0283107
-0.0284277
-0.0280239
-0.0274237
-0.0268051
-0.026201
-0.0255674
-0.0248467
-0.0239923
-0.0229954
-0.0218709
-0.0206282
-0.0193
-0.0179072
-0.0164454
-0.0149472
-0.0134196
-0.0118442
-0.0103004
-0.00884225
-0.00738414
-0.00591012
-0.00453495
-0.00329137
-0.00211361
-0.000992993
2.61561e-05
0.000933948
0.00174581
0.00246451
0.00308858
0.00362662
0.00408281
0.00446172
0.00476966
0.00501289
0.00519773
0.00532982
0.00541503
0.00545762
0.00546342
0.00543392
0.0053763
0.0052867
0.00517674
0.0050333
0.00487534
0.00468049
0.00446739
0.00422325
0.00393317
0.00363457
0.00324748
0.00285197
0.00236722
0.00180772
0.00117439
0.000436436
-0.0214682
-0.0230311
-0.0239062
-0.0240771
-0.0238107
-0.0233749
-0.0229203
-0.02248
-0.0220197
-0.0214905
-0.0208489
-0.0200858
-0.0192125
-0.0182335
-0.0171759
-0.016056
-0.014865
-0.0136323
-0.0123606
-0.011028
-0.00971323
-0.0084697
-0.0072055
-0.00589906
-0.00466807
-0.00354987
-0.0024781
-0.00144345
-0.000493599
0.000359979
0.00113825
0.00184296
0.00248817
0.00304325
0.00351962
0.00392462
0.00426247
0.00453814
0.004757
0.0049238
0.00504367
0.00512018
0.00515874
0.0051604
0.00513227
0.00507013
0.00498584
0.00486598
0.00472979
0.00455506
0.0043599
0.00413324
0.0038575
0.00357419
0.00319916
0.00281579
0.00234267
0.00179168
0.00116735
0.000435068
-0.0178287
-0.0191714
-0.0199597
-0.0201694
-0.0200133
-0.019711
-0.0193901
-0.0190822
-0.0187622
-0.0183879
-0.0179186
-0.0173459
-0.01668
-0.015921
-0.0150917
-0.0142045
-0.0132476
-0.0122469
-0.0112014
-0.010086
-0.008979
-0.00793294
-0.0068498
-0.00570246
-0.00461042
-0.00361391
-0.00264367
-0.00168718
-0.000794357
1.20645e-05
0.000737139
0.00142867
0.00202596
0.00256209
0.00303478
0.00344597
0.00379838
0.00409471
0.00433839
0.00453264
0.00468141
0.00478731
0.00485513
0.0048853
0.00488472
0.00484867
0.0047892
0.00469242
0.00457788
0.00442336
0.00424641
0.00403773
0.00377675
0.00350951
0.0031471
0.00277673
0.00231606
0.0017743
0.00115972
0.000433648
-0.0145994
-0.0157513
-0.0164615
-0.0167038
-0.0166492
-0.0164748
-0.0162822
-0.0160923
-0.015881
-0.0156175
-0.0152791
-0.0148586
-0.0143621
-0.013786
-0.0131501
-0.0124631
-0.0117102
-0.0109148
-0.010073
-0.00915721
-0.00824574
-0.00739048
-0.00648824
-0.00550679
-0.0045667
-0.00371053
-0.00286621
-0.00201743
-0.00120939
-0.000451192
0.000248696
0.000900713
0.0015041
0.00204686
0.00253366
0.00296409
0.00333837
0.00365847
0.00392739
0.00414795
0.00432373
0.00445689
0.0045519
0.00460871
0.00463415
0.00462298
0.00458749
0.00451321
0.00442011
0.00428574
0.00412718
0.00393688
0.00369097
0.00344058
0.00309125
0.00273466
0.0022873
0.00175539
0.00115144
0.000432038
-0.0116956
-0.0126677
-0.0132801
-0.013503
-0.0134712
-0.0133314
-0.0131746
-0.0130296
-0.012889
-0.0127334
-0.0125321
-0.0122616
-0.0119202
-0.0115015
-0.0110285
-0.0105101
-0.00992943
-0.0093073
-0.0086369
-0.00788868
-0.00714057
-0.0064435
-0.00568974
-0.00484246
-0.00402297
-0.00327651
-0.00252993
-0.00176771
-0.00104622
-0.000365986
0.000255578
0.000827685
0.00136127
0.00184841
0.00228977
0.00268667
0.0030391
0.00334754
0.00361332
0.00383755
0.00402233
0.00416844
0.00427939
0.00435398
0.00439865
0.00440705
0.00439166
0.00433693
0.00426316
0.00414757
0.00400626
0.00383406
0.00360254
0.00336937
0.003033
0.0026907
0.00225716
0.00173553
0.00114302
0.000431088
-0.00925982
-0.0101329
-0.0107266
-0.0110131
-0.011101
-0.0111064
-0.0110988
-0.0110938
-0.0110749
-0.0110141
-0.0108767
-0.0106682
-0.0103962
-0.0100549
-0.0096838
-0.0092866
-0.00884115
-0.00836301
-0.00784131
-0.00724426
-0.00664911
-0.00610572
-0.00550252
-0.00479855
-0.00411524
-0.00349884
-0.00286898
-0.00219458
-0.00157026
-0.000977311
-0.000370629
0.000207471
0.000749262
0.00125188
0.00171463
0.00213632
0.00251552
0.00285187
0.00314624
0.00339951
0.00361366
0.00378931