/*--------------------------------*- C++ -*----------------------------------*\
| =========                 |                                                 |
| \\      /  F ield         | OpenFOAM: The Open Source CFD Toolbox           |
|  \\    /   O peration     | Version:  2512                                  |
|   \\  /    A nd           | Website:  www.openfoam.com                      |
|    \\/     M anipulation  |                                                 |
\*---------------------------------------------------------------------------*/
FoamFile
{
    version     2.0;
    format      ascii;
    arch        "LSB;label=32;scalar=64";
    class       volScalarField;
    location    "31.5";
    object      p;
}
// * * * * * * * * * * * * * * * * * * * * * * * * * * * * * * * * * * * * * //

dimensions      [0 2 -2 0 0 0 0];

internalField   nonuniform List<scalar> 
9800
(
0.0485132
0.0483899
0.0481555
0.0478213
0.0473984
0.0468968
0.0463255
0.0456926
0.0450059
0.0442727
0.0435002
0.0426949
0.0418635
0.0410124
0.0401475
0.0392746
0.038399
0.0375259
0.0366597
0.0358042
0.0349634
0.0341403
0.0333379
0.0325584
0.0318039
0.0310757
0.0303752
0.0297032
0.02906
0.028446
0.0278612
0.0273054
0.026778
0.0262787
0.0258066
0.0253611
0.0249411
0.0245458
0.0241742
0.0238251
0.0486367
0.0485136
0.0482796
0.0479459
0.0475235
0.0470222
0.0464508
0.0458175
0.0451297
0.0443946
0.0436193
0.0428104
0.0419744
0.0411176
0.0402461
0.0393656
0.0384816
0.0375991
0.0367227
0.0358566
0.0350044
0.0341696
0.0333551
0.0325633
0.0317964
0.0310559
0.0303432
0.0296591
0.0290043
0.028379
0.0277833
0.027217
0.0266798
0.0261711
0.0256903
0.0252365
0.024809
0.0244066
0.0240285
0.0236736
0.0488705
0.048748
0.0485148
0.0481823
0.0477609
0.0472604
0.0466893
0.0460553
0.0453657
0.0446274
0.0438472
0.0430317
0.0421872
0.04132
0.0404362
0.0395415
0.0386416
0.0377414
0.0368458
0.0359592
0.0350854
0.0342281
0.0333904
0.032575
0.0317843
0.03102
0.0302837
0.0295763
0.0288988
0.0282515
0.0276347
0.0270482
0.0264917
0.0259648
0.0254668
0.0249971
0.0245546
0.0241385
0.0237477
0.0233811
0.0492024
0.0490808
0.0488491
0.0485185
0.0480991
0.0476003
0.0470301
0.0463959
0.0457044
0.0449622
0.0441759
0.0433517
0.0424959
0.0416144
0.0407136
0.0397992
0.0388767
0.0379516
0.0370287
0.0361128
0.035208
0.0343181
0.0334468
0.0325971
0.0317716
0.0309725
0.0302014
0.0294599
0.028749
0.0280692
0.0274211
0.0268046
0.0262195
0.0256655
0.025142
0.0246483
0.0241836
0.0237469
0.0233371
0.0229532
0.0496206
0.0495003
0.049271
0.0489434
0.0485274
0.0480317
0.0474638
0.0468304
0.0461378
0.045392
0.0445991
0.0437651
0.042896
0.0419977
0.0410763
0.0401375
0.0391871
0.0382307
0.0372734
0.0363202
0.0353755
0.0344438
0.0335291
0.0326347
0.0317638
0.0309189
0.0301022
0.0293155
0.0285603
0.0278374
0.0271475
0.0264909
0.0258676
0.0252772
0.0247195
0.0241937
0.023699
0.0232345
0.0227991
0.0223917
0.0501141
0.0499958
0.0497699
0.0494469
0.049036
0.0485453
0.0479817
0.047351
0.0466588
0.0459105
0.0451117
0.044268
0.0433849
0.0424682
0.0415237
0.0405572
0.0395747
0.0385817
0.0375837
0.036586
0.0355935
0.0346112
0.0336434
0.0326943
0.0317674
0.0308659
0.0299924
0.0291494
0.0283386
0.0275614
0.0268188
0.0261114
0.0254394
0.0248028
0.0242014
0.0236345
0.0231014
0.0226013
0.0221331
0.0216955
0.0506725
0.0505568
0.0503356
0.050019
0.0496156
0.0491325
0.0485757
0.0479503
0.047261
0.0465124
0.0457095
0.0448572
0.0439607
0.0430253
0.0420566
0.0410605
0.0400426
0.0390089
0.037965
0.0369165
0.0358689
0.0348276
0.0337978
0.0327841
0.0317907
0.0308214
0.0298797
0.0289685
0.0280902
0.0272468
0.0264397
0.0256699
0.024938
0.0242443
0.0235887
0.0229708
0.02239
0.0218455
0.0213363
0.0208611
0.0512859
0.0511737
0.0509587
0.0506507
0.0502572
0.0497848
0.0492381
0.0486215
0.0479384
0.0471928
0.0463885
0.0455301
0.0446221
0.0436692
0.0426767
0.0416501
0.0405952
0.0395179
0.038424
0.0373194
0.0362102
0.0351024
0.0340018
0.0329137
0.0318431
0.0307948
0.0297728
0.0287811
0.0278227
0.0269002
0.0260156
0.0251707
0.0243664
0.0236035
0.022882
0.0222019
0.0215627
0.0209638
0.0204042
0.0198826
0.0519449
0.051837
0.05163
0.0513329
0.0509526
0.0504942
0.0499617
0.0493579
0.0486854
0.0479468
0.0471453
0.0462846
0.0453684
0.0444005
0.0433858
0.0423296
0.0412375
0.0401152
0.0389684
0.0378035
0.0366271
0.0354459
0.0342663
0.0330944
0.0319361
0.030797
0.0296825
0.028597
0.0275448
0.0265292
0.0255531
0.0246188
0.023728
0.022882
0.0220814
0.0213263
0.0206165
0.0199516
0.0193308
0.0187528
0.0526406
0.0525381
0.0523409
0.0520573
0.0516934
0.051253
0.050739
0.050153
0.0494961
0.0487697
0.0479763
0.0471184
0.0461984
0.0452197
0.0441863
0.0431031
0.0419752
0.0408077
0.0396067
0.0383787
0.0371308
0.0358703
0.0346042
0.0333393
0.0320827
0.0308411
0.0296209
0.0284279
0.0272671
0.0261431
0.0250596
0.0240201
0.0230272
0.0220825
0.0211874
0.0203425
0.019548
0.0188037
0.0181089
0.0174627
0.0533647
0.0532685
0.053083
0.0528159
0.0524717
0.0520535
0.051563
0.0510001
0.0503645
0.0496565
0.0488776
0.0480288
0.0471111
0.046127
0.0450801
0.0439744
0.0428138
0.0416031
0.040348
0.0390557
0.0377336
0.036389
0.0350296
0.0336632
0.032298
0.0309421
0.0296029
0.0282876
0.0270024
0.0257531
0.024545
0.0233826
0.0222694
0.0212083
0.0202012
0.0192494
0.0183537
0.0175142
0.0167306
0.0160022
0.0541093
0.0540204
0.0538487
0.0536007
0.05328
0.0528884
0.0524265
0.0518924
0.0512843
0.0506018
0.0498449
0.0490127
0.0481047
0.0471225
0.0460691
0.044947
0.0437589
0.0425086
0.041202
0.0398462
0.0384485
0.0370165
0.0355583
0.0340828
0.0325993
0.0311173
0.0296455
0.0281923
0.0267657
0.025373
0.0240211
0.0227159
0.0214623
0.0202643
0.019125
0.0180465
0.0170302
0.016077
0.015187
0.0143598
0.0548671
0.0547865
0.0546306
0.0544045
0.0541107
0.0537505
0.0533224
0.0528228
0.052249
0.0516001
0.0508736
0.0500664
0.0491767
0.0482055
0.0471544
0.0460241
0.0448154
0.0435316
0.0421781
0.0407618
0.0392895
0.0377685
0.0362076
0.0346166
0.0330061
0.0313867
0.0297684
0.0281614
0.0265752
0.0250194
0.0235026
0.0220324
0.0206156
0.0192575
0.0179625
0.0167342
0.0155749
0.0144862
0.013469
0.0125233
0.0556312
0.05556
0.0554218
0.0552202
0.054957
0.0546328
0.0542437
0.0537842
0.053252
0.052645
0.051958
0.051185
0.0503237
0.0493743
0.0483362
0.0472075
0.0459875
0.0446786
0.0432857
0.0418145
0.0402707
0.0386616
0.0369961
0.0352851
0.0335401
0.0317726
0.0299944
0.0282171
0.0264525
0.0247124
0.0230076
0.021348
0.019742
0.0181972
0.0167198
0.0153148
0.0139861
0.0127364
0.0115673
0.0104797
0.0563954
0.0563346
0.0562159
0.0560411
0.0558123
0.0555286
0.0551829
0.0547693
0.0542863
0.05373
0.0530915
0.052363
0.0515417
0.0506263
0.0496134
0.0484981
0.0472782
0.0459554
0.0445333
0.0430155
0.0414064
0.0397127
0.0379436
0.0361103
0.034225
0.0323003
0.0303492
0.0283853
0.026423
0.0244762
0.0225584
0.0206819
0.0188578
0.0170961
0.0154053
0.0137927
0.0122638
0.0108228
0.00947268
0.00821517
0.0571541
0.0571048
0.0570069
0.0568612
0.0566706
0.0564314
0.0561329
0.055771
0.0553451
0.0548479
0.0542669
0.0535937
0.0528252
0.0519575
0.0509833
0.049895
0.0486894
0.0473667
0.0459283
0.0443754
0.0427104
0.040939
0.0390703
0.0371154
0.0350867
0.0329973
0.0308618
0.0286959
0.0265161
0.0243392
0.0221815
0.0200583
0.0179838
0.015971
0.0140314
0.0121751
0.01041
0.00874221
0.00717639
0.00571574
0.0579022
0.0578654
0.0577893
0.057675
0.0575266
0.0573345
0.0570864
0.0567824
0.0564215
0.0559911
0.0554765
0.05487
0.0541679
0.0533622
0.0524415
0.0513959
0.050221
0.0489153
0.0474767
0.0459032
0.0441954
0.0423574
0.0403972
0.038325
0.0361528
0.0338942
0.0315648
0.0291824
0.0267659
0.024335
0.0219089
0.0195065
0.0171457
0.0148433
0.0126145
0.0104729
0.00842939
0.00649299
0.0046705
0.00296711
0.0586353
0.0586117
0.0585581
0.058478
0.0583749
0.0582312
0.0580368
0.0577971
0.0575078
0.0571513
0.0567123
0.0561843
0.055562
0.0548329
0.0539815
0.0529963
0.0518713
0.0506019
0.0491821
0.0476065
0.045873
0.0439837
0.0419445
0.0397637
0.0374522
0.0350235
0.0324939
0.0298829
0.0272117
0.0245026
0.0217784
0.0190619
0.0163754
0.0137403
0.0111763
0.00870124
0.00633029
0.00407602
0.00194832
-4.49988e-05
0.0593494
0.0593395
0.0593091
0.0592668
0.0592107
0.059115
0.058978
0.0588087
0.0585966
0.0583204
0.0579661
0.0575285
0.0569988
0.0563605
0.0555953
0.0546899
0.0536359
0.0524247
0.0510459
0.0494903
0.0477528
0.0458324
0.0437317
0.0414563
0.0390148
0.0364199
0.033688
0.0308395
0.0278975
0.0248871
0.0218345
0.018767
0.015712
0.0126961
0.00974473
0.006881
0.00412539
0.00149533
-0.00099514
-0.00333466
0.060041
0.0600453
0.0600393
0.0600385
0.0600286
0.0599801
0.0599049
0.0598107
0.0596801
0.0594903
0.0592298
0.0588934
0.0584685
0.057935
0.057273
0.0564678
0.0555076
0.0543787
0.0530661
0.0515567
0.0498415
0.0479153
0.0457764
0.0434263
0.0408706
0.0381194
0.0351885
0.0320984
0.0288731
0.02554
0.0221291
0.0186724
0.0152027
0.011753
0.00835533
0.00503957
0.00183283
-0.00124115
-0.00416266
-0.00691553
0.0607066
0.0607263
0.0607468
0.0607904
0.0608229
0.0608216
0.0608129
0.0607967
0.0607513
0.0606537
0.0604952
0.0602696
0.0599603
0.0595453
0.0590037
0.0583192
0.0574763
0.0564558
0.0552377
0.0538045
0.0521425
0.0502413
0.0480937
0.0456958
0.0430486
0.0401588
0.0370394
0.0337095
0.0301933
0.0265199
0.0227224
0.0188375
0.0149042
0.0109627
0.00705261
0.0032123
-0.000522782
-0.00412075
-0.00755426
-0.0108007
0.061343
0.0613806
0.0614311
0.0615196
0.0615883
0.0616359
0.0616973
0.0617606
0.0618039
0.0618034
0.0617539
0.061647
0.0614631
0.0611799
0.0607752
0.0602316
0.0595294
0.0586444
0.0575516
0.0562282
0.0546548
0.052815
0.0506948
0.0482838
0.0455765
0.0425742
0.0392854
0.035726
0.0319184
0.0278923
0.0236832
0.0193322
0.0148845
0.010388
0.00589184
0.00144425
-0.00290876
-0.00712485
-0.0111667
-0.0150029
0.0619468
0.0620083
0.0620919
0.0622226
0.06232
0.062421
0.0625535
0.0626975
0.0628326
0.0629321
0.0629974
0.0630152
0.0629655
0.0628265
0.0625743
0.0621908
0.061652
0.0609298
0.0599945
0.0588174
0.0573725
0.055636
0.0535864
0.051205
0.0484784
0.0454002
0.0419719
0.0382033
0.0341134
0.0297301
0.02509
0.0202375
0.0152238
0.0101052
0.00494119
-0.000207767
-0.00528268
-0.0102279
-0.014993
-0.0195346
0.0625151
0.0626104
0.0627288
0.0628952
0.0630146
0.0631753
0.0633771
0.063604
0.0638318
0.0640333
0.0642177
0.0643642
0.0644569
0.0644726
0.0643867
0.0641814
0.0638275
0.0632949
0.0625493
0.0615569
0.0602839
0.0586982
0.0567691
0.0544687
0.0517739
0.0486679
0.0451424
0.0411982
0.0368473
0.0321133
0.0270311
0.0216469
0.0160168
0.0102056
0.00428417
-0.00167284
-0.00759037
-0.0133957
-0.0190216
-0.0244082
0.0630467
0.0631881
0.0633393
0.0635333
0.0636707
0.0638983
0.0641639
0.0644781
0.0647957
0.0651012
0.065407
0.0656846
0.0659267
0.0661053
0.066198
0.0661867
0.0660374
0.0657207
0.0651958
0.0644266
0.0633707
0.0619879
0.0602362
0.0580772
0.0554757
0.0524029
0.0488371
0.0447665
0.040192
0.0351284
0.0296054
0.0236678
0.0173749
0.010799
0.00402278
-0.0028628
-0.00976321
-0.0165842
-0.0232362
-0.0296375
0.063543
0.0637426
0.0639189
0.0641337
0.0642883
0.0645897
0.0649112
0.0653187
0.0657178
0.0661321
0.066557
0.0669685
0.0673647
0.067712
0.0679936
0.0681896
0.0682623
0.0681857
0.0679106
0.0674031
0.0666088
0.0654842
0.0639721
0.0620239
0.0595886
0.0566235
0.0530903
0.0489606
0.0442192
0.0388666
0.0329215
0.0264226
0.0194287
0.0120171
0.00428207
-0.00366771
-0.0117144
-0.0197365
-0.0276152
-0.0352393
0.064008
0.0642724
0.0644616
0.0646952
0.0648685
0.0652488
0.0656171
0.0661243
0.0665918
0.0671236
0.067659
0.0682107
0.0687602
0.0692818
0.0697589
0.0701728
0.0704818
0.0706675
0.0706679
0.0704597
0.0699689
0.0691594
0.0679505
0.0662918
0.0641058
0.0613387
0.057928
0.0538273
0.0489985
0.0434214
0.0370965
0.0300487
0.0223297
0.0140177
0.00521589
-0.0039491
-0.0133327
-0.0227792
-0.0321313
-0.0412372
0.0644481
0.0647729
0.0649633
0.065218
0.0654139
0.0658743
0.0662811
0.0668922
0.0674139
0.0680741
0.0687047
0.0694077
0.0701011
0.0708057
0.071478
0.0721203
0.0726748
0.0731429
0.0734394
0.0735671
0.0734167
0.0729811
0.0721354
0.0708527
0.0690047
0.0665454
0.0633642
0.0594065
0.0545948
0.0488872
0.0422535
0.0346961
0.0262504
0.0169865
0.00701153
-0.00353289
-0.0144737
-0.0256141
-0.0367457
-0.047661
0.0648694
0.0652368
0.0654235
0.0657028
0.0659276
0.0664637
0.0669049
0.0676178
0.068184
0.0689798
0.0696895
0.070556
0.0713763
0.0722773
0.0731342
0.0740187
0.0748186
0.0755892
0.0761943
0.0766936
0.0769123
0.0769116
0.076481
0.0756681
0.0742425
0.0722243
0.0693909
0.0657282
0.061064
0.055362
0.0485237
0.040532
0.0313861
0.0211383
0.00989102
-0.0022069
-0.014956
-0.028113
-0.0414053
-0.054548
0.0652775
0.0656572
0.0658446
0.0661496
0.0664134
0.067013
0.0674917
0.0682947
0.0689061
0.0698338
0.0706143
0.0716485
0.0725809
0.0736882
0.0747143
0.0758553
0.0768912
0.0779851
0.0789003
0.0798063
0.0804112
0.0809074
0.0809315
0.0806906
0.079759
0.0783354
0.0759634
0.0728019
0.0684328
0.062946
0.0560428
0.0477565
0.0379697
0.0267338
0.0141222
0.000282641
-0.0145614
-0.0301235
-0.0460524
-0.061959
0.0656748
0.0660305
0.0662301
0.0665586
0.0668749
0.0675182
0.0680454
0.0689168
0.0695859
0.0706269
0.0714843
0.0726739
0.0737164
0.0750255
0.0762136
0.0776136
0.0788786
0.0803066
0.0815311
0.0828694
0.0838717
0.0849187
0.0854265
0.0858597
0.085477
0.0848185
0.0830022
0.0805994
0.076664
0.0717163
0.0649088
0.0566127
0.0462827
0.0341384
0.020071
0.00427614
-0.0130081
-0.0314623
-0.0506348
-0.0700113
0.0660613
0.0663573
0.0665836
0.0669303
0.0673135
0.0679775
0.0685688
0.0694807
0.0702285
0.0713516
0.0723052
0.0736202
0.0747877
0.0762726
0.0776337
0.0792711
0.080776
0.0825222
0.0840722
0.0858372
0.0872654
0.0888807
0.0899191
0.0910918
0.0913273
0.0915841
0.090415
0.0890439
0.0856575
0.0816815
0.0750929
0.0673228
0.0565496
0.0438742
0.0282552
0.0103432
-0.00983873
-0.0318404
-0.0550606
-0.0788921
0.0664346
0.0666412
0.0669078
0.0672673
0.0677292
0.068392
0.0690627
0.0699875
0.0708362
0.0720063
0.0730807
0.0744814
0.0757987
0.0774176
0.0789769
0.0808079
0.0825821
0.0845993
0.0865158
0.0886575
0.0905752
0.0927122
0.0943809
0.0962677
0.0972685
0.0984766
0.0981489
0.0979752
0.095343
0.0927185
0.0864941
0.07995
0.0687246
0.056468
0.0390718
0.0194697
-0.00432243
-0.0306726
-0.0590934
-0.0888497
0.0667901
0.0668885
0.0672049
0.0675731
0.0681194
0.0687658
0.0695248
0.0704425
0.0714071
0.0725956
0.0738093
0.0752604
0.0767485
0.0784606
0.0802408
0.0822181
0.0842904
0.0865216
0.0888491
0.0912955
0.0937794
0.0963465
0.0987806
0.10127
0.103265
0.105305
0.106179
0.10712
0.10576
0.104529
0.0992029
0.0942348
0.0827691
0.0719608
0.0523796
0.0328197
0.0040305
-0.026689
-0.0624544
-0.100263
0.0671222
0.0671064
0.0674775
0.0678516
0.068481
0.0691033
0.0699521
0.0708522
0.0719368
0.0731272
0.0744853
0.0759652
0.0776293
0.0794089
0.0814146
0.0835076
0.085884
0.088291
0.0910438
0.0937446
0.0968323
0.099759
0.10305
0.106042
0.109231
0.111955
0.114432
0.11626
0.116917
0.11678
0.113566
0.109764
0.0994045
0.0898642
0.0683388
0.0502137
0.0148763
-0.0171407
-0.0653954
-0.113269
0.0674268
0.0673018
0.0677282
0.0681058
0.0688119
0.0694092
0.0703421
0.0712235
0.0724211
0.0736089
0.0751026
0.0766043
0.078434
0.0802707
0.082489
0.0846839
0.0873479
0.0899141
0.0930734
0.0960075
0.0996871
0.102942
0.107109
0.110547
0.115038
0.118348
0.122729
0.125303
0.128617
0.129361
0.12956
0.126402
0.119787
0.109964
0.0894462
0.0705698
0.0288315
-0.00201368
-0.069275
-0.124933
0.0677024
0.06748
0.0679586
0.0683383
0.0691114
0.0696875
0.0706943
0.071562
0.0728576
0.0740471
0.0756574
0.0771851
0.0791559
0.0810543
0.0834526
0.0857559
0.0886626
0.0914009
0.0949019
0.0980974
0.102275
0.105915
0.110831
0.114818
0.120467
0.124519
0.130743
0.134218
0.14048
0.142047
0.146843
0.144067
0.143828
0.133102
0.11922
0.0942285
0.0523104
0.0146186
-0.0729658
-0.128622
0.0679498
0.0676447
0.0681699
0.0685509
0.0693804
0.0699413
0.0710099
0.0718709
0.0732473
0.0744451
0.0761509
0.0777112
0.0797964
0.081763
0.0843062
0.0867266
0.0898266
0.0927524
0.0965227
0.100011
0.104576
0.10867
0.114157
0.118843
0.12536
0.130474
0.13806
0.14307
0.151581
0.155133
0.163978
0.163049
0.170377
0.158718
0.158138
0.125572
0.0957775
0.0316027
-0.0645675
-0.131967
0.0681701
0.067798
0.0683626
0.0687453
0.0696202
0.0701728
0.0712902
0.0721524
0.0735916
0.0748053
0.0765854
0.0781841
0.0803589
0.0823974
0.0850545
0.087594
0.0908463
0.0939611
0.097944
0.101729
0.1066
0.111161
0.1171
0.122531
0.129725
0.136047
0.144653
0.151643
0.161702
0.168481
0.179765
0.183692
0.195482
0.189537
0.200072
0.166092
0.163674
0.0587608
-0.0275113
-0.216579
0.0683653
0.0679406
0.0685376
0.0689224
0.0698327
0.0703831
0.071537
0.0724075
0.0738929
0.0751287
0.0769637
0.0786052
0.0808471
0.0829587
0.085702
0.0883576
0.0917274
0.0950225
0.0991724
0.103236
0.108354
0.113351
0.119667
0.125792
0.133572
0.141023
0.150548
0.15944
0.170914
0.181038
0.194364
0.204522
0.218903
0.224766
0.238244
0.224097
0.23486
0.138344
0.101714
-0.397961
0.023506
0.0232093
0.0229211
0.0226419
0.0223716
0.0221105
0.0218588
0.0216166
0.021384
0.0211613
0.0233492
0.0230477
0.0227552
0.0224719
0.0221979
0.0219335
0.0216788
0.021434
0.0211992
0.0209747
0.0230464
0.0227358
0.0224346
0.0221433
0.0218621
0.0215911
0.0213305
0.0210807
0.0208416
0.0206135
0.0226031
0.0222786
0.0219645
0.0216613
0.0213692
0.0210883
0.0208191
0.0205616
0.0203161
0.0200828
0.0220208
0.0216776
0.0213461
0.0210267
0.0207198
0.0204257
0.0201446
0.0198769
0.0196227
0.0193823
0.0212978
0.0209305
0.0205765
0.0202363
0.0199105
0.0195992
0.019303
0.019022
0.0187566
0.0185072
0.0204298
0.0200323
0.0196501
0.0192839
0.0189342
0.0186014
0.0182861
0.0179886
0.0177093
0.0174485
0.0194101
0.0189754
0.0185584
0.01816
0.0177808
0.0174215
0.0170827
0.0167647
0.0164682
0.0161936
0.01823
0.0177498
0.0172902
0.0168525
0.0164373
0.0160455
0.0156778
0.0153349
0.0150174
0.0147258
0.0168789
0.0163435
0.0158323
0.0153466
0.0148876
0.0144562
0.0140534
0.0136801
0.013337
0.0130249
0.0153447
0.0147426
0.0141687
0.0136249
0.0131127
0.0126333
0.0121878
0.0117776
0.0114034
0.0110665
0.0136136
0.012931
0.0122814
0.0116673
0.0110905
0.0105528
0.0100556
0.0096005
0.00918877
0.0088217
0.0116704
0.0108907
0.0101497
0.00945055
0.00879566
0.00818726
0.0076273
0.00711782
0.00666045
0.00625691
0.00949857
0.00860191
0.00775059
0.00694863
0.00619917
0.00550512
0.00486901
0.00429351
0.00378077
0.00333301
0.00708014
0.00604272
0.0050583
0.00413208
0.00326814
0.00247026
0.00174177
0.00108611
0.000506118
4.69122e-06
0.00439601
0.00318921
0.00204423
0.000967806
-3.47365e-05
-0.000958486
-0.00179911
-0.0025521
-0.0032138
-0.0037804
0.00142583
1.52426e-05
-0.0013234
-0.00258137
-0.00375172
-0.00482808
-0.00580479
-0.00667602
-0.00743697
-0.00808276
-0.00185193
-0.00350766
-0.00507988
-0.00655727
-0.00793079
-0.00919215
-0.010334
-0.0113488
-0.0122303
-0.0129722
-0.0054601
-0.00741068
-0.0092646
-0.0110072
-0.0126266
-0.0141122
-0.0154543
-0.0166432
-0.0176709
-0.0185293
-0.00942284
-0.0117281
-0.0139218
-0.0159849
-0.0179019
-0.019659
-0.0212437
-0.0226437
-0.0238483
-0.0248476
-0.013766
-0.0164981
-0.0191017
-0.0215521
-0.0238291
-0.0259148
-0.027793
-0.0294482
-0.0308667
-0.0320361
-0.0185178
-0.0217638
-0.0248619
-0.0277802
-0.0304923
-0.0329751
-0.0352078
-0.0371706
-0.0388464
-0.0402199
-0.0237098
-0.027575
-0.0312702
-0.0347537
-0.0379912
-0.0409529
-0.0436121
-0.045944
-0.0479274
-0.0495442
-0.0293784
-0.0339911
-0.0384079
-0.0425743
-0.0464455
-0.0499831
-0.0531531
-0.0559251
-0.0582734
-0.0601764
-0.035567
-0.0410846
-0.0463753
-0.0513672
-0.0560017
-0.0602292
-0.064007
-0.0672984
-0.0700732
-0.0723085
-0.0423312
-0.0489474
-0.0552989
-0.0612898
-0.0668426
-0.0718931
-0.0763883
-0.080285
-0.0835495
-0.0861586
-0.0497449
-0.0577016
-0.065345
-0.0725459
-0.0792007
-0.0852269
-0.0905593
-0.0951488
-0.0989631
-0.101983
-0.0579081
-0.0675134
-0.0767389
-0.0854077
-0.0933812
-0.100552
-0.106843
-0.112204
-0.11661
-0.120058
-0.0669543
-0.0786086
-0.0897885
-0.100246
-0.109792
-0.118287
-0.125645
-0.131823
-0.136822
-0.140673
-0.0770734
-0.091303
-0.104921
-0.117569
-0.128981
-0.138977
-0.147468
-0.154445
-0.159964
-0.164121
-0.0885701
-0.106077
-0.122764
-0.138101
-0.151701
-0.163332
-0.172926
-0.180556
-0.1864
-0.19067
-0.101922
-0.123681
-0.1443
-0.162951
-0.179043
-0.192296
-0.20274
-0.210645
-0.216417
-0.220462
-0.117762
-0.145201
-0.171049
-0.193828
-0.212611
-0.227169
-0.237826
-0.245254
-0.250227
-0.253448
-0.136935
-0.172285
-0.205298
-0.233118
-0.254485
-0.269521
-0.279244
-0.285015
-0.288055
-0.28946
-0.161212
-0.20845
-0.250646
-0.283684
-0.306708
-0.320666
-0.327615
-0.329918
-0.329579
-0.328001
-0.197142
-0.263463
-0.314513
-0.350301
-0.372272
-0.382357
-0.383408
-0.379171
-0.372974
-0.36702
-0.26012
-0.352778
-0.411069
-0.444553
-0.459071
-0.458571
-0.448164
-0.432552
-0.415481
-0.40015
-0.350081
-0.469841
-0.544832
-0.573256
-0.567064
-0.546437
-0.519781
-0.489903
-0.458814
-0.430487
-0.464141
-0.553875
-0.694997
-0.727737
-0.672829
-0.60917
-0.553828
-0.506157
-0.464886
-0.428984
-1.03068
-0.656665
-0.74343
-0.745373
-0.709274
-0.644973
-0.578343
-0.519096
-0.471169
-0.434321
0.0209364
0.0207091
0.0204896
0.0202788
0.0200776
0.0198869
0.0197074
0.0195403
0.0193863
0.0192463
0.0191209
0.019011
0.018917
0.0188396
0.0187791
0.018736
0.0187101
0.0187016
0.0187101
0.0187354
0.0187766
0.0188331
0.0189034
0.0189867
0.0190808
0.0191844
0.0192945
0.0194096
0.0195262
0.0196425
0.0197543
0.0198593
0.0199527
0.0200318
0.0200915
0.0201279
0.0201361
0.020113
0.0200519
0.0199493
0.019798
0.0195942
0.0193301
0.0190014
0.0186002
0.018122
0.0175587
0.0169066
0.0161578
0.0153101
0.0143567
0.0132977
0.0121276
0.0108501
0.00946051
0.00796665
0.00636513
0.00466562
0.00286665
0.000975364
0.0207483
0.02052
0.0203
0.0200893
0.0198886
0.0196992
0.0195217
0.0193573
0.0192066
0.0190707
0.0189502
0.0188459
0.0187584
0.0186882
0.0186357
0.0186013
0.0185847
0.0185863
0.0186054
0.0186418
0.0186945
0.0187629
0.0188455
0.0189411
0.0190475
0.0191633
0.0192855
0.0194124
0.0195407
0.0196682
0.0197907
0.0199058
0.0200086
0.0200966
0.0201641
0.0202095
0.0202254
0.0202092
0.0201544
0.0200577
0.0199116
0.0197123
0.0194521
0.0191265
0.0187276
0.0182507
0.0176877
0.0170345
0.0162831
0.0154316
0.0144727
0.013407
0.0122286
0.0109419
0.00954149
0.00803601
0.00642112
0.00470737
0.00289254
0.000984337
0.0203843
0.0201539
0.0199329
0.0197222
0.0195229
0.0193359
0.0191623
0.019003
0.018859
0.0187312
0.0186203
0.0185272
0.0184523
0.0183964
0.0183595
0.0183421
0.018344
0.0183652
0.018405
0.0184631
0.0185384
0.01863
0.0187361
0.0188555
0.0189858
0.0191252
0.0192707
0.0194203
0.0195707
0.0197196
0.0198623
0.0199968
0.0201179
0.0202233
0.0203072
0.0203675
0.0203972
0.0203937
0.0203505
0.0202647
0.0201284
0.0199378
0.019685
0.0193655
0.0189711
0.0184967
0.0179341
0.0172788
0.0165227
0.0156637
0.0146944
0.0136158
0.0124218
0.0111171
0.00969634
0.00816868
0.00652858
0.00478777
0.00294277
0.00100167
0.0198493
0.0196159
0.0193934
0.0191829
0.0189855
0.0188024
0.0186346
0.0184833
0.0183494
0.0182339
0.0181375
0.0180613
0.0180055
0.0179709
0.0179575
0.0179657
0.0179951
0.0180456
0.0181163
0.0182067
0.0183153
0.0184412
0.0185821
0.0187366
0.0189017
0.0190754
0.0192543
0.0194371
0.0196193
0.0197986
0.0199703
0.0201323
0.0202791
0.0204087
0.0205152
0.0205964
0.0206457
0.0206602
0.0206334
0.0205628
0.0204403
0.020262
0.0200199
0.0197092
0.0193214
0.0188508
0.018289
0.0176307
0.0168677
0.0159981
0.0150135
0.0139163
0.0126999
0.0113694
0.00991953
0.00836009
0.00668396
0.00490439
0.00301575
0.00102689
0.019143
0.0189056
0.0186812
0.0184711
0.0182765
0.0180988
0.0179391
0.0177987
0.0176787
0.0175801
0.0175037
0.0174505
0.0174208
0.0174152
0.0174338
0.0174767
0.0175433
0.0176333
0.0177455
0.0178791
0.0180323
0.0182036
0.0183906
0.0185912
0.0188022
0.0190197
0.0192427
0.0194681
0.019691
0.019909
0.0201172
0.0203137
0.0204926
0.0206523
0.0207864
0.0208935
0.0209663
0.0210033
0.0209969
0.0209451
0.02084
0.0206774
0.0204491
0.0201498
0.0197709
0.0193053
0.0187452
0.0180832
0.0173115
0.016428
0.0154233
0.0143021
0.0130567
0.0116934
0.0102067
0.00860682
0.00688484
0.00505545
0.00311041
0.00105981
0.0182606
0.0180181
0.0177914
0.017582
0.0173912
0.0172207
0.0170717
0.0169457
0.0168439
0.0167674
0.0167171
0.0166939
0.0166981
0.0167303
0.0167902
0.0168778
0.0169923
0.0171329
0.0172982
0.0174868
0.0176964
0.0179248
0.018169
0.0184257
0.0186915
0.018966
0.0192433
0.0195201
0.0197917
0.0200558
0.0203071
0.0205439
0.0207599
0.0209543
0.02112
0.0212565
0.0213565
0.0214189
0.0214362
0.021406
0.0213212
0.0211773
0.0209659
0.0206807
0.0203133
0.0198543
0.0192968
0.0186306
0.0178485
0.016948
0.0159182
0.0147682
0.0134873
0.0120845
0.0105541
0.00890628
0.00712981
0.00524011
0.00322656
0.0011006
0.0171929
0.0169442
0.0167147
0.0165063
0.0163207
0.0161595
0.0160243
0.0159169
0.0158384
0.0157901
0.015773
0.0157879
0.0158351
0.015915
0.016027
0.0161708
0.0163453
0.016549
0.0167802
0.0170367
0.0173156
0.017614
0.0179276
0.0182532
0.0185867
0.0189263
0.0192658
0.0196018
0.0199292
0.0202456
0.0205451
0.0208266
0.0210833
0.0213155
0.0215153
0.0216836
0.0218126
0.021903
0.0219459
0.0219396
0.0218777
0.0217551
0.0215638
0.0212957
0.0209428
0.0204927
0.0199395
0.0192682
0.0184745
0.0175536
0.0164934
0.0153098
0.0139868
0.0125391
0.0109588
0.00925671
0.00741803
0.00545835
0.00336529
0.00114993
0.0159268
0.0156706
0.015438
0.0152313
0.0150522
0.014903
0.0147855
0.0147015
0.0146524
0.0146397
0.0146642
0.0147268
0.0148277
0.0149668
0.0151434
0.0153567
0.0156049
0.015886
0.0161976
0.0165363
0.0168987
0.0172805
0.017677
0.0180822
0.0184949
0.0189098
0.0193202
0.0197228
0.0201121
0.0204856
0.0208372
0.0211661
0.0214656
0.0217369
0.0219717
0.0221729
0.0223315
0.0224507
0.0225197
0.0225397
0.0225031
0.0224043
0.0222365
0.0219888
0.0216541
0.0212159
0.0206696
0.0199929
0.0191866
0.0182408
0.0171442
0.0159224
0.0145507
0.0130539
0.0114185
0.00965756
0.00774901
0.00571091
0.00352912
0.00120892
0.0144456
0.0141804
0.0139443
0.0137398
0.0135694
0.0134354
0.01334
0.0132854
0.0132731
0.0133047
0.013381
0.0135027
0.0136699
0.013882
0.0141381
0.0144362
0.0147742
0.0151492
0.0155575
0.0159945
0.0164555
0.016934
0.0174248
0.017926
0.0184296
0.0189294
0.0194187
0.0198945
0.0203503
0.0207843
0.0211897
0.021567
0.0219093
0.0222194
0.0224883
0.022722
0.0229094
0.0230573
0.0231531
0.0232003
0.0231904
0.0231175
0.0229771
0.0227534
0.0224418
0.0220196
0.0214837
0.0208021
0.0199831
0.0190066
0.0178668
0.0166012
0.015174
0.0136253
0.0119313
0.0101095
0.0081228
0.0060001
0.00372175
0.00127878
0.0127284
0.0124525
0.0122124
0.0120112
0.0118517
0.0117369
0.0116693
0.0116513
0.0116846
0.0117711
0.0119113
0.012106
0.0123546
0.0126562
0.0130091
0.0134104
0.0138573
0.014345
0.0148688
0.0154226
0.016
0.0165936
0.0171956
0.0178036
0.0184078
0.0190008
0.0195759
0.0201299
0.0206552
0.0211507
0.0216097
0.0220339
0.022417
0.022763
0.0230635
0.0233273
0.0235412
0.0237168
0.0238376
0.0239129
0.0239307
0.0238865
0.0237777
0.0235825
0.0233005
0.0229001
0.0223791
0.0216937
0.0208619
0.019847
0.0186567
0.0173407
0.0158517
0.0142494
0.0124959
0.0106131
0.00854005
0.00633158
0.00394789
0.00136025
0.0107504
0.0104617
0.010217
0.0100202
0.00987461
0.00978385
0.00975074
0.00977816
0.00986806
0.0100221
0.0102412
0.0105253
0.0108736
0.0112844
0.0117549
0.0122812
0.0128591
0.0134815
0.0141426
0.0148332
0.0155446
0.0162688
0.0170016
0.0177312
0.018447
0.0191418
0.0198086
0.0204438
0.0210389
0.0215945
0.0221038
0.0225711
0.02299
0.023367
0.0236948
0.0239842
0.0242208
0.0244218
0.0245651
0.0246698
0.0247144
0.0247017
0.0246292
0.0244675
0.0242243
0.0238535
0.023354
0.0226678
0.0218219
0.0207572
0.0195064
0.0181326
0.0165772
0.0149225
0.0131122
0.0111688
0.00900214
0.00671506
0.00421288
0.00145389
0.00848195
0.008178
0.00792818
0.0077372
0.00760911
0.00754827
0.00755794
0.00764152
0.00780105
0.00803836
0.00835401
0.00874756
0.00921762
0.00976118
0.0103743
0.0110513
0.0117863
0.0125693
0.0133931
0.0142446
0.0151137
0.0159913
0.016869
0.0177323
0.0185696
0.0193735
0.0201355
0.0208521
0.0215143
0.0221255
0.0226785
0.0231815
0.0236285
0.024029
0.0243775
0.0246862
0.0249412
0.0251637
0.0253258
0.0254594
0.0255284
0.0255518
0.0255196
0.0253978
0.0252062
0.024875
0.0244068
0.0237261
0.0228641
0.0217323
0.0204058
0.0189638
0.0173403
0.0156394
0.0137805
0.0117768
0.00951397
0.00716403
0.00452134
0.00156103
0.00588859
0.00556636
0.00531068
0.00512729
0.00502114
0.00499742
0.00505997
0.00521273
0.00545784
0.00579723
0.00623104
0.00675821
0.00737657
0.00808121
0.00886681
0.00972513
0.0106476
0.0116215
0.0126368
0.0136762
0.0147298
0.0157815
0.0168221
0.0178323
0.0188013
0.0197195
0.0205777
0.0213726
0.0220953
0.0227533
0.023339
0.0238668
0.0243304
0.0247445
0.0251054
0.0254253
0.0256936
0.0259319
0.0261088
0.0262693
0.0263581
0.0264222
0.0264328
0.0263599
0.0262369
0.025958
0.0255357
0.0248721
0.0239902
0.0227671
0.0213413
0.0198162
0.0181267
0.0163918
0.014498
0.0124361
0.0100863
0.00769585
0.00487713
0.00168549
0.00293012
0.00258595
0.00232353
0.00214993
0.00207111
0.00209331
0.00222106
0.00245883
0.00280885
0.003273
0.00385083
0.0045407
0.00533945
0.00623941
0.00723303
0.00830839
0.00945417
0.0106539
0.0118952
0.0131539
0.0144179
0.0156684
0.01689
0.0180619
0.0191717
0.0202072
0.0211587
0.0220239
0.0227956
0.0234863
0.0240887
0.0246261
0.0250908
0.0255067
0.025869
0.0261913
0.0264676
0.0267139
0.0269022
0.0270838
0.027186
0.0272955
0.0273482
0.0273362
0.0273029
0.0270915
0.0267379
0.0261118
0.0252026
0.0238528
0.0222919
0.0206654
0.0189195
0.0171681
0.0152557
0.0131454
0.010736
0.00833085
0.00528711
0.00183748
-0.000440068
-0.000810635
-0.00108086
-0.00124198
-0.00128687
-0.00120792
-0.000999871
-0.000657679
-0.000179186
0.000436847
0.00118894
0.00207519
0.0030945
0.00423159
0.00547536
0.00680945
0.00821944
0.0096851
0.0111895
0.01271
0.0142176
0.0156915
0.0171136
0.01846
0.0197153
0.0208674
0.0219046
0.0228261
0.0236286
0.0243309
0.0249279
0.0254548
0.0259015
0.0263049
0.0266554
0.026972
0.0272501
0.0274962
0.0276933
0.0278859
0.0279935
0.0281507
0.0282401
0.0283036
0.0283847
0.0282572
0.0280076
0.0274545
0.0265038
0.024975
0.023223
0.0214782
0.0196996
0.0179506
0.016037
0.0139017
0.0114822
0.00909027
0.00576778
0.00203929
-0.00427593
-0.00467836
-0.00495768
-0.00510307
-0.00510595