/*--------------------------------*- C++ -*----------------------------------*\
| =========                 |                                                 |
| \\      /  F ield         | OpenFOAM: The Open Source CFD Toolbox           |
|  \\    /   O peration     | Version:  2512                                  |
|   \\  /    A nd           | Website:  www.openfoam.com                      |
|    \\/     M anipulation  |                                                 |
\*---------------------------------------------------------------------------*/
FoamFile
{
    version     2.0;
    format      ascii;
    arch        "LSB;label=32;scalar=64";
    class       surfaceScalarField;
    location    "31.5";
    object      phi;
}
// * * * * * * * * * * * * * * * * * * * * * * * * * * * * * * * * * * * * * //

dimensions      [0 3 -1 0 0 0 0];

oriented        oriented;

internalField   nonuniform List<scalar> 
19380
(
0.874558
-5.53527e-05
0.874719
-0.000161338
0.874975
-0.000255722
0.875312
-0.000337182
0.875718
-0.000405592
0.87618
-0.000461965
0.876688
-0.000508279
0.877234
-0.000546152
0.877811
-0.000577066
0.878413
-0.000602204
0.879036
-0.000622536
0.879675
-0.000638859
0.880327
-0.000651765
0.880988
-0.000661668
0.881657
-0.000668858
0.882331
-0.000673507
0.883006
-0.000675665
0.883682
-0.000675315
0.884354
-0.000672436
0.885021
-0.000667047
0.88568
-0.000659195
0.886329
-0.000648969
0.886966
-0.000636509
0.887588
-0.000622016
0.888194
-0.000605729
0.888781
-0.000587908
0.88935
-0.000568821
0.889899
-0.000548739
0.890427
-0.00052793
0.890934
-0.000506648
0.891419
-0.000485101
0.891882
-0.000463447
0.892324
-0.000441867
0.892745
-0.000420528
0.893144
-0.000399573
0.893523
-0.000379112
0.893882
-0.000359237
0.894222
-0.000340014
0.894544
-0.0003215
-0.000303774
0.894848
0.844017
-0.000108647
0.844172
-0.000316788
0.844419
-0.000502181
0.844744
-0.000662225
0.845135
-0.000796707
0.845581
-0.000907622
0.846071
-0.000998908
0.846599
-0.00107365
0.847156
-0.00113474
0.847739
-0.00118455
0.848341
-0.001225
0.84896
-0.00125764
0.849592
-0.00128366
0.850234
-0.00130388
0.850884
-0.0013188
0.851539
-0.00132868
0.852197
-0.00133357
0.852855
-0.00133345
0.853511
-0.00132828
0.854162
-0.0013181
0.854806
-0.00130301
0.85544
-0.00128321
0.856063
-0.00125896
0.856671
-0.00123067
0.857264
-0.00119877
0.85784
-0.00116378
0.858398
-0.0011262
0.858935
-0.00108659
0.859453
-0.00104548
0.85995
-0.00100337
0.860425
-0.00096069
0.86088
-0.000917767
0.861313
-0.000874966
0.861725
-0.000832628
0.862116
-0.00079104
0.862488
-0.000750425
0.862839
-0.000710971
0.863172
-0.00067281
0.863487
-0.000636057
-0.000600869
0.863784
0.814542
-0.000159776
0.814691
-0.000466077
0.814928
-0.000739089
0.815241
-0.000974974
0.815618
-0.00117348
0.816047
-0.00133735
0.816521
-0.00147245
0.817031
-0.00158332
0.81757
-0.00167422
0.818134
-0.00174867
0.818719
-0.00180951
0.81932
-0.00185901
0.819935
-0.0018989
0.820562
-0.00193034
0.821197
-0.001954
0.821839
-0.00197018
0.822484
-0.00197892
0.823131
-0.00198016
0.823776
-0.00197383
0.824418
-0.00195994
0.825054
-0.00193864
0.825681
-0.00191018
0.826297
-0.001875
0.8269
-0.00183365
0.827488
-0.0017868
0.828059
-0.0017352
0.828612
-0.00167963
0.829147
-0.00162089
0.829661
-0.00155979
0.830155
-0.00149708
0.830628
-0.00143344
0.831079
-0.00136938
0.83151
-0.00130544
0.831919
-0.00124212
0.832308
-0.00117989
0.832677
-0.00111907
0.833026
-0.00105997
0.833356
-0.0010028
0.833667
-0.000947724
-0.00089499
0.833961
0.786096
-0.000208653
0.786239
-0.000609003
0.786466
-0.000966194
0.786767
-0.00127518
0.787129
-0.0015357
0.787543
-0.0017512
0.787999
-0.001929
0.788491
-0.00207544
0.789013
-0.00219603
0.78956
-0.00229542
0.790128
-0.00237735
0.790713
-0.00244473
0.791314
-0.0024997
0.791928
-0.00254372
0.792551
-0.00257758
0.793183
-0.00260162
0.79382
-0.00261583
0.79446
-0.00262009
0.7951
-0.00261423
0.795738
-0.00259819
0.796372
-0.00257207
0.796998
-0.0025362
0.797614
-0.00249113
0.798218
-0.0024376
0.798807
-0.00237649
0.799381
-0.00230882
0.799937
-0.00223563
0.800474
-0.00215803
0.800991
-0.00207708
0.801488
-0.00199381
0.801964
-0.00190917
0.802418
-0.00182387
0.802852
-0.00173862
0.803264
-0.0016541
0.803655
-0.00157092
0.804025
-0.00148958
0.804376
-0.00141049
0.804707
-0.00133393
0.805019
-0.00126016
-0.0011895
0.805314
0.758644
-0.000255165
0.75878
-0.000745294
0.758997
-0.00118312
0.759284
-0.00156238
0.759631
-0.00188284
0.760029
-0.00214882
0.760468
-0.00236824
0.760943
-0.00254983
0.761447
-0.00270019
0.761977
-0.00282508
0.762528
-0.00292906
0.763099
-0.00301562
0.763687
-0.0030873
0.764289
-0.00314574
0.764903
-0.00319181
0.765527
-0.0032258
0.766159
-0.00324762
0.766796
-0.003257
0.767435
-0.00325363
0.768074
-0.00323734
0.76871
-0.00320814
0.769341
-0.00316641
0.769962
-0.00311277
0.770573
-0.00304816
0.77117
-0.00297367
0.771752
-0.00289057
0.772316
-0.0028002
0.772862
-0.00270395
0.773388
-0.0026032
0.773894
-0.00249926
0.774378
-0.00239335
0.774841
-0.00228646
0.775282
-0.00217947
0.775701
-0.00207322
0.776098
-0.00196854
0.776475
-0.00186605
0.776831
-0.0017663
0.777166
-0.0016697
0.777483
-0.00157657
-0.00148734
0.777781
0.73215
-0.000299181
0.732279
-0.0008746
0.732485
-0.00138934
0.732759
-0.00183598
0.73309
-0.00221418
0.733471
-0.00252927
0.733892
-0.00278949
0.734348
-0.0030058
0.734834
-0.00318617
0.735346
-0.00333727
0.735882
-0.00346446
0.736438
-0.00357177
0.737013
-0.00366211
0.737604
-0.00373723
0.73821
-0.00379797
0.738829
-0.00384451
0.739458
-0.00387657
0.740095
-0.00389369
0.740736
-0.00389531
0.74138
-0.00388107
0.742023
-0.00385091
0.742662
-0.0038052
0.743293
-0.00374464
0.743916
-0.00367031
0.744525
-0.00358352
0.745121
-0.00348579
0.745699
-0.00337876
0.746259
-0.00326413
0.7468
-0.0031436
0.747319
-0.00301878
0.747817
-0.00289119
0.748293
-0.00276217
0.748746
-0.00263279
0.749177
-0.00250406
0.749585
-0.00237701
0.749972
-0.00225246
0.750337
-0.00213113
0.750681
-0.00201351
0.751004
-0.00190006
-0.00179131
0.751308
0.706581
-0.000340559
0.706703
-0.000996524
0.706898
-0.00158423
0.707157
-0.00209516
0.707472
-0.00252878
0.707834
-0.00289124
0.708236
-0.00319176
0.708672
-0.00344222
0.709139
-0.00365284
0.709633
-0.00383099
0.710151
-0.00398272
0.710692
-0.00411261
0.711253
-0.00422383
0.711834
-0.0043182
0.712433
-0.00439645
0.713047
-0.00445858
0.713674
-0.00450404
0.714313
-0.00453203
0.714959
-0.00454164
0.71561
-0.00453229
0.716263
-0.00450376
0.716914
-0.00445638
0.717561
-0.00439092
0.718199
-0.00430855
0.718826
-0.00421079
0.71944
-0.00409941
0.720037
-0.00397637
0.720617
-0.0038437
0.721177
-0.00370343
0.721715
-0.00355749
0.722232
-0.00340775
0.722726
-0.00325588
0.723196
-0.00310328
0.723643
-0.00295111
0.724067
-0.00280063
0.724467
-0.00265285
0.724845
-0.00250869
0.7252
-0.00236879
0.725534
-0.00223376
-0.00210423
0.725847
0.681905
-0.00037915
0.682019
-0.00111063
0.682202
-0.00176711
0.682445
-0.00233899
0.682742
-0.00282549
0.683084
-0.0032334
0.683466
-0.00357351
0.683882
-0.00385772
0.684327
-0.00409867
0.684801
-0.00430464
0.685301
-0.00448233
0.685825
-0.00463682
0.686372
-0.00477143
0.686942
-0.00488793
0.687533
-0.00498688
0.688142
-0.00506807
0.688769
-0.00513053
0.68941
-0.005173
0.690062
-0.00519411
0.690723
-0.00519299
0.691388
-0.00516922
0.692055
-0.00512305
0.692719
-0.00505519
0.693377
-0.0049669
0.694027
-0.00485988
0.694663
-0.00473616
0.695285
-0.00459801
0.695889
-0.00444778
0.696473
-0.00428788
0.697037
-0.00412058
0.697577
-0.00394814
0.698094
-0.00377258
0.698586
-0.00359574
0.699054
-0.00341895
0.699497
-0.00324372
0.699915
-0.00307127
0.70031
-0.00290278
0.70068
-0.00273905
0.701027
-0.00258086
-0.00242899
0.701352
0.65809
-0.000414801
0.658196
-0.00121647
0.658366
-0.00193726
0.658593
-0.00256647
0.658871
-0.00310307
0.659192
-0.00355433
0.659551
-0.00393263
0.659944
-0.00425078
0.660367
-0.00452181
0.660819
-0.00475619
0.661298
-0.00496124
0.661803
-0.00514245
0.662335
-0.00530314
0.662892
-0.00544491
0.663473
-0.00556812
0.664077
-0.00567223
0.664702
-0.00575573
0.665346
-0.00581674
0.666005
-0.00585337
0.666677
-0.0058644
0.667357
-0.00584912
0.668041
-0.00580761
0.668727
-0.00574044
0.669409
-0.00564891
0.670084
-0.00553483
0.670748
-0.00540048
0.671398
-0.00524845
0.672032
-0.00508142
0.672646
-0.00490216
0.673239
-0.00471336
0.673809
-0.00451769
0.674353
-0.00431754
0.674873
-0.00411527
0.675367
-0.00391251
0.675834
-0.00371099
0.676275
-0.00351217
0.67669
-0.00331754
0.677079
-0.00312808
0.677443
-0.00294483
-0.00276871
0.677782
0.635106
-0.000447368
0.635204
-0.00131363
0.63536
-0.00209396
0.63557
-0.00277666
0.635828
-0.00336022
0.636126
-0.00385247
0.63646
-0.00426733
0.636829
-0.00461908
0.637227
-0.00492023
0.637654
-0.00518334
0.63811
-0.00541708
0.638595
-0.00562709
0.639108
-0.00581654
0.63965
-0.00598684
0.64022
-0.00613814
0.640817
-0.00626942
0.64144
-0.00637841
0.642086
-0.00646253
0.642752
-0.00651927
0.643434
-0.006547
0.64413
-0.00654462
0.644834
-0.00651187
0.645543
-0.00644911
0.646251
-0.0063576
0.646956
-0.00623924
0.647652
-0.00609653
0.648336
-0.00593231
0.649004
-0.00574959
0.649653
-0.00555156
0.650281
-0.00534132
0.650885
-0.005122
0.651464
-0.00489645
0.652017
-0.00466746
0.652541
-0.00443722
0.653038
-0.00420767
0.653506
-0.00398052
0.653946
-0.00375762
0.654359
-0.00354021
0.654743
-0.0033296
-0.00312692
0.655102
0.612925
-0.000476727
0.613013
-0.00140168
0.613156
-0.00223655
0.613348
-0.00296863
0.613583
-0.00359565
0.613857
-0.00412634
0.614166
-0.00457604
0.614507
-0.00495994
0.614878
-0.00529153
0.615278
-0.0055836
0.615708
-0.00584719
0.616169
-0.00608791
0.616661
-0.00630869
0.617185
-0.00651083
0.617742
-0.00669421
0.618329
-0.00685716
0.618947
-0.00699642
0.619593
-0.00710868
0.620265
-0.00719073
0.620958
-0.00724042
0.62167
-0.00725603
0.622395
-0.00723687
0.623129
-0.00718298
0.623866
-0.00709549
0.624604
-0.00697636
0.625335
-0.00682819
0.626057
-0.00665408
0.626765
-0.00645733
0.627455
-0.00624155
0.628124
-0.00601025
0.628769
-0.00576711
0.629388
-0.00551542
0.629979
-0.0052585
0.630541
-0.0049991
0.631073
-0.00473961
0.631574
-0.00448192
0.632045
-0.00422832
0.632485
-0.00398033
0.632895
-0.00373966
-0.00350765
0.633276
0.591519
-0.000502781
0.591597
-0.00148024
0.591725
-0.00236455
0.591898
-0.0031415
0.592111
-0.00380817
0.592359
-0.00437459
0.59264
-0.00485715
0.592951
-0.00527133
0.593292
-0.00563255
0.593663
-0.00595455
0.594065
-0.00624874
0.594499
-0.00652168
0.594966
-0.00677612
0.595469
-0.00701341
0.596007
-0.00723298
0.596582
-0.00743224
0.597193
-0.00760681
0.597837
-0.00775264
0.598512
-0.00786573
0.599215
-0.00794329
0.599941
-0.00798273
0.600687
-0.00798279
0.601447
-0.00794306
0.602216
-0.00786449
0.602989
-0.00774894
0.60376
-0.00759906
0.604524
-0.00741812
0.605276
-0.00720967
0.606012
-0.00697773
0.606728
-0.00672625
0.607421
-0.00645946
0.608086
-0.00618112
0.608723
-0.00589519
0.609329
-0.00560489
0.609903
-0.0053134
0.610444
-0.00502276
0.610951
-0.00473572
0.611425
-0.00445417
0.611865
-0.0041803
-0.00391572
0.612274
0.570859
-0.000525425
0.570928
-0.00154905
0.571041
-0.00247757
0.571194
-0.00329449
0.571383
-0.00399673
0.571604
-0.00459615
0.571856
-0.00510909
0.572136
-0.00555126
0.572444
-0.00594065
0.572783
-0.00629313
0.573153
-0.00661889
0.573556
-0.00692495
0.573995
-0.00721508
0.574472
-0.00749068
0.57499
-0.00775045
0.575548
-0.00799064
0.576147
-0.00820572
0.576786
-0.00839092
0.577461
-0.00854132
0.578171
-0.00865326
0.578911
-0.00872308
0.579677
-0.00874884
0.580464
-0.00872951
0.581265
-0.00866574
0.582075
-0.00855916
0.582889
-0.00841231
0.583699
-0.00822854
0.584501
-0.00801157
0.585289
-0.00776586
0.586059
-0.00749571
0.586805
-0.00720596
0.587525
-0.00690087
0.588215
-0.00658504
0.588872
-0.00626225
0.589495
-0.00593655
0.590083
-0.00561039
0.590634
-0.00528692
0.591148
-0.00496845
0.591626
-0.00465776
-0.00435684
0.592067
0.550921
-0.000544541
0.55098
-0.00160801
0.551078
-0.00257539
0.55121
-0.0034268
0.551374
-0.00416068
0.551568
-0.00479027
0.55179
-0.00533039
0.552036
-0.00579782
0.55231
-0.00621399
0.552613
-0.00659614
0.552948
-0.00695429
0.553317
-0.00729424
0.553724
-0.00762175
0.554172
-0.00793848
0.554663
-0.00824212
0.5552
-0.00852767
0.555783
-0.00878846
0.556411
-0.00901911
0.557084
-0.00921348
0.557797
-0.00936687
0.558548
-0.00947432
0.559333
-0.00953311
0.560145
-0.00954146
0.560978
-0.00949948
0.561828
-0.00940842
0.562686
-0.00927048
0.563546
-0.00908906
0.564403
-0.00886786
0.565248
-0.00861175
0.566078
-0.00832533
0.566886
-0.00801405
0.567668
-0.00768262
0.568419
-0.00733642
0.569137
-0.00697979
0.569818
-0.00661766
0.570461
-0.00625329
0.571064
-0.00589018
0.571627
-0.00553107
0.572148
-0.00517949
-0.0048379
0.57263
0.531679
-0.00055999
0.531728
-0.00165724
0.531811
-0.00265776
0.531922
-0.00353781
0.532061
-0.00429985
0.532227
-0.00495644
0.532416
-0.0055197
0.532628
-0.00600947
0.532865
-0.0064509
0.53313
-0.00686139
0.533427
-0.00725091
0.533759
-0.00762591
0.534129
-0.00799234
0.534543
-0.00835251
0.535004
-0.00870311
0.535514
-0.00903805
0.536076
-0.00934967
0.536689
-0.00963192
0.537352
-0.00987713
0.538065
-0.0100794
0.538823
-0.0102324
0.539622
-0.0103325
0.540458
-0.0103768
0.541323
-0.0103648
0.542212
-0.0102971
0.543117
-0.0101754
0.54403
-0.0100028
0.544945
-0.00978301
0.545855
-0.00952114
0.546752
-0.00922197
0.547629
-0.00889154
0.548481
-0.00853502
0.549304
-0.00815857
0.550091
-0.00776718
0.55084
-0.00736666
0.551548
-0.00696128
0.552213
-0.00655516
0.552833
-0.00615141
0.553408
-0.00575441
-0.00536722
0.553937
0.513109
-0.000571636
0.513149
-0.00169712
0.513215
-0.00272426
0.513305
-0.0036272
0.513419
-0.0044147
0.513557
-0.00509417
0.513713
-0.00567584
0.513889
-0.0061852
0.514088
-0.00665002
0.514313
-0.00708674
0.514568
-0.00750589
0.514858
-0.00791583
0.515189
-0.00832306
0.515565
-0.00872838
0.51599
-0.00912829
0.516468
-0.0095161
0.517002
-0.00988336
0.517593
-0.0102232
0.518242
-0.0105262
0.518948
-0.0107852
0.519708
-0.0109921
0.520518
-0.0111425
0.521373
-0.0112322
0.522268
-0.0112596
0.523195
-0.0112245
0.524147
-0.0111277
0.525117
-0.0109721
0.526095
-0.0107609
0.527073
-0.0104995
0.528043
-0.0101925
0.528999
-0.00984662
0.529931
-0.00946735
0.530834
-0.00906166
0.531702
-0.00863523
0.53253
-0.00819485
0.533315
-0.00774569
0.534053
-0.00729319
0.534742
-0.00684054
0.53538
-0.00639314
-0.00595483
0.535968
0.495187
-0.000579417
0.495218
-0.00172811
0.495268
-0.0027742
0.495336
-0.00369543
0.495427
-0.00450611
0.495536
-0.00520282
0.495658
-0.00579814
0.495798
-0.00632457
0.495958
-0.00681015
0.496141
-0.00727024
0.496352
-0.00771705
0.496598
-0.00816103
0.496884
-0.00860943
0.497217
-0.00906156
0.497601
-0.00951245
0.498041
-0.00995596
0.498541
-0.0103831
0.499104
-0.0107861
0.499731
-0.0111535
0.500423
-0.011477
0.501178
-0.0117467
0.501992
-0.0119571
0.502863
-0.0121025
0.503783
-0.0121801
0.504747
-0.0121882
0.505746
-0.0121267
0.506772
-0.011998
0.507815
-0.0118046
0.508867
-0.0115516
0.509919
-0.0112436
0.51096
-0.0108876
0.511982
-0.0104894
0.512977
-0.0100568
0.513937
-0.00959598
0.514858
-0.00911494
0.515732
-0.00861968
0.516556
-0.00811736
0.517327
-0.00761146
0.518042
-0.00710834
-0.00661276
0.5187
0.47789
-0.000583414
0.477913
-0.00175044
0.477945
-0.00280677
0.477994
-0.00374398
0.478063
-0.00457491
0.478142
-0.00528168
0.47823
-0.00588674
0.478333
-0.0064275
0.478453
-0.00693027
0.478593
-0.00741046
0.478759
-0.00788271
0.478957
-0.00835942
0.479196
-0.00884792
0.479481
-0.00934677
0.479819
-0.00985037
0.480215
-0.0103517
0.480674
-0.0108422
0.481201
-0.0113132
0.481799
-0.0117511
0.482468
-0.0121468
0.48321
-0.0124883
0.484022
-0.0127689
0.4849
-0.0129811
0.485841
-0.0131205
0.486837
-0.0131841
0.48788
-0.0131702
0.488962
-0.0130803
0.490074
-0.0129158
0.491204
-0.0126815
0.492341
-0.0123815
0.493477
-0.0120228
0.494599
-0.0116114
0.495698
-0.0111557
0.496764
-0.0106626
0.49779
-0.0101412
0.498769
-0.00959826
0.499694
-0.00904278
0.500562
-0.00847937
0.501369
-0.00791493
-0.0073554
0.502112
0.461198
-0.000583849
0.461212
-0.00176379
0.461226
-0.0028215
0.461258
-0.00377549
0.461304
-0.00462125
0.461353
-0.0053303
0.461409
-0.00594258
0.461475
-0.00649394
0.461555
-0.00700986
0.461651
-0.0075067
0.46177
-0.00800183
0.46192
-0.00850927
0.462108
-0.00903578
0.462341
-0.00957972
0.462627
-0.0101362
0.462972
-0.0106975
0.463384
-0.0112539
0.463867
-0.0117966
0.464427
-0.0123104
0.465065
-0.0127854
0.465784
-0.0132074
0.466584
-0.0135687
0.467462
-0.0138593
0.468415
-0.0140734
0.469437
-0.014206
0.470521
-0.0142537
0.471657
-0.0142166
0.472836
-0.0140947
0.474046
-0.013892
0.475276
-0.0136114
0.476514
-0.0132601
0.477746
-0.0128435
0.478961
-0.0123709
0.480148
-0.0118494
0.481296
-0.0112893
0.482396
-0.0106983
0.48344
-0.010087
0.484423
-0.00946189
0.485338
-0.00883047
-0.00819984
0.486183
0.445089
-0.0005809
0.445092
-0.00176708
0.44509
-0.00281902
0.445108
-0.00379331
0.445131
-0.00464404
0.44515
-0.00534931
0.445174
-0.00596702
0.445204
-0.00652377
0.445243
-0.00704927
0.445295
-0.00755898
0.445368
-0.00807405
0.445468
-0.00860928
0.445603
-0.0091706
0.44578
-0.00975729
0.446009
-0.0103651
0.446298
-0.0109866
0.446656
-0.0116113
0.447087
-0.0122284
0.447599
-0.0128223
0.448197
-0.0133827
0.448883
-0.0138934
0.449659
-0.0143456
0.450527
-0.0147265
0.451482
-0.015029
0.452522
-0.0152453
0.453638
-0.0153705
0.454824
-0.0154026
0.456069
-0.0153395
0.457361
-0.0151839
0.458687
-0.0149374
0.460033
-0.0146064
0.461386
-0.0141959
0.46273
-0.0137151
0.464052
-0.0131716
0.465339
-0.0125765
0.46658
-0.0119386
0.467763
-0.01127
0.46888
-0.0105793
0.469925
-0.00987549
-0.00916626
0.470892
0.429542
-0.000574203
0.429534
-0.00175905
0.429516
-0.00280148
0.429524
-0.00380052
0.429521
-0.00464094
0.429512
-0.00534104
0.429506
-0.00596089
0.4295
-0.00651736
0.4295
-0.00704995
0.429509
-0.00756778
0.429535
-0.00809976
0.429584
-0.00865863
0.429664
-0.00925062
0.429784
-0.009877
0.429952
-0.0105335
0.430179
-0.0112135
0.430475
-0.0119066
0.430847
-0.0126003
0.431302
-0.0132775
0.431847
-0.0139282
0.432489
-0.0145347
0.43323
-0.0150872
0.434074
-0.0155703
0.43502
-0.0159751
0.436066
-0.0162911
0.437207
-0.0165112
0.438435
-0.0166307
0.439741
-0.0166455
0.441113
-0.0165559
0.442537
-0.0163616
0.443998
-0.0160676
0.44548
-0.0156779
0.446966
-0.0152013
0.44844
-0.0146453
0.449885
-0.0140217
0.451287
-0.0133402
0.452631
-0.0126146
0.453907
-0.0118551
0.455105
-0.0110738
-0.0102783
0.456217
0.414536
-0.000561998
0.414517
-0.00174001
0.414487
-0.00277193
0.414486
-0.00379898
0.414454
-0.00460889
0.414423
-0.00530989
0.414385
-0.00592355
0.414345
-0.0064768
0.414309
-0.00701384
0.414275
-0.00753391
0.414255
-0.00808013
0.414253
-0.00865682
0.414278
-0.00927504
0.414338
-0.00993711
0.414443
-0.0106384
0.414603
-0.0113743
0.41483
-0.0121333
0.415133
-0.0129033
0.415522
-0.0136664
0.416005
-0.014411
0.416589
-0.0151189
0.417282
-0.0157801
0.418088
-0.0163763
0.41901
-0.0168973
0.420048
-0.0173294
0.4212
-0.0176632
0.42246
-0.0178907
0.42382
-0.0180051
0.425268
-0.0180036
0.426789
-0.0178835
0.428369
-0.0176474
0.429989
-0.0172976
0.431629
-0.0168418
0.433271
-0.0162869
0.434894
-0.0156449
0.43648
-0.0149262
0.438012
-0.0141459
0.439473
-0.0133162
0.440852
-0.0124529
-0.0115637
0.442137
0.40005
-0.000540229
0.400024
-0.00171435
0.399984
-0.00273215
0.399975
-0.00378951
0.39991
-0.00454456
0.399863
-0.00526227
0.399791
-0.00585219
0.399722
-0.00640749
0.39965
-0.00694159
0.399575
-0.00745936
0.399512
-0.00801675
0.399459
-0.0086038
0.399428
-0.00924426
0.399428
-0.00993654
0.399467
-0.0106775
0.399558
-0.0114654
0.399711
-0.0122862
0.399937
-0.0131301
0.400249
-0.0139784
0.400658
-0.0148197
0.401173
-0.0156334
0.401802
-0.0164096
0.402555
-0.0171287
0.403436
-0.017779
0.40445
-0.0183435
0.405598
-0.0188107
0.406876
-0.0191683
0.408277
-0.0194067
0.409793
-0.0195189
0.411408
-0.0194993
0.413108
-0.0193468
0.414871
-0.0190613
0.416678
-0.0186482
0.418504
-0.018113
0.420326
-0.0174673
0.422122
-0.0167216
0.423868
-0.0158924
0.425545
-0.0149935
0.427137
-0.0140444
-0.0130545
0.428628
0.386062
-0.000502448
0.386041
-0.00169243
0.385988
-0.00267951
0.385972
-0.00377363
0.385871
-0.00444394
0.385816
-0.00520707
0.385705
-0.00574123
0.385617
-0.00631951
0.385506
-0.00682997
0.385396
-0.00734954
0.385289
-0.00790977
0.385186
-0.00850114
0.385101
-0.0091594
0.38504
-0.00987494
0.385012
-0.0106497
0.385031
-0.0114845
0.385105
-0.0123606
0.385251
-0.0132752
0.385477
-0.0142048
0.3858
-0.0151426
0.386231
-0.0160648
0.386783
-0.0169611
0.387465
-0.0178107
0.388287
-0.0186017
0.389258
-0.0193141
0.390381
-0.0199341
0.391658
-0.0204453
0.393086
-0.0208344
0.394656
-0.0210895
0.396358
-0.0212011
0.398175
-0.0211632
0.400086
-0.0209723
0.402067
-0.0206299
0.404094
-0.0201396
0.406137
-0.0195107
0.408169
-0.0187538
0.410163
-0.0178855
0.412091
-0.0169217
0.413931
-0.015885
-0.0147884
0.415665
0.372556
-0.000441125
0.372553
-0.00169002
0.372478
-0.00260437
0.372461
-0.00375671
0.372318
-0.00430072
0.372268
-0.00515699
0.372108
-0.00558134
0.372017
-0.00622878
0.371856
-0.00666897
0.371724
-0.00721699
0.371568
-0.00775402
0.371422
-0.00835535
0.371283
-0.00901973
0.371162
-0.0097543
0.371067
-0.0105544
0.371013
-0.0114308
0.371005
-0.0123528
0.371065
-0.0133348
0.371198
-0.0143375
0.371426
-0.0153707
0.371759
-0.0163982
0.372217
-0.0174194
0.372811
-0.0184044
0.373555
-0.0193455
0.37446
-0.0202192
0.375537
-0.0210107
0.37679
-0.0216989
0.378223
-0.0222669
0.37983
-0.0226971
0.381605
-0.0229752
0.38353
-0.0230888
0.385588
-0.0230298
0.387752
-0.0227939
0.389993
-0.0223812
0.39228
-0.0217973
0.394578
-0.0210518
0.396853
-0.0201602
0.399071
-0.0191404
0.401203
-0.0180169
-0.0168089
0.403224
0.359514
-0.000350102
0.359547
-0.00172387
0.359434
-0.00249122
0.359428
-0.00375024
0.359233
-0.00410566
0.359204
-0.00512876
0.358982
-0.00535902
0.35891
-0.00615671
0.358682
-0.00644067
0.358549
-0.00708449
0.35833
-0.00753431
0.358158
-0.00818365
0.357955
-0.00881687
0.357784
-0.00958365
0.357618
-0.0103876
0.357494
-0.0113078
0.3574
-0.0122585
0.357374
-0.0133085
0.357405
-0.0143683
0.357533
-0.0154987
0.357754
-0.0166192
0.358104
-0.0177702
0.358589
-0.0188893
0.359235
-0.0199909
0.36005
-0.0210345
0.361054
-0.022015
0.362257
-0.0229019
0.363668
-0.0236776
0.365288
-0.0243175
0.367115
-0.0248013
0.369135
-0.0251096
0.371333
-0.0252274
0.373682
-0.0251425
0.37615
-0.0248499
0.378702
-0.0243489
0.381296
-0.0236463
0.383891
-0.0227552
0.386445
-0.0216942
0.388918
-0.0204895
-0.0191673
0.391276
0.346924
-0.000227817
0.347005
-0.00180457
0.346839
-0.00232491
0.346857
-0.00376877
0.346602
-0.00385038
0.346612
-0.00513862
0.346312
-0.00505971
0.346282
-0.00612661
0.345964
-0.0061221
0.345863
-0.00698325
0.345553
-0.00722449
0.345387
-0.00801763
0.345098
-0.00852857
0.344902
-0.00938711
0.344648
-0.010134
0.34447
-0.0111298
0.344278
-0.0120667
0.344174
-0.0132036
0.34409
-0.014285
0.34412
-0.0155282
0.344211
-0.0167106
0.344448
-0.0180074
0.344797
-0.0192385
0.345328
-0.0205211
0.346023
-0.0217302
0.34693
-0.0229215
0.348049
-0.0240211
0.349407
-0.0250354
0.351008
-0.0259184
0.352857
-0.0266509
0.354951
-0.0272029
0.357273
-0.0275503
0.359803
-0.0276719
0.362506
-0.0275533
0.365343
-0.0271854
0.368266
-0.0265695
0.371224
-0.0257131
0.374165
-0.0246346
0.377035
-0.0233604
-0.0219242
0.379792
0.334779
-8.00037e-05
0.334905
-0.0019299
0.334681
-0.00210118
0.334732
-0.00382026
0.334416
-0.00353401
0.334472
-0.00519476
0.334088
-0.00467568
0.334116
-0.00615478
0.333689
-0.00569523
0.333649
-0.00694285
0.33322
-0.00679555
0.333099
-0.00789656
0.332691
-0.00812075
0.33251
-0.00920542
0.332138
-0.00976201
0.33194
-0.0109318
0.331623
-0.0117505
0.331465
-0.013045
0.331243
-0.0140628
0.331189
-0.015475
0.331124
-0.0166448
0.331255
-0.0181389
0.331433
-0.0194161
0.331843
-0.0209308
0.332373
-0.0222605
0.333165
-0.0237131
0.334154
-0.0250104
0.335429
-0.0263103
0.336966
-0.0274558
0.338805
-0.0284895
0.340937
-0.029335
0.34336
-0.0299734
0.346057
-0.0303686
0.348995
-0.0304915
0.352133
-0.0303233
0.355417
-0.0298538
0.358785
-0.0290813
0.362172
-0.0280217
0.36551
-0.0266985
-0.0251533
0.368739
0.32307
8.07406e-05
0.323224
-0.00208409
0.322956
-0.0018326
0.323034
-0.00389849
0.322668
-0.00316774
0.322763
-0.00529047
0.322303
-0.00421531
0.322387
-0.00623891
0.321853
-0.00516101
0.321884
-0.0069741
0.321323
-0.0062342
0.321274
-0.00784797
0.320719
-0.00756524
0.320593
-0.00907964
0.320065
-0.00923446
0.319895
-0.0107612
0.319414
-0.0112694
0.319249
-0.0128803
0.318845
-0.0136583
0.318751
-0.0153817
0.318479
-0.0163724
0.318539
-0.018199
0.318487
-0.0193643
0.318801
-0.0212444
0.319091
-0.0225503
0.319776
-0.0243988
0.320555
-0.0257888
0.321737
-0.0274922
0.323136
-0.0288555
0.324936
-0.0302894
0.327051
-0.0314503
0.329543
-0.0324651
0.33238
-0.0332056
0.335541
-0.0336526
0.33899
-0.0337722
0.342665
-0.0335284
0.346494
-0.0329107
0.350397
-0.0319248
0.354285
-0.0305866
-0.0289465
0.358079
0.311785
0.000238536
0.311945
-0.00224405
0.311655
-0.00154203
0.311742
-0.00398577
0.311349
-0.00277503
0.311462
-0.0054028
0.310952
-0.00370591
0.311067
-0.00635345
0.310452
-0.00454669
0.310536
-0.00705728
0.30986
-0.00555899
0.309879
-0.00786631
0.309179
-0.00686532
0.309122
-0.00902289
0.308425
-0.00853742
0.308312
-0.0106486
0.307637
-0.0105941
0.30751
-0.0127532
0.30688
-0.0130283
0.306802
-0.0153032
0.306262
-0.0158333
0.306316
-0.0182526
0.305948
-0.0189966
0.306234
-0.0215306
0.306167
-0.0224832
0.306809
-0.0250409
0.307226
-0.0262053
0.308364
-0.02863
0.309472
-0.0299638
0.311252
-0.0320698
0.313229
-0.0334267
0.315781
-0.0350174
0.318696
-0.0361208
0.322065
-0.037021
0.325825
-0.0375322
0.32991
-0.0376137
0.334257
-0.0372576
0.338756
-0.0364238
0.343294
-0.0351247
-0.0334212
0.347769
0.300908
0.000380496
0.301052
-0.00238856
0.300763
-0.00125329
0.300839
-0.00406143
0.300449
-0.0023846
0.300546
-0.00549989
0.300027
-0.00318692
0.300129
-0.00645598
0.299483
-0.00390075
0.299572
-0.00714567
0.298833
-0.00482011
0.298875
-0.00790891
0.298076
-0.00606563
0.298057
-0.00900391
0.297223
-0.0077036
0.297153
-0.0105783
0.2963
-0.00974117
0.296211
-0.0126647
0.295353
-0.0121705
0.295308
-0.0152581
0.294475
-0.0150002
0.294562
-0.0183397
0.293815
-0.018249
0.294146
-0.021862
0.293601
-0.0219378
0.294312
-0.0257519
0.29416
-0.0260536
0.295402
-0.0298715
0.295924
-0.030486
0.297832
-0.0339783
0.299364
-0.0349586
0.302079
-0.0377319
0.304871
-0.0389133
0.308495
-0.0406444
0.31252
-0.0415577
0.317035
-0.042128
0.321966
-0.0421889
0.327143
-0.0416013
0.332463
-0.0404439
-0.0387325
0.337774
0.290416
0.000501181
0.290533
-0.00250566
0.290262
-0.000982583
0.290313
-0.00411197
0.289948
-0.0020199
0.290001
-0.00555291
0.289512
-0.00269771
0.289557
-0.00650088
0.288936
-0.00327964
0.28897
-0.00718007
0.288236
-0.00408573
0.288237
-0.00791019
0.287411
-0.00524006
0.287364
-0.00895678
0.286468
-0.00680731
0.286377
-0.0104873
0.285418
-0.00878208
0.28531
-0.0125568
0.28429
-0.0111502
0.284225
-0.0151936
0.283152
-0.0139269
0.283228
-0.0184158
0.282129
-0.0171497
0.28248
-0.0222138
0.281432
-0.0208889
0.282231
-0.0265514
0.281395
-0.0252175
0.282842
-0.0313183
0.282498
-0.0301424
0.284781
-0.0362607
0.28537
-0.0355479
0.288586
-0.0409482
0.290671
-0.0409984
0.294854
-0.0448274
0.29883
-0.045534
0.30393
-0.0472275
0.309482
-0.0477407
0.315408
-0.0475277
0.321719
-0.0467545
-0.0450694
0.328056
0.28029
0.000601905
0.280376
-0.00259246
0.280131
-0.000737219
0.280154
-0.00413455
0.279828
-0.00169386
0.27982
-0.00554477
0.279389
-0.0022671
0.279342
-0.00645375
0.278795
-0.00273278
0.278722
-0.00710737
0.27806
-0.00342368
0.277953
-0.00780279
0.277183
-0.0044706
0.277031
-0.00880457
0.276165
-0.00594094
0.275968
-0.0102908
0.275006
-0.00781938
0.274783
-0.0123344
0.273716
-0.0100834
0.273521
-0.014998
0.27234
-0.0127464
0.272268
-0.0183434
0.270967
-0.0158485
0.271172
-0.0224195
0.269771
-0.0194874
0.270476
-0.0272565
0.269063
-0.0238042
0.27056
-0.0328157
0.26934
-0.0289225
0.27196
-0.0388799
0.271326
-0.0349145
0.275316
-0.0449379
0.27595
-0.0416327
0.28131
-0.0501868
0.284227
-0.0484511
0.290661
-0.0536615
0.296454
-0.0535342
0.303374
-0.0544471
0.310993
-0.0543741
-0.0525584
0.318482
0.270515
0.000685343
0.270571
-0.00264819
0.270356
-0.000521808
0.270352
-0.00413145
0.27007
-0.0014117
0.269996
-0.00547029
0.26964
-0.00191076
0.269484
-0.00629857
0.269045
-0.00229331
0.268831
-0.00689379
0.268295
-0.00288719
0.268027
-0.00753505
0.267386
-0.00382914
0.267062
-0.00848095
0.266313
-0.00519183
0.265932
-0.00990984
0.265068
-0.006956
0.264637
-0.0119034
0.263649
-0.00909544
0.263201
-0.0145494
0.262075
-0.0116204
0.261681
-0.01795
0.260396
-0.0145635
0.260203
-0.0222258
0.25874
-0.0180247
0.258993
-0.0275095
0.25736
-0.0221718
0.258431
-0.0338858
0.25672
-0.0272116
0.259146
-0.0413065
0.257572
-0.0333399
0.261956
-0.0493223
0.261023
-0.0406995
0.267705
-0.0568692
0.268534
-0.0492802
0.277325
-0.0624526
0.281783
-0.0579923
0.291274
-0.0639379
0.300032
-0.0631318
-0.0612898
0.308763
0.261084
0.000750044
0.261107
-0.00267105
0.260927
-0.000341444
0.260899
-0.00410357
0.260658
-0.00117064
0.260527
-0.00533904
0.260238
-0.00162201
0.259991
-0.00605206
0.259654
-0.00195567
0.259311
-0.00655089
0.258905
-0.00248128
0.258476
-0.00710637
0.257985
-0.00333769
0.257474
-0.00797018
0.256882
-0.00460037
0.256286
-0.00931377
0.255583
-0.00625263
0.254896
-0.0112165
0.254075
-0.0082738
0.253298
-0.0137728
0.252359
-0.0106811
0.251511
-0.0171028
0.250458
-0.0135098
0.249609
-0.0213767
0.248436
-0.0168522
0.247771
-0.0268444
0.246462
-0.0208627
0.246401
-0.0338252
0.244915
-0.0257255
0.246195
-0.0425858
0.244541
-0.0316859
0.248148
-0.0529293
0.246478
-0.0390301
0.253539
-0.0639303
0.252517
-0.0482577
0.263528
-0.0734642
0.265203
-0.0596669
0.279329
-0.0780643
0.287172
-0.0709746
-0.0733926
0.299275
0.251992
0.000787239
0.251977
-0.00265574
0.25184
-0.000204282
0.251775
-0.00403937
0.251582
-0.000977769
0.251397
-0.00515387
0.251172
-0.00139719
0.250855
-0.00573508
0.250599
-0.00169907
0.250165
-0.00611727
0.249853
-0.00216931
0.249317
-0.00657033
0.248927
-0.00294704
0.248295
-0.00733852
0.247802
-0.00410698
0.247071