/*--------------------------------*- C++ -*----------------------------------*\
| =========                 |                                                 |
| \\      /  F ield         | OpenFOAM: The Open Source CFD Toolbox           |
|  \\    /   O peration     | Version:  2512                                  |
|   \\  /    A nd           | Website:  www.openfoam.com                      |
|    \\/     M anipulation  |                                                 |
\*---------------------------------------------------------------------------*/
FoamFile
{
    version     2.0;
    format      ascii;
    arch        "LSB;label=32;scalar=64";
    class       surfaceScalarField;
    location    "95.45";
    object      phi;
}
// * * * * * * * * * * * * * * * * * * * * * * * * * * * * * * * * * * * * * //

dimensions      [0 3 -1 0 0 0 0];

oriented        oriented;

internalField   nonuniform List<scalar> 
26232
(
-0.000423807
0.00211795
-0.00169414
-0.000888157
0.00430802
-0.00384367
-0.000785255
0.00490868
-0.00501158
0.000436773
0.00395015
-0.00517218
0.00333328
0.0012581
-0.00415461
0.00844556
-0.00342191
-0.00169037
0.0162302
-0.010276
0.0024914
0.0268912
-0.0192433
0.00858232
0.0402306
-0.0299277
0.0165883
0.0555966
-0.041638
0.0262719
0.0719701
-0.0535378
0.0371644
0.0881521
-0.0648212
0.0486392
0.102996
-0.0748574
0.0600131
0.115632
-0.0832845
0.0706491
0.125626
-0.0900417
0.0800477
0.133046
-0.0953418
0.0879215
0.138386
-0.0995787
0.0942391
0.142328
-0.103185
0.0992424
0.145541
-0.106491
0.103278
0.14832
-0.109704
0.106925
0.150909
-0.112705
0.110115
0.15299
-0.115892
0.113811
0.15421
-0.117903
0.116684
-0.121231
0.121112
0.154328
-0.000227632
0.00234558
-0.000219498
0.00429989
0.000656449
0.00403274
0.00304147
0.00156514
0.00757139
-0.00327182
0.0147835
-0.010634
0.024915
-0.0204075
0.037707
-0.0320353
0.0523581
-0.0445788
0.0676856
-0.0569655
0.0824108
-0.0682631
0.0954563
-0.0778667
0.106168
-0.0855687
0.114407
-0.0915236
0.120495
-0.0961303
0.125025
-0.0998715
0.128605
-0.103159
0.131674
-0.106254
0.134445
-0.109262
0.13695
-0.11221
0.13932
-0.115075
0.141365
-0.117936
0.143943
-0.120482
-0.123917
0.146629
-1.94273e-05
0.002365
0.000551409
0.00372905
0.00238349
0.00220065
0.00617839
-0.00222976
0.0125733
-0.00966679
0.0219025
-0.0199631
0.0339167
-0.0324218
0.0477123
-0.0458308
0.0619665
-0.058833
0.0753382
-0.0703373
0.08683
-0.0797548
0.0959881
-0.0870248
0.102906
-0.0924863
0.108054
-0.0966721
0.112031
-0.100107
0.115335
-0.103176
0.118271
-0.106095
0.120979
-0.108961
0.123514
-0.111798
0.125948
-0.114643
0.1283
-0.117427
0.13066
-0.120296
0.133038
-0.12286
-0.125873
0.134994
0.000170248
0.00219476
0.00133849
0.00256081
0.00423624
-0.000697097
0.00958952
-0.00758303
0.0178756
-0.0179529
0.0289461
-0.0310336
0.0418592
-0.0453349
0.0551704
-0.0591421
0.0674663
-0.0711289
0.0778001
-0.0806711
0.085862
-0.0878166
0.0918869
-0.0930497
0.0964026
-0.0970019
0.0999605
-0.10023
0.102968
-0.103115
0.10566
-0.105867
0.108155
-0.10859
0.110514
-0.111321
0.112797
-0.114081
0.115007
-0.116854
0.117218
-0.119637
0.119384
-0.122462
0.121666
-0.125143
-0.128353
0.124147
0.000356145
0.00183861
0.0021699
0.00074705
0.00623526
-0.00476246
0.0131935
-0.0145413
0.0230998
-0.0278591
0.0350771
-0.0430109
0.0475822
-0.05784
0.0590878
-0.0706477
0.0686263
-0.0806674
0.0759463
-0.087991
0.0813442
-0.0932145
0.0853587
-0.0970641
0.0885076
-0.100151
0.0911613
-0.102884
0.0935406
-0.105494
0.0957674
-0.108094
0.0979059
-0.110728
0.0999937
-0.113408
0.102039
-0.116126
0.104066
-0.118881
0.106094
-0.121665
0.108119
-0.124487
0.110258
-0.127282
-0.130323
0.112228
0.000572035
0.00126658
0.00310868
-0.0017896
0.00840673
-0.0100605
0.0168156
-0.0229502
0.0276864
-0.0387299
0.0394449
-0.0547694
0.0503979
-0.0687931
0.0594563
-0.0797061
0.0663308
-0.0875419
0.071318
-0.0929782
0.0749549
-0.0968515
0.0777531
-0.0998623
0.0800819
-0.10248
0.0821653
-0.104967
0.0841216
-0.10745
0.0860042
-0.109977
0.0878342
-0.112558
0.0896184
-0.115192
0.0913719
-0.11788
0.0931082
-0.120617
0.0948463
-0.123403
0.096604
-0.126245
0.0984246
-0.129103
-0.13217
0.100272
0.00083614
0.000430437
0.00416717
-0.00512063
0.0106529
-0.0165463
0.0200738
-0.032371
0.0309951
-0.0496512
0.0415362
-0.0653105
0.0503668
-0.0776237
0.0570467
-0.0863861
0.0618104
-0.0923056
0.0651836
-0.0963513
0.0676893
-0.0993572
0.0697142
-0.101887
0.0714924
-0.104258
0.0731435
-0.106618
0.0747191
-0.109026
0.0762407
-0.111498
0.077721
-0.114038
0.0791745
-0.116646
0.0806131
-0.119318
0.0820496
-0.122053
0.0834996
-0.124853
0.0849632
-0.127709
0.0864796
-0.130619
-0.133647
0.0879567
0.00114443
-0.000713998
0.00528918
-0.00926537
0.0127416
-0.0239987
0.02251
-0.0421394
0.0326208
-0.059762
0.0413903
-0.07408
0.0480885
-0.0843219
0.0528056
-0.0911031
0.0560325
-0.0955326
0.0583124
-0.0986312
0.0600637
-0.101109
0.0615441
-0.103368
0.0628858
-0.1056
0.0641477
-0.10788
0.0653557
-0.110234
0.0665229
-0.112666
0.0676589
-0.115174
0.0687708
-0.117758
0.0698668
-0.120414
0.070958
-0.123145
0.0720526
-0.125947
0.0731665
-0.128823
0.0743176
-0.13177
-0.134804
0.0754741
0.00147786
-0.00219186
0.00636802
-0.0141555
0.0143907
-0.0320214
0.0238057
-0.0515545
0.0325474
-0.0685037
0.0394314
-0.080964
0.0442783
-0.0891688
0.0474905
-0.0943153
0.0496242
-0.0976663
0.0511426
-0.10015
0.0523419
-0.102308
0.0533787
-0.104404
0.054324
-0.106545
0.055208
-0.108764
0.0560442
-0.11107
0.0568408
-0.113462
0.057605
-0.115939
0.058346
-0.118499
0.0590741
-0.121142
0.0597988
-0.123869
0.0605305
-0.126679
0.0612759
-0.129568
0.0620402
-0.132534
-0.135565
0.0628012
0.00180814
-0.004
0.00727487
-0.0196223
0.0153768
-0.0401233
0.023892
-0.0600697
0.03104
-0.0756517
0.0361851
-0.0861091
0.0395336
-0.0925173
0.0416208
-0.0964025
0.0429602
-0.0990057
0.043904
-0.101093
0.0446463
-0.10305
0.0452777
-0.105036
0.045836
-0.107103
0.0463371
-0.109265
0.0467904
-0.111523
0.0472035
-0.113875
0.0475844
-0.11632
0.0479412
-0.118855
0.0482815
-0.121483
0.048614
-0.124202
0.048946
-0.127011
0.0492865
-0.129909
0.0496411
-0.132889
-0.135933
0.0500095
0.00210229
-0.0061023
0.00789331
-0.0254133
0.0156048
-0.0478347
0.0229032
-0.0673681
0.0284684
-0.0812169
0.0321219
-0.0897627
0.0342926
-0.094688
0.0355296
-0.0976395
0.0362564
-0.0997324
0.0367224
-0.101559
0.0370483
-0.103376
0.0372851
-0.105272
0.0374536
-0.107272
0.0375644
-0.109376
0.0376252
-0.111584
0.0376428
-0.113893
0.0376241
-0.116301
0.0375768
-0.118808
0.037509
-0.121415
0.0374295
-0.124122
0.0373466
-0.126928
0.0372649
-0.129827
0.0371827
-0.132807
-0.135853
0.0371023
0.00233419
-0.00843649
0.00815759
-0.0312367
0.0151207
-0.0547978
0.0210819
-0.0733293
0.0251978
-0.0853328
0.0276154
-0.0921802
0.0288587
-0.0959313
0.0294246
-0.0982054
0.0296392
-0.099947
0.0296707
-0.101591
0.0295917
-0.103297
0.0294314
-0.105112
0.0292026
-0.107043
0.0289129
-0.109087
0.0285689
-0.11124
0.0281768
-0.113501
0.0277435
-0.115868
0.0272755
-0.11834
0.0267799
-0.120919
0.026264
-0.123607
0.025736
-0.1264
0.0252037
-0.129295
0.024672
-0.132275
0.0241552
-0.135336
5.38273e-05
0.00428849
-0.00434232
-0.000156941
0.0120484
-0.0118376
-0.000912034
0.0183756
-0.0176205
-0.00222934
0.0230145
-0.0216972
-0.0039548
0.026404
-0.0246785
-0.00587793
0.0292048
-0.0272817
-0.00780943
0.0319025
-0.029971
-0.00960394
0.0346907
-0.0328962
-0.0111346
0.0375262
-0.0359956
-0.0122699
0.0402438
-0.0391085
-0.0128618
0.042625
-0.042033
-0.0127494
0.0444332
-0.0445457
-0.0117702
0.0454329
-0.046412
-0.00977641
0.0454048
-0.0473987
-0.00664735
0.0441629
-0.0472919
-0.00229764
0.041568
-0.0459177
0.00332246
0.0375378
-0.0431579
0.0101604
0.0320866
-0.0389245
0.0181357
0.0252466
-0.0332219
0.0270822
0.0171309
-0.0260774
0.0367855
0.00787951
-0.0175828
0.0470405
-0.00253018
-0.00772481
0.0576699
-0.014034
0.00340457
-0.0270466
0.0686693
0.0160472
0.000381055
0.00390743
0.000920033
0.0115094
0.00116986
0.0181258
0.000952777
0.0232315
0.000361036
0.0269957
-0.000373435
0.0299393
-0.00101002
0.0325391
-0.00134753
0.0350282
-0.0012308
0.0374095
-0.000523851
0.0395369
0.000902584
0.0411985
0.00317163
0.0421642
0.00639304
0.0422115
0.0106525
0.0411453
0.0160009
0.0388145
0.0224455
0.0351234
0.0299447
0.0300386
0.0384212
0.0236101
0.0477609
0.015907
0.0577211
0.00717061
0.0682729
-0.00267223
0.0791392
-0.0133966
0.0900097
-0.0249045
-0.0381928
0.101156
0.000625694
0.00328174
0.00182701
0.0103081
0.00304966
0.0169032
0.00398169
0.0222995
0.00460886
0.0263685
0.00512699
0.0294211
0.00580716
0.0318589
0.00689417
0.0339412
0.00857685
0.0357268
0.0109939
0.0371199
0.0142508
0.0379416
0.018428
0.0379869
0.0235794
0.0370601
0.0297264
0.0349983
0.0368548
0.0316861
0.0449058
0.0270724
0.0537959
0.0211485
0.0633554
0.0140506
0.0734574
0.00580493
0.083941
-0.003313
0.0946698
-0.013401
0.105486
-0.0242125
0.116445
-0.0358632
-0.0499237
0.128176
0.000752558
0.00252918
0.00241181
0.00864885
0.00443827
0.0148767
0.00643223
0.0203055
0.00825566
0.0245451
0.0100157
0.0276611
0.0119536
0.029921
0.01433
0.0315648
0.0173596
0.0326972
0.0211935
0.033286
0.0259253
0.0332098
0.0316018
0.0323104
0.0382292
0.0304328
0.0457729
0.0274546
0.0541627
0.0232963
0.063272
0.0179631
0.0729748
0.0114457
0.0829963
0.00402923
0.0934408
-0.0046396
0.103895
-0.0137673
0.114609
-0.0241145
0.125637
-0.0352413
0.137562
-0.0477882
-0.0632129
0.150852
0.000756048
0.00177314
0.00260377
0.00680112
0.00512426
0.0123562
0.00791966
0.0175101
0.0107594
0.0217053
0.0136345
0.024786
0.0167016
0.0268539
0.0201856
0.0280808
0.024299
0.0285838
0.0291993
0.0283858
0.0349775
0.0274316
0.0416621
0.0256258
0.0492261
0.0228688
0.0575897
0.0190909
0.0666394
0.0142467
0.0761965
0.00840596
0.086071
0.00157116
0.0962802
-0.00618001
0.106719
-0.015078
0.117372
-0.0244208
0.129021
-0.0357631
0.141647
-0.0478675
0.156157
-0.0622979
-0.0786566
0.1716
0.000654754
0.00111838
0.00241218
0.0050437
0.005034
0.00973438
0.00821416
0.01433
0.0117025
0.018217
0.0153977
0.0210908
0.0193499
0.0229017
0.0237027
0.023728
0.0286222
0.0236642
0.0342452
0.0227628
0.040651
0.0210258
0.047853
0.0184237
0.0558028
0.014919
0.0643983
0.0104954
0.0735056
0.00513942
0.0830426
-0.00113105
0.0930899
-0.00847616
0.103563
-0.0166529
0.114911
-0.0264265
0.12746
-0.0369699
0.14192
-0.0502231
0.157652
-0.0635994
0.174946
-0.0795917
-0.0945653
0.190855
0.000476385
0.000641997
0.00190632
0.00361377
0.00424135
0.00739936
0.00731942
0.0112519
0.0109449
0.0145916
0.014983
0.0170527
0.0194003
0.0184843
0.0242478
0.0188806
0.0296158
0.0182961
0.0355896
0.016789
0.042219
0.0143964
0.0495096
0.011133
0.0574349
0.0069938
0.0659564
0.00197392
0.0751979
-0.00410208
0.0852711
-0.0112043
0.0964222
-0.0196272
0.109094
-0.029325
0.123554
-0.0408863
0.139908
-0.0533241
0.157631
-0.0679453
0.1754
-0.0813692
0.192264
-0.096455
-0.107131
0.204829
0.000244674
0.000397323
0.00117838
0.00268006
0.00292246
0.00565527
0.00546404
0.00871034
0.0087029
0.0113527
0.0125276
0.0132279
0.016869
0.014143
0.0217133
0.0140363
0.0270884
0.012921
0.0330444
0.010833
0.0396483
0.00779255
0.0469906
0.00379077
0.0552394
-0.00125505
0.0646628
-0.00744945
0.075515
-0.0149543
0.0881902
-0.0238795
0.102864
-0.0343013
0.119593
-0.0460539
0.137742
-0.0590354
0.156604
-0.0721859
0.174409
-0.0857503
0.189909
-0.0968692
0.201522
-0.108069
-0.113432
0.207823
-2.08979e-05
0.000418221
0.000329841
0.00232932
0.00131426
0.00467086
0.00304572
0.00697887
0.00552663
0.0088718
0.00870856
0.010046
0.012548
0.0103036
0.0170451
0.00953922
0.022265
0.00770107
0.0283473
0.00475069
0.0355443
0.000595612
0.0441473
-0.00481222
0.0545195
-0.0116273
0.0669772
-0.0199072
0.081651
-0.029628
0.0984347
-0.0406632
0.116789
-0.0526557
0.135896
-0.0651606
0.154349
-0.0774888
0.171008
-0.0888449
0.184124
-0.0988663
0.193391
-0.106136
0.198084
-0.112762
-0.114917
0.199569
-0.000281413
0.000699633
-0.000494134
0.00254204
-0.000256142
0.00443286
0.000648436
0.0060743
0.00232802
0.00719222
0.00485022
0.00752381
0.00829162
0.00686217
0.0128015
0.00502937
0.0186313
0.00187121
0.0261065
-0.00272453
0.0355684
-0.00886629
0.0473358
-0.0165795
0.0614941
-0.0257856
0.0778572
-0.0362703
0.0958905
-0.0476613
0.114719
-0.0594922
0.133188
-0.0711241
0.150055
-0.0820274
0.164068
-0.0915017
0.174601
-0.0993783
0.181136
-0.105401
0.184805
-0.109805
0.185961
-0.113918
-0.115675
0.186719
-0.000472799
0.00117243
-0.00108023
0.00314947
-0.00134388
0.00469651
-0.000941679
0.0056721
0.000374381
0.00587616
0.00283786
0.00506033
0.00673781
0.00296222
0.0124313
-0.000664129
0.020262
-0.00595953
0.0305511
-0.0130136
0.0434069
-0.0217221
0.0586455
-0.0318182
0.0757349
-0.042875
0.093817
-0.0543524
0.111805
-0.0656492
0.128504
-0.0761908
0.142843
-0.0854639
0.154044
-0.0932282
0.161863
-0.0993204
0.166737
-0.104252
0.16939
-0.108054
0.171428
-0.111843
0.172801
-0.115291
-0.117701
0.174828
-0.000521706
-0.0012159
-0.00153098
-0.00103106
0.000690483
0.00406045
0.00951407
0.0174323
0.028061
0.0413194
0.0567617
0.0735827
0.0907208
0.107018
0.121416
0.133147
0.141922
0.147936
0.151894
0.154567
0.156628
0.158596
0.159989
0.1634
0.077996
-0.0526562
0.0433295
0.0870692
-0.0817821
0.0727089
0.0957194
-0.112556
0.103906
0.10324
-0.139103
0.131582
0.108499
-0.156786
0.151528
0.110536
-0.164692
0.162655
0.110303
-0.166117
0.16635
0.109509
-0.16304
0.163834
0.106913
-0.157278
0.159875
0.100696
-0.155608
0.161826
0.0930688
-0.161226
0.168853
0.0896489
-0.163748
0.167167
0.0939536
-0.145391
0.141086
0.104205
-0.097744
0.087493
0.117433
-0.0277541
0.0145252
0.130979
0.050036
-0.0635815
0.14323
0.117727
-0.129978
0.152545
0.162596
-0.17191
0.157775
0.185407
-0.190637
0.159926
0.194346
-0.196497
0.161031
0.194538
-0.195643
0.161008
0.19254
-0.192517
0.158201
0.202397
-0.19959
0.152236
0.227106
-0.221142
0.144767
0.246008
-0.238539
0.138067
0.226702
-0.220002
0.134125
0.154364
-0.150422
0.134029
0.0409834
-0.0408875
0.137409
-0.0774076
0.0740268
0.143219
-0.167653
0.161843
0.149262
-0.215516
0.209474
0.152747
-0.234768
0.231283
0.151166
-0.245654
0.247236
0.14341
-0.25735
0.265105
0.131571
-0.264239
0.276078
0.120036
-0.240689
0.252224
0.113395
-0.170786
0.177427
0.114247
-0.0554474
0.0545955
0.122164
0.0653592
-0.0732761
0.131755
0.160906
-0.170497
0.135601
0.224295
-0.228142
0.131156
0.272358
-0.267913
0.122978
0.300829
-0.292652
0.116718
0.272498
-0.266238
0.116456
0.186927
-0.186665
0.121239
0.0463441
-0.0511269
0.126096
-0.077768
0.0729112
0.125729
-0.195829
0.196195
0.12296
-0.289115
0.291885
0.120533
-0.299967
0.302394
0.120455
-0.266409
0.266487
0.12019
-0.0874293
0.0876947
0.118962
0.0801025
-0.0788746
0.115876
0.268535
-0.265448
0.11468
0.377726
-0.376531
0.112597
0.204362
-0.202279
0.111477
0.155915
-0.154795
0.10676
-0.106922
0.111639
0.104788
-0.371855
0.373827
-0.140504
0.142878
0.107206
-0.0587067
0.113041
-0.0876167
0.117783
-0.117298
0.120462
-0.141782
0.120867
-0.15719
0.118623
-0.162449
0.11394
-0.161433
0.10891
-0.158011
0.103906
-0.152274
0.0962302
-0.147932
0.0858097
-0.150805
0.0776224
-0.15556
0.0774172
-0.145185
0.0860501
-0.106377
0.100464
-0.0421684
0.117485
0.0330152
0.134047
0.101165
0.147391
0.149252
0.156126
0.176672
0.161345
0.189127
0.164961
0.190922
0.167235
0.190266
0.167151
0.202481
0.164127
0.230131
0.158799
0.251335
0.152606
0.232895
0.147478
0.159492
0.144674
0.043787
0.144579
-0.077312
0.146856
-0.169931
0.149772
-0.218432
0.150735
-0.235731
0.147388
-0.242307
0.138336
-0.248298
0.12556
-0.251464
0.11403
-0.229159
0.108566
-0.165321
0.111591
-0.0584732
0.1219
0.0550506
0.132906
0.1499
0.137557
0.219644
0.134003
0.275912
0.126122
0.30871
0.119145
0.279475
0.117729
0.188343
0.121871
0.0422019
0.126772
-0.0826684
0.12579
-0.194847
0.122292
-0.285617
0.119454
-0.29713
0.119716
-0.266671
0.120153
-0.0878656
0.119651
0.0806038
0.118129
0.270056
0.116482
0.379374
0.113937
0.206906
0.112916
0.156937
0.107067
-0.101073
0.104905
-0.369693
-0.139178
0.132828
-0.0633596
0.136615
-0.0914035
0.138039
-0.118721
0.136164
-0.139907
0.131297
-0.152323
0.124749
-0.155901
0.116987
-0.153671
0.109047
-0.150071
0.102027
-0.145255
0.0936655
-0.139571
0.0816706
-0.13881
0.0695466
-0.143436
0.0643869
-0.140026
0.0699963
-0.111986
0.0844378
-0.0566099
0.104077
0.0133762
0.124346
0.0808962
0.141591
0.132006
0.153939
0.164324
0.162366
0.180699
0.168635
0.184653
0.173444
0.185457
0.176432
0.199493
0.176784
0.229779
0.174015
0.254104
0.168559
0.238351
0.162089
0.165962
0.156146
0.04973
0.1523
-0.0734666
0.150901
-0.168531
0.150629
-0.218161
0.149183
-0.234285
0.144467
-0.23759
0.134663
-0.238494
0.121199
-0.238
0.109504
-0.217464
0.105034
-0.160851
0.109998
-0.0634377
0.122143
0.0429061
0.134524
0.137518
0.140294
0.213874
0.137954
0.278253
0.130458
0.316206
0.122673
0.287261
0.119846
0.191169
0.123021
0.0390272
0.12793
-0.0875774
0.126449
-0.193366
0.1221
-0.281268
0.11872
-0.293749
0.119216
-0.267167
0.120599
-0.0892487
0.120854
0.0803488
0.120792
0.270119
0.118833
0.381332
0.115824
0.209915
0.11491
0.157851
0.108079
-0.0942426
0.105628
-0.367243
-0.138762
0.15503
-0.0675378
0.157295
-0.0936689
0.155846
-0.117272
0.150156
-0.134218
0.141009
-0.143176
0.13057
-0.145462
0.120163
-0.143264
0.110011
-0.139918
0.101338
-0.136582
0.0930532
-0.131286
0.0814624
-0.12722
0.0670754
-0.129049
0.0569392
-0.129889
0.0579323
-0.112979
0.0705695
-0.0692472
0.0912914
-0.00734569
0.114203
0.0579844
0.134791
0.111418
0.150638
0.148478
0.162291
0.169045
0.171264
0.175681
0.178742
0.177979
0.185065
0.19317
0.18914
0.225703
0.189386
0.253859
0.185184
0.242553
0.177356
0.173789
0.168186
0.0589007
0.160538
-0.0658184
0.155427
-0.16342
0.151948
-0.214681
0.148098
-0.230436
0.142173
-0.231665
0.132109
-0.22843
0.118408
-0.224299
0.106461
-0.205517
0.102491
-0.156882
0.108865
-0.069811
0.122596
0.0291745
0.13648
0.123634
0.143736
0.206619
0.142832
0.279157
0.135871
0.323166
0.127384
0.295747
0.12296
0.195593
0.124795
0.0371928
0.129555
-0.0923382
0.127694
-0.191504
0.122421
-0.275995
0.118325
-0.289654
0.118973
-0.267815
0.121374
-0.0916503
0.122495
0.079228
0.123828
0.268786
0.121695
0.383465
0.118233
0.213377
0.117441
0.158643
0.10977
-0.0865716
0.106951
-0.364424
-0.139104
0.174752
-0.0706892
0.174401
-0.0933177
0.168985
-0.111857
0.15925
-0.124482
0.147013
-0.130938
0.134318
-0.132767
0.122705
-0.131652
0.111738
-0.128951
0.101651
-0.126495
0.0932259
-0.122861
0.0833765
-0.11737
0.0693792
-0.115052
0.0557783
-0.116288
0.0513534
-0.108555
0.0603731
-0.0782668
0.0797331
-0.0267057
0.103955
0.0337623
0.126952
0.0884214
0.145803
0.129627
0.160405
0.154444
0.171978
0.164108
0.182099
0.167857
0.191658
0.183612
0.199539
0.217822
0.203391
0.250007
0.201312
0.244632
0.193088
0.182013
0.180714
0.0712752
0.169075
-0.0541795
0.160123
-0.154469
0.153523
-0.208081
0.147411
-0.224323
0.140435
-0.224689
0.130547
-0.218542
0.117054
-0.210806
0.104804
-0.193267
0.100789
-0.152867
0.107954
-0.0769763
0.122952
0.0141768
0.138437
0.108149
0.147644
0.197411
0.148703
0.278098
0.142605
0.329264
0.133527
0.304826
0.127306
0.201814
0.127262
0.0372373
0.131604
-0.0966806
0.129471
-0.189371
0.123245
-0.26977
0.11825
-0.284658
0.118952
-0.268517
0.122428
-0.0951264
0.12449
0.0771659
0.127184
0.266092
0.125004
0.385645
0.121122
0.21726
0.120479
0.159286
0.112111
-0.0782037
0.108854
-0.361166
-0.140101
0.190973
-0.0708078
0.186512
-0.0888566
0.176949
-0.102294
0.163834
-0.111367
0.149616
-0.116721
0.135959
-0.11911
0.123962
-0.119655
0.113382
-0.11837
0.103147
-0.11626
0.0941688
-0.113883
0.0860157
-0.109217
0.0747617
-0.103798
0.0604289
-0.101956
0.0509141
-0.0990397
0.0541784
-0.0815312
0.0701322
-0.0426594
0.0937482
0.0101462
0.118098
0.0640713
0.139381
0.108344
0.156587
0.137237
0.170417
0.150279
0.18272
0.155555
0.195214
0.171117
0.206955
0.206082
0.214411
0.24255
0.214434
0.244609
0.206458
0.189989
0.192455
0.085278
0.17733
-0.039054
0.164679
-0.141818
0.155211
-0.198613
0.147003
-0.216116
0.138972
-0.216658
0.129554
-0.209123
0.116858
-0.198109
0.104402
-0.180811
0.0997378
-0.148202
0.106958
-0.0841966
0.122884
-0.0017494
0.140075
0.0909588
0.151604
0.185882
0.154962
0.274741
0.150167
0.334059
0.140904
0.314088
0.132902
0.209816
0.130518
0.0396219
0.134014
-0.100177
0.131699
-0.187056
0.124548
-0.262619
0.118469
-0.27858
0.119096
-0.269144
0.123686
-0.0997169
0.126733
0.0741192
0.130775
0.26205
0.128689
0.387731
0.124445
0.221504
0.123983
0.159748
0.115066
-0.0692866
0.111312
-0.357413
-0.141658
0.200314
-0.0662925
0.191352
-0.0798951
0.1787
-0.0896419
0.164205
-0.0968715
0.149807
-0.102323
0.136536
-0.105839
0.124661
-0.10778
0.11438
-0.10809
0.104789
-0.10667
0.0956057
-0.104699
0.0880212
-0.101633
0.0801354
-0.0959122
0.068509
-0.0903292
0.0563954
-0.0869262
0.0529601
-0.0780959
0.0630894
-0.0527888
0.0838919
-0.0106563
0.108308
0.0396552
0.131304
0.085348
0.150797
0.117745
0.166742
0.134333
0.180884
0.141413
0.195469
0.156532
0.210204
0.191346
0.221417
0.231338
0.224526
0.2415
0.217478
0.197037
0.20225
0.100507
0.184475
-0.0212796
0.168715
-0.126058
0.156739
-0.186637
0.146755
-0.206132
0.137681
-0.207584
0.128764
-0.200206
0.117422
-0.186768
0.105097
-0.168486
0.0992509
-0.142356
0.105742
-0.0906877
0.122026
-0.018033
0.141012
0.0719723
0.15524
0.171653
0.161522
0.268459
0.158777
0.336804
0.149612
0.323253
0.139816
0.219612
0.134571
0.0448663
0.13672
-0.102325
0.134262
-0.184599
0.126279
-0.254635
0.118957
-0.271258
0.119332
-0.269518
0.125063
-0.105448
0.129127
0.0700549
0.134524
0.256653
0.132676
0.389579
0.128144
0.226037
0.127901
0.159991
0.118585
-0.0599709
0.1143
-0.353128
-0.143676
0.199464
-0.057933
0.18796
-0.068391
0.174575
-0.0762571
0.160872
-0.0831685
0.147802
-0.0892524
0.135807
-0.0938446
0.124761
-0.0967341
0.114804
-0.0981323
0.105987
-0.0978528
0.0974716
-0.0961835
0.0897715
-0.0939327
0.0836908
-0.0898315
0.0763862
-0.0830246
0.0658393
-0.0763793
0.0576394
-0.069896
0.060302
-0.0554513
0.0752857
-0.02564
0.097992
0.0169489
0.12159
0.0617499
0.142745
0.0965894
0.160403
0.116675
0.175938
0.125878
0.192151
0.140319
0.209643
0.173854
0.224161
0.21682
0.229774
0.235888
0.224023
0.202788
0.208907
0.115623
0.189844
-0.00221661
0.171886
-0.108101
0.157875
-0.172627
0.14647
-0.194726
0.136418
-0.197532
0.127823
-0.191611
0.118227
-0.177172
0.106661
-0.156921
0.0993939
-0.135089
0.104205
-0.0954993
0.120296
-0.0341233
0.140956
0.051312
0.157965
0.154644
0.167335
0.259089
0.16725
0.336889
0.158944
0.33156
0.147696
0.23086
0.139432
0.0531304
0.13966
-0.102554
0.13703
-0.181969
0.128369
-0.245974
0.119696
-0.262585
0.119593
-0.269416
0.126471
-0.112325
0.131568
0.0649575
0.138311
0.24991
0.136862
0.391028
0.13215
0.230749
0.132177
0.159965
0.122615
-0.0504086
0.117782
-0.348295
-0.146051
0.190414
-0.0487777
0.179547
-0.0575243
0.167854
-0.0645642
0.156152
-0.0714662
0.144727
-0.0778268
0.133816
-0.0829341
0.123612
-0.0865296
0.114146
-0.0886669
0.105815
-0.0895215
0.0984786
-0.0888472
0.0914373
-0.0868914
0.0855703
-0.0839645
0.0811273
-0.0785816
0.0750791
-0.0703311
0.0668878
-0.0617047
0.0631582
-0.0517217
0.0705274
-0.0330092
0.0890766
-0.00160037
0.111658
0.0391681
0.13352
0.0747278
0.152192
0.0980027
0.168389
0.109681
0.185317
0.123391
0.204575
0.154596
0.222407
0.198988
0.231997
0.226298
0.228726
0.206058
0.213958
0.130392
0.193492
0.0182491
0.174011
-0.08862
0.158427
-0.157043
0.145977
-0.182275
0.135112
-0.186668
0.126514
-0.183013
0.118714
-0.169371
0.108707
-0.146914
0.100289
-0.12667
0.102553
-0.097763
0.117543
-0.0491134
0.139544
0.0293105
0.159619
0.134569
0.17263
0.246079
0.175777
0.333742
0.168931
0.338406
0.156391
0.243399
0.144874
0.0646479
0.142743
-0.100423
0.139833
-0.17906
0.130723
-0.236864
0.120648
-0.25251
0.119797
-0.268565
0.127827
-0.120354
0.133982
0.0588028
0.142073
0.241819
0.141168
0.391933
0.13639
0.235526
0.136745
0.159609
0.127093
-0.0407561
0.121711
-0.342913
-0.14868
0.179124
-0.0411832
0.170232
-0.0486323
0.160612
-0.054944
0.150689
-0.0615434
0.140645
-0.0677822
0.130734
-0.0730234
0.121357
-0.0771525
0.112736
-0.0800464
0.104944
-0.0817295
0.0983067
-0.0822096
0.0924985
-0.0810832
0.0870548
-0.0785209
0.0830517
-0.0745785
0.0803636
-0.067643
0.0761983
-0.0575394
0.0710958
-0.0466191
0.0716299
-0.0335434
0.082416
-0.0123864
0.101984
0.0196003
0.123566
0.0531454
0.142904
0.0786648
0.159336
0.0932496
0.175817
0.10691
0.195369
0.135044
0.215403
0.178954
0.227756
0.213946
0.226729
0.207085
0.213868
0.143253
0.194901
0.0372167
0.175026
-0.0687454
0.15824
-0.140257
0.144998
-0.169033
0.133577
-0.175247
0.124689
-0.174125
0.118367
-0.163049
0.110603
-0.13915
0.101856
-0.117923
0.10115
-0.0970567
0.113964
-0.0619279
0.136645
0.00663011
0.159322
0.111892
0.175789
0.229612
0.182582
0.326949
0.178437
0.342551
0.165319
0.256518
0.150885
0.079081
0.145901
-0.0954383
0.142496
-0.175655
0.133213
-0.227581
0.121776
-0.241073
0.119856
-0.266645
0.129046
-0.129544
0.136272
0.0515769
0.14565
0.23244
0.145444
0.39214
0.140767
0.240203
0.141537
0.158839
0.131951
-0.0311709
0.126034
-0.336996
-0.151468
0.168862
-0.0352176
0.161387
-0.0411567
0.153087
-0.0466446
0.144286
-0.0527425
0.135219
-0.0587152
0.126261
-0.0640647
0.117718
-0.0686097
0.109905
-0.0722332
0.102892
-0.0747166
0.0967201
-0.0760381
0.0916552
-0.0760183
0.0873315
-0.0741971
0.0835997
-0.0708467
0.0816139
-0.0656572
0.0809846
-0.0569101
0.079375
-0.0450095
0.0780188
-0.0321872
0.0823829
-0.0167506
0.0956379
0.00634531
0.113993
0.0347902
0.132664
0.0599935
0.149118
0.0767964
0.165484
0.0905432
0.185447
0.115081
0.207158
0.157243
0.222501
0.198603
0.224578
0.205008
0.213457
0.154373
0.194288
0.0563865
0.174178
-0.0486361
0.156811
-0.122889
0.143232
-0.155454
0.131673
-0.163688
0.1224
-0.164852
0.116987
-0.157636
0.111732
-0.133895
0.10374
-0.109932
0.100285
-0.0936019
0.10976
-0.071403
0.132219
-0.0158285
0.157731
0.0863796
0.178191
0.209152
0.188511
0.316629
0.186839
0.344223
0.17435
0.269007
0.156945
0.0964853
0.148971
-0.0874641
0.144885
-0.171568
0.135734
-0.21843
0.123114
-0.228453
0.119751
-0.263282
0.13006
-0.139853
0.13841
0.043227
0.149039
0.221811
0.149648
0.39153
0.14519
0.244662
0.146468
0.157561
0.137107
-0.0218096
0.130702
-0.330592
-0.154332
0.15839
-0.0302073
0.151901
-0.0346683
0.144822
-0.0395657
0.13715
-0.0450701
0.129196
-0.0507617
0.121372
-0.0562399
0.113907
-0.0611446
0.106961
-0.0652877
0.100698
-0.068454
0.0951014
-0.0704412
0.0902911
-0.0712079
0.0864848
-0.0703909
0.0833466
-0.0677084
0.081125
-0.0634356
0.080932
-0.0567172
0.082137
-0.0462144
0.082988
-0.0330383
0.0850005
-0.0187631
0.0921409
-0.000795083
0.105291
0.0216401
0.12057
0.0447148
0.135502
0.0618637
0.150746
0.0752998
0.169057
0.0967702
0.191079
0.135221
0.210295
0.179386
0.216319
0.198984
0.208296
0.162396
0.193038
0.0716437
0.174211
-0.0298086
0.156057
-0.104736
0.141806
-0.141203
0.130142
-0.152024
0.120374
-0.155084
0.115116
-0.152378
0.112025
-0.130805
0.105527
-0.103434
0.100122
-0.0881967
0.10588
-0.0771612
0.126119
-0.0360676
0.152835
0.0596641
0.176727
0.18526
0.191569
0.301788
0.193703
0.342089
0.182686
0.280023
0.16383
0.115342
0.152416
-0.0760499
0.147241
-0.166393
0.138382
-0.209572
0.124785
-0.214856
0.119819
-0.258316
0.130849
-0.150882
0.14026
0.0338155
0.152023
0.210049
0.153587
0.389966
0.149568
0.248681
0.151476
0.155653
0.142515
-0.0128482
0.13568
-0.323757
-0.157158
0.204137
-0.0261285
-0.208216
0.200882
-0.0314133
0.197465
-0.0361487
0.193471
-0.0410761
0.188805
-0.0460953
0.183547
-0.0509817
0.177823
-0.055421
0.171705
-0.0591694
0.165244
-0.0619928
0.158519
-0.0637159
0.15153
-0.0642191
0.144434
-0.0632953
0.137391
-0.0606652
0.130281
-0.0563257
0.123367
-0.0498034
0.117317
-0.0401643
0.111828
-0.0275492
0.106482
-0.0134172
0.102648
0.00303914
0.102179
0.0221088
0.10607
0.0408247
0.11347
0.0544633
0.122883
0.0658872
0.133579
0.0860736
0.145615
0.123185
0.15698
0.168022
0.168118
0.187846
0.182945
0.147569
0.196242
0.0583462
0.200285
-0.0338518
0.194925
-0.0993756
0.184503
-0.130781
0.172392
-0.139913
0.159621
-0.142313
0.149202
-0.141958
0.140719
-0.122322
0.129518
-0.0922325
0.118606
-0.0772848
0.116142
-0.0746967
0.125198
-0.0451237
0.137815
0.0470471
0.149334
0.17374
0.15858
0.292542
0.165432
0.335237
0.168492
0.276963
0.166233
0.117601
0.163939
-0.073756
0.160885
-0.163339
0.152438
-0.201125
0.137156
-0.199574
0.12714
-0.248299
0.129735
-0.153478
0.131302
0.0322486
0.137184
0.204167
0.139628
0.387522
0.139529
0.24878
0.143849
0.151333
0.137596
-0.00659515
0.12937
-0.315532
-0.157235
0.212175
-0.0229028
-0.2154
0.208663
-0.0279013
0.205071
-0.0325567
0.201017
-0.037022
0.196359
-0.0414373
0.191084
-0.0457072
0.18527
-0.0496072
0.179035
-0.0529347
0.172473
-0.0554306
0.165712
-0.0569547
0.158882
-0.0573889
0.152077
-0.0564907
0.145494
-0.0540823
0.139298
-0.0501293
0.133482
-0.0439873
0.128446
-0.0351283
0.124584
-0.0236876
0.121333
-0.0101656
0.118266
0.0061052
0.116121
0.0242544
0.116427
0.0405186
0.120329
0.050561
0.128002
0.0582147
0.138837
0.075238
0.150871
0.111151
0.162002
0.156891
0.17618
0.173668
0.195524
0.128225
0.210993
0.0428767
0.213911
-0.0367695
0.206534
-0.0919981
0.194537
-0.118784
0.181873
-0.127249
0.16894
-0.12938
0.158273
-0.131291
0.150685
-0.114734
0.140929
-0.0824771
0.129557
-0.0659128
0.125111
-0.07025
0.133506
-0.0535186
0.147504
0.0330483
0.161301
0.159943
0.173083
0.28076
0.182317
0.326003
0.186747
0.272533
0.184184
0.120164
0.179809
-0.069381
0.174844
-0.158373
0.165382
-0.191663
0.148355
-0.182547
0.136914
-0.236858
0.140288
-0.156853
0.142377
0.0301602
0.148752
0.197791
0.151966
0.384309
0.152381
0.248365
0.157586
0.146128
0.151145
-0.000154758
0.141764
-0.30615
-0.156862
0.220138
-0.0204238
-0.222617
0.217034
-0.0247975
0.213569
-0.0290923
0.209707
-0.0331594
0.205339
-0.0370698
0.200433
-0.0408006
0.195029
-0.0442038
0.189225
-0.0471307
0.183136
-0.0493409
0.17685
-0.0506688
0.170454
-0.050993
0.164051
-0.0500882
0.157723
-0.0477536
0.151622
-0.0440287
0.145937
-0.0383021
0.141016
-0.0302074
0.137396
-0.0200681
0.135428
-0.00819728
0.134247
0.00728625
0.133219
0.0252825
0.132639
0.0410987
0.133665
0.0495343
0.137271
0.0546092
0.143766
0.0687424
0.152807
0.10211
0.165652
0.144046
0.186558
0.152762
0.211074
0.103709
0.2265
0.027451
0.227571
-0.0378406
0.218813
-0.0832397
0.206412
-0.106384
0.193932
-0.114769
0.180952
-0.1164
0.169575