/*--------------------------------*- C++ -*----------------------------------*\
| =========                 |                                                 |
| \\      /  F ield         | OpenFOAM: The Open Source CFD Toolbox           |
|  \\    /   O peration     | Version:  2512                                  |
|   \\  /    A nd           | Website:  www.openfoam.com                      |
|    \\/     M anipulation  |                                                 |
\*---------------------------------------------------------------------------*/
FoamFile
{
    version     2.0;
    format      ascii;
    arch        "LSB;label=32;scalar=64";
    class       volScalarField;
    location    "56.25";
    object      p;
}
// * * * * * * * * * * * * * * * * * * * * * * * * * * * * * * * * * * * * * //

dimensions      [0 2 -2 0 0 0 0];

internalField   nonuniform List<scalar> 
13248
(
-0.305975
-0.306657
-0.305678
-0.303508
-0.300311
-0.296158
-0.291229
-0.285706
-0.279953
-0.274269
-0.268913
-0.26408
-0.259864
-0.256243
-0.25308
-0.250155
-0.247219
-0.24408
-0.240517
-0.236637
-0.231954
-0.226948
-0.220078
-0.211655
-0.310372
-0.310471
-0.309205
-0.306983
-0.303945
-0.300118
-0.295565
-0.290405
-0.284802
-0.278927
-0.272949
-0.267012
-0.261201
-0.255535
-0.249971
-0.244452
-0.238923
-0.233337
-0.227646
-0.221715
-0.215376
-0.208468
-0.200504
-0.19251
-0.316661
-0.315914
-0.314104
-0.311572
-0.308426
-0.304661
-0.300216
-0.295035
-0.289105
-0.282494
-0.275351
-0.26786
-0.260199
-0.252514
-0.244918
-0.237484
-0.23022
-0.223101
-0.215983
-0.208818
-0.201355
-0.193662
-0.185541
-0.1774
-0.324585
-0.322784
-0.320218
-0.317121
-0.313626
-0.309636
-0.30491
-0.299184
-0.292328
-0.284413
-0.275683
-0.266461
-0.257067
-0.24776
-0.238703
-0.229959
-0.221515
-0.213293
-0.205226
-0.197222
-0.189167
-0.181152
-0.172874
-0.165079
-0.334229
-0.331246
-0.327775
-0.32398
-0.319914
-0.315331
-0.309759
-0.3028
-0.294362
-0.284681
-0.274188
-0.263347
-0.252541
-0.242018
-0.231894
-0.222195
-0.212883
-0.203907
-0.195191
-0.18667
-0.178284
-0.170026
-0.161797
-0.15405
-0.345951
-0.341674
-0.337248
-0.332647
-0.327722
-0.321979
-0.314787
-0.305825
-0.29525
-0.283557
-0.271332
-0.259073
-0.247111
-0.23562
-0.224661
-0.214224
-0.204268
-0.194728
-0.185546
-0.176667
-0.168039
-0.159665
-0.151449
-0.143749
-0.360114
-0.354444
-0.349024
-0.343444
-0.33717
-0.329466
-0.319782
-0.308153
-0.29511
-0.281359
-0.267516
-0.254
-0.241042
-0.228731
-0.217073
-0.206034
-0.195557
-0.185588
-0.176069
-0.166949
-0.158188
-0.14974
-0.141582
-0.133915
-0.37688
-0.369744
-0.363239
-0.356329
-0.347959
-0.337345
-0.324385
-0.309663
-0.294042
-0.278294
-0.262945
-0.248281
-0.234414
-0.221359
-0.209081
-0.197525
-0.186629
-0.17633
-0.166568
-0.157289
-0.148442
-0.139983
-0.131909
-0.124263
-0.396108
-0.387463
-0.379673
-0.370834
-0.359397
-0.344952
-0.328173
-0.310197
-0.292047
-0.274409
-0.257647
-0.241897
-0.227173
-0.213428
-0.200595
-0.188598
-0.177361
-0.166814
-0.156888
-0.147522
-0.138657
-0.130249
-0.122283
-0.114693
-0.417208
-0.407082
-0.39765
-0.386008
-0.370455
-0.35147
-0.330634
-0.309449
-0.288899
-0.269483
-0.251381
-0.234598
-0.219066
-0.204687
-0.191362
-0.178994
-0.167494
-0.156776
-0.146763
-0.137382
-0.128564
-0.120262
-0.112431
-0.104938
-0.439195
-0.427619
-0.415988
-0.400456
-0.379833
-0.355898
-0.331007
-0.306769
-0.283977
-0.262902
-0.24355
-0.225813
-0.20955
-0.19462
-0.180891
-0.168244
-0.15657
-0.145772
-0.13576
-0.126452
-0.117775
-0.109669
-0.102047
-0.0947809
-0.460673
-0.447689
-0.433077
-0.412523
-0.386107
-0.35708
-0.328294
-0.301231
-0.276402
-0.253838
-0.233383
-0.214828
-0.19797
-0.182623
-0.168621
-0.155822
-0.144097
-0.133334
-0.123431
-0.114298
-0.105865
-0.0980683
-0.0908041
-0.0839794
-0.389494
-0.391325
-0.392046
-0.392514
-0.393141
-0.394014
-0.395155
-0.396552
-0.398173
-0.399984
-0.401952
-0.404061
-0.406319
-0.408782
-0.411568
-0.414862
-0.418918
-0.424067
-0.430701
-0.439239
-0.450062
-0.463386
-0.478176
-0.494675
-0.375078
-0.376398
-0.376567
-0.376286
-0.375919
-0.375576
-0.375294
-0.375082
-0.374948
-0.374918
-0.375058
-0.375476
-0.376336
-0.37788
-0.380489
-0.384548
-0.390479
-0.398714
-0.409626
-0.423407
-0.43995
-0.461997
-0.483509
-0.506219
-0.362462
-0.363208
-0.362869
-0.361957
-0.360767
-0.35942
-0.357974
-0.356464
-0.354937
-0.353481
-0.352245
-0.35144
-0.351323
-0.352122
-0.354677
-0.359342
-0.36658
-0.376809
-0.390388
-0.407433
-0.427801
-0.45118
-0.476473
-0.501524
-0.351412
-0.351615
-0.350856
-0.349442
-0.347589
-0.345419
-0.343018
-0.34045
-0.337799
-0.335207
-0.332894
-0.331196
-0.330584
-0.329814
-0.332411
-0.337241
-0.344889
-0.355787
-0.370158
-0.387949
-0.409016
-0.432199
-0.457517
-0.481739
-0.341635
-0.341424
-0.340359
-0.33857
-0.336182
-0.333317
-0.330092
-0.326601
-0.322973
-0.31938
-0.316063
-0.313343
-0.311591
-0.31113
-0.312835
-0.317068
-0.324235
-0.334615
-0.348421
-0.365253
-0.385307
-0.40678
-0.430295
-0.452391
-0.332881
-0.332455
-0.331217
-0.32916
-0.326329
-0.322837
-0.318835
-0.31448
-0.309941
-0.305426
-0.301199
-0.297602
-0.295038
-0.293968
-0.29493
-0.298376
-0.304704
-0.314064
-0.326765
-0.34208
-0.360596
-0.380037
-0.401665
-0.421055
-0.325001
-0.324592
-0.32331
-0.321077
-0.317879
-0.313807
-0.309051
-0.303837
-0.2984
-0.293
-0.287937
-0.283568
-0.280306
-0.278604
-0.278937
-0.281719
-0.287343
-0.295883
-0.307638
-0.321798
-0.33912
-0.356784
-0.376282
-0.392393
-0.317979
-0.317804
-0.316578
-0.314245
-0.31075
-0.306167
-0.300716
-0.294693
-0.288414
-0.282208
-0.276425
-0.271452
-0.267711
-0.265647
-0.265702
-0.268256
-0.273642
-0.281881
-0.293139
-0.306472
-0.322173
-0.337616
-0.353666
-0.365498
-0.311959
-0.31216
-0.311049
-0.308662
-0.304954
-0.299984
-0.293996
-0.287347
-0.280428
-0.273647
-0.267421
-0.262183
-0.258374
-0.256425
-0.256728
-0.259548
-0.265001
-0.272966
-0.283192
-0.294873
-0.307529
-0.319372
-0.329955
-0.335707
-0.307255
-0.307873
-0.30688
-0.30447
-0.300659
-0.295518
-0.289268
-0.282361
-0.275222
-0.268326
-0.262147
-0.25714
-0.253706
-0.25218
-0.25279
-0.2556
-0.260494
-0.267129
-0.275037
-0.28342
-0.291716
-0.298648
-0.303392
-0.303288
-0.30441
-0.305316
-0.304401
-0.302016
-0.29826
-0.293218
-0.287133
-0.280433
-0.273577
-0.267061
-0.261323
-0.25675
-0.25366
-0.252243
-0.252536
-0.25442
-0.257544
-0.261493
-0.26566
-0.269472
-0.272627
-0.274404
-0.275068
-0.272347
-0.303919
-0.304869
-0.303971
-0.301682
-0.298157
-0.293485
-0.28786
-0.281757
-0.275499
-0.269496
-0.264145
-0.259746
-0.256486
-0.254417
-0.253425
-0.253271
-0.253536
-0.253898
-0.25377
-0.253111
-0.251486
-0.249119
-0.246549
-0.24314
-0.517238
-0.543366
-0.564802
-0.579503
-0.58328
-0.572305
-0.541228
-0.485186
-0.408837
-0.328719
-0.260923
-0.213376
-0.18679
-0.178515
-0.184108
-0.203077
-0.238654
-0.284571
-0.319803
-0.321272
-0.286392
-0.232853
-0.181835
-0.143769
-0.120762
-0.112078
-0.114942
-0.129946
-0.16341
-0.214756
-0.263027
-0.276211
-0.249894
-0.19624
-0.148045
-0.120522
-0.110799
-0.1218
-0.159959
-0.204017
-0.221555
-0.199765
-0.158836
-0.120832
-0.0979952
-0.092405
-0.0975891
-0.104293
-0.105568
-0.102199
-0.0954803
-0.086188
-0.07444
-0.0599167
-0.0479563
-0.0370776
-0.028906
-0.0226964
-0.014139
-0.00390582
-0.53525
-0.565343
-0.588707
-0.603555
-0.606817
-0.59528
-0.563524
-0.506083
-0.427026
-0.342954
-0.270506
-0.218258
-0.185709
-0.170179
-0.168901
-0.180253
-0.206498
-0.244142
-0.27584
-0.278713
-0.25228
-0.208139
-0.165086
-0.132246
-0.113172
-0.108093
-0.114344
-0.133043
-0.170735
-0.225938
-0.277088
-0.292529
-0.263874
-0.207119
-0.15459
-0.122424
-0.108351
-0.114084
-0.146081
-0.185641
-0.202413
-0.184847
-0.150813
-0.120319
-0.104648
-0.105613
-0.115948
-0.125266
-0.125401
-0.118056
-0.106071
-0.0912852
-0.0745303
-0.0563036
-0.0424006
-0.0315061
-0.0245882
-0.0200512
-0.0128676
-0.00354126
-0.532242
-0.563099
-0.587586
-0.602499
-0.605689
-0.594327
-0.563165
-0.506806
-0.428512
-0.343991
-0.270244
-0.216086
-0.18047
-0.159824
-0.151611
-0.154783
-0.170979
-0.198946
-0.226261
-0.2351
-0.213914
-0.179535
-0.144477
-0.11704
-0.102171
-0.100654
-0.110037
-0.131867
-0.172572
-0.230224
-0.28383
-0.304472
-0.272717
-0.214046
-0.158294
-0.122185
-0.104036
-0.104674
-0.130219
-0.164712
-0.18053
-0.167688
-0.141123
-0.118635
-0.110852
-0.119138
-0.135128
-0.147402
-0.146467
-0.134689
-0.117074
-0.0967002
-0.075072
-0.0532832
-0.0375051
-0.0265016
-0.0206841
-0.0175758
-0.0117309
-0.00321782
-0.509994
-0.540158
-0.56704
-0.582872
-0.586055
-0.575015
-0.544378
-0.489023
-0.413684
-0.333265
-0.262654
-0.208942
-0.171876
-0.148108
-0.134962
-0.130851
-0.137242
-0.15501
-0.17581
-0.185195
-0.173013
-0.148452
-0.121068
-0.098938
-0.0880488
-0.0897327
-0.101726
-0.125532
-0.167479
-0.226375
-0.282106
-0.309571
-0.275219
-0.216394
-0.158929
-0.119863
-0.0982613
-0.0941173
-0.113424
-0.14265
-0.157402
-0.149033
-0.129987
-0.115837
-0.116378
-0.132381
-0.154659
-0.170427
-0.168618
-0.152029
-0.128425
-0.102394
-0.0760608
-0.0508575
-0.033308
-0.0221152
-0.0172199
-0.0152597
-0.0107283
-0.0029456
-0.476974
-0.505414
-0.531915
-0.549962
-0.553707
-0.542798
-0.512476
-0.459156
-0.388931
-0.315531
-0.250894
-0.199763
-0.162161
-0.136133
-0.11927
-0.110017
-0.108383
-0.11629
-0.129629
-0.138185
-0.13282
-0.116513
-0.0960594
-0.0788827
-0.0715225
-0.0759711
-0.0900209
-0.114663
-0.155946
-0.213987
-0.270495
-0.297217
-0.270233
-0.213989
-0.156634
-0.115739
-0.0915347
-0.0831804
-0.0965507
-0.120565
-0.133952
-0.129599
-0.11779
-0.111749
-0.120504
-0.144849
-0.174172
-0.194008
-0.191697
-0.170025
-0.140084
-0.108331
-0.0774724
-0.0490066
-0.0298152
-0.0183716
-0.0141998
-0.0130886
-0.00985115
-0.00273429
-0.441169
-0.466862
-0.492421
-0.509679
-0.512677
-0.500884
-0.470745
-0.421019
-0.358555
-0.294437
-0.237146
-0.189987
-0.153013
-0.125396
-0.105667
-0.0922576
-0.0846961
-0.0843411
-0.0902205
-0.0963899
-0.0959854
-0.0852005
-0.0707692
-0.0580677
-0.0537551
-0.0604557
-0.076054
-0.100615
-0.139422
-0.194139
-0.24985
-0.278193
-0.258286
-0.207006
-0.151602
-0.110164
-0.0841602
-0.0724211
-0.0804351
-0.0995412
-0.111125
-0.109812
-0.104709
-0.106108
-0.123101
-0.155953
-0.192862
-0.217604
-0.215381
-0.188576
-0.151999
-0.114465
-0.0792554
-0.0476929
-0.0269939
-0.0152596
-0.0116026
-0.0110478
-0.00908452
-0.00259296
-0.407256
-0.425676
-0.449288
-0.463873
-0.464738
-0.451758
-0.423127
-0.379433
-0.326872
-0.273208
-0.22376
-0.181027
-0.145454
-0.116948
-0.0950228
-0.0784467
-0.0664441
-0.0597042
-0.058842
-0.0609303
-0.0615695
-0.055449
-0.0464626
-0.0377263
-0.0359409
-0.0442826
-0.0608828
-0.0845934
-0.119487
-0.168802
-0.221871
-0.252895
-0.240796
-0.196204
-0.144264
-0.10352
-0.0765155
-0.0623286
-0.0655809
-0.0802919
-0.0897509
-0.0901713
-0.0908084
-0.0989587
-0.12363
-0.165249
-0.210481
-0.240762
-0.239414
-0.207536
-0.164113
-0.120728
-0.0813143
-0.0468485
-0.0247711
-0.0127291
-0.00938632
-0.00912379
-0.00840932
-0.00252993
-0.373371
-0.384014
-0.402363
-0.412962
-0.411258
-0.398431
-0.373845
-0.338522
-0.296805
-0.253396
-0.211537
-0.173377
-0.139886
-0.111301
-0.0878458
-0.0689835
-0.0538122
-0.0425079
-0.0359035
-0.0332653
-0.0322173
-0.0292852
-0.0241766
-0.0188388
-0.0191351
-0.0284714
-0.0455248
-0.0679383
-0.0983372
-0.140812
-0.18976
-0.223145
-0.219012
-0.182357
-0.135081
-0.0960328
-0.0688804
-0.0531896
-0.0524673
-0.0632208
-0.0704453
-0.0711488
-0.0764202
-0.090533
-0.122368
-0.172268
-0.2257
-0.262597
-0.263058
-0.226641
-0.176313
-0.127018
-0.0835167
-0.0463669
-0.0230357
-0.0106905
-0.00748828
-0.00730339
-0.00780368
-0.0025524
-0.334299
-0.33803
-0.35241
-0.359528
-0.356853
-0.346713
-0.328373
-0.302215
-0.270555
-0.236021
-0.200875
-0.167055
-0.135965
-0.108102
-0.08387
-0.0634298
-0.0461649
-0.0318787
-0.0210873
-0.0139912
-0.0101031
-0.00801603
-0.00442235
-0.00215361
-0.0040298
-0.0137296
-0.0307487
-0.0516234
-0.077071
-0.112274
-0.155947
-0.190584
-0.194676
-0.166402
-0.124528
-0.0879523
-0.0613908
-0.0448886
-0.0413163
-0.0485525
-0.0536209
-0.0530656
-0.0619319
-0.080638
-0.118807
-0.176602
-0.239075
-0.282943
-0.286922
-0.245595
-0.188451
-0.133258
-0.0858028
-0.0461732
-0.0216595
-0.00901721
-0.00582898
-0.0055715
-0.00724321
-0.00266441
-0.294269
-0.294551
-0.306211
-0.310908
-0.30895
-0.30253
-0.290254
-0.271764
-0.248057
-0.22062
-0.191222
-0.161549
-0.133012
-0.10642
-0.0822154
-0.0608451
-0.0422325
-0.0261271
-0.012813
-0.0024516
0.00480513
0.00896714
0.0114765
0.0113684
0.00840976
-0.000835287
-0.0170159
-0.036351
-0.0577269
-0.0856532
-0.122409
-0.157317
-0.167112
-0.148335
-0.112998
-0.0797971
-0.0544353
-0.0375687
-0.0318144
-0.0363527
-0.0396494
-0.0359385
-0.0481182
-0.0699889
-0.113448
-0.178233
-0.248556
-0.300299
-0.308726
-0.26384
-0.200553
-0.139644
-0.0883229
-0.0463216
-0.0205863
-0.00757086
-0.00431511
-0.00390943
-0.00670075
-0.00286505
-0.262474
-0.262864
-0.271204
-0.273919
-0.272929
-0.269335
-0.261442
-0.248478
-0.23064
-0.208744
-0.184079
-0.158073
-0.131999
-0.106828
-0.083178
-0.0615023
-0.0419941
-0.024589
-0.0094926
0.00320508
0.0134919
0.0206235
0.0237938
0.0218028
0.0183874
0.00995099
-0.00509629
-0.0226262
-0.0396281
-0.0611495
-0.0931208
-0.126617
-0.143647
-0.131717
-0.102198
-0.0724817
-0.0485898
-0.0314015
-0.0235142
-0.0258917
-0.02889
-0.0190819
-0.03475
-0.0576162
-0.105599
-0.176955
-0.255996
-0.315821
-0.327255
-0.28151
-0.21291
-0.146341
-0.0909923
-0.0466712
-0.0197359
-0.00625324
-0.00285817
-0.00228921
-0.00614478
-0.00314905
-0.239792
-0.242313
-0.245821
-0.245159
-0.243382
-0.240588
-0.235278
-0.22645
-0.213651
-0.197067
-0.177352
-0.155466
-0.132438
-0.109191
-0.0865296
-0.0651077
-0.045283
-0.0271395
-0.0109821
0.00287993
0.0148188
0.0240661
0.0254516
0.0286023
0.0251937
0.0185074
0.00529153
-0.0111802
-0.0254893
-0.0412126
-0.0660404
-0.0948661
-0.111537
-0.10921
-0.0878468
-0.0629078
-0.0414877
-0.0249804
-0.0157825
-0.0160256
-0.0199652
-0.0300333
-0.0245275
-0.0459532
-0.095818
-0.17238
-0.258435
-0.326128
-0.342477
-0.297633
-0.223792
-0.151357
-0.0921933
-0.0461437
-0.0185062
-0.00480984
-0.00135903
-0.00069458
-0.00555147
-0.00350688
-0.220992
-0.232243
-0.233093
-0.22934
-0.224751
-0.219962
-0.213974
-0.205448
-0.193551
-0.178247
-0.160108
-0.140005
-0.118908
-0.0976008
-0.0767084
-0.0567843
-0.0381363
-0.0208063
-0.00508208
0.00861386
0.0206796
0.0311371
0.0403324
0.0365497
0.0315441
0.0253524
0.0155311
0.00238051
-0.00930072
-0.0222086
-0.046041
-0.077076
-0.101273
-0.0931936
-0.0731149
-0.050811
-0.0318532
-0.0172898
-0.00882538
-0.00796209
-0.0106356
-0.0149332
-0.011096
-0.0309801
-0.081891
-0.163438
-0.257411
-0.335169
-0.357188
-0.309992
-0.229859
-0.152528
-0.0909785
-0.0442952
-0.0165444
-0.00291833
0.000350052
0.000937932
-0.00489788
-0.00391278
-0.198591
-0.212484
-0.214452
-0.209399
-0.202866
-0.19673
-0.190412
-0.182428
-0.171726
-0.158091
-0.141987
-0.124189
-0.105486
-0.0864767
-0.0676531
-0.0494748
-0.0322007
-0.015987
-0.001209
0.0117315
0.023205
0.0332728
0.0390137
0.0391274
0.0347683
0.029525
0.0220703
0.0116678
0.00266244
-0.0077842
-0.0304448
-0.0610604
-0.0800901
-0.0747288
-0.0575023
-0.0388322
-0.0229564
-0.0103078
-0.00233039
-0.00074921
-0.00262886
-0.00462486
-0.00142661
-0.0195399
-0.0701419
-0.154656
-0.256244
-0.342691
-0.36826
-0.318827
-0.234068
-0.152864
-0.0894537
-0.0423081
-0.0144838
-0.000963747
0.00207089
0.00250969
-0.00422035
-0.00428698
-0.177852
-0.192324
-0.195104
-0.190116
-0.183125
-0.176601
-0.17036
-0.163078
-0.153642
-0.141683
-0.127481
-0.111656
-0.0948868
-0.0776927
-0.0604786
-0.0436704
-0.0275347
-0.0122764
0.0017819
0.0142386
0.0251198
0.0345605
0.040681
0.0411257
0.0373218
0.0333432
0.0285523
0.0209652
0.0137808
0.00436032
-0.0164873
-0.0446185
-0.0611067
-0.0572963
-0.04345
-0.0281222
-0.0148297
-0.00398278
0.00335661
0.00565447
0.00480221
0.00486796
0.0067436
-0.0108993
-0.0614892
-0.148678
-0.256563
-0.348078
-0.376684
-0.325631
-0.236996
-0.15244
-0.0874551
-0.0399545
-0.0120114
0.00141275
0.00410153
0.00415319
-0.0034208
-0.00461854
-0.159673
-0.172787
-0.175949
-0.1717
-0.164984
-0.158399
-0.152172
-0.145333
-0.136821
-0.126159
-0.113498
-0.0993521
-0.0843253
-0.0688776
-0.0533422
-0.038069
-0.0232573
-0.00913159
0.00394843
0.0156937
0.026
0.0348642
0.0409276
0.0420708
0.0393987
0.0370825
0.0354847
0.0318867
0.0267451
0.017142
-0.00357951
-0.0295774
-0.0432966
-0.0405808
-0.029862
-0.017761
-0.00706253
0.00198164
0.00857999
0.0112768
0.011191
0.012392
0.0137026
-0.00373137
-0.0545462
-0.143839
-0.255118
-0.350149
-0.381578
-0.329279
-0.237626
-0.150604
-0.0845933
-0.0370418
-0.00905741
0.00427527
0.0065256
0.00593226
-0.00245647
-0.00488794
-0.142176
-0.154145
-0.157546
-0.154087
-0.147892
-0.141498
-0.135407
-0.128983
-0.121327
-0.111943
-0.100852
-0.0884108
-0.0751007
-0.0613221
-0.0473391
-0.0334533
-0.0198669
-0.00679453
0.00537134
0.0163932
0.0261177
0.0344284
0.040425
0.0423561
0.0411124
0.0404293
0.0414063
0.0413867
0.038017
0.0277559
0.00720322
-0.0151187
-0.0261525
-0.0250449
-0.0176401
-0.00851608
-9.07092e-05
0.00728819
0.0131531
0.0161699
0.0166319
0.0181667
0.0193369
0.00266034
-0.0476138
-0.13706
-0.24967
-0.347719
-0.381619
-0.328973
-0.235581
-0.147215
-0.0808573
-0.0335624
-0.00557707
0.00766792
0.00939101
0.00787388
-0.00133168
-0.00506295
-0.125693
-0.136783
-0.140209
-0.137362
-0.131777
-0.1258
-0.120056
-0.114144
-0.107328
-0.09911
-0.0894003
-0.0784328
-0.0666031
-0.0542764
-0.0417008
-0.0291502
-0.0168147
-0.0048605
0.00633579
0.0165579
0.0256706
0.0334452
0.0393022
0.0420191
0.0421512
0.0427262
0.0450577
0.0466433
0.0441208
0.0344949
0.0167018
-0.0012492
-0.0107407
-0.0114957
-0.00690352
-0.00022731
0.00624068
0.0120617
0.0171221
0.0202773
0.0210068
0.0222006
0.0233519
0.0082197
-0.0397578
-0.126995
-0.239719
-0.339853
-0.375824
-0.323785
-0.23022
-0.141916
-0.0760942
-0.0295008
-0.00160546
0.0115645
0.0126903
0.00996002
-6.72254e-05
-0.0050986
-0.110712
-0.120685
-0.12395
-0.121617
-0.116698
-0.111289
-0.106036
-0.100679
-0.0946199
-0.0873997
-0.0788891
-0.0692486
-0.0587985
-0.0478652
-0.0366678
-0.025422
-0.0142993
-0.00344081
0.00681298
0.0162397
0.0247293
0.032014
0.0376971
0.0410351
0.0422957
0.0437037
0.0463818
0.0482092
0.0463473
0.0386448
0.0247528
0.0105647
0.00205969
-0.000168572
0.00215777
0.00684496
0.0117094
0.0161789
0.0204854
0.0236839
0.0244969
0.0247566
0.0257486
0.0130098
-0.0308027
-0.114231
-0.225412
-0.325686
-0.362968
-0.31281
-0.221106
-0.134579
-0.0703406
-0.0249411
0.00274169
0.0158355
0.0163338
0.0121421
0.00130323
-0.00494986
-0.096854
-0.105693
-0.108801
-0.106964
-0.102717
-0.097915
-0.0931897
-0.0883843
-0.0830206
-0.0766994
-0.0692808
-0.0608664
-0.0517013
-0.0420583
-0.0321279
-0.0220913
-0.0121156
-0.00232735
0.00699373
0.0156284
0.0234758
0.030279
0.0357477
0.0394894
0.0415991
0.0435443
0.0461614
0.0479195
0.0466697
0.0408442
0.0304225
0.0193137
0.0118136
0.00880972
0.00952806
0.0127195
0.0163868
0.0196902
0.0232721
0.0264432
0.027261
0.0262881
0.0268514
0.0169351
-0.0216785
-0.0999035
-0.206841
-0.304502
-0.342161
-0.29537
-0.207862
-0.125056
-0.063614
-0.0200385
0.0072334
0.0202219
0.0201217
0.0143258
0.0027152
-0.00457888
-0.0839433
-0.0918904
-0.0948747
-0.0934681
-0.0898249
-0.085597
-0.0813972
-0.0771421
-0.0724437
-0.0669523
-0.0605231
-0.0532154
-0.045216
-0.0367513
-0.0279944
-0.0190999
-0.0102177
-0.00145871
0.00695513
0.0148149
0.0220191
0.0283451
0.0335766
0.0375205
0.0401965
0.0424653
0.0448975
0.0465002
0.0456464
0.041292
0.0336524
0.0251302
0.0188073
0.0156853
0.0153787
0.0173907
0.0201716
0.0225675
0.0254472
0.02853
0.0295005
0.0273728
0.0271687
0.0199306
-0.0133383
-0.0847737
-0.184076
-0.275957
-0.312965
-0.271175
-0.190439
-0.113446
-0.056037
-0.0150238
0.0114966
0.0243088
0.0236983
0.0163383
0.00408203
-0.00395543
-0.0721967
-0.0793244
-0.0821322
-0.0810591
-0.0779491
-0.0742657
-0.0705877
-0.0668742
-0.062802
-0.0580652
-0.052523
-0.0462088
-0.0392681
-0.0318872
-0.0242187
-0.0163904
-0.00853073
-0.000744508
0.00679444
0.0139012
0.0204693
0.0263192
0.0312803
0.0352582
0.0382336
0.0406566
0.0428779
0.0442861
0.0437201
0.040561
0.0350834
0.028678
0.0235418
0.0207049
0.0198548
0.020976
0.0230737
0.0248252
0.0270407
0.0298315
0.0310075
0.028366
0.0271776
0.0220206
-0.00610354
-0.0691612
-0.157713
-0.240779
-0.275982
-0.240599
-0.16911
-0.0999968
-0.0477822
-0.0100886
0.0151132
0.0275362
0.0265349
0.0179331
0.00534014
-0.00305761
-0.0615968
-0.0678647
-0.0704458
-0.0696583
-0.0670474
-0.0638875
-0.0607091
-0.0575023
-0.0540038
-0.0499494
-0.0452057
-0.0397869
-0.0338066
-0.0274145
-0.0207424
-0.0138983
-0.00699029
-0.000115416
0.00659008
0.0129701
0.0189166
0.0242875
0.0289412
0.0328214
0.0358883
0.0383479
0.0403909
0.0416444
0.0413391
0.0391438
0.0353011
0.0305841
0.0265513
0.024188
0.0231498
0.023615
0.0251531
0.0264836
0.0280834
0.0304295
0.0314869
0.0289185
0.027128
0.0235059
-5.70339e-06
-0.0538839
-0.129072
-0.200208
-0.232286
-0.20459
-0.144635
-0.0852189
-0.0391768
-0.00539857
0.0178115
0.0294244
0.0281523
0.0189004
0.00648894
-0.00189237
-0.0519083
-0.0574029
-0.0597892
-0.0592678
-0.0571143
-0.0544294
-0.0517024
-0.0489556
-0.0459783
-0.0425399
-0.038513
-0.0338965
-0.0287782
-0.0232795
-0.0175136
-0.0115724
-0.00554446
0.00048434
0.00640591
0.0120907
0.0174358
0.0223255
0.0266399
0.0303311
0.033351
0.0357703
0.0376777
0.0388407
0.0387825
0.0373497
0.0347302
0.0313557
0.0282869
0.0264203
0.0254384
0.0254564
0.0265018
0.0275933
0.0286536
0.0303899
0.0309788
0.0285128
0.0265386
0.0240011
0.0042031
-0.0404246
-0.0999571
-0.156444
-0.184441
-0.165282
-0.118334
-0.0697885
-0.0306148
-0.00116301
0.0194629
0.0297978
0.0283913
0.0191995
0.00753741
-0.000531181
-0.0430783
-0.0479413
-0.0501673
-0.0498641
-0.048094
-0.0458201
-0.043498
-0.0411707
-0.0386645
-0.0357765
-0.0323868
-0.0284831
-0.0241335
-0.0194379
-0.0144916
-0.00937202
-0.00415002
0.00110026
0.00629062
0.0113159
0.0160816
0.0204927
0.0244485
0.0278966
0.0307841
0.0331128
0.0349145
0.0360454
0.0362172
0.0353786
0.0336736
0.0313529
0.0291062
0.027679
0.026875
0.0266545
0.0272665
0.0281507
0.0288528
0.0298493
0.0297047
0.0269583
0.0246354
0.0225371
0.00580688
-0.0290695
-0.072057
-0.112898
-0.136012
-0.125319
-0.0918915
-0.0545211
-0.0224991
0.00242145
0.0201121
0.0288802
0.0274731
0.0189163
0.00837549
0.000688443
-0.0351794
-0.0394648
-0.041497
-0.0413406
-0.0398931
-0.0379901
-0.0360404
-0.034093
-0.0320053
-0.0296019
-0.0267729
-0.0234993
-0.0198329
-0.0158548
-0.0116441
-0.00726504
-0.00277518
0.00176346
0.00627911
0.0106854
0.0148976
0.0188382
0.0224217
0.0256012
0.0283088
0.0305189
0.0322337
0.0333644
0.0337421
0.0333633
0.0323403
0.0308258
0.0292649
0.0282087
0.0275988
0.0273144
0.0275963
0.0282221
0.0287241
0.0291015
0.0282166
0.0250106
0.0224273
0.01987
0.0050575
-0.0206364
-0.0476984
-0.0727528
-0.0904025
-0.087759
-0.0672235
-0.0402798
-0.0151544
0.00526455
0.0199449
0.0270933
0.0257706
0.0181632
0.00885406
0.00160542
-0.0281392
-0.031839
-0.0336551
-0.0336216
-0.0324711
-0.0309065
-0.0292878
-0.0276719
-0.0259481
-0.0239673
-0.0216296
-0.0189103
-0.0158466
-0.0125035
-0.00894642
-0.00522941
-0.00139909
0.00249455
0.00639229
0.0102244
0.013918
0.0174069
0.0206252
0.0235102
0.026011
0.0280883
0.0297242
0.0308649
0.0314148
0.0313857
0.0308682
0.0299632
0.0289483
0.0282079
0.0277646
0.0275131
0.0275885
0.0279588
0.0282801
0.0282098
0.0268984
0.023467
0.0201887
0.0140285
0.00233822
-0.0153386
-0.0282616
-0.039715
-0.0528183
-0.056714
-0.0460898
-0.0277792
-0.00879326
0.00739637
0.0192065
0.024848
0.0236317
0.0170539
0.00893471
0.00216596
-0.0217481
-0.0249573
-0.0266113
-0.0266951
-0.0257984
-0.0245188
-0.0231817
-0.0218531
-0.0204466
-0.0188336
-0.0169223
-0.0146847
-0.0121467
-0.00936049
-0.00638041
-0.00325112
-1.00614e-05
0.0033031
0.0066407
0.00994588
0.0131577
0.0162202
0.0190806
0.0216671
0.0239503
0.0258833
0.0274397
0.0285858
0.0292688
0.0295014
0.0293523
0.0288968
0.0283028
0.0278291
0.0275259
0.0273319
0.0273039
0.0274623
0.0275888
0.0272386
0.0257853
0.0226468
0.0192359
0.013759
0.00325734
-0.00814157
-0.0123886
-0.0163255
-0.026655
-0.0335798
-0.0290897
-0.0172685
-0.00347176
0.00893001
0.0181402
0.0224514
0.0213314
0.0157334
0.00869354
0.00243466
-0.0160243
-0.0188318
-0.0203358
-0.0204934
-0.0197957
-0.018757
-0.0176671
-0.0165912
-0.0154592
-0.014161
-0.0126151
-0.0107925
-0.00871065
-0.00641032
-0.00393593
-0.00132419
0.00139493
0.00419033
0.00702406
0.00985034
0.0126189
0.01528
0.0177864
0.0200916
0.0221571
0.0239393
0.0254113
0.0265484
0.0273216
0.0277419
0.0278571
0.0277241
0.0274456
0.027187
0.0270046
0.0268679
0.0267975
0.0268069
0.0267541
0.026261
0.0248379
0.0222572
0.0194287
0.0158728
0.00866637
0.00201444
0.00127825
-0.00106996
-0.00984104
-0.0169723
-0.0159051
-0.00876494
0.000828493
0.00998891
0.0169383
0.0201056
0.0190209
0.0143256
0.00823863
0.00250035
-0.0109763
-0.0133906
-0.0147199
-0.0149228
-0.0143981
-0.0135747
-0.0127024
-0.0118436
-0.0109447
-0.00991407
-0.00867992
-0.00721308
-0.0055237
-0.00364347
-0.00160835
0.000551603
0.00281238
0.00514995
0.00753461
0.00992981
0.0122943
0.0145862
0.0167654
0.0187967
0.0206452
0.0222721
0.0236497
0.024758
0.0255814
0.026127
0.0264245
0.0265168
0.0264673
0.0263769
0.0262952
0.0262128
0.0261304
0.0260509
0.0258765
0.0253332
0.0240807
0.022055
0.0198963
0.017629
0.0139185
0.0110336
0.0109754
0.00831147
0.000939253
-0.00534081
-0.00608756
-0.00217138
0.00418272
0.0106866
0.015733
0.0179374
0.0168828
0.0129154
0.00765922
0.00243884
-0.00646723
-0.00853212
-0.00970967
-0.00995136
-0.00957459
-0.00893448
-0.00824647
-0.00757113
-0.00686908
-0.006064
-0.00509279
-0.00392724
-0.00257245
-0.00105253
0.000603897
0.00237257
0.00423419
0.00617033
0.00815819
0.0101688
0.0121693
0.0141257
0.0160042
0.0177759
0.0194118
0.0208788
0.0221514
0.023212
0.0240488
0.0246662
0.0250828
0.0253266
0.0254372
0.0254721
0.0254727
0.0254385
0.0253639
0.0252434
0.0250178
0.0244882
0.0234681
0.0219556
0.0204026
0.0190368
0.017291
0.0161318
0.0160566
0.0134716
0.00767449
0.00251993
0.000917217
0.00273708
0.00670664
0.0111115
0.0146016
0.0160069
0.0149357
0.0115581
0.00701591
0.00230118
-0.00244597
-0.00422225
-0.00527307
-0.00553846
-0.00527807
-0.00478839
-0.00425475
-0.00373388
-0.00319676
-0.00258023
-0.00182937
-0.000917517
0.00015398
0.00136726
0.00269981
0.00413207
0.00564867
0.00723567
0.00887589
0.010547
0.0122229
0.0138765
0.0154806
0.0170104
0.0184412
0.0197467
0.0209047
0.0218993
0.0227196
0.0233662
0.0238495
0.024186
0.0243944
0.0245291
0.024594
0.0246018
0.0245467
0.0244203
0.0241726
0.0237165
0.0229231
0.0218234
0.0207268
0.019856
0.0189902
0.0184733
0.0182105
0.0160139
0.0116653
0.00758341
0.00568849
0.00624991
0.00853688
0.0113344
0.013583
0.0143318
0.0132159
0.0102996
0.00634633
0.00212232
0.00109974
-0.000419838
-0.00134685
-0.00162181
-0.00145301
-0.00108788
-0.000684599
-0.00029463
0.00010372
0.000563043
0.00113066
0.001831
0.0026649
0.00361921
0.00467661
0.00582167
0.00704231
0.00832811
0.00966627
0.01104
0.0124289
0.0138118
0.0151667
0.0164736
0.017709
0.0188549
0.019892
0.0208055
0.0215849
0.0222282
0.0227385
0.0231251
0.0234014
0.0235868
0.0237014
0.0237463
0.0237192
0.0236066
0.0233841
0.0229998
0.0223972
0.021607
0.0208269
0.0202121
0.0196884
0.0193388
0.0188894
0.0170959
0.0138865
0.0107058
0.00878058
0.00867637
0.00980907
0.0114072
0.012687
0.0129033
0.0117296
0.00916684
0.00570792
0.00193045
0.00422695
0.00293587
0.00212166
0.00184282
0.00193686
0.00220035
0.00249546
0.00277671
0.00306063
0.00339092
0.00380756
0.00433254
0.00496854
0.00570596
0.00653153
0.00743328
0.00840179
0.00942926
0.0105066
0.0116215
0.0127583
0.0139005
0.0150305
0.016132
0.0171857
0.0181776
0.0190911
0.0199128
0.020633
0.0212472
0.0217547
0.022159
0.0224667
0.0226887
0.0228344
0.0229063
0.0229019
0.0228127
0.022626
0.0223166
0.0218622
0.0212881
0.0207123
0.0202289
0.0198162
0.0194532
0.0188794
0.017413
0.0150268
0.0125613
0.0108559
0.0103047
0.0106446
0.0113655
0.0119073
0.0117005
0.0104663
0.00817068
0.00512111
0.00174341
0.00698469
0.00589124
0.00517704
0.00489788
0.00492722
0.00510241
0.00531155
0.00550889
0.00570186
0.0059277
0.00622079
0.00660122
0.00707322
0.00763017
0.00826175
0.00895882
0.00971411
0.0105218
0.0113753
0.012266
0.0131824
0.0141123
0.0150388
0.0159557
0.0168428
0.0176883
0.0184785
0.0192021
0.01985
0.0204164
0.0208982
0.0212954
0.0216103
0.0218473
0.0220092
0.0220976
0.0221122
0.0220482
0.0218995
0.0216541
0.0213065
0.0208747
0.0204253
0.0200086
0.0196159
0.019197
0.0185599
0.0173372
0.0155222
0.013598
0.0121178
0.0113258
0.0111389
0.0112365
0.0112295
0.0106951
0.00940568
0.00731118
0.00459686
0.0015703
0.00940854
0.00848351
0.00785749
0.00758308
0.00756255
0.0076647
0.00779604
0.0079195
0.00804243
0.0081889
0.00838599
0.00864863
0.0089863
0.00939462
0.00986547
0.0103917
0.010968
0.0115902
0.0122533
0.0129503
0.0136696
0.014419
0.0151735
0.0159212
0.0166539
0.0173604
0.0180299
0.0186527
0.0192201
0.0197259
0.0201658
0.0205377
0.0208404
0.021074
0.0212392
0.0213363
0.0213647
0.0213214
0.0212038
0.0210068
0.0207314
0.0203887
0.0200143
0.0196305
0.0192304
0.0187635
0.0181049
0.0170608
0.0156343
0.014097
0.0127949
0.0118907
0.0113699
0.0110387
0.0106359
0.00985606
0.00852245
0.00658083
0.00413955
0.00141585
0.0115256
0.0107462
0.0102006
0.00993603
0.00987764
0.00992095
0.00998954
0.0100513
0.0101092
0.0101846
0.010301
0.0104759
0.0107095
0.0109993
0.0113395
0.0117252
0.0121532
0.0126215
0.0131271
0.0136667
0.0142365
0.0148129
0.0154038
0.0159994
0.0165902
0.0171673
0.0177212
0.0182435
0.0187264
0.019164
0.0195512
0.0198841
0.0201599
0.020377
0.0205343
0.0206307
0.020665
0.0206349
0.0205392
0.0203752
0.0201457
0.0198563
0.0195241
0.0191557
0.0187448
0.0182501
0.0175965
0.0166822
0.0155154
0.0142448
0.0130783
0.0121143
0.0114039
0.0107892
0.01011
0.00915384
0.00778992
0.00596755
0.00374746
0.00128132
0.0133702
0.0127168
0.0122425
0.0119895
0.0119017
0.0118975
0.0119153
0.011928
0.0119366
0.0119579
0.0120105
0.0121072
0.0122519
0.012443
0.0126761
0.0129472
0.0132538
0.0135941
0.0139663
0.0143674
0.0147928
0.0152363
0.0156931
0.0161574
0.0166226
0.0170819
0.0175278
0.0179533
0.0183518
0.0187175
0.0190451
0.0193304
0.0195697
0.0197602