/*--------------------------------*- C++ -*----------------------------------*\
| =========                 |                                                 |
| \\      /  F ield         | OpenFOAM: The Open Source CFD Toolbox           |
|  \\    /   O peration     | Version:  2312                                  |
|   \\  /    A nd           | Website:  www.openfoam.com                      |
|    \\/     M anipulation  |                                                 |
\*---------------------------------------------------------------------------*/
FoamFile
{
    version     2.0;
    format      ascii;
    arch        "LSB;label=32;scalar=64";
    class       surfaceScalarField;
    location    "101.15";
    object      phi;
}
// * * * * * * * * * * * * * * * * * * * * * * * * * * * * * * * * * * * * * //

dimensions      [0 3 -1 0 0 0 0];

oriented        oriented;

internalField   nonuniform List<scalar> 
10785
(
0.000948114
0.00299462
-0.00394273
0.00392652
0.00216691
-0.00514532
0.010654
-0.00553117
-0.00119628
0.0234496
-0.0208793
0.00808367
0.0434579
-0.043237
0.0232286
0.0691442
-0.0694379
0.0437517
0.0970736
-0.0953454
0.067416
0.123512
-0.117701
0.0912618
0.145725
-0.134758
0.112545
0.162802
-0.146529
0.129452
0.174866
-0.153868
0.141804
0.183782
-0.158282
0.149366
0.191431
-0.161776
0.154127
0.198324
-0.164033
0.15714
-0.167258
0.158111
0.207472
0.00084815
0.00214647
0.0051976
-0.00218254
0.015906
-0.0162396
0.0349737
-0.039947
0.0606389
-0.0689021
0.0882444
-0.0970435
0.113143
-0.120244
0.132457
-0.137015
0.145736
-0.148036
0.154253
-0.155046
0.160338
-0.159953
0.166432
-0.164376
0.173523
-0.168867
0.183036
-0.173545
-0.17975
0.195527
0.00113576
0.00101071
0.00792848
-0.00897526
0.0239516
-0.0322628
0.0481005
-0.0640958
0.0745111
-0.0953128
0.09752
-0.120052
0.114276
-0.137
0.125012
-0.147751
0.131813
-0.154837
0.137188
-0.160422
0.142993
-0.165758
0.149825
-0.171208
0.157717
-0.176759
0.166779
-0.182607
-0.188498
0.175527
0.00199467
-0.000983958
0.0125083
-0.0194889
0.0332867
-0.0530411
0.0579943
-0.0888035
0.0795229
-0.116841
0.094741
-0.13527
0.104287
-0.146546
0.110509
-0.153974
0.115601
-0.159929
0.12072
-0.165541
0.126059
-0.171097
0.131597
-0.176746
0.137446
-0.182607
0.143664
-0.188826
-0.195588
0.150754
0.00340369
-0.00438765
0.0179844
-0.0340696
0.0402084
-0.0752652
0.0608561
-0.109451
0.0755569
-0.131542
0.0846967
-0.14441
0.0904956
-0.152345
0.0948423
-0.15832
0.0986676
-0.163754
0.102287
-0.16916
0.105985
-0.174795
0.110051
-0.180812
0.114683
-0.18724
0.120091
-0.194233
-0.201535
0.126038
0.00529111
-0.00967876
0.0225154
-0.0512939
0.0423324
-0.0950821
0.0573168
-0.124436
0.0665655
-0.140791
0.0719532
-0.149798
0.0753824
-0.155774
0.0779855
-0.160923
0.0803464
-0.166115
0.0828391
-0.171653
0.0856364
-0.177593
0.0887516
-0.183927
0.0921601
-0.190648
0.0956577
-0.197731
-0.204994
0.0991167
0.00726753
-0.0169463
0.0245608
-0.0685872
0.0400988
-0.11062
0.0499924
-0.134329
0.0552662
-0.146065
0.0579714
-0.152503
0.0595844
-0.157387
0.0608685
-0.162207
0.0621258
-0.167372
0.0634053
-0.172932
0.0647096
-0.178897
0.066092
-0.185309
0.0676163
-0.192172
0.0693535
-0.199468
-0.207078
0.0714367
0.00867749
-0.0256238
0.0237746
-0.0836843
0.0349367
-0.121782
0.040713
-0.140105
0.0430383
-0.14839
0.0437774
-0.153242
0.0439377
-0.157547
0.043871
-0.162141
0.0436674
-0.167169
0.0434027
-0.172667
0.0431717
-0.178666
0.0430403
-0.185178
0.0430435
-0.192175
0.0431565
-0.199581
0.0433929
-0.207314
-0.00217156
-0.00470828
0.00687984
-0.00696908
-0.0137022
0.0184997
-0.0135661
-0.0196368
0.0262338
-0.0213342
-0.0243454
0.0321135
-0.0298356
-0.0299141
0.0384155
-0.0386736
-0.0369324
0.0457705
-0.0472972
-0.0451163
0.0537399
-0.0549375
-0.053943
0.0615833
-0.0606391
-0.0626739
0.0683754
-0.0633244
-0.070339
0.0730243
-0.0619457
-0.0757644
0.0743857
-0.0556941
-0.0775504
0.0712987
-0.0441923
-0.0740861
0.0625844
-0.0274867
-0.0639036
0.047198
-0.046842
-0.00591288
0.0252682
-0.00297137
-0.00173691
-0.00890094
-0.00777264
-0.0165475
-0.0119903
-0.0254151
-0.0154778
-0.0353289
-0.0200002
-0.0461058
-0.0261556
-0.0573871
-0.033835
-0.0686101
-0.0427201
-0.0790225
-0.0522614
-0.0876947
-0.0616668
-0.0935036
-0.0699555
-0.0952417
-0.0758123
-0.0919072
-0.0774206
-0.0829721
-0.0728387
-0.0633464
-0.0664677
-0.00302641
0.0012895
-0.00893616
-0.00186288
-0.0162894
-0.004637
-0.0245992
-0.00716806
-0.0337461
-0.0108533
-0.0435624
-0.0163393
-0.0537349
-0.0236625
-0.0638645
-0.0325904
-0.0735301
-0.0425958
-0.0822937
-0.0529032
-0.0897002
-0.0625489
-0.0946578
-0.0708548
-0.0956816
-0.0763968
-0.0933949
-0.0751254
-0.0741322
-0.0826091
-0.00248078
0.00377028
-0.00744013
0.00309647
-0.0134432
0.00136608
-0.0199272
-0.000684095
-0.0266401
-0.00414035
-0.0332278
-0.00975154
-0.0391794
-0.0177109
-0.0439505
-0.0278194
-0.0471852
-0.0393612
-0.0488076
-0.0512807
-0.0486571
-0.0626995
-0.0475976
-0.0719143
-0.0443802
-0.0796142
-0.0401325
-0.0793731
-0.0830114
-0.0312533
-0.00145325
0.00522353
-0.00476451
0.00640773
-0.00867024
0.00527181
-0.0123099
0.00295559
-0.0151505
-0.00129978
-0.0166658
-0.00823625
-0.0161208
-0.0182558
-0.0128417
-0.0310985
-0.00641381
-0.0457891
0.00321193
-0.0609064
0.0146266
-0.0741141
0.0288548
-0.0861426
0.0436901
-0.0944494
0.0606276
-0.0963107
-0.103052
0.0806684
-0.000312276
0.00553581
-0.00160742
0.00770288
-0.0028289
0.00649329
-0.00294988
0.00307657
-0.00106581
-0.00318385
0.00377874
-0.0130808
0.0124401
-0.0269172
0.0251442
-0.0438026
0.0416763
-0.0623211
0.0611996
-0.0804298
0.0831781
-0.0960926
0.1062
-0.109165
0.12987
-0.118119
0.155151
-0.121592
-0.129428
0.181527
0.000592203
0.0049436
0.00117856
0.00711652
0.00261484
0.00505701
0.00619265
-0.000501234
0.0133268
-0.010318
0.0251068
-0.0248608
0.0418565
-0.0436669
0.0630021
-0.0649482
0.0871555
-0.0864746
0.11237
-0.105645
0.137683
-0.121405
0.161544
-0.133026
0.183578
-0.140153
0.206668
-0.144682
-0.147584
0.224823
0.00100087
0.00297207
0.00683281
0.0144152
0.0273259
0.0462168
0.0699659
0.0962795
0.12235
0.146158
0.166556
0.182897
0.19687
0.209328
0.219855
0.0514414
-0.0115738
-0.0457805
0.105705
0.163399
-0.217662
0.157474
0.272356
-0.324125
0.15816
0.342001
-0.342687
0.12435
0.409078
-0.375269
0.138371
0.33146
-0.345481
0.190036
0.0738701
-0.125535
0.232292
-0.177845
0.135588
0.258043
-0.301457
0.275706
0.255469
-0.301704
0.304279
0.231416
-0.343144
0.367197
0.220207
-0.373285
0.384493
0.238664
-0.286362
0.267906
0.261921
-0.0910312
0.0677735
0.272122
0.154206
-0.164408
0.283826
0.352213
-0.363917
0.291369
0.483844
-0.491387
0.289255
0.43388
-0.431767
0.291845
0.163681
-0.166271
0.300335
-0.158672
0.150182
0.301624
-0.539819
0.538529
0.304002
-0.555959
0.553581
0.307064
-0.2143
0.211238
0.319073
0.183441
-0.195449
0.331485
0.735557
-0.747969
0.328189
0.68968
-0.686384
0.293805
-0.386282
0.420667
0.298804
-0.865677
0.860678
0.294411
0.0977604
-0.0933672
0.270339
0.528989
-0.504916
0.252954
0.0646332
-0.0472484
0.262685
-0.228334
0.218602
0.258753
0.116832
-0.112899
0.243242
0.054379
-0.0388681
0.252485
-0.114141
0.104898
0.260686
0.0797299
-0.0879305
0.248278
0.057592
-0.0451839
0.006752
0.00540518
-0.00731686
-0.0707247
0.0727252
0.083357
0.133489
0.211593
0.137536
0.337953
0.131818
0.414797
0.171296
0.291982
0.219624
0.0255416
0.245402
-0.203622
0.260019
-0.316075
0.254356
-0.296041
0.22939
-0.318178
0.222299
-0.366193
0.239201
-0.303264
0.25857
-0.1104
0.270768
0.142008
0.28459
0.338391
0.293143
0.475291
0.291352
0.435671
0.291678
0.163355
0.295982
-0.162976
0.292472
-0.536309
0.296052
-0.559539
0.302217
-0.220464
0.31767
0.167988
0.338644
0.714582
0.334904
0.69342
0.289918
-0.341296
0.290933
-0.866693
0.293764
0.0949297
0.273118
0.549634
0.253888
0.0838638
0.263951
-0.238397
0.260594
0.120188
0.24283
0.0721439
0.251523
-0.122835
0.261045
0.0702078
0.249859
0.0687775
0.0183098
-0.0428029
-0.110531
0.0352316
0.00532254
0.0961035
0.150721
0.122095
0.311962
0.152553
0.384339
0.206095
0.23844
0.246792
-0.0151548
0.255352
-0.212181
0.256145
-0.316868
0.248461
-0.288358
0.220643
-0.29036
0.216735
-0.362286
0.237482
-0.324011
0.254448
-0.127367
0.268334
0.128123
0.283598
0.323127
0.293238
0.465651
0.291571
0.437337
0.288979
0.165947
0.288293
-0.162289
0.279288
-0.527304
0.283637
-0.563889
0.29352
-0.230348
0.311769
0.149739
0.340632
0.68572
0.336631
0.697421
0.283883
-0.288548
0.27986
-0.86267
0.291008
0.0837821
0.274314
0.566328
0.253361
0.104816
0.263575
-0.248612
0.261327
0.122436
0.241527
0.091944
0.249438
-0.130746
0.260473
0.0591732
0.250834
0.0784163
0.0290069
-0.0308561
-0.110928
0.0218687
-0.0474022
0.0848683
0.0877212
0.134413
0.262417
0.186603
0.332149
0.238653
0.186389
0.269492
-0.0459933
0.265045
-0.207734
0.251643
-0.303467
0.245454
-0.282169
0.214755
-0.259662
0.204308
-0.351838
0.231111
-0.350814
0.251562
-0.147817
0.264541
0.115144
0.276259
0.311409
0.286201
0.455708
0.286703
0.436835
0.282996
0.169654
0.278169
-0.157461
0.263746
-0.512881
0.268123
-0.568266
0.281607
-0.243832
0.301124
0.130223
0.336028
0.650816
0.332901
0.700547
0.275871
-0.231518
0.266465
-0.853263
0.285761
0.064486
0.273345
0.578743
0.251204
0.126957
0.261531
-0.258938
0.260926
0.123041
0.239487
0.113383
0.24646
-0.137719
0.259087
0.0465469
0.25124
0.0862633
0.0386044
0.0473978
-0.0776575
0.053622
-0.0536264
0.105309
0.0360342
0.169759
0.197967
0.228837
0.273071
0.269904
0.145322
0.287168
-0.0632576
0.271714
-0.19228
0.244056
-0.275808
0.23808
-0.276192
0.211116
-0.232698
0.187798
-0.32852
0.214372
-0.377388
0.244131
-0.177576
0.260231
0.0990439
0.270156
0.301484
0.27988
0.445984
0.280937
0.435779
0.275168
0.175423
0.265569
-0.147862
0.245877
-0.493189
0.249324
-0.571713
0.266408
-0.260915
0.287538
0.109092
0.327695
0.610659
0.325679
0.702564
0.264279
-0.170118
0.251338
-0.840322
0.278696
0.0371277
0.270931
0.586509
0.247833
0.150055
0.258024
-0.269129
0.259469
0.121596
0.236894
0.135958
0.242863
-0.143687
0.257051
0.0323582
0.251141
0.0921733
0.0468979
0.151805
-0.0479353
0.129526
-0.0313477
0.149946
0.015615
0.202141
0.145772
0.260429
0.214783
0.292714
0.113037
0.294168
-0.0647116
0.270178
-0.16829
0.232583
-0.238214
0.222958
-0.266567
0.205537
-0.215277
0.171304
-0.294287
0.187826
-0.39391
0.229292
-0.219043
0.251281
0.0770546
0.258678
0.294087
0.267069
0.437594
0.270447
0.4324
0.26516
0.180711
0.251394
-0.134096
0.226913
-0.468708
0.228793
-0.573593
0.248825
-0.280948
0.270755
0.0871628
0.313244
0.56817
0.313314
0.702493
0.250594
-0.107398
0.235315
-0.825043
0.269408
0.00303458
0.266406
0.589511
0.243122
0.17334
0.253165
-0.279173
0.256979
0.117783
0.233879
0.159057
0.2389
-0.148709
0.254555
0.0167037
0.250627
0.0961014
0.0537261
0.211064
-0.0341761
0.200212
-0.0204956
0.2073
0.00852663
0.243503
0.109569
0.291668
0.166618
0.31046
0.0942446
0.293962
-0.0482136
0.261591
-0.135919
0.220081
-0.196704
0.203903
-0.250389
0.194278
-0.205652
0.157598
-0.257607
0.157204
-0.393516
0.206531
-0.26837
0.241034
0.0425516
0.250189
0.284931
0.257901
0.429882
0.261205
0.429096
0.254139
0.187777
0.23641
-0.116367
0.207093
-0.43939
0.20654
-0.57304
0.228752
-0.303159
0.25318
0.0627348
0.299252
0.522098
0.3011
0.700645
0.237115
-0.0434126
0.219332
-0.807261
0.259185
-0.036818
0.260924
0.587771
0.237561
0.196703
0.247305
-0.288917
0.253601
0.111487
0.230583
0.182075
0.234792
-0.152917
0.251782
-0.000286902
0.249798
0.0980861
0.0589753
0.213685
-0.0280057
0.210967
-0.0177784
0.219054
0.000439624
0.254385
0.0742389
0.298544
0.122459
0.31074
0.082048
0.285359
-0.0228319
0.250788
-0.101348
0.209435
-0.155351
0.187419
-0.228373
0.179637
-0.197869
0.14416
-0.22213
0.129032
-0.378388
0.173768
-0.313106
0.218754
-0.0024338
0.234029
0.269656
0.242302
0.421609
0.247128
0.42427
0.2429
0.192005
0.222021
-0.0954883
0.187342
-0.404711
0.183237
-0.568935
0.207136
-0.327058
0.232056
0.0378144
0.278624
0.475529
0.282427
0.696843
0.223769
0.0152447
0.203665
-0.787157
0.247082
-0.0802349
0.253488
0.581365
0.231157
0.219034
0.240571
-0.29833
0.249402
0.102656
0.227066
0.204411
0.230715
-0.156567
0.248869
-0.0184409
0.248751
0.0982047
0.0625643
0.414728
-0.0124068
-0.430327
0.401358
-0.00440809
0.395898
0.0058996
0.418252
0.0518846
0.472633
0.0680783
0.511544
0.0431374
0.511093
-0.022381
0.496445
-0.086701
0.470292
-0.129197
0.43645
-0.194531
0.417205
-0.178625
0.391062
-0.195987
0.351519
-0.338846
0.333261
-0.294848
0.314379
0.0164485
0.274603
0.309432
0.278821
0.417391
0.335059
0.368031
0.399293
0.127772
0.431662
-0.127858
0.410314
-0.383363
0.373734
-0.532354
0.348864
-0.302188
0.322564
0.0641143
0.355434
0.442659
0.405405
0.646872
0.398535
0.0221148
0.357948
-0.74657
0.363798
-0.0860856
0.365589
0.579575
0.361593
0.223029
0.377711
-0.314448
0.376966
0.103402
0.344755
0.236622
0.348938
-0.16075
0.3697
-0.0392035
0.366842
0.101063
0.0698287
0.459459
-0.00216094
-0.469705
0.451421
0.00363001
0.452025
0.00529532
0.472894
0.0310156
0.506011
0.0349609
0.53062
0.0185283
0.531478
-0.0232386
0.515022
-0.070245
0.492207
-0.106382
0.458465
-0.160789
0.428378
-0.148538
0.406478
-0.174087
0.371128
-0.303496
0.339609
-0.263329
0.305908
0.0501494
0.273257
0.342083
0.302291
0.388357
0.380664
0.289658
0.450888
0.0575481
0.472973
-0.149942
0.431517
-0.341908
0.38324
-0.484077
0.350058
-0.269006
0.3181
0.0960719
0.364684
0.396075
0.438302
0.573254
0.43163
0.0287867
0.383911
-0.698851
0.385846
-0.0880206
0.392219
0.573202
0.395414
0.219834
0.413032
-0.332066
0.411239
0.105194
0.377683
0.270178
0.38176
-0.164826
0.403817
-0.0612612
0.401236
0.103645
0.0767258
0.507153
0.00349203
-0.512806
0.50351
0.00727299
0.503746
0.00505911
0.518125
0.0166365
0.538759
0.0143271
0.552764
0.00452346
0.556436
-0.0269106
0.54612
-0.0599289
0.525628
-0.08589
0.500169
-0.13533
0.480945
-0.129313
0.456854
-0.149996
0.393985
-0.240628
0.329622
-0.198965
0.288444
0.0913273
0.284372
0.346155
0.353812
0.318917
0.444621
0.198849
0.504778
-0.00260853
0.517965
-0.16313
0.463476
-0.287419
0.391938
-0.412539
0.339864
-0.216932
0.304495
0.131441
0.378774
0.321795
0.48502
0.467008
0.475273
0.0385335
0.411983
-0.63556
0.411506
-0.087544
0.423543
0.561165
0.434376
0.209002
0.45137
-0.34906
0.447635
0.108929
0.414377
0.303436
0.419243
-0.169692
0.442729
-0.0847467
0.439816
0.106558
0.0836377
0.553776
0.00680919
-0.557093
0.553006
0.00804247
0.554878
0.00318716
0.562223
0.00929147
0.575376
0.00117398
0.584125
-0.00422492
0.582793
-0.0255787
0.574027
-0.0511629
0.556787
-0.0686501
0.527627
-0.10617
0.501146
-0.102833
0.478261
-0.12711
0.416931
-0.179298
0.335007
-0.117041
0.305677
0.120657
0.35129
0.300541
0.449837
0.22037
0.529332
0.119355
0.563477
-0.0367539
0.558203
-0.157856
0.494563
-0.223779
0.397656
-0.315633
0.320431
-0.139707
0.292789
0.159084
0.397477
0.217106
0.529572
0.334914
0.521719
0.0463865
0.440619
-0.55446
0.431429
-0.0783539
0.456366
0.536227
0.479507
0.185861
0.493937
-0.36349
0.486949
0.115917
0.455867
0.334517
0.46245
-0.176275
0.48778
-0.110077
0.484022
0.110317
0.0911681
0.602744
0.00729685
-0.603231
0.603035
0.00775149
0.604666
0.00155533
0.60928
0.0046776
0.61567
-0.00521596
0.619909
-0.00846343
0.619029
-0.0246988
0.611327
-0.0434608
0.596576
-0.0538995
0.577745
-0.0873385
0.551427
-0.076515
0.516252
-0.091935
0.457685
-0.120731
0.397423
-0.0567792
0.400736
0.117345
0.477078
0.224199
0.564205
0.133243
0.611391
0.0721691
0.619383
-0.0447455
0.603332
-0.141805
0.542234
-0.162682
0.435811
-0.20921
0.346908
-0.0508038
0.323621
0.182371
0.430895
0.109832
0.577438
0.188371
0.579331
0.0444939
0.476994
-0.452123
0.451543
-0.052903
0.496913
0.490857
0.534614
0.14816
0.542148
-0.371024
0.532238
0.125828
0.504535
0.36222
0.51231
-0.18405
0.539676
-0.137444
0.534737
0.115256
0.100021
0.65391
0.00667632
-0.653289
0.654812
0.00684912
0.655964
0.000403219
0.658624
0.00201777
0.661065
-0.00765662
0.662899
-0.0102971
0.659531
-0.0213313
0.652366
-0.0362957
0.63811
-0.0396431
0.617084
-0.0663127
0.596852
-0.0562828
0.572565
-0.0676481
0.528766
-0.0769326
0.491373
-0.0193858
0.52199
0.0867276
0.598061
0.148128
0.655852
0.0754514
0.675862
0.0521596
0.662031
-0.0309145
0.635843
-0.115617
0.58369
-0.110528
0.500778
-0.126298
0.439416
0.0105584
0.432666
0.189121
0.503251
0.0392474
0.627584
0.0640382
0.639914
0.032164
0.522015
-0.334225
0.480309
-0.0111969
0.550839
0.420327
0.602197
0.0968015
0.592252
-0.361078
0.575372
0.142708
0.557816
0.379775
0.569144
-0.195378
0.597031
-0.16533
0.590902
0.121385
0.109858
0.708332
0.00559619
-0.707251
0.709373
0.00580723
0.709874
-9.76305e-05
0.711557
0.000335087
0.711191
-0.00729081
0.711285
-0.0103904
0.706883
-0.0169295
0.700062
-0.0294754
0.689548
-0.0291286
0.672698
-0.0494632
0.656664
-0.0402481
0.633975
-0.0449593
0.603011
-0.0459688
0.588189
-0.0045638
0.624559
0.0503572
0.677573
0.0951143
0.709044
0.0439804
0.726677
0.0345271
0.714617
-0.0188549
0.683055
-0.0840553
0.639782
-0.067256
0.58185
-0.0683651
0.568222
0.024186
0.596451
0.160892
0.62195
0.0137483
0.687066
-0.00107745
0.70018
0.0190501
0.591505
-0.225549
0.541112
0.039196
0.626953
0.334486
0.678971
0.0447838
0.643527
-0.325635
0.622939
0.163295
0.626168
0.376547
0.638105
-0.207316
0.66262
-0.189844
0.656235
0.12777
0.120385
0.766916
0.00470476
-0.766024
0.768014
0.00470919
0.767867
4.95576e-05
0.768694
-0.000491803
0.767197
-0.00579418
0.766113
-0.00930618
0.762044
-0.0128604
0.755183
-0.0226147
0.746884
-0.0208294
0.731882
-0.0344618
0.719639
-0.0280048
0.703836
-0.029156
0.686579
-0.0287123
0.679806
0.00220929
0.705257
0.0249063
0.74235
0.0580215
0.759434
0.0268969
0.770863
0.0230981
0.761579
-0.00957158
0.735174
-0.0576505
0.709751
-0.0418324
0.673968
-0.0325819
0.683353
0.0148009
0.725913
0.118332
0.729393
0.0102677
0.747707
-0.0193911
0.750392
0.0163655
0.671486
-0.146643
0.639936
0.070746
0.725602
0.24882
0.756358
0.0140276
0.697045
-0.266321
0.691295
0.169045
0.723243
0.344599
0.72367
-0.207743
0.732209
-0.198383
0.72425
0.135729
0.130137
0.830733
0.00407597
-0.830104
0.831584
0.00385815
0.831174
0.000459865
0.831282
-0.000600394
0.829547
-0.00405864
0.827614
-0.00737355
0.823916
-0.00916287
0.817548
-0.0162465
0.811382
-0.0146629
0.79993
-0.0230102
0.791414
-0.0194891
0.780193
-0.0179351
0.769593
-0.018112
0.768014
0.00378842
0.782707
0.0102138
0.805615
0.035113
0.816694
0.0158177
0.826822
0.0129704
0.821858
-0.00460762
0.799452
-0.0352443
0.782739
-0.0251198
0.762539
-0.0123812
0.77376
0.00357946
0.813405
0.078687
0.813262
0.0104101
0.812492
-0.0186207
0.804374
0.0244835
0.753359
-0.0956282
0.751552
0.0725526
0.826484
0.173888
0.831903
0.00860846
0.760089
-0.194508
0.780508
0.148626
0.836929
0.288178
0.813676
-0.18449
0.791033
-0.17574
0.783254
0.143508
0.131688
0.900514
0.00363369
-0.900072
0.901076
0.00329703
0.900636
0.000898938
0.900226
-0.000190043
0.898668
-0.00250085
0.896376
-0.00508115
0.893443
-0.00623006
0.888067
-0.0108705
0.8834
-0.00999533
0.875069
-0.0146799
0.868523
-0.0129433
0.861324
-0.0107361
0.854929
-0.0117163
0.855192
0.00352535
0.862582
0.0028232
0.877176
0.0205195
0.884572
0.00842126
0.889596
0.00794665
0.887341
-0.00235305
0.871637
-0.0195401
0.862127
-0.0156099
0.852382
-0.00263611
0.857049
-0.00108687
0.885447
0.0502889
0.884249
0.0116074
0.880104
-0.014475
0.875073
0.0295143
0.841651
-0.0622067
0.85028
0.0639238
0.908817
0.115352
0.903681
0.0137442
0.835909
-0.126736
0.874549
0.109987
0.940077
0.222649
0.893005
-0.137418
0.843846
-0.126581
0.849469
0.137886
0.117938
0.977191
0.00329075
-0.976848
0.977491
0.0029974
0.977091
0.0012984
0.97645
0.000451544
0.975151
-0.00120213
0.973023
-0.00295311
0.970649
-0.0038558
0.966462
-0.00668356
0.962842
-0.00637543
0.95704
-0.00887738
0.952337
-0.00824043
0.947837
-0.00623655
0.94362
-0.00749879
0.944467
0.00267759
0.947806
-0.000515648
0.956057
0.0122686
0.961134
0.00334401
0.963609
0.00547194
0.963162
-0.0019063
0.953055
-0.0094327
0.946289
-0.00884433
0.942162
0.00149079
0.942259
-0.00118391
0.961689
0.0308594
0.962372
0.0109242
0.9571
-0.00920239
0.954772
0.0318417
0.931822
-0.0392567
0.940411
0.0553353
0.984552
0.0712102
0.979337
0.0189592
0.922769
-0.0701679
0.963333
0.0694226
1.02482
0.161165
0.967346
-0.0799469
0.91425
-0.0734855
0.940065
0.112071
0.0935253
1.06142
0.00305332
-1.06118
1.06157
0.0028398
1.06123
0.0016387
1.0606
0.00108329
1.05956
-0.000158548
1.05781
-0.00120244
1.05596
-0.00200613
1.05286
-0.00358665
1.05018
-0.00369063
1.04625
-0.00495422
1.04289
-0.00487834
1.04
-0.00334826
1.03717
-0.00466465
1.03783
0.00201243
1.039
-0.00167761
1.04373
0.00753821
1.04669
0.000384856
1.04752
0.00463752
1.0475
-0.00188245
1.04124
-0.00317686
1.03702
-0.00461971
1.03587
0.00263282
1.03446
0.000225201
1.04645
0.0188757
1.0468
0.0105713
1.04219
-0.00458688
1.04361
0.0304154
1.02843
-0.0240797
1.03398
0.0497939
1.06443
0.0407525
1.06253
0.0208678
1.02124
-0.0288803
1.05393
0.03673
1.10232
0.112778
1.04918
-0.0268121
1.00885
-0.033157
1.04455
0.0763737
0.0689811
1.15394
0.00284989
-1.15374
1.15405
0.00273184
1.1538
0.00188617
1.1533
0.0015836
1.1525
0.000639216
1.15121
9.25535e-05
1.14984
-0.00063421
1.14766
-0.00141331
1.14573
-0.00175962
1.14308
-0.00230516
1.14076
-0.00255155
1.13889
-0.0014764
1.13687
-0.00265368
1.13728
0.00160351
1.1373
-0.00169277
1.13979
0.00505146
1.14124
-0.00106465
1.14146
0.00441699
1.14167
-0.00209611
1.13796
0.000532423
1.13552
-0.002184
1.13518
0.00297507
1.13339
0.00201274
1.14101
0.0112563
1.14145
0.0101316
1.13768
-0.000810537
1.14051
0.0275812
1.13009
-0.0136609
1.13455
0.0453332
1.15504
0.0202614
1.15505
0.0208649
1.12754
-0.00137128
1.15151
0.0127623
1.18542
0.0788611
1.14393
0.0146836
1.11918
-0.00841218
1.15168
0.0438728
0.0498092
1.25561
0.00266443
-1.25542
1.25571
0.00262941
1.25556
0.00203696
1.25522
0.00192103
1.25466
0.00120357
1.25375
0.000998564
1.25278
0.00033405
1.25133
3.7062e-05
1.24999
-0.000411689
1.24827
-0.000587502
1.24667
-0.000955235
1.24545
-0.000256739
1.24401
-0.00121126
1.24415
0.00146435
1.24369
-0.00123496
1.24494
0.00379877
1.24546
-0.00158066
1.24543
0.00445053
1.24552
-0.00219171
1.24329
0.00276692
1.24205
-0.000943744
1.242
0.00302293
1.24065
0.00336671
1.24515
0.00675569
1.24529
0.00998338
1.24258
0.00190201
1.24636
0.0238035
1.23959
-0.00688734
1.24328
0.0416413
1.25619
0.00734519
1.25679
0.0202683
1.24135
0.0140723
1.25833
-0.00422213
1.27927
0.057918
1.25025
0.0437075
1.23792
0.00392132
1.26251
0.019275
0.0362396
1.36718
0.00248316
-1.367
1.3673
0.00250607
1.36724
0.0020977
1.36706
0.00210185
1.3667
0.00155909
1.36615
0.00155616
1.3655
0.000978565
1.36458
0.000956147
1.3637
0.000473198
1.36262
0.000489346
1.36157
9.44055e-05
1.36079
0.000522338
1.35978
-0.000200063
1.35978
0.00146485
1.35919
-0.000647008
1.35981
0.00318251
1.35973
-0.00150517
1.3597
0.00448602
1.35962
-0.00211239
1.35837
0.00401171
1.35778
-0.000350736
1.35775
0.00305377
1.35683
0.00428742
1.35946
0.00412728
1.3598
0.00963789
1.35806
0.00364873
1.36182
0.0200365
1.35709
-0.00215712
1.36118
0.0375551
1.36891
-0.000389871
1.36943
0.0197485
1.36283
0.020676
1.37353
-0.0149208
1.38584
0.0456074
1.36853
0.0610119
1.36342
0.00903782
1.38024
0.00245135
0.0267401
1.48952
0.00229914
-1.48934
1.48967
0.00235956
1.48968
0.00208587
1.48962
0.00215831
1.48943
0.00174878
1.48914
0.0018535
1.48876
0.00135682
1.48824
0.00147665
1.48771
0.000997828
1.48709
0.00111047
1.48647
0.000711657
1.48602
0.00097389
1.48539
0.000435717
1.48539
0.00146355
1.48484
-9.9297e-05
1.48522
0.00280398
1.48485
-0.00113762
1.4849
0.00443223
1.48466
-0.00186353
1.48392
0.00474316
1.48368
-0.000110494
1.48354
0.00320023
1.4832
0.00462343
1.48471
0.00262336
1.48511
0.00923063
1.48426
0.00450239
1.48773
0.0165651
1.48444
0.00113454
1.48906
0.0329316
1.49314
-0.0044644
1.49334
0.019543
1.49298
0.0210408
1.49884
-0.020781
1.50555
0.0389001
1.4977
0.068854
1.49678
0.00996122
1.50749
-0.00826361
0.0199395
1.6236
0.0021209
-1.62342
1.62376
0.00219885
1.62382
0.00202612
1.62386
0.00211889
1.62378
0.00182058
1.62369
0.00195055
1.62351
0.00153771
1.62329
0.00169446
1.62305
0.00123904
1.62277
0.00138345
1.62251
0.000973919
1.62233
0.00115213
1.62205
0.000721723
1.62214
0.00137332
1.62177
0.000270734
1.62213
0.00244391
1.62161
-0.000620193
1.62185
0.00419014
1.62132
-0.0013351
1.62103
0.00503957
1.62081
0.000106681
1.62061
0.0033974
1.62069
0.00454697
1.62158
0.00172948
1.62213
0.00868608
1.62223
0.00439958
1.62518
0.013612
1.62285
0.00346487
1.62839
0.0273994
1.62939
-0.00546847
1.63008
0.018851
1.63313
0.0179898
1.63409
-0.0217419
1.63886
0.034134
1.63968
0.0680376
1.64027
0.00936959
1.64544
-0.0134329
0.0150435
1.77044
0.00197405
-1.77029
1.77057
0.00206063
1.77064
0.00195754
1.77073
0.00203521
1.77072
0.00182573
1.77076
0.00190674
1.77072
0.00157776
1.77075
0.00166613
1.77074
0.00124892
1.77079
0.00134085
1.77085
0.000907034
1.77096
0.00104841
1.77106
0.000617281
1.77131
0.0011278
1.77123
0.000344264
1.77166
0.00201875
1.77113
-9.25428e-05
1.77156
0.00375795
1.7707
-0.000468533
1.77074
0.00499418
1.77034
0.000509355
1.77006
0.00367852
1.77061
0.00399938
1.77103
0.00130318
1.77186
0.00785996
1.77287
0.00338639
1.77509
0.0113878
1.77392
0.00463732
1.78039
0.0209326
1.77837
-0.00345109
1.78011
0.0171177
1.78497
0.0131227
1.78119
-0.0179578
1.786
0.029323
1.79435
0.0596869
1.79535
0.00837143
1.79592
-0.0140024
0.0115064
1.93129
0.00175575
-1.93107
1.9315
0.00185343
1.93168
0.0017757
1.93188
0.00183554
1.93202
0.00168596
1.93223
0.00169605
1.93234
0.00146706
1.93257
0.00143174
1.93269
0.00112676
1.93294
0.00109722
1.93313
0.000717749
1.93333
0.00084098
1.93359
0.000357768
1.93378
0.000944762
1.93392
0.000203263
1.93424
0.0016946
1.93383
0.000322793
1.93454
0.00304404
1.93337
0.000707237
1.93423
0.00412999
1.93333
0.00140841
1.93332
0.00368886
1.93422
0.00310151
1.93372
0.0018015
1.93528
0.00629713
1.93702
0.0016441
1.93841
0.00999954
1.93966
0.00339168
1.94662
0.0139764
1.94119
0.00197367
1.9456
0.0127043
1.94926
0.00947083
1.93791
-0.00661077
1.94643
0.0207993
1.96705
0.0390693
1.96714
0.00827649
1.95883
-0.00568852
0.0106083
2.10773
0.00130986
-2.10729
2.10819
0.00139652
2.10863
0.00133222
2.10907
0.00139631
2.10947
0.00128795
2.10985
0.00131622
2.11015
0.00116547
2.11043
0.00115937
2.11059
0.000965654
2.11071
0.000974833
2.11072
0.000707216
2.11069
0.000873027
2.11059
0.000452062
2.11052
0.00102146
2.11039
0.000329245
2.11056
0.00152127
2.11037
0.000511561
2.11117
0.00224941
2.11082
0.00105743
2.11212
0.00283
2.11187
0.00166165
2.11259
0.00296952
2.11331
0.00237322
2.11289
0.0022203
2.11469
0.00450304
2.11534
0.000991451
2.1175
0.00783986
2.11926
0.00162866
2.12394
0.00930463
2.12172
0.00418982
2.12586
0.00856501
2.12765
0.00767524
2.11898
0.0020616
2.12653
0.0132527
2.14691
0.018693
2.14801
0.00717391
2.13805
0.00426452
0.0105794
2.30079
0.000824856
-2.3003
2.3013
0.000879255
2.30179
0.000842387
2.30229
0.000900084
2.30275
0.000831518
2.30317
0.000894523
2.30354
0.000791301
2.30384
0.000864635
2.30408
0.000727838
2.30422
0.000827302
2.30428
0.00064994
2.30433
0.000819283
2.30422
0.000570494
2.30433
0.000908568
2.30415
0.000510077
2.30452
0.00115181
2.30451
0.000515867
2.30524
0.00152666
2.30561
0.000681325
2.30659
0.00184892
2.30716
0.00109386
2.30821
0.00191768
2.30876
0.00183009
2.30936
0.00161848
2.31076
0.00310327
2.31057
0.00117861
2.31354
0.00487403
2.31386
0.00130518
2.31673
0.00643185
2.31866
0.00225777
2.32101
0.00622052
2.32323
0.00545463
2.32294
0.00235086
2.32686
0.00933756
2.33573
0.00982222
2.33833
0.00456756
2.33674
0.0058574
0.00824529
2.51192
0.000418884
-2.51151
2.51235
0.000447674
2.51276
0.000430673
2.5132
0.000462533
2.5136
0.000430349
2.51403
0.000467312
2.5144
0.000416713
2.51481
0.000463638
2.51514
0.000391358
2.51551
0.000459482
2.5158
0.000357509
2.51615
0.000468701
2.5164
0.000323476
2.51679
0.000515174
2.517
0.000307552
2.51753
0.000616532
2.51771
0.000335945
2.51847
0.000767259
2.51871
0.000441719
2.51964
0.000914732
2.52009
0.00064357
2.52103
0.000981821
2.52187
0.000986731
2.52263
0.000867104
2.52412
0.0016122
2.52467
0.00062607
2.52707
0.00247034
2.52765
0.000727418
2.53102
0.00306652
2.53178
0.00149624
2.53494
0.00306012
2.53754
0.00285612
2.53786
0.00203039
2.54274
0.00445418
2.54879
0.00377209
2.55077
0.00258808
2.55245
0.00417545
0.00452612
2.74335
-2.74294
2.7438
2.74423
2.74469
2.74513
2.74559
2.74601
2.74647
2.74686
2.74732
2.74768
2.74815
2.74847
2.74899
2.7493
2.74991
2.75025
2.75102
2.75146
2.75237
2.75302
2.754
2.75498
2.75585
2.75746
2.75809
2.76056
2.76129
2.76435
2.76585
2.76891
2.77177
2.7738
2.77825
2.78202
2.78461
2.78879
0.422881
0.0376738
-0.417162
0.428036
0.0662822
0.432784
0.094369
0.437
0.121822
0.437965
0.149789
0.441162
0.17233
0.43548
0.20121
0.212624
0.45288
0.0331156
-0.448322
0.45736
0.061802
0.46066
0.0910688
0.464858
0.117624
0.46638
0.148267
0.46931
0.1694
0.471596
0.198924
0.214516
0.487949
0.0296355
-0.484469
0.491609
0.0581414
0.494762
0.0879161
0.498451
0.113935
0.502782
0.143936
0.506032
0.16615
0.512081
0.192875
0.213791
0.526775
0.0266428
-0.523782
0.530012
0.0549046
0.534053
0.0838754
0.537902
0.110085
0.543672
0.138166
0.547544
0.162279
0.553048
0.187371
0.209746
0.570716
0.023936
-0.568009
0.573835
0.0517861
0.577982
0.079728
0.581761
0.106306
0.586915
0.133011
0.591264
0.15793
0.597302
0.181332
0.203817
0.619073
0.0214891
-0.616626
0.621991
0.0488678
0.625778
0.0759412
0.629672
0.102411
0.634826
0.127858
0.640237
0.152518
0.646786
0.174783
0.197314
0.672189
0.0193014
-0.670001
0.674983
0.0460741
0.678633
0.0722916
0.68279
0.0982541
0.688023
0.122625
0.693692
0.146849
0.700242
0.168233
0.190305
0.730329
0.0173159
-0.728344
0.733014
0.0433891
0.736566
0.06874
0.740823
0.0939973
0.74603
0.117418
0.751911
0.140968
0.758555
0.161589
0.182835
0.793813
0.0155627
-0.79206
0.796409
0.0407934
0.79993
0.0652189
0.804328
0.0895988
0.809525
0.112222
0.815626
0.134867
0.822357
0.154859
0.175088
0.863284
0.0140078
-0.861729
0.865841
0.0382356
0.869305
0.0617557
0.873731
0.0851722
0.878915
0.107038
0.885187
0.128594
0.892099
0.147947
0.167115
0.939212
0.0126535
-0.937858
0.941652
0.0357959
0.94504
0.0583671
0.94953
0.0806831
0.954912
0.101656
0.961412
0.122094
0.96862
0.140739
0.158887
1.02221
0.0114607
-1.02101
1.02459
0.0334128
1.02806
0.0548925
1.03274
0.0760084
1.03836
0.0960319
1.04507
0.115386
1.05261