/*--------------------------------*- C++ -*----------------------------------*\
| =========                 |                                                 |
| \\      /  F ield         | OpenFOAM: The Open Source CFD Toolbox           |
|  \\    /   O peration     | Version:  2312                                  |
|   \\  /    A nd           | Website:  www.openfoam.com                      |
|    \\/     M anipulation  |                                                 |
\*---------------------------------------------------------------------------*/
FoamFile
{
    version     2.0;
    format      ascii;
    arch        "LSB;label=32;scalar=64";
    class       volScalarField;
    location    "67";
    object      p;
}
// * * * * * * * * * * * * * * * * * * * * * * * * * * * * * * * * * * * * * //

dimensions      [0 2 -2 0 0 0 0];

internalField   nonuniform List<scalar> 
2300
(
-0.478497
-0.471004
-0.468199
-0.47025
-0.468242
-0.45449
-0.424121
-0.380034
-0.323651
-0.262501
-0.493292
-0.48046
-0.471904
-0.459296
-0.440413
-0.412531
-0.375501
-0.332018
-0.28549
-0.243237
-0.522686
-0.498328
-0.476968
-0.447029
-0.411999
-0.374005
-0.334534
-0.294723
-0.255749
-0.217619
-0.553112
-0.521183
-0.476401
-0.427821
-0.381493
-0.338473
-0.298589
-0.261358
-0.22699
-0.194514
-0.565911
-0.530049
-0.462886
-0.399934
-0.345961
-0.299923
-0.259943
-0.224919
-0.194017
-0.165618
-0.358849
-0.364587
-0.371579
-0.381355
-0.391175
-0.398988
-0.401594
-0.395297
-0.386768
-0.369039
-0.398869
-0.405443
-0.416878
-0.433649
-0.451953
-0.464289
-0.46681
-0.444918
-0.41522
-0.356616
-0.435038
-0.439917
-0.452481
-0.472145
-0.498331
-0.509047
-0.517321
-0.475878
-0.431517
-0.344993
-0.459145
-0.460389
-0.470009
-0.487346
-0.508022
-0.519063
-0.51602
-0.473426
-0.416615
-0.342029
-0.471325
-0.467718
-0.470843
-0.481577
-0.493444
-0.494956
-0.476461
-0.432878
-0.375806
-0.310346
-0.363394
-0.382568
-0.394384
-0.416423
-0.358107
-0.272143
-0.220535
-0.178979
-0.146992
-0.147045
-0.141533
-0.135938
-0.0846518
-0.0472535
-0.0962629
-0.147559
-0.167878
-0.194641
-0.213696
-0.0789431
-0.01794
-0.0276086
-0.0175901
-0.00660401
0.000392903
-0.30303
-0.272509
-0.249688
-0.252271
-0.221274
-0.192543
-0.183593
-0.202008
-0.228504
-0.234441
-0.170601
-0.14271
-0.0959457
-0.0623714
-0.115882
-0.170465
-0.175251
-0.169332
-0.182601
-0.0850599
-0.0286738
-0.0304132
-0.0121864
-0.00348994
0.00035172
-0.249115
-0.178079
-0.130021
-0.110485
-0.0797621
-0.0670373
-0.0915765
-0.168813
-0.250985
-0.254314
-0.173001
-0.135449
-0.0984285
-0.0710964
-0.128576
-0.179184
-0.163799
-0.13735
-0.1449
-0.0853985
-0.0373745
-0.0328023
-0.00728408
-0.000401336
0.000498365
-0.252594
-0.156952
-0.060281
-0.0137305
0.016219
0.0466745
0.0144441
-0.102368
-0.249406
-0.274102
-0.188402
-0.129948
-0.0956508
-0.0750224
-0.129498
-0.178025
-0.14377
-0.107273
-0.108006
-0.079394
-0.0441611
-0.0346107
-0.00365865
0.00238007
0.000821341
-0.249599
-0.195821
-0.122173
-0.0519935
0.00656326
0.0656211
0.0709231
-0.0253222
-0.181082
-0.22311
-0.168557
-0.121976
-0.085565
-0.0692603
-0.117078
-0.172277
-0.118632
-0.0858825
-0.0716233
-0.0664693
-0.046144
-0.034633
-0.00136807
0.00475522
0.00141981
-0.21589
-0.190117
-0.124456
-0.0633063
-0.0225624
0.036271
0.0747818
0.00255844
-0.135051
-0.175786
-0.133482
-0.0973719
-0.0664131
-0.0586949
-0.104153
-0.152711
-0.0944179
-0.0723539
-0.0642766
-0.0544529
-0.0445138
-0.0339815
-0.000738158
0.00644429
0.00228565
-0.167844
-0.152152
-0.10454
-0.0542138
-0.0154623
0.0203914
0.0384434
-0.00461664
-0.092014
-0.121347
-0.0949226
-0.0716652
-0.0461354
-0.0395443
-0.0905723
-0.152039
-0.0817571
-0.0510392
-0.0486173
-0.0417193
-0.0401772
-0.033256
-9.45108e-05
0.00780981
0.00287959
-0.138059
-0.12921
-0.0973053
-0.0608144
-0.0301584
-0.00359061
0.0130242
-0.00348594
-0.0513209
-0.0746361
-0.065259
-0.0519913
-0.0275234
-0.00661252
-0.043793
-0.0853484
-0.0429951
-0.0196729
-0.0317493
-0.0271862
-0.0327521
-0.0294894
0.000593357
0.00884583
0.00349212
-0.102697
-0.098264
-0.0794837
-0.0543619
-0.0311067
-0.0126392
-0.000305388
-0.00586681
-0.0310892
-0.044141
-0.0383389
-0.0266576
-0.00795647
0.0135601
-0.000617737
-0.0148794
0.0146398
0.00950186
-0.0108769
-0.00720162
-0.0222064
-0.0238792
0.000956588
0.00949283
0.0039682
-0.0724377
-0.0736622
-0.0644179
-0.0484684
-0.03195
-0.0184191
-0.00899589
-0.00812967
-0.0178045
-0.0243291
-0.0202844
-0.0138296
0.00366228
0.026792
0.029023
0.0246014
0.0464883
0.027082
0.00782193
0.0147734
-0.00460536
-0.0141411
1.44544e-05
0.00887948
0.00423604
-0.0489229
-0.0523014
-0.0483341
-0.0390251
-0.0280652
-0.0186952
-0.0115503
-0.00787452
-0.0102938
-0.0116557
-0.00664451
0.000762741
0.0163517
0.0332888
0.0313884
0.032984
0.0471651
0.0357407
0.0239096
0.0333907
0.0163908
-0.00208731
-0.00415571
0.00636936
0.00400257
-0.0285026
-0.0326371
-0.0320267
-0.0273076
-0.0205992
-0.0139865
-0.008518
-0.00451432
-0.00353791
-0.00227955
0.00250823
0.00736726
0.0184132
0.0321778
0.0344493
0.0367938
0.0456281
0.0394538
0.0322636
0.0427749
0.0304038
0.00723979
-0.00609752
0.00484269
0.00400597
-0.0118074
-0.0161828
-0.0174105
-0.015649
-0.0120438
-0.00796433
-0.00430283
-0.000909365
0.00165019
0.00382835
0.0080284
0.0129823
0.0216687
0.031758
0.0347428
0.0357187
0.0411233
0.0386991
0.0359369
0.0415536
0.0297105
0.0113379
-0.00294103
0.00404172
0.00332635
0.00336642
-0.000639571
-0.00258559
-0.00235987
-0.00061593
0.00179085
0.00427903
0.00674705
0.00875672
0.0106812
0.0139166
0.017643
0.0229561
0.029634
0.0329375
0.0343829
0.0373496
0.0363022
0.0347451
0.037957
0.0295685
0.0151835
0.00318044
0.00509535
0.00323746
0.0140739
0.0102794
0.007846
0.00697385
0.00731821
0.00833078
0.00961566
0.0110487
0.0125493
0.0142448
0.0166824
0.0195629
0.0232965
0.0276785
0.030676
0.0319461
0.033081
0.033174
0.0327493
0.0330709
0.0267431
0.0157426
0.00622503
0.0048123
0.0024735
0.027151
0.0240714
0.0216707
0.0202466
0.0197157
0.0197711
0.0201313
0.0206456
0.0212475
0.0219252
0.022937
0.0242795
0.0260284
0.028351
0.0301905
0.0311194
0.0314912
0.0311374
0.0301508
0.0297076
0.0251903
0.0169056
0.00948424
0.00621753
0.00265533
0.0322173
0.0292423
0.0268752
0.0252784
0.024327
0.0237839
0.0234664
0.023297
0.0232519
0.0233709
0.0237642
0.0245055
0.025507
0.0267188
0.0276583
0.0284055
0.0283288
0.0280721
0.0272566
0.0258716
0.0223543
0.0157743
0.00990407
0.0061127
0.00215403
0.0436415
0.0413654
0.0391383
0.0372133
0.0356647
0.0344255
0.033424
0.0325528
0.0318024
0.0311214
0.0305611
0.0301374
0.0298205
0.0297233
0.0294676
0.0293035
0.0285615
0.0277062
0.0262716
0.0244235
0.0216699
0.016484
0.0114961
0.00727405
0.00252374
0.0448307
0.0426906
0.0406691
0.0388574
0.0372496
0.0358178
0.0344859
0.0332831
0.0321143
0.0311219
0.0301463
0.0294471
0.0287522
0.0282985
0.0277509
0.0271575
0.0264823
0.02521
0.0240404
0.0219027
0.0193537
0.0153379
0.0106943
0.00695398
0.00243467
0.0509093
0.0490638
0.0471298
0.0451868
0.0433267
0.0415411
0.0398779
0.038295
0.0367987
0.0354014
0.0340318
0.0328633
0.031609
0.0306634
0.0294585
0.028484
0.0272528
0.0257184
0.0243037
0.0217613
0.019534
0.015752
0.0113218
0.00763291
0.00267362
-0.138446
-0.161636
-0.176601
-0.197917
-0.202705
-0.111772
-0.126407
-0.135921
-0.147327
-0.155697
-0.0858092
-0.0936643
-0.10165
-0.108795
-0.124134
-0.0638398
-0.0679118
-0.0757681
-0.0823471
-0.0947905
-0.0445361
-0.04721
-0.053179
-0.0572443
-0.0642327
-0.0272714
-0.0287087
-0.0319671
-0.0350738
-0.0407839
-0.0114674
-0.0124029
-0.0145405
-0.0175664
-0.0221861
0.00215455
0.00133206
-0.00040271
-0.00297323
-0.00659867
0.0146369
0.0137988
0.0125178
0.0105338
0.0076007
0.0246246
0.0239171
0.022598
0.0205649
0.0178218
0.035256
0.034265
0.0330636
0.031623
0.0297959
0.0419584
0.0409908
0.0396351
0.0376988
0.0351858
0.0511558
0.0498433
0.0484862
0.0470679
0.0455248
0.0545014
0.052776
0.050987
0.049065
0.0469833
0.0599169
0.0579596
0.056127
0.0543812
0.052651
0.0330791
0.0322456
0.0288605
0.0218842
0.00953649
-0.00957309
-0.0396308
-0.0867478
-0.156597
-0.283417
-0.0089749
-0.0170424
-0.0297929
-0.046261
-0.0684674
-0.0991674
-0.142747
-0.207262
-0.292831
-0.428812
-0.0509213
-0.0661547
-0.0858402
-0.109347
-0.139515
-0.179296
-0.232073
-0.30686
-0.402467
-0.523
-0.0920906
-0.113573
-0.137862
-0.166136
-0.201425
-0.246448
-0.304961
-0.382471
-0.475892
-0.566513
-0.132338
-0.156466
-0.183648
-0.215771
-0.254377
-0.301475
-0.360094
-0.433101
-0.515808
-0.572271
0.205258
0.227161
0.252901
0.283021
0.317445
0.355847
0.396912
0.439205
0.475538
0.50299
0.189464
0.207313
0.229204
0.255265
0.284575
0.316419
0.349356
0.381579
0.40467
0.416
0.163113
0.174724
0.191021
0.211013
0.23247
0.254012
0.273778
0.289561
0.290709
0.275241
0.128192
0.133126
0.143011
0.155111
0.166487
0.175181
0.178623
0.174052
0.149458
0.0951509
0.0833469
0.083346
0.0877832
0.0907822
0.0903918
0.0851479
0.0714301
0.0449836
-0.00466524
-0.100361
0.0581401
0.0669395
0.0596103
0.0677593
0.0650363
0.072873
0.0743131
0.0831413
0.0896156
0.100543
0.112544
0.127587
0.143947
0.163273
0.183984
0.0614614
0.0706531
0.0624697
0.0707451
0.0673292
0.0748668
0.0759934
0.0839866
0.0898754
0.0998256
0.1104
0.124285
0.13828
0.155569
0.172601
0.0648725
0.0740909
0.0653687
0.073415
0.0696184
0.0765798
0.0774983
0.0847705
0.0900872
0.0996126
0.108507
0.120838
0.130597
0.143973
0.153912
0.0683366
0.0772735
0.0683107
0.0757649
0.071897
0.0779027
0.0788429
0.0847015
0.0893414
0.0974411
0.104005
0.113516
0.118958
0.127069
0.128182
0.0718589
0.0802307
0.0712285
0.0777809
0.0739414
0.0790145
0.0801397
0.0850623
0.0894894
0.0965812
0.0997891
0.106001
0.104298
0.10566
0.093752
0.0752269
0.0830327
0.0740293
0.0795702
0.0758196
0.0797637
0.0808608
0.0843221
0.0875091
0.0916743
0.0925018
0.0935184
0.0880164
0.0787867
0.0591687
0.0786709
0.0858484
0.0769851
0.081281
0.0778426
0.0802014
0.0813739
0.0826669
0.0846876
0.0858502
0.0845385
0.0809151
0.0732738
0.0603472
0.0442289
0.0826782
0.0889915
0.0804624
0.0830983
0.0801296
0.0805267
0.0815951
0.0807606
0.0813695
0.0798991
0.0762294
0.0699774
0.0608466
0.0482229
0.0332157
0.0873845
0.0924783
0.0845859
0.0850805
0.0826303
0.0812117
0.0814886
0.0790762
0.0777809
0.0742448
0.0687431
0.0609592
0.0512775
0.0392354
0.0256005
0.0929337
0.0963571
0.0894957
0.0875162
0.0852943
0.0824001
0.0812245
0.0777512
0.0744193
0.0690792
0.062552
0.0540886
0.0445285
0.0335064
0.0215594
0.0995622
0.100798
0.0951229
0.090756
0.0881763
0.0840504
0.0810729
0.0767142
0.071695
0.064994
0.0580192
0.0496982
0.0406143
0.030814
0.0205853
0.107625
0.106186
0.10134
0.0949178
0.0914029
0.0861857
0.0814548
0.0761092
0.0700319
0.0626948
0.0556174
0.0479276
0.0396986
0.0312245
0.0227931
0.117415
0.113033
0.108106
0.100193
0.0951789
0.0889241
0.0826803
0.0763607
0.0697323
0.062294
0.0551937
0.0481453
0.0409701
0.0337581
0.0266552
0.129315
0.121712
0.115745
0.106866
0.100015
0.0928564
0.0856336
0.0786223
0.071699
0.0645058
0.0576619
0.0513229
0.045258
0.0393665
0.0336802
0.144035
0.132839
0.12434
0.11412
0.105217
0.096727
0.0887022
0.0811721
0.0740555
0.0671248
0.0606142
0.0547194
0.049328
0.0442544
0.0394182
0.162557
0.148412
0.136851
0.125589
0.115069
0.105207
0.0961476
0.0880065
0.0806702
0.0739484
0.0678074
0.062344
0.0575009
0.0531287
0.0490673
0.185925
0.163462
0.146648
0.1327
0.12081
0.110033
0.100317
0.0917198
0.0841641
0.0775298
0.0716883
0.0665768
0.0621067
0.0581693
0.0546348
0.228903
0.194709
0.170756
0.152852
0.137899
0.124848
0.1135
0.103691
0.0952732
0.0880716
0.0818993
0.076625
0.0721175
0.0682528
0.0648889
0.260174
0.20737
0.178641
0.158718
0.142314
0.128306
0.116405
0.106353
0.0978621
0.0906922
0.0846358
0.0795384
0.0752848
0.07174
0.0687623
0.414698
0.25783
0.216765
0.186647
0.162673
0.143414
0.128093
0.115905
0.106113
0.0981338
0.0916003
0.0862738
0.0819269
0.078367
0.075429
0.0310281
-0.00745858
-0.0465809
-0.0804554
-0.113676
0.0222806
-0.0127339
-0.0485911
-0.0737967
-0.0959112
0.0149624
-0.0122563
-0.0403567
-0.0600174
-0.0751229
0.00968595
-0.0120114
-0.032816
-0.0477519
-0.0569337
0.00778564
-0.00903431
-0.0228582
-0.0330004
-0.0393416
0.00889255
-0.0038666
-0.0129093
-0.0194609
-0.0238462
0.0133846
0.00389603
-0.0020896
-0.00616259
-0.00919657
0.0187494
0.0115449
0.00773913
0.00544114
0.00356708
0.0274605
0.0218392
0.0189544
0.0173097
0.0158524
0.0342088
0.0297074
0.027551
0.0264275
0.0254319
0.0447376
0.0407673
0.0385299
0.0372941
0.0362842
0.0510238
0.0476575
0.045471
0.0440301
0.0429125
0.0615477
0.0582721
0.0557716
0.05398
0.0525282
0.0659407
0.0630843
0.0604975
0.0582462
0.0562872
0.0726538
0.0697682
0.0669824
0.064398
0.062053
-0.300375
-0.319868
-0.350744
-0.375905
-0.387729
-0.296182
-0.308692
-0.326361
-0.347643
-0.355148
-0.28639
-0.296745
-0.304856
-0.307336
-0.29767
-0.272427
-0.277232
-0.276165
-0.266232
-0.245898
-0.256737
-0.254961
-0.246117
-0.229842
-0.203795
-0.242486
-0.233548
-0.218682
-0.198841
-0.17009
-0.23062
-0.214286
-0.194748
-0.172731
-0.142781
-0.22222
-0.196109
-0.174473
-0.150704
-0.121166
-0.210288
-0.179084
-0.157187
-0.131857
-0.104102
-0.196088
-0.165495
-0.140063
-0.115245
-0.0889144
-0.330122
-0.315193
-0.303945
-0.294714
-0.291151
-0.333272
-0.314451
-0.301316
-0.291491
-0.288359
-0.335615
-0.312582
-0.295653
-0.282031
-0.278076
-0.338867
-0.31075
-0.288441
-0.270116
-0.266322
-0.342026
-0.309021
-0.282695
-0.260359
-0.254811
-0.344963
-0.306713
-0.27453
-0.253239
-0.246476
-0.348285
-0.314363
-0.282283
-0.25614
-0.241823
-0.350575
-0.313247
-0.281314
-0.261088
-0.2434
-0.360907
-0.337071
-0.3015
-0.273634
-0.246218
-0.368746
-0.358213
-0.326763
-0.293148
-0.249139
-0.408938
-0.399973
-0.354712
-0.304858
-0.248847
-0.461036
-0.469694
-0.414363
-0.338841
-0.26039
-0.499044
-0.509147
-0.462495
-0.374821
-0.275262
-0.506249
-0.508305
-0.452811
-0.36965
-0.270461
-0.437332
-0.439298
-0.385999
-0.319173
-0.24959
-0.301909
-0.306727
-0.274153
-0.231766
-0.204675
-0.207816
-0.196533
-0.179568
-0.153831
-0.147908
-0.144439
-0.138583
-0.127935
-0.112338
-0.109468
-0.0859224
-0.0878731
-0.0811239
-0.0698257
-0.0685071
-0.0732276
-0.0700392
-0.0684282
-0.0472264
-0.0220833
-0.118902
-0.143796
-0.14218
-0.0757788
-0.0746922
-0.13226
-0.149814
-0.149904
-0.112329
-0.0574076
-0.0706795
-0.0694916
-0.0838583
-0.0826584
-0.065487
-0.0289002
-0.0263512
-0.044874
-0.065053
-0.0661673
-0.0734033
-0.0611543
-0.0582902
-0.0665611
-0.0629551
-0.11785
-0.0936199
-0.0700201
-0.0588781
-0.0510484
-0.146485
-0.114847
-0.0736615
-0.0425632
-0.0121706
-0.210884
-0.213179
-0.199086
-0.171756
-0.134318
-0.23624
-0.245787
-0.237807
-0.21323
-0.171422
-0.0693241
-0.0584117
-0.04982
-0.0435777
-0.0411231
-0.00718058
0.00163516
0.00741097
0.00904294
0.00961383
-0.0251494
-0.0231415
-0.0218214
-0.021004
-0.0198546
-0.0240586
-0.0289807
-0.0325241
-0.0344533
-0.0341684
-0.009463
-0.0118544
-0.013768
-0.0153377
-0.0165224
0.000517667
0.000635373
0.000620821
0.00032835
-0.000346483
-0.213435
-0.168076
-0.132908
-0.102687
-0.0756936
-0.0550269
-0.039676
-0.028107
-0.0212451
-0.0157264
-0.0151066
-0.0120057
-0.01511
-0.0131519
-0.0154846
-0.230938
-0.186528
-0.149717
-0.115845
-0.0862387
-0.0630535
-0.0454149
-0.0318456
-0.0236221
-0.0167751
-0.0156477
-0.0116653
-0.0145632
-0.0125481
-0.014635
-0.232643
-0.187884
-0.151944
-0.118356
-0.0891977
-0.0660822
-0.047945
-0.0337933
-0.0249958
-0.0174604
-0.0158547
-0.0114119
-0.0139416
-0.0119273
-0.0137822
-0.22107
-0.175996
-0.141598
-0.110209
-0.0840803
-0.0630628
-0.0462731
-0.0331822
-0.0247385
-0.0173395
-0.0155006
-0.011048
-0.0132099
-0.0112372
-0.0129284
-0.200961
-0.156856
-0.125198
-0.0961968
-0.0737099
-0.0557751
-0.0413526
-0.0302996
-0.0228789
-0.0163015
-0.014539
-0.0104374
-0.0123388
-0.0104513
-0.0120553
-0.169009
-0.131001
-0.105404
-0.0786374
-0.0609312
-0.0460295
-0.0344965
-0.0258305
-0.0198684
-0.0144781
-0.0130932
-0.009558
-0.0113434
-0.00957541
-0.0111436
-0.124505
-0.0945726
-0.0776539
-0.0558075
-0.0447224
-0.034031
-0.0263523
-0.0203896
-0.0162349
-0.0121361
-0.0113539
-0.00845809
-0.010252
-0.00863452
-0.0101722
-0.0858584
-0.0596596
-0.0471081
-0.0312697
-0.0267007
-0.0202308
-0.0171082
-0.0140272
-0.0120445
-0.00933688
-0.00938332
-0.00714199
-0.00906695
-0.00763088
-0.00913644
-0.0400537
-0.0194085
-0.0114571
-0.00177615
-0.00590179
-0.00489363
-0.00709453
-0.0069491
-0.00741509
-0.00614795
-0.00715944
-0.00556653
-0.00773285
-0.00656265
-0.00803219
0.0214259
0.033426
0.0331812
0.0298798
0.0179802
0.0112257
0.00369178
0.000485752
-0.00245919
-0.00264546
-0.00470181
-0.00376347
-0.00625026
-0.00542173
-0.00687104
0.0492513
0.0467033
0.0514675
0.0459308
0.0319308
0.0232326
0.0126933
0.00731415
0.00239242
0.000958921
-0.00207917
-0.00180259
-0.0046515
-0.00421522
-0.00566644
0.0161652
0.0345513
0.0409002
0.0389752
0.0313461
0.0243459
0.016485
0.0116649
0.00626085
0.00422528
0.000456285
0.000175492
-0.00301873
-0.00300511
-0.0044236
-0.0331151
-0.00845586
0.00783401
0.0171444
0.0191256
0.0186524
0.0159825
0.0133446
0.00913752
0.00714807
0.00296451
0.00220935
-0.00134521
-0.00170073
-0.00314344
-0.0629205
-0.0448412
-0.0220566
-0.00271242
0.00816757
0.0138061
0.0150714
0.0145935
0.0115585
0.00966571
0.00532689
0.00419448
0.000318235
-0.000326789
-0.00185941
-0.0519387
-0.0352161
-0.0159603
0.00047664
0.010573
0.0163917
0.017579
0.017786
0.0143675
0.0123987
0.00759653
0.00613107
0.00198054
0.00111095
-0.000536307
-0.0369936
-0.0215402
-0.00735213
0.00851271
0.0145329
0.0210339
0.0206865
0.0216321
0.0171418
0.0152202
0.00970705
0.00796236
0.00348601
0.00258511
0.000707121
0.00435876
0.0198631
0.0299965
0.039674
0.0414854
0.0388949
0.0333365
0.0280286
0.0211164
0.0175673
0.0115376
0.00956387
0.00487848
0.00425273
0.00203993
-0.093651
-0.044934
0.00673986
0.039199
0.0545249
0.0457873
0.0413268
0.0313274
0.0236802
0.01908
0.0130223
0.0104619
0.00594698
0.00575553
0.0032201
-0.128702
-0.0903508
-0.0402777
-0.00358123
0.020015
0.0269473
0.0287247
0.0260621
0.0220894
0.018564
0.0135481
0.010994
0.00686508
0.00662413
0.0040331
-0.035346
-0.0240813
-0.0116905
-0.00446737
0.00309901
0.0100965
0.0133031
0.0160997
0.0160498
0.0152261
0.0120424
0.010272
0.00692993
0.00611051
0.00414058
-0.00628725
-0.0098062
-0.0129704
-0.00881534
0.00178477
0.0107528
0.0143512
0.0152689
0.014214
0.0131556
0.0106314
0.00909993
0.00660808
0.00504483
0.00414802
-0.0191457
-0.0169162
-0.0126579
-0.00396781
0.00882035
0.019766
0.0219461
0.0190372
0.0152094
0.0125347
0.00970744
0.00804779
0.00605553
0.0038155
0.00376254
-0.0327675
-0.0314867
-0.0289809
-0.0242923
-0.0159548
-0.00692178
0.000316695
0.00533566
0.00831287
0.00887796
0.00768687
0.00659548
0.00529822
0.00294761
0.00324868
-0.0174152
-0.0182046
-0.0186043
-0.0187688
-0.0188342
-0.0193294
-0.0180269
-0.0110058
-0.00292653
0.00250703
0.00469193
0.00515504
0.00461972
0.00252025
0.00249696
-0.00144193
-0.00274046
-0.00469024
-0.00743098
-0.0110377
-0.0125652
-0.011374
-0.00689387
-0.00282061
0.00024034
0.00156649
0.00202797
0.0017609
0.000917883
0.000753834
-0.0765115
-0.0655573
-0.0528497
-0.0435736
-0.0355357
-0.0288699
-0.0234069
-0.0190579
-0.0164407
-0.0144176
-0.015116
-0.0138771
-0.0174053
-0.016603
-0.0196504
-0.0998746
-0.0820214
-0.0639824
-0.0512558
-0.0405028
-0.0317478
-0.0250661
-0.020009
-0.0168695
-0.0147075
-0.0150535
-0.0138235
-0.0170375
-0.0159619
-0.0188704
-0.12225
-0.0989906
-0.0758253
-0.0598382
-0.0461914
-0.0350133
-0.0268767
-0.020918
-0.0172131
-0.0147482
-0.0147711
-0.013563
-0.0165592
-0.0152773
-0.0180568
-0.15001
-0.118157
-0.0904409
-0.0715386
-0.0542078
-0.0400457
-0.0298422
-0.022546
-0.0179762
-0.0148386
-0.014561
-0.0131139
-0.0160723
-0.0145551
-0.01722
-0.178266
-0.138555
-0.106683
-0.0839488
-0.0625893
-0.0458064
-0.033635
-0.024596
-0.0191368
-0.0150559
-0.0146196
-0.0125283
-0.015592
-0.0138159
-0.0163468
0.0898804
0.0550938
0.0167416
-0.0207485
-0.0571668
0.0957786
0.0554926
0.0122126
-0.0307028
-0.0696064
0.100773
0.0523055
0.00309099
-0.0439523
-0.0854506
0.104404
0.0462159
-0.00972026
-0.060997
-0.105542
0.104409
0.0356803
-0.0280431
-0.084308
-0.131807
0.0986615
0.0185461
-0.0545062
-0.11627
-0.166115
0.0835378
-0.00977896
-0.0927945
-0.160615
-0.211406
0.0550357
-0.055767
-0.150669
-0.22309
-0.271213
0.00514005
-0.121256
-0.228166
-0.30172
-0.341693
-0.0918317
-0.237114
-0.33511
-0.385297
-0.395073
0.211056
0.205908
0.190117
0.164217
0.127743
0.23432
0.227409
0.206924
0.176833
0.136069
0.261239
0.252768
0.228288
0.194076
0.149913
0.292518
0.282688
0.254079
0.213706
0.163259
0.328308
0.31666
0.282922
0.233552
0.173508
0.368315
0.353853
0.313523
0.25271
0.179844
0.411345
0.392803
0.343847
0.269329
0.180302
0.456211
0.432115
0.371769
0.280626
0.17163
0.496258
0.464678
0.388246
0.275475
0.142291
0.528458
0.487904
0.392279
0.250064
0.0793383
0.0548944
0.0516946
0.0485003
0.0452571
0.0419708
0.0630125
0.0589703
0.0548949
0.0508247
0.0467685
0.0568004
0.0540509
0.0514297
0.0489037
0.0462529
0.0644745
0.0609877
0.057491
0.0542799
0.0513569
0.0628206
0.060694
0.0585552
0.0565184
0.0544867
0.0704829
0.0677521
0.0650653
0.0623448
0.0604684
0.0725325
0.0707559
0.0688023
0.0668202
0.0656794
0.081751
0.0798065
0.0784149
0.0755992
0.0751525
0.0885701
0.0868073
0.0853099
0.0823673
0.0820668
0.100013
0.0983075
0.0980761
0.093481
0.0942897
0.112488
0.110132
0.109566
0.103768
0.103821
0.128375
0.125935
0.12544
0.118116
0.116272
0.145667
0.142584
0.139794
0.130965
0.123004
0.166102
0.163242
0.158546
0.146035
0.131447
0.188174
0.184535
0.174988
0.155441
0.129335
0.0389291
0.0358236
0.0321499
0.0277881
0.022558
0.0162599
0.00864304
-0.000635921
-0.0120397
-0.0261316
-0.0434379
-0.0649316
-0.103295
-0.123669
-0.262212
0.0427931
0.0387122
0.0341224
0.0289348
0.0230822
0.0164634
0.00892814
0.000299559
-0.00971537
-0.0218107
-0.0367258
-0.0498333
-0.0778491
-0.0827553
-0.125238
0.0436311
0.0408556
0.0374136
0.0332523
0.0282264
0.0221616
0.0149296
0.00645334
-0.00328731
-0.0144701
-0.0286935
-0.038836
-0.0625075
-0.0677241
-0.103029
0.0479282
0.044397
0.0404785
0.0360563
0.0309819
0.0251391
0.0183384
0.0104316
0.00138182
-0.00867445
-0.0225154
-0.0311384
-0.0528014
-0.057883
-0.0823026
0.0520519
0.0492624
0.0457264
0.0413733
0.0361683
0.0299647
0.0227249
0.0143917
0.00507626
-0.00426971
-0.0178137
-0.0255398
-0.0449237
-0.0494386
-0.0655013
0.0571156
0.0535079
0.0493932
0.0447084
0.0392337
0.0328749
0.0255232
0.0170603
0.00752555
-0.0013243
-0.0145044
-0.0215034
-0.0385782
-0.0422319
-0.0539487
0.0630226
0.059727
0.0554705
0.0501661
0.0438748
0.0365706
0.0283711
0.0192926
0.00924552
0.000591244
-0.0122143
-0.0185798
-0.0334589
-0.0365145
-0.0462488
0.0711549
0.0662389
0.0606666
0.0542888
0.0468985
0.0385795
0.0296378
0.0202516
0.0099237
0.00162193
-0.010607
-0.01641
-0.0295224
-0.0322328
-0.040876
0.0778577
0.0724862
0.0658025
0.0579626
0.0492046
0.0397377
0.0299894
0.0203892
0.00987892
0.00200111
-0.00952985
-0.0148652
-0.0265468
-0.0290603
-0.0368022
0.0872251
0.0789028
0.0702595
0.0606873
0.050333
0.0397116
0.0291705
0.0195052
0.00905157
0.00169098
-0.00898209
-0.0138716
-0.024324
-0.0267091
-0.0336064
0.0954617
0.0849067
0.0736477
0.0613772
0.0494269
0.0380373
0.0271508
0.0178258
0.00772893
0.000963778
-0.00877998
-0.0132485
-0.0226519
-0.0249284
-0.031058
0.10091
0.0871066
0.0737137
0.0600494
0.0469953
0.0351432
0.0241927
0.0154482
0.00602529
-4.23586e-05
-0.00880805
-0.0128863
-0.0213971
-0.0235808
-0.0290157
0.105167
0.0887816
0.072193
0.0566736
0.0431129
0.0312507
0.020642
0.0125961
0.00404883
-0.00125749
-0.00900613
-0.0127275
-0.0204222
-0.0225273
-0.0273596
0.103096
0.084359
0.0669705
0.0512639
0.0379257
0.0266352
0.0167924
0.00953243
0.00197952
-0.00259301
-0.00933046
-0.0127267
-0.0196517
-0.0216786
-0.0260075
0.0961537
0.0774953
0.059808
0.0448878
0.0322249
0.0217636
0.0128903
0.00646683
-2.53866e-05
-0.00391387
-0.0096776
-0.0127716
-0.0189928
-0.0209534
-0.0248905
0.0818531
0.0665768
0.051403
0.0379649
0.0263155
0.0169166
0.00907693
0.00352412
-0.00190273
-0.00513265
-0.00996492
-0.0127247
-0.018317
-0.0202272
-0.0238614
0.050104
0.0363831
0.028733
0.0205626
0.0134566
0.00766813
0.00253264
-0.00105785
-0.00482449
-0.00691717
-0.0107574
-0.0127207
-0.0177892
-0.0194097
-0.0228692
0.0139966
0.00363725
0.0014838
-0.00198162
-0.00387006
-0.005203
-0.00661796
-0.00737175
-0.00889912
-0.00944196
-0.0122338
-0.0130422
-0.01764
-0.0186303
-0.0219842
-0.0194627
-0.0239899
-0.0217464
-0.0214552
-0.0192564
-0.0169745
-0.0150842
-0.0132609
-0.0127335
-0.0118634
-0.013705
-0.0134542
-0.0176495
-0.017913
-0.0211773
-0.0506992
-0.0470616
-0.0394292
-0.0348879
-0.0293974
-0.0246673
-0.0205939
-0.0171329
-0.015268
-0.0135773
-0.0147173
-0.0137613
-0.0176122
-0.0172491
-0.0204144
)
;

boundaryField
{
    outlet
    {
        type            fixedValue;
        value           uniform 0;
    }
    upperWall
    {
        type            symmetryPlane;
    }
    lowerWall
    {
        type            symmetryPlane;
    }
    inlet
    {
        type            zeroGradient;
    }
    cylinder
    {
        type            zeroGradient;
    }
    frontAndBack
    {
        type            empty;
    }
}


// ************************************************************************* //
