/*--------------------------------*- C++ -*----------------------------------*\
| =========                 |                                                 |
| \\      /  F ield         | OpenFOAM: The Open Source CFD Toolbox           |
|  \\    /   O peration     | Version:  2512                                  |
|   \\  /    A nd           | Website:  www.openfoam.com                      |
|    \\/     M anipulation  |                                                 |
\*---------------------------------------------------------------------------*/
FoamFile
{
    version     2.0;
    format      ascii;
    arch        "LSB;label=32;scalar=64";
    class       volVectorField;
    location    "74.65";
    object      U;
}
// * * * * * * * * * * * * * * * * * * * * * * * * * * * * * * * * * * * * * //

dimensions      [0 1 -1 0 0 0 0];

internalField   nonuniform List<vector> 
13248
(
(-0.0263916 0.0205292 5.43028e-20)
(-0.0549789 0.0401357 0)
(-0.0622556 0.0464958 -9.35331e-20)
(-0.0448264 0.0463541 8.66064e-20)
(0.00104316 0.0425316 7.96946e-20)
(0.0791804 0.0360025 0)
(0.192005 0.0276375 0)
(0.338125 0.0185656 1.82591e-19)
(0.510404 0.00959742 -6.72277e-22)
(0.696381 0.00121993 -1.5595e-19)
(0.880596 -0.00661708 1.43945e-19)
(1.04785 -0.0144548 -8.91779e-20)
(1.18617 -0.0230497 0)
(1.28867 -0.0330429 -1.5077e-19)
(1.35443 -0.0446733 2.7823e-19)
(1.38794 -0.0577513 -6.66673e-20)
(1.39744 -0.0717755 -1.13184e-19)
(1.39226 -0.0861643 1.05533e-19)
(1.37977 -0.100384 0)
(1.36416 -0.114685 0)
(1.34664 -0.125793 0)
(1.32545 -0.143517 0)
(1.30459 -0.142066 2.68803e-20)
(1.27341 -0.179505 9.07838e-20)
(-0.030958 0.022641 -1.63684e-19)
(-0.0559843 0.0410971 1.03322e-19)
(-0.0489834 0.0442053 -6.49692e-22)
(-0.00790679 0.0397098 -1.32138e-19)
(0.0707111 0.0315664 -7.95788e-20)
(0.189502 0.0221368 -7.4405e-20)
(0.346553 0.013333 -1.34291e-19)
(0.532594 0.00640807 1.25795e-19)
(0.731178 0.00178902 0)
(0.922803 -0.00104885 4.81164e-22)
(1.09002 -0.00333628 1.18942e-21)
(1.2212 -0.00648431 8.85959e-20)
(1.31216 -0.0115624 0)
(1.36576 -0.0189948 0)
(1.38987 -0.0285644 9.82317e-20)
(1.39436 -0.0396854 -1.83419e-19)
(1.38797 -0.0515982 1.05748e-19)
(1.37632 -0.0637983 -9.85998e-20)
(1.36199 -0.0756718 -4.17472e-20)
(1.34565 -0.0869434 -7.44764e-20)
(1.3273 -0.0977831 -2.87103e-20)
(1.30856 -0.107123 -5.33725e-20)
(1.28761 -0.114122 8.01539e-20)
(1.26848 -0.126928 2.16548e-20)
(-0.033171 0.0222921 0)
(-0.0499931 0.037959 0)
(-0.0226363 0.0384085 4.76166e-20)
(0.0496702 0.0313771 4.33821e-20)
(0.169014 0.0219315 -8.12503e-22)
(0.333498 0.0135807 -7.70812e-20)
(0.532024 0.00852995 0)
(0.743888 0.00731602 -6.24265e-20)
(0.944727 0.00885765 5.7748e-20)
(1.11426 0.0111326 8.8339e-23)
(1.2412 0.0121107 -9.52224e-20)
(1.32414 0.0104701 -8.52441e-20)
(1.36954 0.00585393 2.35486e-21)
(1.38792 -0.00130866 -6.69758e-20)
(1.38984 -0.010225 1.6152e-19)
(1.38319 -0.0200837 0)
(1.37234 -0.0302949 -9.96607e-20)
(1.35918 -0.0405217 4.87081e-20)
(1.34452 -0.0502364 4.17055e-20)
(1.32862 -0.0602656 0)
(1.31265 -0.0677554 3.26311e-20)
(1.29516 -0.0782767 -1.07126e-19)
(1.27847 -0.0805818 1.00041e-19)
(1.2592 -0.0944872 5.86511e-20)
(-0.0326174 0.0198055 -5.74562e-20)
(-0.035554 0.0307136 -5.49016e-20)
(0.019 0.0286939 4.91022e-20)
(0.130177 0.0212284 0)
(0.29602 0.0142165 0)
(0.504705 0.0114898 -1.64063e-21)
(0.731321 0.0140257 0)
(0.945414 0.0201246 -1.9035e-19)
(1.12254 0.0268162 1.73749e-19)
(1.25092 0.0314379 -2.10684e-19)
(1.33147 0.0325508 4.73863e-20)
(1.37359 0.030036 0)
(1.38963 0.0246339 7.45669e-20)
(1.3905 0.0173352 -1.36124e-19)
(1.3835 0.00897563 3.22767e-20)
(1.37255 9.92529e-05 7.96522e-20)
(1.35954 -0.00899894 -4.5006e-21)
(1.34545 -0.0179954 -8.58983e-20)
(1.33067 -0.0269979 0)
(1.31568 -0.0351377 0)
(1.29994 -0.0432211 -2.88888e-20)
(1.28422 -0.0505401 2.53672e-20)
(1.26795 -0.0545325 8.81823e-20)
(1.25157 -0.066641 -8.23333e-20)
(-0.028952 0.0158433 -6.03228e-20)
(-0.0109187 0.0207076 -5.59159e-20)
(0.0787266 0.0171575 1.54306e-19)
(0.235801 0.0123356 -9.29595e-20)
(0.449003 0.0122523 8.61046e-20)
(0.690474 0.0190523 1.54919e-19)
(0.922371 0.0304789 -1.07745e-19)
(1.11363 0.0423056 -1.27471e-19)
(1.25007 0.0510193 3.8574e-21)
(1.33374 0.0550379 1.58064e-19)
(1.37628 0.0545405 0)
(1.39171 0.0506368 4.10168e-20)
(1.39163 0.0445585 0)
(1.38364 0.037236 -6.43672e-20)
(1.37197 0.0292463 8.97843e-20)
(1.35876 0.020925 1.07238e-21)
(1.34501 0.0125511 -2.25931e-20)
(1.33103 0.00421432 4.19366e-20)
(1.31695 -0.00367962 3.53066e-20)
(1.30251 -0.0114646 -3.11236e-20)
(1.28811 -0.0183152 2.88756e-20)
(1.27348 -0.025299 -2.53554e-20)
(1.25894 -0.0300078 0)
(1.24441 -0.0394089 -1.8365e-20)
(-0.0215388 0.0110766 6.03076e-20)
(0.0258708 0.00992999 5.8592e-20)
(0.158874 0.0071665 -5.17868e-20)
(0.365809 0.00919658 9.55725e-20)
(0.618691 0.0200781 -8.85217e-20)
(0.872185 0.0375652 7.89168e-20)
(1.08511 0.0557596 -3.7343e-20)
(1.23749 0.0697322 9.57625e-20)
(1.33055 0.0774572 -5.90739e-20)
(1.37756 0.0793429 1.00756e-19)
(1.39448 0.0769283 -2.28404e-19)
(1.39439 0.0718098 8.22492e-20)
(1.38591 0.0651582 -7.02332e-20)
(1.37389 0.0576938 6.53829e-20)
(1.36063 0.0498307 5.50795e-20)
(1.34705 0.041832 4.74155e-20)
(1.33334 0.0338252 -1.30583e-19)
(1.31954 0.0260063 8.0295e-20)
(1.30559 0.0183105 -3.53011e-20)
(1.2917 0.0110963 9.00506e-20)
(1.27776 0.00413607 -2.90038e-20)
(1.26394 -0.00234462 -6.81457e-20)
(1.25019 -0.0073329 6.2297e-20)
(1.23655 -0.015786 1.83593e-20)
(-0.00952775 0.00611303 0)
(0.0765151 0.000493898 7.12406e-22)
(0.259747 0.00233367 1.08942e-19)
(0.514165 0.0157221 -1.00181e-19)
(0.789931 0.039309 -8.92431e-20)
(1.03223 0.0653163 1.62957e-19)
(1.20984 0.0863842 -7.4423e-20)
(1.31986 0.0993243 9.60709e-20)
(1.37617 0.104514 -2.8006e-21)
(1.3971 0.103968 -5.22751e-20)
(1.39807 0.0998281 1.10739e-19)
(1.3894 0.0936909 -1.60867e-19)
(1.3768 0.0865337 0)
(1.36294 0.0788862 -3.03993e-20)
(1.34881 0.0710266 -7.98469e-20)
(1.33472 0.0630973 2.49389e-20)
(1.32076 0.0552344 1.16175e-21)
(1.30697 0.047485 -5.23881e-20)
(1.29342 0.0400407 3.87182e-21)
(1.28003 0.0328514 5.95441e-20)
(1.26685 0.0261025 -2.59998e-20)
(1.25387 0.0198361 -9.42099e-21)
(1.24101 0.0140551 2.96913e-20)
(1.22845 0.00691895 0)
(0.00799843 0.00153558 0)
(0.141818 -0.00542697 2.99498e-20)
(0.37843 0.0059373 -1.41631e-19)
(0.669858 0.0339032 5.08726e-20)
(0.94738 0.068823 -4.71202e-20)
(1.16104 0.0993561 -4.19358e-20)
(1.29782 0.119758 -7.20363e-20)
(1.37009 0.129782 3.59508e-20)
(1.3987 0.131889 3.0409e-20)
(1.40242 0.128979 0)
(1.3941 0.123304 6.52254e-20)
(1.38095 0.116252 -9.52735e-20)
(1.36634 0.10855 7.01768e-20)
(1.35157 0.100551 3.04128e-20)
(1.33708 0.0924341 -2.43635e-20)
(1.32296 0.084329 -1.99394e-20)
(1.3092 0.0763183 -1.8341e-20)
(1.29575 0.0685137 5.50546e-20)
(1.28253 0.0609292 0)
(1.26958 0.0536832 2.66456e-20)
(1.25688 0.0467971 2.17901e-20)
(1.24441 0.040313 -5.43758e-20)
(1.23217 0.0342316 -3.61381e-20)
(1.22024 0.0279691 3.32551e-20)
(0.0316511 -0.00180036 -3.49257e-20)
(0.220999 -0.00538056 -1.42082e-21)
(0.508469 0.0204183 2.89398e-20)
(0.820308 0.063557 7.96431e-20)
(1.08108 0.106222 2.22524e-20)
(1.25756 0.137296 -4.25602e-20)
(1.35552 0.154598 3.82235e-20)
(1.39753 0.160779 -3.25485e-20)
(1.4067 0.159718 5.67368e-20)
(1.39969 0.154633 2.35412e-20)
(1.38611 0.147566 -6.61125e-20)
(1.37057 0.139592 1.91578e-20)
(1.35489 0.13122 3.21213e-20)
(1.33963 0.122692 -1.5685e-20)
(1.32492 0.114146 0)
(1.31069 0.105673 2.2669e-20)
(1.29692 0.0973592 3.77478e-20)
(1.28356 0.08925 6.16337e-21)
(1.27064 0.0814334 -3.08249e-20)
(1.25812 0.0739452 1.26993e-20)
(1.24597 0.0668485 0)
(1.23417 0.0601508 -9.6837e-21)
(1.22263 0.0536775 -8.95578e-21)
(1.21132 0.0478668 0)
(0.0614408 -0.00295661 0)
(0.311302 0.00282141 1.6976e-20)
(0.641061 0.0467455 3.11098e-20)
(0.955454 0.103038 -8.11942e-20)
(1.18743 0.1492 2.58741e-20)
(1.32535 0.177673 0)
(1.39003 0.190407 3.60969e-20)
(1.40939 0.192399 -4.95914e-20)
(1.40557 0.18828 -2.82423e-20)
(1.39207 0.181148 1.25476e-20)
(1.37554 0.172676 -1.95721e-20)
(1.35871 0.163652 4.71736e-20)
(1.34245 0.154424 2.31962e-20)
(1.32692 0.145159 -1.60726e-20)
(1.31212 0.135959 -1.59878e-21)
(1.29798 0.126909 -4.26081e-20)
(1.28444 0.118072 1.92067e-20)
(1.27146 0.109512 -4.37687e-22)
(1.25896 0.101269 0)
(1.24692 0.0934035 -1.27118e-20)
(1.2353 0.0859396 0)
(1.22401 0.0788169 2.78869e-20)
(1.21302 0.0721154 -3.28236e-20)
(1.20225 0.0665687 1.47855e-20)
(0.0967903 -0.000923317 -9.7483e-21)
(0.408206 0.020867 -4.33537e-20)
(0.767324 0.0844754 4.8618e-20)
(1.06942 0.150293 2.76562e-20)
(1.26694 0.196052 -1.313e-20)
(1.36914 0.219712 2.08212e-20)
(1.40713 0.227108 -1.00735e-20)
(1.41029 0.224868 1.61061e-20)
(1.39809 0.217804 0)
(1.38074 0.208639 3.50492e-20)
(1.36257 0.198655 -1.49617e-21)
(1.34501 0.188403 -2.75563e-20)
(1.32842 0.178117 1.16408e-20)
(1.31277 0.167919 -1.29564e-20)
(1.29798 0.157892 -4.84583e-21)
(1.28395 0.148104 5.58074e-21)
(1.27061 0.13861 -4.26049e-21)
(1.25789 0.129445 -2.27108e-20)
(1.24576 0.120662 1.38246e-20)
(1.2342 0.112305 2.79743e-21)
(1.22314 0.104369 2.43233e-21)
(1.21251 0.0968235 2.11476e-21)
(1.20221 0.0898497 0)
(1.19208 0.0840514 0)
(0.136531 0.00526057 9.76012e-21)
(0.506146 0.0496038 -9.04439e-21)
(0.880272 0.132238 -1.62471e-20)
(1.15984 0.203422 0)
(1.32194 0.24563 -6.46048e-21)
(1.39325 0.26303 -5.60713e-21)
(1.41079 0.264731 -9.25583e-21)
(1.40278 0.258296 0)
(1.38536 0.248308 0)
(1.3658 0.237005 0)
(1.34674 0.225318 0)
(1.32884 0.213616 0)
(1.31216 0.20206 -7.32759e-21)
(1.29657 0.190732 3.30764e-21)
(1.28195 0.179692 5.6645e-21)
(1.26821 0.168994 2.61494e-21)
(1.25526 0.158674 6.4104e-21)
(1.24303 0.148765 0)
(1.23147 0.139304 -1.49983e-21)
(1.2205 0.130324 -1.40251e-21)
(1.21008 0.121795 -2.43615e-21)
(1.2001 0.113705 -2.11808e-21)
(1.19047 0.106388 0)
(1.18109 0.10016 1.47901e-21)
(-0.000864988 0.105035 7.05305e-21)
(-0.000281937 0.258979 -6.65735e-21)
(-0.00313854 0.358756 -1.2286e-20)
(-0.0123829 0.414247 0)
(-0.0260595 0.442431 -1.58961e-20)
(-0.0413943 0.458369 4.91602e-21)
(-0.0561045 0.470874 -9.35034e-21)
(-0.0686626 0.482804 0)
(-0.0780438 0.49338 0)
(-0.0834525 0.500332 0)
(-0.0841846 0.501106 0)
(-0.0796295 0.493381 0)
(-0.0693483 0.475307 1.07558e-22)
(-0.0531424 0.445672 -6.99876e-21)
(-0.0310856 0.404018 1.40914e-20)
(-0.00394884 0.350679 2.06166e-20)
(0.0273858 0.286562 6.8433e-21)
(0.0620838 0.213123 0)
(0.0987503 0.131889 6.09956e-21)
(0.13586 0.0440915 -1.7333e-20)
(0.172055 -0.0492965 -1.09691e-20)
(0.209542 -0.147032 -1.02299e-20)
(0.241484 -0.252108 0)
(0.282856 -0.363404 0)
(-0.00538474 0.096506 -2.11803e-20)
(-0.00815046 0.249209 3.33482e-20)
(-0.00681838 0.356354 -1.24205e-20)
(-0.0085472 0.420572 -2.2871e-20)
(-0.0135028 0.454703 3.177e-20)
(-0.0196913 0.472766 -2.00474e-20)
(-0.0249188 0.484197 2.79336e-20)
(-0.0274006 0.492895 1.77599e-20)
(-0.0258523 0.49886 0)
(-0.0193829 0.500234 -1.69735e-20)
(-0.00737979 0.494695 -1.29476e-21)
(0.010517 0.480154 1.46843e-20)
(0.0343848 0.455077 2.22716e-20)
(0.0639909 0.418644 2.98007e-20)
(0.0988201 0.3708 -1.27769e-20)
(0.137938 0.312109 -4.07358e-20)
(0.180199 0.243937 1.40168e-20)
(0.224355 0.167874 -5.11883e-20)
(0.268753 0.0853088 0)
(0.313423 -0.00146322 1.16222e-20)
(0.3548 -0.0930103 1.09497e-20)
(0.399921 -0.18791 1.02119e-20)
(0.432591 -0.291463 0)
(0.485894 -0.401422 0)
(-0.00869107 0.08325 0)
(-0.0150903 0.227864 6.68628e-20)
(-0.0109404 0.339151 -2.47356e-20)
(-0.00589115 0.411807 2.29648e-20)
(-0.00210482 0.453061 -6.35093e-20)
(0.0013074 0.474507 0)
(0.00609552 0.485563 -3.77678e-20)
(0.0140455 0.491178 1.73182e-20)
(0.0265808 0.492475 -3.35081e-20)
(0.0446462 0.488392 1.58757e-20)
(0.0687443 0.477109 9.49984e-20)
(0.0989876 0.456895 -4.4279e-20)
(0.135123 0.42654 -7.54794e-20)
(0.176549 0.385526 -3.11759e-20)
(0.222369 0.334069 -2.52991e-21)
(0.271405 0.273 1.09557e-19)
(0.322251 0.203681 -5.21058e-20)
(0.373304 0.127857 5.37947e-22)
(0.423197 0.0470419 0)
(0.473412 -0.0353936 -4.58406e-20)
(0.516639 -0.124178 0)
(0.56934 -0.214221 -4.13226e-20)
(0.603107 -0.316496 1.50918e-19)
(0.672014 -0.423431 -2.57862e-21)
(-0.0103987 0.0671933 0)
(-0.0202392 0.197366 -1.35082e-22)
(-0.0152252 0.308079 2.44559e-20)
(-0.00525182 0.387272 -2.26488e-20)
(0.00619278 0.435991 2.09561e-20)
(0.0187541 0.462156 1.17586e-19)
(0.0333588 0.474145 -3.66549e-20)
(0.0514247 0.477545 -3.44278e-20)
(0.0742871 0.474685 6.61711e-20)
(0.102864 0.465603 -9.67923e-20)
(0.137562 0.449272 2.91773e-20)
(0.178293 0.424494 2.90525e-20)
(0.224533 0.390428 0)
(0.275369 0.346809 2.84525e-20)
(0.329593 0.294019 0)
(0.385763 0.233084 5.17527e-20)
(0.441938 0.164903 -1.0435e-19)
(0.497599 0.0927119 2.22568e-20)
(0.55089 0.0155732 9.34292e-20)
(0.604749 -0.0618908 4.57906e-20)
(0.651682 -0.149441 0)
(0.714981 -0.236255 -1.18726e-19)
(0.756501 -0.341179 3.79964e-20)
(0.844882 -0.445069 0)
(-0.0105186 0.0505775 0)
(-0.0231625 0.161635 -7.93813e-20)
(-0.0193941 0.266164 -2.39881e-20)
(-0.00722752 0.348041 -4.48082e-20)
(0.0096178 0.402926 4.15129e-20)
(0.0297979 0.434441 -3.89041e-20)
(0.0532186 0.448873 7.26437e-20)
(0.0805598 0.451627 3.55849e-20)
(0.112735 0.445893 -9.63801e-20)
(0.150443 0.432847 6.23918e-20)
(0.193933 0.412447 -8.9249e-20)
(0.242944 0.384217 1.98259e-19)
(0.296729 0.347788 -1.07963e-19)
(0.354149 0.303217 5.19767e-20)
(0.41379 0.250926 1.56478e-19)
(0.473884 0.192115 -4.78257e-20)
(0.533514 0.127698 -4.39466e-20)
(0.592621 0.0608902 -4.68005e-20)
(0.650076 -0.013098 0)
(0.711376 -0.0868227 -8.55891e-20)
(0.771674 -0.17592 -8.02233e-20)
(0.852206 -0.260644 1.13506e-19)
(0.911207 -0.368623 1.36343e-19)
(1.01608 -0.462223 -1.24604e-19)
(-0.00945891 0.0354416 0)
(-0.0240623 0.125254 -1.04279e-19)
(-0.0233212 0.218304 8.08665e-22)
(-0.0119758 0.297542 8.87578e-20)
(0.00713583 0.355185 0)
(0.0322863 0.390968 0)
(0.0625067 0.408511 0)
(0.0975673 0.412177 -3.39006e-20)
(0.13766 0.405351 -1.13481e-21)
(0.182989 0.390007 5.80952e-20)
(0.233472 0.367025 -8.8201e-20)
(0.288605 0.336723 -1.74174e-21)
(0.347469 0.299318 0)
(0.408888 0.255149 -5.19562e-20)
(0.471574 0.204805 4.92631e-20)
(0.535174 0.149801 -1.38789e-19)
(0.599717 0.0895614 1.84699e-19)
(0.666541 0.0260538 4.62779e-20)
(0.738113 -0.0469489 3.45691e-21)
(0.818509 -0.120058 -1.58518e-19)
(0.904485 -0.211519 -7.19928e-20)
(1.00375 -0.292134 2.3847e-19)
(1.08023 -0.396996 -1.54241e-19)
(1.17984 -0.469139 0)
(-0.00793868 0.0232654 5.46792e-20)
(-0.0238597 0.092428 5.20829e-20)
(-0.0273017 0.17027 -4.72312e-20)
(-0.0193263 0.24136 -8.67541e-20)
(-0.00120501 0.296784 8.03721e-20)
(0.0256059 0.333662 -7.34401e-20)
(0.059677 0.353141 1.0165e-19)
(0.0999901 0.358095 -3.35588e-20)
(0.145921 0.351457 5.89719e-20)
(0.196999 0.335475 0)
(0.25268 0.311638 5.32839e-20)
(0.312297 0.280924 -9.75628e-20)
(0.375072 0.244004 9.99779e-20)
(0.440669 0.201653 -9.30593e-20)
(0.509627 0.154312 0)
(0.583275 0.102334 8.91796e-20)
(0.663696 0.0439272 1.71924e-19)
(0.753448 -0.0189081 -1.62758e-19)
(0.853286 -0.0916258 -7.59873e-20)
(0.961334 -0.163644 -7.70116e-20)
(1.07002 -0.250289 2.10342e-19)
(1.17303 -0.319028 5.74331e-20)
(1.24609 -0.407692 -5.57549e-20)
(1.30839 -0.449152 4.59744e-20)
(-0.00686117 0.0148686 -5.4693e-20)
(-0.0240559 0.0661669 1.52845e-19)
(-0.0322011 0.127261 -4.70779e-20)
(-0.0291042 0.185924 8.55044e-20)
(-0.0144037 0.234004 -7.92153e-20)
(0.0110978 0.267558 -2.38806e-22)
(0.0459538 0.286058 3.29466e-20)
(0.0886992 0.290992 1.20515e-19)
(0.138127 0.284559 7.34646e-22)
(0.193332 0.268869 -5.37751e-20)
(0.253765 0.245631 0)
(0.319405 0.216102 -4.85626e-20)
(0.391092 0.181192 9.13656e-20)
(0.470445 0.141274 9.14797e-20)
(0.559524 0.0960664 -4.27548e-20)
(0.66032 0.0453451 -2.33606e-21)
(0.773067 -0.0113808 -4.1737e-20)
(0.895588 -0.072277 7.46961e-20)
(1.02134 -0.139272 7.59939e-20)
(1.1424 -0.20304 -7.12681e-20)
(1.24552 -0.273513 5.93697e-20)
(1.32305 -0.323003 -5.31937e-20)
(1.36116 -0.386736 0)
(1.36898 -0.400797 -4.60135e-20)
(-0.00716608 0.0105068 5.36473e-20)
(-0.0263215 0.0479861 -5.09322e-20)
(-0.0391354 0.0928234 4.6379e-20)
(-0.0411035 0.136823 0)
(-0.0306379 0.173776 0)
(-0.00782842 0.199969 6.94928e-20)
(0.0262644 0.214176 -6.53054e-20)
(0.0703609 0.216998 5.863e-20)
(0.123546 0.209962 -2.75898e-19)
(0.185635 0.194804 -7.73022e-22)
(0.257414 0.172999 4.81887e-20)
(0.340562 0.145531 0)
(0.4371 0.112948 -9.0654e-20)
(0.54841 0.0752681 1.71786e-19)
(0.674017 0.0328124 -1.23835e-19)
(0.810634 -0.0142133 -2.02358e-19)
(0.952063 -0.0645276 -3.0282e-21)
(1.08933 -0.11701 1.37577e-19)
(1.21169 -0.170088 0)
(1.30978 -0.218684 0)
(1.37303 -0.267351 -5.93974e-20)
(1.40263 -0.297523 5.32222e-20)
(1.39403 -0.338848 -1.69024e-19)
(1.36473 -0.338313 1.57598e-19)
(-0.00958766 0.00997078 0)
(-0.0317559 0.0380192 0)
(-0.0484323 0.0685753 -1.38415e-19)
(-0.0539874 0.0978604 4.34638e-20)
(-0.0460749 0.12213 1.29882e-21)
(-0.0240091 0.138735 7.06152e-20)
(0.0121865 0.146531 0)
(0.0625537 0.145734 -5.87764e-20)
(0.12781 0.137335 5.47624e-20)
(0.209411 0.122487 -1.01407e-19)
(0.308985 0.102196 -1.03825e-21)
(0.427327 0.0771984 9.19101e-20)
(0.563131 0.0480642 2.46186e-21)
(0.712211 0.015261 8.65791e-20)
(0.867463 -0.02038 -1.17891e-19)
(1.01938 -0.058446 0)
(1.15766 -0.0970768 1.42723e-19)
(1.27178 -0.136347 -2.02362e-19)
(1.35457 -0.172735 5.83398e-20)
(1.40162 -0.206492 0)
(1.41448 -0.236288 4.72802e-20)
(1.40261 -0.255362 1.72395e-19)
(1.37071 -0.284028 -1.61e-19)
(1.33811 -0.280336 -1.60998e-19)
(-0.0142536 0.0124885 1.58896e-19)
(-0.0399779 0.0351447 -2.00696e-19)
(-0.0582306 0.0543836 7.87348e-22)
(-0.0634412 0.0707603 4.27701e-20)
(-0.0526601 0.0831066 -7.74817e-20)
(-0.0239746 0.0901512 -7.03751e-20)
(0.0242913 0.0912466 1.27602e-19)
(0.0941209 0.0864759 -1.43553e-21)
(0.187327 0.0764893 -1.08947e-19)
(0.304634 0.0621598 2.03101e-19)
(0.444383 0.0443477 1.3126e-21)
(0.601626 0.0237462 -8.90393e-20)
(0.768194 0.0009242 0)
(0.933614 -0.0236722 0)
(1.08653 -0.0495755 -3.89742e-20)
(1.2164 -0.0764878 -6.9458e-20)
(1.31529 -0.103284 -1.31972e-19)
(1.37889 -0.130255 1.23038e-19)
(1.40896 -0.154074 -5.84069e-20)
(1.41033 -0.178221 9.78808e-20)
(1.39467 -0.196387 -5.15604e-20)
(1.37024 -0.214442 7.29684e-20)
(1.34345 -0.234923 -1.7724e-19)
(1.31991 -0.233821 3.21882e-20)
(-0.020346 0.0166164 5.31437e-20)
(-0.0487614 0.0369749 0)
(-0.064366 0.0482904 9.24796e-20)
(-0.0624786 0.0547906 -8.56326e-20)
(-0.0396291 0.0576516 7.75844e-20)
(0.00761695 0.0568936 0)
(0.082299 0.0523196 0)
(0.186414 0.0443399 -5.96216e-20)
(0.319545 0.0337794 3.47951e-22)
(0.477235 0.0214545 5.13444e-20)
(0.650759 0.00797102 -4.82184e-20)
(0.828206 -0.00635285 8.91306e-20)
(0.996461 -0.0214929 0)
(1.14341 -0.0375864 1.56967e-19)
(1.25987 -0.054754 -2.91619e-19)
(1.3411 -0.0728589 2.05057e-19)
(1.38746 -0.0914501 1.21975e-19)
(1.40434 -0.110207 -1.13727e-19)
(1.40068 -0.127527 0)
(1.38526 -0.146213 0)
(1.36672 -0.159004 0)
(1.34486 -0.179484 0)
(1.3245 -0.187903 3.31721e-20)
(1.3017 -0.197596 -1.06447e-19)
(0.318557 -0.496665 -5.22456e-21)
(0.359529 -0.647733 5.25856e-21)
(0.399997 -0.770597 -1.34466e-22)
(0.432527 -0.848095 0)
(0.454336 -0.876978 -2.55462e-21)
(0.470722 -0.859974 4.59928e-21)
(0.480414 -0.81657 -2.08143e-22)
(0.466793 -0.785997 -1.79576e-21)
(0.424886 -0.785253 0)
(0.381941 -0.775229 0)
(0.376864 -0.689979 -1.09002e-22)
(0.422375 -0.50125 -1.20944e-22)
(0.497242 -0.236 -2.39177e-21)
(0.577452 0.0622317 2.19569e-21)
(0.651507 0.343906 0)
(0.711901 0.553882 0)
(0.757122 0.664732 1.17443e-21)
(0.786095 0.698062 -2.20024e-22)
(0.797233 0.692219 -8.45185e-22)
(0.802372 0.665032 -4.24564e-23)
(0.807042 0.639323 0)
(0.798212 0.65615 0)
(0.767338 0.712158 0)
(0.726433 0.729626 0)
(0.698737 0.617932 0)
(0.694074 0.36221 0)
(0.710817 0.0307821 4.61695e-22)
(0.739021 -0.273823 -7.65409e-22)
(0.766766 -0.477909 0)
(0.791772 -0.563847 0)
(0.81613 -0.578064 -2.32901e-22)
(0.822607 -0.587093 2.26305e-22)
(0.793917 -0.608316 8.76723e-23)
(0.732753 -0.612849 0)
(0.662934 -0.543958 0)
(0.616382 -0.37344 2.73262e-22)
(0.604821 -0.11489 -2.65591e-22)
(0.623179 0.138396 0)
(0.671423 0.324576 1.75567e-22)
(0.719859 0.420089 -2.41942e-22)
(0.721826 0.488826 6.00335e-23)
(0.680739 0.516986 0)
(0.620152 0.476627 -1.28236e-22)
(0.591136 0.329898 1.24691e-22)
(0.594192 0.121111 0)
(0.64936 -0.0674842 0)
(0.693474 -0.224876 -4.45604e-23)
(0.696427 -0.304486 1.27321e-22)
(0.67849 -0.383123 0)
(0.676484 -0.363536 0)
(0.682878 -0.335266 -2.39016e-23)
(0.736403 -0.180961 4.22196e-24)
(0.738278 0.0566618 -9.28083e-25)
(0.729849 0.319628 1.6103e-23)
(0.695717 0.494427 0)
(0.705985 0.320931 0)
(0.713575 0.0805741 0)
(0.680687 -0.230193 0)
(0.687986 -0.309461 0)
(0.6329 -0.0890097 0)
(0.51746 -0.535787 -5.45202e-22)
(0.552565 -0.69019 -1.9462e-20)
(0.582946 -0.809628 2.84909e-21)
(0.596825 -0.876323 1.54946e-20)
(0.590899 -0.894194 1.76706e-22)
(0.572296 -0.872065 0)
(0.553012 -0.816324 -7.04076e-21)
(0.528218 -0.756819 1.33777e-20)
(0.479743 -0.732712 -6.33295e-21)
(0.413737 -0.731314 6.4138e-21)
(0.365603 -0.685642 -6.11933e-21)
(0.36435 -0.539105 7.576e-21)
(0.40725 -0.297258 -7.30762e-21)
(0.475234 -0.00708668 -2.28083e-22)
(0.550711 0.275314 -6.77666e-21)
(0.622527 0.494746 6.58112e-21)
(0.685769 0.622769 -4.33261e-21)
(0.732861 0.675586 4.09719e-21)
(0.761581 0.682313 -2.95019e-21)
(0.78336 0.659947 5.5178e-21)
(0.801627 0.63975 -2.58121e-21)
(0.804535 0.666438 -1.6547e-22)
(0.78659 0.731756 -3.43193e-21)
(0.760709 0.752264 7.59225e-21)
(0.7482 0.635678 -4.1367e-21)
(0.754558 0.368411 3.45712e-22)
(0.775802 0.0247722 5.57226e-21)
(0.801501 -0.287913 -5.50093e-22)
(0.821089 -0.494238 -7.88042e-21)
(0.831705 -0.578057 5.89343e-21)
(0.839822 -0.584743 -2.45561e-21)
(0.833675 -0.580268 1.99665e-22)
(0.796325 -0.586854 -8.78541e-23)
(0.727527 -0.582829 1.53946e-22)
(0.648348 -0.51742 0)
(0.594339 -0.360449 0)
(0.579931 -0.118943 -8.96486e-22)
(0.605155 0.119709 6.81969e-22)
(0.660595 0.302694 4.60174e-22)
(0.713958 0.409259 -1.46267e-23)
(0.716917 0.494763 -5.5713e-22)
(0.682377 0.533546 1.18535e-22)
(0.624343 0.493475 0)
(0.595919 0.336784 0)
(0.595658 0.113252 0)
(0.652514 -0.0830003 0)
(0.70414 -0.233542 2.29346e-22)
(0.709039 -0.303201 -8.40669e-23)
(0.69363 -0.380292 0)
(0.688958 -0.36482 0)
(0.695604 -0.342624 0)
(0.740547 -0.187453 -3.13663e-23)
(0.735823 0.0568894 8.41098e-24)
(0.728621 0.32405 -3.5215e-23)
(0.697618 0.496258 0)
(0.710721 0.320289 0)
(0.716481 0.082829 2.03604e-23)
(0.6791 -0.226896 5.70685e-23)
(0.68714 -0.305781 0)
(0.635572 -0.0838413 0)
(0.699266 -0.556013 -3.34122e-21)
(0.728509 -0.706431 -4.33388e-20)
(0.74894 -0.817274 3.26541e-20)
(0.745339 -0.871684 -3.05372e-20)
(0.719296 -0.87418 -1.77958e-22)
(0.676518 -0.846552 0)
(0.628787 -0.796618 -1.37161e-20)
(0.586265 -0.728626 1.33902e-20)
(0.53353 -0.68015 9.0806e-23)
(0.457502 -0.671801 1.50443e-22)
(0.379594 -0.65529 1.52177e-22)
(0.336609 -0.556799 2.06742e-22)
(0.34312 -0.352535 -1.33963e-20)
(0.389416 -0.0815207 1.32386e-20)
(0.460097 0.194769 0)
(0.540801 0.42085 2.98525e-22)
(0.618835 0.566116 -7.67994e-21)
(0.681806 0.639591 7.56935e-21)
(0.727582 0.66098 0)
(0.76582 0.646046 0)
(0.798154 0.631972 -5.2979e-21)
(0.813977 0.667213 1.10933e-20)
(0.810214 0.741727 -1.2561e-20)
(0.799743 0.767946 -1.74502e-21)
(0.802182 0.65175 1.87887e-20)
(0.820118 0.38055 -2.22987e-20)
(0.845187 0.0315081 2.18388e-20)
(0.866917 -0.287607 -2.09675e-21)
(0.878088 -0.497401 -9.21017e-21)
(0.875155 -0.58187 0)
(0.867421 -0.585023 0)
(0.849365 -0.570125 1.04912e-21)
(0.805449 -0.563278 -1.40283e-21)
(0.731262 -0.551916 -2.20609e-23)
(0.643622 -0.491898 1.38062e-21)
(0.582658 -0.350622 -1.34157e-21)
(0.565289 -0.127192 0)
(0.59618 0.0968159 1.90153e-22)
(0.656006 0.278099 1.20663e-21)
(0.713063 0.397207 -2.16775e-21)
(0.718304 0.500019 9.01442e-22)
(0.691569 0.550018 1.23364e-22)
(0.636965 0.511522 -1.62504e-21)
(0.610309 0.346702 1.28009e-21)
(0.605812 0.108535 3.86083e-22)
(0.660422 -0.0977416 3.33095e-22)
(0.718417 -0.242796 -2.29955e-22)
(0.725483 -0.301932 0)
(0.711311 -0.377234 0)
(0.702392 -0.366035 -4.28746e-22)
(0.708895 -0.349465 1.97012e-22)
(0.745583 -0.193445 -1.10815e-22)
(0.735605 0.0569678 1.59719e-22)
(0.729691 0.327113 2.23838e-22)
(0.702095 0.497785 -6.09514e-23)
(0.717524 0.320173 1.33297e-22)
(0.722271 0.0862112 -1.1906e-22)
(0.680307 -0.222656 7.5446e-23)
(0.688674 -0.302887 0)
(0.640291 -0.0792464 0)
(0.868204 -0.574236 -8.51054e-20)
(0.891172 -0.712271 9.74515e-21)
(0.89913 -0.806328 7.11119e-20)
(0.873426 -0.848583 -4.37688e-22)
(0.824656 -0.840486 0)
(0.765445 -0.802523 0)
(0.69938 -0.756947 -2.56704e-20)
(0.640512 -0.69672 3.12438e-21)
(0.586996 -0.632278 3.0391e-20)
(0.514101 -0.602128 -4.08958e-22)
(0.421562 -0.596726 -8.81736e-21)
(0.343932 -0.54568 -9.54944e-21)
(0.312719 -0.394037 9.51539e-21)
(0.331892 -0.156927 0)
(0.390607 0.105124 -9.47908e-21)
(0.472089 0.334064 8.66501e-21)
(0.557954 0.495287 0)
(0.632985 0.589498 0)
(0.694083 0.626797 4.62158e-21)
(0.747638 0.621047 -1.51383e-23)
(0.793848 0.612916 -4.19608e-21)
(0.823435 0.654266 -5.63071e-21)
(0.834344 0.736992 5.66053e-21)
(0.838675 0.772837 -8.81119e-21)
(0.855425 0.665528 -1.88523e-21)
(0.884589 0.39917 1.02083e-20)
(0.914451 0.0474375 1.4597e-21)
(0.933765 -0.278255 4.14161e-24)
(0.937388 -0.492584 0)
(0.92209 -0.578129 5.23425e-21)
(0.89895 -0.579621 -5.34665e-21)
(0.868969 -0.557951 1.95647e-22)
(0.819393 -0.539434 0)
(0.742661 -0.519607 -1.33623e-22)
(0.6485 -0.464954 2.22135e-21)
(0.58085 -0.341967 -4.33081e-21)
(0.56012 -0.139107 -2.57026e-22)
(0.594809 0.070466 2.45483e-22)
(0.656673 0.251389 1.77552e-21)
(0.717264 0.382541 2.19534e-22)
(0.725565 0.501383 -1.82386e-21)
(0.706598 0.564191 1.52859e-21)
(0.65731 0.530182 -2.12906e-23)
(0.634941 0.359744 1.64356e-21)
(0.626398 0.107846 -1.98521e-21)
(0.674244 -0.111166 -2.3498e-21)
(0.736187 -0.253012 6.69193e-22)
(0.745477 -0.300869 7.24354e-22)
(0.731362 -0.37347 -1.2466e-21)
(0.716872 -0.366652 7.54262e-22)
(0.722714 -0.355593 -1.09218e-22)
(0.751561 -0.199142 1.75271e-22)
(0.737607 0.0565853 8.47141e-23)
(0.732825 0.328779 -3.00396e-22)
(0.708956 0.499099 -1.59625e-23)
(0.726358 0.320563 -1.71094e-22)
(0.730944 0.0904694 0)
(0.684388 -0.217574 -6.39666e-23)
(0.69247 -0.300617 3.38829e-23)
(0.646893 -0.0751519 0)
(1.03105 -0.579223 7.92036e-20)
(1.04004 -0.693358 -1.45922e-19)
(1.02995 -0.761971 6.61877e-20)
(0.983175 -0.788835 4.67383e-20)
(0.912194 -0.780442 -8.28452e-20)
(0.838563 -0.744122 6.85005e-21)
(0.764174 -0.701659 2.88246e-20)
(0.691269 -0.656763 1.93525e-20)
(0.632261 -0.596512 -1.89342e-20)
(0.57117 -0.545082 0)
(0.48393 -0.528381 -1.39704e-20)
(0.386444 -0.507616 2.78868e-20)
(0.320027 -0.412989 -1.39746e-20)
(0.307326 -0.22389 0)
(0.346553 0.0138562 0)
(0.420422 0.238617 2.40914e-22)
(0.506478 0.413015 -1.0168e-20)
(0.58839 0.527063 9.87149e-21)
(0.66138 0.581275 0)
(0.7282 0.586384 7.72764e-21)
(0.787005 0.584038 -1.56621e-20)
(0.828884 0.629541 1.80005e-20)
(0.853486 0.719332 -2.23808e-20)
(0.873725 0.766619 -3.99644e-21)
(0.905063 0.674551 3.6116e-20)
(0.943532 0.422355 -2.00584e-20)
(0.97864 0.0746354 -7.31142e-22)
(0.998372 -0.2557 -8.95737e-21)
(0.996289 -0.476154 1.99533e-21)
(0.970447 -0.565171 7.13521e-21)
(0.933106 -0.567346 2.65545e-22)
(0.892017 -0.542442 -2.56729e-21)
(0.83799 -0.516203 4.40942e-21)
(0.761238 -0.488602 -2.04979e-21)
(0.662789 -0.43796 0)
(0.58815 -0.333766 -2.13626e-21)
(0.562724 -0.153658 2.09427e-21)
(0.599439 0.0408784 -1.39087e-21)
(0.661619 0.221151 1.72819e-21)
(0.72552 0.364484 -1.45882e-22)
(0.73799 0.500394 0)
(0.728232 0.576237 -2.40303e-22)
(0.686452 0.547678 1.03084e-21)
(0.670083 0.375233 0)
(0.658224 0.111945 4.46029e-21)
(0.694831 -0.121712 -1.8037e-21)
(0.757187 -0.263534 5.6285e-22)
(0.768696 -0.299821 4.3637e-22)
(0.75367 -0.368603 0)
(0.732387 -0.366416 0)
(0.736992 -0.361002 -3.76545e-22)
(0.758416 -0.20477 4.29091e-22)
(0.741706 0.0555064 -1.92621e-22)
(0.737912 0.328888 1.82431e-23)
(0.718087 0.499981 1.97024e-22)
(0.737093 0.32132 1.71279e-22)
(0.742408 0.0955425 -3.66664e-22)
(0.691418 -0.21158 0)
(0.698435 -0.298819 -7.37463e-23)
(0.655224 -0.0715124 9.41715e-24)
(1.17425 -0.568298 7.18998e-20)
(1.15946 -0.655266 -7.11341e-20)
(1.12669 -0.701827 4.71036e-22)
(1.0638 -0.714925 -3.5264e-22)
(0.982505 -0.705857 3.12496e-22)
(0.900162 -0.679124 -2.4811e-22)
(0.824631 -0.641624 3.65476e-22)
(0.748866 -0.605653 0)
(0.679095 -0.560431 -2.28995e-22)
(0.621693 -0.502338 1.83682e-22)
(0.552618 -0.463504 1.51095e-22)
(0.45715 -0.448443 -1.86823e-22)
(0.365148 -0.401538 0)
(0.317766 -0.271069 0)
(0.328247 -0.0710785 1.25884e-22)
(0.384709 0.140264 0)
(0.464647 0.322187 -9.75033e-23)
(0.548912 0.453046 0)
(0.630855 0.524115 -5.41691e-21)
(0.708958 0.541547 1.10622e-20)
(0.778362 0.545531 -1.24325e-20)
(0.830318 0.593324 6.69672e-21)
(0.866774 0.687758 1.09456e-20)
(0.900332 0.748178 -1.06246e-20)
(0.943391 0.677363 -1.87449e-20)
(0.991011 0.446272 1.83256e-20)
(1.03381 0.109671 0)
(1.05778 -0.2229 6.09902e-22)
(1.05295 -0.450758 0)
(1.01916 -0.545207 0)
(0.969522 -0.549722 6.48351e-21)
(0.917431 -0.524142 -6.7767e-21)
(0.859101 -0.493343 2.2735e-22)
(0.784905 -0.458783 1.91316e-22)
(0.685539 -0.41006 -1.31543e-22)
(0.603841 -0.324304 -1.38998e-21)
(0.571395 -0.169218 1.3495e-21)
(0.608117 0.00937986 -1.31736e-21)
(0.669591 0.188158 1.10475e-21)
(0.737208 0.342147 2.56287e-22)
(0.754539 0.492261 -1.6191e-21)
(0.753422 0.582953 -1.067e-21)
(0.72072 0.564601 1.64537e-21)
(0.712996 0.393764 0)
(0.700359 0.121833 -2.02548e-21)
(0.722902 -0.127869 2.23253e-21)
(0.781217 -0.273888 -2.98413e-21)
(0.79459 -0.298886 -4.39287e-22)
(0.778071 -0.362322 0)
(0.748949 -0.36496 1.41494e-22)
(0.751666 -0.365553 -3.47022e-22)
(0.76605 -0.21052 -1.96412e-23)
(0.747665 0.0534494 -1.14286e-23)
(0.744648 0.327436 1.47462e-22)
(0.729114 0.500614 -1.78239e-22)
(0.74954 0.322478 0)
(0.75649 0.10138 3.66881e-22)
(0.701374 -0.204628 0)
(0.706485 -0.297306 0)
(0.665139 -0.0682779 -4.95658e-24)
(1.27485 -0.528332 -6.44729e-20)
(1.23404 -0.588122 6.33457e-20)
(1.18219 -0.618843 -3.8356e-22)
(1.10923 -0.63003 3.61535e-22)
(1.02892 -0.625236 0)
(0.94921 -0.610256 0)
(0.875198 -0.584061 -3.74491e-22)