/*--------------------------------*- C++ -*----------------------------------*\
| =========                 |                                                 |
| \\      /  F ield         | OpenFOAM: The Open Source CFD Toolbox           |
|  \\    /   O peration     | Version:  2512                                  |
|   \\  /    A nd           | Website:  www.openfoam.com                      |
|    \\/     M anipulation  |                                                 |
\*---------------------------------------------------------------------------*/
FoamFile
{
    version     2.0;
    format      ascii;
    arch        "LSB;label=32;scalar=64";
    class       surfaceScalarField;
    location    "119";
    object      phi;
}
// * * * * * * * * * * * * * * * * * * * * * * * * * * * * * * * * * * * * * //

dimensions      [0 3 -1 0 0 0 0];

oriented        oriented;

internalField   nonuniform List<scalar> 
26232
(
-0.000329498
0.00104854
-0.000719044
-0.000933309
0.00180924
-0.00120543
-0.00136807
0.00168751
-0.00125275
-0.00120328
0.000717618
-0.000882411
-4.59037e-05
-0.0012381
8.07235e-05
0.00251287
-0.00435794
0.00179917
0.00679956
-0.00879488
0.00450819
0.0130758
-0.0145977
0.0083214
0.0214579
-0.0216546
0.0132726
0.0318619
-0.029684
0.01928
0.0439902
-0.0382729
0.0261446
0.057365
-0.0469517
0.0335769
0.0713976
-0.0552749
0.0412423
0.0854724
-0.0628869
0.0488121
0.0990248
-0.0695575
0.0560052
0.111605
-0.0751969
0.062617
0.122923
-0.0798385
0.0685203
0.13283
-0.0836185
0.0737116
0.141436
-0.0867371
0.0781311
0.148804
-0.0894676
0.0820996
0.155419
-0.0919243
0.0853087
0.161454
-0.0946783
0.088644
0.167183
-0.0971213
0.0913923
-0.100592
0.0947617
0.173013
-0.000103162
0.0011517
-0.00016295
0.00186903
0.000218471
0.00130608
0.00148673
-0.000550639
0.00408521
-0.00383658
0.00842636
-0.00869909
0.0148217
-0.0151903
0.0233863
-0.0231622
0.0339631
-0.0322315
0.0461138
-0.0418347
0.0591868
-0.0513459
0.0724379
-0.0602028
0.0851614
-0.0679984
0.0967989
-0.0745243
0.107011
-0.0797693
0.1157
-0.0838864
0.122992
-0.0871304
0.129193
-0.089819
0.134683
-0.0922276
0.139851
-0.094636
0.145062
-0.0971349
0.150332
-0.0999483
0.15594
-0.102729
-0.1062
0.161548
5.50282e-05
0.00109667
0.000465711
0.00145834
0.0016378
0.000133994
0.0040501
-0.00296293
0.00817727
-0.00796375
0.0144009
-0.0149227
0.0228633
-0.0236527
0.0333516
-0.0336505
0.0452894
-0.0441692
0.0578555
-0.0544008
0.0701735
-0.063664
0.0814973
-0.0715266
0.0913421
-0.0778432
0.0995397
-0.082722
0.106219
-0.0864488
0.111722
-0.0893891
0.116494
-0.0919029
0.120952
-0.0942761
0.125411
-0.0966871
0.130029
-0.0992537
0.134815
-0.101921
0.139713
-0.104846
0.144656
-0.107673
-0.11104
0.149496
0.000162486
0.000934189
0.000997304
0.000623526
0.0029765
-0.0018452
0.00661816
-0.0066046
0.012382
-0.0137276
0.0204704
-0.0230111
0.0306476
-0.0338299
0.0422177
-0.0452206
0.0542026
-0.0561541
0.065617
-0.0658152
0.0757122
-0.0737592
0.084113
-0.0799274
0.0908308
-0.0845609
0.0961742
-0.0880653
0.100599
-0.090874
0.104559
-0.0933488
0.10839
-0.0957341
0.112273
-0.0981589
0.116267
-0.100681
0.120324
-0.10331
0.124452
-0.106049
0.128572
-0.108966
0.132774
-0.111875
-0.115288
0.137022
0.000266646
0.000667542
0.00155477
-0.000664602
0.00442337
-0.00471379
0.00940862
-0.0115899
0.0168129
-0.0211319
0.0264368
-0.032635
0.0375045
-0.0448976
0.0488947
-0.0566108
0.0595195
-0.0667789
0.0686322
-0.0749278
0.0759568
-0.0810838
0.0816418
-0.0856124
0.0860977
-0.0890168
0.0898034
-0.0917711
0.0931568
-0.0942274
0.0964081
-0.0966002
0.0996718
-0.0989977
0.102985
-0.101472
0.10635
-0.104046
0.109783
-0.106744
0.113305
-0.109571
0.1169
-0.11256
0.120634
-0.115609
-0.119026
0.124371
0.000408675
0.000258868
0.0022383
-0.00249423
0.00611179
-0.00858728
0.0124724
-0.0179505
0.0212478
-0.0299074
0.0316593
-0.0430464
0.0424641
-0.0557023
0.0524546
-0.0666014
0.0608525
-0.0751769
0.0674343
-0.0815097
0.0724241
-0.0860735
0.0762719
-0.0894603
0.0794416
-0.0921865
0.0822833
-0.0946128
0.0850066
-0.0969506
0.0877156
-0.0993092
0.0904614
-0.101743
0.0932692
-0.10428
0.096158
-0.106935
0.0991257
-0.109712
0.102167
-0.112612
0.105248
-0.115641
0.10839
-0.118751
-0.122121
0.111485
0.000606721
-0.000347854
0.00307928
-0.00496678
0.00801935
-0.0135273
0.0155851
-0.0255162
0.0251271
-0.0394494
0.0353323
-0.0532516
0.0448402
-0.0652103
0.0527724
-0.0745335
0.058885
-0.0812895
0.0634173
-0.086042
0.0668257
-0.0894819
0.0695601
-0.0921946
0.0719526
-0.094579
0.0742061
-0.0968663
0.0764298
-0.0991743
0.078679
-0.101558
0.0809768
-0.104041
0.0833299
-0.106633
0.0857316
-0.109336
0.0881758
-0.112156
0.0906604
-0.115097
0.0931772
-0.118158
0.0957536
-0.121327
-0.124691
0.0983242
0.000856852
-0.00120471
0.00403845
-0.00814838
0.0099772
-0.0194661
0.0183297
-0.0338687
0.027836
-0.0489557
0.0369615
-0.0623771
0.0446338
-0.0728826
0.0504975
-0.0803972
0.0547501
-0.0855421
0.0578384
-0.0891303
0.0602141
-0.0918576
0.062216
-0.0941966
0.0640551
-0.0964181
0.0658448
-0.098656
0.0676383
-0.100968
0.069455
-0.103375
0.0713002
-0.105887
0.0731751
-0.108508
0.0750833
-0.111245
0.0770292
-0.114102
0.079012
-0.11708
0.0810256
-0.120172
0.0830723
-0.123374
-0.126705
0.0850861
0.00114269
-0.0023474
0.0050288
-0.0120345
0.011734
-0.0261713
0.0202814
-0.0424161
0.0290154
-0.0576896
0.0365727
-0.0699344
0.0423717
-0.0786816
0.0464999
-0.0845255
0.0493769
-0.088419
0.0514668
-0.0912202
0.053131
-0.0935218
0.0545969
-0.0956625
0.0559853
-0.0978065
0.0573506
-0.100021
0.0587148
-0.102332
0.0600873
-0.104748
0.0614741
-0.107273
0.0628801
-0.109914
0.0643075
-0.112672
0.0657545
-0.115549
0.067217
-0.118542
0.0686916
-0.121646
0.070177
-0.124859
-0.12818
0.0716518
0.00144026
-0.00378766
0.00593867
-0.0165329
0.0130367
-0.0332693
0.0211784
-0.0505578
0.0286652
-0.0651764
0.034549
-0.0758183
0.0387055
-0.0828381
0.041486
-0.087306
0.0433655
-0.0902985
0.0447398
-0.0925944
0.0458646
-0.0946466
0.046877
-0.0966749
0.04784
-0.0987694
0.0487807
-0.100962
0.0497115
-0.103263
0.0506391
-0.105675
0.0515675
-0.108202
0.052499
-0.110845
0.0534355
-0.113609
0.0543781
-0.116492
0.0553262
-0.11949
0.0562783
-0.122598
0.0572309
-0.125812
-0.129118
0.0581691
0.00172163
-0.0055093
0.00665411
-0.0214654
0.0137092
-0.0403245
0.0209853
-0.0578339
0.0270362
-0.0712273
0.0313707
-0.0801528
0.0341863
-0.0856537
0.0359443
-0.089064
0.0370818
-0.091436
0.0378986
-0.0934112
0.0385605
-0.0953086
0.039146
-0.0972603
0.0396885
-0.099312
0.0402024
-0.101476
0.0406946
-0.103755
0.0411694
-0.10615
0.0416308
-0.108663
0.0420829
-0.111298
0.0425289
-0.114055
0.0429696
-0.116932
0.0434032
-0.119924
0.0438259
-0.123021
0.0442304
-0.126217
-0.129506
0.0446186
0.00196106
-0.00747036
0.00708738
-0.0265917
0.0136983
-0.0469354
0.0198459
-0.0639815
0.024475
-0.0758564
0.0274742
-0.083152
0.0292236
-0.087403
0.0301926
-0.090033
0.0307399
-0.0919833
0.0310765
-0.0937478
0.0313051
-0.0955372
0.031469
-0.0974242
0.0315861
-0.0994291
0.0316645
-0.101554
0.0317094
-0.1038
0.0317252
-0.106166
0.0317157
-0.108654
0.0316841
-0.111266
0.0316326
-0.114003
0.0315628
-0.116862
0.0314755
-0.119836
0.0313701
-0.122915
0.0312426
-0.126089
0.0310943
-0.129358
6.59442e-05
-0.00883422
0.00876828
-0.000402405
-0.0192594
0.0197277
-0.00158392
-0.0246778
0.0258593
-0.00335165
-0.0269923
0.0287601
-0.00552628
-0.0277832
0.0299578
-0.00793834
-0.0280243
0.0304363
-0.0104485
-0.0280909
0.030601
-0.0129382
-0.0279681
0.0304577
-0.0152965
-0.0274749
0.0298333
-0.0174157
-0.0264004
0.0285196
-0.0191945
-0.0245563
0.0263351
-0.0205476
-0.0217917
0.0231449
-0.0214152
-0.0179976
0.0188651
-0.0217688
-0.013106
0.0134596
-0.0216141
-0.00708095
0.00692621
-0.0210195
3.88537e-05
-0.000633437
-0.0198416
0.00794721
-0.00912507
-0.0181086
0.0168996
-0.0186327
-0.0157375
0.0266988
-0.0290699
-0.0126176
0.0371615
-0.0402815
-0.00863886
0.0480187
-0.0519974
-0.00382912
0.0588976
-0.0637073
0.00173415
0.0694308
-0.0749941
0.0792899
0.00731572
-0.0848715
-0.000316122
-0.0085181
-0.00145491
-0.0181206
-0.00334474
-0.022788
-0.0058248
-0.0245123
-0.00874417
-0.0248638
-0.0119875
-0.0247809
-0.0154581
-0.0246202
-0.0190594
-0.0243668
-0.0226845
-0.0238499
-0.0262143
-0.0228706
-0.0295221
-0.0212484
-0.0324826
-0.0188313
-0.0349822
-0.015498
-0.0369297
-0.0111585
-0.0382708
-0.00573985
-0.038892
0.000660066
-0.0387719
0.00782713
-0.0378502
0.0159779
-0.0360641
0.0249128
-0.0333472
0.0344447
-0.0296672
0.0443387
-0.0250597
0.0542901
-0.0195812
0.0639524
0.0731553
-0.0134466
-0.000624533
-0.00789357
-0.00225232
-0.0164928
-0.00462846
-0.0204118
-0.00755492
-0.0215858
-0.0109146
-0.0215041
-0.0146412
-0.0210543
-0.0186769
-0.0205846
-0.0229471
-0.0200966
-0.0273541
-0.0194428
-0.031779
-0.0184457
-0.0360853
-0.0169421
-0.0401252
-0.0147913
-0.0437482
-0.011875
-0.0468106
-0.00809618
-0.0491883
-0.00336209
-0.0506342
0.00210596
-0.0511994
0.0083923
-0.0507139
0.0154925
-0.0490523
0.0232512
-0.0460918
0.0314842
-0.0417141
0.0399609
-0.0358667
0.0484427
-0.028475
0.0565606
0.0639729
-0.0192926
-0.000839757
-0.00705381
-0.00277693
-0.0145556
-0.00541832
-0.0177704
-0.00853293
-0.0184712
-0.0120207
-0.0180163
-0.0158471
-0.0172279
-0.0199823
-0.0164493
-0.0243705
-0.0157085
-0.028924
-0.0148893
-0.0335276
-0.0138421
-0.0380419
-0.0124278
-0.042307
-0.0105262
-0.046144
-0.00803791
-0.0493641
-0.00487608
-0.051743
-0.000983183
-0.0531237
0.00348661
-0.0533914
0.00866
-0.0523195
0.0144206
-0.04971
0.0206417
-0.0453803
0.0271545
-0.0391272
0.0337078
-0.0307026
0.040018
-0.0202079
0.0460659
0.0508016
-0.00703656
-0.000970796
-0.00608301
-0.00307372
-0.0124527
-0.00581371
-0.0150305
-0.00892225
-0.0153627
-0.0122933
-0.0146452
-0.0159002
-0.013621
-0.0197251
-0.0126245
-0.0237211
-0.0117125
-0.0278048
-0.0108055
-0.0318614
-0.00978561
-0.0357484
-0.00854082
-0.0393001
-0.00697452
-0.0423186
-0.00501935
-0.0445846
-0.00261017
-0.0458505
0.000282798
-0.0459997
0.00363577
-0.0447522
0.00741255
-0.0418737
0.011542
-0.037127
0.015895
-0.0302633
0.0202907
-0.0211732
0.0246178
-0.00941939
0.0282642
0.00478796
0.0318586
0.0328793
0.0227103
-0.00104396
-0.00503906
-0.00322322
-0.0102734
-0.00596853
-0.0122852
-0.00897003
-0.0123612
-0.012097
-0.0115183
-0.0153096
-0.0104084
-0.0185854
-0.00934872
-0.0218764
-0.00842151
-0.0250964
-0.00758546
-0.0281254
-0.00675661
-0.030815
-0.00585119
-0.03299
-0.00479958
-0.0344612
-0.00354813
-0.0349962
-0.00207516
-0.0343547
-0.000358705
-0.0323828
0.00166383
-0.028806
0.00383575
-0.0233911
0.00612723
-0.0159348
0.00843858
-0.00615912
0.0105151
0.00584853
0.0126101
0.0209173
0.0131954
0.0376919
0.015084
0.0117118
0.0588593
-0.00108656
-0.00395249
-0.00330113
-0.00805887
-0.00602225
-0.00956403
-0.00890191
-0.00948151
-0.011777
-0.00864323
-0.0145824
-0.00760302
-0.0172798
-0.00665124
-0.0198129
-0.0058885
-0.0220896
-0.00530872
-0.0239829
-0.00486334
-0.0253377
-0.00449632
-0.0259761
-0.00416123
-0.0257058
-0.00381838
-0.0243352
-0.00344576
-0.0216585
-0.00303542
-0.01741
-0.00258466
-0.0114317
-0.00214253
-0.0035315
-0.001773
0.00643623
-0.00152915
0.0187669
-0.00181561
0.0330743
-0.00169726
0.0504943
-0.0042246
0.0692472
-0.00366887
-0.0108384
0.0917975
-0.00110961
-0.00284288
-0.00333443
-0.00583405
-0.00602247
-0.00687599
-0.0087983
-0.00670568
-0.0114689
-0.00597266
-0.0139402
-0.00513166
-0.0161505
-0.00444096
-0.0180264
-0.00401262
-0.0194626
-0.00387248
-0.0203193
-0.00400672
-0.0204269
-0.00438867
-0.0195977
-0.00499044
-0.0176306
-0.00578552
-0.0143248
-0.00675154
-0.00948045
-0.00787975
-0.00290998
-0.00915512
0.0055405
-0.010593
0.0160159
-0.0122484
0.0286062
-0.0141195
0.0434657
-0.0166751
0.0604175
-0.018649
0.0799184
-0.0237255
0.101075
-0.0248255
-0.0345721
0.124809
-0.00109815
-0.00174473
-0.00327745
-0.00365475
-0.00588026
-0.00427318
-0.00851534
-0.00407061
-0.0109619
-0.00352611
-0.0130898
-0.00300376
-0.0147975
-0.00273325
-0.0159714
-0.00283868
-0.016466
-0.00337794
-0.0161009
-0.00437184
-0.01467
-0.00581958
-0.011956
-0.00770438
-0.00774233
-0.00999921
-0.00184012
-0.0126537
0.00589549
-0.0156154
0.0156045
-0.0188642
0.0273501
-0.0223386
0.0411666
-0.0260648
0.0570654
-0.0300182
0.0747954
-0.0344051
0.0947196
-0.0385733
0.115698
-0.0447035
0.138884
-0.0480123
-0.0578512
0.162164
-0.00101925
-0.000725477
-0.00303221
-0.00164179
-0.00540384
-0.00190155
-0.0077315
-0.00174295
-0.00975922
-0.00149839
-0.011301
-0.00146199
-0.012188
-0.00184622
-0.0122357
-0.00279097
-0.0112317
-0.00438196
-0.00894303
-0.00666051
-0.00513617
-0.00962644
0.000394968
-0.0132355
0.00779705
-0.0174013
0.0171648
-0.0220215
0.028516
-0.0269665
0.0417937
-0.0321419
0.0568546
-0.0373995
0.0735561
-0.0427663
0.0916291
-0.0480913
0.110692
-0.0534683
0.130914
-0.0587954
0.150637
-0.0644264
0.171814
-0.069189
-0.0763533
0.190316
-0.000849971
0.000124494
-0.00252198
3.02169e-05
-0.00443469
1.11661e-05
-0.00617133
-6.31353e-06
-0.00743407
-0.000235652
-0.00796483
-0.000931228
-0.00751529
-0.00229576
-0.00582849
-0.00447777
-0.00264595
-0.0075645
0.00226591
-0.0115724
0.00907931
-0.0164398
0.0178769
-0.0220332
0.0286364
-0.0281608
0.0412194
-0.0346045
0.0553962
-0.0411433
0.0708555
-0.0476012
0.0872409
-0.0537848
0.104183
-0.0597085
0.121215
-0.0651237
0.138072
-0.0703251
0.154278
-0.0750015
0.169327
-0.0794752
0.183807
-0.0836689
-0.0876348
0.195088
-0.000594549
-0.00176976
-0.00301134
-0.00390006
-0.00405499
-0.00318705
-0.000974619
0.00286901
0.00857706
0.0162847
0.0259895
0.0375332
0.0506147
0.0648222
0.0796841
0.0947
0.109435
0.123439
0.136446
0.148221
0.158528
0.167696
0.17542
0.182547
0.0136856
0.120902
-0.127272
0.0177997
0.13428
-0.138394
0.0209422
0.144111
-0.147253
0.0251264
0.149907
-0.154091
0.0334904
0.148575
-0.156939
0.0480643
0.136305
-0.150879
0.067946
0.11138
-0.131262
0.0892762
0.0763306
-0.0976608
0.108268
0.0343672
-0.0533593
0.124071
-0.0149975
-0.000805544
0.13737
-0.0703046
0.0570062
0.147824
-0.122158
0.111704
0.154553
-0.159413
0.152684
0.157514
-0.177884
0.174924
0.157194
-0.182035
0.182355
0.154821
-0.180542
0.182915
0.15212
-0.177749
0.180451
0.148971
-0.175379
0.178528
0.143433
-0.180331
0.185868
0.134967
-0.196502
0.204969
0.126047
-0.209212
0.218132
0.120268
-0.191274
0.197052
0.119756
-0.127759
0.128271
0.125038
-0.031558
0.0262759
0.133438
0.0688673
-0.0772674
0.142272
0.148773
-0.157607
0.150011
0.196704
-0.204443
0.156276
0.213847
-0.220112
0.159483
0.219878
-0.223084
0.15793
0.237717
-0.236164
0.151363
0.264718
-0.258152
0.141376
0.276978
-0.266991
0.1312
0.245775
-0.235599
0.124752
0.162106
-0.155658
0.123868
0.0374485
-0.0365644
0.128078
-0.0883738
0.0841641
0.135225
-0.184811
0.177664
0.140381
-0.235324
0.230168
0.137952
-0.258396
0.260824
0.12857
-0.275935
0.285317
0.117946
-0.269901
0.280524
0.112133
-0.222682
0.228495
0.113986
-0.111605
0.109752
0.12161
0.0096299
-0.0172541
0.126933
0.128413
-0.133736
0.12665
0.227093
-0.22681
0.123238
0.289086
-0.285675
0.120475
0.312371
-0.309608
0.119614
0.227435
-0.226573
0.121158
0.102708
-0.104253
0.120492
-0.0695723
0.0702387
0.11811
-0.235858
0.23824
0.115572
-0.310394
0.312932
0.114794
-0.327778
0.328556
0.112563
-0.141674
0.143904
0.109859
0.062342
-0.0596381
0.106647
0.24853
-0.245318
0.104569
0.401781
-0.399703
0.0981246
0.137276
-0.130831
-0.076699
0.0806904
-0.00307924
0.110535
0.0070217
0.124179
0.0181173
0.133015
0.0315508
0.136474
0.048783
0.131343
0.0699228
0.115165
0.0929106
0.0883921
0.114031
0.05521
0.130828
0.0175702
0.143701
-0.0278703
0.153632
-0.080236
0.160125
-0.128651
0.162409
-0.161697
0.161121
-0.176596
0.157439
-0.178353
0.152401
-0.175504
0.147491
-0.17284
0.142569
-0.170456
0.135197
-0.172958
0.124568
-0.185874
0.113833
-0.198477
0.107607
-0.185047
0.108239
-0.128392
0.115801
-0.03912
0.127182
0.0574867
0.138924
0.137031
0.14947
0.186158
0.158245
0.205073
0.163909
0.214214
0.165078
0.236547
0.161089
0.268708
0.152739
0.285329
0.142819
0.255695
0.135153
0.169772
0.131578
0.0410232
0.132246
-0.0890421
0.136086
-0.188651
0.139533
-0.238771
0.13631
-0.255172
0.126219
-0.265844
0.115581
-0.259262
0.110832
-0.217933
0.114023
-0.114796
0.122052
0.00160077
0.127815
0.122651
0.128031
0.226877
0.125197
0.29192
0.122433
0.315135
0.121003
0.228864
0.122347
0.101365
0.121037
-0.0682631
0.117837
-0.232658
0.114484
-0.30704
0.113774
-0.327068
0.112564
-0.140464
0.11045
0.0644557
0.108837
0.250143
0.106496
0.404121
0.0985649
0.145207
-0.0722202
-0.00479428
0.0960362
0.0116456
0.107739
0.0294148
0.115246
0.0492863
0.116602
0.0712168
0.109413
0.0944736
0.0919082
0.116994
0.0658713
0.135949
0.0362555
0.150126
0.0033935
0.160417
-0.0381619
0.167485
-0.0873036
0.170415
-0.131581
0.16861
-0.159892
0.163496
-0.171482
0.157035
-0.171892
0.149972
-0.16844
0.14326
-0.166128
0.137143
-0.164339
0.128913
-0.164728
0.116764
-0.173725
0.104124
-0.185837
0.0969912
-0.177914
0.0984595
-0.12986
0.107677
-0.048338
0.121388
0.0437764
0.135679
0.12274
0.148852
0.172985
0.160085
0.193839
0.168406
0.205893
0.17268
0.232273
0.171738
0.269649
0.165429
0.291638
0.15586
0.265263
0.146782
0.17885
0.140368
0.0474376
0.137426
-0.0861001
0.137664
-0.188889
0.139237
-0.240343
0.135573
-0.251508
0.125006
-0.255277
0.114056
-0.248312
0.109918
-0.213794
0.114258
-0.119136
0.12278
-0.00692129
0.129232
0.116198
0.130101
0.226008
0.127731
0.294291
0.124822
0.318044
0.122735
0.230951
0.123901
0.100199
0.12215
-0.0665122
0.118145
-0.228654
0.113917
-0.302811
0.11317
-0.326321
0.113102
-0.140396
0.111595
0.0659627
0.111482
0.250256
0.109057
0.406546
0.0997935
0.15447
-0.0671761
0.0110627
0.077937
0.0309194
0.0878823
0.0521694
0.0939958
0.0745401
0.0942316
0.097269
0.0866838
0.119342
0.0698352
0.139059
0.0461542
0.154676
0.0206391
0.166462
-0.00839317
0.175065
-0.0467647
0.179678
-0.0919167
0.17901
-0.130913
0.173424
-0.154306
0.165044
-0.163102
0.156285
-0.163133
0.147817
-0.159972
0.13972
-0.158031
0.132471
-0.15709
0.124045
-0.156303
0.111569
-0.161249
0.0974719
-0.17174
0.0887897
-0.169232
0.0900515
-0.131122
0.10019
-0.0584764
0.115619
0.0283474
0.132116
0.106243
0.147671
0.15743
0.161236
0.180274
0.172292
0.194838
0.180077
0.224488
0.182704
0.267023
0.178819
0.295523
0.169654
0.274428
0.159125
0.189379
0.149934
0.0566285
0.143587
-0.0797528
0.140073
-0.185375
0.139383
-0.239653
0.135473
-0.247599
0.124798
-0.244602
0.113355
-0.23687
0.109283
-0.209722
0.11453
-0.124383
0.123706
-0.0160965
0.131092
0.108811
0.132759
0.224342
0.130761
0.296288
0.127589
0.321216
0.124766
0.233774
0.125782
0.0991825
0.123786
-0.0645161
0.119045
-0.223912
0.113876
-0.297643
0.112991
-0.325436
0.114062
-0.141467
0.113224
0.0668008
0.114573
0.248907
0.112226
0.408893
0.101797
0.1649
-0.0615258
0.040798
0.0598493
0.0606104
0.0680699
0.0817973
0.0728089
0.103449
0.0725803
0.124327
0.0658058
0.14321
0.0509515
0.158816
0.0305488
0.170666
0.00878834
0.180126
-0.0178524
0.187094
-0.0537336
0.189186
-0.0940079
0.185011
-0.126738
0.176134
-0.145429
0.165295
-0.152263
0.154894
-0.152731
0.145593
-0.150672
0.136821
-0.149258
0.128811
-0.14908
0.120458
-0.14795
0.108504
-0.149296
0.0936624
-0.156898
0.0830749
-0.158644
0.0831251
-0.131172
0.0933164
-0.0686678
0.109838
0.0118256
0.128049
0.0880323
0.145528
0.139951
0.161111
0.16469
0.174833
0.181116
0.186223
0.213098
0.192833
0.260413
0.192243
0.296113
0.184188
0.282483
0.172051
0.201515
0.160017
0.068663
0.150449
-0.0701852
0.143223
-0.178149
0.13991
-0.23634
0.135813
-0.243502
0.125429
-0.234218
0.113416
-0.224857
0.108861
-0.205166
0.114699
-0.130221
0.124672
-0.0260701
0.133278
0.100206
0.136013
0.221606
0.134364
0.297937
0.130773
0.324807
0.1271
0.237447
0.127962
0.0983209
0.1259
-0.0624539
0.120521
-0.218533
0.114356
-0.291478
0.11321
-0.32429
0.115429
-0.143685
0.115297
0.0669329
0.118059
0.246145
0.115964
0.410988
0.104553
0.176311
-0.0552532
0.0753493
0.0433593
0.0930146
0.0504046
0.111788
0.054036
0.130668
0.0536999
0.148259
0.0482145
0.163236
0.0359751
0.174801
0.0189834
0.184001
-0.000411485
0.191735
-0.0255865
0.196743
-0.0587414
0.195822
-0.0930874
0.188297
-0.119212
0.176771
-0.133903
0.16429
-0.139783
0.152866
-0.141307
0.143115
-0.140921
0.134092
-0.140235
0.125629
-0.140617
0.117639
-0.13996
0.107076
-0.138732
0.0925637
-0.142386
0.0800326
-0.146113
0.0777828
-0.128922
0.087055
-0.07794
0.103965
-0.00508478
0.123294
0.0687034
0.142189
0.121056
0.159391
0.147489
0.175427
0.16508
0.190342
0.198183
0.20121
0.249545
0.204192
0.293131
0.197938
0.288737
0.184999
0.214454
0.170183
0.0834789
0.157713
-0.0577152
0.146976
-0.167411
0.140697
-0.230062
0.136282
-0.239087
0.126617
-0.224553
0.114146
-0.212386
0.108592
-0.199611
0.114619
-0.136248
0.125529
-0.0369803
0.13561
0.0901255
0.139631
0.217585
0.138394
0.299175
0.134347
0.328854
0.129749
0.242046
0.130417
0.0976522
0.128437
-0.060473
0.122543
-0.212639
0.115348
-0.284283
0.113781
-0.322724
0.117147
-0.14705
0.117752
0.0663277
0.121859
0.242037
0.120206
0.412641
0.108024
0.188493
-0.0483706
0.105478
0.0296788
0.120152
0.0357306
0.135747
0.0384411
0.151363
0.0380835
0.165821
0.0337565
0.17795
0.0238463
0.187209
0.00972446
0.195243
-0.00844515
0.201642
-0.0319864
0.20393
-0.0610288
0.199378
-0.0885358
0.188736
-0.10857
0.175323
-0.12049
0.162048
-0.126508
0.150223
-0.129482
0.140304
-0.131002
0.131449
-0.131379
0.122812
-0.131981
0.114943
-0.13209
0.106155
-0.129944
0.0933656
-0.129597
0.0797674
-0.132515
0.0744764
-0.123631
0.0817841
-0.0852477
0.0978883
-0.0211889
0.117849
0.0487423
0.137632
0.101274
0.155927
0.129193
0.173761
0.147247
0.191808
0.180135
0.206917
0.234436
0.21421
0.285838
0.210722
0.292225
0.197952
0.227225
0.180717
0.100714
0.165137
-0.0421348
0.151096
-0.153371
0.141688
-0.220654
0.136655
-0.234054
0.128049
-0.215947
0.115431
-0.199768
0.108478
-0.192658
0.114183
-0.141953
0.126067
-0.0488642
0.13791
0.0782822
0.143613
0.211882
0.142982
0.299806
0.138415
0.333421
0.132772
0.247689
0.133138
0.0972861
0.131339
-0.0586745
0.125059
-0.206359
0.116825
-0.27605
0.114656
-0.320555
0.119147
-0.151541
0.120505
0.0649699
0.125892
0.23665
0.124881
0.413653
0.112159
0.201215
-0.0409214
0.134067
0.0204201
0.144937
0.024861
0.156986
0.0263922
0.169303
0.0257669
0.181051
0.0220084
0.191193
0.0137043
0.199145
0.00177217
0.205657
-0.0149577
0.209416
-0.0357448
0.207515
-0.059128
0.199005
-0.080026
0.186076
-0.0956404
0.171908
-0.106322
0.158706
-0.113307
0.147088
-0.117864
0.137161
-0.121075
0.128562
-0.12278
0.120205
-0.123624
0.112357
-0.124242
0.104945
-0.122532
0.0948676
-0.11952
0.0818945
-0.119542
0.0737054
-0.115442
0.0776651
-0.0892074
0.092111
-0.0356348
0.111809
0.0290439
0.131797
0.081286
0.150634
0.110356
0.169758
0.128123
0.190333
0.15956
0.209252
0.215517
0.220597
0.274492
0.219895
0.292928
0.207884
0.239236
0.18962
0.118977
0.171817
-0.0243312
0.155179
-0.136733
0.142757
-0.208232
0.136738
-0.228034
0.129394
-0.208603
0.117098
-0.187472
0.108549
-0.184109
0.113332
-0.146736
0.126104
-0.0616363
0.139901
0.0644847
0.147561
0.204222
0.14785
0.299516
0.142974
0.338297
0.136227
0.254436
0.136134
0.0973799
0.134555
-0.0570955
0.128007
-0.199811
0.118747
-0.26679
0.115795
-0.317603
0.121358
-0.157104
0.123465
0.062863
0.13005
0.230065
0.129886
0.413816
0.116885
0.214216
-0.0329836
0.166811
0.0157731
0.173583
0.0180885
0.181513
0.0184618
0.189862
0.0174184
0.198071
0.0137994
0.204945
0.00683002
0.210511
-0.00379326
0.213347
-0.017794
0.212377
-0.0347745
0.205821
-0.0525726
0.19445
-0.0686549
0.180768
-0.0819578
0.166984
-0.0925386
0.154407
-0.10073
0.143358
-0.106815
0.133679
-0.111396
0.125303
-0.114404
0.117454
-0.115776
0.109794
-0.116582
0.103084
-0.115822
0.0956769
-0.112112
0.0850852
-0.10895
0.0754489
-0.105806
0.0753935
-0.089152
0.0869961
-0.0472374
0.105547
0.0104927
0.125167
0.0616666
0.143933
0.0915899
0.163391
0.108665
0.185626
0.137326
0.208282
0.192861
0.224455
0.258319
0.227809
0.289573
0.217245
0.2498
0.197752
0.138471
0.177581
-0.00416061
0.158967
-0.118119
0.143828
-0.193094
0.136428
-0.220633
0.130362
-0.202538
0.118918
-0.176028
0.108827
-0.174018
0.112046
-0.149956
0.125409
-0.0749987
0.141402
0.0484914
0.151504
0.19412
0.15313
0.29789
0.148077
0.34335
0.140134
0.262378
0.139374
0.0981402
0.138013
-0.0557338
0.131302
-0.1931
0.121044
-0.256532
0.117151
-0.31371
0.123708
-0.163661
0.126562
0.060009
0.134252
0.222376
0.135129
0.412939
0.122118
0.227227
-0.0246678
0.192536
0.013553
0.196398
0.0142266
0.200783
0.0140773
0.205372
0.0128295
0.20973
0.00944047
0.212912
0.00364892
0.214252
-0.00513405
0.212728
-0.0162697
0.207406
-0.0294523
0.19812
-0.0432865
0.186213
-0.0567482
0.173399
-0.0691442
0.160855
-0.0799939
0.149261
-0.0891362
0.138911
-0.0964657
0.129664
-0.102149
0.121517
-0.106256
0.114215
-0.108474
0.107096
-0.109463
0.10067
-0.109396
0.0949893
-0.106432
0.0875293
-0.10149
0.0786754
-0.0969518
0.0754263
-0.0859029
0.0831728
-0.0549838
0.099317
-0.00565149
0.117811
0.0431725
0.135898
0.0735033
0.15515
0.0894125
0.178141
0.114334
0.202865
0.168137
0.222693
0.238492
0.230208
0.282058
0.222217
0.25779
0.202933
0.157756
0.182135
0.0166364
0.162198
-0.0981813
0.14473
-0.175625
0.135577
-0.211481
0.130672
-0.197633
0.120612
-0.165967
0.10927
-0.162676
0.110389
-0.151075
0.123826
-0.0884353
0.141921
0.0303965
0.154719
0.181322
0.158325
0.294284
0.15375
0.347925
0.144589
0.271539
0.1429
0.099829
0.14167
-0.0545034
0.134843
-0.186274
0.123624
-0.245313
0.118664
-0.30875
0.126118
-0.171115
0.129715
0.0564123
0.138374
0.213716
0.140466
0.410846
0.127755
0.239938
-0.0161212
0.196918
0.0117234
0.199476
0.0116682
0.202037
0.0115169
0.204579
0.0102875
0.20654
0.0074792
0.207118
0.00307101
0.205778
-0.00379443
0.202017
-0.0125084
0.195408
-0.0228428
0.186427
-0.0343057
0.175965
-0.0462866
0.164854
-0.0580326
0.153774
-0.0689142
0.14324
-0.0786017
0.133584
-0.0868097
0.124852
-0.0934173
0.117008
-0.0984126
0.1101
-0.101565
0.103718
-0.103081
0.0977196
-0.103398
0.0927931
-0.101505
0.0878697
-0.0965667
0.081387
-0.0904692
0.0770045
-0.0815204
0.0812345
-0.0592139
0.0943175
-0.0187345
0.111022
0.0264684
0.127643
0.0568818
0.145563
0.0714923
0.168337
0.091561
0.195576
0.140898
0.219947
0.21412
0.231698
0.270308
0.226289
0.263199
0.207519
0.176526
0.184564
0.0395916
0.164142
-0.0777602
0.145235
-0.156718
0.134178
-0.200424
0.130149
-0.193604
0.121975
-0.157794
0.10989
-0.150591
0.10842
-0.149605
0.121212
-0.101227
0.141541
0.0100681
0.157545
0.165317
0.163451
0.288378
0.15962
0.351757
0.149301
0.281858
0.146546
0.102583
0.145419
-0.0533757
0.138546
-0.179401
0.126457
-0.233224
0.120302
-0.302595
0.12852
-0.179333
0.132881
0.0520515
0.142375
0.204222
0.145822
0.407399
0.133702
0.252059
-0.00750931
0.184645
0.00962489
0.18655
0.00976343
0.188507
0.00956033
0.190275
0.00851904
0.191451
0.00630325
0.191794
0.00272767
0.190388
-0.00238795
0.187061
-0.00918189
0.181765
-0.0175465
0.174682
-0.0272224
0.166178
-0.0377834
0.15676
-0.0486141
0.147024
-0.0591787
0.137511
-0.0690879
0.128544
-0.0778432
0.120314
-0.0851875
0.112881
-0.0909792
0.106262
-0.094946
0.100422
-0.0972411
0.0950338
-0.0980101
0.0904104
-0.0968819
0.0867417
-0.092898
0.0826842
-0.0864117
0.0790901
-0.0779262
0.080887
-0.0610108
0.0901842
-0.0280317
0.104319
0.012334
0.119078
0.042122
0.134928
0.0556429
0.155481
0.0710081
0.181785
0.114594
0.208607
0.187298
0.226442
0.252473
0.226713
0.262927
0.209772
0.193467
0.187279
0.0620848
0.166342
-0.0568234
0.146272
-0.136648
0.133057
-0.18721
0.129226
-0.189772
0.12313
-0.151698
0.110881
-0.138342
0.106709
-0.145433
0.117848
-0.112366
0.139264
-0.0113482
0.158531
0.14605
0.167956
0.278954
0.166074
0.353639
0.154787
0.293144
0.150732
0.106639
0.149433
-0.0520768
0.142458
-0.172426
0.129549
-0.220315
0.122166
-0.295211
0.130884
-0.188052
0.135966
0.0469699
0.146109
0.194079
0.151034
0.402474
0.13983
0.263263
0.000949884
0.196154
0.00853289
-0.195062
0.197778
0.00813877
0.199852
0.00748669
0.202235
0.00613646
0.204625
0.00391334
0.206722
0.000630149
0.208489
-0.00415498
0.209528
-0.0102207
0.209585
-0.0176037
0.208439
-0.026076
0.206011
-0.0353554
0.202376
-0.0449789
0.19768
-0.0544832
0.192114
-0.0635218
0.185798
-0.0715269
0.17887
-0.0782599
0.171567
-0.0836764
0.16393
-0.0873085
0.156233
-0.0895443
0.148479
-0.0902563
0.140387
-0.0887897
0.132422
-0.0849332
0.124407
-0.0783968
0.115072
-0.0685909
0.106232
-0.0521709
0.102151
-0.0239509
0.104316
0.0101691
0.112005
0.0344333
0.123141
0.0445065
0.135827
0.0583222
0.148882
0.101538
0.162507
0.173673
0.175546
0.239434
0.185544
0.252929
0.190797
0.188214
0.191911
0.0609711
0.189057
-0.0539693
0.178956
-0.126547
0.166518
-0.174772
0.157709
-0.180963
0.147651
-0.14164
0.132454
-0.123145
0.122505
-0.135485
0.123146
-0.113007
0.132326
-0.0205282
0.140389
0.137988
0.144304
0.275038
0.145273
0.35267
0.144161
0.294256
0.149303
0.101497
0.153999
-0.056773
0.149498
-0.167925
0.136488
-0.207305
0.125672
-0.284395
0.127457
-0.189837
0.12751
0.0469175
0.134092
0.187497
0.139922
0.396644
0.132263
0.270922
0.00883746
0.206919
0.00778115
-0.206167
0.208068
0.00698966
0.209633
0.00592181
0.211433
0.00433608
0.213333
0.00201354
0.215158
-0.00119468
0.216518
-0.00551484
0.217227
-0.0109299
0.217051
-0.0174273
0.215807
-0.0248326
0.21339
-0.0329387
0.209813
-0.0414011
0.205125
-0.0497953
0.19945
-0.0578471
0.192999
-0.0650755
0.185942
-0.0712032
0.17862
-0.0763541
0.171146
-0.0798345
0.163556
-0.0819543
0.156075
-0.0827752
0.148429
-0.0811436
0.1406
-0.0771044
0.133289
-0.0710852
0.126014
-0.0613159
0.118879
-0.0450362
0.114244
-0.0193166
0.115281
0.00913306
0.121665
0.028049
0.131557
0.0346142
0.143443
0.0464365
0.156679
0.0883024
0.171655
0.158697
0.18666
0.224429
0.198455
0.241135
0.204472
0.182197
0.206105
0.0593375
0.202734
-0.0505983
0.191758
-0.115571
0.177772
-0.160785
0.168023
-0.171214
0.158475
-0.132093
0.143531
-0.108201
0.132253
-0.124206
0.131787
-0.112541
0.141852
-0.0305933
0.152309
0.127531
0.158523
0.268824
0.161346
0.349848
0.160373
0.295229
0.164894
0.0969757
0.16917
-0.0610491
0.16364
-0.162395
0.148676
-0.192342
0.136232
-0.27195
0.138427
-0.192032
0.13867
0.0466745
0.14551
0.180656
0.152732
0.389422
0.145684
0.27797
0.0169946
0.217613
0.00719505
-0.217027
0.218548
0.00605527
0.219792
0.00467735
0.221246
0.00288232
0.222732
0.000527635
0.22407
-0.00253256
0.225016
-0.00646064
0.225389
-0.0113036
0.225005
-0.0170425
0.223712