/*--------------------------------*- C++ -*----------------------------------*\
| =========                 |                                                 |
| \\      /  F ield         | OpenFOAM: The Open Source CFD Toolbox           |
|  \\    /   O peration     | Version:  2312                                  |
|   \\  /    A nd           | Website:  www.openfoam.com                      |
|    \\/     M anipulation  |                                                 |
\*---------------------------------------------------------------------------*/
FoamFile
{
    version     2.0;
    format      ascii;
    arch        "LSB;label=32;scalar=64";
    class       volVectorField;
    location    "151";
    object      U;
}
// * * * * * * * * * * * * * * * * * * * * * * * * * * * * * * * * * * * * * //

dimensions      [0 1 -1 0 0 0 0];

internalField   nonuniform List<vector> 
5478
(
(-0.0272815 0.0266379 -1.09389e-19)
(-0.0261908 0.0345822 0)
(0.0205924 0.0218737 1.69565e-19)
(0.121789 0.000395476 -2.98836e-19)
(0.283884 -0.0226085 1.97426e-19)
(0.49217 -0.0412616 -5.9339e-20)
(0.711918 -0.0526142 -1.00238e-19)
(0.908703 -0.0572103 0)
(1.05967 -0.0557295 0)
(1.15607 -0.0517108 1.01189e-19)
(1.20682 -0.0443544 -5.2635e-20)
(1.21161 -0.0358911 -7.00899e-20)
(1.20027 -0.0299639 -2.46398e-20)
(1.1708 -0.016734 0)
(1.13449 -0.0146646 5.00037e-20)
(-0.0246271 0.0195234 2.19253e-19)
(-0.00452795 0.0211573 0)
(0.0880268 0.00754473 0)
(0.263236 -0.00822418 -1.48024e-19)
(0.505333 -0.016349 1.95935e-19)
(0.762599 -0.0152087 5.66418e-20)
(0.983544 -0.00922296 -9.15903e-20)
(1.13957 -0.00294161 8.12153e-20)
(1.22488 0.000352882 1.83246e-19)
(1.25413 0.00110536 -1.57498e-19)
(1.24153 0.000264505 1.70813e-21)
(1.21452 -0.000899324 0)
(1.18341 -0.000435513 2.45958e-20)
(1.15676 0.00466269 0)
(1.14318 0.000595456 0)
(-0.0190888 0.0116364 -5.20486e-22)
(0.0369747 0.00307592 -1.00093e-19)
(0.203229 -0.00792053 6.0433e-23)
(0.47101 -0.00584856 0)
(0.76742 0.0101246 -6.33034e-20)
(1.01428 0.0294344 5.32866e-20)
(1.17533 0.0430207 4.42067e-20)
(1.25179 0.0473307 0)
(1.26813 0.044463 -6.19283e-20)
(1.25045 0.0381997 4.9629e-20)
(1.22564 0.0323847 3.93725e-20)
(1.2033 0.0291716 0)
(1.18691 0.0287328 0)
(1.17631 0.0298712 -7.0617e-20)
(1.16751 0.0299133 6.28944e-20)
(-0.00727352 0.00411171 -1.1548e-19)
(0.111537 -0.0129317 9.90441e-20)
(0.381145 -0.00756359 -8.58297e-20)
(0.720338 0.0232836 7.41281e-20)
(1.00473 0.0578356 1.25455e-19)
(1.18164 0.0805033 -1.0478e-19)
(1.26013 0.0878059 -4.41803e-20)
(1.27619 0.084296 3.31082e-20)
(1.26372 0.0764514 -3.21331e-20)
(1.24614 0.0687768 0)
(1.22893 0.0635684 0)
(1.21202 0.0591327 -5.55468e-20)
(1.19511 0.0566118 7.07501e-20)
(1.17629 0.0535801 -3.92931e-20)
(1.15589 0.0480642 0)
(0.0162799 -0.00354303 5.82052e-20)
(0.231385 -0.0185944 4.92492e-20)
(0.604564 0.0211112 -1.75053e-19)
(0.948421 0.0749325 1.67358e-21)
(1.16315 0.110901 -2.62103e-21)
(1.25915 0.124623 -1.13861e-21)
(1.28374 0.123657 4.04246e-20)
(1.27712 0.116539 3.4397e-20)
(1.26125 0.108139 2.38997e-20)
(1.24153 0.100337 -4.43675e-21)
(1.22005 0.0924886 -5.40165e-20)
(1.19919 0.0856024 0)
(1.18001 0.079937 2.28131e-20)
(1.16472 0.0733137 -1.62373e-20)
(1.15558 0.0713977 2.99013e-20)
(0.0578833 -0.00978542 -1.22115e-19)
(0.396685 -0.00146775 1.32519e-19)
(0.822173 0.0749041 -4.49502e-20)
(1.11132 0.134117 3.45534e-20)
(1.24786 0.160283 -6.30362e-20)
(1.28957 0.164473 -4.68949e-20)
(1.28779 0.158498 1.07243e-21)
(1.27046 0.14887 0)
(1.24822 0.138343 4.89274e-20)
(1.22646 0.127715 -4.35096e-20)
(1.20766 0.118463 1.70321e-20)
(1.19172 0.110264 0)
(1.17858 0.103416 1.02195e-20)
(1.16624 0.0965523 -1.73253e-20)
(1.15085 0.0923299 0)
(0.121687 -0.00900406 -1.51654e-20)
(0.582167 0.0460908 9.76575e-22)
(0.994229 0.142254 2.23852e-20)
(1.2113 0.194116 3.69279e-20)
(1.28741 0.208445 -2.80705e-20)
(1.2946 0.204152 4.72275e-20)
(1.27696 0.192966 -1.0757e-20)
(1.25395 0.180094 0)
(1.2327 0.167352 -2.86852e-20)
(1.2139 0.155779 2.04013e-21)
(1.19633 0.144836 2.36904e-20)
(1.1798 0.134794 0)
(1.16372 0.125408 -1.49398e-20)
(1.14858 0.116088 0)
(1.13685 0.111642 8.8458e-21)
(0.205612 0.00579846 -1.62644e-20)
(0.750033 0.11766 0)
(1.11398 0.216297 2.26648e-20)
(1.2638 0.254622 0)
(1.29541 0.25609 0)
(1.28205 0.243537 0)
(1.25834 0.227777 -9.10847e-21)
(1.2352 0.211988 0)
(1.21376 0.196877 5.78805e-21)
(1.194 0.182289 0)
(1.17661 0.168844 -7.38541e-21)
(1.16188 0.156479 0)
(1.15011 0.145479 4.71512e-21)
(1.14018 0.135586 0)
(1.12876 0.129234 2.99764e-21)
(0.00331056 -0.142546 -1.22601e-20)
(-0.0110279 -0.28585 0)
(-0.0515843 -0.342248 1.92688e-20)
(-0.0966592 -0.36801 0)
(-0.139986 -0.392327 0)
(-0.179134 -0.418059 0)
(-0.211449 -0.438583 -1.27838e-20)
(-0.234054 -0.447225 0)
(-0.244355 -0.438441 1.07554e-20)
(-0.240757 -0.408005 0)
(-0.222566 -0.353601 -1.79439e-20)
(-0.189928 -0.27398 0)
(-0.144497 -0.169083 1.44134e-20)
(-0.0903676 -0.0392008 0)
(-0.0344285 0.112375 1.08549e-20)
(0.00759589 -0.119205 6.08208e-20)
(-0.00928334 -0.236906 -4.31277e-20)
(-0.0580708 -0.282874 1.89083e-20)
(-0.11098 -0.305636 6.82723e-20)
(-0.162019 -0.330837 5.79849e-22)
(-0.210359 -0.360742 -5.52016e-20)
(-0.254583 -0.389535 3.74818e-20)
(-0.292618 -0.4114 0)
(-0.322031 -0.420981 3.06998e-20)
(-0.340847 -0.413438 3.44702e-22)
(-0.347285 -0.38518 -1.51897e-20)
(-0.338783 -0.333883 0)
(-0.31383 -0.257031 -3.67556e-20)
(-0.275308 -0.152844 0)
(-0.224174 -0.0282215 -4.61981e-20)
(0.00786171 -0.0864381 9.6242e-20)
(-0.0101123 -0.177813 2.18916e-20)
(-0.0605021 -0.216486 -3.80962e-20)
(-0.113076 -0.237556 -1.02118e-19)
(-0.161639 -0.262607 6.01957e-20)
(-0.205874 -0.294084 5.47209e-20)
(-0.245069 -0.327231 -9.71354e-20)
(-0.278151 -0.357098 0)
(-0.303913 -0.379002 -7.55931e-20)
(-0.322011 -0.388715 6.72157e-20)
(-0.332321 -0.383221 2.66811e-20)
(-0.331107 -0.360643 0)
(-0.312988 -0.317497 2.23366e-20)
(-0.297577 -0.24186 -2.54722e-20)
(-0.233456 -0.155015 0)
(0.00337385 -0.0510733 4.85409e-20)
(-0.0153364 -0.117112 -1.29822e-19)
(-0.0625419 -0.150449 1.53367e-19)
(-0.109199 -0.170908 -1.36974e-19)
(-0.148622 -0.195743 -6.18018e-20)
(-0.179869 -0.227896 5.52038e-20)
(-0.20183 -0.263582 4.86348e-20)
(-0.213567 -0.298092 4.26835e-20)
(-0.214607 -0.326505 -1.07685e-19)
(-0.206013 -0.34427 4.42302e-21)
(-0.191811 -0.348754 2.5814e-20)
(-0.176302 -0.340742 0)
(-0.122272 -0.318988 2.64166e-20)
(-0.133043 -0.26227 6.08031e-20)
(-0.0237942 -0.212133 -3.16438e-20)
(-0.00524082 -0.0179518 3.83654e-22)
(-0.0244494 -0.0606605 8.90456e-20)
(-0.0642252 -0.0896905 -7.91697e-20)
(-0.0995932 -0.110545 6.9053e-20)
(-0.123237 -0.135801 1.251e-19)
(-0.132676 -0.16882 -1.1167e-19)
(-0.125859 -0.206666 -4.98167e-20)
(-0.102341 -0.244603 -1.26263e-19)
(-0.0637403 -0.277304 1.10632e-19)
(-0.013036 -0.298738 0)
(0.0487746 -0.303424 0)
(0.0884673 -0.305545 6.24836e-20)
(0.197033 -0.28149 -1.23955e-19)
(0.187413 -0.235722 3.73371e-20)
(0.357446 -0.18338 0)
(-0.0155438 0.00819339 -5.04959e-22)
(-0.0342999 -0.013306 -9.00743e-20)
(-0.0610676 -0.0374773 2.39774e-19)
(-0.0771291 -0.0587726 -7.11688e-20)
(-0.0740319 -0.0850021 -6.33336e-20)
(-0.047631 -0.118653 5.64964e-20)
(0.00460109 -0.157168 4.98308e-20)
(0.0802096 -0.195219 8.43828e-20)
(0.173305 -0.227159 -1.47305e-19)
(0.274167 -0.247062 5.81083e-20)
(0.377446 -0.248532 4.48791e-20)
(0.461691 -0.245284 0)
(0.5869 -0.211471 0)
(0.603502 -0.187268 4.94501e-20)
(0.76792 -0.130484 -4.40367e-20)
(-0.0233246 0.0241737 1.27457e-21)
(-0.0388928 0.0199834 0)
(-0.0467634 0.001017 0)
(-0.0345344 -0.0207381 1.47816e-19)
(0.007739 -0.0480545 -6.45715e-20)
(0.0849676 -0.081564 5.83424e-20)
(0.195913 -0.117321 1.00259e-19)
(0.331155 -0.149356 -8.88974e-20)
(0.476715 -0.17319 7.24272e-20)
(0.618149 -0.182832 -5.81448e-20)
(0.738756 -0.181004 -8.46052e-22)
(0.850807 -0.166262 0)
(0.930807 -0.137704 2.41033e-20)
(0.986426 -0.110527 0)
(1.06761 -0.064706 0)
(-0.0272405 0.0295018 -1.05168e-19)
(-0.0365712 0.0355701 0)
(-0.0202956 0.0211733 -1.68529e-19)
(0.0298631 -0.00086149 2.98092e-19)
(0.123527 -0.0284961 -3.30392e-19)
(0.263455 -0.0586452 -5.7083e-20)
(0.436927 -0.0858189 1.02382e-19)
(0.62087 -0.10606 0)
(0.793287 -0.116911 0)
(0.934501 -0.116534 -1.05386e-19)
(1.04071 -0.110093 -3.12214e-20)
(1.11393 -0.0915434 7.20903e-20)
(1.14319 -0.0750116 -2.41439e-20)
(1.17082 -0.0516888 0)
(1.15573 -0.0274944 -4.6121e-20)
(0.0978871 0.376854 0)
(0.283482 0.634965 3.49654e-21)
(0.380962 0.767873 -3.23133e-21)
(0.242848 0.850939 0)
(0.234275 0.711099 0)
(0.553109 0.179405 -1.49301e-22)
(0.750348 -0.33198 0)
(0.847353 -0.515075 0)
(0.904407 -0.569465 6.17119e-23)
(0.851994 -0.527808 0)
(0.731676 -0.613628 0)
(0.727802 -0.431906 -6.92118e-23)
(0.819207 -0.0877517 0)
(0.914131 0.125914 -8.48504e-23)
(0.951602 0.476895 -8.83709e-23)
(0.956498 0.517423 0)
(0.982328 0.524585 -4.55678e-22)
(0.999402 0.339092 5.40405e-22)
(1.00604 -0.153843 0)
(1.07628 -0.334102 4.86084e-22)
(1.07473 -0.603432 -5.70606e-22)
(1.08458 -0.424704 9.92017e-23)
(1.08204 0.148994 -2.26179e-22)
(1.07881 0.329371 2.16121e-22)
(1.13409 0.570742 -2.06019e-22)
(1.21019 0.318613 0)
(1.10859 -0.564856 -2.19202e-22)
(1.09256 -0.515364 2.09593e-22)
(1.10875 0.270896 -1.4626e-22)
(1.03864 0.335466 0)
(1.01793 -0.0519028 -1.09772e-22)
(1.00397 -0.114774 0)
(0.999353 0.00530899 -3.19182e-23)
(0.984404 0.0333015 -1.43946e-23)
(0.98246 0.00469858 1.49744e-24)
(0.973157 -0.00482078 -1.00711e-23)
(0.969213 -0.000200343 0)
(0.958053 0.00100923 2.61297e-24)
(-0.141171 0.213029 1.62633e-20)
(0.0931721 0.535032 -1.09526e-22)
(0.157877 0.779725 -9.43233e-21)
(0.136808 0.865819 8.99605e-21)
(0.330177 0.589046 0)
(0.700293 0.0484585 1.50461e-22)
(0.890865 -0.406198 -2.75768e-22)
(0.946127 -0.560338 0)
(0.965847 -0.571245 -6.217e-23)
(0.894798 -0.493784 0)
(0.802692 -0.58484 0)
(0.777047 -0.453453 6.97015e-23)
(0.840934 -0.122656 0)
(0.88925 0.0900874 2.89073e-21)
(0.930087 0.452442 -2.41686e-21)
(0.930077 0.501688 1.96926e-21)
(0.938317 0.516914 -1.87975e-21)
(1.00114 0.337617 -1.05985e-22)
(1.01137 -0.155613 0)
(1.09856 -0.34639 0)
(1.0941 -0.603535 -1.10198e-22)
(1.07439 -0.427531 1.12636e-21)
(1.08275 0.147377 -1.93959e-21)
(1.05237 0.312796 9.23256e-22)
(1.11189 0.552873 5.97816e-22)
(1.22422 0.323292 0)
(1.12219 -0.543476 4.34206e-22)
(1.08077 -0.522283 0)
(1.09693 0.272572 1.46777e-22)
(1.04317 0.338858 -2.76204e-22)
(1.033 -0.0480938 4.74532e-22)
(1.01296 -0.114373 -4.18006e-23)
(1.00348 0.00655413 6.62202e-23)
(0.991881 0.0343731 2.34212e-24)
(0.992034 0.00542125 1.68352e-23)
(0.98131 -0.00398374 -8.48868e-24)
(0.977122 0.000706112 -7.04558e-25)
(0.965503 0.00167871 6.81375e-25)
(-0.233705 0.0563879 1.59405e-20)
(-0.0105343 0.406209 -2.92265e-20)
(0.0443073 0.729802 -1.73593e-21)
(0.185512 0.786737 1.45516e-20)
(0.49278 0.447081 3.17835e-22)
(0.862862 -0.0534732 -3.51855e-22)
(1.03262 -0.442308 2.8049e-22)
(1.02674 -0.570884 -3.81203e-22)
(1.00577 -0.553794 0)
(0.928602 -0.45523 6.03415e-21)
(0.844202 -0.558581 -5.75563e-21)
(0.829702 -0.483415 -1.37856e-22)
(0.880095 -0.154784 0)
(0.868872 0.0716074 -5.49919e-21)
(0.907935 0.443452 5.07295e-21)
(0.904493 0.499386 -1.89324e-21)
(0.897887 0.506565 1.80651e-21)
(0.99743 0.33502 1.90007e-21)
(1.01831 -0.147619 -1.64761e-21)
(1.11335 -0.349813 0)
(1.10225 -0.595283 0)
(1.05418 -0.434333 2.21904e-21)
(1.07746 0.143757 -2.11882e-21)
(1.02635 0.301672 -1.62672e-21)
(1.08205 0.533486 -8.77664e-24)
(1.22629 0.330012 1.46598e-21)
(1.13002 -0.511325 -8.53994e-23)
(1.06055 -0.525755 -7.28767e-22)
(1.08028 0.27031 1.69836e-21)
(1.04403 0.342787 -1.26858e-21)
(1.04339 -0.0409731 5.32005e-23)
(1.01827 -0.112187 -1.47311e-22)
(1.00408 0.00772306 5.06077e-23)
(0.995898 0.0350757 -4.8388e-23)
(0.998469 0.00620092 -1.15478e-23)
(0.986582 -0.00300071 -5.76457e-24)
(0.982377 0.00163507 1.69737e-23)
(0.970767 0.00235979 2.6266e-24)
(-0.0888626 -0.0671056 0)
(0.0441512 0.223106 4.53346e-21)
(0.126651 0.597927 -4.46847e-21)
(0.349282 0.664088 0)
(0.680626 0.323964 -3.26678e-22)
(1.01723 -0.130049 3.61508e-22)
(1.16093 -0.447536 0)
(1.10259 -0.556908 1.385e-23)
(1.03773 -0.539561 -2.58784e-22)
(0.980149 -0.420703 0)
(0.874941 -0.529541 -5.19508e-21)
(0.856784 -0.519116 5.09461e-21)
(0.932683 -0.183929 -2.86225e-22)
(0.881386 0.0434726 -5.47532e-21)
(0.88971 0.408233 5.22198e-21)
(0.860039 0.489473 2.49824e-22)
(0.845024 0.496422 0)
(0.979691 0.333887 -1.77133e-22)
(1.02484 -0.137886 3.6104e-21)
(1.12127 -0.351092 8.66912e-23)
(1.10511 -0.583544 5.72654e-22)
(1.02917 -0.442579 -3.20213e-21)
(1.06694 0.12842 -3.63282e-21)
(0.998255 0.282879 4.48128e-21)
(1.04418 0.506848 -3.73859e-22)
(1.21397 0.335172 0)
(1.13407 -0.479186 -3.57759e-22)
(1.03597 -0.52755 7.3833e-22)
(1.05695 0.25898 -1.73001e-21)
(1.0381 0.341602 1.29305e-21)
(1.04801 -0.0344115 -1.59562e-22)
(1.01973 -0.10968 0)
(1.00126 0.00828905 -5.28587e-23)
(0.996486 0.0352085 9.61144e-23)
(1.00162 0.00690409 3.29949e-23)
(0.988879 -0.001966 3.40495e-23)
(0.984956 0.00252683 -1.69857e-23)
(0.973827 0.00302267 7.7777e-28)
(0.262205 -0.101723 4.75631e-23)
(0.257961 0.0697664 -4.73538e-23)
(0.310202 0.422954 0)
(0.531983 0.528829 0)
(0.874802 0.230128 0)
(1.16321 -0.167875 0)
(1.26547 -0.420344 1.47166e-20)
(1.18351 -0.505507 -2.46841e-20)
(1.06187 -0.516606 1.05949e-20)
(1.03255 -0.387163 0)
(0.924245 -0.476622 -5.25559e-21)
(0.855781 -0.560162 5.16284e-21)
(0.975549 -0.23238 5.62197e-21)
(0.903416 0.0262832 -4.71577e-21)
(0.875714 0.404718 4.86493e-21)
(0.832795 0.495779 -4.8935e-21)
(0.811538 0.478949 -1.78514e-22)
(0.963047 0.324311 -2.94289e-21)
(1.03293 -0.1251 2.80327e-21)
(1.12116 -0.344687 3.98913e-22)
(1.10316 -0.566512 3.76689e-22)
(0.996588 -0.455103 4.44916e-21)
(1.04702 0.114874 -4.77898e-21)
(0.971784 0.274601 -8.5858e-22)
(1.00929 0.483043 -3.2664e-22)
(1.19425 0.342473 -2.33766e-22)
(1.13303 -0.440609 0)
(1.00687 -0.526867 0)
(1.03067 0.246983 0)
(1.02964 0.342122 0)
(1.0484 -0.0251544 4.27053e-22)
(1.01795 -0.105608 -2.52894e-22)
(0.995569 0.00880794 1.09691e-22)
(0.993981 0.0349981 -2.99723e-22)
(1.00159 0.00760262 3.25975e-23)
(0.988292 -0.000894025 6.48458e-24)
(0.984983 0.0033538 -2.18689e-23)
(0.974761 0.00364721 -6.59237e-24)
(0.701088 -0.073088 -5.00118e-23)
(0.638638 0.00911568 -8.84721e-21)
(0.566876 0.270531 8.47972e-21)
(0.717568 0.384934 -1.9776e-20)
(1.06191 0.150769 1.88258e-20)
(1.29619 -0.177838 3.53434e-20)
(1.32741 -0.379661 -3.28733e-20)
(1.24213 -0.439125 3.41759e-22)
(1.08052 -0.487279 -2.70442e-22)
(1.05562 -0.370833 0)
(0.989113 -0.408534 -1.70573e-22)
(0.843624 -0.573692 1.08771e-20)
(0.977602 -0.288823 -1.03571e-20)
(0.922595 -0.00688827 -3.7543e-22)
(0.867027 0.360887 0)
(0.788435 0.488064 -3.85049e-21)
(0.76138 0.474475 6.3428e-21)
(0.934907 0.328674 -2.45161e-21)
(1.03953 -0.108146 0)
(1.11943 -0.332725 2.71059e-21)
(1.09842 -0.54586 6.41994e-22)
(0.964761 -0.465656 -3.80987e-21)
(1.0196 0.0845091 -5.18698e-21)
(0.941829 0.254685 4.74426e-21)
(0.969892 0.454122 -2.19861e-21)
(1.16499 0.348914 5.54894e-22)
(1.1263 -0.401759 1.65469e-21)
(0.9786 -0.524738 -3.08687e-21)
(0.999636 0.22398 2.93673e-21)
(1.01437 0.337524 -4.10111e-22)
(1.04315 -0.0172919 3.89885e-22)
(1.01288 -0.101587 0)
(0.987342 0.00866168 1.13223e-22)
(0.988694 0.0342338 -2.66823e-23)
(0.998535 0.00817347 0)
(0.985058 0.000129762 -3.29684e-23)
(0.98269 0.00405493 1.4273e-23)
(0.973726 0.00420569 -2.48154e-24)
(1.02455 -0.0275265 0)
(0.998783 0.0140546 0)
(0.885443 0.185486 1.64291e-23)
(0.954791 0.285247 0)
(1.24291 0.0985471 0)
(1.39551 -0.147592 2.96509e-20)
(1.349 -0.321284 -2.8277e-20)
(1.2677 -0.368213 1.97715e-20)
(1.10851 -0.447833 -1.88769e-20)
(1.05289 -0.371427 0)
(1.03747 -0.346144 -1.60807e-22)
(0.861857 -0.561738 1.57885e-22)
(0.949501 -0.368666 -1.2653e-20)
(0.934027 -0.0376712 -1.46044e-21)
(0.850625 0.370676 1.26864e-20)
(0.755963 0.505448 1.34562e-22)
(0.745971 0.45343 -8.83731e-23)
(0.924126 0.310694 5.24273e-21)
(1.04706 -0.0977236 -5.12871e-21)
(1.12096 -0.314397 0)
(1.08809 -0.516475 0)
(0.934639 -0.479621 -3.04374e-22)
(0.986009 0.0622921 0)
(0.910325 0.247315 3.33474e-21)
(0.941066 0.434632 -7.11412e-22)
(1.13967 0.35619 -1.94266e-21)
(1.1175 -0.355999 -2.22766e-21)
(0.953773 -0.522812 1.53471e-21)
(0.96921 0.204258 -3.48327e-22)
(0.999359 0.335305 0)
(1.03523 -0.00815125 -2.28595e-22)
(1.00585 -0.0966194 2.16725e-22)
(0.977525 0.00870519 7.30322e-23)
(0.981279 0.0333457 2.71315e-23)
(0.9929 0.00873357 -4.23345e-23)
(0.979614 0.00115163 1.28683e-23)
(0.978422 0.00463507 0)
(0.970952 0.00469165 5.18939e-24)
(1.13994 -0.0148687 2.82606e-20)
(1.13519 0.00486685 6.69468e-21)
(1.08066 0.0990756 -6.02575e-21)
(1.12891 0.187139 -6.99854e-21)
(1.31059 0.0852567 6.33454e-21)
(1.39289 -0.0638664 -2.0419e-22)
(1.3255 -0.225891 0)
(1.27541 -0.287481 -1.69711e-22)
(1.1437 -0.387813 -1.33041e-22)
(1.05955 -0.368402 0)
(1.05736 -0.304847 -1.04492e-20)
(0.903007 -0.512441 9.92795e-21)
(0.894759 -0.421451 1.74489e-22)
(0.903993 -0.117234 1.47137e-20)
(0.82484 0.301356 -1.39299e-20)
(0.722487 0.490374 1.40272e-22)
(0.702119 0.45962 9.34761e-23)
(0.892615 0.329029 0)
(1.04807 -0.0642236 5.48143e-21)
(1.13039 -0.289477 -5.20213e-21)
(1.07276 -0.48342 -3.73195e-21)
(0.915919 -0.486973 -1.51677e-21)
(0.941918 0.0191244 5.07873e-21)
(0.876365 0.21879 -3.38482e-21)
(0.901841 0.401841 1.12729e-21)
(1.10296 0.362162 3.09001e-21)
(1.10931 -0.310544 -8.59876e-22)
(0.938568 -0.517209 3.34585e-21)
(0.936964 0.173091 -2.4346e-21)
(0.977305 0.327653 0)
(1.02254 0.00320174 0)
(0.996868 -0.0909046 0)
(0.966582 0.00783142 4.42532e-23)
(0.972148 0.0317726 -7.12612e-23)
(0.985132 0.00906582 4.22513e-23)
(0.972494 0.00197679 -2.70816e-23)
(0.972559 0.0049802 -1.20647e-23)
(0.966712 0.00505824 0)
(1.12781 0.00356979 0)
(1.1214 0.0256077 0)
(1.12889 0.0660827 0)
(1.18125 0.10504 0)
(1.27844 0.0366823 0)
(1.33314 -0.0491936 0)
(1.27169 -0.176081 0)
(1.25718 -0.209066 0)
(1.17237 -0.299484 0)
(1.06746 -0.329246 0)
(1.07601 -0.23869 0)
(0.953174 -0.455075 0)
(0.846552 -0.477134 0)
(0.850341 -0.163935 0)
(0.793928 0.311249 0)
(0.674459 0.520234 0)
(0.709672 0.425421 0)
(0.925356 0.286005 0)
(1.06618 -0.0706369 0)
(1.14961 -0.256983 0)
(1.05871 -0.46196 0)
(0.892953 -0.503906 0)
(0.893662 -0.00550567 0)
(0.832455 0.216742 0)
(0.861342 0.381758 0)
(1.10734 0.376657 0)
(1.114 -0.282631 0)
(0.923842 -0.508923 0)
(0.904693 0.148985 0)
(0.954051 0.325734 0)
(1.0079 0.00707736 0)
(0.984187 -0.0848711 0)
(0.952903 0.00857593 0)
(0.95997 0.0307017 0)
(0.973703 0.00964255 0)
(0.962329 0.00309136 0)
(0.963773 0.00540689 0)
(0.96005 0.0054779 0)
(1.13889 0.0227155 0)
(1.13288 0.0212953 0)
(1.14298 0.0345288 0)
(1.17663 0.0580853 0)
(1.2184 -0.01053 0)
(1.25258 -0.0482818 0)
(1.23253 -0.159149 0)
(1.1797 -0.220997 0)
(1.13002 -0.275714 0)
(1.03855 -0.301134 0)
(0.981234 -0.264224 0)
(0.916485 -0.419379 0)
(0.815226 -0.384846 0)
(0.753731 -0.0898677 0)
(0.700061 0.375187 0)
(0.615243 0.52961 0)
(0.748165 0.364374 0)
(0.972171 0.196183 0)
(1.10398 -0.139167 0)
(1.15042 -0.282556 0)
(1.00429 -0.412288 0)
(0.824337 -0.426602 0)
(0.826146 0.03999 0)
(0.741534 0.230206 0)
(0.80298 0.344405 0)
(1.108 0.307054 0)
(1.1064 -0.276814 0)
(0.886758 -0.458443 0)
(0.865446 0.168059 0)
(0.918831 0.308045 0)
(0.98833 -0.00171294 0)
(0.965038 -0.0772612 0)
(0.931928 0.0120817 0)
(0.941157 0.028319 0)
(0.956317 0.00899908 0)
(0.947566 0.00369806 0)
(0.950368 0.00532475 0)
(0.949587 0.00565456 0)
(1.1327 0.024441 0)
(1.13503 0.0266746 0)
(1.14158 0.00878753 0)
(1.16202 0.0259151 0)
(1.1854 -0.0243523 0)
(1.18811 -0.0570134 0)
(1.19967 -0.126247 0)
(1.14627 -0.150897 0)
(1.11614 -0.211992 0)
(1.05168 -0.23012 0)
(1.01342 -0.168452 0)
(0.960533 -0.337935 0)
(0.768556 -0.342939 0)
(0.642283 -0.0675087 0)
(0.59157 0.416121 0)
(0.639527 0.497856 0)
(0.849021 0.252866 0)
(1.03644 0.10367 0)
(1.13174 -0.141028 0)
(1.1371 -0.223629 0)
(0.996541 -0.349844 0)
(0.766234 -0.405628 0)
(0.735291 0.0420934 0)
(0.651702 0.21734 0)
(0.75085 0.270241 0)
(1.1021 0.266108 0)
(1.1221 -0.231085 0)
(0.847657 -0.424054 0)
(0.819956 0.155285 0)
(0.885752 0.282375 0)
(0.971258 -0.0043275 0)
(0.943191 -0.0690912 0)
(0.909659 0.013236 0)
(0.92146 0.0249076 0)
(0.936671 0.00841974 0)
(0.930736 0.00426612 0)
(0.934144 0.004956 0)
(0.936651 0.00560937 0)
(1.1197 0.024551 0)
(1.12713 0.0213196 0)
(1.13832 0.0019928 0)
(1.13593 0.00579617 0)
(1.16148 -0.0393726 0)
(1.1457 -0.0484727 0)
(1.15169 -0.116682 0)
(1.10808 -0.13756 0)
(1.08679 -0.183206 0)
(1.01213 -0.214876 0)
(0.963212 -0.192047 0)
(0.946791 -0.284803 0)
(0.763948 -0.194063 0)
(0.624842 0.0231304 0)
(0.578303 0.381379 0)
(0.788142 0.377292 0)
(0.992295 0.163089 0)
(1.10719 0.050002 0)
(1.15205 -0.175676 0)
(1.08808 -0.216016 0)
(0.989231 -0.269339 0)
(0.717344 -0.303305 0)
(0.615849 0.0902807 0)
(0.60096 0.206785 0)
(0.722412 0.184498 0)
(1.07607 0.180379 0)
(1.12185 -0.205274 0)
(0.799943 -0.34671 0)
(0.740852 0.156605 0)
(0.853911 0.248858 0)
(0.961209 -0.0147895 0)
(0.919927 -0.0594774 0)
(0.884873 0.0159562 0)
(0.90063 0.0213649 0)
(0.915241 0.00718209 0)
(0.912691 0.00428658 0)
(0.915947 0.00408286 0)
(0.922073 0.00516164 0)
(1.10875 0.0220101 0)
(1.11253 0.0174355 0)
(1.12468 -0.00504902 0)
(1.11792 -0.00309573 0)
(1.13492 -0.0432322 0)
(1.11161 -0.0451526 0)
(1.12702 -0.0983465 0)
(1.08002 -0.102632 0)
(1.07497 -0.139112 0)
(1.02164 -0.151944 0)
(0.972906 -0.111784 0)
(0.934009 -0.198419 0)
(0.779529 -0.113375 0)
(0.728291 0.0509016 0)
(0.719605 0.299568 0)
(0.973257 0.250261 0)
(1.0886 0.07516 0)
(1.13274 0.0106701 0)
(1.15474 -0.138451 0)
(1.05291 -0.1486 0)
(1.01898 -0.189087 0)
(0.747827 -0.216328 0)
(0.589026 0.106146 0)
(0.66404 0.160087 0)
(0.746093 0.0887507 0)
(1.051 0.112356 0)
(1.128 -0.156706 0)
(0.77624 -0.27266 0)
(0.671903 0.14916 0)
(0.859628 0.203902 0)
(0.971713 -0.0203181 0)
(0.902952 -0.0452029 0)
(0.8662 0.0181469 0)
(0.888407 0.0167387 0)
(0.900336 0.00572286 0)
(0.899782 0.00415248 0)
(0.901708 0.00288456 0)
(0.910211 0.00430533 0)
(1.09436 0.0179388 0)
(1.0986 0.0129074 0)
(1.10846 -0.00689738 0)
(1.10046 -0.00699224 0)
(1.11206 -0.0412278 0)
(1.08867 -0.0370413 0)
(1.10235 -0.082667 0)
(1.05716 -0.0790041 0)
(1.05832 -0.112192 0)
(1.00159 -0.124516 0)
(0.971336 -0.0963864 0)
(0.956663 -0.145135 0)
(0.836588 -0.0494338 0)
(0.842658 0.0589134 0)
(0.859423 0.201084 0)
(1.06833 0.139014 0)
(1.11129 0.0593979 0)
(1.11905 0.0138151 0)
(1.12498 -0.13039 0)
(0.995493 -0.133978 0)
(1.01086 -0.129049 0)
(0.809097 -0.10381 0)
(0.679975 0.126505 0)
(0.828966 0.132556 0)
(0.843933 0.022975 0)
(1.02949 0.0243625 0)
(1.11987 -0.116337 0)
(0.786911 -0.167698 0)
(0.666087 0.130987 0)
(0.903964 0.13976 0)
(0.993328 -0.025606 0)
(0.900431 -0.025499 0)
(0.870584 0.0198798 0)
(0.89774 0.0111231 0)
(0.903261 0.00434537 0)
(0.90229 0.0039493 0)
(0.902501 0.00152954 0)
(0.909778 0.00315113 0)
(1.08075 0.0140043 0)
(1.08446 0.0100896 0)
(1.09159 -0.00826233 0)
(1.08449 -0.00737968 0)
(1.09138 -0.0368294 0)
(1.0712 -0.0298447 0)
(1.08027 -0.0670964 0)
(1.04374 -0.0595628 0)
(1.04823 -0.083245 0)
(1.0053 -0.0855627 0)
(0.983821 -0.0627099 0)
(0.97055 -0.0849837 0)
(0.885438 -0.0202423 0)
(0.921841 0.0315315 0)
(0.937079 0.131873 0)
(1.06859 0.0786565 0)
(1.07898 0.0359934 0)
(1.09375 0.00455139 0)
(1.11128 -0.0796374 0)
(0.981302 -0.0747025 0)
(0.999111 -0.0832498 0)
(0.876621 -0.0421948 0)
(0.814084 0.100031 0)
(0.984527 0.0909517 0)
(0.970307 0.00297475 0)
(1.01961 -0.0100486 0)
(1.09708 -0.0728345 0)
(0.853271 -0.0809323 0)
(0.750693 0.0985226 0)
(0.96513 0.0791998 0)
(1.01885 -0.0201694 0)
(0.92598 -0.00338253 0)
(0.909929 0.0188355 0)
(0.933221 0.00585439 0)
(0.931459 0.00458262 0)
(0.92825 0.0044542 0)
(0.927001 0.000907757 0)
(0.928626 0.00245902 0)
(1.06747 0.0107912 0)
(1.07198 0.00791139 0)
(1.07515 -0.00775015 0)
(1.07111 -0.00608239 0)
(1.0735 -0.0303613 0)
(1.05857 -0.0220551 0)
(1.06367 -0.0523423 0)
(1.03605 -0.0404589 0)
(1.03932 -0.0626934 0)
(1.00673 -0.0573346 0)
(0.992407 -0.0475746 0)
(0.98252 -0.0556953 0)
(0.937477 -0.00612782 0)
(0.963295 0.0114768 0)
(0.9686 0.0828831 0)
(1.05357 0.0366509 0)
(1.05277 0.0350924 0)
(1.06344 -0.000192289 0)
(1.07166 -0.0617907 0)
(0.987022 -0.0492074 0)
(0.999612 -0.0648076 0)
(0.932001 -0.00441635 0)
(0.91993 0.066688 0)
(1.03635 0.0579677 0)
(1.02257 0.00829956 0)
(1.01987 -0.0348586 0)
(1.05262 -0.0524761 0)
(0.913654 -0.0105127 0)
(0.870331 0.0822933 0)
(1.01261 0.0356321 0)
(1.02709 -0.0142286 0)
(0.960231 0.0152979 0)
(0.961816 0.0180252 0)
(0.974809 0.00288559 0)
(0.969341 0.00604391 0)
(0.965361 0.00540433 0)
(0.963861 0.00133427 0)
(0.960087 0.00269499 0)
(1.05593 0.00834971 0)
(1.06084 0.0070811 0)
(1.06131 -0.00640974 0)
(1.05971 -0.00348389 0)
(1.05889 -0.023741 0)
(1.04908 -0.0149541 0)
(1.05048 -0.0392299 0)
(1.03096 -0.0271854 0)
(1.03383 -0.0453089 0)
(1.00868 -0.0372729 0)
(1.00537 -0.0322817 0)
(0.991278 -0.0341235 0)
(0.973221 0.000935301 0)
(0.98585 -0.00200499 0)
(0.988665 0.0534882 0)
(1.03684 0.0141 0)
(1.03232 0.0244965 0)
(1.05243 -0.0039969 0)
(1.045 -0.0365138 0)
(1.00104 -0.0200166 0)
(0.999717 -0.0445014 0)
(0.960649 0.0085743 0)
(0.973635 0.0343584 0)
(1.03183 0.0327131 0)
(1.03553 0.015075 0)
(1.02663 -0.0252009 0)
(1.01595 -0.027474 0)
(0.949788 0.0117459 0)
(0.961182 0.0549822 0)
(1.03653 0.0159793 0)
(1.02207 -0.00140722 0)
(0.989184 0.0246626 0)
(1.00393 0.0142413 0)
(1.00601 0.00185388 0)
(1.00064 0.00815534 0)
(0.997943 0.00647847 0)
(0.996697 0.00243276 0)
(0.99112 0.0036513 0)
(1.04629 0.00687434 0)
(1.05125 0.00667648 0)
(1.05005 -0.00444324 0)
(1.04973 -0.00117181 0)
(1.04798 -0.0173002 0)
(1.04104 -0.00917276 0)
(1.04196 -0.028101 0)
(1.02694 -0.0169221 0)
(1.03132 -0.0315466 0)
(1.01054 -0.0231247 0)
(1.01436 -0.0213639 0)
(0.997757 -0.0228437 0)
(0.996422 0.00289657 0)
(0.997897 -0.00802795 0)
(1.00049 0.0331848 0)
(1.02934 0.000811217 0)
(1.02064 0.0189398 0)
(1.04205 -0.00556956 0)
(1.0234 -0.0243666 0)
(1.01106 -0.00931402 0)
(1.00295 -0.0343153 0)
(0.980993 0.012998 0)
(1.00026 0.0165315 0)
(1.01755 0.0205314 0)
(1.02961 0.016092 0)
(1.02377 -0.0216891 0)
(1.00623 -0.015553 0)
(0.979522 0.0180477 0)
(1.00023 0.0383977 0)
(1.03385 0.00975067 0)
(1.01572 0.00503867 0)
(1.00986 0.0247561 0)
(1.02559 0.0114421 0)
(1.01964 0.0029477 0)
(1.01733 0.00921239 0)
(1.01738 0.00680237 0)
(1.01592 0.00338896 0)
(1.01158 0.00452068 0)
(1.03855 0.0060734 0)
(1.04287 0.00640495 0)
(1.0412 -0.00226872 0)
(1.04155 0.000709131 0)
(1.03981 -0.0113264 0)
(1.03484 -0.0049957 0)
(1.03578 -0.018558 0)
(1.02416 -0.010342 0)
(1.02948 -0.0204834 0)
(1.0121 -0.0145742 0)
(1.02 -0.0135424 0)
(1.00335 -0.0151277 0)
(1.00945 0.00252377 0)
(1.00501 -0.00896721 0)
(1.00837 0.0198605 0)
(1.02384 -0.00394058 0)
(1.01398 0.0119471 0)
(1.03555 -0.00541431 0)
(1.01294 -0.0139135 0)
(1.01794 -0.00201941 0)
(1.00495 -0.0218298 0)
(0.993633 0.0128939 0)
(1.01081 0.00683269 0)
(1.00926 0.012708 0)
(1.02742 0.0136739 0)
(1.0204 -0.0110214 0)
(1.0046 -0.00313582 0)
(0.995641 0.0146705 0)
(1.01155 0.0248702 0)
(1.02813 0.0101588 0)
(1.0137 0.00993649 0)
(1.01871 0.0216717 0)
(1.03091 0.00993103 0)
(1.02324 0.00457743 0)
(1.02361 0.009329 0)
(1.02533 0.0070445 0)
(1.0235 0.00444048 0)
(1.02115 0.00526109 0)
(1.03237 0.00578619 0)
(1.03584 0.00606554 0)
(1.03444 -5.18571e-05 0)
(1.03481 0.00191411 0)
(1.03357 -0.0062715 0)
(1.0299 -0.00221568 0)
(1.03102 -0.011129 0)
(1.02232 -0.00592587 0)
(1.02731 -0.0124381 0)
(1.01408 -0.00885349 0)
(1.02198 -0.00818967 0)
(1.00813 -0.00980121 0)
(1.01573 0.00133171 0)
(1.00939 -0.0073481 0)
(1.01261 0.0106954 0)
(1.02075 -0.00477932 0)
(1.01209 0.00715927 0)
(1.02913 -0.00406442 0)
(1.00888 -0.0080264 0)
(1.01945 -2.26755e-05 0)
(1.00655 -0.0137328 0)
(1.00285 0.00929722 0)
(1.0146 0.00306654 0)
(1.00726 0.00856381 0)
(1.02355 0.0101713 0)
(1.01537 -0.0056284 0)
(1.00815 0.000767042 0)
(1.00652 0.0113905 0)
(1.01341 0.0176202 0)
(1.02317 0.00999713 0)
(1.01435 0.0102185 0)
(1.02182 0.0169898 0)
(1.03035 0.00914808 0)
(1.02386 0.00563508 0)
(1.0253 0.00822473 0)
(1.02741 0.0066901 0)
(1.0257 0.00487893 0)
(1.02469 0.00539576 0)
(1.02758 0.00571414 0)
(1.0301 0.00567945 0)
(1.0291 0.00174757 0)
(1.02944 0.00259457 0)
(1.02861 -0.00240159 0)
(1.02614 -0.000425864 0)
(1.02702 -0.00561056 0)
(1.02109 -0.00306419 0)
(1.02482 -0.00668371 0)
(1.01567 -0.00507518 0)
(1.02181 -0.00462212 0)
(1.01178 -0.00586211 0)
(1.0179 0.000335119 0)
(1.01234 -0.00493541 0)
(1.01477 0.00509179 0)
(1.01854 -0.00349474 0)
(1.01208 0.00340682 0)
(1.02381 -0.0025164 0)
(1.00911 -0.00435111 0)
(1.01886 0.00080822 0)
(1.0086 -0.00696527 0)
(1.00834 0.00626239 0)
(1.01487 0.00241421 0)
(1.00834 0.00577375 0)
(1.02081 0.00769822 0)
(1.01385 -0.000369571 0)
(1.01106 0.0040796 0)
(1.01092 0.00964343 0)
(1.01397 0.0124503 0)
(1.02109 0.0101532 0)
(1.01562 0.0110417 0)
(1.02196 0.0138234 0)
(1.02793 0.00902034 0)
(1.02384 0.00666346 0)
(1.0254 0.00753231 0)
(1.02715 0.00676189 0)
(1.02584 0.00553334 0)
(1.0256 0.00567342 0)
(1.02375 0.00565409 0)
(1.02547 0.00527808 0)
(1.02488 0.00301589 0)
(1.02517 0.00299361 0)
(1.02464 0.000290924 0)
(1.02315 0.000778307 0)
(1.02363 -0.00187573 0)
(1.01995 -0.00111009 0)
(1.02226 -0.00286314 0)
(1.01662 -0.00249101 0)
(1.02052 -0.00219227 0)
(1.01408 -0.00307836 0)
(1.01807 -5.2995e-05 0)
(1.01406 -0.00267769 0)
(1.01557 0.00199808 0)
(1.01707 -0.00184842 0)
(1.01291 0.00123068 0)
(1.01989 -0.000930299 0)
(1.01055 -0.00226888 0)
(1.01731 0.00099297 0)
(1.01031 -0.00289847 0)
(1.01144 0.00370716 0)
(1.01443 0.00272926 0)
(1.01033 0.00390727 0)
(1.01801 0.00615084 0)
(1.01304 0.00183027 0)
(1.01311 0.00403288 0)
(1.01351 0.0084853 0)
(1.01459 0.0090726 0)
(1.01941 0.00918512 0)
(1.01645 0.0100974 0)
(1.02153 0.0106076 0)
(1.0255 0.00853492 0)
(1.02353 0.00679976 0)
(1.0249 0.00638091 0)
(1.02627 0.00633812 0)
(1.0254 0.00555649 0)
(1.02567 0.00549012 0)
(1.02063 0.00547044 0)
(1.0218 0.0048849 0)
(1.02149 0.00376287 0)
(1.02176 0.00317499 0)
(1.02142 0.00200482 0)
(1.02062 0.00151594 0)
(1.02081 0.000539713 0)
(1.01872 0.000139488 0)
(1.01997 -0.000339986 0)
(1.01675 -0.0007939 0)
(1.01895 -0.000488943 0)
(1.01516 -0.00113299 0)
(1.0174 9.36835e-06 0)