/*--------------------------------*- C++ -*----------------------------------*\
| =========                 |                                                 |
| \\      /  F ield         | OpenFOAM: The Open Source CFD Toolbox           |
|  \\    /   O peration     | Version:  2512                                  |
|   \\  /    A nd           | Website:  www.openfoam.com                      |
|    \\/     M anipulation  |                                                 |
\*---------------------------------------------------------------------------*/
FoamFile
{
    version     2.0;
    format      ascii;
    arch        "LSB;label=32;scalar=64";
    class       volVectorField;
    location    "7.35";
    object      U;
}
// * * * * * * * * * * * * * * * * * * * * * * * * * * * * * * * * * * * * * //

dimensions      [0 1 -1 0 0 0 0];

internalField   nonuniform List<vector> 
13248
(
(-0.0236853 0.0174487 3.85835e-20)
(-0.0541981 0.0347992 0)
(-0.0704846 0.0403255 -6.66903e-20)
(-0.0681825 0.0409998 6.17534e-20)
(-0.04346 0.0398531 5.66879e-20)
(0.00762388 0.0381141 0)
(0.0884273 0.0363276 0)
(0.200316 0.0349543 1.26221e-19)
(0.340821 0.0346855 -1.56535e-21)
(0.502891 0.0357192 -1.05937e-19)
(0.67585 0.0378569 9.59892e-20)
(0.847165 0.0404035 -5.91784e-20)
(1.00465 0.0422961 0)
(1.13833 0.0423615 -1.00515e-19)
(1.24187 0.0396521 1.86593e-19)
(1.31318 0.033687 -4.43665e-20)
(1.35456 0.0245054 -7.88724e-20)
(1.37207 0.0127735 7.35381e-20)
(1.37365 -0.000696428 0)
(1.36741 -0.0161901 0)
(1.35823 -0.0292224 0)
(1.34806 -0.051908 0)
(1.3354 -0.0543951 2.0615e-20)
(1.31756 -0.0966678 7.29324e-20)
(-0.0292395 0.02097 -1.16333e-19)
(-0.0588298 0.0401031 7.36011e-20)
(-0.0638268 0.0451066 -4.56208e-22)
(-0.0416048 0.0436487 -9.41292e-20)
(0.0113299 0.0397883 -5.66053e-20)
(0.0984057 0.0357618 -5.27208e-20)
(0.220882 0.0330282 -9.41634e-20)
(0.375092 0.0326996 8.84798e-20)
(0.551411 0.0351432 0)
(0.735402 0.0399221 5.46578e-22)
(0.911188 0.0458494 1.81576e-21)
(1.06492 0.0513048 6.01694e-20)
(1.18726 0.0546982 0)
(1.27448 0.0548921 0)
(1.32843 0.0514719 6.74181e-20)
(1.3553 0.044646 -1.25835e-19)
(1.36362 0.0352404 7.41504e-20)
(1.36163 0.0239135 -6.9137e-20)
(1.35527 0.0115293 -2.97831e-20)
(1.34717 -0.00127933 -5.43491e-20)
(1.33717 -0.0149212 -2.16455e-20)
(1.32585 -0.0272438 -4.06759e-20)
(1.31037 -0.0387287 5.96983e-20)
(1.29866 -0.0551712 1.63831e-20)
(-0.0323733 0.0215804 0)
(-0.0569235 0.040038 0)
(-0.0456604 0.0443864 3.38908e-20)
(0.00274798 0.0420276 3.08069e-20)
(0.091031 0.0377469 -7.12866e-22)
(0.220338 0.0347187 -5.47486e-20)
(0.386241 0.0349909 0)
(0.576234 0.0393352 -4.3722e-20)
(0.771599 0.0470409 4.05492e-20)
(0.95262 0.0562521 5.41046e-22)
(1.1038 0.0646784 -6.58778e-20)
(1.21689 0.0703563 -5.88706e-20)
(1.29132 0.0721643 1.62083e-21)
(1.33282 0.0699701 -4.64397e-20)
(1.3506 0.0643794 1.11645e-19)
(1.3542 0.0563746 0)
(1.35091 0.0468697 -7.00694e-20)
(1.34469 0.036405 3.41505e-20)
(1.33693 0.0259549 2.97538e-20)
(1.32749 0.0142297 0)
(1.31713 0.00502792 2.38292e-20)
(1.3053 -0.00864186 -7.87272e-20)
(1.29368 -0.0140913 7.35203e-20)
(1.28131 -0.030676 4.39834e-20)
(-0.0330028 0.0197838 -4.10344e-20)
(-0.0475721 0.0349278 -3.9248e-20)
(-0.0143216 0.0380323 3.50061e-20)
(0.0670423 0.0359722 0)
(0.197229 0.034124 0)
(0.371439 0.036132 -1.26127e-21)
(0.574628 0.0434468 0)
(0.783157 0.0550464 -1.34616e-19)
(0.972541 0.0681843 1.22742e-19)
(1.12516 0.0797585 -1.4828e-19)
(1.2338 0.0874877 3.30343e-20)
(1.30101 0.0904543 0)
(1.33575 0.0889979 5.20793e-20)
(1.34909 0.0841768 -9.50624e-20)
(1.3506 0.0771748 2.24911e-20)
(1.34644 0.0689141 5.58213e-20)
(1.33956 0.0598803 -2.92426e-21)
(1.33115 0.0505606 -6.03138e-20)
(1.32158 0.0406115 0)
(1.31159 0.0311149 0)
(1.3009 0.0209535 -2.05373e-20)
(1.29026 0.011135 1.81013e-20)
(1.27817 0.00440118 6.38967e-20)
(1.2671 -0.0100543 -5.96526e-20)
(-0.0310356 0.0164668 -4.33319e-20)
(-0.0294386 0.0265307 -3.99888e-20)
(0.0329708 0.0285358 1.10356e-19)
(0.154693 0.0289311 -6.62045e-20)
(0.331013 0.0333211 6.13248e-20)
(0.545377 0.044435 1.1012e-19)
(0.768922 0.0610628 -7.67185e-20)
(0.970931 0.0792896 -9.09649e-20)
(1.1303 0.0949189 2.83371e-21)
(1.24004 0.105271 1.12093e-19)
(1.30515 0.109695 0)
(1.33708 0.109073 2.90232e-20)
(1.34816 0.104915 0)
(1.34796 0.098611 -4.51744e-20)
(1.3423 0.0910978 6.29539e-20)
(1.33413 0.0828564 7.38225e-22)
(1.3249 0.0742201 -1.58243e-20)
(1.31524 0.0651731 2.94975e-20)
(1.30557 0.0562547 2.47392e-20)
(1.29561 0.0469817 -2.18229e-20)
(1.28551 0.0384752 2.05282e-20)
(1.2749 0.0293839 -1.80931e-20)
(1.26412 0.0224512 0)
(1.25399 0.0110425 -1.29105e-20)
(-0.02598 0.0123614 4.33211e-20)
(-0.000587909 0.0169696 4.22145e-20)
(0.0992195 0.0194765 -3.70501e-20)
(0.267478 0.0258041 6.82921e-20)
(0.48791 0.0404794 -6.32555e-20)
(0.727314 0.062755 5.64346e-20)
(0.946918 0.0873465 -2.67618e-20)
(1.1196 0.108439 6.83409e-20)
(1.23683 0.1226 -4.2294e-20)
(1.30497 0.129305 7.18616e-20)
(1.33747 0.129951 -1.6269e-19)
(1.34802 0.12653 5.85755e-20)
(1.34682 0.120717 -4.95547e-20)
(1.34012 0.113593 4.61322e-20)
(1.33121 0.105736 3.8639e-20)
(1.32166 0.0974841 3.31348e-20)
(1.31201 0.088959 -9.12773e-20)
(1.30235 0.0804234 5.61304e-20)
(1.29249 0.0717252 -2.47356e-20)
(1.28252 0.0632906 6.29055e-20)
(1.27233 0.0547804 -2.03517e-20)
(1.26219 0.0464441 -4.73018e-20)
(1.25182 0.0395111 4.32123e-20)
(1.2418 0.0291744 1.29065e-20)
(-0.0169434 0.00797958 0)
(0.041004 0.00822937 5.64934e-22)
(0.186058 0.0144389 7.84743e-20)
(0.40253 0.0309858 -7.20852e-20)
(0.655743 0.058452 -6.41757e-20)
(0.897739 0.090468 1.17263e-19)
(1.09144 0.118828 -5.35903e-20)
(1.22353 0.138571 6.91426e-20)
(1.30016 0.14889 -2.1046e-21)
(1.33652 0.151587 -3.75721e-20)
(1.34812 0.149206 7.8928e-20)
(1.3466 0.143876 -1.14557e-19)
(1.33914 0.136984 0)
(1.32947 0.129296 -2.14121e-20)
(1.31925 0.121207 -5.59346e-20)
(1.30898 0.11289 1.74808e-20)
(1.29875 0.104486 8.46317e-22)
(1.28857 0.0959794 -3.61763e-20)
(1.27852 0.0875782 2.8268e-21)
(1.26857 0.0791914 4.11217e-20)
(1.25874 0.0710629 -1.79957e-20)
(1.24894 0.0632466 -6.32654e-21)
(1.23911 0.0558251 2.01055e-20)
(1.22974 0.0470236 0)
(-0.00294399 0.00383107 0)
(0.0967062 0.00228695 2.16207e-20)
(0.292318 0.0166382 -1.02775e-19)
(0.55128 0.0470849 3.68606e-20)
(0.818256 0.0868336 -3.41414e-20)
(1.04145 0.12446 -3.05717e-20)
(1.19738 0.152117 -5.22763e-20)
(1.28927 0.167904 2.62302e-20)
(1.33353 0.173787 2.20143e-20)
(1.34823 0.172968 0)
(1.34728 0.168257 4.66231e-20)
(1.33936 0.161531 -6.7816e-20)
(1.32893 0.153835 4.98473e-20)
(1.31792 0.145677 2.14216e-20)
(1.30697 0.137277 -1.69291e-20)
(1.29629 0.12876 -1.36446e-20)
(1.28591 0.12018 -1.25807e-20)
(1.27582 0.111662 3.80148e-20)
(1.26592 0.103203 0)
(1.25618 0.0949327 1.80822e-20)
(1.24657 0.0868537 1.45966e-20)
(1.23707 0.0790153 -3.67233e-20)
(1.22764 0.0714689 -2.41956e-20)
(1.21841 0.0636723 2.21366e-20)
(0.0168241 0.000571748 -2.57557e-20)
(0.166571 0.00126723 -1.27732e-21)
(0.413336 0.0286296 2.1095e-20)
(0.701452 0.0744655 5.8389e-20)
(0.961815 0.123159 1.64017e-20)
(1.15264 0.161709 -3.12823e-20)
(1.26894 0.18557 2.79758e-20)
(1.32694 0.196351 -2.36726e-20)
(1.34775 0.197982 4.11851e-20)
(1.34865 0.194223 1.68742e-20)
(1.3406 0.187691 -4.75293e-20)
(1.32935 0.179857 1.36458e-20)
(1.31738 0.171431 2.2636e-20)
(1.30559 0.162725 -1.11147e-20)
(1.29424 0.153894 0)
(1.28332 0.145024 1.57268e-20)
(1.27277 0.1362 2.58129e-20)
(1.26254 0.127451 3.9813e-21)
(1.25261 0.11886 -2.09158e-20)
(1.24298 0.11045 8.43785e-21)
(1.23363 0.102305 0)
(1.22449 0.0944554 -6.30576e-21)
(1.21548 0.0867305 -5.91474e-21)
(1.20667 0.0795754 0)
(0.0426862 -0.000897388 0)
(0.24881 0.00740704 1.25771e-20)
(0.541324 0.0518369 2.30567e-20)
(0.841181 0.111695 -5.99566e-20)
(1.07931 0.164737 1.92342e-20)
(1.23275 0.20045 0)
(1.31338 0.218815 2.6528e-20)
(1.34523 0.224386 -3.64375e-20)
(1.35012 0.222194 -2.05379e-20)
(1.34261 0.215964 9.05682e-21)
(1.33059 0.207865 -1.39244e-20)
(1.31754 0.198955 3.36666e-20)
(1.30474 0.189701 1.62761e-20)
(1.29252 0.180314 -1.14337e-20)
(1.28091 0.170897 -1.26593e-21)
(1.26985 0.161528 -2.9229e-20)
(1.25929 0.152256 1.31103e-20)
(1.24921 0.143151 -3.74128e-22)
(1.23955 0.134247 0)
(1.23024 0.125607 -8.44623e-21)
(1.22124 0.117261 0)
(1.21245 0.109144 1.79437e-20)
(1.20384 0.101329 -2.08519e-20)
(1.19529 0.0945725 9.3273e-21)
(0.0743055 0.000405604 -7.39511e-21)
(0.339689 0.0225481 -3.23978e-20)
(0.667182 0.0862166 3.6511e-20)
(0.962264 0.156609 2.06858e-20)
(1.16931 0.209595 -9.78252e-21)
(1.28621 0.23992 1.54742e-20)
(1.3374 0.252038 -7.48981e-21)
(1.35025 0.252598 1.18291e-20)
(1.34474 0.246994 0)
(1.33225 0.238546 2.52753e-20)
(1.318 0.228921 -1.21886e-21)
(1.30395 0.218845 -1.96213e-20)
(1.29065 0.208622 8.17066e-21)
(1.27816 0.198391 -8.94174e-21)
(1.26641 0.188234 -3.2061e-21)
(1.25532 0.178214 3.85353e-21)
(1.24483 0.168387 -2.82689e-21)
(1.23486 0.158792 -1.50005e-20)
(1.22536 0.149475 9.0841e-21)
(1.21632 0.140473 1.7749e-21)
(1.20765 0.131799 1.51811e-21)
(1.19929 0.123419 1.29713e-21)
(1.19112 0.115503 0)
(1.18303 0.108662 0)
(0.110781 0.00545454 7.40407e-21)
(0.434101 0.0478131 -6.82866e-21)
(0.782875 0.130597 -1.22411e-20)
(1.06068 0.207168 0)
(1.23346 0.256534 -4.84234e-21)
(1.3178 0.279911 -4.21937e-21)
(1.34602 0.285571 -6.87531e-21)
(1.3456 0.281408 0)
(1.33355 0.272643 0)
(1.31817 0.26203 0)
(1.30269 0.250778 0)
(1.28811 0.239362 0)
(1.27456 0.227983 -5.09472e-21)
(1.26198 0.216735 2.28732e-21)
(1.25026 0.205679 3.86091e-21)
(1.23929 0.194864 1.78272e-21)
(1.22901 0.184329 4.25088e-21)
(1.21935 0.174113 0)
(1.21027 0.16425 -9.45744e-22)
(1.20168 0.154767 -8.95332e-22)
(1.19351 0.145654 -1.5205e-21)
(1.18567 0.136891 -1.29917e-21)
(1.17802 0.128773 0)
(1.17048 0.121626 8.41324e-22)
(-0.00346474 0.00555157 6.04164e-21)
(-0.0165841 0.0570464 -5.74606e-21)
(-0.0385816 0.115851 -1.06328e-20)
(-0.0653308 0.166865 0)
(-0.0945207 0.208911 -1.37962e-20)
(-0.124267 0.247147 4.33469e-21)
(-0.153009 0.286381 -7.89776e-21)
(-0.179657 0.328555 0)
(-0.203373 0.373346 0)
(-0.223317 0.41939 0)
(-0.238543 0.464919 0)
(-0.248032 0.507921 0)
(-0.250756 0.546173 2.12841e-22)
(-0.245748 0.577303 -5.38403e-21)
(-0.2322 0.598919 1.02732e-20)
(-0.209559 0.608782 1.50354e-20)
(-0.177615 0.604981 4.86239e-21)
(-0.136553 0.586091 0)
(-0.0869963 0.551372 4.60854e-21)
(-0.0301851 0.500866 -1.31244e-20)
(0.0325198 0.435361 -8.54975e-21)
(0.0995462 0.35631 -8.24412e-21)
(0.167452 0.266583 0)
(0.239335 0.16587 0)
(-0.00309108 0.0130722 -1.78982e-20)
(-0.0148662 0.0730928 2.84208e-20)
(-0.032317 0.138937 -1.02034e-20)
(-0.0534087 0.195789 -1.92146e-20)
(-0.0766834 0.24141 2.69126e-20)
(-0.100383 0.280483 -1.65278e-20)
(-0.1227 0.318223 2.3219e-20)
(-0.142181 0.357211 1.39778e-20)
(-0.157726 0.397476 0)
(-0.168377 0.437668 -1.31618e-20)
(-0.173189 0.475922 -4.57471e-22)
(-0.171206 0.51017 1.13832e-20)
(-0.161556 0.538307 1.61391e-20)
(-0.143514 0.558123 2.12364e-20)
(-0.116574 0.567568 -9.45498e-21)
(-0.0805494 0.564873 -2.90754e-20)
(-0.0356963 0.54867 9.92328e-21)
(0.0173718 0.518179 -3.66361e-20)
(0.0777549 0.47326 0)
(0.143953 0.41426 8.80925e-21)
(0.21331 0.342802 8.53412e-21)
(0.287459 0.259829 8.22915e-21)
(0.354924 0.170223 0)
(0.432136 0.070542 0)
(-0.00299774 0.0158584 0)
(-0.0136379 0.0791387 5.41517e-20)
(-0.0263373 0.149877 -2.00771e-20)
(-0.0408875 0.212535 1.87233e-20)
(-0.0567872 0.262602 -5.08998e-20)
(-0.0727348 0.303201 0)
(-0.0869497 0.339435 -2.92857e-20)
(-0.0977199 0.374639 1.32233e-20)
(-0.103664 0.409587 -2.48124e-20)
(-0.10372 0.443306 1.10012e-20)
(-0.0970115 0.474044 6.76546e-20)
(-0.0826885 0.499829 -3.14437e-20)
(-0.060179 0.518654 -5.25085e-20)
(-0.0291567 0.528598 -2.09387e-20)
(0.0105714 0.527995 -1.75477e-21)
(0.0587794 0.515502 7.56189e-20)
(0.114878 0.490258 -3.61049e-20)
(0.177899 0.451898 6.26986e-22)
(0.24599 0.400784 0)
(0.319588 0.337581 -3.41855e-20)
(0.390524 0.264459 0)
(0.469781 0.181355 -3.45309e-20)
(0.531595 0.0961955 1.26045e-19)
(0.612159 0.00270456 7.5707e-22)
(-0.00268877 0.0144549 0)
(-0.012438 0.0754991 -6.43978e-22)
(-0.0212095 0.147785 1.90703e-20)
(-0.0296607 0.215023 -1.73814e-20)
(-0.0379859 0.269953 1.69125e-20)
(-0.0455046 0.313118 9.01913e-20)
(-0.0508302 0.348583 -2.80084e-20)
(-0.0522938 0.380093 -2.53409e-20)
(-0.0483637 0.409377 4.83457e-20)
(-0.0378539 0.436262 -6.88539e-20)
(-0.0199123 0.459468 2.0434e-20)
(0.00605043 0.477286 1.96798e-20)
(0.0403521 0.487888 0)
(0.0830185 0.489691 1.93331e-20)
(0.133805 0.481364 0)
(0.192123 0.461928 3.46361e-20)
(0.25682 0.430848 -7.2382e-20)
(0.327372 0.388357 1.40441e-20)
(0.399394 0.334576 6.63832e-20)
(0.478023 0.271086 3.41453e-20)
(0.54542 0.199699 0)
(0.627784 0.121279 -9.59474e-20)
(0.680365 0.0432899 3.035e-20)
(0.76367 -0.0439588 0)
(-0.00187295 0.0102447 0)
(-0.0109195 0.0643413 -6.14288e-20)
(-0.0173985 0.133943 -1.84012e-20)
(-0.0215044 0.202864 -3.43132e-20)
(-0.0234647 0.261713 3.17913e-20)
(-0.0231027 0.308091 -2.96509e-20)
(-0.0196729 0.34406 5.34212e-20)
(-0.0119494 0.372917 2.51721e-20)
(0.00142366 0.39703 -6.9446e-20)
(0.0216046 0.4172 4.30236e-20)
(0.0494039 0.432968 -6.10987e-20)
(0.0852585 0.443188 1.32064e-19)
(0.129246 0.446485 -7.18254e-20)
(0.181096 0.44159 3.37749e-20)
(0.240167 0.427441 1.02738e-19)
(0.305601 0.403574 -3.11931e-20)
(0.375493 0.369188 -2.79648e-20)
(0.450043 0.326009 -3.18689e-20)
(0.522308 0.272101 0)
(0.601477 0.212637 -6.35818e-20)
(0.664336 0.146038 -6.41934e-20)
(0.750165 0.0752114 8.71034e-20)
(0.794365 0.00275559 1.15665e-19)
(0.89227 -0.0820144 -1.05701e-19)
(-0.000596742 0.0049273 0)
(-0.00913116 0.049089 -7.87632e-20)
(-0.0152625 0.111796 1.00945e-21)
(-0.0176536 0.178142 6.72132e-20)
(-0.0157933 0.237966 0)
(-0.00955023 0.286559 0)
(0.00127427 0.323661 0)
(0.0172332 0.351278 -2.39528e-20)
(0.0391412 0.371665 2.00004e-22)
(0.0678124 0.386249 4.03519e-20)
(0.103839 0.395423 -5.8858e-20)
(0.147468 0.398824 -4.80526e-22)
(0.198554 0.3957 0)
(0.256557 0.385295 -3.37592e-20)
(0.320517 0.366773 3.1568e-20)
(0.389253 0.340446 -8.93195e-20)
(0.460937 0.304717 1.22192e-19)
(0.535031 0.263377 3.30901e-20)
(0.607091 0.211768 6.00217e-21)
(0.686007 0.159685 -1.11516e-19)
(0.751644 0.0958435 -5.36066e-20)
(0.846968 0.0317164 1.89693e-19)
(0.901177 -0.0418013 -1.24959e-19)
(1.03128 -0.125415 0)
(0.000738142 0.000110899 4.05117e-20)
(-0.00775903 0.0335486 3.91997e-20)
(-0.0154336 0.0862074 -3.51303e-20)
(-0.0188793 0.145422 -6.46492e-20)
(-0.0163972 0.201708 5.98958e-20)
(-0.00742073 0.249317 -5.36867e-20)
(0.00806755 0.286188 7.40261e-20)
(0.0300499 0.3128 -2.36685e-20)
(0.0586574 0.330664 4.1474e-20)
(0.0940938 0.341223 0)
(0.136471 0.345362 3.41096e-20)
(0.185672 0.343392 -6.31212e-20)
(0.241267 0.335218 6.31099e-20)
(0.302543 0.320711 -5.87412e-20)
(0.368632 0.299424 0)
(0.438472 0.27211 5.63899e-20)
(0.51185 0.23723 1.10905e-19)
(0.588898 0.19919 -1.0554e-19)
(0.670682 0.15039 -5.15283e-20)
(0.759852 0.103251 -5.69603e-20)
(0.851562 0.0380493 1.53923e-19)
(0.967286 -0.0193465 4.84202e-20)
(1.05351 -0.0975732 -4.39801e-20)
(1.20207 -0.169974 4.14524e-20)
(0.00139636 -0.00289825 -4.05218e-20)
(-0.00813302 0.0210122 1.12727e-19)
(-0.0190232 0.0620913 -3.45663e-20)
(-0.025772 0.110563 6.3085e-20)
(-0.0255239 0.158638 -5.84471e-20)
(-0.0170939 0.200772 -2.96495e-23)
(-0.000318722 0.234073 2.39639e-20)
(0.0244955 0.257876 8.35211e-20)
(0.0569336 0.272827 -1.57798e-21)
(0.0966006 0.280014 -3.71927e-20)
(0.143122 0.280447 0)
(0.196161 0.274846 -2.98267e-20)
(0.255453 0.26367 5.72914e-20)
(0.321002 0.247219 5.60439e-20)
(0.393247 0.225469 -2.63406e-20)
(0.473284 0.198998 -1.78308e-21)
(0.562603 0.16639 -2.65341e-20)
(0.661515 0.130164 4.87849e-20)
(0.772653 0.0838221 5.15377e-20)
(0.890949 0.0392653 -5.0555e-20)
(1.01754 -0.0228299 4.4996e-20)
(1.143 -0.0709335 -4.27364e-20)
(1.24864 -0.145076 0)
(1.36219 -0.192812 -4.1473e-20)
(0.0004398 -0.00326903 3.90763e-20)
(-0.0118985 0.0136967 -3.7414e-20)
(-0.0272417 0.0432623 3.37805e-20)
(-0.0385135 0.0790736 0)
(-0.0420991 0.115571 0)
(-0.0363056 0.148243 4.94825e-20)
(-0.0206614 0.174298 -4.69344e-20)
(0.00459314 0.192612 3.96937e-20)
(0.0390058 0.203279 -1.87461e-19)
(0.0822631 0.207059 4.55967e-22)
(0.134403 0.204931 3.07504e-20)
(0.196032 0.197725 0)
(0.26829 0.186013 -5.50987e-20)
(0.352633 0.170035 1.04211e-19)
(0.450287 0.149872 -7.51412e-20)
(0.561777 0.125308 -1.25927e-19)
(0.686109 0.0960209 -5.00417e-21)
(0.820242 0.0626625 8.92463e-20)
(0.95947 0.0234446 0)
(1.09527 -0.0155335 0)
(1.222 -0.0649227 -4.50117e-20)
(1.3238 -0.101339 4.27531e-20)
(1.40086 -0.159267 -1.47086e-19)
(1.43949 -0.182215 1.37068e-19)
(-0.00293388 -0.000512912 0)
(-0.0200006 0.012685 0)
(-0.0401189 0.0320808 -1.00496e-19)
(-0.0554292 0.055241 3.14604e-20)
(-0.062122 0.0790101 1.23404e-21)
(-0.0581058 0.100378 5.04388e-20)
(-0.0421803 0.117216 0)
(-0.0138567 0.12863 -4.0601e-20)
(0.0275057 0.134522 3.7096e-20)
(0.0829495 0.135447 -6.53361e-20)
(0.153854 0.132133 4.73903e-23)
(0.241575 0.125123 5.65826e-20)
(0.346794 0.114855 9.57847e-22)
(0.468914 0.101459 5.2927e-20)
(0.605402 0.0851667 -7.1538e-20)
(0.751736 0.0653625 0)
(0.901442 0.0430658 9.3846e-20)
(1.04678 0.0167015 -1.33438e-19)
(1.17891 -0.0114138 4.12189e-20)
(1.28995 -0.0420793 0)
(1.37189 -0.0756841 3.62949e-20)
(1.42119 -0.102409 1.41234e-19)
(1.43918 -0.14196 -1.31892e-19)
(1.4225 -0.151877 -1.40098e-19)
(-0.0089357 0.00491066 1.13852e-19)
(-0.0317936 0.0174983 -1.43967e-19)
(-0.0550084 0.0292502 5.12221e-22)
(-0.0711138 0.0416645 3.06225e-20)
(-0.0762558 0.0540164 -5.54079e-20)
(-0.0677884 0.064834 -5.02866e-20)
(-0.0431537 0.073084 8.87826e-20)
(-0.000276231 0.0783333 -2.6342e-21)
(0.0627927 0.0803721 -7.42107e-20)
(0.147684 0.0795783 1.32545e-19)
(0.254753 0.0764828 -8.52795e-22)
(0.382563 0.0715253 -5.64437e-20)
(0.527256 0.0649512 0)
(0.682737 0.0566418 0)
(0.841147 0.0464961 -2.42019e-20)
(0.993709 0.0337256 -4.53772e-20)
(1.13161 0.0190106 -8.90071e-20)
(1.24671 0.000172819 8.29736e-20)
(1.33355 -0.0188957 -4.126e-20)
(1.38852 -0.0431553 7.35243e-20)
(1.41369 -0.064422 -3.72443e-20)
(1.41456 -0.0873817 6.06567e-20)
(1.39963 -0.113493 -1.42441e-19)
(1.37813 -0.12255 2.74795e-20)
(-0.0164171 0.0115434 3.79035e-20)
(-0.0443476 0.0260325 0)
(-0.0667387 0.0332958 6.61129e-20)
(-0.0774434 0.0381952 -6.12201e-20)
(-0.0725632 0.0421438 5.5481e-20)
(-0.0485722 0.0451702 0)
(-0.00179562 0.0472769 0)
(0.0706754 0.0481333 -4.03835e-20)
(0.169999 0.04789 1.71204e-21)
(0.295213 0.0470493 3.49404e-20)
(0.442089 0.0459746 -3.12694e-20)
(0.603352 0.0446897 5.76657e-20)
(0.769558 0.0428488 0)
(0.930352 0.0398276 1.01482e-19)
(1.07579 0.0348541 -1.9005e-19)
(1.19765 0.0272218 1.34446e-19)
(1.2903 0.0167221 8.39516e-20)
(1.35176 0.00272486 -7.82686e-20)
(1.38408 -0.0121597 0)
(1.3927 -0.0319618 0)
(1.38696 -0.0461137 0)
(1.37392 -0.0708647 0)
(1.36155 -0.0845073 2.67992e-20)
(1.34875 -0.102878 -8.82358e-20)
(0.313625 0.0495859 -5.18188e-21)
(0.392106 -0.100784 5.20544e-21)
(0.461543 -0.267931 -1.55838e-22)
(0.52527 -0.451734 0)
(0.582625 -0.632697 -3.64115e-21)
(0.625714 -0.775386 6.48391e-21)
(0.650541 -0.850148 -5.3979e-22)
(0.661629 -0.859355 -2.25594e-21)
(0.658422 -0.833979 0)
(0.646753 -0.793712 0)
(0.637438 -0.747458 -7.72056e-23)
(0.621577 -0.722598 -7.46998e-23)
(0.586706 -0.735512 -1.45755e-21)
(0.542812 -0.743997 1.34074e-21)
(0.520038 -0.665597 0)
(0.538758 -0.456358 0)
(0.588907 -0.149637 1.99061e-21)
(0.649956 0.177521 -1.37174e-22)
(0.709009 0.440177 -1.64797e-21)
(0.76032 0.593458 -7.62132e-23)
(0.796821 0.656687 0)
(0.815214 0.666731 0)
(0.828442 0.643424 0)
(0.837546 0.621883 0)
(0.828877 0.645678 0)
(0.79771 0.701573 0)
(0.756082 0.707774 3.19344e-22)
(0.717772 0.5873 -5.18477e-22)
(0.694485 0.333062 0)
(0.690583 0.0130284 0)
(0.707993 -0.27043 -4.25253e-22)
(0.736859 -0.450158 4.13202e-22)
(0.770978 -0.532732 1.37731e-22)
(0.793922 -0.561267 0)
(0.786856 -0.57652 0)
(0.738216 -0.585883 1.60156e-22)
(0.670462 -0.547384 -1.55662e-22)
(0.612532 -0.41316 0)
(0.591539 -0.186767 2.09997e-22)
(0.608592 0.0655668 -2.94377e-22)
(0.661655 0.259016 7.38391e-23)
(0.704372 0.381877 0)
(0.704563 0.463124 -1.00359e-22)
(0.666384 0.500246 9.75845e-23)
(0.635862 0.452247 0)
(0.623183 0.295089 0)
(0.646103 0.0882976 -5.02499e-23)
(0.669349 -0.131576 1.49464e-22)
(0.67802 -0.310037 0)
(0.656831 -0.421794 0)
(0.648247 -0.430846 -2.57585e-23)
(0.640777 -0.273421 3.80939e-24)
(0.647706 -0.063896 -2.2961e-24)
(0.627771 0.209334 1.28256e-23)
(0.618436 0.391293 0)
(0.605765 0.361834 0)
(0.613152 0.254528 0)
(0.561254 -0.0902807 0)
(0.545466 -0.305046 0)
(0.528361 -0.111049 0)
(0.497852 -0.0386732 -5.08275e-22)
(0.563081 -0.176881 -2.10777e-20)
(0.624613 -0.33497 9.12906e-22)
(0.685671 -0.513448 1.88515e-20)
(0.73797 -0.686397 2.52084e-22)
(0.767955 -0.813234 0)
(0.769704 -0.87014 -9.45003e-21)
(0.753677 -0.863054 1.69147e-20)
(0.727541 -0.824415 -7.46117e-21)
(0.693639 -0.778858 5.26835e-21)
(0.663536 -0.729607 -5.03885e-21)
(0.634894 -0.694221 4.67825e-21)
(0.591193 -0.6948 -4.52778e-21)
(0.533304 -0.705633 -1.47497e-22)
(0.485772 -0.651483 -6.32754e-21)
(0.475384 -0.474333 6.14522e-21)
(0.506811 -0.191543 -7.07016e-21)
(0.563903 0.122302 6.66944e-21)
(0.6304 0.384633 -5.43355e-21)
(0.6955 0.550011 9.44892e-21)
(0.746715 0.630387 -4.06883e-21)
(0.781221 0.651839 -1.67753e-22)
(0.810357 0.634459 -2.30019e-21)
(0.832598 0.620618 4.46021e-21)
(0.836236 0.654919 -2.16224e-21)
(0.817854 0.72 1.56472e-22)
(0.789371 0.731312 3.64597e-21)
(0.763273 0.610439 9.85916e-22)
(0.749796 0.347999 -8.92614e-21)
(0.75023 0.0149739 9.07726e-21)
(0.764174 -0.28144 -4.35439e-21)
(0.782319 -0.466976 4.06601e-22)
(0.801356 -0.546624 -1.38016e-22)
(0.810709 -0.564434 2.06565e-22)
(0.795236 -0.564231 0)
(0.739671 -0.56142 0)
(0.664385 -0.521485 -6.26542e-22)
(0.600243 -0.3972 4.58542e-22)
(0.577188 -0.187826 5.3259e-22)
(0.598042 0.0487969 2.05373e-23)
(0.654868 0.239054 -6.61634e-22)
(0.698091 0.373237 1.01157e-22)
(0.70008 0.468265 0)
(0.666094 0.511374 0)
(0.637802 0.460444 0)
(0.625123 0.295463 0)
(0.651356 0.0817356 2.61759e-22)
(0.679474 -0.136069 -1.00693e-22)
(0.689923 -0.309374 0)
(0.664102 -0.417758 0)
(0.650724 -0.429187 0)
(0.640535 -0.273196 -3.01762e-23)
(0.646104 -0.0634613 1.62307e-23)
(0.628361 0.211815 -3.28893e-23)
(0.623885 0.392791 0)
(0.614608 0.363171 0)
(0.623933 0.258653 3.7825e-23)
(0.567018 -0.0813471 1.30782e-22)
(0.543373 -0.303491 0)
(0.534261 -0.109505 0)
(0.662036 -0.0986305 5.03336e-22)
(0.714136 -0.228172 -4.22877e-20)
(0.77238 -0.376602 3.97139e-20)
(0.834359 -0.546006 -3.71146e-20)
(0.881879 -0.70752 -2.53868e-22)
(0.897542 -0.816215 0)
(0.878985 -0.855342 -1.93166e-20)
(0.839308 -0.838693 1.88498e-20)
(0.79381 -0.795533 1.03445e-22)
(0.744469 -0.751414 1.64503e-22)
(0.697436 -0.705606 1.40374e-22)
(0.656821 -0.662795 1.39411e-22)
(0.606623 -0.649573 -8.65936e-21)
(0.537882 -0.659942 8.55768e-21)
(0.470103 -0.629355 0)
(0.433511 -0.489013 3.09639e-22)
(0.442603 -0.237402 -1.2014e-20)
(0.490881 0.0580844 1.18658e-20)
(0.561764 0.317999 0)
(0.636839 0.495435 0)
(0.70004 0.593063 -6.05841e-21)
(0.749099 0.627251 1.08394e-20)
(0.793176 0.61766 -9.00501e-21)
(0.829139 0.61139 9.22408e-24)
(0.846159 0.655045 8.83283e-21)
(0.841426 0.730521 -1.06057e-20)
(0.826489 0.751104 1.2646e-20)
(0.812781 0.634194 1.36015e-21)
(0.810329 0.368623 -8.79781e-21)
(0.815324 0.0276153 0)
(0.825143 -0.279625 0)
(0.832604 -0.472119 2.07807e-21)
(0.836781 -0.552128 -2.83038e-21)
(0.832253 -0.563594 9.22563e-25)
(0.809603 -0.550285 1.1149e-21)
(0.749073 -0.535978 -1.08335e-21)
(0.666951 -0.496224 0)
(0.597179 -0.383953 1.51055e-22)
(0.57223 -0.192401 1.27409e-21)
(0.595236 0.0292278 -2.28215e-21)
(0.653655 0.217832 9.45737e-22)
(0.696983 0.364005 6.7588e-23)
(0.701937 0.472904 -9.28641e-22)
(0.67204 0.52255 7.39537e-22)
(0.644966 0.469906 2.51502e-22)
(0.631656 0.297391 2.97867e-22)
(0.660529 0.0760043 -2.62457e-22)
(0.693219 -0.139744 0)
(0.70621 -0.307418 0)
(0.67546 -0.412296 -5.00859e-22)
(0.656475 -0.427406 2.22675e-22)
(0.643329 -0.27376 -1.12378e-22)
(0.648016 -0.0639941 1.30414e-22)
(0.632771 0.212609 1.45308e-22)
(0.633021 0.393824 -5.68787e-23)
(0.626617 0.364059 1.42532e-22)
(0.638365 0.263362 -1.73404e-22)
(0.577749 -0.0705343 1.2897e-22)
(0.545677 -0.301961 0)
(0.543573 -0.109233 0)
(0.802398 -0.140529 -8.3507e-20)
(0.851164 -0.267394 1.60615e-21)
(0.91483 -0.412986 7.74421e-20)
(0.979064 -0.572931 -5.68778e-22)
(1.0172 -0.716052 0)
(1.01326 -0.801802 0)
(0.972846 -0.822684 -3.73373e-20)
(0.912935 -0.799894 6.45202e-21)
(0.851885 -0.75586 4.0324e-20)
(0.792956 -0.712666 -1.85054e-21)
(0.734895 -0.673975 -9.56697e-21)
(0.684032 -0.631122 -7.38805e-21)
(0.631363 -0.602228 7.39616e-21)
(0.559664 -0.602688 0)
(0.477351 -0.590769 -8.45363e-21)
(0.416884 -0.492712 7.65523e-21)
(0.402791 -0.282401 0)
(0.437562 -0.0112602 0)
(0.506138 0.24235 7.8674e-21)
(0.585394 0.430517 -1.2686e-21)
(0.65744 0.545181 -5.99806e-21)
(0.719252 0.592824 -4.38718e-21)
(0.776503 0.591643 4.33605e-21)
(0.824922 0.592165 -4.13572e-21)
(0.856182 0.643715 -5.47999e-22)
(0.866914 0.729535 4.44416e-21)
(0.865335 0.761823 7.85065e-22)
(0.863937 0.654559 1.11363e-23)
(0.872805 0.392241 0)
(0.883188 0.0469122 9.82299e-21)
(0.889875 -0.269629 -1.01089e-20)
(0.887457 -0.469483 4.29976e-22)
(0.87752 -0.55071 0)
(0.858159 -0.558978 -2.10046e-22)
(0.828178 -0.535944 2.067e-21)
(0.76497 -0.510043 -3.48639e-21)
(0.677539 -0.469954 -2.09312e-22)
(0.602119 -0.371594 -1.6502e-22)
(0.574896 -0.199583 1.53687e-21)
(0.598529 0.00762451 2.29567e-22)
(0.657322 0.19521 -1.31853e-21)
(0.701228 0.35246 1.11119e-21)
(0.709596 0.475048 1.95304e-23)
(0.683207 0.533329 9.3686e-22)
(0.657458 0.481081 -1.16323e-21)
(0.643626 0.301307 -2.24303e-21)
(0.674161 0.0711836 5.7955e-22)
(0.710557 -0.143282 9.64079e-22)
(0.726673 -0.304718 -1.63016e-21)
(0.690858 -0.405179 9.46471e-22)
(0.665469 -0.424906 -1.06298e-22)
(0.649078 -0.274965 2.24089e-22)
(0.653272 -0.0656081 7.47614e-23)
(0.640738 0.211632 -1.41963e-22)
(0.645483 0.394393 -2.94795e-23)
(0.641506 0.364522 -1.57079e-22)
(0.656179 0.268513 0)
(0.59348 -0.0579944 -1.19421e-22)
(0.552496 -0.300226 1.70967e-22)
(0.556087 -0.110081 0)
(0.931378 -0.176642 7.8496e-20)
(0.987402 -0.302939 -1.5206e-19)
(1.05833 -0.442564 7.27398e-20)
(1.11712 -0.583905 6.30203e-20)
(1.13618 -0.696678 -1.15228e-19)
(1.1077 -0.75525 8.49698e-21)
(1.0471 -0.762733 4.29501e-20)
(0.97363 -0.741854 2.79599e-20)
(0.902599 -0.707002 -2.73428e-20)
(0.838612 -0.668256 0)
(0.775421 -0.634944 -1.53889e-20)
(0.7165 -0.599291 2.84195e-20)
(0.661933 -0.563282 -1.31115e-20)
(0.593714 -0.548696 0)
(0.506193 -0.542977 0)
(0.426567 -0.483361 2.44177e-22)
(0.389137 -0.320985 -1.49556e-20)
(0.405472 -0.0821286 1.45207e-20)
(0.464467 0.160486 0)
(0.542245 0.357022 1.0698e-20)
(0.619227 0.487647 -1.84567e-20)
(0.690792 0.549528 1.51864e-20)
(0.759185 0.557951 -1.37375e-20)
(0.820005 0.563622 -6.35009e-22)
(0.865413 0.619627 1.54862e-20)
(0.889772 0.715768 -8.40263e-21)
(0.901801 0.76484 -3.89466e-22)
(0.91404 0.674603 -8.47122e-21)
(0.933913 0.422604 -1.41466e-21)
(0.950212 0.0771415 9.8407e-21)
(0.95522 -0.248095 5.74969e-22)
(0.944244 -0.456569 -6.14729e-21)
(0.921843 -0.541012 1.01822e-20)
(0.887881 -0.54916 -4.50026e-21)
(0.850334 -0.520667 0)
(0.78671 -0.48495 -1.62136e-21)
(0.695898 -0.443721 1.55278e-21)
(0.614148 -0.359533 -1.21682e-21)
(0.583408 -0.2085 1.51726e-21)
(0.606282 -0.0165063 -1.3528e-22)
(0.66482 0.169861 0)
(0.709948 0.338442 -1.00441e-22)
(0.722975 0.475765 4.06256e-22)
(0.70104 0.543241 0)
(0.676882 0.49311 3.13155e-21)
(0.662333 0.307319 -1.08936e-21)
(0.692915 0.0675407 6.6912e-22)
(0.731356 -0.146438 6.21097e-22)
(0.750983 -0.301105 0)
(0.710181 -0.396239 0)
(0.677565 -0.421508 -3.95632e-22)
(0.657582 -0.276774 3.60007e-22)
(0.661584 -0.0683564 -8.19365e-23)
(0.651959 0.208769 -7.8146e-23)
(0.660943 0.394228 7.23149e-23)
(0.658946 0.36443 1.57249e-22)
(0.676967 0.27376 -4.81604e-22)
(0.61408 -0.0438811 0)
(0.56391 -0.297989 -2.74687e-22)
(0.571588 -0.111893 -1.3959e-23)
(1.07506 -0.218525 7.23535e-20)
(1.13472 -0.339049 -7.16274e-20)
(1.20076 -0.461414 5.48821e-22)
(1.23839 -0.57435 -4.44196e-22)
(1.22845 -0.655394 4.35928e-22)
(1.17654 -0.692773 -3.63402e-22)
(1.10318 -0.694737 5.38897e-22)
(1.02527 -0.678332 0)
(0.94998 -0.653638 -3.51354e-22)
(0.882149 -0.622289 2.81817e-22)
(0.817415 -0.59183 2.27534e-22)
(0.753203 -0.562636 -2.10306e-22)
(0.695842 -0.527226 0)
(0.634916 -0.499272 0)
(0.552302 -0.488933 1.27377e-22)
(0.460999 -0.457539 0)
(0.400109 -0.34588 -1.34717e-22)
(0.393522 -0.148682 0)
(0.437036 0.0770035 -9.25907e-21)
(0.50792 0.277412 1.68858e-20)
(0.585611 0.421541 -1.39795e-20)
(0.663663 0.497335 6.25119e-21)
(0.741014 0.515349 5.32468e-21)
(0.811912 0.5254 -5.16831e-21)
(0.869595 0.585226 -7.53424e-21)
(0.908954 0.690535 7.37435e-21)
(0.935786 0.755471 0)
(0.959695 0.685017 4.34391e-22)
(0.989326 0.451585 0)
(1.01187 0.11407 0)
(1.01787 -0.216773 1.53934e-20)
(1.0012 -0.434887 -1.60175e-20)
(0.968653 -0.52443 6.11473e-22)
(0.920935 -0.53479 4.14588e-22)
(0.874472 -0.504561 -2.51504e-22)
(0.812143 -0.460516 -1.17248e-21)
(0.721073 -0.416637 1.13831e-21)
(0.632634 -0.346268 -1.12056e-21)
(0.596065 -0.217841 9.50244e-22)
(0.616747 -0.0426629 2.24511e-22)
(0.67511 0.142018 -6.834e-22)
(0.722794 0.320099 -1.81171e-22)
(0.741057 0.471184 5.32619e-22)
(0.723317 0.551646 0)
(0.702096 0.507379 -1.1793e-21)
(0.688091 0.316554 2.38088e-21)
(0.717331 0.0661809 -3.02385e-21)
(0.755602 -0.149097 -6.25253e-22)
(0.778722 -0.296852 0)
(0.733282 -0.385379 1.55292e-22)
(0.692585 -0.416799 -4.33179e-22)
(0.668605 -0.279086 -2.64537e-23)
(0.672604 -0.0723082 6.60123e-23)
(0.666003 0.203992 -4.1144e-23)
(0.678974 0.393561 -2.45399e-23)
(0.678505 0.363916 0)
(0.700209 0.278883 4.81889e-22)
(0.639222 -0.0283958 0)
(0.579945 -0.294981 0)
(0.589859 -0.1145 3.29713e-23)
(1.23712 -0.256916 -6.52319e-20)
(1.28061 -0.360526 6.41186e-20)
(1.32048 -0.454587 -4.30643e-22)
(1.32322 -0.534402 4.55383e-22)
(1.28268 -0.587868 0)
(1.2149 -0.6129 0)
(1.1378 -0.618254 -5.52196e-22)
(1.0626 -0.611215 0)
(0.990141 -0.596679 3.59881e-22)