/*--------------------------------*- C++ -*----------------------------------*\
| =========                 |                                                 |
| \\      /  F ield         | OpenFOAM: The Open Source CFD Toolbox           |
|  \\    /   O peration     | Version:  2512                                  |
|   \\  /    A nd           | Website:  www.openfoam.com                      |
|    \\/     M anipulation  |                                                 |
\*---------------------------------------------------------------------------*/
FoamFile
{
    version     2.0;
    format      ascii;
    arch        "LSB;label=32;scalar=64";
    class       surfaceScalarField;
    location    "135.85";
    object      phi;
}
// * * * * * * * * * * * * * * * * * * * * * * * * * * * * * * * * * * * * * //

dimensions      [0 3 -1 0 0 0 0];

oriented        oriented;

internalField   nonuniform List<scalar> 
26232
(
-0.000425609
0.00213636
-0.00171076
-0.00089139
0.00434009
-0.00387431
-0.000784623
0.0049376
-0.00504437
0.000451952
0.00396014
-0.00519672
0.00337906
0.00123163
-0.00415874
0.0085412
-0.00350379
-0.00165835
0.0163951
-0.010431
0.00257714
0.0271368
-0.019482
0.00874032
0.0405538
-0.0302484
0.0168313
0.055976
-0.0420249
0.0266028
0.0723663
-0.0539639
0.0375736
0.0885149
-0.0652539
0.0491052
0.103275
-0.0752661
0.0605056
0.115789
-0.0836473
0.0711339
0.125645
-0.09035
0.0804934
0.132939
-0.0956004
0.0883065
0.138184
-0.0998016
0.0945572
0.142067
-0.103387
0.0995032
0.145244
-0.106679
0.103502
0.147993
-0.109877
0.107128
0.150546
-0.11286
0.110306
0.152593
-0.116023
0.113976
0.153789
-0.118019
0.116823
-0.121323
0.121212
0.153899
-0.000226176
0.00236254
-0.000212342
0.00432625
0.000676826
0.00404843
0.00308719
0.00154978
0.00765812
-0.0033393
0.0149271
-0.0107728
0.0251246
-0.0206285
0.0379772
-0.0323347
0.0526656
-0.0449367
0.0679919
-0.0573513
0.0826719
-0.0686439
0.0956341
-0.078216
0.10624
-0.0858725
0.114374
-0.0917812
0.120376
-0.0963513
0.124844
-0.100069
0.128383
-0.103341
0.131421
-0.106424
0.134162
-0.10942
0.136639
-0.112354
0.138986
-0.115206
0.141018
-0.118054
0.143587
-0.120588
-0.124005
0.146269
-1.62442e-05
0.00237878
0.000564119
0.00374589
0.0024156
0.00219695
0.00624298
-0.00227759
0.0126845
-0.00978083
0.0220689
-0.0201571
0.034133
-0.0326927
0.0479553
-0.046157
0.0622001
-0.0591816
0.0755244
-0.0706756
0.0869405
-0.0800599
0.0960123
-0.0872879
0.102851
-0.092711
0.107938
-0.0968687
0.111872
-0.100285
0.115146
-0.103342
0.118056
-0.106251
0.120739
-0.109108
0.123254
-0.111934
0.12567
-0.11477
0.128007
-0.117543
0.130352
-0.1204
0.132714
-0.122951
-0.125947
0.134657
0.000173462
0.00220532
0.00135374
0.00256561
0.00427509
-0.000724403
0.00966539
-0.00766789
0.0179984
-0.0181138
0.0291126
-0.0312713
0.0420485
-0.0456286
0.0553494
-0.0594578
0.0676018
-0.0714339
0.0778706
-0.0809444
0.0858629
-0.0880522
0.0918273
-0.0932523
0.0962971
-0.0971808
0.0998217
-0.100393
0.102803
-0.103267
0.105473
-0.106011
0.107947
-0.108726
0.110289
-0.111449
0.112556
-0.114201
0.114751
-0.116965
0.116946
-0.119739
0.119099
-0.122553
0.121373
-0.125224
-0.128423
0.123849
0.000359725
0.0018456
0.00218736
0.000737971
0.00627948
-0.00481652
0.0132762
-0.0146646
0.0232219
-0.0280596
0.035222
-0.0432714
0.0477201
-0.0581267
0.0591892
-0.0709269
0.0686734
-0.0809181
0.0759364
-0.0882075
0.0812855
-0.0934013
0.0852626
-0.0972293
0.0883834
-0.100302
0.0910151
-0.103025
0.0933761
-0.105628
0.095587
-0.108222
0.0977111
-0.11085
0.0997849
-0.113523
0.101817
-0.116233
0.103831
-0.11898
0.105847
-0.121755
0.107863
-0.124569
0.109993
-0.127354
-0.130383
0.111953
0.000576337
0.00126926
0.00312884
-0.00181453
0.00845542
-0.0101431
0.016899
-0.0231081
0.027794
-0.0389546
0.0395513
-0.0550288
0.0504763
-0.0690516
0.0594901
-0.0799408
0.0663173
-0.0877453
0.0712635
-0.0931536
0.0748685
-0.0970064
0.0776428
-0.100004
0.0799532
-0.102612
0.0820213
-0.105093
0.0839642
-0.107571
0.0858337
-0.110092
0.0876508
-0.112667
0.0894224
-0.115295
0.0911642
-0.117975
0.0928898
-0.120705
0.0946179
-0.123483
0.0963664
-0.126317
0.0981792
-0.129167
-0.132226
0.100022
0.000841402
0.000427858
0.00418988
-0.00516301
0.0107033
-0.0166565
0.0201493
-0.0325541
0.0310762
-0.0498816
0.0415984
-0.0655509
0.0503935
-0.0778467
0.0570336
-0.0865809
0.0617618
-0.0924735
0.0651069
-0.0964988
0.0675917
-0.0994911
0.0696005
-0.102012
0.0713654
-0.104377
0.0730045
-0.106732
0.0745684
-0.109135
0.0760788
-0.111602
0.0775484
-0.114137
0.0789918
-0.116738
0.0804207
-0.119404
0.0818482
-0.122133
0.0832897
-0.124925
0.0847459
-0.127773
0.0862556
-0.130677
-0.133696
0.0877262
0.00115054
-0.000722686
0.00531324
-0.00932571
0.0127888
-0.0241321
0.0225694
-0.0423347
0.0326707
-0.0599829
0.0414134
-0.0742936
0.0480782
-0.0845115
0.0527639
-0.0912666
0.0559656
-0.0956752
0.0582264
-0.0987596
0.0599632
-0.101228
0.0614317
-0.103481
0.0627628
-0.105708
0.0640146
-0.107984
0.0652127
-0.110333
0.0663704
-0.11276
0.0674971
-0.115263
0.0685999
-0.117841
0.0696873
-0.120491
0.0707705
-0.123216
0.0718577
-0.126012
0.072965
-0.128881
0.07411
-0.131822
-0.134848
0.075262
0.00148452
-0.0022072
0.00639152
-0.0142327
0.01443
-0.0321706
0.0238449
-0.0517495
0.0325686
-0.0687067
0.0394253
-0.0811503
0.0442444
-0.0893306
0.0474332
-0.0944554
0.0495492
-0.0977911
0.0510541
-0.100264
0.0522426
-0.102416
0.0532697
-0.104508
0.054206
-0.106644
0.0550812
-0.108859
0.0559088
-0.111161
0.056697
-0.113548
0.057453
-0.116019
0.0581863
-0.118574
0.0589073
-0.121212
0.0596252
-0.123934
0.0603506
-0.126737
0.0610903
-0.12962
0.0618495
-0.132581
-0.135605
0.0626059
0.00181487
-0.00402208
0.0072957
-0.0197135
0.015405
-0.0402799
0.0239115
-0.060256
0.0310387
-0.0758339
0.0361595
-0.086271
0.0394861
-0.0926572
0.0415562
-0.0965256
0.0428827
-0.0991176
0.0438163
-0.101198
0.0445499
-0.10315
0.0451731
-0.105131
0.0457234
-0.107195
0.0462168
-0.109353
0.0466625
-0.111606
0.0470682
-0.113954
0.0474421
-0.116393
0.047792
-0.118924
0.0481259
-0.121546
0.0484524
-0.12426
0.048779
-0.127064
0.0491146
-0.129956
0.0494649
-0.132931
-0.13597
0.0498296
0.0021086
-0.00613067
0.00790972
-0.0255147
0.0156211
-0.0479913
0.0229062
-0.0675411
0.0284512
-0.0813788
0.0320844
-0.0899043
0.0342384
-0.0948112
0.0354626
-0.0977498
0.0361796
-0.0998345
0.0366373
-0.101656
0.0369558
-0.103468
0.0371853
-0.105361
0.0373468
-0.107356
0.0374507
-0.109457
0.0375047
-0.11166
0.0375158
-0.113965
0.0374909
-0.116368
0.0374376
-0.118871
0.0373643
-0.121473
0.0372797
-0.124176
0.037192
-0.126976
0.0371061
-0.12987
0.0370202
-0.132845
-0.135886
0.0369365
0.00233965
-0.00847033
0.0081687
-0.0313437
0.0151264
-0.0549491
0.0210727
-0.0734873
0.0251705
-0.0854766
0.0275716
-0.0923055
0.028802
-0.0960416
0.0293581
-0.0983058
0.0295647
-0.100041
0.0295891
-0.10168
0.0295035
-0.103383
0.0293367
-0.105194
0.0291015
-0.107121
0.0288056
-0.109161
0.0284556
-0.11131
0.0280577
-0.113567
0.0276188
-0.115929
0.0271456
-0.118398
0.0266449
-0.120972
0.0261245
-0.123655
0.0255924
-0.126444
0.0250563
-0.129334
0.0245216
-0.13231
0.0240024
-0.135367
6.22372e-05
0.00434857
-0.0044108
-0.000137777
0.0122106
-0.0120106
-0.000889036
0.0186161
-0.0178649
-0.00220853
0.0233089
-0.0219894
-0.00393709
0.0267391
-0.0250105
-0.0058586
0.0295767
-0.0276551
-0.00778063
0.0323089
-0.0303869
-0.00955373
0.0351211
-0.033348
-0.0110498
0.0379648
-0.0364686
-0.0121352
0.0406664
-0.0395811
-0.0126601
0.043003
-0.0424781
-0.012463
0.0447361
-0.0449332
-0.0113831
0.0456307
-0.0467106
-0.00927546
0.0454708
-0.0475784
-0.00602369
0.0440756
-0.0473274
-0.00154645
0.0413132
-0.0457904
0.00420546
0.0371077
-0.0428596
0.0111658
0.0314888
-0.0384491
0.0192516
0.0244895
-0.0325754
0.0282888
0.0162372
-0.0252744
0.0380713
0.00686781
-0.0166503
0.0484044
-0.00367412
-0.00665898
0.0590771
-0.0152849
0.00461209
-0.028438
0.0701181
0.0173971
0.000394966
0.0039536
0.000957908
0.0116477
0.00123011
0.0183439
0.00103005
0.0235089
0.000453451
0.0273157
-0.000262106
0.0302922
-0.0008699
0.0329167
-0.00116931
0.0354205
-0.00100219
0.0377976
-0.000232703
0.0398969
0.00126752
0.0415028
0.00361982
0.0423838
0.00693159
0.0423189
0.0112853
0.0411171
0.0167277
0.0386332
0.0232618
0.034779
0.0308401
0.0295293
0.0393848
0.0229441
0.0487793
0.0150951
0.0587725
0.00624411
0.0693704
-0.00373015
0.080229
-0.0145327
0.0911013
-0.0261572
-0.0395963
0.10226
0.000642194
0.00331141
0.00187741
0.0104125
0.00313821
0.0170831
0.00410549
0.0225416
0.00476551
0.0266556
0.00531876
0.029739
0.00604021
0.0321952
0.00717823
0.0342825
0.00892083
0.036055
0.0114054
0.0374124
0.0147354
0.0381728
0.0189885
0.0381307
0.024215
0.0370924
0.030433
0.0348991
0.0376249
0.0314413
0.0457282
0.0266758
0.0546574
0.0206001
0.0642369
0.0133646
0.0743409
0.00499107
0.0848299
-0.00424492
0.0955343
-0.0144346
0.106325
-0.0253236
0.117303
-0.0371353
-0.0513788
0.129086
0.000768427
0.00254298
0.00246515
0.00871574
0.00453981
0.0150085
0.00658366
0.0204978
0.00845535
0.024784
0.0102638
0.0279305
0.0122535
0.0302055
0.0146877
0.0318483
0.0177812
0.0329616
0.0216831
0.0335104
0.0264843
0.0333716
0.0322281
0.032387
0.0389168
0.0304036
0.0465125
0.0273034
0.0549418
0.023012
0.0640749
0.0175427
0.0737819
0.0108931
0.083784
0.00336254
0.0942159
-0.00544091
0.104627
-0.0146556
0.115323
-0.0251311
0.126362
-0.0363624
0.138376
-0.049149
-0.0647508
0.151748
0.00076883
0.00177415
0.00265101
0.00683356
0.00522135
0.0124381
0.00807391
0.0176452
0.0109724
0.0218855
0.0139062
0.0249967
0.017033
0.0270787
0.0205791
0.0283022
0.0247572
0.0287835
0.0297231
0.0285445
0.0355653
0.0275295
0.0423085
0.0256437
0.049922
0.0227901
0.0583225
0.0189029
0.0673932
0.0139413
0.076954
0.00798192
0.0868007
0.00104644
0.0969967
-0.00683345
0.1074
-0.0158445
0.118046
-0.0253017
0.129735
-0.0368199
0.142447
-0.049074
0.157072
-0.0637737
-0.0801869
0.172508
0.00066323
0.00111092
0.00244698
0.00504981
0.00511159
0.00977351
0.00834611
0.0144107
0.0118947
0.0183368
0.0156525
0.021239
0.019668
0.0230632
0.0240843
0.0238859
0.0290671
0.0238007
0.0347515
0.0228601
0.0412143
0.0210667
0.0484655
0.0183925
0.0564529
0.0148028
0.0650702
0.0102855
0.0741799
0.0048316
0.0837139
-0.00155204
0.0937601
-0.00899981
0.104228
-0.0173018
0.1156
-0.0272165
0.128227
-0.0379286
0.14278
-0.0513726
0.158596
-0.0648904
0.17586
-0.0810374
-0.0958582
0.191531
0.00048029
0.00063063
0.00192571
0.00360439
0.00429006
0.00740916
0.0074101
0.0112907
0.0110866
0.0146603
0.015181
0.0171446
0.0196569
0.0185873
0.0245631
0.0189797
0.0299883
0.0183754
0.0360156
0.0168328
0.0426924
0.0143899
0.0500217
0.0110632
0.0579752
0.0068493
0.0665149
0.00174583
0.0757776
-0.00443113
0.0858723
-0.0116467
0.0970726
-0.0202001
0.109824
-0.0300532
0.124384
-0.0417765
0.140837
-0.0543814
0.158576
-0.0691117
0.176258
-0.0825729
0.192812
-0.0975905
-0.107969
0.204923
0.000244081
0.000386549
0.00118188
0.00266659
0.00293908
0.00565196
0.00550447
0.00872527
0.0087768
0.011388
0.012642
0.0132794
0.0170279
0.0142015
0.0219181
0.0140895
0.0273384
0.0129551
0.0333372
0.010834
0.0399813
0.00774579
0.0473632
0.0036813
0.0556558
-0.00144327
0.0651375
-0.00773592
0.0760657
-0.0153593
0.08884
-0.0244211
0.10363
-0.0349899
0.120464
-0.0468876
0.13867
-0.0599822
0.157487
-0.0731988
0.175105
-0.08673
0.190274
-0.0977418
0.201402
-0.108718
-0.113823
0.207256
-2.56583e-05
0.000412208
0.000318746
0.00232219
0.00130109
0.00466962
0.00303779
0.00698857
0.00553234
0.00889344
0.00873553
0.0100762
0.0126025
0.0103345
0.0171323
0.00955963
0.0223908
0.00769663
0.0285196
0.00470515
0.0357767
0.000488764
0.044457
-0.00499901
0.0549288
-0.0119151
0.0675058
-0.0203129
0.0823078
-0.0301613
0.0992072
-0.0413205
0.117634
-0.053417
0.136732
-0.0659857
0.155068
-0.0783178
0.171479
-0.0896098
0.184244
-0.0994948
0.1931
-0.106598
0.197429
-0.113047
-0.115103
0.198708
-0.000289432
0.00070164
-0.000515589
0.00254835
-0.000290196
0.00444422
0.000607154
0.00609122
0.00228698
0.00721362
0.00481957
0.0075436
0.00828321
0.0068709
0.0128302
0.00501268
0.0187173
0.00180945
0.0262721
-0.00284958
0.0358366
-0.00907572
0.0477267
-0.0168892
0.0620156
-0.026204
0.0784973
-0.0367947
0.0966117
-0.0482756
0.115457
-0.0601653
0.133852
-0.0718126
0.150545
-0.0826786
0.164295
-0.0920677
0.17451
-0.099825
0.180742
-0.105726
0.184184
-0.11004
0.185241
-0.114104
-0.115843
0.185981
-0.000481428
0.00118307
-0.00110359
0.0031705
-0.00138149
0.00472213
-0.000987982
0.00569771
0.000330324
0.00589531
0.00281068
0.00506324
0.00674793
0.00293365
0.0125026
-0.000741955
0.0204191
-0.0061071
0.0308162
-0.0132466
0.0437905
-0.0220501
0.0591412
-0.0322398
0.0763141
-0.0433769
0.0944286
-0.0549092
0.112379
-0.0662258
0.12896
-0.0767469
0.14311
-0.0859627
0.154075
-0.0936431
0.161656
-0.0996484
0.166338
-0.104508
0.168881
-0.108269
0.170878
-0.112037
0.172243
-0.115469
-0.117849
0.174249
-0.000527687
-0.00123149
-0.00155373
-0.00105274
0.000683832
0.00408873
0.00959952
0.0175979
0.0283221
0.0416783
0.0572018
0.0740672
0.0911959
0.107421
0.121688
0.133248
0.141842
0.147702
0.151556
0.154177
0.156214
0.158153
0.159507
0.16287
0.0794044
-0.0547372
0.045451
0.0884809
-0.0841719
0.0750954
0.0970757
-0.114881
0.106286
0.104434
-0.140841
0.133482
0.109432
-0.157618
0.15262
0.111181
-0.164759
0.16301
0.110771
-0.165759
0.166169
0.109834
-0.162463
0.1634
0.107029
-0.156842
0.159647
0.100673
-0.155703
0.162059
0.0931525
-0.161562
0.169082
0.0900486
-0.163401
0.166505
0.0946124
-0.143546
0.138982
0.104965
-0.0944505
0.0840982
0.118203
-0.0236163
0.0103784
0.131703
0.0541012
-0.0676012
0.143845
0.120723
-0.132866
0.152968
0.164224
-0.173347
0.158011
0.186008
-0.191051
0.160079
0.194421
-0.196489
0.161157
0.19422
-0.195298
0.161029
0.192634
-0.192505
0.158068
0.203199
-0.200238
0.152003
0.22833
-0.222265
0.144494
0.245909
-0.2384
0.137755
0.224809
-0.218069
0.133749
0.150455
-0.146449
0.133679
0.0365042
-0.036434
0.137081
-0.0812885
0.0778863
0.142975
-0.169953
0.164058
0.149035
-0.216461
0.210401
0.152388
-0.235413
0.23206
0.15063
-0.246025
0.247783
0.142766
-0.258222
0.266086
0.13094
-0.263464
0.275291
0.119561
-0.239144
0.250523
0.113016
-0.166284
0.172829
0.114133
-0.050828
0.0497108
0.122058
0.0699514
-0.0778765
0.131443
0.165027
-0.174411
0.13488
0.22688
-0.230317
0.130233
0.276338
-0.271691
0.122141
0.300073
-0.291981
0.116246
0.271143
-0.265247
0.116073
0.177697
-0.177524
0.120862
0.0387158
-0.0435052
0.124848
-0.0881068
0.0841211
0.123989
-0.210608
0.211466
0.121121
-0.288385
0.291253
0.118763
-0.308384
0.310742
0.118227
-0.241504
0.24204
0.117831
-0.0682017
0.0685971
0.116188
0.100122
-0.0984783
0.113707
0.293314
-0.290832
0.112371
0.34795
-0.346614
0.110364
0.237373
-0.235365
0.105672
0.091453
-0.0867616
0.099334
-0.230821
0.237159
0.0978486
-0.30543
0.306916
-0.0627588
0.0660411
0.108286
-0.0607632
0.114087
-0.0899737
0.118691
-0.119485
0.121127
-0.143277
0.121255
-0.157745
0.118748
-0.162252
0.113932
-0.160943
0.108897
-0.157428
0.103793
-0.151738
0.0959362
-0.147847
0.0855251
-0.151151
0.0776555
-0.155532
0.0778872
-0.143777
0.086814
-0.103377
0.101392
-0.0381941
0.118452
0.0370413
0.134908
0.104266
0.148031
0.151102
0.156555
0.177484
0.16166
0.189316
0.165223
0.190657
0.167406
0.190451
0.167198
0.203408
0.164075
0.231453
0.158618
0.251366
0.152361
0.231065
0.147123
0.155694
0.144216
0.0394105
0.14413
-0.0812018
0.146482
-0.172305
0.14943
-0.219409
0.150292
-0.236276
0.146789
-0.242522
0.137622
-0.249055
0.124919
-0.250761
0.1136
-0.227826
0.108291
-0.160974
0.111611
-0.0541483
0.121881
0.0596814
0.132637
0.154271
0.136916
0.222601
0.133207
0.280047
0.125377
0.307903
0.118771
0.277749
0.117403
0.179066
0.121597
0.0345211
0.125463
-0.0919728
0.123934
-0.209079
0.120326
-0.284777
0.117536
-0.305593
0.117584
-0.241553
0.117779
-0.0683966
0.117055
0.100846
0.115849
0.29452
0.114396
0.349402
0.112354
0.239415
0.106618
0.0971887
0.0987537
-0.222957
0.0983374
-0.305014
-0.0607153
0.133744
-0.0654215
0.137449
-0.0936789
0.138646
-0.120681
0.136442
-0.141074
0.131298
-0.152601
0.124569
-0.155524
0.116709
-0.153082
0.1088
-0.149518
0.101775
-0.144713
0.0932246
-0.139296
0.0811076
-0.139034
0.0692217
-0.143646
0.0645947
-0.139151
0.0707174
-0.1095
0.0854768
-0.0529535
0.105259
0.0172594
0.12545
0.0840749
0.142458
0.134094
0.154571
0.16537
0.16285
0.181037
0.169038
0.184469
0.173783
0.185706
0.176684
0.200506
0.176939
0.231198
0.173975
0.25433
0.168369
0.236671
0.161711
0.162351
0.155654
0.0454679
0.15177
-0.0773185
0.150422
-0.170956
0.150188
-0.219175
0.148679
-0.234766
0.143831
-0.237673
0.133893
-0.239118
0.120535
-0.237402
0.1091
-0.216391
0.104893
-0.156767
0.110076
-0.0593306
0.122203
0.0475541
0.134315
0.142158
0.139765
0.217152
0.137292
0.28252
0.129795
0.3154
0.12236
0.285184
0.11955
0.181876
0.122853
0.0312178
0.126614
-0.0957343
0.124498
-0.206962
0.120037
-0.280317
0.116659
-0.302215
0.117204
-0.242098
0.118195
-0.0693876
0.118453
0.100589
0.118464
0.294508
0.116946
0.35092
0.114917
0.241445
0.108335
0.10377
0.099035
-0.213656
0.0994049
-0.305384
-0.0598558
0.155872
-0.0695462
0.157903
-0.0957095
0.156075
-0.118853
0.149997
-0.134996
0.140611
-0.143215
0.130119
-0.145032
0.119709
-0.142672
0.109614
-0.139422
0.101017
-0.136116
0.0926014
-0.130881
0.0807767
-0.127209
0.0664487
-0.129318
0.0568228
-0.129525
0.058493
-0.11117
0.071617
-0.0660774
0.0926344
-0.00375806
0.11551
0.0611993
0.135877
0.113728
0.151479
0.149768
0.162952
0.169564
0.17181
0.175611
0.179243
0.178273
0.18553
0.19422
0.189512
0.227216
0.189552
0.25429
0.18509
0.241133
0.176986
0.170455
0.167671
0.0547837
0.159952
-0.0696
0.154869
-0.165873
0.151425
-0.215732
0.147545
-0.230886
0.141522
-0.231651
0.131308
-0.228904
0.117706
-0.2238
0.106048
-0.204733
0.10243
-0.153149
0.109007
-0.0659082
0.122731
0.0338303
0.136352
0.128538
0.143334
0.210169
0.142305
0.283548
0.135283
0.322422
0.127097
0.29337
0.122673
0.1863
0.124703
0.0291877
0.128282
-0.0993128
0.12568
-0.20436
0.120282
-0.274919
0.116143
-0.298075
0.117098
-0.243053
0.119019
-0.0713094
0.120307
0.0993016
0.12149
0.293325
0.119949
0.35246
0.118002
0.243392
0.110803
0.110969
0.100142
-0.202995
0.101045
-0.306288
-0.0601192
0.175433
-0.0724715
0.174651
-0.0949279
0.168742
-0.112943
0.158639
-0.124893
0.146248
-0.130824
0.133615
-0.132399
0.122119
-0.131176
0.111221
-0.128524
0.101247
-0.126142
0.0928236
-0.122458
0.0827308
-0.117116
0.0685949
-0.115182
0.0553453
-0.116275
0.0516501
-0.107475
0.0613556
-0.0757828
0.0811029
-0.0235054
0.105395
0.0369071
0.128222
0.0909012
0.146834
0.131156
0.161234
0.155165
0.172672
0.164172
0.182767
0.168178
0.192334
0.184652
0.200149
0.219402
0.203775
0.250664
0.201367
0.243541
0.192789
0.179033
0.180215
0.0673569
0.168468
-0.0578529
0.159515
-0.156919
0.152942
-0.209159
0.14682
-0.224764
0.139791
-0.224622
0.129737
-0.21885
0.116307
-0.210371
0.104353
-0.192779
0.100774
-0.149569
0.108148
-0.0732828
0.123153
0.0188251
0.13841
0.113281
0.147385
0.201194
0.148313
0.282621
0.142086
0.328648
0.133232
0.302225
0.126962
0.192569
0.12723
0.0289201
0.130418
-0.102501
0.127436
-0.201378
0.121052
-0.268535
0.11597
-0.292994
0.117237
-0.244319
0.12019
-0.0742624
0.122536
0.0969558
0.124857
0.291004
0.123321
0.353996
0.121533
0.24518
0.113984
0.118518
0.102049
-0.19106
0.103234
-0.307472
-0.0614378
0.191244
-0.0721838
0.186267
-0.0899513
0.176255
-0.102931
0.162919
-0.111558
0.148696
-0.116601
0.135162
-0.118864
0.123332
-0.119347
0.112834
-0.118026
0.10266
-0.115968
0.093772
-0.11357
0.085508
-0.108852
0.0739933
-0.103667
0.05974
-0.102022
0.0508544
-0.0985894
0.0549395
-0.079868
0.0714375
-0.0400034
0.0952554
0.0130892
0.119506
0.066651
0.140569
0.110092
0.157553
0.138181
0.171222
0.150503
0.183506
0.155894
0.196066
0.172092
0.207806
0.207662
0.215037
0.243434
0.214693
0.243885
0.206322
0.187404
0.192029
0.08165
0.176731
-0.0425551
0.164045
-0.144234
0.154593
-0.199707
0.146383
-0.216555
0.138348
-0.216587
0.128769
-0.209271
0.116074
-0.197675
0.10387
-0.180575
0.0997094
-0.145409
0.107196
-0.0807697
0.123146
0.00287507
0.140168
0.0962602
0.151489
0.189873
0.154707
0.279403
0.149712
0.333643
0.140576
0.31136
0.132474
0.200672
0.130477
0.0309163
0.132949
-0.104972
0.129686
-0.198115
0.12232
-0.261169
0.116115
-0.286788
0.11757
-0.245775
0.121613
-0.0783047
0.125038
0.0935305
0.12848
0.287562
0.126974
0.355502
0.125415
0.246738
0.117821
0.126112
0.104727
-0.177967
0.105937
-0.308682
-0.0637308
0.199956
-0.0672166
0.190571
-0.0805663
0.177662
-0.0900226
0.163134
-0.0970294
0.148863
-0.10233
0.135746
-0.105747
0.12402
-0.10762
0.113841
-0.107847
0.104274
-0.106402
0.0951627
-0.104458
0.087623
-0.101313
0.0795433
-0.0955873
0.0677456
-0.0902239
0.0559613
-0.0868052
0.0533185
-0.0772251
0.0641526
-0.0508375
0.0853835
-0.00814171
0.109793
0.0422415
0.13262
0.0872658
0.151885
0.118915
0.167637
0.134752
0.181745
0.141785
0.196431
0.157405
0.211229
0.192864
0.222257
0.232406
0.224984
0.241157
0.217496
0.194893
0.201919
0.0972277
0.183918
-0.0245544
0.168085
-0.128401
0.156112
-0.187733
0.146118
-0.206561
0.137078
-0.207547
0.128034
-0.200227
0.116624
-0.186265
0.104458
-0.168409
0.0991554
-0.140106
0.105942
-0.0875559
0.122396
-0.0135795
0.141237
0.0774195
0.155279
0.17583
0.161421
0.273261
0.158397
0.336667
0.149243
0.320515
0.139246
0.210668
0.134472
0.0356911
0.13579
-0.106291
0.132315
-0.194641
0.12404
-0.252894
0.116542
-0.27929
0.118018
-0.247252
0.123198
-0.083485
0.127726
0.0890028
0.13228
0.283008
0.130822
0.35696
0.129551
0.248008
0.122218
0.133446
0.108132
-0.16388
0.109119
-0.309669
-0.0669016
0.198589
-0.0585493
0.186888
-0.0688659
0.17347
-0.0766046
0.159852
-0.0834109
0.146921
-0.0893997
0.135056
-0.0938819
0.124108
-0.0966725
0.11425
-0.0979895
0.105484
-0.0976349
0.0969889
-0.0959636
0.0893816
-0.0937052
0.0832989
-0.0895046
0.0757833
-0.0827084
0.0652013
-0.0762232
0.0575132
-0.0695369
0.0609844
-0.0543087
0.0765478
-0.0237051
0.0994421
0.0193473
0.122968
0.0637398
0.143925
0.0979578
0.161384
0.117294
0.176867
0.126303
0.193188
0.141084
0.210783
0.17527
0.225172
0.218017
0.230428
0.235901
0.224223
0.201097
0.208702
0.112749
0.189351
-0.00520379
0.171279
-0.11033
0.157257
-0.173711
0.145831
-0.195135
0.135832
-0.197548
0.127167
-0.191561
0.117461
-0.176559
0.105919
-0.156867
0.0991729
-0.13336
0.104396
-0.0927788
0.1207
-0.0298835
0.141311
0.0568085
0.158154
0.158988
0.167385
0.264029
0.166967
0.337085
0.158547
0.328935
0.14697
0.222246
0.139218
0.0434431
0.138856
-0.105929
0.135184
-0.190968
0.126143
-0.243853
0.117224
-0.27037
0.118507
-0.248534
0.124851
-0.0898298
0.130491
0.0833628
0.136148
0.277351
0.134776
0.358333
0.133835
0.24895
0.127075
0.140206
0.112206
-0.149012
0.112744
-0.310207
-0.0708366
0.189442
-0.0492828
0.178552
-0.0579756
0.166908
-0.0649605
0.155283
-0.0717866
0.143934
-0.0780505
0.133102
-0.0830498
0.122968
-0.0865383
0.113579
-0.0886009
0.105336
-0.0893914
0.098033
-0.0886611
0.0910245
-0.0866967
0.0852491
-0.0837291
0.0807671
-0.0782264
0.0745339
-0.06999
0.0664368
-0.0614399
0.0633116
-0.0511835
0.0714109
-0.0318044
0.0903021
0.000455997
0.11297
0.0410718
0.134692
0.0762359
0.153174
0.0988114
0.169314
0.110162
0.186385
0.124013
0.205813
0.155842
0.223576
0.200253
0.232834
0.226643
0.229095
0.204836
0.213862
0.127983
0.193118
0.0155404
0.173454
-0.0906664
0.157838
-0.158095
0.145356
-0.182653
0.134539
-0.186731
0.125932
-0.182955
0.11803
-0.168657
0.107908
-0.146744
0.0999083
-0.125361
0.102672
-0.0955427
0.117965
-0.0451761
0.140024
0.0347494
0.159967
0.139045
0.172842
0.251154
0.175612
0.334315
0.168534
0.336013
0.155515
0.235266
0.144498
0.05446
0.142039
-0.103471
0.138122
-0.18705
0.128536
-0.234268
0.118113
-0.259947
0.118956
-0.249377
0.126478
-0.0973519
0.133259
0.0765822
0.14003
0.27058
0.138767
0.359595
0.138168
0.24955
0.132281
0.146093
0.116881
-0.133613
0.116771
-0.310097
-0.0754069
0.178349
-0.0416503
0.169447
-0.0490738
0.159831
-0.0553448
0.149926
-0.0618812
0.139911
-0.0680356
0.13005
-0.0731886
0.120744
-0.0772328
0.112193
-0.0800497
0.104478
-0.081676
0.0979132
-0.0820965
0.0921241
-0.0809076
0.0867216
-0.0783266
0.0828036
-0.0743085
0.0800617
-0.067248
0.0757591
-0.0571372
0.0708206
-0.046245
0.0718809
-0.0328647
0.0833672
-0.0110303
0.103151
0.0212878
0.124675
0.0547121
0.143836
0.079651
0.160182
0.0938156
0.176791
0.107404
0.196551
0.136082
0.216611
0.180194
0.228719
0.214535
0.227262
0.206293
0.213936
0.141309
0.194621
0.0348552
0.174522
-0.0705669
0.157684
-0.141258
0.144411
-0.169379
0.133017
-0.175337
0.124166
-0.174104
0.1178
-0.162292
0.109825
-0.138768
0.101325
-0.116861
0.101139
-0.0953566
0.114372
-0.0584096
0.137225
0.0118967
0.159805
0.116465
0.176149
0.23481
0.18255
0.327914
0.178064
0.340498
0.164279
0.249051
0.150357
0.0683821
0.145258
-0.0983715
0.140952
-0.182744
0.131094
-0.22441
0.11917
-0.248024
0.119284
-0.249491
0.127983
-0.106051
0.135918
0.0686478
0.143787
0.262711
0.142701
0.360681
0.142462
0.249789
0.137731
0.150824
0.12208
-0.117961
0.121161
-0.309178
-0.0804745
0.168231
-0.0356319
0.160714
-0.0415573
0.152388
-0.0470188
0.143581
-0.0530739
0.134535
-0.0589902
0.125621
-0.064274
0.117142
-0.0687543
0.109403
-0.0723103
0.102453
-0.0747261
0.0963497
-0.0759933
0.0913418
-0.0758998
0.087033
-0.0740178
0.0833523
-0.0706277
0.0814434
-0.0653392
0.0807654
-0.0564592
0.0790735
-0.0445531
0.0779261
-0.0317174
0.0828313
-0.0159355
0.0964939
0.00762516
0.114991
0.0362145
0.133584
0.061058
0.149938
0.0774617
0.166372
0.0909705
0.186561
0.115893
0.208388
0.158366
0.22355
0.199373
0.225224
0.20462
0.213667
0.152866
0.194072
0.05445
0.173724
-0.050219
0.156293
-0.123827
0.14269
-0.155776
0.131133
-0.16378
0.121913
-0.164884
0.116538
-0.156917
0.11105
-0.13328
0.103122
-0.108933
0.100115
-0.0923496
0.110113
-0.068408
0.132876
-0.0108658
0.158363
0.090978
0.178705
0.214468
0.188601
0.318017
0.186511
0.342589
0.173228
0.262333
0.156278
0.0853322
0.148355
-0.0904478
0.143513
-0.177903
0.133707
-0.214604
0.120469
-0.234786
0.119421
-0.248443
0.129292
-0.115923
0.138436
0.059504
0.147414
0.253733
0.146551
0.361543
0.146656
0.249683
0.143303
0.154177
0.127711
-0.10237
0.125877
-0.307344
-0.0858971
0.157816
-0.0305777
0.151293
-0.0350346
0.144194
-0.0399194
0.136519
-0.0453992
0.128585
-0.051056
0.120798
-0.0564872
0.11338
-0.0613366
0.106491
-0.0654207
0.100283
-0.0685182
0.0947322
-0.0704426
0.0899777
-0.0711453
0.086213
-0.0702531
0.083096
-0.0675107
0.080942
-0.0631853
0.0808255
-0.0563427
0.0820013
-0.0457289
0.0828356
-0.0325517
0.0850528
-0.0181526
0.0926498
2.81978e-05
0.106055
0.0228089
0.121415
0.0456988
0.136337
0.0625391
0.151615
0.0756924
0.170064
0.0974441
0.192186
0.136244
0.211305
0.180255
0.217041
0.198884
0.208631
0.161276
0.192953
0.0701274
0.17382
-0.0310855
0.155581
-0.105588
0.141312
-0.141507
0.129634
-0.152102
0.119909
-0.155159
0.114758
-0.151767
0.111484
-0.130006
0.104905
-0.102354
0.0998305
-0.0872748
0.106148
-0.0747251
0.126763
-0.0314813
0.153542
0.0641993
0.177377
0.190633
0.191832
0.303563
0.193516
0.340905
0.18169
0.274159
0.163126
0.103896
0.151778
-0.0790996
0.146056
-0.172181
0.136462
-0.20501
0.12221
-0.220534
0.11964
-0.245872
0.130339
-0.126622
0.140646
0.0491971
0.150724
0.243655
0.15021
0.362058
0.150716
0.249178
0.1489
0.155993
0.133715
-0.0871844
0.130886
-0.304515
-0.0915185
0.203922
-0.0264598
-0.20804
0.200628
-0.0317404
0.197174
-0.0364657
0.193148
-0.0413729
0.188454
-0.0463621
0.183174
-0.0512072
0.177434
-0.0555971
0.171303
-0.0592899
0.164836
-0.0620511
0.158107
-0.0637132
0.151116
-0.0641544
0.144028
-0.0631647
0.136989
-0.0604719
0.129876
-0.0560727
0.122991
-0.0494576
0.116965
-0.0397026
0.111457
-0.0270433
0.106162
-0.0128579
0.102472
0.00371776
0.102332
0.0229496
0.106535
0.0414959
0.114155
0.0549183
0.123656
0.0661918
0.134376
0.0867242
0.146462
0.124158
0.157938
0.168779
0.169079
0.187742
0.183659
0.146695
0.196474
0.0573124
0.200165
-0.0347757
0.194604
-0.100027
0.184096
-0.130998
0.171915
-0.139922
0.159097
-0.14234
0.148744
-0.141413
0.140092
-0.121354
0.12872
-0.0909827
0.117925
-0.0764794
0.115833
-0.0726336
0.125232
-0.04088
0.137959
0.0514724
0.149621
0.178971
0.158871
0.294312
0.165745
0.334031
0.168368
0.271536
0.165972
0.106292
0.163548
-0.0766753
0.159958
-0.168591
0.150738
-0.195789
0.134481
-0.204277
0.125929
-0.23732
0.12846
-0.129154
0.130809
0.0468483
0.136132
0.238332
0.136659
0.361531
0.14023
0.245607
0.142489
0.153734
0.130382
-0.075078
0.124863
-0.298996
-0.0944812
0.211952
-0.0232006
-0.215211
0.208405
-0.0281935
0.204777
-0.0328377
0.200688
-0.0372835
0.195998
-0.0416726
0.190697
-0.0459059
0.184864
-0.0497635
0.178616
-0.0530423
0.172048
-0.0554828
0.165289
-0.0569546
0.158465
-0.0573309
0.151672
-0.0563711
0.145109
-0.0539091
0.138929
-0.0498924
0.133133
-0.0436622
0.128138
-0.0347075
0.124315
-0.0232198
0.121052
-0.009595
0.118045
0.00672469
0.116081
0.024913
0.116669
0.0409082
0.120853
0.050734
0.12875
0.0582952
0.139782
0.075692
0.151975
0.111966
0.16318
0.157573
0.17718
0.173743
0.196113
0.127763
0.211111
0.0423142
0.213713
-0.0373784
0.206179
-0.0924923
0.194107
-0.118927
0.181401
-0.127216
0.168395
-0.129335
0.157808
-0.130827
0.15012
-0.113666
0.140159
-0.0810215
0.128822
-0.0651421
0.12474
-0.068552
0.133552
-0.0496919
0.147724
0.0373001
0.161686
0.16501
0.173493
0.282505
0.182744
0.32478
0.18671
0.26757
0.183916
0.109086
0.179329
-0.0720887
0.173897
-0.163159
0.163644
-0.185536
0.145551
-0.186185
0.135726
-0.227496
0.139092
-0.132519
0.142071
0.0438686
0.14797
0.232434
0.148746
0.360755
0.152744
0.24161
0.156501
0.149978
0.14412
-0.0626975
0.137183
-0.29206
-0.0971618
0.219924
-0.0206904
-0.222434
0.216786
-0.0250558
0.213287
-0.0293392
0.209392
-0.0333885
0.204996
-0.0372764
0.200066
-0.0409756
0.194644
-0.044342
0.188829
-0.047227
0.182734
-0.0493879
0.176448
-0.050668
0.170056
-0.050939
0.16366
-0.0499757
0.15734
-0.047589
0.151252
-0.043804
0.145592
-0.0380023
0.140702
-0.0298177
0.137148
-0.0196657
0.135234
-0.00768078
0.134079
0.00787969
0.133096
0.0258959
0.132641
0.0413633
0.133863
0.0495118
0.13774
0.054418
0.144594
0.0688386
0.153881
0.102678
0.166718
0.144736
0.187281
0.15318
0.211384
0.10366
0.226464
0.0272341
0.227313
-0.0382274
0.218455
-0.0836343
0.205994
-0.106466
0.193483
-0.114705
0.180398