/*--------------------------------*- C++ -*----------------------------------*\
| =========                 |                                                 |
| \\      /  F ield         | OpenFOAM: The Open Source CFD Toolbox           |
|  \\    /   O peration     | Version:  2312                                  |
|   \\  /    A nd           | Website:  www.openfoam.com                      |
|    \\/     M anipulation  |                                                 |
\*---------------------------------------------------------------------------*/
FoamFile
{
    version     2.0;
    format      ascii;
    arch        "LSB;label=32;scalar=64";
    class       surfaceScalarField;
    location    "15.5";
    object      phi;
}
// * * * * * * * * * * * * * * * * * * * * * * * * * * * * * * * * * * * * * //

dimensions      [0 3 -1 0 0 0 0];

oriented        oriented;

internalField   nonuniform List<scalar> 
4490
(
-0.00155976
0.009029
-0.00746925
0.0121931
-0.00183971
-0.0119131
0.0508042
-0.0394044
0.000793231
0.110148
-0.088077
0.0287334
0.180031
-0.136329
0.0664459
0.24967
-0.179166
0.109527
0.311569
-0.214429
0.15253
0.358517
-0.242648
0.195699
0.387471
-0.261824
0.23287
-0.279319
0.271756
0.395034
0.00240123
0.00662777
0.0336862
-0.0331247
0.0904417
-0.0961599
0.153364
-0.151
0.208146
-0.19111
0.246984
-0.218005
0.269753
-0.237198
0.279563
-0.252458
0.2879
-0.270161
-0.293802
0.302383
0.0124586
-0.00583079
0.0604257
-0.0810919
0.113108
-0.148842
0.152551
-0.190443
0.175016
-0.213574
0.186628
-0.229618
0.195179
-0.245748
0.207445
-0.264724
0.224947
-0.287663
-0.309927
0.241073
0.0250746
-0.0309054
0.0709021
-0.126919
0.102331
-0.180272
0.117785
-0.205896
0.126424
-0.222213
0.134759
-0.237952
0.143831
-0.254821
0.151228
-0.272121
0.154671
-0.291106
-0.3118
0.156543
0.030931
-0.0618364
0.0603949
-0.156383
0.074383
-0.19426
0.0800711
-0.211584
0.0827582
-0.2249
0.0833747
-0.238569
0.0817239
-0.25317
0.0792272
-0.269624
0.0783306
-0.29021
0.0783679
-0.311837
-0.0148537
0.0242019
-0.00934824
-0.0371971
0.0358491
-0.0135058
-0.060011
0.0374675
-0.0146536
-0.0816766
0.0367247
-0.0150591
-0.101987
0.0351575
-0.0148471
-0.119982
0.0318199
-0.0138251
-0.136708
0.0288298
-0.0121039
-0.148126
0.0199431
-0.00852454
-0.157588
0.015281
-0.00581885
0.000997282
-0.159534
0.000948449
-0.00151987
0.0257218
-0.00823931
0.0425686
-0.0156053
0.0448335
-0.0196633
0.0407827
-0.0191809
0.0346752
-0.0127099
0.0253489
0.000163224
0.0159566
0.0212748
-0.00116857
0.0508037
-0.0142478
-0.042667
0.0944679
0.00833318
0.0173886
0.0167029
0.0341989
0.0251599
0.0363765
0.0365333
0.0294092
0.0534573
0.0177512
0.0779441
0.00086207
0.111838
-0.0179376
0.161445
-0.0507752
0.220286
-0.0730884
-0.123733
0.301352
0.00818427
0.00920435
0.0213231
0.02106
0.0373899
0.0203097
0.0586277
0.00817146
0.0896862
-0.0133073
0.133689
-0.0431409
0.192276
-0.0765248
0.262854
-0.121352
0.347747
-0.157982
-0.211301
0.435314
0.0017351
0.010882
0.031985
0.0688898
0.122028
0.188414
0.26442
0.338767
0.413655
0.47411
-0.150172
-0.0176894
0.00832691
-0.130503
-0.0448665
0.0251979
-0.102075
-0.0739166
0.0454889
-0.0606286
-0.100991
0.0595448
-0.00660671
-0.122065
0.068043
0.0614698
-0.134957
0.0668803
0.141377
-0.137934
0.0580275
0.218146
-0.129195
0.0524252
0.282043
-0.111739
0.0478428
0.328099
-0.0904271
0.0443706
0.358463
-0.0715876
0.041224
0.378542
-0.0588799
0.0388002
0.39293
-0.050888
0.0365006
0.404642
-0.0460411
0.034329
0.414514
-0.0392414
0.0293691
0.422311
-0.0335281
0.0257316
0.427493
-0.0208413
0.0156589
0.430446
-0.0168982
0.0139455
0.431284
0.00441738
-0.00525562
0.430939
0.000822816
-0.000477975
0.429527
0.036589
-0.0351764
0.427492
0.0264848
-0.0244501
0.424967
0.076822
-0.0742973
0.421957
0.0734884
-0.0704779
0.138085
-0.134658
0.105066
-0.0282878
0.120599
-0.0603993
0.141304
-0.0946217
0.169728
-0.129415
0.206286
-0.158623
0.25045
-0.179121
0.2984
-0.185884
0.342326
-0.173121
0.376147
-0.14556
0.399421
-0.113701
0.413207
-0.0853735
0.419412
-0.0650845
0.421215
-0.0526914
0.421651
-0.0464775
0.422418
-0.0400078
0.424006
-0.035116
0.425752
-0.0225873
0.427345
-0.0184913
0.428032
0.00373042
0.428169
0.000685657
0.427451
0.0373063
0.42624
0.0276959
0.424484
0.0785779
0.42231
0.0756633
0.140841
0.308637
-0.0355723
0.314194
-0.0659564
0.320206
-0.100634
0.32981
-0.139019
0.343732
-0.172545
0.361139
-0.196528
0.377166
-0.201911
0.387942
-0.183897
0.395272
-0.152889
0.40103
-0.11946
0.406331
-0.0906743
0.410335
-0.0690883
0.412467
-0.0548236
0.413325
-0.0473348
0.413788
-0.0404709
0.414654
-0.0359827
0.415972
-0.0239046
0.417799
-0.0203185
0.419334
0.00219529
0.42077
-0.000749908
0.421542
0.036534
0.422005
0.0272325
0.421941
0.0786426
0.421584
0.07602
0.141841
0.434784
-0.0350421
0.4291
-0.0602726
0.419676
-0.0912093
0.407266
-0.12661
0.392638
-0.157918
0.37709
-0.18098
0.361621
-0.186442
0.348579
-0.170855
0.341963
-0.146273
0.343307
-0.120805
0.351064
-0.0984316
0.362064
-0.0800879
0.372972
-0.0657315
0.382018
-0.0563813
0.388861
-0.0473137
0.394118
-0.0412396
0.39822
-0.0280062
0.402148
-0.0242465
0.405562
-0.0012189
0.409089
-0.00427726
0.412072
0.0335513
0.414954
0.0243499
0.417449
0.0761486
0.419812
0.073656
0.140024
0.465363
-0.0262954
0.450104
-0.0450133
0.429067
-0.0701719
0.401638
-0.0991808
0.370634
-0.126914
0.336871
-0.147217
0.305865
-0.155436
0.288783
-0.153772
0.286628
-0.144118
0.29548
-0.129657
0.309447
-0.112398
0.324384
-0.095025
0.33793
-0.0792774
0.349439
-0.0678902
0.358964
-0.0568388
0.367192
-0.0494674
0.374236
-0.0350502
0.380905
-0.0309159
0.387042
-0.00735604
0.3933
-0.0105353
0.399248
0.0276037
0.405271
0.0183269
0.411151
0.0702681
0.417062
0.0677452
0.134383
0.488316
-0.0208257
-0.493786
0.483316
-0.0400128
0.473759
-0.0606149
0.457917
-0.0833384
0.436524
-0.105521
0.412904
-0.123597
0.39286
-0.135392
0.378843
-0.139755
0.370653
-0.135929
0.366971
-0.125974
0.366024
-0.111452
0.366616
-0.0956168
0.367885
-0.0805462
0.369073
-0.0690786
0.369938
-0.0577037
0.370553
-0.0500818
0.371171
-0.0356684
0.371818
-0.0315628
0.372669
-0.00820705
0.373578
-0.0114441
0.374378
0.0268038
0.3753
0.0174045
0.37609
0.0694786
0.377066
0.0667685
0.13342
0.538937
-0.0183736
-0.541389
0.533902
-0.0349779
0.526191
-0.0529043
0.514758
-0.0719048
0.499542
-0.0903051
0.483221
-0.107276
0.467771
-0.119943
0.453989
-0.125973
0.442646
-0.124585
0.433793
-0.117122
0.427855
-0.105514
0.424715
-0.0924767
0.423853
-0.0796841
0.424274
-0.0694994
0.425164
-0.0585944
0.426127
-0.0510442
0.427092
-0.0366337
0.428115
-0.0325858
0.429046
-0.00913837
0.430062
-0.01246
0.431003
0.0258633
0.432093
0.0163139
0.433058
0.0685138
0.434212
0.0656141
0.13217
0.601612
-0.0182479
-0.601738
0.598007
-0.0313731
0.591683
-0.0465802
0.581912
-0.0621334
0.569151
-0.0775443
0.553659
-0.0917836
0.536857
-0.103141
0.521211
-0.110327
0.508476
-0.111849
0.499037
-0.107683
0.493029
-0.0995051
0.490166
-0.0896143
0.489463
-0.0789815
0.489895
-0.0699313
0.490635
-0.0593344
0.491437
-0.0518456
0.492259
-0.0374557
0.493203
-0.0335303
0.494244
-0.0101791
0.49551
-0.0137259
0.49645
0.0249229
0.49769
0.0150741
0.498824
0.0673796
0.500185
0.0642534
0.130577
0.673422
-0.0187085
-0.672962
0.670812
-0.0287626
0.665161
-0.0409294
0.656768
-0.0537402
0.645409
-0.0661855
0.631792
-0.0781669
0.617381
-0.0887297
0.602952
-0.0958983
0.589917
-0.0988146
0.579902
-0.0976678
0.573488
-0.0930916
0.570098
-0.0862244
0.568612
-0.0774959
0.568098
-0.0694169
0.567952
-0.0591882
0.56808
-0.0519736
0.568408
-0.0377841
0.56919
-0.034312
0.569851
-0.0108397
0.570921
-0.0147965
0.571957
0.0238875
0.573356
0.0136748
0.574753
0.0659824
0.576378
0.0626284
0.128549
0.755574
-0.0194442
-0.754838
0.754009
-0.0271975
0.749772
-0.0366924
0.742982
-0.0469503
0.733923
-0.0571268
0.722733
-0.0669763
0.710039
-0.0760366
0.697192
-0.0830507
0.685755
-0.0873775
0.676267
-0.0881798
0.668583
-0.0854075
0.662745
-0.0803866
0.658749
-0.0735
0.65652
-0.067188
0.655591
-0.0582593
0.655445
-0.0518272
0.655583
-0.037922
0.656179
-0.0349078
0.657003
-0.0116638
0.658449
-0.0162422
0.6594
0.0229357
0.66102
0.0120553
0.662584
0.064418
0.664479
0.0607338
0.125965
0.851389
-0.0204577
-0.850375
0.85049
-0.0262987
0.847348
-0.0335505
0.841967
-0.0415688
0.834518
-0.0496784
0.82532
-0.0577783
0.814627
-0.0653433
0.803071
-0.0714948
0.791457
-0.0757632
0.781027
-0.07775
0.772786
-0.077167
0.767127
-0.0747268
0.763412
-0.0697857
0.760901
-0.0646764
0.7592
-0.0565586
0.75838
-0.0510069
0.757949
-0.0374917
0.758335
-0.0352934
0.75838
-0.0117088
0.759283
-0.0171456
0.760279
0.0219406
0.761845
0.0104888
0.763961
0.0623025
0.766235
0.0584597
0.122715
0.963088
-0.0214486
-0.962097
0.962614
-0.0258251
0.960473
-0.0314087
0.956544
-0.0376403
0.950839
-0.0439729
0.943286
-0.0502255
0.934148
-0.0562057
0.924177
-0.0615236
0.914313
-0.0658987
0.905272
-0.0687094
0.897237
-0.0691322
0.890487
-0.0679762
0.885064
-0.0643628
0.880939
-0.0605514
0.877952
-0.0535716
0.876203
-0.0492577
0.875031
-0.03632
0.87483
-0.0350927
0.875083
-0.0119615
0.876556
-0.0186188
0.877408
0.0210887
0.879607
0.00828945
0.881683
0.0602269
0.884429
0.0557134
0.118486
1.09346
-0.0221521
-1.09276
1.09318
-0.0255422
1.09162
-0.0298485
1.08859
-0.0346073
1.08403
-0.0394176
1.07806
-0.0442571
1.07091
-0.0490481
1.06283
-0.0534424
1.05413
-0.0572002
1.04533
-0.0599118
1.0371
-0.0608994
1.03005
-0.0609321
1.02448
-0.0587896
1.02014
-0.0562094
1.01663
-0.0500607
1.01434
-0.0469681
1.01259
-0.0345682
1.01213
-0.0346412
1.01111
-0.0109381
1.01165
-0.0191574
1.01238
0.0203604
1.01394
0.0067246
1.01715
0.0570195
1.02031
0.0525529
0.113429
1.24705
-0.0228734
-1.24633
1.2471
-0.0255861
1.24609
-0.0288452
1.24388
-0.0323932
1.24045
-0.0359901
1.23578
-0.0395889
1.22991
-0.0431699
1.22303
-0.0465638
1.21545
-0.0496262
1.20763
-0.0520914
1.19995
-0.0532147
1.19269
-0.0536697
1.18617
-0.052277
1.18066
-0.0506992
1.17595
-0.0453451
1.1725
-0.0435182
1.16969
-0.031755
1.16848
-0.0334345
1.1677
-0.0101592
1.16907
-0.0205294
1.16961
0.0198243
1.17266
0.00367043
1.17566
0.0540223
1.17968
0.0485302
0.106228
1.42693
-0.0232082
-1.42659
1.42666
-0.0253193
1.42561
-0.0277979
1.4237
-0.0304801
1.42086
-0.0331463
1.41703
-0.0357609
1.4122
-0.0383446
1.40647
-0.0408342
1.4
-0.0431506
1.39304
-0.0451349
1.38595
-0.0461271
1.37906
-0.0467778
1.37265
-0.0458612
1.36704
-0.0450962
1.36195
-0.0402534
1.35801
-0.0395781
1.35441
-0.0281497
1.35268
-0.0317101
1.3501
-0.00758161
1.35016
-0.020588
1.35036
0.019629
1.35188
0.00215259
1.35643
0.0494691
1.36093
0.0440265
0.0983147
1.64098
-0.0232006
-1.64099
1.64046
-0.0247921
1.63929
-0.0266356
1.6374
-0.0285896
1.63473
-0.0304743
1.63121
-0.0322399
1.62684
-0.0339768
1.62166
-0.0356531
1.61568
-0.0371665
1.60902
-0.0384725
1.60198
-0.0390925
1.59471
-0.0395082
1.58747
-0.0386192
1.58064
-0.0382689
1.57435
-0.0339649
1.56928
-0.0345023
1.56471
-0.0235843
1.56241
-0.0294124
1.56012
-0.00528689
1.56133
-0.0217973
1.56131
0.0196477
1.56532
-0.00185228
1.57054
0.0442458
1.57632
0.0382405
0.0859766
1.89083
-0.0222968
-1.89173
1.88951
-0.0234732
1.8877
-0.0248303
1.88533
-0.026217
1.88231
-0.027455
1.87859
-0.0285222
1.87415
-0.0295356
1.86892
-0.0304245
1.86302
-0.0312697
1.85657
-0.0320166
1.84973
-0.0322542
1.84259
-0.0323686
1.83554
-0.0315706
1.82879
-0.0315201
1.82241
-0.0275841
1.81682
-0.0289076
1.81138
-0.0181497
1.80808
-0.0261132
1.8037
-0.00090694
1.80332
-0.0214089
1.80279
0.0201696
1.80467
-0.00373214
1.8111
0.0378232
1.81747
0.0318678
0.0728453
2.19764
-0.0196987
-2.20024
2.19457
-0.0204011
2.19097
-0.0212293
2.18677
-0.0220238
2.18199
-0.0226695
2.17657
-0.0231016
2.17051
-0.0234832
2.16379
-0.0237029
2.15656
-0.0240413
2.14856
-0.0240121
2.1403
-0.0239927
2.13152
-0.0235953
2.12309
-0.0231356
2.11409
-0.0225199
2.10619
-0.0196833
2.09828
-0.0209991
2.09237
-0.0122406
2.08749
-0.021232
2.08456
0.00202514
2.08397
-0.0208157
2.08507
0.019066
2.08814
-0.00680285
2.09836
0.0276032
2.10659
0.0236373
0.0525706
2.54276
-0.0152854
-2.54717
2.53795
-0.0155871
2.53256
-0.0158405
2.52651
-0.0159751
2.51997
-0.0161305
2.51274
-0.0158674
2.50497
-0.0157187
2.49687
-0.0156051
2.48813
-0.0152922
2.47857
-0.0144521
2.46951
-0.014933
2.46005
-0.0141379
2.45011
-0.0131944
2.43904
-0.0114496
2.43045
-0.0110973
2.42247
-0.0130149
2.41752
-0.00729574
2.41144
-0.0151552
2.40801
0.00546286
2.40418
-0.0169848
2.40591
0.0173278
2.406
-0.00688766
2.41742
0.0161789
2.42594
0.0151197
0.0305126
3.01615
-3.03143
3.00056
2.98472
2.96874
2.95261
2.93675
2.92103
2.90542
2.89013
2.87568
2.86075
2.84661
2.83341
2.82196
2.81087
2.79785
2.79056
2.7754
2.78086
2.76388
2.78121
2.77432
2.7905
2.80562
0.414919
0.0658
-0.402351
0.431854
0.139608
0.448687
0.22424
0.46457
0.2865
0.365818
0.471292
0.0533903
-0.458883
0.484928
0.125972
0.503931
0.205237
0.518774
0.271657
0.343203
0.535157
0.0424116
-0.524179
0.547065
0.114064
0.563841
0.188461
0.580097
0.255401
0.321563
0.607698
0.0321588
-0.597446
0.619643
0.102119
0.635091
0.173014
0.652349
0.238142
0.300951
0.691364
0.023271
-0.682476
0.702976
0.0905077
0.71755
0.15844
0.73461
0.221082
0.280723
0.78769
0.01538
-0.779799
0.798432
0.079766
0.812617
0.144255
0.829669
0.204029
0.260016
0.89906
0.00852538
-0.892206
0.909218
0.0696087
0.923343
0.13013
0.940854
0.186518
0.238773
1.02831
0.00265015
-1.02244
1.03821
0.0597134
1.05254
0.115799
1.07072
0.168335
0.216736
1.17894
-0.00285363
-1.17343
1.18868
0.049966
1.20357
0.100911
1.22282
0.149088
0.193221
1.35503
-0.00701788
-1.35087
1.36517
0.0398275
1.38069
0.0853917
1.40119
0.128585
0.167822
1.56308
-0.0114707
-1.55863
1.57365
0.0292548
1.59028
0.0687616
1.61279
0.10608
0.139618
1.80661
-0.0142135
-1.80387
1.81703
0.0188332
1.83517
0.0506179
1.86032
0.0809383
0.108205
2.10937
-0.0160291
-2.10756
2.1201
0.00810234
2.13909
0.0316364
2.16604
0.053979
0.0740118
2.44771
-0.0153271
-2.44841
2.45735
-0.00153225
2.47763
0.011351
2.5079
0.0237101
0.0347372
2.96317
-2.97849
2.96163
2.97298
2.99669
0.212513
0.235575
-0.202761
-0.245327
0.184107
0.218716
-0.19031
0.157879
0.207334
-0.181106
0.129571
0.198321
-0.170013
0.101301
0.187375
-0.159106
0.0756581
0.177475
-0.151832
0.052274
0.170363
-0.146979
0.0295703
0.166299
-0.143596
0.00987592
0.159788
-0.140094
0.114252
-0.104377
0.169534
0.268225
-0.202184
0.139107
0.249143
0.114162
0.232278
0.0926914
0.219792
0.0717295
0.208337
0.0511959
0.198009
0.032007
0.189552
0.0144073
0.183899
0.00053063
0.173665
0.114783
0.109836
0.288024
-0.129635
0.0897045
0.269275
0.0702304
0.251752
0.0523371
0.237686
0.0360177
0.224657
0.0213391
0.212687
0.00797599
0.202915
-0.00316722
0.195042
-0.00782395
0.178322
0.106959
0.0464319
0.304803
-0.0632112
0.0317843
0.283923
0.0188422
0.264694
0.00774753
0.24878
-0.00205059
0.234455
-0.0111043
0.221741
-0.0189367
0.210747
-0.0231047
0.19921
-0.0177981
0.173015
0.0891611
-0.0251896
0.0181561
-0.031477
-0.0364067
-0.0407967
-0.0449107
-0.0480701
-0.048907
-0.0439564
-0.0273247
0.335303
0.0294157
-0.382889
0.0181699
0.290533
0.0268391
0.0179309
0.248143
0.0248532
0.0175376
0.207912
0.0232273
0.0170033
0.16963
0.0218802
0.0164021
0.132923
0.0208458
0.0158608
0.0973973
0.0201171
0.0154088
0.0625571
0.0197556
0.0150846
0.027542
0.0200108
0.0150043
0.0158185
0.0117236
0.330828
0.0763433
-0.377755
0.286329
0.071338
0.244166
0.0670162
0.204114
0.063279
0.166062
0.0599318
0.129702
0.057206
0.0946847
0.0551346
0.0604874
0.0539529
0.0263572
0.0541409
0.0421757
0.316261
0.121488
-0.361405
0.274012
0.113587
0.234321
0.106707
0.196548
0.101052
0.160023
0.0964564
0.124702
0.0925275
0.0905876
0.0892487
0.0574099
0.0871307
0.0247718
0.0867789
0.0669475
0.28951
0.165663
-0.333685
0.247451
0.155645
0.209126
0.145033
0.174796
0.135382
0.142751
0.128501
0.111339
0.123939
0.0806465
0.119941
0.0506135
0.117164
0.0215464
0.115846
0.0884939
0.257466
-0.294563
0.222801
0.186729
0.152097
0.121493
0.0935997
0.0665624
0.0401305
0.0158826
0.423452
0.385014
-0.390651
0.431624
0.299664
-0.307836
0.42806
0.251749
-0.248185
0.437482
0.211904
-0.221325
0.435576
0.173046
-0.17114
0.439142
0.114406
-0.117972
0.434276
0.0747383
-0.0698719
0.436491
0.0298376
-0.0320524
0.430921
0.0137826
-0.00821276
0.429251
-0.00518825
0.00685794
0.42158
-0.00738525
0.0150567
0.415912
-0.0144073
0.020075
0.405834
-0.0121323
0.0222104
0.39619
-0.0133378
0.0229819
-0.00922891
0.0225296
0.419596
0.383234
0.425489
0.29377
0.420543
0.256694
0.427074
0.205373
0.424488
0.175633
0.428236
0.110657
0.424665
0.0783098
0.427478
0.0270244
0.422998
0.0182627
0.421947
-0.00413755
0.414958
-0.000395789
0.410097
-0.00954663
0.400442
-0.0024777
0.391053
-0.00394846
0.0040688
0.41435
0.386699
0.415668
0.292452
0.408523
0.263839
0.411079
0.202817
0.407186
0.179526
0.409708
0.108135
0.407136
0.0808815
0.409518
0.0246428
0.404789
0.0229913
0.403375
-0.00272306
0.396535
0.00644344
0.391678
-0.00468901
0.382305
0.0068956
0.373783
0.00457287
0.016447
0.407729
0.396785
0.402597
0.297584
0.392377
0.274059
0.389521
0.205673
0.383884
0.185163
0.383548
0.108471
0.381984
0.0824459
0.382732
0.0238946
0.379245
0.0264784
0.376565
-4.34964e-05
0.370668
0.0123405
0.364825
0.00115432
0.355518
0.0162021
0.34682
0.0132711
0.0295818
0.399866
0.414734
0.386981
0.310469
0.372521
0.288519
0.3635
0.214694
0.355759
0.192904
0.351707
0.112523
0.35037
0.0837828
0.348485
0.0257802
0.343936
0.0310268
0.338912
0.00498056
0.331408
0.0198448
0.324775
0.00778743
0.31522
0.0257571
0.306525
0.0219663
0.0415434
0.372515
0.414955
0.373865
0.309119
0.371747
0.290636
0.372529
0.213913
0.370155
0.195278
0.368523
0.114155
0.366979
0.0853266
0.363059
0.0297008
0.360035
0.03405
0.356366
0.00864982
0.353151
0.0230598
0.351302
0.00963652
0.35116
0.0258994
0.353304
0.0198216
0.0348673
0.359981
0.428518
0.414754
0.429089
0.308549
0.428143
0.291582
0.428116
0.21394
0.426698
0.196696
0.424128
0.116725
0.423878
0.085577
0.418272
0.0353067
0.417762
0.0345595
0.413047
0.0133652
0.413836
0.0222703
0.41088
0.012593
0.414145
0.0226338
0.414822
0.0191448
0.0270966
0.422593
0.492781
0.41416
0.492851
0.308479
0.492898
0.291535
0.492318
0.21452
0.49187
0.197144
0.489223
0.119372
0.488582
0.0862178
0.482925
0.0409644
0.48308
0.0344041
0.480161
0.0162846
0.481957
0.0204741
0.481521
0.0130291
0.484875
0.0192797
0.48802
0.0160001
0.0206077
0.494508
0.566522
0.413218
0.566521
0.308481
0.567512
0.290544
0.566071
0.215961
0.566858
0.196357
0.564422
0.121808
0.564042
0.0865986
0.559749
0.0452573
0.559627
0.0345263
0.559118
0.0167933
0.560909
0.0186825
0.563012
0.0109266
0.566829
0.015463
0.571402
0.0114269
0.0149103
0.577099
0.651181
0.411954
0.651501
0.308161
0.653695
0.288349
0.651833
0.217823
0.653806
0.194384
0.651648
0.123966
0.651396
0.0868505
0.648943
0.0477105
0.649076
0.0343934
0.650178
0.0156917
0.653135
0.0157256
0.656416
0.00764575
0.661176
0.0107024
0.666159
0.00644379
0.00894236
0.672127
0.74861
0.410176
0.749357
0.307415
0.752803
0.284904
0.751205
0.21942
0.754421
0.191169
0.753316
0.12507
0.753695
0.0864722
0.753369
0.0480362
0.754843
0.0329197
0.756513
0.0140216
0.760517
0.0117215
0.764154
0.00400822
0.769424
0.00543329
0.774217
0.00164991
0.00326799
0.779892
0.860569
0.407803
0.862474
0.305509
0.867816
0.279561
0.867085
0.220151
0.870948
0.187306
0.870604
0.125413
0.87174
0.0853358
0.872665
0.0471111
0.875689
0.0298963
0.878438
0.011272
0.883345
0.00681476
0.887695
-0.000341633
0.893277
-0.000148973
0.898157
-0.00322965
-0.00214491
0.90357
0.989502
0.404469
0.992595
0.302416
0.999759
0.272397
1.00149
0.218423
1.00755
0.181248
1.00957
0.123393
1.0127
0.0822064
1.01485
0.0449525
1.01908
0.0256663
1.02228
0.0080733
1.02708
0.00201497
1.03142
-0.00467692
1.0366
-0.00532633
1.04116
-0.0077929
-0.00698721
1.046
1.13807
0.399622
1.14435
0.296135
1.15353
0.263214
1.1572
0.214758
1.16356
0.174886
1.1666
0.120353
1.17086
0.0779514
1.17445
0.0413537
1.17988
0.0202391
1.18471
0.00324507
1.19047
-0.00374291
1.1953
-0.00950979
1.20047
-0.0104921
1.20481
-0.0121386
-0.0113568
1.20918
1.30969
0.392135
1.31994
0.285884
1.33323
0.249924
1.34239
0.205598
1.353
0.164276
1.35971
0.113649
1.3663
0.0713585
1.37087
0.0367839
1.37611
0.0149961
1.37987
-0.000512042
1.38459
-0.00846668
1.38869
-0.0136054
1.39304
-0.014844
1.39666
-0.0157632
-0.0149247
1.40023
1.50792
0.380603
1.52368
0.270124
1.54082
0.232782
1.55356
0.192856
1.5654
0.152435
1.57412
0.104932
1.58211
0.0633635
1.58892
0.0299741
1.59596
0.0079623
1.60197
-0.00652741
1.60735
-0.013849
1.61174
-0.0179945
1.61583
-0.0189296
1.61917
-0.0191036
-0.0179818
1.62223
1.74306
0.357068
1.76808
0.245095
1.79361
0.20726
1.81471
0.171752
1.83372
0.133428
1.84682
0.0918296
1.85692
0.0532597
1.86322
0.023674
1.86795
0.00323319
1.87148
-0.0100535
1.87511
-0.0174831
1.87793
-0.0208078
1.88064
-0.0216478
1.88266
-0.0211159
-0.0198378
1.88451
2.01884
0.314157
2.06221
0.201722
2.10077
0.168707
2.13356
0.138957
2.15944
0.107549
2.17804
0.0732357
2.1909
0.0403945
2.19972
0.0148578
2.20618
-0.00322853
2.20995
-0.0138204
2.21233
-0.0198674
2.2137
-0.0221758
2.21457
-0.0225177
2.21497
-0.0215142
-0.0200436
2.21517
2.34502
0.239714
2.40192
0.144824
2.45939
0.111228
2.5082
0.0901474
2.54645
0.0693041
2.57228
0.0474051
2.58725
0.0254273
2.59401
0.00809804
2.5959
-0.00512032
2.59538
-0.0133057
2.59366
-0.0181429
2.59129
-0.0198114
2.58883
-0.0200487
2.58631
-0.019001
-0.0176325
2.5839
2.84887
2.99369
3.10492
3.19507
3.26437
3.31178
3.3372
3.3453
3.34018
3.32688
3.30873
3.28892
3.26887
3.24987
3.23224
0.367958
-0.253304
0.372941
-0.207167
0.379731
-0.136425
0.3906
-0.0740802
0.00640454
0.429704
-0.260415
0.432181
-0.209645
0.440235
-0.144479
0.447589
-0.0814341
-0.00488918
0.498385
-0.264292
0.500345
-0.211605
0.507196
-0.15133
0.513525
-0.0877631
-0.0155429
0.578423
-0.265615
0.580311
-0.213493
0.584482
-0.155502
0.58923
-0.0925113
-0.0237582
0.670448
-0.263936
0.670307
-0.213351
0.672119
-0.157314
0.675607
-0.0959987
-0.0306275
0.77497
-0.259014
0.772525
-0.210906
0.772435
-0.157224
0.77457
-0.0981339
-0.0358568
0.895305
-0.25075
0.890072
-0.205673
0.887686
-0.154839
0.888303
-0.0987507
-0.0397599
1.0343
-0.239044
1.02594
-0.197319
1.02099
-0.149891
1.01976
-0.0975161
-0.0424395
1.19398
-0.223847
1.18251
-0.185848
1.17507
-0.142447
1.17203
-0.0944804
-0.0438366
1.38102
-0.204638
1.366
-0.170822
1.35565
-0.132104
1.35067
-0.0894942
-0.0440393
1.59888
-0.181287
1.5803
-0.152251
1.56711
-0.118908
1.55968
-0.0820686
-0.0429829
1.85612
-0.152892
1.83311
-0.129244
1.81649
-0.102292
1.80669
-0.0722661
-0.0401555
2.17928
-0.117001
2.14973
-0.0996969
2.12726
-0.0798193
2.11298
-0.0579889
-0.0347284
2.54009
-0.0731875
2.50366
-0.0632732
2.47569
-0.0518476
2.45707
-0.0393711
-0.0260676
3.15905
3.09578
3.04393
3.00456
0.00839455
0.000126391
-0.00852094
0.0095864
-0.00119185
0.00576239
0.00382401
-0.00861074
0.0143731
0.0261211
-0.0347318
0.0110067
0.00765883
-0.0185391
-0.00474355
0.0145584
-0.0390526
0.038133
-0.0873439
0.0626644
0.0690028
-0.130226
-0.00514289
0.0295257
-0.016724
-0.0471141
0.0565296
-0.10411
0.0951292
-0.152819
0.111373
0.0965499
-0.180366
-0.0370587
0.06997
-0.0033856
-0.0982544
0.117725
-0.157327
0.154201
-0.190988
0.145034
0.109834
-0.204272
-0.0778246
0.127871
0.0199232
-0.146074
0.185975
-0.193788
0.201915
-0.212033
0.163279
0.117579
-0.219779
-0.121182
0.196693
0.0523605
-0.185728
0.250521
-0.216919
0.233106
-0.227153
0.173513
0.125063
-0.234636
-0.163274
0.275286
0.0846812
-0.216653
0.303899
-0.233346
0.2498
-0.243711
0.183878
0.131975
-0.250623
-0.202035
0.344458
0.132862
-0.239329
0.341194
-0.249078
0.259549
-0.262925
0.197724
0.136205
-0.267154
-0.233184
0.41482
0.162823
-0.257092
0.365102
-0.266586
0.269043
-0.282681
0.213818
0.138086
-0.284561
-0.263143
0.223796
0.454166
-0.270402
0.372361
-0.287853
0.286494
-0.301848
0.227814
0.13978
-0.303542
0.0114103
-0.0207585
0.0228393
-0.011429
0.0219901
0.000849166
0.0141951
0.00779506
0.00567411
0.0154497
-0.049714
0.0341652
-0.0301445
0.0377286
-0.00271417
0.0288454
0.0166782
0.0159804
0.0151355
-0.0795031
0.0348905
-0.0498995
0.0396114
-0.00743502
0.0307544
0.0255351
0.0300108
0.0146642
-0.109226
0.0330088
-0.0682442
0.0351474
-0.00957367
0.0241951
0.0364875
0.0508202
0.0147059
-0.138779
0.0314989
-0.0850371
0.0287407
-0.00681547
0.0127287
0.0524995
0.0834722
0.0149335
-0.167538
0.0277356
-0.0978392
0.0197574
0.00116274
-0.00610174
0.0783586
0.129731
0.0169055
-0.196547
0.0294203
-0.110354
0.0142043
0.0163787
-0.0215047
0.114068
0.192907
0.0159951
-0.221067
0.0194616
-0.11382
-0.00754185
0.0433821
-0.0622819
0.168808
0.263488
0.0201273
-0.247013
0.022683
-0.116376
-0.0124239
0.0784891
-0.0757124
0.232096
0.350598
0.0167794
-0.262844
0.00648269
-0.106079
-0.0496352
0.134607
-0.135577
0.318038
0.438816
0.00150127
-0.256018
0.00473433
-0.109313
0.0127362
0.126605
0.0194793
0.311295
0.427312
0.0309834
0.00757095
-0.238392
-0.00233271
-0.0994089
-0.00320399
0.127476
0.00256338
0.305528
0.414243
0.0156323
0.0165715
-0.209474
-0.00791556
-0.0749219
-0.0210228
0.140584
-0.0195289
0.304034
0.401498
-0.00678385
0.0145562
-0.164486
-0.0230776
-0.0372881
-0.0466058
0.164112
-0.0496084
0.307036
0.387337
-0.0354473
0.00446997
-0.100913
-0.0480775
0.0152594
-0.0803351
0.196369
-0.0859881
0.312689
0.37203
-0.0706803
-0.016144
-0.0178883
-0.084488
0.0836034
-0.125106
0.236987
-0.132872
0.320456
0.348187
-0.10903
-0.0355933
0.0757325
-0.112917
0.160928
-0.1562
0.28027
-0.162028
0.326284
0.318725
-0.132567
-0.0381015
0.166259
-0.112513
0.235339
-0.150422
0.31818
-0.154243
0.330105
0.29742
-0.132938
-0.0273699
0.241472
-0.0865217
0.294491
-0.117348
0.349006
-0.122421
0.335177
0.290224
-0.115224
-0.0100493
0.295892
-0.0528342
0.337276
-0.0754297
0.371602
-0.0838127
0.34356
0.296248
-0.0898362
0.00385845
0.333257
-0.0250097
0.366144
-0.0399735
0.386566
-0.0504502
0.354036
0.309095
-0.0632972
0.0119964
0.360061
-0.00680279
0.384943
-0.0156523
0.395415
-0.0259757
0.36436
0.323465
-0.040346
0.0159911
0.380571
0.00319756
0.397736
-0.00181507
0.400428
-0.0106589
0.373204
0.336519
-0.0237125
0.0176534
0.397246
0.00832259
0.407067
0.00502429
0.403726
-0.00162725
0.379855
0.347272
-0.0123807
0.0161041
0.410511
0.00909204
0.414079
0.00635822
0.40646
0.00112386
0.385089
0.355879
-0.00748325
0.0160222
0.420221
0.0108613
0.41924
0.00829884
0.409023
0.00400375
0.389384
0.362734
-0.00285123
0.00961084
0.426269
0.00626243
0.422589
0.00394823
0.411337
0.000254947
0.393078
0.368805
-0.00581598
0.0107683
0.429446
0.00890234
0.424455
0.00706145
0.413178
0.00395537
0.396184
0.374046
-0.0012854
-0.00608675
0.430277
-0.00663309
0.425001
-0.00787032
0.414415
-0.0106992
0.399013
0.379151
-0.015804
9.37217e-06
0.42979
0.000354362
0.424656
-0.000334213
0.415103
-0.00271365
0.401392
0.383961
-0.00752379
-0.0336894
0.428303
-0.0327151
0.423682
-0.0330269
0.415415
-0.035385
0.40375
0.388992
-0.0404166
-0.0223217
0.426174
-0.0208108
0.422171
-0.0207601
0.415364
-0.0229441
0.405934
0.394147
-0.0280989
-0.0718193
0.423696
-0.0701658
0.420517
-0.070192
0.415391
-0.0727005
0.408443
0.399843
-0.0783964
-0.0674918
0.42071
-0.0654337
0.418459
-0.065254
0.415211
-0.0678588
0.411048
0.406076
-0.074092
-0.131451
-0.129461
-0.129675
-0.132993
-0.140207
0.0364327
0.494162
-0.499612
0.0378942
0.539229
-0.54069
0.0359372
0.59499
-0.593033
0.0339465
0.661494
-0.659503
0.0319156
0.737681
-0.735651
0.0297935
0.823338
-0.821216
0.0279605
0.920713
-0.91888
0.0264281
1.03208
-1.03055
0.0251526
1.16043
-1.15916
0.0239275
1.30655
-1.30533
0.0222815
1.47397
-1.47232
0.0200596
1.6631
-1.66088
0.0159227
1.87486
-1.87072
0.0105093
2.12386
-2.11844
2.39384
-2.38333
0.0195556
0.490239
0.0223245
0.53646
0.0227701
0.594544
0.0244689
0.659795
0.025017
0.737133
0.0253539
0.823001
0.0253932
0.920674
0.0251454
1.03233
0.0245807
1.161
0.0238472
1.30728
0.022371
1.47545
0.0202769
1.66519
0.0160886
1.87905
0.0105286
2.12942
2.40437
-0.000785789
0.484241
0.00307137
0.532603
0.00773164
0.589884
0.012027
0.6555
0.015925
0.733235
0.0193853
0.819541
0.0215951
0.918464
0.0229511
1.03097
0.0233239
1.16063
0.0232476
1.30736
0.0220728
1.47662
0.020165
1.6671
0.0159837
1.88323
0.0104051
2.13499
2.41478
-0.0276162
0.47641
-0.0182847
0.523271
-0.00963854
0.581238
-0.00176692
0.647628
0.00589817
0.72557
0.0121917
0.813247
0.016558
0.914098
0.019666
1.02786
0.0211949
1.1591
0.0219588
1.3066
0.0212553
1.47732
0.0196403
1.66872
0.0156069
1.88726
0.0101454
2.14046
2.42492
-0.0569432
0.462673
-0.0406072
0.506935
-0.0268811
0.567512
-0.0144219
0.635169
-0.003937
0.715085
0.00448889
0.804821
0.0109152
0.907671
0.0156693
1.02311
0.0184643
1.1563
0.0201537
1.30491
0.0200628
1.47742
0.0188536
1.66993
0.0151139
1.891
0.00971534
2.14585
2.43464
-0.0847679
0.438411
-0.0613192
0.483487
-0.0421167
0.548309
-0.0262185
0.619271
-0.0134775
0.702344
-0.00311657
0.79446
0.00506291
0.899492
0.011258
1.01691
0.0153469
1.15221
0.017976
1.30228
0.0185874
1.4768
0.0178459
1.67067
0.0144472
1.8944
0.00925396
2.15105
2.44389
-0.102142
0.407986
-0.0770242
0.458369
-0.0555934
0.526878
-0.0377571
0.601435
-0.022999
0.687586
-0.0106138
0.782075
-0.000827039
0.889705
0.00664229
1.00944
0.0119541
1.1469
0.0154847
1.29875
0.0168852
1.4754
0.0166035
1.67095
0.0136617
1.89734
0.00892196
2.15579
2.45281
-0.105459
0.380507
-0.0842476
0.437158
-0.0646307
0.507261
-0.0466106
0.583414
-0.0311879
0.672163
-0.0175163
0.768404
-0.00667202
0.878861
0.00201989
1.00075
0.00847468
1.14045
0.0128033
1.29442
0.014942
1.47326
0.0151122
1.67078
0.0126674
1.89979
0.00802305
2.16043
2.46084
-0.0963795
0.361662
-0.0813746
0.422153
-0.0655045
0.491391
-0.0496867
0.567597
-0.0355667
0.658043
-0.0222758
0.755113
-0.0113577
0.867943
-0.00211429
0.991508
0.00502561
1.13331
0.00994302
1.2895
0.0127318
1.47048
0.0134177
1.67009
0.0115101
1.90169
0.00711864
2.16482
2.46796
-0.0802758
0.352102
-0.0711074
0.412984
-0.0595204
0.479804
-0.0478078
0.555884
-0.0361543
0.64639
-0.0246659
0.743624
-0.0144261
0.857703
-0.00543919
0.982521
0.00184541
1.12602
0.00696536
1.28438
0.0103162
1.46713
0.0113847
1.66902
0.0100147
1.90306
0.00660322
2.16823
2.47456
-0.0605013
0.349306
-0.0561984
0.408681
-0.0492581
0.472864
-0.0422208
0.548847
-0.0334444
0.637614
-0.0248623
0.735042
-0.0160242
0.848865
-0.00806424
0.974561
-0.00103556
1.11899
0.0040477
1.2793
0.00781157
1.46336
0.00920371