/*--------------------------------*- C++ -*----------------------------------*\
| =========                 |                                                 |
| \\      /  F ield         | OpenFOAM: The Open Source CFD Toolbox           |
|  \\    /   O peration     | Version:  2512                                  |
|   \\  /    A nd           | Website:  www.openfoam.com                      |
|    \\/     M anipulation  |                                                 |
\*---------------------------------------------------------------------------*/
FoamFile
{
    version     2.0;
    format      ascii;
    arch        "LSB;label=32;scalar=64";
    class       volVectorField;
    location    "68.4";
    object      U;
}
// * * * * * * * * * * * * * * * * * * * * * * * * * * * * * * * * * * * * * //

dimensions      [0 1 -1 0 0 0 0];

internalField   nonuniform List<vector> 
13248
(
(-0.0135516 0.0100401 3.94824e-20)
(-0.0272893 0.0145184 0)
(-0.0329625 0.0099722 -6.91832e-20)
(-0.0272233 0.00247928 6.40626e-20)
(-0.00659061 -0.00558517 5.9504e-20)
(0.0319463 -0.0133728 0)
(0.0907663 -0.0202284 0)
(0.170946 -0.0254081 1.36882e-19)
(0.271317 -0.0282302 -2.354e-21)
(0.388277 -0.0280428 -1.13613e-19)
(0.515988 -0.0244478 9.80906e-20)
(0.647214 -0.0174673 -6.02993e-20)
(0.774474 -0.00757898 0)
(0.891114 0.00435643 -8.44856e-20)
(0.992117 0.017277 1.50784e-19)
(1.07434 0.0300539 -3.50413e-20)
(1.13696 0.0417102 -5.20248e-20)
(1.18044 0.0514286 4.85022e-20)
(1.20732 0.0589051 0)
(1.22127 0.0632286 0)
(1.22389 0.0664269 0)
(1.22465 0.0640803 0)
(1.21698 0.065277 1.06984e-20)
(1.21667 0.0557198 3.5622e-20)
(-0.0162717 0.0122005 -1.18934e-19)
(-0.028691 0.0201166 7.54659e-20)
(-0.0250442 0.0183584 -5.99007e-23)
(-0.00337223 0.0123753 -9.70209e-20)
(0.0391671 0.00511152 -5.94175e-20)
(0.105216 -0.0017085 -5.50313e-20)
(0.196005 -0.00672102 -9.99861e-20)
(0.31021 -0.00886689 9.27899e-20)
(0.442936 -0.00742806 0)
(0.586047 -0.00220812 1.52201e-21)
(0.729606 0.00636188 3.13426e-21)
(0.863811 0.0173052 5.99525e-20)
(0.980675 0.0293326 0)
(1.07508 0.0411243 0)
(1.14503 0.0515975 5.35145e-20)
(1.19161 0.0599781 -9.9383e-20)
(1.21799 0.0660531 5.26372e-20)
(1.22901 0.0696817 -4.90759e-20)
(1.22999 0.0714564 -2.00096e-20)
(1.22537 0.0714159 -3.27536e-20)
(1.21994 0.0704313 -1.21058e-20)
(1.21513 0.0679612 -2.18799e-20)
(1.21143 0.0660015 3.41956e-20)
(1.21246 0.0601814 9.1607e-21)
(-0.0171091 0.0119014 0)
(-0.0251966 0.0199806 0)
(-0.00923319 0.0193207 3.49027e-20)
(0.0321875 0.0145831 3.20602e-20)
(0.101441 0.00909037 -4.26009e-22)
(0.199968 0.00524199 -5.54583e-20)
(0.326138 0.00481126 0)
(0.473597 0.0087565 -4.58742e-20)
(0.631431 0.0170198 4.11662e-20)
(0.786458 0.0285543 -3.91685e-22)
(0.926324 0.0416675 -6.53606e-20)
(1.04199 0.0545225 -5.56201e-20)
(1.12895 0.0655954 3.49333e-21)
(1.18721 0.0739696 -3.83459e-20)
(1.22049 0.0793779 9.6236e-20)
(1.23471 0.0821364 0)
(1.23656 0.0828694 -5.24944e-20)
(1.23213 0.0821899 2.56884e-20)
(1.22564 0.0810179 1.99892e-20)
(1.22013 0.0787743 0)
(1.21546 0.0775075 1.46176e-20)
(1.2126 0.0736391 -4.80011e-20)
(1.20882 0.0727596 4.48255e-20)
(1.20682 0.0665885 2.56562e-20)
(-0.0163289 0.0101133 -4.11135e-20)
(-0.0162528 0.0158685 -3.91349e-20)
(0.0164201 0.0150783 3.54467e-20)
(0.0829088 0.0118559 0)
(0.184636 0.0098499 0)
(0.319855 0.0118316 -1.99446e-22)
(0.480743 0.0192113 0)
(0.65317 0.0316667 -1.3513e-19)
(0.82005 0.0473379 1.22361e-19)
(0.96613 0.0636039 -1.47328e-19)
(1.0815 0.0780032 3.24233e-20)
(1.16285 0.0888983 0)
(1.21268 0.0957282 4.72366e-20)
(1.23746 0.0988681 -8.47598e-20)
(1.24523 0.0992645 1.99681e-20)
(1.24348 0.098003 4.48273e-20)
(1.23778 0.0959161 -4.47736e-21)
(1.23126 0.093643 -4.78526e-20)
(1.22528 0.0911105 0)
(1.21963 0.0886333 0)
(1.21418 0.0858637 -1.43119e-20)
(1.20881 0.082161 1.22188e-20)
(1.20291 0.0801061 4.03286e-20)
(1.19862 0.0732922 -3.76469e-20)
(-0.0138723 0.0075916 -4.2516e-20)
(-0.000625531 0.00972498 -3.94677e-20)
(0.0548275 0.00870741 1.09245e-19)
(0.153043 0.00841488 -6.5907e-20)
(0.292472 0.0126851 6.10526e-20)
(0.464377 0.0237298 1.10011e-19)
(0.651262 0.0410773 -7.59324e-20)
(0.831306 0.0618737 -8.85808e-20)
(0.985598 0.082312 3.48641e-21)
(1.10314 0.0991801 1.09519e-19)
(1.18193 0.110764 0)
(1.22703 0.116961 2.70742e-20)
(1.24729 0.118812 0)
(1.25205 0.117813 -3.97441e-20)
(1.24883 0.115324 5.50234e-20)
(1.24239 0.112228 4.16711e-22)
(1.23501 0.109003 -1.29566e-20)
(1.22758 0.105642 2.28303e-20)
(1.2202 0.102304 1.90458e-20)
(1.21317 0.0986337 -1.62901e-20)
(1.20659 0.0950801 1.43054e-20)
(1.20091 0.0908029 -1.22132e-20)
(1.19552 0.0878191 0)
(1.19206 0.0812733 -8.54503e-21)
(-0.00918057 0.00475578 4.25054e-20)
(0.023549 0.00320006 4.09051e-20)
(0.109066 0.00331114 -3.65253e-20)
(0.245393 0.00869755 6.68309e-20)
(0.423984 0.0225583 -6.19053e-20)
(0.624691 0.044742 5.49746e-20)
(0.820133 0.0713475 -2.5864e-20)
(0.986314 0.0970189 6.66813e-20)
(1.11017 0.117501 -4.08309e-20)
(1.19055 0.130891 6.81496e-20)
(1.23475 0.137513 -1.5307e-19)
(1.25359 0.139015 5.45122e-20)
(1.2573 0.13735 -4.46615e-20)
(1.25337 0.134079 4.15764e-20)
(1.24619 0.13014 3.32105e-20)
(1.23791 0.125991 2.72691e-20)
(1.22951 0.121745 -7.5208e-20)
(1.22144 0.117528 4.57123e-20)
(1.21401 0.113228 -1.90428e-20)
(1.2073 0.109023 4.69881e-20)
(1.20124 0.104748 -1.52805e-20)
(1.19563 0.100294 -3.36187e-20)
(1.1901 0.0965887 3.04164e-20)
(1.18519 0.0902361 8.54224e-21)
(-0.00133137 0.00185163 0)
(0.0583106 -0.00232428 2.57921e-22)
(0.181173 0.00165167 7.523e-20)
(0.359144 0.0163378 -6.93911e-20)
(0.571356 0.0423215 -6.15514e-20)
(0.784749 0.0750257 1.12315e-19)
(0.968032 0.107117 -5.12565e-20)
(1.10393 0.132712 6.58803e-20)
(1.19093 0.149347 -2.23593e-21)
(1.23795 0.157597 -3.54414e-20)
(1.25762 0.159643 7.33469e-20)
(1.26125 0.157879 -1.05557e-19)
(1.25679 0.154131 0)
(1.24887 0.149499 -1.89679e-20)
(1.23986 0.144546 -4.83543e-20)
(1.23086 0.13951 1.52703e-20)
(1.22234 0.134527 9.39123e-22)
(1.21444 0.12958 -2.8657e-20)
(1.20707 0.124726 3.17127e-21)
(1.20014 0.119866 3.21747e-20)
(1.19356 0.114995 -1.33734e-20)
(1.1874 0.110146 -4.42926e-21)
(1.18149 0.105504 1.47038e-20)
(1.17654 0.0993615 0)
(0.0106727 -0.000811944 0)
(0.105227 -0.00540719 2.06492e-20)
(0.271068 0.00623329 -9.74359e-20)
(0.488752 0.0336686 3.48148e-20)
(0.721365 0.0720544 -3.22475e-20)
(0.927952 0.11179 -2.8559e-20)
(1.08331 0.144393 -4.90498e-20)
(1.18314 0.166083 2.45734e-20)
(1.23715 0.177331 2.07575e-20)
(1.25986 0.180782 0)
(1.26431 0.179377 4.27798e-20)
(1.25963 0.175378 -6.12783e-20)
(1.25114 0.170181 4.50188e-20)
(1.24157 0.164527 1.89762e-20)
(1.23207 0.158759 -1.44128e-20)
(1.22304 0.153026 -1.10743e-20)
(1.21453 0.147345 -9.99405e-21)
(1.20651 0.141746 3.12802e-20)
(1.19901 0.136188 0)
(1.19206 0.130706 1.39209e-20)
(1.18568 0.125289 1.06048e-20)
(1.17976 0.12 -2.74218e-20)
(1.17414 0.114705 -1.71004e-20)
(1.16889 0.109007 1.56673e-20)
(0.0276358 -0.00269628 -2.39419e-20)
(0.164786 -0.00430991 -8.35963e-22)
(0.375803 0.0192555 1.97998e-20)
(0.624598 0.0613559 5.40953e-20)
(0.86015 0.109643 1.5054e-20)
(1.04407 0.151576 -2.87785e-20)
(1.16491 0.180697 2.59159e-20)
(1.23143 0.196711 -2.20195e-20)
(1.26018 0.202626 3.7895e-20)
(1.26677 0.202113 1.54226e-20)
(1.26233 0.198104 -4.31741e-20)
(1.25338 0.192452 1.23347e-20)
(1.24314 0.186146 1.99939e-20)
(1.23294 0.179635 -9.91834e-21)
(1.2232 0.173107 0)
(1.21402 0.166621 1.33845e-20)
(1.20544 0.160222 2.13244e-20)
(1.19747 0.153918 2.84199e-21)
(1.19011 0.147743 -1.69194e-20)
(1.18328 0.141691 6.57256e-21)
(1.17686 0.135762 0)
(1.17077 0.129972 -4.65513e-21)
(1.16488 0.124095 -4.25015e-21)
(1.15937 0.11853 0)
(0.0499628 -0.0030493 0)
(0.23593 0.00287656 1.16221e-20)
(0.489505 0.0421855 2.11292e-20)
(0.755658 0.0983856 -5.49866e-20)
(0.978076 0.152249 1.74785e-20)
(1.13084 0.192043 0)
(1.21796 0.215383 2.4199e-20)
(1.25746 0.225333 -3.31562e-20)
(1.26841 0.226486 -1.87684e-20)
(1.265 0.222758 8.33216e-21)
(1.25568 0.216701 -1.22919e-20)
(1.24461 0.209682 3.00011e-20)
(1.23352 0.202326 1.42364e-20)
(1.22296 0.194899 -1.01977e-20)
(1.21311 0.187513 -1.29914e-21)
(1.20396 0.18023 -2.46667e-20)
(1.19548 0.173079 1.09685e-20)
(1.18761 0.166085 -3.40562e-22)
(1.18032 0.15925 0)
(1.17356 0.152584 -6.57908e-21)
(1.16728 0.146096 0)
(1.16137 0.139751 1.30917e-20)
(1.15574 0.133432 -1.48812e-20)
(1.15029 0.127969 6.54155e-21)
(0.0775253 -0.000989771 -6.63908e-21)
(0.315869 0.0178918 -2.93862e-20)
(0.604392 0.0753182 3.28979e-20)
(0.872794 0.142744 1.86639e-20)
(1.07115 0.197579 -8.87637e-21)
(1.19083 0.232183 1.39565e-20)
(1.24876 0.248739 -6.79645e-21)
(1.26798 0.252873 1.07086e-20)
(1.26713 0.249914 0)
(1.25778 0.243502 2.25315e-20)
(1.24581 0.235649 -1.17719e-21)
(1.23365 0.227286 -1.73124e-20)
(1.22214 0.218804 7.11486e-21)
(1.21147 0.21037 -7.63179e-21)
(1.2016 0.202059 -2.59378e-21)
(1.19249 0.193908 3.28607e-21)
(1.18408 0.185945 -2.29767e-21)
(1.17635 0.178191 -1.19978e-20)
(1.16926 0.170666 7.22396e-21)
(1.16273 0.163382 1.34488e-21)
(1.15664 0.156328 1.11668e-21)
(1.15082 0.149456 9.22603e-22)
(1.14519 0.142772 0)
(1.13971 0.137045 0)
(0.109653 0.00437926 6.64713e-21)
(0.400407 0.0419157 -6.1291e-21)
(0.712709 0.117799 -1.09779e-20)
(0.970477 0.192326 0)
(1.13939 0.244237 -4.36743e-21)
(1.22812 0.271795 -3.76172e-21)
(1.26259 0.281319 -6.15941e-21)
(1.2674 0.2801 0)
(1.25904 0.273519 0)
(1.24629 0.264674 0)
(1.23293 0.25505 0)
(1.22027 0.245255 0)
(1.2086 0.235522 -4.369e-21)
(1.19792 0.225953 1.94812e-21)
(1.18814 0.216597 3.24705e-21)
(1.17919 0.207484 1.49719e-21)
(1.17101 0.19864 3.45607e-21)
(1.16354 0.190085 0)
(1.15672 0.181828 -7.1806e-22)
(1.15046 0.17387 -6.77067e-22)
(1.14465 0.166194 -1.11844e-21)
(1.13917 0.158772 -9.24055e-22)
(1.13392 0.151689 0)
(1.12885 0.145542 5.23698e-22)
(0.00459583 -0.133908 6.80905e-21)
(0.0059883 -0.285297 -6.4652e-21)
(-0.00503643 -0.357464 -1.19536e-20)
(-0.023847 -0.382036 0)
(-0.0465651 -0.383586 -1.56762e-20)
(-0.0707513 -0.376878 4.95217e-21)
(-0.0949773 -0.368017 -9.12775e-21)
(-0.118365 -0.357724 0)
(-0.140283 -0.34446 0)
(-0.160182 -0.326212 0)
(-0.177538 -0.301174 0)
(-0.19188 -0.267931 0)
(-0.202833 -0.225512 4.87362e-22)
(-0.210174 -0.173483 -6.84739e-21)
(-0.213882 -0.11196 1.24912e-20)
(-0.214192 -0.0415243 1.81975e-20)
(-0.211219 0.0367771 5.15998e-21)
(-0.204742 0.121627 0)
(-0.195107 0.211233 5.11024e-21)
(-0.182326 0.303497 -1.34007e-20)
(-0.166409 0.395905 -7.75613e-21)
(-0.147204 0.485752 -6.8752e-21)
(-0.126607 0.569893 0)
(-0.102335 0.645548 0)
(0.0109746 -0.129204 -2.00613e-20)
(0.0156966 -0.269308 3.194e-20)
(0.00153437 -0.332537 -1.13495e-20)
(-0.0224851 -0.351282 -2.16202e-20)
(-0.0509055 -0.349583 3.03568e-20)
(-0.0810308 -0.341427 -1.89125e-20)
(-0.111533 -0.332371 2.66626e-20)
(-0.141729 -0.322886 1.60768e-20)
(-0.171165 -0.311388 0)
(-0.199392 -0.295918 -1.60289e-20)
(-0.225899 -0.274727 -6.84834e-22)
(-0.250123 -0.246378 1.40368e-20)
(-0.271491 -0.209798 1.90293e-20)
(-0.289485 -0.164342 2.48429e-20)
(-0.303647 -0.109842 -1.21352e-20)
(-0.313842 -0.0467024 -3.36918e-20)
(-0.319668 0.024795 9.29518e-21)
(-0.320793 0.102939 -3.60354e-20)
(-0.317541 0.186043 0)
(-0.309785 0.272098 8.62297e-21)
(-0.297372 0.358715 7.7467e-21)
(-0.279986 0.443187 6.86672e-21)
(-0.258198 0.522836 0)
(-0.233673 0.595922 0)
(0.0164089 -0.119659 0)
(0.0239744 -0.245835 5.92461e-20)
(0.00779976 -0.300627 -2.20361e-20)
(-0.0195978 -0.314677 2.09739e-20)
(-0.0515214 -0.310445 -5.61896e-20)
(-0.0850132 -0.300954 0)
(-0.1188 -0.291388 -3.31442e-20)
(-0.152355 -0.282193 1.47059e-20)
(-0.185375 -0.271878 -2.79047e-20)
(-0.217533 -0.258613 1.17883e-20)
(-0.248392 -0.240773 7.62034e-20)
(-0.277407 -0.217011 -3.52888e-20)
(-0.30394 -0.186259 -5.76864e-20)
(-0.327299 -0.147781 -1.97305e-20)
(-0.346882 -0.101221 2.85516e-22)
(-0.3614 -0.0465043 7.26051e-20)
(-0.370798 0.0156953 -3.36112e-20)
(-0.375196 0.0839509 3.54915e-21)
(-0.373504 0.156913 0)
(-0.365332 0.232742 -2.1004e-20)
(-0.350371 0.3093 0)
(-0.327807 0.384192 -1.97552e-20)
(-0.296299 0.45459 6.3415e-20)
(-0.259376 0.518693 -2.18897e-21)
(0.0204135 -0.106766 0)
(0.0301597 -0.217634 -1.21501e-21)
(0.0130397 -0.264703 2.02993e-20)
(-0.0160033 -0.275126 -1.86922e-20)
(-0.0493364 -0.269057 1.83521e-20)
(-0.0836958 -0.258416 9.84528e-20)
(-0.11777 -0.248128 -3.07666e-20)
(-0.151109 -0.238772 -2.77417e-20)
(-0.183519 -0.22906 5.36229e-20)
(-0.214766 -0.217337 -7.58552e-20)
(-0.244498 -0.202141 2.18325e-20)
(-0.272216 -0.182271 2.02688e-20)
(-0.297281 -0.156754 0)
(-0.318909 -0.124861 1.96726e-20)
(-0.33616 -0.0861282 0)
(-0.348381 -0.0406031 2.70583e-20)
(-0.354982 0.0107413 -5.1894e-20)
(-0.355164 0.0674396 1.61878e-20)
(-0.34802 0.128206 4.25757e-20)
(-0.332721 0.191367 2.09841e-20)
(-0.308644 0.2549 0)
(-0.275877 0.316679 -4.00564e-20)
(-0.232382 0.375238 1.38497e-20)
(-0.172281 0.428212 0)
(0.0226838 -0.0919369 0)
(0.0336397 -0.18703 -6.46629e-20)
(0.0162381 -0.227255 -1.93634e-20)
(-0.0131636 -0.23524 -3.64691e-20)
(-0.0462884 -0.228357 3.37934e-20)
(-0.0795511 -0.217248 -3.21762e-20)
(-0.111515 -0.206585 5.77854e-20)
(-0.141733 -0.197157 2.75072e-20)
(-0.170058 -0.18795 -7.53383e-20)
(-0.196315 -0.177512 4.53103e-20)
(-0.2202 -0.164536 -6.35263e-20)
(-0.24126 -0.147968 1.30144e-19)
(-0.258895 -0.126987 -7.01911e-20)
(-0.272346 -0.100991 2.91777e-20)
(-0.280937 -0.0697395 7.95599e-20)
(-0.283942 -0.0333601 -3.01169e-20)
(-0.280504 0.00788119 -2.24141e-20)
(-0.269783 0.0533643 -2.169e-20)
(-0.250923 0.102026 0)
(-0.223191 0.152427 -2.40989e-20)
(-0.18574 0.20298 -1.71254e-20)
(-0.137007 0.251576 2.97133e-20)
(-0.082675 0.297107 2.96227e-20)
(0.000662975 0.335778 -2.48917e-20)
(0.0230378 -0.0762667 0)
(0.0338723 -0.155757 -8.0632e-20)
(0.0163335 -0.190099 9.95545e-22)
(-0.0126992 -0.196911 6.97206e-20)
(-0.0446288 -0.190513 0)
(-0.0756049 -0.180093 0)
(-0.104026 -0.169972 0)
(-0.129389 -0.161153 -2.55266e-20)
(-0.151566 -0.152951 6.76406e-22)
(-0.170414 -0.144156 4.26729e-20)
(-0.185668 -0.133611 -5.85453e-20)
(-0.196923 -0.120379 6.77745e-22)
(-0.203677 -0.10378 0)
(-0.205371 -0.0833788 -2.91644e-20)
(-0.20133 -0.0590061 1.99026e-20)
(-0.190931 -0.0305732 -6.14411e-20)
(-0.173561 0.00164177 6.75654e-20)
(-0.148599 0.0370791 7.06629e-21)
(-0.11544 0.0748684 -6.57597e-21)
(-0.0729471 0.113759 -4.04959e-20)
(-0.0232253 0.153112 -1.31085e-20)
(0.042442 0.188627 3.96507e-20)
(0.101377 0.225197 -2.3146e-20)
(0.206431 0.245379 0)
(0.02136 -0.0604472 4.01987e-20)
(0.030452 -0.124869 3.99076e-20)
(0.0125055 -0.154276 -3.56558e-20)
(-0.0158771 -0.16115 -6.68464e-20)
(-0.046151 -0.156659 6.1941e-20)
(-0.0743415 -0.148399 -5.68203e-20)
(-0.0986991 -0.140198 7.85377e-20)
(-0.11864 -0.133191 -2.50769e-20)
(-0.134023 -0.127027 4.4319e-20)
(-0.144733 -0.120777 0)
(-0.150554 -0.113458 3.30754e-20)
(-0.151172 -0.104236 -6.3029e-20)
(-0.146211 -0.0924806 5.44081e-20)
(-0.135266 -0.0777673 -5.06438e-20)
(-0.11782 -0.0598064 0)
(-0.0933974 -0.0385776 3.5665e-20)
(-0.0616965 -0.0142886 5.21274e-20)
(-0.0223598 0.0126275 -5.06141e-20)
(0.0242765 0.0413947 -1.73449e-20)
(0.0821381 0.0705843 -1.3227e-20)
(0.139077 0.101459 3.80054e-20)
(0.224947 0.125104 6.27605e-21)
(0.280299 0.157145 -6.9895e-21)
(0.407984 0.16283 5.95507e-21)
(0.0176202 -0.0448735 -4.02086e-20)
(0.0232953 -0.0949141 1.13243e-19)
(0.00459499 -0.120153 -3.44798e-20)
(-0.0229349 -0.128039 6.48634e-20)
(-0.0512023 -0.12664 -6.01034e-20)
(-0.0762938 -0.121895 -2.934e-22)
(-0.0963576 -0.116999 2.52447e-20)
(-0.110686 -0.113084 9.06287e-20)
(-0.119048 -0.110048 -2.14286e-21)
(-0.121283 -0.107223 -3.97856e-20)
(-0.117154 -0.103791 0)
(-0.106346 -0.0989782 -2.73456e-20)
(-0.0885268 -0.0921316 5.42954e-20)
(-0.0633847 -0.0827472 4.30802e-20)
(-0.0306879 -0.0704738 -2.15351e-20)
(0.00980264 -0.0552446 -1.32597e-21)
(0.058161 -0.0371701 -1.36821e-20)
(0.114574 -0.0165567 1.99269e-20)
(0.176871 0.00563602 1.73454e-20)
(0.253988 0.0286068 -1.34588e-20)
(0.319454 0.053437 9.72155e-21)
(0.430977 0.0711048 -7.79533e-21)
(0.48178 0.0983974 0)
(0.639732 0.100812 -5.95306e-21)
(0.0119983 -0.0298982 3.86721e-20)
(0.0129239 -0.0662934 -3.74654e-20)
(-0.00646162 -0.0877481 3.41966e-20)
(-0.032445 -0.0970122 0)
(-0.0577361 -0.0992224 0)
(-0.0786093 -0.0986699 5.31557e-20)
(-0.0930889 -0.0978085 -5.00595e-20)
(-0.100201 -0.0976087 4.39189e-20)
(-0.0994148 -0.0980762 -2.05734e-19)
(-0.0902977 -0.0987 9.17469e-22)
(-0.0724176 -0.0987599 3.28544e-20)
(-0.0453854 -0.0975031 0)
(-0.00895639 -0.094235 -4.84144e-20)
(0.0369089 -0.0883666 8.60987e-20)
(0.091983 -0.0795 -5.67959e-20)
(0.155823 -0.067519 -7.13711e-20)
(0.22761 -0.0524979 7.07161e-21)
(0.306951 -0.0347835 4.16832e-20)
(0.390766 -0.0154573 0)
(0.486627 0.00546431 0)
(0.568579 0.026522 -9.72345e-21)
(0.69192 0.0444151 7.79686e-21)
(0.748898 0.0658592 -2.80595e-20)
(0.912276 0.0726812 2.61655e-20)
(0.00504445 -0.0160778 0)
(0.00066847 -0.0396732 0)
(-0.0184825 -0.057237 -1.02305e-19)
(-0.0411923 -0.0674816 3.15619e-20)
(-0.0611658 -0.0728986 2.11951e-22)
(-0.0748418 -0.0761976 5.36925e-20)
(-0.079983 -0.0790494 0)
(-0.0751433 -0.0821487 -4.51527e-20)
(-0.0593043 -0.0854523 4.10819e-20)
(-0.0317078 -0.0884687 -7.18662e-20)
(0.00810807 -0.0904837 1.26177e-21)
(0.0601731 -0.0907155 5.55681e-20)
(0.123976 -0.0884326 -3.86225e-21)
(0.198415 -0.083063 3.6625e-20)
(0.281857 -0.0742948 -5.75071e-20)
(0.372541 -0.0622238 0)
(0.468088 -0.0468454 4.56315e-20)
(0.566536 -0.0293853 -6.21139e-20)
(0.666281 -0.00990106 1.67325e-20)
(0.76489 0.0098002 0)
(0.85825 0.0291099 1.16689e-20)
(0.957709 0.0461464 3.65804e-20)
(1.02393 0.0620538 -3.41551e-20)
(1.13797 0.0695184 -3.98425e-20)
(-0.00229076 -0.0042409 1.15008e-19)
(-0.0114815 -0.0162403 -1.46305e-19)
(-0.0285372 -0.0294863 -1.5371e-22)
(-0.0451127 -0.0397194 3.14848e-20)
(-0.0559364 -0.0472122 -5.85438e-20)
(-0.0575261 -0.0532567 -5.38465e-20)
(-0.0473145 -0.0587956 9.82767e-20)
(-0.0234494 -0.0640984 -1.95576e-21)
(0.015336 -0.0689234 -8.3099e-20)
(0.0695761 -0.0726937 1.46249e-19)
(0.138902 -0.0746628 -3.43881e-21)
(0.221908 -0.0740754 -5.94938e-20)
(0.316202 -0.0703264 0)
(0.418646 -0.0630914 0)
(0.525597 -0.0523473 -1.80603e-20)
(0.633675 -0.0386431 -3.09319e-20)
(0.738972 -0.022173 -4.79118e-20)
(0.839333 -0.00505331 4.46617e-20)
(0.932034 0.0137522 -1.67446e-20)
(1.01382 0.0297555 2.79771e-20)
(1.08858 0.0462437 -1.37472e-20)
(1.14558 0.0570558 1.97732e-20)
(1.19689 0.0670158 -4.93901e-20)
(1.23654 0.068431 8.24338e-21)
(-0.00879759 0.0046388 3.84806e-20)
(-0.0213356 0.00228506 0)
(-0.0339184 -0.00638535 6.85507e-20)
(-0.0409691 -0.0155316 -6.3479e-20)
(-0.0381952 -0.023806 5.86157e-20)
(-0.0222807 -0.031318 0)
(0.00954719 -0.0382407 0)
(0.0591386 -0.0443069 -4.48145e-20)
(0.127162 -0.0490531 2.27176e-21)
(0.212833 -0.0518061 3.86654e-20)
(0.313703 -0.0518632 -3.15519e-20)
(0.425792 -0.0486848 6.00517e-20)
(0.544058 -0.0420463 0)
(0.663056 -0.0321244 8.3635e-20)
(0.777579 -0.0194635 -1.48845e-19)
(0.883279 -0.00497623 9.70731e-20)
(0.976484 0.0104539 5.03817e-20)
(1.05594 0.0252048 -4.6967e-20)
(1.11873 0.0394848 0)
(1.16815 0.0497326 0)
(1.20123 0.0599476 0)
(1.22224 0.0624934 0)
(1.23645 0.0665361 9.98794e-21)
(1.2331 0.0614992 -3.62973e-20)
(-0.0786919 0.719627 -3.36689e-21)
(-0.0514403 0.787472 3.3716e-21)
(-0.026552 0.834488 -7.93686e-23)
(0.00106951 0.855981 0)
(0.0433543 0.839559 -2.21107e-21)
(0.111455 0.771353 4.37174e-21)
(0.210291 0.642965 1.78496e-22)
(0.330983 0.46299 -2.27095e-21)
(0.451483 0.255462 0)
(0.554543 0.0312377 0)
(0.640518 -0.2123 -1.61691e-22)
(0.713159 -0.451693 -1.45433e-22)
(0.764536 -0.637179 -1.81916e-21)
(0.790728 -0.73443 1.65034e-21)
(0.799492 -0.752629 0)
(0.793199 -0.732245 0)
(0.778699 -0.69963 6.79183e-22)
(0.767102 -0.664407 -1.02977e-23)
(0.750802 -0.655234 -5.92241e-22)
(0.714521 -0.691144 -4.12404e-23)
(0.662594 -0.722682 0)
(0.621252 -0.652354 0)
(0.612333 -0.433372 0)
(0.633799 -0.115687 0)
(0.673752 0.199848 0)
(0.718891 0.433876 0)
(0.755848 0.563196 2.37113e-22)
(0.7864 0.600967 -3.80939e-22)
(0.813155 0.591845 0)
(0.819617 0.603353 0)
(0.792038 0.649543 -1.88121e-22)
(0.740568 0.662883 1.82796e-22)
(0.685797 0.565639 1.34586e-22)
(0.646425 0.354026 0)
(0.640197 0.0805831 0)
(0.66182 -0.173797 2.51017e-22)
(0.697733 -0.361748 -2.43964e-22)
(0.736404 -0.457326 0)
(0.760261 -0.487011 9.30142e-23)
(0.732943 -0.495192 -1.29536e-22)
(0.660665 -0.49102 3.61347e-23)
(0.59735 -0.421277 0)
(0.571677 -0.250653 -9.73611e-23)
(0.600493 -0.0372692 9.46689e-23)
(0.671614 0.138749 0)
(0.746536 0.220404 0)
(0.761236 0.318018 -1.77999e-23)
(0.732501 0.418854 4.89531e-23)
(0.701411 0.479498 0)
(0.731021 0.328934 0)
(0.751742 0.0525876 -1.07151e-23)
(0.771469 -0.256787 -3.50076e-24)
(0.751371 -0.44743 -3.27563e-24)
(0.730206 -0.411227 -1.25128e-24)
(0.682217 -0.26193 0)
(0.671274 0.0454844 0)
(0.610918 0.18775 0)
(0.629063 0.299242 0)
(0.545763 0.232792 0)
(0.524465 -0.0146622 0)
(-0.205845 0.668418 -2.68206e-22)
(-0.152474 0.738317 -1.01854e-20)
(-0.0939689 0.781581 7.0118e-22)
(-0.0232816 0.790248 8.87161e-21)
(0.0660626 0.754119 1.28734e-22)
(0.178733 0.665428 0)
(0.310853 0.52362 -9.61024e-21)
(0.448492 0.346556 1.98559e-20)
(0.571265 0.158408 -1.02466e-20)
(0.671608 -0.0447129 1.08106e-20)
(0.757065 -0.275435 -1.03354e-20)
(0.827463 -0.503705 8.59298e-21)
(0.869041 -0.672292 -8.36777e-21)
(0.876718 -0.751275 -1.85991e-22)
(0.863887 -0.753998 -4.00689e-21)
(0.838974 -0.72205 3.89144e-21)
(0.806946 -0.685352 -2.64103e-21)
(0.780303 -0.649199 2.4915e-21)
(0.75409 -0.632322 -2.50619e-21)
(0.70916 -0.656602 5.17359e-21)
(0.645889 -0.685824 -2.65698e-21)
(0.589328 -0.629621 -2.03719e-22)
(0.5641 -0.433389 -4.53419e-21)
(0.57669 -0.137462 8.95398e-21)
(0.61666 0.164955 -4.41943e-21)
(0.666907 0.399662 2.07765e-22)
(0.714092 0.536123 2.46074e-21)
(0.759565 0.580993 -4.33974e-22)
(0.800487 0.581748 -3.26633e-21)
(0.818371 0.607297 2.91847e-21)
(0.802491 0.66644 -1.40813e-21)
(0.763419 0.687494 2.25221e-22)
(0.7205 0.590986 -1.34873e-22)
(0.688157 0.369771 3.62853e-22)
(0.684159 0.0811023 0)
(0.702642 -0.184855 0)
(0.729499 -0.377254 -8.2189e-22)
(0.754636 -0.470774 6.27272e-22)
(0.772876 -0.487793 2.65747e-22)
(0.743797 -0.47829 -3.63475e-23)
(0.667281 -0.467019 -3.18864e-22)
(0.596665 -0.405664 6.48349e-23)
(0.570107 -0.252448 0)
(0.603658 -0.0556976 0)
(0.675685 0.114679 0)
(0.745547 0.207439 0)
(0.75227 0.320408 5.28661e-23)
(0.72599 0.426229 -3.16736e-23)
(0.697853 0.479961 0)
(0.735634 0.32297 0)
(0.757742 0.048648 0)
(0.777299 -0.256692 -9.76384e-24)
(0.752436 -0.442832 1.51274e-23)
(0.726014 -0.403639 -7.61041e-25)
(0.679491 -0.254935 0)
(0.666195 0.0521128 0)
(0.610043 0.191788 -1.2841e-23)
(0.627587 0.30591 -5.56446e-23)
(0.538029 0.24286 0)
(0.510555 -0.012451 0)
(-0.222141 0.587581 -1.34216e-21)
(-0.144278 0.652157 -1.68176e-20)
(-0.0613142 0.685344 1.61318e-20)
(0.0384731 0.682903 -1.5094e-20)
(0.157191 0.637144 -1.2966e-22)
(0.291317 0.541482 0)
(0.434231 0.399915 -1.98189e-20)
(0.570345 0.237252 1.94101e-20)
(0.683534 0.0749614 1.65215e-22)
(0.777604 -0.103714 3.30729e-22)
(0.864328 -0.318669 3.20077e-22)
(0.933476 -0.532212 2.95403e-22)
(0.964896 -0.68171 -1.38949e-20)
(0.955263 -0.743954 1.36802e-20)
(0.922503 -0.737623 0)
(0.88241 -0.701126 2.06718e-22)
(0.837334 -0.664423 -5.03842e-21)
(0.797126 -0.629596 4.96712e-21)
(0.763053 -0.605267 0)
(0.713629 -0.616898 0)
(0.640896 -0.645473 -5.60523e-21)
(0.570424 -0.607689 1.23178e-20)
(0.530995 -0.43819 -1.40498e-20)
(0.532751 -0.165414 -1.32561e-22)
(0.568992 0.124042 1.42167e-20)
(0.621791 0.358731 -1.2461e-20)
(0.677581 0.5015 9.30228e-21)
(0.736255 0.55419 -1.00878e-21)
(0.790616 0.565132 -3.17494e-21)
(0.820379 0.603592 0)
(0.817257 0.676624 0)
(0.791852 0.709602 1.73721e-21)
(0.760812 0.617756 -2.13562e-21)
(0.735862 0.39006 2.46085e-23)
(0.733993 0.0892915 3.04507e-21)
(0.749063 -0.187111 -2.95869e-21)
(0.767489 -0.384218 0)
(0.778326 -0.479094 1.72245e-22)
(0.789711 -0.487729 8.69147e-22)
(0.760834 -0.46172 -1.40238e-21)
(0.682244 -0.442891 5.094e-22)
(0.60429 -0.391126 3.23753e-23)
(0.576342 -0.256875 -4.99513e-22)
(0.613282 -0.0761206 3.94524e-22)
(0.683884 0.0912673 4.09905e-23)
(0.747748 0.196111 3.15559e-23)
(0.746548 0.323163 -5.30078e-23)
(0.722307 0.432696 0)
(0.696947 0.479405 0)
(0.742688 0.317163 -3.48668e-22)
(0.766551 0.0462806 1.64639e-22)
(0.786171 -0.254467 -1.23807e-22)
(0.756358 -0.437189 4.22339e-23)
(0.724638 -0.396227 -6.06558e-23)
(0.679853 -0.248861 -1.48019e-24)
(0.664025 0.058066 -5.10072e-23)
(0.612391 0.195539 6.41857e-23)
(0.627578 0.31308 -4.87799e-23)
(0.533803 0.254319 0)
(0.499093 -0.00919611 0)
(-0.124102 0.489393 -2.50507e-20)
(-0.0411961 0.542116 -8.13161e-22)
(0.0538663 0.566813 2.43525e-20)
(0.167456 0.559839 -2.27492e-22)
(0.294802 0.513078 0)
(0.431352 0.420989 0)
(0.569726 0.289296 -3.89918e-20)
(0.692993 0.145912 -3.73505e-21)
(0.790918 0.00752483 6.12664e-20)
(0.878394 -0.152782 8.3642e-23)
(0.967436 -0.354296 -2.06572e-20)
(1.03473 -0.550735 -1.62152e-20)
(1.05403 -0.678488 1.6274e-20)
(1.02719 -0.723266 0)
(0.975868 -0.710381 -7.69414e-21)
(0.922114 -0.672539 7.06474e-21)
(0.868835 -0.637343 0)
(0.818209 -0.606947 0)
(0.775787 -0.578409 3.72523e-21)
(0.725035 -0.574747 1.93755e-22)
(0.648643 -0.596955 -3.56355e-21)
(0.565853 -0.577866 -5.42615e-21)
(0.512343 -0.441645 5.41722e-21)
(0.502305 -0.196506 -6.56585e-21)
(0.531276 0.0787151 6.08793e-22)
(0.583421 0.311968 5.59856e-21)
(0.646001 0.459572 4.98125e-22)
(0.716229 0.519704 3.56542e-23)
(0.782363 0.54117 0)
(0.824219 0.592465 2.749e-21)
(0.835377 0.678227 -2.84443e-21)
(0.822958 0.723389 2.36467e-22)
(0.803243 0.640459 0)
(0.787034 0.412592 -3.92173e-22)
(0.787962 0.102707 6.53436e-21)
(0.800136 -0.183447 -1.09544e-20)
(0.811479 -0.384787 7.71339e-22)
(0.807889 -0.482707 1.25681e-21)
(0.809821 -0.487399 2.19507e-21)
(0.78214 -0.446389 1.42867e-22)
(0.704659 -0.418045 -7.10502e-22)
(0.619575 -0.375818 5.92436e-22)
(0.588272 -0.262838 3.46517e-23)
(0.62715 -0.0981791 1.50265e-22)
(0.69533 0.0681992 -1.87229e-22)
(0.753188 0.185626 -1.46927e-22)
(0.744194 0.325872 5.46695e-23)
(0.721468 0.438494 2.51064e-22)
(0.698811 0.478227 -5.91288e-22)
(0.752114 0.311732 5.17511e-22)
(0.778045 0.0449784 -1.26517e-22)
(0.797993 -0.250663 2.83238e-22)
(0.763104 -0.430506 1.33259e-22)
(0.72602 -0.388723 1.32906e-22)
(0.683118 -0.243668 -2.68065e-25)
(0.66459 0.0634201 1.00833e-22)
(0.61771 0.199127 0)
(0.629063 0.320754 4.10361e-23)
(0.53339 0.267056 -1.05104e-22)
(0.490461 -0.00472357 0)
(0.05105 0.386675 1.79659e-20)
(0.131177 0.428781 -3.71623e-20)
(0.225933 0.44803 1.8937e-20)
(0.336271 0.438439 2.58337e-20)
(0.456768 0.395944 -5.52128e-20)
(0.582804 0.314434 -4.6403e-21)
(0.706474 0.199 3.32226e-20)
(0.810746 0.0766722 3.93419e-20)
(0.89382 -0.0437056 -3.85096e-20)
(0.979488 -0.194291 0)
(1.07062 -0.381263 -3.682e-20)
(1.12954 -0.552098 6.72562e-20)
(1.13111 -0.654177 -3.0638e-20)
(1.08733 -0.68391 0)
(1.02248 -0.669804 0)
(0.958433 -0.636788 2.00503e-22)
(0.900226 -0.60518 -8.77229e-21)
(0.84409 -0.580529 8.51695e-21)
(0.79475 -0.552942 0)
(0.743113 -0.5363 6.21195e-21)
(0.667465 -0.547739 -1.24491e-20)
(0.575773 -0.542898 1.42589e-20)
(0.507061 -0.441914 -1.72641e-20)
(0.483651 -0.228852 -8.78902e-22)
(0.503203 0.0298303 1.9103e-20)
(0.552295 0.259521 -9.16904e-21)
(0.619149 0.41101 -2.27193e-22)
(0.697927 0.478966 -2.16611e-21)
(0.774632 0.509784 5.10488e-23)
(0.829033 0.570793 2.15577e-21)
(0.85375 0.669764 1.76276e-22)
(0.855004 0.732402 -4.54882e-21)
(0.848377 0.664583 1.04231e-20)
(0.841096 0.440851 -6.65272e-21)
(0.844757 0.12363 0)
(0.854039 -0.172253 -6.45885e-21)
(0.859425 -0.378019 6.10646e-21)
(0.842806 -0.480124 -2.19538e-21)
(0.833068 -0.485533 2.76523e-21)
(0.806331 -0.432774 -1.26507e-22)
(0.733304 -0.39339 0)
(0.64221 -0.359214 -4.52303e-23)
(0.604356 -0.269189 1.22486e-22)
(0.643235 -0.121543 0)
(0.708997 0.0449859 -7.05273e-23)
(0.761844 0.175846 1.75448e-23)
(0.74593 0.328453 4.27442e-23)
(0.7243 0.443153 7.55215e-23)
(0.703849 0.476203 0)
(0.763836 0.30648 0)
(0.792115 0.044647 -5.90837e-22)
(0.812644 -0.245009 7.18518e-22)
(0.772626 -0.422617 -2.11674e-22)
(0.730078 -0.381226 -1.78276e-23)
(0.689008 -0.239336 -1.53212e-22)
(0.66764 0.0682329 -1.00942e-22)
(0.625673 0.202553 2.52005e-22)
(0.632116 0.328719 0)
(0.536894 0.280856 1.55287e-22)
(0.484897 0.00100285 -9.39331e-25)
(0.253969 0.289492 1.35928e-20)
(0.325949 0.325978 -1.34525e-20)
(0.411318 0.340534 1.48269e-22)
(0.509194 0.330454 -1.51527e-22)
(0.614204 0.295018 2.06254e-22)
(0.722996 0.227577 -2.39756e-22)
(0.828201 0.131092 4.86665e-22)
(0.916074 0.0267729 0)
(0.993681 -0.083586 -5.53511e-22)
(1.08341 -0.228693 5.54597e-22)
(1.17113 -0.398013 5.24841e-22)
(1.21349 -0.539541 -5.17376e-22)
(1.19467 -0.617569 0)
(1.13597 -0.636735 0)
(1.06265 -0.623845 2.30558e-22)
(0.992312 -0.597875 0)
(0.931062 -0.57045 -1.32601e-22)
(0.87204 -0.550071 0)
(0.817333 -0.527283 -5.11266e-21)
(0.765926 -0.502381 9.64422e-21)
(0.695621 -0.498895 -9.17232e-21)
(0.600469 -0.500742 4.59506e-21)
(0.516119 -0.434521 6.59439e-21)
(0.4765 -0.258621 -6.40149e-21)
(0.484417 -0.0199698 -7.28804e-21)
(0.528097 0.202961 7.04456e-21)
(0.596594 0.356909 0)
(0.68141 0.431259 9.49681e-23)
(0.766831 0.470344 0)
(0.832371 0.54113 0)
(0.871523 0.651407 5.75395e-21)
(0.886288 0.729476 -5.85456e-21)
(0.889945 0.680611 6.12765e-22)
(0.892399 0.468807 8.31608e-22)
(0.901051 0.149607 -8.94929e-22)
(0.908778 -0.15516 -5.89013e-21)
(0.90967 -0.365304 5.71783e-21)
(0.882287 -0.47169 -3.08876e-21)
(0.859165 -0.481951 2.59888e-21)
(0.831606 -0.421501 2.4742e-22)
(0.76598 -0.369628 -3.80471e-22)
(0.671688 -0.340486 1.49795e-22)
(0.623938 -0.274293 1.46027e-22)
(0.659989 -0.145506 0)
(0.724131 0.0210986 1.20777e-22)
(0.773766 0.165235 -9.85669e-23)
(0.751759 0.330021 1.27094e-22)
(0.730589 0.447544 -7.60293e-23)
(0.711837 0.47436 0)
(0.777772 0.301714 2.43906e-22)
(0.80867 0.0452452 -4.76152e-22)
(0.829873 -0.237724 1.3798e-23)
(0.784774 -0.413447 -2.73721e-23)
(0.736664 -0.373568 -2.35394e-22)
(0.697151 -0.235782 1.98011e-22)
(0.672884 0.072367 0)
(0.635962 0.205803 -2.52155e-22)
(0.636897 0.336947 0)
(0.544255 0.295621 0)