/*--------------------------------*- C++ -*----------------------------------*\
| =========                 |                                                 |
| \\      /  F ield         | OpenFOAM: The Open Source CFD Toolbox           |
|  \\    /   O peration     | Version:  2512                                  |
|   \\  /    A nd           | Website:  www.openfoam.com                      |
|    \\/     M anipulation  |                                                 |
\*---------------------------------------------------------------------------*/
FoamFile
{
    version     2.0;
    format      ascii;
    arch        "LSB;label=32;scalar=64";
    class       surfaceScalarField;
    location    "72.7";
    object      phi;
}
// * * * * * * * * * * * * * * * * * * * * * * * * * * * * * * * * * * * * * //

dimensions      [0 3 -1 0 0 0 0];

oriented        oriented;

internalField   nonuniform List<scalar> 
26232
(
-0.000103966
0.00150462
-0.00140065
0.000280727
0.00250549
-0.00289019
0.00161113
0.00172439
-0.0030548
0.00430349
-0.000945409
-0.00174695
0.00879939
-0.00570767
0.00121178
0.01553
-0.0127286
0.00599801
0.0247529
-0.0219643
0.0127414
0.0363541
-0.0330232
0.021422
0.0497422
-0.0451662
0.031778
0.0639225
-0.0574599
0.0432796
0.0777174
-0.0689937
0.0551988
0.0900422
-0.0790675
0.0667427
0.100146
-0.0873029
0.0771995
0.107748
-0.0936652
0.0860626
0.113041
-0.0984026
0.0931098
0.116551
-0.101921
0.0984115
0.118925
-0.104641
0.102267
0.120723
-0.106884
0.105086
0.122334
-0.108835
0.107225
0.123924
-0.110598
0.109008
0.125609
-0.112107
0.110422
0.127317
-0.113584
0.111877
0.128586
-0.114263
0.112993
-0.115306
0.114723
0.129169
-4.31261e-05
0.00154774
0.000558695
0.00190367
0.00239731
-0.000114224
0.00603965
-0.00458775
0.0120166
-0.0116846
0.0206486
-0.0213607
0.0318036
-0.0331193
0.0447769
-0.0459965
0.0584234
-0.0588127
0.071471
-0.0705075
0.082858
-0.0803807
0.0919689
-0.0881784
0.0987098
-0.0940439
0.103421
-0.0983764
0.106675
-0.101657
0.109055
-0.104302
0.111003
-0.106588
0.112782
-0.108663
0.114531
-0.110584
0.116304
-0.112371
0.118229
-0.114032
0.120273
-0.115629
0.123017
-0.117006
-0.118952
0.126663
0.000104268
0.00144347
0.00114053
0.000867407
0.00380115
-0.00277484
0.00873922
-0.00952582
0.0164069
-0.0193523
0.0267527
-0.0317064
0.039034
-0.0454005
0.0519849
-0.0589474
0.0642402
-0.071068
0.0747508
-0.0810181
0.0830145
-0.0886444
0.0890812
-0.0942451
0.0933821
-0.0983448
0.0964859
-0.10148
0.0988952
-0.104066
0.100951
-0.106357
0.102846
-0.108484
0.104688
-0.110505
0.106548
-0.112443
0.108505
-0.114328
0.110612
-0.116138
0.112938
-0.117955
0.115527
-0.119595
-0.121446
0.118022
0.000298723
0.00114475
0.00192082
-0.000754687
0.00561768
-0.0064717
0.01201
-0.0159181
0.0212373
-0.0285797
0.0326341
-0.0431032
0.0448606
-0.0576269
0.0564426
-0.0705295
0.0662975
-0.080923
0.0739745
-0.0886951
0.0795964
-0.0942662
0.083623
-0.0982717
0.086589
-0.101311
0.0889299
-0.103821
0.0909316
-0.106068
0.092762
-0.108188
0.0945257
-0.110248
0.0962954
-0.112275
0.0981365
-0.114284
0.100085
-0.116277
0.102202
-0.118256
0.104508
-0.120261
0.107099
-0.122186
-0.124434
0.110087
0.000523799
0.000620952
0.00283076
-0.00306165
0.00767652
-0.0113175
0.0154669
-0.0237085
0.0257656
-0.0388784
0.0372421
-0.0545796
0.0482874
-0.0686723
0.0577053
-0.0799473
0.0650091
-0.0882268
0.0703275
-0.0940134
0.0741192
-0.0980579
0.0768991
-0.101052
0.0790811
-0.103493
0.0809409
-0.105681
0.0826468
-0.107773
0.0842994
-0.10984
0.0859596
-0.111908
0.087668
-0.113983
0.0894505
-0.116067
0.0913361
-0.118163
0.0933585
-0.120278
0.0955195
-0.122422
0.0978856
-0.124552
-0.126862
0.100313
0.00077824
-0.000157288
0.00383753
-0.00612094
0.00983153
-0.0173115
0.018709
-0.0325859
0.0293133
-0.0494827
0.0399071
-0.0651735
0.0490839
-0.0778491
0.0562175
-0.0870808
0.0613766
-0.0933859
0.065003
-0.0976398
0.0676116
-0.100667
0.0696232
-0.103063
0.0713201
-0.10519
0.0728684
-0.107229
0.0743574
-0.109262
0.0758325
-0.111316
0.0773211
-0.113396
0.0788452
-0.115507
0.0804312
-0.117653
0.0821076
-0.119839
0.0839007
-0.122071
0.0858355
-0.124357
0.0879656
-0.126682
-0.129173
0.0902763
0.00106398
-0.00122127
0.00490262
-0.00995958
0.0118948
-0.0243036
0.0213146
-0.0420057
0.0314098
-0.0595779
0.0404802
-0.0742439
0.04763
-0.084999
0.0527821
-0.0922329
0.0563324
-0.0969362
0.0588031
-0.100111
0.0606388
-0.102502
0.0621401
-0.104565
0.0634796
-0.106529
0.0647449
-0.108495
0.0659799
-0.110497
0.0672117
-0.112547
0.0684634
-0.114648
0.069758
-0.116802
0.0711168
-0.119012
0.0725574
-0.12128
0.0740956
-0.123609
0.0757369
-0.125998
0.0775035
-0.128449
-0.131007
0.0793375
0.00137557
-0.00259684
0.00595408
-0.0145381
0.0136302
-0.0319798
0.0229471
-0.0513226
0.031919
-0.0685498
0.0392328
-0.0815577
0.0445386
-0.0903047
0.0481271
-0.0958215
0.0505189
-0.0993279
0.0521944
-0.101786
0.053489
-0.103797
0.0545962
-0.105672
0.0556137
-0.107546
0.0565891
-0.10947
0.0575492
-0.111458
0.058513
-0.113511
0.0594963
-0.115631
0.0605136
-0.117819
0.0615784
-0.120076
0.0627052
-0.122406
0.0639057
-0.12481
0.0651951
-0.127288
0.0665929
-0.129846
-0.132494
0.0680801
0.00169335
-0.00429019
0.00688783
-0.0197326
0.0148172
-0.0399091
0.0234658
-0.0599713
0.0309981
-0.0760821
0.0366122
-0.0871718
0.0403813
-0.0940739
0.0427847
-0.0982248
0.0443412
-0.100884
0.0454377
-0.102883
0.046305
-0.104664
0.0470602
-0.106427
0.0477585
-0.108245
0.0484268
-0.110138
0.0490814
-0.112112
0.0497357
-0.114165
0.0504025
-0.116298
0.0510957
-0.118512
0.0518289
-0.12081
0.0526141
-0.123192
0.0534611
-0.125657
0.0543784
-0.128205
0.0553684
-0.130836
-0.133539
0.0564139
0.00198956
-0.00627975
0.00759243
-0.0253354
0.0153225
-0.0476392
0.0229258
-0.0675745
0.0289485
-0.0821048
0.0330581
-0.0912814
0.0355988
-0.0966146
0.0371069
-0.099733
0.0380339
-0.101811
0.0386658
-0.103515
0.0391523
-0.105151
0.0395622
-0.106837
0.0399265
-0.108609
0.040262
-0.110474
0.0405813
-0.112431
0.0408962
-0.11448
0.0412185
-0.116621
0.0415595
-0.118853
0.0419292
-0.121179
0.0423367
-0.123599
0.0427904
-0.126111
0.0432987
-0.128713
0.0438676
-0.131405
-0.134173
0.0445017
0.00223536
-0.00851511
0.00798339
-0.0310835
0.0151334
-0.0547892
0.0215059
-0.073947
0.0260973
-0.0866963
0.0289359
-0.0941199
0.0305055
-0.0981842
0.0313187
-0.100546
0.0317363
-0.102229
0.0319582
-0.103736
0.0320777
-0.10527
0.032135
-0.106894
0.032149
-0.108623
0.0321322
-0.110457
0.0320947
-0.112394
0.0320462
-0.114432
0.0319962
-0.11657
0.031954
-0.118811
0.0319291
-0.121155
0.0319309
-0.123601
0.0319685
-0.126148
0.0320481
-0.128793
0.0321694
-0.131527
-0.13434
0.0323357
0.00241012
-0.0109252
0.00803102
-0.0367044
0.0143401
-0.0610983
0.0194388
-0.0790457
0.0227453
-0.0900028
0.0245299
-0.0959046
0.0253206
-0.0989749
0.0255641
-0.10079
0.025534
-0.102199
0.0253649
-0.103567
0.0251138
-0.105019
0.0248048
-0.106585
0.0244507
-0.108269
0.0240609
-0.110067
0.0236436
-0.111977
0.0232073
-0.113995
0.0227601
-0.116123
0.0223101
-0.118361
0.0218653
-0.12071
0.021434
-0.123169
0.0210252
-0.125739
0.0206477
-0.128415
0.0203066
-0.131186
0.0200139
-0.134047
-0.000141029
0.00770489
-0.00756386
-0.000887522
0.0161519
-0.0154054
-0.00222129
0.020115
-0.0187813
-0.00401191
0.0214425
-0.0196519
-0.00611174
0.0214636
-0.0193638
-0.00840685
0.020902
-0.0186069
-0.0108183
0.019986
-0.0175746
-0.0132892
0.0186743
-0.0162034
-0.0157715
0.016832
-0.0143497
-0.0182195
0.014315
-0.011867
-0.0205903
0.0109939
-0.0086231
-0.0228602
0.00676061
-0.00449066
-0.024924
0.00153577
0.000527977
-0.026765
-0.00455101
0.00639201
-0.0283486
-0.011678
0.0132616
-0.0296311
-0.0197535
0.0210361
-0.0305686
-0.0286696
0.029607
-0.0311257
-0.0382555
0.0388126
-0.0312932
-0.0482653
0.0484327
-0.0311052
-0.0583788
0.0581909
-0.0306381
-0.0682338
0.0677667
-0.029975
-0.0774786
0.0768156
-0.0290987
-0.0859014
0.085025
-0.0932839
-0.0278841
0.0920693
0.000210128
0.00749476
0.000112508
0.0162495
-0.000499881
0.0207274
-0.00152014
0.0224628
-0.00278664
0.0227301
-0.00415482
0.0222702
-0.00552374
0.0213549
-0.00683228
0.0199829
-0.00803715
0.0180368
-0.00910788
0.0153857
-0.0100208
0.0119068
-0.0107635
0.00750328
-0.0113352
0.00210748
-0.0116697
-0.00421652
-0.0117759
-0.0115718
-0.0116222
-0.0199072
-0.0111565
-0.0291352
-0.0103242
-0.0390878
-0.00908625
-0.0495032
-0.00749066
-0.0599744
-0.00571703
-0.0700074
-0.00411524
-0.0790804
-0.00303604
-0.0869806
-0.0932482
-0.00307178
0.000548001
0.00694676
0.00112764
0.0156698
0.00136771
0.0204874
0.00126231
0.0225682
0.000968905
0.0230235
0.000656695
0.0225824
0.000446733
0.0215649
0.000414796
0.0200148
0.00059513
0.0178565
0.00100543
0.0149754
0.00164177
0.0112704
0.00248557
0.00665948
0.00349536
0.0010977
0.00472288
-0.00544404
0.00614575
-0.0129947
0.00778908
-0.0215506
0.00972133
-0.0310675
0.0120518
-0.0414182
0.0148685
-0.05232
0.0181559
-0.0632618
0.0218522
-0.0737038
0.0255572
-0.0827854
0.0289897
-0.0904131
-0.0952646
0.0310061
0.000820261
0.0061265
0.00204587
0.0144442
0.00313591
0.0193973
0.00398616
0.0217179
0.00471253
0.0222971
0.00548509
0.0218098
0.00644192
0.0206081
0.0076633
0.0187934
0.0091855
0.0163343
0.0110083
0.0131526
0.0131102
0.00916852
0.0154447
0.00432499
0.0179955
-0.0014531
0.0207525
-0.00820105
0.0237113
-0.0159534
0.0269224
-0.0247617
0.0304772
-0.0346223
0.034457
-0.045398
0.0389198
-0.0567829
0.043799
-0.0681409
0.0490126
-0.0789174
0.0542569
-0.0880297
0.0593698
-0.0955259
-0.0999509
0.0640561
0.000984306
0.0051422
0.00271252
0.012716
0.0045502
0.0175597
0.00628737
0.0199808
0.00797152
0.020613
0.00974729
0.020034
0.0117527
0.0186027
0.0140771
0.016469
0.0167589
0.0136525
0.019798
0.0101135
0.0231687
0.00579781
0.0267984
0.000695308
0.0307649
-0.00541963
0.0350204
-0.0124565
0.03963
-0.0205631
0.0446866
-0.0298184
0.0502816
-0.0402172
0.0564235
-0.0515399
0.0630246
-0.0633839
0.0697816
-0.074898
0.0764218
-0.0855576
0.082431
-0.0940388
0.0877053
-0.1008
-0.104238
0.0919924
0.001024
0.0041182
0.00304251
0.0106975
0.00542122
0.0151809
0.00787145
0.0175305
0.0103596
0.0181248
0.0129798
0.0174138
0.0158508
0.0157317
0.0190611
0.0132587
0.0226558
0.0100579
0.0266429
0.00612637
0.0309914
0.00144936
0.0358188
-0.0041321
0.0410423
-0.0106432
0.0467987
-0.0182129
0.0532101
-0.0269744
0.0603815
-0.0369898
0.0683225
-0.0481583
0.0768611
-0.0600785
0.0856554
-0.0721783
0.0941737
-0.0834163
0.101961
-0.0933446
0.108443
-0.100522
0.113618
-0.105975
-0.107606
0.116987
0.000949648
0.00316855
0.00301881
0.00862834
0.00566146
0.0125383
0.00856029
0.0146317
0.0116121
0.015073
0.0148493
0.0141766
0.0183552
0.0122258
0.0222093
0.00940459
0.0264688
0.00579842
0.0311624
0.00143274
0.0364243
-0.00381246
0.0422806
-0.00998847
0.0488844
-0.017247
0.0564085
-0.025737
0.0649733
-0.0355392
0.0745503
-0.0465668
0.0848732
-0.0584812
0.0954335
-0.0706387
0.105539
-0.0822839
0.11451
-0.0923868
0.121813
-0.100648
0.12721
-0.105918
0.130929
-0.109694
-0.109703
0.133026
0.000788487
0.00238006
0.00268661
0.00673022
0.00529745
0.00992746
0.00833191
0.0115972
0.0116503
0.0117546
0.0152345
0.0105924
0.0191354
0.00832496
0.0234325
0.00510749
0.0282119
0.00101903
0.0336661
-0.00402146
0.0399158
-0.0100622
0.0471874
-0.0172601
0.0556919
-0.0257515
0.0655405
-0.0355856
0.0766299
-0.0466286
0.0885678
-0.0585046
0.100668
-0.0705814
0.112091
-0.082062
0.121971
-0.0921634
0.129739
-0.100155
0.135067
-0.105976
0.138216
-0.109067
0.139616
-0.111094
-0.109918
0.139831
0.000573053
0.00180701
0.00213207
0.00517121
0.00445669
0.00760284
0.00733388
0.00872003
0.010634
0.00845456
0.0143281
0.00689821
0.0184748
0.00417827
0.0231872
0.000395061
0.028723
-0.00451672
0.0352904
-0.0105889
0.0431855
-0.0179573
0.0526315
-0.0267061
0.0636763
-0.0367963
0.0760848
-0.0479941
0.0892885
-0.0598323
0.102441
-0.0716566
0.114557
-0.0826982
0.124758
-0.0922624
0.132422
-0.0998278
0.137457
-0.105189
0.140071
-0.10859
0.141058
-0.110054
0.140981
-0.111017
-0.109673
0.140736
0.000335875
0.00147113
0.00146639
0.00404069
0.00335133
0.0057179
0.00588919
0.00618217
0.0090179
0.00532585
0.0127676
0.00314847
0.0172775
-0.000331573
0.0228218
-0.00514924
0.0296867
-0.0113816
0.0381974
-0.0190996
0.0485356
-0.0282955
0.0606248
-0.0387953
0.0740467
-0.0502182
0.0880453
-0.0619926
0.101634
-0.0734211
0.113785
-0.0838073
0.123652
-0.0925651
0.13078
-0.0993908
0.135179
-0.104227
0.13738
-0.10739
0.138042
-0.109252
0.138149
-0.110162
0.138041
-0.110908
-0.110219
0.138587
0.000114942
0.00135619
0.000829889
0.00332574
0.00228002
0.00426777
0.00450759
0.0039546
0.00758528
0.00224816
0.0116845
-0.000950756
0.017093
-0.00574008
0.0241561
-0.0122123
0.0331647
-0.0203902
0.0442075
-0.0301424
0.0570372
-0.0411252
0.0710323
-0.0527905
0.0852671
-0.064453
0.0986735
-0.075399
0.110263
-0.0850106
0.119339
-0.092883
0.125657
-0.0988837
0.129455
-0.103189
0.131344
-0.106116
0.132128
-0.108174
0.132468
-0.109592
0.133102
-0.110795
0.133985
-0.111791
-0.111786
0.135551
-4.44578e-05
0.000391099
0.00160407
0.00381172
0.00727165
0.0123189
0.0193202
0.0285299
0.0399177
0.053055
0.0671286
0.0810808
0.0938272
0.104491
0.11259
0.118118
0.121501
0.123399
0.124508
0.125342
0.126171
0.127252
0.128454
0.131391
-0.0252689
-0.134883
0.132268
-0.0192364
-0.141712
0.135679
-0.00841456
-0.142531
0.131709
0.00775187
-0.135086
0.11892
0.0279418
-0.116795
0.0966049
0.0496381
-0.0879708
0.0662745
0.0699826
-0.0505202
0.0301756
0.0875803
-0.00647605
-0.0111216
0.102997
0.042799
-0.0582161
0.116706
0.0927622
-0.10647
0.128142
0.134717
-0.146153
0.136406
0.16164
-0.169904
0.140949
0.174292
-0.178835
0.142585
0.17825
-0.179885
0.143085
0.17678
-0.17728
0.142641
0.174214
-0.17377
0.139903
0.180039
-0.1773
0.1349
0.197469
-0.192466
0.130493
0.210231
-0.205824
0.129519
0.191071
-0.190097
0.132228
0.126508
-0.129217
0.137973
0.0279162
-0.0336614
0.145548
-0.0747136
0.0671389
0.152888
-0.153676
0.146336
0.157493
-0.199449
0.194844
0.159642
-0.218285
0.216137
0.160443
-0.219059
0.218258
0.158395
-0.217305
0.219353
0.151739
-0.231065
0.237721
0.141371
-0.251902
0.262269
0.130124
-0.246748
0.257995
0.121218
-0.191064
0.19997
0.118366
-0.0923755
0.0952282
0.122068
0.0231555
-0.0268583
0.12999
0.126337
-0.134259
0.138656
0.196677
-0.205342
0.142822
0.237348
-0.241515
0.138799
0.266051
-0.262027
0.128859
0.291855
-0.281915
0.118054
0.281059
-0.270255
0.111122
0.213066
-0.206134
0.11122
0.0816069
-0.0817048
0.119532
-0.050176
0.0418633
0.129128
-0.149545
0.139949
0.130511
-0.199829
0.198446
0.124467
-0.244769
0.250813
0.118038
-0.261748
0.268177
0.117876
-0.230641
0.230803
0.124814
-0.177581
0.170642
0.133496
-0.0722101
0.0635281
0.136322
0.0443764
-0.0472023
0.132539
0.247801
-0.244018
0.130018
0.359878
-0.357357
0.130451
0.338895
-0.339328
0.130272
0.119976
-0.119797
0.128579
-0.162743
0.164437
0.123266
-0.277831
0.283143
0.118135
-0.316836
0.321967
0.110624
-0.0760221
0.0835334
0.0766387
-0.0717499
-0.00864394
-0.129311
-0.0132811
-0.137075
-0.0139781
-0.141834
-0.00858824
-0.140476
0.00382804
-0.129211
0.0220544
-0.106197
0.0424398
-0.0709055
0.0628406
-0.0268769
0.0824153
0.0232243
0.100732
0.0744457
0.117028
0.118421
0.129972
0.148696
0.13869
0.165574
0.144013
0.172927
0.147589
0.173204
0.149704
0.172099
0.149696
0.180047
0.148081
0.199084
0.146934
0.211378
0.147428
0.190577
0.149078
0.124858
0.151654
0.0253406
0.155143
-0.0782031
0.158644
-0.157176
0.16
-0.200805
0.159167
-0.217453
0.15748
-0.217372
0.153477
-0.213302
0.144819
-0.222407
0.132612
-0.239695
0.120713
-0.23485
0.112704
-0.183054
0.111638
-0.0913103
0.118131
0.016663
0.129049
0.115419
0.140064
0.185662
0.145683
0.23173
0.142965
0.268768
0.134311
0.30051
0.1241
0.29127
0.116419
0.220748
0.113931
0.0840942
0.119771
-0.0560159
0.129022
-0.158795
0.131023
-0.201831
0.125046
-0.238791
0.119095
-0.255798
0.119486
-0.231032
0.126247
-0.184342
0.13389
-0.0798529
0.13654
0.0417266
0.133477
0.250863
0.131621
0.361735
0.131794
0.338722
0.130473
0.121297
0.127988
-0.160259
0.122266
-0.272109
0.117814
-0.312383
0.111124
-0.0693318
0.0818167
0.0224297
-0.120734
0.0108672
-0.125512
-0.000926729
-0.13004
-0.00823364
-0.133169
-0.00741478
-0.13003
0.00168937
-0.115301
0.0185611
-0.0877773
0.0389578
-0.0472736
0.0614164
0.000765791
0.0841315
0.0517306
0.105393
0.0971591
0.123112
0.130977
0.136153
0.152532
0.145319
0.163762
0.152064
0.166458
0.156848
0.167315
0.159703
0.177191
0.16147
0.197318
0.163423
0.209425
0.165239
0.18876
0.165479
0.124618
0.164705
0.0261151
0.164313
-0.0778114
0.164077
-0.15694
0.162294
-0.199022
0.158704
-0.213863
0.15471
-0.213378
0.149218
-0.20781
0.139315
-0.212503
0.125689
-0.226069
0.112999
-0.222159
0.105622
-0.175677
0.106182
-0.09187
0.115039
0.00780568
0.128612
0.101846
0.141873
0.172401
0.149161
0.224442
0.148214
0.269716
0.141181
0.307543
0.131815
0.300636
0.12354
0.229022
0.118395
0.0892391
0.121001
-0.0586216
0.12926
-0.167054
0.132008
-0.204579
0.126117
-0.2329
0.120205
-0.249886
0.120895
-0.231722
0.127433
-0.190881
0.134311
-0.0867301
0.136992
0.0390449
0.134747
0.253109
0.133499
0.362982
0.133461
0.33876
0.131119
0.123639
0.127821
-0.156961
0.121699
-0.265986
0.117907
-0.308592
0.112009
-0.0634336
0.087349
0.056938
-0.113616
0.046077
-0.114651
0.0301977
-0.11416
0.0121991
-0.115171
-0.000962242
-0.116869
-0.0037792
-0.112484
0.00397329
-0.0955298
0.0209919
-0.0642922
0.0433168
-0.021559
0.0684191
0.0266283
0.0932021
0.0723761
0.11497
0.109209
0.132187
0.135315
0.145257
0.150692
0.155245
0.15647
0.162724
0.159836
0.168344
0.171572
0.17329
0.192371
0.178104
0.204611
0.181142
0.185722
0.180516
0.125245
0.176929
0.029702
0.173092
-0.0739749
0.169231
-0.153079
0.164406
-0.194196
0.158329
-0.207787
0.152223
-0.207271
0.145463
-0.20105
0.134949
-0.201989
0.120612
-0.211733
0.107256
-0.208803
0.100009
-0.168431
0.101619
-0.0934801
0.112358
-0.00293323
0.128287
0.0859167
0.143831
0.156857
0.15321
0.215062
0.154321
0.268605
0.149026
0.312838
0.140651
0.309011
0.132077
0.237596
0.12453
0.0967859
0.123411
-0.0575023
0.129856
-0.1735
0.133311
-0.208033
0.127592
-0.227182
0.121343
-0.243637
0.122041
-0.23242
0.128369
-0.197208
0.134741
-0.0931024
0.137641
0.036145
0.13628
0.254469
0.135615
0.363648
0.135428
0.338946
0.132181
0.126886
0.128093
-0.152873
0.121548
-0.259441
0.118365
-0.305409
0.113214
-0.0582823
0.0931906
0.0838388
-0.105463
0.0753984
-0.106211
0.0638545
-0.102617
0.0464829
-0.097799
0.0255966
-0.0959824
0.00904268
-0.0959305
0.0040013
-0.0904884
0.0123076
-0.0725985
0.0306928
-0.0399442
0.0551517
0.00216928
0.0810738
0.046454
0.105301
0.0849817
0.125904
0.114712
0.142587
0.134009
0.155684
0.143373
0.165713
0.149807
0.173905
0.16338
0.18184
0.184436
0.189289
0.197162
0.193471
0.18154
0.192492
0.126224
0.187504
0.0346892
0.180854
-0.0673241
0.173681
-0.145907
0.166076
-0.186591
0.157876
-0.199587
0.150013
-0.199408
0.142332
-0.19337
0.131758
-0.191414
0.117341
-0.197316
0.103541
-0.195003
0.0960963
-0.160986
0.0981201
-0.0955039
0.109854
-0.0146675
0.127695
0.0680763
0.145459
0.139093
0.157301
0.20322
0.161031
0.264875
0.157908
0.315961
0.150558
0.316361
0.141693
0.246461
0.132044
0.106436
0.127019
-0.0524778
0.13081
-0.17729
0.134786
-0.212009
0.129402
-0.221797
0.122508
-0.236743
0.122883
-0.232795
0.129037
-0.203362
0.135143
-0.0992076
0.138436
0.0328512
0.138034
0.254871
0.137925
0.363757
0.137674
0.339197
0.133623
0.130937
0.128806
-0.148056
0.121796
-0.252431
0.119141
-0.302754
0.114711
-0.0538526
0.0992903
0.105888
-0.094364
0.0955075
-0.0958304
0.0865644
-0.0936734
0.0762468
-0.0874814
0.0600673
-0.0798028
0.0391592
-0.0750224
0.0218527
-0.0731819
0.0165755
-0.0673213
0.0257955
-0.0491643
0.045654
-0.0176892
0.0706743
0.0214337
0.0960264
0.0596296
0.119139
0.0915998
0.138794
0.114354
0.154401
0.127766
0.166278
0.13793
0.176303
0.153355
0.186594
0.174145
0.196309
0.187447
0.201677
0.176172
0.200797
0.127105
0.195178
0.0403077
0.186906
-0.0590517
0.177238
-0.136239
0.16724
-0.176593
0.157288
-0.189635
0.147969
-0.190089
0.139489
-0.18489
0.129321
-0.181246
0.115558
-0.183553
0.101712
-0.181156
0.0938196
-0.153094
0.0955312
-0.0972156
0.107364
-0.0265002
0.126475
0.0489652
0.146349
0.119219
0.160966
0.188603
0.167595
0.258246
0.166748
0.316809
0.160536
0.322572
0.151581
0.255416
0.14041
0.117607
0.13171
-0.0437785
0.132125
-0.177705
0.136259
-0.216144
0.131443
-0.21698
0.123707
-0.229007
0.123392
-0.232481
0.129415
-0.209385
0.135476
-0.105268
0.139299
0.0290275
0.13991
0.254261
0.140357
0.36331
0.140141
0.339413
0.135409
0.135669
0.129942
-0.14259
0.122418
-0.244906
0.120188
-0.300524
0.116471
-0.050135
0.105593
0.121566
-0.0829046
0.110037
-0.0843009
0.0994901
-0.0831267
0.0914241
-0.0794154
0.0838255
-0.0722042
0.0714632
-0.0626601
0.0533519
-0.0550706
0.0370617
-0.0510311
0.0323499
-0.0444525
0.0419976
-0.0273369
0.0624162
0.00101512
0.0871456
0.0349001
0.111941
0.0668047
0.133997
0.0922976
0.151615
0.110147
0.164829
0.124716
0.176077
0.142106
0.187992
0.16223
0.199328
0.176111
0.205767
0.169733
0.20551
0.127362
0.200064
0.045754
0.191079
-0.0500667
0.179699
-0.124859
0.167724
-0.164618
0.156356
-0.178267
0.146022
-0.179754
0.136888
-0.175756
0.12724
-0.171598
0.114751
-0.171065
0.101427
-0.167832
0.0930502
-0.144717
0.0937757
-0.097941
0.104767
-0.0374918
0.124298
0.0294344
0.146008
0.0975091
0.163663
0.170948
0.173768
0.248141
0.175818
0.314758
0.170943
0.327447
0.161626
0.264734
0.14919
0.130043
0.137263
-0.0318513
0.133821
-0.174263
0.137575
-0.219899
0.133594
-0.212999
0.124979
-0.220391
0.123573
-0.231074
0.129469
-0.215282
0.135682
-0.111481
0.140166
0.0245441
0.141861
0.252566
0.142867
0.362304
0.142775
0.339505
0.137493
0.140952
0.131474
-0.136571
0.123402
-0.236834
0.121459
-0.298581
0.118458
-0.0471342
0.112033
0.128333
-0.0714072
0.117696
-0.0736635
0.107665
-0.0730955
0.0988076
-0.0705584
0.0926773
-0.0660739
0.0883454
-0.0583282
0.0809628
-0.047688
0.0678782
-0.0379465
0.0544406
-0.0310149
0.0499794
-0.0228756
0.0586966
-0.00770215
0.0777781
0.0158186
0.101488
0.0430947
0.124745
0.069041
0.143978
0.0909146
0.158513
0.110181
0.171028
0.129591
0.184408
0.14885
0.197191
0.163329
0.205089
0.161834
0.206491
0.12596
0.202379
0.0498658
0.193466
-0.0411542
0.180996
-0.112389
0.167499
-0.151122
0.15498
-0.165748
0.143975
-0.16875
0.134392
-0.166173
0.125198
-0.162403
0.114315
-0.160183
0.102203
-0.155719
0.0935734
-0.136088
0.0928565
-0.097224
0.102049
-0.0466843
0.121024
0.0104593
0.144229
0.0743043
0.16492
0.150257
0.178476
0.234584
0.183434
0.3098
0.180264
0.330618
0.170998
0.274
0.157807
0.143234
0.143383
-0.0174275
0.135907
-0.166786
0.138611
-0.222602
0.135692
-0.210081
0.126361
-0.21106
0.123466
-0.228179
0.12916
-0.220975
0.135724
-0.118045
0.14095
0.0193173
0.143749
0.249768
0.145334
0.360719
0.145505
0.339333
0.13982
0.146637
0.133372
-0.130124
0.12475
-0.228212
0.122892
-0.296723
0.120638
-0.0448796
0.118527
0.130079
-0.0607503
0.119958
-0.0635424
0.110873
-0.0640102
0.102899
-0.0625844
0.0963668
-0.059542
0.0924696
-0.054431
0.0910637
-0.0462821
0.0887529
-0.0356358
0.0820348
-0.0242968
0.073142
-0.0139828
0.0695829
-0.00414304
0.0757759
0.00962558
0.0915174
0.0273531
0.111766
0.0487924
0.131077
0.0716041
0.147009
0.0942486
0.161362
0.115238
0.176524
0.133688
0.190885
0.148968
0.200688
0.152032
0.204533
0.122115
0.202276
0.0521231
0.193896
-0.0327746
0.180899
-0.0993909
0.166414
-0.136637
0.153053
-0.152387
0.141684
-0.157381
0.131896
-0.156385
0.12298
-0.153487
0.113637
-0.150839
0.103313
-0.145395
0.0950078
-0.127783
0.0928467
-0.0950629
0.0995426
-0.0533802
0.116724
-0.00672223
0.140524
0.0505039
0.164326
0.126455
0.182135
0.216776
0.190604
0.301331
0.189158
0.332064
0.180182
0.282976
0.166142
0.157273
0.14967
-0.00095541
0.138349
-0.155466
0.139294
-0.223547
0.137542
-0.208329
0.127848
-0.201366
0.123133
-0.223465
0.128444
-0.226287
0.135531
-0.125132
0.141601
0.0132481
0.145577
0.245791
0.147758
0.358539
0.148292
0.338799
0.142343
0.152586
0.1356
-0.12338
0.126437
-0.219049
0.12446
-0.294746
0.122984
-0.0434037
0.124991
0.129747
-0.0519107
0.12096
-0.054755
0.112609
-0.0556596
0.105421
-0.0553964
0.0996403
-0.053761
0.0954557
-0.0502465
0.0935763
-0.0444027
0.0941318
-0.0361912
0.0952369
-0.0254019
0.0940422
-0.0127881
0.0898302
6.90442e-05
0.0871223
0.0123335
0.0910541
0.0234213
0.102187
0.0376594
0.117105
0.0566867
0.132525
0.0788283
0.148359
0.0994037
0.165289
0.116758
0.181327
0.13293
0.193533
0.139826
0.200564
0.115084
0.2009
0.0517869
0.193334
-0.0252084
0.179839
-0.0858964
0.164554
-0.121352
0.150481
-0.138314
0.138871
-0.145771
0.12915
-0.146664
0.120428
-0.144766
0.112261
-0.142671
0.103966
-0.1371
0.0967546
-0.120572
0.0936928
-0.092001
0.0976987
-0.0573861
0.111719
-0.0207421
0.135142
0.02708
0.161289
0.100309
0.182732
0.195332
0.194912
0.289151
0.195988
0.330989
0.187895
0.291068
0.173928
0.171241
0.156132
0.0168403
0.141082
-0.140416
0.139571
-0.222035
0.138916
-0.207674
0.129351
-0.191802
0.122628
-0.216741
0.127281
-0.23094
0.135067
-0.132919
0.142058
0.0062569
0.147168
0.240682
0.149963
0.355744
0.151027
0.337735
0.145018
0.158594
0.138111
-0.116473
0.128427
-0.209365
0.126146
-0.292464
0.125468
-0.0427257
0.131327
0.128072
-0.0444312
0.12024
-0.046923
0.112687
-0.0481068
0.10612
-0.0488301
0.100831
-0.0484719
0.0970654
-0.0464805
0.0950484
-0.0423858
0.095033
-0.0361758
0.0974232
-0.0277921
0.101518
-0.0168827
0.10515
-0.00356345
0.106213
0.0112706
0.106059
0.0235752
0.108323
0.0353957
0.115228
0.0497816
0.125754
0.0683025
0.139372
0.0857852
0.15557
0.100561
0.172074
0.116426
0.186133
0.125767
0.195666
0.105551
0.197498
0.0499556
0.190205
-0.0179155
0.176548
-0.0722396
0.161189
-0.105993
0.146969
-0.124095
0.135348
-0.13415
0.125959
-0.137275
0.117511
-0.136317
0.110078
-0.135238
0.103609
-0.130632
0.0980811
-0.115044
0.0950476
-0.0889675
0.0967716
-0.0591102
0.106912
-0.0308824
0.128133
0.00585855
0.156227
0.0722147
0.182388
0.169171
0.198759
0.272779
0.201712
0.328036
0.193799
0.298981
0.180423
0.184618
0.161854
0.035409
0.144012
-0.122574
0.139477
-0.2175
0.139679
-0.207877
0.130774
-0.182897
0.122131
-0.208098
0.125707
-0.234516
0.134227
-0.141438
0.142305
-0.00182141
0.148633
0.234354
0.152083
0.352294
0.153755
0.336063
0.147814
0.164535
0.14087
-0.109529
0.130688
-0.199182
0.127929
-0.289705
0.128065
-0.0428623
0.137441
0.125537
-0.038577
0.118966
-0.040352
0.11264
-0.0417803
0.106765
-0.042955
0.101563
-0.04327
0.0973513
-0.0422692
0.0946712
-0.0397057
0.0938042
-0.0353088
0.0950187
-0.0290065
0.0987063
-0.0205704
0.10408
-0.00893735
0.109949
0.00540189
0.114651
0.0188729
0.118736
0.0313105
0.123042
0.0454763
0.129531
0.0618131
0.139029
0.0762869
0.151304
0.0882862
0.16543
0.1023
0.180082
0.111115
0.192026
0.093606
0.195938
0.0460435
0.188761
-0.0107377
0.174386
-0.057865
0.158523
-0.0901295
0.143973
-0.109545
0.132126
-0.122303
0.123022
-0.128171
0.114892
-0.128187
0.107742
-0.128087
0.102516
-0.125407
0.0987269
-0.111255
0.0964034
-0.086644
0.0968064
-0.0595132
0.103294
-0.0373705
0.120416
-0.0112634
0.147525
0.0451061
0.176514
0.140183
0.197998
0.251295
0.205481
0.320553
0.199335
0.305127
0.185976
0.197977
0.167688
0.0536963
0.14759
-0.102476
0.13963
-0.20954
0.140112
-0.208358
0.13214
-0.174924
0.12194
-0.197898
0.124081
-0.236657
0.133175
-0.150533
0.142095
-0.0107411
0.149674
0.226775
0.153804
0.348165
0.156262
0.333604
0.150707
0.17009
0.143854
-0.102676
0.133174
-0.188502
0.12982
-0.286351
0.130756
-0.0437987
0.143231
0.179864
-0.0321487
-0.186292
0.174404
-0.0348916
0.168995
-0.036372
0.163267
-0.0372271
0.157253
-0.0372558
0.15117
-0.0361866
0.14523
-0.0337652
0.139575
-0.0296539
0.134379
-0.0238106
0.130117
-0.0163085
0.127501
-0.00632133
0.126608
0.00629545
0.126141
0.0193395
0.124867
0.0325851
0.123155
0.0471876
0.123247
0.0617211
0.1266
0.0729337
0.132962
0.0819246
0.14416
0.0911024
0.163795
0.0914799
0.188502
0.0688996
0.207259
0.0272864
0.214025
-0.0175043
0.210866
-0.0547053
0.2024
-0.0816635
0.191554
-0.0986991
0.180296
-0.111045
0.169802
-0.117677
0.159314
-0.117699
0.149088
-0.117861
0.139889
-0.116208
0.130462
-0.101828
0.120869
-0.0770509
0.11386
-0.0525039
0.112692
-0.0362021
0.119953
-0.0185248
0.133603
0.0314563
0.148226
0.12556
0.159611
0.23991
0.166548
0.313616
0.170854
0.300821
0.175171
0.19366
0.174873
0.0539941
0.167795
-0.0953973
0.161463
-0.203208
0.157794
-0.204689
0.148022
-0.165152
0.136447
-0.186323
0.1335
-0.233711
0.133585
-0.150617
0.132273
-0.00942921
0.132071
0.226977
0.135314
0.344921
0.142538
0.32638
0.143913
0.168715
0.140234
-0.0989973
0.129283
-0.177551
0.122681
-0.279749
0.121285
-0.0424026
0.148872
0.188687
-0.0269921
-0.193843
0.18338
-0.0295845
0.178039
-0.0310313
0.172542
-0.03173
0.166942
-0.0316558
0.161395
-0.0306401
0.15609
-0.0284598
0.151249
-0.0248127
0.147058
-0.01962
0.143645
-0.0128953
0.141442
-0.00411874
0.141088
0.00664992
0.142167
0.01826
0.143872
0.0308803
0.14623
0.0448304
0.150069
0.0578819
0.15559
0.067412
0.163293
0.0742221
0.175953
0.0784418
0.194582
0.0728508
0.213305
0.0501766
0.224697
0.0158945
0.22608
-0.0188873
0.220157
-0.0487819
0.210542
-0.0720485
0.199452
-0.087609
0.188166
-0.0997591
0.177874
-0.107385
0.167764
-0.107589
0.157509
-0.107606
0.148616
-0.107314
0.140488
-0.0937006
0.132145
-0.0687081
0.125238
-0.045597
0.122846
-0.03381
0.128464
-0.0241424
0.142193
0.0177267
0.158812
0.108941
0.172744
0.225978
0.181696
0.304664
0.186869
0.295648
0.191145
0.189384
0.191445
0.0536941
0.18329
-0.0872425
0.174629
-0.194547
0.169749
-0.199809
0.159613
-0.155016
0.146723
-0.173433
0.142975
-0.229962
0.143095
-0.150737
0.14185
-0.00818444
0.142
0.226827
0.145872
0.341049
0.154547
0.317704
0.156416
0.166846
0.152282
-0.0948632
0.139793
-0.165062
0.131954
-0.271911
0.130921
-0.0413692
0.154605
0.198367
-0.022688
-0.202671
0.193443
-0.0246603
0.188469
-0.0260573
0.183445
-0.0267065
0.178367
-0.0265772
0.173316
-0.0255892
0.168463
-0.0236077
0.164064
-0.0204131
0.160307
-0.0158628
0.15735
-0.00993863
0.155616
-0.00238455
0.15553
0.00673608
0.157107
0.0166824
0.160262
0.0277253
0.165248
0.0398444
0.172082
0.0510481
0.180181
0.0593125
0.189926
0.0644773
0.202998
0.0653698
0.218401
0.057448
0.231012
0.0375655
0.236716
0.0101904
0.235188
-0.017359
0.228611
-0.0422046
0.219597
-0.0630344
0.209564
-0.077577
0.198937
-0.0891319
0.188959
-0.0974074
0.179261