/*--------------------------------*- C++ -*----------------------------------*\
| =========                 |                                                 |
| \\      /  F ield         | OpenFOAM: The Open Source CFD Toolbox           |
|  \\    /   O peration     | Version:  2512                                  |
|   \\  /    A nd           | Website:  www.openfoam.com                      |
|    \\/     M anipulation  |                                                 |
\*---------------------------------------------------------------------------*/
FoamFile
{
    version     2.0;
    format      ascii;
    arch        "LSB;label=32;scalar=64";
    class       volVectorField;
    location    "195.45";
    object      U;
}
// * * * * * * * * * * * * * * * * * * * * * * * * * * * * * * * * * * * * * //

dimensions      [0 1 -1 0 0 0 0];

internalField   nonuniform List<vector> 
13248
(
(-0.0276875 0.0218479 6.01126e-20)
(-0.0548869 0.0415241 0)
(-0.0570933 0.0467929 -1.03417e-19)
(-0.0309303 0.0445663 9.57567e-20)
(0.0276285 0.0375773 8.82096e-20)
(0.122347 0.0269664 0)
(0.254631 0.0138013 0)
(0.420517 -0.000665044 2.03111e-19)
(0.609176 -0.0152852 -6.27891e-22)
(0.804356 -0.0293384 -1.73587e-19)
(0.988123 -0.0426917 1.59705e-19)
(1.14498 -0.0556839 -9.89988e-20)
(1.26489 -0.0688086 0)
(1.34475 -0.0823958 -1.63763e-19)
(1.38814 -0.0964336 3.00716e-19)
(1.40335 -0.110654 -7.21408e-20)
(1.40035 -0.124675 -1.19102e-19)
(1.38756 -0.138113 1.11051e-19)
(1.36992 -0.150598 0)
(1.34954 -0.162289 0)
(1.32725 -0.170735 0)
(1.30164 -0.18424 0)
(1.27828 -0.180624 2.66033e-20)
(1.24358 -0.21197 8.74092e-20)
(-0.0317471 0.023472 -1.81235e-19)
(-0.0537775 0.0411136 1.14336e-19)
(-0.0394307 0.0423245 -7.18303e-22)
(0.0132621 0.0349816 -1.46239e-19)
(0.107832 0.0231844 -8.80806e-20)
(0.245927 0.00952246 -8.2447e-20)
(0.422879 -0.00390422 -1.49007e-19)
(0.624935 -0.0155764 1.39415e-19)
(0.831418 -0.0249355 0)
(1.02069 -0.0324515 7.22431e-22)
(1.17603 -0.0392452 1.38344e-21)
(1.28893 -0.0464948 9.76033e-20)
(1.35961 -0.0549584 0)
(1.39503 -0.0647933 0)
(1.40551 -0.0756853 1.05131e-19)
(1.40102 -0.0871098 -1.96287e-19)
(1.38871 -0.0984925 1.11282e-19)
(1.37237 -0.109467 -1.03759e-19)
(1.35368 -0.119607 -4.33628e-20)
(1.33345 -0.128821 -7.61092e-20)
(1.31202 -0.137125 -2.85728e-20)
(1.29077 -0.143897 -5.2783e-20)
(1.26797 -0.147527 8.05347e-20)
(1.24576 -0.157465 2.14214e-20)
(-0.0332725 0.0225945 0)
(-0.0451519 0.0365214 0)
(-0.0077942 0.0343124 5.27168e-20)
(0.0793155 0.0238993 4.80514e-20)
(0.217569 0.0106004 -8.68586e-22)
(0.40228 -0.00178305 -8.53604e-20)
(0.617286 -0.0108743 0)
(0.836893 -0.0161507 -6.91962e-20)
(1.03466 -0.0187506 6.36771e-20)
(1.19189 -0.0206023 -1.98658e-22)
(1.30139 -0.0234476 -1.04542e-19)
(1.36649 -0.0282414 -9.28579e-20)
(1.39711 -0.0350694 3.04668e-21)
(1.40503 -0.0434448 -7.15992e-20)
(1.40007 -0.0526992 1.73776e-19)
(1.38851 -0.0622398 0)
(1.37359 -0.071666 -1.04966e-19)
(1.35682 -0.0807496 5.14495e-20)
(1.33904 -0.0891013 4.33191e-20)
(1.32045 -0.097256 0)
(1.30193 -0.102955 3.32648e-20)
(1.2819 -0.110772 -1.08113e-19)
(1.26298 -0.111226 1.00962e-19)
(1.24119 -0.122647 5.78737e-20)
(-0.0318489 0.0195885 -6.3638e-20)
(-0.0274682 0.0279115 -6.07919e-20)
(0.0401263 0.0227099 5.4368e-20)
(0.169325 0.0116702 0)
(0.35579 0.00102481 0)
(0.582301 -0.00522274 -1.74257e-21)
(0.817895 -0.00628041 0)
(1.02958 -0.00403461 -2.09777e-19)
(1.19502 -0.00133079 1.91057e-19)
(1.30728 -0.000427255 -2.31287e-19)
(1.37205 -0.00231954 5.18832e-20)
(1.40162 -0.00687666 0)
(1.4089 -0.0133824 8.052e-20)
(1.40378 -0.0210499 -1.46611e-19)
(1.39233 -0.0292804 3.47717e-20)
(1.37775 -0.0376886 8.44593e-20)
(1.36165 -0.0460329 -5.42833e-21)
(1.34482 -0.0540234 -9.06826e-20)
(1.32749 -0.0616769 0)
(1.30999 -0.0683269 0)
(1.29193 -0.0745978 -2.97779e-20)
(1.27414 -0.0800554 2.59602e-20)
(1.25632 -0.0821575 8.89161e-20)
(1.2379 -0.0921345 -8.30225e-20)
(-0.0270609 0.0151641 -6.67777e-20)
(0.0011145 0.0168138 -6.19306e-20)
(0.107068 0.00985747 1.70883e-19)
(0.2847 0.00167664 -1.02968e-19)
(0.517606 -0.00151633 9.53734e-20)
(0.770678 0.00209039 1.7131e-19)
(1.00227 0.00985589 -1.1895e-19)
(1.18336 0.0176979 -1.39814e-19)
(1.30506 0.0226583 4.67428e-21)
(1.37434 0.0236948 1.73035e-19)
(1.40548 0.0212202 0)
(1.41286 0.0162519 4.44445e-20)
(1.40723 0.00976969 0)
(1.39524 0.00247094 -6.90663e-20)
(1.38048 -0.00520182 9.62701e-20)
(1.3647 -0.0129597 1.13181e-21)
(1.34857 -0.0205571 -2.39431e-20)
(1.33228 -0.0278969 4.41133e-20)
(1.31594 -0.0346722 3.70049e-20)
(1.29943 -0.0411135 -3.24292e-20)
(1.28313 -0.0465788 2.9764e-20)
(1.26676 -0.0519041 -2.59479e-20)
(1.25059 -0.0550677 0)
(1.23424 -0.062908 -1.8643e-20)
(-0.0182184 0.00999875 6.67609e-20)
(0.0425325 0.00525915 6.48309e-20)
(0.194924 -0.000763653 -5.73517e-20)
(0.423199 -0.00152528 1.05788e-19)
(0.691463 0.00662318 -9.7983e-20)
(0.948336 0.0207204 8.70039e-20)
(1.15364 0.0349128 -4.11812e-20)
(1.29287 0.0449799 1.05099e-19)
(1.37252 0.049577 -6.47045e-20)
(1.40868 0.0493803 1.09627e-19)
(1.41785 0.0458167 -2.48072e-19)
(1.41251 0.0402138 8.91312e-20)
(1.40039 0.0335026 -7.56253e-20)
(1.3856 0.0262553 7.04026e-20)
(1.36997 0.0188102 5.88218e-20)
(1.35412 0.011384 5.02787e-20)
(1.33818 0.00409475 -1.3841e-19)
(1.32225 -0.00288849 8.49455e-20)
(1.30632 -0.00957639 -3.6999e-20)
(1.29056 -0.0156801 9.37782e-20)
(1.27488 -0.0213693 -3.02229e-20)
(1.25944 -0.0264879 -7.02407e-20)
(1.24429 -0.0301404 6.40885e-20)
(1.22922 -0.0371744 1.86372e-20)
(-0.00445707 0.00471581 0)
(0.0982812 -0.00455463 7.74359e-22)
(0.30313 -0.00545453 1.20485e-19)
(0.577051 0.00572277 -1.10827e-19)
(0.861522 0.0264623 -9.84259e-20)
(1.10013 0.0486055 1.79462e-19)
(1.2667 0.0655805 -8.18379e-20)
(1.36414 0.0750977 1.05057e-19)
(1.40979 0.077932 -3.24561e-21)
(1.42296 0.0760327 -5.69383e-20)
(1.41869 0.0712747 1.20011e-19)
(1.40644 0.0649872 -1.74083e-19)
(1.39114 0.0579583 0)
(1.37496 0.0506098 -3.26586e-20)
(1.35868 0.0431696 -8.53758e-20)
(1.34255 0.0357749 2.67113e-20)
(1.32668 0.0285575 1.32366e-21)
(1.31107 0.0215833 -5.51525e-20)
(1.29578 0.0150069 4.39977e-21)
(1.28074 0.00879657 6.25282e-20)
(1.26603 0.00309436 -2.70412e-20)
(1.25164 -0.00204381 -9.68598e-21)
(1.23748 -0.0066952 3.08157e-20)
(1.22361 -0.0126743 0)
(0.0150579 -2.69585e-05 0)
(0.168755 -0.0103214 3.31251e-20)
(0.427698 -0.000967868 -1.56466e-19)
(0.734329 0.025007 5.60973e-20)
(1.01391 0.0565887 -5.196e-20)
(1.21973 0.0829559 -4.59786e-20)
(1.34507 0.0995466 -7.87429e-20)
(1.40675 0.106782 3.93993e-20)
(1.42736 0.10719 3.32179e-20)
(1.42562 0.103432 0)
(1.41361 0.0974554 7.06053e-20)
(1.39775 0.0904101 -1.0286e-19)
(1.3809 0.0828851 7.57194e-20)
(1.36412 0.075174 3.26729e-20)
(1.34774 0.0674442 -2.60132e-20)
(1.3318 0.0598201 -2.11266e-20)
(1.31625 0.0523836 -1.93309e-20)
(1.30108 0.0452326 5.83911e-20)
(1.28623 0.0383953 0)
(1.27174 0.0319694 2.79425e-20)
(1.25761 0.0259872 2.26293e-20)
(1.24382 0.0204627 -5.67111e-20)
(1.23037 0.0153724 -3.73114e-20)
(1.21729 0.0101157 3.4378e-20)
(0.0408084 -0.00335798 -3.8462e-20)
(0.252668 -0.00958146 -1.47798e-21)
(0.561312 0.0149212 3.19335e-20)
(0.88295 0.0558394 8.75423e-20)
(1.14093 0.0946709 2.42415e-20)
(1.30803 0.121599 -4.65329e-20)
(1.39566 0.135559 4.17884e-20)
(1.42929 0.139546 -3.5484e-20)
(1.43258 0.137285 6.16521e-20)
(1.42161 0.131669 2.54909e-20)
(1.40522 0.124451 -7.15838e-20)
(1.38744 0.116529 2.06916e-20)
(1.36978 0.108327 3.45627e-20)
(1.35266 0.100056 -1.68939e-20)
(1.33615 0.091845 0)
(1.3202 0.0837846 2.42108e-20)
(1.30479 0.0759555 4.01525e-20)
(1.28989 0.0684131 6.43114e-21)
(1.27551 0.0612344 -3.26774e-20)
(1.26161 0.05445 1.34082e-20)
(1.24818 0.0481094 0)
(1.23517 0.0422128 -1.01462e-20)
(1.22251 0.0365758 -9.30138e-21)
(1.21013 0.0315973 0)
(0.0726728 -0.00429246 0)
(0.346771 -0.000147506 1.86801e-20)
(0.694929 0.0429295 3.41885e-20)
(1.01417 0.096518 -8.90409e-20)
(1.24059 0.138556 2.83367e-20)
(1.36918 0.163128 0)
(1.42518 0.173023 3.9266e-20)
(1.43809 0.173307 -5.39109e-20)
(1.4299 0.168319 -3.06631e-20)
(1.41337 0.160818 1.36122e-20)
(1.39454 0.152241 -2.11165e-20)
(1.37573 0.143251 5.09539e-20)
(1.35763 0.134144 2.49555e-20)
(1.34037 0.125071 -1.73404e-20)
(1.32392 0.116136 -1.7761e-21)
(1.30821 0.107421 -4.55951e-20)
(1.29316 0.0989865 2.05263e-20)
(1.27872 0.0908932 -4.46308e-22)
(1.26484 0.0831814 0)
(1.2515 0.075898 -1.34214e-20)
(1.23865 0.069071 0)
(1.22623 0.0626349 2.92226e-20)
(1.21418 0.056661 -3.43295e-20)
(1.20244 0.0518327 1.54315e-20)
(0.109905 -0.00180652 -1.06484e-20)
(0.446156 0.0195421 -4.75307e-20)
(0.820072 0.082404 5.32014e-20)
(1.12333 0.145026 3.0186e-20)
(1.31413 0.186601 -1.43725e-20)
(1.40787 0.206713 2.26331e-20)
(1.43882 0.211727 -1.09706e-20)
(1.43702 0.208135 1.74856e-20)
(1.42146 0.200397 0)
(1.40166 0.190922 3.79135e-20)
(1.38146 0.180815 -1.64605e-21)
(1.36209 0.170544 -2.97517e-20)
(1.34379 0.160316 1.25428e-20)
(1.32651 0.150243 -1.39253e-20)
(1.31016 0.140411 -5.18291e-21)
(1.29464 0.130881 5.98796e-21)
(1.27988 0.121701 -4.56005e-21)
(1.26582 0.112911 -2.41955e-20)
(1.25243 0.104563 1.47282e-20)
(1.23968 0.0966853 2.97243e-21)
(1.22751 0.089276 2.57708e-21)
(1.21584 0.0823034 2.23365e-21)
(1.20457 0.075934 0)
(1.19354 0.0707251 0)
(0.151202 0.00503699 1.06613e-20)
(0.545117 0.0501541 -9.88864e-21)
(0.930464 0.131891 -1.77512e-20)
(1.20882 0.199511 0)
(1.36405 0.237649 -7.04642e-21)
(1.42807 0.251876 -6.08673e-21)
(1.43998 0.251564 -1.00409e-20)
(1.42812 0.244012 0)
(1.408 0.233441 0)
(1.38634 0.221819 0)
(1.36545 0.209953 0)
(1.34586 0.198166 0)
(1.32757 0.186592 -7.89549e-21)
(1.31046 0.175312 3.5633e-21)
(1.29439 0.164388 6.08586e-21)
(1.27927 0.153866 2.80434e-21)
(1.26501 0.143775 6.86571e-21)
(1.25152 0.134152 0)
(1.23876 0.125034 -1.59844e-21)
(1.22667 0.116431 -1.48579e-21)
(1.21519 0.108324 -2.58112e-21)
(1.20424 0.10071 -2.23715e-21)
(1.19371 0.0938944 0)
(1.18352 0.0881784 1.55245e-21)
(-0.000234495 0.131218 7.6233e-21)
(0.00314507 0.312124 -7.1858e-21)
(0.00314511 0.420994 -1.32585e-20)
(-0.00402481 0.475207 0)
(-0.0160412 0.497766 -1.72169e-20)
(-0.0295451 0.506368 5.3162e-21)
(-0.0419816 0.509968 -1.02405e-20)
(-0.0516383 0.510541 0)
(-0.057379 0.506448 0)
(-0.0584129 0.495041 0)
(-0.0541952 0.473972 0)
(-0.0444389 0.441663 0)
(-0.0291437 0.397445 7.91181e-23)
(-0.0087604 0.341554 -7.82924e-21)
(0.0158049 0.275011 1.56738e-20)
(0.0435856 0.199334 2.2641e-20)
(0.073438 0.116248 7.41311e-21)
(0.103985 0.0272078 0)
(0.13442 -0.0666638 6.35627e-21)
(0.164622 -0.16515 -1.79769e-20)
(0.194087 -0.269101 -1.11074e-20)
(0.226348 -0.377572 -1.00973e-20)
(0.254125 -0.491404 0)
(0.295645 -0.601478 0)
(-0.00598427 0.118833 -2.29445e-20)
(-0.00680683 0.297307 3.60816e-20)
(-0.00203218 0.414631 -1.35164e-20)
(-0.000612497 0.478629 -2.4861e-20)
(-0.002578 0.507467 3.45014e-20)
(-0.00549884 0.51791 -2.19927e-20)
(-0.0069281 0.519837 3.06266e-20)
(-0.00496356 0.516499 1.97188e-20)
(0.00166771 0.507198 0)
(0.013695 0.489856 -1.90838e-20)
(0.0314094 0.462519 -1.57332e-21)
(0.0547205 0.423987 1.65158e-20)
(0.0831904 0.373986 2.51174e-20)
(0.116059 0.313094 3.33491e-20)
(0.152255 0.242611 -1.44884e-20)
(0.190518 0.164322 -4.50772e-20)
(0.22948 0.0799226 1.50876e-20)
(0.268255 -0.00873704 -5.52223e-20)
(0.305982 -0.101229 0)
(0.343073 -0.197645 1.2026e-20)
(0.377983 -0.301534 1.10881e-20)
(0.418735 -0.409523 1.00798e-20)
(0.449545 -0.526202 0)
(0.501844 -0.636466 0)
(-0.0101133 0.101309 0)
(-0.0155069 0.269589 7.28726e-20)
(-0.00759265 0.391917 -2.69548e-20)
(0.00154803 0.465607 2.50994e-20)
(0.00951337 0.502146 -6.94813e-20)
(0.0174446 0.515906 0)
(0.0272849 0.517121 -4.19021e-20)
(0.0408695 0.510426 1.91991e-20)
(0.0595065 0.496453 -3.75554e-20)
(0.083862 0.47404 1.79369e-20)
(0.114021 0.441807 1.075e-19)
(0.149591 0.398946 -5.01272e-20)
(0.189793 0.345479 -8.52026e-20)
(0.233558 0.28222 -3.4735e-20)
(0.279582 0.210606 -2.27035e-21)
(0.326234 0.132379 1.21145e-19)
(0.372564 0.0496184 -5.73028e-20)
(0.41774 -0.0358444 4.8222e-22)
(0.460747 -0.125266 0)
(0.504213 -0.217796 -4.78757e-20)
(0.545624 -0.320819 0)
(0.597566 -0.426147 -3.9837e-20)
(0.634899 -0.543994 1.45259e-19)
(0.700451 -0.64839 -5.05527e-21)
(-0.0122486 0.0810068 0)
(-0.0220095 0.231855 -6.79401e-23)
(-0.0132825 0.353962 2.67645e-20)
(0.00142921 0.43547 -2.48981e-20)
(0.0180126 0.480347 2.28119e-20)
(0.0361247 0.499097 1.29636e-19)
(0.0567712 0.501247 -4.05082e-20)
(0.0813486 0.492463 -3.83646e-20)
(0.111006 0.474837 7.41677e-20)
(0.146311 0.448415 -1.09247e-19)
(0.187195 0.412617 3.29043e-20)
(0.233035 0.367111 3.29221e-20)
(0.282775 0.312169 0)
(0.335075 0.248748 3.20599e-20)
(0.388231 0.178183 0)
(0.44098 0.102578 5.74512e-20)
(0.492446 0.0234983 -1.13636e-19)
(0.542235 -0.0580117 2.55548e-20)
(0.590818 -0.145214 1.00299e-19)
(0.643092 -0.23573 4.78236e-20)
(0.696123 -0.340632 0)
(0.762482 -0.444016 -1.16959e-19)
(0.810038 -0.562103 3.79572e-20)
(0.883716 -0.65471 0)
(-0.0124745 0.0605831 0)
(-0.0258417 0.188709 -8.69425e-20)
(-0.0187953 0.304195 -2.62731e-20)
(-0.00165695 0.3894 -4.91722e-20)
(0.0209679 0.441505 4.55554e-20)
(0.047476 0.466242 -4.28865e-20)
(0.0776827 0.471216 8.06931e-20)
(0.112154 0.462273 4.0083e-20)
(0.151565 0.442658 -1.07792e-19)
(0.196223 0.413672 7.04059e-20)
(0.245871 0.37571 -1.00872e-19)
(0.299688 0.329053 2.24468e-19)
(0.356432 0.274325 -1.22273e-19)
(0.414486 0.212475 5.86847e-20)
(0.472416 0.145078 1.75014e-19)
(0.529609 0.0740316 -5.4162e-20)
(0.58572 -0.00101824 -4.96793e-20)
(0.642696 -0.0793615 -5.14089e-20)
(0.703073 -0.16618 0)
(0.771851 -0.256622 -8.87349e-20)
(0.844183 -0.362855 -7.87002e-20)
(0.925873 -0.459959 1.15244e-19)
(0.982583 -0.57008 1.27907e-19)
(1.05209 -0.639677 -1.16613e-19)
(-0.0113198 0.0423678 0)
(-0.0272373 0.145463 -1.14414e-19)
(-0.023921 0.248187 8.56954e-22)
(-0.00780106 0.331185 9.73407e-20)
(0.0173381 0.387031 0)
(0.049279 0.416917 0)
(0.0867636 0.425716 0)
(0.129325 0.418479 -3.79297e-20)
(0.176852 0.398905 -1.6493e-21)
(0.22913 0.369238 6.51281e-20)
(0.285564 0.330798 -9.98009e-20)
(0.345154 0.284576 -2.14822e-21)
(0.406564 0.231422 0)
(0.468724 0.172734 -5.8662e-20)
(0.531409 0.109651 5.50889e-20)
(0.59535 0.0424736 -1.55387e-19)
(0.662644 -0.0304209 2.03182e-19)
(0.737233 -0.108442 4.81577e-20)
(0.820597 -0.196675 1.65238e-22)
(0.913158 -0.286803 -1.67843e-19)
(1.00451 -0.388731 -7.28934e-20)
(1.09117 -0.472406 2.31782e-19)
(1.14348 -0.564576 -1.47856e-19)
(1.1881 -0.605159 0)
(-0.00963799 0.0279559 6.01075e-20)
(-0.0272178 0.106888 5.7164e-20)
(-0.0288481 0.1925 -5.18507e-20)
(-0.0166 0.267069 -9.52206e-20)
(0.00742472 0.321318 8.82144e-20)
(0.0411491 0.353183 -8.09528e-20)
(0.0826772 0.364832 1.12101e-19)
(0.130618 0.359898 -3.75045e-20)
(0.183974 0.341813 6.56215e-20)
(0.241867 0.313224 0)
(0.303399 0.276078 6.0266e-20)
(0.36762 0.231799 -1.1023e-19)
(0.434257 0.181767 1.13227e-19)
(0.504167 0.12689 -1.05392e-19)
(0.579027 0.0668016 0)
(0.661828 0.0010187 9.96637e-20)
(0.755053 -0.0717576 1.88473e-19)
(0.859385 -0.150025 -1.78501e-19)
(0.969686 -0.23572 -8.05953e-20)
(1.07898 -0.318256 -7.80943e-20)
(1.17124 -0.40439 2.14424e-19)
(1.24057 -0.465472 5.32939e-20)
(1.26686 -0.531686 -5.40535e-20)
(1.2716 -0.54363 4.16945e-20)
(-0.00844275 0.0181191 -6.01228e-20)
(-0.0274136 0.0762561 1.67968e-19)
(-0.0343535 0.14298 -5.17587e-20)
(-0.0275494 0.204256 9.38758e-20)
(-0.00727507 0.251314 -8.69698e-20)
(0.0250295 0.280554 -3.65497e-22)
(0.0673539 0.292181 3.62163e-20)
(0.11779 0.288397 1.33958e-19)
(0.1748 0.271972 1.57034e-21)
(0.237329 0.245456 -5.99311e-20)
(0.305 0.210906 0)
(0.378572 0.169892 -5.51382e-20)
(0.459831 0.123216 1.03586e-19)
(0.551294 0.0706618 1.03407e-19)
(0.655328 0.0120326 -4.85419e-20)
(0.772221 -0.052553 -2.78677e-21)
(0.898592 -0.122387 -4.6047e-20)
(1.02714 -0.194695 8.02675e-20)
(1.14607 -0.268001 8.06021e-20)
(1.24473 -0.333136 -7.35917e-20)
(1.30876 -0.394903 5.8907e-20)
(1.33927 -0.431354 -5.129e-20)
(1.32756 -0.472814 0)
(1.29885 -0.467835 -4.17317e-20)
(-0.00873159 0.0129564 5.90532e-20)
(-0.0295861 0.0550324 -5.6003e-20)
(-0.0414758 0.103479 5.10171e-20)
(-0.0400869 0.148952 0)
(-0.0242806 0.184682 0)
(0.00532092 0.207042 7.66682e-20)
(0.0471801 0.215294 -7.19721e-20)
(0.0997658 0.210623 6.54131e-20)
(0.162192 0.195066 -3.07834e-19)
(0.234715 0.17062 -1.24561e-21)
(0.318846 0.138847 5.44159e-20)
(0.416832 0.100707 0)
(0.530533 0.0565472 -1.02727e-19)
(0.659712 0.00676302 1.94151e-19)
(0.800906 -0.0477043 -1.39515e-19)
(0.946743 -0.105727 -2.2319e-19)
(1.08698 -0.164773 -1.77528e-22)
(1.2094 -0.222541 1.47759e-19)
(1.30294 -0.275746 0)
(1.3607 -0.319978 0)
(1.37917 -0.357918 -5.8939e-20)
(1.36919 -0.376609 5.13205e-20)
(1.33146 -0.403503 -1.5794e-19)
(1.29268 -0.39265 1.47303e-19)
(-0.0112176 0.0120412 0)
(-0.0348042 0.0430626 0)
(-0.0503991 0.0755702 -1.52301e-19)
(-0.0524192 0.105212 4.78679e-20)
(-0.0388384 0.127922 1.35801e-21)
(-0.00921984 0.140995 7.79068e-20)
(0.0362983 0.14359 0)
(0.0979507 0.136319 -6.53315e-20)
(0.176833 0.120401 6.11316e-20)
(0.274648 0.0971076 -1.1425e-19)
(0.392712 0.067544 -1.36847e-21)
(0.53034 0.0326003 1.03995e-19)
(0.683515 -0.00679475 2.46581e-21)
(0.844536 -0.0495539 9.61983e-20)
(1.00276 -0.0941759 -1.32405e-19)
(1.14603 -0.139267 0)
(1.26315 -0.182366 1.52376e-19)
(1.34533 -0.222537 -2.15715e-19)
(1.39004 -0.256425 6.02409e-20)
(1.39969 -0.284633 0)
(1.38345 -0.306793 4.69997e-20)
(1.35433 -0.318875 1.662e-19)
(1.31537 -0.339871 -1.55215e-19)
(1.28342 -0.329546 -1.50462e-19)
(-0.0159366 0.0143649 1.7531e-19)
(-0.0424945 0.0388424 -2.21393e-19)
(-0.0589382 0.0587572 9.10652e-22)
(-0.0596603 0.0745776 4.71939e-20)
(-0.0417852 0.0849955 -8.5526e-20)
(-0.00336634 0.0885824 -7.76421e-20)
(0.0575937 0.0848424 1.41636e-19)
(0.143176 0.0740496 -1.06575e-21)
(0.254885 0.057064 -1.21483e-19)
(0.392205 0.0349923 2.28207e-19)
(0.550975 0.00890251 1.85786e-21)
(0.722963 -0.0201566 -1.00307e-19)
(0.896647 -0.0511591 0)
(1.05898 -0.0831231 0)
(1.19758 -0.115051 -4.31679e-20)
(1.30303 -0.145991 -7.50553e-20)
(1.37078 -0.174631 -1.39716e-19)
(1.40203 -0.200751 1.30265e-19)
(1.4044 -0.222191 -6.03133e-20)
(1.38706 -0.242189 9.84732e-20)
(1.36189 -0.256219 -5.27415e-20)
(1.33335 -0.269691 6.97074e-20)
(1.30353 -0.284362 -1.72379e-19)
(1.27746 -0.277375 3.03733e-20)
(-0.0219441 0.0182842 5.87023e-20)
(-0.050264 0.0395599 0)
(-0.062682 0.0505886 1.02111e-19)
(-0.0544913 0.0557982 -9.45498e-20)
(-0.0219938 0.0562014 8.56387e-20)
(0.0383262 0.0516606 0)
(0.129585 0.0422325 0)
(0.25309 0.0285068 -6.66132e-20)
(0.406322 0.0115398 1.15479e-23)
(0.58168 -0.00761001 5.72664e-20)
(0.766875 -0.0280285 -5.37615e-20)
(0.947049 -0.0490702 9.97559e-20)
(1.10764 -0.0703605 0)
(1.23711 -0.0916572 1.72001e-19)
(1.32897 -0.11268 -3.17656e-19)
(1.38286 -0.133008 2.21881e-19)
(1.40423 -0.152149 1.28572e-19)
(1.4024 -0.169952 -1.1988e-19)
(1.38743 -0.185533 0)
(1.36603 -0.201182 0)
(1.34335 -0.211128 0)
(1.31671 -0.226651 0)
(1.29151 -0.231054 3.21472e-20)
(1.26521 -0.235207 -1.01431e-19)
(0.328464 -0.71669 -4.47158e-21)
(0.362742 -0.815808 4.50471e-21)
(0.392609 -0.867511 -1.07785e-22)
(0.415002 -0.872539 0)
(0.428522 -0.846488 -2.17888e-21)
(0.421454 -0.820801 4.06797e-21)
(0.386589 -0.816496 -3.20743e-23)
(0.344123 -0.811364 -1.80981e-21)
(0.330767 -0.74969 0)
(0.366741 -0.593688 0)
(0.439626 -0.35533 -1.34426e-22)
(0.523848 -0.0711252 -1.39922e-22)
(0.604792 0.220227 -2.28393e-21)
(0.675107 0.469351 2.0881e-21)
(0.729439 0.632775 0)
(0.768373 0.703555 0)
(0.790409 0.714187 8.63315e-22)
(0.797289 0.697524 -1.05733e-22)
(0.80099 0.667434 -6.7e-22)
(0.802163 0.65023 -4.08916e-23)
(0.788061 0.67916 0)
(0.753856 0.733753 0)
(0.714422 0.728615 0)
(0.690564 0.585925 0)
(0.690293 0.30807 0)
(0.709846 -0.0270516 0)
(0.740732 -0.320748 3.88751e-22)
(0.768936 -0.508876 -6.50947e-22)
(0.795449 -0.582009 0)
(0.81905 -0.587888 0)
(0.826153 -0.592989 -1.94883e-22)
(0.801913 -0.615611 1.89365e-22)
(0.748201 -0.623245 8.74711e-23)
(0.679739 -0.563843 0)
(0.626806 -0.402649 0)
(0.605489 -0.156393 2.8384e-22)
(0.620105 0.108106 -2.7587e-22)
(0.661254 0.310213 0)
(0.714909 0.426107 1.44856e-22)
(0.733391 0.491766 -2.01205e-22)
(0.70434 0.532316 5.5621e-23)
(0.650233 0.518455 0)
(0.613374 0.398908 -1.39226e-22)
(0.607531 0.193462 1.35376e-22)
(0.64547 -0.0334723 0)
(0.680772 -0.219611 0)
(0.689912 -0.359159 -3.93132e-23)
(0.666394 -0.451153 1.08576e-22)
(0.652534 -0.42493 0)
(0.644045 -0.302898 0)
(0.654949 -0.0767039 -2.54545e-23)
(0.647907 0.169894 5.09196e-24)
(0.64015 0.344289 -1.9233e-24)
(0.6246 0.441373 1.80821e-23)
(0.631106 0.297869 0)
(0.613682 0.0739283 0)
(0.594835 -0.168241 0)
(0.557273 -0.408576 0)
(0.562428 -0.204701 0)
(0.523324 0.0355865 0)
(0.524011 -0.752592 -4.78791e-22)
(0.541366 -0.850195 -1.58866e-20)
(0.547301 -0.896471 2.70796e-21)
(0.538492 -0.896219 1.22834e-20)
(0.524397 -0.856744 1.39638e-22)
(0.504888 -0.800259 0)
(0.463682 -0.765789 -6.69136e-21)
(0.399706 -0.760082 1.33322e-20)
(0.342561 -0.733344 -6.63682e-21)
(0.326029 -0.62411 7.78047e-21)
(0.357021 -0.416918 -7.42079e-21)
(0.419578 -0.144928 8.25172e-21)
(0.496077 0.144198 -7.9743e-21)
(0.573031 0.399635 -2.02776e-22)
(0.64307 0.577251 -5.11876e-21)
(0.701788 0.667726 4.97105e-21)
(0.742531 0.696925 -3.23475e-21)
(0.767242 0.690453 3.05571e-21)
(0.786908 0.664507 -2.702e-21)
(0.801125 0.653439 5.38073e-21)
(0.799103 0.692209 -2.67686e-21)
(0.77877 0.755194 -2.06235e-22)
(0.755556 0.751836 -4.71109e-21)
(0.74713 0.60287 1.01864e-20)
(0.757018 0.312623 -5.44964e-21)
(0.779187 -0.0353978 3.75105e-22)
(0.80596 -0.336739 4.82403e-21)
(0.824453 -0.526325 -8.94877e-22)
(0.835911 -0.596748 -5.96124e-21)
(0.843172 -0.594699 4.35929e-21)
(0.837346 -0.586885 -1.83407e-21)
(0.803317 -0.595754 1.63128e-22)
(0.741389 -0.594194 -8.76527e-23)
(0.664626 -0.535481 1.71979e-22)
(0.603871 -0.385697 0)
(0.578737 -0.156838 0)
(0.597046 0.0911901 -8.26208e-22)
(0.646876 0.286879 6.37224e-22)
(0.706764 0.410496 3.91583e-22)
(0.729153 0.492405 1.65851e-23)
(0.705491 0.545925 -5.06109e-22)
(0.657033 0.535111 1.32976e-22)
(0.622073 0.408809 0)
(0.615612 0.190273 0)
(0.654546 -0.044973 0)
(0.693493 -0.227554 0)
(0.703473 -0.35771 1.96402e-22)
(0.675251 -0.446133 -7.04105e-23)
(0.656875 -0.422124 0)
(0.645418 -0.303263 0)
(0.653729 -0.077762 0)
(0.646428 0.17052 -2.91722e-23)
(0.642096 0.346068 7.71017e-24)
(0.631197 0.442193 -3.65904e-23)
(0.639722 0.300442 0)
(0.622465 0.0774525 0)
(0.600771 -0.161255 2.86755e-23)
(0.553842 -0.405794 6.9536e-23)
(0.563677 -0.202322 0)
(0.532655 0.0386366 0)
(0.711468 -0.759659 -5.30019e-21)
(0.713621 -0.847712 -3.70548e-20)
(0.702289 -0.880712 2.56509e-20)
(0.669013 -0.874025 -2.39921e-20)
(0.624137 -0.839346 -1.4063e-22)
(0.582402 -0.778283 0)
(0.535017 -0.718654 -1.21439e-20)
(0.464105 -0.695106 1.18568e-20)
(0.38064 -0.686705 9.65907e-23)
(0.320263 -0.624817 1.6318e-22)
(0.307489 -0.463722 1.77316e-22)
(0.339064 -0.218533 2.39985e-22)
(0.401786 0.0593008 -1.29197e-20)
(0.480781 0.315632 1.27501e-20)
(0.563413 0.505581 0)
(0.638556 0.616363 2.18947e-22)
(0.696345 0.66583 -5.78567e-21)
(0.738546 0.672138 5.70493e-21)
(0.77423 0.652694 0)
(0.802358 0.647712 0)
(0.813886 0.694886 -6.35426e-21)
(0.808606 0.766507 1.40867e-20)
(0.801646 0.768475 -1.71387e-20)
(0.808526 0.619578 -1.85961e-21)
(0.828889 0.324874 2.33152e-20)
(0.853149 -0.0295997 -2.41731e-20)
(0.874574 -0.337109 2.04815e-20)
(0.882981 -0.529994 -2.68932e-21)
(0.879946 -0.600937 -7.12706e-21)
(0.871245 -0.594984 0)
(0.85311 -0.576961 0)
(0.811309 -0.573347 9.03641e-22)
(0.743334 -0.564337 -1.18296e-21)
(0.65926 -0.508464 -3.27318e-23)
(0.591546 -0.371844 1.57136e-21)
(0.562605 -0.161239 -1.52691e-21)
(0.583443 0.0700495 0)
(0.639573 0.259964 1.66486e-22)
(0.703856 0.392461 1.04986e-21)
(0.730773 0.491593 -1.97792e-21)
(0.714021 0.558992 8.60018e-22)
(0.671527 0.552613 1.51579e-22)
(0.638894 0.42107 -1.84451e-21)
(0.631637 0.190187 1.43788e-21)
(0.669166 -0.0543979 3.68949e-22)
(0.710487 -0.23449 2.90245e-22)
(0.721602 -0.354778 -1.96922e-22)
(0.688262 -0.439809 0)
(0.664429 -0.419391 0)
(0.649569 -0.304205 -2.86699e-22)
(0.655847 -0.0800416 1.39819e-22)
(0.648805 0.170325 -8.64193e-23)
(0.647779 0.34659 1.5998e-22)
(0.640972 0.442509 3.28623e-22)
(0.651474 0.303545 -6.21931e-23)
(0.634814 0.0816847 1.9938e-22)
(0.611353 -0.152425 -1.65968e-22)
(0.554568 -0.402302 8.86407e-23)
(0.56868 -0.202005 0)
(0.545593 0.0411397 0)
(0.879003 -0.757226 -7.23771e-20)
(0.862433 -0.831928 1.13465e-20)
(0.832058 -0.850766 5.75228e-20)
(0.7818 -0.830407 -3.38361e-22)
(0.717342 -0.794385 0)
(0.654187 -0.743567 0)
(0.600118 -0.676265 -2.13439e-20)
(0.534535 -0.626777 1.40354e-21)
(0.443994 -0.613683 2.77753e-20)
(0.352526 -0.589193 5.08536e-22)
(0.297601 -0.485211 -9.51026e-21)
(0.293553 -0.285118 -1.04377e-20)
(0.334812 -0.0303455 1.04047e-20)
(0.407599 0.219735 0)
(0.494718 0.419077 -7.2579e-21)
(0.579966 0.549605 6.65237e-21)
(0.651483 0.619936 0)
(0.709542 0.640707 0)
(0.760319 0.629229 4.46774e-21)
(0.802329 0.62933 5.99696e-22)
(0.828158 0.682251 -4.62641e-21)
(0.838218 0.762085 -7.60972e-21)
(0.846888 0.774343 7.68295e-21)
(0.868139 0.635309 -1.18559e-20)
(0.898756 0.345405 -8.61907e-22)
(0.927013 -0.0123364 1.20766e-20)
(0.94497 -0.327536 1.37762e-21)
(0.94421 -0.524922 -1.86545e-24)
(0.92751 -0.597217 0)
(0.903218 -0.589556 3.71647e-21)
(0.872994 -0.564614 -3.79545e-21)
(0.82425 -0.550082 1.51177e-22)
(0.752572 -0.532979 0)
(0.663157 -0.48018 -1.41129e-22)
(0.589186 -0.35894 2.48739e-21)
(0.556295 -0.168949 -4.62277e-21)
(0.578031 0.0451931 -5.07349e-24)
(0.637969 0.230163 3.22156e-22)
(0.705916 0.371706 1.55412e-21)
(0.738279 0.486724 2.01094e-22)
(0.728513 0.568484 -2.08726e-21)
(0.6923 0.569419 1.74158e-21)
(0.664011 0.435585 -3.35425e-23)
(0.656601 0.193617 1.67172e-21)
(0.690102 -0.0616926 -1.99535e-21)
(0.731731 -0.241145 -1.99363e-21)
(0.744042 -0.350965 5.84903e-22)
(0.705344 -0.431773 4.92351e-22)
(0.675166 -0.415959 -7.97924e-22)
(0.656331 -0.305461 4.53815e-22)
(0.66121 -0.0836768 -9.05755e-23)
(0.654826 0.169007 7.35532e-23)
(0.656874 0.345947 5.37894e-23)
(0.653645 0.442429 -4.90773e-22)
(0.666096 0.307238 -3.04479e-23)
(0.650412 0.0863256 -2.59575e-22)
(0.626529 -0.141995 0)
(0.559643 -0.397899 -8.66146e-23)
(0.57709 -0.203628 -5.60293e-23)
(0.56185 0.0429992 0)
(1.02695 -0.723841 6.70717e-20)
(0.988574 -0.779128 -1.20916e-19)
(0.936282 -0.791288 5.35053e-20)
(0.868301 -0.770384 3.58263e-20)
(0.794851 -0.732851 -6.33994e-20)
(0.718998 -0.693064 5.00824e-21)
(0.652472 -0.639167 2.22377e-20)
(0.594328 -0.576169 1.57643e-20)
(0.517716 -0.540488 -1.54334e-20)
(0.417823 -0.527705 0)
(0.329774 -0.475249 -1.45287e-20)
(0.288291 -0.33336 2.91342e-20)
(0.300939 -0.116586 -1.46839e-20)
(0.358178 0.117496 0)
(0.441118 0.32164 0)
(0.529328 0.469916 1.76106e-22)
(0.609809 0.560937 -7.51726e-21)
(0.680643 0.597775 7.29793e-21)
(0.744728 0.595878 0)
(0.799204 0.600396 8.80332e-21)
(0.837553 0.65686 -1.88714e-20)
(0.862063 0.74408 2.38034e-20)
(0.887201 0.768966 -3.14162e-20)
(0.922728 0.647324 -4.78178e-21)
(0.962174 0.372354 4.69293e-20)
(0.995035 0.0179748 -2.4902e-20)
(1.01244 -0.3037 -6.97475e-22)
(1.00509 -0.507468 -6.9652e-21)
(0.976523 -0.583805 2.04584e-21)
(0.93768 -0.577103 5.09339e-21)
(0.896354 -0.548593 1.87675e-22)
(0.842159 -0.526833 -1.87705e-21)
(0.768901 -0.502924 3.42368e-21)
(0.675973 -0.452466 -1.72076e-21)
(0.595962 -0.346789 0)
(0.558215 -0.178647 -2.17956e-21)
(0.57915 0.0174548 2.10101e-21)
(0.640887 0.196678 -1.21567e-21)
(0.711943 0.34649 1.50856e-21)
(0.75033 0.478358 -1.44135e-22)
(0.749133 0.575878 0)
(0.721038 0.585155 -3.07954e-22)
(0.698357 0.451882 1.2647e-21)
(0.691091 0.200968 0)
(0.717938 -0.0656328 4.03281e-21)
(0.756985 -0.246745 -1.70213e-21)
(0.770384 -0.346021 4.52433e-22)
(0.726355 -0.421815 3.00402e-22)
(0.688936 -0.411618 0)
(0.665464 -0.307006 0)
(0.669558 -0.0887736 -1.25926e-22)
(0.664174 0.166313 1.73978e-22)
(0.669115 0.343909 -1.47478e-22)
(0.668958 0.441683 3.62227e-23)
(0.68323 0.311278 3.95387e-22)
(0.668864 0.0911109 2.59855e-22)
(0.646135 -0.130126 -5.12438e-22)
(0.569259 -0.392352 0)
(0.588527 -0.20699 3.20541e-23)
(0.581119 0.0441492 4.67591e-23)
(1.13936 -0.672118 6.09925e-20)
(1.08207 -0.708139 -6.0315e-20)
(1.0175 -0.711887 3.74266e-22)
(0.938216 -0.698044 -2.76253e-22)
(0.859663 -0.66739 2.38197e-22)
(0.784014 -0.631828 -1.8848e-22)
(0.708735 -0.593819 2.70142e-22)
(0.644989 -0.538035 0)
(0.58429 -0.481824 -1.65297e-22)
(0.500286 -0.454976 1.33631e-22)
(0.399879 -0.432086 1.1636e-22)
(0.323841 -0.350715 -1.89532e-22)
(0.300911 -0.18746 0)
(0.333282 0.0201436 0)
(0.402874 0.219317 9.16391e-23)
(0.48685 0.379741 0)
(0.571805 0.489174 -6.11943e-23)
(0.652733 0.542726 0)
(0.72842 0.552061 -5.51814e-21)
(0.793439 0.561211 1.22485e-20)
(0.842032 0.618895 -1.55335e-20)
(0.878804 0.71134 8.69742e-21)
(0.917362 0.751594 1.57449e-20)
(0.964369 0.653621 -1.52821e-20)
(1.01311 0.400686 -2.36436e-20)
(1.05354 0.0557097 2.30257e-20)
(1.07443 -0.269297 0)
(1.06369 -0.480604 5.1501e-22)
(1.02591 -0.562946 0)
(0.974328 -0.559226 0)
(0.922103 -0.529539 4.36007e-21)
(0.862975 -0.503247 -4.55276e-21)
(0.790381 -0.473801 1.47257e-22)
(0.696676 -0.42451 1.68303e-22)
(0.611107 -0.333722 -1.29099e-22)
(0.566827 -0.188591 -1.39009e-21)
(0.584866 -0.0118165 1.34959e-21)
(0.646754 0.160206 -1.13098e-21)
(0.720941 0.317243 9.45966e-22)
(0.766279 0.463267 2.57204e-22)
(0.773647 0.576226 -2.05828e-21)
(0.753855 0.598618 -1.38308e-21)
(0.739146 0.470167 2.11716e-21)
(0.734081 0.213201 0)
(0.752761 -0.0651295 -1.90146e-21)
(0.785937 -0.251038 1.75147e-21)
(0.800026 -0.340268 -2.37717e-21)
(0.751114 -0.409759 -3.0241e-22)
(0.705582 -0.405891 0)
(0.676645 -0.308602 1.12696e-23)
(0.680554 -0.0954599 -6.44491e-23)
(0.676456 0.162015 -3.54609e-23)
(0.684104 0.340726 -7.95173e-24)
(0.686539 0.440667 4.15514e-22)
(0.702506 0.315733 -4.11852e-22)
(0.689737 0.0959868 0)
(0.669806 -0.11707 5.1274e-22)
(0.583565 -0.385488 0)
(0.602626 -0.211865 0)
(0.603053 0.0445668 -5.17655e-23)
(1.2038 -0.596418 -5.53451e-20)
(1.13391 -0.62396 5.43521e-20)
(1.06622 -0.625949 -3.16208e-22)
(0.989335 -0.618602 2.8322e-22)
(0.911482 -0.601691 0)