/*--------------------------------*- C++ -*----------------------------------*\
| =========                 |                                                 |
| \\      /  F ield         | OpenFOAM: The Open Source CFD Toolbox           |
|  \\    /   O peration     | Version:  2312                                  |
|   \\  /    A nd           | Website:  www.openfoam.com                      |
|    \\/     M anipulation  |                                                 |
\*---------------------------------------------------------------------------*/
FoamFile
{
    version     2.0;
    format      ascii;
    arch        "LSB;label=32;scalar=64";
    class       volScalarField;
    location    "22.45";
    object      p;
}
// * * * * * * * * * * * * * * * * * * * * * * * * * * * * * * * * * * * * * //

dimensions      [0 2 -2 0 0 0 0];

internalField   nonuniform List<scalar> 
5478
(
-0.254086
-0.25237
-0.249139
-0.245543
-0.242808
-0.24173
-0.242525
-0.244892
-0.248368
-0.252117
-0.256034
-0.258483
-0.260363
-0.258594
-0.253947
-0.257475
-0.255464
-0.251679
-0.247249
-0.24313
-0.239964
-0.237991
-0.237186
-0.23706
-0.237158
-0.236593
-0.234965
-0.23186
-0.226742
-0.221188
-0.264454
-0.261234
-0.256577
-0.25091
-0.244866
-0.238949
-0.233681
-0.229184
-0.225215
-0.221228
-0.216912
-0.21209
-0.206728
-0.200886
-0.194978
-0.274981
-0.269726
-0.26332
-0.255661
-0.246774
-0.237404
-0.228404
-0.22012
-0.212441
-0.205281
-0.198425
-0.191771
-0.185046
-0.178218
-0.17158
-0.289342
-0.281105
-0.272227
-0.2614
-0.248368
-0.234705
-0.22172
-0.209879
-0.199251
-0.189634
-0.18081
-0.172567
-0.164637
-0.157177
-0.150084
-0.30805
-0.295412
-0.283299
-0.267391
-0.248653
-0.230045
-0.213069
-0.198062
-0.184859
-0.173216
-0.162855
-0.153513
-0.144976
-0.137218
-0.129678
-0.330054
-0.312001
-0.294404
-0.271092
-0.245644
-0.221954
-0.201239
-0.18344
-0.168174
-0.15501
-0.143573
-0.133547
-0.124709
-0.116853
-0.109488
-0.351011
-0.328371
-0.301634
-0.269126
-0.236951
-0.208671
-0.184787
-0.164789
-0.147989
-0.133799
-0.121742
-0.111484
-0.102779
-0.0953567
-0.0888193
-0.226064
-0.232384
-0.23859
-0.24759
-0.259298
-0.273087
-0.288464
-0.304977
-0.322215
-0.339764
-0.357166
-0.373988
-0.390247
-0.405906
-0.420789
-0.226798
-0.232631
-0.238585
-0.247124
-0.258106
-0.270903
-0.28503
-0.300072
-0.315691
-0.331599
-0.347493
-0.363029
-0.377742
-0.392072
-0.406737
-0.233384
-0.237784
-0.243033
-0.250818
-0.260886
-0.272613
-0.285528
-0.29925
-0.313486
-0.328019
-0.342691
-0.357456
-0.371722
-0.38578
-0.399209
-0.241838
-0.244233
-0.248345
-0.254961
-0.263721
-0.274037
-0.285463
-0.297657
-0.310393
-0.323529
-0.336422
-0.35118
-0.362915
-0.379684
-0.388938
-0.248766
-0.249119
-0.251709
-0.256583
-0.263443
-0.271829
-0.28136
-0.291737
-0.302635
-0.314625
-0.325352
-0.33987
-0.349206
-0.365929
-0.375165
-0.252672
-0.251485
-0.25227
-0.254821
-0.259118
-0.265014
-0.272261
-0.2807
-0.289414
-0.300377
-0.30895
-0.323436
-0.331849
-0.346747
-0.356054
-0.253794
-0.251862
-0.250859
-0.250781
-0.25209
-0.255079
-0.259682
-0.266054
-0.273592
-0.283105
-0.291598
-0.302796
-0.311938
-0.323769
-0.333748
-0.253557
-0.251601
-0.249211
-0.246881
-0.245643
-0.246264
-0.249116
-0.253859
-0.260043
-0.266819
-0.274172
-0.280918
-0.287742
-0.294421
-0.301824
-0.440128
-0.447629
-0.436516
-0.401118
-0.343081
-0.263341
-0.162799
-0.0521598
0.039037
0.0918024
0.107
0.100979
0.0864836
0.0712027
0.0577221
0.0471865
0.0382338
0.0317234
0.025831
0.0217454
0.0181718
0.0152857
0.0133364
0.0112429
0.00971599
0.00851991
0.00723794
0.00635066
0.00571538
0.00488416
0.00433324
0.0040297
0.00344715
0.00295232
0.00243275
0.00235557
0.00206702
0.000649437
-0.430037
-0.438794
-0.429766
-0.397883
-0.344829
-0.27202
-0.17334
-0.059945
0.0361499
0.0923605
0.109386
0.103151
0.0886155
0.072796
0.0593038
0.0481409
0.0392338
0.0322721
0.0263822
0.0221195
0.0184385
0.0155721
0.0135018
0.0113962
0.00986557
0.00859426
0.00730269
0.00644301
0.00574318
0.00490269
0.00440383
0.0040467
0.00344046
0.00296626
0.00248456
0.00235356
0.00200947
0.000671384
-0.427302
-0.438431
-0.433845
-0.406791
-0.359525
-0.29506
-0.200966
-0.0842334
0.0204033
0.0835784
0.105534
0.10222
0.0892522
0.0736042
0.0602686
0.048885
0.0401369
0.0326824
0.0269638
0.0223985
0.0186935
0.0158604
0.0136053
0.0115701
0.0100031
0.00866173
0.00737604
0.00653314
0.00577278
0.0049246
0.00447314
0.00406448
0.00343654
0.00298098
0.00253513
0.00235033
0.00195651
0.000693687
-0.41995
-0.435865
-0.436301
-0.415971
-0.373288
-0.315575
-0.228994
-0.113646
-0.00504125
0.0652533
0.0939411
0.095593
0.0858447
0.0719429
0.0595451
0.0485342
0.0403119
0.0328218
0.0273375
0.0225695
0.0189017
0.0160909
0.0136738
0.0117371
0.0101239
0.00872673
0.00745445
0.0066181
0.00580622
0.00495154
0.00453794
0.00408374
0.0034379
0.00299666
0.00258167
0.00234527
0.00191241
0.000715661
-0.399689
-0.424982
-0.432654
-0.420194
-0.385881
-0.334653
-0.25736
-0.146421
-0.0357517
0.0401716
0.0760572
0.0840477
0.0799238
0.0693092
0.0588486
0.0487209
0.0402737
0.0329898
0.0275557
0.0227269
0.019068
0.0162463
0.0137412
0.0118663
0.0102269
0.00879085
0.00753035
0.00669607
0.00584368
0.0049831
0.00459575
0.00410492
0.00344542
0.00301293
0.00262198
0.00233802
0.00188114
0.000736218
-0.371186
-0.401759
-0.416563
-0.410888
-0.38333
-0.33836
-0.271328
-0.173929
-0.0671933
0.0112886
0.0543148
0.0700178
0.0708471
0.0640281
0.0554861
0.0467922
0.0394941
0.0328419
0.0275561
0.0228805
0.0192304
0.0163771
0.0138611
0.0119742
0.0103271
0.00886797
0.00760513
0.00676689
0.0058876
0.00502117
0.00464427
0.00412773
0.00346048
0.00303024
0.00265369
0.00232799
0.00186634
0.000754061
-0.34505
-0.373693
-0.395168
-0.399523
-0.380699
-0.340514
-0.278899
-0.192944
-0.0941561
-0.0140012
0.0352914
0.0565297
0.063454
0.0604217
0.0541934
0.0460875
0.0390912
0.0327207
0.0275161
0.0229424
0.0192916
0.0164467
0.013927
0.0120448
0.0104007
0.00893116
0.00767812
0.00682533
0.00592992
0.00506784
0.00468358
0.00414915
0.00348319
0.00305068
0.00267555
0.00231218
0.00187155
0.000768261
-0.314038
-0.335826
-0.35356
-0.360859
-0.352829
-0.325561
-0.277362
-0.207774
-0.124514
-0.0497167
0.00578899
0.0368532
0.0507521
0.0527078
0.0496164
0.043916
0.0381233
0.0324179
0.0274787
0.0231695
0.019503
0.0166262
0.0141433
0.0121493
0.0105207
0.00904091
0.00775312
0.00689446
0.00598511
0.00511832
0.00471387
0.00417711
0.00351404
0.00306953
0.00268828
0.00229229
0.00189856
0.000777338
-0.278273
-0.304165
-0.316881
-0.322475
-0.316797
-0.293125
-0.251904
-0.192936
-0.121916
-0.0548541
-0.00385978
0.0264429
0.0422667
0.0473662
0.046738
0.0421056
0.0372886
0.0317327
0.0270237
0.0227523
0.0193124
0.0164903
0.0139948
0.0121854
0.0104552
0.00904915
0.00785775
0.00685913
0.0060335
0.00522358
0.00469131
0.00418252
0.00359119
0.00311035
0.0026561
0.00227169
0.00196178
0.000783825
-0.231321
-0.258886
-0.268028
-0.265114
-0.253859
-0.233989
-0.201529
-0.155544
-0.102611
-0.0528809
-0.0125437
0.0142001
0.0289136
0.0349899
0.0360003
0.034179
0.0310575
0.0278273
0.0245665
0.0213019
0.0182807
0.0158324
0.0135998
0.0118529
0.010258
0.008944
0.00777628
0.00680066
0.00603889
0.00521964
0.00466032
0.00420681
0.00361425
0.00311381
0.00262663
0.00228613
0.00199482
0.000770966
-0.191577
-0.216731
-0.225278
-0.222541
-0.213324
-0.197081
-0.172634
-0.139781
-0.100647
-0.0601914
-0.0245906
0.00150142
0.0174532
0.0260911
0.0300612
0.0304169
0.029118
0.0260717
0.0229601
0.0200661
0.0174884
0.0152272
0.0131856
0.0115514
0.0100436
0.00881091
0.00769533
0.00674155
0.00601647
0.00521049
0.00464725
0.0042074
0.00361855
0.00312579
0.00261352
0.00228608
0.00200307
0.000760501
-0.158762
-0.179329
-0.187284
-0.184698
-0.175625
-0.161466
-0.142029
-0.116452
-0.0856828
-0.0539961
-0.0258642
-0.00410816
0.0102059
0.0186048
0.0230453
0.0241219
0.0234252
0.0220407
0.0203997
0.018337
0.0162362
0.0143748
0.0125834
0.0111454
0.00974543
0.0086273
0.00758839
0.00664498
0.00598057
0.00520543
0.00461621
0.00420038
0.00363488
0.0031422
0.00259302
0.00228091
0.00202239
0.000764991
-0.129565
-0.146461
-0.153591
-0.15187
-0.144712
-0.133741
-0.119128
-0.100571
-0.0787474
-0.0554167
-0.033085
-0.0138529
0.00023983
0.0095177
0.0152594
0.0183037
0.0195009
0.0191702
0.0180664
0.016558
0.0149955
0.0134655
0.0119274
0.0106796
0.00939772
0.00840252
0.00743725
0.00652536
0.00592905
0.00517545
0.00457535
0.00419636
0.00364443
0.00314696
0.00257418
0.00228022
0.00205463
0.000774319
-0.105482
-0.119171
-0.125362
-0.124474
-0.118998
-0.110413
-0.0991734
-0.0852885
-0.0686549
-0.0502078
-0.0320346
-0.0159497
-0.00349041
0.00508125
0.0107914
0.0140307
0.0156572
0.0158122
0.0154613
0.0145863
0.0135371
0.0123904
0.0111285
0.0101119
0.00898147
0.00811441
0.00724377
0.00638137
0.00584409
0.00512561
0.00453294
0.00417904
0.00363925
0.00315193
0.0025612
0.00227596
0.00208544
0.000783067
-0.0855967
-0.0963609
-0.101531
-0.101205
-0.0971682
-0.0907058
-0.0822899
-0.0720285
-0.0599847
-0.0466459
-0.0332194
-0.0206341
-0.00996954
-0.00172817
0.00420178
0.00829894
0.0109612
0.0123188
0.0127718
0.0124964
0.0119515
0.0112034
0.0102258
0.00945575
0.00848859
0.00776344
0.00700447
0.00619896
0.00573033
0.00505899
0.00447542
0.00414603
0.00362845
0.00315533
0.00254368
0.00226364
0.00211358
0.00079547
-0.0690714
-0.077528
-0.0818188
-0.0819185
-0.0790981
-0.0744049
-0.0682517
-0.060709
-0.0518676
-0.0419171
-0.0314234
-0.0210508
-0.0117721
-0.00427985
0.00137038
0.0052389
0.00798283
0.00951709
0.0102895
0.0104265
0.0103503
0.00996019
0.00927074
0.00873919
0.00794341
0.00736767
0.00671976
0.00598315
0.00559042
0.00496274
0.00440059
0.00410436
0.00360513
0.00314679
0.00252268
0.00224606
0.00214015
0.000810217
-0.0555611
-0.0621323
-0.0656084
-0.0659195
-0.063977
-0.0605892
-0.0561282
-0.0507014
-0.0443158
-0.0370479
-0.0292933
-0.0214954
-0.01429
-0.00799149
-0.00280627
0.0011617
0.00426512
0.00636956
0.00768492
0.00829189
0.00861867
0.00861269
0.00819855
0.00791649
0.00731234
0.00690277
0.00637984
0.00572741
0.00541817
0.00483909
0.00431328
0.00405161
0.00356688
0.00312946
0.00250538
0.00222765
0.00216048
0.000828386
-0.0445871
-0.0496472
-0.052428
-0.0528478
-0.0515593
-0.0491731
-0.0459911
-0.0421242
-0.037549
-0.0323085
-0.0265973
-0.0205659
-0.0147291
-0.0093571
-0.00468344
-0.00101847
0.0019406
0.00410445
0.00557461
0.00638018
0.0070309
0.00732179
0.0071549
0.00708215
0.00664584
0.00638301
0.00599004
0.00541954
0.00519043
0.0046807
0.00419098
0.00396118
0.00350573
0.00309788
0.0024682
0.00218403
0.00216782
0.000828197
-0.035521
-0.039388
-0.0415814
-0.0420267
-0.0411969
-0.0395495
-0.0373166
-0.0346061
-0.0313876
-0.0276479
-0.0234898
-0.0189616
-0.0144858
-0.0102076
-0.00628852
-0.00308072
-0.000302029
0.00192745
0.00354861
0.00454517
0.00543575
0.00600612
0.00608371
0.0062144
0.0059642
0.00587931
0.00559849
0.0051339
0.00500714
0.00453109
0.00410194
0.00391728
0.00345575
0.00308419
0.00247534
0.00225621
0.00218076
0.000876106
-0.0283177
-0.0312749
-0.0329902
-0.0334034
-0.0328721
-0.0317422
-0.0301816
-0.028294
-0.026047
-0.0234201
-0.0204768
-0.017172
-0.0138001
-0.0104474
-0.00718605
-0.00439938
-0.00187626
0.000290212
0.00193717
0.00298202
0.00397825
0.00473786
0.00498091
0.00527688
0.00516866
0.005201
0.00507213
0.00468584
0.00463183
0.00426055
0.00386382
0.00371895
0.00331295
0.00296075
0.00234897
0.00192428
0.00209431
0.000805114
-0.0221691
-0.0244065
-0.0257344
-0.0261
-0.0257804
-0.0250224
-0.0239363
-0.0226219
-0.0210488
-0.0192001
-0.0171229
-0.0147201
-0.0122191
-0.00965409
-0.0070594
-0.00479235
-0.00266459
-0.000727205
0.000827826
0.00184759
0.00291561
0.0037757
0.00417317
0.00458422
0.00461109
0.00479466
0.00474123
0.00446575
0.00451737
0.00416236
0.00383722
0.00374447
0.00331263
0.00300514
0.00246233
0.00253169
0.00215682
0.000915155
-0.0175497
-0.0192338
-0.0202428
-0.0205369
-0.0203413
-0.0198388
-0.0190959
-0.01821
-0.0171485
-0.0158949
-0.0144785
-0.0127835
-0.0109938
-0.00910645
-0.0070859
-0.00527625
-0.00349672
-0.00177384
-0.000349682
0.000614941
0.00164432
0.00258487
0.00306018
0.00357161
0.00369685
0.00395335
0.00404626
0.00383812
0.0039384
0.00371925
0.00342522
0.00336935
0.00301668
0.00270047
0.0020517
0.00138613
0.00183647
0.000739542
-0.013103
-0.0143977
-0.0151796
-0.0154018
-0.0152695
-0.014928
-0.0144109
-0.0138082
-0.0130852
-0.0122237
-0.0112507
-0.0100481
-0.00877769
-0.00740423
-0.00587189
-0.00449748
-0.00310137
-0.00167351
-0.000453201
0.000362702
0.00133054
0.00221684
0.00272272
0.0032545
0.00344958
0.00378689
0.00391853
0.00379356
0.00399258
0.00376685
0.00352594
0.00353616
0.00313899
0.00286676
0.00230825
0.00174666
0.00193497
0.000899322
-0.0101559
-0.0111238
-0.0116998
-0.0118589
-0.011782
-0.011572
-0.0112304
-0.0108421
-0.0103759
-0.00982761
-0.00921453
-0.00841427
-0.00756968
-0.00662438
-0.00550152
-0.00450451
-0.00342588
-0.00223211
-0.00122523
-0.000548099
0.000297761
0.0011794
0.00168185
0.00222981
0.00247425
0.00283156
0.00307488
0.00299642
0.00320269
0.00313633
0.00293056
0.00296037
0.00265877
0.00239395
0.00182582
0.00132104
0.00149952
0.000656728
-0.00661743
-0.00737045
-0.00783146
-0.0079595
-0.0079227
-0.00780532
-0.00758414
-0.00734825
-0.00705362
-0.00669984
-0.00629968
-0.00574463
-0.00517359
-0.00453446
-0.00372097
-0.003037
-0.00226463
-0.00131872
-0.000520141
-8.95505e-06
0.000685612
0.0014553
0.00187481
0.0023975
0.00263414
0.00298963
0.00325857
0.0031843
0.0035064
0.00338044
0.00319113
0.00331572
0.00293321
0.00271773
0.00221312
0.00152813
0.00166752
0.000837322
-0.00445487
-0.00505295
-0.00540939
-0.00551025
-0.00551809
-0.00548589
-0.00537693
-0.00527286
-0.00512587
-0.00496154
-0.00477017
-0.00447678
-0.00418554
-0.00381738
-0.00327434
-0.00283112
-0.00226845
-0.00155831
-0.0010213
-0.000610715
-6.16768e-05
0.000645275
0.000987592
0.00146078
0.00172183
0.00202115
0.0023759
0.00231418
0.00259173
0.00265938
0.00249558
0.0026101
0.00234681
0.00216882
0.00168616
0.000977057
0.00107866
0.00058173
-0.00153564
-0.00200477
-0.00230171
-0.00241962
-0.00248102
-0.0025315
-0.00251653
-0.00251801
-0.00247046
-0.00241733
-0.0023173
-0.00214961
-0.00197562
-0.00178129
-0.00143505
-0.00120774
-0.000816993
-0.000290475
9.88925e-05
0.00038834
0.000755184
0.00138705
0.00156527
0.00209062
0.00218935
0.00247797
0.00284877
0.00268697
0.0031096
0.00308385
0.00289029
0.00307452
0.00277475
0.00263612
0.00209256
0.00128143
0.00135417
0.000741507
0.000746695
0.000313622
-2.51072e-05
-0.000274326
-0.000456632
-0.000641433
-0.000789759
-0.000951929
-0.00108562
-0.0012059
-0.00126806
-0.00129781
-0.00122267
-0.00118029
-0.00101479
-0.000894121
-0.000726402
-0.000480403
-0.000185188
0.000113399
0.000258947
0.000805058
0.000883802
0.00143053
0.00152046
0.00171002
0.00222394
0.00195482
0.00237826
0.00255477
0.00225794
0.00251402
0.00243786
0.00228241
0.00182226
0.00114051
0.00118295
0.000716376
0.00220688
0.00192166
0.00165639
0.00141276
0.00121654
0.00104533
0.000890815
0.000749857
0.000624776
0.00050642
0.000433071
0.000352347
0.000346063
0.000351601
0.000404458
0.000508522
0.000608355
0.000706136
0.000847393
0.0011224
0.00124526
0.00152214
0.0016675
0.0019482
0.00215703
0.00226663
0.00257854
0.00256175
0.00277775
0.0028737
0.00275446
0.00291009
0.00269649
0.0025145
0.00240235
0.00167834
0.000999362
0.000608391
0.00276742
0.00252519
0.00229776
0.00207962
0.00187411
0.00167336
0.0014836
0.00130312
0.00114166
0.000990507
0.000864443
0.00075375
0.000680174
0.00061975
0.000587427
0.000592481
0.000601379
0.000658255
0.00073152
0.00089035
0.000970099
0.00115703
0.00129311
0.00148248
0.00169024
0.00176659
0.00204765
0.00207334
0.00222077
0.00240924
0.00227064
0.00242309
0.00237339
0.00205385
0.00191785
0.001395
0.000714401
0.000339129
0.00333621
0.00312431
0.00291457
0.00270817
0.00251143
0.00232558
0.00214766
0.00197852
0.00181925
0.00166866
0.001536
0.00141095
0.00131146
0.00124507
0.00119787
0.00118671
0.00119262
0.0012068
0.00122979
0.00133369
0.00143213
0.00154779
0.00167367
0.00180393
0.00198747
0.00208419
0.00226116
0.00237065
0.00243715
0.00259169
0.00254525
0.00254591
0.0025281
0.0022297
0.00200389
0.00157409
0.000845806
0.000347353
-0.0820472
-0.100964
-0.120204
-0.140867
-0.162965
-0.187138
-0.213233
-0.242352
-0.0754754
-0.0912002
-0.106869
-0.12361
-0.140542
-0.158532
-0.176472
-0.19763
-0.0656971
-0.0777845
-0.0895829
-0.102005
-0.114822
-0.128337
-0.143586
-0.162094
-0.0584841
-0.0679901
-0.0774428
-0.0871877
-0.0978934
-0.109154
-0.121989
-0.136478
-0.0512955
-0.0588524
-0.066496
-0.0742812
-0.0827473
-0.0913155
-0.100827
-0.111956
-0.045174
-0.0509904
-0.0568384
-0.062657
-0.0688945
-0.0753051
-0.0826829
-0.0916036
-0.0394235
-0.0437597
-0.0481331
-0.0525321
-0.0573154
-0.0623345
-0.0680913
-0.0749981
-0.0341824
-0.0374183
-0.0406874
-0.0440066
-0.0476061
-0.0513663
-0.0556601
-0.0609349
-0.0295019
-0.0318389
-0.034183
-0.0365869
-0.0392095
-0.0419886
-0.0452263
-0.0493108
-0.0252432
-0.0268951
-0.0285345
-0.0302526
-0.0321674
-0.0342406
-0.0366868
-0.0398223
-0.0213592
-0.0225266
-0.0236625
-0.0248695
-0.026236
-0.0277377
-0.0295373
-0.0319082
-0.0178729
-0.018704
-0.0194868
-0.0203295
-0.0213029
-0.0223968
-0.0237399
-0.0255562
-0.0146835
-0.0152783
-0.0158075
-0.0163641
-0.0170161
-0.0177722
-0.0187351
-0.0200877
-0.0119177
-0.0123301
-0.0126845
-0.0130923
-0.0136026
-0.0141971
-0.0149385
-0.0159711
-0.00917336
-0.00949267
-0.00976535
-0.0100472
-0.0103662
-0.010722
-0.0111901
-0.0119175
-0.00701657
-0.00719934
-0.00734578
-0.00755046
-0.00783853
-0.00818482
-0.0086196
-0.00922711
-0.00448626
-0.00467145
-0.00482814
-0.00499473
-0.00517798
-0.00536138
-0.00558506
-0.00595552
-0.00254783
-0.00263749
-0.00271821
-0.00285263
-0.00304197
-0.00325546
-0.00351535
-0.00388169
-4.85386e-05
-0.000158203
-0.000272996
-0.000421522
-0.000584679
-0.000735103
-0.000892507
-0.00112702
0.00270466
0.00247535
0.00226556
0.00205999
0.0018522
0.00163279
0.00140058
0.00112398
0.00348216
0.00332027
0.00317193
0.00302944
0.00288874
0.00274406
0.00259623
0.00243154
0.00418166
0.00400435
0.00383219
0.00366287
0.00349357
0.0033224
0.00315116
0.00297928
0.00450341
0.00434985
0.00420052
0.00405691
0.00391859
0.00378278
0.0036475
0.00351047
0.105003
0.111157
0.117537
0.123537
0.128231
0.131383
0.132909
0.132391
0.128996
0.121505
0.10823
0.0868174
0.0534487
0.00517458
-0.0378147
0.083537
0.0875499
0.0904143
0.0923676
0.0932157
0.0925977
0.0900679
0.0849511
0.0762764
0.0627304
0.0425165
0.013292
-0.0286704
-0.0869314
-0.134527
0.0605584
0.0625951
0.0622156
0.0606397
0.0581001
0.0540677
0.0478329
0.0385818
0.0252847
0.00655663
-0.0195294
-0.0553779
-0.103746
-0.169925
-0.216177
0.0357355
0.0355748
0.0326696
0.0286228
0.0235378
0.0167044
0.00733869
-0.00537893
-0.0224703
-0.0452925
-0.0759228
-0.116877
-0.170235
-0.236741
-0.28086
0.0097139
0.00737028
0.00273415
-0.0028936
-0.00979918
-0.0187903
-0.0305693
-0.0459001
-0.065771
-0.091427
-0.12497
-0.168909
-0.223855
-0.287189
-0.327316
-0.0161507
-0.0205373
-0.0263615
-0.0330622
-0.0413281
-0.0518937
-0.0653025
-0.0822852
-0.103786
-0.131053
-0.165865
-0.209999
-0.263439
-0.320855
-0.355645
-0.041345
-0.04727
-0.0536702
-0.0612017
-0.0705151
-0.0821208
-0.0964808
-0.114224
-0.136237
-0.163638
-0.197791
-0.239833
-0.288866
-0.337615
-0.367402
-0.066232
-0.0721539
-0.0790458
-0.0872899
-0.0972919
-0.109389
-0.123976
-0.141624
-0.163096
-0.189293
-0.221186
-0.259177
-0.301036
-0.338995
-0.364995
0.209672
0.225157
0.242206
0.260979
0.281591
0.303975
0.328059
0.353785
0.381059
0.409635
0.438969
0.467998
0.494873
0.516084
0.533795
0.210965
0.226201
0.242787
0.261299
0.281724
0.303939
0.327797
0.353202
0.38006
0.408124
0.436826
0.465065
0.49094
0.51094
0.527452
0.208384
0.222544
0.238186
0.255875
0.275536
0.296853
0.319562
0.343529
0.368636
0.394587
0.420741
0.445908
0.468051
0.48378
0.496193
0.201761
0.214108
0.228246
0.244622
0.2629
0.282527
0.303161
0.32466
0.346859
0.369351
0.391333
0.411442
0.427392
0.435953
0.441843
0.190394
0.200428
0.212892
0.227934
0.244548
0.261873
0.279578
0.297591
0.315732
0.333476
0.349829
0.363204
0.370985
0.369881
0.367543
0.174913
0.182215
0.192961
0.206384
0.220854
0.235373
0.249635
0.263554
0.276855
0.288864
0.298408
0.303691
0.301773
0.289203
0.276646
0.155138
0.160555
0.169978
0.181376
0.1929
0.203849
0.214084
0.223444
0.231439
0.237175
0.239272
0.235714
0.223274
0.198427
0.174618
0.131008
0.135549
0.144426
0.153746
0.162012
0.169
0.174806
0.179201
0.181496
0.180602
0.174946
0.162284
0.139078
0.101964
0.067392
0.023706
0.025005
0.0239191
0.0271952
0.0256701
0.0305256
0.0290539
0.0341277
0.034596
0.0397487
0.0417963
0.0481255
0.0517017
0.0588211
0.065189
0.0742392
0.0834651
0.0953978
0.108431
0.124446
0.142399
0.163823
0.187997
0.023727
0.0250207
0.0239233
0.0272135
0.0257587
0.0304914
0.0291467
0.0341168
0.0346931
0.0397457
0.0419528
0.0479898
0.0518166
0.0589082
0.0653704
0.0744825
0.0838201
0.0959015
0.10904
0.125284
0.143332
0.16506
0.189329
0.0237472
0.0250241
0.0239407
0.0272018
0.025866
0.0304203
0.0292683
0.0340781
0.0348226
0.0397275
0.0421257
0.0479694
0.0519738
0.0589925
0.0655482
0.0746665
0.0840621
0.0962354
0.109245
0.125536
0.14304
0.164541
0.187945
0.0237657
0.0250176
0.0239704
0.0271643
0.0259891
0.030317
0.0294104
0.0340262
0.0349832
0.0397016
0.042293
0.0478979
0.052097
0.0590356
0.0656751
0.0747536
0.0840949
0.096328
0.109014
0.125351
0.142122
0.163097
0.184077
0.0237817
0.0250044
0.0240104
0.0271046
0.0261245
0.0301906
0.0295722
0.0339546
0.035139
0.0396567
0.0424881
0.0479167
0.0522966
0.0590989
0.0658205
0.0748471
0.0840873
0.0960973
0.108158
0.123696
0.138562
0.158183
0.175902
0.0237942
0.0249871
0.0240586
0.0270295
0.0262611
0.0300404
0.0297479
0.0339127
0.0353434
0.0396591
0.042658
0.0478837
0.052418
0.0592019
0.0659469
0.0749599
0.08414
0.0961025
0.107846
0.123127
0.136889
0.154524
0.166663
0.023803
0.0249705
0.0241108
0.0269408
0.0264034
0.029894
0.0299142
0.0338149
0.0354681
0.0395903
0.0428514
0.0479777
0.0527057
0.0592511
0.0660408
0.0747261
0.083662
0.0947849
0.105458
0.118604
0.129491
0.144554
0.151874
0.023805
0.0249545
0.024173
0.0268464
0.0265059
0.0297443
0.030146
0.0338693
0.0357579
0.0397272
0.0430943
0.0480634
0.0528552
0.0596053
0.0665064
0.0755423
0.0844401
0.0957325
0.105656
0.118278
0.127266
0.136855
0.133272
0.023794
0.0249173
0.024213
0.0267103
0.0267143
0.0295052
0.0302485
0.0335173
0.035662
0.0394229
0.0431603
0.048272
0.0533901
0.0590778
0.0658947
0.0733467
0.0817691
0.0904115
0.0990976
0.106244
0.110432
0.109342
0.104469
0.0237674
0.0248669
0.0242823
0.0264997
0.0268296
0.029041
0.0303108
0.0330761
0.0354894
0.03868
0.0423606
0.0459408
0.0507705
0.0561657
0.0622629
0.0684787
0.0755142
0.081806
0.0880008
0.0917316
0.094108
0.0922646
0.0860154
0.0237384
0.0247947
0.0243403
0.0262216
0.0269696
0.0285284
0.0303558
0.0325323
0.0351282
0.0378491
0.0413932
0.0449062
0.049464
0.0537371
0.0589425
0.063835
0.0691763
0.0734896
0.0770461
0.0781782
0.0772484
0.0729018
0.0668151
0.0237005
0.0246924
0.0243832
0.0259157
0.0270935
0.0279749
0.0302785
0.0319745
0.0345869
0.0369803
0.0402264
0.042912
0.0468801
0.0506195
0.0546929
0.0583597
0.0619943
0.0645259
0.0658916
0.0650524
0.0622946
0.0575523
0.0514463
0.0236506
0.0245647
0.0244039
0.0255737
0.0271539
0.0274332
0.0300714
0.0314045
0.0338098
0.0359738
0.0387513
0.0412691
0.0442636
0.0472358
0.0501735
0.0525625
0.0547035
0.055607
0.0552678
0.0530122
0.0492817
0.0440899
0.038132
0.0235823
0.0244152
0.0243859
0.0252183
0.0271228
0.0268961
0.0296894
0.0308002
0.03282
0.0348327
0.0370057
0.0385237
0.0412171
0.0434757
0.0452841
0.0464466
0.0473391
0.0469739
0.0453942
0.0422561
0.0379926
0.0327936
0.0272366
0.0234894
0.0242472
0.0243151
0.0248479
0.0269703
0.0263706
0.0291289
0.0301368
0.0316292
0.0334714
0.0351004
0.0360174
0.037998
0.0395337
0.040283
0.0403503
0.0402343
0.0390075
0.0366015
0.0329053
0.0283868
0.0232624
0.0179993
0.0233648
0.02406
0.0241781
0.0244649
0.0266831
0.0258453
0.0283873
0.0293772
0.0302978
0.031886
0.0330586
0.0332847
0.0345508
0.0354948
0.0353428
0.0344656
0.0335832
0.0318418
0.0289514
0.0249858
0.0204756
0.0155702
0.0105647
0.0232015
0.0238524
0.0239694
0.0240618
0.0262512
0.0253032
0.0274932
0.0284664
0.0288538
0.0300789
0.0308713
0.0304549
0.0310152
0.0314554
0.0306367
0.0290172
0.0275749
0.0255799
0.0225042
0.0184972
0.0141795
0.00968211
0.00499066
0.0229943
0.0236199
0.0236841
0.02363
0.0256812
0.0247187
0.0264738
0.0274093
0.0273207
0.0281292
0.0285767
0.0276291
0.0275171
0.0275239
0.0262675
0.0241337
0.0223032
0.0202314
0.0172064
0.0133304
0.00929774
0.00528374
0.00103667
0.0227403
0.0233553
0.0233235
0.023154
0.0249931
0.0240687
0.0253655
0.0261731
0.0257114
0.0261139
0.0262265
0.0248662
0.0242128
0.0238701
0.0223495
0.019906
0.017834
0.0157876
0.0129485
0.00933275
0.00565064
0.00213945
-0.00156788
0.0224352
0.0230537
0.0228948
0.0226193
0.0242011
0.0233382
0.0242038
0.0248224
0.0240533
0.0240973
0.0238868
0.022217
0.021187
0.0206079
0.0189525
0.0163906
0.0142359
0.0122877
0.00969278
0.00639764
0.00310496
8.16295e-05
-0.00310075
0.022081
0.0227014
0.022401
0.0220193
0.0233512
0.0225159
0.0230001
0.0233949
0.0223853
0.0221612
0.0216888
0.019805
0.0184987
0.0177567
0.0160336
0.0134744
0.0113582
0.00957064
0.00725819
0.00434098
0.00148301
-0.00104397
-0.00368204
0.0216848
0.022309
0.0218385
0.0213334
0.022446
0.0216514
0.0217919
0.0218955
0.0207313
0.0203278
0.0196547
0.0176434
0.0162545
0.0154713
0.0137802
0.0113189
0.0093215
0.00770898
0.00564672
0.00305941
0.000580535
-0.00153643
-0.00374533
0.0212408
0.0218617
0.0212395
0.0206054
0.0215373
0.020745
0.0205832
0.0204555
0.019191
0.0186899
0.0178542
0.0157663
0.014345
0.0135862
0.0119759
0.00968505
0.00789585
0.00651414
0.00473383
0.00250226
0.000432025
-0.00126598
-0.00305118
0.0207844
0.0213684
0.0205514
0.0198196
0.0206566
0.0198419
0.0193765
0.0190502
0.0178077
0.01732
0.0163774
0.0142899
0.0129484
0.0122924
0.0108087
0.00869766
0.00708126
0.00585277
0.00424981
0.00226928
0.000495626
-0.000905307
-0.0023884
0.0202999
0.0208457
0.0198696
0.019065
0.0198177
0.0190162
0.0182356
0.0176153
0.0166028
0.0161699
0.0151105
0.0130573
0.0118785
0.0113802
0.010111
0.00829721
0.00695898
0.00594548
0.00457206
0.00288934
0.00143857
0.000315018
-0.000922879
0.0198329
0.0202385
0.019179
0.0183807
0.0190519
0.0182001
0.0172541
0.0166359
0.0157181
0.0153577
0.0142317
0.0123099
0.0113153
0.0109221
0.00980026
0.0082552
0.00714201
0.00623289
0.00496305
0.00348198
0.00227002
0.00133498
0.000267758
0.0194012
0.0196849
0.0185069
0.0178518
0.018407
0.0175316
0.0164274
0.0156863
0.0150897
0.0147241
0.0135216
0.0118363
0.0111548
0.0109212
0.0100489
0.00886965
0.00802273
0.00726481
0.00619528
0.0050057
0.00405021
0.00325793
0.0022996
0.0189803
0.0191116
0.0180511
0.0172971
0.0177532
0.0172024
0.0158691
0.0151375
0.0148116
0.0142698
0.0132312
0.0120321
0.0113323
0.0110572
0.0105314
0.00962737
0.00873878
0.00805051
0.0073845
0.00665149
0.00591887
0.00524303
0.00453384
0.0184529
0.0185686
0.0178679
0.0167728
0.0167578
0.0165595
0.0154402
0.0144256
0.0139876
0.013604
0.0127913
0.0116644
0.0106785
0.0101457
0.00976281
0.00915596
0.0083988
0.00775186
0.0072448
0.00677083
0.00627257
0.00580016
0.00537147
0.0180874
0.0182044
0.0175119
0.0163581
0.0162404
0.0161634
0.0152246
0.0141224
0.0136227
0.0133495
0.0126961
0.0116767
0.0107763
0.0102268
0.00983439
0.00936394
0.00877392
0.00817565
0.00764084
0.00717432
0.00674522
0.00633753
0.00593704
0.0178729
0.0178326
0.0174266
0.0164327
0.0158164
0.0155585
0.0149972
0.0141009
0.0133742
0.0128904
0.0123422
0.0115885
0.0107457
0.0100359
0.00951765
0.00907502
0.00859321
0.00808997
0.00762545
0.00722612
0.00687088
0.00654363
0.00624152
0.0963145
0.077895
0.0537542
0.0305165
0.00730011
-0.0164899
-0.040058
-0.0618261
0.0784969
0.058994
0.0339657
0.0128238
-0.00566436
-0.0240954
-0.0423012
-0.0594231
0.0608556
0.0456357
0.0243311
0.00565951
-0.00991061
-0.0242906
-0.038567
-0.0526157
0.046248
0.0338588
0.0149908
-0.00199364
-0.0157094
-0.0271975
-0.0380094
-0.0484782
0.0333116
0.0231324
0.00733103
-0.00729977
-0.018651
-0.0273854
-0.0354603
-0.0434001
0.0227746
0.014526
0.00154001
-0.0108747
-0.0202643
-0.0270648
-0.0331614
-0.0391521
0.0141114
0.00759817
-0.00281818
-0.0130884
-0.0207425
-0.0260104
-0.0305422
-0.0349946
0.00700135
0.0020068
-0.00587916
-0.0139234
-0.0200018
-0.0241389
-0.0275678
-0.0308676
0.00137116
-0.00264476
-0.00822357
-0.0138718
-0.0183966
-0.0217266
-0.0244892
-0.0270389
-0.00252809
-0.00589223
-0.00966862
-0.01335
-0.0165437
-0.0191725
-0.0214268
-0.0234236
-0.00484353
-0.00761224
-0.0101561
-0.0124931
-0.0146612
-0.0166456
-0.0184423
-0.0200083
-0.0060133
-0.00825868
-0.00994615
-0.0113766
-0.0128
-0.0142479
-0.0156392
-0.0168571
-0.00616047
-0.00796711
-0.00911616
-0.0099842
-0.0108912
-0.0119162
-0.012978
-0.0139243
-0.00588112
-0.00733688
-0.0080796
-0.00854174
-0.00908495
-0.00980155
-0.0106007
-0.0113331
-0.00482708
-0.00602209
-0.00657167
-0.00683202
-0.00713346
-0.00760308
-0.00819168
-0.00874761
-0.00390262
-0.00486428
-0.00520677
-0.00529289
-0.00544832
-0.00578687
-0.00624749
-0.00668983
-0.00222401
-0.00305924
-0.00334909
-0.00336048
-0.00338648
-0.00357271
-0.00389726
-0.00423182
-0.000864118
-0.0015541
-0.00174125
-0.00169407
-0.00168392
-0.00182915
-0.00209492
-0.00236275
0.00131188
0.000741334
0.000613172
0.000677238
0.000697729
0.000575055
0.000346268
0.000116596
0.00388298
0.00349717
0.00337658
0.00339213
0.00340747
0.00333406
0.00316299
0.00293703
0.00500496
0.00471737
0.0044712
0.00427181
0.00411346
0.00397288
0.0038248
0.00365734
0.00560905
0.00537952
0.0051922
0.00502657
0.00486817
0.00470683
0.00453763
0.004361
0.00599763
0.00579413
0.00558192
0.00537162
0.00517213
0.00498836
0.00481932
0.00465939
-0.289749
-0.294384
-0.3034
-0.316641
-0.33418
-0.356495
-0.383712
-0.412039
-0.287607
-0.292136
-0.300064
-0.311407
-0.326415
-0.34523
-0.367529
-0.391466
-0.282795
-0.287275
-0.295024
-0.305421
-0.318745
-0.335235
-0.353164
-0.368783
-0.277459
-0.282016
-0.289583
-0.299056
-0.310174
-0.322226
-0.332918
-0.33895
-0.273803
-0.278042
-0.284766
-0.292227
-0.299536
-0.305707
-0.309043
-0.30741
-0.273547
-0.276426
-0.280941
-0.284928
-0.287498
-0.288082
-0.285598
-0.278563
-0.277021
-0.277297