/*--------------------------------*- C++ -*----------------------------------*\
| =========                 |                                                 |
| \\      /  F ield         | OpenFOAM: The Open Source CFD Toolbox           |
|  \\    /   O peration     | Version:  2312                                  |
|   \\  /    A nd           | Website:  www.openfoam.com                      |
|    \\/     M anipulation  |                                                 |
\*---------------------------------------------------------------------------*/
FoamFile
{
    version     2.0;
    format      ascii;
    arch        "LSB;label=32;scalar=64";
    class       surfaceScalarField;
    location    "12.5";
    object      phi;
}
// * * * * * * * * * * * * * * * * * * * * * * * * * * * * * * * * * * * * * //

dimensions      [0 3 -1 0 0 0 0];

oriented        oriented;

internalField   nonuniform List<scalar> 
26232
(
-0.000209339
0.00102015
-0.000810815
-0.00020511
0.00217828
-0.00218251
0.000389617
0.00247278
-0.00306751
0.00186209
0.00178992
-0.00326239
0.0045035
-4.61093e-05
-0.0025953
0.00860784
-0.00318913
-0.000915211
0.0145022
-0.00779415
0.00189979
0.0224552
-0.013883
0.00592997
0.0325853
-0.0213428
0.0112127
0.0447833
-0.0299077
0.0177098
0.0586816
-0.0391924
0.025294
0.0736839
-0.04875
0.0337477
0.0890398
-0.0581352
0.0427793
0.103946
-0.0669578
0.0520512
0.117657
-0.0749215
0.0612113
0.129577
-0.0818535
0.0699335
0.139365
-0.0877151
0.0779272
0.146946
-0.0926104
0.0850292
0.152627
-0.0967367
0.0910557
0.156767
-0.100429
0.0962886
0.160208
-0.103782
0.100342
0.163061
-0.107496
0.104643
0.165562
-0.110238
0.107737
-0.114594
0.112934
0.167223
-0.000208248
0.0012284
-0.000152781
0.00212282
0.00065235
0.00166765
0.00265096
-0.000208684
0.00626748
-0.00366263
0.0119191
-0.00884077
0.0198788
-0.0157538
0.030186
-0.0241902
0.0425588
-0.0337156
0.0564038
-0.0437527
0.0709089
-0.0536975
0.0851828
-0.0630238
0.0984011
-0.0713535
0.109933
-0.07849
0.119433
-0.0844209
0.126875
-0.0892963
0.132538
-0.0933773
0.136905
-0.096978
0.140534
-0.100365
0.143859
-0.103754
0.147236
-0.10716
0.150441
-0.110701
0.154119
-0.113916
-0.117918
0.157443
-8.76295e-05
0.00131603
0.000301718
0.00173347
0.00173478
0.000234588
0.00475807
-0.00323197
0.00987572
-0.00878029
0.0174251
-0.0163901
0.0274168
-0.0257455
0.0394428
-0.0362162
0.0527245
-0.0469973
0.0662829
-0.0573111
0.0791517
-0.0665663
0.0905648
-0.074437
0.10008
-0.0808689
0.107622
-0.086032
0.113441
-0.0902398
0.117997
-0.0938524
0.121805
-0.0971855
0.125283
-0.100455
0.128665
-0.103747
0.132016
-0.107104
0.135261
-0.110405
0.138391
-0.11383
0.141394
-0.11692
-0.120607
0.144082
9.17128e-05
0.00122432
0.000985137
0.000840046
0.00330746
-0.00208774
0.00765547
-0.00757998
0.0144664
-0.0155912
0.0237964
-0.0257202
0.0351751
-0.0371242
0.04768
-0.0487211
0.0601983
-0.0595157
0.0717268
-0.0688397
0.0815928
-0.0764323
0.0895478
-0.0823919
0.0957345
-0.0870556
0.100556
-0.0908535
0.104499
-0.0941826
0.107974
-0.0973271
0.111232
-0.100443
0.11436
-0.103584
0.117374
-0.106762
0.120234
-0.109964
0.12303
-0.113201
0.12573
-0.11653
0.128555
-0.119746
-0.123525
0.131474
0.000288244
0.000936075
0.00178211
-0.000653819
0.0051471
-0.00545273
0.0109393
-0.0133721
0.0193352
-0.0239872
0.0298845
-0.0362694
0.0415643
-0.048804
0.0531377
-0.0602945
0.0635603
-0.0699383
0.0722343
-0.0775137
0.0790565
-0.0832544
0.0843019
-0.0876374
0.0884246
-0.0911782
0.0918652
-0.0942941
0.0949346
-0.0972521
0.0977971
-0.10019
0.100516
-0.103162
0.103126
-0.106194
0.105658
-0.109294
0.108167
-0.112473
0.110688
-0.115722
0.113207
-0.11905
0.115813
-0.122351
-0.125955
0.118242
0.000503057
0.000433019
0.00266753
-0.00281829
0.00715484
-0.00994004
0.0143242
-0.0205414
0.0238575
-0.0335205
0.0346994
-0.0471114
0.045485
-0.0595895
0.0550855
-0.069895
0.062918
-0.0777708
0.0689535
-0.0835492
0.0735288
-0.0878297
0.0771043
-0.0912128
0.0800804
-0.0941543
0.0827221
-0.0969358
0.0851741
-0.0997041
0.0875096
-0.102525
0.0897747
-0.105427
0.0919972
-0.108417
0.0941971
-0.111493
0.0963696
-0.114646
0.0985142
-0.117867
0.100619
-0.121155
0.102739
-0.12447
-0.128014
0.104798
0.000749002
-0.000315983
0.00364148
-0.00571077
0.00923253
-0.0155311
0.0174686
-0.0287775
0.0273894
-0.0434413
0.037513
-0.057235
0.0465548
-0.0686313
0.0538539
-0.0771941
0.0593755
-0.0832925
0.0634692
-0.0876429
0.0665945
-0.090955
0.0691406
-0.093759
0.0713665
-0.0963802
0.073419
-0.0989884
0.075374
-0.101659
0.0772679
-0.104419
0.0791136
-0.107273
0.0809151
-0.110218
0.0826724
-0.113251
0.0843963
-0.11637
0.086103
-0.119573
0.0878009
-0.122853
0.089531
-0.1262
-0.129691
0.0912085
0.00102938
-0.00134536
0.0046676
-0.00934899
0.0111959
-0.0220594
0.0199534
-0.037535
0.0294264
-0.0529143
0.0381022
-0.0659108
0.0451232
-0.0756523
0.0503571
-0.082428
0.0541251
-0.0870605
0.0568898
-0.0904076
0.0590541
-0.0931193
0.0608916
-0.0955964
0.0625576
-0.0980462
0.0641272
-0.100558
0.0656309
-0.103163
0.0670786
-0.105867
0.0684771
-0.108671
0.0698345
-0.111576
0.0711629
-0.114579
0.072471
-0.117678
0.0737596
-0.120862
0.0750295
-0.124123
0.0762914
-0.127462
-0.130897
0.0774974
0.00133283
-0.00267819
0.0056608
-0.013677
0.0127974
-0.029196
0.0214281
-0.0461657
0.0298056
-0.0612917
0.0367416
-0.0728468
0.0418885
-0.0807992
0.0454834
-0.0860229
0.0479853
-0.0895625
0.0498254
-0.0922476
0.0513054
-0.0945994
0.0525971
-0.0968881
0.0537818
-0.0992308
0.0548924
-0.101669
0.0559423
-0.104213
0.0569402
-0.106865
0.0578934
-0.109625
0.058808
-0.11249
0.0596871
-0.115458
0.0605321
-0.118523
0.0613467
-0.121676
0.0621392
-0.124915
0.0629193
-0.128242
-0.131654
0.0636758
0.00163423
-0.00431243
0.00650646
-0.0185492
0.0138138
-0.0365034
0.0217513
-0.0541032
0.0286981
-0.0682385
0.0339342
-0.0780829
0.037516
-0.084381
0.039867
-0.0883739
0.0414496
-0.0911451
0.0426077
-0.0934057
0.0435428
-0.0955345
0.0443529
-0.0976983
0.0450791
-0.099957
0.0457383
-0.102328
0.0463386
-0.104813
0.046885
-0.107411
0.047382
-0.110122
0.047834
-0.112942
0.0482465
-0.115871
0.0486242
-0.1189
0.0489708
-0.122023
0.0492898
-0.125235
0.049583
-0.128536
-0.131918
0.0498466
0.00190325
-0.00621568
0.00709471
-0.0237406
0.014126
-0.0435346
0.0209989
-0.0609761
0.0264444
-0.0736841
0.0301785
-0.081817
0.0325114
-0.0867139
0.0339203
-0.0897828
0.034803
-0.0920278
0.0354079
-0.0940105
0.0358606
-0.0959872
0.0362152
-0.0980529
0.0364929
-0.100235
0.036702
-0.102537
0.0368476
-0.104958
0.0369342
-0.107498
0.036967
-0.110154
0.0369512
-0.112927
0.036891
-0.115811
0.0367881
-0.118797
0.0366453
-0.12188
0.0364652
-0.125054
0.0362463
-0.128317
-0.131667
0.035996
0.00211386
-0.00832953
0.00735595
-0.0289827
0.0137467
-0.0499254
0.0193826
-0.066612
0.0234131
-0.0777146
0.0258834
-0.0842873
0.0272283
-0.0880587
0.0278986
-0.0904531
0.0282069
-0.0923361
0.0283218
-0.0941254
0.0283184
-0.0959839
0.0282257
-0.0979602
0.0280546
-0.100064
0.0278108
-0.102293
0.0274985
-0.104646
0.0271221
-0.107121
0.0266856
-0.109718
0.0261921
-0.112433
0.0256446
-0.115263
0.0250467
-0.1182
0.0244032
-0.121237
0.0237194
-0.124371
0.0229987
-0.127596
0.0222482
-0.130917
-0.00176862
0.00355179
-0.00178317
-0.00542406
0.00708409
-0.00342864
-0.0100668
0.00875054
-0.0041078
-0.0152299
0.00949646
-0.00433334
-0.0207164
0.0098617
-0.00437524
-0.0264595
0.0100814
-0.00433821
-0.032431
0.010216
-0.00424457
-0.0386035
0.0102643
-0.00409179
-0.0449428
0.0102139
-0.00387461
-0.0514076
0.0100544
-0.00358953
-0.0579511
0.00977849
-0.003235
-0.0645216
0.00938191
-0.00281138
-0.071064
0.0088631
-0.00232078
-0.0775197
0.00822274
-0.00176697
-0.08383
0.00746332
-0.00115306
-0.0899444
0.0065902
-0.000475809
-0.0957912
0.00561335
0.000233443
-0.101276
0.0045475
0.000937089
-0.106351
0.00339505
0.0016803
-0.110953
0.0021577
0.00244462
-0.114999
0.000825704
0.00321936
-0.118439
-0.000547838
0.00398867
-0.121239
-0.00192867
0.00472824
-0.00336615
-0.123302
0.00542896
-0.00131902
0.0048708
-0.00426249
0.0100276
-0.00815797
0.012646
-0.0125717
0.0139102
-0.0172711
0.0145611
-0.0221502
0.0149604
-0.0271548
0.0152206
-0.032241
0.0153505
-0.0373612
0.0153341
-0.0424623
0.0151554
-0.0474861
0.0148023
-0.0523707
0.0142665
-0.0570514
0.0135438
-0.0614619
0.0126332
-0.0655361
0.0115374
-0.0692085
0.0102626
-0.0724123
0.00881711
-0.0750745
0.00720976
-0.0771279
0.00544847
-0.0785111
0.0035409
-0.0791729
0.00148744
-0.0790299
-0.000690768
-0.0780292
-0.00292944
-0.00537629
-0.076019
-0.000713039
0.00558384
-0.00264
0.0119545
-0.00543972
0.0154457
-0.00875876
0.0172292
-0.0123339
0.0181363
-0.0160081
0.0186347
-0.0196917
0.0189042
-0.0233209
0.0189798
-0.0268367
0.0188499
-0.0301777
0.0184964
-0.0332796
0.0179042
-0.0360763
0.0170632
-0.0385001
0.0159676
-0.0404828
0.0146159
-0.0419562
0.0130109
-0.0428527
0.0111591
-0.0431055
0.0090699
-0.0426494
0.00675365
-0.0414193
0.00421841
-0.0393383
0.00145989
-0.0364037
-0.00144723
-0.0325104
-0.004584
-0.0276387
-0.00780114
-0.0116176
-0.0213974
-7.25899e-05
0.00565643
-0.000818755
0.0127007
-0.00228963
0.0169166
-0.00426762
0.0192072
-0.00649257
0.0203612
-0.00876018
0.0209023
-0.0109371
0.0210811
-0.0129355
0.0209782
-0.0146855
0.0205999
-0.0161218
0.0199326
-0.0171798
0.0189623
-0.0177955
0.0176789
-0.0179052
0.0160773
-0.0174468
0.0141575
-0.0163603
0.0119244
-0.0145887
0.00938752
-0.0120798
0.00656103
-0.00878534
0.00345915
-0.00464011
7.31742e-05
0.000321661
-0.00350187
0.00613815
-0.00726372
0.0130358
-0.0114817
0.0208261
-0.0155914
-0.0207378
0.0299462
0.000487767
0.00516867
0.000900609
0.0122878
0.000851005
0.0169662
0.000351789
0.0197064
-0.000392695
0.0211057
-0.00115755
0.0216671
-0.00177
0.0216935
-0.0021098
0.021318
-0.002091
0.0205811
-0.00164438
0.019486
-0.000708339
0.0180262
0.000774405
0.0161962
0.0028567
0.013995
0.00558694
0.0114273
0.00900697
0.00850436
0.0131528
0.00524173
0.0180557
0.00165814
0.0237427
-0.00222785
0.0301794
-0.00636361
0.0375355
-0.0108579
0.0456631
-0.0153913
0.0549568
-0.0207754
0.0649271
-0.0255617
-0.0324839
0.0766732
0.000868938
0.00429973
0.00224783
0.010909
0.00352392
0.0156901
0.00450856
0.0187218
0.0052798
0.0203345
0.00602828
0.0209186
0.00694697
0.0207748
0.00818607
0.0200789
0.00985285
0.0189143
0.0120244
0.0173145
0.0147586
0.0152921
0.0181002
0.0128546
0.022083
0.0100122
0.02673
0.00678023
0.0320595
0.00317493
0.0380477
-0.000746552
0.0447691
-0.0050632
0.052204
-0.0096628
0.0603748
-0.0145344
0.0694074
-0.0198906
0.0792462
-0.02523
0.0903734
-0.0319026
0.102256
-0.0374442
-0.0463536
0.116126
0.00103048
0.00326925
0.00301943
0.00892002
0.00531094
0.0133986
0.00757322
0.0164595
0.00974174
0.0181659
0.0119167
0.0187437
0.0142577
0.0184338
0.0169168
0.0174199
0.0200119
0.0158192
0.0236251
0.0137013
0.0278076
0.0111095
0.0325883
0.00807384
0.0379778
0.00462281
0.0439304
0.00082756
0.0505358
-0.00343041
0.0577992
-0.00800999
0.0656976
-0.0129616
0.0743045
-0.0182696
0.0837989
-0.0240288
0.0942491
-0.0303408
0.105937
-0.0369181
0.118981
-0.0449468
0.13332
-0.0517825
-0.0624553
0.149421
0.000987343
0.0022819
0.00315681
0.00675055
0.00597048
0.0105849
0.00906491
0.0133651
0.0122714
0.0149595
0.0155819
0.0154332
0.0190788
0.0149369
0.0228709
0.0136277
0.0270544
0.0116357
0.0316966
0.00905907
0.0368344
0.00597179
0.042478
0.00243025
0.0486465
-0.00154573
0.055463
-0.00598894
0.0628691
-0.0108365
0.0709967
-0.0161376
0.080002
-0.0219669
0.0900487
-0.0283163
0.101431
-0.0354112
0.114086
-0.0429958
0.128514
-0.0513464
0.143937
-0.0603692
0.16105
-0.0688961
-0.0798376
0.178433
0.000795114
0.00148679
0.00274986
0.00479581
0.00553023
0.00780457
0.00884386
0.0100514
0.0124932
0.0113101
0.0163925
0.011534
0.0205407
0.0107887
0.0249813
0.0091872
0.02977
0.00684701
0.0349594
0.00386959
0.0405643
0.000366927
0.0467659
-0.0037713
0.0536305
-0.00841041
0.0612727
-0.0136311
0.0699021
-0.0194659
0.0797583
-0.0259938
0.091007
-0.0332157
0.103832
-0.0411415
0.118178
-0.0497573
0.133834
-0.058652
0.150687
-0.0681994
0.16746
-0.0771413
0.184929
-0.0863654
-0.0950017
0.200093
0.000517473
0.000969316
0.00197877
0.00333451
0.00426559
0.00551775
0.00721128
0.00710574
0.0106593
0.00786203
0.0145065
0.00768682
0.0187126
0.00658254
0.0232937
0.00460609
0.0283107
0.00182999
0.0338842
-0.0017039
0.040227
-0.00597582
0.0474727
-0.011017
0.0559018
-0.0168395
0.0657421
-0.0234714
0.0771617
-0.0308855
0.0902243
-0.0390564
0.104771
-0.0477623
0.12059
-0.0569611
0.137018
-0.0661844
0.153722
-0.0753559
0.169646
-0.0841244
0.184264
-0.0917589
0.197219
-0.09932
-0.104213
0.20643
0.000212637
0.00075668
0.00106043
0.00248672
0.00261623
0.00396195
0.00485308
0.00486889
0.00771029
0.00500481
0.0111504
0.00424668
0.015195
0.00253795
0.0199477
-0.000146618
0.0255879
-0.0038102
0.0323618
-0.00847776
0.040537
-0.0141511
0.0503271
-0.0208071
0.0618561
-0.0283685
0.0750801
-0.0366954
0.0897678
-0.0455732
0.105478
-0.054767
0.121638
-0.0639222
0.137544
-0.0728671
0.152417
-0.0810568
0.165786
-0.0887254
0.176703
-0.0950405
0.185772
-0.100828
0.191915
-0.105463
-0.108333
0.196036
-5.41354e-05
0.000250072
0.00114451
0.00275101
0.00516052
0.00849198
0.0129297
0.0187131
0.0261156
0.0353476
0.0464906
0.0594312
0.073842
0.0891977
0.104836
0.120002
0.134007
0.146169
0.156168
0.163731
0.169033
0.172847
0.175121
0.179722
-0.119859
-0.0118806
0.00843755
-0.114714
-0.0149727
0.00982779
-0.108031
-0.0176973
0.0110144
-0.0995837
-0.0206993
0.0122521
-0.0893478
-0.0235394
0.0133035
-0.0771781
-0.0263226
0.0141529
-0.062961
-0.0290881
0.0148711
-0.0466858
-0.0316173
0.015342
-0.0284771
-0.0338222
0.0156134
-0.00867523
-0.0353603
0.0155584
0.0120677
-0.036115
0.0153721
0.0329545
-0.0359995
0.0151127
0.053116
-0.0349336
0.0147721
0.0718343
-0.0330768
0.0143585
0.0886229
-0.0306709
0.0138822
0.103216
-0.0279857
0.0133923
0.115605
-0.0252921
0.0129035
0.125971
-0.0227649
0.012399
0.134575
-0.0205133
0.0119089
0.141702
-0.018572
0.0114448
0.147624
-0.0169198
0.0109984
0.152576
-0.0155123
0.0105607
0.156761
-0.0143013
0.0101157
0.160338
-0.0132616
0.00968433
0.163439
-0.0123631
0.00926232
0.166175
-0.0115617
0.00882614
0.168627
-0.0108215
0.00836957
0.17085
-0.0101169
0.00789394
0.172873
-0.00941753
0.00739407
0.174701
-0.00867452
0.00684637
0.176318
-0.00783515
0.00621856
0.177699
-0.00688132
0.00549979
0.178831
-0.0058475
0.00471555
0.17972
-0.00479398
0.00390522
0.180393
-0.00376389
0.00309137
0.180886
-0.00275592
0.00226217
0.181238
-0.00174106
0.0013896
0.181474
-0.000665536
0.00042893
0.18162
0.000472164
-0.000617617
0.181688
0.00171957
-0.00178781
0.181689
0.00300372
-0.0030042
0.181626
0.00450779
-0.00444566
0.181513
0.00589651
-0.00578277
0.181346
0.00780928
-0.00764231
0.181143
0.00915487
-0.00895184
0.18089
0.0118143
-0.0115614
0.180615
0.0128198
-0.0125449
0.180291
0.0167342
-0.01641
0.179951
0.0170805
-0.0167406
0.17957
0.0226068
-0.0222264
0.179165
0.0224382
-0.0220329
0.178739
0.0292895
-0.0288631
0.178275
0.0294165
-0.0289533
0.177797
0.0371272
-0.0366486
0.177292
0.0378629
-0.037358
0.17676
0.0471327
-0.0466004
0.176208
0.047891
-0.0473392
0.175637
0.0593819
-0.0588107
0.175039
0.0607242
-0.0601267
0.0742871
-0.0736671
-0.0727241
-0.0151755
-0.0680474
-0.0196494
-0.0617991
-0.0239456
-0.0541562
-0.0283422
-0.0448968
-0.0327988
-0.0339955
-0.0372238
-0.0213841
-0.0416996
-0.00698825
-0.0460131
0.00886401
-0.0496744
0.0259457
-0.052442
0.0437867
-0.053956
0.0616679
-0.0538807
0.0787885
-0.0520541
0.0944386
-0.0487269
0.108256
-0.0444883
0.120137
-0.039867
0.13009
-0.0352451
0.138301
-0.0309753
0.14501
-0.0272221
0.150479
-0.0240412
0.154958
-0.0213991
0.158661
-0.0192154
0.161764
-0.0174039
0.164403
-0.0159009
0.16669
-0.0146497
0.168714
-0.0135862
0.170543
-0.0126508
0.172224
-0.0117971
0.173783
-0.0109775
0.175232
-0.0101232
0.176557
-0.00916004
0.17773
-0.00805472
0.178726
-0.00684258
0.179532
-0.00560041
0.180161
-0.00439268
0.180637
-0.00323225
0.180989
-0.00209305
0.181239
-0.000915252
0.181402
0.00030915
0.181494
0.00162747
0.181521
0.00297676
0.181486
0.00454228
0.181401
0.00598234
0.181261
0.00794865
0.181085
0.00933071
0.180859
0.0120406
0.18061
0.0130687
0.180311
0.0170332
0.179997
0.0173951
0.179639
0.0229644
0.179258
0.0228188
0.178852
0.0296964
0.178411
0.0298566
0.177949
0.0375899
0.177463
0.0383486
0.176943
0.0476533
0.176405
0.0484287
0.175838
0.0599486
0.175247
0.0613153
0.0749116
-0.0180624
-0.0185105
-0.0139806
-0.0237312
-0.00861463
-0.0293116
-0.00209998
-0.0348568
0.00556785
-0.0404666
0.0146163
-0.0462723
0.0250393
-0.0521226
0.0367924
-0.0577662
0.0497797
-0.0626618
0.0636904
-0.0663527
0.0779871
-0.0682527
0.0920264
-0.06792
0.105194
-0.0652217
0.117015
-0.0605483
0.127251
-0.0547238
0.135946
-0.0485625
0.143177
-0.0424759
0.149107
-0.0369052
0.15394
-0.0320549
0.15787
-0.0279712
0.161078
-0.0246075
0.163722
-0.0218589
0.165928
-0.01961
0.167796
-0.0177695
0.169409
-0.016262
0.17083
-0.0150081
0.17211
-0.0139301
0.173282
-0.0129695
0.174378
-0.0120735
0.17542
-0.0111649
0.17641
-0.0101505
0.17733
-0.00897477
0.17815
-0.00766208
0.178846
-0.00629672
0.179415
-0.00496128
0.179867
-0.00368442
0.18022
-0.00244628
0.180491
-0.00118566
0.180683
0.000116974
0.180812
0.0014981
0.180881
0.00290784
0.180891
0.00453195
0.180852
0.00602179
0.18076
0.00804094
0.180631
0.00945912
0.180453
0.0122193
0.180252
0.0132697
0.18
0.0172845
0.179734
0.0176614
0.179423
0.0232752
0.179092
0.0231501
0.17873
0.0300586
0.178339
0.0302474
0.177919
0.0380096
0.177481
0.0387871
0.177001
0.0481334
0.176507
0.0489226
0.175975
0.06048
0.175422
0.0618682
0.0755079
0.0320745
-0.0206388
0.0353121
-0.0269688
0.0394253
-0.0334248
0.0444472
-0.0398788
0.0505292
-0.0465486
0.0577905
-0.0535336
0.0661917
-0.0605238
0.075574
-0.0671484
0.0857564
-0.0728442
0.096311
-0.0769072
0.10672
-0.0786619
0.116511
-0.0777105
0.125346
-0.0740568
0.133048
-0.0682509
0.139606
-0.0612818
0.145164
-0.0541202
0.149934
-0.0472459
0.153992
-0.0409634
0.157456
-0.0355182
0.160412
-0.0309279
0.162934
-0.027129
0.165086
-0.0240109
0.166926
-0.0214505
0.168506
-0.0193487
0.169872
-0.0176284
0.171069
-0.0162048
0.172127
-0.0149882
0.17307
-0.0139129
0.173928
-0.0129314
0.174735
-0.011972
0.175515
-0.01093
0.176265
-0.00972488
0.176963
-0.00836022
0.177584
-0.00691772
0.178115
-0.00549268
0.17856
-0.00412874
0.178927
-0.00281401
0.17923
-0.00148813
0.179465
-0.000118204
0.179646
0.00131726
0.179772
0.00278146
0.179844
0.00445991
0.179869
0.00599677
0.179843
0.00806708
0.179782
0.00952012
0.179672
0.0123295
0.17954
0.0134014
0.179359
0.0174659
0.179164
0.0178563
0.178923
0.0235157
0.178666
0.0234077
0.178374
0.0303509
0.178058
0.0305628
0.177708
0.0383594
0.177345
0.039151
0.176934
0.0485443
0.176513
0.0493432
0.176048
0.0609455
0.175564
0.0623513
0.0760429
0.0776243
-0.0215899
0.0795826
-0.028927
0.0822428
-0.036085
0.0856451
-0.0432811
0.0900496
-0.0509531
0.0954221
-0.058906
0.101617
-0.0667192
0.108404
-0.0739352
0.115433
-0.0798726
0.122237
-0.0837112
0.128385
-0.0848101
0.133662
-0.0829882
0.138081
-0.0784753
0.141813
-0.0719829
0.145062
-0.0645308
0.147992
-0.0570503
0.150829
-0.0500824
0.153593
-0.0437277
0.156233
-0.0381583
0.158718
-0.0334131
0.161012
-0.0294227
0.16309
-0.0260895
0.164945
-0.0233055
0.166581
-0.0209844
0.168016
-0.0190633
0.169277
-0.0174652
0.170382
-0.0160937
0.171347
-0.0148778
0.172195
-0.01378
0.172967
-0.0127436
0.173699
-0.0116623
0.174407
-0.0104324
0.175078
-0.00903141
0.175691
-0.00753087
0.176232
-0.00603385
0.176701
-0.00459764
0.177106
-0.00321903
0.177456
-0.00183803
0.177755
-0.000417116
0.178
0.00107225
0.178199
0.00258216
0.17835
0.00430967
0.178457
0.0058896
0.178515
0.00800843
0.178541
0.00949412
0.17852
0.0123509
0.178479
0.0134426
0.178389
0.0175555
0.178288
0.0179573
0.178142
0.0236624
0.177982
0.0235674
0.177785
0.030548
0.17757
0.0307773
0.177317
0.0386125
0.177055
0.0394127
0.176742
0.0488573
0.176424
0.0496611
0.176056
0.0613145
0.175674
0.0627332
0.0764837
0.116787
-0.0222509
0.118112
-0.0302523
0.11988
-0.0378529
0.122071
-0.0454721
0.124753
-0.0536349
0.127833
-0.0619863
0.131234
-0.07012
0.13474
-0.0774415
0.137965
-0.0830971
0.140532
-0.0862789
0.142205
-0.0864824
0.143102
-0.0838856
0.1436
-0.0789737
0.144126
-0.072508
0.144984
-0.0653896
0.146272
-0.0583381
0.147967
-0.0517775
0.150076
-0.0458363
0.152389
-0.040472
0.154751
-0.0357749
0.157055
-0.0317268
0.159229
-0.0282631
0.161229
-0.025305
0.163031
-0.0227873
0.164637
-0.020669
0.16606
-0.0188885
0.167316
-0.0173489
0.168412
-0.015974
0.169367
-0.0147354
0.17022
-0.0135961
0.171013
-0.0124556
0.171772
-0.0111915
0.172494
-0.00975343
0.173161
-0.00819806
0.17376
-0.00663254
0.174289
-0.005127
0.174758
-0.00368813
0.175177
-0.00225652
0.175555
-0.000795266
0.175881
0.000746092
0.176169
0.0022941
0.176414
0.00406498
0.176621
0.00568301
0.176782
0.00784682
0.176914
0.0093619
0.177002
0.0122636
0.177072
0.0133726
0.177095
0.0175319
0.177111
0.0179422
0.177081
0.0236922
0.177042
0.0236057
0.176965
0.0306253
0.176877
0.0308657
0.176747
0.0387421
0.176614
0.0395455
0.176428
0.0490438
0.176242
0.0498474
0.176
0.0615563
0.17575
0.0629828
0.0767976
0.149963
-0.0227924
0.150787
-0.0310769
0.151624
-0.0386892
0.152493
-0.0463416
0.153404
-0.0545461
0.154132
-0.0627136
0.154343
-0.0703313
0.153816
-0.0769144
0.152615
-0.0818964
0.150747
-0.0844111
0.14827
-0.084005
0.145617
-0.0812326
0.143379
-0.0767358
0.141993
-0.0711217
0.141643
-0.0650394
0.142246
-0.0589414
0.143572
-0.0531032
0.145418
-0.0476821
0.147646
-0.0427007
0.150014
-0.0381432
0.152372
-0.0340844
0.154635
-0.0305257
0.156752
-0.0274228
0.158694
-0.0247295
0.160448
-0.0224228
0.16202
-0.0204599
0.16342
-0.0187488
0.164656
-0.0172099
0.165741
-0.0158211
0.166709
-0.014564
0.167603
-0.0133496
0.168454
-0.0120426
0.169266
-0.0105655
0.170025
-0.00895613
0.170714
-0.00732244
0.171334
-0.00574643
0.171892
-0.00424625
0.172401
-0.00276508
0.172874
-0.0012682
0.173298
0.000321253
0.173691
0.00190147
0.174046
0.00370984
0.174369
0.00536014
0.174651
0.00756465
0.174908
0.00910482
0.175123
0.0120484
0.175325
0.0131709
0.175483
0.0173741
0.175636
0.017789
0.175746
0.0235825
0.175852
0.0234994
0.175919
0.0305582
0.175982
0.0308033
0.176001
0.0387222
0.176024
0.0395229
0.175992
0.0490759
0.175965
0.049874
0.175881
0.0616409
0.175794
0.0630698
0.076952
0.178266
-0.0226252
0.177933
-0.0307449
0.177076
-0.0378313
0.175795
-0.0450613
0.174062
-0.0528127
0.171676
-0.0603281
0.168415
-0.0670701
0.16419
-0.0726891
0.158959
-0.076666
0.153318
-0.0787701
0.147895
-0.0785812
0.143237
-0.0765754
0.139812
-0.0733106
0.137809
-0.0691182
0.137154
-0.0643848
0.137608
-0.0593956
0.138856
-0.0543514
0.140618
-0.0494436
0.142723
-0.0448055
0.145059
-0.0404794
0.147424
-0.0364498
0.149721
-0.032822
0.151898
-0.0296003
0.153926
-0.026757
0.155782
-0.0242794
0.157464
-0.0221413
0.158977
-0.0202621
0.160329
-0.0185624
0.161532
-0.0170234
0.16261
-0.0156427
0.163606
-0.0143453
0.164553
-0.0129901
0.165464
-0.0114756
0.166325
-0.00981798
0.167124
-0.00812087
0.167853
-0.00647592
0.168521
-0.00491369
0.169138
-0.00338282
0.169723
-0.00185266
0.170263
-0.000219102
0.170776
0.00138826
0.171258
0.00322847
0.171713
0.00490472
0.172133
0.00714508
0.172533
0.00870492
0.172894
0.0116867
0.173247
0.0128179
0.17356
0.0170619
0.173872
0.0174768
0.174143
0.0233112
0.174416
0.0232262
0.174651
0.0303229
0.174888
0.0305665
0.175084
0.0385269
0.175287
0.0393193
0.175437
0.0489259
0.175598
0.0497131
0.1757
0.0615385
0.175806
0.0629643
0.0769148
0.198442
-0.0209739
0.196062
-0.0283654
0.192756
-0.0345248
0.188767
-0.0410725
0.184034
-0.0480796
0.178437
-0.054731
0.172014
-0.0606472
0.164903
-0.0655781
0.157436
-0.0691989
0.150025
-0.071359
0.143539
-0.0720959
0.138501
-0.0715369
0.135068
-0.0698776
0.133135
-0.0671857
0.132484
-0.0637331
0.132851
-0.0597629
0.133976
-0.0554761
0.135616
-0.0510843
0.137593
-0.0467818
0.139817
-0.0427034
0.142152
-0.0387856
0.144458
-0.0351275
0.146667
-0.0318097
0.148747
-0.0288365
0.150674
-0.0262061
0.152438
-0.0239059
0.154044
-0.0218679
0.155498
-0.0200162
0.156807
-0.0183329
0.157991
-0.0168268
0.159085
-0.0154393
0.160126
-0.0140311
0.161133
-0.0124824
0.162101
-0.0107862
0.163017
-0.00903595
0.163869
-0.0073285
0.164662
-0.00570671
0.165406
-0.00412677
0.166114
-0.00256054
0.166794
-0.000899195
0.16744
0.000742744
0.168063
0.00260483
0.168667
0.00430074
0.16924
0.00657184
0.1698
0.008145
0.170326
0.0111609
0.170849
0.0122949
0.171335
0.0165762
0.171826
0.0169854
0.17228
0.0228573
0.172742
0.0227647
0.173168
0.0298963
0.173603
0.0301323
0.173998
0.0381313
0.174407
0.0389101
0.174766
0.0485669
0.175141
0.0493384
0.17546
0.06122
0.175786
0.0626376
0.0766545
0.20361
-0.0181538
0.199462
-0.0242179
0.194266
-0.0293284
0.188375
-0.0351816
0.181737
-0.0414418
0.174425
-0.0474184
0.166684
-0.052907
0.15877
-0.0576636
0.151128
-0.0615576
0.144062
-0.0642926
0.138005
-0.0660392
0.133398
-0.0669299
0.130251
-0.0667304
0.128387
-0.0653219
0.127629
-0.0629749
0.127796
-0.0599297
0.12871
-0.05639
0.130183
-0.0525581
0.13204
-0.048638
0.134135
-0.0447984
0.136388
-0.0410393
0.13868
-0.0374191
0.140923
-0.0340527
0.143058
-0.0309713
0.145049
-0.0281968
0.146886
-0.0257432
0.148575
-0.0235571
0.150125
-0.0215663
0.151542
-0.0197493
0.152836
-0.0181208
0.154035
-0.0166388
0.155177
-0.0151729
0.156287
-0.0135923
0.157368
-0.0118673
0.158408
-0.0100763
0.159396
-0.00831605
0.160329
-0.00664015
0.161216
-0.00501338
0.162068
-0.00341254
0.162899
-0.00173047
0.163696
-5.42673e-05
0.164478
0.00182262
0.165247
0.00353245
0.165989
0.00582925
0.166726
0.00740847
0.167432
0.0104544
0.168143
0.011584
0.168821
0.0158988
0.16951
0.0162957
0.170167
0.0222007
0.170837
0.0220945
0.171478
0.029256
0.172131
0.0294789
0.172751
0.0375114
0.17339
0.0382715
0.173984
0.0479729
0.174598
0.048724
0.175161
0.060657
0.175737
0.062062
0.0761401
0.1933
-0.015418
0.188953
-0.0198708
0.183694
-0.0240696
0.177791
-0.0292785
0.17125
-0.0349009
0.164289
-0.0404567
0.15716
-0.0457784
0.150108
-0.0506112
0.14339
-0.0548404
0.137294
-0.0581963
0.132126
-0.0608711
0.12802
-0.0628241
0.124993
-0.0637029
0.123019
-0.0633481
0.122055
-0.0620106
0.121998
-0.0598731
0.122703
-0.0570946
0.124007
-0.0538626
0.125729
-0.0503601
0.127705
-0.0467736
0.12984
-0.0431744
0.132068
-0.0396477
0.134327
-0.0363119
0.136552
-0.0331961
0.13866
-0.0303045
0.140621
-0.0277047
0.142437
-0.0253721
0.144116
-0.0232462
0.145668
-0.0213005
0.147097
-0.0195501
0.148426
-0.0179683
0.149692
-0.0164383
0.150924
-0.0148248
0.152134
-0.0130774
0.153314
-0.0112558
0.15445
-0.00945218
0.155538
-0.00772868
0.156584
-0.00605862
0.157597
-0.00442632
0.158587
-0.00271952
0.159564
-0.00103203
0.160517
0.000869627
0.161467
0.0025824
0.162395
0.00490137
0.163325
0.00647891
0.164228
0.00955094
0.165144
0.0106681
0.166031
0.0150122
0.166937
0.0153893
0.167816
0.0213221
0.168714
0.0211963
0.169589
0.0283809
0.170482
0.0285856
0.171349
0.0366441
0.17224
0.0373811
0.173094
0.047119
0.173972
0.047846
0.174806
0.0598222
0.175657
0.0612112
0.0753414
0.177527
-0.0132237
0.174048
-0.0163911
0.170031
-0.0200526
0.165303
-0.0245503
0.159958
-0.0295568
0.154263
-0.0347612
0.148413
-0.0399289
0.142614
-0.0448117
0.137045
-0.0492717
0.131941
-0.0530926
0.127315
-0.0562445
0.123173
-0.058682
0.119644
-0.0601741
0.117155
-0.0608591
0.115759
-0.0606148
0.115328
-0.059442
0.115724
-0.057491
0.11679
-0.0549282
0.11835
-0.0519205
0.120241
-0.0486641
0.122366
-0.0452998
0.124647
-0.0419287
0.126968
-0.0386324
0.129246
-0.035474
0.131445
-0.0325038
0.133531
-0.0297909
0.135495
-0.0273361
0.137339
-0.0250902
0.139063
-0.0230247
0.140668
-0.0211553
0.14217
-0.0194695
0.143599
-0.0178681
0.144991
-0.0162165
0.146361
-0.014447
0.147705
-0.0126003
0.149013
-0.0107603
0.15028
-0.00899496
0.151506
-0.00728521
0.152704
-0.00562439
0.153879
-0.00389388
0.155047
-0.00220057
0.156187
-0.000270235
0.157337
0.00143229
0.158468
0.00377014
0.159608
0.00533889
0.160726
0.00843357
0.161864
0.00952973
0.162977
0.0138992
0.164118
0.0142486
0.165237
0.0202028
0.166382
0.0200519
0.167512
0.0272505
0.168665
0.0274331
0.169801
0.0355072
0.170965
0.0362177
0.172103
0.0459812
0.173267
0.0466814
0.1744
0.0586895
0.17555
0.0600608
0.0742292
0.207591
-0.0112232
-0.209592
0.206492
-0.0152921
0.205398
-0.0189584
0.203861
-0.0230133
0.201772
-0.0274682
0.199169
-0.0321578
0.196114
-0.0368744
0.19269
-0.0413875
0.188962
-0.0455431
0.185065
-0.0491964
0.181056
-0.0522353
0.177004
-0.0546303
0.173061
-0.0562305
0.169258
-0.0570562
0.165736
-0.0570924
0.162591
-0.0562976
0.159871
-0.0547712
0.157609
-0.0526654
0.155811
-0.0501226
0.154447
-0.0473005
0.153474
-0.0443269
0.152834
-0.0412886
0.152476
-0.0382744
0.152354
-0.0353515
0.152414
-0.032564
0.152599
-0.0299757
0.152861
-0.0275986
0.153167
-0.0253959
0.153492
-0.0233493
0.153814
-0.0214781
0.154118
-0.0197735
0.154397
-0.0181465
0.154656
-0.016476
0.15491
-0.0147008
0.155167
-0.0128575
0.155428
-0.0110214
0.155688
-0.00925445
0.15594
-0.00753722
0.156181
-0.00586519
0.15641
-0.00412371
0.156629
-0.00241877
0.156846
-0.000487106
0.157037
0.00124094
0.157226
0.00358152
0.157402
0.00516233
0.157577
0.00825884
0.157738
0.00936817
0.157898
0.0137391
0.158052
0.0140949
0.158197
0.0200581
0.158351
0.0198976
0.158486
0.0271158
0.158641
0.0272775
0.15878
0.035369
0.158937
0.0360602
0.159084
0.0458343
0.159255
0.0465107
0.159413
0.058531
0.1596
0.0598739
0.0740468
0.216668
-0.00982191
-0.218069
0.215216
-0.0138406
0.21394
-0.0176826
0.212388
-0.0214606
0.210398
-0.0254783
0.207926
-0.0296855
0.205003
-0.0339513
0.20171
-0.0380946
0.198117
-0.0419504
0.194313
-0.0453926
0.190384
-0.0483063
0.186402
-0.0506477
0.18251
-0.0523389
0.178786
-0.0533319
0.175318
-0.0536248
0.172216
-0.053196
0.169538
-0.0520929
0.167307
-0.0504339
0.165523
-0.0483395
0.164153
-0.0459303
0.163147
-0.0433207
0.162462
-0.0406034
0.162052
-0.037864
0.161864
-0.035164
0.161851
-0.0325512
0.161963
-0.0300879
0.162159
-0.0277945
0.162408
-0.0256448
0.162687
-0.0236285
0.162976
-0.0217669
0.163256
-0.0200532
0.163516
-0.0184071
0.163761
-0.016721
0.164003
-0.0149418
0.164249
-0.0131041
0.164503
-0.0112753
0.16476
-0.0095111
0.165013
-0.00779085
0.16526
-0.00611189
0.165499
-0.00436268
0.165727
-0.00264648
0.16594
-0.000700757
0.166146
0.00103551
0.166345
0.00338261
0.166531