/*--------------------------------*- C++ -*----------------------------------*\
| =========                 |                                                 |
| \\      /  F ield         | OpenFOAM: The Open Source CFD Toolbox           |
|  \\    /   O peration     | Version:  2512                                  |
|   \\  /    A nd           | Website:  www.openfoam.com                      |
|    \\/     M anipulation  |                                                 |
\*---------------------------------------------------------------------------*/
FoamFile
{
    version     2.0;
    format      ascii;
    arch        "LSB;label=32;scalar=64";
    class       volScalarField;
    location    "85.6";
    object      p;
}
// * * * * * * * * * * * * * * * * * * * * * * * * * * * * * * * * * * * * * //

dimensions      [0 2 -2 0 0 0 0];

internalField   nonuniform List<scalar> 
13248
(
-0.360542
-0.361
-0.359341
-0.35613
-0.351603
-0.34613
-0.340231
-0.33452
-0.329656
-0.326029
-0.32369
-0.322331
-0.321369
-0.320093
-0.317848
-0.314184
-0.308922
-0.302092
-0.29377
-0.284136
-0.272831
-0.260475
-0.245109
-0.227863
-0.367397
-0.367102
-0.365178
-0.362128
-0.358168
-0.353481
-0.348344
-0.343067
-0.337908
-0.332984
-0.328244
-0.323485
-0.318414
-0.312758
-0.306336
-0.299083
-0.290986
-0.282044
-0.272235
-0.261492
-0.249798
-0.237075
-0.22301
-0.208853
-0.376548
-0.375192
-0.372683
-0.369439
-0.365646
-0.361333
-0.356451
-0.350914
-0.344662
-0.337707
-0.330118
-0.321985
-0.313399
-0.304443
-0.295176
-0.285608
-0.275701
-0.265413
-0.254655
-0.243457
-0.23163
-0.219371
-0.206402
-0.193132
-0.387654
-0.385018
-0.381692
-0.377966
-0.373992
-0.369559
-0.364214
-0.35753
-0.349347
-0.339833
-0.329356
-0.318328
-0.307084
-0.295828
-0.284637
-0.273499
-0.262367
-0.251163
-0.239847
-0.228346
-0.216641
-0.204852
-0.192711
-0.18108
-0.400835
-0.396833
-0.392562
-0.388208
-0.383691
-0.37845
-0.371674
-0.362852
-0.35205
-0.33978
-0.326704
-0.313387
-0.300198
-0.287312
-0.274769
-0.262536
-0.250543
-0.238728
-0.227024
-0.215408
-0.203856
-0.192392
-0.180939
-0.169894
-0.416527
-0.411098
-0.405875
-0.400703
-0.395092
-0.388075
-0.378747
-0.366916
-0.353106
-0.338156
-0.322846
-0.307711
-0.293037
-0.278923
-0.265363
-0.252297
-0.23966
-0.227383
-0.215419
-0.203725
-0.192277
-0.181091
-0.170092
-0.159623
-0.435072
-0.428165
-0.421933
-0.415605
-0.408065
-0.398105
-0.385201
-0.369801
-0.352893
-0.335465
-0.318229
-0.301586
-0.285697
-0.270584
-0.256201
-0.242481
-0.22935
-0.216742
-0.204598
-0.192874
-0.18154
-0.170556
-0.159915
-0.149761
-0.456515
-0.448098
-0.440685
-0.432594
-0.422012
-0.407956
-0.390749
-0.371564
-0.351661
-0.331971
-0.313027
-0.295055
-0.278102
-0.262126
-0.247054
-0.232799
-0.21928
-0.206422
-0.194159
-0.182437
-0.171202
-0.16042
-0.150084
-0.140196
-0.4805
-0.470564
-0.461628
-0.450851
-0.435994
-0.416926
-0.395076
-0.372159
-0.349459
-0.327699
-0.307192
-0.288006
-0.270091
-0.253356
-0.237694
-0.223004
-0.209189
-0.196164
-0.18385
-0.172176
-0.161079
-0.150512
-0.140447
-0.130774
-0.506162
-0.494741
-0.483738
-0.469092
-0.448826
-0.424218
-0.397721
-0.371285
-0.346003
-0.322335
-0.300381
-0.280074
-0.26129
-0.243886
-0.227729
-0.212694
-0.198669
-0.18555
-0.173246
-0.161674
-0.150758
-0.140447
-0.13067
-0.121269
-0.53221
-0.519315
-0.505447
-0.485665
-0.459131
-0.428815
-0.397873
-0.368186
-0.340545
-0.315132
-0.291861
-0.270555
-0.251017
-0.233063
-0.216524
-0.201254
-0.187119
-0.174001
-0.161795
-0.150406
-0.139753
-0.129769
-0.12034
-0.111328
-0.556958
-0.542578
-0.52483
-0.49875
-0.465441
-0.429512
-0.394445
-0.361828
-0.33209
-0.305151
-0.280758
-0.258632
-0.238515
-0.220175
-0.203412
-0.18805
-0.173937
-0.16094
-0.148939
-0.137832
-0.127537
-0.117979
-0.109029
-0.100608
-0.414604
-0.414781
-0.414419
-0.414382
-0.415353
-0.417653
-0.421473
-0.427023
-0.434559
-0.444353
-0.456646
-0.471595
-0.489226
-0.509387
-0.531707
-0.555601
-0.580284
-0.604826
-0.628221
-0.649306
-0.667115
-0.680621
-0.689173
-0.690565
-0.410316
-0.409145
-0.40804
-0.407345
-0.407681
-0.409389
-0.41271
-0.417915
-0.42534
-0.435354
-0.448293
-0.46439
-0.483703
-0.506088
-0.531072
-0.557944
-0.585727
-0.613273
-0.639341
-0.662603
-0.682023
-0.696243
-0.704582
-0.706357
-0.405633
-0.403309
-0.401521
-0.400245
-0.399903
-0.400903
-0.403534
-0.408089
-0.414932
-0.424474
-0.437096
-0.453061
-0.472443
-0.495062
-0.520435
-0.547772
-0.576012
-0.603901
-0.630145
-0.653252
-0.672593
-0.686037
-0.694404
-0.695236
-0.40004
-0.396918
-0.394555
-0.39264
-0.391457
-0.391467
-0.393019
-0.396429
-0.402063
-0.41033
-0.42162
-0.436213
-0.454198
-0.475401
-0.499348
-0.52526
-0.5521
-0.578577
-0.60356
-0.625592
-0.643998
-0.656979
-0.664643
-0.664001
-0.393477
-0.390016
-0.387238
-0.384638
-0.382399
-0.381038
-0.381009
-0.382695
-0.386482
-0.392772
-0.401947
-0.414293
-0.429918
-0.448686
-0.470174
-0.493677
-0.518251
-0.542692
-0.56614
-0.586983
-0.604758
-0.616865
-0.623548
-0.62047
-0.386216
-0.382908
-0.379931
-0.37668
-0.373242
-0.370177
-0.368088
-0.367507
-0.368911
-0.372736
-0.37937
-0.389105
-0.402071
-0.418178
-0.437071
-0.458085
-0.480491
-0.503321
-0.525524
-0.545317
-0.561759
-0.572226
-0.576214
-0.56852
-0.378686
-0.375965
-0.373035
-0.369269
-0.364667
-0.35979
-0.355397
-0.352232
-0.350948
-0.352095
-0.356119
-0.363341
-0.37392
-0.387809
-0.404757
-0.423957
-0.444981
-0.466557
-0.487228
-0.505092
-0.518663
-0.525116
-0.5234
-0.509068
-0.371342
-0.369508
-0.366827
-0.362751
-0.357221
-0.350765
-0.344253
-0.338642
-0.334809
-0.333486
-0.335239
-0.340455
-0.349315
-0.361751
-0.377422
-0.395845
-0.415626
-0.435179
-0.452942
-0.466566
-0.474564
-0.474467
-0.465698
-0.445538
-0.364669
-0.363848
-0.361506
-0.357312
-0.351216
-0.343706
-0.335706
-0.328328
-0.322653
-0.319614
-0.319932
-0.324052
-0.332126
-0.343894
-0.358655
-0.375281
-0.392256
-0.407685
-0.419993
-0.42702
-0.428121
-0.421628
-0.408272
-0.38644
-0.359379
-0.35946
-0.357416
-0.353253
-0.346989
-0.339105
-0.330542
-0.322471
-0.316104
-0.312468
-0.312362
-0.316086
-0.323492
-0.333977
-0.346451
-0.3595
-0.371445
-0.380668
-0.385871
-0.385976
-0.381358
-0.371417
-0.35796
-0.338679
-0.356439
-0.357095
-0.355264
-0.35127
-0.345309
-0.337756
-0.329597
-0.321917
-0.315927
-0.312551
-0.312295
-0.315307
-0.321153
-0.328924
-0.337347
-0.345019
-0.350514
-0.352886
-0.351452
-0.346417
-0.338401
-0.327797
-0.316406
-0.300736
-0.356737
-0.35753
-0.355843
-0.352208
-0.346923
-0.340202
-0.333116
-0.326489
-0.321191
-0.317976
-0.31715
-0.318544
-0.32153
-0.325138
-0.32825
-0.329843
-0.32915
-0.325912
-0.320039
-0.312131
-0.302096
-0.290737
-0.278525
-0.26491
-0.684385
-0.662597
-0.619607
-0.552989
-0.470048
-0.386445
-0.315901
-0.265042
-0.234891
-0.223656
-0.227474
-0.245254
-0.279588
-0.327219
-0.371843
-0.390649
-0.369456
-0.315975
-0.253644
-0.20096
-0.164311
-0.143563
-0.136895
-0.142187
-0.162119
-0.202184
-0.257295
-0.304382
-0.313928
-0.281038
-0.224027
-0.170161
-0.133184
-0.112612
-0.107707
-0.12089
-0.148607
-0.170148
-0.166084
-0.142043
-0.114514
-0.0955561
-0.0882482
-0.092511
-0.102549
-0.107724
-0.100666
-0.0904838
-0.0770996
-0.0681615
-0.0646089
-0.0635972
-0.0587704
-0.0541229
-0.0492628
-0.0478633
-0.0523562
-0.05547
-0.0367298
-0.00842514
-0.70028
-0.6777
-0.635437
-0.569004
-0.484361
-0.397811
-0.323682
-0.268811
-0.232859
-0.214243
-0.211151
-0.221855
-0.247935
-0.287802
-0.328542
-0.347856
-0.331253
-0.286146
-0.232739
-0.187247
-0.155391
-0.13858
-0.13565
-0.14481
-0.169439
-0.215397
-0.276118
-0.327521
-0.338493
-0.302713
-0.240027
-0.179565
-0.136338
-0.109939
-0.099019
-0.105194
-0.126154
-0.142882
-0.139432
-0.120241
-0.100135
-0.0882481
-0.0878477
-0.0993352
-0.115551
-0.124111
-0.114773
-0.101081
-0.0823898
-0.0675151
-0.0584677
-0.0531793
-0.0487185
-0.0456096
-0.0455595
-0.0496145
-0.0579194
-0.0661241
-0.0441876
-0.00899857
-0.687292
-0.664198
-0.623979
-0.56005
-0.477789
-0.392417
-0.318719
-0.263128
-0.224774
-0.201182
-0.190798
-0.193182
-0.209462
-0.239438
-0.273818
-0.29392
-0.28376
-0.248996
-0.205909
-0.168009
-0.141395
-0.128906
-0.129684
-0.142367
-0.170962
-0.22127
-0.285937
-0.34096
-0.355709
-0.318338
-0.251644
-0.185815
-0.137404
-0.106017
-0.0896482
-0.0894349
-0.104224
-0.116815
-0.114466
-0.099009
-0.0854375
-0.0800646
-0.0867418
-0.105934
-0.12872
-0.14079
-0.128815
-0.111148
-0.0872125
-0.0667552
-0.052553
-0.0430246
-0.0388167
-0.0370964
-0.0418679
-0.0511278
-0.0630264
-0.0761987
-0.0514627
-0.00953486
-0.652535
-0.62816
-0.590562
-0.529903
-0.45244
-0.373378
-0.304518
-0.250632
-0.211747
-0.185581
-0.170279
-0.164894
-0.170895
-0.189683
-0.215614
-0.234647
-0.231256
-0.207158
-0.174418
-0.144205
-0.122935
-0.114543
-0.118561
-0.133914
-0.164705
-0.217116
-0.284619
-0.343059
-0.365027
-0.326358
-0.258049
-0.188519
-0.136314
-0.101049
-0.0802539
-0.0744573
-0.0838231
-0.0927762
-0.0907728
-0.0786542
-0.070584
-0.070953
-0.0845923
-0.111773
-0.141603
-0.157396
-0.142552
-0.120479
-0.0914313
-0.0658576
-0.0469967
-0.0333049
-0.0292239
-0.0286728
-0.0381769
-0.0523842
-0.0676063
-0.085567
-0.058481
-0.010036
-0.603562
-0.576574
-0.541928
-0.486534
-0.416907
-0.347126
-0.285807
-0.235595
-0.196941
-0.16905
-0.150308
-0.139699
-0.137207
-0.144895
-0.16117
-0.176545
-0.17896
-0.163085
-0.140032
-0.117218
-0.100956
-0.0961379
-0.102908
-0.120064
-0.151261
-0.203222
-0.271127
-0.332061
-0.356694
-0.32517
-0.258891
-0.187901
-0.133295
-0.0953467
-0.0711919
-0.0608279
-0.0654388
-0.0713643
-0.0693591
-0.0595765
-0.0557286
-0.0608366
-0.0809284
-0.116321
-0.153624
-0.173381
-0.155765
-0.128944
-0.0949818
-0.0648159
-0.0418998
-0.0241735
-0.0200482
-0.0204141
-0.0344667
-0.053386
-0.0715958
-0.0941252
-0.0651732
-0.0105135
-0.543928
-0.513759
-0.48334
-0.435791
-0.376864
-0.318203
-0.265375
-0.220069
-0.182843
-0.153848
-0.132497
-0.117751
-0.109219
-0.108062
-0.114654
-0.124049
-0.1283
-0.119564
-0.105119
-0.0888096
-0.0769885
-0.0752065
-0.0841987
-0.102503
-0.132718
-0.181538
-0.246532
-0.308401
-0.33729
-0.314325
-0.2538
-0.184145
-0.12864
-0.0891771
-0.0626934
-0.0487439
-0.0493403
-0.0528813
-0.0507092
-0.0422466
-0.0411442
-0.0498665
-0.075739
-0.119033
-0.163941
-0.188039
-0.168148
-0.136403
-0.0977917
-0.0636235
-0.0373577
-0.015769
-0.0113974
-0.012406
-0.0307307
-0.0541297
-0.0749373
-0.1018
-0.0714695
-0.0109809
-0.476793
-0.445916
-0.422062
-0.384552
-0.337767
-0.290566
-0.246069
-0.205718
-0.170617
-0.141369
-0.118111
-0.100269
-0.0871884
-0.0792488
-0.0776183
-0.0807214
-0.0839435
-0.0797454
-0.071789
-0.0607827
-0.0527545
-0.0533409
-0.0639032
-0.0827714
-0.111037
-0.154746
-0.214058
-0.274051
-0.307925
-0.295181
-0.243367
-0.177642
-0.122807
-0.0829109
-0.0550374
-0.0383578
-0.0356225
-0.0373391
-0.0349554
-0.0270087
-0.0273183
-0.0384335
-0.0687264
-0.119458
-0.171871
-0.200648
-0.179427
-0.142769
-0.0998235
-0.0622561
-0.0334221
-0.00821364
-0.00336345
-0.00472546
-0.0269798
-0.0546327
-0.0776093
-0.10854
-0.0772984
-0.011449
-0.409177
-0.3818
-0.365666
-0.338181
-0.302706
-0.265706
-0.228834
-0.193433
-0.161005
-0.132351
-0.107973
-0.087936
-0.0716815
-0.0589943
-0.0508587
-0.0478277
-0.0482785
-0.0491519
-0.041736
-0.0346877
-0.029762
-0.0321106
-0.0435391
-0.0623647
-0.088172
-0.126092
-0.177885
-0.233902
-0.271815
-0.269555
-0.228441
-0.168795
-0.116089
-0.0767416
-0.0483761
-0.0297462
-0.0242517
-0.0245339
-0.0220998
-0.0141252
-0.0146699
-0.0269114
-0.0602845
-0.117246
-0.176287
-0.210274
-0.188966
-0.147926
-0.101047
-0.0606718
-0.030071
-0.00159573
0.00395359
0.00252506
-0.0232237
-0.054897
-0.0796026
-0.114296
-0.0826012
-0.0119278
-0.351807
-0.330489
-0.320332
-0.300377
-0.273612
-0.244555
-0.214047
-0.183247
-0.153732
-0.126432
-0.10182
-0.0803687
-0.0620468
-0.0464011
-0.0337583
-0.0252377
-0.0210592
-0.01935
-0.0148066
-0.0111921
-0.00892527
-0.0124792
-0.0241208
-0.0426262
-0.0660375
-0.0976723
-0.141117
-0.191687
-0.231491
-0.239784
-0.210213
-0.158024
-0.108639
-0.0706384
-0.0426325
-0.022802
-0.0150837
-0.0141444
-0.0119588
-0.00379584
-0.00355077
-0.0157107
-0.0501229
-0.111922
-0.177341
-0.216467
-0.196712
-0.151816
-0.101455
-0.058851
-0.0272687
0.00403145
0.0105051
0.00930519
-0.0194755
-0.0549803
-0.0809581
-0.119029
-0.0873388
-0.0124351
-0.309956
-0.29406
-0.286491
-0.270645
-0.249713
-0.226557
-0.20132
-0.174803
-0.148233
-0.122633
-0.0985575
-0.0764832
-0.0568373
-0.0394688
-0.0242724
-0.0119363
-0.00332539
0.00174593
0.00472612
0.00833288
0.00866766
0.00424833
-0.00686396
-0.024205
-0.0452683
-0.0719098
-0.107353
-0.149901
-0.190199
-0.203052
-0.187652
-0.14515
-0.100643
-0.0647894
-0.0379157
-0.0175601
-0.00804369
-0.00591784
-0.00420433
0.00399451
0.00570279
-0.00550185
-0.039361
-0.103578
-0.173586
-0.2184
-0.201168
-0.154155
-0.101148
-0.0569094
-0.0251392
0.00857692
0.0161703
0.0154674
-0.0157707
-0.0548423
-0.0816514
-0.122683
-0.0914266
-0.0129839
-0.279241
-0.268543
-0.261795
-0.248088
-0.231126
-0.212405
-0.191491
-0.168757
-0.14503
-0.121229
-0.0981017
-0.0761218
-0.0557599
-0.0372011
-0.0203821
-0.00564487
0.00637311
0.0150365
0.0207235
0.0244787
0.0227893
0.0181462
0.00801984
-0.00787824
-0.0267893
-0.0484846
-0.0765524
-0.113658
-0.153238
-0.182919
-0.16891
-0.133739
-0.0939855
-0.0602299
-0.0346761
-0.0142043
-0.00305244
0.000407828
0.00146874
0.00933433
0.0130213
0.00409486
-0.0275741
-0.0920797
-0.166887
-0.216841
-0.204334
-0.155534
-0.100607
-0.0550383
-0.0236292
0.0118531
0.0226053
0.0211227
-0.0120609
-0.0546251
-0.0818012
-0.125253
-0.0946417
-0.0135175
-0.254088
-0.249756
-0.242763
-0.230067
-0.215877
-0.200707
-0.183797
-0.164904
-0.144332
-0.122781
-0.101049
-0.0797324
-0.0593922
-0.0403399
-0.0225887
-0.00654328
0.00720188
0.0186873
0.0276896
0.0319325
0.0321737
0.027627
0.0194062
0.00584105
-0.0113628
-0.0300422
-0.0521576
-0.0812454
-0.114375
-0.139984
-0.138633
-0.115711
-0.084114
-0.0539106
-0.0302616
-0.0107405
0.00126276
0.00588837
0.00636597
0.0128358
0.0178134
0.0108307
-0.0166859
-0.0785054
-0.154781
-0.209937
-0.200543
-0.154454
-0.0987876
-0.0523149
-0.0213298
0.0145583
0.0259092
0.0257415
-0.00841754
-0.0541173
-0.081257
-0.126712
-0.0967144
-0.0138757
-0.227833
-0.235212
-0.227242
-0.212551
-0.19685
-0.18136
-0.165399
-0.148086
-0.129206
-0.109284
-0.0890823
-0.0692109
-0.0501434
-0.0321136
-0.0150482
0.00077867
0.014689
0.0265566
0.0362801
0.0424213
0.0418564
0.0366458
0.0289127
0.0184127
0.00510395
-0.0103136
-0.029003
-0.0560543
-0.0903869
-0.119342
-0.119936
-0.0978722
-0.0696447
-0.0429163
-0.0219899
-0.00491637
0.00633942
0.0108787
0.0108764
0.0165858
0.0252936
0.0197206
-0.00409134
-0.0631731
-0.141206
-0.202056
-0.198776
-0.149797
-0.093407
-0.0473916
-0.0176749
0.0177725
0.0294846
0.0302131
-0.00462747
-0.0535411
-0.0803761
-0.127144
-0.097902
-0.0140775
-0.199979
-0.210401
-0.204496
-0.18996
-0.174216
-0.159526
-0.145308
-0.130239
-0.113693
-0.0959517
-0.0777123
-0.0596103
-0.0421172
-0.0254048
-0.00948172
0.00526217
0.0183101
0.0296879
0.0392769
0.0449602
0.0455766
0.0410973
0.0345219
0.0263192
0.015589
0.00294229
-0.0122936
-0.0372253
-0.0706976
-0.0976197
-0.0972584
-0.0783043
-0.0548272
-0.0323667
-0.0144536
-1.68868e-05
0.010067
0.0144551
0.0142486
0.0191718
0.025562
0.0243389
0.00385253
-0.0514567
-0.128779
-0.191866
-0.188832
-0.142081
-0.0868779
-0.042089
-0.0142147
0.0201848
0.0316761
0.0333039
-0.00185984
-0.05347
-0.0795265
-0.126298
-0.0982672
-0.0142898
-0.175937
-0.186718
-0.182975
-0.170381
-0.155981
-0.142473
-0.129653
-0.116279
-0.101566
-0.0855852
-0.0689309
-0.0522153
-0.0359084
-0.0202529
-0.00527234
0.00876692
0.0212928
0.0320802
0.0412356
0.047277
0.0482829
0.044445
0.0389633
0.0327525
0.0241364
0.0135613
0.000594943
-0.0211989
-0.0511939
-0.0757739
-0.0752607
-0.0604533
-0.0417326
-0.0231449
-0.00788324
0.00438585
0.0133994
0.0174785
0.0169623
0.0210894
0.0282855
0.0271402
0.00824771
-0.0439054
-0.117005
-0.177356
-0.176215
-0.132346
-0.0796952
-0.0367675
-0.0109319
0.0219529
0.0334209
0.0354781
-0.000161299
-0.0539932
-0.0785102
-0.124075
-0.0976533
-0.0145165
-0.155323
-0.164922
-0.162618
-0.151991
-0.138992
-0.126472
-0.114628
-0.102526
-0.0893921
-0.075122
-0.0601278
-0.0449571
-0.0300542
-0.0156476
-0.00180766
0.0112114
0.0229565
0.0331395
0.0417706
0.0478231
0.0495365
0.0468377
0.0428295
0.0390706
0.0339663
0.0265553
0.0150459
-0.00544061
-0.0331822
-0.0509133
-0.0538512
-0.0430344
-0.0289418
-0.0142236
-0.00162482
0.00845623
0.0161109
0.0197677
0.0189838
0.022331
0.0299205
0.0290779
0.0112483
-0.0369221
-0.102582
-0.158693
-0.159709
-0.120166
-0.0715172
-0.0312117
-0.0075779
0.0230974
0.0344077
0.0368282
0.000945124
-0.0544506
-0.0770722
-0.120417
-0.095784
-0.0146918
-0.136
-0.144788
-0.14346
-0.134553
-0.123036
-0.111665
-0.100922
-0.0901552
-0.0786138
-0.0660456
-0.0526904
-0.0389972
-0.0253929
-0.0121536
0.000606615
0.012655
0.0236304
0.0332225
0.0413862
0.0473567
0.0497485
0.0484522
0.046166
0.0447902
0.0434131
0.0392295
0.0283253
0.00786941
-0.0168093
-0.0315286
-0.0341691
-0.0273084
-0.0175476
-0.00635974
0.00385081
0.0121604
0.0184386
0.0215799
0.0204171
0.0230187
0.0304503
0.029891
0.0137497
-0.0284045
-0.0852861
-0.136486
-0.139168
-0.105749
-0.0626576
-0.0257469
-0.00435785
0.0235836
0.0345577
0.037345
0.00189401
-0.0544587
-0.0751561
-0.115093
-0.0924402
-0.0147674
-0.118236
-0.126465
-0.125797
-0.118347
-0.108308
-0.0981884
-0.0885732
-0.0790054
-0.0688189
-0.057712
-0.0458156
-0.033508
-0.0211925
-0.00915373
0.00248615
0.0135192
0.0236559
0.0326175
0.0403198
0.0461231
0.0491427
0.0492364
0.0485414
0.0487859
0.0493357
0.046731
0.0369651
0.0188996
-0.0012281
-0.0136186
-0.0171705
-0.0136394
-0.00736194
0.000785822
0.00878203
0.0155101
0.02039
0.022998
0.0214029
0.0233159
0.0300403
0.0296756
0.0161473
-0.0190607
-0.0667717
-0.11191
-0.116727
-0.0895729
-0.053257
-0.0204328
-0.00131757
0.0234178
0.0338692
0.0369573
0.00275491
-0.0538307
-0.0726511
-0.107985
-0.0874046
-0.0146532
-0.102634
-0.10992
-0.109652
-0.103436
-0.0947596
-0.0858484
-0.0773099
-0.0688347
-0.0598667
-0.0501042
-0.039606
-0.0286689
-0.0176336
-0.00677243
0.00377009
0.0138049
0.0231001
0.0314276
0.0387465
0.0443043
0.0477891
0.0490092
0.0494828
0.050487
0.0514292
0.0495969
0.0420371
0.0279433
0.0121068
0.00132505
-0.00322261
-0.0022498
0.00131785
0.00693648
0.0129963
0.0184225
0.0220909
0.0241949
0.022223
0.0234861
0.0290846
0.0286082
0.0177388
-0.0104674
-0.0483994
-0.0863479
-0.092801
-0.0722668
-0.0435804
-0.0154204
0.00140006
0.0227004
0.0323864
0.0355952
0.00344966
-0.0522279
-0.0693428
-0.0990399
-0.0805112
-0.0142594
-0.0883927
-0.0948199
-0.0948975
-0.0897525
-0.0823057
-0.0745286
-0.0670221
-0.0595794
-0.0517389
-0.0432149
-0.0340127
-0.0243563
-0.0145362
-0.00481233
0.00466312
0.0137239
0.0221834
0.0298258
0.0364737
0.0419852
0.0457916
0.0478363
0.0491185
0.0504883
0.0514568
0.0502192
0.0446534
0.0341322
0.0218523
0.0124679
0.00750989
0.00683546
0.00852771
0.0122137
0.0166209
0.0208883
0.0235951
0.025165
0.0231293
0.0238224
0.0279619
0.0268314
0.0182724
-0.00302415
-0.03102
-0.061379
-0.0688355
-0.0547855
-0.0338837
-0.0107118
0.00372415
0.021671
0.0302374
0.0332836
0.00410387
-0.0490748
-0.0648917
-0.0883367
-0.0717151
-0.0134783
-0.0752542
-0.0811337
-0.0815087
-0.0772769
-0.0709253
-0.0641918
-0.0576508
-0.0511672
-0.044357
-0.0369558
-0.0289373
-0.0204739
-0.0118096
-0.00317705
0.00527705
0.0134031
0.0210521
0.0280319
0.0341955
0.0394138
0.0433514
0.0459327
0.0477397
0.0492889
0.0502176
0.0493233
0.0451595
0.037435
0.028102
0.0202715
0.015477
0.0139059
0.0143408
0.0166011
0.0196516
0.0228759
0.0249192
0.0258974
0.0241625
0.0244872
0.0271144
0.024605
0.0183388
0.00351277
-0.0154044
-0.0385081
-0.046336
-0.0382209
-0.0244583
-0.00628733
0.0056401
0.02071
0.0277268
0.0303181
0.0051251
-0.0437208
-0.058893
-0.0761672
-0.0611918
-0.0122268
-0.0635917
-0.0688554
-0.0693997
-0.0659421
-0.0605598
-0.0547676
-0.0491088
-0.0435031
-0.0376297
-0.0312478
-0.0243125
-0.0169536
-0.00937061
-0.0017664
0.00572054
0.0129572
0.0198258
0.0261588
0.0318333
0.0367219
0.0406338
0.0434892
0.0455791
0.0471815
0.0480428
0.0473798
0.044288
0.0386936
0.0317256
0.0254072
0.0211463
0.0192168
0.0188775
0.020152
0.0221586
0.0244527
0.0260206
0.026468
0.0252766
0.0253546
0.0269635
0.0240135
0.01871
0.00915519
-0.00227909
-0.0190447
-0.0268019
-0.0236671
-0.0156133
-0.00212527
0.00727972
0.0202891
0.0253887
0.0273265
0.00715417
-0.0356535
-0.0510089
-0.0630954
-0.0494194
-0.0104695
-0.0531804
-0.0577737
-0.0584405
-0.0556584
-0.0511321
-0.046183
-0.0413238
-0.0365154
-0.0314905
-0.0260313
-0.0200793
-0.013729
-0.00714378
-0.000498983
0.00608135
0.0124791
0.0186011
0.0243034
0.0294803
0.0340107
0.0377773
0.0407025
0.0429038
0.0445039
0.0453313
0.0448974
0.0426627
0.0386591
0.0335281
0.0285785
0.0250154
0.0230791
0.0223168
0.0229226
0.0241627
0.0256806
0.0268563
0.0269854
0.0263429
0.0262677
0.0274545
0.0247836
0.0201565
0.0142552
0.00801276
-0.00404778
-0.0114741
-0.0118533
-0.00762613
0.00172426
0.00882104
0.0206813
0.0238887
0.0251738
0.0107406
-0.024881
-0.0411622
-0.0499225
-0.0372359
-0.00827591
-0.043684
-0.0477888
-0.0485738
-0.0463618
-0.0425791
-0.0383798
-0.0342386
-0.0301466
-0.0258825
-0.0212497
-0.0161804
-0.0107421
-0.00506808
0.000691028
0.0064286
0.0120407
0.017452
0.0225439
0.0272248
0.0313765
0.0349182
0.0377778
0.0399809
0.041558
0.0423936
0.0421947
0.0406525
0.0378396
0.0341337
0.0303823
0.0275116
0.0257528
0.0248207
0.0249852
0.0256946
0.0266202
0.0274501
0.027494
0.0272551
0.0270791
0.0282531
0.0266558
0.0231248
0.0194557
0.0156113
0.00643539
-0.000476187
-0.0027941
-0.000703737
0.00521339
0.0105198
0.0216654
0.0236329
0.0245903
0.0158565
-0.0124057
-0.0298677
-0.0375526
-0.0257534
-0.00584923
-0.0352153
-0.0388832
-0.0397194
-0.0379726
-0.034834
-0.0312978
-0.0277959
-0.0243414
-0.0207515
-0.0168502
-0.0125662
-0.00794676
-0.00309853
0.00185204
0.00681389
0.0116962
0.0164388
0.0209433
0.0251303
0.0288969
0.0321709
0.034883
0.0370206
0.0385636
0.0394351
0.0394666
0.0384885
0.0365793
0.0339678
0.0312212
0.0289786
0.0274833
0.0265488
0.0264443
0.0267925
0.0273075
0.0278681
0.0279358
0.0279447
0.0277358
0.028955
0.0288829
0.0266266
0.0240625
0.0207827
0.0134552
0.0071813
0.00352718
0.00498553
0.00830275
0.0124676
0.0227831
0.0243527
0.0256741
0.0214322
-0.00037096
-0.0184804
-0.0267305
-0.0160682
-0.00352694
-0.0277212
-0.0309191
-0.0317617
-0.0304105
-0.0278341
-0.0248807
-0.0219418
-0.0190472
-0.0160481
-0.0127902
-0.00920142
-0.0053117
-0.00120364
0.00301734
0.00727286
0.0114857
0.0156064
0.0195527
0.0232589
0.0266363
0.0296209
0.0321429
0.0341762
0.0356765
0.0365981
0.036837
0.0363095
0.0350887
0.033321
0.0313883
0.0296916
0.0284839
0.0276382
0.0274
0.0275104
0.0277699
0.0281511
0.0282454
0.0283971
0.0282482
0.0293189
0.0296847
0.0290356
0.026934
0.023749
0.0179516
0.0125754
0.00879413
0.00939868
0.0110251
0.0144383
0.023415
0.0251326
0.0270951
0.0254656
0.00879613
-0.00880926
-0.0179441
-0.00883806
-0.00166373
-0.0209791
-0.0237832
-0.0246357
-0.0236185
-0.0215218
-0.0190723
-0.0166241
-0.0142188
-0.0117357
-0.00903991
-0.00606039
-0.00281271
0.000639247
0.00420765
0.00782656
0.0114309
0.0149799
0.0184052
0.0216543
0.0246479
0.027335
0.0296446
0.0315513
0.0329993
0.0339654
0.0343786
0.0342084
0.0335114
0.0323824
0.031083
0.0298537
0.0289299
0.0282182
0.0279436
0.0279145
0.0280309
0.0282955
0.0283991
0.0286068
0.0285678
0.0294057
0.0301049
0.0299345
0.0280761
0.0250922
0.0206043
0.0163043
0.0126789
0.0125451
0.0133913
0.0161342
0.0232983
0.0251368
0.0279212
0.0265577
0.0139358
-0.00193379
-0.0112407
-0.00423525
-0.000405565
-0.0149623
-0.0174375
-0.018279
-0.0175284
-0.0158359
-0.0138213
-0.0118004
-0.00982023
-0.00778306
-0.00557178
-0.00311951
-0.000432011
0.00244216
0.00543219
0.00848303
0.0115402
0.0145692
0.017515
0.0203362
0.0229627
0.0253548
0.0274433
0.0292092
0.0305923
0.0315859
0.0321369
0.0322396
0.031935
0.0312846
0.0304704
0.0296285
0.0289661
0.0284058
0.0281547
0.0280625
0.0281105
0.0282916
0.0283955
0.0285819
0.0286421
0.0292322
0.0298361
0.0298475
0.0281736
0.0254704
0.0220099
0.0187576
0.0154451
0.0146329
0.0153658
0.0174282
0.0226087
0.0239801
0.0220481
0.025295
0.0157271
0.00222518
-0.00619503
-0.0016423
0.000324396
-0.00964789
-0.0118048
-0.012609
-0.0120731
-0.0107237
-0.00908305
-0.00742956
-0.00581399
-0.00415883
-0.00236338
-0.000365422
0.00183748
0.00420886
0.00669156
0.0092397
0.0118089
0.0143714
0.0168823
0.0193095
0.0215903
0.0236969
0.0255643
0.0271808
0.028488
0.0294854
0.0301322
0.0304322
0.0304173
0.0301234
0.029674
0.0291431
0.0287058
0.0282994
0.028104
0.0280018
0.0280268
0.0281376
0.0282383
0.0283612
0.0284662
0.0288584
0.0291816
0.0292074
0.027741
0.0253534
0.0226701
0.0202669
0.0173505
0.0161089
0.0169344
0.0183368
0.021682
0.0228216
0.022406
0.0237215
0.0158276
0.00462914
-0.00239611
-0.000103541
0.00070358
-0.00492653
-0.00679585
-0.00755756
-0.00719676
-0.00613619
-0.00481401
-0.00347465
-0.00217054
-0.000840939
0.000600677
0.00221134
0.00399883
0.00593611
0.00797799
0.0100868
0.0122262
0.0143738
0.0164927
0.0185602
0.0205224
0.0223587
0.0240115
0.0254733
0.0266927
0.0276689
0.0283727
0.0288071
0.0289973
0.0289626
0.0287764
0.0284905
0.02824
0.0279785
0.0278531
0.0277684
0.0277946
0.0278447
0.0279353
0.0279917
0.0280785
0.0282826
0.028363
0.0283
0.0270806
0.025039
0.0229364
0.0211112
0.0186677
0.0172135
0.018085
0.0189279
0.0207746
0.0216901
0.0220072
0.0220683
0.0152429
0.00601565
0.000403519
0.0010242
0.000904225
-0.000731998
-0.00235557
-0.0030717
-0.00284915
-0.00202903
-0.000976935
9.53131e-05
0.00113612
0.00219178
0.00333537
0.00461856
0.00605275
0.00761864
0.00928065
0.0110082
0.0127713
0.0145533
0.0163244
0.0180686
0.0197399
0.0213233
0.0227716
0.024076
0.0251966
0.0261298
0.0268543
0.0273681
0.0276941
0.0278573
0.0278411
0.0277417
0.0276407
0.0275051
0.0274505
0.0273937
0.0274289
0.0274343
0.0275046
0.0275104
0.0275415
0.0276233
0.0275111
0.0273122
0.0263515
0.0246724
0.0229909
0.0215055
0.0195573
0.0180805
0.01883
0.0192383
0.0200153
0.0206191
0.0210285
0.0204517
0.014513
0.00684975
0.00240121
0.00198092
0.00103946
0.0029678
0.00156817
0.000907944
0.00102381
0.0016441
0.00246849
0.00331504
0.00413378
0.00495925
0.00585279
0.00686076
0.00799679
0.00924761
0.0105849
0.011984
0.0134214
0.0148839
0.016349
0.0178045
0.0192142
0.0205646
0.0218191
0.0229675
0.023981
0.0248513
0.0255636
0.0261092
0.0264973
0.0267222
0.0268922
0.0269454
0.0269633
0.026929
0.0269359
0.026908
0.0269498
0.0269317
0.0269693
0.026942
0.0269067
0.0268902
0.0266759
0.0263556
0.0256159
0.0242731
0.0228872
0.0215898
0.0200966
0.0187325
0.0191951
0.0192787
0.0193741
0.0196201
0.0197257
0.0188993
0.0138373
0.00738356
0.00376586
0.00272751
0.00114744
0.00622288
0.00502812
0.00442974
0.00447006
0.00492348
0.00555646
0.00621217
0.00684329
0.00747629
0.00816211
0.00894118
0.00982755
0.0108128
0.0118749
0.0129943
0.014152
0.0153376
0.0165326
0.0177353
0.018912
0.0200502
0.0211232
0.0221202
0.0230212
0.0238151
0.0244917
0.0250395
0.0254602
0.0257787
0.0260116
0.0261535
0.0262534
0.0262918
0.0263441
0.026343
0.0263844
0.0263595
0.026362
0.0263122
0.0262203
0.0261194
0.025868
0.0254729
0.0248801
0.0238034
0.0226322
0.0214637
0.0203342
0.019129
0.0192115
0.019082
0.0187725
0.0186619
0.0183252
0.0173984
0.013211
0.00772713
0.00461945
0.00323826
0.00123146
0.00908163
0.00805237
0.00750121
0.00747464
0.00781344
0.0083011
0.00880653
0.00928221
0.009757
0.0102722
0.0108624
0.0115416
0.0123053
0.0131364
0.014019
0.0149382
0.0158855
0.0168549
0.0178315
0.0187995
0.0197455
0.02065
0.0215021
0.0222882
0.0229973
0.0236223
0.024154
0.0245989
0.0249333
0.0252011
0.0253925
0.0255421
0.0256272
0.0257081
0.0257288
0.0257651
0.0257403
0.0257136
0.0256432
0.0255164
0.0253479
0.0250878
0.0246593
0.0241395
0.0232515
0.0222496
0.0211988
0.0202977
0.019246
0.0189577
0.0187026
0.0181522
0.01772
0.0170086
0.015953
0.0125833
0.0079316
0.00508506
0.0035167
0.00128651
0.0115976
0.0107198
0.010221
0.0101479
0.0103692
0.0107206
0.0110926
0.0114532
0.0118064
0.0121867
0.0126248
0.0131345
0.0137149
0.0143535
0.0150377
0.0157565
0.0165058
0.0172741
0.0180563
0.0188397
0.0196136
0.0203633
0.021079
0.0217509
0.0223692
0.0229275
0.0234161
0.0238365
0.0241789
0.0244626
0.0246773
0.0248517
0.0249627
0.0250576
0.025092
0.0251215
0.0250947
0.0250473
0.0249511
0.0248092
0.024596
0.0243306
0.0238965
0.0234037
0.0226456
0.0217812
0.0208416
0.0200511
0.0191265
0.0185307
0.0181855
0.0174946
0.0168031
0.0158455
0.0146213
0.0119316
0.00801858
0.00530014
0.00361022
0.00130573
0.0137995
0.0130527
0.0126043
0.0124988
0.0126353
0.012882
0.0131481
0.0133999
0.0136458
0.0139128
0.0142263
0.0145988
0.01503
0.0155107
0.016031
0.016582
0.0171598
0.0177589
0.0183744
0.018997
0.0196185
0.0202283
0.0208176
0.0213789
0.0219042
0.022388
0.0228209
0.0232033
0.0235265
0.0238029
0.0240194
0.0241991
0.0243191
0.0244159
0.0244547
0.0244762
0.024443
0.0243821
0.0242654
0.0241114
0.0238715
0.0235957
0.0231712
0.0226885
0.0220213
0.0212624
0.0204224
0.0196697
0.0188465
0.0180985
0.0176114
0.01682
0.0159368
0.0148359
0.0134664
0.0112583
0.00799001
0.00536723
0.00358097
0.00129323
0.0157166
0.0150856
0.0146862
0.014559
0.0146275
0.0147877
0.0149654
0.0151314
0.0152916
0.0154672
0.0156794
0.0159393
0.0162476
0.0165977
0.0169819
0.0173931
0.0178283
0.0182841
0.0187573
0.019241
0.0197285
0.0202126
0.0206863
0.0211434
0.021577
0.021983
0.0223526
0.0226858
0.0229729
0.0232261
0.0234276
0.0235963
0.0237114
0.0238002
0.0238347
0.0238458
0.0238017
0.0237299
0.0235958
0.02343
0.0231768
0.0228878
0.0224779
0.0220033
0.0214004
0.0207148
0.0199569
0.0192122
0.018452
0.0176298
0.0170018
0.0161447
0.0151353
0.0139644
0.0125016
0.0105889
0.00785452
0.00534623
0.00348254
0.00125773
0.0173833
0.0168514
0.0164961
0.0163544
0.0163694
0.0164599
0.0165662
0.0166633
0.0167546
0.016857
0.0169877
0.0171566
0.0173648
0.0176078
0.0178794
0.0181746
0.0184911
0.0188266
0.019179
0.0195435
0.019915
0.0202876
0.0206564
0.0210172
0.0213636
0.0216924
0.0219957
0.0222737
0.022523
0.0227346
0.0229065
0.0230518
0.0231504
0.0232228
0.0232451
0.0232418
0.0231848
0.0230998
0.0229523
0.022773
0.0225137
0.0222125
0.021816
0.0213506
0.0207924
0.0201542
0.0194565