/*--------------------------------*- C++ -*----------------------------------*\
| =========                 |                                                 |
| \\      /  F ield         | OpenFOAM: The Open Source CFD Toolbox           |
|  \\    /   O peration     | Version:  2312                                  |
|   \\  /    A nd           | Website:  www.openfoam.com                      |
|    \\/     M anipulation  |                                                 |
\*---------------------------------------------------------------------------*/
FoamFile
{
    version     2.0;
    format      ascii;
    arch        "LSB;label=32;scalar=64";
    class       volScalarField;
    location    "3";
    object      p;
}
// * * * * * * * * * * * * * * * * * * * * * * * * * * * * * * * * * * * * * //

dimensions      [0 2 -2 0 0 0 0];

internalField   nonuniform List<scalar> 
940
(
-0.585075
-0.589545
-0.409116
-0.258884
-0.161804
-0.0860246
-0.534559
-0.492818
-0.388667
-0.258609
-0.175541
-0.113804
-0.640507
-0.449787
-0.357576
-0.227608
-0.159207
-0.0940061
-0.277378
-0.253821
-0.160551
-0.0191792
0.0330325
0.0648706
-0.474607
-0.41995
-0.292506
-0.146932
-0.0453957
0.000812933
-0.62673
-0.583624
-0.388894
-0.232117
-0.124288
-0.0565362
0.0627474
0.0507926
0.0395511
0.0309127
0.0246123
0.0207903
0.018555
0.0172155
0.0162929
0.0155744
0.0148799
0.0140491
0.0128377
0.0109258
0.00809288
0.00325656
0.0177967
0.0323862
0.0370762
0.0333711
0.0277572
0.0232417
0.0205572
0.01882
0.0175475
0.0165713
0.0156758
0.0146547
0.0132397
0.011164
0.00811185
0.00319125
-0.0346663
-0.0088911
0.0131808
0.0219427
0.0236976
0.0225352
0.0209611
0.0196583
0.0184848
0.0174306
0.0163978
0.0152009
0.0136474
0.0115232
0.00832747
0.00328587
-0.0422952
-0.0224309
0.00206903
0.016819
0.0212775
0.0216223
0.0212399
0.0203261
0.0192715
0.0181826
0.0170593
0.0157652
0.0141737
0.0119509
0.00866169
0.003502
-0.0302214
-0.0186646
0.000525157
0.0143796
0.0192935
0.02042
0.0207795
0.0206465
0.0198726
0.0188399
0.0176709
0.0162909
0.0145676
0.012215
0.00884671
0.00363625
-0.0151332
-0.012018
0.000819
0.0131456
0.0186156
0.0201136
0.0207272
0.0210042
0.0205278
0.0195999
0.0184054
0.0169305
0.0150563
0.012545
0.00904186
0.00376687
0.00237232
-5.09091e-05
0.00662749
0.0159472
0.0206632
0.0217003
0.0226886
0.0229796
0.0224318
0.0212727
0.0197543
0.0179425
0.0157656
0.0130236
0.0093209
0.00396069
0.0151835
0.00975276
0.0119647
0.0181918
0.0214603
0.0214669
0.0215089
0.0217151
0.0213096
0.0203764
0.0190823
0.0174601
0.0154457
0.0128969
0.00925964
0.00408787
0.0362902
0.0297346
0.0270749
0.0299831
0.0318919
0.0310339
0.0299471
0.0292201
0.0281157
0.0265226
0.0245523
0.0222326
0.0194401
0.0160989
0.0113965
0.0049857
0.0336512
0.0272054
0.0255078
0.027825
0.0281831
0.0265718
0.0250703
0.0239981
0.0227171
0.021106
0.0192104
0.0170429
0.0144616
0.0116533
0.00750446
0.00338534
0.0618117
0.0554195
0.0500423
0.0491793
0.048113
0.0451067
0.0419668
0.0392927
0.0366477
0.0338737
0.030942
0.0278887
0.0242132
0.0207755
0.0136231
0.00792954
0.0499069
0.0441813
0.0402698
0.0399708
0.0389753
0.0360477
0.0329947
0.0303336
0.0276595
0.0248548
0.0219001
0.0189238
0.0153841
0.012823
0.00662329
0.00500718
0.0694459
0.0635313
0.0584483
0.0563312
0.0541909
0.050668
0.0467934
0.043107
0.0394256
0.0357158
0.0317242
0.0282825
0.0225827
0.0239357
0.00633167
0.0124691
-0.0570374
-0.0710253
-0.0431813
-0.0242021
-0.033621
-0.0332521
-0.00158418
-0.00992153
-0.014613
0.0158821
0.00947099
0.00610092
0.0311072
0.0247514
0.0209564
0.0457892
0.0397924
0.0380007
0.0484258
0.0434494
0.0393142
0.0698907
0.0658098
0.0638377
0.0605486
0.0572674
0.0536816
0.07835
0.0762098
0.0734168
0.0574923
0.0488355
0.0390094
-0.0139737
-0.0422116
-0.318119
-0.00413974
-0.0446943
-0.0670449
-0.180899
-0.222615
-0.593114
-0.0545629
-0.121934
-0.157226
-0.295645
-0.367732
-0.700436
0.213691
0.254345
0.309962
0.377499
0.450563
0.511413
0.186709
0.213381
0.25396
0.298262
0.340859
0.341498
0.130027
0.138169
0.154704
0.160133
0.157915
0.0337601
0.0581326
0.0599176
0.0637451
0.0690414
0.077711
0.0885409
0.103415
0.124507
0.149129
0.177207
0.064336
0.0653014
0.068536
0.0730024
0.0808529
0.0895584
0.103208
0.121941
0.144063
0.165917
0.070443
0.0704667
0.0732896
0.0775541
0.0854106
0.093762
0.108381
0.118846
0.13468
0.128639
0.0759646
0.0754262
0.0770225
0.0797217
0.0863176
0.0918824
0.100862
0.103276
0.0995494
0.081625
0.0813296
0.0801314
0.0808309
0.0825174
0.0869717
0.0893275
0.0924016
0.0916184
0.0794468
0.0707553
0.0880368
0.0854672
0.0846251
0.0836297
0.0862488
0.0847827
0.0859568
0.0812093
0.0689249
0.0595657
0.0965299
0.0937396
0.0912193
0.0909774
0.0891231
0.0836938
0.0817646
0.0750982
0.0625039
0.0547309
0.106733
0.100035
0.0946653
0.0869846
0.0859392
0.0790611
0.0764699
0.069661
0.0587844
0.0535654
0.12266
0.115603
0.107449
0.100687
0.095078
0.0856356
0.0812452
0.0743523
0.064496
0.0604192
0.137617
0.122608
0.110751
0.100044
0.0919147
0.0821671
0.0777823
0.0719162
0.0635482
0.0610067
0.176049
0.154933
0.134556
0.119532
0.109759
0.0990051
0.0932167
0.087018
0.079697
0.0769087
0.195366
0.15675
0.135871
0.120105
0.108382
0.0973045
0.0900245
0.0841224
0.0771484
0.0741074
0.33996
0.215318
0.171803
0.146762
0.129502
0.115986
0.107048
0.100115
0.0934149
0.089754
0.0552919
0.00198407
-0.0429279
0.0473711
0.00501827
-0.0187096
0.043412
0.0156963
0.00195433
0.0437818
0.0236806
0.0163035
0.0461844
0.0326348
0.0297088
0.0555606
0.0455271
0.0440001
0.0574878
0.0483283
0.0463088
0.0741335
0.0682099
0.067938
0.0715644
0.0649493
0.0608722
0.0862683
0.0806233
0.0783057
-0.576462
-0.568037
-0.688713
-0.582925
-0.506519
-0.471257
-0.416809
-0.402888
-0.376171
-0.270069
-0.275825
-0.244667
-0.177936
-0.195698
-0.183274
-0.106764
-0.134233
-0.119671
-0.29522
-0.506515
-0.631942
-0.268205
-0.446794
-0.597377
-0.17095
-0.307386
-0.398228
-0.0329095
-0.160782
-0.24194
0.0252856
-0.0604063
-0.140194
0.0582278
-0.0131896
-0.0749221
0.0557923
0.00354309
-0.0470382
0.0449348
0.0189779
-0.0219439
0.0363522
0.0256148
-0.00193308
0.0286211
0.0233808
0.00724112
0.02282
0.0198752
0.0110151
0.0193725
0.0173828
0.0125222
0.0172973
0.015718
0.0128058
0.0159722
0.0146746
0.0127091
0.0151579
0.0140819
0.0126623
0.0145821
0.0137078
0.0126651
0.0140565
0.01337
0.0126048
0.0134115
0.0129053
0.0123237
0.0124139
0.0120849
0.0116599
0.0106768
0.010471
0.0101839
0.0080659
0.00803562
0.0078827
0.00332511
0.00335275
0.00325487
-0.0603921
-0.0530916
-0.0417407
-0.0320087
-0.0213463
-0.021097
-0.00812316
-0.0216914
-0.0082273
-0.0211178
-0.0359011
-0.0333726
-0.0298078
-0.0249568
-0.0159279
-0.016997
-0.0035381
-0.0175726
-0.00417382
-0.0169537
-0.0117417
-0.0149049
-0.0163066
-0.0158883
-0.0104451
-0.0128986
-0.00188849
-0.014177
-0.00195489
-0.0138629
-0.000369712
-0.0056164
-0.00910081
-0.0113211
-0.00883277
-0.0126087
-0.00332535
-0.0144213
-0.00262511
-0.0133369
0.00527238
0.000341834
-0.00362635
-0.00683021
-0.00613438
-0.011108
-0.00287752
-0.0140946
-0.00235126
-0.0125958
0.00869163
0.00509592
0.00166059
-0.0014984
-0.00170269
-0.00747844
-0.000191215
-0.0118444
-0.000323712
-0.0106116
0.0102943
0.00784848
0.00510888
0.00241932
0.00193616
-0.00414813
0.00241278
-0.00935379
0.00187763
-0.00830445
0.0109473
0.00924116
0.00709345
0.00490006
0.00448512
-0.00155469
0.00457348
-0.00713777
0.00389566
-0.0060539
0.0113725
0.0101534
0.0085009
0.0067432
0.0065383
0.00075064
0.00667999
-0.00491773
0.00602847
-0.00369467
0.0117046
0.0108167
0.00956193
0.00818561
0.00821447
0.00282106
0.00871112
-0.00267924
0.0082871
-0.00121808
0.0118927
0.0112343
0.0102956
0.00925715
0.00946757
0.00458349
0.0105235
-0.000519541
0.0105894
0.00149653
0.0117972
0.0113333
0.0106629
0.00992876
0.0102315
0.00596193
0.011948
0.00135072
0.0126398
0.00370349
0.0112856
0.0109968
0.0105586
0.010103
0.0104136
0.00691773
0.0129105
0.00314063
0.0147219
0.00737993
0.00997375
0.00983085
0.00958709
0.00935816
0.00956315
0.00690279
0.0125045
0.00327987
0.0144349
0.00374427
0.00777143
0.00772555
0.00763929
0.00763241
0.00786656
0.00648814
0.0117128
0.00587885
0.0168881
0.0175225
0.00317315
0.00313446
0.00305848
0.00300316
0.00295093
0.00249058
0.00463362
-0.000409019
0.00671041
-0.00245513
-0.0875962
-0.060349
-0.042776
-0.0314163
-0.02165
-0.0198294
-0.0127568
-0.0227929
-0.0131238
-0.0251016
-0.0946512
-0.0610425
-0.0417253
-0.0287844
-0.0192084
-0.0175694
-0.0109947
-0.0212737
-0.0117923
-0.0245802
-0.0669623
-0.0615174
-0.0455443
-0.0311028
-0.0201941
-0.0186763
-0.0100225
-0.0215803
-0.0103133
-0.0235818
0.0353597
-0.0225542
-0.0774049
0.0284074
-0.05943
-0.141953
0.0210671
-0.0801238
-0.170565
-0.0313022
-0.196861
-0.312317
-0.0585421
-0.237969
-0.384734
-0.335332
-0.61372
-0.73029
0.210045
0.17425
0.107777
0.250832
0.20267
0.117861
0.308111
0.245438
0.137344
0.377324
0.291386
0.144044
0.45265
0.335328
0.143595
0.517167
0.339419
0.0223184
0.0517519
0.0452885
0.0387342
0.0543564
0.0487002
0.0431129
0.0586548
0.0533268
0.0485542
0.0644256
0.0594886
0.0556332
0.0735727
0.0677128
0.064337
0.0846127
0.0786369
0.0755433
0.101355
0.0917616
0.0900616
0.121613
0.111015
0.0977209
0.145395
0.131277
0.112401
0.174329
0.152686
0.108606
0.0327782
0.0269488
0.019454
0.00970935
-0.00202857
-0.0200235
-0.0382014
-0.0784004
-0.102087
-0.243803
0.0375377
0.0319891
0.0251512
0.0156459
0.00547467
-0.0121786
-0.0229857
-0.05833
-0.0691952
-0.123322
0.0435394
0.0380654
0.0314672
0.0221973
0.0125534
-0.00303728
-0.0146166
-0.0407155
-0.0510958
-0.0855815
0.051016
0.0453095
0.0384367
0.0288889
0.0186893
0.00401859
-0.00793262
-0.0293678
-0.0393091
-0.0648269
0.0577007
0.0503316
0.0414493
0.0306538
0.0197569
0.00568154
-0.00561826
-0.0237626
-0.0322038
-0.0519327
0.0696559
0.0604831
0.0505923
0.0377206
0.0251927
0.0100934
-0.00115085
-0.0183672
-0.025884
-0.0426972
0.0741717
0.0589636
0.045626
0.0310027
0.0189997
0.0058568
-0.00359465
-0.01802
-0.0231945
-0.0374997
0.077804
0.0636135
0.0462826
0.0297386
0.017022
0.00445459
-0.00395052
-0.016804
-0.0209014
-0.0335494
0.0795293
0.0548789
0.0406383
0.025781
0.0153774
0.00474294
-0.00183414
-0.0143623
-0.017162
-0.0296194
0.0625505
0.0427262
0.0267927
0.0140442
0.00700568
-0.000613553
-0.0051693
-0.015842
-0.0167261
-0.0282158
0.0331715
0.0213264
0.0107464
0.0030607
-0.000776317
-0.00570279
-0.00755413
-0.0169648
-0.0164671
-0.0267554
-0.0161284
-0.0183211
-0.0101513
-0.00749298
-0.00480406
-0.00715345
-0.00473106
-0.0151399
-0.0126219
-0.0234437
-0.066312
-0.0485018
-0.0310453
-0.0210391
-0.0130792
-0.0131658
-0.00730809
-0.0183076
-0.0114349
-0.0234063
)
;

boundaryField
{
    outlet
    {
        type            fixedValue;
        value           uniform 0;
    }
    upperWall
    {
        type            symmetryPlane;
    }
    lowerWall
    {
        type            symmetryPlane;
    }
    inlet
    {
        type            zeroGradient;
    }
    cylinder
    {
        type            zeroGradient;
    }
    frontAndBack
    {
        type            empty;
    }
}


// ************************************************************************* //
