/*--------------------------------*- C++ -*----------------------------------*\
| =========                 |                                                 |
| \\      /  F ield         | OpenFOAM: The Open Source CFD Toolbox           |
|  \\    /   O peration     | Version:  2512                                  |
|   \\  /    A nd           | Website:  www.openfoam.com                      |
|    \\/     M anipulation  |                                                 |
\*---------------------------------------------------------------------------*/
FoamFile
{
    version     2.0;
    format      ascii;
    arch        "LSB;label=32;scalar=64";
    class       surfaceScalarField;
    location    "33";
    object      phi;
}
// * * * * * * * * * * * * * * * * * * * * * * * * * * * * * * * * * * * * * //

dimensions      [0 3 -1 0 0 0 0];

oriented        oriented;

internalField   nonuniform List<scalar> 
19380
(
0.874553
-5.03136e-05
0.874703
-0.000150436
0.874948
-0.000244451
0.875278
-0.000330191
0.875684
-0.000405779
0.876154
-0.000470363
0.876678
-0.00052427
0.877247
-0.000568168
0.87785
-0.000603216
0.87848
-0.000630624
0.879132
-0.000651497
0.879799
-0.000666809
0.880476
-0.000677385
0.88116
-0.000683903
0.881847
-0.000686927
0.882534
-0.000686945
0.883218
-0.000684344
0.883898
-0.000679409
0.88457
-0.000672343
0.885233
-0.00066331
0.885886
-0.000652449
0.886526
-0.000639881
0.887151
-0.00062572
0.887761
-0.000610095
0.888355
-0.000593157
0.88893
-0.000575076
0.889486
-0.000556034
0.890022
-0.000536218
0.890538
-0.000515824
0.891033
-0.000495048
0.891507
-0.000474034
0.89196
-0.000452917
0.892392
-0.000431866
0.892803
-0.000411032
0.893193
-0.000390548
0.893564
-0.000370518
0.893915
-0.000351034
0.894247
-0.000332163
0.894561
-0.00031396
-0.000296512
0.894857
0.844012
-9.86534e-05
0.844157
-0.000295142
0.844392
-0.000479764
0.84471
-0.000648271
0.845101
-0.000796947
0.845555
-0.000924044
0.846061
-0.00103031
0.84661
-0.00111701
0.847193
-0.0011864
0.847803
-0.00124083
0.848434
-0.00128245
0.84908
-0.00131315
0.849738
-0.00133455
0.850402
-0.00134799
0.851069
-0.00135463
0.851738
-0.00135538
0.852404
-0.00135097
0.853067
-0.00134191
0.853723
-0.00132859
0.854371
-0.00131131
0.855009
-0.00129032
0.855635
-0.00126586
0.856247
-0.00123817
0.856845
-0.00120753
0.857426
-0.00117426
0.85799
-0.00113867
0.858535
-0.00110114
0.85906
-0.00106204
0.859566
-0.00102175
0.860052
-0.000980667
0.860517
-0.000939066
0.860961
-0.000897224
0.861385
-0.000855476
0.861788
-0.000814127
0.862171
-0.000773445
0.862534
-0.000733645
0.862878
-0.000694914
0.863203
-0.000657389
0.86351
-0.000621191
-0.000586486
0.8638
0.814537
-0.000144828
0.814676
-0.000433672
0.814901
-0.000705454
0.815207
-0.000953872
0.815583
-0.00117344
0.816021
-0.00136132
0.816509
-0.00151876
0.81704
-0.00164759
0.817604
-0.00175104
0.818196
-0.00183255
0.818809
-0.00189527
0.819438
-0.00194197
0.820078
-0.00197502
0.820727
-0.00199642
0.82138
-0.00200783
0.822035
-0.00201055
0.82269
-0.00200557
0.823341
-0.00199363
0.823988
-0.00197526
0.824628
-0.00195089
0.825258
-0.00192085
0.825878
-0.00188549
0.826485
-0.00184517
0.827077
-0.0018003
0.827655
-0.00175134
0.828215
-0.0016988
0.828757
-0.00164322
0.82928
-0.00158517
0.829783
-0.00152522
0.830267
-0.00146397
0.830729
-0.0014019
0.831172
-0.0013394
0.831593
-0.00127697
0.831994
-0.00121507
0.832375
-0.00115412
0.832736
-0.00109445
0.833077
-0.00103635
0.8334
-0.00098003
0.833704
-0.000925684
-0.000873567
0.833991
0.786091
-0.000188691
0.786223
-0.000565695
0.786439
-0.000921097
0.786732
-0.00124657
0.787093
-0.00153493
0.787514
-0.0017822
0.787985
-0.00198978
0.788498
-0.00216033
0.789045
-0.00229788
0.789619
-0.00240687
0.790215
-0.00249145
0.790828
-0.00255522
0.791455
-0.00260128
0.792091
-0.0026322
0.792733
-0.00265005
0.793379
-0.00265645
0.794026
-0.00265263
0.794672
-0.00263949
0.795314
-0.00261771
0.795951
-0.00258779
0.79658
-0.00255015
0.7972
-0.0025052
0.797808
-0.0024534
0.798403
-0.00239526
0.798983
-0.0023314
0.799547
-0.00226248
0.800093
-0.00218923
0.80062
-0.00211243
0.801128
-0.00203288
0.801615
-0.00195138
0.802082
-0.00186868
0.802528
-0.00178529
0.802953
-0.00170187
0.803357
-0.00161906
0.80374
-0.00153743
0.804103
-0.00145745
0.804446
-0.00137952
0.80477
-0.00130394
0.805075
-0.00123097
-0.00116098
0.805363
0.758639
-0.000230092
0.758764
-0.000690841
0.758969
-0.0011262
0.759248
-0.00152581
0.759594
-0.0018808
0.759998
-0.00218629
0.760452
-0.00244304
0.760946
-0.00265507
0.761475
-0.00282698
0.762033
-0.00296417
0.762613
-0.00307171
0.763212
-0.00315402
0.763825
-0.00321483
0.76445
-0.00325724
0.765084
-0.00328366
0.765723
-0.00329596
0.766366
-0.00329553
0.76701
-0.0032834
0.767653
-0.00326033
0.768292
-0.00322686
0.768925
-0.00318343
0.76955
-0.0031305
0.770166
-0.00306859
0.770769
-0.00299833
0.771358
-0.00292046
0.771931
-0.0028358
0.772487
-0.0027453
0.773025
-0.00264995
0.773543
-0.00255079
0.77404
-0.00244885
0.774517
-0.00234515
0.774972
-0.00224044
0.775405
-0.00213549
0.775817
-0.00203112
0.776208
-0.0019281
0.776578
-0.00182703
0.776927
-0.00172847
0.777256
-0.00163282
0.777565
-0.00154043
-0.00145176
0.777856
0.732145
-0.00026888
0.732263
-0.000808711
0.732457
-0.00132015
0.732722
-0.00179084
0.733051
-0.00221026
0.733437
-0.00257272
0.733872
-0.00287787
0.734348
-0.0031311
0.734859
-0.00333777
0.735399
-0.0035041
0.735963
-0.00363598
0.736548
-0.00373857
0.737149
-0.00381624
0.737765
-0.0038725
0.738391
-0.00391004
0.739026
-0.00393091
0.739667
-0.00393661
0.740312
-0.00392824
0.740958
-0.00390652
0.741603
-0.00387197
0.742245
-0.00382501
0.74288
-0.00376609
0.743507
-0.00369578
0.744124
-0.0036148
0.744727
-0.00352401
0.745316
-0.00342442
0.745888
-0.00331717
0.746441
-0.00320348
0.746975
-0.00308469
0.747489
-0.00296205
0.74798
-0.00283686
0.74845
-0.00271021
0.748898
-0.00258298
0.749323
-0.00245617
0.749725
-0.00233077
0.750106
-0.00220757
0.750465
-0.00208728
0.750802
-0.00197042
0.751119
-0.00185748
-0.00174901
0.751416
0.706576
-0.000304898
0.706686
-0.000918888
0.706868
-0.00150228
0.707118
-0.00204083
0.70743
-0.00252231
0.707797
-0.00294014
0.708213
-0.0032933
0.708669
-0.00358728
0.70916
-0.00382912
0.709682
-0.0040256
0.710229
-0.00418336
0.710799
-0.00430826
0.711388
-0.0044052
0.711993
-0.00447804
0.712613
-0.00452965
0.713244
-0.00456221
0.713885
-0.00457727
0.714533
-0.0045759
0.715185
-0.00455871
0.715839
-0.00452608
0.716492
-0.00447834
0.717142
-0.0044159
0.717786
-0.00433935
0.71842
-0.00424944
0.719043
-0.00414716
0.719653
-0.00403367
0.720246
-0.00391034
0.720821
-0.00377866
0.721377
-0.00364023
0.721911
-0.0034966
0.722424
-0.00334936
0.722913
-0.00319995
0.72338
-0.0030495
0.723823
-0.00289916
0.724242
-0.00275015
0.724638
-0.00260347
0.725011
-0.00246005
0.725361
-0.00232055
0.725689
-0.0021856
-0.00205589
0.725996
0.681899
-0.000337998
0.682001
-0.00102092
0.682171
-0.00167193
0.682405
-0.00227484
0.682698
-0.00281577
0.683045
-0.00328709
0.68344
-0.00368772
0.683875
-0.00402217
0.684345
-0.00429949
0.684846
-0.00452708
0.685375
-0.00471229
0.685929
-0.00486167
0.686504
-0.00498054
0.687099
-0.00507301
0.687711
-0.00514202
0.688339
-0.00518985
0.68898
-0.005218
0.689631
-0.00522743
0.690291
-0.00521848
0.690956
-0.00519131
0.691624
-0.0051461
0.692291
-0.00508316
0.692955
-0.00500304
0.693612
-0.00490647
0.694259
-0.00479453
0.694894
-0.00466854
0.695514
-0.00453011
0.696116
-0.00438099
0.696699
-0.00422308
0.697261
-0.00405823
0.6978
-0.00388837
0.698315
-0.00371527
0.698806
-0.00354054
0.699272
-0.00336536
0.699714
-0.00319127
0.70013
-0.0030195
0.700521
-0.00285123
0.700888
-0.00268731
0.701231
-0.00252854
-0.0023758
0.70155
0.658084
-0.000368037
0.658178
-0.0011144
0.658334
-0.00182839
0.658551
-0.00249191
0.658825
-0.00308945
0.65915
-0.00361216
0.659521
-0.00405893
0.659933
-0.00443414
0.660381
-0.00474692
0.66086
-0.00500647
0.661368
-0.00522066
0.661903
-0.00539673
0.662463
-0.00554033
0.663046
-0.00565567
0.663649
-0.00574573
0.664272
-0.00581286
0.664913
-0.00585841
0.665568
-0.00588298
0.666237
-0.00588654
0.666914
-0.00586896
0.667598
-0.00583019
0.668285
-0.0057704
0.668972
-0.00568996
0.669656
-0.00558957
0.670331
-0.00547034
0.670997
-0.00533374
0.671648
-0.00518161
0.672283
-0.00501594
0.672899
-0.00483896
0.673493
-0.00465282
0.674065
-0.00445985
0.674612
-0.00426215
0.675133
-0.00406188
0.675628
-0.00386045
0.676097
-0.0036596
0.676538
-0.00346086
0.676952
-0.00326573
0.67734
-0.00307526
0.677702
-0.00289053
-0.00271257
0.678039
0.635101
-0.000394888
0.635185
-0.00119893
0.635328
-0.00197096
0.635527
-0.00269112
0.63578
-0.0033421
0.636081
-0.00391374
0.636427
-0.00440499
0.636814
-0.00482084
0.637236
-0.00516928
0.637691
-0.00546126
0.638176
-0.00570586
0.63869
-0.00591085
0.639232
-0.00608199
0.6398
-0.00622356
0.640393
-0.00633859
0.641009
-0.00642944
0.641648
-0.00649708
0.642307
-0.00654164
0.642983
-0.00656256
0.643673
-0.00655938
0.644375
-0.0065317
0.645084
-0.00647941
0.645796
-0.00640265
0.646509
-0.00630196
0.647217
-0.00617848
0.647917
-0.00603375
0.648605
-0.00586983
0.649278
-0.00568894
0.649933
-0.00549363
0.650566
-0.0052864
0.651177
-0.00507
0.651761
-0.00484691
0.652319
-0.00461978
0.652849
-0.00439057
0.653351
-0.00416116
0.653823
-0.00393336
0.654267
-0.00370907
0.654681
-0.00348963
0.655067
-0.00327639
-0.00307064
0.655425
0.61292
-0.000418454
0.612995
-0.00127416
0.613123
-0.00209906
0.613303
-0.00287164
0.613534
-0.00357247
0.61381
-0.00419029
0.61413
-0.00472427
0.614488
-0.00517959
0.614883
-0.00556414
0.615311
-0.00588874
0.61577
-0.00616496
0.61626
-0.00640094
0.61678
-0.00660234
0.61733
-0.00677354
0.617909
-0.00691765
0.618517
-0.00703691
0.619151
-0.0071317
0.619811
-0.00720152
0.620494
-0.00724523
0.621196
-0.00726193
0.621916
-0.00725077
0.622647
-0.00721117
0.623388
-0.0071429
0.624132
-0.00704625
0.624876
-0.00692234
0.625615
-0.0067727
0.626344
-0.00659959
0.627061
-0.00640538
0.62776
-0.006193
0.628439
-0.00596526
0.629094
-0.0057254
0.629724
-0.00547631
0.630325
-0.00522116
0.630897
-0.00496254
0.631439
-0.00470266
0.631949
-0.00444354
0.632427
-0.00418755
0.632874
-0.00393636
0.633289
-0.00369172
-0.00345518
0.633674
0.591513
-0.000438682
0.591578
-0.00133978
0.591692
-0.00221224
0.591853
-0.00303274
0.59206
-0.0037794
0.59231
-0.00444037
0.592601
-0.00501513
0.592929
-0.00550825
0.593293
-0.0059282
0.593691
-0.00628622
0.594121
-0.00659493
0.594583
-0.0068636
0.595079
-0.00709769
0.595607
-0.00730184
0.596169
-0.00747923
0.596764
-0.00763179
0.597391
-0.00775902
0.598049
-0.00785977
0.598736
-0.00793225
0.599449
-0.00797502
0.600185
-0.00798658
0.600939
-0.00796567
0.601708
-0.00791159
0.602486
-0.00782427
0.603269
-0.00770468
0.60405
-0.00755427
0.604826
-0.0073754
0.605591
-0.00717058
0.606341
-0.00694304
0.607072
-0.00669596
0.60778
-0.00643306
0.608461
-0.00615771
0.609113
-0.00587362
0.609735
-0.00558391
0.610324
-0.00529164
0.610879
-0.00499881
0.6114
-0.00470836
0.611886
-0.00442234
0.612337
-0.00414301
-0.00387225
0.612754
0.570854
-0.000455527
0.570909
-0.00139553
0.571007
-0.00231024
0.571148
-0.00317379
0.571331
-0.00396182
0.571553
-0.00466288
0.571814
-0.00527613
0.572111
-0.00580483
0.572441
-0.00625847
0.572805
-0.00665045
0.573203
-0.00699271
0.573635
-0.0072952
0.574101
-0.007564
0.574603
-0.00780425
0.575143
-0.00801906
0.575721
-0.00820978
0.576337
-0.00837486
0.57699
-0.00851251
0.577678
-0.00862025
0.578399
-0.00869595
0.579149
-0.00873719
0.579926
-0.00874186
0.580723
-0.00870864
0.581535
-0.00863696
0.582358
-0.00852754
0.583185
-0.00838157
0.584011
-0.00820142
0.584831
-0.00798963
0.585637
-0.00774974
0.586427
-0.00748523
0.587194
-0.00720037
0.587935
-0.00689896
0.588647
-0.00658537
0.589326
-0.00626321
0.589971
-0.0059365
0.59058
-0.00560755
0.591151
-0.00527971
0.591684
-0.00495551
0.592179
-0.00463783
-0.00432895
0.592636
0.550916
-0.000468935
0.550961
-0.0014413
0.551044
-0.00239301
0.551164
-0.0032942
0.551322
-0.00411892
0.551516
-0.00485709
0.551746
-0.00550598
0.552008
-0.00606732
0.552302
-0.00655283
0.55263
-0.00697802
0.552992
-0.00735494
0.553389
-0.00769198
0.553822
-0.00799709
0.554294
-0.00827631
0.554808
-0.00853237
0.555364
-0.00876588
0.555963
-0.00897417
0.556605
-0.00915493
0.55729
-0.00930484
0.558015
-0.00942087
0.558777
-0.00949946
0.559573
-0.00953745
0.560397
-0.00953279
0.561244
-0.00948421
0.562109
-0.00939201
0.562984
-0.00925693
0.563864
-0.0090812
0.564741
-0.00886726
0.565611
-0.00861894
0.566465
-0.00833994
0.5673
-0.00803505
0.56811
-0.00770852
0.56889
-0.00736539
0.569636
-0.00700983
0.570346
-0.00664674
0.571018
-0.0062793
0.571649
-0.00591107
0.572239
-0.00554508
0.572786
-0.00518504
-0.00483367
0.573291
0.531674
-0.000478805
0.531709
-0.00147715
0.531777
-0.00246069
0.531876
-0.00339339
0.532008
-0.00425038
0.532173
-0.0050227
0.532371
-0.00570343
0.532597
-0.00629391
0.532854
-0.00680941
0.533143
-0.00726668
0.533465
-0.0076775
0.533823
-0.00805011
0.534219
-0.00839282
0.534656
-0.00871338
0.535138
-0.00901398
0.535666
-0.00929449
0.536243
-0.00955118
0.53687
-0.00978133
0.537545
-0.00998058
0.538269
-0.0101447
0.539039
-0.0102689
0.53985
-0.0103488
0.540699
-0.0103815
0.541579
-0.0103647
0.542485
-0.010298
0.54341
-0.0101817
0.544346
-0.0100175
0.545287
-0.00980768
0.546224
-0.00955621
0.547151
-0.00926692
0.548061
-0.00894506
0.548948
-0.00859528
0.549806
-0.00822335
0.55063
-0.00783403
0.551416
-0.00743307
0.552162
-0.00702474
0.552864
-0.00661317
0.55352
-0.00620167
0.55413
-0.00579494
-0.00539626
0.554693
0.513103
-0.000484956
0.51313
-0.00150349
0.513182
-0.00251333
0.51326
-0.00347089
0.513366
-0.00435657
0.513503
-0.00515967
0.513667
-0.00586733
0.513856
-0.00648328
0.514074
-0.00702675
0.514321
-0.00751435
0.514601
-0.00795731
0.514916
-0.00836515
0.51527
-0.00874714
0.515668
-0.00911085
0.516112
-0.00945847
0.516607
-0.00978957
0.517156
-0.0100995
0.51776
-0.0103852
0.51842
-0.010641
0.519136
-0.0108613
0.519907
-0.0110398
0.520729
-0.0111709
0.521599
-0.0112506
0.522509
-0.0112755
0.523456
-0.0112442
0.52443
-0.0111559
0.525424
-0.011012
0.526431
-0.0108143
0.527441
-0.0105666
0.528447
-0.0102727
0.52944
-0.00993837
0.530414
-0.00956849
0.53136
-0.00916955
0.532273
-0.00874693
0.533147
-0.00830735
0.533978
-0.00785591
0.534763
-0.00739824
0.535499
-0.00693745
0.536183
-0.00647948
-0.00602826
0.536815
0.495181
-0.000487147
0.495199
-0.00152103
0.495236
-0.00255073
0.495292
-0.00352663
0.495374
-0.0044386
0.495482
-0.00526788
0.495611
-0.00599671
0.495763
-0.00663474
0.49594
-0.00720378
0.496145
-0.00771909
0.496379
-0.00819193
0.496648
-0.00863373
0.496956
-0.00905544
0.497309
-0.00946409
0.497711
-0.00986042
0.498167
-0.0102449
0.49868
-0.0106123
0.499254
-0.0109593
0.499891
-0.0112785
0.500593
-0.0115629
0.501358
-0.0118048
0.502184
-0.0119971
0.503068
-0.0121346
0.504005
-0.0122121
0.504988
-0.0122274
0.50601
-0.0121782
0.507063
-0.0120651
0.508138
-0.0118893
0.509226
-0.0116542
0.510317
-0.0113634
0.511401
-0.0110228
0.51247
-0.0106376
0.513515
-0.0102148
0.514529
-0.00976054
0.515504
-0.00928245
0.516435
-0.00878644
0.517316
-0.00827999
0.518145
-0.00776633
0.518918
-0.00725246
-0.0067431
0.519633
0.477884
-0.000485133
0.477894
-0.0015307
0.477916
-0.00257224
0.47795
-0.00356146
0.47801
-0.00449811
0.478089
-0.00534684
0.478183
-0.00609118
0.478297
-0.00674823
0.478433
-0.00733967
0.478593
-0.00787936
0.47878
-0.00837936
0.479
-0.00885349
0.479259
-0.00931401
0.479562
-0.00976775
0.479916
-0.0102144
0.480326
-0.0106544
0.480796
-0.0110827
0.481333
-0.0114959
0.481939
-0.0118847
0.482617
-0.0122411
0.483368
-0.0125555
0.48419
-0.0128194
0.485081
-0.013026
0.486038
-0.0131683
0.487053
-0.0132427
0.48812
-0.0132452
0.48923
-0.0131756
0.490375
-0.0130335
0.491543
-0.012822
0.492723
-0.0125442
0.493906
-0.0122058
0.495081
-0.0118119
0.496236
-0.0113704
0.497363
-0.0108876
0.498453
-0.0103724
0.499498
-0.00983141
0.500492
-0.00927384
0.50143
-0.00870407
0.502307
-0.00812965
-0.0075563
0.50312
0.461191
-0.000478726
0.461194
-0.00153326
0.461199
-0.00257695
0.461215
-0.00357763
0.461253
-0.00453647
0.461302
-0.0053957
0.461362
-0.00615125
0.461438
-0.00682401
0.461532
-0.00743391
0.461647
-0.00799427
0.461786
-0.00851827
0.461955
-0.00902264
0.462161
-0.00952011
0.462411
-0.0100173
0.462711
-0.0105145
0.463068
-0.0110119
0.463489
-0.0115036
0.46398
-0.0119868
0.464546
-0.0124507
0.465191
-0.0128861
0.465918
-0.0132818
0.466726
-0.0136278
0.467615
-0.0139153
0.468583
-0.0141355
0.469623
-0.014283
0.470729
-0.0143517
0.471894
-0.0143399
0.473106
-0.0142459
0.474356
-0.0140717
0.475631
-0.0138192
0.476919
-0.0134939
0.478208
-0.0131007
0.479485
-0.0126476
0.480739
-0.0121415
0.481959
-0.0115923
0.483134
-0.0110072
0.484258
-0.0103972
0.485322
-0.00976841
0.486321
-0.00912902
-0.00848568
0.487251
0.445081
-0.000467755
0.445077
-0.00152901
0.445064
-0.00256424
0.445065
-0.00357883
0.445083
-0.00455387
0.445101
-0.00541387
0.445128
-0.0061784
0.445166
-0.00686227
0.445219
-0.00748664
0.445288
-0.00806368
0.445378
-0.00860808
0.445496
-0.00913999
0.445647
-0.00967138
0.445839
-0.0102095
0.44608
-0.0107557
0.446379
-0.0113108
0.446744
-0.011868
0.447181
-0.012424
0.447697
-0.012967
0.448299
-0.0134876
0.44899
-0.0139728
0.449773
-0.0144109
0.450649
-0.0147915
0.451616
-0.0151032
0.452672
-0.0153386
0.45381
-0.0154895
0.455022
-0.0155524
0.4563
-0.0155231
0.45763
-0.0154024
0.459002
-0.0151907
0.460401
-0.0148926
0.461812
-0.0145123
0.463223
-0.0140578
0.464617
-0.0135362
0.465983
-0.0129581
0.467308
-0.0123317
0.46858
-0.0116693
0.46979
-0.0109792
0.470932
-0.010271
-0.00955166
0.471998
0.429533
-0.000451774
0.429522
-0.00151789
0.429492
-0.00253442
0.429483
-0.00356971
0.429477
-0.00454838
0.429465
-0.00540209
0.429461
-0.00617448
0.429462
-0.00686315
0.429475
-0.00749914
0.429499
-0.00808803
0.42954
-0.00864896
0.429605
-0.00920498
0.4297
-0.00976599
0.429832
-0.0103419
0.430011
-0.0109344
0.430245
-0.0115454
0.430546
-0.0121684
0.430921
-0.0127992
0.431378
-0.0134242
0.431925
-0.0140347
0.432569
-0.0146162
0.433314
-0.015156
0.434163
-0.015641
0.435118
-0.0160582
0.436177
-0.0163975
0.437336
-0.0166481
0.438588
-0.0168041
0.439924
-0.016859
0.441332
-0.0168113
0.442801
-0.0166591
0.444314
-0.0164058
0.445856
-0.0160541
0.44741
-0.0156119
0.448959
-0.0150857
0.450488
-0.0144869
0.451981
-0.0138242
0.453423
-0.0131116
0.454803
-0.0123588
0.45611
-0.0115785
-0.0107775
0.457336
0.414526
-0.000429398
0.414509
-0.00150079
0.414463
-0.00248854
0.414448
-0.00355486
0.414415
-0.00451577
0.414377
-0.00536372
0.414343
-0.00614044
0.414307
-0.00682761
0.414282
-0.00747373
0.414262
-0.00806788
0.414255
-0.00864205
0.414267
-0.00921756
0.414304
-0.0098029
0.414375
-0.010413
0.414489
-0.0110477
0.414655
-0.0117117
0.414885
-0.0123981
0.415189
-0.0131035
0.415577
-0.0138127
0.416059
-0.0145163
0.416642
-0.0151995
0.417335
-0.0158488
0.418143
-0.0164492
0.419071
-0.0169854
0.420118
-0.0174446
0.421283
-0.0178137
0.422562
-0.0180833
0.423948
-0.0182443
0.425428
-0.0182919
0.426991
-0.0182218
0.42862
-0.0180349
0.430298
-0.0177321
0.432006
-0.01732
0.433725
-0.0168042
0.435434
-0.0161963
0.437115
-0.0155056
0.438751
-0.0147472
0.440325
-0.0139324
0.441824
-0.0130777
-0.0121897
0.443236
0.400039
-0.000397403
0.40002
-0.00148179
0.399959
-0.00242685
0.399942
-0.00353831
0.399876
-0.00444981
0.399818
-0.00530573
0.399752
-0.00607466
0.399684
-0.00675924
0.399623
-0.00741246
0.399559
-0.00800428
0.399507
-0.00858943
0.399467
-0.00917796
0.399446
-0.00978224
0.399456
-0.0104222
0.399501
-0.0110931
0.399596
-0.0118066
0.39975
-0.0125521
0.399976
-0.0133294
0.400285
-0.014122
0.40069
-0.0149213
0.4012
-0.0157097
0.401826
-0.0164747
0.402576
-0.0171995
0.403458
-0.0178673
0.404476
-0.0184625
0.405632
-0.0189692
0.406923
-0.0193743
0.408344
-0.0196656
0.409886
-0.0198343
0.411537
-0.0198728
0.413281
-0.0197785
0.415099
-0.0195497
0.416969
-0.0191905
0.41887
-0.0187053
0.420779
-0.0181047
0.422671
-0.0173982
0.424526
-0.0166017
0.426322
-0.0157284
0.428042
-0.0147979
-0.0138184
0.429671
0.386053
-0.000350469
0.386041
-0.00146994
0.385961
-0.00234642
0.385947
-0.00352424
0.38584
-0.00434251
0.385774
-0.00523971
0.38567
-0.00597118
0.385578
-0.00666675
0.385479
-0.00731417
0.385376
-0.00790066
0.385279
-0.00849295
0.385189
-0.0090872
0.385111
-0.00970522
0.385059
-0.0103699
0.385035
-0.0110693
0.385057
-0.0118285
0.385131
-0.0126255
0.385273
-0.0134718
0.385494
-0.0143431
0.385811
-0.0152379
0.386235
-0.0161336
0.386778
-0.0170185
0.387454
-0.0178747
0.388271
-0.0186849
0.389239
-0.0194308
0.390364
-0.020094
0.391648
-0.0206576
0.393087
-0.0211053
0.394677
-0.021424
0.396406
-0.0216018
0.398259
-0.0216314
0.400217
-0.0215074
0.402256
-0.0212302
0.404353
-0.0208016
0.406478
-0.0202304
0.408606
-0.0195255
0.410707
-0.0187032
0.412757
-0.017778
0.414732
-0.0167727
-0.0156985
0.416612
0.372549
-0.000282196
0.372558
-0.00147906
0.37245
-0.00223871
0.372445
-0.00351917
0.372286
-0.00418393
0.372229
-0.00518247
0.372076
-0.00581815
0.371976
-0.00656637
0.371832
-0.00717043
0.371698
-0.00776696
0.371556
-0.00835057
0.371418
-0.00894961
0.371286
-0.00957261
0.371174
-0.010258
0.37108
-0.0109753
0.371029
-0.0117776
0.371018
-0.0126141
0.371074
-0.0135276
0.371198
-0.0144676
0.371417
-0.0154572
0.37174
-0.0164559
0.372187
-0.0174655
0.372769
-0.0184568
0.373502
-0.0194179
0.374398
-0.0203272
0.375469
-0.0211646
0.37672
-0.0219093
0.378156
-0.022541
0.379773
-0.0230412
0.381565
-0.0233931
0.383517
-0.0235834
0.385611
-0.0236015
0.387823
-0.0234424
0.390125
-0.0231041
0.392487
-0.0225918
0.394874
-0.0219128
0.397254
-0.0210826
0.399592
-0.0201167
0.40186
-0.0190403
-0.0178697
0.404031
0.35951
-0.000187317
0.359555
-0.00152395
0.359406
-0.00209027
0.359421
-0.00353396
0.3592
-0.00396281
0.359172
-0.00515461
0.358952
-0.00559813
0.358868
-0.00648208
0.35866
-0.00696306
0.358518
-0.00762436
0.358318
-0.00815063
0.358147
-0.00877855
0.357954
-0.00937968
0.357789
-0.0100937
0.357622
-0.0108081
0.357503
-0.011658
0.357401
-0.0125125
0.357371
-0.013498
0.35739
-0.0144861
0.357508
-0.0155756
0.357714
-0.0166614
0.35805
-0.017802
0.358518
-0.0189249
0.359147
-0.0200467
0.359947
-0.0211269
0.360937
-0.0221547
0.362129
-0.0231013
0.363533
-0.0239446
0.365151
-0.0246599
0.366983
-0.0252243
0.369017
-0.0256177
0.371238
-0.0258225
0.373622
-0.0258263
0.376139
-0.0256212
0.378754
-0.0252067
0.381427
-0.0245865
0.384119
-0.0237738
0.386786
-0.0227845
0.389391
-0.0216453
-0.0203786
0.3919
0.346924
-6.45671e-05
0.347014
-0.00161399
0.346812
-0.00188808
0.346859
-0.00358116
0.346567
-0.00367088
0.346587
-0.00517466
0.346282
-0.00529296
0.346241
-0.00644108
0.345945
-0.0066668
0.345825
-0.00750476
0.345543
-0.00786907
0.345367
-0.00860186
0.345096
-0.00910919
0.344899
-0.00989634
0.344647
-0.0105562
0.344471
-0.0114823
0.344269
-0.0123099
0.344163
-0.013392
0.344061
-0.0143844
0.344083
-0.0155976
0.344152
-0.0167304
0.344374
-0.0180244
0.344699
-0.0192499
0.345209
-0.0205564
0.345881
-0.021799
0.346766
-0.0230391
0.347864
-0.0242001
0.349204
-0.0252841
0.350791
-0.0262469
0.352632
-0.0270651
0.354723
-0.0277095
0.357054
-0.0281531
0.359602
-0.0283744
0.362338
-0.0283567
0.365222
-0.0280906
0.368209
-0.027574
0.37125
-0.0268149
0.374294
-0.025828
0.377288
-0.02464
-0.0232804
0.38019
0.334782
8.07043e-05
0.334915
-0.00174669
0.334656
-0.00162964
0.334741
-0.00366607
0.334379
-0.00330919
0.334455
-0.00525069
0.334056
-0.00489345
0.334078
-0.00646314
0.333672
-0.00626063
0.333607
-0.00744036
0.333215
-0.00747637
0.33307
-0.00845715
0.332692
-0.00873123
0.332497
-0.00970126
0.332135
-0.0101939
0.331933
-0.0112803
0.331606
-0.0119829
0.331447
-0.0132339
0.3312
-0.0141367
0.331145
-0.0155431
0.331046
-0.0166309
0.331168
-0.0181464
0.331309
-0.0193908
0.331699
-0.020947
0.332194
-0.0222942
0.332959
-0.0238036
0.333916
-0.0251578
0.335162
-0.0265297
0.336673
-0.0277574
0.338487
-0.0288795
0.340601
-0.0298237
0.343014
-0.0305654
0.345709
-0.0310702
0.348659
-0.0313068
0.351824
-0.0312552
0.355152
-0.0309024
0.358585
-0.0302473
0.362058
-0.0293009
0.365506
-0.0280879
-0.0266434
0.368869
0.323074
0.000237141
0.323235
-0.00190679
0.322934
-0.00132864
0.323047
-0.00377971
0.32263
-0.0028923
0.322753
-0.00537381
0.322269
-0.00440933
0.322354
-0.0065477
0.321837
-0.00574326
0.321842
-0.00744535
0.321322
-0.00695646
0.321238
-0.00837336
0.320725
-0.00821835
0.32057
-0.00954639
0.320065
-0.00968861
0.319878
-0.0110936
0.319392
-0.0114964
0.319225
-0.0130672
0.31879
-0.0137012
0.318703
-0.0154565
0.318381
-0.016309
0.318445
-0.0182107
0.318335
-0.0192806
0.318642
-0.0212541
0.318875
-0.0225268
0.319538
-0.0244673
0.320266
-0.0258856
0.321413
-0.0276766
0.32277
-0.0291139
0.32453
-0.0306403
0.326611
-0.0319038
0.329071
-0.0330258
0.331885
-0.0338846
0.335035
-0.0344562
0.338485
-0.0347058
0.342179
-0.0345959
0.346048
-0.0341159
0.350013
-0.033266
0.353989
-0.0320645
-0.0305524
0.357898
0.31179
0.000390745
0.311955
-0.00207187
0.311635
-0.00100931
0.311757
-0.00390121
0.311313
-0.00244821
0.311456
-0.00551735
0.310919
-0.00387164
0.31104
-0.00666925
0.310438
-0.00514098
0.310496
-0.0075032
0.309863
-0.00632395
0.309839
-0.00834894
0.309191
-0.00757052
0.309091
-0.00944605
0.308429
-0.00902709
0.308285
-0.0109496
0.307614
-0.0108255
0.307478
-0.0129312
0.306816
-0.0130393
0.306751
-0.0153912
0.306145
-0.0157033
0.306223
-0.0182886
0.305766
-0.0188238
0.306075
-0.0215623
0.305912
-0.0223637
0.306558
-0.0251139
0.306885
-0.0262128
0.308
-0.0287911
0.309034
-0.0301484
0.310768
-0.0323743
0.312688
-0.0338231
0.315188
-0.0355261
0.318058
-0.036755
0.321388
-0.0377857
0.325121
-0.0384387
0.329195
-0.03867
0.33355
-0.0384707
0.338079
-0.0377958
0.342676
-0.0366613
-0.0351161
0.34724
0.300909
0.000531738
0.301059
-0.00222204
0.300746
-0.000696928
0.300851
-0.00400606
0.300415
-0.00201172
0.300542
-0.00564432
0.299996
-0.00332555
0.30011
-0.00678376
0.299472
-0.00450256
0.299539
-0.00757002
0.298839
-0.00562456
0.298837
-0.0083469
0.298093
-0.00682594
0.298021
-0.0093742
0.297231
-0.00823772
0.297116
-0.0108345
0.296278
-0.00998762
0.296171
-0.0128241
0.295285
-0.0121534
0.295255
-0.0153609
0.294343
-0.0147913
0.294474
-0.0184191
0.293605
-0.0179551
0.293994
-0.0219518
0.293304
-0.0216732
0.294065
-0.0258754
0.293765
-0.0259124
0.295025
-0.0300514
0.295414
-0.0305373
0.297297
-0.0342571
0.298724
-0.0352499
0.301376
-0.0381788
0.304094
-0.0394722
0.307648
-0.0413398
0.311617
-0.0424079
0.316083
-0.0431362
0.320984
-0.0433721
0.326155
-0.0429662
0.331495
-0.0420017
-0.0404808
0.33686
0.29041
0.000658351
0.290534
-0.0023467
0.290247
-0.000409492
0.290317
-0.00407614
0.28992
-0.00161417
0.289995
-0.00571931
0.289487
-0.00281772
0.289545
-0.00684215
0.288928
-0.00388592
0.288947
-0.007589
0.288245
-0.00492198
0.288206
-0.00830834
0.28743
-0.00605007
0.287329
-0.00927325
0.286479
-0.00738681
0.286336
-0.0106918
0.285399
-0.0090504
0.285263
-0.0126883
0.284222
-0.0111123
0.284167
-0.015306
0.283013
-0.0136372
0.28314
-0.0185463
0.281901
-0.0167156
0.282336
-0.0223871
0.281102
-0.0204392
0.281994
-0.0267676
0.28095
-0.0248682
0.282465
-0.0315665
0.281918
-0.0299903
0.284217
-0.0365562
0.284628
-0.035661
0.287803
-0.0413538
0.289748
-0.0414171
0.293842
-0.0454337
0.297721
-0.0462871
0.302725
-0.0481402
0.308205
-0.0488519
0.314075
-0.0488365
0.320362
-0.0482887
-0.0468288
0.32671
0.280274
0.000775039
0.280371
-0.00244382
0.280117
-0.000156076
0.280146
-0.00410426
0.279808
-0.00127668
0.279807
-0.00571795
0.279374
-0.00238488
0.279336
-0.00680449
0.278794
-0.00334345
0.278713
-0.00750822
0.278071
-0.00428007
0.277936
-0.00817315
0.277201
-0.00531504
0.277005
-0.00907742
0.276173
-0.0065553
0.275929
-0.0104477
0.274987
-0.00810829
0.274732
-0.0124334
0.273653
-0.0100329
0.273454
-0.0151075
0.272206
-0.0123883
0.272172
-0.0185129
0.270738
-0.0152814
0.271023
-0.022672
0.269429
-0.018845
0.270236
-0.0275749
0.268586
-0.0232182
0.270175
-0.0331558
0.268703
-0.0285184
0.271364
-0.039217
0.270498
-0.0347951
0.274451
-0.0453067
0.274888
-0.0418542
0.280145
-0.0506904
0.282893
-0.0490353
0.289189
-0.0544359
0.294858
-0.0545211
0.301656
-0.0556342
0.309192
-0.0558254
-0.0542797
0.316643
0.270488
0.000885323
0.270557
-0.00251225
0.270343
5.79372e-05
0.270329
-0.00409082
0.270062
-0.00100942
0.269974
-0.00562986
0.269638
-0.00204857
0.269481
-0.00664817
0.269051
-0.00291286
0.268835
-0.00729249
0.268305
-0.00375029
0.268028
-0.0078958
0.267396
-0.00468282
0.267052
-0.0087338
0.266312
-0.00581539
0.265904
-0.0100396
0.265046
-0.00724985
0.264588
-0.011976
0.263591
-0.00903572
0.263124
-0.0146402
0.261956
-0.0112209
0.261565
-0.0181216
0.26019
-0.013906
0.260028
-0.0225106
0.258414
-0.017231
0.258729
-0.0278896
0.256885
-0.0213744
0.258018
-0.0342886
0.256058
-0.0265587
0.258507
-0.041666
0.256683
-0.032971
0.260998
-0.049622
0.259861
-0.0407172
0.266364
-0.0571929
0.267034
-0.0497057
0.275584
-0.0629857
0.27986
-0.0587966
0.289175
-0.0649499
0.297759
-0.064409
-0.0629199
0.306399
0.261049
0.000985212
0.261087
-0.00255008
0.260914
0.00023034
0.260863
-0.00403979
0.26066
-0.00080613
0.260497
-0.00546627
0.26025
-0.00180162
0.259986
-0.00638488
0.259669
-0.00259549
0.259322
-0.00694576
0.258917
-0.00334505
0.258493
-0.00747136
0.257986
-0.00417666
0.257483
-0.00823043
0.256867
-0.00519946
0.256278
-0.0094502
0.255546
-0.00651833
0.25486
-0.0112896
0.254011
-0.00818692
0.25322
-0.0138496
0.252256
-0.0102563
0.251376
-0.0172422
0.250295
-0.0128248
0.249396
-0.021611
0.248177
-0.0160126
0.247452
-0.0271649
0.246045
-0.0199671
0.245945
-0.0341884
0.244284
-0.0248983
0.245526
-0.0429076
0.243647
-0.0310918
0.24713
-0.0531054
0.245273
-0.0388596
0.252062
-0.0639826
0.250941
-0.0485846
0.26153
-0.073574
0.263143
-0.0604103
0.276859
-0.0786661
0.284505
-0.0720546
-0.0748983
0.296483
0.251955
0.00105927
0.251952
-0.00254714
0.251829
0.000353463
0.251733
-0.00394363
0.251592
-0.000664981
0.251364
-0.00523847
0.251192
-0.00162937
0.250849
-0.00604183
0.250618
-0.00236532
0.25018
-0.00650753
0.249865
-0.00303001
0.249343
-0.00694877
0.248921
-0.00375517
0.248317
-0.00762612
0.247774
-0.00465682
0.247078
-0.00875379
0.246406
-0.00584658
0.245592
-0.0104756