/*--------------------------------*- C++ -*----------------------------------*\
| =========                 |                                                 |
| \\      /  F ield         | OpenFOAM: The Open Source CFD Toolbox           |
|  \\    /   O peration     | Version:  2312                                  |
|   \\  /    A nd           | Website:  www.openfoam.com                      |
|    \\/     M anipulation  |                                                 |
\*---------------------------------------------------------------------------*/
FoamFile
{
    version     2.0;
    format      ascii;
    arch        "LSB;label=32;scalar=64";
    class       surfaceScalarField;
    location    "63.6";
    object      phi;
}
// * * * * * * * * * * * * * * * * * * * * * * * * * * * * * * * * * * * * * //

dimensions      [0 3 -1 0 0 0 0];

oriented        oriented;

internalField   nonuniform List<scalar> 
10785
(
-0.000718541
0.00451122
-0.00379268
0.000736688
0.00625224
-0.00770747
0.00694113
0.00087639
-0.00708084
0.0207852
-0.0131878
-0.000656291
0.0440127
-0.0356751
0.0124476
0.0751411
-0.0632614
0.0321331
0.110131
-0.0916503
0.0566605
0.143997
-0.117348
0.0834817
0.172257
-0.138184
0.109924
0.192374
-0.153579
0.133462
0.203949
-0.164202
0.152627
0.209829
-0.171824
0.165943
0.212771
-0.178872
0.17593
0.215599
-0.184219
0.181391
-0.19228
0.189907
0.217972
-0.000295647
0.00480687
0.00287954
0.00307705
0.0136592
-0.0099033
0.0348751
-0.0344037
0.064571
-0.065371
0.0972341
-0.0959245
0.127066
-0.121482
0.150117
-0.140399
0.165276
-0.153343
0.174065
-0.162368
0.179583
-0.16972
0.184784
-0.177024
0.190231
-0.184319
0.19739
-0.191378
-0.199191
0.204301
0.000638955
0.00416791
0.0070726
-0.0033566
0.0242018
-0.0270325
0.0510905
-0.0612924
0.0809472
-0.0952277
0.107114
-0.122091
0.126184
-0.140552
0.138329
-0.152544
0.146031
-0.161044
0.152036
-0.168373
0.157908
-0.175592
0.163567
-0.182683
0.168784
-0.189536
0.173569
-0.196163
-0.202712
0.177089
0.00183777
0.00233015
0.0127527
-0.0142715
0.0354092
-0.049689
0.0626467
-0.0885299
0.0864112
-0.118992
0.103276
-0.138956
0.114023
-0.151299
0.121215
-0.159737
0.126923
-0.166752
0.131952
-0.173403
0.136286
-0.179926
0.140155
-0.186552
0.144001
-0.193381
0.148391
-0.200553
-0.208374
0.154053
0.00339773
-0.00106758
0.0190424
-0.0299161
0.0433736
-0.0740202
0.0659447
-0.111101
0.0820269
-0.135074
0.0921365
-0.149066
0.0986145
-0.157777
0.103279
-0.164401
0.10701
-0.170483
0.110235
-0.176628
0.11341
-0.183101
0.116775
-0.189916
0.1203
-0.196907
0.123968
-0.204221
-0.21136
0.126954
0.00543302
-0.00650061
0.0242021
-0.0486853
0.0458728
-0.0956909
0.0622197
-0.127448
0.0723198
-0.145174
0.0781937
-0.15494
0.0818531
-0.161436
0.084535
-0.167083
0.0868808
-0.172829
0.0891848
-0.178932
0.0914311
-0.185347
0.0935199
-0.192005
0.095581
-0.198968
0.0976051
-0.206245
-0.213933
0.100178
0.00767291
-0.0141735
0.0266324
-0.0676448
0.0436015
-0.11266
0.0543984
-0.138245
0.0601556
-0.150932
0.0631097
-0.157894
0.0648544
-0.163181
0.0661489
-0.168378
0.0672195
-0.173899
0.0680803
-0.179793
0.0687996
-0.186067
0.0695467
-0.192752
0.0703717
-0.199793
0.0713642
-0.207237
-0.214849
0.0722802
0.00932826
-0.0235018
0.0258832
-0.0841997
0.0381332
-0.12491
0.0445083
-0.14462
0.0471302
-0.153553
0.0480019
-0.158766
0.0481697
-0.163349
0.0479925
-0.168201
0.0475902
-0.173497
0.0470594
-0.179262
0.0464605
-0.185468
0.0457775
-0.192069
0.0450891
-0.199104
0.0444357
-0.206584
0.0440891
-0.214502
-0.000486619
0.0151627
-0.0146761
-0.00281787
0.0296066
-0.0272754
-0.00662279
0.0354536
-0.0316487
-0.0112391
0.0377178
-0.0331015
-0.0161376
0.0389319
-0.0340333
-0.0209743
0.0395213
-0.0346846
-0.0254628
0.0389896
-0.0345012
-0.0293145
0.0366458
-0.0327941
-0.0322807
0.0318263
-0.02886
-0.0340805
0.0237979
-0.0219981
-0.0345107
0.0119974
-0.0115672
-0.0333688
-0.0037617
0.00261973
-0.0297905
-0.023414
0.0198357
-0.0230287
-0.0474507
0.0406889
-0.0738178
-0.0134568
0.0642459
0.00107344
0.0140893
0.00125185
0.0294282
0.000274453
0.036431
-0.00109202
0.0390842
-0.00211062
0.0399505
-0.00229638
0.039707
-0.00135136
0.0380446
0.0009226
0.0343718
0.00472767
0.0280212
0.0101105
0.0184151
0.016856
0.00525194
0.0259097
-0.0128154
0.0368424
-0.0343468
0.0513204
-0.0619287
-0.0907532
0.0682558
0.00235843
0.0117309
0.00511453
0.0266721
0.00732546
0.0342201
0.00950824
0.0369015
0.0125155
0.0369432
0.0169647
0.0352579
0.0231789
0.0318304
0.0312762
0.0262745
0.0411335
0.0181639
0.0527629
0.00678573
0.0660282
-0.00801339
0.0822672
-0.0290544
0.100733
-0.0528129
0.122218
-0.083413
-0.114386
0.14585
0.00295543
0.00877545
0.00761224
0.0220153
0.0125096
0.0293227
0.0177801
0.0316309
0.024113
0.0306104
0.0321098
0.027261
0.0420842
0.021856
0.0541355
0.0142233
0.0681575
0.00414191
0.0851692
-0.010226
0.104955
-0.0277997
0.128707
-0.0528061
0.155586
-0.0796919
0.184949
-0.112775
-0.143082
0.213645
0.00272369
0.00605176
0.00800084
0.0167382
0.0143793
0.0229442
0.0215976
0.0244126
0.0300089
0.0221991
0.0400876
0.0171823
0.0522605
0.00968315
0.0669385
-0.000454821
0.0854811
-0.0144007
0.108156
-0.0329008
0.135986
-0.0556295
0.167725
-0.0845455
0.20164
-0.113607
0.234795
-0.14593
-0.169549
0.261262
0.00186148
0.00419028
0.00640829
0.0121914
0.0127129
0.0166396
0.0203767
0.0167488
0.0295821
0.0129937
0.0409865
0.00577785
0.0558185
-0.00514885
0.0754599
-0.0200962
0.100912
-0.0398533
0.131837
-0.0638257
0.167752
-0.0915438
0.203827
-0.120621
0.237482
-0.147261
0.263361
-0.17181
-0.183724
0.277536
0.000711728
0.00347855
0.00366351
0.00923958
0.00879195
0.0115112
0.0161403
0.00940045
0.0265498
0.00258424
0.0416472
-0.00931953
0.0629651
-0.0264668
0.0911782
-0.0483092
0.125218
-0.0738933
0.162251
-0.100859
0.198466
-0.127758
0.228498
-0.150653
0.250758
-0.169521
0.260778
-0.18183
-0.18679
0.263843
-0.00031413
0.00121799
0.0056483
0.0143925
0.0294243
0.0522378
0.0824315
0.117604
0.153635
0.186238
0.211107
0.226397
0.232806
0.232367
0.235484
-2.80473e-05
-0.216626
0.203197
-0.00360024
-0.280707
0.284279
-0.00818223
-0.329678
0.33426
0.034258
-0.331077
0.288637
0.113682
-0.161086
0.0816624
0.177939
0.102829
-0.167086
0.219981
0.268596
-0.310638
0.227574
0.324548
-0.332142
0.199114
0.390338
-0.361878
0.179718
0.408297
-0.3889
0.206666
0.220057
-0.247005
0.246375
-0.0590707
0.019362
0.26187
-0.227048
0.211553
0.253474
-0.326246
0.334642
0.245129
-0.401398
0.409744
0.250339
-0.377586
0.372376
0.261065
-0.222129
0.211402
0.265249
0.0426083
-0.0467919
0.271845
0.325118
-0.331714
0.291848
0.521965
-0.541967
0.299855
0.499513
-0.50752
0.277479
0.288869
-0.266493
0.246777
-0.128635
0.159337
0.241877
-0.488854
0.493754
0.255649
-0.372866
0.359094
0.258458
0.0234947
-0.0263029
0.243598
0.353688
-0.338828
0.218619
0.403202
-0.378223
0.198173
0.185733
-0.165288
0.18899
-0.0774986
0.0866821
0.190637
-0.280917
0.279271
0.204256
-0.34936
0.33574
0.222976
-0.299504
0.280784
0.234816
-0.224622
0.212781
0.238137
-0.166462
0.163141
0.237637
-0.0990872
0.0995875
0.240764
-0.0767719
0.0736444
0.00259835
-0.00681573
0.0740151
-0.222385
0.0640695
-0.270761
0.0237193
-0.289328
0.00724428
-0.314602
0.0690121
-0.222854
0.151049
0.0207924
0.209887
0.209758
0.225306
0.309129
0.203173
0.412471
0.193092
0.418378
0.218591
0.194559
0.251659
-0.092139
0.263621
-0.23901
0.252424
-0.315049
0.244733
-0.393708
0.250358
-0.38321
0.256644
-0.228415
0.258768
0.0404844
0.270584
0.313302
0.296684
0.495864
0.306899
0.489299
0.283514
0.312253
0.247733
-0.092854
0.239251
-0.480373
0.256084
-0.389699
0.262059
0.0175195
0.247906
0.36784
0.2225
0.428608
0.201564
0.20667
0.19218
-0.0681146
0.192813
-0.281551
0.204391
-0.360937
0.223855
-0.318968
0.239571
-0.240338
0.245154
-0.172044
0.243364
-0.0972969
0.243152
-0.0765601
0.000204863
0.144046
-0.220581
0.140508
-0.267224
0.104204
-0.253024
0.0418748
-0.252272
0.0546364
-0.235616
0.145591
-0.070162
0.215784
0.139564
0.234281
0.290632
0.218363
0.428389
0.213078
0.423663
0.231893
0.175744
0.25576
-0.116006
0.261991
-0.245241
0.24415
-0.297208
0.235249
-0.384807
0.244185
-0.392147
0.248908
-0.233138
0.250224
0.0391687
0.266284
0.297241
0.2964
0.465749
0.30904
0.476658
0.286401
0.334892
0.24698
-0.0534329
0.234341
-0.467733
0.25372
-0.409079
0.263911
0.00732844
0.251953
0.379799
0.226659
0.453902
0.204697
0.228632
0.194676
-0.058094
0.19488
-0.281755
0.204497
-0.370554
0.22279
-0.337262
0.241063
-0.25861
0.250068
-0.18105
0.249061
-0.0962894
0.246352
-0.0738516
-0.000300178
0.196254
-0.203191
0.179339
-0.250309
0.164738
-0.238423
0.109739
-0.197274
0.0734407
-0.199317
0.139975
-0.136696
0.222185
0.0573549
0.244575
0.268241
0.235253
0.437712
0.23458
0.424335
0.244071
0.166253
0.255971
-0.127906
0.260292
-0.249562
0.238904
-0.27582
0.223113
-0.369016
0.23431
-0.403343
0.241272
-0.2401
0.242558
0.0378821
0.259645
0.280155
0.29049
0.434903
0.305558
0.461591
0.285788
0.354662
0.244828
-0.0124734
0.227865
-0.45077
0.248785
-0.429998
0.264062
-0.00794851
0.255624
0.388237
0.230972
0.478554
0.207799
0.251804
0.196585
-0.0468801
0.196262
-0.281431
0.204526
-0.378818
0.220923
-0.353659
0.240009
-0.277696
0.252337
-0.193377
0.253753
-0.0977056
0.24989
-0.069989
0.00076844
0.235479
-0.177408
0.196317
-0.211146
0.176363
-0.218469
0.15573
-0.176641
0.111324
-0.154911
0.126646
-0.152018
0.205169
-0.0211677
0.247176
0.226234
0.25253
0.432357
0.256981
0.419885
0.256764
0.166469
0.254218
-0.125359
0.253535
-0.248879
0.231266
-0.253551
0.206687
-0.344437
0.217838
-0.414494
0.232389
-0.25465
0.235853
0.0344178
0.250931
0.265077
0.279638
0.406197
0.297242
0.443986
0.281881
0.370024
0.24093
0.0284774
0.219807
-0.429647
0.241382
-0.451573
0.262704
-0.0292706
0.258511
0.39243
0.234801
0.502265
0.210693
0.275912
0.198086
-0.0342732
0.196791
-0.280136
0.204092
-0.386119
0.218801
-0.368368
0.237443
-0.296339
0.252182
-0.208116
0.256833
-0.102357
0.253242
-0.0663982
0.00279639
0.244818
-0.144689
0.203622
-0.169951
0.168538
-0.183384
0.155318
-0.16342
0.139136
-0.138729
0.124988
-0.13787
0.165945
-0.0621247
0.217973
0.174205
0.243206
0.407124
0.262763
0.400327
0.265959
0.163274
0.252497
-0.111898
0.245621
-0.242003
0.225446
-0.233376
0.19213
-0.311122
0.196941
-0.419304
0.22138
-0.27909
0.230654
0.0251443
0.240875
0.254856
0.263677
0.383394
0.283737
0.423926
0.274765
0.378996
0.235603
0.0676388
0.210625
-0.404669
0.231792
-0.472741
0.259329
-0.0568077
0.260671
0.391089
0.238588
0.524348
0.213489
0.301011
0.199247
-0.020031
0.196557
-0.277446
0.202939
-0.3925
0.216464
-0.381893
0.234161
-0.314036
0.250228
-0.224183
0.258136
-0.110265
0.255991
-0.0642523
0.00502132
0.229481
-0.110327
0.192712
-0.133182
0.161409
-0.152081
0.142126
-0.144137
0.136877
-0.133481
0.133498
-0.134491
0.150668
-0.0792948
0.199986
0.124887
0.240763
0.366348
0.265646
0.375444
0.266773
0.162148
0.244576
-0.089701
0.23091
-0.228337
0.215051
-0.217516
0.17868
-0.274751
0.173037
-0.413661
0.205565
-0.311618
0.223649
0.00705981
0.228581
0.249925
0.245644
0.366331
0.268637
0.400934
0.266025
0.381608
0.228702
0.104962
0.200277
-0.376244
0.219756
-0.49222
0.254343
-0.0913943
0.261168
0.384263
0.240663
0.544852
0.21517
0.326504
0.199677
-0.00453836
0.195564
-0.273333
0.201008
-0.397944
0.213768
-0.394653
0.230565
-0.330832
0.247143
-0.240761
0.257827
-0.12095
0.257892
-0.0643164
0.00668437
0.211139
-0.0859812
0.181211
-0.103254
0.155335
-0.126205
0.137159
-0.125962
0.123086
-0.119407
0.118804
-0.13021
0.128191
-0.0886816
0.167192
0.0858863
0.217221
0.316318
0.256943
0.335722
0.266042
0.153048
0.240145
-0.0638041
0.218537
-0.206729
0.203861
-0.20284
0.166919
-0.237809
0.151039
-0.397782
0.184503
-0.345082
0.213961
-0.022399
0.217092
0.246794
0.223967
0.359456
0.247815
0.377086
0.253392
0.37603
0.220685
0.13767
0.189839
-0.345398
0.207011
-0.509392
0.246233
-0.130616
0.260777
0.369719
0.243254
0.562375
0.216942
0.352817
0.199658
0.0127454
0.193954
-0.267629
0.198627
-0.402618
0.210747
-0.406773
0.226825
-0.34691
0.243464
-0.257399
0.256247
-0.133733
0.258869
-0.0669381
0.00713111
0.461167
-0.0625477
-0.4846
0.434788
-0.0768752
0.405846
-0.0972629
0.373977
-0.0940929
0.336181
-0.0816117
0.293508
-0.0875363
0.242106
-0.0372795
0.216404
0.111589
0.272833
0.259888
0.390107
0.218448
0.476034
0.0671219
0.486432
-0.0742024
0.462575
-0.182871
0.443612
-0.183877
0.409149
-0.203346
0.374008
-0.362641
0.362157
-0.333231
0.331731
0.00802739
0.277456
0.301069
0.268127
0.368785
0.321505
0.323708
0.373742
0.323793
0.389046
0.122365
0.386454
-0.342806
0.388066
-0.511005
0.390215
-0.132765
0.376478
0.383456
0.355057
0.583796
0.34124
0.366634
0.336363
0.0176226
0.33479
-0.266056
0.337071
-0.404899
0.344728
-0.414431
0.357336
-0.359517
0.371579
-0.271642
0.384321
-0.146476
0.38535
-0.0679671
0.0111824
0.483849
-0.0425734
-0.503823
0.460167
-0.0531936
0.433496
-0.0705922
0.406257
-0.0668541
0.380539
-0.0558934
0.353324
-0.0603215
0.322169
-0.00612427
0.336166
0.0975917
0.41909
0.176965
0.499309
0.138229
0.537405
0.0290267
0.525909
-0.062707
0.488823
-0.145785
0.464574
-0.159627
0.434153
-0.172926
0.402021
-0.330508
0.390139
-0.321349
0.348407
0.0497591
0.282323
0.367153
0.277024
0.374084
0.349425
0.251307
0.41692
0.256298
0.437319
0.101966
0.433659
-0.339145
0.436587
-0.513933
0.436345
-0.132524
0.423601
0.3962
0.403013
0.604384
0.390503
0.379145
0.38626
0.0218655
0.381695
-0.261491
0.380083
-0.403286
0.384638
-0.418986
0.394869
-0.369748
0.406887
-0.283661
0.419131
-0.158719
0.422193
-0.0710289
0.0140381
0.518137
-0.0289819
-0.531729
0.500326
-0.0353824
0.477343
-0.0476095
0.456975
-0.0464859
0.434879
-0.0337976
0.411485
-0.0369269
0.398284
0.00707673
0.429766
0.0661097
0.501141
0.10559
0.55129
0.08808
0.569286
0.0110299
0.555765
-0.0491856
0.522759
-0.112779
0.509549
-0.146417
0.485887
-0.149265
0.435191
-0.279812
0.411361
-0.297518
0.370294
0.0908263
0.302762
0.434685
0.30691
0.369936
0.395118
0.163099
0.475918
0.175497
0.494308
0.0835767
0.483868
-0.328705
0.484778
-0.514842
0.48676
-0.134506
0.474616
0.408344
0.457323
0.621677
0.448425
0.388042
0.443719
0.0265715
0.435517
-0.253289
0.428672
-0.396442
0.428738
-0.419052
0.436081
-0.377091
0.446048
-0.293628
0.456827
-0.169499
0.461004
-0.0752058
0.0154978
0.554104
-0.0175905
-0.565495
0.539971
-0.0212498
0.521729
-0.0293669
0.505312
-0.0300691
0.490246
-0.0187316
0.476174
-0.0228555
0.473071
0.0101806
0.499437
0.0397436
0.549142
0.0558845
0.580592
0.0566299
0.591453
0.000169174
0.585579
-0.0433121
0.554045
-0.0812448
0.531631
-0.124004
0.511012
-0.128645
0.454537
-0.223338
0.409037
-0.252019
0.368083
0.131781
0.332892
0.469876
0.367888
0.33494
0.462012
0.0689749
0.541901
0.0956088
0.557579
0.067898
0.540794
-0.31192
0.538676
-0.512724
0.54171
-0.137539
0.532419
0.417635
0.520945
0.633151
0.516965
0.392023
0.511912
0.0316241
0.498473
-0.23985
0.485011
-0.382979
0.479203
-0.413244
0.482365
-0.380253
0.489772
-0.301035
0.498441
-0.178168
0.502669
-0.0794334
0.0158676
0.595388
-0.00892444
-0.604054
0.585722
-0.0115835
0.572399
-0.0160444
0.561049
-0.018719
0.551174
-0.00885664
0.541402
-0.0130835
0.543565
0.00801779
0.559955
0.0233541
0.589958
0.0258812
0.614291
0.0322968
0.619784
-0.00532353
0.61712
-0.0406486
0.598992
-0.0631165
0.576619
-0.101631
0.553281
-0.105307
0.484928
-0.154985
0.415851
-0.182941
0.388341
0.159291
0.411212
0.447005
0.476267
0.269884
0.554936
-0.00969399
0.621248
0.0292967
0.626969
0.0621775
0.599095
-0.284046
0.589149
-0.502779
0.595405
-0.143794
0.594585
0.418455
0.592332
0.635404
0.59447
0.389885
0.58844
0.0376539
0.568683
-0.220093
0.547426
-0.361722
0.535068
-0.400886
0.533457
-0.378642
0.537956
-0.305534
0.5444
-0.184612
0.548057
-0.08309
0.0156136
0.642855
-0.00256794
-0.649212
0.636198
-0.00492611
0.627279
-0.00712521
0.618397
-0.00983738
0.612956
-0.0034158
0.606528
-0.00665553
0.609676
0.00487005
0.620759
0.012271
0.636636
0.0100041
0.654002
0.0149307
0.659054
-0.010375
0.653322
-0.0349168
0.636052
-0.0458467
0.612477
-0.0780554
0.595779
-0.0886098
0.537401
-0.0966071
0.460126
-0.105666
0.4668
0.152616
0.552227
0.361579
0.622101
0.200009
0.657313
-0.044906
0.694484
-0.00787346
0.698345
0.0583158
0.660107
-0.245808
0.634586
-0.477257
0.638188
-0.147396
0.648076
0.408567
0.664535
0.618945
0.679146
0.375274
0.673072
0.0437281
0.645792
-0.192813
0.615985
-0.331916
0.596859
-0.38176
0.590145
-0.371927
0.591182
-0.306571
0.595183
-0.188613
0.597858
-0.0857652
0.0151686
0.696578
0.00174671
-0.700893
0.691936
-0.000283877
0.686146
-0.0013347
0.68018
-0.00387233
0.677051
-0.000286378
0.673171
-0.00277558
0.67527
0.00277143
0.682043
0.00549732
0.690072
0.00197536
0.701017
0.00398604
0.702929
-0.0122876
0.697591
-0.029578
0.689256
-0.0375119
0.66798
-0.0567795
0.646171
-0.0668011
0.600712
-0.0511482
0.54401
-0.0489636
0.583138
0.113488
0.691807
0.25291
0.745822
0.145994
0.738852
-0.037936
0.75177
-0.0207918
0.762089
0.047997
0.717814
-0.201534
0.669958
-0.429402
0.67314
-0.150578
0.705678
0.376029
0.74595
0.578673
0.769345
0.351878
0.759223
0.0538502
0.72357
-0.15716
0.686294
-0.294639
0.661958
-0.357425
0.651288
-0.361257
0.649262
-0.304545
0.650989
-0.19034
0.652548
-0.0873241
0.0148088
0.756127
0.00444713
-0.758827
0.752951
0.0028923
0.749396
0.00222
0.745464
5.95641e-05
0.743454
0.00172356
0.741256
-0.000576839
0.742191
0.00183592
0.746195
0.00149346
0.749826
-0.00165569
0.755875
-0.00206314
0.756812
-0.0132249
0.750458
-0.0232232
0.742647
-0.0297014
0.725489
-0.0396214
0.707035
-0.0483469
0.681489
-0.025602
0.650834
-0.0183089
0.690001
0.0743207
0.783421
0.15949
0.824442
0.104974
0.799099
-0.0125939
0.795066
-0.0167581
0.81433
0.0287323
0.771926
-0.159129
0.695556
-0.353032
0.682563
-0.137584
0.737483
0.321108
0.806375
0.509781
0.845181
0.313072
0.839119
0.0599123
0.801396
-0.119437
0.760588
-0.253831
0.732444
-0.329282
0.717959
-0.346773
0.712633
-0.299219
0.711979
-0.189686
0.712317
-0.0876623
0.014665
0.821545
0.00600295
-0.823101
0.819712
0.00472578
0.817545
0.00438698
0.815169
0.00243549
0.813796
0.00309679
0.812399
0.000820226
0.812681
0.00155349
0.814403
-0.000228505
0.815771
-0.00302382
0.81826
-0.00455139
0.817498
-0.012463
0.812209
-0.0179341
0.806893
-0.0243863
0.794984
-0.0277121
0.780347
-0.0337098
0.766663
-0.0119178
0.75446
-0.00610645
0.781361
0.0474206
0.843856
0.0969949
0.876048
0.0727823
0.856628
0.00682633
0.847847
-0.00797703
0.863427
0.013152
0.821171
-0.116873
0.717688
-0.249549
0.674368
-0.0942647
0.741701
0.253776
0.848301
0.403181
0.914705
0.246669
0.918785
0.0558316
0.883625
-0.0842768
0.841956
-0.212162
0.810951
-0.298277
0.792434
-0.328255
0.783072
-0.289857
0.779336
-0.18595
0.777921
-0.0862481
0.0149702
0.8935
0.00682727
-0.894324
0.892467
0.00575791
0.891201
0.00565297
0.889757
0.00388019
0.888782
0.00407161
0.88779
0.00181198
0.887648
0.00169572
0.888031
-0.00061129
0.888132
-0.00312468
0.888677
-0.00509683
0.88735
-0.0111363
0.883287
-0.013871
0.87873
-0.0198291
0.869978
-0.0189601
0.860601
-0.0243329
0.854629
-0.00594582
0.851367
-0.00284471
0.868295
0.0304933
0.906651
0.0586382
0.930287
0.0491469
0.918735
0.0183784
0.908358
0.00239978
0.914816
0.00669433
0.878955
-0.0810128
0.779433
-0.150027
0.725944
-0.0407758
0.796985
0.182735
0.919182
0.280984
0.991624
0.174227
0.995177
0.0522787
0.960122
-0.0492216
0.920093
-0.172133
0.889878
-0.268062
0.870244
-0.308621
0.858561
-0.278174
0.852485
-0.179874
0.849406
-0.0831692
0.0157876
0.972234
0.0071762
-0.972583
0.971727
0.00626433
0.971046
0.00633461
0.970199
0.00472709
0.969516
0.00475412
0.968751
0.0025777
0.968355
0.00209158
0.968063
-0.000319663
0.967562
-0.00262386
0.967123
-0.00465732
0.965531
-0.00954461
0.962302
-0.0106423
0.959084
-0.0166104
0.953592
-0.0134688
0.948208
-0.0189489
0.945938
-0.00367537
0.945658
-0.00256497
0.956528
0.0196231
0.979134
0.0360327
0.994022
0.0342583
0.988317
0.0240839
0.980966
0.00975064
0.977962
0.00969826
0.946144
-0.0491948
0.876251
-0.0801338
0.841863
-0.00638783
0.909199
0.115399
1.0134
0.176786
1.07037
0.117257
1.06892
0.0537212
1.03795
-0.0182425
1.00367
-0.137858
0.976006
-0.240398
0.955401
-0.288016
0.941045
-0.263818
0.932303
-0.171132
0.927414
-0.0782802
0.0170859
1.05835
0.00721895
-1.05839
1.05817
0.00644294
1.05785
0.00665502
1.05738
0.00519987
1.05692
0.00521467
1.05634
0.00315153
1.05588
0.00255509
1.05535
0.000213466
1.05463
-0.00190541
1.05378
-0.00380544
1.05238
-0.00814889
1.05014
-0.00839657
1.04787
-0.0143436
1.0445
-0.0101006
1.04143
-0.0158807
1.04094
-0.00318184
1.04203
-0.00366095
1.04878
0.0128783
1.06155
0.0232585
1.07033
0.0254846
1.06711
0.0273033
1.06165
0.0152071
1.05524
0.0161068
1.02978
-0.0237286
0.98756
-0.0379169
0.975509
0.00566307
1.02976
0.0611481
1.10365
0.102898
1.14161
0.0792944
1.13924
0.0560939
1.11705
0.00394369
1.09132
-0.11213
1.06778
-0.216858
1.04708
-0.267312
1.03056
-0.247294
1.01938
-0.159954
1.01247
-0.0713755
0.0190885
1.15256
0.00709036
-1.15243
1.15258
0.00642163
1.1525
0.0067405
1.15228
0.00541717
1.15201
0.00548337
1.15161
0.00355617
1.15119
0.00297376
1.15066
0.000742972
1.15
-0.00124508
1.14917
-0.00298113
1.14809
-0.00707145
1.14652
-0.00681969
1.14497
-0.0127945
1.14311
-0.00824505
1.14153
-0.014302
1.14165
-0.00329588
1.14284
-0.00485369
1.1469
0.00881566
1.1536
0.0165596
1.15836
0.020725
1.15661
0.029053
1.15243
0.0193903
1.14591
0.0226228
1.12834
-0.00615794
1.10498
-0.0145566
1.10382
0.00682793
1.14219
0.0227788
1.19101
0.0540717
1.2168
0.0535092
1.21697
0.0559254
1.20324
0.0176753
1.18553
-0.0944276
1.16572
-0.197049
1.14483
-0.246421
1.12619
-0.228652
1.11283
-0.146592
1.10456
-0.0631113
0.0212261
1.25559
0.00685053
-1.25535
1.25575
0.00625949
1.25583
0.00666324
1.25579
0.00545073
1.25569
0.00558934
1.25546
0.00377974
1.25519
0.00324771
1.25479
0.00114193
1.25431
-0.000765827
1.25366
-0.00232536
1.25291
-0.00632216
1.25189
-0.0058086
1.25095
-0.0118452
1.24994
-0.00723593
1.24916
-0.0135254
1.24936
-0.00349981
1.25025
-0.00574064
1.25258
0.00649096
1.25583
0.0133054
1.25824
0.0183131
1.25706
0.0302376
1.25397
0.0224734
1.2489
0.0277006
1.23807
0.00466353
1.22638
-0.00285934
1.22957
0.00363959
1.2554
-0.00305811
1.28644
0.0230321
1.30324
0.0367116
1.30516
0.0540102
1.29865
0.0241796
1.28724
-0.0830183
1.27083
-0.180639
1.25013
-0.225722
1.22997
-0.208489
1.21476
-0.131381
1.20482
-0.0531763
0.0238635
1.3684
0.00651189
-1.36806
1.36867
0.00598522
1.36888
0.00644799
1.369
0.0053318
1.36907
0.00552712
1.36901
0.00383337
1.36891
0.00335095
1.36867
0.00137939
1.36838
-0.000474165
1.36792
-0.00187052
1.36744
-0.00583526
1.36679
-0.00516041
1.36616
-0.011211
1.36559
-0.00667145
1.3651
-0.0130327
1.36526
-0.00366226
1.36569
-0.0061735
1.36694
0.00524958
1.36835
0.0118863
1.3696
0.0170654
1.36893
0.030912
1.36714
0.0242639
1.36422
0.0306182
1.35827
0.0106131
1.35334
0.00207133
1.35788
-0.000905135
1.37462
-0.0197899
1.39319
0.0044604
1.40344
0.026456
1.40704
0.0504166
1.40595
0.0252647
1.39897
-0.0760352
1.3835
-0.165167
1.36114
-0.203362
1.33872
-0.186076
1.32215
-0.114809
1.31223
-0.0432584
0.0256228
1.49179
0.006093
-1.49137
1.49217
0.00561304
1.4925
0.00610975
1.49276
0.00507572
1.49297
0.00531245
1.49308
0.0037283
1.49314
0.00328569
1.49308
0.00144486
1.49298
-0.00037183
1.49273
-0.00162
1.49245
-0.00555508
1.49205
-0.00476095
1.49163
-0.0107897
1.49127
-0.00631675
1.49086
-0.0126185
1.49087
-0.00367842
1.49087
-0.00617504
1.49148
0.00463939
1.49205
0.0113251
1.49289
0.0162249
1.49269
0.0311067
1.49205
0.0249008
1.49112
0.0315527
1.4884
0.0133354
1.48726
0.00320748
1.49183
-0.00547354
1.50214
-0.0300971
1.51228
-0.00567996
1.51778
0.0209495
1.52218
0.0460218
1.52448
0.0229637
1.51947
-0.0710264
1.50403
-0.149723
1.48039
-0.179723
1.45684
-0.162533
1.43962
-0.0975856
1.42937
-0.0330097
0.0270089
1.62717
0.00548699
-1.62657
1.62773
0.00505434
1.62828
0.00556118
1.62873
0.00462943
1.62915
0.00489105
1.62942
0.00345846
1.62964
0.00306426
1.62967
0.0014122
1.62961
-0.000310216
1.62935
-0.00136432
1.62895
-0.00515194
1.62843
-0.00423993
1.62771
-0.0100731
1.62712
-0.00572686
1.62626
-0.0117543
1.62603
-0.00344853
1.62554
-0.00568625
1.62597
0.00421199
1.62649
0.0108019
1.62767
0.0150506
1.62884
0.0299278
1.63009
0.0236585
1.63147
0.0301736
1.63102
0.013785
1.63207
0.00215298
1.63536
-0.00875912
1.63909
-0.0338262
1.64245
-0.0090433
1.64596
0.0174403
1.65336
0.0386201
1.6583
0.0180273
1.6513
-0.0640309
1.63084
-0.129265
1.60234
-0.151218
1.57652
-0.136717
1.55994
-0.0810088
1.55271
-0.0257764
0.0254256
1.7753
0.00466904
-1.77448
1.77606
0.00429305
1.77684
0.00477828
1.77749
0.00398607
1.77813
0.00424604
1.77856
0.00303435
1.77892
0.00269525
1.77904
0.00129354
1.77898
-0.000243993
1.77872
-0.00110702
1.77811
-0.00453837
1.77743
-0.00356694
1.77633
-0.00896651
1.7754
-0.00479932
1.77403
-0.0103904
1.7734
-0.00281673
1.77239
-0.00467806
1.7727
0.00390744
1.77333
0.0101738
1.775
0.0133805
1.77753
0.027396
1.78059
0.0205938
1.78409
0.026674
1.7853
0.0125802
1.78787
-0.000423541
1.78936
-0.0102481
1.78645
-0.0309089
1.78454
-0.00713818
1.78813
0.0138487
1.79921
0.0275428
1.80607
0.0111669
1.7958
-0.0537554
1.76947
-0.102942
1.73681
-0.118556
1.71079
-0.110697
1.69607
-0.066288
1.69084
-0.0205442
0.0222374
1.93906
0.00310951
-1.9375
1.94053
0.00282523
1.94209
0.0032184
1.94339
0.00269276
1.94469
0.0029445
1.94552
0.00219594
1.94616
0.00205803
1.94623
0.00123011
1.94565
0.000335931
1.94465
-0.000116183
1.9424
-0.00228135
1.94017
-0.00133506
1.93638
-0.0051812
1.93322
-0.00163746
1.92912
-0.00629582
1.92664
-0.000328545
1.92424
-0.0022859
1.92477
0.00338067
1.92737
0.00757165
1.93134
0.00940942
1.9402
0.0185436
1.94907
0.0117157
1.95873
0.0170224
1.96379
0.00751716
1.96547
-0.00210774
1.95952
-0.00429903
1.94217
-0.0135545
1.93416
0.000875031
1.94236
0.00564989
1.96058
0.00931412
1.96987
0.00188238
1.95135
-0.0352392
1.91276
-0.0643523
1.87213
-0.0779211
1.84451
-0.0830806
1.8321
-0.0538753
1.8324
-0.0208422
0.0137826
2.11513
0.00166835
-2.11368
2.11644
0.00151174
2.11792
0.00174239
2.11911
0.00149538
2.12038
0.0016812
2.12119
0.00138061
2.12183
0.00141514
2.12192
0.00114344
2.12138
0.000874914
2.12042
0.000845685
2.11813
1.12879e-05
2.11605
0.000741262
2.11195
-0.00108479
2.10923
0.00108426
2.10463
-0.00169676
2.1026
0.00170132
2.10042
-9.87145e-05
2.10116
0.00263969
2.10487
0.00385539
2.10953
0.00475165
2.12013
0.00794326
2.12819
0.00365894
2.13824
0.00696816
2.14314
0.00261986
2.14124
-0.000207415
2.13473
0.00221262
2.12022
0.00095275
2.1152
0.00589781
2.11959
0.00125811
2.12882
8.17982e-05
2.13495
-0.00424926
2.12214
-0.0224223
2.09625
-0.0384625
2.06739
-0.0490687
2.04161
-0.057298
2.02712
-0.0393789
2.02596
-0.0196895
0.0063937
2.30523
0.00104533
-2.30461
2.30578
0.00096497
2.30644
0.00107876
2.30698
0.000956208
2.3076
0.00105435
2.30808
0.000910288
2.30855
0.000938886
2.30886
0.00083774
2.30903
0.000699498
2.3091
0.000780352
2.30877
0.000335759
2.3087
0.000816365
2.30769
-7.23648e-05
2.30774
0.00103404
2.30629
-0.000248632
2.30654
0.00145423
2.30609
0.000341949
2.30679
0.00194888
2.30869
0.00195547
2.31113
0.00230466
2.31545
0.003621
2.3172
0.0019095
2.32081
0.00336501
2.32207
0.00135716
2.32046
0.00140174
2.32069
0.00198435
2.32092
0.000726067
2.32282
0.00399285
2.32133
0.00274565
2.31952
0.00189078
2.31967
-0.0043979
2.31472
-0.0174664
2.30406
-0.0278078
2.28773
-0.0327382
2.26582
-0.0353846
2.2502
-0.0237611
2.24388
-0.0133659
0.00331311
2.51651
0.000465346
-2.51593
2.51704
0.000435751
2.51763
0.00048866
2.51814
0.000449526
2.51869
0.000499128
2.51914
0.000464994
2.51959
0.000490716
2.51993
0.000490444
2.52018
0.000455163
2.52042
0.000540293
2.52036
0.000388319
2.52055
0.00063419
2.52018
0.000299203
2.52043
0.000775007
2.51993
0.0002518
2.52048
0.000903459
2.52044
0.000381705
2.52148
0.00091796
2.52271
0.000719485
2.52424
0.000778609
2.52681
0.00104974
2.52833
0.000392829
2.53067
0.0010249
2.53155
0.000469349
2.53216
0.000794761
2.53265
0.00149727
2.53179
0.00158422
2.53303
0.00275116
2.53441
0.00137009
2.53609
0.000209487
2.53444
-0.00274849
2.52447
-0.0074952
2.50866
-0.0120023
2.49039
-0.0144703
2.47173
-0.0167256
2.45998
-0.0120029
2.4548
-0.00818791
0.000464323
2.7476
-2.74713
2.74803
2.74852
2.74897
2.74947
2.74994
2.75043
2.75092
2.75137
2.75191
2.7523
2.75293
2.75323
2.75401
2.75426
2.75516
2.75555
2.75646
2.75718
2.75796
2.75901
2.7594
2.76043
2.7609
2.76169
2.76319
2.76477
2.76753
2.7689
2.76911
2.76636
2.75886
2.74686
2.73239
2.71566
2.70366
2.69547
0.437767
0.0378875
-0.431565
0.445849
0.0641984
0.451115
0.0949119
0.459989
0.118079
0.464858
0.149184
0.473832
0.168115
0.480307
0.197826
0.213679
0.466662
0.0329621
-0.461737
0.47314
0.0577208
0.477872
0.0901794
0.48439
0.111562
0.48906
0.144514
0.493613
0.163562
0.49945
0.191989
0.209306
0.500103
0.0289786
-0.496119
0.504462
0.0533617
0.508501
0.0861403
0.511926
0.108137
0.516884
0.139556
0.520563
0.159883
0.526951
0.185601
0.204529
0.53667
0.0256653
-0.533357
0.539445
0.0505867
0.543461
0.0821249
0.546542
0.105056
0.552042
0.134056
0.555841
0.156084
0.561179
0.180263
0.200212
0.577843
0.0228806
-0.575059
0.580008
0.0484222
0.584086
0.0780468
0.587043
0.102098
0.591599
0.1295
0.59499
0.152692
0.599485
0.175768
0.195643
0.623884
0.0205026
-0.621506
0.625804
0.0465022
0.629263
0.0745884
0.631788
0.0995725
0.635581
0.125708
0.639433
0.14884
0.644269
0.170933
0.1907
0.674827
0.0186551
-0.672979
0.676529
0.0447999
0.6794
0.0717181
0.682259
0.0967134
0.686297
0.12167
0.69087
0.144267
0.695884
0.165918
0.185691
0.731275
0.0172222
-0.729842
0.733067
0.0430077
0.735936
0.0688496
0.739312
0.0933372
0.743609
0.117373
0.748232
0.139644
0.753283
0.160868
0.180146
0.793915
0.0159902
-0.792683
0.795836
0.0410874
0.798716
0.0659692
0.802204
0.0898489
0.806428
0.113149
0.811248
0.134824
0.816918
0.155198
0.173962
0.862909
0.0149264
-0.861845
0.864835
0.0391611
0.867705
0.0630989
0.871372
0.0861817
0.875977
0.108545
0.881435
0.129366
0.887611
0.149022
0.167249
0.938765
0.0139494
-0.937788
0.940764
0.0371618
0.943803
0.0600605
0.947808
0.0821763
0.952806
0.103547
0.958632
0.12354
0.965237
0.142417
0.159904
1.02203
0.0130099
-1.0211
1.02412
0.0350768
1.02733
0.0568506
1.03161
0.0778929
1.03694
0.0982242
1.0432
0.117276
1.05037
0.135244
0.151884
1.11326
0.0120903
-1.11234
1.11544
0.032897
1.11885
0.0534393
1.12344
0.0732968
1.12918
0.0924889