/*--------------------------------*- C++ -*----------------------------------*\
| =========                 |                                                 |
| \\      /  F ield         | OpenFOAM: The Open Source CFD Toolbox           |
|  \\    /   O peration     | Version:  2512                                  |
|   \\  /    A nd           | Website:  www.openfoam.com                      |
|    \\/     M anipulation  |                                                 |
\*---------------------------------------------------------------------------*/
FoamFile
{
    version     2.0;
    format      ascii;
    arch        "LSB;label=32;scalar=64";
    class       volScalarField;
    location    "139";
    object      p;
}
// * * * * * * * * * * * * * * * * * * * * * * * * * * * * * * * * * * * * * //

dimensions      [0 2 -2 0 0 0 0];

internalField   nonuniform List<scalar> 
13248
(
-0.325086
-0.326774
-0.32747
-0.32762
-0.32707
-0.32528
-0.321739
-0.315951
-0.307504
-0.296186
-0.282084
-0.265623
-0.247512
-0.228627
-0.209847
-0.191928
-0.175403
-0.160594
-0.147569
-0.136333
-0.126675
-0.118432
-0.11135
-0.104869
-0.330125
-0.330745
-0.330757
-0.330383
-0.329314
-0.327082
-0.323133
-0.316929
-0.308068
-0.296399
-0.282123
-0.265772
-0.248107
-0.229955
-0.212062
-0.195004
-0.179155
-0.164708
-0.151702
-0.140099
-0.129712
-0.120418
-0.111856
-0.103845
-0.335677
-0.33516
-0.334251
-0.332964
-0.331062
-0.328072
-0.323411
-0.316508
-0.306969
-0.294733
-0.280122
-0.263762
-0.246422
-0.228853
-0.211673
-0.195323
-0.180057
-0.165992
-0.153113
-0.14137
-0.130605
-0.12074
-0.111575
-0.103024
-0.341747
-0.340097
-0.338107
-0.33575
-0.332815
-0.328835
-0.323167
-0.315204
-0.304614
-0.291488
-0.276307
-0.259781
-0.242661
-0.225598
-0.209074
-0.193381
-0.178671
-0.164981
-0.152293
-0.140563
-0.129679
-0.119649
-0.110233
-0.10153
-0.348836
-0.346041
-0.34295
-0.339471
-0.33537
-0.330127
-0.323028
-0.313508
-0.301426
-0.287111
-0.27121
-0.254467
-0.23755
-0.220956
-0.205003
-0.189864
-0.175613
-0.162268
-0.149811
-0.138197
-0.127373
-0.117301
-0.107834
-0.0991011
-0.357567
-0.35356
-0.349376
-0.344737
-0.339265
-0.332327
-0.323221
-0.311604
-0.297663
-0.281991
-0.265327
-0.24835
-0.231571
-0.21532
-0.199786
-0.18506
-0.171177
-0.158133
-0.145906
-0.13446
-0.123748
-0.113741
-0.104329
-0.0956441
-0.368387
-0.363062
-0.357754
-0.351821
-0.344595
-0.335357
-0.323622
-0.30947
-0.293474
-0.276404
-0.258971
-0.241708
-0.224955
-0.208902
-0.193642
-0.179209
-0.165606
-0.152816
-0.140811
-0.129555
-0.119012
-0.10913
-0.0998556
-0.0912697
-0.38145
-0.374697
-0.368165
-0.360637
-0.351067
-0.338821
-0.323914
-0.306972
-0.288874
-0.270427
-0.252215
-0.234593
-0.217746
-0.201753
-0.186638
-0.172395
-0.159004
-0.146432
-0.134642
-0.123594
-0.113241
-0.103538
-0.0944594
-0.086
-0.396568
-0.388327
-0.380374
-0.370743
-0.358058
-0.342117
-0.323678
-0.303882
-0.283747
-0.263979
-0.244977
-0.226923
-0.209878
-0.19384
-0.178782
-0.164665
-0.151444
-0.13907
-0.127496
-0.116668
-0.106539
-0.0970621
-0.0882163
-0.0799217
-0.413191
-0.403456
-0.393756
-0.381287
-0.364647
-0.344483
-0.322386
-0.299826
-0.277777
-0.256749
-0.236948
-0.218412
-0.201103
-0.184959
-0.16991
-0.155884
-0.142817
-0.130642
-0.119296
-0.108719
-0.0988506
-0.0896444
-0.0810569
-0.0729645
-0.430375
-0.41917
-0.407232
-0.391014
-0.369643
-0.344964
-0.319267
-0.294113
-0.270287
-0.248072
-0.227496
-0.208475
-0.190894
-0.174638
-0.159599
-0.145678
-0.132785
-0.120839
-0.109763
-0.0994858
-0.0899433
-0.0810788
-0.0728153
-0.0650361
-0.446822
-0.434189
-0.419337
-0.398404
-0.371709
-0.342434
-0.313315
-0.285787
-0.260359
-0.237081
-0.215819
-0.196385
-0.178599
-0.162295
-0.14733
-0.133577
-0.120926
-0.109276
-0.0985392
-0.0886358
-0.0795008
-0.0710743
-0.0632681
-0.0559977
-0.50233
-0.502184
-0.501705
-0.503446
-0.508309
-0.516426
-0.527678
-0.541842
-0.558544
-0.577183
-0.596898
-0.616586
-0.634963
-0.650662
-0.662284
-0.668461
-0.668049
-0.660164
-0.64426
-0.620213
-0.588634
-0.550793
-0.509325
-0.466235
-0.474454
-0.475213
-0.474588
-0.475331
-0.478512
-0.484251
-0.492405
-0.502734
-0.514867
-0.528249
-0.54212
-0.555534
-0.567418
-0.576618
-0.58206
-0.581869
-0.576186
-0.564303
-0.545993
-0.52155
-0.491844
-0.458248
-0.422954
-0.388862
-0.445825
-0.447265
-0.446468
-0.44623
-0.447677
-0.4509
-0.455709
-0.461814
-0.468821
-0.476199
-0.483272
-0.489231
-0.493171
-0.494104
-0.491036
-0.483843
-0.471881
-0.454985
-0.433352
-0.40766
-0.379103
-0.349173
-0.319496
-0.293158
-0.418209
-0.420145
-0.419285
-0.418326
-0.418337
-0.41935
-0.421114
-0.423285
-0.425432
-0.42703
-0.427471
-0.426084
-0.422154
-0.41503
-0.404106
-0.389759
-0.371683
-0.350117
-0.325678
-0.299343
-0.272485
-0.246931
-0.223796
-0.204283
-0.392927
-0.395246
-0.394513
-0.393208
-0.39226
-0.391617
-0.390974
-0.389948
-0.388087
-0.384884
-0.379792
-0.372257
-0.361784
-0.348168
-0.331326
-0.311383
-0.288709
-0.263975
-0.238156
-0.212531
-0.188469
-0.167604
-0.152977
-0.140474
-0.370809
-0.373466
-0.373049
-0.371765
-0.370354
-0.368661
-0.366337
-0.362983
-0.358158
-0.351399
-0.342244
-0.330292
-0.31525
-0.297204
-0.276289
-0.252908
-0.227755
-0.201813
-0.176256
-0.152469
-0.13224
-0.115847
-0.107468
-0.102112
-0.352323
-0.355308
-0.355321
-0.354303
-0.352799
-0.35055
-0.347167
-0.342254
-0.335407
-0.326229
-0.31438
-0.299618
-0.281885
-0.261003
-0.237939
-0.213034
-0.187192
-0.161577
-0.137514
-0.116075
-0.0996233
-0.0871365
-0.0833677
-0.0828451
-0.337767
-0.341051
-0.3415
-0.34083
-0.339427
-0.336941
-0.332953
-0.327072
-0.318931
-0.308205
-0.294648
-0.278162
-0.258844
-0.237058
-0.212981
-0.187781
-0.162521
-0.138411
-0.116862
-0.0984779
-0.0858819
-0.0767044
-0.0758456
-0.0781432
-0.327391
-0.33088
-0.331678
-0.331324
-0.330092
-0.32758
-0.323344
-0.316993
-0.308187
-0.296652
-0.282224
-0.264902
-0.244903
-0.222694
-0.198939
-0.174696
-0.151107
-0.12935
-0.110725
-0.0956799
-0.0860318
-0.0802302
-0.0806856
-0.0843474
-0.321333
-0.324835
-0.325863
-0.325773
-0.32476
-0.322422
-0.318281
-0.311946
-0.303083
-0.29144
-0.276905
-0.259562
-0.239724
-0.218049
-0.195388
-0.1728
-0.151431
-0.132366
-0.116479
-0.104374
-0.096433
-0.0924221
-0.0921928
-0.0948271
-0.319395
-0.322639
-0.323754
-0.32388
-0.323111
-0.321169
-0.317403
-0.311418
-0.302859
-0.291478
-0.277196
-0.260205
-0.240969
-0.220247
-0.199003
-0.178283
-0.159086
-0.14226
-0.128298
-0.117587
-0.109921
-0.105396
-0.103067
-0.103044
-0.321224
-0.323787
-0.32484
-0.325131
-0.324642
-0.322805
-0.319266
-0.31352
-0.30516
-0.293937
-0.279846
-0.263187
-0.244567
-0.224836
-0.204959
-0.185869
-0.168332
-0.15289
-0.139776
-0.129056
-0.120528
-0.114023
-0.109133
-0.106104
-0.416218
-0.370764
-0.337308
-0.319835
-0.321064
-0.340349
-0.372132
-0.406661
-0.431634
-0.43352
-0.403727
-0.346446
-0.279282
-0.219851
-0.177412
-0.152177
-0.141527
-0.142721
-0.154634
-0.1809
-0.226206
-0.281861
-0.322729
-0.323807
-0.288347
-0.232575
-0.178501
-0.140286
-0.120145
-0.114425
-0.124475
-0.154793
-0.199215
-0.234991
-0.235787
-0.203519
-0.157109
-0.117521
-0.0932662
-0.0849493
-0.0925983
-0.106382
-0.110827
-0.100316
-0.085355
-0.0727266
-0.0667676
-0.0676702
-0.0722365
-0.0722486
-0.0655692
-0.0525951
-0.0436616
-0.0379789
-0.0339412
-0.0246285
-0.0196358
-0.0166281
-0.0185863
-0.00582529
-0.351903
-0.32615
-0.308769
-0.306952
-0.321903
-0.350366
-0.38563
-0.419767
-0.44331
-0.444634
-0.413578
-0.354789
-0.286098
-0.224892
-0.179998
-0.151355
-0.136702
-0.133831
-0.141035
-0.160744
-0.197298
-0.244507
-0.280536
-0.281799
-0.25544
-0.208837
-0.162888
-0.131131
-0.116075
-0.115238
-0.131114
-0.168442
-0.219494
-0.260011
-0.261238
-0.225527
-0.172423
-0.12506
-0.0937512
-0.0788901
-0.0800252
-0.0882066
-0.0900454
-0.0819913
-0.0716606
-0.0650125
-0.0654495
-0.0728692
-0.0824896
-0.0840609
-0.0762749
-0.0585077
-0.0436015
-0.0314591
-0.022558
-0.0144759
-0.0124889
-0.0178546
-0.0254328
-0.00883989
-0.269859
-0.269832
-0.26877
-0.28425
-0.312316
-0.347717
-0.384137
-0.416678
-0.438607
-0.438956
-0.408248
-0.350319
-0.282605
-0.222461
-0.177562
-0.147379
-0.129444
-0.122264
-0.124661
-0.137707
-0.165267
-0.203594
-0.235429
-0.235774
-0.220634
-0.18264
-0.144398
-0.118813
-0.108635
-0.112445
-0.133837
-0.177344
-0.233972
-0.278923
-0.281897
-0.24407
-0.185288
-0.130936
-0.0932021
-0.0726187
-0.0681053
-0.0714729
-0.0708645
-0.0645141
-0.0579543
-0.0569194
-0.0637637
-0.077868
-0.0926371
-0.0955774
-0.0865087
-0.0640969
-0.0434253
-0.0251084
-0.0113083
-0.0045229
-0.00531126
-0.018987
-0.0319615
-0.0118762
-0.200717
-0.210894
-0.228902
-0.258865
-0.296673
-0.336185
-0.372044
-0.40244
-0.421454
-0.419851
-0.389056
-0.333755
-0.270231
-0.21374
-0.17064
-0.140497
-0.120868
-0.110029
-0.107451
-0.11407
-0.133142
-0.163113
-0.192264
-0.210094
-0.186791
-0.155105
-0.123774
-0.103743
-0.0978499
-0.105545
-0.131144
-0.179382
-0.241077
-0.290653
-0.296366
-0.258121
-0.195086
-0.134972
-0.0916309
-0.0662224
-0.0570393
-0.0564539
-0.0534997
-0.0480508
-0.044357
-0.0484487
-0.0615615
-0.0824469
-0.102546
-0.106672
-0.0961096
-0.0692445
-0.0431261
-0.0190849
-0.000355031
0.00507562
0.00181137
-0.01984
-0.0380415
-0.0149008
-0.145696
-0.166279
-0.195212
-0.23273
-0.275155
-0.315969
-0.350213
-0.376819
-0.394223
-0.390736
-0.360457
-0.309358
-0.252142
-0.201072
-0.160903
-0.131528
-0.111183
-0.0982056
-0.0916566
-0.0921927
-0.103077
-0.124815
-0.148707
-0.163058
-0.150698
-0.126702
-0.101748
-0.0864913
-0.0841209
-0.0947434
-0.12302
-0.174253
-0.239981
-0.294248
-0.313021
-0.267162
-0.201508
-0.137267
-0.0892888
-0.0598982
-0.0469201
-0.0432355
-0.0380848
-0.0328223
-0.0309827
-0.0394882
-0.0586515
-0.0864527
-0.112074
-0.117219
-0.104955
-0.0738822
-0.042713
-0.0135265
0.0101388
0.0141997
0.00881284
-0.0202626
-0.0435512
-0.0178706
-0.111694
-0.135844
-0.167689
-0.206204
-0.248346
-0.288164
-0.32169
-0.346923
-0.360341
-0.35441
-0.325396
-0.280121
-0.230721
-0.186154
-0.149808
-0.121715
-0.101018
-0.0866203
-0.0775377
-0.0737461
-0.0773814
-0.0908842
-0.10855
-0.121011
-0.115633
-0.0986365
-0.0793066
-0.0680115
-0.0683966
-0.0809713
-0.110434
-0.162471
-0.230439
-0.288357
-0.308578
-0.269568
-0.204125
-0.137832
-0.0864053
-0.0538439
-0.0378323
-0.0318304
-0.0247042
-0.0189855
-0.018016
-0.0301308
-0.0549514
-0.0896268
-0.121006
-0.127097
-0.112912
-0.0779303
-0.0421909
-0.00856346
0.0200165
0.0227386
0.0156352
-0.0201263
-0.0483783
-0.0207348
-0.0945085
-0.117352
-0.146483
-0.181736
-0.220174
-0.256515
-0.287984
-0.311235
-0.321038
-0.313381
-0.287293
-0.249357
-0.208494
-0.170684
-0.138454
-0.112138
-0.0914176
-0.0759257
-0.0649309
-0.058083
-0.0565074
-0.0624933
-0.0736445
-0.0838499
-0.0834695
-0.0719623
-0.0575029
-0.0494211
-0.0517191
-0.0654316
-0.0947103
-0.145029
-0.212606
-0.272949
-0.296447
-0.265068
-0.202723
-0.136694
-0.0832422
-0.0482464
-0.0298046
-0.0221486
-0.0133914
-0.00675379
-0.00579126
-0.0203933
-0.0503006
-0.0918919
-0.12921
-0.136211
-0.119882
-0.0813178
-0.0415436
-0.00428774
0.0291291
0.0306071
0.0222028
-0.0193453
-0.0524323
-0.0234393
-0.090136
-0.108803
-0.131633
-0.161218
-0.194106
-0.225951
-0.252249
-0.27123
-0.277983
-0.270207
-0.248858
-0.219169
-0.186843
-0.155647
-0.127545
-0.103284
-0.0830093
-0.0668082
-0.0543765
-0.045256
-0.0398334
-0.0397872
-0.044906
-0.051968
-0.0549964
-0.0472748
-0.0372502
-0.0317555
-0.0352362
-0.0491973
-0.0770589
-0.124218
-0.188604
-0.249407
-0.27757
-0.254385
-0.197567
-0.133839
-0.0799165
-0.0432082
-0.022831
-0.0140104
-0.00413686
0.0036437
0.00544445
-0.0105692
-0.0447912
-0.0928398
-0.136315
-0.144365
-0.125736
-0.083962
-0.0407319
-0.000720986
0.0373524
0.0377365
0.028412
-0.0178599
-0.05564
-0.0259294
-0.0950464
-0.106915
-0.121404
-0.14324
-0.168456
-0.194484
-0.215143
-0.228824
-0.233664
-0.228055
-0.21298
-0.191531
-0.166931
-0.141677
-0.117469
-0.0953612
-0.0758583
-0.0593601
-0.0459253
-0.0352235
-0.027217
-0.0227697
-0.0226153
-0.0256149
-0.0285013
-0.0246831
-0.0191226
-0.0157829
-0.0197343
-0.0333629
-0.0591781
-0.101222
-0.160655
-0.220672
-0.25293
-0.239481
-0.189301
-0.129251
-0.0763697
-0.0386923
-0.0168431
-0.00717809
0.00321486
0.0121347
0.0153964
-0.000641272
-0.0380727
-0.0926231
-0.142279
-0.15149
-0.130461
-0.0857955
-0.0397439
0.00212395
0.0446042
0.0440956
0.0341733
-0.0156897
-0.0579634
-0.0281543
-0.101067
-0.105378
-0.11298
-0.126851
-0.143545
-0.160409
-0.176945
-0.18762
-0.192527
-0.190368
-0.181388
-0.166939
-0.148785
-0.128701
-0.108149
-0.0883057
-0.0699344
-0.0535953
-0.0395983
-0.0278629
-0.0182062
-0.0109332
-0.00662335
-0.00546405
-0.00639333
-0.0055772
-0.00375837
-0.00209136
-0.00608026
-0.0189092
-0.0421152
-0.0789697
-0.132017
-0.187846
-0.223249
-0.217634
-0.177049
-0.122822
-0.0727528
-0.0348829
-0.0118934
-0.00155149
0.00882532
0.0187084
0.0237938
0.00878951
-0.0306481
-0.0905107
-0.146308
-0.157136
-0.133795
-0.0867918
-0.0386751
0.00407743
0.0508091
0.0496583
0.0393665
-0.0128538
-0.059369
-0.0300628
-0.103453
-0.103126
-0.106953
-0.113664
-0.122554
-0.133818
-0.145094
-0.15459
-0.160465
-0.161436
-0.157079
-0.147788
-0.134536
-0.118608
-0.10124
-0.0835571
-0.0664478
-0.0505679
-0.0363152
-0.0238466
-0.0130411
-0.00396107
0.00323283
0.0078547
0.00958547
0.0120147
0.00963801
0.00938868
0.00544669
-0.00620205
-0.0264535
-0.0572455
-0.102865
-0.155963
-0.193705
-0.200943
-0.165335
-0.116435
-0.0699097
-0.0324576
-0.00825717
0.00294399
0.0128459
0.0232587
0.0306857
0.0180931
-0.0219243
-0.0868779
-0.149146
-0.161456
-0.136073
-0.0871264
-0.0375686
0.00514391
0.0557706
0.0544553
0.0439645
-0.00944152
-0.0598889
-0.0316276
-0.103582
-0.103499
-0.104715
-0.105688
-0.108768
-0.114204
-0.121359
-0.127833
-0.132759
-0.134867
-0.133363
-0.128045
-0.119163
-0.107348
-0.0934015
-0.0782424
-0.0627322
-0.0476811
-0.0335931
-0.0207553
-0.00930904
0.000651824
0.00945028
0.0165526
0.0199897
0.0164041
0.0189126
0.0179834
0.0144935
0.0038571
-0.0143162
-0.0392908
-0.0770938
-0.124084
-0.159589
-0.167819
-0.145495
-0.105998
-0.0645146
-0.0293133
-0.00479649
0.00728482
0.0166814
0.0263739
0.0353026
0.0256684
-0.0128947
-0.0806505
-0.148691
-0.163171
-0.136711
-0.086054
-0.0355226
0.00668141
0.0597042
0.0583652
0.0477963
-0.00550407
-0.0594976
-0.0327431
-0.101907
-0.104279
-0.104313
-0.103563
-0.103933
-0.106731
-0.11082
-0.115288
-0.11855
-0.119455
-0.117316
-0.11195
-0.103564
-0.0926683
-0.079934
-0.0661399
-0.0519813
-0.0380971
-0.0249407
-0.0126933
-0.00154194
0.00828924
0.0172678
0.025336
0.030772
0.0308513
0.0291347
0.0255631
0.0217396
0.0138704
4.11428e-05
-0.0202529
-0.0528672
-0.0967323
-0.134263
-0.146938
-0.128641
-0.0921547
-0.054044
-0.0220173
0.000729153
0.0121341
0.0208638
0.0303559
0.0418284
0.0344032
-0.00228874
-0.0720886
-0.14738
-0.164773
-0.135413
-0.082367
-0.0316698
0.00936517
0.0634333
0.0617954
0.0510929
-0.0011368
-0.0584577
-0.0334104
-0.0980731
-0.101554
-0.10119
-0.0989553
-0.0973261
-0.0976216
-0.0995974
-0.102028
-0.103572
-0.103207
-0.100389
-0.0950322
-0.0873217
-0.0776587
-0.0665123
-0.0544166
-0.0418894
-0.0294121
-0.0173485
-0.00587672
0.004764
0.0142531
0.0229136
0.0307423
0.0361868
0.0367108
0.034127
0.030168
0.0261327
0.0193584
0.00806876
-0.00802227
-0.0346514
-0.0744467
-0.110889
-0.123051
-0.108398
-0.0765354
-0.0430513
-0.0151993
0.00542993
0.0162256
0.0244056
0.0334406
0.0444892
0.0396242
0.00531574
-0.0646469
-0.144972
-0.164067
-0.131395
-0.0773074
-0.0272858
0.0117197
0.0661698
0.063849
0.0532108
0.00293682
-0.0568857
-0.0336061
-0.090788
-0.0954855
-0.0955798
-0.092942
-0.0903309
-0.088968
-0.0891338
-0.0899738
-0.0903113
-0.0892164
-0.0861937
-0.0811581
-0.0742403
-0.0657081
-0.0558713
-0.0450887
-0.0337572
-0.0222977
-0.0110726
-0.000301604
0.00986845
0.0190824
0.0274235
0.0349512
0.0406064
0.0419182
0.0384786
0.0335104
0.0291513
0.0232438
0.0132862
-0.000556135
-0.0224796
-0.0548375
-0.0852727
-0.0988817
-0.0884568
-0.0618582
-0.0328449
-0.00879118
0.00977389
0.0196838
0.0274031
0.0359622
0.0469991
0.0428968
0.0101097
-0.0587785
-0.140513
-0.160232
-0.12541
-0.0712408
-0.0225852
0.0137825
0.0680441
0.0650484
0.0542882
0.0066754
-0.0545285
-0.0333163
-0.0824565
-0.0880457
-0.0886903
-0.0860608
-0.0827701
-0.0804073
-0.0793845
-0.079103
-0.0785605
-0.076925
-0.0737227
-0.0688524
-0.0624077
-0.0546164
-0.0457412
-0.0360522
-0.0258553
-0.0154862
-0.00519935
0.00476002
0.0142181
0.0228969
0.03078
0.0377548
0.0431605
0.0447253
0.0414034
0.0361493
0.0318595
0.0270449
0.0183044
0.00605218
-0.0105427
-0.0335334
-0.0593166
-0.0744056
-0.0683964
-0.0468739
-0.0222848
-0.00235779
0.013766
0.0225645
0.029902
0.0378318
0.0487782
0.045182
0.0138633
-0.0517263
-0.132481
-0.15285
-0.117135
-0.0639298
-0.0173608
0.0158277
0.0688984
0.0654159
0.0545725
0.0103994
-0.0512403
-0.0324934
-0.0737425
-0.0796244
-0.0806919
-0.078282
-0.0748538
-0.0720084
-0.0702109
-0.069082
-0.0678389
-0.0657682
-0.0624411
-0.0577618
-0.0518233
-0.0448082
-0.0369056
-0.0282952
-0.0191636
-0.00977903
-0.000356081
0.0088775
0.0177138
0.0258553
0.0332664
0.0396588
0.0445559
0.046373
0.0434363
0.0384003
0.0345268
0.0306645
0.0229283
0.0129014
0.00276892
-0.0123446
-0.0349114
-0.0509906
-0.0489549
-0.0326525
-0.0123843
0.00378666
0.0174372
0.0249527
0.0318609
0.0391239
0.0494383
0.0464612
0.0177682
-0.0420261
-0.120186
-0.141045
-0.106301
-0.0555872
-0.0118825
0.0177858
0.0686051
0.0649084
0.0542544
0.0143118
-0.0469981
-0.0310902
-0.0645106
-0.0705951
-0.0720879
-0.0700425
-0.0667119
-0.0636621
-0.0614021
-0.059718
-0.0580154
-0.0557056
-0.0524107
-0.0480149
-0.0425674
-0.0362049
-0.0290728
-0.0213124
-0.013061
-0.00455408
0.00402823
0.0124787
0.0205894
0.0280535
0.034889
0.0407552
0.045152
0.0469187
0.0447287
0.0403838
0.0371371
0.0342443
0.0279521
0.0208932
0.0159694
0.00627694
-0.0137915
-0.0300604
-0.0309886
-0.0193373
-0.00301798
0.00974098
0.0208035
0.0269413
0.0332992
0.0398786
0.0489502
0.046851
0.0219771
-0.0301467
-0.103655
-0.124492
-0.0928717
-0.0464317
-0.00632321
0.0197266
0.0670906
0.0635149
0.0534001
0.0182717
-0.0418483
-0.0290889
-0.0553449
-0.0614324
-0.0632023
-0.0615161
-0.0584228
-0.055392
-0.052953
-0.0509924
-0.0490527
-0.0466487
-0.043445
-0.0393128
-0.0342817
-0.0284777
-0.0220352
-0.0150845
-0.00771252
-8.66538e-05
0.00765421
0.0153262
0.02275
0.0295864
0.0358416
0.0412125
0.0452006
0.0470594
0.0456042
0.0422562
0.0398237
0.0383619
0.0346917
0.0309174
0.0287197
0.0212167
0.00306863
-0.0120009
-0.0146765
-0.00724844
0.00533705
0.0152739
0.0238919
0.028673
0.0343231
0.0402235
0.047561
0.0462499
0.0256684
-0.0172417
-0.0835451
-0.103426
-0.077008
-0.0367947
-0.000997952
0.0216346
0.0643677
0.0612508
0.0520041
0.0220411
-0.0358528
-0.026488
-0.0465007
-0.0522808
-0.054205
-0.052921
-0.0501781
-0.0473245
-0.0448959
-0.0428436
-0.04081
-0.0383964
-0.0353194
-0.0314676
-0.0268661
-0.0216255
-0.0158505
-0.00963995
-0.00304717
0.00379548
0.0107693
0.0176968
0.0244282
0.0306387
0.0363055
0.0412045
0.0448579
0.0468122
0.0461546
0.0439664
0.0424692
0.0424264
0.0418782
0.0412847
0.0398079
0.0322417
0.0162689
0.00333171
-0.000399554
0.00340957
0.0126422
0.0203062
0.0267438
0.0302771
0.0350697
0.0403016
0.0456341
0.0447413
0.0284607
-0.0043248
-0.061206
-0.0789959
-0.0592327
-0.0270213
0.00385009
0.0235135
0.0605391
0.0581619
0.0501351
0.0254947
-0.0290821
-0.0233104
-0.0378799
-0.0433404
-0.0453736
-0.0444941
-0.0421325
-0.0395322
-0.0372194
-0.0351912
-0.0331703
-0.0308342
-0.0279493
-0.02442
-0.0202579
-0.015548
-0.0103713
-0.00481766
0.00106309
0.00716386
0.0133938
0.0195947
0.0256455
0.0312658
0.0363837
0.0408556
0.0442369
0.0462887
0.0463879
0.0453193
0.044804
0.0459427
0.047479
0.048688
0.047256
0.0397618
0.0265596
0.0159221
0.0115725
0.0125069
0.0188044
0.0246522
0.0293305
0.0318315
0.0357126
0.040271
0.0436288
0.0427426
0.0305985
0.00754864
-0.0387396
-0.0533263
-0.0404884
-0.017452
0.00807355
0.0253688
0.055852
0.05444
0.0479936
0.0286093
-0.0216477
-0.0195995
-0.0297504
-0.0349017
-0.0370224
-0.0363846
-0.0343645
-0.0320473
-0.0299165
-0.0280005
-0.026085
-0.023904
-0.0212587
-0.0180636
-0.014322
-0.0101064
-0.00549012
-0.000556531
0.00465504
0.0100635
0.0156002
0.0211245
0.0265311
0.031595
0.0362079
0.040285
0.043447
0.0455758
0.0463191
0.0461976
0.046494
0.0482291
0.0504385
0.0521301
0.0509598
0.0445131
0.0341155
0.0254808
0.0209705
0.0199803
0.0238956
0.0282656
0.0316201
0.0332944
0.0363264
0.0402633
0.0421138
0.0409481
0.032477
0.0173333
-0.018375
-0.0289584
-0.0221225
-0.00838565
0.0117381
0.0272563
0.0508784
0.0504897
0.0458674
0.0314149
-0.0137283
-0.0154213
-0.0222441
-0.0269294
-0.0289694
-0.0285948
-0.0269276
-0.0249187
-0.0230173
-0.0212742
-0.0195211
-0.0175368
-0.0151522
-0.0122937
-0.00896345
-0.00522576
-0.00114406
0.00321162
0.00780903
0.0125814
0.0174734
0.0223679
0.0271703
0.0317081
0.0358619
0.0395736
0.0425551
0.0447368
0.0459655
0.0465685
0.0474118
0.0492868
0.0514337
0.0529661
0.0520877
0.0470429
0.039048
0.0321369
0.0279094
0.0259157
0.0280247
0.0311444
0.0335658
0.0346267
0.0368863
0.0402539
0.0414833
0.0397962
0.034171
0.0243218
-0.00173208
-0.0081963
-0.00579072
-0.000106198
0.0150569
0.0291474
0.046573
0.0470417
0.0441315
0.033981
-0.00558966
-0.0108664
-0.0152287
-0.0194448
-0.0214054
-0.0212586
-0.0199182
-0.0182126
-0.0165548
-0.0150077
-0.0134418
-0.0116757
-0.00956585
-0.00704672
-0.00411884
-0.000836096
0.00274691
0.00656935
0.0106001
0.0147851
0.0190811
0.0233927
0.0276379
0.0316831
0.035417
0.0387887
0.0416058
0.0438058
0.0453464
0.0464372
0.047589
0.0493612
0.0511997
0.0523749
0.0516711
0.0479155
0.0418999
0.0364517
0.0327603
0.0304451
0.0313069
0.0333726
0.0351282
0.0357651
0.037393
0.0402242
0.0415002
0.0391647
0.0354726
0.0285295
0.010498
0.00733183
0.00707663
0.00716861
0.0181966
0.0308417
0.0438543
0.0448665
0.0431852
0.036248
0.00231694
-0.00612706
-0.00873918
-0.0125452
-0.0144219
-0.0144445
-0.0133808
-0.0119512
-0.0105291
-0.00918492
-0.00782055
-0.00628473
-0.0044528
-0.00226525
0.000279043
0.00313513
0.00625384
0.00958155
0.0130899
0.0167356
0.0204856
0.024261
0.0279957
0.0315822
0.0349287
0.0379822
0.0406258
0.0428001
0.0444987
0.0458647
0.0471543
0.0487281
0.0502199
0.0510522
0.0504565
0.0477407
0.0433067
0.0390746
0.0359895
0.0337582
0.0338395
0.0350584
0.0363093
0.0366486
0.0378317
0.0401875
0.0415921
0.0391809
0.036738
0.0313355
0.019043
0.0173566
0.0160171
0.0134147
0.0212084
0.032248
0.0429839
0.0447081
0.0431885
0.0378167
0.00925844
-0.00159425
-0.0028588
-0.0062531
-0.00799827
-0.00813464
-0.00730709
-0.00613137
-0.00493797
-0.00379919
-0.00263921
-0.00133094
0.000232217
0.00210393
0.00428689
0.00674421
0.00943189
0.0123033
0.0153338
0.0184872
0.0217391
0.0250244
0.0282919
0.0314524
0.0344382
0.0371903
0.0396414
0.0417404
0.04348
0.0449544
0.046272
0.0476355
0.0488219
0.0494084
0.0489057
0.0469732
0.0437648
0.0405263
0.0380228
0.0360576
0.0357077
0.036298
0.0371513
0.037293
0.0381795
0.0401394
0.0415093
0.0406618
0.0380361
0.0336639
0.0251277
0.0234445
0.0219959
0.0186635
0.0239137
0.0332629
0.0433006
0.0456889
0.0434679
0.0379843
0.0143645
0.00214503
0.00246444
-0.00051723
-0.00210826
-0.00233126
-0.00171267
-0.000770518
0.000208058
0.00115291
0.00212018
0.00321356
0.00452339
0.00609941
0.0079468
0.0100357
0.0123277
0.0147823
0.0173781
0.0200844
0.0228836
0.0257221
0.0285628
0.0313293
0.0339747
0.036439
0.0386823
0.0406593
0.0423554
0.0438247
0.0451025
0.0462826
0.0472275
0.0476668
0.0472611
0.0459055
0.0436148
0.0411814
0.0391963
0.0375499
0.037003
0.0371646
0.0377047
0.0377344
0.0384166
0.0399922
0.0410406
0.0402347
0.0387624
0.0353426
0.0291807
0.027173
0.025901
0.0228959
0.0261438
0.0338419
0.0434172
0.0455045
0.0427419
0.0361897
0.0170893
0.00460853
0.00729714
0.00468598
0.00322166
0.00293561
0.00338082
0.00412538
0.00491744
0.00568824
0.00647797
0.00737203
0.00844854
0.00975373
0.0112946
0.0130478
0.0149802
0.017057
0.0192594
0.0215612
0.0239511
0.0263847
0.0288358
0.0312389
0.0335614
0.0357486
0.0377733
0.0395946
0.0411924
0.0425881
0.0437842
0.0448159
0.0455822
0.0459452
0.0456436
0.0447094
0.0430957
0.0412998
0.0397624
0.0384192
0.0378171
0.0377158
0.0380161
0.0379892
0.0385015
0.0396924
0.0403768
0.0397245
0.0388347
0.0362145
0.0315267
0.0294343
0.0284033
0.026054
0.0278227
0.0339299
0.0424777
0.0437849
0.0404767
0.0331101
0.0176895
0.00571653
0.0116567
0.00937178
0.00804849
0.00771467
0.00801712
0.00859012
0.00921528
0.00982677
0.0104537
0.0111671
0.0120337
0.0130951
0.0143602
0.015811
0.0174199
0.0191566
0.0210052
0.0229438
0.024965
0.0270329
0.0291288
0.0311985
0.0332169
0.0351356
0.0369364
0.0385816
0.0400475
0.0413344
0.0424264
0.0433385
0.0439789
0.0443064
0.0441115
0.0434844
0.0423692
0.0410601
0.0398929
0.0388191
0.0382392
0.0379991
0.0381196
0.0380624
0.0384091
0.0392285
0.0396215
0.0390899
0.038404
0.0364185
0.0327263
0.030724
0.0298759
0.0281466
0.0289298
0.0335022
0.040392
0.0409416
0.0374287
0.029882
0.0171228
0.00588132
0.0155373
0.0135564
0.012377
0.0120277
0.0122147
0.0126368
0.0131124
0.0135823
0.0140658
0.01462
0.0153011
0.0161467
0.0171668
0.0183485
0.019669
0.0211025
0.0226354
0.0242499
0.0259409
0.0276803
0.0294538
0.0312175
0.0329518
0.0346158
0.0361924
0.0376498
0.0389637
0.0401275
0.0411076
0.0419188
0.0424739
0.0427855
0.0426906
0.0422845
0.041531
0.04059
0.0397175
0.0388748
0.0383512
0.0380537
0.0380441
0.0379577
0.0381422
0.0386312
0.0388158
0.0383319
0.0376602
0.036145
0.0332387
0.0313633
0.0305849
0.0292809
0.0295251
0.0327241
0.0376991
0.0377998
0.0341997
0.0269167
0.0160665
0.00559326
0.0189984
0.0172991
0.016251
0.0158866
0.0159783
0.0162741
0.0166242
0.0169741
0.0173345
0.0177504
0.0182701
0.0189274
0.019733
0.020678
0.0217442
0.0229101
0.0241638
0.0254912
0.0268882
0.0283338
0.0298163
0.0313018
0.032773
0.0341966
0.0355556
0.0368253
0.0379802
0.0390127
0.0398815
0.0406028
0.0410975
0.0413982
0.041389
0.0411419
0.0406447
0.0399741
0.0392965
0.0386789
0.0382263
0.0379162
0.0378148
0.0376884
0.0377279
0.0379469
0.0379551
0.0374923
0.0367721
0.0355653
0.0333122
0.0315726
0.0307706
0.0298067
0.0296902
0.03166
0.0348845
0.0346456
0.0310213
0.0242177
0.0148303
0.00515968
0.0220881
0.0206261
0.0196907
0.0193271
0.0193472
0.0195404
0.0197814
0.0200262
0.0202801
0.0205776
0.020959
0.0214543
0.0220746
0.0228141
0.0236585
0.0245903
0.025599
0.0266734
0.0278104
0.028995
0.0302174
0.0314515
0.0326816
0.0338812
0.0350345
0.0361228
0.0371196
0.0380193
0.0387801
0.0394164
0.0398625
0.0401512
0.0402066
0.0400734
0.0397567
0.0392922
0.0388054
0.0383204
0.0379276
0.0376214
0.0374557
0.0372839
0.0372028
0.0372116
0.0370734
0.0366071
0.0358512
0.0348142
0.0330737
0.0314863
0.0306122
0.029826
0.0294642
0.0303925
0.0321796
0.0316149
0.0280145
0.0217413
0.0135502
0.00470726
0.0248124
0.023561
0.0227353
0.0223772
0.0223391
0.0224529
0.0226046
0.022759
0.022922
0.0231201
0.0233853
0.0237431
0.0242051
0.024768
0.0254208
0.0261495
0.0269449
0.0277985
0.0287077
0.0296622
0.0306536
0.031662
0.0326735
0.0336682
0.0346304
0.0355461
0.0363912
0.0371609
0.0378173
0.0383711
0.0387722
0.0390438
0.03914
0.0390853
0.0388913
0.038575
0.0382215
0.0378415
0.0375
0.0372027
0.0369904
0.0367759
0.0365968
0.0364551
0.0361912
0.0357034
0.034943
0.0339848
0.0326053
0.031182
0.0302165
0.0294716
0.02892
0.0290281
0.0296746
0.028776
0.0252514
0.0194885
0.0122918
0.00427404
0.0272108
0.0261482
0.025424
0.025076
0.0249909
0.0250342
0.025116
0.0251972
0.0252833
0.0253971
0.0255648
0.0258074
0.0261358
0.0265487
0.0270377
0.0275919
0.0282035
0.028866
0.0295772
0.03033
0.0311179
0.031926
0.0327421
0.0335506
0.0343374
0.0350918
0.0357942
0.0364392
0.0369954
0.0374683
0.0378221
0.03807
0.0381851
0.0381792
0.0380628
0.0378464
0.0375805
0.037273
0.0369778
0.0366915
0.0364434
0.0361903
0.0359341
0.0356824
0.0353219
0.034798
0.034052
0.0331319
0.0319703
0.0307008
0.0296559
0.0288518
0.0281323
0.0276349
0.0273994
0.0261732
0.0227675
0.0174711
0.0110928
0.00386808
0.0293219
0.0284198
0.0277835
0.027449
0.0273276
0.0273141
0.0273356
0.0273606
0.0273849
0.0274281
0.027514
0.0276607
0.0278776
0.0281644
0.028515
0.0289206
0.0293751
0.0298734
0.0304138
0.0309917
0.0316018
0.0322335
0.0328761
0.0335181
0.0341462
0.0347504
0.0353216
0.035849
0.036309
0.036702
0.0370038
0.0372204
0.0373352
0.0373533
0.0372812
0.0371268
0.0369171
0.0366658
0.0363946
0.0361145
0.0358403
0.0355513
0.0352345
0.0348983
0.0344685
0.0339042
0.0331716
0.0322767
0.0312257
0.0300735
0.0289761
0.0280524
0.0271705
0.0262525
0.0253577
0.0238297
0.020565
0.0156898
0.00997998
0.00349063
0.031166
0.0304013
0.0298435
0.0295248
0.0293773
0.0293179
0.029289
0.0292643
0.0292414
0.0292308
0.0292503
0.0293174
0.0294414
0.029623
0.0298574
0.0301378
0.0304591
0.0308176
0.0312118
0.0316391
0.0320954
0.0325732
0.0330635
0.0335575
0.0340444
0.0345181
0.0349645
0.0353804
0.0357469
0.0360613
0.0363067
0.0364843
0.0365832
0.0366055
0.0365522
0.0364306
0.0362521
0.0360311
0.0357763
0.0354975
0.0351985
0.0348772
0.0345139
0.0341122
0.03363
0.0330295
0.0322974
0.0314215
0.0304185
0.0293308
0.0282042
0.0271467
0.0261022
0.0249041
0.0235371
0.0217456
0.0186265
0.0141346
0.00897164
0.00314309
0.0327699
0.0321234
0.0316348
0.0313324
0.0311653
0.0310695
0.0309998
0.030935
0.030872
0.0308183
0.0307871
0.0307908
0.0308387
0.0309329
0.0310702
0.0312455
0.0314547
0.0316951
0.0319655
0.0322643
0.0325887
0.0329331
0.0332904
0.0336534
0.0340132
0.0343678
0.0347041
0.0350178
0.0352953
0.035533
0.0357184
0.0358509
0.0359217
0.035932
0.0358783
0.0357675
0.0356014
0.0353918
0.0351409
0.0348569
0.0345384
0.0341854
0.0337846
0.0333326
0.0328062
0.0321753
0.031432
0.0305647
0.0295789
0.0285088
0.0273623
0.0261887
0.024985
0.0236
0.021918
0.0199115
0.0169299
0.0127881
0.00807752
0.00282824
0.0341592
0.033612
0.0331831
0.032897
0.0327161
0.032592
0.0324894
0.0323913
0.032294
0.0322036
0.0321309
0.0320866
0.0320764
0.0321019
0.0321582
0.0322461
0.0323618
0.0325032
0.0326695
0.0328596
0.0330715
0.0333013
0.0335424
0.0337915
0.0340423
0.0342895
0.0345254
0.0347453
0.0349388
0.0351025
0.0352264
0.0353094
0.0353433
0.035329
0.035261
0.0351438
0.0349749
0.0347626
0.0345059
0.03421
0.0338715
0.0334905
0.0330567
0.032565
0.0319999
0.0313418
0.0305813
0.0297091
0.0287255
0.0276444
0.0264729
0.0252128
0.0238659
0.0223497
0.0204797
0.0183133