/*--------------------------------*- C++ -*----------------------------------*\
| =========                 |                                                 |
| \\      /  F ield         | OpenFOAM: The Open Source CFD Toolbox           |
|  \\    /   O peration     | Version:  2312                                  |
|   \\  /    A nd           | Website:  www.openfoam.com                      |
|    \\/     M anipulation  |                                                 |
\*---------------------------------------------------------------------------*/
FoamFile
{
    version     2.0;
    format      ascii;
    arch        "LSB;label=32;scalar=64";
    class       volScalarField;
    location    "18.5";
    object      p;
}
// * * * * * * * * * * * * * * * * * * * * * * * * * * * * * * * * * * * * * //

dimensions      [0 2 -2 0 0 0 0];

internalField   nonuniform List<scalar> 
5478
(
-0.293003
-0.29079
-0.285799
-0.280338
-0.276251
-0.274947
-0.276863
-0.281385
-0.287102
-0.292316
-0.295814
-0.295973
-0.293484
-0.286107
-0.27629
-0.300642
-0.297677
-0.292628
-0.286797
-0.281521
-0.277638
-0.275507
-0.274734
-0.274334
-0.273236
-0.270602
-0.266291
-0.260236
-0.2522
-0.243619
-0.312665
-0.307872
-0.301836
-0.29493
-0.287476
-0.28003
-0.273191
-0.267017
-0.261143
-0.255157
-0.248848
-0.241864
-0.23405
-0.225126
-0.215651
-0.328766
-0.321335
-0.313427
-0.304199
-0.293009
-0.280932
-0.269189
-0.258291
-0.248238
-0.238821
-0.229641
-0.220489
-0.211143
-0.201532
-0.192506
-0.349343
-0.338195
-0.327746
-0.31415
-0.297333
-0.279846
-0.263402
-0.248513
-0.235116
-0.222911
-0.211638
-0.201007
-0.190762
-0.180971
-0.171348
-0.374455
-0.358214
-0.343396
-0.322841
-0.299026
-0.275939
-0.255178
-0.236927
-0.220878
-0.206662
-0.193862
-0.182141
-0.171288
-0.16111
-0.15135
-0.400485
-0.379667
-0.356784
-0.327138
-0.296094
-0.26785
-0.243387
-0.222402
-0.20432
-0.188582
-0.174746
-0.162452
-0.15141
-0.141392
-0.131861
-0.421846
-0.397584
-0.363822
-0.324188
-0.286539
-0.253957
-0.226575
-0.203584
-0.184148
-0.167594
-0.153347
-0.140988
-0.130217
-0.120622
-0.111889
-0.247382
-0.254378
-0.262735
-0.275266
-0.29156
-0.310757
-0.33216
-0.355085
-0.378866
-0.402821
-0.426233
-0.448333
-0.468304
-0.485414
-0.499078
-0.260254
-0.265074
-0.272357
-0.284123
-0.299885
-0.318811
-0.340224
-0.363453
-0.387833
-0.412657
-0.437191
-0.460758
-0.482323
-0.501337
-0.515156
-0.274393
-0.276339
-0.281951
-0.292183
-0.306443
-0.323979
-0.344157
-0.366332
-0.389865
-0.414156
-0.437889
-0.461844
-0.482049
-0.502986
-0.515621
-0.285056
-0.2842
-0.287604
-0.295301
-0.3069
-0.321836
-0.339553
-0.359478
-0.38087
-0.403637
-0.425298
-0.44859
-0.466506
-0.485825
-0.498275
-0.290588
-0.28765
-0.288363
-0.292488
-0.30017
-0.311315
-0.325533
-0.342463
-0.360956
-0.381478
-0.40082
-0.422543
-0.439973
-0.456908
-0.467143
-0.291707
-0.287942
-0.285986
-0.285924
-0.288792
-0.295279
-0.305455
-0.319104
-0.335419
-0.354363
-0.373327
-0.392502
-0.408268
-0.421573
-0.427893
-0.290613
-0.287214
-0.283331
-0.279739
-0.278472
-0.281083
-0.288354
-0.3
-0.314895
-0.330888
-0.347026
-0.361246
-0.372449
-0.380567
-0.381755
-0.290032
-0.287507
-0.282671
-0.27734
-0.274014
-0.274547
-0.279554
-0.288371
-0.299583
-0.310924
-0.321492
-0.328713
-0.33281
-0.333222
-0.329814
-0.510621
-0.51254
-0.502505
-0.478079
-0.438504
-0.38311
-0.313048
-0.230158
-0.140463
-0.0529975
0.0201997
0.071206
0.0968426
0.102484
0.0960774
0.0843122
0.0714226
0.0596643
0.0496628
0.0412964
0.0343816
0.028662
0.0239853
0.0201756
0.0170715
0.0145066
0.0123116
0.010457
0.00884198
0.00750127
0.00631051
0.00528911
0.00438034
0.00359904
0.00284009
0.00209097
0.00129899
0.000470177
-0.531312
-0.533787
-0.525304
-0.501909
-0.462781
-0.407477
-0.336794
-0.253248
-0.162395
-0.0742082
-0.000415867
0.0511894
0.0788553
0.0876743
0.0848337
0.0764005
0.0661975
0.0563542
0.047627
0.0400995
0.0337298
0.0283583
0.0238947
0.020206
0.0171727
0.0146531
0.0124817
0.0106406
0.00902322
0.00766777
0.00646722
0.0054214
0.00450195
0.00369394
0.00292012
0.00214249
0.00133604
0.00047172
-0.531118
-0.537608
-0.531746
-0.511093
-0.474996
-0.422707
-0.355044
-0.274338
-0.185928
-0.0998639
-0.0276572
0.0237346
0.0537242
0.066964
0.0694249
0.0656807
0.059089
0.0517998
0.0447856
0.0383789
0.0327308
0.0278304
0.0236626
0.0201417
0.0172065
0.0147384
0.0126106
0.0107882
0.00918439
0.0078185
0.0066143
0.00555046
0.00462122
0.00378739
0.00299925
0.00219413
0.00137348
0.000474451
-0.508723
-0.519217
-0.519328
-0.50308
-0.471155
-0.423641
-0.360916
-0.286974
-0.206234
-0.126054
-0.0568988
-0.00574402
0.0270967
0.0452431
0.0531937
0.0546462
0.0518502
0.0471365
0.0418364
0.036551
0.0316229
0.0271993
0.023337
0.020008
0.0171847
0.0147805
0.0127044
0.0109065
0.00932528
0.00795483
0.00675188
0.00567449
0.0047353
0.00387934
0.00307694
0.00224623
0.00141103
0.000478918
-0.470634
-0.48281
-0.48919
-0.478347
-0.452177
-0.411204
-0.355388
-0.288186
-0.216541
-0.147444
-0.0840241
-0.0333714
0.00237839
0.025217
0.0381104
0.0439754
0.0448189
0.04258
0.0389123
0.0347246
0.0305188
0.0265679
0.0229973
0.0198577
0.0171415
0.0148067
0.0127776
0.0110079
0.00944885
0.00807905
0.00687899
0.0057932
0.00484338
0.00396973
0.00315246
0.00229898
0.00144818
0.000485769
-0.424622
-0.435216
-0.445904
-0.439352
-0.418852
-0.385256
-0.338803
-0.28172
-0.22016
-0.160715
-0.105891
-0.0572395
-0.0193457
0.00730274
0.0242584
0.0337665
0.0376997
0.0378479
0.0357558
0.0326153
0.0291507
0.0257302
0.0225159
0.019617
0.0170432
0.0148016
0.0128283
0.0110957
0.0095597
0.00819763
0.006999
0.00591137
0.00494576
0.00405885
0.00322549
0.00235276
0.00148459
0.000495961
-0.37328
-0.382131
-0.394246
-0.392323
-0.379331
-0.355108
-0.318933
-0.272865
-0.22087
-0.169101
-0.121135
-0.0757628
-0.0370362
-0.00798504
0.0116621
0.0236662
0.0302499
0.0326751
0.032487
0.0305688
0.0278421
0.0248987
0.022004
0.0193252
0.0168952
0.0147512
0.0128431
0.0111544
0.0096458
0.00829848
0.00710475
0.00603081
0.00504217
0.00414619
0.00329516
0.00240782
0.00151994
0.000510973
-0.325172
-0.335016
-0.341384
-0.340471
-0.334211
-0.320606
-0.298079
-0.266744
-0.227371
-0.183789
-0.140066
-0.0989323
-0.0608627
-0.0290588
-0.00539958
0.0106873
0.0207184
0.0259046
0.027676
0.02745
0.0259293
0.023769
0.0213627
0.0189977
0.0167466
0.0147196
0.0128723
0.0112315
0.00974141
0.00841271
0.00721751
0.00618059
0.00521911
0.00423262
0.00336183
0.00246532
0.00155361
0.000533016
-0.293754
-0.312046
-0.315299
-0.311229
-0.302981
-0.290087
-0.270991
-0.244592
-0.211308
-0.173668
-0.134793
-0.0973193
-0.0630826
-0.0338844
-0.011403
0.00443295
0.0148639
0.0210026
0.023904
0.0246068
0.0238564
0.0222959
0.0203516
0.0183117
0.0163035
0.0144492
0.0127277
0.0111813
0.00974335
0.008466
0.0072862
0.00625003
0.00526093
0.00430386
0.00341654
0.00251541
0.00157905
0.000556135
-0.257312
-0.278613
-0.283464
-0.278169
-0.268789
-0.256459
-0.240064
-0.218364
-0.191094
-0.1596
-0.126346
-0.0940034
-0.064221
-0.0380859
-0.0170407
-0.00153762
0.00921799
0.0160716
0.0198005
0.0213118
0.0213247
0.0204081
0.0189842
0.0173402
0.0156319
0.0139888
0.0124289
0.010991
0.00963913
0.00841535
0.007279
0.00625261
0.00528734
0.0043423
0.00344944
0.00254478
0.00159445
0.000568118
-0.224691
-0.245967
-0.252052
-0.247561
-0.238865
-0.227925
-0.214218
-0.196654
-0.174648
-0.148699
-0.120617
-0.0924415
-0.0658612
-0.0420473
-0.0221965
-0.00701218
0.00392381
0.0113111
0.0157933
0.0180844
0.0188175
0.0185122
0.0175895
0.0163322
0.0149207
0.0134968
0.0121029
0.0107848
0.00952168
0.0083613
0.00726504
0.00626874
0.00531639
0.00437774
0.00347989
0.00256975
0.00160716
0.000575837
-0.19628
-0.215019
-0.221672
-0.218624
-0.211126
-0.201542
-0.189922
-0.175471
-0.157435
-0.135969
-0.112303
-0.0881104
-0.0649689
-0.0439638
-0.0259524
-0.0116225
-0.000887083
0.00676425
0.0118214
0.0147773
0.0161559
0.0164394
0.0160292
0.0151851
0.0140996
0.0129218
0.0117159
0.0105349
0.00937211
0.00828532
0.00723704
0.00626684
0.00532923
0.00440476
0.0035072
0.00259363
0.00162063
0.000583271
-0.169418
-0.186028
-0.192911
-0.191268
-0.185206
-0.177116
-0.167387
-0.155559
-0.141053
-0.123767
-0.104414
-0.0842163
-0.0644007
-0.0459309
-0.0295734
-0.016016
-0.00544961
0.00240222
0.00792573
0.0114772
0.0134678
0.0143205
0.0144121
0.0139776
0.0132174
0.0122911
0.0112797
0.0102452
0.0091898
0.00818261
0.00718709
0.00625259
0.00533532
0.00442633
0.00353094
0.00261502
0.00163387
0.00058999
-0.145179
-0.159844
-0.166547
-0.165964
-0.161301
-0.154712
-0.14675
-0.137197
-0.125626
-0.111837
-0.0961438
-0.0793088
-0.0623259
-0.0461434
-0.0315261
-0.0190579
-0.00901121
-0.00128882
0.00442136
0.00837773
0.0108545
0.0121948
0.0127414
0.0126979
0.0122599
0.0115928
0.0107856
0.00990783
0.0089686
0.00805153
0.00711699
0.00622398
0.00533005
0.0044383
0.00354862
0.00263208
0.00164547
0.000595042
-0.123745
-0.13634
-0.142572
-0.142743
-0.139307
-0.134111
-0.127757
-0.120165
-0.111021
-0.100106
-0.0874885
-0.0736694
-0.0594394
-0.0455911
-0.0328014
-0.0215676
-0.0121744
-0.00468924
0.00109307
0.0053528
0.00824461
0.0100281
0.0110075
0.0113466
0.0112308
0.0108313
0.0102387
0.00952767
0.00871048
0.00788794
0.00701913
0.00617457
0.00531276
0.00444125
0.00356017
0.00264428
0.00165471
0.00059827
-0.104475
-0.115228
-0.120926
-0.121634
-0.119221
-0.115245
-0.110294
-0.104369
-0.097234
-0.0886845
-0.0786909
-0.0675582
-0.0558637
-0.0442095
-0.033164
-0.0231556
-0.0144806
-0.00734899
-0.00165904
0.00272777
0.00588346
0.00799851
0.00933645
0.0100096
0.0101807
0.0100294
0.00964591
0.00910548
0.00841833
0.00769851
0.00690098
0.00610666
0.00527764
0.00442845
0.00356111
0.002649
0.00165997
0.000599463
-0.0872604
-0.0964264
-0.101567
-0.102622
-0.101018
-0.0980567
-0.0942843
-0.0897518
-0.0842756
-0.0776792
-0.0699013
-0.0610875
-0.0516287
-0.0419641
-0.0325674
-0.0238269
-0.0160097
-0.00938832
-0.00394294
0.000426859
0.00371966
0.00606777
0.00770129
0.00867182
0.0091065
0.00919176
0.00901176
0.00863745
0.00807956
0.00746771
0.00675125
0.00601855
0.00523075
0.00440796
0.00355775
0.00264967
0.00166259
0.000600308
-0.0720359
-0.0797837
-0.0843518
-0.0856041
-0.0846217
-0.0824782
-0.079671
-0.0762792
-0.0721632
-0.0671712
-0.0612203
-0.0543526
-0.046829
-0.0389574
-0.031116
-0.0236514
-0.0167757
-0.0107689
-0.00567813
-0.00144657
0.0018614
0.0043353
0.00618791
0.00740615
0.00806499
0.00835889
0.00837169
0.00816347
0.00772886
0.00721286
0.0065676
0.00589276
0.00515584
0.00435217
0.00351948
0.00263158
0.00165387
0.000594614
-0.0584979
-0.0650171
-0.0690401
-0.0703909
-0.069881
-0.0683899
-0.0663619
-0.0638942
-0.0608823
-0.057191
-0.0527284
-0.0474752
-0.0416007
-0.0353121
-0.0289025
-0.0226659
-0.0167564
-0.0114367
-0.0067983
-0.00281437
0.000393656
0.00287587
0.00484554
0.00623925
0.00706613
0.0075266
0.00770576
0.00765006
0.00734959
0.00695085
0.00640509
0.005786
0.00508025
0.00433383
0.00353787
0.00263172
0.0016621
0.000604738
-0.0465225
-0.0519996
-0.0555215
-0.0568967
-0.0567328
-0.0557462
-0.0543284
-0.0525873
-0.0504452
-0.047785
-0.0445192
-0.0405978
-0.0361165
-0.0312049
-0.0260811
-0.0209847
-0.0160211
-0.0114306
-0.0073201
-0.00366887
-0.00064828
0.00174383
0.00373614
0.00523554
0.00617856
0.00675576
0.00706326
0.00713293
0.00692054
0.00659847
0.00609862
0.00556921
0.00494298
0.00417673
0.0033917
0.00255224
0.00158898
0.000561629
-0.0358001
-0.0403934
-0.0434636
-0.0448193
-0.0449115
-0.0443181
-0.0433799
-0.0422104
-0.040755
-0.0389168
-0.0366147
-0.0337747
-0.0304486
-0.0267105
-0.0227128
-0.0186534
-0.0146006
-0.0107626
-0.00723824
-0.00399786
-0.00124949
0.000963825
0.00289149
0.00443526
0.00545114
0.00611617
0.00653008
0.00671899
0.00662785
0.00640963
0.00602789
0.00549733
0.0048802
0.00423454
0.00350396
0.00262093
0.00168348
0.000628075
-0.0264256
-0.0302597
-0.0329215
-0.0342216
-0.0344889
-0.0341864
-0.0336083
-0.0328678
-0.0319271
-0.0307077
-0.0291396
-0.0271467
-0.0247572
-0.0219998
-0.0189712
-0.015831
-0.0126146
-0.00950549
-0.00659247
-0.0038239
-0.00142026
0.000528322
0.00228711
0.00376814
0.00477112
0.00543713
0.00588274
0.00612834
0.00607391
0.0058994
0.00552608
0.00514445
0.00462292
0.00388643
0.00315752
0.00237126
0.00145756
0.000497226
-0.0178096
-0.0210254
-0.0233321
-0.0245612
-0.0249561
-0.0248859
-0.0246014
-0.0242127
-0.0236924
-0.022972
-0.0219888
-0.0206695
-0.0190353
-0.0170901
-0.0148914
-0.0125624
-0.0101007
-0.00766455
-0.0053363
-0.00303879
-0.000992074
0.0006752
0.00223316
0.00362186
0.00458857
0.00525114
0.0057193
0.00601774
0.00604511
0.00594217
0.00566459
0.00519961
0.00467106
0.00413257
0.00347364
0.00262391
0.00170282
0.000652752
-0.0105357
-0.0131933
-0.015175
-0.0163147
-0.0167808
-0.0168634
-0.0167743
-0.0166197
-0.0163845
-0.0160159
-0.0154644
-0.0146561
-0.0136037
-0.0123036
-0.0107887
-0.00915611
-0.00737827
-0.00558482
-0.00384425
-0.00206226
-0.000447958
0.000846082
0.00210086
0.00327782
0.0041057
0.00466084
0.00506024
0.00533676
0.00533004
0.00522912
0.00494418
0.0046586
0.00420642
0.00348858
0.0028252
0.0021089
0.00128455
0.000426028
-0.00331572
-0.00556356
-0.00729143
-0.00835922
-0.00889061
-0.00911099
-0.0091958
-0.00924531
-0.00925437
-0.00918039
-0.0089851
-0.00859955
-0.00802618
-0.00724989
-0.00629009
-0.00522834
-0.00402217
-0.00277772
-0.00154415
-0.000204518
0.00103389
0.0020004
0.00297803
0.0039609
0.00465286
0.00511302
0.00545024
0.00569737
0.00572292
0.00563498
0.00537147
0.00495516
0.00449416
0.00404225
0.0034401
0.0025982
0.0017003
0.000659561
0.00199407
0.000199652
-0.00123939
-0.00219476
-0.00273855
-0.00303306
-0.00321787
-0.0033872
-0.00354029
-0.00364095
-0.00366709
-0.00356638
-0.00335284
-0.0029984
-0.00249574
-0.00191926
-0.00121212
-0.000461374
0.000275707
0.00114089
0.00195779
0.00253599
0.00316066
0.0038557
0.00432836
0.00460354
0.00479357
0.00494426
0.00486184
0.00474494
0.00447732
0.00420341
0.00376209
0.00306424
0.00246417
0.0018362
0.00111562
0.00036625
0.00863209
0.00714673
0.00587676
0.00495635
0.00435627
0.00395857
0.00364387
0.00332082
0.00298406
0.00266927
0.00239795
0.00222146
0.00213041
0.00215007
0.00227505
0.0024394
0.00271247
0.00302665
0.00333803
0.00382252
0.00429493
0.00454214
0.00485076
0.00529457
0.00557227
0.00568172
0.00574847
0.00579714
0.00570737
0.00551764
0.00518939
0.00479452
0.00434722
0.00393889
0.00335646
0.00249787
0.00165521
0.00063971
0.0117457
0.0105657
0.00959757
0.00889889
0.0084098
0.00803591
0.00770395
0.00735715
0.00699267
0.00663009
0.00626657
0.00593905
0.005639
0.00540038
0.00522847
0.00508141
0.00502386
0.00500628
0.00497001
0.00508301
0.0051893
0.00512001
0.00512845
0.00529104
0.005331
0.00523723
0.005135
0.00503644
0.0048111
0.00458366
0.0042645
0.00392046
0.00342604
0.00277751
0.00218965
0.00164583
0.00102218
0.000329709
0.0183864
0.017492
0.0166659
0.0159711
0.0153878
0.0148697
0.0143721
0.0138461
0.0132765
0.0126918
0.0120924
0.0115221
0.0109612
0.010437
0.00993817
0.00944152
0.00899393
0.00861484
0.00821687
0.00800328
0.00779296
0.00743942
0.00713362
0.00703892
0.00688359
0.0066018
0.00637409
0.00610836
0.00588305
0.0054676
0.00511147
0.0046445
0.00416617
0.00377755
0.00314
0.00231621
0.00152641
0.000562775
0.0197912
0.0192417
0.0187078
0.0182429
0.0178222
0.0173995
0.0169397
0.0164172
0.0158278
0.0152022
0.0145323
0.0138528
0.0131414
0.0124516
0.0117636
0.0110798
0.0104313
0.0098541
0.00922951
0.00878711
0.00834032
0.00780764
0.0073013
0.00701704
0.00667948
0.0062658
0.00591077
0.00553192
0.00522967
0.00476531
0.00443494
0.00390773
0.00342093
0.00281513
0.00213925
0.00166003
0.00102489
0.000314968
0.0267343
0.0261756
0.025607
0.0250282
0.0243926
0.0236861
0.0229065
0.022064
0.0211357
0.020165
0.0191303
0.0181052
0.0170365
0.0160179
0.0149651
0.0139768
0.0129739
0.0121374
0.0112291
0.0105749
0.00987061
0.00919582
0.00850982
0.00804639
0.00760916
0.00705272
0.0066989
0.00614358
0.00588675
0.00525148
0.00493735
0.00431378
0.00380865
0.00331098
0.00252674
0.00202073
0.00127488
0.000407344
-0.104338
-0.12267
-0.141545
-0.161056
-0.183043
-0.205913
-0.232654
-0.262527
-0.0969277
-0.112764
-0.129083
-0.14621
-0.164825
-0.184444
-0.20378
-0.227472
-0.0884164
-0.101643
-0.114906
-0.12921
-0.143698
-0.159533
-0.175371
-0.195996
-0.0804605
-0.0914698
-0.102348
-0.114296
-0.126602
-0.140334
-0.155137
-0.17267
-0.0722281
-0.0814848
-0.0907229
-0.100894
-0.111732
-0.123406
-0.135839
-0.149883
-0.0645823
-0.0722387
-0.0800145
-0.0883832
-0.0973301
-0.10664
-0.116721
-0.12853
-0.0569669
-0.0632095
-0.0695989
-0.0763805
-0.0837137
-0.0914018
-0.0999181
-0.109923
-0.0496589
-0.05468
-0.0598688
-0.0654186
-0.0714917
-0.077895
-0.0849086
-0.0931094
-0.0425977
-0.0465981
-0.0507623
-0.0552704
-0.0602099
-0.0654161
-0.0710954
-0.0778469
-0.035818
-0.0389465
-0.0422287
-0.0458334
-0.0498045
-0.0540397
-0.0586909
-0.0642796
-0.029145
-0.031638
-0.0342218
-0.0370897
-0.040286
-0.0437398
-0.0475382
-0.0521289
-0.022794
-0.024752
-0.0267779
-0.0290573
-0.0316199
-0.0344215
-0.0375128
-0.0412864
-0.016598
-0.0181534
-0.0197508
-0.0215557
-0.0235945
-0.0258529
-0.0283712
-0.0314828
-0.0107679
-0.0120565
-0.0133563
-0.0148047
-0.0164374
-0.0182715
-0.0203333
-0.022892
-0.00496629
-0.0060159
-0.00707052
-0.00823035
-0.00953658
-0.0110251
-0.012725
-0.0148627
7.93672e-05
-0.000852138
-0.00176463
-0.00275701
-0.0038433
-0.00505775
-0.00643233
-0.00815787
0.00584971
0.00501396
0.00413274
0.00320183
0.00227272
0.0012948
0.000167834
-0.00129706
0.00934315
0.00862608
0.00801156
0.00735622
0.00661242
0.005746
0.00476619
0.00357679
0.0157071
0.0149784
0.0140957
0.0131888
0.012351
0.0115771
0.0108076
0.00988903
0.0167634
0.0161958
0.015736
0.0152944
0.0148535
0.0143419
0.0136933
0.0128397
0.0238807
0.0232945
0.0226121
0.0218395
0.021088
0.0204025
0.0197871
0.0191552
0.0224617
0.0219023
0.02148
0.0211718
0.0209506
0.020746
0.0205352
0.0202326
0.0293177
0.0290543
0.0288364
0.0285958
0.0282996
0.0279822
0.0276402
0.0272298
0.0727079
0.0782605
0.0831965
0.0876849
0.0911902
0.0934634
0.0943371
0.0933594
0.0897062
0.0821855
0.0691414
0.0482506
0.0157426
-0.0312144
-0.0734803
0.0518332
0.0552362
0.0564849
0.0568317
0.0564631
0.0549287
0.0516601
0.045952
0.0368514
0.0230685
0.0028293
-0.02623
-0.0679338
-0.125429
-0.173528
0.0295184
0.0305779
0.0285367
0.0255186
0.0218509
0.016866
0.00977281
-0.000244087
-0.0142018
-0.0334749
-0.0599781
-0.0961449
-0.145076
-0.211515
-0.260006
0.00531919
0.00389378
-0.000541233
-0.00587646
-0.0120592
-0.0199265
-0.0303114
-0.0440133
-0.0620648
-0.0858676
-0.117388
-0.159386
-0.213835
-0.283447
-0.330222
-0.0197958
-0.0234475
-0.0295565
-0.0365056
-0.044626
-0.0548226
-0.06784
-0.0844064
-0.10557
-0.132773
-0.167767
-0.213612
-0.271224
-0.339213
-0.382533
-0.0444025
-0.0501044
-0.057448
-0.0656083
-0.0752683
-0.0872695
-0.102238
-0.12077
-0.14396
-0.173205
-0.210346
-0.257547
-0.315041
-0.378289
-0.416435
-0.0679459
-0.0752952
-0.0834956
-0.0926558
-0.103582
-0.116857
-0.133021
-0.152737
-0.176926
-0.206855
-0.244153
-0.290265
-0.344662
-0.400313
-0.432824
-0.0907764
-0.0986937
-0.107534
-0.117638
-0.129497
-0.143544
-0.160251
-0.180246
-0.204345
-0.233607
-0.269312
-0.312212
-0.360606
-0.406104
-0.433832
0.190632
0.205844
0.222622
0.241166
0.261513
0.283615
0.307421
0.332889
0.359925
0.388275
0.417386
0.446196
0.472856
0.493876
0.51144
0.18852
0.203196
0.219603
0.237853
0.257925
0.279733
0.303205
0.328296
0.354914
0.382799
0.411382
0.439574
0.465492
0.485632
0.502313
0.182758
0.195902
0.211223
0.228738
0.248073
0.268933
0.291201
0.31484
0.339744
0.365604
0.39178
0.417104
0.43958
0.455816
0.468725
0.173077
0.184193
0.198038
0.214336
0.232301
0.251433
0.271589
0.292741
0.314746
0.337199
0.359321
0.379788
0.396373
0.405854
0.412562
0.159499
0.168316
0.180513
0.195287
0.211374
0.228103
0.245324
0.263024
0.28102
0.298794
0.315398
0.329305
0.337978
0.338184
0.336955
0.142325
0.148735
0.159171
0.172089
0.185804
0.199591
0.213311
0.226915
0.240108
0.252224
0.262133
0.268103
0.267281
0.25629
0.245192
0.121885
0.126303
0.135261
0.145986
0.156676
0.166833
0.176471
0.185471
0.193337
0.199189
0.201694
0.198898
0.187665
0.164532
0.142319
0.098275
0.101748
0.109559
0.117793
0.125071
0.131247
0.136455
0.140466
0.142599
0.141782
0.136494
0.12455
0.102497
0.0670195
0.0338399
0.0268705
0.028484
0.0276339
0.0300119
0.0302014
0.0326933
0.0344551
0.0375698
0.0403212
0.0444409
0.048701
0.0539908
0.059849
0.0668164
0.0745236
0.0833632
0.093126
0.104116
0.116084
0.12923
0.143354
0.15865
0.174899
0.0292407
0.0308272
0.0298516
0.0322267
0.0322661
0.0347479
0.0363058
0.0393658
0.0419502
0.0460164
0.0500843
0.0552623
0.0609435
0.067762
0.0753095
0.0839823
0.0935741
0.104364
0.116055
0.128963
0.142767
0.157714
0.173373
0.0316075
0.0331212
0.0320716
0.0343847
0.0343131
0.0367448
0.0381248
0.0411191
0.0435325
0.0475471
0.0513914
0.0564605
0.0619344
0.0685998
0.0759285
0.0843548
0.0936027
0.104034
0.115162
0.12753
0.140564
0.154778
0.169328
0.0339671
0.0353679
0.0342935
0.0364809
0.0363353
0.0386733
0.0399041
0.0428078
0.0450735
0.0490044
0.0526153
0.0575506
0.0627786
0.0692502
0.0763291
0.0845468
0.0932864
0.103247
0.113558
0.125083
0.136844
0.149692
0.162211
0.0363131
0.0375749
0.0365105
0.038512
0.0383232
0.0405197
0.0416421
0.0444144
0.0465497
0.0503512
0.0537359
0.058519
0.0635284
0.069754
0.0764757
0.0842648
0.0922471
0.101432
0.110624
0.121017
0.13112
0.142137
0.15184
0.0386384
0.0397513
0.0387158
0.0404791
0.0402651
0.0422777
0.0433202
0.0459291
0.0479674
0.0516054
0.054767
0.0593511
0.06417
0.0702085
0.0765094
0.0839428
0.0911329
0.0996326
0.107408
0.11636
0.123942
0.132406
0.138344
0.0409386
0.041903
0.0408999
0.0423843
0.0421563
0.0439479
0.0449312
0.047322
0.0492728
0.0526759
0.0556611
0.0600275
0.0646206
0.07027
0.0760114
0.0826697
0.0888739
0.0961247
0.102382
0.109543
0.114728
0.120358
0.121892
0.0432101
0.044038
0.0430472
0.044221
0.0439742
0.0455116
0.0464533
0.0486734
0.0505962
0.0537892
0.0566153
0.0607715
0.0652108
0.0705735
0.0757768
0.0819339
0.0872045
0.0934967
0.0976827
0.102697
0.103709
0.105526
0.101663
0.0453973
0.0461219
0.0451471
0.0460196
0.0457665
0.0470215
0.0478754
0.0497597
0.0515959
0.0544144
0.0571558
0.0609804
0.0650473
0.0696924
0.0741639
0.0790298
0.0832131
0.0872377
0.0898045
0.0914037
0.0903478
0.0867452
0.0779055
0.0476265
0.048277
0.0473109
0.0478888
0.047604
0.0485682
0.0492974
0.0508504
0.0525642
0.0549357
0.0574113
0.0605578
0.063916
0.0674971
0.0709679
0.0743775
0.0772888
0.0793718
0.0803744
0.0795616
0.0769088
0.0714173
0.0643274
0.0500752
0.050637
0.049675
0.0499155
0.0495878
0.0502167
0.0508019
0.0519862
0.0534846
0.0552985
0.0573284
0.0596883
0.0623061
0.0648423
0.0673383
0.069427
0.0710799
0.0715662
0.0710389
0.0686875
0.0649086
0.0593163
0.0527569
0.05277
0.0532055
0.0522649
0.0521145
0.0517503
0.0520017
0.0523974
0.0531678
0.0543435
0.0555833
0.0570796
0.0587113
0.0605732
0.0621491
0.0636227
0.0645212
0.0648711
0.0640182
0.0621255
0.0587887
0.0543016
0.048659
0.0423295
0.0557362
0.0560029
0.0551049
0.054513
0.0540953
0.0539364
0.0540514
0.0544099
0.0551777
0.0558744
0.0567855
0.0577331
0.0587763
0.0593789
0.0597535
0.0595273
0.0586585
0.056724
0.0538136
0.0498451
0.0449746
0.0393235
0.0332359
0.0590028
0.0590645
0.0582134
0.057141
0.0566106
0.0560381
0.055774
0.0557566
0.056056
0.0561937
0.0564554
0.056668
0.0568103
0.0564492
0.0557946
0.0545911
0.0527404
0.0499713
0.0463697
0.041978
0.0369348
0.03136
0.0255168
0.0626057
0.0624322
0.0616057
0.0600297
0.0593061
0.0583486
0.0576104
0.0572169
0.0569903
0.0564844
0.0560435
0.0555105
0.0547849
0.0535366
0.0519829
0.0499583
0.047331
0.0439222
0.0398552
0.0352312
0.0301671
0.0247373
0.0191337
0.0665863
0.0661529
0.065304
0.0632267
0.0622146
0.0608957
0.0595859
0.0587547
0.0579826
0.0567664
0.055617
0.0543908
0.0528629
0.050784
0.0484383
0.0457456
0.0425481
0.0387012
0.0343613
0.0296709
0.0247011
0.0194566
0.0140505
0.0709932
0.0702866
0.0693483
0.0667813
0.0653622
0.0636747
0.0617307
0.0603804
0.0590858
0.0571504
0.0552663
0.0533819
0.0511324
0.0483019
0.0452821
0.0420888
0.0385153
0.0343977
0.0299223
0.0252825
0.0205118
0.0155321
0.0103274
0.075888
0.0749037
0.073784
0.0707347
0.0687937
0.0667094
0.0641065
0.0621481
0.0603301
0.0577022
0.0550608
0.0525541
0.0496932
0.0462334
0.0426607
0.0391047
0.0353097
0.0310593
0.0265487
0.0220244
0.0175042
0.0128268
0.00786358
0.0813525
0.0800873
0.0786751
0.0751301
0.0725664
0.0700322
0.0667763
0.0641426
0.0617707
0.0584928
0.0551058
0.0520076
0.0486413
0.044682
0.0406634
0.0368485
0.0329525
0.0286874
0.024224
0.01986
0.0156187
0.0112791
0.00663766
0.087487
0.0859323
0.0841187
0.0800525
0.0767681
0.073676
0.0697482
0.0664031
0.0634592
0.0596058
0.0555367
0.0518826
0.0480945
0.0437536
0.0393924
0.0353952
0.0314727
0.0272692
0.0229111
0.0187349
0.0147824
0.0107998
0.00652829
0.0944406
0.092562
0.0902074
0.0855459
0.0814886
0.0777748
0.0731567
0.0690455
0.0654675
0.0610585
0.0563851
0.0522378
0.0481126
0.0435018
0.0389014
0.0347857
0.0308947
0.0268159
0.022621
0.0186607
0.0150052
0.0113975
0.00752367
0.102396
0.100162
0.0971331
0.0917094
0.0867343
0.0822868
0.0770272
0.0722338
0.0680341
0.0630885
0.0578496
0.0532134
0.0487589
0.0439219
0.039136
0.0349325
0.0310858
0.0271433
0.023119
0.0193606
0.0159645
0.0126868
0.00920386
0.111618
0.10891
0.105035
0.0987418
0.092759
0.0873893
0.0813449
0.0758117
0.0710263
0.0656463
0.0599705
0.0549421
0.0502344
0.0452526
0.0403668
0.0361257
0.032344
0.0285535
0.0247191
0.0211637
0.0179985
0.0149866
0.0118066
0.122495
0.119129
0.114097
0.106675
0.0996119
0.0932927
0.0864012
0.0800413
0.0745416
0.0686224
0.0624564
0.0569757
0.0519507
0.0467899
0.0417874
0.037482
0.0337292
0.0300573
0.0263777
0.0229808
0.0199914
0.0171978
0.0142218
0.135597
0.131182
0.124524
0.115717
0.107498
0.100251
0.0926492
0.0855946
0.0794551
0.0730569
0.0664744
0.0606192
0.0553545
0.0500859
0.0450225
0.0406857
0.0369825
0.0334598
0.0299898
0.0268321
0.0241256
0.0217079
0.0193322
0.151893
0.145781
0.13645
0.125274
0.115191
0.106526
0.0979194
0.0900826
0.083327
0.0764597
0.0694137
0.0630695
0.0574388
0.0519779
0.0467977
0.0423595
0.0386183
0.0351596
0.0318264
0.0288381
0.0263436
0.0241706
0.0219238
0.172448
0.164145
0.152341
0.139192
0.127419
0.117342
0.10763
0.0987184
0.0909674
0.0833989
0.0758356
0.0690417
0.0630858
0.0574413
0.0521035
0.0474779
0.0435808
0.0400426
0.0366525
0.0335542
0.0308873
0.0286025
0.0263854
0.198637
0.182335
0.164333
0.147689
0.133702
0.122319
0.111894
0.102486
0.0943008
0.0863415
0.078362
0.0711151
0.0648202
0.059006
0.0535399
0.048735
0.0446801
0.0411059
0.0378116
0.0348982
0.0324816
0.0304369
0.0285419
0.244481
0.217294
0.191295
0.16954
0.152021
0.137802
0.1252
0.113881
0.103966
0.0948667
0.0862645
0.0785717
0.0718832
0.0657888
0.0600744
0.0549464
0.0505468
0.0467164
0.0432375
0.0400981
0.0373656
0.0350542
0.0331179
0.279176
0.231462
0.197942
0.17454
0.155852
0.140452
0.127174
0.115418
0.105226
0.0961982
0.0878009
0.0801795
0.0734585
0.0673847
0.0616667
0.056388
0.051763
0.0477907
0.044316
0.0412513
0.0386268
0.0364334
0.0345228
0.437203
0.283984
0.232651
0.201239
0.175163
0.154242
0.137241
0.12297
0.11117
0.101485
0.0929719
0.0851925
0.0781034
0.0716809
0.0657588
0.0603135
0.0555103
0.0514263
0.0479566
0.0449294
0.04228
0.0400086
0.0381111
0.0655394
0.0457342
0.023472
0.00154081
-0.0209644
-0.0435056
-0.0651511
-0.0852696
0.0560894
0.0368384
0.0139859
-0.00644099
-0.0258123
-0.0451285
-0.0636697
-0.0805998
0.0460005
0.0296841
0.00846338
-0.0107327
-0.0275862
-0.043713
-0.0594541
-0.0744454
0.0362777
0.0224873
0.00303795
-0.0150693
-0.0301265
-0.04358
-0.0564499
-0.0688488
0.0275945
0.0159759
-0.00108991
-0.0176284
-0.0308612
-0.0418788
-0.0522314
-0.0624347
0.0200849
0.0101651
-0.0044947
-0.0191961
-0.0308128
-0.0399461
-0.0483483
-0.0566499
0.0138625
0.00532714
-0.00700055
-0.0196531
-0.0296293
-0.0371596
-0.0438987
-0.0505134
0.00886314
0.0014438
-0.00867551
-0.0191177
-0.0274815
-0.0337433
-0.0392028
-0.044487
0.00511671
-0.00158096
-0.00968602
-0.0177437
-0.0244455
-0.0296806
-0.0342018
-0.0384684
0.00270748
-0.00337474
-0.009711
-0.0156827
-0.0208736
-0.0252151
-0.0290135
-0.0325107
0.00168928
-0.0037617
-0.00869404
-0.0130442
-0.0169737
-0.0205057
-0.0236744
-0.0265302
0.00187606
-0.00296657
-0.00681448
-0.00995609
-0.0128872
-0.0157118
-0.0183336
-0.0206853
0.00324121
-0.00104117
-0.00409444
-0.00637896
-0.00855976
-0.0108012
-0.0129573
-0.0148947
0.00531216
0.00152542
-0.000971306
-0.00266423
-0.00427491
-0.00602491
-0.0077706
-0.00936057
0.00830283
0.00497427
0.00288637
0.00157728
0.000352638
-0.00104157
-0.00248607
-0.00381487
0.0113142
0.00844055
0.00663321
0.00557517
0.00462775
0.00350882
0.00228998
0.00111627
0.0162719
0.0134248
0.011567
0.0104499
0.00955286
0.00859382
0.00760422
0.00668646
0.0194467
0.0169873
0.0152724
0.0141764
0.0132493
0.0122391
0.0111762
0.0101843
0.0240415
0.021771
0.0200967
0.019027
0.0183016
0.017657
0.0170078
0.0163597
0.0265468
0.0244642
0.0226898
0.021315
0.0202136
0.0192216
0.0182911
0.0174557
0.0312334
0.0294331
0.0279729
0.0269232
0.0261757
0.0255608
0.0249868
0.0244278
0.0326907
0.0308063
0.0290167
0.0274528
0.0261439
0.0250247
0.0240387
0.0231726
0.0364428
0.0348681
0.0334378
0.0322205
0.0312774
0.0305864
0.0300712
0.029654
-0.302186
-0.302922
-0.30745
-0.316258
-0.329083
-0.346179
-0.368232
-0.393345
-0.299427
-0.300705
-0.304924
-0.312354
-0.32305
-0.337102
-0.354488
-0.374376
-0.295748
-0.296377
-0.30031
-0.307063
-0.316159
-0.327931
-0.341959
-0.355472
-0.292203
-0.291822
-0.2953
-0.3011
-0.308354
-0.316747
-0.324955
-0.329982
-0.29069
-0.289006
-0.291261
-0.295182
-0.29934
-0.302924
-0.304549
-0.302051
-0.292482
-0.28895
-0.288896
-0.28962
-0.289583
-0.288071
-0.284044
-0.275981
-0.297743
-0.291688
-0.288133
-0.284529
-0.279807
-0.273602
-0.265139
-0.253066
-0.305556
-0.296262
-0.288214
-0.279683
-0.270267
-0.260124
-0.248208
-0.233267
-0.314639
-0.301199
-0.28813
-0.274467
-0.261017
-0.247688
-0.233145
-0.216139
-0.322956
-0.305141
-0.286701
-0.268543
-0.251955
-0.236152
-0.219683
-0.201228
-0.330047
-0.306761
-0.283337
-0.261694
-0.242951
-0.22532
-0.207541
-0.188136
-0.333175
-0.305136
-0.277647
-0.254084
-0.233917
-0.21502
-0.19646
-0.176547
-0.333843
-0.300146
-0.270129
-0.24587
-0.224622
-0.205114
-0.186182
-0.166268
-0.327849
-0.291083