/*--------------------------------*- C++ -*----------------------------------*\
| =========                 |                                                 |
| \\      /  F ield         | OpenFOAM: The Open Source CFD Toolbox           |
|  \\    /   O peration     | Version:  2512                                  |
|   \\  /    A nd           | Website:  www.openfoam.com                      |
|    \\/     M anipulation  |                                                 |
\*---------------------------------------------------------------------------*/
FoamFile
{
    version     2.0;
    format      ascii;
    arch        "LSB;label=32;scalar=64";
    class       volVectorField;
    location    "64.1";
    object      U;
}
// * * * * * * * * * * * * * * * * * * * * * * * * * * * * * * * * * * * * * //

dimensions      [0 1 -1 0 0 0 0];

internalField   nonuniform List<vector> 
13248
(
(-0.0241918 0.0189076 5.54794e-20)
(-0.0495787 0.0373634 0)
(-0.0538458 0.0438723 -9.55214e-20)
(-0.0339954 0.044066 8.84469e-20)
(0.0132857 0.0402045 8.13831e-20)
(0.091273 0.0333674 0)
(0.202121 0.024608 0)
(0.344516 0.0150939 1.87774e-19)
(0.511962 0.00577563 -4.13668e-22)
(0.692896 -0.00281895 -1.60857e-19)
(0.87279 -0.0107387 1.48812e-19)
(1.03718 -0.0185393 -9.22891e-20)
(1.17439 -0.0270045 0)
(1.27742 -0.0368181 -1.55667e-19)
(1.34472 -0.0482678 2.86959e-19)
(1.37991 -0.0611973 -6.89008e-20)
(1.39043 -0.0751044 -1.15906e-19)
(1.38518 -0.0893361 1.08071e-19)
(1.3718 -0.10331 0)
(1.35515 -0.117243 0)
(1.33702 -0.127848 0)
(1.3155 -0.145063 0)
(1.29471 -0.142906 2.67429e-20)
(1.26231 -0.179553 8.9094e-20)
(-0.0283132 0.0205497 -1.67152e-19)
(-0.0499102 0.0368301 1.05438e-19)
(-0.040549 0.039172 -6.79565e-22)
(0.00172786 0.0345161 -1.34804e-19)
(0.0802033 0.0264035 -8.12661e-20)
(0.197255 0.0171323 -7.59316e-20)
(0.35106 0.00853297 -1.37426e-19)
(0.532808 0.00188227 1.28514e-19)
(0.726986 -0.00240188 0)
(0.915071 -0.00487405 4.66601e-22)
(1.08027 -0.00679357 8.86717e-22)
(1.21108 -0.00959911 9.11593e-20)
(1.30293 -0.0143911 0)
(1.35795 -0.0216185 0)
(1.38324 -0.0310654 1.00774e-19)
(1.38819 -0.0421121 -1.88169e-19)
(1.38157 -0.0539353 1.07877e-19)
(1.36939 -0.0659854 -1.00584e-19)
(1.35463 -0.0776176 -4.22982e-20)
(1.33806 -0.088546 -7.50948e-20)
(1.31942 -0.0989269 -2.84987e-20)
(1.30011 -0.107677 -5.28922e-20)
(1.27855 -0.113911 8.00292e-20)
(1.25814 -0.126085 2.1368e-20)
(-0.0303861 0.0202389 0)
(-0.0436662 0.0333958 0)
(-0.0143607 0.0326093 4.85664e-20)
(0.0583512 0.0251508 4.42456e-20)
(0.176488 0.0157716 -8.18858e-22)
(0.338156 0.00778875 -7.84927e-20)
(0.532706 0.00326954 0)
(0.740396 0.00266427 -6.38399e-20)
(0.93794 0.00483401 5.89361e-20)
(1.10572 0.00771516 -1.17444e-22)
(1.23246 0.00923634 -9.75217e-20)
(1.31624 0.00803266 -8.73052e-20)
(1.36277 0.00372014 2.44683e-21)
(1.38194 -0.00326427 -6.84206e-20)
(1.38414 -0.0120814 1.65236e-19)
(1.37738 -0.0218568 0)
(1.36633 -0.0319457 -1.01291e-19)
(1.35295 -0.0419845 4.96451e-20)
(1.33803 -0.0514135 4.22558e-20)
(1.32167 -0.0610796 0)
(1.30514 -0.0681109 3.27821e-20)
(1.28719 -0.0781256 -1.06678e-19)
(1.2702 -0.0799182 9.96224e-20)
(1.25079 -0.0933551 5.74899e-20)
(-0.0297763 0.0180063 -5.85133e-20)
(-0.0291157 0.0265462 -5.58936e-20)
(0.0271082 0.0232307 5.00442e-20)
(0.13807 0.0152933 0)
(0.30182 0.00834873 0)
(0.506896 0.00599795 -1.56221e-21)
(0.7294 0.00907129 0)
(0.940109 0.0158003 -1.93847e-19)
(1.11534 0.0231696 1.76973e-19)
(1.24332 0.0284529 -2.148e-19)
(1.32442 0.0301345 4.84277e-20)
(1.36734 0.0280417 0)
(1.38398 0.022911 7.60234e-20)
(1.38513 0.0157786 -1.38717e-19)
(1.3782 0.00754263 3.29485e-20)
(1.36722 -0.00119845 8.08788e-20)
(1.35406 -0.0101232 -4.79348e-21)
(1.33968 -0.0188881 -8.68533e-20)
(1.32452 -0.0276133 0)
(1.30922 -0.0354295 0)
(1.29331 -0.0431178 -2.88747e-20)
(1.27743 -0.0500402 2.52428e-20)
(1.26113 -0.053488 8.71519e-20)
(1.24434 -0.0651465 -8.13715e-20)
(-0.0260277 0.0143081 -6.13175e-20)
(-0.0044341 0.0171538 -5.68811e-20)
(0.0865283 0.0124757 1.57004e-19)
(0.242695 0.00722696 -9.45989e-20)
(0.452997 0.00714147 8.76235e-20)
(0.690539 0.0141787 1.57589e-19)
(0.918888 0.0260252 -1.0951e-19)
(1.10793 0.0384288 -1.2943e-19)
(1.24362 0.0478002 3.90424e-21)
(1.32748 0.0524447 1.60767e-19)
(1.37054 0.0524529 0)
(1.38646 0.0489097 4.16393e-20)
(1.38668 0.0430781 0)
(1.37883 0.035941 -6.5323e-20)
(1.36715 0.0281199 9.11546e-20)
(1.35378 0.0199747 1.17654e-21)
(1.3398 0.0118012 -2.27953e-20)
(1.32558 0.00369286 4.23476e-20)
(1.31132 -0.00393057 3.54384e-20)
(1.29675 -0.011392 -3.11385e-20)
(1.28216 -0.017882 2.88614e-20)
(1.26734 -0.0244656 -2.5231e-20)
(1.2526 -0.0287322 0)
(1.2378 -0.0378164 -1.80396e-20)
(-0.0184959 0.00975639 6.13021e-20)
(0.0322996 0.00696657 5.94934e-20)
(0.166081 0.00329448 -5.26733e-20)
(0.371321 0.00493244 9.71122e-20)
(0.620791 0.0156957 -8.99483e-20)
(0.870676 0.0332886 8.0096e-20)
(1.08104 0.0518336 -3.78776e-20)
(1.23224 0.0663438 9.723e-20)
(1.32511 0.0746629 -5.99162e-20)
(1.37239 0.0770818 1.0217e-19)
(1.38966 0.0750879 -2.31527e-19)
(1.38983 0.0702848 8.32643e-20)
(1.38146 0.0638768 -7.11163e-20)
(1.3694 0.0566172 6.62049e-20)
(1.35603 0.048945 5.56349e-20)
(1.34232 0.0411434 4.77702e-20)
(1.32849 0.0333523 -1.31412e-19)
(1.31457 0.0257795 8.07886e-20)
(1.30049 0.0183598 -3.54328e-20)
(1.28643 0.0114416 8.99022e-20)
(1.27236 0.00480437 -2.90112e-20)
(1.25846 -0.00134349 -6.74104e-20)
(1.24469 -0.00595457 6.15311e-20)
(1.23104 -0.0140613 1.80339e-20)
(-0.00637668 0.00497684 0)
(0.0827296 -0.00194178 6.80262e-22)
(0.266036 -0.000830618 1.10485e-19)
(0.518061 0.0121449 -1.01648e-19)
(0.790404 0.0355199 -9.04581e-20)
(1.02985 0.061588 1.65125e-19)
(1.20586 0.082988 -7.53897e-20)
(1.31532 0.0964122 9.72751e-20)
(1.37165 0.102102 -2.85082e-21)
(1.39278 0.101992 -5.28946e-20)
(1.39393 0.0982037 1.12059e-19)
(1.38533 0.092346 -1.62631e-19)
(1.37271 0.0854208 0)
(1.35879 0.0779823 -3.06293e-20)
(1.34458 0.0703283 -8.03805e-20)
(1.33039 0.0626121 2.50928e-20)
(1.31632 0.0549748 1.21549e-21)
(1.30239 0.0474641 -5.23113e-20)
(1.28872 0.040272 4.05983e-21)
(1.27525 0.0333574 5.93982e-20)
(1.26201 0.0269013 -2.58399e-20)
(1.24897 0.0209533 -9.19877e-21)
(1.23605 0.015515 2.92589e-20)
(1.22336 0.00866342 0)
(0.0111961 0.000593391 0)
(0.14761 -0.00736441 3.03653e-20)
(0.383547 0.00336286 -1.4346e-19)
(0.672195 0.0308593 5.14904e-20)
(0.946725 0.0655371 -4.76925e-20)
(1.15836 0.0961444 -4.23615e-20)
(1.29421 0.116863 -7.27894e-20)
(1.36625 0.127305 3.63121e-20)
(1.39491 0.129821 3.0751e-20)
(1.39873 0.127266 0)
(1.39044 0.121883 6.58141e-20)
(1.37727 0.115079 -9.59508e-20)
(1.36259 0.1076 7.07158e-20)
(1.34774 0.0998131 3.06428e-20)
(1.33314 0.0919064 -2.43951e-20)
(1.31892 0.0840139 -1.98795e-20)
(1.30506 0.0762224 -1.83032e-20)
(1.29154 0.0686494 5.50527e-20)
(1.27827 0.0613123 0)
(1.26526 0.0543236 2.6406e-20)
(1.2525 0.047707 2.14156e-20)
(1.24 0.0415038 -5.36732e-20)
(1.22772 0.0356978 -3.5374e-20)
(1.21581 0.0297141 3.25219e-20)
(0.0348086 -0.00254569 -3.52873e-20)
(0.226173 -0.00687948 -1.3684e-21)
(0.512323 0.0183036 2.92777e-20)
(0.82138 0.0609363 8.04127e-20)
(1.07977 0.103386 2.24146e-20)
(1.25492 0.134562 -4.29071e-20)
(1.35236 0.152159 3.85626e-20)
(1.39428 0.158691 -3.2847e-20)
(1.40348 0.15796 5.71695e-20)
(1.39647 0.15316 2.37194e-20)
(1.38285 0.146339 -6.65227e-20)
(1.36724 0.138588 1.92885e-20)
(1.35146 0.130425 3.22458e-20)
(1.33611 0.1221 -1.57751e-20)
(1.32131 0.113757 0)
(1.30702 0.105491 2.27025e-20)
(1.29318 0.0973904 3.76215e-20)
(1.27975 0.089502 6.03173e-21)
(1.26675 0.0819098 -3.0641e-20)
(1.25418 0.0746527 1.25411e-20)
(1.24201 0.0677988 0)
(1.23018 0.0613517 -9.4858e-21)
(1.21864 0.0551313 -8.76462e-21)
(1.2073 0.0495929 0)
(0.0644718 -0.00350168 0)
(0.315719 0.00170293 1.71393e-20)
(0.643729 0.0449903 3.13742e-20)
(0.955617 0.100779 -8.18612e-20)
(1.18582 0.146777 2.60558e-20)
(1.32289 0.175375 0)
(1.3873 0.188373 3.63238e-20)
(1.40661 0.190654 -4.98815e-20)
(1.40278 0.186798 -2.84265e-20)
(1.38922 0.179898 1.26495e-20)
(1.37261 0.171638 -1.96032e-20)
(1.35568 0.162812 4.73196e-20)
(1.33932 0.153776 2.32273e-20)
(1.3237 0.144704 -1.61413e-20)
(1.30882 0.135699 -1.64002e-21)
(1.2946 0.126845 -4.24724e-20)
(1.28099 0.118207 1.9125e-20)
(1.26796 0.109852 -4.62647e-22)
(1.25544 0.101819 0)
(1.24338 0.0941697 -1.25535e-20)
(1.23173 0.0869282 0)
(1.22043 0.0800272 2.7238e-20)
(1.20943 0.0735418 -3.19282e-20)
(1.19867 0.0682438 1.43423e-20)
(0.0996181 -0.00127435 -9.79972e-21)
(0.411798 0.0200554 -4.36576e-20)
(0.768987 0.0829982 4.89086e-20)
(1.06898 0.148348 2.78125e-20)
(1.26524 0.194001 -1.32198e-20)
(1.36692 0.217799 2.09196e-20)
(1.40477 0.225426 -1.01331e-20)
(1.40788 0.223421 1.61858e-20)
(1.39563 0.216568 0)
(1.3782 0.207594 3.51367e-20)
(1.35991 0.197792 -1.51962e-21)
(1.34225 0.187717 -2.75878e-20)
(1.32556 0.177608 1.16347e-20)
(1.30983 0.167587 -1.2912e-20)
(1.29497 0.15774 -4.79246e-21)
(1.28089 0.148134 5.56491e-21)
(1.2675 0.138825 -4.21438e-21)
(1.25474 0.129851 -2.24381e-20)
(1.24258 0.121258 1.36424e-20)
(1.23099 0.113092 2.73918e-21)
(1.2199 0.105355 2.37136e-21)
(1.20926 0.0980062 2.05164e-21)
(1.19896 0.0912343 0)
(1.18884 0.0856725 0)
(0.139095 0.00508466 9.81161e-21)
(0.508922 0.0490171 -9.09341e-21)
(0.881147 0.130977 -1.63317e-20)
(1.15904 0.201753 0)
(1.32026 0.243909 -6.49633e-21)
(1.39127 0.261453 -5.62497e-21)
(1.40872 0.263353 -9.28751e-21)
(1.40066 0.257109 0)
(1.38316 0.247292 0)
(1.3635 0.23615 0)
(1.34433 0.224621 0)
(1.32633 0.213078 0)
(1.30955 0.201681 -7.3012e-21)
(1.29388 0.190516 3.29173e-21)
(1.2792 0.179643 5.63025e-21)
(1.2654 0.169111 2.60058e-21)
(1.25239 0.15896 6.3397e-21)
(1.24013 0.149224 0)
(1.22855 0.139936 -1.46789e-21)
(1.21758 0.131131 -1.37397e-21)
(1.20715 0.122785 -2.37509e-21)
(1.19717 0.114875 -2.05485e-21)
(1.18754 0.107734 0)
(1.17818 0.101705 1.40806e-21)
(-0.0012758 0.110499 6.88766e-21)
(-0.00156084 0.260639 -6.50532e-21)
(-0.00525535 0.350983 -1.20118e-20)
(-0.014387 0.396661 0)
(-0.0272253 0.416017 -1.55392e-20)
(-0.0416466 0.423619 4.78979e-21)
(-0.055835 0.427715 -9.17011e-21)
(-0.0685588 0.431127 0)
(-0.0789646 0.433445 0)
(-0.086379 0.432898 0)
(-0.0902119 0.427384 0)
(-0.0899531 0.414912 0)
(-0.0852289 0.393811 4.71171e-23)
(-0.0758735 0.362877 -6.79159e-21)
(-0.0619823 0.321484 1.37518e-20)
(-0.0439268 0.269601 2.00479e-20)
(-0.0222815 0.207726 6.7142e-21)
(0.00211472 0.136725 0)
(0.0279016 0.0575992 5.87797e-21)
(0.0543614 -0.0285545 -1.67888e-20)
(0.0815446 -0.120694 -1.06169e-20)
(0.110361 -0.218389 -9.85391e-21)
(0.136732 -0.321615 0)
(0.173067 -0.426527 0)
(-0.00632163 0.102953 -2.07498e-20)
(-0.0104372 0.252897 3.26549e-20)
(-0.0107222 0.350144 -1.22489e-20)
(-0.0132578 0.403487 -2.24981e-20)
(-0.0181783 0.428042 3.12042e-20)
(-0.0240299 0.437753 -1.9764e-20)
(-0.0291343 0.441411 2.7491e-20)
(-0.0320915 0.44263 1.76277e-20)
(-0.0318482 0.441596 0)
(-0.0276445 0.436874 -1.66583e-20)
(-0.018958 0.426565 -1.25575e-21)
(-0.005486 0.408881 1.43996e-20)
(0.0128377 0.382412 2.19826e-20)
(0.0358153 0.346267 2.93095e-20)
(0.0629798 0.300142 -1.24839e-20)
(0.0936138 0.244302 -3.99269e-20)
(0.126792 0.179466 1.38555e-20)
(0.161383 0.106581 -5.04176e-20)
(0.196417 0.0266095 0)
(0.231411 -0.059136 1.12853e-20)
(0.26466 -0.151087 1.05982e-20)
(0.301047 -0.248105 9.83666e-21)
(0.32842 -0.35318 0)
(0.375232 -0.459985 0)
(-0.010187 0.090877 0)
(-0.0182547 0.234651 6.62314e-20)
(-0.0160819 0.336269 -2.44932e-20)
(-0.012458 0.397091 2.27245e-20)
(-0.00931029 0.427715 -6.31397e-20)
(-0.00608515 0.440366 0)
(-0.00150477 0.443945 -3.76645e-20)
(0.00578955 0.442916 1.73541e-20)
(0.0169249 0.438335 -3.36487e-20)
(0.0326755 0.429397 1.614e-20)
(0.0534614 0.414624 9.50923e-20)
(0.0793773 0.392557 -4.43361e-20)
(0.110212 0.362091 -7.51906e-20)
(0.145466 0.322624 -3.11907e-20)
(0.184378 0.274101 -2.47567e-21)
(0.225965 0.216977 1.0905e-19)
(0.269018 0.152039 -5.18532e-20)
(0.312425 0.0803991 2.35503e-22)
(0.35521 0.00303739 0)
(0.398338 -0.0787052 -4.5756e-20)
(0.437421 -0.167964 0)
(0.485252 -0.260507 -4.03933e-20)
(0.516743 -0.364553 1.48074e-19)
(0.581484 -0.467756 -3.12238e-21)
(-0.0124814 0.075814 0)
(-0.0242256 0.207615 4.43817e-23)
(-0.0210773 0.309834 2.44827e-20)
(-0.0126669 0.37679 -2.27672e-20)
(-0.00224036 0.413784 2.08125e-20)
(0.00971971 0.43029 1.18165e-19)
(0.0238116 0.434612 -3.683e-20)
(0.0410729 0.43183 -3.48615e-20)
(0.0625173 0.423974 6.67894e-20)
(0.0888509 0.411103 -9.76474e-20)
(0.120378 0.392375 2.96682e-20)
(0.15701 0.366783 2.95318e-20)
(0.198301 0.33355 0)
(0.243494 0.292309 2.85317e-20)
(0.291597 0.243161 0)
(0.341396 0.186598 5.23592e-20)
(0.391594 0.123323 -1.04939e-19)
(0.441946 0.0550896 2.2327e-20)
(0.49106 -0.0191424 9.38744e-20)
(0.541948 -0.096555 4.57049e-20)
(0.588191 -0.184926 0)
(0.649996 -0.274109 -1.1792e-19)
(0.68981 -0.379668 3.77868e-20)
(0.773859 -0.478709 0)
(-0.0131582 0.059704 0)
(-0.0279091 0.174884 -7.95774e-20)
(-0.025475 0.273032 -2.41592e-20)
(-0.0144224 0.343273 -4.5127e-20)
(0.00151471 0.385811 4.18089e-20)
(0.0209502 0.40669 -3.91951e-20)
(0.0436281 0.412807 7.37981e-20)
(0.0699794 0.409319 3.62205e-20)
(0.100656 0.399043 -9.80408e-20)
(0.136149 0.382956 6.37639e-20)
(0.176602 0.360997 -9.10682e-20)
(0.221755 0.332727 2.03181e-19)
(0.270977 0.297758 -1.10361e-19)
(0.323351 0.255985 5.33443e-20)
(0.377759 0.207506 1.59612e-19)
(0.433097 0.153069 -4.8536e-20)
(0.488894 0.0930787 -4.49746e-20)
(0.545265 0.0291574 -4.73574e-20)
(0.601666 -0.0426889 0)
(0.663165 -0.116696 -8.63419e-20)
(0.723444 -0.20582 -8.02795e-20)
(0.802522 -0.291244 1.14082e-19)
(0.856689 -0.397067 1.35062e-19)
(0.955396 -0.485093 -1.23601e-19)
(-0.0125293 0.0444441 0)
(-0.0293833 0.140331 -1.05279e-19)
(-0.029164 0.229674 5.87594e-22)
(-0.0179371 0.299042 8.96561e-20)
(0.00100005 0.344754 0)
(0.0257679 0.369424 0)
(0.0553104 0.377959 0)
(0.0892895 0.374938 -3.47821e-20)
(0.127763 0.363521 -1.36044e-21)
(0.170817 0.345411 5.98945e-20)
(0.218325 0.321302 -9.07634e-20)
(0.269852 0.291377 -1.77118e-21)
(0.324699 0.255688 0)
(0.381976 0.214298 -5.33227e-20)
(0.440974 0.167563 5.09573e-20)
(0.501755 0.116197 -1.42989e-19)
(0.564657 0.0591719 1.89095e-19)
(0.631088 -0.00220072 4.70584e-20)
(0.702716 -0.0733687 2.94506e-21)
(0.782802 -0.145864 -1.61207e-19)
(0.865959 -0.23552 -7.28365e-20)
(0.961641 -0.314391 2.39301e-19)
(1.03048 -0.415144 -1.54603e-19)
(1.12673 -0.482307 0)
(-0.0112014 0.0315266 5.54825e-20)
(-0.0293304 0.107772 5.26256e-20)
(-0.0323375 0.184536 -4.7923e-20)
(-0.023134 0.248385 -8.81844e-20)
(-0.00389488 0.293541 8.1698e-20)
(0.0235192 0.319909 -7.53044e-20)
(0.0575265 0.330314 1.04394e-19)
(0.0970676 0.328294 -3.45506e-20)
(0.141514 0.316847 6.10952e-20)
(0.190427 0.298036 0)
(0.24337 0.273103 5.60033e-20)
(0.299894 0.24274 -1.02447e-19)
(0.359563 0.207338 1.04354e-19)
(0.422506 0.167351 -9.7133e-20)
(0.489479 0.122751 0)
(0.56172 0.0733066 9.23014e-20)
(0.641066 0.0174059 1.77197e-19)
(0.729326 -0.0433093 -1.67546e-19)
(0.826576 -0.113685 -7.77782e-20)
(0.930579 -0.183565 -7.79639e-20)
(1.03378 -0.267301 2.13317e-19)
(1.13231 -0.333303 5.75634e-20)
(1.1999 -0.418805 -5.62621e-20)
(1.26452 -0.457995 4.57412e-20)
(-0.00996227 0.0218681 -5.54965e-20)
(-0.0289597 0.0802042 1.55364e-19)
(-0.035639 0.142275 -4.79001e-20)
(-0.0298763 0.196568 8.71585e-20)
(-0.012491 0.236964 -8.07481e-20)
(0.0150585 0.261783 -3.95286e-22)
(0.0510272 0.272182 3.38707e-20)
(0.0938944 0.270566 1.25821e-19)
(0.142538 0.259443 1.38844e-21)
(0.196229 0.240874 -5.61032e-20)
(0.254661 0.216318 0)
(0.31809 0.186751 -5.13082e-20)
(0.387571 0.152729 9.61991e-20)
(0.464669 0.114287 9.5825e-20)
(0.551244 0.0708679 -4.48417e-20)
(0.648889 0.0221927 -2.3079e-21)
(0.757491 -0.0322278 -4.31274e-20)
(0.874854 -0.0907346 7.69542e-20)
(0.994997 -0.155141 7.77844e-20)
(1.11062 -0.216479 -7.25992e-20)
(1.21006 -0.284628 6.02593e-20)
(1.28629 -0.332292 -5.3694e-20)
(1.32547 -0.394966 0)
(1.33945 -0.408667 -4.57752e-20)
(-0.009654 0.0158338 5.47132e-20)
(-0.0297309 0.0593952 -5.18144e-20)
(-0.0400191 0.10644 4.72895e-20)
(-0.0380345 0.148584 0)
(-0.0234305 0.180687 0)
(0.0029121 0.20061 7.17465e-20)
(0.0394923 0.208527 -6.73363e-20)
(0.0848892 0.20595 6.15303e-20)
(0.138237 0.194808 -2.89078e-19)
(0.199466 0.176865 -9.61433e-22)
(0.269478 0.153501 5.08728e-20)
(0.349985 0.125483 0)
(0.442884 0.0930835 -9.551e-20)
(0.549457 0.05619 1.80622e-19)
(0.669278 0.015012 -1.29813e-19)
(0.799388 -0.0303608 -2.103e-19)
(0.934162 -0.0788274 -2.31289e-21)
(1.06558 -0.129398 1.42211e-19)
(1.1837 -0.180674 0)
(1.28014 -0.227832 0)
(1.3445 -0.275449 -6.02864e-20)
(1.37741 -0.305162 5.37216e-20)
(1.37317 -0.346648 -1.68857e-19)
(1.34705 -0.345238 1.5745e-19)
(-0.0109965 0.0133322 0)
(-0.0328204 0.0458674 0)
(-0.0460406 0.0790277 -1.41264e-19)
(-0.0467737 0.108205 4.42681e-20)
(-0.0338591 0.130052 1.06138e-21)
(-0.00741567 0.142795 7.24648e-20)
(0.0319592 0.146298 0)
(0.0839528 0.141529 -6.11004e-20)
(0.149098 0.129854 5.73796e-20)
(0.228802 0.112601 -1.06675e-19)
(0.324716 0.0907679 -1.12698e-21)
(0.437772 0.064942 9.68925e-20)
(0.567019 0.0355957 2.35357e-21)
(0.708833 0.00309524 9.03532e-20)
(0.856878 -0.0318608 -1.23647e-19)
(1.00251 -0.0689838 0)
(1.1363 -0.106585 1.4741e-19)
(1.24833 -0.144827 -2.08848e-19)
(1.33162 -0.180437 5.97983e-20)
(1.38146 -0.213604 0)
(1.39785 -0.243236 4.79589e-20)
(1.38917 -0.262053 1.7331e-19)
(1.35765 -0.290334 -1.61854e-19)
(1.32323 -0.285142 -1.59166e-19)
(-0.0142825 0.0138103 1.62566e-19)
(-0.0383418 0.0389958 -2.05197e-19)
(-0.0526941 0.0604655 7.99294e-22)
(-0.0530285 0.0775959 4.37174e-20)
(-0.0374979 0.089122 -7.93328e-20)
(-0.00505914 0.0940956 -7.23576e-20)
(0.0453907 0.092549 1.32089e-19)
(0.115328 0.0851441 -6.32681e-22)
(0.206381 0.0728747 -1.13352e-19)
(0.319415 0.0567722 2.12717e-19)
(0.453217 0.0376795 1.80263e-21)
(0.603554 0.0162744 -9.34327e-20)
(0.763132 -0.00692331 0)
(0.922387 -0.0315417 0)
(1.07076 -0.0571953 -4.06605e-20)
(1.19829 -0.083688 -7.1918e-20)
(1.29717 -0.110002 -1.36071e-19)
(1.3627 -0.136537 1.26859e-19)
(1.39575 -0.160065 -5.98659e-20)
(1.39963 -0.183943 9.94837e-20)
(1.38484 -0.201861 -5.28487e-20)
(1.35935 -0.219175 7.26402e-20)
(1.32966 -0.238746 -1.77656e-19)
(1.3048 -0.236216 3.19262e-20)
(-0.0190619 0.0161671 5.43925e-20)
(-0.0448136 0.0370478 0)
(-0.0567465 0.0496526 9.45133e-20)
(-0.0509424 0.0569696 -8.75149e-20)
(-0.0247421 0.0597001 7.94388e-20)
(0.0243625 0.0579012 0)
(0.0989664 0.051927 0)
(0.200898 0.0425332 -6.16762e-20)
(0.329873 0.0307162 -2.20787e-23)
(0.48201 0.0173691 5.30638e-20)
(0.649446 0.00314201 -5.0074e-20)
(0.821228 -0.0116395 9.28741e-20)
(0.985093 -0.0269755 0)
(1.12951 -0.0430471 1.62917e-19)
(1.24547 -0.0600406 -3.02254e-19)
(1.32793 -0.0779021 2.12265e-19)
(1.37649 -0.0962486 1.25388e-19)
(1.39545 -0.114819 -1.16908e-19)
(1.39273 -0.131911 0)
(1.37664 -0.150269 0)
(1.35653 -0.162544 0)
(1.33285 -0.182182 0)
(1.31168 -0.190136 3.31213e-20)
(1.2892 -0.198494 -1.04909e-19)
(0.205475 -0.544423 -4.81165e-21)
(0.244272 -0.668212 4.84306e-21)
(0.283441 -0.760737 -1.22911e-22)
(0.317578 -0.813597 0)
(0.341756 -0.82954 -2.36953e-21)
(0.346921 -0.825066 4.29868e-21)
(0.324782 -0.823938 -1.64191e-22)
(0.286568 -0.825926 -1.72448e-21)
(0.263579 -0.795807 0)
(0.286084 -0.690766 0)
(0.355243 -0.501175 -1.13449e-22)
(0.444864 -0.254226 -1.23735e-22)
(0.532257 0.021352 -2.25059e-21)
(0.609649 0.29686 2.06209e-21)
(0.672532 0.524655 0)
(0.719195 0.662658 0)
(0.750601 0.713866 9.02794e-22)
(0.763779 0.715001 -1.56091e-22)
(0.766881 0.690189 -6.60638e-22)
(0.769698 0.658367 -3.6735e-23)
(0.761442 0.659619 0)
(0.72939 0.706284 0)
(0.68419 0.73283 0)
(0.65396 0.642515 0)
(0.652994 0.404686 0)
(0.676234 0.0800455 0)
(0.7143 -0.227908 3.73043e-22)
(0.754591 -0.443909 -6.25027e-22)
(0.783942 -0.551719 0)
(0.80616 -0.571635 0)
(0.823306 -0.557654 -1.62839e-22)
(0.815881 -0.571406 1.58228e-22)
(0.77268 -0.604623 6.52092e-23)
(0.707187 -0.58277 0)
(0.643294 -0.457568 0)
(0.609495 -0.247121 2.27022e-22)
(0.617862 -0.0100698 -2.20648e-22)
(0.659277 0.200675 0)
(0.715871 0.344562 1.10355e-22)
(0.778073 0.417533 -1.48138e-22)
(0.793272 0.45088 3.22279e-23)
(0.741649 0.484023 0)
(0.666057 0.470769 -9.00458e-23)
(0.639916 0.368767 8.75565e-23)
(0.684471 0.175547 0)
(0.760883 -0.0447836 0)
(0.806718 -0.279543 -2.98262e-23)
(0.804018 -0.476595 8.13526e-23)
(0.776045 -0.532997 0)
(0.751006 -0.417472 0)
(0.714666 -0.153685 -2.69376e-23)
(0.691383 0.0995334 2.38721e-24)
(0.656409 0.328547 -6.16647e-24)
(0.646138 0.385944 8.96532e-24)
(0.599215 0.378484 0)
(0.558176 0.240495 0)
(0.505359 0.0438299 0)
(0.483347 -0.0643736 0)
(0.497854 -0.287276 0)
(0.582895 -0.173276 0)
(0.399528 -0.58416 -5.16789e-22)
(0.427578 -0.714743 -1.80071e-20)
(0.451875 -0.808356 2.78751e-21)
(0.465479 -0.856426 1.41898e-20)
(0.470091 -0.85844 1.60685e-22)
(0.465723 -0.824166 0)
(0.439266 -0.785903 -6.50153e-21)
(0.383037 -0.772128 1.24802e-20)
(0.317423 -0.76416 -5.97414e-21)
(0.280644 -0.705932 6.51309e-21)
(0.295559 -0.55692 -6.2111e-21)
(0.350835 -0.326782 7.54321e-21)
(0.424303 -0.0525056 -7.27856e-21)
(0.501759 0.226455 -2.05392e-22)
(0.574466 0.462497 -5.54278e-21)
(0.638858 0.615614 5.38283e-21)
(0.689669 0.686886 -3.33715e-21)
(0.721467 0.703915 3.1559e-21)
(0.742953 0.685923 -2.47837e-21)
(0.760898 0.659515 4.8328e-21)
(0.76417 0.671074 -2.3575e-21)
(0.743888 0.728176 -1.73905e-22)
(0.714327 0.75697 -3.95649e-21)
(0.701697 0.659471 8.70163e-21)
(0.713982 0.408348 -4.71933e-21)
(0.743115 0.070214 3.50016e-22)
(0.77882 -0.247687 4.64784e-21)
(0.811332 -0.464871 -8.30155e-22)
(0.829622 -0.567539 -5.75455e-21)
(0.83614 -0.581641 4.07687e-21)
(0.838755 -0.55842 -1.66694e-21)
(0.822111 -0.558024 1.34655e-22)
(0.771138 -0.57889 -6.53445e-23)
(0.69736 -0.55299 1.18813e-22)
(0.625141 -0.435173 0)
(0.584893 -0.241758 0)
(0.591457 -0.0231723 -6.68799e-22)
(0.63749 0.176461 5.18682e-22)
(0.705393 0.318657 2.71217e-22)
(0.775205 0.402576 -3.67832e-23)
(0.792892 0.456566 -3.00482e-22)
(0.743571 0.50503 6.59574e-23)
(0.67492 0.488969 0)
(0.652253 0.367982 0)
(0.698994 0.157754 0)
(0.774634 -0.0626567 0)
(0.819294 -0.28546 1.62345e-22)
(0.809929 -0.472449 -5.23962e-23)
(0.775897 -0.525844 0)
(0.747461 -0.409085 0)
(0.706578 -0.146255 0)
(0.684512 0.10536 -3.044e-23)
(0.648646 0.333303 1.26515e-23)
(0.643599 0.391359 -2.48129e-23)
(0.592794 0.38899 0)
(0.553312 0.250482 0)
(0.499585 0.0517782 3.01956e-23)
(0.472772 -0.0627101 1.10824e-22)
(0.490278 -0.297664 0)
(0.584082 -0.182594 0)
(0.600576 -0.591618 -3.80844e-21)
(0.621287 -0.722116 -4.14219e-20)
(0.634163 -0.812326 3.03058e-20)
(0.626762 -0.8565 -2.83408e-20)
(0.602413 -0.858191 -1.61823e-22)
(0.572927 -0.819483 0)
(0.538614 -0.756569 -1.20969e-20)
(0.480368 -0.711152 1.1803e-20)
(0.395119 -0.700875 8.42705e-23)
(0.313452 -0.680558 1.34706e-22)
(0.273867 -0.583983 1.43986e-22)
(0.286039 -0.390497 2.08822e-22)
(0.334621 -0.13127 -1.24561e-20)
(0.404543 0.144122 1.23026e-20)
(0.483975 0.385232 0)
(0.563075 0.553271 2.31647e-22)
(0.63044 0.645501 -5.86276e-21)
(0.680018 0.679846 5.77903e-21)
(0.719678 0.671342 0)
(0.753251 0.652409 0)
(0.769718 0.673722 -5.41816e-21)
(0.763289 0.740096 1.19014e-20)
(0.750055 0.772586 -1.44355e-20)
(0.753974 0.672907 -1.87343e-21)
(0.77944 0.416609 2.08109e-20)
(0.81426 0.0723264 -2.24664e-20)
(0.846893 -0.252619 1.95924e-20)
(0.870611 -0.472527 -2.53076e-21)
(0.877766 -0.572674 -6.97226e-21)
(0.869572 -0.584213 0)
(0.857801 -0.555269 0)
(0.833161 -0.54185 7.02928e-22)
(0.776804 -0.551084 -9.36695e-22)
(0.696241 -0.523413 -2.59937e-23)
(0.616469 -0.414848 1.1324e-21)
(0.569199 -0.238752 -1.10037e-21)
(0.572828 -0.0390975 0)
(0.622877 0.147982 1.31893e-22)
(0.700286 0.288618 6.62178e-22)
(0.776066 0.385346 -1.11634e-21)
(0.797871 0.461272 4.47529e-22)
(0.753577 0.525534 6.60212e-23)
(0.692698 0.507434 -1.13655e-21)
(0.673153 0.368874 9.05246e-22)
(0.719856 0.142557 2.85101e-22)
(0.792567 -0.0778461 2.38626e-22)
(0.835302 -0.288116 -1.62775e-22)
(0.819326 -0.465618 0)
(0.778625 -0.518211 0)
(0.746773 -0.401645 -2.42638e-22)
(0.701872 -0.139887 1.29187e-22)
(0.681248 0.110299 -1.11701e-22)
(0.6442 0.337392 1.6579e-22)
(0.643312 0.396748 2.05616e-22)
(0.58868 0.399903 -4.57479e-23)
(0.55192 0.261027 1.38643e-22)
(0.497253 0.0605103 -1.56596e-22)
(0.466914 -0.0606348 1.22605e-22)
(0.484922 -0.308675 0)
(0.584515 -0.192979 0)
(0.788289 -0.599736 -8.22039e-20)
(0.803566 -0.721896 1.04453e-20)
(0.807026 -0.799671 6.76711e-20)
(0.783717 -0.829812 -4.03834e-22)
(0.737498 -0.822994 0)
(0.67875 -0.789665 0)
(0.624273 -0.727655 -2.17441e-20)
(0.568957 -0.656672 3.02731e-21)
(0.487024 -0.620382 2.52416e-20)
(0.382779 -0.613882 -1.31393e-23)
(0.296713 -0.570359 -7.70006e-21)
(0.261498 -0.432957 -8.94468e-21)
(0.277422 -0.208349 8.90171e-21)
(0.331857 0.0524796 0)
(0.410238 0.294014 -7.50446e-21)
(0.496487 0.475885 6.87531e-21)
(0.575303 0.589116 0)
(0.640212 0.64144 0)
(0.696513 0.644086 3.92809e-21)
(0.744763 0.633209 4.31682e-22)
(0.774367 0.662567 -3.97811e-21)
(0.782031 0.736902 -6.38989e-21)
(0.784831 0.776209 6.44963e-21)
(0.804879 0.682392 -1.03378e-20)
(0.842688 0.430205 -1.29287e-21)
(0.884101 0.0834175 1.10677e-20)
(0.916522 -0.247935 1.32076e-21)
(0.932264 -0.472268 -3.40897e-24)
(0.928413 -0.570866 0)
(0.906663 -0.580224 3.47784e-21)
(0.880417 -0.548491 -3.54745e-21)
(0.847727 -0.525187 1.26849e-22)
(0.788104 -0.522622 0)
(0.703333 -0.492435 -9.40938e-23)
(0.617335 -0.393908 1.69824e-21)
(0.562818 -0.236636 -3.28515e-21)
(0.562238 -0.0574687 -1.01656e-23)
(0.614548 0.115652 3.91228e-22)
(0.699252 0.25506 1.03521e-21)
(0.780513 0.365186 1.03322e-22)
(0.80823 0.462197 -9.03633e-22)
(0.770329 0.542497 7.45125e-22)
(0.718173 0.525028 -1.33583e-23)
(0.70243 0.371909 1.20823e-21)
(0.747206 0.130553 -1.46067e-21)
(0.814651 -0.0906579 -1.65495e-21)
(0.854517 -0.288657 4.80563e-22)
(0.8321 -0.456743 3.8078e-22)
(0.784158 -0.509588 -6.04082e-22)
(0.748768 -0.394609 3.37579e-22)
(0.700476 -0.134531 -1.15737e-22)
(0.681412 0.11429 1.09101e-22)
(0.642976 0.341085 7.89968e-23)
(0.645263 0.402518 -3.1315e-22)
(0.587127 0.411269 -8.56976e-24)
(0.553906 0.272033 -1.98168e-22)
(0.498146 0.0698714 0)
(0.46619 -0.0580943 -9.56445e-23)
(0.482781 -0.31976 2.26479e-22)
(0.584356 -0.204117 0)
(0.960557 -0.596216 7.69954e-20)
(0.963242 -0.701375 -1.40868e-19)
(0.950245 -0.764396 6.34192e-20)
(0.907142 -0.784794 4.29206e-20)
(0.845786 -0.767744 -7.50689e-20)
(0.77305 -0.733007 7.05055e-21)
(0.696828 -0.686672 2.47594e-20)
(0.633614 -0.61812 1.51352e-20)
(0.568279 -0.554381 -1.48099e-20)
(0.472452 -0.531524 0)
(0.36166 -0.518806 -1.11965e-20)
(0.282092 -0.443116 2.2921e-20)
(0.258877 -0.271921 -1.17851e-20)
(0.288701 -0.0396286 0)
(0.356424 0.193896 0)
(0.441801 0.386169 1.79864e-22)
(0.526949 0.519152 -7.01799e-21)
(0.604101 0.590219 6.81327e-21)
(0.674941 0.606213 0)
(0.73635 0.604345 7.35944e-21)
(0.777584 0.64036 -1.5804e-20)
(0.798158 0.720751 1.99403e-20)
(0.817148 0.767503 -2.6472e-20)
(0.852233 0.685628 -4.54424e-21)
(0.899229 0.44708 4.12515e-20)
(0.947314 0.105367 -2.21069e-20)
(0.983244 -0.230189 -6.67891e-22)
(0.993703 -0.459982 -6.87441e-21)
(0.979413 -0.559957 2.04868e-21)
(0.945647 -0.569109 4.99597e-21)
(0.905955 -0.536802 1.71269e-22)
(0.86577 -0.507241 -1.52342e-21)
(0.804989 -0.495287 2.57061e-21)
(0.718454 -0.462535 -1.15675e-21)
(0.627776 -0.373148 0)
(0.565717 -0.23448 -1.49059e-21)
(0.559172 -0.0771268 1.44972e-21)
(0.611435 0.0802895 -6.6287e-22)
(0.701327 0.217328 8.24729e-22)
(0.78745 0.340486 -3.75525e-23)
(0.822526 0.459385 0)
(0.79369 0.556811 -1.21245e-22)
(0.751671 0.542315 6.79816e-22)
(0.739795 0.377861 0)
(0.780901 0.12255 3.16311e-21)
(0.840762 -0.100421 -1.30571e-21)
(0.876531 -0.286301 3.8638e-22)
(0.847948 -0.445107 2.43498e-22)
(0.7924 -0.499988 0)
(0.75318 -0.388302 0)
(0.702193 -0.130483 -1.85303e-22)
(0.684682 0.117388 2.70963e-22)
(0.644712 0.34421 -1.80945e-22)
(0.649394 0.408134 3.60601e-23)
(0.588259 0.422477 2.45534e-22)
(0.558911 0.283226 1.98382e-22)
(0.50183 0.0796388 -5.59644e-22)
(0.470542 -0.0551085 0)
(0.484605 -0.330341 -3.36839e-22)
(0.583969 -0.215625 -4.08261e-23)
(1.115 -0.57744 7.03325e-20)
(1.09804 -0.658924 -6.95609e-20)
(1.06593 -0.702791 4.48388e-22)
(1.00338 -0.717766 -3.28593e-22)
(0.925476 -0.703836 2.82572e-22)
(0.847478 -0.667579 -2.16261e-22)
(0.766502 -0.628243 3.00276e-22)
(0.689563 -0.578931 0)
(0.627727 -0.510135 -1.5997e-22)
(0.557516 -0.457875 1.14158e-22)
(0.455209 -0.442476 8.45027e-23)
(0.347451 -0.414112 -1.40847e-22)
(0.281895 -0.308119 0)
(0.277024 -0.121277 0)
(0.323005 0.0933171 7.28603e-23)
(0.398478 0.289039 0)
(0.483866 0.437136 -4.59345e-23)
(0.569786 0.525496 0)
(0.652912 0.556097 -4.24447e-21)
(0.725716 0.56455 9.58359e-21)
(0.777087 0.606396 -1.25703e-20)
(0.809108 0.691337 7.12494e-21)
(0.841561 0.747884 1.33061e-20)
(0.888471 0.68428 -1.29151e-20)
(0.944155 0.465721 -2.11638e-20)
(1.00072 0.134911 2.06235e-20)
(1.04396 -0.202396 0)
(1.05322 -0.438305 5.08332e-22)
(1.02991 -0.542013 0)
(0.98591 -0.552436 0)
(0.934005 -0.521171 3.94251e-21)
(0.88568 -0.488266 -4.12721e-21)
(0.825365 -0.468988 1.10626e-22)
(0.740232 -0.433499 9.8317e-23)
(0.647028 -0.351796 -5.23845e-23)
(0.577666 -0.230826 -8.20792e-22)
(0.563147 -0.096285 7.96876e-22)
(0.612302 0.043135 -4.78497e-22)
(0.705014 0.176369 3.75599e-22)
(0.795989 0.311375 4.31411e-23)
(0.84007 0.449484 -6.65821e-22)
(0.820984 0.564457 -8.71386e-22)
(0.78947 0.557821 9.18799e-22)
(0.782798 0.386723 0)
(0.819884 0.119477 -1.43168e-21)
(0.870453 -0.106784 1.46671e-21)
(0.900875 -0.281554 -1.97897e-21)
(0.866478 -0.430943 -2.45125e-22)
(0.80319 -0.488957 0)
(0.759717 -0.382427 3.06764e-23)
(0.706701 -0.127843 -4.62701e-23)
(0.690711 0.11909 -3.64601e-23)
(0.649281 0.346721 -1.18451e-23)
(0.655834 0.414244 2.62855e-22)
(0.592267 0.434027 -2.61894e-22)
(0.566532 0.29475 0)
(0.507836 0.0897123 5.59976e-22)
(0.479454 -0.0517891 0)
(0.490807 -0.339936 0)
(0.583879 -0.22709 6.55986e-23)
(1.22914 -0.535952 -6.3201e-20)
(1.18932 -0.595711 6.20826e-20)
(1.13969 -0.623989 -3.6656e-22)
(1.06748 -0.632167 3.36876e-22)
(0.983261 -0.626114 0)
(0.901353 -0.60272 0)