/*--------------------------------*- C++ -*----------------------------------*\
| =========                 |                                                 |
| \\      /  F ield         | OpenFOAM: The Open Source CFD Toolbox           |
|  \\    /   O peration     | Version:  2312                                  |
|   \\  /    A nd           | Website:  www.openfoam.com                      |
|    \\/     M anipulation  |                                                 |
\*---------------------------------------------------------------------------*/
FoamFile
{
    version     2.0;
    format      ascii;
    arch        "LSB;label=32;scalar=64";
    class       volVectorField;
    location    "8";
    object      U;
}
// * * * * * * * * * * * * * * * * * * * * * * * * * * * * * * * * * * * * * //

dimensions      [0 1 -1 0 0 0 0];

internalField   nonuniform List<vector> 
2300
(
(-0.0634547 0.0288739 0)
(-0.04736 0.0512401 1.74201e-19)
(0.172409 0.0483819 -9.45547e-20)
(0.520986 0.0399448 -3.83157e-20)
(0.871369 0.0336874 0)
(1.15607 0.0284754 -5.4702e-20)
(1.33485 0.0201915 2.11195e-19)
(1.41536 -0.0154807 -3.91213e-20)
(1.37868 -0.0199718 9.02845e-20)
(1.27227 -0.0878412 -1.07873e-19)
(-0.078133 0.0217752 7.62676e-20)
(0.0974617 0.0017714 -5.905e-20)
(0.559064 0.0289446 9.40942e-20)
(0.972242 0.0633668 3.50458e-20)
(1.24347 0.0859444 5.58501e-20)
(1.36308 0.0916347 -1.48343e-19)
(1.36756 0.0661229 -5.57352e-21)
(1.29919 0.0445361 -4.85289e-21)
(1.23335 0.00290408 0)
(1.2336 -0.0259142 1.81969e-20)
(-0.0347463 -0.00591786 8.02878e-20)
(0.451949 0.0182203 -4.22089e-21)
(0.973592 0.0965246 -1.45083e-19)
(1.25104 0.137295 7.79169e-20)
(1.32841 0.140346 -5.38125e-20)
(1.30157 0.114453 1.25671e-19)
(1.2598 0.0902352 -1.01825e-19)
(1.25535 0.0626904 -7.0415e-20)
(1.27075 0.04679 3.74923e-20)
(1.24343 0.0349315 7.06062e-20)
(0.106273 -0.00666087 2.15476e-20)
(0.835291 0.119725 -6.36324e-20)
(1.20361 0.187328 5.23229e-20)
(1.29942 0.191898 0)
(1.29442 0.17036 1.22524e-20)
(1.28582 0.153036 3.57626e-20)
(1.2839 0.132783 -2.98523e-20)
(1.25965 0.116757 3.79077e-20)
(1.21073 0.0924251 -4.52366e-21)
(1.18151 0.0725931 -5.37814e-20)
(0.360619 0.0627723 2.21092e-20)
(1.06077 0.225064 0)
(1.27211 0.26133 0)
(1.30179 0.243596 0)
(1.28763 0.221932 -1.2289e-20)
(1.25158 0.194549 0)
(1.2078 0.166721 0)
(1.18446 0.137761 -7.71282e-21)
(1.1866 0.116058 6.46892e-21)
(1.17525 0.10564 -3.85085e-21)
(-0.097025 0.110144 1.41466e-20)
(-0.27804 0.110174 0)
(-0.428622 0.0771697 0)
(-0.523214 0.0472253 0)
(-0.589342 0.0180097 -2.1487e-20)
(-0.613 -0.0102377 0)
(-0.605991 -0.0410126 0)
(-0.563416 -0.0730626 2.21139e-20)
(-0.478614 -0.107982 -1.85406e-20)
(-0.326011 -0.145017 8.91309e-21)
(-0.0780817 0.260381 -4.55986e-20)
(-0.172402 0.291754 5.99783e-20)
(-0.237952 0.228358 -4.93522e-20)
(-0.260895 0.167397 0)
(-0.254572 0.107921 2.14103e-20)
(-0.219334 0.0473695 -7.96733e-20)
(-0.15706 -0.0179128 6.64861e-20)
(-0.0754255 -0.093728 -1.05617e-19)
(-0.000171783 -0.205327 8.85576e-20)
(0.206582 -0.297457 1.91198e-20)
(-0.0579965 0.267441 -7.30601e-20)
(-0.0755634 0.379578 -3.53734e-21)
(-0.0432272 0.342291 1.66587e-19)
(0.019954 0.265663 -9.44212e-20)
(0.106637 0.183336 9.11558e-20)
(0.202501 0.11276 -2.33784e-19)
(0.327571 0.0282438 6.92036e-20)
(0.475047 -0.0147886 5.60966e-20)
(0.6121 -0.155273 -9.02928e-20)
(0.879061 -0.220199 -5.24874e-20)
(-0.0368655 0.153241 -7.39832e-20)
(-0.0340737 0.295596 -5.88546e-20)
(0.0410811 0.304871 -1.04063e-19)
(0.146891 0.249879 3.68914e-20)
(0.291819 0.172077 -8.41889e-20)
(0.455803 0.0987579 6.86616e-20)
(0.667202 0.0135622 8.18316e-21)
(0.860144 -0.0454755 7.35429e-21)
(1.08031 -0.161452 1.40429e-19)
(1.26628 -0.205429 -9.81684e-20)
(-0.036648 0.0544798 0)
(-0.0471384 0.146115 5.90142e-20)
(0.037321 0.162854 9.47261e-20)
(0.220359 0.128586 -1.20244e-19)
(0.476638 0.0835953 0)
(0.754053 0.0269598 1.85032e-19)
(1.0178 -0.0124254 -1.45327e-19)
(1.2205 -0.068715 1.27264e-19)
(1.38504 -0.122128 -1.14781e-19)
(1.37886 -0.144071 4.75694e-20)
(-0.190532 -0.124539 -6.30981e-21)
(0.00630049 -0.126009 0)
(0.195805 -0.114831 -9.78369e-24)
(0.376638 -0.096679 0)
(0.528023 -0.0748664 -4.99852e-23)
(0.648058 -0.0557719 0)
(0.740495 -0.0410126 -1.04782e-21)
(0.810429 -0.0289221 9.74757e-22)
(0.861732 -0.0186967 0)
(0.897938 -0.010616 2.97145e-23)
(0.922707 -0.00442659 0)
(0.939505 0.000838647 -2.76863e-22)
(0.95118 0.00588777 1.10655e-23)
(0.95963 0.0106666 1.76052e-22)
(0.965925 0.015327 3.26718e-23)
(0.970725 0.0200372 -2.64627e-23)
(0.974407 0.0250159 0)
(0.977317 0.0302849 0)
(0.979567 0.0365477 0)
(0.981522 0.0425102 0)
(0.982949 0.0525303 0)
(0.984463 0.0565967 7.07541e-24)
(0.985578 0.0773893 -6.61627e-24)
(0.986698 0.0741575 1.46606e-23)
(0.98817 0.109065 0)
(0.274029 -0.354714 -3.3951e-20)
(0.397022 -0.363124 6.66296e-21)
(0.51484 -0.32015 -6.18169e-21)
(0.625146 -0.254647 -5.38139e-21)
(0.714766 -0.186081 -8.21887e-22)
(0.779822 -0.131968 1.04975e-20)
(0.826765 -0.0930623 -4.67616e-21)
(0.862729 -0.0640117 0)
(0.891047 -0.041089 -7.56987e-23)
(0.913051 -0.0236703 -3.02497e-23)
(0.930239 -0.0113545 0)
(0.943794 -0.00266029 3.45161e-23)
(0.954184 0.00399556 2.65701e-23)
(0.962002 0.00938582 -6.32395e-22)
(0.96798 0.0142668 8.09409e-22)
(0.972601 0.0190877 -2.09541e-22)
(0.976209 0.024159 2.15651e-22)
(0.979119 0.0295388 -1.77385e-23)
(0.981449 0.0359206 -1.4619e-23)
(0.98351 0.041948 -1.77926e-22)
(0.98509 0.0521146 4.6885e-23)
(0.986805 0.0561916 0)
(0.988094 0.0771512 0)
(0.989507 0.0738979 4.9323e-25)
(0.991377 0.108777 1.06973e-23)
(0.89867 -0.338547 1.3811e-19)
(0.939443 -0.419351 -2.40958e-20)
(0.945355 -0.405978 -2.64802e-20)
(0.929024 -0.336372 0)
(0.916919 -0.24839 7.00959e-21)
(0.911821 -0.173372 -6.51671e-21)
(0.912109 -0.122918 0)
(0.916434 -0.0885143 0)
(0.923424 -0.0618504 7.87775e-23)
(0.931352 -0.0408749 0)
(0.939661 -0.0250312 9.23427e-23)
(0.948145 -0.0132419 0)
(0.956122 -0.00398692 8.46967e-22)
(0.963101 0.00380374 -1.13763e-22)
(0.968992 0.0104355 -8.30858e-23)
(0.973788 0.0164805 -5.63354e-22)
(0.977614 0.0223748 -4.69949e-23)
(0.980708 0.0282664 -4.02822e-23)
(0.983208 0.0350101 0)
(0.985421 0.0412446 -2.63592e-23)
(0.987184 0.0516253 -1.59833e-24)
(0.989117 0.0557444 0)
(0.99059 0.0768793 -4.4373e-24)
(0.992277 0.0737057 -3.46469e-23)
(0.994592 0.108608 -1.06663e-23)
(1.23909 -0.318588 5.47128e-22)
(1.22181 -0.36311 0)
(1.1607 -0.352126 0)
(1.06379 -0.298681 -4.88689e-21)
(0.989207 -0.225968 4.66515e-21)
(0.947806 -0.159531 0)
(0.930132 -0.113065 -2.71279e-23)
(0.928185 -0.0818457 6.66999e-23)
(0.933064 -0.0582151 0)
(0.939614 -0.0389911 -3.6632e-21)
(0.946596 -0.0244946 3.2962e-21)
(0.953834 -0.0138898 0)
(0.960736 -0.00553945 6.12456e-23)
(0.966668 0.00196979 0)
(0.971682 0.00874876 -1.17245e-21)
(0.975954 0.0149587 1.11542e-21)
(0.979508 0.0210423 4.44157e-22)
(0.982502 0.0271093 -6.42167e-22)
(0.985033 0.033999 2.97618e-22)
(0.987327 0.0403044 0)
(0.989234 0.0508086 -1.01625e-22)
(0.99136 0.0549063 9.30223e-23)
(0.993052 0.0762002 1.02314e-22)
(0.994986 0.0730357 -2.40663e-23)
(0.997804 0.108069 0)
(1.32511 -0.233372 5.8645e-20)
(1.26409 -0.263027 -5.43041e-20)
(1.17076 -0.277591 0)
(1.0766 -0.264506 -1.19339e-22)
(1.00289 -0.236565 -3.74972e-23)
(0.960915 -0.198496 -1.79946e-22)
(0.94115 -0.157959 1.96188e-22)
(0.934774 -0.12186 3.7923e-21)
(0.936731 -0.0895004 -7.5025e-21)
(0.942313 -0.0615495 3.63066e-21)
(0.948782 -0.0400323 3.01493e-21)
(0.955595 -0.0241493 -2.78184e-21)
(0.962287 -0.0122223 -2.06263e-21)
(0.968219 -0.0029438 3.44753e-21)
(0.97317 0.00519196 -1.48058e-21)
(0.977389 0.0124523 3.41939e-23)
(0.980998 0.0191939 8.02694e-22)
(0.984066 0.0256566 -4.39063e-22)
(0.986701 0.0328508 -3.22336e-22)
(0.989115 0.0392824 2.3006e-22)
(0.9912 0.0500667 -2.35328e-22)
(0.993511 0.0541629 -6.79713e-23)
(0.995478 0.0757148 4.32673e-23)
(0.997593 0.0726936 2.56335e-23)
(1.00102 0.107812 0)
(1.24247 -0.12023 0)
(1.20958 -0.145232 0)
(1.14643 -0.15903 0)
(1.08926 -0.16578 0)
(1.04358 -0.162809 0)
(1.0123 -0.14777 0)
(0.991787 -0.125098 0)
(0.976739 -0.103474 0)
(0.966749 -0.0830793 0)
(0.962241 -0.0628687 0)
(0.962193 -0.0444947 0)
(0.964813 -0.0291838 0)
(0.968407 -0.016609 0)
(0.972307 -0.00628802 0)
(0.976227 0.0023617 0)
(0.97981 0.00996346 0)
(0.98303 0.0170968 0)
(0.985938 0.0238745 0)
(0.988539 0.0313282 0)
(0.991005 0.0379284 0)
(0.993214 0.0488333 0)
(0.995648 0.0530119 0)
(0.997927 0.0746511 0)
(1.00011 0.0717583 0)
(1.00413 0.107178 0)
(1.19467 -0.0992079 0)
(1.18039 -0.138451 0)
(1.13894 -0.164754 0)
(1.09545 -0.173804 0)
(1.0555 -0.168972 0)
(1.02296 -0.15475 0)
(0.999139 -0.132889 0)
(0.983502 -0.108252 0)
(0.974125 -0.0841776 0)
(0.968798 -0.0620905 0)
(0.967206 -0.0434395 0)
(0.968856 -0.0283738 0)
(0.972027 -0.0162503 0)
(0.97535 -0.00631507 0)
(0.978582 0.00195806 0)
(0.981871 0.00948718 0)
(0.985006 0.0165739 0)
(0.987862 0.0233636 0)
(0.99045 0.0308482 0)
(0.992963 0.0374596 0)
(0.99528 0.0483479 0)
(0.997823 0.0524623 0)
(1.00043 0.0741491 0)
(1.00264 0.0710098 0)
(1.00729 0.106631 0)
(1.16434 -0.0710217 0)
(1.15936 -0.0966061 0)
(1.13167 -0.112727 0)
(1.09637 -0.119553 0)
(1.06248 -0.118327 0)
(1.03426 -0.111644 0)
(1.0112 -0.10109 0)
(0.994747 -0.0881218 0)
(0.98494 -0.0729181 0)
(0.978424 -0.0569851 0)
(0.974877 -0.0425499 0)
(0.974789 -0.029807 0)
(0.976631 -0.0184656 0)
(0.979187 -0.00854591 0)
(0.982104 0.000346983 0)
(0.984957 0.0081606 0)
(0.987616 0.0155033 0)
(0.990236 0.0224946 0)
(0.992727 0.0301112 0)
(0.995255 0.0368037 0)
(0.997679 0.0477805 0)
(1.00034 0.0518868 0)
(1.0033 0.0737134 0)
(1.00556 0.0703677 0)
(1.01088 0.106133 0)
(1.1332 -0.0528325 0)
(1.12917 -0.0732088 0)
(1.1119 -0.0909398 0)
(1.08713 -0.101643 0)
(1.06087 -0.104889 0)
(1.03923 -0.10245 0)
(1.02091 -0.0949124 0)
(1.00627 -0.0836812 0)
(0.996646 -0.0699667 0)
(0.989172 -0.0552091 0)
(0.983981 -0.0415885 0)
(0.9824 -0.0296292 0)
(0.983022 -0.0189019 0)
(0.984337 -0.00932019 0)
(0.985949 -0.000906303 0)
(0.988057 0.00683103 0)
(0.99051 0.0143129 0)
(0.992971 0.0214402 0)
(0.995375 0.0291658 0)
(0.997919 0.0359302 0)
(1.00046 0.0470016 0)
(1.00325 0.0510289 0)
(1.0066 0.0730295 0)
(1.00894 0.0694352 0)
(1.01502 0.105393 0)
(1.10506 -0.0417758 0)
(1.10478 -0.0542864 0)
(1.09634 -0.0680947 0)
(1.08011 -0.077306 0)
(1.06069 -0.0803212 0)
(1.04411 -0.0791012 0)
(1.02834 -0.0749516 0)
(1.01459 -0.0685092 0)
(1.00571 -0.0597527 0)
(0.99853 -0.0490187 0)
(0.992518 -0.0380687 0)
(0.989599 -0.0279112 0)
(0.988891 -0.0183837 0)
(0.989202 -0.00945423 0)
(0.990472 -0.00112941 0)
(0.992267 0.00658847 0)
(0.994142 0.0138283 0)
(0.996239 0.0207565 0)
(0.998481 0.0283729 0)
(1.00101 0.0350456 0)
(1.00366 0.0461279 0)
(1.00659 0.0499573 0)
(1.01037 0.0721535 0)
(1.01281 0.0681915 0)
(1.01979 0.104384 0)
(1.08472 -0.0323425 0)
(1.08609 -0.0410038 0)
(1.08192 -0.0518131 0)
(1.07166 -0.0594702 0)
(1.05727 -0.063065 0)
(1.04499 -0.06397 0)
(1.03263 -0.0622701 0)
(1.02098 -0.0582896 0)
(1.01355 -0.0522507 0)
(1.00705 -0.0443418 0)
(1.00073 -0.0357232 0)
(0.997191 -0.0273517 0)
(0.995965 -0.019117 0)
(0.995508 -0.0109991 0)
(0.995451 -0.00324592 0)
(0.996164 0.00412166 0)
(0.997691 0.0114872 0)
(0.999671 0.0186803 0)
(1.00188 0.0265851 0)
(1.00446 0.0334173 0)
(1.00729 0.0447203 0)
(1.01039 0.0483938 0)
(1.01469 0.0709207 0)
(1.01724 0.0665207 0)
(1.0253 0.103003 0)
(1.06977 -0.0243693 0)
(1.07135 -0.0311325 0)
(1.06956 -0.0384421 0)
(1.06337 -0.0440329 0)
(1.05308 -0.0473793 0)
(1.04462 -0.0488272 0)
(1.03532 -0.0481705 0)
(1.02552 -0.0456692 0)
(1.0195 -0.0415967 0)
(1.01412 -0.0358984 0)
(1.00794 -0.0291048 0)
(1.00379 -0.0220602 0)
(1.0018 -0.014958 0)
(1.00077 -0.00781049 0)
(1.00077 -0.000708107 0)
(1.00164 0.00630482 0)
(1.00281 0.0131896 0)
(1.00436 0.0198478 0)
(1.00629 0.0272451 0)
(1.00873 0.0335311 0)
(1.01162 0.0445055 0)
(1.01483 0.0475274 0)
(1.01969 0.0700914 0)
(1.02231 0.0649378 0)
(1.03171 0.101533 0)
(1.05808 -0.0237742 0)
(1.05968 -0.0282239 0)
(1.05935 -0.0327644 0)
(1.05615 -0.0367228 0)
(1.04905 -0.0395592 0)
(1.04361 -0.0411319 0)
(1.03702 -0.0411959 0)
(1.02918 -0.0398588 0)
(1.02473 -0.037358 0)
(1.02074 -0.0336191 0)
(1.01527 -0.0288154 0)
(1.0112 -0.0234328 0)
(1.00909 -0.0176315 0)
(1.00763 -0.0114233 0)
(1.00643 -0.00499482 0)
(1.00601 0.00140828 0)
(1.00663 0.00799842 0)
(1.00807 0.0146211 0)
(1.01006 0.0221966 0)
(1.01267 0.0286348 0)
(1.0159 0.0400761 0)
(1.01941 0.0429476 0)
(1.02508 0.0664563 0)
(1.0279 0.0606129 0)
(1.03887 0.0982585 0)
(1.05085 -0.0162359 0)
(1.05123 -0.0183579 0)
(1.05132 -0.0205411 0)
(1.04995 -0.0228612 0)
(1.0449 -0.0246499 0)
(1.04162 -0.0256706 0)
(1.03704 -0.025781 0)
(1.03059 -0.0248498 0)
(1.02733 -0.0230647 0)
(1.0246 -0.0204515 0)
(1.02001 -0.0169804 0)
(1.01622 -0.012858 0)
(1.01414 -0.00825622 0)
(1.01279 -0.00323197 0)
(1.01226 0.00215845 0)
(1.01257 0.00787689 0)
(1.01331 0.0139113 0)
(1.01454 0.0199299 0)
(1.01631 0.026891 0)
(1.01879 0.0325313 0)
(1.02207 0.0434265 0)
(1.02565 0.0450973 0)
(1.03212 0.0683411 0)
(1.0347 0.0611998 0)
(1.0481 0.0976601 0)
(1.04657 -0.0231644 0)
(1.04742 -0.024226 0)
(1.04792 -0.0254511 0)
(1.04729 -0.027015 0)
(1.04341 -0.0282447 0)
(1.04141 -0.0289292 0)
(1.03847 -0.0290251 0)
(1.03363 -0.0284087 0)
(1.03154 -0.0271946 0)
(1.02985 -0.0253326 0)
(1.02612 -0.0227195 0)
(1.02279 -0.0194701 0)
(1.02086 -0.0156859 0)
(1.0193 -0.0113746 0)
(1.01779 -0.00662385 0)
(1.0169 -0.00162891 0)
(1.01704 0.0036832 0)
(1.01809 0.00914214 0)
(1.01996 0.0157673 0)
(1.02263 0.0210528 0)
(1.02648 0.0322011 0)
(1.03034 0.0330222 0)
(1.03808 0.0578898 0)
(1.0409 0.0487487 0)
(1.05612 0.0882434 0)
(1.04368 -0.00799736 0)
(1.04291 -0.00812282 0)
(1.04315 -0.0084974 0)
(1.04338 -0.00916695 0)
(1.04065 -0.00956971 0)
(1.04 -0.00964248 0)
(1.0381 -0.00938652 0)
(1.03365 -0.00858918 0)
(1.03209 -0.00743449 0)
(1.03154 -0.00611399 0)
(1.02894 -0.00447538 0)
(1.02635 -0.00235796 0)
(1.02497 0.000276716 0)
(1.02409 0.00342758 0)
(1.02373 0.00707209 0)
(1.02397 0.0112533 0)
(1.02468 0.0159579 0)
(1.02592 0.020827 0)
(1.02793 0.0268723 0)
(1.03065 0.0313268 0)
(1.03486 0.0419534 0)
(1.03875 0.0413157 0)
(1.04833 0.0656137 0)
(1.04996 0.0552322 0)
(1.07101 0.0915122 0)
(1.04424 -0.0246196 0)
(1.04427 -0.0243439 0)
(1.04479 -0.0240752 0)
(1.04495 -0.0241779 0)
(1.04229 -0.0240696 0)
(1.04158 -0.0237691 0)
(1.0403 -0.023542 0)
(1.03719 -0.0231039 0)
(1.03648 -0.0223744 0)
(1.03625 -0.0212962 0)
(1.03398 -0.0196604 0)
(1.03171 -0.0175191 0)
(1.03046 -0.0150506 0)
(1.0294 -0.0122608 0)
(1.02833 -0.00917076 0)
(1.02771 -0.00584213 0)
(1.028 -0.00224864 0)
(1.02897 0.00162552 0)
(1.03116 0.00652309 0)
(1.03382 0.00997338 0)
(1.03891 0.0201252 0)
(1.04273 0.0170162 0)
(1.05389 0.0440997 0)
(1.05571 0.0279258 0)
(1.07808 0.0686036 0)
(1.04473 0.00157712 0)
(1.04372 0.00217366 0)
(1.04358 0.0023579 0)
(1.04395 0.00212735 0)
(1.04224 0.00229365 0)
(1.04214 0.00260506 0)
(1.04121 0.00293822 0)
(1.03795 0.0038568 0)
(1.03691 0.00512045 0)
(1.03721 0.00612006 0)
(1.03594 0.00688213 0)
(1.03437 0.00775794 0)
(1.03372 0.00897999 0)
(1.03346 0.0106763 0)
(1.03357 0.0128048 0)
(1.0339 0.0154417 0)
(1.03515 0.0184145 0)
(1.03633 0.0217344 0)
(1.0397 0.0259619 0)
(1.04168 0.0287115 0)
(1.04938 0.0379891 0)
(1.05078 0.0338682 0)
(1.06885 0.059036 0)
(1.06489 0.0428165 0)
(1.10074 0.0785195 0)
(1.04716 -0.0242414 0)
(1.04626 -0.0236996 0)
(1.04607 -0.0231541 0)
(1.04608 -0.022649 0)
(1.04407 -0.0221187 0)
(1.04362 -0.0215703 0)
(1.04254 -0.0210887 0)
(1.03974 -0.0206914 0)
(1.0394 -0.0205021 0)
(1.04041 -0.0203189 0)
(1.03991 -0.019647 0)
(1.03881 -0.0183885 0)
(1.03818 -0.016942 0)
(1.03752 -0.0154075 0)
(1.03707 -0.0140702 0)
(1.03676 -0.0123332 0)
(1.03779 -0.011213 0)
(1.03843 -0.0086242 0)
(1.04229 -0.00769052 0)
(1.04338 -0.00463108 0)
(1.0528 -4.66234e-05 0)
(1.05265 -0.00525886 0)
(1.07317 0.019267 0)
(1.06856 -0.00457992 0)
(1.1056 0.0289756 0)
(1.05059 0.0154309 0)
(1.04954 0.0152731 0)
(1.04902 0.0156147 0)
(1.04872 0.0158376 0)
(1.04741 0.0163719 0)
(1.04728 0.0174461 0)
(1.04652 0.0173928 0)
(1.04417 0.0154701 0)
(1.04312 0.0133356 0)
(1.0427 0.012848 0)
(1.04123 0.014096 0)
(1.03962 0.0159123 0)
(1.03917 0.0172759 0)
(1.03883 0.0181636 0)
(1.03981 0.0186156 0)
(1.03908 0.0194357 0)
(1.04336 0.0196761 0)
(1.03944 0.0214101 0)
(1.05372 0.0213257 0)
(1.03779 0.023839 0)
(1.0759 0.0260603 0)
(1.03819 0.0222944 0)
(1.10324 0.0398102 0)
(1.06659 0.0211525 0)
(1.12601 0.044913 0)
(1.15039 0.0736174 5.48691e-22)
(1.16662 0.0589431 2.59063e-20)
(1.19726 0.0184444 -6.31504e-20)
(1.21399 -0.00558273 -2.94557e-22)
(1.22903 -0.0761133 0)
(1.12511 0.0551816 1.98545e-21)
(1.144 0.0500256 -1.00966e-20)
(1.1556 0.00971811 2.42937e-20)
(1.16905 -0.00666309 2.21363e-20)
(1.18041 -0.0616585 -2.74774e-20)
(1.10888 0.0285836 0)
(1.11902 0.0321222 1.80333e-22)
(1.12788 -0.00228997 1.1099e-20)
(1.13356 -0.0119887 -1.9603e-20)
(1.14756 -0.0486427 6.0659e-21)
(1.09457 0.0192146 4.57796e-23)
(1.09805 0.0233283 2.72349e-21)
(1.10735 -0.00390417 -9.75986e-21)
(1.11248 -0.00753813 8.38888e-21)
(1.12386 -0.033922 1.548e-20)
(1.0816 0.00979921 0)
(1.08377 0.0112667 -2.32209e-21)
(1.09044 -0.00528511 1.56759e-22)
(1.09307 -0.00987031 -1.19587e-20)
(1.0985 -0.0295182 0)
(1.07015 0.00248182 -9.79179e-23)
(1.07128 0.0023486 7.78103e-23)
(1.07398 -0.00843236 1.4088e-23)
(1.07577 -0.0147959 3.92981e-21)
(1.07856 -0.0264552 -1.028e-22)
(1.06104 -0.00202892 6.83522e-24)
(1.06141 -0.00323344 0)
(1.06298 -0.0100732 -2.15056e-23)
(1.06434 -0.0147219 0)
(1.065 -0.0200135 -7.29071e-22)
(1.05295 -0.00933498 2.02822e-22)
(1.05321 -0.0102228 -5.46747e-22)
(1.05406 -0.0144265 1.87405e-23)
(1.05452 -0.0166564 0)
(1.05373 -0.0201364 6.28318e-22)
(1.04993 -0.00809815 -1.31538e-22)
(1.04989 -0.00912761 5.56105e-22)
(1.04996 -0.0109822 6.625e-22)
(1.04923 -0.01221 -6.64961e-23)
(1.04779 -0.0139841 1.37402e-21)
(1.04448 -0.0185054 0)
(1.04424 -0.0188248 0)
(1.04397 -0.0198715 -1.55785e-21)
(1.0436 -0.0202255 0)
(1.04295 -0.0218333 -2.85891e-21)
(1.04663 -0.00768372 0)
(1.04611 -0.00742645 2.30969e-22)
(1.04568 -0.00725351 -6.45454e-22)
(1.04423 -0.00702428 -7.41764e-22)
(1.04201 -0.00762326 1.49172e-21)
(1.04427 -0.0254778 0)
(1.04382 -0.0250836 2.28211e-22)
(1.04357 -0.0247255 -1.05629e-22)
(1.04229 -0.0245284 8.56919e-22)
(1.04159 -0.0245955 -7.5823e-22)
(1.04988 -0.000503354 -2.51128e-22)
(1.04867 0.000400686 5.03874e-22)
(1.04773 0.000869681 1.41126e-21)
(1.0459 0.00162232 -4.18718e-24)
(1.04393 0.00129207 8.38545e-22)
(1.05027 -0.0274577 2.27232e-22)
(1.04945 -0.0268158 -1.08467e-23)
(1.04915 -0.0257447 -1.0642e-21)
(1.04723 -0.0254023 4.19418e-22)
(1.04613 -0.0247634 -4.15234e-22)
(1.05745 0.0147394 0)
(1.05569 0.0152272 0)
(1.05417 0.0150632 -1.98882e-22)
(1.05198 0.0156713 0)
(1.05056 0.0155106 0)
(0.970091 0.163561 2.11882e-20)
(0.960618 0.186235 -2.52221e-20)
(0.949056 0.216031 1.5603e-20)
(0.944084 0.254403 -3.11491e-20)
(0.935146 0.300679 2.69019e-20)
(0.921421 0.355651 0)
(0.909431 0.430548 0)
(0.908008 0.519716 -5.65332e-21)
(0.890768 0.622308 -1.10313e-20)
(0.638307 0.574438 0)
(1.00964 0.151682 -1.08283e-21)
(1.01099 0.183423 0)
(1.00558 0.21515 -1.0108e-22)
(0.999434 0.255157 -7.35004e-21)
(1.00566 0.305311 -8.71788e-21)
(1.01928 0.360435 -2.87989e-21)
(1.0228 0.426615 -9.25586e-21)
(1.03532 0.5133 2.1495e-20)
(1.03759 0.587951 1.78523e-20)
(0.737684 0.50964 -5.86852e-20)
(1.04929 0.155805 -2.08272e-21)
(1.05491 0.185766 3.5387e-21)
(1.07003 0.215736 -4.11855e-21)
(1.08121 0.248768 -1.1985e-20)
(1.08152 0.290423 2.88035e-20)
(1.09334 0.340134 -1.47657e-20)
(1.1201 0.400899 3.76833e-20)
(1.15093 0.475909 -7.80999e-20)
(1.14699 0.519067 -1.60909e-20)
(0.774161 0.407085 6.76285e-20)
(1.09469 0.143012 -2.01016e-21)
(1.10393 0.164885 -2.85362e-21)
(1.1046 0.191796 1.39132e-20)
(1.11903 0.227244 -1.39104e-20)
(1.14909 0.267023 1.66657e-20)
(1.17781 0.308747 -8.44508e-21)
(1.2016 0.353612 0)
(1.23176 0.412896 4.25602e-20)
(1.1982 0.426907 -5.17314e-20)
(0.731334 0.285897 -2.18883e-20)
(1.12438 0.131106 5.02763e-21)
(1.14594 0.154027 4.79638e-21)
(1.17622 0.177877 -5.71883e-21)
(1.19124 0.201877 0)
(1.19759 0.231767 0)
(1.22251 0.26443 8.46253e-21)
(1.26395 0.303214 0)
(1.28394 0.340771 0)
(1.17505 0.32444 0)
(0.597152 0.168232 -2.24795e-20)
(0.813772 -0.00911069 -2.38385e-22)
(0.785649 -0.00547792 1.01286e-20)
(0.750128 -0.00127133 -1.20781e-20)
(0.708143 0.00341803 0)
(0.653469 0.00913465 0)
(0.589545 0.0161879 -1.51583e-20)
(0.504687 0.0259246 0)
(0.406493 0.0383 0)
(0.262496 0.0570432 0)
(0.0943108 0.0592345 2.31038e-20)
(0.824809 0.0313246 2.03645e-20)
(0.799607 0.0423101 -3.86758e-20)
(0.76617 0.056542 4.61198e-20)
(0.725949 0.0734795 -3.45408e-20)
(0.674295 0.0943486 4.13857e-20)
(0.615213 0.119375 1.51194e-20)
(0.537768 0.151977 0)
(0.448246 0.191294 5.45707e-20)
(0.315363 0.2498 -6.63075e-20)
(0.141359 0.2421 -6.67343e-20)
(0.848606 0.0751904 -2.40036e-20)
(0.82952 0.0915164 3.44646e-20)
(0.801496 0.111949 -6.07167e-20)
(0.766257 0.136731 -8.65825e-20)
(0.72028 0.167791 1.1299e-19)
(0.667835 0.206239 -4.8463e-20)
(0.600661 0.257803 6.97943e-20)
(0.528373 0.320757 -1.29044e-19)
(0.416383 0.413531 -9.34299e-22)
(0.230886 0.39855 6.7019e-20)
(0.878764 0.107845 3.28655e-20)
(0.864272 0.131436 -5.30383e-20)
(0.842053 0.160804 1.96326e-20)
(0.815095 0.194328 5.92436e-21)
(0.782219 0.235196 -8.91841e-20)
(0.745537 0.282486 3.55298e-20)
(0.692843 0.34525 -2.1016e-21)
(0.641107 0.42162 6.18598e-20)
(0.559694 0.53587 -2.56189e-20)
(0.358234 0.516439 -3.8152e-20)
(0.924143 0.13334 -3.31802e-20)
(0.912654 0.153756 3.94913e-20)
(0.893174 0.186956 -2.7203e-20)
(0.872926 0.226476 8.71121e-20)
(0.847189 0.274722 -1.55275e-20)
(0.827313 0.33267 0)
(0.798593 0.40519 2.89469e-20)
(0.77006 0.490687 -3.5025e-20)
(0.721644 0.606179 2.56778e-20)
(0.499916 0.575614 0)
(0.984987 0.177076 3.65983e-22)
(0.98391 0.146393 1.76174e-22)
(0.980335 0.0838123 1.17105e-22)
(0.979605 0.0289904 -1.32644e-22)
(0.973421 -0.010293 1.68782e-22)
(0.968681 -0.0251646 0)
(0.967158 -0.034103 0)
(0.952384 -0.041367 -1.7789e-22)
(0.950461 -0.0346362 9.54011e-22)
(0.936546 -0.0331195 -2.34004e-21)
(0.92404 -0.0295593 -2.17987e-22)
(0.907317 -0.0298113 4.04476e-21)
(0.888961 -0.0229564 -2.30848e-21)
(0.866154 -0.0201192 2.15332e-22)
(0.841778 -0.0126583 -4.98994e-21)
(0.984823 0.177228 -7.18283e-22)
(0.984109 0.146492 -2.00152e-22)
(0.981564 0.0840021 1.00539e-21)
(0.980211 0.0286091 -2.67328e-22)
(0.975788 -0.00756711 5.85491e-22)
(0.968708 -0.0267351 -6.26748e-22)
(0.968942 -0.0272213 -2.80726e-22)
(0.954442 -0.0417654 1.80536e-22)
(0.951753 -0.0256575 -2.32705e-22)
(0.939046 -0.0302982 -5.44701e-21)
(0.927277 -0.0181803 5.87153e-21)
(0.911422 -0.0212734 8.52902e-21)
(0.893638 -0.00446632 -2.17215e-20)
(0.870555 0.000626632 -2.05874e-21)
(0.848967 0.0220998 -1.73322e-21)
(0.984654 0.177381 3.7234e-22)
(0.984357 0.146164 0)
(0.982619 0.0832931 -5.06145e-22)
(0.981135 0.0271186 -3.10198e-22)
(0.977088 -0.0066664 0)
(0.970126 -0.0274521 -2.39387e-22)
(0.96916 -0.023125 2.88849e-22)
(0.957331 -0.0396061 0)
(0.952098 -0.016669 -8.66434e-21)
(0.940305 -0.0229036 1.02575e-20)
(0.928833 -0.00287881 0)
(0.915154 -0.00530155 2.67984e-22)
(0.899909 0.0209292 0)
(0.881842 0.0279984 -2.98389e-20)
(0.865918 0.0616776 7.11173e-20)
(0.984509 0.177542 0)
(0.984636 0.145335 1.28255e-23)
(0.983352 0.0817407 5.62429e-22)
(0.982048 0.0255272 0)
(0.977844 -0.00593942 1.73656e-21)
(0.972146 -0.0287784 -1.73128e-21)
(0.969599 -0.0193923 0)
(0.961236 -0.041525 -4.21833e-22)
(0.953866 -0.00851463 7.8129e-22)
(0.945584 -0.0243666 1.10073e-20)
(0.934204 0.00354076 -1.3022e-20)
(0.923837 -0.000491907 -1.85684e-20)
(0.909749 0.0387549 -2.13556e-21)
(0.896293 0.0459967 2.68803e-20)
(0.888131 0.0926871 2.38489e-22)
(0.984391 0.177538 0)
(0.984931 0.1434 -5.04044e-22)
(0.984012 0.0783799 0)
(0.983297 0.0221173 0)
(0.977216 -0.00750382 0)
(0.975707 -0.0275878 -2.81573e-22)
(0.966789 -0.0183143 0)
(0.965883 -0.0347297 4.52282e-22)
(0.953248 -0.000993326 9.5782e-21)
(0.945547 -0.0144337 -1.13946e-20)
(0.939458 0.0169782 -1.59588e-20)
(0.931601 0.0207665 1.83991e-20)
(0.924153 0.064709 2.34964e-20)
(0.918055 0.0704963 -5.41261e-20)
(0.922761 0.125597 3.08681e-20)
(0.984344 0.177788 0)
(0.98512 0.143219 0)
(0.984081 0.0774273 0)
(0.98449 0.0209886 0)
(0.976828 -0.00834378 0)
(0.980799 -0.0291541 0)
(0.964329 -0.0171963 0)
(0.973796 -0.0387941 0)
(0.952278 0.0047274 0)
(0.958928 -0.0187061 0)
(0.942973 0.0228176 0)
(0.951584 0.0240609 0)
(0.937136 0.072097 0)
(0.951469 0.0688055 0)
(0.953421 0.12828 0)
(0.984357 0.177702 0)
(0.985277 0.142873 0)
(0.984457 0.0777607 0)
(0.98593 0.0221322 0)
(0.977277 -0.00636563 0)
(0.984143 -0.0268981 0)
(0.96536 -0.0153912 0)
(0.979585 -0.034098 0)
(0.954522 0.00729039 0)
(0.971957 -0.0130298 0)
(0.948343 0.0228005 0)
(0.965401 0.0295499 0)
(0.954508 0.0615121 0)
(0.970262 0.0689311 0)
(0.975216 0.0958186 0)
(0.984419 0.177608 0)
(0.985604 0.142817 0)
(0.984825 0.0780786 0)
(0.987296 0.0224123 0)
(0.978333 -0.00586614 0)
(0.987701 -0.0259771 0)
(0.967938 -0.0140858 0)
(0.984127 -0.0308313 0)
(0.960902 0.00504709 0)
(0.980302 -0.00703905 0)
(0.959365 0.0193062 0)
(0.976742 0.0303719 0)
(0.973135 0.0510585 0)
(0.98553 0.0615248 0)
(0.995539 0.0758227 0)
(0.984477 0.177459 0)
(0.985906 0.142692 0)
(0.98552 0.0781724 0)
(0.989051 0.0229516 0)
(0.979969 -0.00553532 0)
(0.991354 -0.0243438 0)
(0.971217 -0.0145445 0)
(0.989798 -0.0271432 0)
(0.969423 0.00181369 0)
(0.986433 -0.00368658 0)
(0.973217 0.0163942 0)
(0.988522 0.0264522 0)
(0.98804 0.0416727 0)
(0.998343 0.0492686 0)
(1.01009 0.0602806 0)
(0.984545 0.177364 0)
(0.986463 0.142109 0)
(0.98628 0.0776691 0)
(0.99086 0.0234513 0)
(0.982116 -0.00484426 0)
(0.995455 -0.0223323 0)
(0.975504 -0.0144664 0)
(0.995149 -0.0229658 0)
(0.978459 -0.000965386 0)
(0.992566 -0.00157817 0)
(0.986526 0.0140869 0)
(0.999865 0.0207031 0)
(0.999791 0.0327657 0)
(1.00892 0.0372282 0)
(1.02099 0.0456075 0)
(0.984551 0.17704 0)
(0.986853 0.141831 0)
(0.987795 0.0775776 0)
(0.993791 0.0230638 0)
(0.985229 -0.00626912 0)
(1.00007 -0.0224395 0)
(0.980856 -0.0172745 0)
(1.00157 -0.02261 0)
(0.988209 -0.00643595 0)
(0.99941 -0.00448552 0)
(0.997151 0.00764984 0)
(1.00965 0.0113479 0)
(1.00901 0.0206758 0)
(1.0169 0.0234205 0)
(1.02805 0.0298252 0)
(0.98468 0.176388 0)
(0.987855 0.140526 0)
(0.988803 0.0766973 0)
(0.995503 0.0239651 0)
(0.988366 -0.0049649 0)
(1.00463 -0.0197659 0)
(0.986583 -0.0165808 0)
(1.0073 -0.0197101 0)
(0.996663 -0.00781053 0)
(1.00614 -0.00504024 0)
(1.00659 0.00497629 0)
(1.0185 0.00643301 0)
(1.01721 0.0138575 0)
(1.02336 0.0147752 0)
(1.03353 0.0195556 0)
(0.984449 0.176086 0)
(0.988762 0.139474 0)
(0.992485 0.0742552 0)
(1.00107 0.0203594 0)
(0.994135 -0.0100029 0)
(1.01049 -0.0241944 0)
(0.99387 -0.023268 0)
(1.01453 -0.0249402 0)
(1.00552 -0.016789 0)
(1.01366 -0.0130934 0)
(1.01417 -0.00600546 0)
(1.02504 -0.00513145 0)
(1.02256 -0.000294442 0)
(1.02736 0.000566616 0)
(1.03588 0.00372645 0)
(0.98502 0.174087 0)
(0.989898 0.137359 0)
(0.992865 0.074636 0)
(1.00183 0.0232467 0)
(0.997972 -0.0063923 0)
(1.01519 -0.0197963 0)
(1.00071 -0.0198046 0)
(1.02003 -0.0211444 0)
(1.01303 -0.0149672 0)
(1.01973 -0.011718 0)
(1.02097 -0.00600806 0)
(1.03098 -0.00576551 0)
(1.02829 -0.00218383 0)
(1.03192 -0.00167374 0)
(1.03945 0.000701505 0)
(0.984294 0.17321 0)
(0.993155 0.132437 0)
(1.00166 0.0654545 0)
(1.01226 0.0119393 0)
(1.00765 -0.0187121 0)
(1.02319 -0.0318373 0)
(1.00997 -0.0331869 0)
(1.02801 -0.0335335 0)
(1.02135 -0.0293648 0)
(1.02677 -0.0253028 0)
(1.02728 -0.0210958 0)
(1.03548 -0.020361 0)
(1.03181 -0.0179905 0)
(1.03417 -0.0168405 0)
(1.03991 -0.015432 0)
(0.985361 0.169213 0)
(0.99449 0.13146 0)
(1.00202 0.0702538 0)
(1.01373 0.0203658 0)
(1.014 -0.00904128 0)
(1.02942 -0.0217081 0)
(1.01908 -0.0229833 0)
(1.03436 -0.0237745 0)
(1.02954 -0.0201936 0)
(1.03366 -0.0166254 0)
(1.03414 -0.0130353 0)
(1.0414 -0.0125401 0)
(1.03806 -0.0105109 0)
(1.03937 -0.00946089 0)
(1.04446 -0.00810646 0)
(0.984983 0.161374 0)
(1.00425 0.113446 0)
(1.019 0.0463338 0)
(1.03012 -0.00516068 0)
(1.02771 -0.034276 0)
(1.04004 -0.0457879 0)
(1.03064 -0.0467789 0)
(1.04326 -0.0458144 0)
(1.03847 -0.0422889 0)
(1.04055 -0.0378807 0)
(1.04044 -0.0342102 0)
(1.04545 -0.0329028 0)
(1.04153 -0.0311071 0)
(1.04185 -0.0294939 0)
(1.04555 -0.0281881 0)
(0.986551 0.158619 0)
(1.01586 0.118785 0)
(1.03374 0.0614036 0)
(1.04673 0.0147868 0)
(1.04825 -0.011918 0)
(1.05705 -0.0221452 0)
(1.04913 -0.0229874 0)
(1.05692 -0.0220312 0)
(1.05228 -0.0193167 0)
(1.0529 -0.0147607 0)
(1.05181 -0.0118105 0)
(1.055 -0.0104469 0)
(1.0515 -0.00905715 0)
(1.05118 -0.00694064 0)
(1.05354 -0.00613302 0)
(0.987424 0.109916 0)
(1.03635 0.0648539 0)
(1.05904 0.0100514 0)
(1.06647 -0.0310181 0)
(1.06463 -0.0520935 0)
(1.06858 -0.0584252 0)
(1.06246 -0.0552669 0)
(1.06541 -0.0522296 0)
(1.06157 -0.0472344 0)
(1.05952 -0.0424347 0)
(1.05799 -0.0382873 0)
(1.05911 -0.0367671 0)
(1.05605 -0.0345716 0)
(1.05424 -0.0331301 0)
(1.05557 -0.0315953 0)
(0.992783 0.116854 0)
(1.14552 0.0827814 0)
(1.17518 0.0416366 0)
(1.17136 0.0104225 0)
(1.15226 -0.00574846 0)
(1.13542 -0.00949044 0)
(1.11523 -0.00916721 0)
(1.10464 -0.0050944 0)
(1.09281 -0.00214115 0)
(1.08495 0.00145158 0)
(1.07923 0.00344195 0)
(1.07645 0.0058916 0)
(1.07169 0.00675669 0)
(1.06873 0.00878614 0)
(1.06794 0.00947424 0)
(0.980312 0.129401 0)
(1.01295 0.107626 2.85258e-23)
(1.057 0.116382 2.7573e-21)
(1.08742 0.0991113 -4.46625e-21)
(1.12075 0.0992093 -3.15204e-22)
(0.996584 0.106635 -1.15745e-20)
(1.02381 0.09075 4.75398e-21)
(1.06483 0.108158 -1.42573e-21)
(1.08435 0.082188 3.08242e-21)
(1.11472 0.089613 -1.49225e-21)
(1.00944 0.0882562 1.98734e-21)
(1.0311 0.0701875 -4.06308e-21)
(1.06487 0.0839186 -1.10461e-21)
(1.0818 0.051984 -2.64362e-21)
(1.10192 0.0635898 0)
(1.0216 0.066647 6.90759e-21)
(1.03855 0.0534556 2.64486e-21)
(1.06378 0.0639411 8.73742e-22)
(1.07869 0.0377247 -1.23663e-21)
(1.08869 0.0476886 2.9129e-23)
(1.03066 0.0479064 0)
(1.04358 0.039681 -4.41062e-21)
(1.06077 0.0442006 -3.32446e-23)
(1.07199 0.0248051 1.07873e-21)
(1.07726 0.028794 0)