/*--------------------------------*- C++ -*----------------------------------*\
| =========                 |                                                 |
| \\      /  F ield         | OpenFOAM: The Open Source CFD Toolbox           |
|  \\    /   O peration     | Version:  2312                                  |
|   \\  /    A nd           | Website:  www.openfoam.com                      |
|    \\/     M anipulation  |                                                 |
\*---------------------------------------------------------------------------*/
FoamFile
{
    version     2.0;
    format      ascii;
    arch        "LSB;label=32;scalar=64";
    class       volScalarField;
    location    "52";
    object      p;
}
// * * * * * * * * * * * * * * * * * * * * * * * * * * * * * * * * * * * * * //

dimensions      [0 2 -2 0 0 0 0];

internalField   nonuniform List<scalar> 
13248
(
-0.364289
-0.365236
-0.365658
-0.365856
-0.36582
-0.365357
-0.364038
-0.361637
-0.357735
-0.35193
-0.343895
-0.333452
-0.320641
-0.305735
-0.289206
-0.271651
-0.25369
-0.235908
-0.21875
-0.202587
-0.18757
-0.173834
-0.161274
-0.149588
-0.369153
-0.369372
-0.369226
-0.368898
-0.368324
-0.367274
-0.365404
-0.36233
-0.357616
-0.35086
-0.341796
-0.330374
-0.31679
-0.301456
-0.284914
-0.267753
-0.250508
-0.233639
-0.217448
-0.202186
-0.187884
-0.174657
-0.16226
-0.150714
-0.374378
-0.373797
-0.372917
-0.37183
-0.370484
-0.36865
-0.365956
-0.361935
-0.356111
-0.348117
-0.337806
-0.325296
-0.310947
-0.295269
-0.278825
-0.262143
-0.245657
-0.229689
-0.214431
-0.20001
-0.186416
-0.17371
-0.161721
-0.150414
-0.380135
-0.378705
-0.376968
-0.374976
-0.372703
-0.369902
-0.366125
-0.360826
-0.353528
-0.343975
-0.332214
-0.318564
-0.303522
-0.287643
-0.271447
-0.255351
-0.239649
-0.224524
-0.210069
-0.196353
-0.183345
-0.171138
-0.159535
-0.148639
-0.386859
-0.384508
-0.381844
-0.378887
-0.375569
-0.371581
-0.36637
-0.359357
-0.350175
-0.338794
-0.325507
-0.31081
-0.295262
-0.279372
-0.263534
-0.248017
-0.232985
-0.218535
-0.20472
-0.191568
-0.179075
-0.16729
-0.156052
-0.145553
-0.39507
-0.391677
-0.388057
-0.384076
-0.379545
-0.374023
-0.366888
-0.357661
-0.346241
-0.332906
-0.318166
-0.302596
-0.286703
-0.270866
-0.255333
-0.240259
-0.22573
-0.211795
-0.198478
-0.185788
-0.173721
-0.16229
-0.15139
-0.141199
-0.405187
-0.400613
-0.395974
-0.390851
-0.3848
-0.377233
-0.367592
-0.355705
-0.341853
-0.326596
-0.310551
-0.294247
-0.278061
-0.262232
-0.246897
-0.232128
-0.217961
-0.204411
-0.191483
-0.17917
-0.167465
-0.156352
-0.145775
-0.135877
-0.417423
-0.411523
-0.405769
-0.399263
-0.391197
-0.380931
-0.368223
-0.353381
-0.33707
-0.32001
-0.302793
-0.285819
-0.269321
-0.25342
-0.238166
-0.223579
-0.209657
-0.196394
-0.183775
-0.171782
-0.160395
-0.149578
-0.139322
-0.12967
-0.431733
-0.424409
-0.417374
-0.40907
-0.398305
-0.384642
-0.36843
-0.350524
-0.331849
-0.313133
-0.294839
-0.277214
-0.26036
-0.244305
-0.229042
-0.21455
-0.200801
-0.187763
-0.175406
-0.163697
-0.152599
-0.142078
-0.132134
-0.122713
-0.447767
-0.438976
-0.430391
-0.419667
-0.405386
-0.387703
-0.367753
-0.346837
-0.325957
-0.305716
-0.286407
-0.268126
-0.250874
-0.234611
-0.219283
-0.204835
-0.191215
-0.17837
-0.166254
-0.154817
-0.144011
-0.133798
-0.124158
-0.114967
-0.464822
-0.454562
-0.444016
-0.430033
-0.411387
-0.389233
-0.365496
-0.341715
-0.318794
-0.297139
-0.276863
-0.257939
-0.240283
-0.223798
-0.208393
-0.193981
-0.180488
-0.167842
-0.15598
-0.144838
-0.134359
-0.124498
-0.115196
-0.10631
-0.481844
-0.470145
-0.457054
-0.438829
-0.415053
-0.388171
-0.360727
-0.334271
-0.309483
-0.286541
-0.265388
-0.245885
-0.227876
-0.211217
-0.195778
-0.181447
-0.168123
-0.155721
-0.144159
-0.133366
-0.123281
-0.113851
-0.10499
-0.0965898
-0.419964
-0.420349
-0.420319
-0.420799
-0.422288
-0.424969
-0.428909
-0.434164
-0.440815
-0.448952
-0.458656
-0.469965
-0.482842
-0.497134
-0.512535
-0.528557
-0.544508
-0.559504
-0.572509
-0.58236
-0.587916
-0.5879
-0.581597
-0.568429
-0.408004
-0.408996
-0.409109
-0.409418
-0.410481
-0.41245
-0.415354
-0.419202
-0.424008
-0.429788
-0.436541
-0.444229
-0.452756
-0.46194
-0.471493
-0.480996
-0.4899
-0.497546
-0.503193
-0.506119
-0.504563
-0.498899
-0.488813
-0.475429
-0.396039
-0.397528
-0.39776
-0.397909
-0.398546
-0.39979
-0.401626
-0.404008
-0.40688
-0.410172
-0.413796
-0.417629
-0.421502
-0.42519
-0.428401
-0.430766
-0.431839
-0.43111
-0.428024
-0.421995
-0.413171
-0.400862
-0.385279
-0.369439
-0.384807
-0.386676
-0.387031
-0.38708
-0.387375
-0.387991
-0.388871
-0.389918
-0.391012
-0.392009
-0.392742
-0.393012
-0.392589
-0.391209
-0.388574
-0.384364
-0.378242
-0.36986
-0.358945
-0.34538
-0.329715
-0.3116
-0.290995
-0.271098
-0.374897
-0.377042
-0.377534
-0.377563
-0.377631
-0.377765
-0.37787
-0.377807
-0.377404
-0.376465
-0.374766
-0.372057
-0.368071
-0.362529
-0.355154
-0.345687
-0.333908
-0.319649
-0.302814
-0.28399
-0.263315
-0.241586
-0.218591
-0.195064
-0.366717
-0.369055
-0.369696
-0.369777
-0.369731
-0.369538
-0.369067
-0.368148
-0.366574
-0.364111
-0.360502
-0.35547
-0.348737
-0.340036
-0.329138
-0.315883
-0.300208
-0.28218
-0.26203
-0.239636
-0.215536
-0.192745
-0.171318
-0.143732
-0.360522
-0.362983
-0.363771
-0.363948
-0.363878
-0.363494
-0.362636
-0.36111
-0.358686
-0.355106
-0.35009
-0.343352
-0.334618
-0.32365
-0.310284
-0.294461
-0.276268
-0.255971
-0.233988
-0.210931
-0.188579
-0.163559
-0.143079
-0.120173
-0.356441
-0.358958
-0.359872
-0.360163
-0.36013
-0.359669
-0.358598
-0.356707
-0.353747
-0.349441
-0.343497
-0.335622
-0.325554
-0.313092
-0.29814
-0.280739
-0.261108
-0.239649
-0.216983
-0.193521
-0.17127
-0.148115
-0.130505
-0.111013
-0.354502
-0.356988
-0.357989
-0.358392
-0.358437
-0.357992
-0.356858
-0.35484
-0.351647
-0.346988
-0.340557
-0.332059
-0.321243
-0.30795
-0.292159
-0.274011
-0.253871
-0.232254
-0.210015
-0.187393
-0.166745
-0.146026
-0.130586
-0.115084
-0.354616
-0.356951
-0.35798
-0.358477
-0.358624
-0.358255
-0.357118
-0.355212
-0.35202
-0.347264
-0.340632
-0.331822
-0.320605
-0.306879
-0.290721
-0.272406
-0.252437
-0.231451
-0.210334
-0.18958
-0.170671
-0.153047
-0.139206
-0.127213
-0.356571
-0.358608
-0.359579
-0.360123
-0.360363
-0.360139
-0.359273
-0.357258
-0.354006
-0.349137
-0.342288
-0.333162
-0.321577
-0.307523
-0.291211
-0.273057
-0.253664
-0.233777
-0.21409
-0.195376
-0.178185
-0.16295
-0.150233
-0.139894
-0.359952
-0.361517
-0.362295
-0.362756
-0.362939
-0.36263
-0.361677
-0.359657
-0.356223
-0.351036
-0.343741
-0.334084
-0.321975
-0.307537
-0.291121
-0.273263
-0.254611
-0.235859
-0.217595
-0.200391
-0.184534
-0.170395
-0.158096
-0.147852
-0.544997
-0.50757
-0.460441
-0.408746
-0.358873
-0.316678
-0.28649
-0.272281
-0.276097
-0.295769
-0.323535
-0.346918
-0.352628
-0.328493
-0.280525
-0.224849
-0.177733
-0.146524
-0.130948
-0.128833
-0.137542
-0.15631
-0.190826
-0.24602
-0.305411
-0.337973
-0.324259
-0.276889
-0.221465
-0.177951
-0.155204
-0.150298
-0.162656
-0.198452
-0.252802
-0.302084
-0.320051
-0.297626
-0.250572
-0.202588
-0.165974
-0.142412
-0.132124
-0.131493
-0.131411
-0.122649
-0.107409
-0.0902981
-0.0758535
-0.0652426
-0.0577051
-0.0516462
-0.0461217
-0.0406695
-0.0345759
-0.0286451
-0.0231066
-0.0170415
-0.010841
-0.00387819
-0.455362
-0.429362
-0.394455
-0.358129
-0.324252
-0.298268
-0.283339
-0.283819
-0.300322
-0.328656
-0.360593
-0.38503
-0.389246
-0.362609
-0.309424
-0.247683
-0.194865
-0.158606
-0.138674
-0.13285
-0.138293
-0.153709
-0.184031
-0.234826
-0.292053
-0.325575
-0.315119
-0.271734
-0.219245
-0.178087
-0.157878
-0.155769
-0.171255
-0.210384
-0.267698
-0.319567
-0.340523
-0.315637
-0.263865
-0.208912
-0.165142
-0.135041
-0.118526
-0.112912
-0.110607
-0.10341
-0.0916137
-0.0787364
-0.0680788
-0.0606814
-0.0557253
-0.0515985
-0.0474655
-0.0427068
-0.0366232
-0.0302232
-0.0242011
-0.0177213
-0.0111705
-0.00397649
-0.352787
-0.336111
-0.313333
-0.292323
-0.276022
-0.266724
-0.268472
-0.283666
-0.310888
-0.344793
-0.378433
-0.40334
-0.407972
-0.381145
-0.326242
-0.261807
-0.20592
-0.166516
-0.142983
-0.133236
-0.135176
-0.146843
-0.17196
-0.21633
-0.26957
-0.303657
-0.298307
-0.260609
-0.212037
-0.174057
-0.15678
-0.157439
-0.1758
-0.217695
-0.277194
-0.331211
-0.354251
-0.329845
-0.274788
-0.213819
-0.163595
-0.127761
-0.10589
-0.0959792
-0.0918081
-0.0858483
-0.077016
-0.0677148
-0.0604716
-0.0561623
-0.0537648
-0.0516542
-0.0490022
-0.0449219
-0.0387837
-0.0318107
-0.0252645
-0.0183591
-0.0114682
-0.00406306
-0.25644
-0.245472
-0.234992
-0.224172
-0.227306
-0.231652
-0.247883
-0.274996
-0.309355
-0.345766
-0.379332
-0.404184
-0.409846
-0.384867
-0.331262
-0.266965
-0.21046
-0.170002
-0.144301
-0.130915
-0.12888
-0.136468
-0.155925
-0.19315
-0.240961
-0.275565
-0.275644
-0.244343
-0.200418
-0.166025
-0.151773
-0.154974
-0.175551
-0.219322
-0.280608
-0.336818
-0.362427
-0.339859
-0.283103
-0.217246
-0.16133
-0.120577
-0.0942636
-0.0807817
-0.0750351
-0.0699326
-0.0635076
-0.0571931
-0.0530482
-0.0517002
-0.0518307
-0.0518307
-0.0507528
-0.0473349
-0.0410723
-0.0334065
-0.0263008
-0.0189583
-0.0117368
-0.00413879
-0.182408
-0.170144
-0.17586
-0.174027
-0.182622
-0.199376
-0.225883
-0.260625
-0.299109
-0.336133
-0.368424
-0.392667
-0.398617
-0.375328
-0.324893
-0.263784
-0.209413
-0.169449
-0.142885
-0.127054
-0.120867
-0.124005
-0.137529
-0.167076
-0.208692
-0.243048
-0.248763
-0.224019
-0.184991
-0.154321
-0.143052
-0.148641
-0.17083
-0.215338
-0.277822
-0.336107
-0.364721
-0.345581
-0.288804
-0.21936
-0.15862
-0.113629
-0.0836033
-0.0672023
-0.060149
-0.0555911
-0.0509851
-0.04713
-0.0458089
-0.0472888
-0.0499212
-0.0521421
-0.0527333
-0.0499565
-0.0434923
-0.035015
-0.0273194
-0.0195234
-0.0119789
-0.00420498
-0.136916
-0.129859
-0.131227
-0.137217
-0.151353
-0.173916
-0.204844
-0.242513
-0.282214
-0.318708
-0.349821
-0.372368
-0.377688
-0.355924
-0.30961
-0.254004
-0.203945
-0.16571
-0.139118
-0.121886
-0.11266
-0.111132
-0.118673
-0.140314
-0.175085
-0.207992
-0.219049
-0.20039
-0.166407
-0.139535
-0.131243
-0.139063
-0.162121
-0.206509
-0.269199
-0.329374
-0.3612
-0.346863
-0.291697
-0.220119
-0.155611
-0.107083
-0.0739504
-0.055114
-0.0469253
-0.0426624
-0.0393614
-0.0375052
-0.0387574
-0.042916
-0.0480325
-0.052591
-0.0549441
-0.0527863
-0.0460406
-0.037067
-0.0283381
-0.0200595
-0.0121972
-0.00426286
-0.111594
-0.106848
-0.108277
-0.116112
-0.131709
-0.155047
-0.185688
-0.222324
-0.260693
-0.295777
-0.326312
-0.346146
-0.350042
-0.329811
-0.288723
-0.240018
-0.195501
-0.15997
-0.133776
-0.11573
-0.104562
-0.0995303
-0.101188
-0.114662
-0.141972
-0.172065
-0.188267
-0.17418
-0.145519
-0.122541
-0.117016
-0.126791
-0.150413
-0.193424
-0.254855
-0.316485
-0.351967
-0.343305
-0.291451
-0.219569
-0.152499
-0.101057
-0.065292
-0.0443717
-0.0351346
-0.0309618
-0.0285466
-0.0283255
-0.0318578
-0.0385278
-0.0461416
-0.053186
-0.0573867
-0.0558245
-0.0487004
-0.0388651
-0.0293526
-0.0205706
-0.0123941
-0.00431344
-0.102821
-0.098995
-0.0993635
-0.106011
-0.120504
-0.14207
-0.16984
-0.203045
-0.238118
-0.26993
-0.295217
-0.31477
-0.317522
-0.299373
-0.264579
-0.223718
-0.185337
-0.153167
-0.127846
-0.109161
-0.0965432
-0.0891626
-0.0866631
-0.0922626
-0.111211
-0.136571
-0.154071
-0.146355
-0.123506
-0.104263
-0.101178
-0.112726
-0.136291
-0.177259
-0.236572
-0.297778
-0.337164
-0.334772
-0.287824
-0.217593
-0.149279
-0.0955978
-0.0576188
-0.034854
-0.0246049
-0.0203415
-0.0184829
-0.0195554
-0.0250863
-0.0341109
-0.0442316
-0.0539058
-0.0600428
-0.0590625
-0.0514636
-0.0406914
-0.0303633
-0.0210588
-0.0125709
-0.00435737
-0.108681
-0.104381
-0.101252
-0.104507
-0.115703
-0.133718
-0.157292
-0.185661
-0.216044
-0.244537
-0.266922
-0.2814
-0.282497
-0.2673
-0.239581
-0.206753
-0.174518
-0.145874
-0.121887
-0.10286
-0.0889413
-0.0796643
-0.0744134
-0.0744137
-0.0847453
-0.103773
-0.12044
-0.118306
-0.101032
-0.0854693
-0.0845674
-0.0974683
-0.120711
-0.158933
-0.214554
-0.275551
-0.318102
-0.32527
-0.281607
-0.214172
-0.145859
-0.0906444
-0.0509161
-0.0265173
-0.0152496
-0.0107352
-0.0092038
-0.0112252
-0.0184609
-0.0296209
-0.042269
-0.0547587
-0.0629193
-0.0624975
-0.054314
-0.042554
-0.031371
-0.0215259
-0.0127294
-0.00439565
-0.122513
-0.116615
-0.110516
-0.109854
-0.115765
-0.128001
-0.145951
-0.16825
-0.192801
-0.216866
-0.235184
-0.245668
-0.246239
-0.235156
-0.214811
-0.189659
-0.163356
-0.138337
-0.116081
-0.097293
-0.0824587
-0.0716589
-0.064191
-0.0603496
-0.0637662
-0.0756484
-0.0894224
-0.0927318
-0.0795379
-0.0671704
-0.0681121
-0.0820581
-0.10487
-0.139804
-0.191734
-0.250032
-0.294549
-0.306018
-0.270624
-0.209182
-0.142646
-0.0866732
-0.045535
-0.0196087
-0.00720461
-0.0021758
-0.000749469
-0.00341542
-0.0120569
-0.0251385
-0.0402745
-0.0556726
-0.0659585
-0.0660928
-0.0572096
-0.0444477
-0.0323821
-0.0219793
-0.0128755
-0.00443154
-0.133885
-0.127063
-0.12086
-0.117703
-0.117881
-0.123451
-0.135006
-0.150905
-0.16941
-0.188912
-0.202376
-0.21239
-0.214671
-0.208324
-0.194526
-0.175692
-0.154365
-0.132613
-0.112133
-0.0938748
-0.0784617
-0.0663422
-0.0570444
-0.0501578
-0.0477974
-0.0529209
-0.0630803
-0.067847
-0.0578899
-0.0495986
-0.0523072
-0.0668516
-0.0885214
-0.120073
-0.16749
-0.223858
-0.270365
-0.286854
-0.260455
-0.204527
-0.140662
-0.0844653
-0.0419056
-0.0143028
-0.0006429
0.00512471
0.00698643
0.0038533
-0.00584182
-0.0205393
-0.0381602
-0.0566934
-0.0692141
-0.0698705
-0.0601248
-0.0463945
-0.0334075
-0.0224245
-0.0130112
-0.00446754
-0.140057
-0.133866
-0.128951
-0.124175
-0.121036
-0.12179
-0.126826
-0.135161
-0.145996
-0.155605
-0.170547
-0.17862
-0.182212
-0.180183
-0.172433
-0.159743
-0.143609
-0.125659
-0.10734
-0.0900747
-0.0745998
-0.061356
-0.0508139
-0.0422688
-0.0355047
-0.034077
-0.0396657
-0.0448935
-0.0402778
-0.0343054
-0.0384547
-0.0531295
-0.0743279
-0.102106
-0.143966
-0.197242
-0.242362
-0.259332
-0.242204
-0.195121
-0.13545
-0.0804038
-0.0374722
-0.0089154
0.00543514
0.0114608
0.0133184
0.010227
-0.000113271
-0.0160766
-0.0360088
-0.0576226
-0.0724889
-0.0736547
-0.0630172
-0.048332
-0.0343673
-0.0227992
-0.013098
-0.00449065
-0.138829
-0.137119
-0.13195
-0.125924
-0.121778
-0.121003
-0.123759
-0.129681
-0.138015
-0.148173
-0.155467
-0.161166
-0.163326
-0.160804
-0.153593
-0.142186
-0.127676
-0.11159
-0.0950171
-0.0792001
-0.0648196
-0.0520086
-0.0413428
-0.0324994
-0.0246396
-0.0198571
-0.0204664
-0.021467
-0.0200647
-0.0191747
-0.0249952
-0.0387141
-0.0573074
-0.0816507
-0.120297
-0.171447
-0.218418
-0.242022
-0.229711
-0.182004
-0.123551
-0.0705092
-0.0293975
-0.00215598
0.0115782
0.0174255
0.0193371
0.0163402
0.00566324
-0.0112049
-0.0333829
-0.0583606
-0.0759177
-0.0777764
-0.0669612
-0.050078
-0.0351034
-0.0230154
-0.013095
-0.00448108
-0.136398
-0.136246
-0.131297
-0.125039
-0.120436
-0.118715
-0.119961
-0.123748
-0.129313
-0.135491
-0.140535
-0.143741
-0.144097
-0.140894
-0.134112
-0.124073
-0.111522
-0.0976185
-0.0830948
-0.0689752
-0.0558147
-0.0436056
-0.0331099
-0.0240046
-0.0153104
-0.00908875
-0.0078985
-0.00849534
-0.00748278
-0.00805047
-0.0150599
-0.0283135
-0.0448391
-0.066247
-0.100588
-0.14907
-0.198065
-0.223622
-0.211487
-0.166344
-0.111012
-0.0610865
-0.0221922
0.00358606
0.0164413
0.0218683
0.0238239
0.0209618
0.0102603
-0.0072674
-0.0315365
-0.059735
-0.0796327
-0.0816205
-0.0695862
-0.0515735
-0.0356905
-0.0231571
-0.0130534
-0.0044503
-0.130316
-0.131629
-0.127969
-0.122261
-0.117476
-0.114946
-0.11488
-0.116898
-0.120242
-0.123943
-0.126818
-0.128169
-0.127441
-0.12409
-0.117989
-0.109321
-0.098449
-0.0862295
-0.0732548
-0.060265
-0.0479681
-0.0363288
-0.0258778
-0.0167294
-0.00782026
-0.000546684
0.00243258
0.00261902
0.00271142
0.000154924
-0.00805176
-0.021055
-0.0361702
-0.0553299
-0.0864357
-0.131748
-0.176819
-0.201344
-0.19196
-0.150477
-0.0987596
-0.0520923
-0.015539
0.00874582
0.0207032
0.0256479
0.0277839
0.0250716
0.0142704
-0.00406574
-0.0307389
-0.0619669
-0.0835974
-0.0854471
-0.0723177
-0.0530491
-0.0362402
-0.0232672
-0.0129873
-0.00441029
-0.121605
-0.124908
-0.122793
-0.117817
-0.113012
-0.109966
-0.10904
-0.109818
-0.111467
-0.113301
-0.114566
-0.114641
-0.113092
-0.109516
-0.103741
-0.0958702
-0.0861208
-0.0751648
-0.0635322
-0.0517112
-0.0403523
-0.0294567
-0.0193527
-0.0103698
-0.00169733
0.00567274
0.00939048
0.0099397
0.00938705
0.00591419
-0.00263332
-0.0147624
-0.0283134
-0.0459336
-0.0744124
-0.113676
-0.152878
-0.177576
-0.170741
-0.132913
-0.0854147
-0.0427622
-0.00906405
0.0133658
0.0241862
0.0286139
0.0309802
0.0286405
0.0178975
-0.00131375
-0.0304852
-0.0645228
-0.0877741
-0.0894117
-0.075034
-0.0544418
-0.0367109
-0.0233245
-0.0128896
-0.00435765
-0.112289
-0.116953
-0.116096
-0.111916
-0.10738
-0.104147
-0.102582
-0.102338
-0.102785
-0.103336
-0.103415
-0.102493
-0.100243
-0.0964041
-0.0908516
-0.0837083
-0.0750797
-0.0653628
-0.0549948
-0.0442642
-0.0337105
-0.0235182
-0.0137994
-0.00494974
0.00327217
0.0102963
0.01421
0.0150472
0.0139606
0.0100917
0.0018306
-0.00879803
-0.0204743
-0.0365665
-0.0611147
-0.0930351
-0.127516
-0.152085
-0.147984
-0.114567
-0.0719057
-0.0336196
-0.00300508
0.0174639
0.0270304
0.0308283
0.0334077
0.0315891
0.0210757
0.0011511
-0.030409
-0.0672819
-0.0921706
-0.0933545
-0.0775703
-0.0556676
-0.0370677
-0.023316
-0.0127562
-0.00429166
-0.102619
-0.108017
-0.108187
-0.104857
-0.100734
-0.0974503
-0.0954601
-0.0945578
-0.094215
-0.0938634
-0.0930606
-0.0914132
-0.0886935
-0.0847564
-0.0795025
-0.0729948
-0.0652542
-0.0564923
-0.0471034
-0.0373107
-0.0275032
-0.0180434
-0.00896746
-0.000463344
0.00725226
0.0136479
0.0173881
0.0185549
0.017681
0.0138712
0.00629606
-0.00255502
-0.012069
-0.0260245
-0.0462585
-0.071903
-0.101979
-0.126013
-0.124491
-0.0956038
-0.0580262
-0.0244519
0.00268312
0.0209647
0.0292057
0.0323271
0.0350868
0.0338596
0.0237077
0.00329417
-0.0305931
-0.0702864
-0.0965762
-0.0970413
-0.0797624
-0.0566328
-0.0372677
-0.0232237
-0.0125813
-0.00421108
-0.0925742
-0.0984441
-0.0994384
-0.0968896
-0.0932355
-0.0900736
-0.0879165
-0.0866223
-0.0857329
-0.0847701
-0.0833852
-0.0812916
-0.0783214
-0.0743797
-0.0693746
-0.0633392
-0.0563064
-0.0484043
-0.0399391
-0.0311004
-0.0221171
-0.0133581
-0.00494474
0.00308284
0.0103723
0.0161845
0.019665
0.0211432
0.0210226
0.0179966
0.0116637
0.00463677
-0.00313656
-0.0155871
-0.0322084
-0.051769
-0.0768733
-0.0998718
-0.100574
-0.0765456
-0.0444546
-0.0156681
0.00787989
0.0238875
0.0307983
0.033227
0.0360735
0.0354379
0.0256698
0.00490568
-0.0311902
-0.0733684
-0.100688
-0.100202
-0.0814101
-0.0572242
-0.037262
-0.0230283
-0.0123592
-0.00411476
-0.0825185
-0.0885891
-0.0901808
-0.0883247
-0.0851847
-0.08226
-0.080077
-0.0785634
-0.0773517
-0.0760315
-0.0743085
-0.0719661
-0.0688768
-0.0649804
-0.0602239
-0.0546468
-0.0482803
-0.041176
-0.0335385
-0.0255323
-0.0173165
-0.00922559
-0.00147071
0.00594714
0.0127459
0.0181127
0.021449
0.0231991
0.0237071
0.0218845
0.0172342
0.0119001
0.00501909
-0.00661106
-0.019348
-0.0324084
-0.0529692
-0.0750364
-0.0773312
-0.0579745
-0.0313632
-0.00727489
0.0126048
0.0262489
0.0318356
0.03362
0.0364367
0.0362599
0.0267936
0.00584595
-0.0321064
-0.0762246
-0.104139
-0.102495
-0.0822774
-0.0573159
-0.0369983
-0.0227093
-0.012084
-0.00400154
-0.0726416
-0.078691
-0.0807008
-0.0794391
-0.0767931
-0.0741522
-0.0720507
-0.0704708
-0.0691117
-0.0676161
-0.0657263
-0.0632777
-0.060184
-0.056421
-0.0519654
-0.0468406
-0.0410618
-0.0346501
-0.0277525
-0.0205152
-0.0130648
-0.00567631
0.00143848
0.00824383
0.0145022
0.0195253
0.022848
0.0247888
0.0258975
0.0250135
0.0217272
0.0180354
0.0127452
0.00374301
-0.00478456
-0.0137665
-0.032229
-0.0527155
-0.0553239
-0.0403601
-0.0192408
0.000409602
0.0168034
0.0281453
0.032438
0.0336216
0.0362313
0.0362148
0.0269589
0.00610077
-0.0331214
-0.0784594
-0.106445
-0.103507
-0.0821045
-0.0567782
-0.0364241
-0.0222463
-0.0117498
-0.0038703
-0.0630228
-0.0689295
-0.071207
-0.0704277
-0.0682382
-0.0659142
-0.0639733
-0.0624257
-0.0610344
-0.0594946
-0.0575729
-0.055141
-0.0521483
-0.0485904
-0.0444544
-0.0397549
-0.0345118
-0.0287396
-0.0225406
-0.016032
-0.00930825
-0.00260125
0.00389535
0.0101234
0.0158459
0.0205522
0.0239316
0.0261798
0.027663
0.0275055
0.025431
0.0234449
0.021421
0.0171078
0.0114661
0.00268473
-0.0151665
-0.0327184
-0.0350794
-0.0242607
-0.00829271
0.00731523
0.0205071
0.0296601
0.0327547
0.033407
0.0355114
0.0340761
0.0262042
0.00579557
-0.0339046
-0.0795447
-0.10703
-0.102788
-0.0806358
-0.0554927
-0.0354923
-0.0216207
-0.0113514
-0.00372008
-0.0537899
-0.0594353
-0.0618509
-0.0614602
-0.0596862
-0.057681
-0.0559362
-0.0544868
-0.0531506
-0.0516647
-0.0498129
-0.0474908
-0.0446702
-0.0413586
-0.0375569
-0.0332811
-0.0285531
-0.0233808
-0.01783
-0.0119974
-0.00595782
9.67103e-05
0.0059885
0.0116633
0.0168977
0.0213054
0.0247333
0.0272636
0.0290611
0.0296052
0.0287915
0.0284112
0.0291708
0.0286942
0.0248422
0.0155019
-0.000690928
-0.0146127
-0.0170599
-0.0101615
0.00119894
0.0132405
0.0237014
0.0308861
0.0329554
0.0332318
0.0346557
0.0329008
0.0249056
0.00532269
-0.0339157
-0.0788699
-0.105288
-0.099907
-0.077661
-0.0533718
-0.0341682
-0.0208177
-0.0108843
-0.00355012
-0.0449708
-0.0502814
-0.0527464
-0.0526644
-0.0512554
-0.0495537
-0.0480296
-0.0467274
-0.0454999
-0.0441243
-0.0424128
-0.0402656
-0.0376662
-0.0346351
-0.0311863
-0.0273345
-0.0230983
-0.0184846
-0.0135368
-0.00833476
-0.00294292
0.00249074
0.00780721
0.0129515
0.0177384
0.0218718
0.0253026
0.028025
0.0300811
0.0312405
0.0315207
0.0322578
0.0343477
0.0355479
0.0329822
0.0246493
0.0115391
0.000824458
-0.00217041
0.00145307
0.00913739
0.0181976
0.0264032
0.0318943
0.0332013
0.0332917
0.0340431
0.03139
0.0232422
0.00495559
-0.0325321
-0.07573
-0.100613
-0.0945193
-0.0730654
-0.0503818
-0.0324368
-0.019829
-0.0103458
-0.00336002
-0.0365636
-0.041527
-0.0439829
-0.0441387
-0.0430473
-0.0416306
-0.0403335
-0.0392058
-0.0381111
-0.0368745
-0.0353467
-0.0334225
-0.0310815
-0.0283538
-0.0252645
-0.0218286
-0.018062
-0.0139735
-0.00959113
-0.00497869
-0.000193747
0.0046538
0.00942689
0.0140665
0.0184347
0.0223038
0.0256706
0.0284737
0.0307085
0.0323117
0.0333771
0.0347413
0.0370326
0.038579
0.0370131
0.0305525
0.0206727
0.0124575
0.00913911
0.0105417
0.0155527
0.0222279
0.0285963
0.0327287
0.0335767
0.0337338
0.0341503
0.0303237
0.0222103
0.00549881
-0.0289233
-0.0695586
-0.0926594
-0.086549
-0.0669004
-0.0465645
-0.0303102
-0.0186552
-0.00973526
-0.00314986
-0.0286236
-0.0332236
-0.0356208
-0.0359552
-0.0351357
-0.0339793
-0.0328948
-0.031946
-0.0310079
-0.0299344
-0.0286017
-0.0269237
-0.0248659
-0.022455
-0.0197245
-0.016694
-0.0133769
-0.00978255
-0.00592953
-0.00186693
0.00235379
0.00665051
0.0109109
0.0150701
0.0190355
0.0226378
0.0258382
0.0286468
0.0309809
0.032853
0.0343829
0.0360043
0.0380408
0.0394517
0.0384397
0.0336781
0.0265121
0.0203563
0.0171812
0.0173511
0.0205597
0.0254318
0.0303128
0.0334516
0.0341218
0.0345943
0.0352745
0.0310148
0.0242226
0.00906541
-0.0224414
-0.060553
-0.0816434
-0.0762829
-0.0594149
-0.0420469
-0.0278309
-0.0173074
-0.00905477
-0.00292032
-0.0211594
-0.0253807
-0.0276829
-0.0281509
-0.0275615
-0.026639
-0.0257545
-0.0249812
-0.0242195
-0.0233194
-0.0221767
-0.0207425
-0.0189776
-0.0168904
-0.0145145
-0.0118747
-0.00898476
-0.0058536
-0.00249443
0.00105592
0.00475275
0.00853326
0.0123083
0.0160139
0.0195875
0.0229145
0.0259094
0.0286173
0.03096
0.0329414
0.0346615
0.0363032
0.0379757
0.0390792
0.0383609
0.0349623
0.0299033
0.0253883
0.0226758
0.0223208
0.0243455
0.0279006
0.0316151
0.03407
0.034835
0.0358166
0.0374879
0.0370717
0.0311654
0.0166646
-0.0135145
-0.0491805
-0.0680409
-0.0642926
-0.0510376
-0.0370352
-0.0250713
-0.015808
-0.00830987
-0.00267291
-0.0141306
-0.0179898
-0.0201815
-0.0207485
-0.0203551
-0.0196405
-0.0189439
-0.018337
-0.0177418
-0.0170277
-0.0160924
-0.0148784
-0.0133882
-0.0116188
-0.00958884
-0.00732299
-0.00483672
-0.00213857
0.00076117
0.00383516
0.00704575
0.0103438
0.0136607
0.0169365
0.0201223
0.0231233
0.0259085
0.0284539
0.0307172
0.0326805
0.0344034
0.0359412
0.0372833
0.0380885
0.0375731
0.0352169
0.0317096
0.0284542
0.0263142
0.0258619
0.0271215
0.0297103
0.0325673
0.0345709
0.0355761
0.0370916
0.0397823
0.0417636
0.0388952
0.0254218
-0.00348092
-0.0358283
-0.05274
-0.0515456
-0.0423596
-0.0317971
-0.0221281
-0.0141899
-0.00750974
-0.00241002
-0.00753086
-0.0110513
-0.0131236
-0.0137613
-0.0135335
-0.0130028
-0.0124769
-0.0120267
-0.0115866
-0.0110464
-0.0103115
-0.00933057
-0.00808729
-0.00661291
-0.00491141
-0.0030003
-0.000893203
0.00140136
0.00387462
0.00650701
0.00926795
0.0121165
0.0150015
0.0178711
0.0206833
0.0233715
0.0258921
0.0282253
0.0303367
0.0321931
0.033813
0.0351954
0.0362819
0.0368721
0.0365197
0.0349342
0.0325521
0.0302736
0.0287541
0.0283007
0.0290861
0.0309664
0.0331944
0.0349132
0.036123
0.0380458
0.0414789
0.0447906
0.0435821
0.031624
0.00575991
-0.0221652
-0.0376852
-0.0393449
-0.0340131
-0.0266064
-0.0191057
-0.0124928
-0.00666688
-0.00213497
-0.00135504
-0.00455334
-0.00649996
-0.00718656
-0.00709896
-0.00673022
-0.0063571
-0.00604903
-0.00575358
-0.00537575
-0.0048321
-0.00407303
-0.00308534
-0.00187081
-0.00046357
0.00112112
0.00287667
0.00479754
0.00687709
0.009101
0.0114443
0.0138749
0.0163536
0.0188374
0.0212878
0.023656
0.0258994
0.0279915
0.0299034
0.0315978
0.0330641
0.0342796
0.0351789
0.0356392
0.035427
0.0343979
0.0328225
0.0312739
0.0302141
0.0298291
0.0303906
0.0317681
0.0335177
0.0350295
0.0363433
0.0383891
0.0420006
0.0451142
0.0442839
0.0342295
0.0126521
-0.0105378
-0.024761
-0.0286332
-0.0264337
-0.0216697
-0.0160987
-0.0107586
-0.00579629
-0.00185173
0.00442815
0.00152879
-0.000293639
-0.00101376
-0.0010447
-0.00081721
-0.000580138
-0.00040106
-0.000237936
-7.96953e-06
0.000363581
0.000921523
0.00168037
0.00263302
0.00376246
0.00505209
0.0064903
0.00807123
0.00978694
0.011634
0.0135933
0.0156376
0.0177349
0.0198519
0.0219547
0.0240051
0.025965
0.0278031
0.0294915
0.0309947
0.0322886
0.033344
0.0341052
0.0344957
0.034403
0.0337684
0.03276
0.0317379
0.0310256
0.0307958
0.0311881
0.0321988
0.0335586
0.0348661
0.0361498
0.0380171
0.0408921
0.0433003
0.0422191
0.0338439
0.0166737
-0.00202708
-0.0146935
-0.0197856
-0.019803
-0.0171151
-0.0131889
-0.00902962
-0.00491484
-0.00156491
0.00984239
0.00721614
0.00551394
0.00477285
0.00464166
0.00474465
0.00485935
0.00492178
0.00496599
0.00506344
0.00527982
0.00565555
0.00620482
0.00692245
0.00779441
0.00880581
0.00994725
0.0112144
0.0126091
0.0141177
0.0157271
0.0174154
0.0191591
0.0209307
0.0227023
0.0244422
0.0261184
0.0276993
0.0291571
0.0304592
0.0315782
0.0324849
0.0331383
0.0334912
0.0334933
0.0331311
0.0325125
0.031862
0.0314013
0.0312763
0.0315792
0.0323122
0.0333503
0.0344345
0.0355346
0.0370275
0.0390288
0.0404159
0.0389352
0.0319108
0.0185267
0.00371711
-0.00721115
-0.0127302
-0.0141526
-0.0130129
-0.0104416
-0.00734469
-0.00403991
-0.00127957
0.0149108
0.0125334
0.0109449
0.01019
0.00997172
0.00996415
0.00996987
0.00992875
0.00986735
0.00984654
0.00992388
0.0101359
0.0104965
0.0110022
0.0116417
0.012403
0.0132788
0.0142653
0.0153606
0.016558
0.0178469
0.0192102
0.0206289
0.0220797
0.0235398
0.0249829
0.0263828
0.0277103
0.0289397
0.0300415
0.0309899
0.0317588
0.0323201
0.0326447
0.0327129
0.0325307
0.0321702
0.0317723
0.0314867
0.0314199
0.0316458
0.032169
0.0329217
0.0337521
0.0345937
0.0356074
0.0367745
0.0372408
0.0354088
0.029491
0.0191081
0.00746851
-0.00176882
-0.00724056
-0.00944066
-0.00939988
-0.00790875
-0.00573951
-0.00318813
-0.000999873
0.0196536
0.017501
0.0160181
0.0152553
0.0149624
0.014858
0.0147672
0.0146337
0.0144779
0.0143516
0.0143052
0.0143715
0.0145638
0.0148799
0.0153111
0.0158475
0.016483
0.0172149
0.0180416
0.0189585
0.0199572
0.0210244
0.0221449
0.0232997
0.0244703
0.0256349
0.0267718
0.0278559
0.0288642
0.0297712
0.0305552
0.0311936
0.0316678
0.0319598
0.0320637
0.0319911
0.0317915
0.0315526
0.0313746
0.0313339
0.0314809
0.0318248
0.0323257
0.0328811
0.0334229
0.0339783
0.0344349
0.0341775
0.0321154
0.0271098
0.0190159
0.00987079
0.00215584
-0.00300181
-0.00556458
-0.00627706
-0.00562306
-0.00424405
-0.00237874
-0.000730795
0.024087
0.0221381
0.0207536
0.0199871
0.0196291
0.0194379
0.0192598
0.0190428
0.0188025
0.0185826
0.0184268
0.0183642
0.0184072
0.0185553
0.0188016
0.0191379
0.0195593
0.020063
0.0206484
0.0213124
0.0220492
0.0228483
0.0236976
0.0245819
0.0254862
0.0263925
0.0272835
0.0281378
0.0289363
0.0296574
0.0302832
0.0307953
0.031181
0.0314283
0.0315374
0.0315194
0.0314077
0.0312567
0.0311318
0.031084
0.0311464
0.0313258
0.0315947
0.0318824
0.0321173
0.0322607
0.0321661
0.0314031
0.0292409
0.0249819
0.0185938
0.0113603
0.00495304
0.000279972
-0.00242852
-0.00363244
-0.00360634
-0.00287766
-0.00162054
-0.000481444
0.0282483
0.0264823
0.0251876
0.024419
0.0240029
0.0237333
0.0234762
0.0231843
0.0228686
0.0225657
0.022313
0.0221362
0.0220469
0.0220453
0.0221264
0.0222839
0.0225141
0.0228149
0.023186
0.023625
0.0241277
0.024686
0.0252908
0.0259296
0.0265907
0.0272593
0.0279218
0.0285605
0.0291603
0.029703
0.0301752
0.0305615
0.0308534
0.0310424
0.0311301
0.0311233
0.0310452
0.030928
0.0308128
0.0307304
0.0307016
0.0307281
0.0307864
0.0308247
0.0307738
0.0305705
0.0300695
0.0289773
0.0268143
0.0231723
0.0180638
0.012294
0.00697351
0.00281673
9.62543e-05
-0.00142954
-0.00186343
-0.00166217
-0.000931034
-0.000241038
0.0321033
0.0305014
0.0292885
0.0285197
0.0280524
0.0277126
0.0273846
0.0270254
0.0266427
0.0262668
0.0259296
0.0256532
0.0254486
0.0253167
0.0252541
0.0252555
0.025318
0.0254397
0.0256207
0.0258592
0.026153
0.0264958
0.026881
0.0272987
0.02774
0.0281927
0.0286466
0.029087
0.0295025
0.0298777
0.0302024
0.0304638
0.0306563
0.0307722
0.0308137
0.030784
0.0306982
0.0305731
0.0304331
0.0302952
0.0301695
0.0300529
0.0299216
0.0297376
0.0294361
0.0289581
0.0281748
0.0268937
0.0247962
0.0216507
0.0174809
0.0128001
0.00836585
0.00469403
0.00198355
0.000354491
-0.000394973
-0.000606694
-0.000326174
-4.16684e-05
0.0357744
0.0343182
0.0331791
0.0324101
0.0318961
0.0314917
0.0310984
0.0306777
0.0302346
0.0297937
0.0293819
0.0290183
0.0287126
0.0284664
0.0282772
0.0281408
0.0280549
0.028018
0.0280305
0.0280914
0.0281995
0.0283501
0.0285385
0.0287567