/*--------------------------------*- C++ -*----------------------------------*\
| =========                 |                                                 |
| \\      /  F ield         | OpenFOAM: The Open Source CFD Toolbox           |
|  \\    /   O peration     | Version:  2312                                  |
|   \\  /    A nd           | Website:  www.openfoam.com                      |
|    \\/     M anipulation  |                                                 |
\*---------------------------------------------------------------------------*/
FoamFile
{
    version     2.0;
    format      ascii;
    arch        "LSB;label=32;scalar=64";
    class       volScalarField;
    location    "27.5";
    object      p;
}
// * * * * * * * * * * * * * * * * * * * * * * * * * * * * * * * * * * * * * //

dimensions      [0 2 -2 0 0 0 0];

internalField   nonuniform List<scalar> 
5478
(
-0.264947
-0.263869
-0.261132
-0.257959
-0.255166
-0.253493
-0.253185
-0.254031
-0.255648
-0.257255
-0.259017
-0.259301
-0.259559
-0.256832
-0.25293
-0.267685
-0.266292
-0.263011
-0.259221
-0.255709
-0.25301
-0.251181
-0.24999
-0.248983
-0.247783
-0.245873
-0.242822
-0.23867
-0.232881
-0.227384
-0.273423
-0.27106
-0.267143
-0.262626
-0.258103
-0.25375
-0.249549
-0.245391
-0.241105
-0.236343
-0.231
-0.224932
-0.218553
-0.211887
-0.206024
-0.282571
-0.278505
-0.273451
-0.267715
-0.261388
-0.254403
-0.246975
-0.239349
-0.231554
-0.223732
-0.215918
-0.208295
-0.200874
-0.193454
-0.18685
-0.295408
-0.289062
-0.282196
-0.274403
-0.264982
-0.254239
-0.243003
-0.231858
-0.221184
-0.211113
-0.201634
-0.192692
-0.184066
-0.175919
-0.168568
-0.312517
-0.303055
-0.293818
-0.282426
-0.268186
-0.2527
-0.237448
-0.223161
-0.210034
-0.198048
-0.187082
-0.177005
-0.167634
-0.159067
-0.151092
-0.33434
-0.320297
-0.307548
-0.290218
-0.269529
-0.248765
-0.229579
-0.212373
-0.197091
-0.183524
-0.171436
-0.160584
-0.150722
-0.14183
-0.133406
-0.358769
-0.339728
-0.32042
-0.294707
-0.26681
-0.240859
-0.21805
-0.198328
-0.181271
-0.166459
-0.153531
-0.142195
-0.132245
-0.123543
-0.115497
-0.247698
-0.252078
-0.255819
-0.261125
-0.268176
-0.276707
-0.286505
-0.297381
-0.309159
-0.321659
-0.334645
-0.347807
-0.360908
-0.373986
-0.387102
-0.247677
-0.251552
-0.254955
-0.259797
-0.266188
-0.273818
-0.28242
-0.291749
-0.301579
-0.311719
-0.321959
-0.331961
-0.341385
-0.350301
-0.359847
-0.250975
-0.253811
-0.256622
-0.2608
-0.266372
-0.273011
-0.280427
-0.288363
-0.296579
-0.304869
-0.313102
-0.32112
-0.328569
-0.335617
-0.341194
-0.255742
-0.257236
-0.25924
-0.262549
-0.267123
-0.272659
-0.278868
-0.285506
-0.292379
-0.299259
-0.305904
-0.313224
-0.317753
-0.327781
-0.327941
-0.26004
-0.260238
-0.26128
-0.263444
-0.266735
-0.270938
-0.275807
-0.281125
-0.286749
-0.292759
-0.297732
-0.305562
-0.308077
-0.318231
-0.318843
-0.262818
-0.262077
-0.262067
-0.262818
-0.264481
-0.267062
-0.270446
-0.274474
-0.278909
-0.284539
-0.287954
-0.296788
-0.298257
-0.308252
-0.310651
-0.263993
-0.262822
-0.26177
-0.260942
-0.260781
-0.261569
-0.263399
-0.266247
-0.269718
-0.274778
-0.278527
-0.285908
-0.289363
-0.297166
-0.302286
-0.264253
-0.263076
-0.261103
-0.25884
-0.257047
-0.256315
-0.256954
-0.258972
-0.262001
-0.265676
-0.26947
-0.27329
-0.276771
-0.280808
-0.285314
-0.40235
-0.415594
-0.425359
-0.429092
-0.426481
-0.415964
-0.397383
-0.370884
-0.336254
-0.29594
-0.255915
-0.216098
-0.167377
-0.107871
-0.0488758
-0.00349557
0.0225194
0.0343354
0.0373862
0.0363666
0.0333789
0.0297356
0.0259202
0.0221395
0.0185652
0.0152996
0.0124865
0.0101263
0.00816161
0.00657958
0.0052984
0.00435291
0.00355715
0.00293699
0.00229546
0.00171199
0.00105748
0.000396861
-0.373191
-0.38338
-0.392475
-0.397265
-0.397824
-0.392699
-0.381385
-0.364489
-0.340625
-0.310207
-0.279611
-0.247019
-0.201768
-0.138155
-0.0745844
-0.0252743
0.00467027
0.0204307
0.0273133
0.0294062
0.0286363
0.0265043
0.02371
0.0206593
0.0176006
0.0146948
0.012129
0.0099144
0.00806594
0.00653968
0.00531667
0.00437518
0.00360227
0.00297691
0.00234346
0.00174886
0.0010862
0.000398461
-0.354722
-0.363296
-0.372774
-0.379402
-0.383251
-0.383556
-0.378809
-0.369758
-0.353518
-0.328265
-0.301928
-0.274028
-0.227884
-0.162405
-0.0969108
-0.0457455
-0.0126795
0.00681928
0.0172894
0.0223737
0.0239041
0.023324
0.0215397
0.0192105
0.0166358
0.014079
0.0117434
0.00968524
0.00794543
0.00648448
0.00531374
0.004381
0.00362933
0.00299848
0.00237756
0.00177401
0.00110946
0.000397816
-0.343514
-0.351664
-0.361406
-0.369778
-0.375964
-0.37986
-0.37966
-0.375296
-0.364805
-0.343256
-0.319497
-0.289845
-0.244084
-0.179984
-0.115583
-0.0642335
-0.028939
-0.00620038
0.00739751
0.0151216
0.0187763
0.0198493
0.0191511
0.0175969
0.0155679
0.0133954
0.0113128
0.00942992
0.00780327
0.00641834
0.00529349
0.00437805
0.00364301
0.00300982
0.00240101
0.00179095
0.0011278
0.000396099
-0.330312
-0.342355
-0.352946
-0.362368
-0.370337
-0.376483
-0.379266
-0.378196
-0.371191
-0.354636
-0.330101
-0.297656
-0.250757
-0.191713
-0.131701
-0.081311
-0.044419
-0.0189776
-0.00262147
0.00751865
0.0131722
0.0159114
0.0164441
0.0157376
0.0143187
0.0125844
0.0108022
0.00912038
0.0076261
0.00632856
0.00525413
0.00436453
0.00364477
0.00301411
0.00241579
0.00180246
0.0011418
0.000394646
-0.317003
-0.330005
-0.342769
-0.353275
-0.362185
-0.369456
-0.373375
-0.372321
-0.367224
-0.352659
-0.329084
-0.295952
-0.250296
-0.196366
-0.143797
-0.0963301
-0.0587409
-0.0311877
-0.0124299
-9.19884e-05
0.00741027
0.0116875
0.0135197
0.013746
0.012957
0.0116717
0.0102076
0.00874647
0.00740286
0.00620551
0.00519206
0.00433665
0.00363458
0.00301174
0.00242283
0.00181022
0.00115187
0.000394505
-0.306845
-0.317089
-0.330101
-0.341169
-0.350842
-0.359728
-0.365754
-0.36728
-0.361558
-0.347599
-0.324084
-0.290797
-0.247813
-0.198993
-0.152463
-0.108783
-0.0715855
-0.0425651
-0.0219396
-0.00767135
0.00148841
0.00719526
0.0102098
0.0114978
0.0114743
0.0107077
0.00957675
0.00834696
0.00715477
0.00606378
0.00511423
0.00429917
0.00361562
0.00300545
0.00242394
0.00181629
0.00115867
0.000397415
-0.292117
-0.300668
-0.310203
-0.319025
-0.327781
-0.335932
-0.341707
-0.343213
-0.339878
-0.329417
-0.310384
-0.282918
-0.247599
-0.206256
-0.164023
-0.123273
-0.0871308
-0.0565988
-0.0334427
-0.0166562
-0.0052598
0.00227047
0.00666788
0.00896431
0.0096921
0.00953029
0.00880342
0.00786354
0.00684857
0.00588856
0.00500942
0.00424844
0.00358467
0.00299558
0.00241871
0.00182229
0.00116207
0.000406005
-0.271139
-0.286616
-0.294542
-0.300804
-0.307324
-0.314307
-0.320415
-0.322654
-0.318164
-0.307861
-0.290121
-0.264644
-0.232649
-0.196069
-0.157986
-0.121013
-0.0877329
-0.0593805
-0.0371486
-0.0206348
-0.00897143
-0.000984995
0.00398258
0.00685181
0.00811034
0.00837583
0.00797984
0.00729967
0.00646866
0.0056492
0.0048543
0.00415912
0.00352855
0.00296852
0.0024029
0.00182054
0.00115956
0.000415633
-0.247419
-0.266548
-0.275824
-0.280496
-0.284975
-0.289788
-0.293407
-0.293779
-0.289826
-0.280065
-0.263954
-0.241627
-0.214177
-0.182907
-0.149912
-0.117541
-0.0878312
-0.0618601
-0.0407332
-0.0245683
-0.0127296
-0.00433311
0.00118933
0.00458598
0.00634759
0.00704036
0.00700999
0.00660874
0.00599286
0.00532747
0.0046453
0.00402564
0.00344543
0.0029159
0.00237183
0.00180157
0.00115018
0.000416935
-0.224123
-0.244486
-0.254723
-0.258764
-0.261514
-0.264111
-0.266161
-0.266451
-0.263054
-0.254666
-0.241094
-0.222391
-0.199158
-0.172439
-0.143863
-0.11525
-0.0882854
-0.0642063
-0.0440781
-0.0282632
-0.0163556
-0.00764699
-0.00165612
0.00223917
0.00449747
0.00562616
0.00596795
0.00585721
0.00546768
0.00496885
0.00440894
0.00387255
0.00334847
0.00285412
0.00233435
0.00177883
0.00113903
0.000416753
-0.202665
-0.221871
-0.232415
-0.23642
-0.238173
-0.239703
-0.241072
-0.240955
-0.237788
-0.230711
-0.219322
-0.203543
-0.183635
-0.16063
-0.135909
-0.110926
-0.0870672
-0.0653798
-0.0467318
-0.0316042
-0.0198486
-0.0109589
-0.00456528
-0.000196875
0.00254079
0.00410565
0.00482869
0.00502521
0.00487753
0.00456074
0.00413542
0.00369347
0.00323381
0.00278141
0.00228971
0.00175239
0.00112571
0.000414767
-0.181631
-0.1993
-0.209717
-0.2139
-0.215438
-0.21646
-0.217096
-0.216575
-0.213856
-0.208004
-0.198518
-0.185283
-0.168588
-0.149271
-0.128382
-0.106994
-0.0860898
-0.0665532
-0.0492218
-0.0347165
-0.0231217
-0.014101
-0.00737981
-0.00260372
0.000562911
0.00253737
0.00363069
0.00413569
0.00423601
0.00411103
0.00382947
0.00349003
0.00310135
0.00269649
0.00223695
0.00172065
0.00110902
0.000410577
-0.161342
-0.177486
-0.187453
-0.191818
-0.193406
-0.194111
-0.194353
-0.193809
-0.191462
-0.186663
-0.17889
-0.168022
-0.154274
-0.138226
-0.12062
-0.102195
-0.083823
-0.0663746
-0.0506023
-0.0370505
-0.0259162
-0.0170028
-0.0101222
-0.00502845
-0.00148034
0.000882659
0.00234288
0.00316363
0.00352392
0.00360507
0.00348138
0.00325631
0.0029475
0.00259629
0.00217335
0.00168168
0.00108924
0.000404701
-0.142476
-0.156902
-0.166196
-0.170584
-0.172232
-0.172859
-0.173
-0.172425
-0.170516
-0.166685
-0.160469
-0.151704
-0.140521
-0.127289
-0.112508
-0.0968346
-0.0810216
-0.0657768
-0.0516711
-0.0391501
-0.0285165
-0.0197532
-0.0127661
-0.00740313
-0.00350962
-0.000785533
0.00102403
0.00215229
0.00277096
0.00306081
0.00310038
0.00299661
0.00277532
0.0024838
0.00210176
0.00163629
0.00106421
0.000396577
-0.124944
-0.137644
-0.146139
-0.15041
-0.152136
-0.152809
-0.152965
-0.152507
-0.151046
-0.148097
-0.143236
-0.136284
-0.127294
-0.116498
-0.104283
-0.0911944
-0.0777824
-0.0645298
-0.051926
-0.0404311
-0.03042
-0.0219813
-0.0150709
-0.0095862
-0.00544952
-0.00242842
-0.000307137
0.00111034
0.00198129
0.00248106
0.00268728
0.00270814
0.00257871
0.00235274
0.00201787
0.00158476
0.00103818
0.000386571
-0.108653
-0.119775
-0.127436
-0.131506
-0.133288
-0.134044
-0.134307
-0.134068
-0.13305
-0.130872
-0.127165
-0.121752
-0.114637
-0.105982
-0.09607
-0.0852654
-0.0739616
-0.0625497
-0.0514796
-0.0411487
-0.0319015
-0.0238992
-0.0171667
-0.0116476
-0.00733109
-0.00405804
-0.00165444
3.57019e-05
0.00115397
0.00186617
0.00224653
0.00239917
0.00236658
0.00220746
0.00192069
0.00152074
0.00100249
0.000376601
-0.0937175
-0.103372
-0.110206
-0.114025
-0.115828
-0.116686
-0.117106
-0.117119
-0.116549
-0.114996
-0.112258
-0.108148
-0.102639
-0.0958267
-0.0878896
-0.0790587
-0.069653
-0.0599884
-0.0504236
-0.0412726
-0.0328374
-0.0253369
-0.0188649
-0.0134076
-0.00900233
-0.00555248
-0.00292554
-0.00100757
0.000330037
0.00124053
0.00178793
0.00207145
0.00214059
0.00205679
0.0018238
0.00145764
0.000965881
0.00035786
-0.080041
-0.0883587
-0.0944042
-0.0979488
-0.0997578
-0.100711
-0.101265
-0.101491
-0.10126
-0.100315
-0.0984376
-0.0954456
-0.0912976
-0.0860419
-0.0797852
-0.0726809
-0.0649814
-0.056914
-0.0487561
-0.0407644
-0.0331947
-0.0262832
-0.0201705
-0.0148748
-0.0104703
-0.00691241
-0.00411011
-0.00200225
-0.000475805
0.000613906
0.00131956
0.00172529
0.00188999
0.00187839
0.00170239
0.00138619
0.000933666
0.000356482
-0.0676143
-0.074763
-0.0800934
-0.0833644
-0.0851554
-0.0861985
-0.0869124
-0.0873699
-0.0874441
-0.0869934
-0.0857877
-0.0837047
-0.0806742
-0.0767084
-0.0718796
-0.0662727
-0.0600638
-0.0534149
-0.0465471
-0.03967
-0.032986
-0.0267185
-0.0210361
-0.0159852
-0.0116702
-0.00808448
-0.00516612
-0.00291028
-0.00122585
2.41232e-05
0.000876902
0.00140077
0.00165611
0.0017147
0.00158287
0.00128632
0.000860362
0.000314863
-0.056196
-0.0623338
-0.0670267
-0.0700439
-0.0718172
-0.0729281
-0.0737362
-0.0743462
-0.074712
-0.0747102
-0.0740943
-0.0727834
-0.0706975
-0.0678277
-0.064213
-0.0598822
-0.0549623
-0.0495682
-0.0438715
-0.0380397
-0.0322284
-0.0266328
-0.0214324
-0.0166912
-0.0125438
-0.00901425
-0.00604864
-0.00370064
-0.00190918
-0.000536073
0.00044555
0.00107638
0.0014214
0.00155397
0.00149216
0.00126464
0.000878825
0.000340859
-0.0460648
-0.051311
-0.0554393
-0.0582257
-0.0599907
-0.0612037
-0.0621706
-0.0629825
-0.063562
-0.0637876
-0.0636111
-0.0628914
-0.0615619
-0.0595629
-0.0569248
-0.0536553
-0.0498379
-0.0455359
-0.0408741
-0.0359888
-0.0310013
-0.026074
-0.0213816
-0.0169924
-0.0130624
-0.00964609
-0.00669059
-0.00429622
-0.0024449
-0.000996815
7.00315e-05
0.000771741
0.00116673
0.00133933
0.00129804
0.00107019
0.000717416
0.000258721
-0.0365569
-0.0410857
-0.0447253
-0.047278
-0.0489836
-0.0502187
-0.051252
-0.0521796
-0.0529779
-0.053564
-0.0537698
-0.0536447
-0.0529742
-0.0517238
-0.0499179
-0.0475398
-0.0446534
-0.0412928
-0.037544
-0.033514
-0.0292946
-0.0250171
-0.0208505
-0.0168553
-0.0131961
-0.00995958
-0.00707761
-0.00468501
-0.00280629
-0.0013074
-0.000159341
0.000621631
0.00108637
0.00132586
0.00134787
0.00118773
0.000854907
0.000332673
-0.0285057
-0.0324015
-0.035658
-0.0380781
-0.039828
-0.0411934
-0.0423814
-0.0434819
-0.0444735
-0.0452499
-0.0457507
-0.0458546
-0.045579
-0.0448642
-0.043673
-0.041977
-0.0398224
-0.0372205
-0.0342262
-0.030919
-0.0273667
-0.0236715
-0.0199934
-0.0163818
-0.0130035
-0.00997751
-0.00722939
-0.00490238
-0.00307092
-0.00160825
-0.000465042
0.000311858
0.000769198
0.000999112
0.00101528
0.000845673
0.000560671
0.000196506
-0.0202516
-0.0236321
-0.0265107
-0.0287314
-0.0304242
-0.0318217
-0.033104
-0.0343314
-0.0354782
-0.0365124
-0.0373781
-0.0378608
-0.0381337
-0.0379456
-0.0373265
-0.0362462
-0.0347368
-0.0327985
-0.0304647
-0.027795
-0.0248403
-0.021681
-0.0184712
-0.0152479
-0.0121726
-0.00938547
-0.00680592
-0.00457336
-0.00280015
-0.00137759
-0.000237484
0.000555797
0.00103341
0.00128614
0.00132469
0.00118167
0.00086146
0.000331691
-0.0143393
-0.0172918
-0.0199324
-0.0221005
-0.0238664
-0.025387
-0.0267904
-0.0281476
-0.0294624
-0.0306543
-0.0316203
-0.0323616
-0.0328061
-0.0329249
-0.0326998
-0.0320483
-0.0309888
-0.0295172
-0.0276486
-0.0254295
-0.0228992
-0.0201236
-0.0172534
-0.0143249
-0.0114934
-0.0089272
-0.00654021
-0.00445636
-0.00281765
-0.00152776
-0.000487278
0.000219658
0.000630867
0.000829712
0.000834244
0.000686496
0.000443144
0.000145847
-0.00685979
-0.00940872
-0.0117512
-0.0137656
-0.0155115
-0.0171066
-0.0186464
-0.0201545
-0.0216064
-0.0229727
-0.0242411
-0.0253463
-0.0261077
-0.0266892
-0.0268796
-0.0266324
-0.0259847
-0.02493
-0.0234708
-0.021653
-0.0195071
-0.0170906
-0.0145531
-0.0119311
-0.00938214
-0.00707072
-0.00493541
-0.00305272
-0.0015939
-0.000471625
0.000440084
0.0010378
0.00137653
0.00150022
0.00145305
0.00125692
0.000883388
0.000330387
-0.00316033
-0.00541066
-0.00756104
-0.00950682
-0.0112615
-0.0128969
-0.0144902
-0.0160822
-0.0176871
-0.0192515
-0.0207
-0.0219595
-0.0230608
-0.0238289
-0.0242017
-0.0242472
-0.0239238
-0.0231926
-0.0220194
-0.0204377
-0.0184563
-0.0161406
-0.0136419
-0.0110611
-0.00856318
-0.00634756
-0.00436768
-0.00266128
-0.00139777
-0.000464907
0.000263581
0.000717522
0.000949646
0.000982444
0.000885399
0.000685933
0.000421444
0.000133003
0.00308133
0.00116556
-0.000771205
-0.00261975
-0.00437826
-0.00608012
-0.00777173
-0.00946443
-0.011146
-0.012774
-0.0143383
-0.0157849
-0.0170817
-0.0180691
-0.0188034
-0.019172
-0.0190891
-0.0185464
-0.0174977
-0.0159996
-0.0140637
-0.0118081
-0.00939315
-0.00697912
-0.00472859
-0.00283097
-0.00125473
6.33744e-05
0.000926362
0.0014938
0.00189168
0.00206558
0.00209099
0.00192545
0.00170061
0.00136581
0.000885654
0.000319281
0.00465307
0.00303822
0.00140261
-0.000220698
-0.00183147
-0.00343333
-0.00505444
-0.00669168
-0.00835992
-0.0100307
-0.0116856
-0.0132388
-0.0146677
-0.015923
-0.0169791
-0.0176601
-0.0180117
-0.0179301
-0.0173459
-0.0162423
-0.0144604
-0.0120603
-0.00918922
-0.00627387
-0.00368118
-0.0017022
-0.000258453
0.000802392
0.00138424
0.00170587
0.00186726
0.00188552
0.00178104
0.00152868
0.00126186
0.000907682
0.000536935
0.000176727
0.00784436
0.00634704
0.00475644
0.00312247
0.00146456
-0.000202859
-0.00189004
-0.00358977
-0.00530013
-0.0069894
-0.00864422
-0.0102502
-0.0117613
-0.0131101
-0.0141911
-0.0149301
-0.0151287
-0.0147973
-0.0137576
-0.0119998
-0.00945833
-0.00637565
-0.00309489
-0.000181608
0.00202064
0.00335001
0.00396184
0.00419512
0.0040314
0.00374894
0.00338434
0.00302321
0.00265468
0.00219401
0.00181326
0.00134103
0.000824077
0.000285202
-0.108188
-0.125434
-0.143211
-0.161594
-0.1808
-0.201442
-0.222779
-0.246874
-0.101489
-0.117437
-0.13362
-0.15081
-0.168306
-0.187126
-0.204336
-0.224011
-0.0941251
-0.107935
-0.121444
-0.135976
-0.150104
-0.16561
-0.180631
-0.199388
-0.0867162
-0.0985369
-0.109882
-0.122276
-0.134729
-0.148734
-0.163663
-0.180942
-0.0792448
-0.0895094
-0.0995692
-0.110641
-0.122322
-0.134999
-0.148305
-0.162818
-0.0722494
-0.0812171
-0.0901837
-0.0998081
-0.109978
-0.120541
-0.13173
-0.144441
-0.06541
-0.073078
-0.0807999
-0.0888998
-0.0975299
-0.106566
-0.116453
-0.127754
-0.0587061
-0.0651472
-0.0717084
-0.0786297
-0.0861447
-0.0940766
-0.102681
-0.112359
-0.0521416
-0.0575463
-0.0631215
-0.0690686
-0.0755362
-0.0823098
-0.0895847
-0.0978406
-0.0457016
-0.0502326
-0.0549153
-0.0599425
-0.0654116
-0.0711676
-0.0773763
-0.0844768
-0.0392902
-0.0430956
-0.0470262
-0.0512679
-0.0559078
-0.0608329
-0.0661386
-0.0721984
-0.0329955
-0.0362002
-0.0395187
-0.0431303
-0.0470865
-0.0512975
-0.0558111
-0.0609688
-0.0267704
-0.0294951
-0.0322869
-0.0353372
-0.0386866
-0.0422699
-0.0461189
-0.0505356
-0.0207685
-0.0231589
-0.0256017
-0.0282495
-0.0311338
-0.0342208
-0.0375236
-0.0412909
-0.0146061
-0.0166995
-0.0187949
-0.0210605
-0.0235424
-0.0262289
-0.0291197
-0.032421
-0.00923573
-0.0111332
-0.0130664
-0.0151295
-0.0173415
-0.0196982
-0.0221977
-0.0250132
-0.00296722
-0.00479002
-0.00657163
-0.00839902
-0.0103355
-0.0124192
-0.0146572
-0.0171807
0.00143191
-0.000182346
-0.00186103
-0.00363875
-0.00549851
-0.00744211
-0.00947081
-0.0116924
0.007526
0.00578829
0.00409084
0.00243817
0.000800717
-0.00087851
-0.00263778
-0.00457233
0.0106026
0.00911337
0.0075601
0.00594196
0.00427541
0.00255832
0.00078692
-0.0010832
0.0156634
0.0139872
0.0123351
0.0107501
0.00924003
0.00777412
0.0063106
0.00478424
0.0168068
0.0153599
0.0138759
0.0123527
0.0108153
0.00928096
0.00775537
0.00622148
0.01934
0.0178315
0.0163429
0.0148785
0.013439
0.0120289
0.010642
0.00925843
0.0637768
0.0675449
0.0704957
0.0721753
0.0721664
0.0704359
0.0668044
0.0606851
0.0511217
0.0368035
0.0159538
-0.013715
-0.0558454
-0.114011
-0.16124
0.0424672
0.0437453
0.0429877
0.0409373
0.037571
0.0325169
0.0252363
0.0149696
0.000702807
-0.0189105
-0.0457556
-0.0821972
-0.130721
-0.197174
-0.243044
0.0206712
0.0192994
0.0152349
0.0101347
0.00400225
-0.00388719
-0.0142843
-0.0280152
-0.0461139
-0.0699155
-0.10135
-0.143137
-0.196899
-0.264037
-0.308216
-0.00277377
-0.00666332
-0.0128223
-0.0197883
-0.0279171
-0.0380717
-0.0509387
-0.0673236
-0.0882575
-0.115057
-0.149472
-0.194506
-0.250407
-0.314737
-0.3554
-0.0270634
-0.0331318
-0.0403586
-0.0483007
-0.0578024
-0.0696149
-0.0842025
-0.102339
-0.124997
-0.153479
-0.189519
-0.235052
-0.289947
-0.348945
-0.384458
-0.0512737
-0.0587132
-0.066296
-0.0749263
-0.0854134
-0.098251
-0.113876
-0.132922
-0.156258
-0.185058
-0.22078
-0.264593
-0.315622
-0.366502
-0.396772
-0.0752276
-0.0822297
-0.0900986
-0.0993733
-0.110519
-0.123864
-0.139808
-0.158894
-0.181862
-0.209679
-0.243416
-0.283549
-0.327951
-0.368447
-0.394647
-0.0964096
-0.103764
-0.112028
-0.121742
-0.133146
-0.146489
-0.162119
-0.180497
-0.202211
-0.227972
-0.258398
-0.293131
-0.328643
-0.357903
-0.380827
0.194274
0.209301
0.225932
0.244296
0.264379
0.286114
0.309448
0.334337
0.360674
0.388188
0.416303
0.443946
0.469261
0.48882
0.505052
0.190578
0.204412
0.219962
0.237372
0.256459
0.27702
0.298951
0.322197
0.346635
0.371937
0.397447
0.421993
0.443578
0.458885
0.471047
0.183031
0.194935
0.208886
0.224904
0.2425
0.261253
0.280979
0.301593
0.322932
0.344595
0.365808
0.38525
0.400682
0.408935
0.414667
0.171618
0.181151
0.19319
0.207419
0.222978
0.23928
0.256086
0.273267
0.290569
0.307453
0.322977
0.335626
0.342849
0.341472
0.339044
0.156393
0.16341
0.173507
0.185779
0.19888
0.212111
0.225274
0.238246
0.250687
0.261889
0.270695
0.275361
0.27302
0.260364
0.247892
0.137732
0.142061
0.150185
0.160382
0.170802
0.180666
0.189809
0.198101
0.205107
0.209967
0.211325
0.207204
0.194426
0.169609
0.146047
0.116088
0.118309
0.124676
0.132379
0.139565
0.145655
0.150553
0.154017
0.15542
0.153722
0.147396
0.13427
0.110889
0.0739502
0.0397583
0.0909895
0.0925511
0.0979495
0.103023
0.106602
0.108626
0.109119
0.107681
0.103471
0.0952738
0.0814221
0.0595901
0.0261194
-0.0221468
-0.064896
0.0263422
0.0287223
0.0283058
0.0299657
0.0305516
0.0332112
0.0349929
0.0382969
0.0413436
0.0457218
0.0502046
0.0558775
0.0620585
0.0693807
0.0774623
0.0866634
0.0967181
0.107918
0.120021
0.133282
0.147441
0.162685
0.178735
0.0286774
0.0311022
0.0304734
0.0321572
0.0325624
0.0352374
0.0368214
0.0400845
0.042975
0.0472649
0.0516052
0.0571625
0.0631995
0.0703832
0.0783118
0.0873304
0.0971562
0.10809
0.119803
0.132657
0.146254
0.160942
0.176177
0.0310118
0.0334317
0.0326366
0.0342917
0.0345545
0.037208
0.0386114
0.0418288
0.0445552
0.048763
0.052945
0.0583857
0.0642527
0.0712831
0.0790117
0.0877851
0.0972005
0.107676
0.118703
0.130848
0.143452
0.157083
0.170733
0.0333447
0.0357086
0.0347932
0.0363651
0.0365247
0.0391117
0.0403593
0.0435101
0.0460831
0.0501893
0.0542034
0.0594942
0.0651761
0.0720456
0.0795595
0.0880686
0.0969217
0.106838
0.11694
0.128087
0.139158
0.151097
0.162247
0.0356731
0.0379348
0.0369353
0.0383772
0.0384665
0.0409369
0.0420573
0.0451125
0.0475371
0.051525
0.0553658
0.0604913
0.0659783
0.0725739
0.0797151
0.0877121
0.0957689
0.104812
0.113683
0.123508
0.132636
0.142471
0.150435
0.0379914
0.040115
0.0390552
0.0403336
0.0403657
0.0426771
0.0436915
0.0466222
0.0489068
0.0527678
0.0564317
0.0613837
0.0667825
0.0732579
0.0799654
0.0875517
0.0947872
0.103019
0.110345
0.118505
0.12491
0.131888
0.13574
0.0402931
0.042253
0.0411478
0.0422362
0.0422156
0.0443246
0.0452551
0.0480223
0.0501815
0.0538807
0.0573549
0.0620977
0.0672059
0.0732214
0.0792976
0.0860133
0.0922377
0.0991115
0.104873
0.111021
0.114803
0.118677
0.117904
0.042571
0.0443552
0.043204
0.0440773
0.0440018
0.0458697
0.0467303
0.0493381
0.0514123
0.0549958
0.0583603
0.0630245
0.0680616
0.0738943
0.0794288
0.085659
0.0908178
0.0965865
0.100005
0.103748
0.103322
0.103299
0.0967877
0.04477
0.0463985
0.045221
0.0458779
0.0457447
0.0473409
0.0481258
0.050465
0.0524382
0.0557284
0.0588989
0.0632359
0.0676494
0.0727356
0.0773556
0.0823032
0.0862183
0.089903
0.0917566
0.0924794
0.09009
0.0849763
0.0740332
0.0470107
0.0485032
0.0472952
0.0477569
0.047538
0.0488619
0.0495198
0.0515577
0.0533228
0.056205
0.0589868
0.0627063
0.0663516
0.0705005
0.0741709
0.0777718
0.080471
0.0822899
0.0826175
0.0809189
0.07698
0.0699217
0.0609546
0.0494696
0.0508013
0.0495638
0.0498008
0.0494781
0.0504745
0.0509721
0.0526216
0.0541174
0.0564751
0.0588086
0.0617869
0.0647363
0.0678256
0.0705696
0.0727819
0.0742595
0.0744112
0.0732665
0.0700165
0.0650779
0.058128
0.0501216
0.0521788
0.0532979
0.0520521
0.0520135
0.0515917
0.0521891
0.0525077
0.0536983
0.0549028
0.0566731
0.0585359
0.0607338
0.0629674
0.0649946
0.066745
0.0676825
0.0679064
0.0667162
0.0642947
0.0601617
0.0546874
0.047919
0.0403631
0.0551719
0.0560064
0.05478
0.0544148
0.0538837
0.0540288
0.0541262
0.0548311
0.0556944
0.0568484
0.0581757
0.0595827
0.0610307
0.0620402
0.0627315
0.0625436
0.0615859
0.0593515
0.0559749
0.051306
0.0455542
0.0388938
0.0317007
0.0584835
0.0589519
0.0577599
0.0570441
0.0563525
0.056025
0.0558327
0.0560448
0.0564869
0.0570102
0.0577109
0.0583338
0.0589339
0.0589901
0.0586427
0.0574636
0.0555028
0.0524731
0.0484526
0.0434253
0.0375583
0.0310361
0.0241693
0.0621491
0.0621781
0.0610001
0.0599424
0.0590115
0.0582004
0.0576419
0.0573491
0.0572784
0.0571594
0.0571658
0.0570188
0.0567601
0.0559328
0.05464
0.0526003
0.0498503
0.0462255
0.0417901
0.0365643
0.0307079
0.0243706
0.0177893
0.0662039
0.0657487
0.0645158
0.0631423
0.0618923
0.0605723
0.0595703
0.0587545
0.0580921
0.0573155
0.0566066
0.0557066
0.0546201
0.05298
0.0508679
0.0481141
0.0447681
0.0407203
0.0360409
0.0307659
0.0250317
0.0189338
0.0126033
0.070687
0.0697328
0.0683456
0.0666743
0.0650341
0.0631575
0.0616437
0.0602908
0.0589807
0.0575193
0.0560988
0.0544753
0.0526139
0.0502348
0.0474395
0.0441394
0.040377
0.0360681
0.0312812
0.026065
0.020526
0.0147129
0.00865923
0.0756459
0.0742113
0.0725516
0.0705738
0.0684852
0.0659866
0.063889
0.0619859
0.0600007
0.057827
0.0557133
0.0534302
0.0508736
0.0478427
0.0444918
0.0407932
0.0367645
0.0323228
0.0275257
0.0224332
0.0171345
0.0116409
0.00591364
0.0811469
0.0792759
0.077215
0.0748817
0.0723
0.069117
0.0663526
0.0638714
0.0612091
0.0583037
0.0555128
0.0526487
0.0495206
0.0459634
0.042174
0.0381895
0.0340065
0.0295273
0.0247877
0.0198641
0.0148406
0.00970315
0.00434967
0.0872844
0.0850341
0.0824438
0.0796531
0.0765132
0.0725994
0.0690975
0.0660188
0.0627132
0.0590874
0.0556212
0.0522278
0.0486348
0.04466
0.0405262
0.0363504
0.0321191
0.0277011
0.0230935
0.0183842
0.0136682
0.0089253
0.00400857
0.094193
0.0916025
0.0883732
0.0849786
0.0811927
0.0765016
0.0721861
0.0684624
0.0645603
0.0602738
0.0561675
0.0522946
0.0483322
0.044033
0.0396283
0.0353207
0.0311122
0.0268278
0.0224079
0.0179333
0.0135173
0.00914926
0.00467335
0.102063
0.0991373
0.0951534
0.0909641
0.0864076
0.0809118
0.0757374
0.0713072
0.0668152
0.0619273
0.0572292
0.0529255
0.0486685
0.0441356
0.0395323
0.0351398
0.0309904
0.026883
0.022696
0.0184869
0.0143762
0.0103602
0.00624629
0.111154
0.10784
0.102983
0.0977717
0.0922566
0.0858876
0.0798151
0.0746206
0.0695459
0.0641408
0.0589391
0.054259
0.049778
0.0451014
0.0403786
0.035936
0.0318573
0.0279347
0.0239978
0.0200688
0.0162757
0.0126477
0.00902072
0.121849
0.117982
0.112038
0.105557
0.0989154
0.0915863
0.0845509
0.0784912
0.0727405
0.066772
0.0610445
0.0559531
0.0512276
0.0464208
0.0416108
0.037128
0.0330996
0.0293258
0.0255901
0.0218653
0.0182634
0.0148309
0.0114301
0.134744
0.129954
0.122478
0.114442
0.10656
0.0983613
0.0905187
0.0836906
0.0773109
0.0708403
0.0646499
0.0591751
0.0542089
0.0492923
0.0444342
0.0399411
0.0359753
0.0323664
0.0288777
0.0254385
0.0221336
0.0190261
0.0160038
0.150823
0.144474
0.134449
0.123897
0.114048
0.104477
0.0955396
0.0877883
0.080709
0.0737262
0.0670992
0.0612409
0.056021
0.0509808
0.0460704
0.0415564
0.0376159
0.0341054
0.0307743
0.0275119
0.0243783
0.0214505
0.018663
0.171177
0.162718
0.150333
0.13767
0.126016
0.115041
0.1049
0.096042
0.0880434
0.0803514
0.0731332
0.0667682
0.0611876
0.05596
0.0509653
0.0464054
0.042448
0.038981
0.0357573
0.0326355
0.0296366
0.0268398
0.0242106
0.19715
0.180785
0.162345
0.14618
0.13237
0.120015
0.108935
0.0993304
0.0907527
0.0826176
0.0750072
0.0682473
0.0623854
0.0570457
0.0520462
0.0475182
0.0436026
0.0402143
0.0371222
0.0341736
0.0313671
0.0287849
0.0264301
0.242809
0.215652
0.189313
0.167815
0.150343
0.135295
0.122008
0.11044
0.100293
0.0910257
0.0825691
0.0751099
0.0687243
0.0631191
0.0580225
0.053399
0.0493058
0.0457168
0.0424814
0.0394677
0.0366367
0.0340339
0.0316719
0.277317
0.229667
0.19579
0.172915
0.154404
0.138349
0.124246
0.111892
0.101248
0.0917885
0.0832439
0.075679
0.0691917
0.0636
0.0585952
0.0540248
0.0498921
0.0462372
0.0430063
0.0400966
0.0374324
0.0350094
0.0328426
0.435276
0.282267
0.230256
0.199484
0.173713
0.152113
0.134159
0.1192
0.107001
0.0968319
0.0879994
0.0801817
0.0733592
0.0674874
0.0623353
0.0576477
0.0533036
0.0493503
0.0458662
0.0428511
0.040218
0.0378639
0.0357267
0.0590406
0.0388228
0.0171451
-0.00437642
-0.0266723
-0.0491786
-0.0707023
-0.0902705
0.0507057
0.0309112
0.00822245
-0.012193
-0.0315586
-0.0506888
-0.0685714
-0.0853574
0.0418607
0.0250322
0.00371656
-0.0156626
-0.0323572
-0.0484162
-0.0642868
-0.0797085
0.032956
0.0183864
-0.0013424
-0.0197692
-0.0347826
-0.0482929
-0.0613698
-0.0743869
0.0248304
0.0123273
-0.00511757
-0.0219366
-0.0351638
-0.0464332
-0.0573773
-0.0685725
0.0176344
0.00677005
-0.00841529
-0.0234027
-0.0351178
-0.0446571
-0.0537475
-0.0630815
0.0114794
0.00196728
-0.0109762
-0.0238489
-0.0339736
-0.0420564
-0.0497115
-0.0575769
0.00638637
-0.00210254
-0.0129226
-0.023462
-0.0319847
-0.0389288
-0.0454836
-0.0521091
0.00252087
-0.00524356
-0.0140471
-0.0223344
-0.0293262
-0.0352934
-0.0409384
-0.0465883
-3.19082e-05
-0.00706108
-0.0141599
-0.020583
-0.026251
-0.0313943
-0.03634
-0.0410496
-0.00131741
-0.00763261
-0.0133406
-0.0182698
-0.0227743
-0.0270968
-0.0313138
-0.0353701
-0.00127299
-0.00691699
-0.0115656
-0.0153773
-0.0189527
-0.0225592
-0.0261802
-0.0296706
-0.000139856
-0.00510869
-0.00893622
-0.0119306
-0.0147821
-0.0177857
-0.020881
-0.0239029
0.00173679
-0.00277918
-0.00600594
-0.00837104
-0.0106341
-0.0131088
-0.0157158
-0.0182914
0.00508655
0.00113009
-0.00172371
-0.00376841
-0.00566953
-0.00777923
-0.0100714
-0.0123896
0.00776611
0.00418782
0.00169117
-3.42574e-05
-0.00161021
-0.00337064
-0.00531056
-0.00730003
0.0127749
0.00955322
0.007165
0.00546774
0.00399694
0.00242568
0.000703237
-0.00111578
0.0157639
0.0129025
0.0107168
0.00910781
0.00770296
0.00623048
0.00465467
0.00303277
0.0215258
0.0188441
0.0166478
0.0149458
0.0135363
0.0121885
0.0107675
0.00921434
0.0241248
0.0218089
0.0197514
0.0179884
0.0164271
0.0149536
0.0135048
0.0120505
0.0294068
0.0271647
0.0251143
0.0232991
0.0216933
0.0202147
0.0187743
0.0172844
0.0308251
0.0288294
0.0268803
0.0249872
0.0231661
0.0214352
0.0198036
0.0182612
0.0336727
0.0316167
0.0296235
0.0277168
0.0258934
0.0241498
0.0224793
0.0208821
-0.292909
-0.299334
-0.30955
-0.323521
-0.341688
-0.364551
-0.389838
-0.41251
-0.290977
-0.296807
-0.305491
-0.317191
-0.332153
-0.350295
-0.370569
-0.389343
-0.287106
-0.29256
-0.300295
-0.310215
-0.322778
-0.337397
-0.351143
-0.359965
-0.282844
-0.28775
-0.294363
-0.302249
-0.311238
-0.319972
-0.325476
-0.324565
-0.279619
-0.283379
-0.288112
-0.292907
-0.297133
-0.299492
-0.297912
-0.290187
-0.278334
-0.280065
-0.281948
-0.282914
-0.282338
-0.279372
-0.272563
-0.260256
-0.27933
-0.27812
-0.276398
-0.273232
-0.268357
-0.261196
-0.250585
-0.235135
-0.2824
-0.277489
-0.271606
-0.264321
-0.255738
-0.245269
-0.231834
-0.214182
-0.286916
-0.277665
-0.26734
-0.25622
-0.244531
-0.231392
-0.215841
-0.196631
-0.291924
-0.277966
-0.263192
-0.248864
-0.234515
-0.21928
-0.202116