/*--------------------------------*- C++ -*----------------------------------*\
| =========                 |                                                 |
| \\      /  F ield         | OpenFOAM: The Open Source CFD Toolbox           |
|  \\    /   O peration     | Version:  2512                                  |
|   \\  /    A nd           | Website:  www.openfoam.com                      |
|    \\/     M anipulation  |                                                 |
\*---------------------------------------------------------------------------*/
FoamFile
{
    version     2.0;
    format      ascii;
    arch        "LSB;label=32;scalar=64";
    class       volVectorField;
    location    "165.05";
    object      U;
}
// * * * * * * * * * * * * * * * * * * * * * * * * * * * * * * * * * * * * * //

dimensions      [0 1 -1 0 0 0 0];

internalField   nonuniform List<vector> 
13248
(
(-0.0275237 0.0217536 6.14027e-20)
(-0.054058 0.0411804 0)
(-0.0551696 0.0462231 -1.05635e-19)
(-0.0275379 0.0436874 9.78106e-20)
(0.0328622 0.0362167 9.01164e-20)
(0.129705 0.0249751 0)
(0.264204 0.0110844 0)
(0.432045 -0.00415618 2.07805e-19)
(0.621959 -0.0195453 -6.12215e-22)
(0.817341 -0.0343296 -1.77639e-19)
(1.00012 -0.0483517 1.63356e-19)
(1.15494 -0.0619258 -1.01276e-19)
(1.27214 -0.0755164 0)
(1.34913 -0.0894255 -1.66991e-19)
(1.38995 -0.103625 3.06435e-19)
(1.40322 -0.117853 -7.35143e-20)
(1.39891 -0.131739 -1.2093e-19)
(1.3852 -0.144926 1.12756e-19)
(1.36685 -0.157049 0)
(1.34581 -0.168283 0)
(1.32294 -0.176259 0)
(1.29685 -0.189098 0)
(1.2732 -0.185084 2.6827e-20)
(1.238 -0.215439 8.78572e-20)
(-0.0314672 0.0232739 -1.85111e-19)
(-0.0525916 0.0404476 1.1677e-19)
(-0.0369241 0.0412349 -7.28918e-22)
(0.0174819 0.0334371 -1.49355e-19)
(0.11413 0.0211116 -8.99848e-20)
(0.254481 0.00687026 -8.42241e-20)
(0.43346 -0.00715155 -1.52304e-19)
(0.636785 -0.0194067 1.4244e-19)
(0.843387 -0.0293247 0)
(1.03156 -0.0373711 7.65848e-22)
(1.18485 -0.0446535 1.39469e-21)
(1.29523 -0.0523228 9.97067e-20)
(1.36343 -0.0611039 0)
(1.39681 -0.0711299 0)
(1.40581 -0.0820819 1.07009e-19)
(1.40032 -0.0934428 -1.99785e-19)
(1.38727 -0.104661 1.13036e-19)
(1.3703 -0.11538 -1.05395e-19)
(1.35106 -0.125208 -4.39884e-20)
(1.33036 -0.134049 -7.70467e-20)
(1.30853 -0.141919 -2.88538e-20)
(1.28692 -0.148233 -5.32545e-20)
(1.26387 -0.15131 8.13993e-20)
(1.24125 -0.16077 2.16282e-20)
(-0.0328837 0.022341 0)
(-0.0435857 0.0356581 0)
(-0.00460816 0.0328967 5.38404e-20)
(0.084534 0.0219433 4.90822e-20)
(0.225086 0.00810709 -8.786e-22)
(0.411945 -0.00478375 -8.71477e-20)
(0.628329 -0.0143483 0)
(0.848073 -0.0200797 -7.07062e-20)
(1.0447 -0.0231275 6.50034e-20)
(1.19992 -0.0254085 -2.63505e-22)
(1.30709 -0.0286317 -1.06713e-19)
(1.37005 -0.0337143 -9.47078e-20)
(1.39901 -0.0407185 3.15861e-21)
(1.40578 -0.0491565 -7.28786e-20)
(1.40001 -0.0583754 1.77003e-19)
(1.38784 -0.0678043 0)
(1.37239 -0.077059 -1.06666e-19)
(1.35516 -0.0859201 5.22915e-20)
(1.33696 -0.0940056 4.3944e-20)
(1.318 -0.101829 0)
(1.29912 -0.107198 3.36774e-20)
(1.27878 -0.114575 -1.09403e-19)
(1.25961 -0.114713 1.02167e-19)
(1.23755 -0.12569 5.84738e-20)
(-0.0313269 0.0193023 -6.49587e-20)
(-0.0254435 0.0269431 -6.20459e-20)
(0.0441217 0.0211198 5.55094e-20)
(0.175656 0.00951334 0)
(0.364452 -0.00162152 0)
(0.59259 -0.0082999 -1.7394e-21)
(0.828505 -0.00977188 0)
(1.03916 -0.0079482 -2.14062e-19)
(1.20268 -0.00565698 1.94923e-19)
(1.31277 -0.00511277 -2.35964e-19)
(1.37563 -0.00727087 5.2934e-20)
(1.40378 -0.0119845 0)
(1.41007 -0.0185477 8.20394e-20)
(1.40424 -0.026196 -1.49343e-19)
(1.39225 -0.0343513 3.542e-20)
(1.37721 -0.0426398 8.59069e-20)
(1.36071 -0.0508213 -5.58383e-21)
(1.34351 -0.0586101 -9.22173e-20)
(1.32583 -0.066017 0)
(1.30801 -0.0723991 0)
(1.28968 -0.0783574 -3.02224e-20)
(1.27163 -0.0834952 2.63343e-20)
(1.25363 -0.0852655 9.00656e-20)
(1.23494 -0.0948746 -8.40963e-20)
(-0.0263684 0.0148472 -6.81227e-20)
(0.00367387 0.0157791 -6.31954e-20)
(0.111962 0.00820158 1.74382e-19)
(0.292105 -0.000493951 -1.05093e-19)
(0.527015 -0.00411247 9.73413e-20)
(0.780795 -0.000911707 1.74822e-19)
(1.01161 0.00642238 -1.21348e-19)
(1.19095 0.0138333 -1.42532e-19)
(1.31062 0.0184237 4.79691e-21)
(1.37812 0.0191961 1.76431e-19)
(1.40793 0.0165722 0)
(1.41438 0.0115491 4.52815e-20)
(1.4081 0.0050788 0)
(1.39563 -0.00216177 -7.03286e-20)
(1.38049 -0.0097401 9.80242e-20)
(1.36436 -0.01737 1.14711e-21)
(1.34792 -0.0248101 -2.4361e-20)
(1.33131 -0.0319621 4.48442e-20)
(1.31468 -0.0385295 3.76236e-20)
(1.29791 -0.0447295 -3.29594e-20)
(1.28137 -0.0499463 3.02083e-20)
(1.26478 -0.0549874 -2.63218e-20)
(1.24842 -0.0578832 0)
(1.23186 -0.065452 -1.89233e-20)
(-0.017317 0.00965658 6.81055e-20)
(0.0456848 0.00420263 6.61133e-20)
(0.200701 -0.00238509 -5.85204e-20)
(0.431409 -0.00358023 1.0792e-19)
(0.700974 0.00417355 -9.99578e-20)
(0.95755 0.017827 8.87166e-20)
(1.16138 0.0315506 -4.19854e-20)
(1.29871 0.0412074 1.0715e-19)
(1.37664 0.0455117 -6.59443e-20)
(1.41149 0.0451483 1.11693e-19)
(1.41976 0.0415189 -2.52725e-19)
(1.4138 0.0359183 9.0788e-20)
(1.40124 0.0292537 -7.70195e-20)
(1.38611 0.0220838 7.17006e-20)
(1.37016 0.0147405 5.98817e-20)
(1.354 0.00743717 5.11651e-20)
(1.33778 0.000292402 -1.40853e-19)
(1.32157 -0.00652739 8.64318e-20)
(1.30539 -0.0130274 -3.76175e-20)
(1.28939 -0.0189298 9.53305e-20)
(1.2735 -0.0243953 -3.07178e-20)
(1.25787 -0.0292797 -7.13915e-20)
(1.24257 -0.0326972 6.51349e-20)
(1.22734 -0.0394915 1.89174e-20)
(-0.00331159 0.00435785 0)
(0.102051 -0.00558408 7.76539e-22)
(0.30967 -0.00695444 1.22833e-19)
(0.585619 0.00385803 -1.13003e-19)
(0.870513 0.0241749 -1.00325e-19)
(1.10808 0.0458194 1.829e-19)
(1.27296 0.0623262 -8.33941e-20)
(1.36872 0.0714935 1.07025e-19)
(1.41304 0.0741177 -3.31165e-21)
(1.42528 0.0721243 -5.79928e-20)
(1.42039 0.0673515 1.22236e-19)
(1.4077 0.0610978 -1.77294e-19)
(1.39206 0.0541319 0)
(1.37557 0.0468657 -3.3257e-20)
(1.35901 0.0395241 -8.69305e-20)
(1.34262 0.0322444 2.72011e-20)
(1.3265 0.0251582 1.35009e-21)
(1.31066 0.0183327 -5.61339e-20)
(1.29514 0.0119177 4.48706e-21)
(1.2799 0.00588528 6.36318e-20)
(1.26501 0.000369878 -2.75004e-20)
(1.25045 -0.0045701 -9.86013e-21)
(1.23614 -0.00902344 3.13688e-20)
(1.22211 -0.0148082 0)
(0.0164646 -0.000377287 0)
(0.17311 -0.0112564 3.37671e-20)
(0.434756 -0.00226769 -1.59439e-19)
(0.742766 0.0233572 5.71516e-20)
(1.02202 0.0544548 -5.29366e-20)
(1.22644 0.0802989 -4.68088e-20)
(1.35018 0.0964614 -8.01744e-20)
(1.41049 0.103417 4.01093e-20)
(1.43011 0.103681 3.38262e-20)
(1.42771 0.099877 0)
(1.41526 0.0939131 7.18943e-20)
(1.39906 0.0869129 -1.04733e-19)
(1.38192 0.0794518 7.71029e-20)
(1.36487 0.0718187 3.32715e-20)
(1.34824 0.0641801 -2.64926e-20)
(1.33206 0.05666 -2.1518e-20)
(1.31629 0.0493406 -1.96815e-20)
(1.30089 0.0423182 5.94579e-20)
(1.28584 0.0356226 0)
(1.27117 0.0293479 2.84555e-20)
(1.25687 0.0235276 2.30462e-20)
(1.24292 0.018172 -5.77482e-20)
(1.22934 0.0132522 -3.79909e-20)
(1.21614 0.00816891 3.50146e-20)
(0.0424724 -0.00367648 -3.91506e-20)
(0.257509 -0.010358 -1.47641e-21)
(0.568569 0.0138695 3.25267e-20)
(0.890888 0.0543998 8.91058e-20)
(1.14805 0.0926954 2.46535e-20)
(1.3137 0.119114 -4.73423e-20)
(1.39994 0.132703 4.25263e-20)
(1.43252 0.136473 -3.61184e-20)
(1.43508 0.134116 6.27449e-20)
(1.42363 0.128481 2.59524e-20)
(1.40689 0.121285 -7.28652e-20)
(1.38882 0.113408 2.10679e-20)
(1.37089 0.105264 3.5196e-20)
(1.35353 0.0970636 -1.72015e-20)
(1.33678 0.0889338 0)
(1.32062 0.0809649 2.46586e-20)
(1.305 0.0732376 4.09079e-20)
(1.28991 0.0658081 6.55928e-21)
(1.27534 0.058751 -3.32961e-20)
(1.26128 0.0520974 1.367e-20)
(1.24769 0.0458942 0)
(1.23454 0.0401405 -1.03487e-20)
(1.22175 0.0346496 -9.47845e-21)
(1.20926 0.0298161 0)
(0.074576 -0.00455094 0)
(0.351948 -0.000707356 1.9009e-20)
(0.702071 0.0421417 3.47804e-20)
(1.02143 0.0952821 -9.05813e-20)
(1.2468 0.136761 2.88135e-20)
(1.37405 0.160859 0)
(1.42891 0.170441 3.99375e-20)
(1.44101 0.170558 -5.48306e-20)
(1.43228 0.165504 -3.12008e-20)
(1.41537 0.157994 1.38563e-20)
(1.39624 0.149438 -2.14954e-20)
(1.37717 0.140486 5.1868e-20)
(1.35884 0.131428 2.5415e-20)
(1.34136 0.122414 -1.76534e-20)
(1.32469 0.113548 -1.80329e-21)
(1.30877 0.104911 -4.64599e-20)
(1.29353 0.0965637 2.09181e-20)
(1.27892 0.0885665 -4.49695e-22)
(1.26487 0.080959 0)
(1.25137 0.0737863 -1.36834e-20)
(1.23838 0.0670766 0)
(1.22582 0.0607639 2.98193e-20)
(1.21366 0.054915 -3.50445e-20)
(1.20181 0.0502157 1.57558e-20)
(0.112008 -0.00197702 -1.08161e-20)
(0.451483 0.019237 -4.83239e-20)
(0.826867 0.0818733 5.40672e-20)
(1.12985 0.143993 3.0678e-20)
(1.31955 0.185014 -1.46121e-20)
(1.41213 0.204699 2.30048e-20)
(1.44217 0.20945 -1.11521e-20)
(1.43976 0.205726 1.77823e-20)
(1.42378 0.197937 0)
(1.40366 0.188454 3.85772e-20)
(1.3832 0.17836 -1.66778e-21)
(1.36359 0.168117 -3.02846e-20)
(1.34506 0.157927 1.27732e-20)
(1.32758 0.147901 -1.41881e-20)
(1.31103 0.138125 -5.28728e-21)
(1.29532 0.12866 6.10063e-21)
(1.28038 0.119552 -4.65163e-21)
(1.26616 0.110844 -2.46819e-20)
(1.25262 0.102583 1.50269e-20)
(1.23972 0.0947985 3.03602e-21)
(1.22742 0.087489 2.63343e-21)
(1.21563 0.0806204 2.2836e-21)
(1.20424 0.0743568 0)
(1.19312 0.0692599 0)
(0.153451 0.00497707 1.08292e-20)
(0.55041 0.0501169 -1.00465e-20)
(0.936775 0.131603 -1.80347e-20)
(1.21463 0.198686 0)
(1.36883 0.236293 -7.16029e-21)
(1.43187 0.250141 -6.182e-21)
(1.44307 0.249607 -1.02045e-20)
(1.43073 0.241944 0)
(1.41026 0.231326 0)
(1.38833 0.21969 0)
(1.3672 0.207828 0)
(1.3474 0.196056 0)
(1.3289 0.184508 -8.04249e-21)
(1.31159 0.173262 3.63023e-21)
(1.29534 0.162381 6.2031e-21)
(1.28004 0.151911 2.85823e-21)
(1.26561 0.141878 7.00384e-21)
(1.25198 0.132322 0)
(1.23908 0.123277 -1.6331e-21)
(1.22685 0.11475 -1.51714e-21)
(1.21524 0.106727 -2.63755e-21)
(1.20418 0.0992008 -2.28718e-21)
(1.19354 0.0924753 0)
(1.18327 0.0868567 1.59078e-21)
(-0.000268816 0.134577 7.72954e-21)
(0.00310097 0.317421 -7.28643e-21)
(0.00298621 0.425578 -1.34459e-20)
(-0.00425005 0.478048 0)
(-0.016231 0.498653 -1.74692e-20)
(-0.029629 0.505239 5.39143e-21)
(-0.0419256 0.50664 -1.04051e-20)
(-0.0514247 0.504699 0)
(-0.0570006 0.497736 0)
(-0.0578841 0.483157 0)
(-0.0535719 0.458732 0)
(-0.0438406 0.423047 0)
(-0.0287693 0.375608 6.6572e-23)
(-0.0088203 0.316807 -7.94108e-21)
(0.0150029 0.247782 1.58808e-20)
(0.0416568 0.170072 2.28846e-20)
(0.0700453 0.0853478 7.48546e-21)
(0.0988151 -0.00497379 0)
(0.127489 -0.100059 6.36521e-21)
(0.15611 -0.199873 -1.79983e-20)
(0.184311 -0.305132 -1.1075e-20)
(0.215678 -0.413994 -1.00202e-20)
(0.243146 -0.526563 0)
(0.284485 -0.632462 0)
(-0.00619659 0.122053 -2.3278e-20)
(-0.00711733 0.30266 3.66032e-20)
(-0.00243299 0.419378 -1.37296e-20)
(-0.00103721 0.481582 -2.52496e-20)
(-0.00289264 0.508352 3.50323e-20)
(-0.00558861 0.516695 -2.23628e-20)
(-0.00672001 0.516394 3.11343e-20)
(-0.00442258 0.51056 2.00862e-20)
(0.00253902 0.49845 0)
(0.0148476 0.478047 -1.94172e-20)
(0.032736 0.447533 -1.59129e-21)
(0.0560474 0.405879 1.68034e-20)
(0.0842738 0.352986 2.55494e-20)
(0.116614 0.289591 3.38483e-20)
(0.15194 0.217048 -1.47297e-20)
(0.18893 0.137178 -4.56508e-20)
(0.226408 0.0515579 1.52317e-20)
(0.263462 -0.0381368 -5.57375e-20)
(0.299421 -0.131836 0)
(0.334967 -0.22994 1.20392e-20)
(0.368862 -0.335658 1.10558e-20)
(0.408604 -0.444849 1.00029e-20)
(0.438768 -0.560852 0)
(0.489548 -0.667103 0)
(-0.0104755 0.10431 0)
(-0.0160475 0.274918 7.40721e-20)
(-0.00815169 0.396851 -2.73976e-20)
(0.00105441 0.468755 2.55227e-20)
(0.00922304 0.503105 -7.0696e-20)
(0.0174935 0.514647 0)
(0.027771 0.513588 -4.27054e-20)
(0.041838 0.504439 1.95778e-20)
(0.0609424 0.487774 -3.83339e-20)
(0.0856844 0.462482 1.83439e-20)
(0.116081 0.427316 1.09673e-19)
(0.151673 0.381637 -5.11427e-20)
(0.191629 0.32563 -8.6738e-20)
(0.234845 0.260249 -3.52733e-20)
(0.279974 0.186988 -2.19643e-21)
(0.325353 0.107544 1.22822e-19)
(0.370193 0.0240669 -5.80377e-20)
(0.413848 -0.0621984 4.38956e-22)
(0.455669 -0.152805 0)
(0.498434 -0.24729 -4.8137e-20)
(0.539864 -0.35244 0)
(0.591375 -0.459146 -3.9442e-20)
(0.628272 -0.576035 1.4387e-19)
(0.691344 -0.675685 -5.36601e-21)
(-0.0127265 0.0837035 0)
(-0.0227478 0.237011 -3.8565e-23)
(-0.0139391 0.359026 2.72505e-20)
(0.000973579 0.438869 -2.53779e-20)
(0.017881 0.481489 2.31935e-20)
(0.0364444 0.497893 1.32175e-19)
(0.0576422 0.497706 -4.13102e-20)
(0.0828168 0.486511 -3.91897e-20)
(0.113045 0.466344 7.57566e-20)
(0.148815 0.437277 -1.11596e-19)
(0.18998 0.39884 3.36496e-20)
(0.235846 0.350846 3.36504e-20)
(0.285311 0.293712 0)
(0.336988 0.228499 3.26455e-20)
(0.38911 0.156534 0)
(0.440792 0.0800662 5.84184e-20)
(0.491173 0.000357869 -1.15101e-19)
(0.539989 -0.0821673 2.60748e-20)
(0.588351 -0.170911 1.01363e-19)
(0.641031 -0.263835 4.80844e-20)
(0.694834 -0.370891 0)
(0.760589 -0.475287 -1.16384e-19)
(0.806737 -0.591514 3.78425e-20)
(0.876001 -0.678807 0)
(-0.0130286 0.0629129 0)
(-0.0267375 0.193505 -8.85364e-20)
(-0.0195066 0.30924 -2.67728e-20)
(-0.00199567 0.393039 -5.01208e-20)
(0.0211127 0.442935 4.64342e-20)
(0.0481989 0.465252 -4.37402e-20)
(0.0790557 0.46782 8.24434e-20)
(0.114203 0.456494 4.10043e-20)
(0.154245 0.434481 -1.10201e-19)
(0.199406 0.403095 7.20463e-20)
(0.249346 0.362805 -1.03185e-19)
(0.303172 0.314006 2.29678e-19)
(0.359604 0.257426 -1.25036e-19)
(0.416959 0.194024 5.99727e-20)
(0.474096 0.125592 1.78392e-19)
(0.530582 0.0537946 -5.52734e-20)
(0.586216 -0.022246 -5.074e-20)
(0.643432 -0.102089 -5.21948e-20)
(0.704829 -0.190812 0)
(0.774784 -0.283616 -8.91982e-20)
(0.847497 -0.39106 -7.83231e-20)
(0.927193 -0.487836 1.15388e-19)
(0.980322 -0.594653 1.26429e-19)
(1.04331 -0.658353 -1.15276e-19)
(-0.0119088 0.0443038 0)
(-0.0282307 0.149715 -1.16626e-19)
(-0.0246432 0.252982 8.33841e-22)
(-0.00796657 0.334937 9.92349e-20)
(0.0178533 0.388785 0)
(0.0505337 0.416302 0)
(0.088779 0.422687 0)
(0.13208 0.413097 -3.88258e-20)
(0.180264 0.391246 -1.74319e-21)
(0.233046 0.359397 6.67163e-20)
(0.289757 0.31892 -1.02217e-19)
(0.349346 0.270876 -2.2123e-21)
(0.410433 0.216089 0)
(0.472208 0.156188 -5.99495e-20)
(0.534702 0.0921501 5.62336e-20)
(0.598775 0.0237863 -1.58579e-19)
(0.66688 -0.0505344 2.06578e-19)
(0.742909 -0.130407 4.84697e-20)
(0.827671 -0.220395 -4.79001e-22)
(0.920623 -0.311986 -1.69461e-19)
(1.01024 -0.413537 -7.30797e-20)
(1.09267 -0.495372 2.30801e-19)
(1.13928 -0.583076 -1.47006e-19)
(1.17707 -0.618549 0)
(-0.0102213 0.0295076 6.13137e-20)
(-0.0282229 0.110466 5.82756e-20)
(-0.0295096 0.196791 -5.28893e-20)
(-0.0165332 0.270697 -9.71638e-20)
(0.00838571 0.323297 9.00146e-20)
(0.043047 0.353015 -8.27506e-20)
(0.0854824 0.362371 1.1462e-19)
(0.13425 0.355185 -3.84085e-20)
(0.188302 0.334964 6.72321e-20)
(0.24672 0.304394 0)
(0.308602 0.265447 6.1993e-20)
(0.37292 0.219522 -1.13263e-19)
(0.439718 0.16817 1.16113e-19)
(0.510102 0.112125 -1.08079e-19)
(0.585783 0.05068 0)
(0.669927 -0.0166268 1.0173e-19)
(0.764741 -0.0909872 1.91668e-19)
(0.870227 -0.170803 -1.8151e-19)
(0.980346 -0.257329 -8.15e-20)
(1.08744 -0.339927 -7.83185e-20)
(1.17515 -0.424248 2.15295e-19)
(1.23845 -0.482769 5.28756e-20)
(1.25831 -0.544705 -5.39497e-20)
(1.25793 -0.552884 4.12599e-20)
(-0.00897922 0.0193174 -6.13293e-20)
(-0.0283177 0.0790981 1.71379e-19)
(-0.0348362 0.14656 -5.2817e-20)
(-0.0271559 0.207485 9.58255e-20)
(-0.00578678 0.253297 -8.8776e-20)
(0.0276654 0.280747 -4.09551e-22)
(0.0710834 0.29036 3.70201e-20)
(0.122499 0.284549 1.3736e-19)
(0.180344 0.266202 1.74059e-21)
(0.243576 0.237913 -6.14574e-20)
(0.311899 0.201749 0)
(0.386347 0.159276 -5.653e-20)
(0.468705 0.111262 1.0628e-19)
(0.561545 0.0572118 1.05948e-19)
(0.667162 -0.00291681 -4.97822e-20)
(0.785379 -0.0689425 -2.84968e-21)
(0.912201 -0.13994 -4.68932e-20)
(1.03968 -0.21294 8.1431e-20)
(1.15562 -0.286036 8.1507e-20)
(1.24947 -0.350161 -7.41008e-20)
(1.30752 -0.409735 5.90659e-20)
(1.33228 -0.443666 -5.1237e-20)
(1.31586 -0.482208 0)
(1.28487 -0.474822 -4.12961e-20)
(-0.00917728 0.0138336 6.02833e-20)
(-0.0302611 0.0571313 -5.71477e-20)
(-0.0416289 0.106226 5.2083e-20)
(-0.0392326 0.151543 0)
(-0.0221595 0.186397 0)
(0.00879523 0.207375 7.84437e-20)
(0.0519796 0.213986 -7.36197e-20)
(0.105829 0.207605 6.71405e-20)
(0.169459 0.1904 -3.15886e-19)
(0.243224 0.164381 -1.31717e-21)
(0.328731 0.131107 5.59172e-20)
(0.428283 0.0915022 0)
(0.543655 0.0458449 -1.05413e-19)
(0.674251 -0.00536235 1.99062e-19)
(0.816172 -0.0611031 -1.42886e-19)
(0.96156 -0.120104 -2.27564e-19)
(1.09981 -0.179684 3.70487e-22)
(1.21861 -0.237388 1.50072e-19)
(1.30725 -0.289854 0)
(1.35955 -0.332801 0)
(1.37311 -0.368922 -5.90983e-20)
(1.35963 -0.386019 5.12676e-20)
(1.3199 -0.41095 -1.57281e-19)
(1.28073 -0.398936 1.46693e-19)
(-0.0115324 0.0126224 0)
(-0.0351403 0.0444567 0)
(-0.0500816 0.0774346 -1.55511e-19)
(-0.0509745 0.106989 4.88634e-20)
(-0.0359792 0.129107 1.333e-21)
(-0.00481069 0.141159 7.9638e-20)
(0.0423007 0.142472 0)
(0.105613 0.13383 -6.69544e-20)
(0.186245 0.116476 6.27357e-20)
(0.285853 0.0917335 -1.17352e-19)
(0.405726 0.0607415 -1.40284e-21)
(0.544946 0.0244115 1.06778e-19)
(0.699147 -0.0162882 2.40401e-21)
(0.860228 -0.0601842 9.8286e-20)
(1.01723 -0.105688 -1.35601e-19)
(1.15787 -0.151291 0)
(1.27113 -0.194486 1.54694e-19)
(1.34868 -0.234277 -2.18899e-19)
(1.3888 -0.267398 6.08966e-20)
(1.39466 -0.294613 0)
(1.37597 -0.31561 4.72689e-20)
(1.34556 -0.326715 1.6638e-19)
(1.30594 -0.346477 -1.55383e-19)
(1.27387 -0.335074 -1.50025e-19)
(-0.0160817 0.0146769 1.79071e-19)
(-0.0424313 0.03957 -2.26126e-19)
(-0.0580931 0.0597127 9.23635e-22)
(-0.057583 0.07545 4.82055e-20)
(-0.0381458 0.0854373 -8.73965e-20)
(0.00201877 0.0882401 -7.93925e-20)
(0.064883 0.0834884 1.45051e-19)
(0.152444 0.0715334 -9.19584e-22)
(0.266192 0.0532922 -1.24542e-19)
(0.405425 0.029976 2.34226e-19)
(0.565645 0.00265988 1.95723e-21)
(0.738279 -0.0275473 -1.02947e-19)
(0.911502 -0.0595576 0)
(1.07211 -0.0923229 0)
(1.20781 -0.124786 -4.41079e-20)
(1.30951 -0.155944 -7.64299e-20)
(1.37327 -0.184498 -1.41806e-19)
(1.40093 -0.210226 1.32214e-19)
(1.40062 -0.231149 -6.097e-20)
(1.38164 -0.250426 9.9251e-20)
(1.35556 -0.263784 -5.32491e-20)
(1.32638 -0.276373 6.97679e-20)
(1.29595 -0.290115 -1.7297e-19)
(1.26961 -0.282213 3.03352e-20)
(-0.0219222 0.0183609 5.99701e-20)
(-0.0498019 0.0396865 0)
(-0.0612935 0.0507112 1.04305e-19)
(-0.0517863 0.0557631 -9.65815e-20)
(-0.0176038 0.055745 8.75117e-20)
(0.0446511 0.0505221 0)
(0.138039 0.0402335 0)
(0.263711 0.0255349 -6.82364e-20)
(0.418856 0.00756227 -5.75189e-23)
(0.59554 -0.0125914 5.86452e-20)
(0.78111 -0.0339595 -5.50322e-20)
(0.960489 -0.0558487 1.02222e-19)
(1.11912 -0.0778411 0)
(1.24569 -0.0996539 1.75579e-19)
(1.33419 -0.120976 -3.2397e-19)
(1.38483 -0.141377 2.26037e-19)
(1.40354 -0.160395 1.3051e-19)
(1.39989 -0.177907 -1.21688e-19)
(1.38377 -0.1931 0)
(1.36158 -0.208191 0)
(1.33822 -0.217578 0)
(1.31091 -0.232312 0)
(1.28521 -0.236068 3.22565e-20)
(1.2586 -0.239353 -1.01635e-19)
(0.316621 -0.739602 -4.34741e-21)
(0.350353 -0.826622 4.37975e-21)
(0.379845 -0.866457 -1.04485e-22)
(0.40121 -0.863597 0)
(0.408986 -0.83955 -2.16252e-21)
(0.391573 -0.824489 4.06358e-21)
(0.351274 -0.825156 -5.03091e-24)
(0.316897 -0.80584 -1.84688e-21)
(0.322074 -0.713785 0)
(0.375291 -0.528838 0)
(0.456202 -0.27473 -1.37937e-22)
(0.541566 0.0130506 -1.40394e-22)
(0.620953 0.295708 -2.21015e-21)
(0.687667 0.524156 2.01949e-21)
(0.737961 0.662024 0)
(0.772945 0.71331 0)
(0.790602 0.714588 8.29263e-22)
(0.795483 0.693317 -8.59962e-23)
(0.799036 0.662797 -6.57167e-22)
(0.797742 0.654109 -4.16677e-23)
(0.778773 0.693329 0)
(0.741569 0.742895 0)
(0.704611 0.71078 0)
(0.687214 0.533094 0)
(0.69305 0.232563 0)
(0.716808 -0.101776 0)
(0.749184 -0.375443 3.71224e-22)
(0.776712 -0.537082 -6.22063e-22)
(0.802617 -0.589716 0)
(0.823837 -0.588858 0)
(0.825681 -0.597069 -1.91722e-22)
(0.795439 -0.62136 1.86294e-22)
(0.73775 -0.621368 8.98488e-23)
(0.669816 -0.545209 0)
(0.621802 -0.365364 0)
(0.606489 -0.109586 2.83783e-22)
(0.626338 0.149797 -2.75814e-22)
(0.670591 0.337374 0)
(0.722244 0.441348 1.40681e-22)
(0.733435 0.502129 -1.96169e-22)
(0.698751 0.536814 5.62105e-23)
(0.644068 0.510979 0)
(0.610309 0.37547 -1.42158e-22)
(0.609315 0.161998 1.38227e-22)
(0.650939 -0.0624871 0)
(0.684168 -0.241715 0)
(0.68948 -0.373818 -3.87174e-23)
(0.664659 -0.456656 1.06858e-22)
(0.651735 -0.415948 0)
(0.644544 -0.283945 0)
(0.656365 -0.0521423 -2.55397e-23)
(0.648315 0.192046 5.07326e-24)
(0.640488 0.356058 -1.79217e-24)
(0.625997 0.440964 1.87101e-23)
(0.632806 0.282594 0)
(0.614188 0.0539671 0)
(0.595668 -0.184997 0)
(0.559917 -0.415538 0)
(0.564228 -0.196447 0)
(0.524491 0.0425897 0)
(0.508874 -0.775578 -4.67144e-22)
(0.523146 -0.862054 -1.53972e-20)
(0.526898 -0.897936 2.62443e-21)
(0.518946 -0.887616 1.19051e-20)
(0.506317 -0.841913 1.36087e-22)
(0.481592 -0.791482 0)
(0.430837 -0.769613 -6.76087e-21)
(0.364824 -0.76367 1.35739e-20)
(0.318854 -0.714898 -6.80896e-21)
(0.319646 -0.574018 8.02784e-21)
(0.363906 -0.344008 -7.65744e-21)
(0.433143 -0.0639498 8.16581e-21)
(0.511644 0.219473 -7.89424e-21)
(0.58773 0.456723 -1.93409e-22)
(0.655624 0.61067 -4.82835e-21)
(0.710588 0.682267 4.68903e-21)
(0.746835 0.70066 -3.11991e-21)
(0.769442 0.6876 2.94608e-21)
(0.788359 0.661055 -2.73176e-21)
(0.799653 0.659477 5.50003e-21)
(0.792982 0.708753 -2.7638e-21)
(0.770323 0.765299 -2.19449e-22)
(0.750138 0.733035 -5.00461e-21)
(0.747436 0.54709 1.07046e-20)
(0.761942 0.233124 -5.676e-21)
(0.786562 -0.113155 3.75146e-22)
(0.813249 -0.392729 4.61132e-21)
(0.829833 -0.55428 -9.09442e-22)
(0.839919 -0.603125 -5.60467e-21)
(0.845152 -0.59335 4.11939e-21)
(0.834772 -0.588148 -1.74564e-21)
(0.795007 -0.599211 1.59774e-22)
(0.729101 -0.591441 -9.00354e-23)
(0.652822 -0.517978 1.79643e-22)
(0.597266 -0.351004 0)
(0.579247 -0.113204 0)
(0.603866 0.130951 -8.09676e-22)
(0.657113 0.314182 6.257e-22)
(0.714617 0.427757 3.84513e-22)
(0.729953 0.5051 2.69838e-23)
(0.701045 0.551665 -5.08224e-22)
(0.651805 0.527548 1.38682e-22)
(0.619604 0.384198 0)
(0.617818 0.157278 0)
(0.660658 -0.0744319 0)
(0.697346 -0.248827 0)
(0.702868 -0.371553 1.90812e-22)
(0.673046 -0.451566 -6.92712e-23)
(0.655789 -0.413435 0)
(0.645804 -0.284631 0)
(0.654919 -0.0532277 0)
(0.646947 0.192786 -3.00568e-23)
(0.642712 0.357791 6.77675e-24)
(0.632682 0.441697 -3.7407e-23)
(0.641488 0.285305 0)
(0.622819 0.0575029 0)
(0.601302 -0.178179 2.80709e-23)
(0.556436 -0.412976 6.59266e-23)
(0.565551 -0.193841 0)
(0.533678 0.0456841 0)
(0.698488 -0.778811 -5.46581e-21)
(0.69654 -0.855611 -3.60995e-20)
(0.680894 -0.880924 2.48243e-20)
(0.64502 -0.869521 -2.3219e-20)
(0.602517 -0.827579 -1.37055e-22)
(0.562172 -0.763149 0)
(0.50802 -0.713002 -1.20885e-20)
(0.429159 -0.699119 1.18026e-20)
(0.34809 -0.681267 9.92832e-23)
(0.301122 -0.591412 1.67481e-22)
(0.303516 -0.402485 1.81575e-22)
(0.346187 -0.143681 2.40709e-22)
(0.415381 0.132268 -1.24252e-20)
(0.496923 0.374066 1.22604e-20)
(0.579075 0.542953 0)
(0.650877 0.635806 2.07277e-22)
(0.704485 0.673212 -5.60152e-21)
(0.744577 0.671121 5.52418e-21)
(0.779091 0.650539 0)
(0.804102 0.655502 0)
(0.811257 0.713506 -6.71652e-21)
(0.804158 0.778013 1.49784e-20)
(0.800349 0.749524 -1.82346e-20)
(0.812251 0.562472 -1.73121e-21)
(0.835642 0.244044 2.39347e-20)
(0.86039 -0.10914 -2.41532e-20)
(0.880361 -0.394411 1.98574e-20)
(0.88592 -0.558185 -2.67606e-21)
(0.880849 -0.606742 -6.67362e-21)
(0.870405 -0.591968 0)
(0.848661 -0.575645 0)
(0.801626 -0.574662 9.00368e-22)
(0.729461 -0.561069 -1.1715e-21)
(0.645801 -0.492531 -3.49357e-23)
(0.583488 -0.339987 1.61285e-21)
(0.562519 -0.120854 -1.56723e-21)
(0.590574 0.107804 0)
(0.650339 0.287482 1.61921e-22)
(0.712154 0.411792 1.03879e-21)
(0.732543 0.506658 -1.98775e-21)
(0.710859 0.566143 8.75278e-22)
(0.667327 0.545135 1.60531e-22)
(0.63734 0.395459 -1.89718e-21)
(0.634311 0.155683 1.47485e-21)
(0.675697 -0.0844101 3.64908e-22)
(0.714806 -0.254924 2.82635e-22)
(0.720848 -0.367759 -1.91317e-22)
(0.68548 -0.445282 0)
(0.662961 -0.411136 0)
(0.649855 -0.285894 -2.84208e-22)
(0.656866 -0.0555385 1.39347e-22)
(0.649463 0.192707 -8.91962e-23)
(0.648628 0.358306 1.67756e-22)
(0.642498 0.441976 3.42257e-22)
(0.653307 0.288602 -6.33917e-23)
(0.635046 0.0618035 2.0034e-22)
(0.611547 -0.169524 -1.63595e-22)
(0.557042 -0.409794 8.50643e-23)
(0.570644 -0.193274 0)
(0.546485 0.0482786 0)
(0.866454 -0.77361 -7.05741e-20)
(0.845811 -0.837048 1.13569e-20)
(0.81289 -0.846722 5.58037e-20)
(0.759821 -0.823798 -3.2723e-22)
(0.694377 -0.786404 0)
(0.634724 -0.72926 0)
(0.579874 -0.662017 -2.09225e-20)
(0.505363 -0.623511 1.12017e-21)
(0.409035 -0.614007 2.77592e-20)
(0.323919 -0.572027 6.04383e-22)
(0.283254 -0.439753 -9.70774e-21)
(0.293018 -0.219744 -1.01095e-20)
(0.344928 0.038638 1.00886e-20)
(0.423607 0.278383 0)
(0.5119 0.459888 -6.87445e-21)
(0.594818 0.573805 6.30074e-21)
(0.662929 0.631087 0)
(0.718998 0.641764 0)
(0.768326 0.628203 4.58008e-21)
(0.807141 0.638152 7.07907e-22)
(0.828724 0.702263 -4.82914e-21)
(0.83721 0.77542 -8.13054e-21)
(0.849083 0.757095 8.20969e-21)
(0.87497 0.579498 -1.23069e-20)
(0.90728 0.264035 -6.38996e-22)
(0.934285 -0.0944452 1.22785e-20)
(0.949351 -0.386507 1.32094e-21)
(0.944785 -0.553485 2.27026e-25)
(0.925324 -0.602713 0)
(0.899559 -0.585492 3.47366e-21)
(0.866715 -0.561224 -3.54777e-21)
(0.813531 -0.549125 1.45977e-22)
(0.73761 -0.529095 0)
(0.648216 -0.466022 -1.46668e-22)
(0.579768 -0.330445 2.55403e-21)
(0.555556 -0.131826 -4.68878e-21)
(0.585198 0.0809073 3.97393e-23)
(0.649013 0.25796 3.17768e-22)
(0.714742 0.392922 1.52535e-21)
(0.741099 0.503945 2.03044e-22)
(0.726585 0.577227 -2.19531e-21)
(0.689362 0.562338 1.83181e-21)
(0.663651 0.409225 -3.60551e-23)
(0.659731 0.15763 1.6748e-21)
(0.696849 -0.0924156 -1.99428e-21)
(0.73648 -0.260779 -1.93346e-21)
(0.743169 -0.362954 5.69774e-22)
(0.701898 -0.43729 4.73559e-22)
(0.673205 -0.408291 -7.69794e-22)
(0.656522 -0.287582 4.42216e-22)
(0.662107 -0.0592686 -9.42009e-23)
(0.655629 0.191529 6.90861e-23)
(0.657914 0.357711 5.78434e-23)
(0.655172 0.441925 -5.15757e-22)
(0.667981 0.292527 -2.9022e-23)
(0.650558 0.066548 -2.60365e-22)
(0.626367 -0.15927 0)
(0.561914 -0.405776 -8.30741e-23)
(0.579163 -0.194648 -6.02526e-23)
(0.562623 0.0502738 0)
(1.01265 -0.736037 6.54889e-20)
(0.969487 -0.78419 -1.1779e-19)
(0.915172 -0.789121 5.19848e-20)
(0.847687 -0.762957 3.46016e-20)
(0.773083 -0.725631 -6.12185e-20)
(0.697898 -0.683601 4.82216e-21)
(0.635063 -0.623437 2.14799e-20)
(0.573784 -0.563506 1.53725e-20)
(0.487728 -0.537255 -1.50521e-20)
(0.385238 -0.520771 0)
(0.306854 -0.446745 -1.48183e-20)
(0.280022 -0.281239 2.99749e-20)
(0.305851 -0.0545137 -1.5226e-20)
(0.371655 0.174619 0)
(0.457982 0.364971 0)
(0.545558 0.498439 1.67068e-22)
(0.623918 0.575917 -7.32488e-21)
(0.69325 0.601286 7.11115e-21)
(0.755782 0.596023 0)
(0.806822 0.609841 9.24922e-21)
(0.841024 0.677964 -1.99553e-20)
(0.864459 0.759243 2.53793e-20)
(0.892841 0.754637 -3.34043e-20)
(0.931449 0.594754 -4.47466e-21)
(0.971381 0.292304 4.72112e-20)
(1.00292 -0.0656266 -2.44649e-20)
(1.01636 -0.364296 -6.67073e-22)
(1.00363 -0.536897 -6.46179e-21)
(0.971429 -0.589493 1.92811e-21)
(0.931291 -0.57255 4.69953e-21)
(0.88847 -0.543868 1.75701e-22)
(0.830807 -0.524073 -1.79775e-21)
(0.753293 -0.498356 3.34786e-21)
(0.659821 -0.44006 -1.72535e-21)
(0.58526 -0.321824 0)
(0.556709 -0.145094 -2.18466e-21)
(0.585994 0.0509063 2.09839e-21)
(0.65202 0.22457 -1.20256e-21)
(0.721303 0.369495 1.49144e-21)
(0.754297 0.497879 -1.50607e-22)
(0.748657 0.586255 0)
(0.719559 0.578677 -3.28776e-22)
(0.69935 0.425218 1.3214e-21)
(0.694622 0.163865 0)
(0.724495 -0.0971787 3.95009e-21)
(0.762031 -0.265668 -1.67766e-21)
(0.769434 -0.356902 4.34868e-22)
(0.72217 -0.42738 2.85488e-22)
(0.686356 -0.404711 0)
(0.66555 -0.289673 0)
(0.670383 -0.0645316 -1.28542e-22)
(0.665137 0.188993 1.94421e-22)
(0.670316 0.355762 -1.69161e-22)
(0.670454 0.441295 4.9545e-23)
(0.685152 0.296814 4.14009e-22)
(0.668981 0.0714622 2.60646e-22)
(0.645619 -0.14756 -5.03512e-22)
(0.571228 -0.400689 0)
(0.590717 -0.197787 3.91773e-23)
(0.581792 0.0515973 4.7661e-23)
(1.1239 -0.679562 5.97171e-20)
(1.06323 -0.709984 -5.90482e-20)
(0.996061 -0.710929 3.63208e-22)
(0.917226 -0.693131 -2.67672e-22)
(0.839907 -0.659807 2.29825e-22)
(0.763174 -0.624619 -1.81662e-22)
(0.689529 -0.582159 2.58656e-22)
(0.628637 -0.521306 0)
(0.56316 -0.470262 -1.57218e-22)
(0.471043 -0.449364 1.28126e-22)
(0.371692 -0.417293 1.14178e-22)
(0.307377 -0.314953 -1.93607e-22)
(0.299207 -0.136159 0)
(0.342486 0.0719172 0)
(0.417503 0.263333 8.88206e-23)
(0.503091 0.411582 0)
(0.587637 0.507685 -5.84374e-23)
(0.66786 0.548845 0)
(0.74195 0.553484 -5.78974e-21)
(0.80331 0.570878 1.29309e-20)
(0.847929 0.640421 -1.65262e-20)
(0.883967 0.728618 9.27586e-21)
(0.925443 0.741605 1.66729e-20)
(0.974703 0.606232 -1.61826e-20)
(1.02338 0.3244 -2.34883e-20)
(1.06237 -0.0268212 2.28317e-20)
(1.0784 -0.331397 0)
(1.06062 -0.511358 4.7967e-22)
(1.01831 -0.569227 0)
(0.9653 -0.554609 0)
(0.912584 -0.524 4.03589e-21)
(0.851318 -0.499135 -4.21199e-21)
(0.77473 -0.468453 1.38619e-22)
(0.679639 -0.413605 1.71775e-22)
(0.598978 -0.312432 -1.34427e-22)
(0.564274 -0.159081 -1.37004e-21)
(0.591194 0.0187945 1.33013e-21)
(0.657903 0.18802 -1.12096e-21)
(0.730916 0.341722 9.39594e-22)
(0.771415 0.484675 2.71739e-22)
(0.774488 0.588497 -2.21211e-21)
(0.753941 0.593265 -1.43527e-21)
(0.741658 0.443544 2.248e-21)
(0.738009 0.175179 0)
(0.758803 -0.0976842 -1.86919e-21)
(0.791083 -0.269443 1.67928e-21)
(0.799063 -0.349917 -2.28471e-21)
(0.746148 -0.415315 -2.87396e-22)
(0.702244 -0.399903 0)
(0.676619 -0.29194 1.01403e-23)
(0.681361 -0.0714284 -5.72588e-23)
(0.67759 0.18488 -3.4882e-23)
(0.685439 0.352768 -2.01167e-23)
(0.687961 0.44045 4.41332e-22)
(0.70445 0.301528 -4.33564e-22)
(0.68989 0.0764957 0)
(0.668965 -0.134628 5.03808e-22)
(0.585128 -0.39435 0)
(0.604924 -0.202482 0)
(0.603649 0.0522229 -5.32223e-23)
(1.18732 -0.602343 -5.43789e-20)
(1.11604 -0.625498 5.33985e-20)
(1.04741 -0.624765 -3.08942e-22)
(0.969799 -0.616007 2.74422e-22)
(0.892896 -0.595947 0)
(0.821571 -0.565722 0)