/*--------------------------------*- C++ -*----------------------------------*\
| =========                 |                                                 |
| \\      /  F ield         | OpenFOAM: The Open Source CFD Toolbox           |
|  \\    /   O peration     | Version:  2312                                  |
|   \\  /    A nd           | Website:  www.openfoam.com                      |
|    \\/     M anipulation  |                                                 |
\*---------------------------------------------------------------------------*/
FoamFile
{
    version     2.0;
    format      ascii;
    arch        "LSB;label=32;scalar=64";
    class       surfaceScalarField;
    location    "147.5";
    object      phi;
}
// * * * * * * * * * * * * * * * * * * * * * * * * * * * * * * * * * * * * * //

dimensions      [0 3 -1 0 0 0 0];

oriented        oriented;

internalField   nonuniform List<scalar> 
10785
(
-0.0016112
0.0047964
-0.0031852
-0.00247811
0.00785422
-0.00698731
0.000481841
0.00527663
-0.00823658
0.0104613
-0.00447442
-0.00550505
0.0298461
-0.0222615
0.00287674
0.0585486
-0.046115
0.0174126
0.0937009
-0.0724047
0.0372524
0.13112
-0.0977999
0.0603805
0.166318
-0.119965
0.0847672
0.195768
-0.137797
0.108347
0.216811
-0.151126
0.130083
0.230368
-0.16089
0.147332
0.237266
-0.169404
0.162506
0.242657
-0.176422
0.171031
-0.188135
0.18299
0.247802
-0.00064185
0.00543825
0.00097261
0.00623976
0.00878235
-0.00253311
0.0263922
-0.0220842
0.0536952
-0.0495646
0.0866119
-0.0790316
0.119697
-0.10549
0.148299
-0.126402
0.169823
-0.14149
0.184114
-0.152087
0.193312
-0.160323
0.200766
-0.168344
0.208338
-0.176977
0.217871
-0.185954
-0.195863
0.225599
0.000381608
0.00505664
0.00524263
0.00137874
0.0194293
-0.0167198
0.0440953
-0.0467503
0.0742556
-0.0797249
0.103264
-0.10804
0.126539
-0.128765
0.142764
-0.142627
0.153447
-0.152172
0.161395
-0.160036
0.168959
-0.167888
0.176604
-0.175988
0.183772
-0.184146
0.18989
-0.192072
-0.200574
0.1946
0.00139667
0.00365997
0.0103845
-0.00760906
0.03093
-0.0372653
0.0583361
-0.0741564
0.0844674
-0.105856
0.104478
-0.12805
0.117869
-0.142156
0.126834
-0.151591
0.133875
-0.159213
0.140322
-0.166483
0.146173
-0.173739
0.151387
-0.181201
0.15621
-0.18897
0.161409
-0.197271
-0.206391
0.167227
0.00270562
0.000954352
0.0164829
-0.0213863
0.0404393
-0.0612217
0.0647517
-0.0984687
0.083254
-0.124359
0.0953226
-0.140119
0.103136
-0.14997
0.108874
-0.157329
0.113651
-0.16399
0.117844
-0.170675
0.121849
-0.177744
0.125919
-0.185271
0.130088
-0.193139
0.134234
-0.201417
-0.209709
0.137551
0.00455356
-0.00359921
0.0221765
-0.0390093
0.0448123
-0.0838575
0.0630537
-0.11671
0.0748323
-0.136137
0.0819127
-0.1472
0.0864686
-0.154526
0.0898729
-0.160733
0.0928289
-0.166946
0.0956976
-0.173544
0.098494
-0.180541
0.101106
-0.187883
0.103569
-0.195602
0.105856
-0.203704
-0.212299
0.108446
0.00676686
-0.0103661
0.0256042
-0.0578466
0.0438686
-0.102122
0.0561702
-0.129012
0.0630947
-0.143062
0.0668447
-0.15095
0.0691451
-0.156826
0.0708996
-0.162488
0.0724242
-0.168471
0.0737369
-0.174857
0.0748656
-0.181669
0.0759181
-0.188935
0.076941
-0.196625
0.0780245
-0.204788
-0.213072
0.0787969
0.00864452
-0.0190106
0.0257316
-0.0749337
0.0391555
-0.115546
0.0466351
-0.136491
0.0500357
-0.146462
0.0514407
-0.152355
0.0520329
-0.157418
0.0522463
-0.162701
0.052196
-0.168421
0.0519557
-0.174616
0.0515827
-0.181296
0.0510803
-0.188433
0.0504963
-0.196041
0.0497575
-0.204049
0.0492064
-0.21252
-0.0023294
-0.000847286
0.00317669
-0.00695822
0.0053872
-0.000758376
-0.0131925
0.0125623
-0.00632803
-0.0204878
0.0191349
-0.0118395
-0.0283028
0.0260986
-0.0182836
-0.0361163
0.0341943
-0.0263808
-0.0432699
0.0433786
-0.036225
-0.0488828
0.0532443
-0.0476314
-0.0518787
0.0631111
-0.0601152
-0.0510705
0.071978
-0.0727862
-0.0453717
0.0786121
-0.0843109
-0.0338014
0.0814404
-0.0930107
-0.0157528
0.079028
-0.0970766
0.00957543
0.069331
-0.0946592
0.0547274
0.0403068
-0.0854589
-0.00130325
0.000455964
-0.00394334
0.00802729
-0.00781116
0.0164301
-0.0123685
0.0236922
-0.0167658
0.0304959
-0.0201743
0.0376029
-0.0217716
0.044976
-0.0206561
0.0521287
-0.0158002
0.0582553
-0.0062172
0.062395
0.0089898
0.0634051
0.0305137
0.0599165
0.0571892
0.0523525
0.0905577
0.0359624
0.0178002
0.127485
-0.000179213
0.000635177
-0.000474131
0.0083222
-0.00124777
0.0172038
-0.00225379
0.0246982
-0.00255345
0.0307955
-0.00108635
0.0361358
0.00305943
0.0408302
0.0107902
0.044398
0.0227881
0.0462573
0.0399403
0.0452428
0.061742
0.0416034
0.0893586
0.0322999
0.121107
0.0206041
0.155665
0.00140434
-0.0229009
0.196366
0.000476199
0.000158978
0.00190655
0.00689186
0.00386208
0.0152482
0.00627272
0.0222875
0.00979575
0.0272725
0.0154502
0.0304813
0.0241828
0.0320976
0.0367737
0.031807
0.0533149
0.0297162
0.0747561
0.0238016
0.0998071
0.0165524
0.129378
0.00272897
0.163659
-0.0136773
0.20071
-0.0356461
-0.0663507
0.24416
0.00042659
-0.000267612
0.00226477
0.00505368
0.0054983
0.0120147
0.0100051
0.0177807
0.0160808
0.0211968
0.0243804
0.0221817
0.0355827
0.0208953
0.0502796
0.0171102
0.0689308
0.0110649
0.0919277
0.000804732
0.120013
-0.0115334
0.153936
-0.0311932
0.192735
-0.0524764
0.23785
-0.0807619
-0.114315
0.285815
-0.000269894
2.2815e-06
0.0005724
0.00421138
0.00314552
0.00944159
0.00754661
0.0133796
0.0139583
0.0147851
0.0229164
0.0132236
0.0353337
0.00847811
0.0523362
0.000107633
0.0754771
-0.0120759
0.104587
-0.0283048
0.141634
-0.0485813
0.183878
-0.0734364
0.230585
-0.0991841
0.279335
-0.129512
-0.155124
0.320144
-0.00125643
0.00125871
-0.002171
0.00512596
-0.00135059
0.00862118
0.00189069
0.0101383
0.0084745
0.0082013
0.0199423
0.00175575
0.0378704
-0.00945002
0.0632386
-0.0252605
0.0964365
-0.0452739
0.13577
-0.0676387
0.180097
-0.092908
0.223696
-0.117036
0.265932
-0.14142
0.298569
-0.162149
-0.174985
0.31843
-0.00192649
-0.00378783
-0.00340324
0.00123004
0.0123081
0.0314764
0.0592788
0.0943989
0.133892
0.1746
0.211775
0.242072
0.263158
0.27204
0.280045
0.101914
0.0538989
-0.115506
0.157229
-0.108675
0.0533599
0.184121
-0.261617
0.234725
0.199872
-0.357687
0.341936
0.198451
-0.341874
0.343295
0.159614
-0.341543
0.38038
0.13743
-0.316798
0.338982
0.173725
-0.195199
0.158905
0.224912
0.0832325
-0.13442
0.260776
0.220749
-0.256614
0.262653
0.293747
-0.295623
0.245066
0.418677
-0.40109
0.239803
0.368169
-0.362906
0.258655
0.288235
-0.307087
0.272679
0.0369504
-0.0509745
0.282491
-0.206624
0.196812
0.289407
-0.370928
0.364012
0.293547
-0.571863
0.567724
0.290047
-0.330497
0.333996
0.299296
-0.0898377
0.0805888
0.314584
0.299556
-0.314843
0.314266
0.715917
-0.715599
0.308678
0.390606
-0.385018
0.314652
0.0590874
-0.0650615
0.310504
-0.374536
0.378684
0.315275
-0.944794
0.940024
0.32277
-0.0676387
0.0601438
0.31075
0.95617
-0.94415
0.293261
0.363634
-0.346145
0.282647
-0.458034
0.468647
0.281003
-0.222144
0.223787
0.27432
0.149039
-0.142355
0.268631
0.0946921
-0.0890031
0.266022
-0.0187787
0.0213882
0.262692
-0.0202399
0.0235698
0.259015
0.00611206
-0.00243499
0.255809
0.00872421
-0.00551877
0.00333173
-0.000520793
0.170773
0.0106104
0.210009
-0.147911
0.223131
-0.274739
0.212699
-0.347255
0.197168
-0.326343
0.159381
-0.303756
0.127893
-0.285309
0.156193
-0.2235
0.217742
0.0216838
0.257637
0.180854
0.259007
0.292377
0.238399
0.439285
0.230857
0.375711
0.257756
0.261335
0.273277
0.0214295
0.279993
-0.213339
0.282504
-0.373439
0.284283
-0.573642
0.284349
-0.330563
0.294616
-0.100104
0.31622
0.277952
0.320061
0.712075
0.310629
0.400038
0.313887
0.0558294
0.304379
-0.365027
0.30242
-0.942835
0.320278
-0.0854966
0.317723
0.958724
0.297955
0.383403
0.282322
-0.442401
0.280428
-0.22025
0.275785
0.153682
0.27094
0.0995369
0.267986
-0.0158247
0.264309
-0.0165634
0.260755
0.00966661
0.257676
0.0118031
0.00611276
0.228299
-0.0213223
0.244618
-0.164229
0.241138
-0.271259
0.215982
-0.322099
0.193048
-0.303409
0.163152
-0.27386
0.134108
-0.256265
0.150048
-0.23944
0.210814
-0.0390827
0.254923
0.136745
0.265679
0.281621
0.246951
0.458012
0.231353
0.39131
0.2564
0.236288
0.272015
0.00581469
0.275484
-0.216808
0.271892
-0.369847
0.270173
-0.571924
0.275518
-0.335908
0.286447
-0.111032
0.313432
0.250967
0.322618
0.702889
0.310082
0.412575
0.309682
0.056229
0.29435
-0.349696
0.285915
-0.9344
0.314419
-0.114001
0.321745
0.951399
0.300675
0.404472
0.279734
-0.421459
0.277747
-0.218264
0.275286
0.156143
0.271556
0.103267
0.268509
-0.0127774
0.26471
-0.0127648
0.261511
0.0128652
0.258805
0.0145096
0.00865663
0.27388
-0.0510428
0.277966
-0.168315
0.254904
-0.248197
0.216689
-0.283884
0.189092
-0.275812
0.165908
-0.250677
0.144686
-0.235043
0.154079
-0.248832
0.212353
-0.0973569
0.257527
0.0915705
0.267018
0.27213
0.245119
0.479911
0.22837
0.408059
0.25178
0.212877
0.26739
-0.00979512
0.267305
-0.216723
0.257489
-0.36003
0.252021
-0.566456
0.263645
-0.347532
0.275581
-0.122969
0.305137
0.221411
0.319159
0.688867
0.305367
0.426367
0.301791
0.059805
0.281632
-0.329537
0.267469
-0.920236
0.304234
-0.150765
0.3208
0.934832
0.299884
0.425388
0.274937
-0.396511
0.27304
-0.216367
0.272825
0.156358
0.270424
0.105669
0.267558
-0.00991144
0.263894
-0.00910123
0.261295
0.0154647
0.259196
0.0166079
0.0107619
0.306409
-0.0716369
0.296038
-0.157944
0.259994
-0.212153
0.217315
-0.241206
0.186996
-0.245493
0.167135
-0.230815
0.147671
-0.21558
0.151186
-0.252347
0.210765
-0.156936
0.256265
0.0460711
0.271866
0.256529
0.259529
0.492248
0.240651
0.426937
0.251789
0.201739
0.261234
-0.0192403
0.257249
-0.212738
0.24125
-0.344032
0.231221
-0.556427
0.247437
-0.363747
0.26086
-0.136392
0.293602
0.18867
0.314076
0.668393
0.299218
0.441225
0.291511
0.0675119
0.266861
-0.304887
0.247276
-0.900651
0.291132
-0.194622
0.317589
0.908376
0.296192
0.446785
0.26849
-0.36881
0.266665
-0.214542
0.268629
0.154394
0.267646
0.106652
0.265198
-0.00746355
0.261927
-0.00582993
0.260156
0.0172353
0.258878
0.0178858
0.0122384
0.320137
-0.0716301
0.29207
-0.129877
0.249532
-0.169614
0.20981
-0.201484
0.182136
-0.21782
0.165452
-0.21413
0.14576
-0.195888
0.13503
-0.241617
0.191284
-0.21319
0.248141
-0.0107859
0.27624
0.22843
0.26982
0.498668
0.246449
0.450308
0.248837
0.199351
0.252745
-0.0231478
0.24579
-0.205783
0.224117
-0.322358
0.209752
-0.542062
0.228144
-0.382139
0.243327
-0.151576
0.276882
0.155115
0.301582
0.643693
0.288928
0.453879
0.278963
0.0774767
0.250539
-0.276463
0.2266
-0.876712
0.274077
-0.242099
0.308847
0.873605
0.288595
0.467037
0.260465
-0.34068
0.258852
-0.212929
0.262765
0.150481
0.263286
0.106131
0.261516
-0.00569374
0.258904
-0.0032176
0.258174
0.0179651
0.2579
0.0181593
0.0129089
0.30211
-0.0553098
0.269359
-0.0971262
0.232051
-0.132306
0.196795
-0.166228
0.171769
-0.192793
0.157413
-0.199775
0.142625
-0.1811
0.116401
-0.215393
0.151414
-0.248202
0.227596
-0.0869684
0.274245
0.181782
0.279347
0.493566
0.259551
0.470104
0.247691
0.211211
0.24114
-0.0165966
0.230856
-0.195499
0.205572
-0.297075
0.187226
-0.523716
0.205635
-0.400549
0.222864
-0.168804
0.260241
0.117737
0.290635
0.613298
0.27907
0.465445
0.266149
0.0903979
0.233488
-0.243803
0.204778
-0.848002
0.2564
-0.29372
0.300277
0.829728
0.279914
0.4874
0.251764
-0.312529
0.25016
-0.211325
0.255678
0.144963
0.257614
0.104195
0.256697
-0.00477678
0.254982
-0.00150307
0.255457
0.0174907
0.256333
0.0172829
0.0126116
0.264638
-0.0399025
0.240803
-0.0732914
0.214682
-0.106185
0.1849
-0.136446
0.159725
-0.167619
0.145693
-0.185743
0.135258
-0.170665
0.10855
-0.188685
0.111316
-0.250968
0.174471
-0.150124
0.245683
0.110571
0.279147
0.460102
0.263081
0.48617
0.245181
0.229111
0.232309
-0.00372458
0.217817
-0.181007
0.187866
-0.267124
0.164349
-0.500199
0.180995
-0.417194
0.198545
-0.186355
0.236876
0.0794068
0.271335
0.578839
0.26531
0.47147
0.253146
0.102562
0.216771
-0.207428
0.182685
-0.813916
0.235278
-0.346313
0.285564
0.779441
0.268128
0.504837
0.241518
-0.28592
0.240526
-0.210334
0.247331
0.138158
0.25076
0.100766
0.250929
-0.00494619
0.250328
-0.000901524
0.252125
0.015693
0.254258
0.0151506
0.0111968
0.500917
-0.0316622
-0.509157
0.491698
-0.0640722
0.47464
-0.0891272
0.4511
-0.112905
0.424831
-0.141351
0.392791
-0.153702
0.372317
-0.150191
0.341958
-0.158327
0.285955
-0.194964
0.260057
-0.124226
0.263744
0.106883
0.269374
0.454472
0.320996
0.434547
0.398808
0.151299
0.437108
-0.0420248
0.446129
-0.190028
0.43503
-0.256024
0.393928
-0.459097
0.362926
-0.386193
0.330287
-0.153715
0.312914
0.0967803
0.331151
0.560602
0.379041
0.42358
0.423754
0.0578493
0.418351
-0.202025
0.352188
-0.747753
0.341841
-0.335966
0.379233
0.742049
0.407155
0.476915
0.392389
-0.271154
0.372617
-0.190562
0.371477
0.139299
0.378478
0.0937648
0.377986
-0.00445444
0.373836
0.00324861
0.373408
0.0161209
0.373326
0.0152326
0.0127702
0.524137
-0.0246668
-0.531132
0.511829
-0.0517646
0.493429
-0.0707271
0.471215
-0.0906917
0.443994
-0.114129
0.408074
-0.117782
0.378927
-0.121044
0.357725
-0.137125
0.308416
-0.145656
0.244818
-0.060627
0.238885
0.112816
0.289826
0.40353
0.394981
0.329393
0.47451
0.0717696
0.497236
-0.0647506
0.488992
-0.181784
0.4591
-0.226132
0.411108
-0.411106
0.366053
-0.341138
0.325365
-0.113028
0.310909
0.111236
0.340823
0.530688
0.410103
0.3543
0.461525
0.00642705
0.44127
-0.181769
0.362128
-0.668611
0.349031
-0.322869
0.39462
0.696461
0.433327
0.438207
0.42048
-0.258306
0.397016
-0.167098
0.396372
0.139942
0.40592
0.084217
0.406295
-0.00482916
0.40263
0.00691376
0.402993
0.0157577
0.403581
0.0146446
0.0140298
0.551616
-0.019953
-0.55633
0.541966
-0.0421147
0.528606
-0.0573672
0.510284
-0.0723688
0.485097
-0.0889433
0.461873
-0.0945573
0.432686
-0.0918566
0.391458
-0.0958972
0.345362
-0.0995606
0.292038
-0.00730255
0.2918
0.113054
0.38494
0.310391
0.50472
0.209613
0.552995
0.0234946
0.549757
-0.0615124
0.533355
-0.165382
0.499468
-0.192245
0.435372
-0.34701
0.361321
-0.267086
0.304448
-0.0561541
0.295922
0.119762
0.356245
0.470365
0.449368
0.261176
0.502806
-0.0470107
0.475507
-0.15447
0.371429
-0.564533
0.341544
-0.292984
0.405544
0.63246
0.464008
0.379743
0.450057
-0.244355
0.422299
-0.13934
0.422941
0.1393
0.434667
0.0724905
0.435494
-0.0056559
0.432429
0.00997926
0.433675
0.0145112
0.435091
0.0132293
0.0147002
0.584012
-0.0159136
-0.588051
0.575104
-0.0332072
0.560237
-0.0424999
0.543567
-0.0556988
0.521455
-0.0668318
0.496981
-0.0700827
0.475238
-0.0701137
0.445823
-0.0664821
0.410053
-0.0637913
0.381614
0.0211366
0.408423
0.0862456
0.506473
0.21234
0.591106
0.12498
0.610363
0.00423752
0.592436
-0.043586
0.560285
-0.133231
0.520242
-0.152201
0.448296
-0.275065
0.353881
-0.172671
0.29006
0.00766699
0.293081
0.116741
0.389685
0.373762
0.496187
0.154674
0.541023
-0.0918467
0.509602
-0.12305
0.379928
-0.434859
0.325332
-0.238388
0.421013
0.536779
0.503551
0.297206
0.480795
-0.221599
0.445101
-0.103646
0.449362
0.135039
0.464267
0.0575854
0.465429
-0.00681789
0.463172
0.0122363
0.465459
0.0122244
0.467946
0.0107422
0.0143779
0.619648
-0.0115074
-0.624054
0.611449
-0.0250083
0.60029
-0.0313408
0.586589
-0.0419977
0.568704
-0.0489466
0.549803
-0.0511818
0.529527
-0.0498377
0.506233
-0.0431886
0.479999
-0.0375574
0.475499
0.0256372
0.512586
0.0491588
0.58965
0.135275
0.640797
0.0738337
0.641446
0.00358792
0.629769
-0.0319084
0.604153
-0.107615
0.566765
-0.114813
0.493022
-0.201322
0.402024
-0.0816731
0.354221
0.0554695
0.360476
0.110486
0.468606
0.265632
0.558199
0.0650807
0.583767
-0.117415
0.5592
-0.0984825
0.411087
-0.286746
0.331627
-0.158928
0.460873
0.407534
0.556772
0.201306
0.515579
-0.180406
0.469926
-0.0579934
0.48148
0.123485
0.500405
0.0386611
0.500053
-0.00646617
0.497916
0.0143732
0.501071
0.00906994
0.50438
0.00743306
0.0129885
0.661234
-0.00801377
-0.664727
0.654989
-0.0187631
0.64537
-0.0217223
0.634135
-0.0307628
0.618725
-0.0335367
0.603567
-0.0360239
0.587861
-0.0341314
0.572017
-0.0273445
0.557426
-0.0229663
0.562639
0.0204237
0.58805
0.0237481
0.638865
0.0844603
0.676788
0.0359113
0.674019
0.00635697
0.661765
-0.0196553
0.63456
-0.08041
0.604829
-0.0850819
0.546447
-0.14294
0.484638
-0.0198639
0.475775
0.0643329
0.492539
0.0937218
0.584946
0.173225
0.63513
0.0148969
0.624287
-0.106572
0.609203
-0.0833989
0.475377
-0.152919
0.38422
-0.0677719
0.524641
0.267113
0.616054
0.109893
0.558955
-0.123307
0.509733
-0.00877132
0.531
0.102218
0.551161
0.0184997
0.546648
-0.00195283
0.544108
0.016913
0.547475
0.00570352
0.550302
0.0046061
0.0113272
0.709543
-0.00501717
-0.71254
0.704082
-0.013302
0.696434
-0.0140735
0.687429
-0.0217579
0.675715
-0.021823
0.664707
-0.0250156
0.653087
-0.022512
0.642736
-0.0169936
0.634845
-0.015075
0.640415
0.0148536
0.656482
0.00768098
0.689264
0.0516784
0.711167
0.0140089
0.711021
0.00650231
0.711045
-0.019679
0.686468
-0.0558331
0.653851
-0.0524643
0.608868
-0.0979578
0.579633
0.00937123
0.601165
0.0428009
0.622762
0.0721248
0.689372
0.106615
0.712122
-0.00785313
0.671768
-0.0662184
0.661324
-0.0729546
0.580028
-0.0716235
0.503758
0.0084983
0.61495
0.155922
0.681947
0.0428951
0.624581
-0.0659399
0.582201
0.0336082
0.60776
0.0766591
0.622948
0.00331156
0.614129
0.00686585
0.611004
0.0200387
0.61296
0.00374738
0.613371
0.00419513
0.0108826
0.764188
-0.00249933
-0.766706
0.759879
-0.00899255
0.754165
-0.00835907
0.747195
-0.0147879
0.738889
-0.0135173
0.730471
-0.0165973
0.722577
-0.0146186
0.715698
-0.0101139
0.711596
-0.0109737
0.716517
0.00993288
0.725115
-0.000917235
0.745443
0.0313506
0.759959
-0.000507202
0.759417
0.0070447
0.756034
-0.0162965
0.738487
-0.0382855
0.71679
-0.0307681
0.685906
-0.0670734
0.675255
0.0200221
0.701603
0.0164526
0.718728
0.0550003
0.757838
0.0675053
0.765647
-0.0156625
0.727551
-0.0281219
0.718345
-0.0637485
0.678934
-0.0322132
0.641677
0.0457555
0.713315
0.0842839
0.744953
0.0112575
0.69962
-0.0206077
0.676888
0.056341
0.699887
0.0536595
0.706365
-0.0031659
0.696794
0.016437
0.694512
0.0223205
0.694501
0.00375823
0.692417
0.0062793
0.0120082
0.825869
-0.000715982
-0.827652
0.822481
-0.00560473
0.81859
-0.00446751
0.813246
-0.00944411
0.807695
-0.00796677
0.801511
-0.0104126
0.796389
-0.00949742
0.791961
-0.00568546
0.789668
-0.00868034
0.792809
0.0067916
0.797417
-0.0055249
0.809905
0.0188624
0.815967
-0.00656965
0.81775
0.00526159
0.815589
-0.0141356
0.803041
-0.0257369
0.787316
-0.0150432
0.766299
-0.0460566
0.764871
0.0214503
0.780681
0.000642798
0.795212
0.0404692
0.82184
0.0408767
0.822978
-0.0168003
0.796833
-0.00197656
0.782162
-0.0490774
0.762895
-0.0129464
0.761172
0.0474783
0.802702
0.0427536
0.80589
0.00807003
0.778271
0.00701109
0.777383
0.0572293
0.794
0.037042
0.792322
-0.00148728
0.785484
0.0232744
0.785069
0.0227352
0.7836
0.00522768
0.780574
0.00930539
0.0137625
0.894982
0.000498193
-0.896196
0.892398
-0.00302143
0.889883
-0.00195219
0.88593
-0.00549107
0.88241
-0.00444688
0.878039
-0.00604189
0.87468
-0.0061377
0.871909
-0.0029149
0.870073
-0.00684445
0.872444
0.00442043
0.873728
-0.00680816
0.881582
0.0110084
0.883479
-0.00846701
0.885435
0.00330583
0.881925
-0.0106262
0.873156
-0.0169674
0.864814
-0.00670114
0.849855
-0.0310976
0.852825
0.0184801
0.859725
-0.00625701
0.871282
0.0289117
0.887305
0.0248539
0.884234
-0.0137293
0.873432
0.00882575
0.859916
-0.0355614
0.848668
-0.00169832
0.857681
0.0384654
0.877737
0.0226977
0.873828
0.0119786
0.863237
0.0176021
0.872102
0.0483648
0.880497
0.028647
0.875363
0.00364642
0.873643
0.0249948
0.87484
0.0215376
0.872433
0.00763539
0.870064
0.0116735
0.0149304
0.971795
0.0012293
-0.972527
0.969884
-0.00111014
0.968356
-0.000423676
0.96556
-0.00269558
0.963351
-0.00223723
0.960394
-0.00308525
0.958069
-0.00381324
0.956452
-0.00129727
0.954689
-0.00508167
0.956417
0.00269218
0.955703
-0.00609428
0.960827
0.00588461
0.959666
-0.00730621
0.961648
0.00132438
0.958594
-0.00757219
0.952696
-0.0110699
0.94861
-0.00261487
0.937482
-0.0199696
0.942264
0.0136985
0.942612
-0.00660518
0.952549
0.018974
0.962803
0.0146004
0.958271
-0.00919739
0.955791
0.0113054
0.942272
-0.0220418
0.936225
0.00434813
0.947648
0.027043
0.956304
0.0140413
0.952589
0.0156941
0.949754
0.0204369
0.960161
0.0379581
0.964592
0.0242153
0.959658
0.00858063
0.961307
0.0233454
0.963057
0.0197881
0.960489
0.0102037
0.959301
0.0128612
0.0151619
1.0566
0.00161138
-1.05699
1.05531
0.000187938
1.05438
0.000506514
1.05252
-0.000845399
1.0511
-0.000808413
1.04923
-0.00121974
1.04751
-0.00209099
1.04664
-0.000429979
1.04486
-0.00330134
1.04613
0.00142566
1.04444
-0.00440576
1.04759
0.00272986
1.04563
-0.00534396
1.04691
4.11049e-05
1.04432
-0.0049745
1.04015
-0.00690358
1.03857
-0.00103877
1.03044
-0.0118307
1.03534
0.00879397
1.0333
-0.00456811
1.04063
0.0116483
1.04623
0.00899436
1.04174
-0.00469968
1.04335
0.00969639
1.03277
-0.0114626
1.03092
0.00619593
1.03851
0.0194524
1.04135
0.0111971
1.04128
0.0157644
1.04167
0.0200544
1.05022
0.029408
1.0529
0.0215332
1.0492
0.0122825
1.05225
0.0202903
1.05405
0.0179882
1.05189
0.0123654
1.05151
0.0132375
0.0148506
1.14991
0.00176911
-1.15007
1.14908
0.00102092
1.14854
0.00104244
1.14738
0.000312609
1.14645
0.000125337
1.14532
-8.74243e-05
1.14403
-0.000802911
1.14353
6.7316e-05
1.14196
-0.00173203
1.14271
0.000677415
1.1409
-0.00259839
1.14268
0.00095423
1.14057
-0.0032381
1.14122
-0.000610424
1.13921
-0.00296464
1.13641
-0.00409492
1.13589
-0.000522053
1.13032
-0.00626719
1.13422
0.00489846
1.13156
-0.00190641
1.13667
0.00654171
1.13965
0.0060144
1.13638
-0.00143365
1.13875
0.00732614
1.13083
-0.00354284
1.13101
0.00601186
1.13583
0.0146313
1.13706
0.00996899
1.13872
0.014107
1.13953
0.0192441
1.14636
0.0225757
1.14867
0.0192274
1.14629
0.0146581
1.14939
0.0171924
1.15098
0.0163966
1.14955
0.0137965
1.14965
0.0131346
0.0143343
1.25225
0.0017944
-1.25228
1.2518
0.00147852
1.25151
0.00132677
1.25083
0.000997211
1.25023
0.000726159
1.24954
0.000597872
1.24863
0.000111364
1.2483
0.000394973
1.24706
-0.000490933
1.24739
0.000345683
1.24585
-0.00105516
1.24666
0.000140864
1.24491
-0.00148895
1.24508
-0.000777567
1.24356
-0.00144732
1.24172
-0.0022513
1.24148
-0.000287466
1.23789
-0.00266976
1.2405
0.00228382
1.23831
0.000288255
1.24152
0.00332907
1.24278
0.00475742
1.24076
0.000585619
1.24273
0.00535377
1.23772
0.00146238
1.23894
0.00479263
1.24144
0.0121358
1.24206
0.00935162
1.24445
0.0117142
1.24575
0.0179442
1.25113
0.0171907
1.25313
0.0172261
1.25196
0.0158298
1.25474
0.0144178
1.25609
0.0150398
1.25546
0.0144325
1.25591
0.0126802
0.0137076
1.36442
0.00172914
-1.36435
1.36421
0.00168495
1.36409
0.00144408
1.36372
0.00136685
1.36338
0.00107325
1.36297
0.00100859
1.36236
0.000712877
1.3621
0.000658538
1.36122
0.000386268
1.36127
0.000294221
1.36011
0.000106325
1.36039
-0.000135958
1.35905
-0.00014534
1.35897
-0.000697344
1.35781
-0.000295923
1.35664
-0.00107554
1.35644
-8.66099e-05
1.35422
-0.00045435
1.3558
0.000711064
1.35418
0.0019018
1.35611
0.00140066
1.35656
0.00430483
1.3555
0.00165047
1.35693
0.003921
1.35395
0.00444333
1.35522
0.00352626
1.35674
0.0106147
1.35758
0.00851297
1.35977
0.00952469
1.36117
0.0165425
1.36543
0.0129263
1.36746
0.0152022
1.36729
0.015992
1.36954
0.0121748
1.37072
0.0138516
1.37083
0.0143287
1.37158
0.0119263
0.0129899
1.48725
0.00161122
-1.48713
1.48721
0.00172526
1.4872
0.001449
1.48704
0.00152887
1.48688
0.00124006
1.48664
0.00123951
1.48629
0.00106573
1.48609
0.000863972
1.48552
0.000950915
1.48543
0.000387362
1.48466
0.000878745
1.48464
-0.000119096
1.48372
0.000774569
1.48352
-0.000496957
1.4827
0.000520845
1.48196
-0.000336227
1.48174
0.000140323
1.48046
0.000817984
1.48126
-8.17936e-05
1.48027
0.00289257
1.48135
0.000320806
1.48145
0.00419906
1.48103
0.00206764
1.48189
0.00306074
1.48045
0.00588808
1.48159
0.00238396
1.48253
0.00967844
1.48356
0.0074783
1.48547
0.00761634
1.48704
0.0149691
1.49046
0.00951051
1.49238
0.0132874
1.49298
0.0153875
1.4948
0.0103524
1.49603
0.0126271
1.49674
0.0136195
1.49766
0.010998
0.0121167
1.62171
0.00145591
-1.62156
1.62179
0.00164947
1.62186
0.00137675
1.62184
0.00154677
1.62181
0.00127818
1.62171
0.00133628
1.62155
0.00122812
1.62141
0.00100083
1.62111
0.00125418
1.62096
0.000528341
1.62052
0.00132286
1.62038
2.37049e-05
1.61983
0.00132189
1.6196
-0.000261514
1.61908
0.00103293
1.61863
0.000115447
1.61841
0.000359891
1.61778
0.0014498
1.61808
-0.000376808
1.61764
0.00332869
1.61813
-0.000169974
1.61825
0.00408264
1.61817
0.00214235
1.61868
0.0025495
1.61827
0.00629724
1.61901
0.00164992
1.6199
0.00878208
1.6211
0.00628143
1.62267
0.00604476
1.6245
0.0131434
1.62715
0.00685461
1.62896
0.0114786
1.63006
0.0142854
1.63157
0.00884917
1.63305
0.0111445
1.6343
0.0123734
1.63527
0.0100246
0.0111421
1.76889
0.00127667
-1.76871
1.76905
0.00148557
1.76917
0.00125398
1.76927
0.00145286
1.76932
0.00122708
1.76933
0.00132393
1.76931
0.00125042
1.76924
0.00106963
1.76914
0.00134779
1.769
0.000671743
1.76884
0.00148498
1.76864
0.000222521
1.76843
0.00153457
1.76818
-1.8297e-05
1.76795
0.00126365
1.76772
0.000353555
1.76754
0.000532731
1.7674
0.00158928
1.76737
-0.000342663
1.76747
0.00322539
1.76755
-0.000251452
1.76786
0.00377888
1.76795
0.00204696
1.76815
0.00234805
1.76849
0.00595806
1.76877
0.00137453
1.76985
0.00769688
1.77108
0.00505979
1.77239
0.0047302
1.77467
0.0108665
1.77666
0.00486589
1.77831
0.00982356
1.77967
0.0129284
1.78085
0.007665
1.78281
0.00918624
1.78461
0.0105741
1.78551
0.00911972
0.010072
1.92984
0.00108379
-1.92965
1.9301
0.0012333
1.93025
0.0010959
1.93046
0.00124366
1.93058
0.00110538
1.93072
0.00119191
1.93082
0.00114592
1.93084
0.00105309
1.93095
0.00123071
1.93082
0.00080535
1.93097
0.00133488
1.93069
0.000500884
1.93086
0.00136765
1.93053
0.000308563
1.93062
0.00117293
1.93046
0.000520028
1.93033
0.000662638
1.93058
0.0013337
1.93017
7.27952e-05
1.93092
0.00247466
1.93046
0.00020325
1.93124
0.00300588
1.93135
0.00193367
1.93138
0.00232187
1.93258
0.00474981
1.93213
0.00183085
1.93389
0.0059316
1.93488
0.00406843
1.93574
0.00387339
1.93873
0.00788004
1.93957
0.00402313
1.94133
0.00806391
1.94349
0.0107693
1.94414
0.0070107
1.9464
0.0069275
1.94871
0.00826192
1.94956
0.0082719
0.00888262
2.10595
0.000862069
-2.10572
2.10624
0.000936835
2.10646
0.000883659
2.10674
0.000960398
2.10695
0.000897619
2.10718
0.000955377
2.10741
0.000920293
2.10755
0.000910165
2.10782
0.000957215
2.10782
0.000808373
2.10816
0.00099925
2.10799
0.000666869
2.10835
0.00101367
2.1081
0.00055484
2.10833
0.000937338
2.10824
0.000619522
2.10815
0.000750088
2.1085
0.000986072
2.10801
0.000558279
2.10889
0.00158984
2.10838
0.000720476
2.10933
0.00205695
2.10961
0.00165178
2.10985
0.00208446
2.11146
0.00313979
2.11113
0.00215781
2.1131
0.00395811
2.11388
0.00328892
2.11442
0.00333873
2.1171
0.00519303
2.11732
0.00381077
2.11934
0.00603887
2.12256
0.00755398
2.12356
0.00600186
2.12518
0.00530888
2.12725
0.0061997
2.12868
0.00684101
0.00718395
2.29886
0.000602528
-2.2986
2.29915
0.000642066
2.29942
0.000619706
2.29971
0.000663239
2.29998
0.000629041
2.30027
0.000671195
2.30055
0.000639217
2.3008
0.000661699
2.3011
0.000654475
2.30128
0.000626107
2.3016
0.000675406
2.3017
0.000570343
2.30202
0.000695813
2.30205
0.000520854
2.3023
0.000694043
2.30237
0.000543661
2.30246
0.000664809
2.30273
0.000708591
2.30266
0.000636473
2.30323
0.00101812
2.30321
0.000742634
2.30393
0.00133581
2.30441
0.00116883
2.30498
0.00151191
2.30622
0.00190044
2.30668
0.00170401
2.30815
0.00248365
2.30909
0.002353
2.30989
0.0025383
2.31171
0.00336889
2.31255
0.00297409
2.31457
0.00401888
2.31756
0.00455783
2.31937
0.0041994
2.3207
0.00397919
2.32249
0.00440412
2.32458
0.00475374
0.00501421
2.5101
0.000316082
-2.50981
2.51041
0.000331594
2.5107
0.000326748
2.51102
0.000344557
2.51132
0.000332353
2.51164
0.000352794
2.51194
0.000336181
2.51225
0.000355387
2.51256
0.000340153
2.51284
0.000348748
2.51317
0.000346436
2.5134
0.000333948
2.51374
0.000357192
2.51395
0.000317889
2.51427
0.000369979
2.51449
0.000321646
2.51477
0.000385682
2.5151
0.00037603
2.51533
0.000409607
2.51585
0.000497562
2.51612
0.000473351
2.5168
0.00066
2.51733
0.000632244
2.51803
0.000814707
2.51902
0.000908054
2.51975
0.000973462
2.52104
0.00120044
2.52214
0.00124814
2.5233
0.00137965
2.525
0.00166452
2.52633
0.00164462
2.52831
0.00204035
2.53066
0.00220644
2.53265
0.00221632
2.53451
0.00211403
2.53662
0.00230049
2.53886
0.00250907
0.00264142
2.74145
-2.74113
2.74178
2.7421
2.74245
2.74278
2.74313
2.74347
2.74382
2.74416
2.74451
2.74486
2.74519
2.74555
2.74587
2.74624
2.74656
2.74695
2.74732
2.74773
2.74823
2.7487
2.74936
2.75
2.75081
2.75172
2.75269
2.75389
2.75514
2.75652
2.75818
2.75983
2.76187
2.76408
2.76629
2.76841
2.77071
2.77322
0.435943
0.0420446
-0.428782
0.445169
0.069571
0.452735
0.100881
0.463037
0.127249
0.471857
0.158406
0.483999
0.182458
0.497401
0.212198
0.236046
0.467538
0.035736
-0.461229
0.475315
0.0617943
0.482644
0.0935517
0.491309
0.118584
0.500399
0.149316
0.50971
0.173148
0.520522
0.201385
0.225436
0.502826
0.0303874
-0.497478
0.50876
0.0558604
0.515039
0.0872732
0.521826
0.111796
0.529072
0.14207
0.536375
0.165845
0.545422
0.192339
0.214528
0.540916
0.0257799
-0.536309
0.545476
0.0513006
0.550639
0.0821102
0.555956
0.106479
0.562434
0.135592
0.56996
0.158319
0.578931
0.183367
0.205407
0.582639
0.0221542
-0.579013
0.586337
0.0476029
0.591091
0.0773559
0.596345
0.101225
0.602754
0.129184
0.609324
0.151749
0.61629
0.176402
0.197643
0.628697
0.0190816
-0.625624
0.631979
0.0443204
0.636337
0.0729979
0.640744
0.0968181
0.645789
0.124139
0.650937
0.1466
0.657313
0.170026
0.190229
0.679266
0.0166348
-0.676819
0.681852
0.0417342
0.685375
0.0694749
0.688995
0.0931977
0.693767
0.119367
0.699332
0.141036
0.705728
0.163629
0.183417
0.734868
0.014791
-0.733024
0.737038
0.0395642
0.740366
0.0661469
0.744131
0.0894326
0.749043
0.114456
0.75433
0.135748
0.760155
0.157804
0.176866
0.796524
0.0133212
-0.795055
0.798558
0.0375305
0.801729
0.0629761
0.805352
0.0858095
0.809921
0.109887
0.814996
0.130673
0.820988
0.151812
0.170202
0.864495
0.0121529
-0.863327
0.866376
0.0356499
0.869379
0.059973
0.872974
0.0822148
0.877691
0.10517
0.883083
0.12528
0.889383
0.145513
0.163389
0.939349
0.0111677
-0.938363
0.941201
0.0337978
0.944261
0.0569126
0.948064
0.078412
0.953072
0.100161
0.958702
0.11965
0.965329
0.138886
0.156191
1.0217
0.0102696
-1.0208
1.02359
0.0319021
1.02677
0.0537359
1.0308
0.0743791
1.03608
0.0948866