/*--------------------------------*- C++ -*----------------------------------*\
| =========                 |                                                 |
| \\      /  F ield         | OpenFOAM: The Open Source CFD Toolbox           |
|  \\    /   O peration     | Version:  2312                                  |
|   \\  /    A nd           | Website:  www.openfoam.com                      |
|    \\/     M anipulation  |                                                 |
\*---------------------------------------------------------------------------*/
FoamFile
{
    version     2.0;
    format      ascii;
    arch        "LSB;label=32;scalar=64";
    class       volVectorField;
    location    "8.1";
    object      U;
}
// * * * * * * * * * * * * * * * * * * * * * * * * * * * * * * * * * * * * * //

dimensions      [0 1 -1 0 0 0 0];

internalField   nonuniform List<vector> 
5478
(
(-0.0238145 0.0142871 -8.65178e-20)
(-0.055532 0.0534072 0)
(-0.0433398 0.08792 1.28861e-19)
(0.0172469 0.10643 -2.25675e-19)
(0.131813 0.110514 1.49265e-19)
(0.303036 0.107696 -4.18291e-20)
(0.52036 0.104091 -8.02187e-20)
(0.759128 0.100402 0)
(0.989781 0.0964472 0)
(1.18433 0.0873684 1.22449e-19)
(1.32194 0.0710411 -5.42837e-20)
(1.39071 0.0511759 -9.40426e-20)
(1.39705 0.0100436 -3.55381e-20)
(1.35246 0.00498828 0)
(1.29119 -0.062139 8.82831e-20)
(-0.0349515 0.0149965 1.72868e-19)
(-0.0580865 0.0297203 0)
(-0.01945 0.0399483 0)
(0.0983978 0.0489814 -1.12575e-19)
(0.2995 0.0609404 1.4869e-19)
(0.557385 0.0798158 4.41759e-20)
(0.826097 0.102132 -7.9555e-20)
(1.06314 0.121072 7.05329e-20)
(1.23958 0.129891 1.86556e-19)
(1.34284 0.123967 -1.64533e-19)
(1.37686 0.106401 5.70572e-21)
(1.3606 0.0758104 0)
(1.32346 0.0519722 3.54775e-20)
(1.29025 0.0263611 0)
(1.27941 -0.000211751 0)
(-0.0434953 0.0183323 -4.18193e-22)
(-0.0384122 0.0224353 -7.97269e-20)
(0.0660006 0.0241795 3.95933e-22)
(0.284487 0.0395964 0)
(0.577102 0.0721942 -5.05255e-20)
(0.869252 0.111579 4.37316e-20)
(1.1043 0.144579 3.79014e-20)
(1.25692 0.16196 0)
(1.32875 0.160449 -6.07979e-20)
(1.34126 0.145049 5.27221e-20)
(1.32481 0.120591 4.4962e-20)
(1.30699 0.100897 0)
(1.29629 0.0780676 0)
(1.28765 0.0659902 -9.19501e-20)
(1.26403 0.0448773 8.18699e-20)
(-0.0429514 0.0170649 -9.25316e-20)
(0.0130344 0.0152462 7.86217e-20)
(0.22004 0.0263829 -6.78276e-20)
(0.544018 0.0673996 6.00503e-20)
(0.869351 0.120482 1.01642e-19)
(1.11304 0.163681 -8.71314e-20)
(1.2537 0.186174 -3.78755e-20)
(1.31036 0.187815 3.13625e-20)
(1.31928 0.17653 -2.9223e-20)
(1.31278 0.159175 0)
(1.30676 0.143946 0)
(1.29805 0.125305 -6.20635e-20)
(1.28136 0.110551 8.10401e-20)
(1.25519 0.0938967 -4.56154e-20)
(1.23345 0.0732949 0)
(-0.02949 0.0107714 4.68063e-20)
(0.108599 0.00777717 3.96197e-20)
(0.439359 0.0506556 -1.42417e-19)
(0.813696 0.121119 1.80941e-21)
(1.09022 0.178766 -9.17702e-22)
(1.24092 0.2089 -9.74294e-22)
(1.29953 0.215201 3.57217e-20)
(1.31219 0.208299 3.11765e-20)
(1.30919 0.195647 2.31608e-20)
(1.30035 0.181835 -2.75846e-21)
(1.28448 0.164826 -5.37598e-20)
(1.26453 0.148827 0)
(1.24597 0.133002 2.54184e-20)
(1.23359 0.116271 -1.90917e-20)
(1.22131 0.10624 3.39475e-20)
(0.000519571 0.00267047 -1.00645e-19)
(0.257581 0.0147787 1.09137e-19)
(0.682826 0.102923 -3.78472e-20)
(1.0262 0.185943 2.91365e-20)
(1.21604 0.23134 -5.349e-20)
(1.2923 0.245223 -4.12568e-20)
(1.31061 0.242039 7.85141e-22)
(1.30542 0.231171 0)
(1.29099 0.217269 4.63326e-20)
(1.27334 0.201123 -4.1203e-20)
(1.25814 0.185972 1.70526e-20)
(1.24619 0.170744 0)
(1.23421 0.156522 1.05641e-20)
(1.21795 0.14278 -1.90256e-20)
(1.19936 0.130641 0)
(0.052754 -0.00190697 -1.25811e-20)
(0.447914 0.0524678 1.09365e-21)
(0.892622 0.17307 1.83105e-20)
(1.16296 0.249407 3.15235e-20)
(1.27827 0.278119 -2.4743e-20)
(1.3082 0.279819 4.19016e-20)
(1.30222 0.269719 -9.49643e-21)
(1.28547 0.25537 0)
(1.26858 0.239521 -2.69992e-20)
(1.25428 0.224161 1.55151e-21)
(1.23976 0.208409 2.28755e-20)
(1.22331 0.193026 0)
(1.20671 0.178297 -1.53424e-20)
(1.19336 0.16282 0)
(1.18207 0.15441 9.60765e-21)
(0.129168 0.00564463 -1.39451e-20)
(0.639189 0.121601 0)
(1.04599 0.250278 1.96185e-20)
(1.24073 0.31068 0)
(1.29996 0.323216 0)
(1.30005 0.314339 0)
(1.2829 0.298795 -8.2565e-21)
(1.2641 0.281575 0)
(1.24619 0.264238 5.41108e-21)
(1.22846 0.24663 0)
(1.21251 0.229761 -7.17137e-21)
(1.19964 0.213639 0)
(1.18856 0.198237 4.77272e-21)
(1.17647 0.184833 0)
(1.16281 0.174189 3.16437e-21)
(-0.0447237 0.00538531 -7.61054e-21)
(-0.158373 0.00313144 0)
(-0.293672 -0.00281468 1.38384e-20)
(-0.407663 -0.0080537 0)
(-0.509315 -0.0131039 0)
(-0.596325 -0.0182683 0)
(-0.667787 -0.0238035 -1.29823e-20)
(-0.722085 -0.0298234 0)
(-0.757967 -0.0362333 1.15093e-20)
(-0.774136 -0.0426001 0)
(-0.769709 -0.0482482 -1.83417e-20)
(-0.743758 -0.0521763 0)
(-0.69557 -0.0525398 1.2752e-20)
(-0.624367 -0.0481262 0)
(-0.532487 -0.0373743 7.23449e-21)
(-0.0513931 0.105532 3.93883e-20)
(-0.157548 0.146371 -2.98584e-20)
(-0.278906 0.137092 1.57739e-20)
(-0.378852 0.121588 5.83577e-20)
(-0.464983 0.104131 3.07422e-21)
(-0.535129 0.0838779 -5.41094e-20)
(-0.588723 0.0605715 3.81153e-20)
(-0.624857 0.0342607 0)
(-0.643116 0.00520429 3.57914e-20)
(-0.643219 -0.0263831 2.5072e-22)
(-0.625668 -0.0603274 -1.93374e-20)
(-0.590782 -0.0959867 0)
(-0.53906 -0.131549 -4.05082e-20)
(-0.465338 -0.163343 0)
(-0.36182 -0.187276 -3.3708e-20)
(-0.0582215 0.176582 7.14369e-20)
(-0.142858 0.263538 1.78452e-20)
(-0.229453 0.259814 -2.95367e-20)
(-0.295459 0.238322 -9.20806e-20)
(-0.345688 0.211785 5.57969e-20)
(-0.378263 0.180545 6.02117e-20)
(-0.392671 0.144838 -1.09982e-19)
(-0.388711 0.105394 0)
(-0.367185 0.0630841 -1.0031e-19)
(-0.329606 0.0180021 8.91844e-20)
(-0.278521 -0.0294637 4.07763e-20)
(-0.214495 -0.0805912 0)
(-0.139349 -0.134952 2.77266e-20)
(-0.0692165 -0.19946 -4.90664e-20)
(0.0673489 -0.256516 0)
(-0.0609622 0.200395 4.11175e-20)
(-0.120906 0.333655 -1.0793e-19)
(-0.165115 0.349343 1.34173e-19)
(-0.190413 0.328508 -1.25558e-19)
(-0.199621 0.296515 -6.1901e-20)
(-0.190733 0.257776 5.95858e-20)
(-0.163735 0.213131 5.65793e-20)
(-0.119327 0.163897 5.37941e-20)
(-0.0602143 0.111025 -1.52502e-19)
(0.012439 0.0554001 -1.36008e-21)
(0.0945652 0.000365663 4.16153e-20)
(0.181941 -0.0622645 0)
(0.295171 -0.107073 6.05908e-20)
(0.363263 -0.18621 1.44164e-19)
(0.548127 -0.231975 -8.48009e-20)
(-0.0557514 0.17605 1.50197e-21)
(-0.0966636 0.343512 7.6383e-20)
(-0.102852 0.393718 -6.90594e-20)
(-0.0885615 0.386067 6.43824e-20)
(-0.0583588 0.35472 1.22466e-19)
(-0.0115115 0.312436 -1.17096e-19)
(0.0511923 0.263101 -5.45119e-20)
(0.127681 0.208391 -1.62354e-19)
(0.21321 0.149261 1.46392e-19)
(0.306559 0.0867553 0)
(0.404952 0.0318565 0)
(0.50669 -0.0427968 1.38016e-19)
(0.636037 -0.0874874 -2.99898e-19)
(0.718132 -0.179049 1.03776e-19)
(0.914886 -0.220598 0)
(-0.0430838 0.12104 4.75978e-22)
(-0.0743127 0.288999 -7.6652e-20)
(-0.0567661 0.372896 2.0781e-19)
(-0.013047 0.390932 -6.20078e-20)
(0.0487077 0.371653 -6.06148e-20)
(0.125249 0.332625 5.75591e-20)
(0.213229 0.282346 5.45205e-20)
(0.308334 0.225622 1.00512e-19)
(0.408464 0.166971 -1.75971e-19)
(0.517629 0.106896 7.94916e-20)
(0.632666 0.0496827 7.14634e-20)
(0.76609 -0.0233256 0)
(0.906396 -0.0704886 0)
(1.02997 -0.162631 1.77597e-19)
(1.19681 -0.188866 -1.57801e-19)
(-0.0284806 0.0646411 -5.16019e-22)
(-0.0569744 0.195849 0)
(-0.0339364 0.287013 0)
(0.021176 0.322645 1.21941e-19)
(0.0981639 0.317851 -5.48263e-20)
(0.189985 0.2886 4.84418e-20)
(0.29228 0.245948 9.69142e-20)
(0.405194 0.199296 -8.59411e-20)
(0.53351 0.14782 8.68107e-20)
(0.679706 0.0977744 -7.95743e-20)
(0.841085 0.0393233 -7.06567e-21)
(1.01381 -0.0139775 0)
(1.16169 -0.0637129 4.74562e-20)
(1.29273 -0.130656 0)
(1.36348 -0.142024 0)
(-0.0201988 0.0278749 -8.78606e-20)
(-0.0498212 0.108454 0)
(-0.0339108 0.177044 -1.30884e-19)
(0.0179724 0.209512 2.3042e-19)
(0.0983422 0.211387 -2.57959e-19)
(0.205758 0.194606 -5.21118e-20)
(0.343167 0.168353 8.41391e-20)
(0.511339 0.138836 0)
(0.70594 0.105 0)
(0.90905 0.0749536 -1.36964e-19)
(1.10316 0.0353984 -6.29321e-20)
(1.26075 0.0103588 1.07163e-19)
(1.3635 -0.0377748 -4.75414e-20)
(1.41021 -0.0644349 0)
(1.37033 -0.0873037 -1.06307e-19)
(-0.374418 -0.0132411 0)
(-0.128853 0.00978093 -1.52273e-22)
(0.128462 0.0331734 1.54639e-22)
(0.341269 0.0450573 0)
(0.512032 0.0503 0)
(0.639448 0.0530594 4.36284e-23)
(0.732761 0.0541318 0)
(0.80105 0.0537267 0)
(0.851255 0.0526427 -1.95948e-23)
(0.887821 0.0513 0)
(0.914077 0.0498451 0)
(0.932851 0.0486085 1.75825e-23)
(0.946369 0.0478581 0)
(0.956291 0.0475839 1.07574e-23)
(0.963777 0.0476294 8.55456e-24)
(0.969591 0.0478838 0)
(0.974176 0.0482942 4.1429e-23)
(0.977894 0.0488461 -4.87077e-23)
(0.980861 0.0495475 0)
(0.983456 0.0503773 -2.37993e-23)
(0.985357 0.0515513 2.7468e-23)
(0.987488 0.0523687 -5.07589e-24)
(0.988367 0.0552103 7.26194e-24)
(0.990739 0.0532594 -6.93898e-24)
(0.990289 0.0645057 5.43403e-24)
(0.99342 0.0469652 0)
(0.991995 0.0867505 3.36289e-24)
(0.994995 0.0351159 -3.21545e-24)
(0.993981 0.0951843 2.49429e-24)
(0.996987 0.0793801 0)
(0.994519 0.0427309 1.47727e-24)
(0.996716 0.0987952 0)
(1.00122 0.139567 -4.49279e-24)
(0.999769 0.100456 -5.11765e-24)
(0.996843 0.0271633 7.98493e-25)
(0.995435 -0.0162022 -6.3778e-24)
(0.995195 -0.0423549 0)
(0.995777 -0.03172 2.05439e-24)
(-0.215202 -0.187923 1.2182e-20)
(-0.0153819 -0.182373 -9.96036e-24)
(0.206827 -0.132672 2.79134e-21)
(0.392555 -0.0802194 -2.66203e-21)
(0.543256 -0.0386875 0)
(0.657493 -0.0104199 -4.39694e-23)
(0.741622 0.00803336 6.63908e-23)
(0.804239 0.0207464 0)
(0.851777 0.0296042 1.97421e-23)
(0.887375 0.0353401 0)
(0.913372 0.0389971 0)
(0.932174 0.0412973 -1.77083e-23)
(0.945819 0.0428858 0)
(0.955879 0.0441359 -3.30278e-22)
(0.963497 0.0451826 2.78918e-22)
(0.969436 0.0461095 -2.05853e-22)
(0.974133 0.0469782 1.96498e-22)
(0.977943 0.047849 9.20791e-24)
(0.980994 0.0487724 0)
(0.983647 0.0497682 0)
(0.98563 0.0510621 5.35336e-24)
(0.987777 0.0519759 -3.89818e-23)
(0.988777 0.0549057 6.21885e-23)
(0.991113 0.0529627 -2.7998e-23)
(0.9908 0.064377 -1.64765e-23)
(0.99401 0.0466246 0)
(0.99239 0.0867647 -7.55961e-24)
(0.995982 0.0349159 0)
(0.994523 0.0948321 -2.50306e-24)
(0.997422 0.0797087 3.67645e-24)
(0.996074 0.0425685 -6.48382e-24)
(0.997666 0.0981744 -1.37316e-24)
(1.00139 0.139464 4.58441e-24)
(1.00039 0.100909 -3.77721e-25)
(0.998118 0.0275458 6.39657e-24)
(0.996872 -0.0160616 -5.597e-24)
(0.996597 -0.0423697 -5.79195e-25)
(0.996998 -0.0317716 6.14538e-25)
(0.172848 -0.326061 1.59934e-20)
(0.297503 -0.328598 -1.8232e-20)
(0.439204 -0.267102 6.52103e-21)
(0.561114 -0.18533 -3.50798e-21)
(0.660887 -0.111652 -8.20088e-23)
(0.736419 -0.0609484 7.53794e-23)
(0.793218 -0.0284432 -6.75337e-23)
(0.836715 -0.00628976 9.83976e-23)
(0.870666 0.0100669 0)
(0.897403 0.0219571 -1.76606e-21)
(0.91829 0.0299562 1.68455e-21)
(0.934347 0.0351779 3.60446e-23)
(0.946657 0.0386626 0)
(0.956136 0.0411235 6.53426e-22)
(0.963541 0.0429571 -6.05807e-22)
(0.969437 0.0444203 2.10303e-22)
(0.974162 0.0456697 -2.0067e-22)
(0.97802 0.0468199 -1.59784e-22)
(0.981132 0.0479487 1.34461e-22)
(0.983831 0.0491 0)
(0.985894 0.050512 0)
(0.988054 0.0515091 -7.00399e-23)
(0.989178 0.0545429 6.6866e-23)
(0.991474 0.0525788 5.03914e-23)
(0.991297 0.0642158 -5.86463e-24)
(0.994596 0.0462009 -4.04574e-23)
(0.992751 0.0867186 -6.21055e-26)
(0.996984 0.0346986 1.19902e-23)
(0.995036 0.0943111 -2.42838e-23)
(0.997827 0.0800711 1.89509e-23)
(0.997647 0.0423635 -4.8236e-25)
(0.998593 0.0973697 1.89046e-24)
(1.00151 0.139349 9.60218e-24)
(1.00097 0.101473 -9.18091e-24)
(0.999358 0.0280415 -6.33522e-24)
(0.998284 -0.0158517 -5.1213e-24)
(0.997983 -0.0423513 1.40563e-23)
(0.998216 -0.0318131 2.22944e-24)
(0.605832 -0.357174 0)
(0.670885 -0.39999 7.54234e-21)
(0.712663 -0.343296 -7.41892e-21)
(0.749817 -0.252055 0)
(0.787126 -0.163846 8.42892e-23)
(0.819581 -0.0964628 -7.74519e-23)
(0.847665 -0.052477 0)
(0.871874 -0.0244263 -8.87544e-24)
(0.892805 -0.00524274 7.43877e-23)
(0.910383 0.00947236 0)
(0.925111 0.0203515 1.36868e-21)
(0.937598 0.0279971 -1.34193e-21)
(0.948033 0.0333808 5.74812e-23)
(0.956617 0.0372617 6.68854e-22)
(0.963651 0.0401302 -6.37791e-22)
(0.96944 0.0423407 -2.91883e-23)
(0.974174 0.0441236 0)
(0.978078 0.0456506 1.92998e-23)
(0.981253 0.0470433 -2.40305e-22)
(0.983999 0.0483785 2.81066e-23)
(0.986142 0.0499278 2.22448e-23)
(0.988314 0.0509977 1.4268e-22)
(0.989563 0.0541559 1.05714e-22)
(0.99182 0.0521237 -1.29937e-22)
(0.991776 0.0640394 1.1424e-23)
(0.99517 0.0456958 0)
(0.993088 0.0866429 7.80037e-24)
(0.997973 0.0344815 -1.21482e-23)
(0.995525 0.0936282 2.48447e-23)
(0.998218 0.0804788 -1.94129e-23)
(0.999197 0.0421335 3.06943e-24)
(0.99949 0.0963739 0)
(1.0016 0.139217 -9.51183e-24)
(1.00154 0.102158 2.01857e-23)
(1.00055 0.0286468 1.25476e-23)
(0.999656 -0.0155778 2.2466e-23)
(0.999337 -0.0423041 -1.40662e-23)
(0.999427 -0.0318464 1.05114e-25)
(0.933138 -0.35192 4.71889e-22)
(0.959294 -0.414959 5.35988e-22)
(0.931666 -0.366185 0)
(0.893578 -0.277668 0)
(0.876807 -0.188961 0)
(0.874715 -0.118961 0)
(0.880966 -0.069914 -3.10191e-21)
(0.892364 -0.0367511 5.6595e-21)
(0.905912 -0.0140903 -2.73226e-21)
(0.919235 0.00276826 0)
(0.930912 0.0155265 1.35383e-21)
(0.941109 0.0242821 -1.3339e-21)
(0.950037 0.0303682 -9.30971e-22)
(0.95769 0.0347574 7.83693e-22)
(0.964189 0.0380519 -5.54413e-22)
(0.969707 0.0406404 5.58377e-22)
(0.974329 0.0427478 2.45164e-23)
(0.978201 0.0445392 2.99737e-22)
(0.981395 0.0461405 -2.85601e-22)
(0.984165 0.047629 -2.7682e-23)
(0.986375 0.0493079 -2.3216e-23)
(0.988556 0.0504335 -1.28532e-22)
(0.989925 0.0537307 1.40977e-22)
(0.992148 0.0515901 2.81497e-23)
(0.992229 0.0638322 1.19135e-23)
(0.995726 0.0450884 9.87152e-24)
(0.993408 0.08651 0)
(0.998926 0.0342447 0)
(0.995994 0.0927889 0)
(0.99861 0.0809227 0)
(1.00068 0.0418648 -6.95469e-24)
(1.00035 0.0952035 3.66397e-24)
(1.00173 0.139053 1.889e-23)
(1.00211 0.102934 -7.96785e-23)
(1.00169 0.0293422 1.24776e-23)
(1.00097 -0.0152507 4.69055e-24)
(1.00065 -0.0422339 -1.74932e-23)
(1.00063 -0.0318742 -5.57332e-24)
(1.18011 -0.313441 -4.96557e-22)
(1.15052 -0.374418 3.11262e-20)
(1.07315 -0.347813 -2.99358e-20)
(0.98425 -0.277321 -2.63643e-21)
(0.929137 -0.201531 2.51084e-21)
(0.904898 -0.135761 -4.91066e-21)
(0.899838 -0.0868334 4.55899e-21)
(0.904379 -0.0526262 -7.18484e-23)
(0.913573 -0.0277256 7.314e-23)
(0.924196 -0.00931095 0)
(0.933991 0.00553811 4.82147e-23)
(0.942821 0.0168161 -2.23497e-21)
(0.950959 0.0249311 2.12761e-21)
(0.95816 0.0308009 4.87567e-23)
(0.964405 0.0351446 0)
(0.969799 0.0384759 4.98521e-22)
(0.974383 0.041111 -8.50846e-22)
(0.978261 0.0432761 3.41442e-22)
(0.981493 0.0451471 0)
(0.984296 0.0468197 -1.87962e-22)
(0.986577 0.0486584 4.79904e-23)
(0.988772 0.0498379 1.73339e-22)
(0.990254 0.0533187 1.47302e-22)
(0.992456 0.0510163 -1.38354e-22)
(0.992649 0.0636714 9.21718e-23)
(0.996257 0.0444342 -1.16219e-23)
(0.993717 0.0863795 -8.06403e-23)
(0.999824 0.0340614 4.73794e-23)
(0.996452 0.0917995 -4.50589e-23)
(0.999014 0.0814493 9.62949e-24)
(1.00206 0.0416442 -9.1558e-24)
(1.00117 0.09387 0)
(1.00191 0.138874 1.88133e-23)
(1.00269 0.103843 6.50194e-24)
(1.00276 0.0301867 0)
(1.00221 -0.0148528 -2.24895e-23)
(1.0019 -0.0421406 1.18218e-23)
(1.00181 -0.0318996 -2.29461e-24)
(1.31324 -0.25252 0)
(1.24355 -0.292269 0)
(1.14018 -0.292446 -1.10775e-22)
(1.03674 -0.249089 0)
(0.966455 -0.190413 0)
(0.930028 -0.133455 -2.95363e-21)
(0.915032 -0.0884718 2.83622e-21)
(0.91393 -0.0559286 -4.43697e-21)
(0.919783 -0.031965 4.23725e-21)
(0.928635 -0.0128514 0)
(0.937766 0.00193375 4.56889e-23)
(0.945806 0.0136188 -3.78138e-23)
(0.953064 0.0220173 1.89426e-21)
(0.959563 0.028171 -2.73427e-22)
(0.96527 0.0328497 -1.42405e-21)
(0.970293 0.0365528 -1.65113e-23)
(0.974662 0.0395464 1.34511e-23)
(0.978433 0.0420184 -6.36392e-22)
(0.981636 0.0441368 6.2553e-22)
(0.98444 0.0459848 0)
(0.986769 0.0479792 0)
(0.988977 0.0492033 1.06953e-23)
(0.990554 0.0528639 0)
(0.99275 0.0503904 -1.22643e-22)
(0.993038 0.0634501 6.9719e-24)
(0.996754 0.043709 9.10569e-23)
(0.994031 0.0861665 8.16167e-23)
(1.00064 0.0338098 -5.39098e-23)
(0.99689 0.0907134 5.24036e-24)
(0.99947 0.0819292 0)
(1.00329 0.0413049 4.25292e-24)
(1.00193 0.0925001 -4.03229e-24)
(1.0022 0.138645 5.91666e-24)
(1.00334 0.104738 1.41361e-23)
(1.00376 0.0310189 -1.22513e-23)
(1.00335 -0.0144479 1.05733e-23)
(1.00307 -0.0420411 0)
(1.00298 -0.0319249 4.57381e-24)
(1.31494 -0.172144 6.52032e-20)
(1.24663 -0.211533 4.0707e-20)
(1.15732 -0.237651 -1.20657e-20)
(1.07064 -0.231938 -3.98248e-20)
(0.999285 -0.203934 1.38867e-20)
(0.955161 -0.164913 -2.78739e-24)
(0.933753 -0.121615 0)
(0.926912 -0.0834882 3.01882e-23)
(0.928519 -0.0528154 3.121e-23)
(0.933868 -0.0278787 0)
(0.940612 -0.0089629 2.75753e-21)
(0.947759 0.00538676 -2.62405e-21)
(0.954575 0.0164374 -3.30816e-23)
(0.960817 0.0244113 -1.58115e-21)
(0.966267 0.0302186 1.50046e-21)
(0.971024 0.0346313 -1.75367e-23)
(0.97517 0.0380915 -1.42648e-23)
(0.978789 0.040876 0)
(0.981912 0.0432179 -5.80668e-22)
(0.984676 0.0451968 5.50499e-22)
(0.987018 0.047344 2.02593e-22)
(0.989226 0.0485382 -3.25783e-23)
(0.99087 0.0524789 -1.61649e-22)
(0.993068 0.0496238 1.29036e-22)
(0.993426 0.0634196 -2.0783e-23)
(0.997255 0.042752 -1.88908e-22)
(0.994366 0.086059 6.91533e-23)
(1.00141 0.0337363 -5.92842e-23)
(0.997328 0.0891123 4.38916e-23)
(0.999966 0.0828569 0)
(1.00438 0.0411376 0)
(1.00266 0.0904813 0)
(1.00256 0.138349 1.27535e-23)
(1.004 0.106158 -5.37369e-24)
(1.00467 0.0323688 2.54775e-23)
(1.0044 -0.0138431 -1.45081e-23)
(1.00418 -0.0418916 -8.9981e-24)
(1.00413 -0.0319363 0)
(1.26602 -0.0820453 0)
(1.22976 -0.11554 0)
(1.16242 -0.132231 0)
(1.09641 -0.136413 0)
(1.04151 -0.128123 0)
(1.00277 -0.111232 0)
(0.978437 -0.0890483 0)
(0.963543 -0.0671643 0)
(0.955194 -0.0480539 0)
(0.951955 -0.0306475 0)
(0.952422 -0.0142435 0)
(0.955757 -0.000505758 0)
(0.960327 0.0103168 0)
(0.964753 0.0188301 0)
(0.968963 0.0254943 0)
(0.9729 0.0307485 0)
(0.976514 0.0349502 0)
(0.979793 0.0383458 0)
(0.982706 0.0411832 0)
(0.985344 0.0435323 0)
(0.987616 0.0459932 0)
(0.989796 0.0473685 0)
(0.991435 0.0515395 0)
(0.993645 0.0487076 0)
(0.994064 0.0627003 0)
(0.997868 0.0420578 0)
(0.995114 0.0853236 0)
(1.0022 0.033402 0)
(0.997886 0.0881425 0)
(1.0011 0.0823739 0)
(1.00539 0.0408015 0)
(1.00326 0.0894461 0)
(1.00339 0.137605 0)
(1.0052 0.106263 0)
(1.00579 0.0328722 0)
(1.00554 -0.0134194 0)
(1.00546 -0.0416928 0)
(1.00553 -0.0319469 0)
(1.20864 -0.0549163 0)
(1.18848 -0.100933 0)
(1.13932 -0.129473 0)
(1.08938 -0.140809 0)
(1.04655 -0.135993 0)
(1.01437 -0.120214 0)
(0.991578 -0.0978515 0)
(0.976216 -0.0736529 0)
(0.967681 -0.0502813 0)
(0.96378 -0.0290269 0)
(0.962346 -0.0116207 0)
(0.962495 0.00168595 0)
(0.9644 0.0117627 0)
(0.967557 0.0195718 0)
(0.970942 0.0256215 0)
(0.974374 0.0304005 0)
(0.977704 0.0343004 0)
(0.980808 0.0375532 0)
(0.983599 0.0403671 0)
(0.986155 0.0427567 0)
(0.988368 0.0452836 0)
(0.990542 0.0467596 0)
(0.992144 0.0509291 0)
(0.994432 0.0483218 0)
(0.99483 0.0620416 0)
(0.998673 0.0418712 0)
(0.99611 0.0846853 0)
(1.00303 0.0328891 0)
(0.998913 0.0881938 0)
(1.00255 0.0816738 0)
(1.00626 0.0401743 0)
(1.00423 0.0895 0)
(1.00502 0.137808 0)
(1.00685 0.106053 0)
(1.00724 0.032434 0)
(1.00708 -0.0136143 0)
(1.00713 -0.0417895 0)
(1.00727 -0.0319818 0)
(1.17442 -0.0240194 0)
(1.16431 -0.0558802 0)
(1.13165 -0.0743638 0)
(1.09331 -0.0814651 0)
(1.05665 -0.079855 0)
(1.02659 -0.0727399 0)
(1.00391 -0.06211 0)
(0.987296 -0.0497452 0)
(0.977199 -0.0367617 0)
(0.971387 -0.023491 0)
(0.967945 -0.0113133 0)
(0.967678 -0.000810137 0)
(0.969565 0.00856691 0)
(0.971835 0.0164752 0)
(0.974282 0.0229549 0)
(0.976926 0.0282284 0)
(0.979652 0.0325545 0)
(0.982326 0.0361367 0)
(0.984827 0.0392023 0)
(0.987206 0.0417792 0)
(0.989296 0.0444567 0)
(0.991439 0.0460517 0)
(0.99297 0.0502907 0)
(0.995337 0.0478312 0)
(0.995678 0.0614205 0)
(0.999581 0.0416107 0)
(0.997246 0.0841355 0)
(1.00389 0.0325468 0)
(1.00019 0.0882903 0)
(1.0041 0.0809078 0)
(1.00717 0.0399329 0)
(1.00553 0.0898488 0)
(1.00708 0.137769 0)
(1.00886 0.105788 0)
(1.00894 0.0324921 0)
(1.00877 -0.013517 0)
(1.00894 -0.0417846 0)
(1.00918 -0.0320184 0)
(1.13933 -0.0046763 0)
(1.13373 -0.0315104 0)
(1.11162 -0.0512068 0)
(1.08293 -0.0627872 0)
(1.05458 -0.0669189 0)
(1.03132 -0.0646127 0)
(1.0137 -0.0572914 0)
(0.999507 -0.0468895 0)
(0.989344 -0.0350197 0)
(0.982546 -0.0223824 0)
(0.977798 -0.0100487 0)
(0.975319 0.000619448 0)
(0.975088 0.00903946 0)
(0.976116 0.0160906 0)
(0.977641 0.0220172 0)
(0.979596 0.0269909 0)
(0.981812 0.0312239 0)
(0.984094 0.034846 0)
(0.986292 0.0380152 0)
(0.988462 0.0407098 0)
(0.990394 0.0434989 0)
(0.992482 0.0452044 0)
(0.993923 0.0495045 0)
(0.996356 0.0471762 0)
(0.996657 0.0607331 0)
(1.00061 0.0411614 0)
(0.998515 0.0835738 0)
(1.00486 0.032025 0)
(1.00161 0.0880497 0)
(1.00577 0.080229 0)
(1.0082 0.0395239 0)
(1.00705 0.0896799 0)
(1.00944 0.137511 0)
(1.01113 0.105593 0)
(1.01087 0.0323688 0)
(1.01067 -0.0135522 0)
(1.01096 -0.0418491 0)
(1.01127 -0.0320811 0)
(1.11021 0.00805918 0)
(1.10923 -0.0110304 0)
(1.09573 -0.0266117 0)
(1.07579 -0.0361982 0)
(1.0544 -0.040294 0)
(1.03572 -0.0398535 0)
(1.02019 -0.0361598 0)
(1.00661 -0.0305405 0)
(0.99695 -0.0235522 0)
(0.990282 -0.0150274 0)
(0.984619 -0.0061352 0)
(0.981201 0.00178679 0)
(0.980368 0.00892557 0)
(0.980667 0.0153407 0)
(0.981392 0.0209921 0)
(0.982619 0.0258616 0)
(0.984249 0.0300585 0)
(0.986081 0.0336869 0)
(0.987942 0.0368994 0)
(0.989882 0.0396633 0)
(0.991646 0.0425321 0)
(0.993661 0.0443284 0)
(0.995015 0.0486839 0)
(0.997494 0.0464742 0)
(0.997771 0.0600199 0)
(1.00175 0.0405765 0)
(0.999877 0.0829474 0)
(1.00598 0.0313616 0)
(1.00314 0.0876262 0)
(1.00755 0.079583 0)
(1.00943 0.0389214 0)
(1.00877 0.0892803 0)
(1.01198 0.13719 0)
(1.0136 0.105413 0)
(1.01303 0.0323383 0)
(1.0128 -0.0135449 0)
(1.01319 -0.0419144 0)
(1.01356 -0.0321544 0)
(1.08903 0.0177483 0)
(1.08902 0.00368586 0)
(1.08011 -0.00897343 0)
(1.06633 -0.0179016 0)
(1.05023 -0.0231596 0)
(1.0357 -0.0251419 0)
(1.02328 -0.0241956 0)
(1.01175 -0.0210104 0)
(1.00326 -0.0162355 0)
(0.997223 -0.010044 0)
(0.991467 -0.00296242 0)
(0.98729 0.00385082 0)
(0.985602 0.0099519 0)
(0.98515 0.0155203 0)
(0.985158 0.0205876 0)
(0.985736 0.0250986 0)
(0.986835 0.0290966 0)
(0.988248 0.0326404 0)
(0.989778 0.0358452 0)
(0.991479 0.0386451 0)
(0.993062 0.0415662 0)
(0.994986 0.0434281 0)
(0.996254 0.0478335 0)
(0.998751 0.0456932 0)
(0.999015 0.059258 0)
(1.00301 0.0398467 0)
(1.00134 0.0822909 0)
(1.0073 0.0306226 0)
(1.00477 0.0870556 0)
(1.00943 0.0789685 0)
(1.01093 0.0382541 0)
(1.01069 0.0887285 0)
(1.01464 0.136785 0)
(1.01625 0.105266 0)
(1.01544 0.0323315 0)
(1.01518 -0.0135524 0)
(1.01566 -0.0420079 0)
(1.01608 -0.0322461 0)
(1.07092 0.024547 0)
(1.07146 0.0137976 0)
(1.06621 0.00404406 0)
(1.05713 -0.00346677 0)
(1.04534 -0.00853526 0)
(1.03449 -0.0112519 0)
(1.02482 -0.0116475 0)
(1.01494 -0.0102524 0)
(1.00758 -0.00756222 0)
(1.00246 -0.00357113 0)
(0.997 0.00146643 0)
(0.992464 0.00664421 0)
(0.990279 0.0115201 0)
(0.989359 0.0161746 0)
(0.988849 0.0205988 0)
(0.988895 0.0246835 0)
(0.989524 0.0284068 0)
(0.990549 0.0317855 0)
(0.991764 0.0349055 0)
(0.993228 0.0376767 0)
(0.99463 0.0406017 0)
(0.996453 0.0424903 0)
(0.997637 0.0469286 0)
(1.00014 0.0448122 0)
(1.0004 0.05844 0)
(1.00442 0.038982 0)
(1.00291 0.0815915 0)
(1.0088 0.0297855 0)
(1.00652 0.0862949 0)
(1.01144 0.0783691 0)
(1.0127 0.0374881 0)
(1.01281 0.0879331 0)
(1.01744 0.136244 0)
(1.01911 0.105116 0)
(1.01811 0.032343 0)
(1.01783 -0.0135645 0)
(1.01841 -0.0421222 0)
(1.01884 -0.032353 0)
(1.05602 0.0292477 0)
(1.05737 0.0214086 0)
(1.05427 0.0140086 0)
(1.04826 0.00779565 0)
(1.03967 0.00311232 0)
(1.03175 2.97539e-05 0)
(1.02455 -0.00135145 0)
(1.01639 -0.00123366 0)
(1.01027 5.84914e-05 0)
(1.00625 0.00246206 0)
(1.00144 0.00585566 0)
(0.996911 0.00967331 0)
(0.994452 0.0134817 0)
(0.993233 0.0172637 0)
(0.992365 0.0210009 0)
(0.992006 0.0245825 0)
(0.99225 0.027952 0)
(0.992941 0.0310923 0)
(0.993873 0.0340635 0)
(0.995114 0.0367524 0)
(0.996344 0.0396404 0)
(0.998062 0.0415166 0)
(0.999166 0.0459722 0)
(1.00166 0.0438388 0)
(1.00192 0.0575611 0)
(1.00597 0.0379775 0)
(1.00461 0.0808075 0)
(1.0105 0.028833 0)
(1.00842 0.0853201 0)
(1.01358 0.0777454 0)
(1.01474 0.0365839 0)
(1.01516 0.0868565 0)
(1.02039 0.135546 0)
(1.02219 0.104954 0)
(1.02109 0.0323691 0)
(1.02079 -0.0135848 0)
(1.02146 -0.0422579 0)
(1.02189 -0.0324737 0)
(1.04446 0.0326038 0)
(1.04579 0.0267409 0)
(1.04387 0.0210691 0)
(1.04007 0.0160758 0)
(1.03393 0.0120196 0)
(1.02836 0.00904707 0)
(1.02321 0.00728046 0)
(1.01662 0.00666031 0)
(1.0117 0.00700141 0)
(1.00872 0.0082525 0)
(1.00467 0.0103332 0)
(1.00043 0.012941 0)
(0.997968 0.015751 0)
(0.996647 0.0186926 0)
(0.995594 0.0217335 0)
(0.994972 0.0247713 0)
(0.994934 0.0277315 0)
(0.995362 0.030572 0)
(0.99606 0.0333343 0)
(0.997109 0.0358856 0)
(0.998185 0.0386916 0)
(0.999805 0.0405122 0)
(1.00084 0.0449655 0)
(1.00332 0.0427695 0)
(1.0036 0.0566029 0)
(1.00769 0.0368213 0)
(1.00644 0.0799123 0)
(1.01239 0.0277521 0)
(1.01048 0.0841156 0)
(1.01589 0.0770578 0)
(1.01706 0.0355196 0)
(1.01775 0.0854824 0)
(1.02354 0.13467 0)
(1.02556 0.104759 0)
(1.02441 0.0323969 0)
(1.0241 -0.0136178 0)
(1.02486 -0.0424124 0)
(1.02525 -0.0326039 0)
(1.03487 0.0347581 0)
(1.03609 0.0303117 0)
(1.03506 0.0260357 0)
(1.03282 0.022122 0)
(1.02846 0.0187237 0)
(1.02468 0.0160301 0)
(1.02115 0.0141665 0)
(1.01589 0.0131463 0)
(1.01206 0.0128759 0)
(1.01008 0.0133169 0)
(1.00686 0.0144536 0)
(1.00309 0.0161145 0)
(1.00081 0.0180783 0)
(0.999552 0.0202715 0)
(0.998465 0.0226581 0)
(0.997718 0.0251526 0)
(0.997507 0.0276797 0)
(0.997753 0.0301837 0)
(0.998278 0.0326931 0)
(0.999177 0.0350596 0)
(1.00013 0.0377416 0)
(1.00167 0.0394637 0)
(1.00265 0.0438905 0)
(1.00513 0.0415856 0)
(1.00542 0.0555376 0)
(1.00957 0.0354958 0)
(1.00843 0.0788715 0)
(1.01447 0.0265167 0)
(1.01272 0.0826507 0)
(1.01838 0.0762553 0)
(1.01967 0.0342661 0)
(1.02061 0.0837693 0)
(1.02693 0.133567 0)
(1.02924 0.104505 0)
(1.02812 0.0324059 0)
(1.02781 -0.0136745 0)
(1.02865 -0.042583 0)
(1.02896 -0.0327371 0)
(1.02688 0.0360969 0)
(1.02811 0.0327735 0)
(1.02767 0.0295613 0)
(1.02646 0.026494 0)
(1.02338 0.0236808 0)
(1.02095 0.0213187 0)
(1.0187 0.0195312 0)
(1.01455 0.0183617 0)
(1.01166 0.0177644 0)
(1.01057 0.017706 0)
(1.00816 0.0181938 0)
(1.00495 0.0191448 0)
(1.00298 0.0204256 0)
(1.00192 0.021981 0)
(1.00093 0.0237811 0)
(1.00018 0.0257597 0)
(0.999907 0.0278521 0)
(1.00006 0.0299992 0)
(1.00048 0.0322233 0)
(1.00128 0.0343645 0)
(1.00214 0.036881 0)
(1.00363 0.0384582 0)
(1.00457 0.0428251 0)
(1.00706 0.0403584 0)
(1.00738 0.0544207 0)
(1.01161 0.0340512 0)
(1.01057 0.0777188 0)
(1.01674 0.0251491 0)
(1.01516 0.0809576 0)
(1.02107 0.075327 0)
(1.02256 0.0328131 0)
(1.02376 0.0817245 0)
(1.03062 0.132198 0)
(1.03329 0.104145 0)
(1.0323 0.0324681 0)
(1.03199 -0.0137159 0)
(1.03291 -0.042748 0)
(1.03306 -0.0328589 0)
(1.0204 0.0364448 0)
(1.02152 0.0339331 0)
(1.02141 0.0314985 0)
(1.02089 0.029088 0)
(1.01873 0.0267742 0)
(1.01733 0.0247395 0)
(1.01609 0.0230879 0)
(1.01283 0.0218739 0)
(1.01076 0.0210853 0)
(1.01045 0.0206952 0)
(1.00877 0.0207245 0)
(1.00613 0.0211435 0)
(1.00455 0.0218792 0)
(1.00376 0.0228999 0)
(1.00297 0.0241893 0)
(1.00232 0.0257005 0)
(1.00208 0.0273839 0)
(1.00221 0.0291848 0)
(1.0026 0.0311265 0)
(1.00336 0.0330408 0)
(1.00418 0.0353926 0)
(1.00565 0.0368227 0)
(1.00658 0.0411441 0)
(1.0091 0.0385087 0)
(1.00946 0.0527254 0)
(1.01379 0.0319952 0)
(1.01287 0.076019 0)
(1.01921 0.0232101 0)
(1.01779 0.078648 0)
(1.02398 0.0739423 0)
(1.02575 0.0308285 0)
(1.02721 0.0790328 0)
(1.03462 0.130368 0)
(1.03784 0.103457 0)
(1.03704 0.0320954 0)
(1.03669 -0.013958 0)
(1.0377 -0.0429488 0)
(1.03761 -0.0329633 0)
(1.01492 0.0373101 0)
(1.01595 0.035402 0)
(1.01607 0.0335962 0)
(1.01601 0.0317762 0)
(1.01449 0.0299718 0)
(1.01383 0.0283402 0)
(1.01331 0.0269678 0)
(1.01076 0.0259056 0)
(1.00935 0.025148 0)
(1.00972 0.0246662 0)
(1.00871 0.024486 0)
(1.00665 0.0246072 0)
(1.00551 0.024993 0)
(1.00508 0.0256322 0)
(1.00457 0.0265239 0)
(1.00413 0.0276401 0)
(1.00401 0.0289477 0)
(1.00423 0.0304018 0)
(1.00466 0.0320322 0)
(1.00545 0.0336669 0)
(1.00629 0.0357824 0)
(1.00778 0.0369761 0)
(1.00874 0.0411552 0)
(1.01134 0.0382288 0)
(1.01173 0.0525032 0)
(1.01621 0.0312594 0)
(1.01536 0.0755554 0)
(1.02188 0.0224019 0)
(1.02076 0.0772752 0)
(1.02711 0.0734283 0)
(1.02925 0.0296349 0)
(1.03114 0.0767154 0)
(1.03905 0.128812 0)
(1.04273 0.103398 0)
(1.04239 0.0327343 0)
(1.0422 -0.0137204 0)
(1.0432 -0.0429603 0)
(1.04269 -0.0329698 0)
(1.01043 0.0346507 0)
(1.01149 0.0331011 0)
(1.01187 0.0316447 0)
(1.01221 0.030133 0)
(1.01118 0.0285933 0)
(1.01108 0.02717 0)
(1.01114 0.0259291 0)
(1.00913 0.0249174 0)
(1.00822 0.0241312 0)
(1.00908 0.0235383 0)
(1.0086 0.0231703 0)
(1.00698 0.0230461 0)
(1.0062 0.0231449 0)
(1.00607 0.0234633 0)
(1.00581 0.0240121 0)
(1.00558 0.02478 0)
(1.00561 0.0257496 0)
(1.00595 0.0268876 0)
(1.00646 0.0282345 0)
(1.0073 0.0296186 0)
(1.00819 0.0315326 0)
(1.00973 0.0325343 0)
(1.01075 0.0366256 0)
(1.0134 0.0334869 0)
(1.01393 0.0478754 0)
(1.01849 0.0262678 0)
(1.01785 0.0708087 0)
(1.02462 0.0176053 0)
(1.02351 0.0718107 0)
(1.03047 0.0691358 0)
(1.03291 0.024824 0)
(1.03486 0.0709733 0)
(1.04381 0.123908 0)
(1.04871 0.100219 0)
(1.0486 0.0307516 0)
(1.04807 -0.0147842 0)
(1.04925 -0.043304 0)
(1.04829 -0.0329788 0)
(1.00598 0.0376096 0)
(1.00693 0.0365164 0)
(1.00739 0.0355178 0)
(1.00797 0.0344222 0)
(1.00735 0.033265 0)
(1.00772 0.0321994 0)
(1.00822 0.0312683 0)
(1.00667 0.0305071 0)
(1.00619 0.0299189 0)
(1.00754 0.0294474 0)
(1.00762 0.0290893 0)
(1.00654 0.0288694 0)
(1.00621 0.0287984 0)
(1.00648 0.0288968 0)
(1.00659 0.0291918 0)
(1.00666 0.0296878 0)
(1.00696 0.0303815 0)
(1.00752 0.031249 0)
(1.00823 0.0323376 0)
(1.00924 0.0334728 0)
(1.01028 0.0351659 0)
(1.01197 0.0359178 0)
(1.01308 0.0398773 0)
(1.01593 0.0363509 0)
(1.01649 0.0509107 0)