/*--------------------------------*- C++ -*----------------------------------*\
| =========                 |                                                 |
| \\      /  F ield         | OpenFOAM: The Open Source CFD Toolbox           |
|  \\    /   O peration     | Version:  2512                                  |
|   \\  /    A nd           | Website:  www.openfoam.com                      |
|    \\/     M anipulation  |                                                 |
\*---------------------------------------------------------------------------*/
FoamFile
{
    version     2.0;
    format      ascii;
    arch        "LSB;label=32;scalar=64";
    class       volVectorField;
    location    "85.85";
    object      U;
}
// * * * * * * * * * * * * * * * * * * * * * * * * * * * * * * * * * * * * * //

dimensions      [0 1 -1 0 0 0 0];

internalField   nonuniform List<vector> 
13248
(
(-0.0246787 0.0184987 4.22044e-20)
(-0.0554007 0.0368682 0)
(-0.0703333 0.042966 -7.28864e-20)
(-0.0654126 0.0437999 6.74904e-20)
(-0.0368716 0.0424091 6.20001e-20)
(0.0192319 0.0400645 0)
(0.106235 0.0373154 0)
(0.225017 0.0347244 1.39177e-19)
(0.372356 0.0329527 -1.33818e-21)
(0.540283 0.0322788 -1.17489e-19)
(0.717114 0.032523 1.07263e-19)
(0.889582 0.0329891 -6.62268e-20)
(1.04521 0.0326473 0)
(1.17428 0.0304093 -1.13174e-19)
(1.27119 0.0254724 2.1002e-19)
(1.33499 0.0175224 -5.00413e-20)
(1.3693 0.00676916 -8.83951e-20)
(1.38126 -0.00607123 8.24175e-20)
(1.37927 -0.0202255 0)
(1.37097 -0.0359844 0)
(1.36039 -0.0491298 0)
(1.34811 -0.0713737 0)
(1.33355 -0.0731446 2.28439e-20)
(1.31239 -0.11537 8.02662e-20)
(-0.0300681 0.0217009 -1.27242e-19)
(-0.0594204 0.0412298 8.04572e-20)
(-0.0625486 0.0462148 -4.9678e-22)
(-0.037034 0.044428 -1.02904e-19)
(0.0205893 0.0399792 -6.19097e-20)
(0.113681 0.0351538 -5.77328e-20)
(0.243077 0.031467 -1.03436e-19)
(0.404212 0.0300216 9.71398e-20)
(0.586145 0.031214 0)
(0.773302 0.0345838 4.79045e-22)
(0.949191 0.0389114 1.62197e-21)
(1.10003 0.0425868 6.69823e-20)
(1.21718 0.0440995 0)
(1.29805 0.0424562 0)
(1.34577 0.0374004 7.55508e-20)
(1.36755 0.029272 -1.41038e-19)
(1.3724 0.018926 8.2983e-20)
(1.3683 0.00700381 -7.73727e-20)
(1.36045 -0.0056748 -3.33039e-20)
(1.35084 -0.018546 -6.06176e-20)
(1.33904 -0.0319546 -2.41214e-20)
(1.32597 -0.0439523 -4.52407e-20)
(1.30914 -0.0548983 6.65625e-20)
(1.29594 -0.0709594 1.82936e-20)
(-0.0330668 0.0221051 0)
(-0.056825 0.0404998 0)
(-0.0429516 0.0443891 3.70595e-20)
(0.00972535 0.0413461 3.37141e-20)
(0.103839 0.0362569 -7.29559e-22)
(0.24012 0.0323662 -5.99265e-20)
(0.413065 0.0317556 0)
(0.608608 0.0351491 -4.80681e-20)
(0.806684 0.0417523 4.46242e-20)
(0.987062 0.0496466 4.92085e-22)
(1.13468 0.0565587 -7.29696e-20)
(1.24241 0.0606334 -6.54294e-20)
(1.31109 0.0609122 1.67722e-21)
(1.34762 0.0574137 -5.19057e-20)
(1.36183 0.0508288 1.24619e-19)
(1.3632 0.0421376 0)
(1.35844 0.0321966 -7.83859e-20)
(1.35094 0.0215064 3.81802e-20)
(1.34182 0.0109437 3.3271e-20)
(1.33098 -0.000710843 0)
(1.31943 -0.00982659 2.66162e-20)
(1.30642 -0.0232104 -8.81882e-20)
(1.29378 -0.0281844 8.23555e-20)
(1.27988 -0.0444977 4.93979e-20)
(-0.0335228 0.0201476 -4.4817e-20)
(-0.0465843 0.0349068 -4.28561e-20)
(-0.00971697 0.0372836 3.8258e-20)
(0.0771218 0.0343619 0)
(0.214264 0.0316643 0)
(0.395777 0.0328904 -1.36889e-21)
(0.604764 0.0394122 0)
(0.81596 0.0500575 -1.47824e-19)
(1.0044 0.0619921 1.34936e-19)
(1.15322 0.072162 -1.63309e-19)
(1.25667 0.0784442 3.65322e-20)
(1.31879 0.0801081 0)
(1.34952 0.0776213 5.78661e-20)
(1.36018 0.072069 -1.05739e-19)
(1.35996 0.0645815 2.50258e-20)
(1.35451 0.0559981 6.24002e-20)
(1.34645 0.0467529 -3.15986e-21)
(1.33689 0.0372868 -6.75476e-20)
(1.32627 0.0272937 0)
(1.3153 0.0178364 0)
(1.30359 0.00785231 -2.31391e-20)
(1.29186 -0.00165238 2.04347e-20)
(1.27881 -0.00800307 7.21439e-20)
(1.26657 -0.0222429 -6.73534e-20)
(-0.0312806 0.016674 -4.7245e-20)
(-0.0272864 0.026122 -4.36606e-20)
(0.0399339 0.0272982 1.20489e-19)
(0.168384 0.0268523 -7.2393e-20)
(0.352286 0.0305051 6.70566e-20)
(0.57303 0.0409212 1.20577e-19)
(0.799708 0.056673 -8.40056e-20)
(1.00098 0.0737231 -9.97569e-20)
(1.15668 0.0879633 2.96575e-21)
(1.26156 0.0969346 1.23269e-19)
(1.3221 0.100195 0)
(1.35056 0.0987247 3.20752e-20)
(1.3593 0.0940107 0)
(1.35753 0.0873512 -5.02676e-20)
(1.35069 0.0795954 7.00883e-20)
(1.34153 0.0711815 8.14941e-22)
(1.33142 0.0624264 -1.77267e-20)
(1.32095 0.0533403 3.30637e-20)
(1.31044 0.0444513 2.78527e-20)
(1.29957 0.0352994 -2.46329e-20)
(1.28857 0.0269623 2.31287e-20)
(1.27709 0.0181074 -2.04254e-20)
(1.26551 0.0114691 0)
(1.25444 0.000298594 -1.47537e-20)
(-0.0258166 0.0124118 4.72331e-20)
(0.00304473 0.0162545 4.59904e-20)
(0.108914 0.0179591 -4.04488e-20)
(0.284838 0.0236015 7.46155e-20)
(0.512457 0.037691 -6.9112e-20)
(0.756001 0.0591993 6.17355e-20)
(0.975625 0.0826471 -2.92517e-20)
(1.14516 0.102333 7.49313e-20)
(1.25791 0.115112 -4.63561e-20)
(1.32184 0.120699 7.90726e-20)
(1.35113 0.120577 -1.79238e-19)
(1.35947 0.116681 6.46101e-20)
(1.35679 0.110582 -5.49862e-20)
(1.34902 0.103274 5.11887e-20)
(1.33928 0.0952943 4.31271e-20)
(1.32898 0.0869639 3.71591e-20)
(1.31858 0.0784089 -1.02398e-19)
(1.30813 0.06988 6.30123e-20)
(1.29744 0.0612356 -2.78485e-20)
(1.28667 0.0528966 7.11684e-20)
(1.27571 0.0445408 -2.29659e-20)
(1.26479 0.0364357 -5.39747e-20)
(1.25367 0.0297721 4.93743e-20)
(1.24284 0.0196572 1.47491e-20)
(-0.0162344 0.00787898 0)
(0.0463975 0.00728898 6.0224e-22)
(0.198662 0.0128417 8.55283e-20)
(0.423032 0.0289369 -7.85844e-20)
(0.681839 0.0558418 -7.00597e-20)
(0.925202 0.0868409 1.28052e-19)
(1.11665 0.113807 -5.85395e-20)
(1.24477 0.132131 7.56987e-20)
(1.31744 0.141301 -2.2157e-21)
(1.35067 0.143218 -4.12209e-20)
(1.36008 0.140369 8.70384e-20)
(1.35709 0.134777 -1.26466e-19)
(1.34861 0.127738 0)
(1.33815 0.119964 -2.38243e-20)
(1.32719 0.111824 -6.24944e-20)
(1.31619 0.10348 1.95169e-20)
(1.30524 0.0950715 9.00098e-22)
(1.29435 0.0865945 -4.09691e-20)
(1.2836 0.078262 3.005e-21)
(1.27295 0.0699917 4.66213e-20)
(1.26243 0.0620222 -2.04713e-20)
(1.25195 0.0543997 -7.3533e-21)
(1.24147 0.0471914 2.31532e-20)
(1.23141 0.0386156 0)
(-0.00156674 0.00360964 0)
(0.104035 0.00125758 2.35455e-20)
(0.307665 0.0152021 -1.11763e-19)
(0.573811 0.0453687 4.0136e-20)
(0.844096 0.0843883 -3.71752e-20)
(1.06642 0.120732 -3.32872e-20)
(1.2191 0.146939 -5.70795e-20)
(1.30727 0.161489 2.85555e-20)
(1.34842 0.166506 2.40613e-20)
(1.36087 0.165166 0)
(1.35842 0.160173 5.14105e-20)
(1.34946 0.153304 -7.50109e-20)
(1.33822 0.145534 5.5187e-20)
(1.32649 0.137331 2.3835e-20)
(1.31487 0.128903 -1.90132e-20)
(1.30352 0.120377 -1.54816e-20)
(1.29249 0.111813 -1.42839e-20)
(1.28174 0.10334 4.29238e-20)
(1.27117 0.0949536 0)
(1.26078 0.0867853 2.06978e-20)
(1.25052 0.0788405 1.68951e-20)
(1.24039 0.0711717 -4.22466e-20)
(1.23035 0.0638248 -2.80992e-20)
(1.22054 0.0562411 2.57672e-20)
(0.0189566 0.00029073 -2.7878e-20)
(0.175857 0.000344041 -1.31766e-21)
(0.430886 0.027588 2.2914e-20)
(0.724683 0.0731457 6.33869e-20)
(0.986205 0.120854 1.78312e-20)
(1.17489 0.15799 -3.39993e-20)
(1.28786 0.180509 3.04524e-20)
(1.34275 0.190288 -2.58568e-20)
(1.36122 0.191291 4.50878e-20)
(1.36051 0.187189 1.85904e-20)
(1.35136 0.180483 -5.23186e-20)
(1.33926 0.17256 1.50883e-20)
(1.32658 0.164082 2.51896e-20)
(1.31413 0.155343 -1.23308e-20)
(1.30213 0.146496 0)
(1.29057 0.137628 1.76718e-20)
(1.27939 0.128824 2.92584e-20)
(1.26853 0.120117 4.67849e-21)
(1.25799 0.111593 -2.38305e-20)
(1.24777 0.103278 9.73048e-21)
(1.23783 0.0952571 0)
(1.22812 0.0875533 -7.37157e-21)
(1.21858 0.0799951 -6.8957e-21)
(1.20922 0.0730361 0)
(0.045613 -0.00116454 0)
(0.259892 0.00679623 1.35949e-20)
(0.56027 0.0513491 2.49338e-20)
(0.864025 0.110778 -6.49771e-20)
(1.10179 0.162627 2.08055e-20)
(1.25262 0.196937 0)
(1.33025 0.214136 2.88974e-20)
(1.35964 0.218923 -3.97081e-20)
(1.36277 0.216277 -2.24803e-20)
(1.35406 0.209808 9.94223e-21)
(1.34114 0.201583 -1.54285e-20)
(1.32736 0.192598 3.72276e-20)
(1.31389 0.183295 1.81563e-20)
(1.30103 0.173873 -1.26612e-20)
(1.2888 0.164436 -1.32389e-21)
(1.27713 0.155061 -3.30125e-20)
(1.26598 0.145804 1.48493e-20)
(1.25532 0.136735 -3.88535e-22)
(1.24508 0.127888 0)
(1.23521 0.119326 -9.74013e-21)
(1.22566 0.111082 0)
(1.21635 0.103089 2.11012e-20)
(1.20722 0.095426 -2.47042e-20)
(1.19819 0.0888496 1.11015e-20)
(0.0780173 0.000236255 -7.9472e-21)
(0.352233 0.0224384 -3.49621e-20)
(0.686675 0.0863586 3.9359e-20)
(0.984075 0.156116 2.23545e-20)
(1.18988 0.207806 -1.05744e-20)
(1.30417 0.236821 1.67918e-20)
(1.35282 0.247957 -8.11866e-21)
(1.36374 0.247903 1.29018e-20)
(1.35689 0.241955 0)
(1.34343 0.23332 2.78207e-20)
(1.32841 0.223581 -1.26874e-21)
(1.31368 0.213424 -2.173e-20)
(1.29973 0.20314 9.11223e-21)
(1.28662 0.192863 -1.00582e-20)
(1.27428 0.182675 -3.68465e-21)
(1.26261 0.172641 4.33584e-21)
(1.25154 0.162818 -3.24393e-21)
(1.24101 0.153245 -1.72825e-20)
(1.23098 0.143969 1.04925e-20)
(1.22141 0.135029 2.08777e-21)
(1.21224 0.126438 1.80278e-21)
(1.2034 0.11816 1.55628e-21)
(1.19478 0.110373 0)
(1.18625 0.103686 0)
(0.115213 0.00546798 7.95683e-21)
(0.447654 0.0483451 -7.34918e-21)
(0.802224 0.131397 -1.31882e-20)
(1.08118 0.207155 0)
(1.25231 0.255208 -5.23003e-21)
(1.33425 0.277401 -4.56005e-21)
(1.36039 0.282238 -7.46974e-21)
(1.35846 0.277581 0)
(1.34533 0.268531 0)
(1.32912 0.257746 0)
(1.31294 0.246371 0)
(1.2977 0.234857 0)
(1.28354 0.223398 -5.70811e-21)
(1.27037 0.212087 2.56938e-21)
(1.25807 0.200984 4.36896e-21)
(1.24655 0.190139 2.01822e-21)
(1.23573 0.179591 4.87822e-21)
(1.22554 0.16938 0)
(1.21595 0.15954 -1.11433e-21)
(1.20687 0.150098 -1.05141e-21)
(1.19823 0.141046 -1.80562e-21)
(1.18993 0.132359 -1.55873e-21)
(1.18186 0.12435 0)
(1.17392 0.117336 1.05295e-21)
(-0.00287881 0.0334134 6.20607e-21)
(-0.0124816 0.11405 -5.8898e-21)
(-0.0291773 0.185733 -1.08892e-20)
(-0.0509837 0.239938 0)
(-0.0757819 0.280146 -1.40923e-20)
(-0.101382 0.314211 4.40456e-21)
(-0.125977 0.348161 -8.10986e-21)
(-0.148354 0.384305 0)
(-0.167663 0.422252 0)
(-0.183124 0.460385 0)
(-0.193887 0.496673 0)
(-0.199035 0.528916 0)
(-0.197649 0.55483 1.78411e-22)
(-0.188905 0.572151 -5.66301e-21)
(-0.172169 0.578778 1.10658e-20)
(-0.147076 0.572878 1.62756e-20)
(-0.113617 0.553212 5.35785e-21)
(-0.072186 0.519131 0)
(-0.0237341 0.470652 5.02584e-21)
(0.0305088 0.408474 -1.43327e-20)
(0.0891911 0.334031 -9.30745e-21)
(0.150997 0.249038 -8.92648e-21)
(0.211369 0.15632 0)
(0.275319 0.0548371 0)
(-0.0037558 0.0365678 -1.84626e-20)
(-0.0130245 0.122767 2.92402e-20)
(-0.0249447 0.201413 -1.06176e-20)
(-0.0402453 0.262226 -1.98372e-20)
(-0.0580819 0.306667 2.77095e-20)
(-0.0766064 0.341863 -1.71174e-20)
(-0.0938378 0.37431 2.39774e-20)
(-0.108196 0.407126 1.46599e-20)
(-0.118536 0.440433 0)
(-0.12395 0.472745 -1.37976e-20)
(-0.123601 0.501991 -6.58141e-22)
(-0.116684 0.525956 1.19313e-20)
(-0.102473 0.542454 1.73446e-20)
(-0.0804067 0.549454 2.30452e-20)
(-0.0502972 0.545194 -1.00411e-20)
(-0.0121588 0.528362 -3.16737e-20)
(0.0336872 0.498208 1.09924e-20)
(0.0863569 0.454574 -4.03344e-20)
(0.144677 0.397991 0)
(0.207457 0.329515 9.62674e-21)
(0.271274 0.251016 9.29055e-21)
(0.339318 0.163884 8.91039e-21)
(0.398249 0.0727256 0)
(0.468185 -0.0257095 0)
(-0.00455322 0.0347736 0)
(-0.0138155 0.120721 5.66233e-20)
(-0.0213515 0.203812 -2.09772e-20)
(-0.0299127 0.271123 1.95077e-20)
(-0.039895 0.320817 -5.33552e-20)
(-0.0501212 0.358093 0)
(-0.0587755 0.389299 -3.09077e-20)
(-0.0640699 0.41841 1.40474e-20)
(-0.0645735 0.446447 -2.65426e-20)
(-0.0592405 0.472444 1.2045e-20)
(-0.0472857 0.494546 7.31787e-20)
(-0.0280939 0.510669 -3.40483e-20)
(-0.00122485 0.518808 -5.73777e-20)
(0.0335191 0.517189 -2.33438e-20)
(0.0760135 0.504392 -2.09487e-21)
(0.125812 0.479555 8.36556e-20)
(0.182142 0.442307 -3.99756e-20)
(0.243951 0.392843 6.05216e-22)
(0.308983 0.331975 0)
(0.378337 0.26129 -3.7475e-20)
(0.442392 0.182402 0)
(0.515126 0.097449 -3.70251e-20)
(0.567935 0.0119045 1.35134e-19)
(0.641201 -0.0805306 3.1938e-22)
(-0.00476199 0.0291121 0)
(-0.0142416 0.109042 -4.85833e-22)
(-0.0187081 0.192729 2.01974e-20)
(-0.021526 0.265023 -1.84896e-20)
(-0.0239375 0.320377 1.7717e-20)
(-0.0255943 0.360954 9.5842e-20)
(-0.0252252 0.391932 -2.9778e-20)
(-0.021186 0.417704 -2.72358e-20)
(-0.0119463 0.440328 5.19833e-20)
(0.00366202 0.459768 -7.46018e-20)
(0.0264175 0.474759 2.22886e-20)
(0.0567677 0.483575 2.16985e-20)
(0.0948648 0.484486 0)
(0.140555 0.476001 2.13467e-20)
(0.193358 0.457034 0)
(0.252482 0.427006 3.87099e-20)
(0.316546 0.38571 -8.04396e-20)
(0.385011 0.334164 1.58711e-20)
(0.45326 0.272225 7.34678e-20)
(0.526211 0.203232 3.74319e-20)
(0.586884 0.1279 0)
(0.66309 0.048991 -1.03415e-19)
(0.706879 -0.0304564 3.27501e-20)
(0.787061 -0.118786 0)
(-0.00417019 0.021289 0)
(-0.013876 0.0905582 -6.52336e-20)
(-0.0171423 0.170182 -1.96043e-20)
(-0.0163883 0.244169 -3.65539e-20)
(-0.0128703 0.304038 3.38668e-20)
(-0.00687488 0.34855 -3.15858e-20)
(0.00209794 0.380713 5.7507e-20)
(0.0151423 0.404424 2.73479e-20)
(0.0335392 0.422401 -7.51368e-20)
(0.0583912 0.435642 4.71747e-20)
(0.0904357 0.443799 -6.71527e-20)
(0.130001 0.445804 1.46575e-19)
(0.177024 0.440393 -7.97632e-20)
(0.231062 0.426449 3.78958e-20)
(0.291285 0.403114 1.15284e-19)
(0.356608 0.370336 -3.49256e-20)
(0.425109 0.327491 -3.16174e-20)
(0.496507 0.277006 -3.55518e-20)
(0.564719 0.21665 0)
(0.638488 0.153913 -6.97698e-20)
(0.696701 0.0833435 -6.93963e-20)
(0.777312 0.0113659 9.48988e-20)
(0.818883 -0.0657139 1.23741e-19)
(0.920587 -0.15362 -1.13154e-19)
(-0.00292258 0.01315 0)
(-0.012789 0.0691509 -8.43699e-20)
(-0.0167967 0.140234 9.27945e-22)
(-0.0152901 0.21125 7.19323e-20)
(-0.00866521 0.272387 0)
(0.00269765 0.319682 0)
(0.0186717 0.353628 0)
(0.0396023 0.376782 -2.60964e-20)
(0.0661659 0.391744 -8.91392e-23)
(0.0990726 0.40015 4.42018e-20)
(0.138817 0.402539 -6.52726e-20)
(0.185537 0.39867 -7.77426e-22)
(0.238962 0.387927 0)
(0.298405 0.369733 -3.7879e-20)
(0.362781 0.343469 3.57632e-20)
(0.430831 0.309725 -1.00947e-19)
(0.500672 0.267132 1.37472e-19)
(0.571799 0.220216 3.67178e-20)
(0.64191 0.163551 5.9592e-21)
(0.717279 0.108051 -1.2401e-19)
(0.78411 0.0383025 -5.90643e-20)
(0.878929 -0.0280057 2.06117e-19)
(0.939083 -0.109268 -1.35434e-19)
(1.072 -0.194793 0)
(-0.0015175 0.00627336 4.36915e-20)
(-0.0117389 0.0487627 4.20432e-20)
(-0.0181809 0.108113 -3.78484e-20)
(-0.0186469 0.171324 -6.95889e-20)
(-0.0121834 0.228946 6.44715e-20)
(0.00127902 0.275645 -5.80735e-20)
(0.0213954 0.30991 8.01669e-20)
(0.0478964 0.332701 -2.58047e-20)
(0.0807365 0.345866 4.53182e-20)
(0.119984 0.35107 0)
(0.165633 0.349356 3.83563e-20)
(0.217462 0.341173 -7.07129e-20)
(0.274948 0.326573 7.14025e-20)
(0.33735 0.305601 -6.64602e-20)
(0.403786 0.277987 0)
(0.473568 0.244723 6.41488e-20)
(0.54717 0.204424 1.26048e-19)
(0.62474 0.161238 -1.19719e-19)
(0.70851 0.107147 -5.80429e-20)
(0.800201 0.0550289 -6.2884e-20)
(0.898106 -0.0160794 1.70391e-19)
(1.01426 -0.0764723 5.2316e-20)
(1.10607 -0.161515 -4.8104e-20)
(1.24452 -0.231233 4.41028e-20)
(-0.000738947 0.00177791 -4.37024e-20)
(-0.0121325 0.0325444 1.21801e-19)
(-0.0223592 0.0787948 -3.74086e-20)
(-0.0268174 0.130492 6.81639e-20)
(-0.0232398 0.179758 -6.3152e-20)
(-0.0108873 0.221251 -4.13439e-23)
(0.0100434 0.252438 2.60025e-20)
(0.0389787 0.273039 9.17492e-20)
(0.0753159 0.284017 -1.10795e-21)
(0.118533 0.286695 -4.08443e-20)
(0.168176 0.282261 0)
(0.223908 0.271569 -3.40107e-20)
(0.285574 0.255188 6.48622e-20)
(0.353441 0.233532 6.41518e-20)
(0.428343 0.206675 -3.00351e-20)
(0.51163 0.175038 -1.87438e-21)
(0.604959 0.137235 -3.02481e-20)
(0.708989 0.0954814 5.55037e-20)
(0.824843 0.044102 5.80522e-20)
(0.947137 -0.0055105 -5.64319e-20)
(1.07465 -0.0715989 4.96483e-20)
(1.1951 -0.122044 -4.65782e-20)
(1.29446 -0.198487 0)
(1.3862 -0.240932 -4.41287e-20)
(-0.00153449 0.000378285 4.23896e-20)
(-0.0156136 0.0224836 -4.04787e-20)
(-0.0305399 0.0559343 3.66647e-20)
(-0.0399086 0.0942378 0)
(-0.0405464 0.131705 0)
(-0.0311656 0.163956 5.40554e-20)
(-0.0116152 0.188384 -5.11016e-20)
(0.0176442 0.204145 4.39164e-20)
(0.0560239 0.211615 -2.07132e-19)
(0.103202 0.211766 1.98623e-22)
(0.159249 0.205769 3.46199e-20)
(0.224984 0.194466 0)
(0.301794 0.178475 -6.31513e-20)
(0.391272 0.15803 1.19677e-19)
(0.494622 0.13323 -8.64202e-20)
(0.612006 0.103766 -1.44609e-19)
(0.741578 0.0696802 -5.10426e-21)
(0.879428 0.0315602 1.01808e-19)
(1.01913 -0.0117225 0)
(1.15212 -0.0543844 0)
(1.2698 -0.105735 -4.96665e-20)
(1.35969 -0.143067 4.65977e-20)
(1.4196 -0.199887 -1.5752e-19)
(1.43873 -0.218283 1.46804e-19)
(-0.00473216 0.00229939 0)
(-0.0232433 0.0192892 0)
(-0.0428511 0.0415668 -1.09197e-19)
(-0.0563535 0.0665698 3.42215e-20)
(-0.0602122 0.0911154 1.25897e-21)
(-0.0525818 0.112212 5.50847e-20)
(-0.0326536 0.127879 0)
(4.62082e-05 0.137337 -4.47123e-20)
(0.0460956 0.140753 4.10347e-20)
(0.10669 0.138877 -7.3403e-20)
(0.183293 0.132377 -2.02948e-22)
(0.277135 0.121867 6.45645e-20)
(0.388822 0.107858 1.42871e-21)
(0.517266 0.0904809 6.1021e-20)
(0.659197 0.0700459 -8.23541e-20)
(0.809144 0.0460553 0)
(0.959771 0.0197227 1.06744e-19)
(1.10233 -0.0103511 -1.5169e-19)
(1.22779 -0.0414979 4.61788e-20)
(1.32814 -0.0744044 0)
(1.39625 -0.108856 3.99418e-20)
(1.43152 -0.13524 1.53231e-19)
(1.43494 -0.173369 -1.43099e-19)
(1.41141 -0.180515 -1.50323e-19)
(-0.0104357 0.00700119 1.24194e-19)
(-0.034345 0.0223131 -1.57009e-19)
(-0.0568432 0.0360967 5.67327e-22)
(-0.071001 0.049796 3.34229e-20)
(-0.0732344 0.0626694 -6.05013e-20)
(-0.0608839 0.0732759 -5.48916e-20)
(-0.0317234 0.0806482 9.76322e-20)
(0.0163327 0.0843281 -2.45453e-21)
(0.0853079 0.084399 -8.20669e-20)
(0.176602 0.081213 1.4842e-19)
(0.290452 0.0753507 -3.66873e-22)
(0.424941 0.0674211 -6.38263e-20)
(0.575398 0.0576121 0)
(0.734902 0.0458732 0)
(0.894785 0.0321945 -2.77664e-20)
(1.04563 0.0159765 -5.15475e-20)
(1.17836 -0.00201911 -1.00624e-19)
(1.28498 -0.0235911 9.38052e-20)
(1.36101 -0.0447792 -4.62264e-20)
(1.40409 -0.0702036 8.12805e-20)
(1.41871 -0.0916732 -4.15089e-20)
(1.41171 -0.114217 6.57526e-20)
(1.39273 -0.139792 -1.55419e-19)
(1.37115 -0.147219 2.96086e-20)
(-0.0176377 0.0130507 4.14061e-20)
(-0.0461935 0.0293409 0)
(-0.0675872 0.0378749 7.21956e-20)
(-0.076081 0.0435032 -6.68522e-20)
(-0.0679517 0.0476165 6.05812e-20)
(-0.0396291 0.0503352 0)
(0.012459 0.0515136 0)
(0.0910045 0.0509735 -4.47702e-20)
(0.197105 0.049011 1.41895e-21)
(0.329252 0.046126 3.8692e-20)
(0.482401 0.0427784 -3.52286e-20)
(0.648467 0.0389723 6.49131e-20)
(0.817162 0.0344011 0)
(0.977532 0.028518 1.15156e-19)
(1.11942 0.0206584 -2.1549e-19)
(1.23485 0.010292 1.52464e-19)
(1.319 -0.0026363 9.43963e-20)
(1.37113 -0.0184417 -8.80077e-20)
(1.39486 -0.0346134 0)
(1.39693 -0.0548844 0)
(1.3875 -0.0692358 0)
(1.37253 -0.0938879 0)
(1.35915 -0.106959 2.92415e-20)
(1.34438 -0.124074 -9.60769e-20)
(0.338767 -0.061948 -5.4209e-21)
(0.405178 -0.21536 5.44808e-21)
(0.466084 -0.387158 -1.59327e-22)
(0.523877 -0.566463 0)
(0.573401 -0.725887 -3.50425e-21)
(0.607653 -0.831665 6.21023e-21)
(0.627335 -0.868978 -4.99117e-22)
(0.631192 -0.85864 -2.16272e-21)
(0.621736 -0.824255 0)
(0.613095 -0.774452 0)
(0.601753 -0.734746 -8.28024e-23)
(0.571475 -0.733748 -8.2722e-23)
(0.52688 -0.74738 -1.68519e-21)
(0.497729 -0.698012 1.55138e-21)
(0.510782 -0.525507 0)
(0.560501 -0.245086 0)
(0.625329 0.079875 1.95317e-21)
(0.688821 0.369354 -2.3604e-22)
(0.743588 0.560702 -1.52576e-21)
(0.785731 0.649155 -6.78345e-23)
(0.809036 0.673598 0)
(0.820544 0.660689 0)
(0.830913 0.631155 0)
(0.831253 0.630261 0)
(0.808836 0.678 0)
(0.769455 0.72065 0)
(0.729431 0.664587 3.77686e-22)
(0.702911 0.46658 -6.14593e-22)
(0.696721 0.15913 0)
(0.706527 -0.156793 0)
(0.732471 -0.391573 -3.91767e-22)
(0.762653 -0.509928 3.80665e-22)
(0.793722 -0.556054 1.25474e-22)
(0.803768 -0.570023 0)
(0.776689 -0.587354 0)
(0.715166 -0.58199 1.85223e-22)
(0.644285 -0.509459 -1.80026e-22)
(0.603059 -0.332651 0)
(0.594522 -0.0813646 2.21406e-22)
(0.631523 0.151867 -3.08444e-22)
(0.686736 0.317106 7.46445e-23)
(0.723018 0.40999 0)
(0.704778 0.485701 -1.1009e-22)
(0.664935 0.492301 1.07047e-22)
(0.63293 0.424681 0)
(0.635985 0.240521 0)
(0.663763 0.0222941 -5.3817e-23)
(0.684873 -0.178819 1.59298e-22)
(0.693173 -0.354885 0)
(0.667007 -0.424018 0)
(0.667064 -0.418754 -3.18509e-23)
(0.650069 -0.229826 4.19206e-24)
(0.657113 -0.0156974 -1.92837e-24)
(0.652404 0.164403 1.98409e-23)
(0.665369 0.362887 0)
(0.661004 0.362187 0)
(0.671955 0.376753 0)
(0.670985 0.120983 0)
(0.65479 -0.352456 0)
(0.627604 -0.247981 0)
(0.522253 -0.134809 -5.375e-22)
(0.577163 -0.28001 -2.17693e-20)
(0.633201 -0.447446 1.38258e-21)
(0.687515 -0.622257 1.9052e-20)
(0.727013 -0.771165 2.4478e-22)
(0.740395 -0.862292 0)
(0.73244 -0.883428 -9.01711e-21)
(0.712554 -0.855794 1.62794e-20)
(0.681055 -0.811762 -7.25876e-21)
(0.648882 -0.759165 5.47844e-21)
(0.621776 -0.710098 -5.23726e-21)
(0.583447 -0.69434 5.22278e-21)
(0.527223 -0.705303 -5.04987e-21)
(0.474456 -0.677475 -1.7043e-22)
(0.455305 -0.539346 -7.13872e-21)
(0.480015 -0.285744 6.93295e-21)
(0.53575 0.024251 -6.99344e-21)
(0.602963 0.310472 6.60155e-21)
(0.670413 0.510752 -4.91805e-21)
(0.728153 0.616505 8.54358e-21)
(0.767184 0.656174 -3.67532e-21)
(0.795388 0.650606 -1.61305e-22)
(0.820208 0.626745 -2.41807e-21)
(0.832952 0.635135 4.83111e-21)
(0.822964 0.693272 -2.4113e-21)
(0.796433 0.742671 1.89042e-22)
(0.769541 0.687753 4.33927e-21)
(0.753988 0.483628 8.84942e-22)
(0.755649 0.165213 -9.61958e-21)
(0.765913 -0.163476 9.07213e-21)
(0.785265 -0.406929 -4.1836e-21)
(0.801652 -0.52618 3.62296e-22)
(0.817735 -0.565215 -1.25734e-22)
(0.815527 -0.565733 1.92387e-22)
(0.78199 -0.567882 0)
(0.712356 -0.554111 0)
(0.634371 -0.485725 -7.32437e-22)
(0.586704 -0.32303 5.36878e-22)
(0.579022 -0.0895976 5.65171e-22)
(0.621763 0.130772 -2.65779e-24)
(0.680041 0.298699 -6.83191e-22)
(0.717389 0.405716 1.08357e-22)
(0.700759 0.494583 0)
(0.665539 0.504428 0)
(0.633616 0.430746 0)
(0.638459 0.237867 0)
(0.67013 0.0145702 2.71775e-22)
(0.695847 -0.182585 -1.07065e-22)
(0.704471 -0.353403 0)
(0.671827 -0.420433 0)
(0.66956 -0.417098 0)
(0.649809 -0.228519 -4.32568e-23)
(0.657489 -0.0169752 1.35885e-23)
(0.653031 0.163273 -4.622e-23)
(0.664812 0.361572 0)
(0.664259 0.360899 0)
(0.680958 0.374993 5.12771e-23)
(0.681739 0.124797 1.83351e-22)
(0.660809 -0.348525 0)
(0.632154 -0.246619 0)
(0.682163 -0.183325 -2.23405e-23)
(0.729087 -0.321823 -4.42808e-20)
(0.785461 -0.481362 4.00906e-20)
(0.839445 -0.646803 -3.74723e-20)
(0.870397 -0.780967 -2.46512e-22)
(0.866876 -0.853745 0)
(0.834645 -0.86288 -1.83888e-20)
(0.790941 -0.828656 1.79464e-20)
(0.742014 -0.782981 1.01664e-22)
(0.691978 -0.735205 1.6463e-22)
(0.64984 -0.683005 1.44752e-22)
(0.604574 -0.652321 1.51698e-22)
(0.540113 -0.656296 -9.80078e-21)
(0.468665 -0.646466 9.68922e-21)
(0.421832 -0.545562 0)
(0.419687 -0.326833 3.48801e-22)
(0.460121 -0.0383026 -1.22375e-20)
(0.527484 0.240225 1.2076e-20)
(0.604527 0.448784 0)
(0.674517 0.572155 0)
(0.727583 0.627917 -5.71926e-21)
(0.771386 0.631758 1.05275e-20)
(0.810413 0.614567 -9.3374e-21)
(0.836356 0.631338 -2.56942e-22)
(0.839938 0.699693 1.02983e-20)
(0.827421 0.758775 -1.2794e-20)
(0.813815 0.709214 1.5196e-20)
(0.810025 0.503833 1.01125e-21)
(0.819841 0.179809 -9.87183e-21)
(0.830034 -0.157673 0)
(0.842213 -0.409583 0)
(0.845231 -0.532091 1.84398e-21)
(0.846354 -0.567979 -2.51131e-21)
(0.832253 -0.558794 -3.28517e-24)
(0.79416 -0.546957 1.13903e-21)
(0.718166 -0.52572 -1.1068e-21)
(0.633827 -0.463352 0)
(0.580216 -0.316638 1.75747e-22)
(0.573075 -0.101549 1.39279e-21)
(0.619123 0.10698 -2.46519e-21)
(0.678563 0.279287 1.00688e-21)
(0.717105 0.400956 8.02891e-23)
(0.703247 0.503091 -1.08486e-21)
(0.672211 0.517207 8.62636e-22)
(0.639794 0.438206 2.9224e-22)
(0.645455 0.236564 3.28805e-22)
(0.680454 0.00768338 -2.72499e-22)
(0.710526 -0.185381 0)
(0.720133 -0.350347 0)
(0.680356 -0.415836 -5.55518e-22)
(0.675021 -0.415678 2.54074e-22)
(0.65272 -0.228561 -1.53947e-22)
(0.661482 -0.0187474 2.13513e-22)
(0.656814 0.161488 2.54824e-22)
(0.667186 0.360169 -8.06845e-23)
(0.66989 0.358816 1.68281e-22)
(0.69204 0.372356 -2.04458e-22)
(0.694754 0.129623 1.42273e-22)
(0.669991 -0.343664 0)
(0.639351 -0.245659 0)
(0.821901 -0.219674 -8.72718e-20)
(0.870853 -0.357507 3.01507e-21)
(0.933875 -0.511118 7.96481e-20)
(0.985597 -0.662939 -5.66241e-22)
(1.00157 -0.777313 0)
(0.977946 -0.828175 0)
(0.925183 -0.824255 -3.5582e-20)
(0.862236 -0.786819 5.84085e-21)
(0.800241 -0.740395 3.90768e-20)
(0.738393 -0.699348 -1.57826e-21)
(0.683522 -0.653348 -9.64293e-21)
(0.633442 -0.61067 -7.91442e-21)
(0.568095 -0.59857 7.91709e-21)
(0.485525 -0.597733 0)
(0.414575 -0.535742 -9.65875e-21)
(0.385891 -0.362698 8.75358e-21)
(0.40683 -0.105191 0)
(0.467567 0.16109 0)
(0.547664 0.375863 7.35465e-21)
(0.62565 0.516391 -1.21601e-21)
(0.690792 0.588763 -5.57871e-21)
(0.748682 0.603261 -4.48538e-21)
(0.800581 0.592958 4.4523e-21)
(0.839622 0.616365 -4.7962e-21)
(0.858339 0.693527 -8.58695e-22)
(0.860007 0.763735 5.37742e-21)
(0.859269 0.72466 9.64815e-22)
(0.867607 0.525078 1.03567e-23)
(0.885961 0.200268 0)
(0.897077 -0.143749 9.41595e-21)
(0.902708 -0.404208 -9.66972e-21)
(0.893413 -0.530564 3.79763e-22)
(0.879711 -0.564938 0)
(0.852936 -0.54994 -1.91454e-22)
(0.811203 -0.526095 2.05429e-21)
(0.731604 -0.496397 -3.64775e-21)
(0.641927 -0.440223 -3.63164e-22)
(0.582304 -0.311941 -1.51574e-22)
(0.574924 -0.11658 1.7785e-21)
(0.622131 0.0810261 2.50387e-22)
(0.681933 0.258343 -1.47648e-21)
(0.722326 0.393581 1.24464e-21)
(0.711416 0.509432 1.39586e-23)
(0.684191 0.530333 1.11179e-21)
(0.651964 0.447626 -1.37417e-21)
(0.657759 0.237168 -2.4194e-21)
(0.695049 0.000949569 6.41948e-22)
(0.728799 -0.187982 9.88822e-22)
(0.740055 -0.346094 -1.68805e-21)
(0.692617 -0.409781 1.00181e-21)
(0.683336 -0.413977 -1.49378e-22)
(0.658645 -0.229814 2.40704e-22)
(0.668857 -0.0210218 1.14868e-22)
(0.663629 0.159107 -3.11019e-22)
(0.672403 0.358747 -2.27085e-23)
(0.677639 0.356061 -1.65213e-22)
(0.704826 0.368927 0)
(0.709833 0.135354 -1.41174e-22)
(0.682268 -0.337984 3.16705e-22)
(0.649086 -0.244985 0)
(0.959061 -0.254819 8.1981e-20)
(1.01508 -0.390436 -1.57433e-19)
(1.07977 -0.530871 7.46456e-20)
(1.11927 -0.656834 6.19536e-20)
(1.11191 -0.7422 -1.12358e-19)
(1.06391 -0.773131 8.59554e-21)
(0.993981 -0.76329 4.11087e-20)
(0.919236 -0.732207 2.69483e-20)
(0.851046 -0.691448 -2.63549e-20)
(0.785352 -0.654642 0)
(0.721828 -0.61882 -1.56999e-20)
(0.666664 -0.576211 2.93645e-20)
(0.605136 -0.547944 -1.37405e-20)
(0.521975 -0.542506 0)
(0.434318 -0.510356 0)
(0.379931 -0.387466 2.76952e-22)
(0.378263 -0.170575 -1.56863e-20)
(0.425945 0.0770665 1.52299e-20)
(0.501667 0.294572 0)
(0.582375 0.450508 1.01005e-20)
(0.656207 0.539495 -1.7684e-20)
(0.725669 0.566172 1.53272e-20)
(0.789798 0.562849 -1.49674e-20)
(0.842135 0.590196 -1.14195e-21)
(0.874601 0.674401 1.8799e-20)
(0.889714 0.758286 -1.03582e-20)
(0.903835 0.73591 -4.80521e-22)
(0.924139 0.549875 -9.54198e-21)
(0.950258 0.230588 -7.12899e-22)
(0.96346 -0.117998 1.02523e-20)
(0.963933 -0.387546 5.30473e-22)
(0.943931 -0.519777 -5.35466e-21)
(0.916628 -0.55486 8.88404e-21)
(0.877166 -0.537843 -3.93836e-21)
(0.832415 -0.505786 0)
(0.752178 -0.467975 -1.75645e-21)
(0.658305 -0.416915 1.70829e-21)
(0.591613 -0.307994 -1.42584e-21)
(0.582441 -0.133854 1.7783e-21)
(0.629494 0.0524289 -1.42549e-22)
(0.689235 0.234572 0)
(0.732238 0.384042 -1.29e-22)
(0.725725 0.514442 5.23214e-22)
(0.70319 0.543057 0)
(0.671754 0.458488 3.58871e-21)
(0.676502 0.239933 -1.28434e-21)
(0.714304 -0.00487789 6.81018e-22)
(0.750405 -0.190149 6.23171e-22)
(0.763975 -0.340454 0)
(0.708581 -0.40205 0)
(0.69429 -0.411848 -4.99528e-22)
(0.667286 -0.232286 5.64788e-22)
(0.679298 -0.0240324 -2.38466e-22)
(0.673341 0.156095 8.44447e-24)
(0.680371 0.357122 1.6876e-22)
(0.687223 0.352699 1.65391e-22)
(0.718931 0.364636 -4.53984e-22)
(0.72676 0.141641 0)
(0.697549 -0.331479 -4.70517e-22)
(0.661239 -0.244486 -5.08655e-23)
(1.11213 -0.293885 7.54191e-20)
(1.16515 -0.417682 -7.46563e-20)
(1.21576 -0.533811 5.56871e-22)
(1.22889 -0.6283 -4.42052e-22)
(1.1946 -0.685699 4.24659e-22)
(1.12777 -0.703245 -3.49772e-22)
(1.0492 -0.693722 5.21436e-22)
(0.97003 -0.672046 0)
(0.897587 -0.641667 -3.41293e-22)
(0.831456 -0.608312 2.75928e-22)
(0.764538 -0.578052 2.25739e-22)
(0.703162 -0.541623 -2.1574e-22)
(0.646016 -0.50372 0)
(0.571972 -0.485545 0)
(0.478825 -0.46903 1.40238e-22)
(0.401728 -0.393518 0)
(0.373646 -0.225924 -1.49899e-22)
(0.401917 -0.00437264 0)
(0.467119 0.20871 -8.98436e-21)
(0.545526 0.376276 1.63033e-20)
(0.624333 0.480629 -1.36252e-20)
(0.70261 0.519786 6.2121e-21)
(0.776606 0.523468 6.28345e-21)
(0.839743 0.55398 -6.099e-21)
(0.886235 0.643551 -9.49346e-21)
(0.916756 0.739566 9.29751e-21)
(0.943864 0.735697 0)
(0.974099 0.569835 5.1912e-22)
(1.0079 0.264974 0)
(1.02512 -0.0828639 0)
(1.02358 -0.36121 1.38817e-20)
(0.995441 -0.501413 -1.44778e-20)
(0.956409 -0.538986 5.23847e-22)
(0.904165 -0.522864 3.6532e-22)
(0.85564 -0.485921 -2.27783e-22)
(0.778033 -0.440165 -1.25922e-21)
(0.682196 -0.392261 1.22252e-21)
(0.607332 -0.303161 -1.36838e-21)
(0.593752 -0.151986 1.15987e-21)
(0.639564 0.0218762 2.42576e-22)
(0.699529 0.207931 -8.89798e-22)
(0.746539 0.369505 -3.15406e-22)
(0.744643 0.514465 7.4197e-22)
(0.726924 0.555509 0)
(0.698391 0.472056 -1.40561e-21)
(0.702262 0.2459 2.4969e-21)
(0.73868 -0.00879242 -3.21146e-21)
(0.775012 -0.191992 -6.2734e-22)
(0.791478 -0.333666 0)
(0.728202 -0.392376 1.86557e-22)
(0.707656 -0.40893 -4.72061e-22)
(0.678249 -0.235842 -2.84756e-23)
(0.692431 -0.0277488 3.33608e-24)
(0.685807 0.152461 6.06529e-23)
(0.69097 0.355558 -1.19773e-22)
(0.698341 0.349084 0)
(0.733907 0.359534 4.54254e-22)
(0.745282 0.148201 0)
(0.715745 -0.324214 0)
(0.675689 -0.244052 8.39432e-23)
(1.2696 -0.321754 -6.78347e-20)
(1.29901 -0.422638 6.66758e-20)
(1.31836 -0.50653 -4.38152e-22)
(1.29771 -0.570651 4.53192e-22)
(1.2402 -0.608345 0)
(1.16489 -0.621885 0)
(1.08733 -0.619245 -5.34303e-22)
(1.01257 -0.607671 0)
(0.940502 -0.588853 3.49575e-22)