/*--------------------------------*- C++ -*----------------------------------*\
| =========                 |                                                 |
| \\      /  F ield         | OpenFOAM: The Open Source CFD Toolbox           |
|  \\    /   O peration     | Version:  2512                                  |
|   \\  /    A nd           | Website:  www.openfoam.com                      |
|    \\/     M anipulation  |                                                 |
\*---------------------------------------------------------------------------*/
FoamFile
{
    version     2.0;
    format      ascii;
    arch        "LSB;label=32;scalar=64";
    class       volVectorField;
    location    "23";
    object      U;
}
// * * * * * * * * * * * * * * * * * * * * * * * * * * * * * * * * * * * * * //

dimensions      [0 1 -1 0 0 0 0];

internalField   nonuniform List<vector> 
13248
(
(-0.0127602 0.0106144 3.15144e-20)
(-0.0300104 0.0253044 0)
(-0.0382059 0.0349046 -5.45969e-20)
(-0.0363615 0.0410595 5.05549e-20)
(-0.0239498 0.0448732 4.64719e-20)
(-0.000350568 0.0472292 0)
(0.0352873 0.0490207 0)
(0.0839213 0.0511597 1.08371e-19)
(0.146335 0.0545407 -1.74067e-22)
(0.222717 0.0599361 -9.31026e-20)
(0.312245 0.0678384 8.67353e-20)
(0.412919 0.0784012 -5.38479e-20)
(0.521639 0.0914023 0)
(0.634536 0.106251 -9.54328e-20)
(0.747311 0.122109 1.78657e-19)
(0.855909 0.137869 -4.22094e-20)
(0.956255 0.152623 -7.96333e-20)
(1.04577 0.164875 7.42359e-20)
(1.12141 0.174933 0)
(1.18277 0.179384 0)
(1.22868 0.18373 0)
(1.26023 0.17603 0)
(1.27775 0.177531 2.58846e-20)
(1.28792 0.152495 9.9871e-20)
(-0.0153259 0.0109144 -9.47096e-20)
(-0.0327775 0.0232105 5.9753e-20)
(-0.0375586 0.0292466 -3.32128e-22)
(-0.0287285 0.0320707 -7.63871e-20)
(-0.00531411 0.0335653 -4.64092e-20)
(0.0339276 0.0351489 -4.29749e-20)
(0.0902956 0.0380583 -7.83352e-20)
(0.164549 0.0433642 7.28799e-20)
(0.256207 0.0518829 0)
(0.363069 0.063996 8.28242e-23)
(0.481144 0.0795432 -8.21165e-23)
(0.605094 0.0978169 5.34302e-20)
(0.728969 0.117666 0)
(0.846967 0.137655 0)
(0.954094 0.156327 6.58046e-20)
(1.04652 0.172285 -1.22693e-19)
(1.12193 0.184562 7.63149e-20)
(1.17946 0.192392 -7.11469e-20)
(1.21962 0.195618 -3.23367e-20)
(1.24454 0.194448 -6.18418e-20)
(1.25638 0.189224 -2.75868e-20)
(1.25966 0.180911 -5.28469e-20)
(1.25605 0.171451 7.35842e-20)
(1.25311 0.158909 2.20694e-20)
(-0.0178026 0.0112359 0)
(-0.0335379 0.0216774 0)
(-0.0311226 0.0254366 2.74385e-20)
(-0.00984247 0.0265705 2.50146e-20)
(0.03154 0.0277067 -4.66281e-22)
(0.0944506 0.0308423 -4.38446e-20)
(0.179533 0.0375002 0)
(0.285507 0.0486643 -3.62861e-20)
(0.408441 0.0645943 3.36343e-20)
(0.541899 0.0847013 5.36979e-23)
(0.677934 0.107623 -5.72087e-20)
(0.808443 0.131485 -5.29146e-20)
(0.926383 0.154249 1.39071e-22)
(1.02661 0.174064 -4.54493e-20)
(1.10623 0.18955 1.06335e-19)
(1.16472 0.199867 0)
(1.20354 0.205066 -7.28716e-20)
(1.22583 0.205129 3.48845e-20)
(1.2357 0.201974 3.23028e-20)
(1.23757 0.194609 0)
(1.23546 0.187982 2.7829e-20)
(1.2325 0.176646 -9.87177e-20)
(1.23094 0.171621 9.21881e-20)
(1.2303 0.158745 6.24112e-20)
(-0.0193813 0.0109478 -3.26648e-20)
(-0.0303755 0.0194934 -3.11915e-20)
(-0.0161082 0.0220699 2.80977e-20)
(0.0237388 0.0232603 0)
(0.0902697 0.0263899 0)
(0.1839 0.0338715 -6.08097e-22)
(0.302522 0.0471581 0)
(0.440251 0.0664928 -1.09888e-19)
(0.587747 0.0907874 1.01227e-19)
(0.734021 0.117864 -1.24197e-19)
(0.868731 0.144998 2.85339e-20)
(0.983979 0.169537 0)
(1.07525 0.189417 4.81158e-20)
(1.14153 0.203473 -8.91356e-20)
(1.18484 0.211458 2.10867e-20)
(1.2094 0.214053 5.67974e-20)
(1.22054 0.212254 -7.6788e-22)
(1.22365 0.20771 -6.31698e-20)
(1.22309 0.201227 0)
(1.22203 0.194234 0)
(1.22128 0.187041 -2.43822e-20)
(1.22229 0.178973 2.23851e-20)
(1.22156 0.173694 8.44797e-20)
(1.22397 0.162744 -7.88494e-20)
(-0.0193675 0.00976661 -3.40103e-20)
(-0.0215674 0.0159934 -3.15852e-20)
(0.0100105 0.0183757 8.73267e-20)
(0.0749517 0.0216497 -5.25834e-20)
(0.173198 0.0295842 4.87127e-20)
(0.301911 0.0445621 8.79226e-20)
(0.453186 0.0670684 -6.1184e-20)
(0.614285 0.0955036 -7.3895e-20)
(0.770575 0.126696 1.05175e-21)
(0.909218 0.156915 9.3392e-20)
(1.02174 0.182898 0)
(1.10488 0.202533 2.57007e-20)
(1.16013 0.215112 0)
(1.19234 0.221151 -4.3042e-20)
(1.20804 0.222031 6.02873e-20)
(1.21374 0.219336 7.2993e-22)
(1.21466 0.214665 -1.63131e-20)
(1.21407 0.208856 3.14035e-20)
(1.2135 0.202778 2.73041e-20)
(1.2129 0.196081 -2.49813e-20)
(1.21225 0.189622 2.43714e-20)
(1.21054 0.181745 -2.23751e-20)
(1.20837 0.175921 0)
(1.20679 0.165899 -1.74962e-20)
(-0.0171558 0.00777243 3.40018e-20)
(-0.00535399 0.0114046 3.29218e-20)
(0.04977 0.0149325 -2.92465e-20)
(0.146351 0.0228866 5.37053e-20)
(0.280942 0.0389376 -4.97494e-20)
(0.443941 0.0643114 4.46789e-20)
(0.618862 0.0970338 -2.10477e-20)
(0.786557 0.132741 5.54397e-20)
(0.931032 0.166459 -3.43719e-20)
(1.04313 0.194239 6.11087e-20)
(1.12113 0.214021 -1.40186e-19)
(1.16918 0.225696 5.11601e-20)
(1.19467 0.230569 -4.58112e-20)
(1.20567 0.230602 4.26458e-20)
(1.20891 0.227655 3.7942e-20)
(1.20883 0.223147 3.41633e-20)
(1.20763 0.21777 -9.45192e-20)
(1.20609 0.211961 5.87901e-20)
(1.20414 0.205607 -2.73002e-20)
(1.20195 0.19897 7.28984e-20)
(1.19934 0.191977 -2.33245e-20)
(1.19715 0.184476 -5.94282e-20)
(1.19497 0.178455 5.50583e-20)
(1.1938 0.169119 1.74901e-20)
(-0.0121215 0.00526546 0)
(0.0200574 0.00669714 2.93875e-22)
(0.105511 0.0135172 6.08364e-20)
(0.23915 0.0294633 -5.60324e-20)
(0.410395 0.0568586 -5.01148e-20)
(0.599262 0.0938539 9.19427e-20)
(0.781034 0.134777 -4.21913e-20)
(0.935195 0.173006 5.60248e-20)
(1.05109 0.203629 -9.771e-22)
(1.12823 0.224564 -3.1219e-20)
(1.17315 0.236296 6.87708e-20)
(1.19536 0.240841 -1.00772e-19)
(1.20394 0.240617 0)
(1.20557 0.237616 -2.00418e-20)
(1.2042 0.233136 -5.45131e-20)
(1.20169 0.2278 1.68372e-20)
(1.19878 0.221935 3.83638e-22)
(1.19575 0.21561 -3.9865e-20)
(1.1929 0.209017 1.30774e-21)
(1.19027 0.202204 4.61193e-20)
(1.18807 0.195251 -2.14022e-20)
(1.18608 0.188279 -8.59013e-21)
(1.18384 0.181722 2.51859e-20)
(1.18258 0.173462 0)
(-0.00352635 0.00267745 0)
(0.0563276 0.00332363 1.67011e-20)
(0.178542 0.0165628 -7.90441e-20)
(0.351501 0.0441158 2.84053e-20)
(0.552988 0.0846828 -2.63111e-20)
(0.752034 0.131512 -2.37997e-20)
(0.921363 0.175769 -4.17032e-20)
(1.0469 0.210941 2.0381e-20)
(1.1283 0.234556 1.77166e-20)
(1.17402 0.247525 0)
(1.19547 0.252503 4.05479e-20)
(1.20279 0.252354 -6.02635e-20)
(1.20302 0.249276 4.46802e-20)
(1.20023 0.244625 2.00506e-20)
(1.19642 0.239098 -1.67716e-20)
(1.19249 0.23306 -1.45131e-20)
(1.1888 0.226673 -1.38717e-20)
(1.1855 0.220079 3.98534e-20)
(1.18251 0.213303 0)
(1.17974 0.206399 2.10041e-20)
(1.17701 0.199352 1.84574e-20)
(1.17429 0.192284 -4.46136e-20)
(1.17174 0.18525 -3.19535e-20)
(1.1693 0.177589 2.9224e-20)
(0.00940861 0.000544258 -1.95582e-20)
(0.104567 0.00301561 -8.10242e-22)
(0.268122 0.0265682 1.61252e-20)
(0.47734 0.0685972 4.45724e-20)
(0.695846 0.121459 1.28382e-20)
(0.886881 0.173533 -2.43273e-20)
(1.02947 0.215582 2.19285e-20)
(1.12132 0.243939 -1.9077e-20)
(1.17204 0.259594 3.39052e-20)
(1.19502 0.265798 1.45372e-20)
(1.20203 0.266007 -4.0601e-20)
(1.20118 0.26284 1.20631e-20)
(1.19713 0.257913 2.07785e-20)
(1.19219 0.252082 -1.00905e-20)
(1.18733 0.245771 0)
(1.18285 0.239165 1.55747e-20)
(1.17877 0.232356 2.67628e-20)
(1.17498 0.225363 5.03836e-21)
(1.17145 0.218231 -2.24506e-20)
(1.16817 0.210991 9.56275e-21)
(1.16519 0.203694 0)
(1.16254 0.196514 -7.76129e-21)
(1.15996 0.189114 -7.63e-21)
(1.15779 0.182139 0)
(0.0272828 -0.000432806 0)
(0.164771 0.00769066 9.5257e-21)
(0.370717 0.0455436 1.73963e-20)
(0.607045 0.102902 -4.56468e-20)
(0.826077 0.164374 1.45652e-20)
(0.99479 0.216213 0)
(1.10501 0.25208 2.11928e-20)
(1.16605 0.272373 -2.92073e-20)
(1.19348 0.280872 -1.69101e-20)
(1.20151 0.281868 7.62965e-21)
(1.20008 0.278691 -1.22386e-20)
(1.19493 0.273417 2.93287e-20)
(1.18882 0.267138 1.49516e-20)
(1.18286 0.260363 -1.01207e-20)
(1.17736 0.253297 -7.34932e-22)
(1.17233 0.246034 -2.87118e-20)
(1.16776 0.238621 1.3086e-20)
(1.16364 0.231117 -4.18684e-22)
(1.15995 0.223568 0)
(1.15666 0.216016 -9.57232e-21)
(1.15367 0.208515 0)
(1.15079 0.201032 2.23833e-20)
(1.14803 0.193372 -2.68151e-20)
(1.14514 0.186742 1.22895e-20)
(0.0502893 0.000557905 -5.54984e-21)
(0.235379 0.0191807 -2.43512e-20)
(0.480097 0.0744666 2.74162e-20)
(0.730116 0.145375 1.57496e-20)
(0.935068 0.210333 -7.388e-21)
(1.07416 0.257489 1.21564e-20)
(1.15316 0.285282 -5.82739e-21)
(1.18945 0.297755 9.54903e-21)
(1.2006 0.30029 0)
(1.19938 0.297304 2.13647e-20)
(1.19327 0.291607 -7.66319e-22)
(1.18589 0.284679 -1.70849e-20)
(1.17866 0.277194 7.35187e-21)
(1.17202 0.269426 -8.36409e-21)
(1.16604 0.261499 -3.25863e-21)
(1.16069 0.253483 3.6657e-21)
(1.15592 0.245432 -2.8527e-21)
(1.15165 0.237379 -1.58793e-20)
(1.14781 0.229353 9.6675e-21)
(1.14435 0.221386 2.00353e-21)
(1.14119 0.213496 1.78824e-21)
(1.13828 0.205649 1.59906e-21)
(1.13546 0.19784 0)
(1.13263 0.191242 0)
(0.0781611 0.00439442 5.55656e-21)
(0.313299 0.038956 -5.11738e-21)
(0.58866 0.113048 -9.19378e-21)
(0.838286 0.193654 0)
(1.01956 0.257192 -3.6852e-21)
(1.12774 0.296864 -3.2688e-21)
(1.17998 0.316087 -5.45699e-21)
(1.19783 0.321522 0)
(1.19825 0.31916 0)
(1.19156 0.312998 0)
(1.18288 0.305188 0)
(1.17428 0.29671 0)
(1.16641 0.287969 -4.59546e-21)
(1.1594 0.279127 2.07426e-21)
(1.15317 0.270259 3.65883e-21)
(1.14763 0.261409 1.72103e-21)
(1.1427 0.252607 4.26286e-21)
(1.13832 0.243886 0)
(1.13447 0.235282 -1.04542e-21)
(1.1311 0.226833 -1.03135e-21)
(1.1281 0.218544 -1.79107e-21)
(1.1253 0.210348 -1.60159e-21)
(1.12255 0.202402 0)
(1.11964 0.195533 1.18653e-21)
(-0.00433954 -0.0211542 3.57313e-21)
(-0.022025 -0.0454473 -3.44315e-21)
(-0.0524558 -0.058015 -6.4389e-21)
(-0.0866023 -0.063562 0)
(-0.121216 -0.0656924 -8.54947e-21)
(-0.155428 -0.0664933 2.66767e-21)
(-0.188971 -0.0668139 -5.0822e-21)
(-0.221818 -0.06683 0)
(-0.254017 -0.0664731 0)
(-0.285604 -0.0656296 0)
(-0.316586 -0.0641967 0)
(-0.346947 -0.0620894 0)
(-0.376649 -0.0592405 1.15364e-22)
(-0.40564 -0.0556016 -3.76447e-21)
(-0.433828 -0.0511447 7.30276e-21)
(-0.461208 -0.0458786 1.06815e-20)
(-0.487749 -0.0397645 3.40672e-21)
(-0.513323 -0.032827 0)
(-0.537834 -0.0251151 3.26395e-21)
(-0.561158 -0.0166973 -9.12594e-21)
(-0.583197 -0.0076346 -5.84685e-21)
(-0.603946 0.00204435 -5.61415e-21)
(-0.623466 0.0122916 0)
(-0.641808 0.0228434 0)
(-0.00430367 -0.00588034 -1.07302e-20)
(-0.0214827 -0.0137603 1.71416e-20)
(-0.0509403 -0.0183679 -6.30546e-21)
(-0.083987 -0.0205129 -1.20755e-20)
(-0.117474 -0.0214481 1.68547e-20)
(-0.15053 -0.0219337 -1.07576e-20)
(-0.182864 -0.0221904 1.50557e-20)
(-0.214426 -0.0221758 9.57054e-21)
(-0.245245 -0.021787 0)
(-0.27534 -0.0209344 -9.06733e-21)
(-0.304702 -0.0195492 -5.27119e-22)
(-0.333303 -0.0175777 7.85867e-21)
(-0.361094 -0.01498 1.16195e-20)
(-0.388014 -0.0117313 1.51857e-20)
(-0.414012 -0.0078274 -6.8051e-21)
(-0.438936 -0.0032881 -2.06641e-20)
(-0.462649 0.0019175 6.79279e-21)
(-0.485105 0.00775091 -2.53739e-20)
(-0.506181 0.0141543 0)
(-0.525692 0.0210411 6.07168e-21)
(-0.5434 0.0283107 5.838e-21)
(-0.559189 0.0358926 5.60559e-21)
(-0.573374 0.0437358 0)
(-0.586492 0.0515594 0)
(-0.00541048 0.00790252 0)
(-0.0221995 0.0153317 3.43561e-20)
(-0.0491095 0.0185692 -1.27319e-20)
(-0.0790041 0.020053 1.2094e-20)
(-0.109189 0.0205818 -3.36051e-20)
(-0.138823 0.0206041 0)
(-0.167561 0.0205051 -2.03011e-20)
(-0.195281 0.0205655 9.28511e-21)
(-0.22195 0.0209483 -1.81389e-20)
(-0.247537 0.021738 8.59266e-21)
(-0.271997 0.0229808 5.02013e-20)
(-0.295265 0.0247071 -2.33101e-20)
(-0.317265 0.0269371 -3.86733e-20)
(-0.337905 0.0296813 -1.54939e-20)
(-0.35708 0.0329405 -8.97398e-22)
(-0.374657 0.0367234 5.41946e-20)
(-0.390492 0.0409667 -2.56554e-20)
(-0.404462 0.0456219 2.73034e-22)
(-0.41644 0.050625 0)
(-0.426256 0.0558877 -2.29544e-20)
(-0.4336 0.0612833 0)
(-0.438103 0.066652 -2.21372e-20)
(-0.440009 0.0718709 8.1972e-20)
(-0.441051 0.076898 1.1153e-21)
(-0.00721829 0.0186216 0)
(-0.0237171 0.0391056 1.50572e-22)
(-0.046962 0.0499445 1.29478e-20)
(-0.072152 0.0555128 -1.22161e-20)
(-0.0973172 0.0580465 1.09489e-20)
(-0.121722 0.0589692 6.38714e-20)
(-0.144977 0.0592381 -1.99021e-20)
(-0.166878 0.0594202 -1.90651e-20)
(-0.187314 0.0597975 3.62252e-20)
(-0.206196 0.0604892 -5.22394e-20)
(-0.22344 0.0615409 1.59761e-20)
(-0.238952 0.0629699 1.57003e-20)
(-0.252632 0.0647809 0)
(-0.264369 0.0669694 1.45509e-20)
(-0.274044 0.069522 0)
(-0.281526 0.072414 2.646e-20)
(-0.286674 0.0755976 -5.19539e-20)
(-0.28935 0.0790161 1.09407e-20)
(-0.289429 0.0825985 4.65422e-20)
(-0.286802 0.0862618 2.29275e-20)
(-0.281298 0.0899046 0)
(-0.272456 0.0933593 -6.35312e-20)
(-0.259501 0.0962392 1.96933e-20)
(-0.244093 0.0979058 0)
(-0.00917638 0.0254346 0)
(-0.0254726 0.0557834 -4.1924e-20)
(-0.0445451 0.0735983 -1.31741e-20)
(-0.0641509 0.0836643 -2.44132e-20)
(-0.0831969 0.0888589 2.26212e-20)
(-0.101153 0.0912179 -2.13119e-20)
(-0.117646 0.092168 4.07006e-20)
(-0.132418 0.0925925 1.98168e-20)
(-0.145288 0.0929616 -5.38864e-20)
(-0.156117 0.0934893 3.48174e-20)
(-0.164789 0.0942587 -4.92217e-20)
(-0.171197 0.0952955 1.09694e-19)
(-0.175236 0.0966 -5.89685e-20)
(-0.176804 0.0981581 2.84071e-20)
(-0.175797 0.0999433 8.2724e-20)
(-0.172108 0.101916 -2.4938e-20)
(-0.165624 0.104018 -2.34944e-20)
(-0.156244 0.106194 -2.36942e-20)
(-0.143873 0.108361 0)
(-0.128393 0.110446 -4.51461e-20)
(-0.109687 0.11244 -4.45605e-20)
(-0.0879701 0.11412 6.06347e-20)
(-0.0646226 0.115064 8.00749e-20)
(-0.02787 0.116557 -7.45004e-20)
(-0.0107456 0.0281997 0)
(-0.0268592 0.0646101 -5.69019e-20)
(-0.0418897 0.0881812 -3.59804e-22)
(-0.0558025 0.102793 4.88939e-20)
(-0.0683554 0.111181 0)
(-0.079307 0.115547 0)
(-0.0883943 0.117586 0)
(-0.0953732 0.118458 -1.94613e-20)
(-0.100037 0.118864 -7.06569e-22)
(-0.10222 0.119176 3.38997e-20)
(-0.10179 0.119568 -4.98062e-20)
(-0.0986421 0.120111 -6.52618e-22)
(-0.0926911 0.120823 0)
(-0.0838634 0.121692 -2.83916e-20)
(-0.0720956 0.12269 2.7459e-20)
(-0.0573396 0.12377 -7.63806e-20)
(-0.0395279 0.12488 9.93773e-20)
(-0.0186079 0.125945 2.53783e-20)
(0.00538169 0.126906 2.52062e-21)
(0.0326352 0.127603 -8.5825e-20)
(0.0626256 0.128148 -4.11762e-20)
(0.0975161 0.127905 1.41059e-19)
(0.129253 0.126532 -9.4397e-20)
(0.18417 0.129543 0)
(-0.0115718 0.0275025 3.04315e-20)
(-0.0274357 0.0660492 2.85104e-20)
(-0.0390877 0.0934603 -2.66907e-20)
(-0.047944 0.111976 -4.95922e-20)
(-0.0543948 0.123625 4.59496e-20)
(-0.0585045 0.130354 -4.33653e-20)
(-0.0602025 0.133855 6.04223e-20)
(-0.0593524 0.135433 -1.94921e-20)
(-0.0557985 0.135984 3.5635e-20)
(-0.0493999 0.136067 0)
(-0.0400469 0.13599 3.26609e-20)
(-0.0276629 0.135912 -5.99603e-20)
(-0.0122007 0.135899 5.87672e-20)
(0.00636471 0.135965 -5.47022e-20)
(0.0280453 0.13609 0)
(0.0528312 0.136246 5.0316e-20)
(0.0806696 0.136381 9.69004e-20)
(0.111763 0.136349 -9.09624e-20)
(0.145432 0.136195 -4.34017e-20)
(0.18363 0.135639 -4.41896e-20)
(0.220697 0.134879 1.21174e-19)
(0.270483 0.133853 3.94132e-20)
(0.302404 0.130658 -3.57063e-20)
(0.379267 0.13102 3.49895e-20)
(-0.0115799 0.0244225 -3.04388e-20)
(-0.0270959 0.0616226 8.69749e-20)
(-0.0363842 0.090426 -2.68985e-20)
(-0.0413921 0.111372 4.98003e-20)
(-0.0428271 0.125569 -4.61416e-20)
(-0.0409838 0.134451 -2.5112e-22)
(-0.0360102 0.139464 1.99547e-20)
(-0.0279517 0.141873 7.57347e-20)
(-0.0167908 0.142662 9.44986e-22)
(-0.00248801 0.142524 -3.3334e-20)
(0.0149905 0.141905 0)
(0.03566 0.141073 -3.0208e-20)
(0.0595142 0.140175 5.62562e-20)
(0.0865292 0.139274 5.4531e-20)
(0.116735 0.13834 -2.55238e-20)
(0.150151 0.137422 -7.83643e-22)
(0.186376 0.136466 -2.3714e-20)
(0.226586 0.135525 4.37913e-20)
(0.267558 0.134446 4.34038e-20)
(0.317974 0.133507 -4.15523e-20)
(0.358563 0.131773 3.84457e-20)
(0.427773 0.131024 -3.67347e-20)
(0.456561 0.127398 0)
(0.559223 0.126509 -3.49789e-20)
(-0.0110017 0.0202287 3.08649e-20)
(-0.0261589 0.0535444 -2.90697e-20)
(-0.034233 0.0811721 2.69818e-20)
(-0.0368932 0.102416 0)
(-0.0348474 0.117611 0)
(-0.0285033 0.127642 4.28725e-20)
(-0.0181906 0.13359 -3.99506e-20)
(-0.00415203 0.136536 3.75018e-20)
(0.0134527 0.137422 -1.74908e-19)
(0.0345263 0.136991 -3.20005e-22)
(0.0590163 0.135782 3.05834e-20)
(0.0869131 0.134162 0)
(0.118243 0.13237 -5.57323e-20)
(0.152971 0.130537 1.04729e-19)
(0.191233 0.128841 -7.44815e-20)
(0.233516 0.12743 -1.19665e-19)
(0.279131 0.126187 -2.06904e-21)
(0.331122 0.125549 8.34233e-20)
(0.381763 0.124425 0)
(0.44952 0.1249 0)
(0.496548 0.122987 -3.84591e-20)
(0.592122 0.125064 3.6747e-20)
(0.619976 0.121321 -1.39877e-19)
(0.756444 0.124226 1.30487e-19)
(-0.0103169 0.0161 0)
(-0.0253386 0.0442104 0)
(-0.0332568 0.0684677 -8.10258e-20)
(-0.0349681 0.087709 2.51004e-20)
(-0.0309679 0.101865 7.34606e-23)
(-0.0216619 0.111423 4.25741e-20)
(-0.00746634 0.117137 0)
(0.0112646 0.119869 -3.66996e-20)
(0.0342853 0.120463 3.47536e-20)
(0.0614835 0.119655 -6.40779e-20)
(0.0928795 0.118047 -3.20242e-22)
(0.12862 0.116127 5.7256e-20)
(0.169022 0.114293 7.946e-22)
(0.214518 0.112901 5.20545e-20)
(0.265375 0.112137 -7.16304e-20)
(0.322129 0.112079 0)
(0.383847 0.112616 8.80361e-20)
(0.454043 0.114259 -1.24337e-19)
(0.523113 0.115583 3.89385e-20)
(0.611436 0.119452 0)
(0.675468 0.119878 3.55298e-20)
(0.79151 0.126876 1.40549e-19)
(0.828548 0.123886 -1.31232e-19)
(0.983619 0.133683 -1.5845e-19)
(-0.0101185 0.0129127 9.3234e-20)
(-0.025493 0.0356722 -1.17689e-19)
(-0.0339564 0.0551468 2.06403e-22)
(-0.0355191 0.0705283 2.51358e-20)
(-0.0303813 0.0817882 -4.61394e-20)
(-0.0188246 0.0892786 -4.27126e-20)
(-0.0011564 0.0935864 7.87271e-20)
(0.022421 0.0954501 3.64571e-22)
(0.0518855 0.0956654 -6.78309e-20)
(0.0874543 0.0949911 1.26809e-19)
(0.129567 0.0941365 1.02878e-21)
(0.178758 0.0937072 -5.5273e-20)
(0.235501 0.0941483 0)
(0.300074 0.0957634 0)
(0.372363 0.0986864 -2.37256e-20)
(0.451959 0.102854 -4.37522e-20)
(0.537244 0.108421 -8.51979e-20)
(0.628295 0.114578 7.94208e-20)
(0.719385 0.12178 -3.89711e-20)
(0.817675 0.128737 7.36841e-20)
(0.901044 0.134847 -3.40537e-20)
(1.00755 0.142493 6.85536e-20)
(1.06007 0.142461 -1.55873e-19)
(1.18592 0.15199 3.08735e-20)
(-0.010889 0.0111024 3.11936e-20)
(-0.0271446 0.0292425 0)
(-0.0361049 0.0435139 5.43526e-20)
(-0.0371012 0.0541462 -5.03285e-20)
(-0.0300049 0.0615515 4.62017e-20)
(-0.0147713 0.0662305 0)
(0.00873878 0.0688273 0)
(0.0408829 0.0701208 -3.6008e-20)
(0.0822299 0.0709371 4.15606e-23)
(0.133445 0.0720884 3.09798e-20)
(0.195078 0.0742914 -2.91037e-20)
(0.267267 0.0780765 5.43891e-20)
(0.349498 0.0837532 0)
(0.440491 0.091372 9.73375e-20)
(0.538192 0.100819 -1.82635e-19)
(0.640086 0.111426 1.295e-19)
(0.743175 0.123241 8.25125e-20)
(0.844338 0.13405 -7.69173e-20)
(0.941075 0.145969 0)
(1.02991 0.153045 0)
(1.10919 0.162628 0)
(1.17961 0.162938 0)
(1.22887 0.166226 3.06629e-20)
(1.28968 0.161821 -1.13147e-19)
(-0.661234 0.0347211 -3.75924e-21)
(-0.681308 0.0470912 3.75585e-21)
(-0.695308 0.0603986 -1.15319e-22)
(-0.706829 0.0730434 0)
(-0.712319 0.085108 -3.53459e-21)
(-0.714169 0.0961563 6.81316e-21)
(-0.709697 0.105697 -8.34513e-23)
(-0.700355 0.113564 -3.10703e-21)
(-0.684073 0.119128 0)
(-0.661542 0.122037 0)
(-0.631031 0.121461 -1.4788e-22)
(-0.592642 0.116578 -1.31384e-22)
(-0.544928 0.106325 -1.76544e-21)
(-0.487689 0.090007 1.60376e-21)
(-0.419955 0.0674453 0)
(-0.341316 0.0375347 0)
(-0.252703 0.000619012 4.3508e-22)
(-0.15526 -0.039886 -2.56173e-22)
(-0.0511474 -0.0779029 -1.56002e-22)
(0.0557051 -0.108106 8.70201e-24)
(0.159037 -0.126513 0)
(0.253425 -0.1321 0)
(0.336525 -0.126926 0)
(0.40733 -0.114084 0)
(0.467281 -0.0971433 0)
(0.518677 -0.077764 0)
(0.564363 -0.0581332 -1.33234e-22)
(0.606651 -0.038432 2.16596e-22)
(0.646808 -0.0206409 0)
(0.685378 -0.00399098 0)
(0.721466 0.00922496 1.03798e-22)
(0.754998 0.020683 -1.00857e-22)
(0.784627 0.0276551 -4.12824e-23)
(0.810763 0.0333877 0)
(0.832668 0.0349116 0)
(0.851413 0.0363219 -5.07104e-23)
(0.866908 0.034197 4.92863e-23)
(0.880307 0.0331674 0)
(0.891724 0.0293687 -3.27823e-23)
(0.901901 0.0275981 4.68354e-23)
(0.910936 0.023505 -1.29178e-23)
(0.919268 0.0223593 0)
(0.926822 0.018953 1.81571e-23)
(0.93398 0.019264 -1.76551e-23)
(0.94065 0.0166217 0)
(0.947492 0.0181926 0)
(0.954288 0.0162146 4.9987e-24)
(0.961354 0.0187569 -1.39864e-23)
(0.968021 0.017356 0)
(0.974286 0.020418 0)
(0.979508 0.0190707 2.63842e-24)
(0.984074 0.0224929 -1.4614e-26)
(0.987421 0.0211005 3.20604e-25)
(0.990437 0.0249816 -1.48059e-24)
(0.992362 0.0238542 0)
(0.994376 0.0281557 0)
(0.995384 0.0273424 0)
(0.99692 0.0321135 0)
(0.997343 0.0316182 0)
(0.998753 0.0368521 0)
(-0.599727 0.0598579 -3.48006e-22)
(-0.621342 0.0649987 -1.48905e-20)
(-0.630499 0.0728836 -9.0837e-23)
(-0.639558 0.0785285 1.402e-20)
(-0.639963 0.084787 2.16841e-22)
(-0.636668 0.089212 0)
(-0.625701 0.0928034 -1.25088e-20)
(-0.609134 0.0942849 2.43058e-20)
(-0.584768 0.0938199 -1.17968e-20)
(-0.553543 0.0904548 1.02063e-20)
(-0.514061 0.0837132 -9.76263e-21)
(-0.466632 0.0727412 8.01357e-21)
(-0.410111 0.0570877 -7.8054e-21)
(-0.344435 0.0352905 -2.07199e-22)
(-0.270155 0.00588191 -4.68312e-21)
(-0.188042 -0.0310158 4.54779e-21)
(-0.0981025 -0.0737039 -2.28892e-21)
(0.000385443 -0.117113 2.16237e-21)
(0.104583 -0.155202 -9.53131e-23)
(0.208395 -0.181648 -6.70461e-22)
(0.305552 -0.193176 7.27324e-22)
(0.391342 -0.18909 8.92654e-23)
(0.463885 -0.173053 1.83828e-21)
(0.522615 -0.149757 -3.62514e-21)
(0.569286 -0.124358 1.78689e-21)
(0.605812 -0.0991586 -1.01273e-22)
(0.635295 -0.0760483 -1.48196e-21)
(0.660194 -0.0546291 8.4881e-23)
(0.683526 -0.0361106 2.34051e-21)
(0.706599 -0.0191104 -2.04348e-21)
(0.730285 -0.00535061 9.38393e-22)
(0.754003 0.00731532 -9.57688e-23)
(0.77741 0.0158174 4.13695e-23)
(0.799727 0.0231549 -7.18015e-23)
(0.820465 0.0262441 0)
(0.839239 0.0290643 0)
(0.856115 0.028124 1.75912e-22)
(0.871087 0.0280542 -1.30826e-22)
(0.884478 0.0250264 -9.65437e-23)
(0.896273 0.0238718 -6.89931e-25)
(0.906841 0.0202692 1.23009e-22)
(0.91619 0.0195322 -2.22791e-23)
(0.924567 0.0164561 0)
(0.932124 0.0170217 0)
(0.93911 0.0145194 0)
(0.946077 0.016144 0)
(0.95306 0.0141957 -2.12374e-23)
(0.960318 0.0168164 9.13396e-24)
(0.967234 0.0155866 0)
(0.973771 0.018897 0)
(0.979213 0.0178248 0)
(0.983988 0.0215186 4.09628e-24)
(0.987456 0.020352 -6.73423e-25)
(0.990599 0.0244166 3.26216e-24)
(0.992573 0.023426 0)
(0.994677 0.0278321 0)
(0.995702 0.027086 -1.33626e-24)
(0.997315 0.0319143 -3.03028e-24)
(0.997744 0.0314458 0)
(0.999231 0.0367137 0)
(-0.441995 0.0819302 1.17363e-21)
(-0.465294 0.0795406 -2.87865e-20)
(-0.467983 0.0818563 2.95686e-20)
(-0.473464 0.0808796 -2.76074e-20)
(-0.469025 0.0808749 -2.18382e-22)
(-0.461199 0.0789858 0)
(-0.445688 0.0763359 -2.58955e-20)
(-0.424407 0.0717195 2.53364e-20)
(-0.395773 0.0653252 1.80577e-22)
(-0.360426 0.0563209 3.4302e-22)
(-0.317581 0.04455 3.16327e-22)
(-0.267054 0.0290858 2.75652e-22)
(-0.209234 0.00739999 -1.51436e-20)
(-0.145226 -0.0200793 1.49133e-20)
(-0.074902 -0.0548984 0)
(0.00340361 -0.095892 3.08928e-22)
(0.0899625 -0.141371 -5.73046e-21)
(0.182231 -0.186451 5.62551e-21)
(0.277455 -0.224425 0)
(0.370129 -0.247842 0)
(0.454269 -0.252465 2.1758e-21)
(0.525907 -0.239247 -5.20344e-21)
(0.584559 -0.213623 6.24179e-21)
(0.631056 -0.181343 8.0603e-23)
(0.667627 -0.147906 -6.57572e-21)
(0.695913 -0.116407 6.42792e-21)
(0.718066 -0.0888183 -5.6303e-21)
(0.734963 -0.0646621 3.8387e-22)
(0.749185 -0.0448378 2.42695e-21)
(0.761694 -0.0274572 0)
(0.774912 -0.0139806 0)
(0.78852 -0.00175786 -5.36488e-22)
(0.803529 0.00694863 7.07539e-22)
(0.818854 0.0147489 3.04549e-25)
(0.834934 0.0185022 -4.72164e-22)
(0.850307 0.0221011 4.58789e-22)
(0.865399 0.0219731 0)
(0.879109 0.022676 -4.03157e-23)
(0.89198 0.0203804 -2.97467e-22)
(0.903213 0.0198802 5.41773e-22)
(0.913413 0.0168547 -2.20285e-22)
(0.922134 0.0166149 -2.22233e-23)
(0.929924 0.0139499 1.84025e-22)
(0.936668 0.0148258 -1.41497e-22)
(0.942904 0.0124948 -2.86151e-23)
(0.949015 0.0141751 -2.46854e-23)
(0.955272 0.0122375 2.1294e-23)
(0.961878 0.0149081 0)
(0.968306 0.0138228 0)
(0.974513 0.017366 5.19857e-23)
(0.979723 0.0165609 -2.44523e-23)
(0.984389 0.0205265 1.91425e-23)
(0.987771 0.0195853 -2.38977e-23)
(0.990915 0.0238371 -2.5092e-23)
(0.992862 0.022983 5.87523e-24)
(0.995017 0.0274969 -8.33421e-24)
(0.996038 0.0268177 6.26168e-24)
(0.997718 0.0317059 -2.61133e-24)
(0.998148 0.0312639 0)
(0.99971 0.0365678 0)
(-0.236201 0.101867 -5.92665e-20)
(-0.256809 0.0900263 -1.06606e-21)
(-0.257445 0.0877 5.68804e-20)
(-0.258615 0.0811746 -4.48747e-22)
(-0.252252 0.0746128 0)
(-0.241635 0.0668653 0)
(-0.224866 0.0583062 -5.29092e-20)
(-0.202323 0.0481907 5.70192e-22)
(-0.173508 0.0364035 7.24975e-20)
(-0.138134 0.0230924 -1.27807e-21)
(-0.0963473 0.00664845 -2.1633e-20)
(-0.0499144 -0.0139048 -1.77492e-20)
(0.00270246 -0.0397864 1.78215e-20)
(0.0635981 -0.0713915 0)
(0.130324 -0.108905 -1.18734e-20)
(0.202481 -0.15164 1.08712e-20)
(0.2813 -0.199114 0)
(0.365104 -0.246572 0)
(0.449417 -0.284262 1.97089e-21)
(0.527182 -0.303544 -1.93434e-21)
(0.593071 -0.30087 -1.86314e-23)
(0.645144 -0.279113 2.51365e-21)
(0.685026 -0.245364 -2.52314e-21)
(0.715545 -0.206513 3.22353e-21)
(0.739798 -0.167681 -4.62199e-23)
(0.759776 -0.131861 -2.99824e-21)
(0.777251 -0.100823 -3.45421e-22)
(0.791851 -0.0738789 -8.25764e-24)
(0.804605 -0.0520572 0)
(0.815116 -0.0334771 -1.90179e-21)
(0.825184 -0.0193591 1.95519e-21)
(0.834494 -0.00722984 -9.62829e-23)
(0.844729 0.00116764 0)
(0.85484 0.00897463 7.23867e-23)
(0.8663 0.0127977 -9.45987e-22)
(0.877486 0.0166287 1.62923e-21)
(0.889239 0.0168977 4.94327e-24)
(0.900017 0.0180836 -7.64525e-23)
(0.910544 0.0163495 -5.2316e-22)
(0.919609 0.0164086 -6.02223e-23)
(0.927938 0.013916 3.91986e-22)
(0.934828 0.0141428 -3.36066e-22)
(0.940991 0.0118672 -1.27586e-25)
(0.946118 0.013032 -1.2586e-22)
(0.950881 0.010853 1.51073e-22)
(0.955499 0.0125585 1.67837e-22)
(0.96038 0.0105866 -4.82924e-23)
(0.965715 0.0132477 -6.92796e-23)
(0.971067 0.0122428 1.26645e-22)
(0.976442 0.015961 -8.45773e-23)
(0.981017 0.0153755 1.97925e-23)
(0.985281 0.0195795 -2.49503e-23)
(0.988377 0.0188391 -1.8714e-23)
(0.991395 0.0232646 3.82774e-23)
(0.99324 0.0225364 -1.10996e-24)
(0.995403 0.0271552 8.31511e-24)
(0.996396 0.0265396 0)
(0.998131 0.0314888 2.58938e-24)
(0.998556 0.0310724 -3.40799e-24)
(1.00019 0.0364144 0)
(-0.0156414 0.114294 5.94398e-20)
(-0.0306045 0.100857 -1.1709e-19)
(-0.0295812 0.091421 5.7151e-20)
(-0.0292027 0.0805909 5.8339e-20)
(-0.0226067 0.0690108 -1.14315e-19)
(-0.01154 0.0560519 2.64949e-22)
(0.00443767 0.042238 5.45282e-20)
(0.0252121 0.027394 5.1525e-20)
(0.0519736 0.0118407 -5.04043e-20)
(0.0838233 -0.00589552 0)
(0.120612 -0.026996 -4.24631e-20)
(0.16328 -0.0520619 8.00719e-20)
(0.211364 -0.0797549 -3.76939e-20)
(0.265845 -0.113018 0)
(0.326522 -0.152805 0)
(0.393086 -0.198588 3.49907e-22)
(0.465902 -0.248888 -1.60297e-20)
(0.541624 -0.297118 1.55616e-20)
(0.613028 -0.332588 0)
(0.67243 -0.346408 1.74979e-21)
(0.716268 -0.336287 -1.85489e-23)
(0.74572 -0.307122 -5.17344e-21)
(0.764979 -0.26732 8.61108e-21)
(0.778573 -0.224191 7.10227e-22)
(0.789797 -0.182455 -1.10488e-20)
(0.800475 -0.144427 5.58427e-21)
(0.812169 -0.111825 1.68954e-22)
(0.824183 -0.0834783 2.16625e-21)
(0.836474 -0.0602185 -1.63529e-22)
(0.847875 -0.0403558 -2.02953e-21)
(0.858981 -0.025207 -1.09207e-22)
(0.868874 -0.0121898 1.43929e-21)
(0.878844 -0.00364826 -2.65294e-21)
(0.887784 0.00446473 1.361e-21)
(0.897223 0.00848146 0)
(0.906039 0.0125196 9.27827e-22)
(0.915222 0.0130784 -8.89471e-22)
(0.923434 0.0146115 5.31133e-22)
(0.931489 0.0133052 -6.64143e-22)
(0.938244 0.0138073 6.011e-23)
(0.944425 0.0117461 0)
(0.949354 0.0123469 4.48175e-23)
(0.95375 0.0103806 -1.162e-22)
(0.957255 0.0117763 0)
(0.960493 0.00971225 -2.75424e-22)
(0.963587 0.0114139 1.12229e-22)
(0.966957 0.00936694 -4.28871e-23)
(0.970843 0.0119604 -3.68458e-23)
(0.974872 0.0109619 0)
(0.979168 0.0147793 0)
(0.98288 0.0143437 6.56724e-23)
(0.986557 0.018731 -9.66071e-23)
(0.989227 0.0181488 5.08172e-23)
(0.992024 0.0227213 -1.53573e-23)
(0.993704 0.0220997 -2.34483e-23)
(0.995836 0.0268143 -8.32408e-24)
(0.996778 0.026256 1.25307e-23)
(0.998556 0.0312651 0)
(0.99897 0.0308726 5.53155e-24)
(1.00067 0.036254 1.23476e-24)
(0.193136 0.120664 5.92529e-20)
(0.190621 0.109057 -5.8526e-20)
(0.192572 0.0950842 4.62272e-22)
(0.19601 0.0813088 -4.51367e-22)
(0.202292 0.0661878 4.52945e-22)
(0.212127 0.0497052 -4.43568e-22)
(0.225978 0.0317462 8.59193e-22)
(0.244731 0.0130561 0)
(0.267459 -0.00669599 -7.98426e-22)
(0.294287 -0.0289724 7.58724e-22)
(0.326464 -0.0531708 7.13425e-22)
(0.363814 -0.080553 -6.48203e-22)
(0.406742 -0.112007 0)
(0.456217 -0.148511 0)
(0.512097 -0.190903 4.79737e-22)
(0.573748 -0.238562 0)
(0.640163 -0.289888 -3.29818e-22)
(0.706134 -0.337122 0)
(0.761628 -0.368053 -7.31438e-21)
(0.799069 -0.37492 1.05932e-20)
(0.818328 -0.35767 -3.1042e-21)
(0.8245 -0.322985 -3.66515e-23)
(0.824186 -0.279847 -3.81575e-21)
(0.822775 -0.235084 3.70387e-21)
(0.823148 -0.192903 5.09626e-21)
(0.826056 -0.154345 -4.95297e-21)
(0.832342 -0.121413 0)
(0.84121 -0.0927282 -1.35777e-22)
(0.851983 -0.0689076 0)
(0.863359 -0.0482212 0)
(0.875288 -0.0321759 -3.01601e-21)
(0.886536 -0.0182101 3.12779e-21)
(0.897735 -0.00876601 -1.6151e-22)
(0.907681 -0.000479152 -1.43893e-22)
(0.917228 0.00434624 1.23186e-22)
(0.925724 0.00892816 8.20203e-22)
(0.933953 0.00993695 -7.96263e-22)
(0.941003 0.0118815 6.95628e-22)
(0.947616 0.0109967 -5.96229e-22)
(0.952988 0.0119003 -1.21125e-22)
(0.957739 0.0102039 3.95578e-22)
(0.961415 0.0111029 2.20609e-24)
(0.964629 0.0093719 -2.53448e-22)
(0.967106 0.010952 0)
(0.969301 0.00898513 1.15873e-22)
(0.971317 0.0106828 -1.38655e-22)
(0.973483 0.00855124 1.83222e-22)
(0.97614 0.0110469 3.70928e-23)
(0.978943 0.00999963 0)
(0.98219 0.0138495 -2.37565e-23)
(0.985007 0.013495 4.93785e-23)
(0.98805 0.0180065 2.27777e-26)
(0.990238 0.0175348 1.60667e-23)
(0.992766 0.0222213 -2.41852e-23)
(0.994239 0.0216828 2.35013e-23)
(0.996314 0.0264804 0)
(0.997186 0.0259709 -1.25381e-23)