/*--------------------------------*- C++ -*----------------------------------*\
| =========                 |                                                 |
| \\      /  F ield         | OpenFOAM: The Open Source CFD Toolbox           |
|  \\    /   O peration     | Version:  2512                                  |
|   \\  /    A nd           | Website:  www.openfoam.com                      |
|    \\/     M anipulation  |                                                 |
\*---------------------------------------------------------------------------*/
FoamFile
{
    version     2.0;
    format      ascii;
    arch        "LSB;label=32;scalar=64";
    class       volScalarField;
    location    "121";
    object      p;
}
// * * * * * * * * * * * * * * * * * * * * * * * * * * * * * * * * * * * * * //

dimensions      [0 2 -2 0 0 0 0];

internalField   nonuniform List<scalar> 
13248
(
-0.5643
-0.562403
-0.56146
-0.561383
-0.562198
-0.563685
-0.565206
-0.565691
-0.563697
-0.557632
-0.546131
-0.52841
-0.504482
-0.475137
-0.441708
-0.405743
-0.3687
-0.331781
-0.295816
-0.261416
-0.228794
-0.198228
-0.169298
-0.141463
-0.568852
-0.566545
-0.564616
-0.563136
-0.562207
-0.561609
-0.560611
-0.558009
-0.552355
-0.542322
-0.527072
-0.506463
-0.481055
-0.451908
-0.420293
-0.387423
-0.354303
-0.321676
-0.290054
-0.259793
-0.231072
-0.204129
-0.178662
-0.154833
-0.574161
-0.571418
-0.568642
-0.565922
-0.563332
-0.560541
-0.556665
-0.550462
-0.540718
-0.526626
-0.507992
-0.48524
-0.459225
-0.430977
-0.401482
-0.371556
-0.341816
-0.312712
-0.28457
-0.257636
-0.232063
-0.207983
-0.185234
-0.163509
-0.581076
-0.577724
-0.574127
-0.570219
-0.565875
-0.560552
-0.55327
-0.542975
-0.528962
-0.511079
-0.489709
-0.46559
-0.439583
-0.412488
-0.38496
-0.357497
-0.330469
-0.304156
-0.278768
-0.254482
-0.231388
-0.209631
-0.188997
-0.169398
-0.590038
-0.585814
-0.581295
-0.576074
-0.569657
-0.561285
-0.550068
-0.535429
-0.517335
-0.496238
-0.472861
-0.447979
-0.422273
-0.396274
-0.370369
-0.344846
-0.319921
-0.295763
-0.272514
-0.250281
-0.229151
-0.209185
-0.19023
-0.172242
-0.601159
-0.595785
-0.590156
-0.58331
-0.574297
-0.56226
-0.546694
-0.527721
-0.50597
-0.482281
-0.457454
-0.432127
-0.40675
-0.381627
-0.356966
-0.332916
-0.309597
-0.28711
-0.265534
-0.244938
-0.225368
-0.206852
-0.1893
-0.172709
-0.614334
-0.607596
-0.600596
-0.591643
-0.579337
-0.563
-0.542838
-0.519751
-0.494849
-0.4691
-0.443195
-0.417561
-0.392444
-0.36798
-0.344255
-0.321331
-0.299257
-0.278076
-0.257823
-0.238524
-0.220198
-0.202841
-0.186418
-0.170916
-0.629281
-0.621044
-0.612333
-0.600615
-0.584197
-0.563005
-0.538207
-0.511363
-0.4838
-0.456394
-0.429629
-0.403726
-0.378767
-0.354774
-0.331749
-0.309688
-0.288589
-0.26845
-0.249266
-0.231032
-0.213736
-0.197358
-0.181884
-0.167227
-0.645457
-0.635652
-0.624794
-0.609483
-0.588136
-0.561752
-0.532497
-0.502333
-0.472538
-0.443767
-0.416275
-0.39011
-0.365235
-0.341587
-0.319106
-0.297738
-0.277438
-0.258166
-0.239886
-0.22256
-0.206153
-0.190635
-0.175979
-0.162039
-0.661976
-0.650569
-0.637005
-0.617184
-0.590254
-0.558626
-0.525264
-0.492221
-0.460544
-0.430619
-0.402495
-0.376082
-0.35125
-0.327874
-0.305843
-0.285063
-0.265451
-0.246937
-0.229456
-0.212947
-0.197358
-0.182646
-0.168754
-0.155512
-0.677594
-0.66455
-0.647575
-0.622356
-0.58944
-0.55274
-0.515686
-0.480161
-0.446889
-0.415992
-0.38734
-0.360729
-0.335959
-0.312849
-0.291245
-0.271016
-0.25205
-0.23425
-0.217529
-0.201809
-0.187025
-0.173123
-0.160006
-0.147532
-0.690786
-0.676063
-0.654869
-0.623468
-0.584416
-0.542955
-0.502643
-0.465014
-0.430436
-0.398777
-0.369752
-0.343062
-0.318441
-0.295661
-0.27453
-0.254884
-0.236585
-0.219513
-0.203563
-0.188646
-0.174696
-0.16165
-0.149395
-0.137845
-0.414324
-0.416034
-0.416605
-0.417399
-0.419213
-0.42232
-0.426835
-0.432858
-0.440491
-0.449827
-0.460918
-0.473752
-0.488227
-0.504142
-0.521188
-0.538952
-0.556925
-0.57451
-0.591026
-0.605771
-0.618013
-0.626788
-0.631151
-0.62988
-0.422006
-0.424957
-0.42647
-0.428213
-0.431005
-0.435033
-0.440302
-0.446763
-0.454328
-0.462869
-0.472204
-0.482104
-0.492299
-0.502507
-0.512452
-0.521878
-0.530552
-0.538244
-0.544714
-0.549681
-0.552723
-0.553187
-0.5502
-0.543003
-0.43242
-0.436342
-0.438807
-0.441621
-0.445566
-0.450734
-0.457012
-0.464186
-0.471952
-0.479921
-0.487627
-0.49455
-0.50017
-0.504027
-0.505782
-0.505265
-0.502471
-0.497539
-0.490716
-0.482266
-0.472274
-0.460372
-0.446036
-0.430613
-0.445924
-0.450445
-0.45378
-0.457697
-0.462884
-0.469345
-0.476856
-0.485042
-0.493384
-0.501223
-0.50778
-0.512208
-0.513666
-0.511433
-0.50501
-0.494203
-0.479149
-0.460303
-0.438385
-0.414268
-0.388638
-0.361515
-0.333008
-0.307007
-0.462225
-0.466895
-0.470926
-0.475862
-0.482238
-0.489986
-0.49878
-0.508105
-0.517241
-0.525272
-0.531116
-0.533592
-0.531531
-0.523928
-0.510098
-0.489793
-0.463243
-0.431141
-0.394589
-0.354966
-0.313597
-0.271284
-0.22895
-0.190015
-0.48034
-0.484776
-0.489222
-0.494926
-0.502256
-0.511094
-0.520986
-0.531311
-0.541173
-0.549423
-0.554701
-0.555523
-0.550433
-0.538203
-0.518032
-0.489673
-0.453515
-0.41056
-0.362308
-0.310482
-0.256966
-0.203215
-0.15127
-0.0985064
-0.498908
-0.502652
-0.507179
-0.513348
-0.521302
-0.530729
-0.541235
-0.552089
-0.562228
-0.570316
-0.574764
-0.573845
-0.565906
-0.549607
-0.524156
-0.489465
-0.44623
-0.395858
-0.340283
-0.281619
-0.222336
-0.163212
-0.108574
-0.0524109
-0.516412
-0.519161
-0.523362
-0.529471
-0.537435
-0.546917
-0.557376
-0.568004
-0.577657
-0.584874
-0.587916
-0.584916
-0.574175
-0.554292
-0.524695
-0.485619
-0.438199
-0.384318
-0.326311
-0.266462
-0.207481
-0.15035
-0.098735
-0.0496336
-0.531611
-0.533196
-0.536695
-0.542235
-0.549577
-0.558342
-0.567943
-0.577563
-0.585886
-0.591448
-0.592439
-0.586965
-0.573362
-0.550488
-0.518048
-0.476727
-0.428105
-0.374415
-0.318116
-0.261598
-0.207009
-0.155729
-0.109541
-0.0679445
-0.543768
-0.544191
-0.546727
-0.551213
-0.557368
-0.564782
-0.572832
-0.580656
-0.587
-0.590297
-0.588739
-0.580516
-0.564164
-0.538898
-0.504868
-0.463201
-0.415802
-0.364993
-0.313083
-0.26215
-0.213729
-0.16893
-0.128607
-0.0930071
-0.55284
-0.55225
-0.55362
-0.556697
-0.561229
-0.566769
-0.572815
-0.578422
-0.582321
-0.582915
-0.578436
-0.567252
-0.548249
-0.521129
-0.48654
-0.445966
-0.401407
-0.354965
-0.308559
-0.263635
-0.221292
-0.182034
-0.146487
-0.114396
-0.559356
-0.557991
-0.558147
-0.559614
-0.562218
-0.565763
-0.569585
-0.57273
-0.573865
-0.571361
-0.563559
-0.549157
-0.527551
-0.499011
-0.464626
-0.426044
-0.385089
-0.343467
-0.302509
-0.263177
-0.226052
-0.191394
-0.159772
-0.130723
-0.621907
-0.601157
-0.558617
-0.495452
-0.419171
-0.344326
-0.283339
-0.242228
-0.221436
-0.217892
-0.227899
-0.252037
-0.293381
-0.347324
-0.396022
-0.416961
-0.391798
-0.332793
-0.263708
-0.204647
-0.16303
-0.13808
-0.127382
-0.128393
-0.142901
-0.175824
-0.223726
-0.26648
-0.276549
-0.249466
-0.199579
-0.153128
-0.122204
-0.107339
-0.108318
-0.128721
-0.16364
-0.191674
-0.188449
-0.159986
-0.123318
-0.0961123
-0.0812549
-0.0796239
-0.0839967
-0.0861352
-0.0804915
-0.0722103
-0.0629817
-0.059637
-0.0610758
-0.0634957
-0.0574133
-0.0501304
-0.0384853
-0.0350369
-0.0279965
-0.0219846
-0.0105159
-0.00711019
-0.52988
-0.515133
-0.474488
-0.421845
-0.358007
-0.29686
-0.248719
-0.218566
-0.206798
-0.209887
-0.22507
-0.254047
-0.299498
-0.355955
-0.40557
-0.426036
-0.401422
-0.34108
-0.269595
-0.207855
-0.163558
-0.135507
-0.121433
-0.118689
-0.128063
-0.154
-0.194197
-0.231637
-0.241787
-0.218301
-0.176317
-0.138168
-0.114179
-0.105464
-0.113125
-0.141188
-0.183505
-0.216986
-0.214468
-0.180844
-0.136162
-0.101454
-0.0801949
-0.0726569
-0.0717582
-0.0708688
-0.0661676
-0.0606412
-0.0569873
-0.059785
-0.0672374
-0.0737328
-0.0673721
-0.0579716
-0.0394274
-0.0292381
-0.0175313
-0.00994618
-0.0062634
-0.00810195
-0.414122
-0.398347
-0.364568
-0.32844
-0.27949
-0.235069
-0.201553
-0.183568
-0.180912
-0.18997
-0.208977
-0.240522
-0.287589
-0.345291
-0.396285
-0.41877
-0.39712
-0.338478
-0.267285
-0.205465
-0.160359
-0.130342
-0.113141
-0.106765
-0.111145
-0.129999
-0.162272
-0.194557
-0.20531
-0.185962
-0.15173
-0.121252
-0.103713
-0.10095
-0.115315
-0.150707
-0.199763
-0.238457
-0.238065
-0.199918
-0.147691
-0.105675
-0.0786167
-0.0659506
-0.0604592
-0.0565772
-0.0523141
-0.0490493
-0.0508359
-0.0596825
-0.0730924
-0.0835903
-0.0768765
-0.0654201
-0.0403868
-0.023433
-0.00729609
0.00193792
-0.00224236
-0.00900744
-0.288496
-0.278807
-0.244061
-0.228971
-0.193556
-0.165976
-0.146315
-0.13971
-0.144781
-0.158351
-0.179692
-0.212479
-0.260343
-0.318814
-0.371675
-0.396875
-0.37921
-0.324789
-0.257189
-0.197731
-0.153558
-0.123025
-0.10371
-0.0938447
-0.0934177
-0.105531
-0.130177
-0.157146
-0.168104
-0.153744
-0.126715
-0.102904
-0.0910205
-0.093467
-0.113692
-0.155511
-0.21086
-0.25468
-0.257779
-0.216171
-0.157569
-0.108698
-0.0765077
-0.0595477
-0.0502427
-0.0433822
-0.0391014
-0.0375262
-0.0445063
-0.059207
-0.0785058
-0.0929366
-0.0857639
-0.0723314
-0.0413551
-0.0177469
0.00250135
0.0135264
0.00161971
-0.00977158
-0.167586
-0.154788
-0.136679
-0.119271
-0.106895
-0.0935358
-0.0866041
-0.0895182
-0.10062
-0.117769
-0.141411
-0.175947
-0.224739
-0.283147
-0.336769
-0.36466
-0.351447
-0.302865
-0.241281
-0.186081
-0.143975
-0.113964
-0.0936572
-0.0813802
-0.0765589
-0.0821523
-0.0994942
-0.121124
-0.132177
-0.122554
-0.102036
-0.0837902
-0.0764003
-0.082999
-0.107873
-0.154912
-0.215742
-0.264371
-0.272157
-0.228686
-0.165626
-0.110668
-0.0739838
-0.0534665
-0.0411591
-0.0314012
-0.0266352
-0.0261427
-0.0378959
-0.0582569
-0.0833772
-0.101655
-0.0939078
-0.0785983
-0.0423367
-0.0122967
0.0116723
0.0246836
0.00539457
-0.0103529
-0.0709467
-0.0489031
-0.0339807
-0.0162604
-0.0213944
-0.0196974
-0.0233238
-0.0337086
-0.0501404
-0.0716256
-0.0992907
-0.137076
-0.187021
-0.244415
-0.297117
-0.326159
-0.316925
-0.275054
-0.221039
-0.171632
-0.132617
-0.103751
-0.0832577
-0.069546
-0.0617806
-0.0616527
-0.0719722
-0.088119
-0.0988427
-0.0935325
-0.0785871
-0.0647371
-0.0605935
-0.0700805
-0.0982524
-0.149061
-0.214241
-0.266999
-0.278328
-0.236711
-0.171597
-0.111691
-0.0711678
-0.0477468
-0.0332339
-0.0207529
-0.0148957
-0.0150625
-0.0310139
-0.0567222
-0.0875769
-0.109654
-0.101187
-0.0841115
-0.0433233
-0.00719211
0.020055
0.0352863
0.0091229
-0.0107193
-0.0163292
0.0189537
0.0381602
0.0437871
0.0495925
0.0469045
0.038203
0.023382
0.00247313
-0.0243182
-0.0576771
-0.0995661
-0.150178
-0.205381
-0.255466
-0.284161
-0.278436
-0.243919
-0.198395
-0.155636
-0.120514
-0.0932947
-0.0730352
-0.058527
-0.0488412
-0.0446692
-0.0486675
-0.0592435
-0.0690074
-0.0674888
-0.0571524
-0.046643
-0.0445013
-0.0557094
-0.0855751
-0.137957
-0.206146
-0.262481
-0.2771
-0.239981
-0.17522
-0.111921
-0.068205
-0.0424085
-0.0264212
-0.0115581
-0.00466205
-0.00447575
-0.0237947
-0.0545661
-0.0910986
-0.116881
-0.107543
-0.0887809
-0.0442777
-0.00252018
0.0275157
0.0452205
0.0128225
-0.0108481
-0.0103575
0.0338439
0.0688045
0.088103
0.0955936
0.0934498
0.0849081
0.069723
0.0472907
0.0169704
-0.0209026
-0.065546
-0.115451
-0.167197
-0.213124
-0.240413
-0.237911
-0.211157
-0.174643
-0.138977
-0.108252
-0.0831903
-0.0635106
-0.0486074
-0.037702
-0.0306939
-0.0296734
-0.035128
-0.0432339
-0.0451473
-0.0382668
-0.0302272
-0.0291715
-0.0407501
-0.070652
-0.123112
-0.191689
-0.250966
-0.269429
-0.237872
-0.176041
-0.111391
-0.0652045
-0.0374639
-0.0205982
-0.00386929
0.00425255
0.00539632
-0.0163885
-0.0517132
-0.0937767
-0.123249
-0.11288
-0.0925247
-0.0451337
0.00167054
0.0339579
0.0543751
0.0164956
-0.0107244
-0.0326212
0.0105355
0.0537941
0.0878296
0.104352
0.109587
0.107602
0.0970127
0.0774083
0.0477848
0.00924025
-0.0352389
-0.0826471
-0.129978
-0.170905
-0.196635
-0.197463
-0.178563
-0.150938
-0.12232
-0.0961645
-0.0736193
-0.0549324
-0.0399708
-0.0283503
-0.0196006
-0.0148916
-0.0159063
-0.021741
-0.0263762
-0.0218783
-0.0159567
-0.0153048
-0.0262112
-0.0547329
-0.10482
-0.172413
-0.233713
-0.256345
-0.231679
-0.173978
-0.110022
-0.0621852
-0.03291
-0.0155951
0.00235057
0.0117743
0.0144275
-0.00861754
-0.0481678
-0.0957921
-0.128757
-0.117283
-0.0952895
-0.0458693
0.0053392
0.0393377
0.0626498
0.0201281
-0.0103439
-0.0630733
-0.0247192
0.016406
0.0503144
0.079073
0.0962433
0.102431
0.0994312
0.0873288
0.0640447
0.0298676
-0.0105616
-0.0530794
-0.0943326
-0.125085
-0.152622
-0.157611
-0.146722
-0.127744
-0.106048
-0.0845726
-0.0648328
-0.0475381
-0.0329302
-0.0209952
-0.0113173
-0.00425567
-0.0016121
-0.00437841
-0.00904658
-0.0081301
-0.00408542
-0.0035867
-0.0131375
-0.0389769
-0.0858864
-0.150177
-0.210669
-0.237494
-0.219548
-0.168665
-0.107826
-0.059342
-0.0288844
-0.0114114
0.0070999
0.0178939
0.0223154
-0.000902366
-0.0439128
-0.0966935
-0.133238
-0.120446
-0.0970115
-0.0465526
0.00835579
0.0436263
0.0699226
0.0236941
-0.0097118
-0.0867019
-0.0530704
-0.0154546
0.0191781
0.0509128
0.0725143
0.084923
0.0900596
0.0860274
0.0714569
0.0464107
0.0122543
-0.0259228
-0.0636477
-0.100529
-0.116334
-0.1242
-0.120079
-0.108236
-0.0923733
-0.0750547
-0.0580048
-0.0422187
-0.0281678
-0.0161372
-0.00591535
0.00251439
0.00796329
0.00837798
0.00495513
0.00349171
0.00549542
0.00581014
-0.00178093
-0.023772
-0.0658809
-0.126118
-0.186657
-0.217198
-0.2082
-0.162286
-0.105708
-0.0574326
-0.0257555
-0.00801846
0.0102971
0.022431
0.0292553
0.00718772
-0.0388723
-0.0971258
-0.136815
-0.122889
-0.0977813
-0.0470411
0.0106789
0.0467506
0.0761001
0.0271708
-0.00885527
-0.106623
-0.0818183
-0.0529481
-0.0190831
0.0120767
0.0377022
0.0561039
0.0670209
0.0707081
0.0661417
0.0526217
0.0308574
0.00326826
-0.0269018
-0.0563364
-0.0766572
-0.0860381
-0.0885874
-0.0845432
-0.0754034
-0.0631539
-0.0495286
-0.0358491
-0.0228714
-0.0112496
-0.00103714
0.00801944
0.0153845
0.0181599
0.0155944
0.0112691
0.0126178
0.0127318
0.00618102
-0.0120251
-0.0477749
-0.102305
-0.159256
-0.190898
-0.186128
-0.150508
-0.100507
-0.0545615
-0.0224892
-0.00426821
0.013326
0.0255626
0.0342211
0.0146709
-0.0331021
-0.0958928
-0.138884
-0.123614
-0.097342
-0.0462721
0.0130564
0.0490672
0.0809728
0.0305118
-0.00779318
-0.101137
-0.0837772
-0.0576588
-0.0281002
-0.000261911
0.0231082
0.0405801
0.0524163
0.0587869
0.0581557
0.0490499
0.0320895
0.00964919
-0.015255
-0.0392696
-0.0562242
-0.06578
-0.0690719
-0.0664737
-0.0592701
-0.0491664
-0.0375773
-0.0256801
-0.0140876
-0.00338898
0.00610212
0.0146379
0.0223031
0.0267244
0.0256349
0.0228918
0.0189165
0.0190104
0.0152718
0.00195992
-0.0286481
-0.0793414
-0.13522
-0.170045
-0.177682
-0.137697
-0.090241
-0.0472168
-0.0168083
0.000535474
0.0171631
0.0295881
0.0402108
0.0229706
-0.0260512
-0.0939059
-0.140818
-0.12398
-0.0950461
-0.043937
0.0159071
0.0512202
0.0847432
0.0336536
-0.00666633
-0.0991075
-0.0827826
-0.0577539
-0.0301845
-0.00753818
0.0122124
0.0280192
0.0394813
0.0459929
0.0463945
0.0401597
0.0278635
0.0111408
-0.00763104
-0.0253285
-0.0392225
-0.0476113
-0.0507387
-0.0491798
-0.0438387
-0.0359724
-0.0265487
-0.0165025
-0.00641578
0.00318947
0.0120003
0.0199678
0.0271104
0.0313725
0.0301911
0.0237512
0.0226257
0.0224712
0.0195237
0.00909585
-0.0164583
-0.0614338
-0.114817
-0.149081
-0.148921
-0.121099
-0.0786321
-0.0398746
-0.0115091
0.00485505
0.0204521
0.0325943
0.0435983
0.0285476
-0.0206785
-0.0921994
-0.141958
-0.121717
-0.090936
-0.0411243
0.018423
0.0527883
0.0869326
0.0362186
-0.00549397
-0.0948075
-0.0803097
-0.0588263
-0.0359323
-0.0153054
0.00231103
0.0165979
0.0271082
0.0333644
0.0348413
0.0313499
0.0232624
0.0116662
-0.00178856
-0.0150703
-0.0257808
-0.0328503
-0.0360249
-0.0354726
-0.0316574
-0.0254542
-0.0176056
-0.00892943
1.6836e-06
0.00869229
0.0167962
0.024117
0.0308214
0.035185
0.0344173
0.0296246
0.0257112
0.02481
0.0217219
0.0123028
-0.00997971
-0.0492938
-0.0955512
-0.125178
-0.130598
-0.104229
-0.0670531
-0.0327105
-0.00655871
0.00857726
0.0232922
0.035008
0.0460519
0.0322854
-0.0172771
-0.0908211
-0.141529
-0.118251
-0.0855455
-0.0377618
0.0206851
0.0537686
0.0878147
0.0382182
-0.00416326
-0.0874125
-0.0769828
-0.0597263
-0.0398808
-0.0215299
-0.00594118
0.00671741
0.0163033
0.0225611
0.0251433
0.023893
0.0190335
0.0112836
0.00185777
-0.0078244
-0.0159241
-0.0215985
-0.0243308
-0.0240511
-0.0210127
-0.0159261
-0.00936819
-0.00195452
0.005831
0.0135181
0.0208588
0.0274781
0.0334302
0.037496
0.037034
0.031856
0.0277813
0.0265589
0.0236296
0.0148112
-0.00511122
-0.037354
-0.0738273
-0.0997448
-0.106522
-0.0861239
-0.0545125
-0.0252542
-0.00179997
0.0118781
0.0257628
0.036666
0.0475901
0.0350248
-0.0141955
-0.0880625
-0.139038
-0.113293
-0.078739
-0.033484
0.0227846
0.0540934
0.0873334
0.0397496
-0.00262797
-0.0804861
-0.0732758
-0.0591311
-0.0421689
-0.0261413
-0.0124449
-0.00120999
0.00757656
0.0137582
0.017068
0.0173854
0.0148684
0.0100699
0.00390288
-0.00273545
-0.0085477
-0.0127203
-0.014755
-0.0145284
-0.0121319
-0.00800966
-0.00253984
0.00379737
0.0106352
0.0174648
0.0240699
0.0300594
0.0353063
0.0388674
0.0386462
0.0338809
0.0293327
0.0278132
0.0250537
0.0169593
0.00039697
-0.0233083
-0.0510857
-0.0740585
-0.0826496
-0.0678104
-0.0419359
-0.0178855
0.00264122
0.0146699
0.0277947
0.0376107
0.0479553
0.0370939
-0.0103139
-0.0830355
-0.13374
-0.106453
-0.070551
-0.0283581
0.0246656
0.0537381
0.0854142
0.0409014
-0.000901253
-0.0737305
-0.0684859
-0.0570993
-0.0429082
-0.0291508
-0.0171976
-0.00724947
0.00072845
0.00666218
0.0103797
0.0118101
0.0110732
0.00855774
0.00489984
0.000709839
-0.00314468
-0.00597899
-0.00733537
-0.00700175
-0.00492401
-0.00139476
0.00331696
0.00879752
0.0147825
0.0207778
0.0265845
0.0318999
0.0365036
0.0395192
0.0394511
0.0352346
0.0306796
0.0289426
0.0263191
0.0190288
0.00639961
-0.00932931
-0.0292871
-0.049155
-0.0596643
-0.0499911
-0.029497
-0.010549
0.0068064
0.0170363
0.029347
0.0379367
0.0471114
0.038577
-0.00554811
-0.0753489
-0.124795
-0.0974675
-0.0611917
-0.0224018
0.0263473
0.0527319
0.0820355
0.0416172
0.000948314
-0.066313
-0.0628868
-0.0540653
-0.042407
-0.0307232
-0.0203564
-0.011592
-0.00441194
0.00117711
0.00508931
0.00728382
0.0078454
0.00703309
0.00521107
0.00292549
0.000681982
-0.00095517
-0.00157438
-0.000958936
0.000986178
0.00406086
0.00811926
0.0128331
0.0180404
0.023325
0.0284302
0.0331052
0.0371596
0.0397152
0.0397292
0.0362566
0.0320503
0.0303261
0.0276357
0.0209039
0.0114216
0.00289873
-0.00938035
-0.0262573
-0.0385055
-0.0333846
-0.0178142
-0.00349883
0.0106521
0.0190607
0.0304334
0.0378449
0.0450435
0.0392094
-0.000255507
-0.0646528
-0.111427
-0.0860817
-0.0510083
-0.0158532
0.0278143
0.051134
0.0772594
0.0417306
0.0028337
-0.058677
-0.0569245
-0.0502925
-0.0408164
-0.0309699
-0.0220496
-0.0143906
-0.00798619
-0.00280117
0.00113412
0.00379904
0.00524812
0.00564946
0.00522226
0.00435672
0.00341459
0.00280276
0.00284402
0.00373197
0.00561136
0.00837154
0.0119535
0.0160922
0.0206462
0.0252904
0.0297562
0.0338122
0.0373554
0.0395746
0.0396644
0.0370564
0.0334775
0.0318906
0.0296107
0.0237751
0.0170749
0.0144265
0.00774037
-0.00722036
-0.0203982
-0.0186622
-0.00723313
0.00318883
0.0142128
0.0208677
0.0311215
0.0375219
0.0421962
0.0388992
0.00545942
-0.0507939
-0.093274
-0.0722188
-0.0404822
-0.00905566
0.029085
0.049031
0.0712238
0.0411046
0.00467988
-0.0514194
-0.0508347
-0.0459113
-0.0382755
-0.030063
-0.0224689
-0.015837
-0.0101744
-0.00543395
-0.00161177
0.00128921
0.00330073
0.00451689
0.00510836
0.00530165
0.00535037
0.00553978
0.00613248
0.0073036
0.00920789
0.0117765
0.0149819
0.01863
0.0225988
0.0266635
0.0305832
0.0341096
0.0371974
0.0391731
0.0393844
0.0376101
0.0348518
0.0336381
0.0325961
0.0289127
0.0253658
0.0259852
0.0210041
0.00702571
-0.0056042
-0.0060174
0.00197217
0.00931457
0.017465
0.0225776
0.0315345
0.0370992
0.0394168
0.0379788
0.0115712
-0.0343416
-0.070921
-0.0561646
-0.0301056
-0.00244018
0.0301722
0.0465366
0.0642048
0.0397189
0.00643157
-0.0445828
-0.0446442
-0.0410409
-0.0349853
-0.0282288
-0.021829
-0.0161346
-0.0111756
-0.00690439
-0.00329499
-0.000335431
0.00199384
0.0037428
0.00501312
0.00594928
0.00672124
0.00753169
0.00858306
0.01001
0.0119472
0.014365
0.0172606
0.0205107
0.0240028
0.0275707
0.0310201
0.0341024
0.0367946
0.038588
0.0389619
0.0379196
0.0360492
0.0353972
0.0354296
0.0345012
0.0339321
0.0354837
0.0302679
0.0174882
0.00629429
0.00450866
0.00968315
0.0147268
0.0203607
0.0242725
0.0318438
0.0366426
0.037524
0.0369529
0.0176873
-0.0169689
-0.0464081
-0.0387869
-0.0203498
0.00360084
0.0311278
0.0438455
0.056576
0.0377137
0.00804177
-0.0377828
-0.0384089
-0.0359379
-0.0312156
-0.0256995
-0.0203417
-0.0154915
-0.0111923
-0.00739575
-0.00406139
-0.0011744
0.00128071
0.00333025
0.00502748
0.00646172
0.00774268
0.00900466
0.0103907
0.0120067
0.0139683
0.0162765
0.0189326
0.0218561
0.0249485
0.0280856
0.0311282
0.0338459
0.0362142
0.0378832
0.0384423
0.0380275
0.037024
0.0369476
0.0378572
0.0387344
0.0395675
0.0409164
0.0360291
0.0251813
0.0155867
0.0129456
0.0158934
0.0192684
0.0228656
0.0259278
0.0321437
0.0361948
0.0367826
0.0362438
0.0229562
-0.00110115
-0.0228147
-0.0213937
-0.011645
0.00878016
0.032011
0.0412764
0.0488578
0.0354631
0.00947753
-0.0313015
-0.0324264
-0.0308199
-0.0271463
-0.0226571
-0.0182011
-0.0141055
-0.0104159
-0.00708484
-0.00406879
-0.00134003
0.00110341
0.00328
0.00521183
0.00694832
0.00855076
0.0101062
0.0117158
0.0134637
0.0154387
0.0176528
0.0201069
0.0227507
0.02551
0.0282843
0.0309811
0.033404
0.0355176
0.0371005
0.0378525
0.0379341
0.037659
0.0380197
0.0392967
0.0408497
0.0419514
0.0428271
0.0389866
0.0304455
0.0223981
0.0193903
0.0207181
0.0228576
0.0250189
0.027471
0.0324301
0.0357723
0.0368077
0.0358128
0.0264612
0.0111181
-0.00327519
-0.00565129
-0.00380391
0.0129398
0.0327805
0.0392527
0.0432315
0.0336271
0.0107146
-0.025438
-0.0267448
-0.0257272
-0.022892
-0.0192711
-0.0155968
-0.0121675
-0.00902894
-0.00614062
-0.00346023
-0.000948701
0.00139306
0.00357136
0.00558834
0.00746928
0.00924404
0.0109691
0.01271
0.0145286
0.0164877
0.0186046
0.0208837
0.0232893
0.02577
0.0282404
0.0306446
0.0328271
0.0347434
0.0362586
0.037187
0.0376316
0.0378889
0.0385356
0.0398343
0.0414569
0.0424124
0.0427704
0.0399508
0.0335784
0.0270514
0.0240925
0.0243594
0.0255395
0.0268489
0.0287809
0.0326311
0.0353396
0.0368186
0.0351889
0.0278361
0.0188616
0.0103915
0.00675756
0.00300484
0.0161598
0.0332702
0.0379384
0.0395609
0.0328567
0.0117152
-0.0199305
-0.0213077
-0.0207505
-0.0186019
-0.0157047
-0.0126926
-0.00983787
-0.00718969
-0.00471159
-0.00235562
-9.81438e-05
0.00207487
0.00416233
0.0061557
0.00806601
0.00990141
0.0116949
0.0134838
0.0153124
0.0172259
0.01924
0.0213609
0.0235577
0.0258008
0.0280169
0.0301735
0.0321519
0.0339159
0.0353709
0.0364307
0.0371211
0.0377151
0.0385217
0.0396826
0.0411054
0.0418323
0.0418063
0.0397292
0.0351375
0.0300395
0.0273658
0.0270175
0.0274735
0.0283425
0.0297988
0.0326838
0.0348402
0.036425
0.0347305
0.0286061
0.0234165
0.0183537
0.0150403
0.00876552
0.0186297
0.0332619
0.0371569
0.0377187
0.0329298
0.0123334
-0.0147936
-0.0162198
-0.0159991
-0.0143809
-0.0120693
-0.00961112
-0.00725101
-0.00503823
-0.0029381
-0.000902952
0.00109709
0.00306682
0.00500631
0.00690315
0.00875978
0.01057
0.0123507
0.0141204
0.01591
0.0177503
0.0196513
0.0216211
0.0236309
0.0256667
0.0276661
0.0296128
0.0314134
0.0330509
0.0344417
0.0355761
0.0364219
0.037196
0.038065
0.0390497
0.0401898
0.0407121
0.0404809
0.0389144
0.035665
0.0318211
0.0295191
0.0288739
0.0288414
0.0294652
0.0305117
0.0325981
0.0342474
0.0356994
0.0343213
0.0295046
0.0263503
0.0226437
0.0176233
0.013357
0.0204246
0.0325121
0.0361659
0.036112
0.0323064
0.0122754
-0.0101083
-0.0114935
-0.0114923
-0.0102854
-0.00845335
-0.00646192
-0.00452691
-0.00269359
-0.00093011
0.000806816
0.00254846
0.00429797
0.00605594
0.00780836
0.00955311
0.0112767
0.0129855
0.0146856
0.0163961
0.0181376
0.0199143
0.0217355
0.0235729
0.0254237
0.0272326
0.0289967
0.0306392
0.0321618
0.0334833
0.0346381
0.0355644
0.0364092
0.0372747
0.0381015
0.0389751
0.039341
0.0390433
0.0378448
0.0355603
0.0327408
0.0308273
0.030081
0.0297753
0.0302064
0.0309385
0.0323911
0.0335665
0.0347969
0.0337984
0.0301371
0.0279908
0.0251604
0.0210635
0.0169624
0.0216379
0.0311221
0.0344082
0.0333447
0.029718
0.011437
-0.00579964
-0.0071079
-0.00726063
-0.00637751
-0.00493566
-0.00333287
-0.00175728
-0.000249187
0.0012183
0.00268343
0.00417699
0.00570331
0.00726316
0.00884339
0.0104399
0.0120364
0.0136319
0.015225
0.0168254
0.0184473
0.0200896
0.0217621
0.0234367
0.0251175
0.0267543
0.0283551
0.0298537
0.0312644
0.0325102
0.033639
0.0345911
0.0354399
0.036262
0.0369631
0.0376259
0.0378857
0.0376035
0.0366903
0.0350796
0.0330499
0.0315106
0.0307674
0.0303522
0.0306031
0.0310905
0.0320664
0.0328213
0.0337765
0.0330591
0.0302314
0.0285117
0.0264571
0.0230534
0.0194504
0.0223177
0.0292974
0.0319329
0.0300925
0.0258233
0.0101141
-0.00186598
-0.00308153
-0.00333095
-0.00269447
-0.00156626
-0.000283279
0.000992065
0.00222252
0.00343001
0.00465033
0.00591325
0.00722371
0.00858215
0.00997796
0.0114064
0.0128513
0.0143067
0.0157675
0.0172365
0.0187236
0.020224
0.0217467
0.0232647
0.0247851
0.0262635
0.0277131
0.029077
0.0303745
0.0315411
0.0326117
0.0335459
0.0343627
0.035123
0.0357296
0.0362422
0.0364388
0.0362104
0.0355274
0.0343846
0.0329255
0.0316211
0.0310409
0.0306212
0.030711
0.030992
0.0316226
0.0320314
0.0325793
0.0321339
0.0299104
0.0283406
0.0268365
0.0240452
0.0209808
0.0225132
0.0273332
0.0291269
0.0268391
0.0218592
0.00865945
0.0017035
0.000601407
0.000299818
0.000747788
0.00162304
0.00264182
0.00366387
0.00465745
0.0056419
0.00664762
0.00770064
0.00880842
0.00997143
0.0111816
0.0124344
0.0137157
0.0150165
0.0163302
0.0176551
0.0189978
0.0203515
0.0217236
0.0230893
0.0244563
0.0257862
0.0270923
0.0283286
0.0295109
0.0305916
0.0315863
0.0324715
0.0332395
0.033932
0.0344691
0.0348825
0.0350481
0.034886
0.0343901
0.0335797
0.0325466
0.0315809
0.0310336
0.0306275
0.0305858
0.0306931
0.0310684
0.0312258
0.0314413
0.0310903
0.0293341
0.0278248
0.0265991
0.0243446
0.0217866
0.0223178
0.0253739
0.0262861
0.0236755
0.0183303
0.00727291
0.00494443
0.00395846
0.0036316
0.00393501
0.00460588
0.00540638
0.00621666
0.00701121
0.00780712
0.00862853
0.00949165
0.0104132
0.0113934
0.012425
0.0135041
0.0146192
0.0157605
0.0169208
0.0180959
0.0192898
0.0204951
0.0217172
0.022935
0.0241538
0.0253424
0.026511
0.0276243
0.0286916
0.0296794
0.0305887
0.0314065
0.0321188
0.0327449
0.0332289
0.0335804
0.033735
0.0336379
0.0332908
0.0327213
0.0319938
0.0312756
0.0307941
0.0304106
0.0302768
0.030248
0.0304166
0.0304009
0.0303415
0.0299831
0.0285979
0.027142
0.0260041
0.0241837
0.0220395
0.0218213
0.0234751
0.0235987
0.0207334
0.015353
0.00604568
0.00787312
0.00700057
0.00666821
0.00686202
0.00736812
0.00798958
0.00862437
0.00925008
0.00988198
0.010538
0.0112433
0.0120004
0.0128146
0.0136808
0.0145947
0.0155482
0.0165321
0.0175395
0.0185647
0.01961
0.0206685
0.0217436
0.0228178
0.0238938
0.0249471
0.0259834
0.0269766
0.0279303
0.0288215
0.0296446
0.0303921
0.0310397
0.0316017
0.0320412
0.0323534
0.0325066
0.0324664
0.0322357
0.0318402
0.031327
0.0307876
0.0303705
0.030015
0.0298232
0.0296952
0.0296902
0.0295505
0.0292946
0.0288613
0.0277508
0.0263733
0.0252275
0.0237098
0.0218767
0.0211101
0.0216637
0.0211388
0.0181049
0.0129073
0.00501104
0.0105064
0.00974376
0.00942047
0.00953294
0.0099078
0.0103829
0.0108732
0.0113587
0.0118542
0.0123786
0.0129439
0.0135499
0.0142112
0.0149255
0.0156869
0.0164881
0.0173217
0.0181811
0.0190611
0.0199621
0.0208783
0.0218112
0.0227471
0.0236861
0.0246092
0.0255184
0.0263948
0.0272383
0.0280322
0.0287679
0.0294375
0.0300227
0.0305258
0.0309252
0.03121
0.031365
0.0313695
0.0312262
0.0309542
0.0305897
0.0301799
0.0298281
0.0295038
0.029263
0.0290574
0.0289122
0.0286745
0.0282947
0.0277642
0.0268259
0.025551
0.02437
0.0230222
0.0214051
0.0202557
0.0199635
0.0189342
0.0158303
0.0109265
0.00416666
0.012868
0.0122091
0.0119039
0.0119556
0.012225
0.0125794
0.0129492
0.0133177
0.0136958
0.0141005
0.014541
0.0150284
0.0155586
0.016137
0.0167609
0.0174234
0.0181174
0.018838
0.0195804
0.0203443
0.021125
0.0219225
0.0227265
0.0235351
0.0243338
0.025122
0.0258857
0.0266227
0.0273198
0.027969
0.0285609
0.0290829
0.0295305
0.0298916
0.0301534
0.0303086
0.0303437
0.0302624
0.0300766
0.0298131
0.0294967
0.0291918
0.0288917
0.0286179
0.0283599
0.028108
0.0277812
0.027327
0.0267127
0.0258554
0.0246863
0.0234798
0.0221962
0.0207136
0.0193172
0.0183972
0.0169932
0.0139061
0.00933569
0.00349108
0.0149808
0.0144156
0.0141324
0.0141385
0.0143234
0.0145801
0.0148514
0.0151242
0.015407
0.0157133
0.0160537
0.0164318
0.0168482
0.0173046
0.0178033
0.0183399
0.0189072
0.0195
0.0201149
0.020751
0.0214049
0.0220756
0.0227552
0.0234411
0.0241219
0.0247957
0.0254515
0.0260865
0.0266893
0.0272537
0.0277692
0.0282283
0.0286225
0.0289449
0.0291833
0.0293336
0.0293868
0.0293457
0.0292173
0.0290192
0.0287672
0.0284942
0.0282096
0.0279144
0.0276127
0.0272877
0.0268855
0.0263795
0.0257089
0.0248718
0.0237861
0.0225766
0.0212939
0.019879
0.018342
0.0169763
0.0152975
0.012294
0.00806615
0.0029572
0.0168605
0.0163791
0.0161203
0.0160935
0.0162115
0.0163889
0.0165796
0.0167732
0.0169767
0.0172011
0.0174538
0.0177392
0.0180591
0.0184139
0.0188027
0.0192258
0.0196787
0.0201564
0.0206552
0.0211744
0.0217114
0.022265
0.0228292
0.0234008
0.0239711
0.0245375
0.025091
0.0256293
0.0261417
0.0266228
0.027065
0.0274619
0.0278036
0.0280857
0.0282978
0.0284369
0.0284965
0.0284772
0.0283837
0.0282252
0.0280133
0.0277618
0.0274836
0.0271741
0.0268357
0.0264596
0.0259994
0.0254487
0.0247452
0.0239001
0.0228621
0.0216691
0.0203639
0.018965
0.0173603
0.0157007
0.0138264
0.0109483
0.00705679
0.00253868
0.0185259
0.0181189
0.017885
0.0178342
0.0178988
0.0180116
0.0181363
0.0182649
0.0184028
0.0185588
0.0187387
0.0189454
0.019181
0.0194475
0.0197452
0.0200709
0.0204222
0.0207967
0.0211915
0.0216054
0.0220364
0.0224834
0.0229417
0.0234083
0.0238762
0.0243428
0.0248008
0.0252477
0.0256731
0.0260779
0.0264487
0.0267835
0.0270725
0.0273124
0.0274945
0.0276156
0.0276707
0.0276588
0.0275821
0.0274447
0.0272539
0.0270151
0.0267364
0.0264156
0.0260483
0.025632
0.0251302