/*--------------------------------*- C++ -*----------------------------------*\
| =========                 |                                                 |
| \\      /  F ield         | OpenFOAM: The Open Source CFD Toolbox           |
|  \\    /   O peration     | Version:  2312                                  |
|   \\  /    A nd           | Website:  www.openfoam.com                      |
|    \\/     M anipulation  |                                                 |
\*---------------------------------------------------------------------------*/
FoamFile
{
    version     2.0;
    format      ascii;
    arch        "LSB;label=32;scalar=64";
    class       surfaceScalarField;
    location    "28.5";
    object      phi;
}
// * * * * * * * * * * * * * * * * * * * * * * * * * * * * * * * * * * * * * //

dimensions      [0 3 -1 0 0 0 0];

oriented        oriented;

internalField   nonuniform List<scalar> 
10785
(
-0.00021517
0.00375408
-0.00353891
0.00168977
0.00414745
-0.00605239
0.00795062
-0.00200607
-0.00425478
0.0209282
-0.0153303
0.00235268
0.0416794
-0.03486
0.0141088
0.0689563
-0.0577476
0.0304707
0.0998429
-0.0808165
0.0499299
0.131008
-0.101799
0.0706343
0.159372
-0.119396
0.0910313
0.183244
-0.133511
0.109639
0.201313
-0.144466
0.126397
0.214504
-0.153109
0.139918
0.223704
-0.161333
0.152133
0.22973
-0.16772
0.161694
-0.177258
0.171567
0.235421
0.000215196
0.00353889
0.00400559
0.000357049
0.0147479
-0.0127484
0.0342456
-0.034828
0.0606257
-0.0612401
0.089629
-0.086751
0.116991
-0.108179
0.139731
-0.124539
0.156803
-0.136468
0.168703
-0.145411
0.177124
-0.152887
0.184579
-0.160564
0.191836
-0.16859
0.201582
-0.177467
-0.187808
0.212133
0.00102535
0.00251354
0.00794505
-0.00656265
0.0242704
-0.0290738
0.0484673
-0.0590248
0.0749661
-0.0877389
0.0986058
-0.110391
0.116715
-0.126288
0.129278
-0.137102
0.138013
-0.145204
0.145104
-0.152501
0.152407
-0.16019
0.160169
-0.168326
0.16844
-0.17686
0.176516
-0.185543
-0.194105
0.182813
0.00218568
0.000327853
0.0131363
-0.0175132
0.0338576
-0.0497951
0.0579433
-0.0831105
0.0789659
-0.108762
0.094271
-0.125696
0.104523
-0.136539
0.111862
-0.144442
0.118174
-0.151515
0.124394
-0.158721
0.130355
-0.166151
0.135898
-0.17387
0.140879
-0.181842
0.145486
-0.190149
-0.199221
0.150602
0.00373426
-0.00340641
0.0185611
-0.0323401
0.0400512
-0.0712852
0.0596503
-0.10271
0.0737024
-0.122814
0.0828096
-0.134803
0.0890409
-0.142771
0.0939849
-0.149386
0.098335
-0.155865
0.102207
-0.162594
0.105844
-0.169788
0.10946
-0.177485
0.113251
-0.185632
0.117429
-0.194327
-0.203289
0.121497
0.00564856
-0.00905497
0.0225527
-0.0492442
0.0411563
-0.0898888
0.0550379
-0.116591
0.0637051
-0.131481
0.0689818
-0.14008
0.07254
-0.146329
0.0753246
-0.15217
0.0777778
-0.158318
0.0801907
-0.165007
0.0826109
-0.172209
0.0849408
-0.179815
0.0870842
-0.187776
0.0888205
-0.196064
-0.204714
0.0902462
0.00744914
-0.0165041
0.0237931
-0.0655882
0.0380241
-0.10412
0.046939
-0.125506
0.0517037
-0.136246
0.0542262
-0.142602
0.0557886
-0.147891
0.0569821
-0.153364
0.0579945
-0.159331
0.058785
-0.165797
0.0593106
-0.172734
0.059608
-0.180113
0.0597506
-0.187918
0.0599225
-0.196236
-0.205058
0.0602657
0.00852431
-0.0250284
0.0223471
-0.079411
0.0322386
-0.114011
0.0371932
-0.130461
0.0390811
-0.138133
0.0395748
-0.143096
0.0394974
-0.147814
0.0390927
-0.152959
0.0384078
-0.158646
0.0375004
-0.16489
0.0364236
-0.171657
0.0351857
-0.178875
0.0337817
-0.186515
0.0321325
-0.194586
0.0303897
-0.203315
-0.0014564
0.00947115
-0.00801475
-0.00495954
0.0170942
-0.013591
-0.00971558
0.0195807
-0.0148247
-0.0151457
0.0198727
-0.0144426
-0.0209539
0.0193188
-0.0135106
-0.0270424
0.0183367
-0.0122482
-0.033398
0.0169776
-0.010622
-0.0400392
0.0152061
-0.00856497
-0.0470211
0.0129741
-0.00599216
-0.0544585
0.0102338
-0.00279651
-0.0623988
0.00693754
0.00100275
-0.0708172
0.00308881
0.00532966
-0.0798193
-0.00149511
0.0104972
-0.0897657
-0.00647195
0.0164184
-0.0124798
-0.100237
0.0229507
-0.000168427
0.00963957
-0.0015787
0.0185044
-0.00398912
0.0219912
-0.00682587
0.0227095
-0.00964534
0.0221383
-0.0122004
0.0208917
-0.0143712
0.0191484
-0.0160985
0.0169334
-0.0173527
0.0142283
-0.0181472
0.0110284
-0.0184059
0.00719624
-0.0184186
0.00310149
-0.0176853
-0.00222838
-0.0167075
-0.00744975
-0.0143103
-0.014877
0.00100631
0.00863327
0.00177528
0.0177355
0.00197831
0.0217881
0.00199115
0.0226966
0.00230054
0.0218289
0.00325281
0.0199395
0.00505558
0.0173456
0.00782828
0.0141607
0.011694
0.0103626
0.0166354
0.00608699
0.0230668
0.00076481
0.0307572
-0.00458894
0.0409018
-0.012373
0.0523204
-0.0188683
-0.0289829
0.066993
0.00168156
0.00695171
0.00411836
0.0152987
0.00657761
0.0193289
0.0091482
0.020126
0.0121945
0.0187826
0.0160727
0.0160612
0.0210547
0.0123637
0.0273467
0.00786868
0.0352451
0.00246417
0.0449652
-0.00363307
0.0575488
-0.0118188
0.0722588
-0.0192989
0.0913774
-0.0314916
0.112308
-0.0397986
-0.0563602
0.139685
0.00172589
0.00522582
0.00486163
0.0121629
0.00863311
0.0155574
0.0129122
0.0158469
0.0178969
0.0137979
0.0239263
0.0100318
0.0314257
0.00486437
0.04095
-0.00165566
0.0533619
-0.0099477
0.0691945
-0.0194657
0.0890969
-0.0317212
0.113276
-0.0434779
0.142366
-0.0605818
0.174506
-0.0719386
-0.0938778
0.212024
0.00124704
0.00397878
0.00406496
0.00934499
0.00799816
0.0116242
0.0129405
0.0109046
0.0191614
0.00757694
0.0272895
0.00190372
0.0383454
-0.00619153
0.0533226
-0.0166329
0.0728863
-0.0295114
0.0976452
-0.0442246
0.126898
-0.0609742
0.161159
-0.0777388
0.197183
-0.096606
0.237058
-0.111813
-0.132251
0.275432
0.000516535
0.00346224
0.00244829
0.00741324
0.00595655
0.00811594
0.0114305
0.00543062
0.019788
-0.000780534
0.0323137
-0.0106219
0.0500735
-0.0239513
0.0734677
-0.0400271
0.102154
-0.0581978
0.134899
-0.0769699
0.16993
-0.0960051
0.206206
-0.114015
0.240326
-0.130726
0.274246
-0.145733
-0.158405
0.3004
-7.66691e-05
0.00128418
0.00514534
0.0129286
0.026257
0.0461057
0.0720843
0.102692
0.135525
0.168194
0.198586
0.224489
0.245896
0.261857
0.275019
-0.115569
-0.0508997
0.0662322
-0.129102
-0.0825095
0.0960424
-0.142191
-0.107673
0.120763
-0.153752
-0.132177
0.143737
-0.159733
-0.147401
0.153382
-0.157467
-0.153049
0.150784
-0.140113
-0.13248
0.115126
-0.104742
-0.0901413
0.054771
-0.0597623
-0.0154951
-0.0294848
-0.00673162
0.0029715
-0.0560022
0.0445532
0.0232454
-0.0745302
0.0866115
0.00751879
-0.0495771
0.125353
0.000168922
-0.03891
0.155241
-0.00889557
-0.0209931
0.181054
-0.0107368
-0.0150762
0.201883
0.000224396
-0.0210535
0.218673
-0.00118925
-0.0156002
0.232869
0.0199418
-0.0341379
0.243175
0.0182934
-0.0285991
0.25201
0.0318807
-0.0407164
0.258309
0.0425271
-0.0488255
0.262837
0.0367187
-0.0412467
0.266392
0.0586939
-0.062249
0.267931
0.0527296
-0.0542691
0.269494
0.0529514
-0.0545144
0.270387
0.0811381
-0.0820308
0.270803
0.0535302
-0.0539466
0.271917
0.0721542
-0.0732675
0.27207
0.090959
-0.0911125
0.271861
0.0545089
-0.0542995
0.272066
0.0827278
-0.0829336
0.271553
0.0961316
-0.0956178
0.269908
0.10083
-0.0991852
0.269424
0.0322397
-0.0317556
0.269061
0.171767
-0.171404
0.26669
0.137496
-0.135125
0.265077
0.0650031
-0.06339
0.150744
-0.149686
-0.0236062
-0.0421706
-0.036484
-0.0696317
-0.05088
-0.0932774
-0.0680206
-0.115036
-0.0854038
-0.130018
-0.0998162
-0.138637
-0.103112
-0.129184
-0.0896359
-0.103618
-0.0561559
-0.0489751
-0.0121001
-0.0410843
0.035298
-0.0241527
0.0806421
-0.0378253
0.118449
-0.0376381
0.148296
-0.0387421
0.172143
-0.0345841
0.190312
-0.0179444
0.205527
-0.0164044
0.218584
0.0068853
0.228805
0.00807232
0.238585
0.0221007
0.245998
0.0351142
0.252117
0.0305992
0.257307
0.0535039
0.260268
0.0497683
0.263515
0.0497052
0.265884
0.0787685
0.267529
0.0518848
0.2698
0.0698841
0.270662
0.0900966
0.270923
0.0542475
0.271505
0.0821456
0.271186
0.0964515
0.269612
0.102403
0.269283
0.032568
0.269045
0.172005
0.266722
0.139819
0.2652
0.0665257
0.151735
0.0635076
-0.0386852
0.0562048
-0.0623289
0.0458023
-0.0828749
0.0326276
-0.101862
0.0175583
-0.114949
0.00140411
-0.122482
-0.00913344
-0.118647
-0.0109514
-0.1018
0.00870958
-0.0686361
0.0391732
-0.0715479
0.0771464
-0.0621259
0.116269
-0.076948
0.148223
-0.0695923
0.172187
-0.0627056
0.189797
-0.0521948
0.201813
-0.0299597
0.211556
-0.0261473
0.219434
-0.000993421
0.226175
0.00133135
0.233188
0.0150875
0.238891
0.0294113
0.244329
0.0251617
0.24924
0.0485929
0.252633
0.0463749
0.256803
0.0455354
0.260243
0.0753286
0.263036
0.0490924
0.266401
0.0665186
0.268016
0.0884822
0.268848
0.0534152
0.269898
0.0810953
0.269894
0.096456
0.268537
0.10376
0.268496
0.032609
0.268522
0.171979
0.266411
0.14193
0.265152
0.0677842
0.152482
0.136478
-0.0354784
0.131695
-0.0575453
0.124271
-0.0754517
0.114725
-0.0923155
0.103883
-0.104106
0.093073
-0.111673
0.0845543
-0.110128
0.0825079
-0.0997534
0.0916702
-0.0777984
0.110098
-0.0899758
0.136285
-0.0883132
0.163009
-0.103672
0.185683
-0.0922659
0.202497
-0.0795201
0.214235
-0.063933
0.221816
-0.0375402
0.227114
-0.0314458
0.230646
-0.00452507
0.233531
-0.00155325
0.236728
0.0118901
0.239437
0.0267023
0.242573
0.022026
0.24556
0.0456057
0.248014
0.0439206
0.251772
0.0417773
0.255235
0.0718661
0.258461
0.0458663
0.262392
0.062587
0.264492
0.0863829
0.265808
0.0520988
0.267325
0.0795782
0.267716
0.0960656
0.266701
0.104775
0.26707
0.0322394
0.2675
0.171549
0.265758
0.143672
0.264935
0.0686075
0.152811
0.209464
-0.0329188
0.204085
-0.0521663
0.19665
-0.0680169
0.187909
-0.0835745
0.177785
-0.0939824
0.167576
-0.101463
0.158882
-0.101434
0.156181
-0.0970529
0.160748
-0.0823646
0.170762
-0.0999896
0.18568
-0.103232
0.199191
-0.117182
0.211308
-0.104384
0.22051
-0.088722
0.227388
-0.0708107
0.232474
-0.0426259
0.236021
-0.0349935
0.238442
-0.00694605
0.239937
-0.00304784
0.241358
0.0104694
0.242306
0.0257538
0.243633
0.0206991
0.244862
0.0443769
0.245922
0.04286
0.248552
0.0391475
0.251253
0.0691656
0.254145
0.0429744
0.258054
0.0586781
0.260283
0.0841537
0.261911
0.0504704
0.263851
0.0776383
0.264693
0.0952236
0.264126
0.105342
0.265021
0.0313447
0.265994
0.170576
0.26477
0.144896
0.264548
0.0688296
0.152549
0.272022
-0.0295092
0.265354
-0.0454983
0.256591
-0.0592539
0.247041
-0.0740241
0.236694
-0.0836359
0.2264
-0.0911688
0.217077
-0.092111
0.212037
-0.0920126
0.211318
-0.081646
0.212955
-0.101627
0.217229
-0.107506
0.219373
-0.119326
0.222447
-0.107458
0.22534
-0.0916147
0.228657
-0.0741283
0.231823
-0.0457913
0.234662
-0.0378328
0.237174
-0.00945773
0.238662
-0.00453592
0.240211
0.0089203
0.241109
0.0248562
0.242173
0.019635
0.243054
0.0434956
0.243439
0.0424753
0.245297
0.0372887
0.247249
0.067214
0.249527
0.0406963
0.253156
0.0550489
0.255326
0.0819838
0.257156
0.0486405
0.259504
0.0752903
0.260861
0.0938666
0.260839
0.105364
0.262367
0.0298163
0.264023
0.16892
0.26346
0.145459
0.263997
0.0682925
0.151531
0.296716
-0.0258255
0.289648
-0.0384307
0.280824
-0.0504293
0.271478
-0.0646782
0.262073
-0.0742315
0.253309
-0.0824041
0.244923
-0.0837256
0.239735
-0.0868248
0.237069
-0.0789797
0.232012
-0.09657
0.22788
-0.103374
0.222603
-0.114049
0.220249
-0.105103
0.219605
-0.0909712
0.221243
-0.075766
0.223866
-0.0484137
0.226609
-0.0405766
0.229602
-0.0124504
0.231446
-0.00637983
0.233587
0.00677878
0.234895
0.0235485
0.236406
0.0181236
0.237902
0.0420003
0.238414
0.041963
0.240259
0.0354437
0.241975
0.0654984
0.243828
0.0388427
0.247292
0.0515846
0.24945
0.0798264
0.25149
0.0465999
0.254292
0.0724883
0.256253
0.0919056
0.256872
0.104745
0.259135
0.0275532
0.261612
0.166443
0.261842
0.14523
0.263286
0.066848
0.149597
0.272952
-0.0237588
0.268412
-0.0338904
0.262161
-0.0441782
0.254992
-0.0575095
0.247864
-0.0671032
0.241908
-0.0764486
0.236889
-0.0787064
0.233347
-0.0832829
0.231933
-0.0775655
0.224677
-0.0893133
0.217444
-0.0961418
0.209542
-0.106147
0.205674
-0.101235
0.20508
-0.0903764
0.207405
-0.0780913
0.210531
-0.0515395
0.213867
-0.0439132
0.217567
-0.0161505
0.220095
-0.00890762
0.222974
0.00390033
0.224956
0.0215661
0.227073
0.0160072
0.229462
0.0396113
0.230605
0.04082
0.232922
0.0331266
0.234906
0.0635143
0.236693
0.0370553
0.240228
0.0480499
0.242557
0.0774971
0.244907
0.04425
0.248244
0.069152
0.250911
0.0892381
0.252272
0.103385
0.25536
0.0244654
0.258789
0.163013
0.259934
0.144085
0.262422
0.0643596
0.146599
0.480611
-0.0217373
-0.482632
0.480341
-0.0336203
0.478966
-0.042804
0.475667
-0.0542098
0.470678
-0.0621145
0.465281
-0.0710514
0.46012
-0.0735451
0.456002
-0.0791649
0.454359
-0.0759226
0.448074
-0.0830283
0.438996
-0.087064
0.426384
-0.0935354
0.414347
-0.0891983
0.402429
-0.0784582
0.392948
-0.0686102
0.385983
-0.0445746
0.380773
-0.0387034
0.378362
-0.0137397
0.376786
-0.00733096
0.376135
0.00455051
0.375654
0.0220471
0.375738
0.0159238
0.375879
0.0394696
0.376677
0.0400224
0.377429
0.0323748
0.378182
0.0627614
0.37939
0.0358469
0.380249
0.0471911
0.381201
0.076545
0.382502
0.0429487
0.383461
0.0681935
0.384171
0.0885278
0.385062
0.102494
0.385998
0.0235289
0.386837
0.162174
0.38677
0.144152
0.387488
0.0636424
0.145495
0.514861
-0.0213357
-0.515263
0.514241
-0.0330003
0.51289
-0.0414531
0.51007
-0.0513898
0.505838
-0.0578819
0.500682
-0.0658958
0.495179
-0.0680424
0.489779
-0.073765
0.485496
-0.0716392
0.478813
-0.076345
0.469304
-0.0775551
0.457199
-0.0814303
0.444898
-0.0768978
0.43327
-0.0668305
0.424119
-0.0594587
0.417603
-0.0380591
0.413228
-0.0343275
0.410653
-0.0111655
0.409748
-0.00642569
0.40974
0.00455884
0.410336
0.0214513
0.411225
0.0150343
0.412356
0.0383384
0.413807
0.0385718
0.414972
0.03121
0.415889
0.061844
0.416817
0.0349191
0.417243
0.0467654
0.417781
0.0760062
0.41875
0.0419801
0.419422
0.0675219
0.420054
0.0878955
0.420972
0.101576
0.421933
0.0225677
0.422792
0.161315
0.422796
0.144149
0.423713
0.0627249
0.144256
0.55084
-0.0232009
-0.548975
0.550959
-0.0331192
0.550201
-0.0406949
0.548284
-0.0494731
0.544936
-0.054533
0.540695
-0.0616554
0.535866
-0.0632129
0.530431
-0.0683303
0.525342
-0.0665506
0.51902
-0.070023
0.51021
-0.0687449
0.499327
-0.0705466
0.488146
-0.0657177
0.477132
-0.0558165
0.467765
-0.0500916
0.4606
-0.0308937
0.455125
-0.0288521
0.452104
-0.0081451
0.450233
-0.00455504
0.44965
0.00514256
0.449846
0.0212547
0.450588
0.0142924
0.451717
0.03721
0.453246
0.0370427
0.454534
0.0299219
0.455561
0.0608169
0.456419
0.034061
0.456734
0.0464503
0.457169
0.075571
0.458008
0.0411413
0.458567
0.0669628
0.459232
0.0872306
0.460188
0.10062
0.461203
0.0215532
0.462131
0.160386
0.462232
0.144048
0.463332
0.0616256
0.142882
0.589845
-0.0258741
-0.587172
0.590734
-0.0340085
0.590368
-0.0403282
0.588989
-0.0480942
0.586354
-0.0518978
0.582852
-0.0581543
0.578359
-0.0587195
0.573038
-0.0630097
0.567133
-0.0606448
0.560084
-0.0629741
0.55116
-0.0598216
0.540656
-0.0600426
0.530111
-0.0551721
0.520224
-0.0459303
0.511813
-0.0416802
0.505379
-0.0244599
0.500572
-0.0240448
0.497131
-0.00470444
0.494836
-0.0022602
0.493697
0.00628215
0.493311
0.0216402
0.493565
0.0140384
0.494571
0.0362041
0.495972
0.0356416
0.497239
0.0286549
0.498284
0.0597722
0.49909
0.033255
0.499425
0.0461156
0.499865
0.0751308
0.500661
0.040345
0.501254
0.06637
0.502036
0.086449
0.503009
0.0996461
0.504112
0.0204502
0.505207
0.159292
0.505405
0.143851
0.506664
0.0603665
0.141354
0.632413
-0.0287496
-0.629537
0.633945
-0.0355403
0.634077
-0.0404611
0.633144
-0.0471605
0.631087
-0.0498409
0.628013
-0.0550807
0.623977
-0.0546827
0.618994
-0.0580271
0.613208
-0.0548584
0.606698
-0.0564643
0.598983
-0.0521067
0.589862
-0.0509218
0.580457
-0.0457669
0.571152
-0.0366249
0.562542
-0.0330701
0.555242
-0.0171607
0.549459
-0.018261
0.545244
-0.000489435
0.542628
0.00035564
0.541073
0.00783716
0.540527
0.0221862
0.540615
0.0139498
0.541329
0.0354903
0.542448
0.0345232
0.543535
0.0275677
0.544492
0.0588153
0.545273
0.0324737
0.545761
0.0456279
0.546303
0.074588
0.547143
0.0395052
0.547899
0.0656146
0.548843
0.085505
0.549797
0.0986914
0.551043
0.0192049
0.55241
0.157925
0.55267
0.14359
0.554062
0.0589746
0.139635
0.679113
-0.0317034
-0.676159
0.680964
-0.0373906
0.681538
-0.0410354
0.68105
-0.0466729
0.679425
-0.0482155
0.67684
-0.0524958
0.673222
-0.0510654
0.668753
-0.0535578
0.663329
-0.0494338
0.656866
-0.050002
0.649101
-0.0443415
0.640018
-0.0418391
0.630706
-0.0364545
0.621776
-0.0276951
0.613776
-0.0250704
0.607218
-0.0106018
0.601893
-0.0129365
0.598254
0.00314973
0.595312
0.00329747
0.593572
0.00957695
0.592621
0.0231369
0.592316
0.0142552
0.592808
0.0349981
0.593648
0.0336839
0.594625
0.0265905
0.595461
0.0579796
0.596109
0.0318253
0.596694
0.0450425
0.597244
0.0740388
0.598053
0.0386955
0.59899
0.0646779
0.600088
0.0844073
0.600972
0.0978071
0.602406
0.0177706
0.604144
0.156187
0.60442
0.143314
0.60593
0.0574651
0.137668
0.730687
-0.0344617
-0.727929
0.732551
-0.0392547
0.733345
-0.0418294
0.73313
-0.0464581
0.731861
-0.0469464
0.729646
-0.0502803
0.726415
-0.0478342
0.72228
-0.0494235
0.717088
-0.0442412
0.710832
-0.0437463
0.703726
-0.0372357
0.695951
-0.0340635
0.6879
-0.0284036
0.680007
-0.0198027
0.672718
-0.017781
0.665847
-0.00373063
0.660242
-0.00733165
0.655786
0.00760524
0.652419
0.00666453
0.650276
0.0117207
0.648965
0.0244478
0.648424
0.0147961
0.648655
0.0347668
0.649125
0.0332143
0.649954
0.0257613
0.650683
0.0572507
0.651285
0.0312233
0.652137
0.0441899
0.652806
0.0733699
0.653659
0.0378423
0.654869
0.0634683
0.656157
0.0831192
0.656954
0.0970103
0.658621
0.0161037
0.660826
0.153982
0.661081
0.143059
0.662711
0.0558358
0.135372
0.787281
-0.036899
-0.784843
0.789034
-0.0410083
0.789887
-0.0426821
0.789856
-0.0464268
0.788844
-0.0459342
0.786931
-0.048368
0.784018
-0.0449211
0.780217
-0.0456218
0.775419
-0.0394438
0.769772
-0.0380986
0.763224
-0.0306879
0.7558
-0.0266395
0.747993
-0.0205974
0.740257
-0.0120658
0.733208
-0.010733
0.727112
0.00236558
0.721822
-0.00204115
0.717688
0.0117386
0.714489
0.00986349
0.71228
0.0139305
0.710774
0.025953
0.710004
0.0155666
0.710037
0.0347334
0.710252
0.0329999
0.711016
0.0249972
0.711659
0.056608
0.712136
0.0307464
0.713132
0.043193
0.713803
0.0726996
0.714613
0.037032
0.716062
0.0620197
0.717527
0.0816535
0.718228
0.0963094
0.720152
0.01418
0.722908
0.151225
0.723124
0.142844
0.724892
0.0540678
0.132658
0.849651
-0.0389575
-0.847593
0.851151
-0.0425084
0.8519
-0.043431
0.851876
-0.0464032
0.850961
-0.0450193
0.849221
-0.0466275
0.846542
-0.042242
0.84303
-0.0421101
0.838604
-0.0350179
0.833299
-0.0327937
0.827195
-0.0245838
0.820491
-0.0199356
0.813733
-0.0138391
0.806996
-0.00532879
0.800834
-0.00457103
0.794999
0.00820036
0.789761
0.00319712
0.785668
0.0158315
0.782088
0.0134439
0.779706
0.016312
0.777908
0.027751
0.776889
0.016586
0.77672
0.034902
0.776598
0.0331225
0.777242
0.0243533
0.777833
0.056017
0.778266
0.0303129
0.77952
0.0419386
0.780329
0.0718914
0.781193
0.0361678
0.782949
0.0602633
0.784638
0.0799643
0.785298
0.0956494
0.787505
0.0119739
0.790866
0.147864
0.791069
0.14264
0.793005
0.0521325
0.129425
0.918137
-0.0405699
-0.916524
0.919286
-0.0436578
0.919808
-0.0439523
0.919669
-0.046265
0.918748
-0.0440981
0.917093
-0.0449722
0.914566
-0.039715
0.91129
-0.0388339
0.907147
-0.0308749
0.902288
-0.0279347
0.896764
-0.0190597
0.890718
-0.0138902
0.884528
-0.00764928
0.878229
0.000970665
0.872458
0.00119991
0.867057
0.0136011
0.862415
0.00783967
0.858445
0.0198012
0.855139
0.01675
0.85283
0.0186211
0.850977
0.0296042
0.849896
0.0176662
0.84964
0.0351582
0.849364
0.0333986
0.85001
0.0237072
0.850622
0.0554054
0.850979
0.0299559
0.852412
0.0405054
0.85328
0.0710235
0.85412
0.0353276
0.856147
0.0582363
0.858086
0.0780249
0.858724
0.0950116
0.86119
0.00950853
0.865275
0.143778
0.865502
0.142414
0.867655
0.0499789
0.125657
0.993269
-0.0416912
-0.992148
0.993997
-0.0443852
0.994184
-0.0441395
0.993792
-0.0458737
0.99271
-0.0430155
0.99097
-0.0432322
0.988474
-0.0372193
0.985308
-0.035668
0.98141
-0.0269768
0.976864
-0.0233883
0.971867
-0.0140631
0.966429
-0.0084517
0.961026
-0.00224635
0.955503
0.00649361
0.950415
0.00628754
0.945681
0.0183358
0.941417
0.0121035
0.93789
0.0233276
0.934682
0.0199583
0.932506
0.0207968
0.93063
0.031481
0.929469
0.0188264
0.929158
0.0354701
0.928688
0.0338678
0.929271
0.0231243
0.929865
0.0548119
0.930231
0.0295898
0.931869
0.0388674
0.932911
0.0699815
0.933847
0.0343915
0.93622
0.0558636
0.938413
0.0758319
0.939115
0.0943094
0.941968
0.0066553
0.946684
0.139063
0.947048
0.142049
0.949449
0.0475788
0.121086
1.07562
-0.0422871
-1.07502
1.07587
-0.0446387
1.07565
-0.0439129
1.07494
-0.0451709
1.07363
-0.0417036
1.07177
-0.0413716
1.06923
-0.0346802
1.06615
-0.0325866
1.06241
-0.0232391
1.05821
-0.0191891
1.05362
-0.0094701
1.0487
-0.00353393
1.04386
0.0025926
1.03902
0.0113378
1.03462
0.0106842
1.03047
0.0224915
1.02674
0.0158262
1.02362
0.0264538
1.02072
0.0228572
1.01877
0.0227425
1.01701
0.0332416
1.01594
0.0199001
1.01574
0.0356672
1.01528
0.0343342
1.01596
0.0224433
1.01672
0.0540482
1.01703
0.0292752
1.01891
0.0369897
1.02012
0.0687727
1.02103
0.0334779
1.02371
0.0531885
1.02631
0.073229
1.02714
0.0934787
1.03007
0.00373005
1.0359
0.133234
1.03644
0.141506
1.03909
0.0449241
0.115956
1.16542
-0.0423
-1.16541
1.16509
-0.0443073
1.16432
-0.0431454
1.16309
-0.0439428
1.16133
-0.0399454
1.15909
-0.0391275
1.15632
-0.0319102
1.1531
-0.0293645
1.14946
-0.0196043
1.14551
-0.0152399
1.14147
-0.00542403
1.13731
0.000624289
1.1332
0.00670245
1.12905
0.0154908
1.12534
0.0143929
1.12181
0.0260165
1.11877
0.0188733
1.11621
0.0290115
1.11383
0.0252344
1.11231
0.0242617
1.11088
0.0346708
1.11004
0.0207396
1.11001
0.0357011
1.10963
0.0347165
1.11044
0.0216256
1.11128
0.0532105
1.1118
0.0287543
1.11392
0.0348689
1.11536
0.0673337
1.11651
0.0323318
1.11963
0.0500708
1.12246
0.0703928
1.12346
0.092482
1.12713
5.78596e-05
1.13347
0.126896
1.1344
0.140579
1.13744
0.0418821
0.109571
1.26372
-0.0416827
-1.26434
1.26282
-0.0434112
1.26153
-0.0418496
1.25986
-0.042272
1.2577
-0.0377928
1.25516
-0.0365818
1.25213
-0.0288867
1.24881
-0.0260403
1.2451
-0.0158976
1.24126
-0.0113945
1.2373
-0.00146402
1.23343
0.00449423
1.22995
0.0101784
1.22661
0.0188359
1.22374
0.0172579
1.22112
0.0286412
1.21882
0.0211745
1.21704
0.0307887
1.2152
0.0270769
1.2142
0.0252532
1.2132
0.0356745
1.21258
0.0213598
1.2129
0.0353837
1.2127
0.0349171
1.21371
0.0206166
1.215
0.05192
1.21545
0.0283044
1.21788
0.032437
1.21963
0.0655816
1.22068
0.0312781
1.22413
0.0466247
1.22764
0.066886
1.22911
0.0910089
1.23227
-0.00310472
1.24038
0.118789
1.24184
0.139116
1.24502
0.0387012
0.102656
1.36914
-0.0402264
-1.37059
1.36729
-0.0415657
1.36507
-0.0396279
1.36249
-0.0396877
1.35955
-0.0348602
1.35635
-0.0333823
1.35292
-0.025456
1.34937
-0.0224822
1.3458
-0.0123342
1.34238
-0.00796815
1.33921
0.00169742
1.33616
0.00755106
1.33343
0.0129067
1.33091
0.0213564
1.32891
0.0192526
1.32716
0.0303935
1.32578
0.0225595
1.32484
0.0317267
1.32388
0.0280335
1.32364
0.0254954
1.32333
0.0359888
1.32336
0.0213229
1.32422
0.0345233
1.32445
0.0346909
1.32593
0.019136
1.32746
0.0503877
1.32841
0.0273527
1.33126
0.0295941
1.33341
0.0634292
1.3349
0.0297899
1.33896
0.0425612
1.34269
0.0631619
1.34456
0.0891308
1.34876
-0.00729744
1.35738
0.110166
1.3597
0.136798
1.36338
0.0350162
0.093969
1.4851
-0.0379051
-1.48743
1.4825
-0.0389652
1.47956
-0.0366809
1.47632
-0.0364512
1.47276
-0.0313043
1.46904
-0.0296606
1.46513
-0.0215461
1.46129
-0.018644
1.45745
-0.00848947
1.45392
-0.00443736
1.45088
0.00473877
1.44838
0.010051
1.4465
0.0147826
1.4451
0.0227621
1.44418
0.0201654
1.44366
0.0309146
1.44333
0.0228957
1.4435
0.0315485
1.44338
0.0281533
1.44394
0.0249389
1.44449
0.0354425
1.44492
0.0208913
1.44635
0.0330955
1.447
0.034035
1.44883
0.0173089
1.45136
0.047856
1.45233
0.0263817
1.45546
0.026463
1.45808
0.0608095
1.45931
0.0285668
1.46371
0.0381598
1.46837
0.0585034
1.47113
0.0863691
1.47447
-0.0106347
1.48533
0.0993021
1.48891
0.133214
1.49242
0.0315058
0.0847724
1.60296
-0.0339408
-1.60692
1.59863
-0.0346345
1.59414
-0.032191
1.58949
-0.0317968
1.58489
-0.0267113
1.58038
-0.02515
1.57624
-0.0174005
1.57244
-0.0148449
1.56938
-0.00543176
1.56702
-0.00207795
1.5653
0.00646166
1.56426
0.0110895
1.56388
0.0151599
1.56412
0.0225237
1.56479
0.0194935
1.56604
0.0296692
1.56716
0.0217716
1.56893
0.0297759
1.57029
0.0267979
1.57211
0.0231174
1.57383
0.0337284
1.5753
0.0194126
1.57784
0.0305627
1.5794
0.0324695
1.58181
0.0149013
1.5851
0.044568
1.58684
0.0246423
1.59042
0.0228811
1.59411
0.0571198
1.59571
0.0269627
1.60062
0.0332516
1.60592
0.0532042
1.61004
0.0822519
1.61313
-0.0137244
1.6251
0.0873251
1.63147
0.126843
1.63491
0.0280656
0.0738688
1.73523
-0.0284224
-1.74075
1.72957
-0.0289701
1.724
-0.0266233
1.71849
-0.0262862
1.71339
-0.0216109
1.70863
-0.0203872
1.70451
-0.0132823
1.70104
-0.0113789
1.69833
-0.00272064
1.69646
-0.000210188
1.69595
0.00697626
1.69621
0.0108277
1.69728
0.0140945
1.69928
0.0205194
1.70122
0.0175547
1.70396
0.0269283
1.70647
0.0192626
1.70965
0.0265961
1.71169
0.0247529
1.71445
0.0203607
1.7178
0.0303804
1.71976
0.0174551
1.72243
0.0278887
1.72448
0.0304243
1.72778
0.0115991
1.73334
0.0390038
1.73557
0.0224161
1.73899
0.0194639
1.74306
0.0530453
1.74405
0.0259729
1.74936
0.0279459
1.7557
0.0468606
1.76166
0.0762962
1.76362
-0.0156938
1.77792
0.0730314
1.78694
0.117822
1.78977
0.025235
0.062305
1.84892
-0.0186239
-1.85872
1.83936
-0.0194117
1.83101
-0.0182666
1.8233
-0.0185829
1.81759
-0.0158971
1.81278
-0.0155752
1.81038
-0.0108872
1.80898
-0.00997883
1.81
-0.00374107
1.81182
-0.00202903
1.81592
0.0028819
1.82051
0.00623338
1.82582
0.00878389
1.83257
0.0137653
1.83775
0.0123759
1.84454
0.0201402
1.84976
0.0140419
1.85599
0.0203697
1.86037
0.0203669
1.864
0.0167332
1.87111
0.0232734
1.8734
0.0151636
1.87675
0.0245419
1.88139
0.0257807
1.88384
0.00915122
1.89411
0.0287364
1.89757
0.0189477
1.89772
0.019314
1.90508
0.0456916
1.90584
0.0252124
1.90794
0.0258422
1.91722
0.0375806
1.93135
0.0621674
1.92484
-0.00918307
1.93801
0.0598652
1.96181
0.0940175
1.96252
0.0245271
0.0541448
2.02658
-0.0104982
-2.0347
2.01836
-0.0111957
2.01124
-0.01114
2.00428
-0.0116271
1.99926
-0.0108748
1.99457
-0.0108853
1.99269
-0.00900751
1.99114
-0.00843196
1.99292
-0.00552372
1.99492
-0.00402557
1.99946
-0.00165813
2.00469
0.00100432
2.01074
0.00273659
2.01848
0.00601949
2.02451
0.00634382
2.03358
0.0110787
2.03888
0.00873576
2.04663
0.0126175
2.0534
0.0135986
2.05759
0.0125494
2.06567
0.0151918
2.06813
0.0127027
2.07459
0.0180831
2.08217
0.018199
2.08076
0.0105644
2.09047
0.019021
2.09353
0.0158908
2.09381
0.0190353
2.10788
0.0316153
2.11178
0.0213166
2.11202
0.0256007
2.1237
0.0259042
2.14355
0.042319
2.12759
0.00677539
2.14144
0.0460086
2.17631
0.0591536
2.17404
0.0267983
0.049147
2.26284
-0.00698225
-2.26635
2.25884
-0.00719499
2.25474
-0.00704648
2.25019
-0.00707096
2.2459
-0.00659079
2.24136
-0.00634531
2.23779
-0.00543402
2.2342
-0.00484309
2.23225
-0.00357303
2.23072
-0.00249786
2.23033
-0.00126551
2.23095
0.000382121
2.23234
0.00135176
2.23489
0.00346255
2.23743
0.00380935
2.24214
0.00636635
2.2449
0.00597054
2.24952
0.00799873
2.25449
0.00863041
2.25842
0.00862546
2.26323
0.0103757
2.26659
0.00934086
2.27312
0.0115597
2.27943
0.0118879
2.28054
0.0094557
2.28584
0.0137204
2.28973
0.0120022
2.29491
0.0138483
2.30714
0.0193887
2.31405
0.0144079
2.32005
0.0195998
2.32935
0.0166034
2.34349
0.0281776
2.34006
0.0102095
2.35529
0.0307811
2.37738
0.0370568
2.38226
0.0219224
0.0359374
2.46263
-0.00291193
-2.4667
2.45845
-0.0030209
2.45445
-0.00304059
2.45046
-0.00308122
2.44685
-0.00298942
2.44342
-0.00291485
2.44067
-0.00267671
2.43827
-0.00244217
2.43676
-0.00206401
2.43587
-0.00161367
2.43578
-0.00116948
2.43662
-0.000463381
2.438
-3.04787e-05
2.44061
0.000855414
2.44325
0.0011689
2.44742
0.00219442
2.451
0.0023988
2.45579
0.00320787
2.46066
0.00375452
2.46538
0.00390675
2.47098
0.00477954
2.47567
0.00464397
2.48174
0.00549191
2.48777
0.00585692
2.49207
0.00516092
2.49893
0.00685361
2.50453
0.00641082
2.51098
0.00739168
2.52082
0.00955411
2.5275
0.00772622
2.53638
0.0107224
2.54458
0.00839563
2.55872
0.0140465
2.56152
0.00740361
2.57694
0.0153577
2.59638
0.017626
2.60515
0.0131438
0.0194414
2.70609
-2.709
2.70306
2.70002
2.69694
2.69395
2.69104
2.68836
2.68592
2.68386
2.68224
2.68107
2.68061
2.68058
2.68143
2.6826
2.6848
2.6872
2.6904
2.69416
2.69807
2.70284
2.70749
2.71298
2.71884
2.724
2.73085
2.73726
2.74465
2.75421
2.76194
2.77266
2.78105
2.7951
2.8025
2.81786
2.83549
2.84863
0.419557
0.0228697
-0.412037
0.427354
0.0524686
0.435552
0.0820489
0.444661
0.112387
0.45284
0.142423
0.46473
0.170922
0.475436
0.201428
0.228225
0.454278
0.0159115
-0.44732
0.461559
0.0451882
0.469098
0.0745095
0.477581
0.103905
0.48627
0.133733
0.495167
0.162026
0.505882
0.190712
0.218844
0.492056
0.0100067
-0.486151
0.49835
0.0388941
0.505392
0.0674672
0.512586
0.0967112
0.520914
0.125405
0.528984
0.153956
0.53875
0.180947
0.208618
0.533077
0.00476513
-0.527835
0.538692
0.0332788
0.545206
0.060953
0.55201
0.0899074
0.559916
0.117499
0.568206
0.145666
0.577343
0.17181
0.198789
0.578287
0.000150105
-0.573672
0.583434
0.0281318
0.589354
0.0550328
0.595902
0.08336
0.603252
0.110149
0.611264
0.137654
0.619966
0.163108
0.189218
0.62732
-0.00378192
-0.623388
0.63204
0.0234117
0.637408
0.0496644
0.643619
0.0771488
0.650499
0.10327
0.658267
0.129886
0.666732
0.154642
0.179791
0.681251
-0.00715572
-0.677877
0.685524
0.0191391
0.690441
0.0447476
0.696328
0.0712616
0.702908
0.0966891
0.710458
0.122337
0.718703
0.146398
0.170565
0.739844
-0.0100524
-0.736948
0.743711
0.0152727
0.7483
0.040158
0.753915
0.0656464
0.760266
0.0903381
0.767624
0.114979
0.775721
0.138301
0.161442
0.803965
-0.0125141
-0.801503
0.807464
0.0117729
0.811759
0.0358635
0.817116
0.0602893
0.823284
0.0841705
0.830502
0.10776
0.838524
0.130279
0.152373
0.873828
-0.0145929
-0.871749
0.876983
0.00861798
0.881035
0.0318114
0.886195
0.0551296
0.892256
0.078109
0.899408
0.100609
0.907428
0.122259
0.143277
0.950062
-0.016305
-0.94835
0.952914
0.00576625
0.95676
0.0279656
0.961762
0.0501273
0.967754
0.0721167
0.974882
0.0934809
0.982956
0.114185
0.134085
1.03318
-0.017668
-1.03182
1.03574
0.00320504
1.03941
0.0242968
1.0443
0.0452375
1.05028
0.0661395
1.05745
0.0863078
1.06565
0.105982
0.124714
1.12375
-0.0186244
-1.12279
1.12602
0.000933486
1.1295
0.0208243