/*--------------------------------*- C++ -*----------------------------------*\
| =========                 |                                                 |
| \\      /  F ield         | OpenFOAM: The Open Source CFD Toolbox           |
|  \\    /   O peration     | Version:  2312                                  |
|   \\  /    A nd           | Website:  www.openfoam.com                      |
|    \\/     M anipulation  |                                                 |
\*---------------------------------------------------------------------------*/
FoamFile
{
    version     2.0;
    format      ascii;
    arch        "LSB;label=32;scalar=64";
    class       surfaceScalarField;
    location    "66.5";
    object      phi;
}
// * * * * * * * * * * * * * * * * * * * * * * * * * * * * * * * * * * * * * //

dimensions      [0 3 -1 0 0 0 0];

oriented        oriented;

internalField   nonuniform List<scalar> 
10785
(
0.000543242
0.00359746
-0.0041407
0.00345116
0.00479088
-0.0076988
0.010048
-0.000633484
-0.0059634
0.022567
-0.0137002
0.00118125
0.0427439
-0.0343535
0.0141766
0.0700162
-0.0603806
0.0331084
0.101207
-0.0880879
0.0568969
0.131908
-0.113852
0.0831516
0.158074
-0.135101
0.108935
0.1774
-0.150776
0.13145
0.189353
-0.161199
0.149246
0.196008
-0.167543
0.160888
0.19987
-0.172341
0.16848
0.202044
-0.174523
0.172348
-0.177803
0.174711
0.205136
0.000251049
0.00334641
0.00385983
0.00118209
0.0138064
-0.0105801
0.0326314
-0.0325252
0.0595154
-0.0612375
0.0900875
-0.0909527
0.118981
-0.116982
0.142112
-0.136983
0.157841
-0.15083
0.167031
-0.159966
0.172159
-0.166327
0.176412
-0.171796
0.181146
-0.177075
0.188738
-0.182114
-0.188766
0.1997
0.000624337
0.00272207
0.00653284
-0.00472641
0.0218658
-0.0259131
0.0466624
-0.0573218
0.0754846
-0.0900597
0.101926
-0.117394
0.121979
-0.137035
0.134925
-0.149928
0.142618
-0.158523
0.147839
-0.165187
0.1529
-0.171388
0.158651
-0.177547
0.165121
-0.183546
0.17238
-0.189372
-0.195191
0.178805
0.00158901
0.00113307
0.0112812
-0.0144186
0.0320851
-0.0467169
0.0585581
-0.0837948
0.0829171
-0.114419
0.100903
-0.13538
0.112377
-0.148509
0.119593
-0.157145
0.125008
-0.163938
0.130034
-0.170212
0.13496
-0.176315
0.139742
-0.182329
0.144591
-0.188394
0.149964
-0.194746
-0.201643
0.156417
0.00299848
-0.00186541
0.0171354
-0.0285555
0.0404537
-0.0700353
0.0634044
-0.106746
0.0804845
-0.131499
0.091385
-0.14628
0.0982515
-0.155375
0.103173
-0.162066
0.107241
-0.168006
0.110847
-0.173819
0.114294
-0.179762
0.117976
-0.186012
0.122171
-0.192589
0.12701
-0.199585
-0.206893
0.13226
0.00485865
-0.00672406
0.0223709
-0.0460677
0.0440068
-0.0916712
0.0611394
-0.123878
0.0720944
-0.142454
0.0786118
-0.152798
0.0827307
-0.159494
0.085731
-0.165067
0.088298
-0.170573
0.090848
-0.176369
0.0936117
-0.182526
0.0966045
-0.189004
0.099809
-0.195793
0.103228
-0.203004
-0.210408
0.106744
0.00697606
-0.0137001
0.0253356
-0.0644272
0.0427751
-0.109111
0.0544077
-0.135511
0.0609095
-0.148956
0.0643924
-0.15628
0.0664963
-0.161598
0.0681229
-0.166693
0.0696364
-0.172086
0.0711143
-0.177846
0.0725489
-0.18396
0.0740078
-0.190463
0.0756257
-0.197411
0.0774264
-0.204805
-0.212489
0.0795069
0.00869657
-0.0223967
0.0252631
-0.0809937
0.0381704
-0.122018
0.0453149
-0.142655
0.0485434
-0.152184
0.0498729
-0.15761
0.0504678
-0.162193
0.0507631
-0.166988
0.0508758
-0.172199
0.0508817
-0.177852
0.0508911
-0.18397
0.0510004
-0.190573
0.0512632
-0.197674
0.0517173
-0.205259
0.0524483
-0.21322
-0.00225819
0.0103289
-0.00807071
-0.00677396
0.014338
-0.00982224
-0.0127189
0.0128971
-0.00695214
-0.0197503
0.0101124
-0.00308093
-0.0275919
0.00645017
0.00139143
-0.0359575
0.00119585
0.00716975
-0.0448414
-0.00575734
0.0146412
-0.0537505
-0.0151661
0.0240752
-0.0621449
-0.0271451
0.0355394
-0.0693542
-0.0415956
0.0488049
-0.0745998
-0.0580079
0.0632535
-0.0769326
-0.0754982
0.0778309
-0.0754545
-0.0927867
0.0913087
-0.0693063
-0.108022
0.101874
-0.119693
-0.0570232
0.10741
-0.00159641
0.0119253
-0.00532262
0.0180642
-0.010403
0.0179774
-0.01639
0.0160995
-0.0231029
0.013163
-0.0305388
0.00863176
-0.0381301
0.00183388
-0.0460948
-0.00720128
-0.0540114
-0.0192285
-0.0614693
-0.0341377
-0.0681068
-0.0513704
-0.0735815
-0.0700234
-0.0776353
-0.0887329
-0.0796419
-0.106015
-0.120786
-0.0785482
-0.000435244
0.0123605
-0.00246661
0.0200956
-0.00557877
0.0210896
-0.0092287
0.0197494
-0.0131317
0.0170661
-0.0171782
0.0126782
-0.0212788
0.00593449
-0.0249802
-0.00349992
-0.0281439
-0.0160648
-0.0305007
-0.0317809
-0.0318961
-0.0499751
-0.0324839
-0.0694355
-0.0327075
-0.0885093
-0.0336539
-0.105069
-0.118306
-0.0361343
0.000847354
0.0115132
0.000929989
0.020013
0.000307127
0.0217124
-0.000382185
0.0204387
-0.000751731
0.0174356
-0.000567772
0.0124943
0.000404796
0.00496193
0.0026698
-0.00576493
0.00671551
-0.0201105
0.0129233
-0.0379887
0.0209284
-0.0579802
0.0311353
-0.0796424
0.0408213
-0.0981954
0.0509409
-0.115188
-0.124399
0.0570341
0.0018309
0.00968229
0.00385757
0.0179863
0.00573566
0.0198343
0.00798592
0.0181884
0.01117
0.0142516
0.015708
0.00795629
0.022003
-0.00133309
0.0307845
-0.0145464
0.0424946
-0.0318206
0.0573494
-0.0528435
0.0749244
-0.0755552
0.0943148
-0.0990328
0.11439
-0.11827
0.133407
-0.134205
-0.143485
0.152492
0.0022404
0.00744189
0.00556653
0.0146602
0.00934471
0.0160562
0.0139957
0.0135374
0.0201939
0.00805341
0.0285865
-0.000436314
0.0404054
-0.013152
0.0561025
-0.0302436
0.0759758
-0.0516939
0.0991313
-0.075999
0.124284
-0.100708
0.149011
-0.12376
0.171813
-0.141073
0.192208
-0.1546
-0.160536
0.209259
0.00200236
0.00543952
0.00568423
0.0109783
0.0104812
0.0112592
0.0168475
0.00717112
0.025772
-0.000871138
0.038943
-0.0136073
0.0571007
-0.0313097
0.0804226
-0.0535655
0.107626
-0.0788975
0.136052
-0.104425
0.163259
-0.127915
0.186192
-0.146693
0.204661
-0.159541
0.218318
-0.168257
-0.168863
0.226644
0.00129882
0.00457831
0.00987411
0.0182265
0.031532
0.0510331
0.0766202
0.106206
0.136244
0.163269
0.1846
0.198795
0.207734
0.211825
0.217672
-0.0298141
-0.167835
0.140626
0.00802157
-0.153836
0.116
0.0498432
-0.116072
0.0742502
0.0918053
-0.0489976
0.00703554
0.131553
0.0422269
-0.0819748
0.16569
0.145868
-0.180004
0.185046
0.234427
-0.253784
0.193436
0.283167
-0.291557
0.195851
0.282924
-0.285339
0.180723
0.290066
-0.274938
0.155979
0.315367
-0.290623
0.146808
0.27092
-0.261749
0.160424
0.119832
-0.133448
0.183474
-0.0627399
0.0396895
0.206563
-0.206085
0.182996
0.226768
-0.272257
0.252053
0.225391
-0.279342
0.280719
0.194731
-0.307802
0.338462
0.1639
-0.348354
0.379185
0.161487
-0.263742
0.266155
0.190615
-0.0495539
0.020425
0.23027
0.118092
-0.157747
0.246437
0.180528
-0.196694
0.242392
0.27496
-0.270915
0.242887
0.378079
-0.378574
0.246633
0.361649
-0.365395
0.246068
0.225267
-0.224702
0.240805
0.007931
-0.00266839
0.234256
-0.285439
0.291988
0.231062
-0.537172
0.540366
0.232811
-0.437223
0.435474
0.2364
-0.0593489
0.0557597
0.235031
0.433546
-0.432177
0.22136
0.475149
-0.461479
0.201055
0.267085
-0.24678
0.192682
-0.210046
0.218419
0.19409
-0.509306
0.507898
-0.137663
0.136067
-0.0717488
-0.174635
-0.0506143
-0.174971
-0.0174762
-0.14921
0.0290257
-0.0954994
0.0802518
-0.00899918
0.126291
0.0998283
0.163151
0.197567
0.192216
0.254102
0.206604
0.268536
0.197765
0.298904
0.18068
0.332453
0.175837
0.275763
0.187852
0.107817
0.204086
-0.0789744
0.213614
-0.215612
0.223546
-0.28219
0.22253
-0.278326
0.19231
-0.277582
0.155166
-0.31121
0.150122
-0.258698
0.18438
-0.0838114
0.227538
0.0749336
0.246025
0.162041
0.242573
0.278412
0.238161
0.382491
0.240271
0.359539
0.244158
0.22138
0.241435
0.0106548
0.233048
-0.277053
0.228323
-0.532447
0.23107
-0.43997
0.236657
-0.0649354
0.236004
0.434199
0.221281
0.489872
0.20026
0.288106
0.193129
-0.202914
0.196042
-0.512219
-0.139459
-0.0563071
-0.154462
-0.0648821
-0.166396
-0.05333
-0.160762
-0.020609
-0.12822
0.0306316
-0.0602398
0.0890105
0.0414494
0.146182
0.140396
0.194831
0.205453
0.2193
0.244067
0.218819
0.299385
0.209964
0.341308
0.206041
0.279685
0.212426
0.101432
0.22239
-0.0889381
0.222417
-0.215639
0.221566
-0.281338
0.22032
-0.27708
0.194735
-0.251998
0.156299
-0.272774
0.148041
-0.25044
0.182427
-0.118197
0.226125
0.0312352
0.245964
0.142203
0.241779
0.282596
0.232
0.39227
0.23364
0.357899
0.242643
0.212377
0.242011
0.0112863
0.231331
-0.266373
0.224913
-0.526029
0.229154
-0.444211
0.237109
-0.0728904
0.237158
0.43415
0.221679
0.505352
0.200213
0.309571
0.193941
-0.196642
0.197982
-0.51626
-0.141509
0.0222576
-0.119685
-0.0132462
-0.130892
-0.0361596
-0.137849
-0.0339906
-0.130389
-0.00331206
-0.0909183
0.0547015
-0.0165642
0.121035
0.0740627
0.180257
0.146231
0.215923
0.208401
0.2296
0.285707
0.234171
0.336738
0.234891
0.278965
0.234959
0.101364
0.239093
-0.0930718
0.232816
-0.209362
0.221095
-0.269617
0.217866
-0.273851
0.199556
-0.233687
0.164093
-0.237312
0.15245
-0.238797
0.184391
-0.150139
0.227134
-0.0115074
0.245861
0.123476
0.238557
0.2899
0.224665
0.406162
0.226698
0.355866
0.240656
0.198419
0.242195
0.00974726
0.229521
-0.253699
0.221197
-0.517705
0.226994
-0.450007
0.23762
-0.0835164
0.238503
0.433267
0.222586
0.521269
0.200961
0.331196
0.195147
-0.190827
0.199901
-0.521014
-0.143852
0.127457
-0.0946505
0.0932625
-0.0966971
0.0492629
-0.0938489
0.0117173
-0.0928439
0.00388695
-0.083088
0.0340263
-0.0467036
0.0877059
0.0203831
0.145205
0.0887317
0.192695
0.160912
0.227854
0.250548
0.252926
0.311666
0.262846
0.269045
0.258264
0.105945
0.252729
-0.0875361
0.240545
-0.197179
0.220302
-0.249374
0.21263
-0.266179
0.201313
-0.22237
0.171817
-0.207816
0.158195
-0.225174
0.18652
-0.178464
0.228008
-0.0529957
0.246559
0.104925
0.237604
0.298855
0.220159
0.423607
0.220884
0.355141
0.237735
0.181568
0.241075
0.00640767
0.227069
-0.239694
0.21688
-0.507516
0.224089
-0.457217
0.237879
-0.0973056
0.239936
0.43121
0.224077
0.537128
0.202465
0.352807
0.196725
-0.185087
0.201793
-0.526082
-0.146511
0.190453
-0.075844
0.171807
-0.0780511
0.147362
-0.0694043
0.110553
-0.0560346
0.0733785
-0.0459136
0.057023
-0.030348
0.0719389
0.00546714
0.110276
0.0503942
0.161898
0.10929
0.2156
0.196845
0.258457
0.268809
0.279083
0.24842
0.276003
0.109025
0.263388
-0.074922
0.2456
-0.17939
0.219066
-0.22284
0.205558
-0.252671
0.199228
-0.21604
0.175973
-0.184561
0.159752
-0.208953
0.183462
-0.202175
0.224778
-0.0943109
0.246205
0.0834973
0.238954
0.306106
0.218983
0.443578
0.21676
0.357364
0.234511
0.163818
0.239222
0.0016968
0.224278
-0.224749
0.212155
-0.495393
0.220372
-0.465435
0.237408
-0.114341
0.241331
0.427287
0.226129
0.55233
0.204668
0.374268
0.198687
-0.179106
0.2037
-0.531095
-0.149478
0.20803
-0.0572296
0.189726
-0.0597471
0.178424
-0.0581023
0.168849
-0.0464596
0.153423
-0.0304873
0.136584
-0.0135089
0.122588
0.0194627
0.122594
0.0503884
0.152833
0.079051
0.206233
0.143446
0.25672
0.218322
0.284887
0.220252
0.283544
0.110368
0.26482
-0.0561973
0.243278
-0.157849
0.214659
-0.194221
0.19599
-0.234002
0.192724
-0.212774
0.176076
-0.167913
0.156153
-0.189029
0.172015
-0.218037
0.216269
-0.138565
0.245343
0.0544233
0.241709
0.30974
0.219828
0.465459
0.214154
0.363038
0.231064
0.146907
0.236505
-0.00374346
0.220766
-0.20901
0.207095
-0.481722
0.215704
-0.474044
0.236076
-0.134713
0.242435
0.420928
0.228384
0.566381
0.207342
0.39531
0.201028
-0.172793
0.205718
-0.535784
-0.152705
0.203507
-0.0430639
0.188424
-0.0446644
0.175547
-0.0452248
0.169448
-0.0403614
0.167745
-0.0287839
0.167476
-0.0132401
0.166611
0.0203282
0.164047
0.0529523
0.175532
0.0675652
0.207817
0.111161
0.249207
0.176932
0.284231
0.185228
0.29132
0.10328
0.270612
-0.0354901
0.243918
-0.131154
0.212139
-0.162441
0.187571
-0.209434
0.18389
-0.209093
0.174222
-0.158246
0.153178
-0.167985
0.157133
-0.221993
0.197362
-0.178793
0.238118
0.0136676
0.248321
0.299537
0.227001
0.486779
0.21541
0.374629
0.229223
0.133094
0.234141
-0.00866166
0.217298
-0.192167
0.202666
-0.46709
0.210807
-0.482185
0.233228
-0.157134
0.243231
0.410926
0.23105
0.578561
0.21054
0.41582
0.203837
-0.16609
0.207965
-0.539913
-0.156144
0.27438
-0.0291292
-0.288315
0.261777
-0.0320615
0.24883
-0.0322777
0.236108
-0.0276394
0.225075
-0.017751
0.216912
-0.00507647
0.211666
0.025574
0.206182
0.0584357
0.203146
0.0706017
0.206879
0.107429
0.232358
0.151453
0.28373
0.133856
0.325009
0.0620009
0.333404
-0.043885
0.321402
-0.119152
0.298708
-0.139747
0.274191
-0.184918
0.257004
-0.191905
0.239864
-0.141106
0.220079
-0.1482
0.209979
-0.211893
0.218527
-0.187341
0.223369
0.00882563
0.205047
0.317858
0.186325
0.505501
0.202579
0.358376
0.238419
0.0972535
0.256031
-0.0262737
0.253662
-0.189798
0.243275
-0.456704
0.233759
-0.472669
0.228011
-0.151386
0.222789
0.416148
0.214641
0.586708
0.206434
0.424028
0.205561
-0.165217
0.203121
-0.537472
-0.153757
0.298967
-0.0177189
-0.310378
0.287528
-0.0206227
0.276068
-0.0208172
0.265491
-0.0170623
0.256493
-0.00875312
0.250013
0.00140389
0.250927
0.0246596
0.256503
0.0528598
0.262895
0.0642092
0.276026
0.0942984
0.306615
0.120864
0.346959
0.0935113
0.369418
0.0395419
0.364611
-0.0390775
0.345761
-0.100303
0.320429
-0.114415
0.295896
-0.160385
0.277654
-0.173664
0.261657
-0.125109
0.246634
-0.133177
0.235779
-0.201037
0.239378
-0.19094
0.24473
0.00347379
0.230546
0.332041
0.215992
0.520055
0.235927
0.338441
0.273135
0.0600456
0.289158
-0.0422963
0.283012
-0.183652
0.270297
-0.443989
0.259353
-0.461724
0.251924
-0.143957
0.246643
0.421429
0.239513
0.593837
0.232563
0.430978
0.231052
-0.163707
0.226031
-0.532451
-0.14981
0.326782
-0.00896234
-0.335538
0.317461
-0.0113016
0.307943
-0.011299
0.299145
-0.0082647
0.291624
-0.00123199
0.285697
0.00733083
0.28786
0.022497
0.296559
0.0441609
0.306824
0.0539436
0.326446
0.0746769
0.356672
0.0906376
0.38509
0.0650934
0.396938
0.0276939
0.388018
-0.0301572
0.370575
-0.0828604
0.349735
-0.0935743
0.327245
-0.137895
0.30971
-0.156129
0.294434
-0.109833
0.278207
-0.11695
0.263383
-0.186213
0.262807
-0.190364
0.270203
-0.00392141
0.262068
0.340176
0.254055
0.528068
0.277588
0.314909
0.313934
0.0236992
0.326857
-0.0552195
0.31651
-0.173305
0.300997
-0.428475
0.288179
-0.448907
0.278762
-0.134539
0.273171
0.42702
0.268265
0.598744
0.263395
0.435848
0.260744
-0.161056
0.252032
-0.523738
-0.143754
0.356251
-0.00203754
-0.363175
0.34855
-0.00360104
0.340783
-0.00353148
0.333844
-0.00132597
0.328879
0.00373305
0.325217
0.0109924
0.327116
0.0205984
0.334988
0.0362881
0.345035
0.043897
0.363545
0.0561675
0.389005
0.0651771
0.40958
0.0445185
0.417577
0.0196969
0.410145
-0.022725
0.394649
-0.0673649
0.376819
-0.0757438
0.354922
-0.115998
0.335339
-0.136546
0.321724
-0.0962174
0.309238
-0.104464
0.292815
-0.16979
0.287965
-0.185515
0.296866
-0.012822
0.295737
0.341305
0.2993
0.524504
0.327812
0.286397
0.361447
-0.00993529
0.368718
-0.0624906
0.352591
-0.157178
0.334218
-0.410102
0.319819
-0.434508
0.308304
-0.123025
0.302821
0.432503
0.301566
0.599999
0.299755
0.437659
0.295529
-0.15683
0.2817
-0.50991
-0.134851
0.388104
0.00331694
-0.393458
0.382281
0.0022214
0.376548
0.00220182
0.371359
0.00386257
0.367919
0.00717391
0.365927
0.0129844
0.367724
0.0188012
0.374447
0.0295651
0.383433
0.0349107
0.398488
0.0411129
0.417617
0.0460479
0.432444
0.0296915
0.438955
0.013186
0.433922
-0.0176926
0.421686
-0.055128
0.407007
-0.0610656
0.388198
-0.0971893
0.368584
-0.116931
0.355529
-0.0831632
0.346372
-0.0953069
0.325384
-0.148802
0.310256
-0.170387
0.324078
-0.0266445
0.339922
0.325461
0.357511
0.506915
0.385821
0.258087
0.412483
-0.0365975
0.41414
-0.0641474
0.392728
-0.135767
0.370735
-0.388109
0.354199
-0.417971
0.3404
-0.109226
0.336046
0.436857
0.339859
0.596186
0.342187
0.435331
0.335881
-0.150524
0.315336
-0.489365
-0.122355
0.423231
0.00718986
-0.427104
0.419082
0.00637038
0.41504
0.00624397
0.411372
0.00753027
0.40911
0.00943623
0.408364
0.0137306
0.410062
0.0171034
0.415776
0.0238514
0.423223
0.0274637
0.434685
0.0296509
0.448572
0.0321603
0.458991
0.0192726
0.464682
0.00749534
0.461178
-0.0141893
0.451116
-0.0450658
0.438429
-0.048378
0.421039
-0.0797996
0.402086
-0.097979
0.388873
-0.0699499
0.382394
-0.088828
0.359046
-0.125453
0.326942
-0.138282
0.337411
-0.0371137
0.379125
0.283747
0.416554
0.469486
0.44556
0.229081
0.464077
-0.055114
0.460436
-0.060507
0.434426
-0.109756
0.408775
-0.362458
0.390221
-0.399417
0.373317
-0.0923219
0.370674
0.4395
0.382494
0.584366
0.39107
0.426755
0.382472
-0.141925
0.353363
-0.460256
-0.105331
0.462179
0.0096384
-0.464627
0.459305
0.00924444
0.456521
0.00902774
0.454147
0.00990459
0.452738
0.0108447
0.452793
0.0136752
0.454366
0.0155303
0.458965
0.0192526
0.464935
0.0214941
0.473297
0.0212889
0.483261
0.0221964
0.490245
0.0122887
0.494796
0.00294393
0.491736
-0.0111292
0.483324
-0.0366542
0.473872
-0.0389252
0.458147
-0.0640747
0.441334
-0.081166
0.427523
-0.0561397
0.418009
-0.0793135
0.394055
-0.101499
0.346369
-0.0905965
0.34051
-0.0312551
0.400143
0.224115
0.466522
0.403106
0.50269
0.192914
0.513277
-0.0657014
0.50686
-0.0540902
0.479746
-0.0826418
0.449211
-0.331924
0.42794
-0.378146
0.410316
-0.0746978
0.411678
0.438138
0.431819
0.564225
0.446903
0.411671
0.435423
-0.130445
0.395942
-0.420775
-0.0830555
0.504558
0.0112777
-0.506197
0.502758
0.0110448
0.501034
0.0107511
0.499749
0.0111899
0.499028
0.0115661
0.499553
0.0131498
0.501015
0.0140678
0.504529
0.0157389
0.509204
0.0168191
0.514918
0.0155751
0.522056
0.015058
0.526342
0.00800304
0.529355
-6.93313e-05
0.527291
-0.00906472
0.519797
-0.0291607
0.512439
-0.0315667
0.497576
-0.049212
0.4822
-0.06579
0.470466
-0.0444058
0.456605
-0.0654525
0.434512
-0.0794061
0.387991
-0.0440748
0.366879
-0.0101435
0.43138
0.159614
0.520304
0.314181
0.559895
0.153323
0.559733
-0.0655397
0.551123
-0.04548
0.525922
-0.0574402
0.489869
-0.295871
0.464129
-0.352406
0.445109
-0.0556781
0.452061
0.431187
0.481284
0.535001
0.506371
0.386584
0.494064
-0.118138
0.443092
-0.369802
-0.055137
0.55073
0.0120519
-0.551504
0.549913
0.0118616
0.549083
0.0115807
0.548556
0.0117172
0.548364
0.0117577
0.549056
0.012458
0.550412
0.0127121
0.552949
0.0132016
0.556482
0.0132864
0.560246
0.0118104
0.565019
0.0102856
0.56764
0.00538218
0.569092
-0.00152174
0.567495
-0.0074677
0.560465
-0.0221302
0.554452
-0.0255539
0.541949
-0.0367097
0.527399
-0.0512391
0.518145
-0.0351519
0.501784
-0.0490922
0.481158
-0.0587798
0.451256
-0.0141729
0.430937
0.0101762
0.487561
0.10299
0.576984
0.224758
0.611662
0.118646
0.600094
-0.0539722
0.592827
-0.0382127
0.575127
-0.0397403
0.531767
-0.252511
0.49713
-0.317769
0.476765
-0.0353125
0.490681
0.417271
0.531763
0.493919
0.569134
0.349212
0.557657
-0.106661
0.494222
-0.306367
-0.0209757
0.601382
0.0121613
-0.601492
0.601186
0.0120584
0.600951
0.0118152
0.60091
0.0117587
0.601106
0.0115609
0.601846
0.0117187
0.603053
0.0115051
0.604868
0.0113861
0.607363
0.010792
0.609788
0.00938544
0.612689
0.00738375
0.614158
0.00391367
0.614282
-0.00164576
0.612801
-0.00598719
0.606758
-0.0160866
0.601211
-0.0200069
0.591224
-0.0267225
0.577686
-0.0377015
0.569913
-0.0273788
0.554983
-0.0341619
0.536157
-0.0399543
0.522569
-0.000584574
0.512764
0.0199811
0.551957
0.0637968
0.625472
0.151243
0.656212
0.0879055
0.638722
-0.0364827
0.632631
-0.0321212
0.624415
-0.0315244
0.574145
-0.202241
0.52515
-0.268775
0.508669
-0.0188312
0.542136
0.383804
0.595825
0.440229
0.637943
0.307095
0.624066
-0.0927845
0.550017
-0.232318
0.0176285
0.656659
0.0119008
-0.656399
0.65688
0.0118373
0.657104
0.011592
0.657419
0.0114433
0.657872
0.011108
0.658617
0.0109737
0.659628
0.0104938
0.660933
0.0100818
0.66256
0.00916421
0.664042
0.0079042
0.665554
0.00587136
0.666188
0.00327984
0.665577
-0.00103511
0.663948
-0.00435836
0.658939
-0.0110768
0.65367
-0.0147383
0.645758
-0.0188103
0.634274
-0.0262176
0.6271
-0.0202053
0.615491
-0.0225528
0.599853
-0.0243159
0.59573
0.00353847
0.594165
0.0215461
0.617441
0.0405201
0.670822
0.097863
0.69819
0.0605373
0.682061
-0.0203535
0.675999
-0.0260595
0.673624
-0.0291492
0.621403
-0.150021
0.554719
-0.20209
0.539321
-0.00343379
0.597597
0.325528
0.666671
0.371156
0.70929
0.264476
0.689908
-0.0734029
0.615226
-0.157636
0.0528562
0.717269
0.0113537
-0.716722
0.71779
0.0113162
0.718295
0.0110871
0.718829
0.0109093
0.719412
0.0105254
0.720125
0.0102604
0.720945
0.00967344
0.721881
0.00914628
0.722909
0.00813626
0.723794
0.00701927
0.724478
0.00518651
0.724513
0.00324503
0.723406
7.25688e-05
0.7216
-0.00255323
0.717492
-0.00696808
0.71279
-0.0100362
0.706483
-0.012504
0.697526
-0.0172599
0.69099
-0.0136699
0.682631
-0.0141938
0.671022
-0.0127069
0.670572
0.0039889
0.672967
0.019151
0.686873
0.0266141
0.72295
0.0617857
0.744996
0.0384914
0.733238
-0.00859534
0.726354
-0.0191754
0.724266
-0.0270616
0.677018
-0.102773
0.604259
-0.129331
0.585286
0.0155394
0.654952
0.255862
0.736545
0.289563
0.780721
0.2203
0.754178
-0.04686
0.689056
-0.0925136
0.0749773
0.783905
0.0106274
-0.783179
0.784603
0.0106177
0.785274
0.0104161
0.785932
0.010252
0.786576
0.009881
0.787243
0.00959374
0.787907
0.00900877
0.788563
0.00849035
0.789157
0.00754235
0.789561
0.00661548
0.78968
0.00506782
0.789361
0.00356371
0.788256
0.00117743
0.786535
-0.000832321
0.783187
-0.00362001
0.779233
-0.00608175
0.774149
-0.00742064
0.76744
-0.0105501
0.761887
-0.00811723
0.756109
-0.00841559
0.74852
-0.00511862
0.749279
0.00323008
0.752609
0.0158211
0.761462
0.0177611
0.784441
0.038807
0.799799
0.0231339
0.792925
-0.00172196
0.786499
-0.0127496
0.780999
-0.0215613
0.742167
-0.0639413
0.682709
-0.0698721
0.666941
0.0313069
0.731086
0.191717
0.809361
0.211288
0.851313
0.178348
0.821765
-0.0173124
0.771421
-0.0421698
0.0823734
0.857563
0.00982856
-0.856764
0.858348
0.0098326
0.859101
0.00966243
0.859828
0.00952503
0.860521
0.00918816
0.861192
0.00892292
0.861814
0.00838731
0.862375
0.00792928
0.86281
0.00710656
0.863075
0.00635109
0.863006
0.00513662
0.862577
0.00399278
0.86138
0.00237471
0.859728
0.000819414
0.857006
-0.00089775
0.853863
-0.00293961
0.849898
-0.00345506
0.845191
-0.00584282
0.840737
-0.00366401
0.836876
-0.00455402
0.831932
-0.000174883
0.8326
0.0025619
0.835786
0.0126352
0.84199
0.0115576
0.856304
0.0244927
0.865793
0.0136451
0.861774
0.0022967
0.856135
-0.00711095
0.849087
-0.0145129
0.818975
-0.0338296
0.779406
-0.0303027
0.772693
0.0380201
0.823394
0.141016
0.885691
0.148991
0.920807
0.143232
0.895394
0.00810045
0.860382
-0.00715749
0.0802449
0.938837
0.00897011
-0.937979
0.939661
0.00900878
0.940442
0.00888206
0.941175
0.00879143
0.94185
0.00851364
0.942463
0.00830946
0.942985
0.0078651
0.94341
0.00750439
0.943671
0.00684528
0.943773
0.00624991
0.943566
0.0053428
0.943141
0.00441815
0.942194
0.00332149
0.941025
0.00198849
0.939052
0.00107566
0.936778
-0.000665391
0.933862
-0.000539377
0.930604
-0.00258526
0.927427
-0.000486614
0.924955
-0.00208225
0.922333
0.00244778
0.922943
0.00195146
0.925247
0.010331
0.92929
0.00751486
0.937343
0.0164395
0.942586
0.00840258
0.941028
0.00385408
0.936075
-0.00215755
0.92934
-0.00777841
0.908167
-0.0126561
0.885068
-0.00720427
0.885481
0.0376078
0.922037
0.10446
0.966482
0.104547
0.994456
0.115258
0.977368
0.0251881
0.955844
0.0143666
0.0735882
1.02994
0.00808582
-1.02906
1.03082
0.00812728
1.03168
0.00803028
1.03249
0.00797411
1.03325
0.00775507
1.03396
0.00760166
1.03457
0.00725449
1.03511
0.00696807
1.03547
0.00647994
1.03572
0.0059973
1.03568
0.00539205
1.03546
0.00462966
1.03476
0.00402931
1.03385
0.00289558
1.03231
0.00261927
1.03062
0.00102368
1.02842
0.00166039
1.02625
-0.000423323
1.02389
0.00187757
1.02218
-0.000367246
1.02062
0.00400009
1.02081
0.00176064
1.02267
0.00847599
1.02518
0.00500227
1.03027
0.011349
1.03259
0.00608397
1.03193
0.00451458
1.02745
0.00232727
1.02226
-0.00258882
1.00877
0.000828168
0.99596
0.00560696
0.999883
0.0336851
1.02562
0.0787256
1.05665
0.0735179
1.07974
0.0921636
1.07036
0.0345717
1.05883
0.0258955
0.0651051
1.13035
0.0071527
-1.12942
1.13125
0.00722836
1.13211
0.00717318
1.13293
0.00715321
1.13369
0.00699572
1.1344
0.00689
1.13501
0.00664552
1.13555
0.00642197
1.13593
0.00610199
1.13624
0.00569082
1.13628
0.00534788
1.13626
0.00464623
1.13587
0.00442505
1.13546
0.00330042
1.13457
0.00350953
1.13378
0.0018194
1.13248
0.00296177
1.13145
0.000598174
1.13009
0.00324632
1.12942
0.000296567
1.12869
0.00473734
1.12898
0.00146699
1.13017
0.00728424
1.13146
0.00371218
1.13438
0.00842922
1.1351
0.00535977
1.13539
0.00423368
1.13229
0.00542732
1.1291
0.000600839
1.122
0.00792822
1.1161
0.0115019
1.12147
0.0283187
1.13922
0.060969
1.16017
0.05257
1.17898
0.0733519
1.17563
0.0379295
1.17138
0.0301463
0.055171
1.24629
0.00617657
-1.24531
1.24728
0.00623632
1.24824
0.00620841
1.24919
0.00620398
1.25007
0.00611384
1.25093
0.00603036
1.25168
0.00589411
1.25242
0.00569074
1.25298
0.00554133
1.25352
0.00514693
1.25381
0.00506276
1.25408
0.00437359
1.254
0.00450784
1.25391
0.00339018
1.25342
0.00399851
1.25292
0.00231203
1.25215
0.00374
1.25135
0.0013945
1.25063
0.00396827
1.24988
0.00104861
1.24981
0.00480588
1.24958
0.00169552
1.25092
0.00593773
1.2512
0.0034403
1.2536
0.00602342
1.25331
0.00565028
1.25392
0.00362844
1.25178
0.00756539
1.24948
0.00290462
1.24695
0.0104542
1.24431
0.0141403
1.25079
0.0218403
1.26453
0.0472327
1.27905
0.0380498
1.29596
0.0564386
1.2962
0.0376853
1.29607
0.0302796
0.0452038
1.37553
0.0050965
-1.37445
1.3766
0.00517345
1.37762
0.00518688
1.37864
0.00518531
1.37959
0.00515596
1.38056
0.00506656
1.38142
0.00503515
1.38229
0.0048148
1.383
0.00483472
1.38375
0.00439768
1.38425
0.00456265
1.38484
0.00378464
1.38509
0.00425256
1.3855
0.00298149
1.38552
0.00398159
1.38575
0.00207808
1.38563
0.00386468
1.38573
0.00129505
1.3857
0.00399228
1.38574
0.00101233
1.38622
0.00432571
1.38624
0.00167842
1.38762
0.00455373
1.38759
0.00346742
1.38961
0.00401055
1.38934
0.0059203
1.3904
0.00256192
1.38993
0.00803688
1.38907
0.00376392
1.38993
0.00959581
1.38962
0.0144515
1.39603
0.0154269
1.40708
0.0361805
1.41692
0.0282126
1.43148
0.0418755
1.43458
0.0345933
1.43703
0.0278289
0.0348661
1.52756
0.00399014
-1.52646
1.52872
0.00401936
1.52984
0.00406654
1.53099
0.00403238
1.53206
0.00408461
1.53317
0.00395597
1.53416
0.00404783
1.5352
0.00377348
1.53608
0.00395913
1.53701
0.00346375
1.53775
0.00382748
1.53852
0.0030139
1.53909
0.00367447
1.53964
0.00244018
1.54008
0.00353401
1.54033
0.00182873
1.54077
0.0034318
1.54068
0.00137805
1.54134
0.00333225
1.54095
0.00140265
1.54216
0.00312152
1.54162
0.00221801
1.54346
0.00270729
1.54313
0.00380271
1.54491
0.00222793
1.54533
0.00549889
1.54552
0.00237817
1.54716
0.00639685
1.54582
0.00509486
1.54867
0.00674575
1.55017
0.012953
1.55516
0.0104359
1.56651
0.0248389
1.57395
0.0207689
1.58743
0.0283927
1.59391
0.0281194
1.59751
0.0242256
0.02613
1.71775
0.00275338
-1.71652
1.71902
0.00274992
1.72024
0.00285151
1.72151
0.00276428
1.72269
0.00290256
1.72394
0.00270441
1.72506
0.00292595
1.72627
0.00256913
1.7273
0.00292671
1.72842
0.00234271
1.72935
0.00289981
1.73035
0.00201471
1.73118
0.00283649
1.73202
0.00160876
1.73283
0.0027155
1.73343
0.00122915
1.73439
0.00247895
1.73466
0.00109948
1.73598
0.00202097
1.73588
0.00150002
1.73769
0.00130933
1.73742
0.00248497
1.73945
0.000682602
1.73973
0.00351665
1.74101
0.000950736
1.74278
0.00372922
1.7425
0.00266256
1.74567
0.00322699
1.74525
0.00551555
1.74824
0.00375091
1.75185
0.00934095
1.75486
0.00743
1.76533
0.0143681
1.77186
0.0142369
1.78279
0.0174628
1.79204
0.0188755
1.7972
0.0190569
0.018128
1.92548
0.00130784
-1.92404
1.92697
0.00126016
1.92847
0.00135308
1.92998
0.00125344
1.9315
0.00138437
1.93299
0.0012189
1.93452
0.00139698
1.93593
0.00115911
1.93747
0.00138005
1.93873
0.00107973
1.94032
0.0013184
1.94134
0.000989143
1.94298
0.00119971
1.94369
0.00089532
1.94538
0.00102531
1.9458
0.000807516
1.94747
0.000816432
1.94782
0.000746701
1.94924
0.000603981
1.94998
0.000752687
1.95086
0.000429949
1.9525
0.000851009
1.95278
0.000401384
1.95532
0.000976235
1.95557
0.000697364
1.95826
0.00103623
1.95955
0.00137851
1.96154
0.00123155
1.96472
0.00234193
1.96647
0.00200068
1.97195
0.00385745
1.97575
0.00363635
1.98398
0.00613491
1.99203
0.00618743
2.00156
0.00792817
2.01213
0.00831088
2.02164
0.00954418
0.00943226
2.30097
-2.29966
2.30223
2.30358
2.30484
2.30622
2.30744
2.30884
2.31
2.31138
2.31245
2.31377
2.31476
2.31596
2.31686
2.31788
2.31869
2.31951
2.32025
2.32086
2.32161
2.32204
2.32289
2.32329
2.32427
2.32497
2.326
2.32738
2.32861
2.33095
2.33295
2.33681
2.34045
2.34658
2.35277
2.3607
2.36901
2.37855
0.275123
0.048116
-0.270791
0.278957
0.0756737
0.282931
0.102769
0.28657
0.128621
0.288443
0.154543
0.292993
0.174255
0.291371
0.201322
0.208193
0.295979
0.0445038
-0.292367
0.29974
0.0719128
0.302632
0.0998768
0.306703
0.124551
0.307358
0.153888
0.310614
0.170999
0.311394
0.200541
0.209209
0.319304
0.0418509
-0.316651
0.322943
0.0682738
0.32472
0.0981004
0.328298
0.120973
0.330096
0.152089
0.332478
0.168618
0.335584
0.197436
0.209255
0.344868
0.0396894
-0.342706
0.347919
0.0652227
0.350045
0.0959743
0.353125
0.117893
0.356619
0.148594
0.358704
0.166533
0.362192
0.193948
0.208271
0.373515
0.0375189
-0.371344
0.375885
0.0628526
0.378913
0.092946
0.381549
0.115258
0.385559
0.144584
0.387637
0.164455
0.391231
0.190354
0.206044
0.405213
0.0351988
-0.402893
0.407247
0.0608183
0.410677
0.0895164
0.413091
0.112843
0.416948
0.140728
0.419626
0.161777
0.423872
0.186108
0.202812
0.440129
0.0329623
-0.437893
0.442087
0.058861
0.445366
0.0862368
0.447863
0.110346
0.451902
0.136688
0.455523
0.158156
0.46063
0.181001
0.198814
0.478511
0.0309608
-0.47651
0.480515
0.0568571
0.483724
0.083028
0.486815
0.107255
0.491507
0.131997
0.496043
0.153619
0.501396
0.175648
0.194014
0.520883
0.0291292
-0.519051
0.523154
0.0545856
0.526598
0.0795846
0.53034
0.103513
0.535201
0.127136
0.539981
0.148839
0.54566
0.169969
0.188169
0.567765
0.0273517
-0.565987
0.57028
0.0520702
0.573796
0.0760688
0.577807
0.0995017
0.582782
0.122161
0.588248
0.143373
0.594741
0.163477
0.181418
0.619516
0.0256296
-0.617794
0.622161
0.0494253
0.62578
0.0724502
0.630208
0.0950738
0.635677
0.116692
0.641871
0.137178
0.648919
0.156429
0.173939
0.676769
0.0239081
-0.675047
0.679572
0.0466224
0.683423
0.0685991
0.688264
0.0902324
0.694128
0.110828
0.700822
0.130484
0.708432
0.148819
0.16565
0.74013
0.0221848
-0.738407
0.743083
0.04367