/*--------------------------------*- C++ -*----------------------------------*\
| =========                 |                                                 |
| \\      /  F ield         | OpenFOAM: The Open Source CFD Toolbox           |
|  \\    /   O peration     | Version:  2512                                  |
|   \\  /    A nd           | Website:  www.openfoam.com                      |
|    \\/     M anipulation  |                                                 |
\*---------------------------------------------------------------------------*/
FoamFile
{
    version     2.0;
    format      ascii;
    arch        "LSB;label=32;scalar=64";
    class       volScalarField;
    location    "156.75";
    object      p;
}
// * * * * * * * * * * * * * * * * * * * * * * * * * * * * * * * * * * * * * //

dimensions      [0 2 -2 0 0 0 0];

internalField   nonuniform List<scalar> 
13248
(
-0.317283
-0.318024
-0.316687
-0.313829
-0.309642
-0.304295
-0.298206
-0.291802
-0.285883
-0.280951
-0.277277
-0.274838
-0.27331
-0.272148
-0.270738
-0.268545
-0.265234
-0.26069
-0.254883
-0.24796
-0.239477
-0.229987
-0.217615
-0.203346
-0.323362
-0.323325
-0.321696
-0.318954
-0.315258
-0.310684
-0.30542
-0.299748
-0.294007
-0.288448
-0.283193
-0.278211
-0.27333
-0.268316
-0.262953
-0.257107
-0.250699
-0.243674
-0.235958
-0.227421
-0.217991
-0.207574
-0.195821
-0.183945
-0.331642
-0.330532
-0.328285
-0.325299
-0.321714
-0.317524
-0.312669
-0.307091
-0.300797
-0.293878
-0.286478
-0.278747
-0.270801
-0.262727
-0.25457
-0.246323
-0.237922
-0.229289
-0.220294
-0.210936
-0.200998
-0.19063
-0.17957
-0.168235
-0.341736
-0.339366
-0.336269
-0.332746
-0.328963
-0.324738
-0.319674
-0.313379
-0.305701
-0.296792
-0.28701
-0.276768
-0.266413
-0.256167
-0.246114
-0.236239
-0.22648
-0.216743
-0.206964
-0.197047
-0.186935
-0.176734
-0.166171
-0.156082
-0.353785
-0.350076
-0.346019
-0.341843
-0.337563
-0.332723
-0.32658
-0.318602
-0.30877
-0.297513
-0.285452
-0.273153
-0.261007
-0.249212
-0.237822
-0.22681
-0.216102
-0.205625
-0.195294
-0.185069
-0.174911
-0.16483
-0.154741
-0.14506
-0.368252
-0.363142
-0.358128
-0.35317
-0.347952
-0.341646
-0.333358
-0.322778
-0.310279
-0.296607
-0.28251
-0.268539
-0.255007
-0.242042
-0.229651
-0.217782
-0.206369
-0.195335
-0.184626
-0.174188
-0.163985
-0.154026
-0.144231
-0.134944
-0.385526
-0.378957
-0.372959
-0.366962
-0.360089
-0.351234
-0.339767
-0.325934
-0.310564
-0.294575
-0.278676
-0.263292
-0.248616
-0.234692
-0.221489
-0.208945
-0.196988
-0.185553
-0.174574
-0.164004
-0.153808
-0.143941
-0.134391
-0.125317
-0.405703
-0.397637
-0.390527
-0.382981
-0.373446
-0.360913
-0.345476
-0.328076
-0.309851
-0.2917
-0.274173
-0.257526
-0.241833
-0.227073
-0.213182
-0.200083
-0.187701
-0.175959
-0.164794
-0.154148
-0.143966
-0.134212
-0.124877
-0.115973
-0.428509
-0.418926
-0.410417
-0.400504
-0.387126
-0.369959
-0.350122
-0.329129
-0.308189
-0.288032
-0.268995
-0.251176
-0.234549
-0.21904
-0.204554
-0.191
-0.178285
-0.166329
-0.155054
-0.144392
-0.134281
-0.124672
-0.11554
-0.106789
-0.453148
-0.442092
-0.431705
-0.418321
-0.399959
-0.377546
-0.353221
-0.328788
-0.305319
-0.283292
-0.262839
-0.243923
-0.226438
-0.21026
-0.195267
-0.181343
-0.168384
-0.156291
-0.144978
-0.134362
-0.124372
-0.114956
-0.10605
-0.0975045
-0.478418
-0.465913
-0.452927
-0.434829
-0.410565
-0.38265
-0.353973
-0.326334
-0.30053
-0.276778
-0.255022
-0.235112
-0.216872
-0.200132
-0.184738
-0.170551
-0.157447
-0.145315
-0.134053
-0.12357
-0.113789
-0.104645
-0.0960288
-0.0878101
-0.502709
-0.488767
-0.472223
-0.448235
-0.417474
-0.384076
-0.351319
-0.320764
-0.292868
-0.267589
-0.244707
-0.223969
-0.205134
-0.187988
-0.172343
-0.158034
-0.144918
-0.132866
-0.121765
-0.111516
-0.102044
-0.0932742
-0.0850807
-0.0773863
-0.39961
-0.401073
-0.401328
-0.401483
-0.402222
-0.403809
-0.406372
-0.410021
-0.414885
-0.421111
-0.428864
-0.438304
-0.449571
-0.462761
-0.477901
-0.494915
-0.513584
-0.533516
-0.554134
-0.574705
-0.594237
-0.611617
-0.625886
-0.63539
-0.387605
-0.387791
-0.387111
-0.386284
-0.38591
-0.386314
-0.387699
-0.390272
-0.394292
-0.400066
-0.407922
-0.418185
-0.431116
-0.446865
-0.465432
-0.486616
-0.509993
-0.534845
-0.560234
-0.585046
-0.60809
-0.627793
-0.643585
-0.653616
-0.377162
-0.376152
-0.374697
-0.373065
-0.371772
-0.371183
-0.371544
-0.37313
-0.376285
-0.381411
-0.388922
-0.399228
-0.412672
-0.429397
-0.449353
-0.472236
-0.497451
-0.524117
-0.55114
-0.577065
-0.6009
-0.62065
-0.636325
-0.645465
-0.367505
-0.365586
-0.363508
-0.361238
-0.359108
-0.357516
-0.356782
-0.357223
-0.359216
-0.363211
-0.369678
-0.37906
-0.391707
-0.407783
-0.42721
-0.449623
-0.474365
-0.500441
-0.526826
-0.55184
-0.57502
-0.593785
-0.608555
-0.616401
-0.358207
-0.355787
-0.353305
-0.350482
-0.347498
-0.344771
-0.3427
-0.341666
-0.34208
-0.344408
-0.349139
-0.356732
-0.367545
-0.381752
-0.399279
-0.419763
-0.442585
-0.466728
-0.491295
-0.514725
-0.536556
-0.554599
-0.568556
-0.57473
-0.349134
-0.346678
-0.344039
-0.340768
-0.336907
-0.332864
-0.329143
-0.32624
-0.32465
-0.324874
-0.32742
-0.332753
-0.341239
-0.353069
-0.368205
-0.386326
-0.406862
-0.428979
-0.451897
-0.474141
-0.494993
-0.511602
-0.523973
-0.527112
-0.340368
-0.338304
-0.335755
-0.332182
-0.327499
-0.322071
-0.316499
-0.311448
-0.307562
-0.305448
-0.305668
-0.308714
-0.314966
-0.324637
-0.337731
-0.354009
-0.372854
-0.393641
-0.415392
-0.436268
-0.455074
-0.469031
-0.477285
-0.474737
-0.332014
-0.330731
-0.328473
-0.324761
-0.319433
-0.312783
-0.30548
-0.298354
-0.292243
-0.28792
-0.28606
-0.287225
-0.291833
-0.300109
-0.312038
-0.327306
-0.345455
-0.365047
-0.384831
-0.402767
-0.417287
-0.425792
-0.42708
-0.41746
-0.32459
-0.324145
-0.322229
-0.318496
-0.312778
-0.305303
-0.29677
-0.28813
-0.280399
-0.274531
-0.271356
-0.271526
-0.275473
-0.283326
-0.294862
-0.309349
-0.325771
-0.342517
-0.358178
-0.370578
-0.378663
-0.380262
-0.375048
-0.360785
-0.318328
-0.318861
-0.317254
-0.31358
-0.307774
-0.300014
-0.291034
-0.281856
-0.273592
-0.26731
-0.263922
-0.264038
-0.267877
-0.275259
-0.285563
-0.297759
-0.310491
-0.322228
-0.33161
-0.337118
-0.338605
-0.334848
-0.326952
-0.312722
-0.314653
-0.315677
-0.314251
-0.310721
-0.305168
-0.297814
-0.28923
-0.28058
-0.272875
-0.267145
-0.264108
-0.264183
-0.26736
-0.273155
-0.280668
-0.288752
-0.29605
-0.301479
-0.304026
-0.303418
-0.299947
-0.29367
-0.286343
-0.274719
-0.314215
-0.315326
-0.314001
-0.310772
-0.305817
-0.299333
-0.291834
-0.284397
-0.277717
-0.272607
-0.269642
-0.268987
-0.270383
-0.273185
-0.276485
-0.279307
-0.280749
-0.280312
-0.277609
-0.273049
-0.266479
-0.258609
-0.249913
-0.239597
-0.641454
-0.638218
-0.618918
-0.577691
-0.511873
-0.430114
-0.349266
-0.282907
-0.236748
-0.210326
-0.201511
-0.206867
-0.225306
-0.259985
-0.309554
-0.358323
-0.38206
-0.364216
-0.311885
-0.249185
-0.195239
-0.156999
-0.135015
-0.127431
-0.132178
-0.152297
-0.192827
-0.247354
-0.291446
-0.296217
-0.259602
-0.203433
-0.1527
-0.118632
-0.100966
-0.0997095
-0.116813
-0.143307
-0.157631
-0.146047
-0.119895
-0.0961668
-0.0819685
-0.0798985
-0.0872356
-0.0959062
-0.0953869
-0.0867483
-0.0721509
-0.0602466
-0.0533077
-0.0512921
-0.0467419
-0.0411616
-0.0352392
-0.0371347
-0.0358505
-0.0325875
-0.0163849
-0.00642173
-0.659042
-0.65406
-0.634658
-0.594005
-0.52754
-0.444084
-0.360663
-0.290987
-0.240877
-0.20897
-0.193331
-0.192172
-0.203804
-0.23016
-0.271218
-0.314977
-0.338212
-0.32455
-0.280834
-0.227452
-0.180994
-0.147818
-0.129965
-0.126225
-0.134956
-0.159952
-0.206488
-0.266746
-0.315259
-0.321204
-0.281526
-0.219312
-0.161675
-0.121106
-0.0973558
-0.0897084
-0.0996888
-0.119771
-0.130559
-0.120955
-0.101146
-0.0846559
-0.0774752
-0.0825064
-0.0968581
-0.110659
-0.110707
-0.0994819
-0.0799714
-0.0623474
-0.0493514
-0.0421671
-0.0359182
-0.0314146
-0.0319627
-0.0405842
-0.0450836
-0.0447053
-0.0224403
-0.00598149
-0.64914
-0.642672
-0.624575
-0.584893
-0.519943
-0.438329
-0.356511
-0.287679
-0.236757
-0.202309
-0.181731
-0.173642
-0.177477
-0.194352
-0.225129
-0.261542
-0.284455
-0.276598
-0.243304
-0.20038
-0.161664
-0.133914
-0.120487
-0.120503
-0.13286
-0.162029
-0.213109
-0.277541
-0.329845
-0.338855
-0.297918
-0.231188
-0.167784
-0.121704
-0.0926718
-0.0792279
-0.0827795
-0.0971214
-0.104972
-0.0970295
-0.0826732
-0.0725525
-0.0721667
-0.0845925
-0.106397
-0.125634
-0.126096
-0.111817
-0.0872605
-0.064138
-0.0455046
-0.0332255
-0.0252452
-0.0217103
-0.0287115
-0.0436893
-0.0538586
-0.0564519
-0.0286806
-0.00555011
-0.617201
-0.609837
-0.593552
-0.555072
-0.492127
-0.4156
-0.340263
-0.276086
-0.226623
-0.191348
-0.168013
-0.154906
-0.151265
-0.158435
-0.178158
-0.20562
-0.226529
-0.224708
-0.201931
-0.169263
-0.138245
-0.115928
-0.106615
-0.109884
-0.124996
-0.15661
-0.210164
-0.277895
-0.333838
-0.347644
-0.307499
-0.238296
-0.170661
-0.120401
-0.087144
-0.0689011
-0.0668638
-0.0762286
-0.081594
-0.0748198
-0.064764
-0.0599269
-0.0658976
-0.0857494
-0.115396
-0.140458
-0.141328
-0.123545
-0.0938644
-0.0655384
-0.0418463
-0.0246456
-0.014944
-0.0121597
-0.0254183
-0.0463553
-0.0619586
-0.0676439
-0.0350547
-0.00514453
-0.571679
-0.562449
-0.547551
-0.510961
-0.452401
-0.38389
-0.317405
-0.259848
-0.213463
-0.178258
-0.153178
-0.136712
-0.127912
-0.126815
-0.135794
-0.153602
-0.170484
-0.174832
-0.159029
-0.135771
-0.112049
-0.0947442
-0.0889487
-0.094918
-0.111836
-0.144161
-0.197846
-0.26685
-0.326192
-0.348675
-0.309273
-0.240367
-0.170494
-0.117425
-0.0810767
-0.0590671
-0.0523724
-0.0574894
-0.0608771
-0.0546889
-0.0476971
-0.0468667
-0.0583977
-0.0855155
-0.123378
-0.154637
-0.156086
-0.1345
-0.099703
-0.0665164
-0.0384413
-0.0165881
-0.00520422
-0.00285576
-0.0220162
-0.0484982
-0.069185
-0.0781075
-0.0414977
-0.00479269
-0.517793
-0.504396
-0.49033
-0.456891
-0.405447
-0.347713
-0.291802
-0.241749
-0.199428
-0.165239
-0.139019
-0.120056
-0.107318
-0.100482
-0.100815
-0.109039
-0.119845
-0.125137
-0.116673
-0.101944
-0.0846549
-0.0717612
-0.0689033
-0.0769982
-0.0949565
-0.12648
-0.177598
-0.244827
-0.306102
-0.331787
-0.301432
-0.236952
-0.167453
-0.113039
-0.0747544
-0.0499493
-0.0395048
-0.04114
-0.0430599
-0.0382732
-0.0317536
-0.0335712
-0.0497577
-0.0836761
-0.12964
-0.167513
-0.169932
-0.144472
-0.104681
-0.067041
-0.035349
-0.00920277
0.00381956
0.00608532
-0.0184646
-0.0500362
-0.0753723
-0.0876808
-0.0479267
-0.00451742
-0.456943
-0.439213
-0.427285
-0.399564
-0.357954
-0.312189
-0.266929
-0.224361
-0.186336
-0.153819
-0.127119
-0.106194
-0.0904226
-0.0791828
-0.0729698
-0.0730955
-0.0777316
-0.0818589
-0.0778082
-0.0696676
-0.0576824
-0.0485639
-0.0479581
-0.0575181
-0.0759455
-0.105548
-0.151881
-0.214248
-0.274603
-0.305028
-0.284998
-0.228372
-0.161862
-0.107644
-0.0685371
-0.0418098
-0.0284064
-0.027183
-0.0279892
-0.0226817
-0.0171659
-0.0205356
-0.0400251
-0.0798035
-0.133743
-0.178416
-0.182435
-0.153316
-0.108743
-0.0670901
-0.0325871
-0.00261836
0.0119911
0.0145602
-0.0147495
-0.0509291
-0.0804157
-0.0962217
-0.0542433
-0.00432985
-0.392169
-0.373393
-0.365625
-0.345262
-0.314259
-0.279749
-0.24395
-0.208308
-0.174722
-0.1445
-0.118168
-0.0960418
-0.0780629
-0.0636643
-0.0527631
-0.0464841
-0.0451805
-0.0467829
-0.0485085
-0.0405789
-0.0325833
-0.0265314
-0.0275823
-0.037934
-0.0561468
-0.0831102
-0.123758
-0.179076
-0.236388
-0.271257
-0.261899
-0.215401
-0.154096
-0.10148
-0.0626135
-0.0348076
-0.0191416
-0.015496
-0.0155345
-0.00979313
-0.00439212
-0.00814403
-0.0295697
-0.0739917
-0.134877
-0.18643
-0.192784
-0.160728
-0.111819
-0.0666381
-0.0301151
0.00308111
0.0192131
0.0224354
-0.0108771
-0.0511475
-0.0842515
-0.10362
-0.0603271
-0.00424253
-0.332844
-0.317125
-0.313638
-0.299761
-0.277652
-0.252114
-0.223944
-0.194301
-0.164916
-0.137205
-0.111888
-0.0893395
-0.0699152
-0.0534537
-0.0395563
-0.0287501
-0.0220763
-0.0193017
-0.0185239
-0.0142605
-0.00987289
-0.00651989
-0.00871503
-0.0192364
-0.0370432
-0.0613367
-0.0953322
-0.142475
-0.195081
-0.232518
-0.234399
-0.199063
-0.144487
-0.0946333
-0.0569192
-0.028881
-0.0116222
-0.00589666
-0.00541834
0.000398424
0.00625921
0.00317135
-0.0185375
-0.0656309
-0.133128
-0.191275
-0.200614
-0.166661
-0.113867
-0.0656676
-0.0279028
0.0078518
0.0254088
0.0296566
-0.00685012
-0.0507593
-0.0868909
-0.113724
-0.0660754
-0.00427476
-0.288156
-0.276688
-0.274825
-0.264389
-0.248039
-0.228753
-0.206466
-0.181976
-0.156589
-0.131481
-0.107553
-0.0852831
-0.0651173
-0.0473354
-0.0316918
-0.0181977
-0.00761977
-0.000505695
0.00352566
0.00594262
0.00947508
0.0106863
0.00749478
-0.00260537
-0.0193724
-0.0409837
-0.0694212
-0.108208
-0.153161
-0.191925
-0.199852
-0.17835
-0.132896
-0.0872996
-0.0516102
-0.024167
-0.00586909
0.00169849
0.00262577
0.00812286
0.0146637
0.0129181
-0.00775871
-0.0556968
-0.127482
-0.191701
-0.20478
-0.170444
-0.114849
-0.0642684
-0.0260787
0.0115519
0.0305578
0.0360607
-0.00272754
-0.0497316
-0.0881719
-0.118199
-0.0712626
-0.0044572
-0.256527
-0.249207
-0.246994
-0.237869
-0.225121
-0.210238
-0.192589
-0.172442
-0.150636
-0.128096
-0.105742
-0.0842286
-0.0639938
-0.0454204
-0.0285852
-0.0134252
-0.000307451
0.0102842
0.017809
0.0225161
0.0260169
0.024797
0.0211394
0.0118226
-0.00364689
-0.0228066
-0.0455856
-0.0762598
-0.115905
-0.154704
-0.179139
-0.16075
-0.12257
-0.0811943
-0.047549
-0.0210965
-0.00204824
0.00738219
0.00886756
0.0134954
0.0213295
0.0214265
0.0031466
-0.0437797
-0.118558
-0.189363
-0.205934
-0.172852
-0.115271
-0.0627841
-0.0246152
0.014015
0.0344964
0.0417395
0.00154072
-0.0482705
-0.0882929
-0.121362
-0.0757087
-0.00479845
-0.231099
-0.229123
-0.225437
-0.216291
-0.205629
-0.193897
-0.180198
-0.164177
-0.146031
-0.126365
-0.106007
-0.0856779
-0.0659373
-0.0472602
-0.0298436
-0.0137399
0.000646157
0.0129962
0.0235049
0.0313397
0.0344741
0.034597
0.0306746
0.0230725
0.00955189
-0.00798964
-0.027049
-0.0509654
-0.0823184
-0.115401
-0.136907
-0.131769
-0.106082
-0.0721756
-0.0417216
-0.0171501
0.00153726
0.0122899
0.014452
0.0177582
0.0251404
0.0269863
0.0120395
-0.0314343
-0.105758
-0.181103
-0.201701
-0.17164
-0.114015
-0.0603551
-0.0222063
0.0163256
0.0373291
0.0462053
0.00584108
-0.046196
-0.0871207
-0.123173
-0.0790257
-0.00518868
-0.206925
-0.215862
-0.21073
-0.199291
-0.186781
-0.174324
-0.161194
-0.146465
-0.129828
-0.111677
-0.0928118
-0.0739395
-0.0555474
-0.0380082
-0.0214501
-0.00584865
0.00842437
0.0210048
0.0320853
0.0410095
0.0461381
0.0444621
0.0393215
0.0320115
0.0215987
0.00824841
-0.0073258
-0.0274915
-0.055926
-0.0900066
-0.115414
-0.112947
-0.0888744
-0.0584458
-0.0312238
-0.00958671
0.00717556
0.0174152
0.019566
0.0219559
0.0295778
0.0343209
0.0226527
-0.0174752
-0.0908367
-0.1714
-0.197297
-0.168188
-0.108945
-0.0549981
-0.018093
0.0194302
0.0402486
0.0505124
0.0103457
-0.0438446
-0.0852099
-0.123877
-0.0812037
-0.00556682
-0.180537
-0.192274
-0.188956
-0.177329
-0.164311
-0.152135
-0.140287
-0.127455
-0.112933
-0.0968791
-0.0799836
-0.062923
-0.0461707
-0.0300383
-0.0145992
5.7255e-05
0.0134569
0.0253271
0.0359581
0.0446987
0.0490338
0.0484798
0.0437351
0.0372859
0.029039
0.0183787
0.00576093
-0.0104756
-0.035932
-0.0685453
-0.0922598
-0.0904543
-0.0700422
-0.0443629
-0.021171
-0.00271646
0.0116993
0.0211938
0.0233672
0.0251277
0.0325415
0.0378453
0.02884
-0.00765195
-0.0783492
-0.160771
-0.189455
-0.160544
-0.102134
-0.0489454
-0.0139848
0.0218945
0.0422837
0.0529859
0.0136012
-0.0419671
-0.0829247
-0.123211
-0.082521
-0.00606213
-0.157349
-0.169462
-0.167953
-0.157851
-0.145791
-0.134455
-0.12372
-0.112374
-0.0995621
-0.0852292
-0.0699248
-0.0542878
-0.0387851
-0.0237191
-0.00922793
0.00464193
0.0175196
0.0289118
0.0389222
0.0472802
0.0520423
0.0516258
0.0471411
0.0414384
0.0347966
0.0254317
0.0143771
0.00156753
-0.0186682
-0.0467599
-0.0687925
-0.0688604
-0.0528113
-0.0318921
-0.0124181
0.00338541
0.015769
0.0245038
0.0264464
0.0276195
0.0348342
0.0404592
0.032346
-0.00179897
-0.0687592
-0.147842
-0.176844
-0.149917
-0.0941941
-0.0426786
-0.00997045
0.0237689
0.0436225
0.0542951
0.0156974
-0.0406026
-0.0799996
-0.121029
-0.0829698
-0.00670142
-0.137618
-0.148431
-0.14807
-0.139634
-0.128695
-0.118091
-0.108089
-0.0977796
-0.0863393
-0.0735746
-0.0598526
-0.04571
-0.0316051
-0.0178108
-0.00445056
0.00837697
0.0203762
0.0310949
0.0404959
0.0483473
0.0531983
0.0533876
0.0497466
0.0452077
0.0405686
0.0336426
0.0252511
0.0154869
-0.00121416
-0.0273171
-0.047467
-0.0481727
-0.0359115
-0.0196367
-0.00393125
0.00923657
0.0193796
0.0271347
0.0286893
0.0294665
0.036214
0.042182
0.0347754
0.00268699
-0.0582475
-0.131019
-0.160006
-0.135997
-0.0847189
-0.0359659
-0.0058146
0.0251464
0.0441306
0.0545683
0.0171489
-0.0390488
-0.0761864
-0.117263
-0.082303
-0.0074241
-0.119251
-0.129046
-0.129371
-0.122347
-0.112617
-0.102904
-0.0937436
-0.0845286
-0.0744954
-0.0633167
-0.0511755
-0.0384953
-0.025694
-0.0130644
-0.000758154
0.0110994
0.0222545
0.0322959
0.0410907
0.0484439
0.0533008
0.0541759
0.0517803
0.0487598
0.0465812
0.0437651
0.0392126
0.0305124
0.0134905
-0.0107119
-0.0274252
-0.0287449
-0.020431
-0.00864079
0.00352689
0.0144404
0.0226359
0.0293129
0.0302954
0.0307339
0.0367805
0.0427306
0.0362497
0.00744551
-0.045296
-0.110768
-0.139049
-0.118928
-0.0739299
-0.0291594
-0.0018447
0.0259736
0.0437919
0.0537414
0.0183662
-0.0369522
-0.0714852
-0.11174
-0.0803471
-0.00817448
-0.10227
-0.111325
-0.112039
-0.106201
-0.0977226
-0.089053
-0.0808211
-0.0726226
-0.0637864
-0.0539452
-0.0431727
-0.0318098
-0.0202469
-0.0087864
0.0024205
0.0132496
0.0234816
0.0327708
0.0409587
0.0478312
0.0526393
0.0542562
0.0532715
0.0518601
0.051681
0.0519813
0.0501075
0.0417362
0.0249354
0.00440709
-0.00902046
-0.0114779
-0.00670275
0.00131055
0.010321
0.0191163
0.0255647
0.0310345
0.0314158
0.0315366
0.0367153
0.0421183
0.0369996
0.0125658
-0.031382
-0.0884164
-0.115048
-0.0993182
-0.0619887
-0.022367
0.00180937
0.026292
0.0426452
0.051764
0.0193798
-0.0343189
-0.0659486
-0.10441
-0.0769268
-0.00885508
-0.0872092
-0.0952422
-0.0961594
-0.0913435
-0.0840351
-0.0763933
-0.0690634
-0.0617837
-0.0540006
-0.0453639
-0.0358819
-0.0258175
-0.0154982
-0.00519537
0.00493224
0.0147519
0.024079
0.0326245
0.0402297
0.0466871
0.0514209
0.0536864
0.0539396
0.0538333
0.0547656
0.0561873
0.0554207
0.0484805
0.0342892
0.0179218
0.00686676
0.00309674
0.00492424
0.0098674
0.0161789
0.0230741
0.0281695
0.0324262
0.0323433
0.0320989
0.0363265
0.040632
0.0368429
0.0168542
-0.0180943
-0.065358
-0.0893093
-0.0781207
-0.0492226
-0.0157857
0.00489352
0.0262131
0.0407728
0.0486332
0.0199647
-0.0311394
-0.0596393
-0.0952967
-0.0718976
-0.00935448
-0.0735299
-0.0805779
-0.0816686
-0.0777292
-0.0714628
-0.0647846
-0.0583258
-0.0519207
-0.0451153
-0.0375881
-0.0293025
-0.0204472
-0.0112932
-0.00209142
0.00699335
0.0158308
0.0242694
0.0320777
0.0391085
0.0451824
0.0497532
0.0524966
0.0537065
0.0545418
0.0560002
0.0575382
0.0572483
0.0522051
0.0412995
0.0284907
0.0191151
0.0145314
0.014304
0.0170466
0.0212334
0.0264068
0.0304212
0.0335337
0.0332668
0.0326747
0.0359036
0.0387259
0.0357478
0.0199412
-0.0060579
-0.0429301
-0.0635338
-0.0567547
-0.0361134
-0.0095152
0.00732117
0.0259708
0.0382897
0.0444098
0.0200057
-0.0272428
-0.0526139
-0.0845333
-0.0651821
-0.00954152
-0.06089
-0.0672838
-0.0685172
-0.0653084
-0.059969
-0.0541868
-0.0485553
-0.0429724
-0.0370639
-0.03054
-0.0233381
-0.0155958
-0.0075408
0.000605712
0.0086878
0.0165832
0.0241602
0.0312386
0.0376938
0.0434856
0.0477576
0.0508114
0.0527114
0.0541766
0.0558527
0.0572647
0.0571427
0.0534972
0.0454297
0.0355884
0.027863
0.0231004
0.0216386
0.0228695
0.0254571
0.02912
0.0322521
0.0344352
0.0341807
0.0334009
0.0357229
0.0369849
0.0342235
0.0223312
0.00447829
-0.0224835
-0.0394272
-0.0365958
-0.0232813
-0.00365901
0.0091811
0.0258829
0.0354458
0.0394316
0.0196806
-0.0223654
-0.0449432
-0.0724244
-0.0568287
-0.00929409
-0.0496266
-0.0553487
-0.0566143
-0.0540225
-0.0495113
-0.0445431
-0.039671
-0.0348428
-0.0297501
-0.0241331
-0.0179175
-0.0112019
-0.00417284
0.00298222
0.010116
0.0171164
0.0238683
0.030218
0.0360057
0.0409648
0.0454555
0.0487472
0.0510891
0.0529159
0.0546272
0.0558555
0.0557337
0.0530419
0.0472223
0.0398351
0.033733
0.0292091
0.0271571
0.0274234
0.0289016
0.0313166
0.0336644
0.0352154
0.0350115
0.0342011
0.0358525
0.0360932
0.0330852
0.0244126
0.0130714
-0.00520711
-0.0185128
-0.0194052
-0.0115062
0.00168501
0.010839
0.0262603
0.0327929
0.0344649
0.019535
-0.0162148
-0.0367056
-0.0594984
-0.0470871
-0.00852041
-0.039628
-0.044581
-0.0458421
-0.0437968
-0.0400195
-0.0357793
-0.0315958
-0.0274552
-0.0231028
-0.0183061
-0.0129849
-0.00720478
-0.00111807
0.00511653
0.0113634
0.017525
0.0235009
0.0291689
0.0343966
0.0390363
0.0431685
0.0464609
0.0490004
0.0509868
0.0526446
0.0537108
0.0536048
0.0516193
0.047464
0.0419693
0.0371708
0.0333123
0.0311631
0.030859
0.0315985
0.0330562
0.034715
0.0358832
0.0356891
0.0349888
0.0361862
0.036133
0.0329556
0.0264412
0.0196133
0.00807661
-0.00210662
-0.00583648
-0.00149875
0.00645529
0.0127031
0.0270503
0.0311259
0.030376
0.0204578
-0.00860056
-0.0279982
-0.046536
-0.0365296
-0.00721249
-0.0304874
-0.0348714
-0.0361563
-0.0345711
-0.0314271
-0.0278337
-0.0242715
-0.0207508
-0.017063
-0.0130011
-0.00848203
-0.003545
0.00168395
0.00707177
0.0124988
0.017883
0.0231363
0.0281645
0.0328628
0.0371169
0.0409096
0.0440748
0.0466343
0.0486499
0.050226
0.051182
0.0511484
0.0497101
0.0467543
0.0426244
0.038081
0.0358205
0.0339325
0.0333319
0.0336049
0.0343957
0.0354846
0.0364015
0.036183
0.0356515
0.036548
0.03668
0.0341241
0.0292086
0.024872
0.0173175
0.00931071
0.004161
0.00642964
0.0107094
0.0150505
0.0279247
0.0310117
0.033217
0.023343
0.000220897
-0.0190115
-0.0344775
-0.0261187
-0.00549453
-0.0223123
-0.0262272
-0.0274851
-0.0262638
-0.0236662
-0.0206467
-0.0176389
-0.0146705
-0.0115727
-0.00816189
-0.00435525
-0.000173314
0.00428088
0.00889889
0.0135765
0.0182437
0.0228263
0.0272521
0.0314361
0.0352814
0.0387356
0.041699
0.0441654
0.0461271
0.0476195
0.0485128
0.048592
0.0476059
0.0455619
0.0426704
0.0397087
0.0374562
0.0357614
0.0350217
0.0350091
0.0353738
0.0360229
0.0367323
0.036502
0.0361343
0.036825
0.0372964
0.0359126
0.0323328
0.0291894
0.0234886
0.0167794
0.0114495
0.0124251
0.0145484
0.0178107
0.028532
0.0316743
0.0327603
0.0275091
0.00909609
-0.0102108
-0.0240513
-0.0169987
-0.00364398
-0.0151264
-0.0185205
-0.0197041
-0.0187907
-0.0166727
-0.0141589
-0.0116406
-0.00915899
-0.00657906
-0.00373986
-0.000562209
0.00294805
0.00670964
0.0106342
0.0146319
0.0186444
0.0226102
0.0264717
0.0301561
0.0335829
0.0366994
0.0394236
0.0417338
0.0435939
0.0450066
0.0458723
0.0460779
0.0454654
0.044098
0.0421488
0.0403594
0.0382594
0.0368277
0.0360779
0.0359048
0.0360248
0.0363517
0.0368748
0.0366622
0.0364383
0.0369699
0.0376582
0.0371574
0.0346349
0.032046
0.027417
0.0216768
0.016792
0.0168165
0.0179622
0.0204129
0.0286229
0.0322045
0.0331028
0.0309805
0.0159915
-0.00254882
-0.0156232
-0.0100145
-0.00202367
-0.0086712
-0.0116182
-0.0127477
-0.012098
-0.0103902
-0.00831362
-0.00622185
-0.00416559
-0.00203761
0.000302336
0.00292941
0.00584865
0.00899731
0.0123036
0.015691
0.0191111
0.0225123
0.0258484
0.0290591
0.0320787
0.0348546
0.0373194
0.0394427
0.0411768
0.0425122
0.0433679
0.0436915
0.0433788
0.0424827
0.0410496
0.0391119
0.0382578
0.0372785
0.0366305
0.0363844
0.0363832
0.0364819
0.036847
0.0366667
0.0365433
0.0369337
0.0376099
0.0374783
0.0356135
0.0333557
0.029674
0.0249146
0.020645
0.0199539
0.0208086
0.0225007
0.0283619
0.032025
0.0331324
0.0321721
0.0197217
0.00311764
-0.00905713
-0.0054996
-0.000860487
-0.00290278
-0.00549345
-0.00656422
-0.00611994
-0.00475443
-0.00305428
-0.00133389
0.000351873
0.0020885
0.00399736
0.00614817
0.00855274
0.0111637
0.0139231
0.0167668
0.0196548
0.0225448
0.0253996
0.0281687
0.0307993
0.033242
0.0354409
0.0373627
0.0389593
0.0402162
0.0410664
0.0414905
0.0414191
0.0408996
0.0399753
0.0387765
0.0380441
0.0373287
0.0368041
0.0365326
0.03648
0.0364313
0.0366631
0.0365179
0.0364355
0.0366943
0.0371994
0.0371478
0.0356778
0.0336557
0.0307721
0.0269717
0.023323
0.0220938
0.0229445
0.0239639
0.0278592
0.0311132
0.03245
0.0312184
0.020692
0.00669839
-0.00396242
-0.00251176
-0.000116305
0.0021704
-7.70301e-05
-0.00106565
-0.000782712
0.000291695
0.00166669
0.00306644
0.00443392
0.00583575
0.00737535
0.00911691
0.0110766
0.0132194
0.0154992
0.0178638
0.0202789
0.0227095
0.0251275
0.027492
0.029759
0.0318833
0.0338199
0.0355379
0.0369908
0.0381632
0.0390037
0.039506
0.0396242
0.0394004
0.0388741
0.0381642
0.0376114
0.0370912
0.0366896
0.0364224
0.0363498
0.0362224
0.0363396
0.0362224
0.0361372
0.0362688
0.0364712
0.0364181
0.0352253
0.0334318
0.0311271
0.0281412
0.0251136
0.0236979
0.0243433
0.0248436
0.027241
0.0297767
0.0312363
0.0293733
0.0203843
0.00881258
-9.65584e-05
-0.000519886
0.000319376
0.00666171
0.00472652
0.00381724
0.00396826
0.00479738
0.00589542
0.00702132
0.00811725
0.00923399
0.0104592
0.0118518
0.0134304
0.0151701
0.0170336
0.0189785
0.0209768
0.0230007
0.025027
0.0270238
0.0289554
0.0307831
0.0324688
0.0339853
0.0352929
0.0363764
0.0371953
0.0377468
0.0380027
0.0379977
0.0377585
0.0373731
0.037008
0.0366458
0.0363562
0.0361141
0.0360327
0.0358774
0.0358985
0.0357926
0.0356828
0.0357028
0.0356857
0.0355117
0.0345065
0.0329476
0.0310337
0.0286697
0.0262293
0.0247648
0.0250804
0.0252344
0.0265362
0.0282049
0.0297828
0.0272066
0.0196069
0.0100351
0.00269768
0.000923128
0.000605686
0.0106439
0.00897158
0.00813583
0.00818415
0.00881058
0.00967426
0.0105668
0.0114323
0.0123089
0.0132698
0.0143677
0.0156224
0.017017
0.0185222
0.020104
0.0217387
0.0234047
0.0250836
0.0267507
0.0283774
0.0299316
0.0313823
0.0327051
0.0338677
0.0348558
0.0356382
0.0362116
0.0365572
0.0367016
0.0366607
0.0364945
0.0362901
0.0360564
0.0358608
0.035658
0.0355707
0.0354142
0.0353636
0.03525
0.0351058
0.0350019
0.0348449
0.0345501
0.0336648
0.0323249
0.0306862
0.0287681
0.026824
0.0253951
0.025335
0.0252621
0.025754
0.0264378
0.025996
0.0248576
0.0186451
0.0107016
0.0046171
0.00205392
0.000821615
0.0141425
0.0127046
0.0119468
0.0119193
0.0123783
0.013044
0.0137393
0.014411
0.0150865
0.0158259
0.0166764
0.017658
0.0187603
0.0199598
0.0212292
0.022549
0.023903
0.0252768
0.026651
0.0280047
0.0293106
0.0305435
0.0316828
0.0327027
0.0335895
0.0343201
0.03489
0.0352836
0.0355202
0.0356098
0.0355886
0.0355077
0.0353746
0.0352525
0.0350938
0.0350036
0.0348552
0.0347554
0.0346198
0.0344431
0.0342502
0.0339794
0.0335911
0.0327817
0.0316226
0.0302021
0.028592
0.0270204
0.0256777
0.0252666
0.025003
0.0249381
0.0248243
0.0243522
0.0227902
0.0176393
0.0110039
0.00587244
0.00293963
0.00100777
0.0172087
0.0159846
0.0153057
0.0152212
0.0155431
0.0160434
0.0165723
0.0170805
0.0175878
0.0181435
0.0187883
0.0195416
0.0203977
0.0213383
0.0223413
0.0233912
0.0244757
0.0255828
0.0266973
0.0278112
0.0288949
0.0299288
0.0308957
0.0317761
0.032558
0.0332229
0.033766
0.034175
0.0344605
0.0346272
0.0346962
0.0347013
0.034643
0.0345741
0.0344555
0.0343648
0.0342239
0.0340911
0.0339271
0.0337092
0.0334582
0.0331113
0.0326587
0.0319014
0.030877
0.0296407
0.028246
0.0269217
0.0256832
0.025005
0.0245461
0.0241195
0.0234948
0.0227022
0.0209738
0.0166554
0.0110654
0.0066437
0.00359852
0.00117352
0.0198954
0.0188484
0.0182382
0.0181185
0.0183355
0.0187006
0.0190918
0.0194651
0.0198344
0.020239
0.0207135
0.0212769
0.0219269
0.0226499
0.0234283
0.0242492
0.0251028
0.0259797
0.0268788
0.027775
0.0286578
0.0295096
0.0303159
0.0310618
0.0317367
0.0323262
0.0328242
0.0332211
0.0335211
0.0337258
0.0338453
0.0339025
0.0338946
0.0338604
0.0337721
0.0336814
0.0335443
0.0333893
0.033198
0.0329506
0.0326502
0.0322551
0.0317598
0.0310434
0.0301151
0.0290263
0.0277922
0.0266147
0.0254742
0.0246092
0.0239477
0.0232732
0.0223007
0.0211823
0.0193883
0.0157255
0.010967
0.00707022
0.00404617
0.00130941
0.0222431
0.0213518
0.0208041
0.0206502
0.0207763
0.0210352
0.0213179
0.0215847
0.021844
0.0221276
0.0224594
0.0228656
0.0233448
0.0238868
0.0244771
0.0251046
0.0257634
0.0264501
0.0271512
0.0278606
0.028566
0.0292541
0.0299127
0.0305309
0.0310994
0.0316069
0.0320467
0.0324105
0.0326987
0.0329117
0.0330523
0.0331351
0.033155
0.0331386
0.0330688
0.0329762
0.0328379
0.032666
0.0324503
0.0321779
0.0318424
0.0314188
0.0308962
0.0302126
0.0293548
0.0283736
0.0272642
0.0261702
0.0250963
0.0241201
0.0232691
0.0224071
0.0212274
0.0198426
0.0180089
0.0148603
0.0107621
0.00725431
0.00430871
0.00140652
0.0242864
0.0235293
0.0230402
0.0228663
0.0229205
0.0230837
0.0232685
0.0234398
0.0236029
0.0237844
0.0240151
0.0243011
0.0246445
0.0250385
0.0254729
0.0259403
0.0264344
0.0269527
0.0274895
0.0280378
0.028588
0.0291304
0.0296553
0.0301539
0.0306188
0.0310412
0.0314144
0.0317311
0.0319888
0.0321876
0.0323276
0.0324133
0.0324425
0.0324299
0.0323665
0.0322685
0.0321234
0.031937
0.0317006
0.031408
0.0310471
0.0306061
0.0300686
0.0294088
0.0286047
0.0276967
0.0266803
0.0256377
0.0245948
0.0235613
0.0225618
0.021544
0.0202495
0.018685
0.0168133
0.0140599
0.0104878
0.00727016
0.00442105
0.00146314
0.0260545
0.0254143
0.0249802
0.0247947
0.0247926
0.0248803
0.0249879
0.0250856
0.0251759
0.025279
0.0254155
0.0255977
0.0258273
0.0260991
0.026405
0.0267386
0.0270957
0.0274743
0.0278711
0.0282809
0.0286962
0.0291097
0.0295142
0.0299028
0.0302692
0.0306064
0.0309083
0.0311688
0.031384
0.0315522
0.0316716
0.0317456
0.031769
0.0317492
0.0316819
0.0315735
0.0314173
0.0312168
0.0309626
0.030653
0.0302736
0.0298205
0.0292765
0.0286321
0.027868
0.0270098
0.0260561
0.0250502
0.0240155
0.0229504
0.0218522
0.0207053
0.0193455
0.0176876
0.015783
0.0133211
0.0101686
0.00717314
0.00442087
0.00148334
0.0275806
0.0270402
0.0266552
0.0264635
0.0264175
0.0264451
0.0264901
0.0265274
0.0265576
0.0265959
0.0266591
0.0267583
0.0268956
0.0270675
0.0272674
0.0274906
0.0277337
0.0279957
0.0282743
0.0285661
0.0288652
0.0291661
0.0294631
0.0297514
0.0300258
0.0302808
0.0305105
0.0307099
0.0308746
0.0310026
0.0310906
0.0311393
0.0311447
0.0311101
0.0310281
0.0309043
0.0307337
0.030518
0.0302473
0.0299219
0.0295285
0.0290658
0.0285188
0.0278846
0.0271475
0.0263237
0.0254093
0.0244305
0.0233962
0.0223074
0.0211523
0.0199085
0.018505
0.0168205
0.0148995