/*--------------------------------*- C++ -*----------------------------------*\
| =========                 |                                                 |
| \\      /  F ield         | OpenFOAM: The Open Source CFD Toolbox           |
|  \\    /   O peration     | Version:  2512                                  |
|   \\  /    A nd           | Website:  www.openfoam.com                      |
|    \\/     M anipulation  |                                                 |
\*---------------------------------------------------------------------------*/
FoamFile
{
    version     2.0;
    format      ascii;
    arch        "LSB;label=32;scalar=64";
    class       volVectorField;
    location    "156.75";
    object      U;
}
// * * * * * * * * * * * * * * * * * * * * * * * * * * * * * * * * * * * * * //

dimensions      [0 1 -1 0 0 0 0];

internalField   nonuniform List<vector> 
13248
(
(-0.0241822 0.0179307 3.94845e-20)
(-0.0549734 0.0357393 0)
(-0.0709431 0.0414812 -6.82188e-20)
(-0.0678121 0.0422056 6.31686e-20)
(-0.0417445 0.0409712 5.7999e-20)
(0.0112318 0.0390177 0)
(0.0944943 0.0369031 0)
(0.209228 0.0351171 1.29394e-19)
(0.352661 0.034309 -1.49555e-21)
(0.517363 0.0347124 -1.0879e-19)
(0.692212 0.0361313 9.88208e-20)
(0.864328 0.0378678 -6.09513e-20)
(1.02135 0.0388701 0)
(1.15338 0.0379977 -1.03778e-19)
(1.25433 0.0343618 1.92633e-19)
(1.32259 0.0275524 -4.58492e-20)
(1.36102 0.0176864 -8.12931e-20)
(1.37617 0.00545839 7.57954e-20)
(1.37626 -0.00833385 0)
(1.36921 -0.0239793 0)
(1.35955 -0.0371204 0)
(1.34859 -0.0596782 0)
(1.3351 -0.0619134 2.10945e-20)
(1.31589 -0.10417 7.436e-20)
(-0.0297006 0.0213625 -1.19057e-19)
(-0.0594112 0.0407816 7.53118e-20)
(-0.0638543 0.0458376 -4.69373e-22)
(-0.0404734 0.0442789 -9.6317e-20)
(0.0142309 0.0402048 -5.79144e-20)
(0.103679 0.0358786 -5.39693e-20)
(0.228981 0.0327844 -9.64584e-20)
(0.386127 0.0320195 9.06375e-20)
(0.564945 0.033965 0)
(0.750497 0.0381758 5.22652e-22)
(0.926602 0.0434513 1.75948e-21)
(1.07939 0.048175 6.18819e-20)
(1.19975 0.0507887 0)
(1.28444 0.050214 0)
(1.33582 0.0461022 6.94654e-20)
(1.36055 0.038719 -1.29669e-19)
(1.36743 0.0289034 7.6329e-20)
(1.36459 0.0173054 -7.11684e-20)
(1.35767 0.00476787 -3.06215e-20)
(1.349 -0.00810446 -5.58087e-20)
(1.33827 -0.0216852 -2.21703e-20)
(1.32622 -0.0339041 -4.16327e-20)
(1.31019 -0.0452194 6.1205e-20)
(1.29796 -0.0615551 1.67728e-20)
(-0.032789 0.0218925 0)
(-0.0572536 0.040483 0)
(-0.0451288 0.0447471 3.46825e-20)
(0.00485782 0.0421715 3.15311e-20)
(0.0954099 0.037595 -7.18436e-22)
(0.227531 0.0342289 -5.60609e-20)
(0.396382 0.0341399 0)
(0.588824 0.038085 -4.48049e-20)
(0.785547 0.0453239 4.15736e-20)
(0.966562 0.0539776 5.31347e-22)
(1.11649 0.0617631 -6.76534e-20)
(1.2275 0.0667612 -6.05084e-20)
(1.29961 0.0679184 1.64036e-21)
(1.33905 0.0651661 -4.77858e-20)
(1.35534 0.059147 1.14862e-19)
(1.35803 0.0508415 0)
(1.35416 0.0411384 -7.20715e-20)
(1.34745 0.0305602 3.51351e-20)
(1.33915 0.0200399 3.05913e-20)
(1.32915 0.00831967 0)
(1.31832 -0.000881577 2.44631e-20)
(1.30605 -0.014473 -8.07674e-20)
(1.29405 -0.019772 7.54255e-20)
(1.28105 -0.0362612 4.50472e-20)
(-0.0333536 0.020019 -4.20004e-20)
(-0.0475687 0.0351628 -4.01716e-20)
(-0.0130593 0.0380844 3.58281e-20)
(0.0703794 0.0357423 0)
(0.203322 0.0335803 0)
(0.380541 0.035277 -1.30274e-21)
(0.586252 0.0422612 0)
(0.796111 0.053456 -1.37956e-19)
(0.98536 0.0660808 1.25817e-19)
(1.13662 0.0770532 -1.52055e-19)
(1.24324 0.0841581 3.3909e-20)
(1.3084 0.0865581 0)
(1.34149 0.0846499 5.35014e-20)
(1.35372 0.0795053 -9.76765e-20)
(1.35453 0.0722857 2.31153e-20)
(1.34986 0.0638764 5.73956e-20)
(1.34251 0.0547395 -3.0042e-21)
(1.33364 0.0453404 -6.20085e-20)
(1.32366 0.0353502 0)
(1.3133 0.025841 0)
(1.30222 0.0157225 -2.11111e-20)
(1.29114 0.00600831 1.86043e-20)
(1.27865 -0.000600813 6.56096e-20)
(1.26712 -0.0149937 -6.12522e-20)
(-0.0312858 0.0166273 -4.43483e-20)
(-0.0289932 0.0265811 -4.09361e-20)
(0.0351481 0.0283498 1.12964e-19)
(0.159463 0.0284625 -6.77903e-20)
(0.338842 0.0325839 6.27935e-20)
(0.555917 0.0434262 1.12789e-19)
(0.780958 0.0596981 -7.8584e-20)
(0.98291 0.0774349 -9.32001e-20)
(1.14098 0.0924743 2.88187e-21)
(1.24884 0.102229 1.14903e-19)
(1.31213 0.10614 0)
(1.34265 0.105136 2.97738e-20)
(1.35277 0.100724 0)
(1.35193 0.0942529 -4.64024e-20)
(1.3458 0.0866226 6.46749e-20)
(1.33723 0.0782933 7.62543e-22)
(1.32766 0.0695896 -1.62678e-20)
(1.31769 0.0605062 3.03281e-20)
(1.3077 0.0515781 2.54439e-20)
(1.29738 0.0423334 -2.2448e-20)
(1.28692 0.0338729 2.11017e-20)
(1.27596 0.0248518 -1.85958e-20)
(1.26488 0.0180066 0)
(1.25438 0.00667833 -1.32865e-20)
(-0.0260824 0.0124501 4.43372e-20)
(0.000423987 0.0168662 4.32037e-20)
(0.102474 0.0191305 -3.79277e-20)
(0.273738 0.0252311 6.99318e-20)
(0.497132 0.0397002 -6.4774e-20)
(0.738396 0.0616846 5.78022e-20)
(0.958237 0.0858186 -2.7408e-20)
(1.12983 0.106328 7.00161e-20)
(1.24536 0.119899 -4.33268e-20)
(1.31183 0.126113 7.36585e-20)
(1.34305 0.126411 -1.66791e-19)
(1.3527 0.122765 6.00607e-20)
(1.35091 0.116811 -5.0867e-20)
(1.34378 0.109591 4.73539e-20)
(1.33455 0.101665 3.96996e-20)
(1.32471 0.093363 3.40687e-20)
(1.31476 0.0848076 -9.38458e-20)
(1.3048 0.0762562 5.77151e-20)
(1.29461 0.0675601 -2.54402e-20)
(1.28433 0.0591423 6.47271e-20)
(1.27384 0.050672 -2.09322e-20)
(1.26339 0.0424085 -4.8713e-20)
(1.25271 0.0355626 4.45068e-20)
(1.24236 0.0252989 1.32824e-20)
(-0.0168455 0.00800135 0)
(0.0426984 0.00800973 5.79887e-22)
(0.190478 0.0140195 8.03339e-20)
(0.410101 0.0304269 -7.37936e-20)
(0.665692 0.0577004 -6.57143e-20)
(0.90844 0.089329 1.20075e-19)
(1.10142 0.117129 -5.48763e-20)
(1.23202 0.13628 7.08147e-20)
(1.30712 0.146104 -2.14459e-21)
(1.34224 0.148452 -3.84906e-20)
(1.35296 0.14585 8.09259e-20)
(1.35085 0.140388 -1.17477e-19)
(1.34298 0.133413 0)
(1.33301 0.12567 -2.19869e-20)
(1.3225 0.117543 -5.7475e-20)
(1.31195 0.109197 1.79596e-20)
(1.30144 0.100774 8.64824e-22)
(1.29098 0.0922603 -3.72451e-20)
(1.28067 0.0838679 2.88755e-21)
(1.27044 0.07551 4.234e-20)
(1.26034 0.0674279 -1.85319e-20)
(1.25027 0.0596704 -6.5348e-21)
(1.24018 0.0523135 2.07466e-20)
(1.23054 0.0435875 0)
(-0.0025955 0.00379762 0)
(0.0991628 0.00200648 2.21303e-20)
(0.297859 0.0162454 -1.05168e-19)
(0.559741 0.0466196 3.77297e-20)
(0.828201 0.0861106 -3.49464e-20)
(1.05122 0.12324 -3.12868e-20)
(1.20597 0.150309 -5.35169e-20)
(1.29643 0.165577 2.68417e-20)
(1.33948 0.171083 2.25396e-20)
(1.35329 0.170025 0)
(1.35175 0.165175 4.78005e-20)
(1.34342 0.158369 -6.9565e-20)
(1.33268 0.150623 5.11412e-20)
(1.32139 0.142429 2.19968e-20)
(1.31018 0.134 -1.74105e-20)
(1.29924 0.125462 -1.40568e-20)
(1.28861 0.116871 -1.29597e-20)
(1.27826 0.108355 3.91271e-20)
(1.2681 0.099908 0)
(1.25811 0.0916617 1.86489e-20)
(1.24824 0.0836191 1.50773e-20)
(1.23849 0.0758315 -3.78983e-20)
(1.22882 0.0683499 -2.49978e-20)
(1.21935 0.0606236 2.28824e-20)
(0.0174618 0.000505135 -2.63317e-20)
(0.16981 0.00100187 -1.29495e-21)
(0.419801 0.0283592 2.15829e-20)
(0.710274 0.0741245 5.97319e-20)
(0.97125 0.122455 1.67774e-20)
(1.16135 0.16045 -3.20014e-20)
(1.2764 0.183764 2.86257e-20)
(1.33319 0.194122 -2.42335e-20)
(1.35309 0.195476 4.21739e-20)
(1.35335 0.191556 1.72976e-20)
(1.34488 0.184933 -4.87154e-20)
(1.3333 0.177044 1.39971e-20)
(1.32106 0.16858 2.32452e-20)
(1.30902 0.159844 -1.14071e-20)
(1.29742 0.15099 0)
(1.28625 0.142106 1.61763e-20)
(1.27546 0.133275 2.65909e-20)
(1.26498 0.124527 4.12683e-21)
(1.25482 0.115947 -2.15644e-20)
(1.24496 0.107561 8.71846e-21)
(1.23537 0.0994506 0)
(1.22601 0.0916445 -6.5299e-21)
(1.21679 0.0839719 -6.11791e-21)
(1.20776 0.0768796 0)
(0.043634 -0.000969411 0)
(0.252781 0.00723888 1.28548e-20)
(0.548402 0.051756 2.35699e-20)
(0.849916 0.111483 -6.13127e-20)
(1.08803 0.164074 1.9662e-20)
(1.24051 0.199231 0)
(1.32 0.217118 2.71423e-20)
(1.3509 0.222357 -3.72833e-20)
(1.35509 0.219963 -2.10301e-20)
(1.34713 0.213619 9.27821e-21)
(1.33476 0.205452 -1.42894e-20)
(1.32143 0.196495 3.45361e-20)
(1.30837 0.187207 1.67225e-20)
(1.29591 0.177791 -1.17316e-20)
(1.28406 0.168352 -1.2862e-21)
(1.27277 0.158967 -3.00983e-20)
(1.26199 0.149687 1.3507e-20)
(1.25168 0.140582 -3.78051e-22)
(1.24179 0.131687 0)
(1.23227 0.123065 -8.72711e-21)
(1.22304 0.114746 0)
(1.21405 0.106666 1.86038e-20)
(1.20523 0.0988997 -2.16483e-20)
(1.19649 0.0922006 9.69103e-21)
(0.0755644 0.000360552 -7.54899e-21)
(0.344268 0.0225533 -3.31042e-20)
(0.674534 0.0863584 3.7298e-20)
(0.970637 0.156535 2.11391e-20)
(1.17728 0.209023 -9.99878e-21)
(1.29321 0.238825 1.58216e-20)
(1.34342 0.250539 -7.65697e-21)
(1.35552 0.250839 1.21051e-20)
(1.34949 0.245082 0)
(1.33663 0.236544 2.59074e-20)
(1.32209 0.22686 -1.23671e-21)
(1.30778 0.216737 -2.01348e-20)
(1.29424 0.206478 8.39553e-21)
(1.28151 0.196215 -9.2027e-21)
(1.26954 0.186034 -3.31349e-21)
(1.25823 0.175996 3.9657e-21)
(1.24751 0.166159 -2.92071e-21)
(1.23732 0.15656 -1.55059e-20)
(1.22762 0.147248 9.39503e-21)
(1.21837 0.138259 1.84231e-21)
(1.2095 0.129606 1.57856e-21)
(1.20095 0.121256 1.35135e-21)
(1.19261 0.11338 0)
(1.18435 0.106587 0)
(0.11233 0.00546984 7.55814e-21)
(0.439114 0.0480497 -6.97335e-21)
(0.790217 0.130975 -1.25031e-20)
(1.06856 0.207254 0)
(1.24075 0.25611 -4.94775e-21)
(1.32418 0.279012 -4.31075e-21)
(1.3516 0.284334 -7.03068e-21)
(1.3506 0.279961 0)
(1.33814 0.271071 0)
(1.32244 0.260377 0)
(1.3067 0.249065 0)
(1.29187 0.237599 0)
(1.27809 0.226177 -5.24022e-21)
(1.26529 0.214893 2.35392e-21)
(1.25335 0.203808 3.97852e-21)
(1.24217 0.19297 1.83694e-21)
(1.23168 0.182419 4.39225e-21)
(1.22182 0.172195 0)
(1.21253 0.162332 -9.8226e-22)
(1.20375 0.152855 -9.28785e-22)
(1.1954 0.143756 -1.58104e-21)
(1.18738 0.135014 -1.35348e-21)
(1.17956 0.12693 0)
(1.17186 0.119824 8.8395e-22)
(-0.00334425 0.0151005 6.06478e-21)
(-0.0155108 0.0770271 -5.76404e-21)
(-0.0360499 0.140814 -1.06627e-20)
(-0.0614907 0.193509 0)
(-0.0895414 0.23556 -1.38232e-20)
(-0.11818 0.273101 4.3364e-21)
(-0.145746 0.311326 -7.92722e-21)
(-0.171095 0.35222 0)
(-0.193374 0.395357 0)
(-0.211743 0.439233 0)
(-0.225274 0.481957 0)
(-0.232972 0.521422 0)
(-0.233841 0.555356 2.01634e-22)
(-0.22697 0.581409 -5.462e-21)
(-0.211622 0.597293 1.05217e-20)
(-0.187333 0.600928 1.54357e-20)
(-0.154 0.590641 5.03054e-21)
(-0.111912 0.565346 0)
(-0.0617769 0.52461 4.7491e-21)
(-0.00499254 0.468762 -1.35366e-20)
(0.0570784 0.398888 -8.80946e-21)
(0.123054 0.316579 -8.4765e-21)
(0.18892 0.224821 0)
(0.258347 0.122813 0)
(-0.00336989 0.02129 -1.79901e-20)
(-0.0144437 0.0908456 2.85418e-20)
(-0.0302193 0.161715 -1.02828e-20)
(-0.0495891 0.220545 -1.93143e-20)
(-0.0712552 0.266358 2.703e-20)
(-0.0933856 0.304766 -1.66318e-20)
(-0.114089 0.341394 2.33448e-20)
(-0.131855 0.378944 1.41265e-20)
(-0.145556 0.417392 0)
(-0.154237 0.455272 -1.33196e-20)
(-0.156982 0.490633 -5.36349e-22)
(-0.152901 0.521361 1.15184e-20)
(-0.141174 0.545248 1.6495e-20)
(-0.121134 0.560174 2.18059e-20)
(-0.0923908 0.564209 -9.61903e-21)
(-0.0549052 0.555747 -2.99188e-20)
(-0.00895557 0.533679 1.02933e-20)
(0.0447476 0.49749 -3.79004e-20)
(0.105148 0.447323 0)
(0.170843 0.383766 9.08979e-21)
(0.238815 0.308706 8.79339e-21)
(0.311384 0.223229 8.46115e-21)
(0.376041 0.132129 0)
(0.45103 0.0322076 0)
(-0.00356711 0.0225557 0)
(-0.0138088 0.0942063 5.46575e-20)
(-0.0248077 0.169863 -2.02592e-20)
(-0.0374394 0.234773 1.8873e-20)
(-0.0514433 0.285324 -5.14045e-20)
(-0.0655039 0.325389 0)
(-0.0778354 0.360502 -2.96516e-20)
(-0.0866594 0.394181 1.34143e-20)
(-0.0905905 0.427216 -2.5246e-20)
(-0.0885362 0.45858 1.12863e-20)
(-0.0795901 0.486465 6.92085e-20)
(-0.0631141 0.508819 -3.21795e-20)
(-0.0386013 0.523625 -5.40067e-20)
(-0.00568375 0.529048 -2.17384e-20)
(0.0356567 0.52351 -1.90215e-21)
(0.0850721 0.505847 7.82992e-20)
(0.141896 0.475444 -3.74099e-20)
(0.205115 0.432138 6.18965e-22)
(0.272669 0.376489 0)
(0.34535 0.309519 -3.5339e-20)
(0.414279 0.233252 0)
(0.491463 0.14845 -3.54148e-20)
(0.54998 0.0625654 1.29245e-19)
(0.628092 -0.030947 5.892e-22)
(-0.00341741 0.0196509 0)
(-0.0130972 0.087711 -5.93328e-22)
(-0.0203635 0.164589 1.93237e-20)
(-0.026863 0.234263 -1.76347e-20)
(-0.033156 0.290004 1.70761e-20)
(-0.0386397 0.332866 9.14808e-20)
(-0.0419422 0.367321 -2.84158e-20)
(-0.0413688 0.397327 -2.5805e-20)
(-0.0353807 0.424688 4.92657e-20)
(-0.0227845 0.44925 -7.04094e-20)
(-0.00274581 0.469687 2.09333e-20)
(0.0252321 0.484224 2.02641e-20)
(0.0613844 0.49113 0)
(0.105681 0.488846 1.99666e-20)
(0.157764 0.476135 0)
(0.216947 0.452191 3.59705e-20)
(0.281964 0.416624 -7.51241e-20)
(0.352273 0.370005 1.46417e-20)
(0.423311 0.312367 6.88238e-20)
(0.500242 0.245925 3.52978e-20)
(0.565351 0.172188 0)
(0.646 0.092781 -9.85528e-20)
(0.695201 0.0139086 3.12024e-20)
(0.777103 -0.0741872 0)
(-0.00265604 0.014111 0)
(-0.0119119 0.0738145 -6.23029e-20)
(-0.0172033 0.14748 -1.86766e-20)
(-0.0195351 0.21886 -3.48276e-20)
(-0.0195061 0.27876 3.22678e-20)
(-0.0170901 0.325108 -3.00962e-20)
(-0.0116055 0.36028 5.44125e-20)
(-0.0018449 0.387776 2.5738e-20)
(0.0135382 0.410073 -7.08815e-20)
(0.03569 0.428023 4.41489e-20)
(0.0653922 0.441171 -6.27823e-20)
(0.103025 0.448382 1.36234e-19)
(0.148594 0.44833 -7.41477e-20)
(0.201752 0.439803 3.50217e-20)
(0.261771 0.421824 1.06716e-19)
(0.327687 0.39411 -3.23642e-20)
(0.397579 0.355921 -2.91075e-20)
(0.471486 0.309352 -3.3106e-20)
(0.542589 0.252193 0)
(0.619896 0.190862 -6.56592e-20)
(0.681042 0.122109 -6.59318e-20)
(0.764872 0.0503682 8.97245e-20)
(0.807766 -0.0242518 1.18351e-19)
(0.907266 -0.110742 -1.08153e-19)
(-0.00136226 0.00772981 0)
(-0.0103082 0.0561868 -8.00974e-20)
(-0.015614 0.122267 9.88778e-22)
(-0.0165396 0.19088 6.83216e-20)
(-0.0128928 0.251857 0)
(-0.00471697 0.300642 0)
(0.00808304 0.337185 0)
(0.026003 0.363664 -2.44952e-20)
(0.0498215 0.382447 9.6443e-23)
(0.0803218 0.395028 4.13347e-20)
(0.118058 0.401842 -6.06508e-20)
(0.163224 0.402563 -5.96908e-22)
(0.215611 0.396489 0)
(0.274606 0.382936 -3.50056e-20)
(0.339181 0.361146 3.28595e-20)
(0.408092 0.331577 -9.29148e-20)
(0.479477 0.292714 1.27068e-19)
(0.552694 0.248696 3.42845e-20)
(0.624334 0.194492 6.04972e-21)
(0.701931 0.140712 -1.15618e-19)
(0.768002 0.0739732 -5.53754e-20)
(0.862901 0.0086945 1.95017e-19)
(0.919499 -0.0683471 -1.28308e-19)
(1.05128 -0.153371 0)
(2.35823e-05 0.00212614 4.12883e-20)
(-0.00900552 0.0387499 3.98803e-20)
(-0.0161864 0.0940484 -3.57829e-20)
(-0.0185195 0.15517 -6.58195e-20)
(-0.0145487 0.212542 6.09797e-20)
(-0.00387057 0.260451 -5.47231e-20)
(0.013413 0.296952 7.54753e-20)
(0.0372025 0.32265 -2.42036e-20)
(0.0675706 0.339158 4.24037e-20)
(0.104673 0.347992 0)
(0.148573 0.350094 3.5226e-20)
(0.1991 0.345825 -6.50786e-20)
(0.255768 0.33515 6.54441e-20)
(0.317821 0.318019 -6.0914e-20)
(0.384367 0.294045 0)
(0.454483 0.264138 5.8741e-20)
(0.528165 0.226794 1.1562e-19)
(0.605474 0.186371 -1.09988e-19)
(0.688114 0.1351 -5.35736e-20)
(0.778242 0.0856369 -5.88835e-20)
(0.872774 0.017516 1.59214e-19)
(0.988751 -0.0414074 4.95932e-20)
(1.07808 -0.123141 -4.52584e-20)
(1.22306 -0.195072 4.21761e-20)
(0.000742223 -0.00144443 -4.12986e-20)
(-0.00937325 0.024788 1.14925e-19)
(-0.0200248 0.0678426 -3.5258e-20)
(-0.0259779 0.117792 6.42963e-20)
(-0.0245493 0.166763 -5.95691e-20)
(-0.0146896 0.209192 -2.98754e-23)
(0.00365065 0.242232 2.44417e-20)
(0.0300757 0.265301 8.54525e-20)
(0.0641014 0.27913 -1.43541e-21)
(0.105279 0.28488 -3.80702e-20)
(0.153196 0.283624 0)
(0.207499 0.276136 -3.0922e-20)
(0.267939 0.262944 5.9277e-20)
(0.334585 0.244381 5.83114e-20)
(0.408027 0.2205 -2.73697e-20)
(0.48947 0.191806 -1.84588e-21)
(0.580494 0.156895 -2.76652e-20)
(0.681651 0.118209 5.08071e-20)
(0.794988 0.0695339 5.3583e-20)
(0.915335 0.0225881 -5.24076e-20)
(1.04302 -0.0416098 4.63914e-20)
(1.16688 -0.0910827 -4.38526e-20)
(1.27094 -0.16685 0)
(1.37533 -0.21276 -4.21989e-20)
(-0.000154523 -0.00217816 3.98933e-20)
(-0.0130734 0.016486 -3.8159e-20)
(-0.0283427 0.0474564 3.44799e-20)
(-0.0390611 0.0843268 0)
(-0.0417093 0.121482 0)
(-0.0347156 0.154376 5.05572e-20)
(-0.0177038 0.180222 -4.79119e-20)
(0.00901677 0.197945 4.06766e-20)
(0.0449423 0.20771 -1.92073e-19)
(0.089745 0.210342 3.72061e-22)
(0.143472 0.20688 3.16921e-20)
(0.206819 0.198192 0)
(0.281019 0.184847 -5.72306e-20)
(0.367586 0.16709 1.08375e-19)
(0.467753 0.145035 -7.82536e-20)
(0.581925 0.118398 -1.31316e-19)
(0.708789 0.0870332 -5.11107e-21)
(0.844978 0.0515518 9.28816e-20)
(0.985023 0.0104259 0)
(1.12038 -0.0303686 0)
(1.24396 -0.0809099 -4.64079e-20)
(1.34123 -0.118069 4.38703e-20)
(1.41137 -0.175902 -1.49652e-19)
(1.44115 -0.197064 1.39464e-19)
(-0.0035058 0.000348991 0)
(-0.0211299 0.0147797 0)
(-0.0412263 0.0351418 -1.02603e-19)
(-0.0560928 0.0590191 3.21377e-20)
(-0.0619767 0.0832232 1.252e-21)
(-0.0568496 0.104713 5.15464e-20)
(-0.0396141 0.121379 0)
(-0.00975491 0.132311 -4.1565e-20)
(0.033358 0.137497 3.80171e-20)
(0.0908202 0.137531 -6.72764e-20)
(0.164052 0.133152 -4.07675e-23)
(0.254386 0.124894 5.86128e-20)
(0.362464 0.113213 1.14239e-21)
(0.487518 0.0982738 5.51738e-20)
(0.626697 0.0803153 -7.44562e-20)
(0.775062 0.0587715 0)
(0.925759 0.0347444 9.75327e-20)
(1.07057 0.00672938 -1.38693e-19)
(1.20051 -0.0228128 4.26021e-20)
(1.30752 -0.0546101 0)
(1.38386 -0.0888009 3.7258e-20)
(1.42722 -0.115581 1.44235e-19)
(1.43865 -0.154652 -1.34696e-19)
(1.41863 -0.163465 -1.42272e-19)
(-0.00948665 0.00561209 1.16366e-19)
(-0.032838 0.019098 -1.47143e-19)
(-0.0560098 0.0315024 5.29985e-22)
(-0.0716599 0.0443629 3.13055e-20)
(-0.0759807 0.0569547 -5.66377e-20)
(-0.0662903 0.067819 -5.13771e-20)
(-0.0401238 0.0758891 9.08796e-20)
(0.00465 0.0806995 -2.61149e-21)
(0.0700386 0.0821497 -7.60677e-20)
(0.157608 0.080586 1.36376e-19)
(0.267623 0.0765567 -6.99203e-22)
(0.398452 0.0705243 -5.82756e-20)
(0.5459 0.0627509 0)
(0.703511 0.0531255 0)
(0.863053 0.0415742 -2.51725e-20)
(1.01543 0.0273852 -4.70444e-20)
(1.15166 0.0112723 -9.22058e-20)
(1.26361 -0.00878473 8.59561e-20)
(1.34613 -0.028851 -4.26451e-20)
(1.39613 -0.0537285 7.55434e-20)
(1.4167 -0.0751996 -3.84342e-20)
(1.41399 -0.0980525 6.18038e-20)
(1.39724 -0.124022 -1.45517e-19)
(1.37581 -0.132496 2.79452e-20)
(-0.0169424 0.0121244 3.87589e-20)
(-0.0452751 0.0272693 0)
(-0.0675216 0.0349437 6.76003e-20)
(-0.0776338 0.0400759 -6.25973e-20)
(-0.0717309 0.0440997 5.67125e-20)
(-0.0462373 0.047065 0)
(0.00251072 0.048885 0)
(0.0773738 0.0493115 -4.14499e-20)
(0.179516 0.0485209 1.62689e-21)
(0.307737 0.0469917 3.58521e-20)
(0.457469 0.0451087 -3.22755e-20)
(0.621064 0.0428975 5.94798e-20)
(0.7887 0.040021 0)
(0.949733 0.0358786 1.05082e-19)
(1.09408 0.0297382 -1.96774e-19)
(1.21357 0.020965 1.39258e-19)
(1.30286 0.00941552 8.67087e-20)
(1.36048 -0.00539702 -8.08396e-20)
(1.38914 -0.0208902 0)
(1.39491 -0.0409528 0)
(1.38756 -0.055242 0)
(1.37381 -0.0800247 0)
(1.36119 -0.0935307 2.73565e-20)
(1.34757 -0.111442 -8.98349e-20)
(0.329239 0.00585368 -5.2374e-21)
(0.403425 -0.146247 5.26281e-21)
(0.469578 -0.316598 -1.56444e-22)
(0.531239 -0.500756 0)
(0.585641 -0.674592 -3.55187e-21)
(0.624308 -0.802539 6.30362e-21)
(0.646084 -0.860363 -5.23519e-22)
(0.65449 -0.85911 -2.18348e-21)
(0.648267 -0.829838 0)
(0.636995 -0.786341 0)
(0.627878 -0.741368 -7.79389e-23)
(0.607587 -0.725526 -7.64937e-23)
(0.56814 -0.742885 -1.52395e-21)
(0.526891 -0.735497 1.40246e-21)
(0.515454 -0.623464 0)
(0.545755 -0.383848 0)
(0.601954 -0.0649641 1.97845e-21)
(0.664558 0.252878 -1.79289e-22)
(0.722427 0.490478 -1.59949e-21)
(0.770926 0.618325 -7.23236e-23)
(0.802738 0.665399 0)
(0.818189 0.665874 0)
(0.830613 0.638731 0)
(0.836866 0.623453 0)
(0.823506 0.65697 0)
(0.78903 0.710999 0)
(0.747195 0.69782 3.36393e-22)
(0.71198 0.549554 -5.46625e-22)
(0.693794 0.274298 0)
(0.694734 -0.0489933 0)
(0.715022 -0.316484 -4.09509e-22)
(0.745286 -0.475409 3.97904e-22)
(0.778501 -0.542965 1.31023e-22)
(0.797374 -0.566096 0)
(0.783663 -0.580972 0)
(0.730072 -0.58654 1.6545e-22)
(0.66185 -0.53628 -1.60808e-22)
(0.607732 -0.385648 0)
(0.59243 -0.149711 2.13462e-22)
(0.614942 0.100626 -2.98666e-22)
(0.669611 0.282597 7.33679e-23)
(0.708489 0.397638 0)
(0.702692 0.473069 -1.016e-22)
(0.662356 0.500964 9.87913e-23)
(0.632904 0.441071 0)
(0.623225 0.271485 0)
(0.648938 0.0631925 -5.11458e-23)
(0.672751 -0.15503 1.51411e-22)
(0.678303 -0.326126 0)
(0.656941 -0.427439 0)
(0.648922 -0.425753 -2.62923e-23)
(0.642189 -0.255351 3.86813e-24)
(0.648826 -0.0441378 -2.40679e-24)
(0.629349 0.227289 1.3236e-23)
(0.620236 0.400331 0)
(0.608159 0.355361 0)
(0.615333 0.243991 0)
(0.564277 -0.104137 0)
(0.549034 -0.31423 0)
(0.531369 -0.111207 0)
(0.512526 -0.0770146 -5.18476e-22)
(0.573575 -0.218099 -2.12672e-20)
(0.633419 -0.381308 1.11392e-21)
(0.692648 -0.560708 1.88376e-20)
(0.740402 -0.724916 2.47245e-22)
(0.763248 -0.836389 0)
(0.759556 -0.877238 -9.1385e-21)
(0.741402 -0.85987 1.63978e-20)
(0.713025 -0.818597 -7.25575e-21)
(0.679054 -0.771327 5.25175e-21)
(0.650646 -0.721718 -5.02199e-21)
(0.619514 -0.693238 4.8062e-21)
(0.570864 -0.700405 -4.64952e-21)
(0.512821 -0.701731 -1.53904e-22)
(0.473608 -0.618693 -6.59927e-21)
(0.475631 -0.410249 6.4091e-21)
(0.516646 -0.112214 -7.04756e-21)
(0.578239 0.195579 6.65069e-21)
(0.645701 0.436279 -5.19744e-21)
(0.708798 0.578595 9.01464e-21)
(0.755694 0.642511 -3.86986e-21)
(0.787562 0.652838 -1.61736e-22)
(0.815388 0.631334 -2.28653e-21)
(0.834413 0.624301 4.48364e-21)
(0.833463 0.668326 -2.19789e-21)
(0.811837 0.730852 1.64591e-22)
(0.783147 0.721708 3.85196e-21)
(0.759918 0.571277 9.64929e-22)
(0.750848 0.286359 -9.13064e-21)
(0.754975 -0.0501492 9.03116e-21)
(0.77047 -0.329352 -4.27018e-21)
(0.788822 -0.492323 3.8728e-22)
(0.806593 -0.555425 -1.31294e-22)
(0.812588 -0.566711 1.97069e-22)
(0.790748 -0.566172 0)
(0.730095 -0.560861 0)
(0.654261 -0.510964 -6.53044e-22)
(0.594109 -0.371617 4.77722e-22)
(0.577506 -0.153301 5.42704e-22)
(0.604383 0.0824361 1.1246e-23)
(0.662829 0.263199 -6.65035e-22)
(0.702181 0.390751 1.01611e-22)
(0.698848 0.479592 0)
(0.662618 0.512479 0)
(0.635014 0.448816 0)
(0.625437 0.270922 0)
(0.6547 0.0560875 2.66135e-22)
(0.683449 -0.159159 -1.0177e-22)
(0.689941 -0.325052 0)
(0.663849 -0.423394 0)
(0.65113 -0.424262 0)
(0.64181 -0.255212 -3.07789e-23)
(0.647265 -0.0437812 1.6211e-23)
(0.62991 0.229688 -3.36249e-23)
(0.625997 0.401795 0)
(0.616895 0.356698 0)
(0.625948 0.24802 3.83607e-23)
(0.57014 -0.0953408 1.30943e-22)
(0.547095 -0.31272 0)
(0.537368 -0.109583 0)
(0.674403 -0.132915 2.76782e-22)
(0.72439 -0.265946 -4.29377e-20)
(0.782702 -0.420218 3.96654e-20)
(0.842631 -0.590449 -3.7072e-20)
(0.883573 -0.741784 -2.48995e-22)
(0.890853 -0.834243 0)
(0.865712 -0.859167 -1.86729e-20)
(0.823725 -0.833858 1.82221e-20)
(0.777067 -0.789164 1.00955e-22)
(0.726941 -0.745004 1.61577e-22)
(0.681727 -0.697212 1.39393e-22)
(0.640504 -0.658104 1.4159e-22)
(0.585221 -0.652759 -8.94011e-21)
(0.513892 -0.659741 8.83677e-21)
(0.451825 -0.605987 0)
(0.427057 -0.434774 3.21472e-22)
(0.447922 -0.164945 -1.20088e-20)
(0.503935 0.128273 1.18574e-20)
(0.578029 0.370656 0)
(0.651978 0.52752 0)
(0.711631 0.608599 -5.81265e-21)
(0.75848 0.630467 1.04858e-20)
(0.801027 0.616221 -8.89817e-21)
(0.833589 0.616867 -8.70137e-23)
(0.846104 0.670533 9.13908e-21)
(0.838268 0.743394 -1.1169e-20)
(0.823027 0.742621 1.33854e-20)
(0.812098 0.594384 1.27601e-21)
(0.813172 0.305286 -9.14652e-21)
(0.820499 -0.03964 0)
(0.830652 -0.329166 0)
(0.837115 -0.497901 1.96912e-21)
(0.839603 -0.560178 -2.6853e-21)
(0.832579 -0.563827 -5.80157e-25)
(0.804154 -0.549769 1.09093e-21)
(0.738263 -0.534365 -1.06005e-21)
(0.65544 -0.486546 0)
(0.589962 -0.360575 1.57661e-22)
(0.57198 -0.160395 1.30898e-21)
(0.601331 0.061485 -2.33489e-21)
(0.66148 0.242614 9.60741e-22)
(0.701169 0.38322 6.98703e-23)
(0.701475 0.485635 -9.64083e-22)
(0.669096 0.524207 7.67932e-22)
(0.642391 0.457908 2.6441e-22)
(0.632412 0.271914 3.08415e-22)
(0.664383 0.0497727 -2.66845e-22)
(0.697777 -0.162394 0)
(0.706023 -0.322656 0)
(0.674742 -0.417996 -4.96487e-22)
(0.656529 -0.422779 2.21528e-22)
(0.644482 -0.25589 -1.13421e-22)
(0.649253 -0.0443764 1.34922e-22)
(0.634253 0.230382 1.56169e-22)
(0.635379 0.402854 -5.82734e-23)
(0.628805 0.357646 1.48924e-22)
(0.640187 0.252639 -1.77476e-22)
(0.580894 -0.0846988 1.29876e-22)
(0.549511 -0.31126 0)
(0.54679 -0.109227 0)
(0.814097 -0.17249 -8.46511e-20)
(0.863086 -0.304242 2.19663e-21)
(0.92763 -0.454807 7.79572e-20)
(0.987979 -0.613258 -5.64421e-22)
(1.01655 -0.744955 0)
(1.00301 -0.814826 0)
(0.956458 -0.823791 -3.61176e-20)
(0.894894 -0.794146 6.16716e-21)
(0.834195 -0.748416 3.91797e-20)
(0.774468 -0.706873 -1.72491e-21)
(0.717267 -0.666742 -9.41845e-21)
(0.667459 -0.623421 -7.44093e-21)
(0.610912 -0.600857 7.44671e-21)
(0.534243 -0.603793 0)
(0.454139 -0.576705 -8.79001e-21)
(0.40414 -0.450463 7.961e-21)
(0.403004 -0.218966 0)
(0.44808 0.0539966 0)
(0.521936 0.295245 7.57735e-21)
(0.601411 0.465697 -1.26123e-21)
(0.67115 0.564011 -5.74008e-21)
(0.731289 0.598336 -4.30237e-21)
(0.786873 0.591845 4.25783e-21)
(0.832038 0.599058 -4.25717e-21)
(0.859253 0.660852 -6.5681e-22)
(0.866671 0.744442 4.66728e-21)
(0.864413 0.755198 8.37598e-22)
(0.865917 0.615626 1.05363e-23)
(0.877496 0.328406 0)
(0.888826 -0.0214742 9.6848e-21)
(0.894512 -0.320678 -9.95912e-21)
(0.88999 -0.495734 4.08843e-22)
(0.877771 -0.558336 0)
(0.856698 -0.557803 -1.98919e-22)
(0.822023 -0.533154 1.99632e-21)
(0.753274 -0.507135 -3.42582e-21)
(0.664762 -0.46126 -2.65808e-22)
(0.593933 -0.350736 -1.73209e-22)
(0.574118 -0.17037 1.59244e-21)
(0.604185 0.0382316 2.37397e-22)
(0.664984 0.220545 -1.34039e-21)
(0.705624 0.373167 1.12968e-21)
(0.709869 0.489273 1.74773e-23)
(0.680829 0.535781 9.89436e-22)
(0.655291 0.468871 -1.22729e-21)
(0.644971 0.274947 -2.30907e-21)
(0.678482 0.0440953 6.02125e-22)
(0.715741 -0.16548 9.5837e-22)
(0.726376 -0.319423 -1.6151e-21)
(0.689597 -0.410945 9.34024e-22)
(0.665095 -0.420701 -1.07548e-22)
(0.650103 -0.257303 2.19866e-22)
(0.654618 -0.0459746 7.50837e-23)
(0.642134 0.229321 -1.60259e-22)
(0.648027 0.403505 -3.02613e-23)
(0.643614 0.358241 -1.66737e-22)
(0.657772 0.257683 0)
(0.596574 -0.0723659 -1.20604e-22)
(0.556389 -0.309625 1.64271e-22)
(0.559422 -0.109989 0)
(0.946234 -0.208295 7.94813e-20)
(1.00293 -0.33934 -1.53388e-19)
(1.07251 -0.481114 7.30943e-20)
(1.12394 -0.617137 6.20847e-20)
(1.13119 -0.717847 -1.13035e-19)
(1.09301 -0.76339 8.54154e-21)
(1.02765 -0.762567 4.16854e-20)
(0.95331 -0.737644 2.71185e-20)
(0.883887 -0.700424 -2.65204e-20)
(0.820143 -0.662394 0)
(0.756728 -0.629313 -1.51913e-20)
(0.69937 -0.591371 2.81799e-20)
(0.643241 -0.557697 -1.30668e-20)
(0.569402 -0.547929 0)
(0.480181 -0.535563 0)
(0.408268 -0.453413 2.53232e-22)
(0.383619 -0.268047 -1.51405e-20)
(0.412389 -0.022007 1.47e-20)
(0.478914 0.212988 0)
(0.558175 0.394723 1.02584e-20)
(0.634289 0.509578 -1.77387e-20)
(0.704855 0.557493 1.47858e-20)
(0.771886 0.559648 -1.37245e-20)
(0.829878 0.571237 -8.10304e-22)
(0.871215 0.638041 1.62202e-20)
(0.892089 0.733353 -8.87416e-21)
(0.903811 0.761284 -4.16122e-22)
(0.91873 0.637842 -8.84443e-21)
(0.940341 0.359485 -1.26751e-21)
(0.956321 0.00854522 1.00767e-20)
(0.958957 -0.30055 5.59155e-22)
(0.94491 -0.483515 -5.80165e-21)
(0.919581 -0.548601 9.58282e-21)
(0.884437 -0.547224 -4.21752e-21)
(0.843709 -0.516121 0)
(0.774556 -0.480743 -1.59773e-21)
(0.681969 -0.435973 1.53846e-21)
(0.604924 -0.341383 -1.25277e-21)
(0.581987 -0.182183 1.56249e-21)
(0.611474 0.0124949 -1.2943e-22)
(0.672427 0.195678 0)
(0.714662 0.360665 -1.05688e-22)
(0.724097 0.491522 4.34989e-22)
(0.699371 0.546591 0)
(0.675307 0.480922 3.28732e-21)
(0.664369 0.280161 -1.15453e-21)
(0.697621 0.0396888 6.77008e-22)
(0.737162 -0.168141 6.16957e-22)
(0.750693 -0.315169 0)
(0.70831 -0.402066 0)
(0.676682 -0.417843 -3.87471e-22)
(0.658478 -0.259473 3.55689e-22)
(0.663078 -0.0487306 -8.67765e-23)
(0.653229 0.22638 -7.57543e-23)
(0.663614 0.403468 8.90216e-23)
(0.660991 0.358327 1.66917e-22)
(0.678301 0.262843 -4.94578e-22)
(0.617042 -0.0584852 0)
(0.567794 -0.30753 -2.66477e-22)
(0.575033 -0.111719 -1.08352e-23)
(1.09404 -0.249571 7.31134e-20)
(1.15184 -0.372539 -7.23779e-20)
(1.21232 -0.493525 5.48445e-22)
(1.23937 -0.599136 -4.39193e-22)
(1.21795 -0.669438 4.2717e-22)
(1.15864 -0.697391 -3.53677e-22)
(1.08293 -0.693774 5.24396e-22)
(1.00475 -0.675287 0)
(0.930658 -0.648864 -3.41243e-22)
(0.864098 -0.616674 2.73971e-22)
(0.798829 -0.586843 2.21814e-22)
(0.735428 -0.555819 -2.07716e-22)
(0.678855 -0.519131 0)
(0.613693 -0.494968 0)
(0.526237 -0.4846 1.28418e-22)
(0.438479 -0.43867 0)
(0.389382 -0.304778 -1.37489e-22)
(0.395959 -0.094791 0)
(0.448413 0.127865 -8.95236e-21)
(0.522758 0.316801 1.6266e-20)
(0.601231 0.446172 -1.344e-20)
(0.679201 0.507632 6.02606e-21)
(0.755531 0.518388 5.44449e-21)
(0.823876 0.533624 -5.28462e-21)
(0.878002 0.604628 -8.00231e-21)
(0.914302 0.710178 7.836e-21)
(0.940375 0.754995 0)
(0.966491 0.651703 4.61374e-22)
(0.997441 0.390985 0)
(1.01854 0.0458948 0)
(1.02079 -0.270624 1.4793e-20)
(1.00023 -0.462868 -1.54059e-20)
(0.964106 -0.532315 5.7061e-22)
(0.915252 -0.532649 3.8767e-22)
(0.86738 -0.498694 -2.33943e-22)
(0.800099 -0.454929 -1.13672e-21)
(0.706262 -0.409666 1.10359e-21)
(0.62222 -0.330988 -1.15365e-21)
(0.593981 -0.19451 9.77122e-22)
(0.621462 -0.0148144 2.16544e-22)
(0.682711 0.168192 -7.14582e-22)
(0.727945 0.343498 -2.25758e-22)
(0.742941 0.488546 5.78357e-22)
(0.722424 0.55632 0)
(0.701411 0.495373 -1.25585e-21)
(0.69101 0.288666 2.42578e-21)
(0.722335 0.0373916 -3.09401e-21)
(0.761911 -0.170371 -6.21085e-22)
(0.778545 -0.310151 0)
(0.730741 -0.39121 1.50298e-22)
(0.691121 -0.413806 -4.19402e-22)
(0.669312 -0.262278 -2.76622e-23)
(0.674286 -0.0526958 6.35223e-23)
(0.66716 0.221552 -2.01986e-23)
(0.681711 0.402985 -4.35815e-23)
(0.680515 0.358056 0)
(0.701268 0.267838 4.94871e-22)
(0.641989 -0.0432743 0)
(0.583744 -0.304715 0)
(0.593396 -0.11425 2.91319e-23)
(1.25451 -0.284148 -6.57405e-20)
(1.29265 -0.387499 6.46191e-20)
(1.32398 -0.477756 -4.29326e-22)
(1.31594 -0.550643 4.50257e-22)
(1.267 -0.596727 0)
(1.19539 -0.616565 0)
(1.11818 -0.61856 -5.37337e-22)
(1.04376 -0.609612 0)
(0.971702 -0.593678 3.49525e-22)