/*--------------------------------*- C++ -*----------------------------------*\
| =========                 |                                                 |
| \\      /  F ield         | OpenFOAM: The Open Source CFD Toolbox           |
|  \\    /   O peration     | Version:  2312                                  |
|   \\  /    A nd           | Website:  www.openfoam.com                      |
|    \\/     M anipulation  |                                                 |
\*---------------------------------------------------------------------------*/
FoamFile
{
    version     2.0;
    format      ascii;
    arch        "LSB;label=32;scalar=64";
    class       surfaceScalarField;
    location    "31";
    object      phi;
}
// * * * * * * * * * * * * * * * * * * * * * * * * * * * * * * * * * * * * * //

dimensions      [0 3 -1 0 0 0 0];

oriented        oriented;

internalField   nonuniform List<scalar> 
10785
(
-0.000657117
0.00452192
-0.0038648
0.000308506
0.00686119
-0.00782681
0.00508689
0.00332117
-0.00809955
0.0160939
-0.00697419
-0.00403283
0.0349243
-0.0239107
0.00508033
0.0611799
-0.0454264
0.0191708
0.0924922
-0.0685843
0.0372721
0.125545
-0.0908315
0.0577787
0.156828
-0.110394
0.0791105
0.183978
-0.126646
0.0994965
0.204738
-0.139417
0.118657
0.219836
-0.149419
0.134321
0.229537
-0.158567
0.148867
0.235601
-0.165526
0.159461
-0.176443
0.170935
0.24111
-0.00021824
0.00474016
0.00241828
0.00422467
0.0112067
-0.00546722
0.0286128
-0.0243804
0.0539538
-0.0492517
0.0836491
-0.0751217
0.113278
-0.0982133
0.139178
-0.116731
0.159422
-0.130638
0.173751
-0.140974
0.18365
-0.149316
0.191719
-0.157488
0.199117
-0.165965
0.209002
-0.17541
-0.186253
0.218812
0.000595133
0.00414502
0.00606918
-0.00124938
0.0203025
-0.0197005
0.0433501
-0.047428
0.070629
-0.0765306
0.0966885
-0.101181
0.117901
-0.119426
0.133268
-0.132099
0.143924
-0.141294
0.152076
-0.149126
0.159842
-0.157083
0.167782
-0.165428
0.176088
-0.174271
0.18377
-0.183092
-0.19201
0.189527
0.0016443
0.00250072
0.0108947
-0.0104997
0.030231
-0.0390369
0.0549329
-0.0721299
0.0782874
-0.0998851
0.0964617
-0.119355
0.109117
-0.13208
0.118015
-0.140997
0.125237
-0.148516
0.132041
-0.15593
0.138462
-0.163504
0.14445
-0.171417
0.149772
-0.179593
0.154864
-0.188185
-0.197741
0.160594
0.00301712
-0.0005164
0.0163199
-0.0238025
0.0379288
-0.0606458
0.0595386
-0.0937397
0.0762123
-0.116559
0.0875132
-0.130656
0.0952332
-0.1398
0.101192
-0.146956
0.106352
-0.153676
0.110959
-0.160538
0.115308
-0.167852
0.119569
-0.175678
0.123961
-0.183985
0.128645
-0.192869
-0.201835
0.13274
0.0047332
-0.0052496
0.0209676
-0.0400369
0.0410387
-0.0807169
0.0573195
-0.110021
0.068163
-0.127402
0.0750324
-0.137526
0.0797492
-0.144517
0.0834666
-0.150673
0.0867467
-0.156956
0.0899318
-0.163723
0.0930712
-0.170991
0.0960982
-0.178705
0.0989398
-0.186827
0.101356
-0.195285
-0.204203
0.103724
0.00661344
-0.011863
0.0234463
-0.0568697
0.0396675
-0.0969381
0.0507868
-0.12114
0.0573135
-0.133929
0.0611241
-0.141336
0.0636881
-0.147081
0.0657676
-0.152753
0.067646
-0.158835
0.0693177
-0.165395
0.0707742
-0.172448
0.0720629
-0.179994
0.0732295
-0.187993
0.074455
-0.196511
-0.205386
0.0756381
0.00804394
-0.019907
0.0231411
-0.0719669
0.0351298
-0.108927
0.0419977
-0.128008
0.0453377
-0.137269
0.0469426
-0.142941
0.047838
-0.147977
0.0483956
-0.15331
0.0486984
-0.159137
0.0488063
-0.165502
0.048763
-0.172404
0.0485754
-0.179806
0.0482785
-0.187696
0.0477932
-0.196025
0.0472633
-0.204856
-0.000560939
0.0106434
-0.0100825
-0.00263601
0.0222706
-0.0201956
-0.00592988
0.0282477
-0.0249538
-0.00990044
0.0313766
-0.027406
-0.0140991
0.0335008
-0.0293022
-0.0182455
0.0353202
-0.0311739
-0.0221368
0.0368654
-0.032974
-0.0255839
0.0379632
-0.0345161
-0.0284048
0.0384206
-0.0355996
-0.0304371
0.0380536
-0.0360213
-0.0315514
0.0366945
-0.0355802
-0.0317027
0.0342187
-0.0340673
-0.0307558
0.0303071
-0.031254
-0.0290422
0.0251606
-0.0268743
0.0180362
-0.0263859
-0.0206924
0.00057263
0.0100708
0.000480855
0.0223624
-0.000563919
0.0292925
-0.00204549
0.0328581
-0.00335381
0.0348092
-0.00402826
0.0359946
-0.00375054
0.0365877
-0.00227329
0.0364859
0.000609944
0.0355373
0.00503935
0.0336242
0.0112317
0.0305021
0.0189145
0.0265359
0.0286019
0.0206196
0.0395738
0.0141887
0.00516064
0.0524494
0.00151323
0.00855753
0.0034128
0.0204628
0.00491332
0.027792
0.00623774
0.0315337
0.00800532
0.0330416
0.0107948
0.0332052
0.0150147
0.0323678
0.0209143
0.0305863
0.0287157
0.0277358
0.0382913
0.0240487
0.0501669
0.0186265
0.0635326
0.0131702
0.0798639
0.00428837
0.0974982
-0.00344563
-0.0171766
0.119835
0.00195788
0.00659965
0.00530138
0.0171193
0.00897324
0.0241201
0.0128816
0.0276254
0.0174463
0.0284769
0.0231913
0.0274602
0.0305272
0.0250319
0.0396729
0.0214406
0.0508687
0.0165401
0.0640649
0.0108524
0.0799642
0.00272733
0.0981578
-0.00502349
0.121217
-0.0187711
0.146304
-0.028532
-0.0496428
0.17877
0.00179707
0.00480259
0.0055444
0.013372
0.0103644
0.0193001
0.0159553
0.0220345
0.0224583
0.0219738
0.0302101
0.0197085
0.0395652
0.0156767
0.0508987
0.0101071
0.0646618
0.00277698
0.0817879
-0.00627369
0.102866
-0.018351
0.128895
-0.0310525
0.159979
-0.0498548
0.196071
-0.064624
-0.0912259
0.237654
0.00114803
0.00365456
0.00421006
0.01031
0.00881761
0.0146926
0.0146972
0.0161548
0.021897
0.0147741
0.0308085
0.010797
0.0421532
0.00433198
0.0569502
-0.00468986
0.0762571
-0.0165299
0.100922
-0.030939
0.130747
-0.0481753
0.166791
-0.0670965
0.205191
-0.0882551
0.248738
-0.108171
-0.132024
0.289537
0.000260969
0.00339359
0.00199766
0.00857327
0.00552033
0.0111699
0.0110004
0.0106747
0.0190437
0.00673084
0.0307499
-0.000909196
0.0473963
-0.0123144
0.0697978
-0.0270914
0.0982307
-0.0449628
0.131627
-0.0643355
0.168739
-0.0852867
0.207374
-0.105732
0.244618
-0.125499
0.280259
-0.143812
-0.158453
0.306687
-0.00047121
0.000275243
0.00334557
0.00998746
0.0217986
0.0400602
0.0650178
0.0957052
0.129853
0.165014
0.198385
0.226973
0.250341
0.26599
0.278472
-0.0199853
0.0126507
-0.0190512
-0.0121703
-0.0328085
0.0249935
-0.00501637
-0.0811355
0.0739816
-0.00241856
-0.131625
0.129027
-0.00746674
-0.177748
0.182796
-0.0249341
-0.216422
0.233889
-0.0539168
-0.241211
0.270194
-0.0793275
-0.246334
0.271745
-0.068782
-0.181885
0.171339
-0.0238587
-0.114418
0.0694947
0.0224574
-0.0289083
-0.0174079
0.0604306
0.0206508
-0.0586239
0.0978078
0.0173555
-0.0547328
0.127716
0.0144426
-0.0443513
0.153906
-0.00956899
-0.0166209
0.177345
-0.0102765
-0.0131621
0.195988
-0.018785
0.000142329
0.213408
-0.0114004
-0.00601978
0.227512
0.00155073
-0.0156548
0.239154
0.00351996
-0.015162
0.249208
0.0270392
-0.0370934
0.255949
0.0285607
-0.0353011
0.261816
0.0369374
-0.0428046
0.265539
0.0591038
-0.0628274
0.267541
0.0416645
-0.043666
0.269355
0.0685055
-0.0703196
0.269693
0.0727117
-0.0730497
0.270199
0.0540541
-0.0545599
0.270945
0.0915056
-0.0922519
0.270798
0.0761809
-0.0760338
0.270627
0.0729252
-0.0727544
0.271021
0.0708459
-0.0712394
0.26993
0.139608
-0.138517
0.268457
0.0360606
-0.0345876
0.268514
0.0961414
-0.0961987
0.267133
0.175163
-0.173781
0.265039
0.0906242
-0.0885303
0.121625
-0.120158
0.0613228
0.00377721
0.0694865
-0.0409722
0.0756407
-0.0872897
0.0800631
-0.136047
0.080231
-0.177916
0.0719937
-0.208185
0.047824
-0.217041
0.0073105
-0.205821
-0.0132122
-0.161362
-0.00387596
-0.123754
0.0204315
-0.0532157
0.0569928
-0.0159105
0.0927835
-0.0184351
0.125378
-0.0181521
0.152918
-0.0371092
0.174814
-0.0321719
0.191173
-0.035144
0.205574
-0.0258013
0.216879
-0.00975434
0.227232
-0.00683337
0.236964
0.0173069
0.244265
0.0212597
0.251568
0.0296351
0.256625
0.0540465
0.260018
0.0382712
0.263415
0.065109
0.264971
0.071155
0.266742
0.0522835
0.268616
0.0896316
0.269216
0.0755813
0.269609
0.0725321
0.270442
0.0700128
0.269544
0.140506
0.268196
0.0374078
0.268429
0.0959088
0.267135
0.176457
0.265126
0.092633
0.123012
0.129123
-0.00551027
0.136262
-0.0481113
0.14126
-0.0922876
0.144039
-0.138826
0.144136
-0.178013
0.140334
-0.204383
0.131209
-0.207916
0.112335
-0.186947
0.088536
-0.137563
0.0720033
-0.107222
0.0766367
-0.0578492
0.100768
-0.040042
0.128594
-0.0462606
0.156615
-0.046173
0.179896
-0.0603908
0.196524
-0.0488
0.207457
-0.0460767
0.21555
-0.0338939
0.221188
-0.0153923
0.226881
-0.0125264
0.232673
0.0115147
0.237831
0.0161019
0.243875
0.0235908
0.248447
0.0494746
0.252186
0.034532
0.256342
0.0609534
0.25891
0.0685869
0.261938
0.0492555
0.264961
0.0866083
0.266447
0.0740949
0.267541
0.0714385
0.268928
0.0686258
0.268368
0.141066
0.267296
0.0384798
0.267844
0.0953609
0.26679
0.177511
0.265037
0.094386
0.124141
0.19003
-0.01677
0.1983
-0.0563819
0.204087
-0.0980744
0.206872
-0.141611
0.205565
-0.176706
0.199664
-0.198481
0.188443
-0.196695
0.178852
-0.177355
0.169795
-0.128506
0.156382
-0.0938093
0.154415
-0.0558823
0.164578
-0.0502043
0.180862
-0.0625446
0.198706
-0.0640176
0.213084
-0.0747686
0.223052
-0.0587682
0.229029
-0.0520537
0.232456
-0.0373207
0.233875
-0.0168109
0.235243
-0.013895
0.23675
0.0100079
0.238692
0.0141596
0.241822
0.0204609
0.244383
0.0469136
0.247101
0.0318139
0.250688
0.0573671
0.253413
0.0658614
0.257055
0.0456136
0.260751
0.0829125
0.262919
0.0719269
0.264636
0.0697214
0.26658
0.0666818
0.266449
0.141197
0.265774
0.0391544
0.266771
0.0943644
0.266102
0.17818
0.264771
0.0957166
0.124834
0.24807
-0.027186
0.254405
-0.0627172
0.256864
-0.100533
0.255106
-0.139854
0.248687
-0.170288
0.2398
-0.189595
0.227907
-0.184802
0.220028
-0.169477
0.21683
-0.125307
0.212984
-0.0899635
0.21346
-0.056358
0.217351
-0.0540957
0.223912
-0.069105
0.230835
-0.0709406
0.235706
-0.0796394
0.239175
-0.062238
0.241028
-0.0539064
0.24211
-0.0384028
0.242293
-0.0169936
0.242163
-0.0137655
0.241882
0.010289
0.241905
0.0141372
0.24285
0.0195161
0.243515
0.0462484
0.244759
0.0305699
0.247105
0.0550209
0.249216
0.0637506
0.252702
0.0421273
0.256455
0.0791596
0.25892
0.0694617
0.261052
0.0675899
0.263487
0.0642468
0.263834
0.140849
0.263653
0.0393356
0.265224
0.0927932
0.26508
0.178324
0.264333
0.096464
0.124917
0.293857
-0.0315064
0.292521
-0.0613813
0.285952
-0.093964
0.27476
-0.128661
0.259271
-0.154799
0.243598
-0.173922
0.230101
-0.171304
0.2248
-0.164176
0.228524
-0.129031
0.233856
-0.0952954
0.240556
-0.0630584
0.243811
-0.0573508
0.244833
-0.0701268
0.244544
-0.070652
0.243186
-0.0782815
0.242541
-0.061593
0.241784
-0.0531495
0.241861
-0.0384794
0.241928
-0.0170608
0.241922
-0.0137592
0.241847
0.010364
0.241629
0.014355
0.242134
0.0190109
0.24219
0.0461925
0.24264
0.0301197
0.244146
0.0535155
0.245524
0.0623721
0.248502
0.0391494
0.251974
0.0756884
0.254447
0.0669878
0.256815
0.0652221
0.25969
0.061372
0.26056
0.139979
0.260955
0.0389408
0.263223
0.0905249
0.263738
0.17781
0.263727
0.0964748
0.124221
0.303718
-0.0285378
0.294501
-0.0521644
0.279744
-0.0792065
0.261167
-0.110084
0.240781
-0.134413
0.222249
-0.15539
0.208863
-0.157918
0.203219
-0.158532
0.20967
-0.135482
0.221775
-0.1074
0.2352
-0.0764839
0.241666
-0.0638168
0.242229
-0.0706898
0.239832
-0.068255
0.236605
-0.0750539
0.235106
-0.0600947
0.234121
-0.052164
0.23445
-0.0388082
0.23497
-0.0175811
0.235606
-0.0143954
0.236357
0.0096127
0.236505
0.0142073
0.237544
0.0179719
0.237964
0.0457725
0.238474
0.0296097
0.239982
0.0520073
0.241027
0.0613278
0.24363
0.0365457
0.246873
0.0724459
0.249305
0.0645558
0.251858
0.062669
0.25519
0.0580395
0.256654
0.138516
0.257703
0.037891
0.260789
0.0874394
0.262092
0.176506
0.262962
0.0956052
0.122588
0.273515
-0.0235814
0.263609
-0.0422576
0.249208
-0.0648054
0.231716
-0.0925926
0.213636
-0.116333
0.19728
-0.139035
0.186597
-0.147234
0.17878
-0.150716
0.181927
-0.138628
0.192583
-0.118056
0.207515
-0.0914163
0.217342
-0.0736433
0.220832
-0.07418
0.220783
-0.0682067
0.219777
-0.0740471
0.220184
-0.060502
0.220492
-0.0524721
0.22191
-0.0402265
0.223292
-0.018963
0.224773
-0.015876
0.226566
0.00781954
0.227436
0.013337
0.229271
0.0161375
0.230524
0.0445191
0.231621
0.0285129
0.233735
0.0498933
0.234963
0.0601002
0.237524
0.0339848
0.240789
0.0691802
0.243317
0.0620286
0.246124
0.059861
0.249989
0.0541746
0.252143
0.136362
0.253929
0.0361053
0.257948
0.0834207
0.260163
0.174291
0.262046
0.0937223
0.119867
0.48646
-0.0217178
-0.488324
0.485767
-0.0415648
0.481578
-0.0606159
0.472679
-0.0836942
0.459582
-0.103235
0.443161
-0.122613
0.428129
-0.132203
0.413055
-0.135641
0.404002
-0.129576
0.40056
-0.114614
0.405788
-0.0966434
0.411571
-0.0794265
0.414742
-0.0773508
0.413661
-0.0671266
0.40878
-0.0691652
0.403165
-0.0548877
0.396491
-0.0457982
0.390767
-0.034502
0.386084
-0.0142799
0.382762
-0.0125546
0.380444
0.0101381
0.378868
0.0149126
0.377658
0.0173481
0.376853
0.0453239
0.376847
0.0285186
0.37677
0.04997
0.377397
0.059474
0.378484
0.0328975
0.379369
0.0682948
0.380651
0.0607472
0.382134
0.0583775
0.383165
0.0531434
0.384053
0.135474
0.384918
0.0352403
0.386234
0.0821051
0.386599
0.173927
0.386815
0.0935058
0.119095
0.518466
-0.0212939
-0.51889
0.516824
-0.0399234
0.513221
-0.0570123
0.506136
-0.0766097
0.496022
-0.0931208
0.483075
-0.109667
0.470061
-0.119189
0.458234
-0.123814
0.449492
-0.120833
0.4451
-0.110222
0.445724
-0.0972678
0.447549
-0.0812512
0.44778
-0.0775824
0.445456
-0.0648025
0.44014
-0.0638487
0.434264
-0.0490114
0.428107
-0.0396414
0.422735
-0.0291299
0.418374
-0.00991894
0.415479
-0.00965974
0.41386
0.0117573
0.413106
0.0156659
0.412903
0.0175513
0.413194
0.0450334
0.413993
0.0277194
0.414714
0.0492493
0.415592
0.058596
0.416463
0.0320264
0.416899
0.0678588
0.417635
0.0600106
0.4186
0.0574122
0.419262
0.0524813
0.420003
0.134733
0.420846
0.0343975
0.422175
0.0807755
0.422515
0.173587
0.422876
0.0931449
0.118157
0.552588
-0.0226433
-0.551239
0.551531
-0.0388663
0.548462
-0.0539433
0.542744
-0.0708919
0.534497
-0.0848731
0.52403
-0.0991997
0.51309
-0.10825
0.50275
-0.113474
0.49447
-0.112552
0.489651
-0.105403
0.488678
-0.0962948
0.488952
-0.0815255
0.488369
-0.0769996
0.485822
-0.062255
0.480875
-0.0589026
0.475016
-0.0431524
0.468836
-0.0334608
0.463338
-0.0236317
0.45896
-0.00554094
0.455678
-0.00637803
0.453621
0.0138139
0.452569
0.0167182
0.452236
0.0178843
0.45257
0.0446997
0.453549
0.0267398
0.454607
0.0481918
0.455657
0.0575463
0.456474
0.0312089
0.456787
0.0675458
0.457322
0.0594759
0.458014
0.0567198
0.458527
0.0519685
0.459228
0.134032
0.460076
0.0335495
0.461451
0.0794003
0.461823
0.173215
0.462329
0.0926392
0.11706
0.590066
-0.0244026
-0.588307
0.589507
-0.0383077
0.586951
-0.0513874
0.582446
-0.0663866
0.575962
-0.078389
0.567687
-0.090925
0.558429
-0.0989915
0.549483
-0.104529
0.541944
-0.105013
0.536727
-0.100186
0.534158
-0.0937258
0.532625
-0.0799923
0.530341
-0.0747158
0.526968
-0.0588814
0.522114
-0.0540494
0.516976
-0.0380141
0.511769
-0.0282536
0.507161
-0.0190238
0.50304
-0.00142019
0.499726
-0.00306367
0.497503
0.0160367
0.495888
0.0183335
0.495249
0.0185229
0.495466
0.0444828
0.496317
0.0258887
0.497453
0.0470562
0.498533
0.0564659
0.499321
0.0304209
0.499652
0.0672151
0.500145
0.0589826
0.500728
0.0561367
0.501287
0.0514096
0.50203
0.133288
0.502885
0.0326951
0.504384
0.077901
0.504853
0.172747
0.5055
0.0919924
0.115795
0.6316
-0.0262084
-0.629794
0.631698
-0.0384055
0.629954
-0.0496434
0.626502
-0.0629342
0.621413
-0.0733002
0.614905
-0.0844175
0.607464
-0.0915507
0.599943
-0.0970069
0.593188
-0.098258
0.587734
-0.0947325
0.5841
-0.0900917
0.581529
-0.0774213
0.578765
-0.0719521
0.575457
-0.0555738
0.571002
-0.0495939
0.565729
-0.0327411
0.560216
-0.0227404
0.55497
-0.0137782
0.550492
0.00305847
0.546999
0.00042844
0.54453
0.0185061
0.542999
0.0198641
0.542251
0.0192715
0.542297
0.0444364
0.54293
0.0252562
0.543903
0.0460833
0.544858
0.05551
0.545603
0.0296763
0.546034
0.0667844
0.546587
0.0584291
0.547196
0.0555278
0.547959
0.0506471
0.548783
0.132464
0.549632
0.0318465
0.551359
0.0761733
0.55198
0.172126
0.552745
0.091228
0.114357
0.677787
-0.0280317
-0.675964
0.67826
-0.0388781
0.677164
-0.0485479
0.674643
-0.0604129
0.670743
-0.0694005
0.665714
-0.0793878
0.659756
-0.0855932
0.653443
-0.0906936
0.64739
-0.092205
0.64194
-0.0892825
0.637625
-0.0857767
0.634007
-0.0738033
0.630137
-0.0680819
0.625711
-0.0511478
0.620597
-0.0444805
0.615381
-0.0275248
0.610286
-0.0176452
0.605978
-0.00947043
0.60213
0.00690648
0.598836
0.00372297
0.596559
0.0207829
0.594767
0.0216563
0.593825
0.0202133
0.593674
0.0445871
0.594088
0.0248427
0.594962
0.0452085
0.595748
0.0547242
0.59642
0.0290044
0.596918
0.0662861
0.597452
0.057896
0.59806
0.0549193
0.599063
0.0496443
0.599941
0.131585
0.600742
0.0310462
0.602797
0.074118
0.603614
0.171308
0.604459
0.0903835
0.112734
0.729312
-0.0297397
-0.727604
0.729986
-0.0395521
0.729425
-0.0479869
0.727677
-0.0586645
0.724751
-0.0664751
0.720814
-0.0754504
0.716035
-0.0808141
0.710726
-0.0853849
0.70527
-0.0867485
0.699973
-0.0839861
0.695138
-0.0809411
0.690782
-0.0694475
0.68655
-0.0638504
0.682138
-0.0467355
0.677555
-0.0398972
0.67267
-0.0226398
0.667658
-0.0126337
0.662898
-0.00471035
0.65873
0.0110752
0.655212
0.00724039
0.65268
0.0233154
0.650756
0.0235803
0.649768
0.0212006
0.649442
0.0449133
0.649628
0.0246569
0.650364
0.0444721
0.650939
0.0541492
0.651608
0.0283358
0.652302
0.0655917
0.652899
0.0572992
0.653601
0.0542174
0.654947
0.0482981
0.655902
0.130631
0.65663
0.030318
0.65912
0.0716278
0.660178
0.170251
0.661067
0.0894939
0.110889
0.786271
-0.0312839
-0.784727
0.78704
-0.0403211
0.786831
-0.0477783
0.785658
-0.0574916
0.783479
-0.0642957
0.780424
-0.0723955
0.776556
-0.0769463
0.772064
-0.0808931
0.767173
-0.0818568
0.762103
-0.0789168
0.757222
-0.0760592
0.752533
-0.064759
0.747834
-0.0591516
0.742803
-0.0417046
0.737465
-0.0345586
0.732338
-0.0175136
0.727315
-0.00761067
0.723183
-0.000578449
0.719432
0.0148272
0.716334
0.010338
0.713987
0.0256621
0.712059
0.0255084
0.711033
0.0222265
0.710557
0.0453899
0.710584
0.0246299
0.711292
0.043764
0.711713
0.0537281
0.712368
0.0276805
0.713196
0.0647639
0.713758
0.0567374
0.714483
0.0534918
0.716147
0.0466343
0.717162
0.129616
0.717781
0.0296986
0.720792
0.0686173
0.722124
0.168919
0.723042
0.0885756
0.108777
0.849359
-0.0326643
-0.847979
0.850145
-0.0411073
0.850154
-0.0477874
0.849377
-0.0567146
0.847742
-0.0626599
0.84531
-0.0699635
0.842097
-0.0737338
0.838203
-0.0769991
0.833803
-0.0774562
0.829
-0.0741146
0.824118
-0.0711764
0.819024
-0.0596656
0.813878
-0.0540055
0.808636
-0.0364629
0.803674
-0.0295961
0.798949
-0.0127892
0.794229
-0.00289006
0.789964
0.00368582
0.786241
0.0185503
0.783011
0.0135683
0.78067
0.0280035
0.77861
0.0275683
0.777574
0.023262
0.776971
0.0459929
0.776793
0.0248083
0.777453
0.0431037
0.777718
0.0534629
0.778402
0.0269965
0.779471
0.0636958
0.780108
0.0561001
0.780964
0.0526353
0.78301
0.0445882
0.784146
0.12848
0.784701
0.0291439
0.788288
0.0650301
0.789942
0.167266
0.790894
0.0876229
0.106318
0.918907
-0.0338355
-0.917736
0.919617
-0.0418172
0.919699
-0.0478693
0.919138
-0.0561539
0.91783
-0.0613511
0.915809
-0.0679433
0.913053
-0.0709777
0.909598
-0.0735443
0.905562
-0.0734199
0.900988
-0.069541
0.896082
-0.0662697
0.890863
-0.0544467
0.885642
-0.0487848
0.880347
-0.0311676
0.875041
-0.0242899
0.870105
-0.00785296
0.865494
0.00172014
0.86154
0.00764067
0.857979
0.022111
0.8551
0.0164475
0.852947
0.0301559
0.851011
0.0295044
0.850079
0.0241938
0.849455
0.0466174
0.849209
0.0250539
0.849966
0.0423468
0.850195
0.0532344
0.850933
0.0262586
0.852212
0.062416
0.852867
0.0554453
0.853773
0.0517293
0.856175
0.0421866
0.857507
0.127148
0.857899
0.0287519
0.862139
0.0607906
0.864194
0.16521
0.865238
0.0865787
0.103522
0.995453
-0.0347805
-0.994508
0.996022
-0.0423865
0.996077
-0.0479241
0.995579
-0.0556559
0.994429
-0.0602015
0.992618
-0.0661316
0.990109
-0.068469
0.98688
-0.0703158
0.983044
-0.0695833
0.978539
-0.0650359
0.973653
-0.0613845
0.968353
-0.049146
0.962939
-0.0433709
0.957528
-0.0257564
0.952313
-0.0190757
0.947705
-0.0032445
0.943332
0.00609284
0.939686
0.0112871
0.936408
0.0253892
0.93371
0.0191455
0.931776
0.0320892
0.929905
0.0313761
0.929098
0.0250009
0.928492
0.0472226
0.928179
0.0253676
0.928961
0.0415647
0.929146
0.0530486
0.929941
0.0254644
0.931485
0.0608718
0.932247
0.0546832
0.93336
0.050616
0.936148
0.0393988
0.937626
0.125669
0.938154
0.0282239
0.942986
0.0559594
0.94548
0.162716
0.946621
0.085438
0.100135
1.0795
-0.035473
-1.0788
1.07987
-0.0427591
1.07978
-0.0478392
1.07921
-0.0550803
1.07803
-0.0590251
1.07625
-0.0643484
1.07379
-0.0660136
1.07065
-0.0671713
1.06688
-0.065817
1.06247
-0.0606258
1.05764
-0.056548
1.05232
-0.0438328
1.04697
-0.0380161
1.04157
-0.0203605
1.03642
-0.0139216
1.03177
0.00140144
1.02757
0.0102933
1.02422
0.014643
1.02122
0.0283821
1.01882
0.0215507
1.01717
0.0337385
1.01551
0.033039
1.01493
0.0255757
1.01451
0.047643
1.01424
0.0256344
1.01528
0.0405326
1.01557
0.052756
1.01646
0.0245749
1.01832
0.0590116
1.01919
0.053811
1.02035
0.0494572
1.02355
0.0361993
1.02554
0.123679
1.0257
0.0280619
1.03134
0.0503185
1.03451
0.159548
1.03586
0.0840928
0.0964231
1.17161
-0.0358529
-1.17123
1.17168
-0.0428348
1.17135
-0.047504
1.17054
-0.054275
1.16916
-0.057644
1.16717
-0.062354
1.16451
-0.0633558
1.16115
-0.0638066
1.15716
-0.0618309
1.15252
-0.0559882
1.14746
-0.0514897
1.14204
-0.038406
1.1366
-0.0325808
1.1314
-0.0151602
1.12658
-0.00909849
1.12239
0.00558785
1.11857
0.0141111
1.11563
0.0175913
1.11304
0.0309635
1.11107
0.0235222
1.10985
0.034964
1.10853
0.0343526
1.1083
0.0258099
1.10811
0.0478298
1.10807
0.0256803
1.10927
0.0393288
1.10972
0.0523118
1.11083
0.0234613
1.11303
0.0568135
1.11409
0.0527475
1.11564
0.0479078
1.11922
0.0326221
1.12136
0.121534
1.12202
0.0274005
1.12823
0.0441092
1.13201
0.155774
1.13357
0.0825266
0.0917401
1.27226
-0.0358866
-1.27223
1.272
-0.0425787
1.27132
-0.0468228
1.27019
-0.0531437
1.2685
-0.055956
1.26625
-0.0600973
1.26333
-0.0604374
1.25975
-0.0602288
1.25557
-0.057653
1.2508
-0.0512109
1.24564
-0.0463372
1.24013
-0.0328934
1.23474
-0.0271859
1.22945
-0.00987261
1.22459
-0.00424092
1.22065
0.00952848
1.21725
0.0175157
1.21487
0.0199628
1.21293
0.0329068
1.21148
0.0249764
1.21085
0.0355947
1.20995
0.0352447
1.21009
0.0256718
1.21035
0.0475707
1.21041
0.0256199
1.21209
0.0376507
1.21284
0.0515596
1.21406
0.0222398
1.21672
0.0541544
1.21799
0.0514766
1.21955
0.0463544
1.22356
0.0286039
1.22672
0.118383
1.2267
0.027416
1.23383
0.0369766
1.23879
0.150819
1.24066
0.0806546
0.0868038
1.38209
-0.0353826
-1.38259
1.3812
-0.0416914
1.37985
-0.0454767
1.37797
-0.0512637
1.37547
-0.0534517
1.37234
-0.0569668
1.36855
-0.0566503
1.36415
-0.0558259
1.35922
-0.0527219
1.35384
-0.0458361
1.34826
-0.0407553
1.34266
-0.0272968
1.33737
-0.0218935
1.33273
-0.00523314
1.32879
-0.000303379
1.32554
0.0127851
1.32285
0.0202047
1.32117
0.0216425
1.31994
0.034137
1.31925
0.0256642
1.31936
0.0354876
1.31914
0.0354596
1.31999
0.0248226
1.3208
0.0467621
1.32151
0.0249075
1.32361
0.0355539
1.32477
0.0504027
1.32648
0.0205271
1.32968
0.0509578
1.3313
0.0498498
1.33352
0.0441356
1.33791
0.0242151
1.34139
0.1149
1.34223
0.0265802
1.34985
0.0293511
1.35583
0.144848
1.35817
0.0783122
0.080464
1.50183
-0.0342744
-1.50294
1.50035
-0.0402068
1.49834
-0.0434666
1.49579
-0.0487135
1.49259
-0.0502557
1.48879
-0.0531646
1.4843
-0.0521589
1.47925
-0.0507825
1.47373
-0.0471963
1.46789
-0.0400018
1.46196
-0.0348194
1.45615
-0.0214908
1.45089
-0.0166282
1.44618
-0.0005237
1.44239
0.00348754
1.43995
0.0152233
1.43821
0.021942
1.43756
0.0222917
1.43749
0.0342036
1.43765
0.025513
1.43871
0.0344286
1.4393
0.0348598
1.44074
0.0233827
1.44232
0.045191
1.44313
0.0240974
1.44598
0.0327025
1.4479
0.0484773
1.44979
0.0186406
1.45364
0.0471066
1.45552
0.0479738
1.45771
0.0419454
1.46235
0.0195704
1.46751
0.109743
1.46752
0.0265647
1.4759
0.0209725
1.48385
0.136896
1.48663
0.0755312
0.0739487
1.63025
-0.0316549
-1.63287
1.62693
-0.0368862
1.62298
-0.0395151
1.61829
-0.0440306
1.61297
-0.0449292
1.60702
-0.0472202
1.6006
-0.0457393
1.59389
-0.0440721
1.58705
-0.0403569
1.58042
-0.0333682
1.57417
-0.0285716
1.56885
-0.0161634
1.56441
-0.0121923
1.56149
0.00239166
1.5594
0.00558033
1.55868
0.0159452
1.5587
0.0219174
1.55971
0.0212867
1.5613
0.0326092
1.56302
0.0237992
1.56557
0.0318804
1.56742
0.0330024
1.56995
0.0208558
1.57279
0.04235
1.57462
0.0222721
1.57814
0.0291772
1.58105
0.0455706
1.58343
0.016262
1.58824
0.0422913
1.59091
0.0453056
1.59376
0.0390934
1.59847
0.0148634
1.6051
0.103111
1.60588
0.0257889
1.61387
0.0129812
1.62446
0.126303
1.62842
0.0715689
0.0659582
1.7721
-0.027434
-1.77633
1.76705
-0.0318303
1.7612
-0.0336627
1.75453
-0.0373661
1.7472
-0.0376007
1.7394
-0.0394199
1.73138
-0.0377201
1.72345
-0.0361342
1.71591
-0.0328213
1.70913
-0.0265852
1.703
-0.0224482
1.69834
-0.0114978
1.69474
-0.00859881
1.69291
0.00422564
1.69231
0.00617696
1.69337
0.0148841
1.69488
0.0204139
1.69747
0.0186964
1.70091
0.0291711
1.70344
0.02127
1.70697
0.0283503
1.71031
0.0296622
1.71373
0.0174288
1.71725
0.0388356
1.71868
0.0208351
1.72327
0.0245948
1.72819
0.0406505
1.73114
0.0133116
1.73679
0.0366391
1.7394
0.0426974
1.7422
0.0362868
1.74649
0.01058
1.75579
0.0938107
1.75618
0.0253956
1.76409
0.00507631
1.77792
0.11247
1.78258
0.0669038
0.0577416
1.9195
-0.0176306
-1.9293
1.90798
-0.0203159
1.89557
-0.021256
1.882
-0.0237927
1.8684
-0.0239978
1.85469
-0.0257108
1.84223
-0.0252595
1.83094
-0.0248479
1.82182
-0.0237021
1.81531
-0.0200727
1.81056
-0.0176961
1.80947
-0.0104114
1.80966
-0.00878927
1.81301
0.000876921
1.8174
0.0017907
1.82349
0.0087966
1.82988
0.0140214
1.83582
0.0127519
1.84423
0.0207583
1.84881
0.0166962
1.85461
0.0225447
1.86162
0.0226604
1.86521
0.0138329
1.87192
0.0321276
1.8732
0.0195516
1.87803
0.0197719
1.8884
0.0302811
1.89082
0.0108849
1.89621
0.0312532
1.90145
0.0374525
1.9033
0.0344383
1.90256
0.0113243
1.9205
0.0758679
1.92335
0.0225464
1.92142
0.00700802
1.94372
0.0901711
1.95517
0.055452
0.0497568
2.08677
-0.00936914
-2.09503
2.07701
-0.0105514
2.06691
-0.011165
2.05563
-0.0125117
2.04474
-0.0131036
2.03331
-0.014278
2.02295
-0.0149041
2.01324
-0.0151404
2.00501
-0.0154696
1.99908
-0.0141417
1.9947
-0.013317
1.99414
-0.00985201
1.99415
-0.00879837
1.99848
-0.00345639
2.00264
-0.00236867
2.00936
0.00208204
2.01749
0.00589131
2.02371
0.00652708
2.0335
0.0109698
2.03936
0.0108351
2.04727
0.0146321
2.05533
0.0146016
2.05747
0.0116969
2.06847
0.0211266
2.07185
0.0161755
2.07551
0.0161122
2.08597
0.0198208
2.08496
0.0118892
2.09095
0.0252637
2.10251
0.0258898
2.10706
0.0298944
2.10313
0.0152527
2.13002
0.0489824
2.13207
0.0204925
2.12112
0.0179526
2.15103
0.0602651
2.16683
0.0396478
0.043251
2.28611
-0.00678013
-2.2887
2.28308
-0.00752616
2.27996
-0.00804604
2.27615
-0.00870078
2.27214
-0.00909402
2.26733
-0.00946317
2.26209
-0.00965955
2.25639
-0.00944591
2.25027
-0.00934659
2.24448
-0.00835324
2.23903
-0.00786683
2.23514
-0.00596645
2.23156
-0.00521799
2.23069
-0.00257975
2.22983
-0.00151165
2.23104
0.000870662
2.23394
0.00299134
2.23649
0.00397756
2.24083
0.00662611
2.24477
0.00689553
2.25038
0.00902844
2.25523
0.00974811
2.25789
0.00904233
2.26599
0.0130214
2.2713
0.0108625
2.27547
0.0119478
2.28132
0.0139706
2.2827
0.0105069
2.29018
0.0177821
2.30059
0.0154848
2.30931
0.0211758
2.31236
0.0121999
2.3312
0.0301398
2.33516
0.0165325
2.33645
0.0166597
2.35865
0.0380719
2.37132
0.0269753
0.0315371
2.49228
-0.00284164
-2.49622
2.48786
-0.003102
2.48314
-0.00333341
2.47802
-0.00357728
2.47272
-0.003788
2.4672
-0.00395062
2.46166
-0.00411249
2.45631
-0.00410202
2.45113
-0.00416712
2.44666
-0.00388246
2.44257
-0.0037744
2.43975
-0.00314996
2.43738
-0.00284555
2.43672
-0.00192388
2.43657
-0.00135404
2.43787
-0.000434678
2.4403
0.000558658
2.44317
0.00111032
2.44747
0.00233038
2.45163
0.00272982
2.45696
0.00370552
2.46237
0.0043382
2.46707
0.00433787
2.47413
0.00595695
2.47959
0.0054027
2.48548
0.0060634
2.49251
0.00694214
2.49716
0.00585466
2.50582
0.00912491
2.51368
0.00762613
2.52361
0.0112376
2.52867
0.00714198
2.54453
0.0142843
2.55148
0.00958344
2.55799
0.010142
2.57805
0.0180196
2.59079
0.0142353
0.017289
2.72791
-2.73075
2.7248
2.72147
2.71789
2.71411
2.71016
2.70604
2.70194
2.69777
2.69389
2.69012
2.68697
2.68412
2.6822
2.68084
2.68041
2.68097
2.68208
2.68441
2.68714
2.69084
2.69518
2.69952
2.70548
2.71088
2.71694
2.72388
2.72974
2.73886
2.74649
2.75773
2.76487
2.77915
2.78874
2.79888
2.8169
2.83113
0.422531
0.0403356
-0.415603
0.43054
0.0676296
0.437956
0.0963084
0.447311
0.123384
0.455529
0.152376
0.467166
0.17789
0.479428
0.206549
0.232214
0.457098
0.0336151
-0.450377
0.464217
0.0605101
0.471742
0.0887834
0.479879
0.115247
0.489011
0.143244
0.497768
0.169133
0.508773
0.195545
0.222098
0.495253
0.0279213
-0.489559
0.501161
0.0546018
0.508077
0.0818679
0.514834
0.10849
0.522967
0.135112
0.530971
0.161128
0.540573
0.185943
0.211432
0.536278
0.0227905
-0.531148
0.541443
0.0494371
0.547625
0.0756863
0.554078
0.102037
0.561586
0.127603
0.569695
0.15302
0.578534
0.177104
0.20166
0.581344
0.0184884
-0.577041
0.586169
0.0446119
0.591752
0.0701027
0.597908
0.0958821
0.604787
0.120724
0.61237
0.145436
0.620595
0.168878
0.192461
0.630486
0.0148086
-0.626806
0.634804
0.040294
0.63978
0.0651263
0.645521
0.0901411
0.651906
0.114339
0.659147
0.138194
0.667073
0.160952
0.18357
0.684065
0.0116528
-0.680909
0.688034
0.0363255
0.692651
0.0605088
0.698118
0.0846739
0.70427
0.108188
0.711288
0.131177
0.718991
0.153249
0.174957
0.742803
0.00895633
-0.740106
0.746378
0.0327504
0.750672
0.0562149
0.755875
0.0794712
0.761817
0.102246
0.76865
0.124343
0.776223
0.145676
0.166454
0.806827
0.00660478
-0.804475
0.810119
0.0294578
0.814209
0.0521252
0.819252
0.0744281
0.825103
0.0963948
0.831884
0.117562
0.83946
0.138099
0.157935
0.876919
0.00457979
-0.874894
0.879952
0.026424
0.883872
0.0482059
0.888805
0.069495
0.89463
0.09057
0.901437
0.110755
0.909099
0.130437
0.149299
0.953435
0.00281659
-0.951672
0.956279
0.0235796
0.960106
0.0443792
0.965008
0.0645935
0.970884
0.084694
0.977799
0.103839
0.985643
0.122593
0.140434
1.03707
0.00129994
-1.03555
1.03975
0.0208961
1.04352
0.0406116
1.04844
0.0596729
1.05442
0.0787102
1.06152
0.0967423
1.06962
0.114493
0.131252
1.12845
-2.15515e-06
-1.12715
1.13102
0.0183289
1.13477
0.0368588
1.13976
0.0546876
1.1459
0.0725683
1.15323
0.0894101
1.16165