/*--------------------------------*- C++ -*----------------------------------*\
| =========                 |                                                 |
| \\      /  F ield         | OpenFOAM: The Open Source CFD Toolbox           |
|  \\    /   O peration     | Version:  2312                                  |
|   \\  /    A nd           | Website:  www.openfoam.com                      |
|    \\/     M anipulation  |                                                 |
\*---------------------------------------------------------------------------*/
FoamFile
{
    version     2.0;
    format      ascii;
    arch        "LSB;label=32;scalar=64";
    class       volVectorField;
    location    "115.4";
    object      U;
}
// * * * * * * * * * * * * * * * * * * * * * * * * * * * * * * * * * * * * * //

dimensions      [0 1 -1 0 0 0 0];

internalField   nonuniform List<vector> 
5478
(
(-0.0470305 0.0303137 -1.03477e-19)
(-0.0754818 0.04796 0)
(-0.0356028 0.0461226 1.54169e-19)
(0.0946693 0.0344921 -2.68998e-19)
(0.322112 0.0183506 1.74254e-19)
(0.610181 0.0047641 -5.22516e-20)
(0.900075 -0.00496162 -8.95469e-20)
(1.14211 -0.01423 0)
(1.3079 -0.0259053 0)
(1.38905 -0.0445863 1.16258e-19)
(1.40242 -0.0669431 -5.34487e-20)
(1.37571 -0.0897468 -8.77319e-20)
(1.34071 -0.121107 -3.35096e-20)
(1.31879 -0.123098 0)
(1.28228 -0.181259 8.46408e-20)
(-0.0554866 0.034058 2.0799e-19)
(-0.0560926 0.0420153 0)
(0.0547903 0.0277779 0)
(0.296427 0.0125205 -1.36667e-19)
(0.621467 0.00715551 1.79411e-19)
(0.937871 0.00969488 5.10406e-20)
(1.18025 0.0126745 -8.70705e-20)
(1.32582 0.0104368 7.72114e-20)
(1.38388 -0.000795896 1.89474e-19)
(1.38672 -0.0175859 -1.65471e-19)
(1.36773 -0.0369347 3.95453e-21)
(1.34812 -0.0581772 0)
(1.33068 -0.0722436 3.34507e-20)
(1.30216 -0.0894944 0)
(1.26794 -0.105968 0)
(-0.0551824 0.0305352 -6.04885e-22)
(-0.00605803 0.0267857 -9.82736e-20)
(0.213631 0.0119338 8.42704e-22)
(0.570953 0.0140737 0)
(0.927041 0.0285112 -6.11722e-20)
(1.18495 0.0414678 5.14872e-20)
(1.32535 0.0453052 4.30792e-20)
(1.3754 0.0385914 0)
(1.37863 0.0259635 -6.29672e-20)
(1.36687 0.010738 5.29728e-20)
(1.35146 -0.00509802 4.42874e-20)
(1.33134 -0.0181204 0)
(1.3026 -0.0349173 0)
(1.27483 -0.0431465 -8.96626e-20)
(1.24849 -0.0625244 7.98844e-20)
(-0.0432162 0.0209371 -1.1516e-19)
(0.0885328 0.00562247 9.69158e-20)
(0.444466 0.0118138 -8.36645e-20)
(0.856341 0.0421561 7.38607e-20)
(1.15701 0.0686271 1.22882e-19)
(1.31632 0.0799437 -1.0256e-19)
(1.37472 0.0776024 -4.3058e-20)
(1.38344 0.0680976 3.35716e-20)
(1.37331 0.0555981 -3.20813e-20)
(1.35468 0.0419413 0)
(1.33117 0.0287149 0)
(1.30554 0.0131649 -6.26758e-20)
(1.28414 0.00205134 8.12615e-20)
(1.2632 -0.0109512 -4.56446e-20)
(1.24048 -0.0247828 0)
(-0.0159909 0.0081964 5.8377e-20)
(0.240938 -0.00575712 4.91386e-20)
(0.705055 0.0403698 -1.76788e-19)
(1.08384 0.0892628 2.66895e-21)
(1.29215 0.114123 -1.92099e-21)
(1.37375 0.118435 -1.79176e-21)
(1.38952 0.111809 4.10131e-20)
(1.37741 0.100528 3.46626e-20)
(1.35505 0.087304 2.50645e-20)
(1.33136 0.0737209 -3.81314e-21)
(1.3095 0.0594208 -5.71191e-20)
(1.29017 0.0474361 0)
(1.26848 0.0351415 2.57759e-20)
(1.24544 0.0225546 -1.90445e-20)
(1.22321 0.0142738 3.43163e-20)
(0.0341356 -0.00397416 -1.26769e-19)
(0.443334 0.0112609 1.36874e-19)
(0.933845 0.0924542 -4.69253e-20)
(1.23504 0.144102 3.51032e-20)
(1.36313 0.161101 -6.47996e-20)
(1.39396 0.158608 -4.79634e-20)
(1.38336 0.147811 1.42916e-21)
(1.36062 0.13416 0)
(1.33759 0.11995 5.08828e-20)
(1.31576 0.105522 -4.5249e-20)
(1.29415 0.0922411 1.81024e-20)
(1.27115 0.0783883 0)
(1.24982 0.0658028 1.10971e-20)
(1.23053 0.0538507 -1.94613e-20)
(1.2123 0.0446667 0)
(0.1114 -0.0063496 -1.59018e-20)
(0.653441 0.0630168 1.39411e-21)
(1.10618 0.158848 2.29349e-20)
(1.32564 0.203325 3.83773e-20)
(1.39201 0.210193 -2.92218e-20)
(1.39022 0.200464 4.91019e-20)
(1.36779 0.185671 -1.11177e-20)
(1.34227 0.169931 0)
(1.31701 0.153885 -2.99909e-20)
(1.29302 0.138382 1.99647e-21)
(1.27079 0.122962 2.49818e-20)
(1.25139 0.109098 0)
(1.23277 0.0960564 -1.61847e-20)
(1.21432 0.0832023 0)
(1.19632 0.0762744 9.85817e-21)
(0.210985 0.00835752 -1.74024e-20)
(0.832141 0.137779 0)
(1.2224 0.233796 2.40978e-20)
(1.3694 0.265319 0)
(1.39281 0.260742 0)
(1.37334 0.244245 0)
(1.34474 0.225404 -9.50707e-21)
(1.3168 0.20636 0)
(1.29201 0.18787 6.05652e-21)
(1.27007 0.170066 0)
(1.24992 0.153742 -7.8169e-21)
(1.23007 0.137931 0)
(1.2116 0.123151 5.0819e-21)
(1.1952 0.110513 0)
(1.1805 0.101377 3.299e-21)
(-0.00259074 0.168849 -1.31058e-20)
(-0.011171 0.34361 0)
(-0.0353125 0.411829 2.03703e-20)
(-0.0625192 0.435888 0)
(-0.0862477 0.449906 0)
(-0.102089 0.458723 0)
(-0.106886 0.456003 -1.41643e-20)
(-0.0986001 0.435585 0)
(-0.0763135 0.393607 1.2616e-20)
(-0.0398502 0.328339 0)
(0.00740151 0.240489 -2.24295e-20)
(0.0617998 0.131236 0)
(0.12474 0.00463797 1.90698e-20)
(0.178149 -0.146836 0)
(0.262197 -0.310238 1.47704e-20)
(-0.010393 0.153851 6.58425e-20)
(-0.0159202 0.34256 -4.66015e-20)
(-0.0214329 0.428025 2.05861e-20)
(-0.0272525 0.457355 7.35355e-20)
(-0.0273727 0.466329 1.12135e-21)
(-0.016803 0.464795 -6.12481e-20)
(0.00751017 0.449437 4.18756e-20)
(0.0466136 0.41543 0)
(0.0995666 0.360087 3.99403e-20)
(0.164809 0.28338 2.88093e-21)
(0.23738 0.187999 -2.17594e-20)
(0.308235 0.0698393 0)
(0.398925 -0.0499526 -5.7125e-20)
(0.453058 -0.207413 0)
(0.57401 -0.363537 -7.24075e-20)
(-0.0153335 0.121853 1.05992e-19)
(-0.0215561 0.309186 2.27434e-20)
(-0.0107977 0.411882 -4.08551e-20)
(0.00492205 0.450718 -1.09809e-19)
(0.0287295 0.457331 6.47748e-20)
(0.0646868 0.44657 6.14708e-20)
(0.11504 0.420103 -1.08772e-19)
(0.17989 0.375698 0)
(0.256714 0.31291 -1.01949e-19)
(0.341466 0.228269 9.06417e-20)
(0.431441 0.138808 4.23988e-20)
(0.514354 0.019004 0)
(0.62786 -0.0879869 3.80368e-20)
(0.700876 -0.248432 -6.41249e-20)
(0.858627 -0.393242 0)
(-0.0164609 0.082526 5.23982e-20)
(-0.0280789 0.248409 -1.38089e-19)
(-0.00928992 0.360235 1.61053e-19)
(0.0227151 0.410135 -1.404e-19)
(0.0667286 0.419125 -6.17523e-20)
(0.124078 0.403193 5.56682e-20)
(0.194943 0.36891 5.42909e-20)
(0.278175 0.317175 4.74126e-20)
(0.369235 0.252575 -1.39648e-19)
(0.466425 0.167429 -4.73451e-21)
(0.569712 0.0865051 3.71797e-20)
(0.681067 -0.0316547 0)
(0.82184 -0.137079 6.57195e-20)
(0.938705 -0.295645 1.83438e-19)
(1.11636 -0.417447 -1.05975e-19)
(-0.0152361 0.0478412 -3.90967e-22)
(-0.0348992 0.17671 9.00666e-20)
(-0.018786 0.280954 -7.78528e-20)
(0.0195886 0.334733 6.96143e-20)
(0.075875 0.346855 1.20727e-19)
(0.147682 0.330177 -1.08154e-19)
(0.232582 0.293786 -4.76574e-20)
(0.328233 0.241392 -1.40912e-19)
(0.435354 0.179352 1.27491e-19)
(0.559146 0.10137 0)
(0.703122 0.0179483 0)
(0.86689 -0.097547 1.3914e-19)
(1.04659 -0.192748 -3.1278e-19)
(1.18792 -0.339439 1.09791e-19)
(1.32275 -0.401413 0)
(-0.015434 0.0258524 6.13623e-22)
(-0.0435721 0.114061 -8.87337e-20)
(-0.037412 0.193897 2.32125e-19)
(-0.00184178 0.238339 -6.72111e-20)
(0.0581526 0.24809 -5.9022e-20)
(0.139171 0.231735 5.25291e-20)
(0.241973 0.197317 4.76915e-20)
(0.371137 0.149712 8.73718e-20)
(0.531428 0.0891022 -1.55155e-19)
(0.718892 0.0169853 7.18623e-20)
(0.925439 -0.0638826 6.56284e-20)
(1.12342 -0.155506 0)
(1.28976 -0.229474 0)
(1.38535 -0.326252 1.77564e-19)
(1.40482 -0.346342 -1.57716e-19)
(-0.0213264 0.0185879 -1.72247e-22)
(-0.0573842 0.0727367 0)
(-0.0607127 0.120458 0)
(-0.0267272 0.145807 1.29437e-19)
(0.0451495 0.146992 -5.76271e-20)
(0.160246 0.12842 4.97206e-20)
(0.324003 0.0953896 9.08351e-20)
(0.531829 0.0531281 -8.05329e-20)
(0.765596 0.00114206 7.76577e-20)
(1.00162 -0.0502037 -7.19316e-20)
(1.20581 -0.111871 -6.32865e-21)
(1.35577 -0.160762 0)
(1.42695 -0.216149 4.36169e-20)
(1.41965 -0.261134 0)
(1.36075 -0.268871 0)
(-0.0336341 0.0225549 -1.00928e-19)
(-0.0725005 0.0535905 0)
(-0.0697128 0.072007 -1.51199e-19)
(-0.0106968 0.0767955 2.63308e-19)
(0.117358 0.0663412 -2.84783e-19)
(0.316829 0.0450474 -4.98112e-20)
(0.568654 0.0191247 8.86115e-20)
(0.836135 -0.00835072 0)
(1.08157 -0.0367383 0)
(1.27236 -0.0660673 -1.27645e-19)
(1.38715 -0.100406 -5.62372e-20)
(1.42611 -0.128791 9.83847e-20)
(1.39847 -0.168684 -4.37106e-20)
(1.34673 -0.186576 0)
(1.3062 -0.207361 -1.03209e-19)
(0.371541 -0.577548 0)
(0.475003 -0.743642 3.59486e-21)
(0.526091 -0.757762 -3.30567e-21)
(0.331298 -0.807906 0)
(0.231826 -0.654827 0)
(0.486185 -0.112005 -9.58565e-23)
(0.65704 0.337293 0)
(0.785332 0.523893 0)
(0.852584 0.558631 5.60978e-23)
(0.774089 0.606546 0)
(0.637177 0.634256 0)
(0.697935 0.304527 -1.01836e-22)
(0.832978 -0.0165521 0)
(0.965556 -0.21577 -9.48648e-23)
(0.951256 -0.483639 -9.04579e-23)
(0.98576 -0.517127 0)
(0.98405 -0.52385 -4.74143e-22)
(0.997108 -0.238741 5.74862e-22)
(1.00399 0.201443 0)
(1.05285 0.384405 4.83709e-22)
(1.08639 0.63657 -5.71898e-22)
(1.08843 0.343503 1.12432e-22)
(1.05677 -0.160726 -2.17927e-22)
(1.11079 -0.346352 2.08233e-22)
(1.0807 -0.56763 -1.99544e-22)
(1.15964 -0.185434 0)
(1.15696 0.676631 -2.45104e-22)
(1.09817 0.455983 2.34359e-22)
(1.00566 -0.32128 -1.62955e-22)
(1.01763 -0.257748 0)
(1.01173 0.049012 -6.35579e-23)
(0.956634 0.097853 0)
(1.00747 0.0234927 -4.07582e-23)
(0.948965 -0.0386058 -1.41132e-23)
(0.95695 -0.0106114 1.01178e-24)
(0.969499 0.0163448 -7.72355e-24)
(0.924426 0.00873684 0)
(0.913197 0.00623679 1.33401e-24)
(0.653077 -0.639026 2.6665e-20)
(0.670013 -0.827473 -1.30118e-22)
(0.70277 -0.75537 -8.916e-21)
(0.568519 -0.695318 8.50446e-21)
(0.293316 -0.653139 0)
(0.374193 -0.229187 9.66065e-23)
(0.552006 0.227558 -1.12292e-22)
(0.738265 0.452727 0)
(0.823521 0.558841 -5.6524e-23)
(0.71495 0.664459 0)
(0.596223 0.654358 0)
(0.702443 0.262191 1.02566e-22)
(0.849532 -0.0777744 0)
(1.01044 -0.240237 3.17538e-21)
(0.977686 -0.488666 -2.66627e-21)
(1.00695 -0.532541 2.17453e-21)
(1.0144 -0.52792 -2.0757e-21)
(0.988853 -0.2446 -1.22896e-22)
(1.00266 0.187772 0)
(1.01598 0.361435 0)
(1.06274 0.625354 -1.09548e-22)
(1.08755 0.352129 9.0506e-22)
(1.0505 -0.157173 -1.5873e-21)
(1.13435 -0.352106 7.79149e-22)
(1.08535 -0.568256 6.08535e-22)
(1.12742 -0.199006 0)
(1.1558 0.676875 6.21099e-22)
(1.11626 0.467324 0)
(1.02416 -0.311379 1.63523e-22)
(1.02513 -0.262293 -1.99117e-22)
(1.00658 0.0530325 3.22164e-22)
(0.958472 0.097235 -3.76025e-23)
(1.01685 0.0244323 6.96868e-23)
(0.953985 -0.0348603 5.55581e-24)
(0.955329 -0.0121176 1.4748e-23)
(0.973793 0.0181115 -6.99902e-24)
(0.932687 0.0120455 -4.80955e-25)
(0.918496 0.00695743 4.79818e-25)
(0.927828 -0.630992 4.11756e-20)
(0.884208 -0.807612 -6.68567e-20)
(0.793155 -0.755799 9.53395e-21)
(0.743408 -0.597761 1.61792e-20)
(0.467984 -0.585703 1.35959e-22)
(0.369652 -0.325853 -8.62522e-23)
(0.514732 0.0997746 1.14229e-22)
(0.702195 0.373213 -1.76261e-22)
(0.813306 0.562911 0)
(0.7192 0.713118 7.94428e-21)
(0.615161 0.672734 -7.57771e-21)
(0.746053 0.234935 -2.92149e-22)
(0.884579 -0.133194 0)
(1.04743 -0.251963 -6.29969e-21)
(1.00774 -0.468153 5.82529e-21)
(1.02159 -0.538023 -2.27113e-21)
(1.03589 -0.528929 2.16711e-21)
(0.977175 -0.25342 2.69858e-21)
(0.999114 0.178557 -2.30389e-21)
(0.97788 0.34747 0)
(1.03481 0.612068 0)
(1.08344 0.364318 1.43201e-21)
(1.04429 -0.145126 -1.36693e-21)
(1.14809 -0.352446 -1.56197e-21)
(1.07966 -0.561152 -4.97587e-22)
(1.08094 -0.219762 1.89447e-21)
(1.14866 0.672503 3.03807e-23)
(1.13022 0.486283 -6.79603e-22)
(1.03712 -0.291201 1.39237e-21)
(1.02983 -0.263624 -1.08932e-21)
(0.998851 0.0568108 4.46708e-23)
(0.956952 0.0959499 -1.08083e-22)
(1.02322 0.0255724 5.23453e-23)
(0.957024 -0.0300957 -5.00489e-23)
(0.950872 -0.013523 -8.6275e-24)
(0.97545 0.0191617 -5.90808e-24)
(0.939331 0.0152483 1.18324e-23)
(0.922333 0.00785629 1.37393e-24)
(1.13051 -0.62033 0)
(1.087 -0.714491 2.54071e-20)
(0.879748 -0.712679 -2.49706e-20)
(0.805456 -0.534638 0)
(0.645354 -0.477886 -1.39739e-22)
(0.463827 -0.377383 8.86188e-23)
(0.572191 -0.039435 0)
(0.730679 0.269345 2.61891e-23)
(0.788605 0.537735 -2.09229e-22)
(0.657023 0.758393 0)
(0.613963 0.702641 -9.8485e-21)
(0.804925 0.225887 9.68716e-21)
(0.934747 -0.175228 -5.50944e-22)
(1.08038 -0.26711 -6.4004e-21)
(1.048 -0.448097 6.10264e-21)
(1.0408 -0.543846 3.02715e-22)
(1.05242 -0.531818 0)
(0.969578 -0.267185 -2.90936e-22)
(0.999297 0.155134 4.94358e-21)
(0.93935 0.32095 -7.99063e-22)
(0.994714 0.588634 -9.64608e-22)
(1.06842 0.375834 -2.39046e-21)
(1.03874 -0.131383 -2.44319e-21)
(1.15129 -0.351994 2.95031e-21)
(1.06782 -0.550094 -4.13401e-22)
(1.02671 -0.243131 0)
(1.12939 0.645572 -6.66592e-22)
(1.13265 0.49527 6.88587e-22)
(1.04367 -0.270918 -1.33587e-21)
(1.03222 -0.264891 1.03124e-21)
(0.989011 0.058837 -1.50495e-22)
(0.952211 0.093306 0)
(1.02635 0.0263422 -4.99709e-23)
(0.958072 -0.0245914 9.18928e-23)
(0.944026 -0.0148438 2.85879e-23)
(0.974642 0.0194158 2.80069e-23)
(0.944289 0.0182628 -1.18407e-23)
(0.924827 0.00891767 6.74436e-27)
(1.25164 -0.568638 5.32053e-22)
(1.16621 -0.606718 8.80651e-22)
(0.971247 -0.615938 0)
(0.806579 -0.510588 0)
(0.753899 -0.399145 0)
(0.595995 -0.384908 0)
(0.638717 -0.170684 3.86476e-21)
(0.776053 0.178668 -9.61843e-21)
(0.798607 0.527166 6.15e-21)
(0.70412 0.777747 0)
(0.703769 0.705482 -1.00888e-20)
(0.886005 0.227012 9.87529e-21)
(1.00095 -0.200041 8.93284e-21)
(1.10684 -0.278041 -7.53905e-21)
(1.07883 -0.418594 5.50112e-21)
(1.05106 -0.53721 -5.55361e-21)
(1.05573 -0.532044 -2.73199e-22)
(0.956016 -0.285854 -5.45031e-21)
(0.990505 0.142527 5.19462e-21)
(0.901536 0.312705 5.66828e-22)
(0.95886 0.568258 3.85239e-22)
(1.05223 0.387536 1.96128e-21)
(1.03701 -0.112791 -2.1652e-21)
(1.1451 -0.345365 -6.13569e-22)
(1.05412 -0.533887 -3.72054e-22)
(0.962718 -0.272268 -6.81832e-22)
(1.10546 0.621719 0)
(1.13291 0.515217 0)
(1.0456 -0.243295 0)
(1.03255 -0.263417 0)
(0.977988 0.0609076 3.90161e-22)
(0.945108 0.0902292 -2.26497e-22)
(1.02653 0.026999 9.55024e-23)
(0.957334 -0.0183104 -2.66317e-22)
(0.935447 -0.0159556 2.80866e-23)
(0.971727 0.0188871 5.08014e-24)
(0.947597 0.0210304 -1.5116e-23)
(0.926165 0.0101177 -3.58326e-24)
(1.29728 -0.461139 -5.60389e-22)
(1.16596 -0.499342 4.53279e-20)
(1.03097 -0.506478 -4.35851e-20)
(0.839313 -0.470252 -2.14437e-20)
(0.789431 -0.373255 2.04231e-20)
(0.722912 -0.366753 9.74128e-21)
(0.684143 -0.272463 -9.08849e-21)
(0.793179 0.0526327 1.52676e-22)
(0.799874 0.443235 -2.22007e-22)
(0.66865 0.753199 0)
(0.670154 0.737639 -2.91766e-22)
(0.90646 0.273813 2.10758e-20)
(1.05513 -0.187756 -2.00547e-20)
(1.13562 -0.273966 -4.47732e-22)
(1.10993 -0.3864 0)
(1.06553 -0.522129 -5.09292e-21)
(1.05216 -0.531147 9.95716e-21)
(0.941161 -0.307376 -4.51618e-21)
(0.979322 0.1088 0)
(0.869449 0.283968 3.42108e-21)
(0.91269 0.536899 -1.7139e-21)
(1.02234 0.400355 -2.37798e-21)
(1.03525 -0.09119 -2.51379e-21)
(1.13345 -0.335189 2.4191e-21)
(1.0421 -0.514233 -4.36454e-21)
(0.902067 -0.300635 -1.58777e-21)
(1.06987 0.573437 6.16579e-21)
(1.11775 0.524564 -1.86677e-21)
(1.0413 -0.218869 1.77464e-21)
(1.03132 -0.26238 -4.42364e-22)
(0.965945 0.0612889 4.20671e-22)
(0.935928 0.0861543 0)
(1.02383 0.0272006 9.15835e-23)
(0.95496 -0.0115216 -1.5222e-23)
(0.925851 -0.0169025 0)
(0.967173 0.0175689 -2.80184e-23)
(0.949372 0.0234864 9.42731e-24)
(0.926573 0.0114189 -1.06167e-24)
(1.2725 -0.357395 0)
(1.16482 -0.402971 0)
(1.06183 -0.426833 -1.45838e-22)
(0.924599 -0.415525 0)
(0.82093 -0.349347 0)
(0.796042 -0.345261 1.0595e-20)
(0.722314 -0.336565 -1.00786e-20)
(0.737542 -0.0523623 1.15175e-20)
(0.755363 0.4125 -1.09401e-20)
(0.68865 0.750685 0)
(0.770479 0.708295 -2.21558e-22)
(0.976216 0.269032 2.93428e-22)
(1.10876 -0.189081 -1.80818e-20)
(1.1625 -0.276499 3.42582e-21)
(1.12721 -0.359263 1.28224e-20)
(1.07533 -0.497606 1.67632e-22)
(1.04367 -0.524131 -1.28865e-22)
(0.919045 -0.335376 1.16647e-20)
(0.960319 0.0906317 -1.14307e-20)
(0.833356 0.281137 0)
(0.879671 0.517701 0)
(1.00176 0.40635 -1.01201e-22)
(1.03669 -0.0705362 0)
(1.12215 -0.317307 2.47818e-21)
(1.03195 -0.488212 2.34776e-21)
(0.841871 -0.331246 -4.16909e-21)
(1.03892 0.53473 -5.25416e-21)
(1.10553 0.542865 3.43023e-21)
(1.03674 -0.185713 -1.18915e-22)
(1.03025 -0.258581 0)
(0.954358 0.0626053 -2.41512e-22)
(0.925987 0.0820489 2.2898e-22)
(1.01892 0.0270645 5.0785e-23)
(0.95137 -0.00426504 2.42454e-23)
(0.916049 -0.0176038 -3.59687e-23)
(0.961545 0.0155905 1.06322e-23)
(0.949807 0.0256237 0)
(0.926293 0.012786 2.72679e-24)
(1.25358 -0.28181 6.33187e-20)
(1.19034 -0.325203 4.6921e-20)
(1.09324 -0.367509 -9.21265e-21)
(0.999006 -0.38097 -5.83121e-20)
(0.888142 -0.336156 2.35662e-20)
(0.819324 -0.33255 -1.04408e-22)
(0.752093 -0.357364 0)
(0.673054 -0.193832 -7.39592e-23)
(0.670009 0.210123 -1.17431e-22)
(0.649122 0.632663 0)
(0.666684 0.745588 -1.59424e-20)
(0.908435 0.382603 1.50771e-20)
(1.12709 -0.115136 3.07679e-22)
(1.19246 -0.248603 1.34369e-20)
(1.14806 -0.320623 -1.27555e-20)
(1.09091 -0.467582 1.5057e-22)
(1.03626 -0.506818 1.37133e-22)
(0.90335 -0.363048 0)
(0.927868 0.0412335 1.16216e-20)
(0.802421 0.243027 -1.10057e-20)
(0.833954 0.477507 -2.46065e-21)
(0.956471 0.420957 8.52423e-22)
(1.03399 -0.0375708 1.50585e-21)
(1.11762 -0.296985 -2.15398e-21)
(1.01534 -0.453721 -2.23518e-21)
(0.804122 -0.365308 1.07716e-20)
(0.994351 0.468707 -4.89335e-21)
(1.07756 0.5507 1.80958e-21)
(1.02763 -0.154358 -1.33481e-21)
(1.02835 -0.253829 0)
(0.942539 0.0617164 0)
(0.915308 0.077234 0)
(1.01209 0.0265643 3.40428e-23)
(0.946996 0.00306619 -4.72381e-23)
(0.906834 -0.0182109 3.72535e-23)
(0.955335 0.0128913 -2.54689e-23)
(0.949091 0.0273572 -9.13173e-24)
(0.925567 0.0141497 0)
(1.24064 -0.192722 0)
(1.20254 -0.226471 0)
(1.12558 -0.248048 0)
(1.04187 -0.28162 0)
(0.969416 -0.237293 0)
(0.892412 -0.210461 0)
(0.785673 -0.276916 0)
(0.615023 -0.177531 0)
(0.513177 0.216112 0)
(0.510373 0.604813 0)
(0.681177 0.636389 0)
(1.06635 0.285572 0)
(1.21222 -0.137088 0)
(1.21993 -0.227992 0)
(1.16239 -0.254131 0)
(1.10913 -0.413887 0)
(1.02882 -0.504483 0)
(0.888218 -0.389183 0)
(0.891204 0.0242757 0)
(0.765411 0.252464 0)
(0.793627 0.459364 0)
(0.944303 0.414359 0)
(1.0471 -0.0306382 0)
(1.12557 -0.282825 0)
(0.986523 -0.442517 0)
(0.779444 -0.385101 0)
(0.962424 0.413856 0)
(1.04726 0.572401 0)
(1.02244 -0.137299 0)
(1.02621 -0.247342 0)
(0.930846 0.0663009 0)
(0.904265 0.072472 0)
(1.00255 0.0253589 0)
(0.941382 0.0122601 0)
(0.897058 -0.0182236 0)
(0.947303 0.00944324 0)
(0.947055 0.0292829 0)
(0.924496 0.0158698 0)
(1.17985 -0.155358 0)
(1.14648 -0.198484 0)
(1.08667 -0.232911 0)
(1.00573 -0.256984 0)
(0.925728 -0.213903 0)
(0.878872 -0.215642 0)
(0.829308 -0.219782 0)
(0.685402 -0.039364 0)
(0.564985 0.263183 0)
(0.628641 0.500974 0)
(0.915335 0.446522 0)
(1.22977 0.134745 0)
(1.26751 -0.170237 0)
(1.21177 -0.213113 0)
(1.12916 -0.271505 0)
(1.07464 -0.418099 0)
(0.966154 -0.430598 0)
(0.819939 -0.306296 0)
(0.820189 0.0819041 0)
(0.659421 0.288013 0)
(0.741909 0.438041 0)
(0.940556 0.345705 0)
(1.06877 -0.0829638 0)
(1.11836 -0.27878 0)
(0.921969 -0.370387 0)
(0.703741 -0.350662 0)
(0.910176 0.400928 0)
(0.989166 0.549227 0)
(1.02325 -0.14839 0)
(1.02505 -0.228608 0)
(0.911572 0.0874571 0)
(0.888001 0.063794 0)
(0.990504 0.020242 0)
(0.935399 0.022327 0)
(0.888544 -0.0186177 0)
(0.938854 0.00441846 0)
(0.944089 0.0309026 0)
(0.92379 0.0177491 0)
(1.14218 -0.112931 0)
(1.12221 -0.147551 0)
(1.0806 -0.153016 0)
(1.01932 -0.172252 0)
(0.958357 -0.140422 0)
(0.920601 -0.118952 0)
(0.849189 -0.134741 0)
(0.749477 0.0155371 0)
(0.738986 0.249752 0)
(0.869763 0.347353 0)
(1.10911 0.256855 0)
(1.28569 0.0773192 0)
(1.25533 -0.138951 0)
(1.17926 -0.171166 0)
(1.1364 -0.19253 0)
(1.08384 -0.328595 0)
(0.922378 -0.373821 0)
(0.742815 -0.284204 0)
(0.706542 0.115463 0)
(0.551971 0.288754 0)
(0.70133 0.347081 0)
(0.94513 0.272461 0)
(1.09194 -0.0858723 0)
(1.11247 -0.242399 0)
(0.88163 -0.312724 0)
(0.618117 -0.348561 0)
(0.814012 0.351246 0)
(0.94164 0.517942 0)
(1.03759 -0.145693 0)
(1.02101 -0.213398 0)
(0.893002 0.101631 0)
(0.87775 0.0521774 0)
(0.981584 0.0145255 0)
(0.93089 0.0337246 0)
(0.884125 -0.0186052 0)
(0.93333 -0.00162815 0)
(0.941817 0.0319756 0)
(0.924313 0.0195966 0)
(1.11019 -0.0803507 0)
(1.09425 -0.106829 0)
(1.06188 -0.11679 0)
(1.01897 -0.131651 0)
(0.966164 -0.109435 0)
(0.942241 -0.0927266 0)
(0.901832 -0.0800741 0)
(0.833491 0.0327301 0)
(0.872415 0.168322 0)
(1.00813 0.223444 0)
(1.15101 0.155684 0)
(1.22442 0.0324293 0)
(1.21256 -0.0973008 0)
(1.14396 -0.124922 0)
(1.08296 -0.210444 0)
(1.01888 -0.305367 0)
(0.864239 -0.263429 0)
(0.680613 -0.186372 0)
(0.58706 0.174021 0)
(0.551427 0.278082 0)
(0.726547 0.252002 0)
(0.963432 0.172887 0)
(1.10128 -0.13611 0)
(1.08493 -0.204561 0)
(0.857347 -0.207593 0)
(0.552766 -0.301991 0)
(0.709475 0.296797 0)
(0.93197 0.46085 0)
(1.0642 -0.161904 0)
(1.01354 -0.187551 0)
(0.873917 0.124077 0)
(0.871978 0.0394981 0)
(0.97553 0.00746303 0)
(0.928215 0.0457633 0)
(0.884967 -0.0187155 0)
(0.932179 -0.00829262 0)
(0.940518 0.0327922 0)
(0.926194 0.0212809 0)
(1.08401 -0.0560356 0)
(1.07484 -0.0779594 0)
(1.053 -0.0790538 0)
(1.02211 -0.0901108 0)
(0.987705 -0.072144 0)
(0.967707 -0.0516983 0)
(0.942357 -0.0411891 0)
(0.91104 0.03502 0)
(0.946061 0.103199 0)
(1.03214 0.127595 0)
(1.12541 0.0983806 0)
(1.15928 0.029854 0)
(1.15209 -0.0903596 0)
(1.11311 -0.0923835 0)
(1.0855 -0.126967 0)
(1.01346 -0.214317 0)
(0.870936 -0.172878 0)
(0.73085 -0.119796 0)
(0.608459 0.189574 0)
(0.704951 0.222452 0)
(0.842 0.14192 0)
(1.01561 0.0960856 0)
(1.1044 -0.13521 0)
(1.05887 -0.153156 0)
(0.89267 -0.117584 0)
(0.57914 -0.265491 0)
(0.636362 0.215562 0)
(0.954597 0.387834 0)
(1.09847 -0.162578 0)
(0.995915 -0.15474 0)
(0.846842 0.144818 0)
(0.8726 0.0218518 0)
(0.975554 -0.00120063 0)
(0.930094 0.0580407 0)
(0.892264 -0.0194957 0)
(0.936763 -0.015301 0)
(0.942756 0.0337132 0)
(0.931221 0.0227883 0)
(1.06761 -0.036123 0)
(1.06047 -0.052527 0)
(1.04587 -0.0513122 0)
(1.02646 -0.0601055 0)
(1.00044 -0.0469879 0)
(0.9887 -0.0327906 0)
(0.973586 -0.0236566 0)
(0.96051 0.0256847 0)
(0.989004 0.054091 0)
(1.03227 0.0757456 0)
(1.08546 0.053477 0)
(1.11754 0.0101327 0)
(1.11205 -0.0561407 0)
(1.06625 -0.0639933 0)
(1.05315 -0.127867 0)
(0.99304 -0.182245 0)
(0.89239 -0.0856571 0)
(0.818676 -0.0476814 0)
(0.737046 0.17239 0)
(0.901268 0.16653 0)
(0.975384 0.0877735 0)
(1.07066 0.0464585 0)
(1.09508 -0.147911 0)
(1.00896 -0.122483 0)
(0.940534 -0.0189727 0)
(0.712243 -0.178545 0)
(0.623758 0.134452 0)
(0.976941 0.278627 0)
(1.11983 -0.170383 0)
(0.959381 -0.102526 0)
(0.820989 0.168307 0)
(0.89337 -0.00354006 0)
(0.983005 -0.011781 0)
(0.935278 0.0711757 0)
(0.906843 -0.0205761 0)
(0.948254 -0.0225044 0)
(0.949937 0.0348825 0)
(0.939782 0.0242378 0)
(1.0549 -0.0214671 0)
(1.05048 -0.0336489 0)
(1.04107 -0.032239 0)
(1.02941 -0.0378175 0)
(1.01118 -0.0305564 0)
(1.00601 -0.018807 0)
(0.994941 -0.0139755 0)
(0.993194 0.0167889 0)
(1.00823 0.0268361 0)
(1.0303 0.0413891 0)
(1.06414 0.0250625 0)
(1.07797 0.00523899 0)
(1.07705 -0.0484579 0)
(1.05306 -0.0483668 0)
(1.05236 -0.0734176 0)
(0.977806 -0.117696 0)
(0.910547 -0.0355881 0)
(0.897743 -0.0226347 0)
(0.862255 0.130634 0)
(1.01276 0.102966 0)
(1.03893 0.0406187 0)
(1.09155 0.0310447 0)
(1.0973 -0.100945 0)
(0.969603 -0.0855745 0)
(0.966829 0.0214537 0)
(0.892689 -0.105685 0)
(0.727684 0.0811421 0)
(1.00897 0.182862 0)
(1.12401 -0.159099 0)
(0.92774 -0.045894 0)
(0.838083 0.175113 0)
(0.942831 -0.0351213 0)
(0.993479 -0.0193364 0)
(0.944084 0.0846195 0)
(0.933873 -0.023307 0)
(0.965575 -0.0293522 0)
(0.957707 0.0368773 0)
(0.950961 0.0257039 0)
(1.04556 -0.0114915 0)
(1.04412 -0.0193339 0)
(1.03744 -0.0189499 0)
(1.03191 -0.0221797 0)
(1.01852 -0.0188604 0)
(1.01705 -0.0108189 0)
(1.00874 -0.00969105 0)
(1.01079 0.00957691 0)
(1.01803 0.00946901 0)
(1.02952 0.0214805 0)
(1.04802 0.007912 0)
(1.05491 -0.00252178 0)
(1.0592 -0.0308909 0)
(1.02845 -0.0368785 0)
(1.03769 -0.054965 0)
(0.981743 -0.0838984 0)
(0.945462 -0.012893 0)
(0.948036 -0.0146427 0)
(0.935705 0.0840215 0)
(1.04237 0.0643632 0)
(1.04078 0.0315589 0)
(1.06845 0.015753 0)
(1.07363 -0.0792092 0)
(0.968139 -0.0623245 0)
(0.977043 0.0258943 0)
(0.985079 -0.054257 0)
(0.859381 0.0664472 0)
(1.03849 0.113177 0)
(1.09449 -0.141532 0)
(0.908754 0.00775254 0)
(0.902158 0.168996 0)
(1.00211 -0.0596636 0)
(0.99535 -0.0192899 0)
(0.957612 0.0954185 0)
(0.974867 -0.0273236 0)
(0.981476 -0.032432 0)
(0.964286 0.0402769 0)
(0.968064 0.0262618 0)
(1.03892 -0.00474278 0)
(1.03927 -0.00936193 0)
(1.0349 -0.0103745 0)
(1.03232 -0.0116909 0)
(1.02322 -0.0117062 0)
(1.02325 -0.00591306 0)
(1.01728 -0.00728237 0)
(1.01951 0.00446996 0)
(1.02303 0.00123489 0)
(1.02702 0.00907239 0)
(1.03949 -0.00052191 0)
(1.03707 -0.00581028 0)
(1.04445 -0.0221165 0)
(1.02103 -0.0296879 0)
(1.03124 -0.02951 0)
(0.988586 -0.052435 0)
(0.972266 -0.000395355 0)
(0.975823 -0.0108436 0)
(0.969703 0.052943 0)
(1.03439 0.0385375 0)
(1.0321 0.0175226 0)
(1.05547 0.0137564 0)
(1.05209 -0.0449555 0)
(0.978352 -0.0375715 0)
(0.984482 0.0223632 0)
(1.00931 -0.0353282 0)
(0.93427 0.0440661 0)
(1.05628 0.0809613 0)
(1.0567 -0.106743 0)
(0.910689 0.0371053 0)
(0.983361 0.145292 0)
(1.04899 -0.0688824 0)
(0.989366 -0.0096021 0)
(0.98444 0.0984822 0)
(1.02255 -0.0306001 0)
(0.990852 -0.0288809 0)
(0.978645 0.0432571 0)
(0.994808 0.0250038 0)
(1.03388 -0.000387695 0)
(1.03514 -0.00301463 0)
(1.03247 -0.00470868 0)
(1.0314 -0.00524679 0)
(1.02586 -0.00663327 0)
(1.02549 -0.00303518 0)
(1.0223 -0.00537265 0)
(1.02248 0.00146018 0)
(1.02543 -0.00230935 0)
(1.02446 0.00227755 0)
(1.03355 -0.00362258 0)
(1.02702 -0.00768929 0)
(1.036 -0.0132166 0)
(1.01589 -0.0225372 0)
(1.02352 -0.0164618 0)
(0.997441 -0.0357083 0)
(0.988823 0.00313368 0)
(0.993084 -0.00937925 0)
(0.987599 0.0313545 0)
(1.02805 0.0228699 0)
(1.02321 0.0114886 0)
(1.03699 0.00844832 0)
(1.03761 -0.0293773 0)
(0.991433 -0.0258563 0)
(0.994328 0.0154175 0)
(1.01871 -0.0187172 0)
(0.959715 0.0285418 0)
(1.05319 0.0583067 0)
(1.03445 -0.0759057 0)
(0.928557 0.0413233 0)
(1.03867 0.113952 0)
(1.06522 -0.061834 0)
(0.977512 0.000977812 0)
(1.01847 0.0881737 0)
(1.05499 -0.0292546 0)
(0.990918 -0.0198453 0)
(0.998592 0.0411476 0)
(1.02123 0.0214963 0)
(1.02992 0.00225877 0)
(1.03134 0.000691236 0)
(1.03015 -0.00105358 0)
(1.02945 -0.00139616 0)
(1.0265 -0.00321534 0)
(1.02548 -0.00126261 0)
(1.02437 -0.00357644 0)
(1.02289 -3.99819e-05 0)
(1.02577 -0.00296564 0)
(1.02218 -0.000991939 0)
(1.02928 -0.00397204 0)
(1.02169 -0.00754776 0)
(1.0287 -0.00788566 0)
(1.01491 -0.0176006 0)
(1.01922 -0.00702828 0)
(1.00525 -0.0236091 0)
(0.998886 0.00513775 0)
(1.00395 -0.00720825 0)
(0.99767 0.0192829 0)
(1.02261 0.0126946 0)
(1.01882 0.00606492 0)
(1.02758 0.00712972 0)
(1.02832 -0.0150783 0)
(1.00108 -0.0136666 0)
(0.997688 0.0113493 0)
(1.02071 -0.00788882 0)
(0.975821 0.0146107 0)
(1.04276 0.0443346 0)
(1.02704 -0.0438606 0)
(0.945111 0.0330586 0)
(1.05466 0.0826963 0)
(1.06117 -0.0427106 0)
(0.972276 0.00769308 0)
(1.04238 0.0690092 0)
(1.06141 -0.0203429 0)
(0.990349 -0.00881902 0)
(1.01528 0.0337021 0)
(1.03607 0.0173272 0)
(1.02672 0.00373878 0)
(1.02793 0.00268974 0)
(1.02765 0.00120745 0)
(1.02702 0.000736636 0)
(1.02571 -0.000823481 0)
(1.02434 -0.00010055 0)
(1.02438 -0.00189187 0)
(1.02214 -0.000443542 0)
(1.02471 -0.00233919 0)
(1.0206 -0.00201438 0)
(1.02565 -0.0029685 0)
(1.01905 -0.00655845 0)
(1.02407 -0.00403026 0)
(1.01512 -0.0126778 0)
(1.01673 -0.00204141 0)
(1.0103 -0.0158458 0)
(1.00471 0.005342 0)
(1.01014 -0.00646552 0)
(1.00375 0.0123093 0)
(1.01994 0.00598278 0)
(1.01571 0.00416591 0)
(1.02084 0.00494481 0)
(1.02108 -0.00915758 0)
(1.00773 -0.00621558 0)
(1.00103 0.00589582 0)
(1.0216 7.26307e-05 0)
(0.987857 0.00878211 0)
(1.02882 0.0302637 0)
(1.02681 -0.0221619 0)
(0.963703 0.0235855 0)
(1.04956 0.0570708 0)
(1.05006 -0.02266 0)
(0.978819 0.00833975 0)
(1.04925 0.0486105 0)
(1.05262 -0.00817031 0)
(0.995939 -0.00122115 0)
(1.0249 0.0234316 0)
(1.03959 0.0135325 0)
(1.02393 0.00446901 0)
(1.02478 0.00370619 0)
(1.02507 0.00253337 0)
(1.02449 0.00196933 0)
(1.02407 0.000804511 0)
(1.02266 0.00074643 0)
(1.02313 -0.000400499 0)
(1.02095 -0.000260047 0)
(1.02296 -0.0011354 0)
(1.01932 -0.00189251 0)
(1.02278 -0.00158335 0)
(1.01772 -0.00499067 0)
(1.02096 -0.00151657 0)
(1.01526 -0.00892428 0)
(1.0158 0.000527685 0)
(1.0129 -0.0107499 0)
(1.00878 0.00519292 0)
(1.01324 -0.00565538 0)
(1.00752 0.00875276 0)
(1.01804 0.0020871 0)
(1.01392 0.0030764 0)
(1.01789 0.00429018 0)
(1.017 -0.00506235 0)
(1.01151 0.000644393 0)
(1.00411 0.00276051 0)
(1.01996 0.00452906 0)
(0.997348 0.00663332 0)
(1.02184 0.0198922 0)
(1.02467 -0.00513931 0)
(0.980747 0.0170764 0)
(1.03989 0.0371939 0)
(1.0395 -0.00569662 0)
(0.991237 0.00762213 0)
(1.04575 0.0330046 0)
(1.04181 0.00372637 0)
(1.00501 0.00356016 0)
(1.02883 0.0149907 0)
(1.03784 0.0113769 0)
(1.0214 0.00468269 0)
(1.02197 0.00414639 0)
(1.02252 0.0032535 0)
(1.02198 0.00264755 0)
(1.022 0.00188634 0)
(1.02076 0.0013577 0)
(1.02135 0.000840216 0)
(1.01952 0.000185915 0)
(1.021 0.000117073 0)
(1.01814 -0.00127114 0)
(1.02044 -0.000235687 0)
(1.01678 -0.0034047 0)
(1.01893 4.69937e-05 0)
(1.01522 -0.00590638 0)
(1.01547 0.00173712 0)
(1.01408 -0.00724138 0)
(1.01123 0.0048835 0)
(1.01451 -0.00500763 0)
(1.00989 0.00691104 0)
(1.01684 -0.000158662 0)
(1.01309 0.00299101 0)
(1.01601 0.00374103 0)
(1.01471 -0.00337372 0)
(1.01286 0.00470468 0)
(1.00742 -0.000101519 0)
(1.01824 0.00706268 0)
(1.0037 0.00614821 0)
(1.01825 0.0116964 0)
(1.02117 0.00448832 0)
(0.995633 0.0113029 0)
(1.03189 0.0236574 0)
(1.03109 0.00546884 0)
(1.00285 0.00512348 0)
(1.03972 0.0219518 0)
(1.03382 0.0121465 0)
(1.01314 0.00514896 0)
(1.02984 0.00814921 0)
(1.03509 0.00966562 0)
(1.01914 0.00461296 0)
(1.01945 0.00425695 0)
(1.02012 0.00358462 0)
(1.01961 0.0030126 0)
(1.01989 0.00258388 0)
(1.01883 0.00183184 0)
(1.01945 0.00178568 0)
(1.01797 0.000715069 0)
(1.01911 0.00118187 0)
(1.01694 -0.00048913 0)
(1.01857 0.000847941 0)
(1.01593 -0.00195239 0)
(1.01749 0.00102991 0)
(1.01494 -0.00360924 0)
(1.01526 0.00223643 0)
(1.01443 -0.00477384 0)
(1.01259 0.00446325 0)
(1.01492 -0.00415996 0)
(1.01123 0.00594193 0)
(1.01605 -0.00119592 0)
(1.01255 0.00322924 0)