/*--------------------------------*- C++ -*----------------------------------*\
| =========                 |                                                 |
| \\      /  F ield         | OpenFOAM: The Open Source CFD Toolbox           |
|  \\    /   O peration     | Version:  2312                                  |
|   \\  /    A nd           | Website:  www.openfoam.com                      |
|    \\/     M anipulation  |                                                 |
\*---------------------------------------------------------------------------*/
FoamFile
{
    version     2.0;
    format      ascii;
    arch        "LSB;label=32;scalar=64";
    class       volScalarField;
    location    "56";
    object      p;
}
// * * * * * * * * * * * * * * * * * * * * * * * * * * * * * * * * * * * * * //

dimensions      [0 2 -2 0 0 0 0];

internalField   nonuniform List<scalar> 
32230
(
-0.511279
-0.510928
-0.509839
-0.508123
-0.505937
-0.503465
-0.500923
-0.49854
-0.496531
-0.495071
-0.49429
-0.494248
-0.494928
-0.49623
-0.497971
-0.499885
-0.501644
-0.502877
-0.503206
-0.502282
-0.499816
-0.495614
-0.489582
-0.481729
-0.472148
-0.460993
-0.448449
-0.434709
-0.419957
-0.404355
-0.388049
-0.371142
-0.353755
-0.33579
-0.317463
-0.297508
-0.276629
-0.51381
-0.513514
-0.512432
-0.510712
-0.508524
-0.506047
-0.503483
-0.501039
-0.498905
-0.497233
-0.496114
-0.49557
-0.495541
-0.495879
-0.496359
-0.496695
-0.496563
-0.495634
-0.493615
-0.490273
-0.485459
-0.479115
-0.471264
-0.461996
-0.45144
-0.439744
-0.427055
-0.41351
-0.399231
-0.384321
-0.368871
-0.352948
-0.336609
-0.31985
-0.302726
-0.284899
-0.267105
-0.51739
-0.517028
-0.51589
-0.514138
-0.511942
-0.509471
-0.506903
-0.504417
-0.502164
-0.500253
-0.498731
-0.497569
-0.496659
-0.495817
-0.494802
-0.493341
-0.491162
-0.488026
-0.483755
-0.478243
-0.471464
-0.463452
-0.454292
-0.444093
-0.432971
-0.42104
-0.408403
-0.39515
-0.381363
-0.367112
-0.352465
-0.337469
-0.322198
-0.306631
-0.290929
-0.274793
-0.258589
-0.52203
-0.521483
-0.52022
-0.51839
-0.516156
-0.513669
-0.511078
-0.508518
-0.506095
-0.503861
-0.501807
-0.499852
-0.49785
-0.495604
-0.492891
-0.489496
-0.485238
-0.47999
-0.473693
-0.466348
-0.458006
-0.448747
-0.438666
-0.42786
-0.416416
-0.404411
-0.391914
-0.378986
-0.365681
-0.352052
-0.338149
-0.324022
-0.309728
-0.295291
-0.28086
-0.266205
-0.251827
-0.527706
-0.526856
-0.525394
-0.523426
-0.521098
-0.518541
-0.515869
-0.513166
-0.510476
-0.507789
-0.505036
-0.502093
-0.498795
-0.494967
-0.490444
-0.485104
-0.478873
-0.471737
-0.463731
-0.454921
-0.445392
-0.435232
-0.424519
-0.413325
-0.401706
-0.389713
-0.377388
-0.364773
-0.351906
-0.33883
-0.325586
-0.312216
-0.298778
-0.285298
-0.271889
-0.258383
-0.245118
-0.534352
-0.533127
-0.531383
-0.529207
-0.526715
-0.524017
-0.521181
-0.518232
-0.515143
-0.511835
-0.508187
-0.504048
-0.499274
-0.493745
-0.48739
-0.480191
-0.472183
-0.463435
-0.454037
-0.444084
-0.43366
-0.422839
-0.411676
-0.400216
-0.388494
-0.37654
-0.364383
-0.35205
-0.339571
-0.326979
-0.314308
-0.301595
-0.288884
-0.276201
-0.263638
-0.251053
-0.238764
-0.541948
-0.540268
-0.538177
-0.535725
-0.532997
-0.530075
-0.526974
-0.523646
-0.519988
-0.515855
-0.511092
-0.50556
-0.49917
-0.491895
-0.483769
-0.474878
-0.465332
-0.455251
-0.444745
-0.433906
-0.422804
-0.411488
-0.399993
-0.388344
-0.37656
-0.364658
-0.352656
-0.340574
-0.328434
-0.316259
-0.304078
-0.291919
-0.279817
-0.267794
-0.255914
-0.244066
-0.232524
-0.550484
-0.54829
-0.545796
-0.543011
-0.539978
-0.536741
-0.533251
-0.529377
-0.524937
-0.519742
-0.513638
-0.506541
-0.498453
-0.489457
-0.479686
-0.4693
-0.458454
-0.447284
-0.435893
-0.424355
-0.412719
-0.401014
-0.389257
-0.377459
-0.365629
-0.353776
-0.341909
-0.330043
-0.318192
-0.306374
-0.29461
-0.282921
-0.271331
-0.259859
-0.248549
-0.237321
-0.226406
-0.559978
-0.557222
-0.554285
-0.55112
-0.547716
-0.544061
-0.540026
-0.535393
-0.52992
-0.523408
-0.515752
-0.506963
-0.497157
-0.486519
-0.475259
-0.463578
-0.451641
-0.439575
-0.427464
-0.415359
-0.403287
-0.391262
-0.379289
-0.367368
-0.355502
-0.343692
-0.331943
-0.320264
-0.308662
-0.29715
-0.285742
-0.274452
-0.263296
-0.252289
-0.241457
-0.230743
-0.220342
-0.570461
-0.567103
-0.563694
-0.560111
-0.556262
-0.552059
-0.547282
-0.541635
-0.53485
-0.52677
-0.517388
-0.506836
-0.495345
-0.483179
-0.470591
-0.457791
-0.444931
-0.432113
-0.419397
-0.406813
-0.39437
-0.38207
-0.369908
-0.357879
-0.345979
-0.334205
-0.322556
-0.311036
-0.299649
-0.2884
-0.277297
-0.266349
-0.255565
-0.244954
-0.234532
-0.224263
-0.214297
-0.581949
-0.577958
-0.574055
-0.570015
-0.56563
-0.560713
-0.554952
-0.548002
-0.539621
-0.52975
-0.518518
-0.506187
-0.493081
-0.479514
-0.465746
-0.45197
-0.438313
-0.424847
-0.411607
-0.398603
-0.385834
-0.37329
-0.36096
-0.348833
-0.336902
-0.325157
-0.313596
-0.302216
-0.291015
-0.279995
-0.269158
-0.258507
-0.248047
-0.237781
-0.227715
-0.217831
-0.208235
-0.594428
-0.589779
-0.585366
-0.580818
-0.575775
-0.569935
-0.562907
-0.554347
-0.544104
-0.532267
-0.519118
-0.505038
-0.490411
-0.475564
-0.460741
-0.446102
-0.43174
-0.417697
-0.403988
-0.390608
-0.377544
-0.364779
-0.352296
-0.34008
-0.328119
-0.3164
-0.304916
-0.293658
-0.282623
-0.271805
-0.261203
-0.250814
-0.240639
-0.230678
-0.220929
-0.211386
-0.202113
-0.607829
-0.602511
-0.597571
-0.592446
-0.586585
-0.579566
-0.57096
-0.560489
-0.548157
-0.534235
-0.519157
-0.503389
-0.487341
-0.471325
-0.455548
-0.44013
-0.42513
-0.410564
-0.396428
-0.382703
-0.369369
-0.356402
-0.343781
-0.331485
-0.319498
-0.307804
-0.29639
-0.285245
-0.274359
-0.263725
-0.253335
-0.243184
-0.233267
-0.22358
-0.214119
-0.204882
-0.195895
-0.622023
-0.616041
-0.610551
-0.604751
-0.597869
-0.58938
-0.578874
-0.566217
-0.551624
-0.53556
-0.518583
-0.501209
-0.483841
-0.466752
-0.450103
-0.433973
-0.418386
-0.403338
-0.388808
-0.374767
-0.361186
-0.348036
-0.335291
-0.322926
-0.310919
-0.299252
-0.287906
-0.276867
-0.266122
-0.255658
-0.245465
-0.235533
-0.225855
-0.216423
-0.207229
-0.198276
-0.189551
-0.636816
-0.630189
-0.624117
-0.617513
-0.609367
-0.599089
-0.586376
-0.571312
-0.554354
-0.536147
-0.51734
-0.498457
-0.479867
-0.46179
-0.444338
-0.42755
-0.411422
-0.395929
-0.381036
-0.366706
-0.352902
-0.339589
-0.326737
-0.314315
-0.302298
-0.290663
-0.279388
-0.268455
-0.257846
-0.247545
-0.23754
-0.227817
-0.218365
-0.209174
-0.200236
-0.19155
-0.183076
-0.651941
-0.644703
-0.638005
-0.630433
-0.620746
-0.608365
-0.593181
-0.575561
-0.556208
-0.535916
-0.515377
-0.495093
-0.475377
-0.456392
-0.4382
-0.420804
-0.404176
-0.388273
-0.37305
-0.358459
-0.344457
-0.331004
-0.318063
-0.305601
-0.293586
-0.281992
-0.270794
-0.259969
-0.249496
-0.239356
-0.229534
-0.220012
-0.210777
-0.201817
-0.193125
-0.184693
-0.176464
-0.667063
-0.659257
-0.651867
-0.643126
-0.631607
-0.616835
-0.598987
-0.578745
-0.557039
-0.534763
-0.512612
-0.491038
-0.470287
-0.450466
-0.431593
-0.413637
-0.396551
-0.380275
-0.364754
-0.349932
-0.33576
-0.32219
-0.309182
-0.296696
-0.284698
-0.273157
-0.262044
-0.251332
-0.240999
-0.231021
-0.22138
-0.212056
-0.203033
-0.194298
-0.185842
-0.177646
-0.169649
-0.681789
-0.673458
-0.665283
-0.655143
-0.641502
-0.624091
-0.603446
-0.580572
-0.556586
-0.532437
-0.508786
-0.48602
-0.464317
-0.443727
-0.424227
-0.405761
-0.388259
-0.371651
-0.355869
-0.340851
-0.326538
-0.31288
-0.299829
-0.287341
-0.275379
-0.263906
-0.25289
-0.242303
-0.232117
-0.222307
-0.212851
-0.203729
-0.194919
-0.186409
-0.178185
-0.170214
-0.162447
-0.695703
-0.686901
-0.677847
-0.666075
-0.650023
-0.629736
-0.606167
-0.580641
-0.554428
-0.52849
-0.503432
-0.479558
-0.456978
-0.435685
-0.41562
-0.396699
-0.378835
-0.361944
-0.345948
-0.330777
-0.316366
-0.302657
-0.289597
-0.277138
-0.265239
-0.253859
-0.242964
-0.23252
-0.222499
-0.212873
-0.203618
-0.19471
-0.186129
-0.177859
-0.169881
-0.162151
-0.154647
-0.436887
-0.437392
-0.437471
-0.437489
-0.43783
-0.438717
-0.440266
-0.442522
-0.445501
-0.449209
-0.453651
-0.458834
-0.46476
-0.471424
-0.478808
-0.486877
-0.49557
-0.504796
-0.514428
-0.524301
-0.534207
-0.543898
-0.553095
-0.561479
-0.568697
-0.574414
-0.578288
-0.579998
-0.579262
-0.575849
-0.569603
-0.560455
-0.548443
-0.533735
-0.516627
-0.497466
-0.476586
-0.449533
-0.449638
-0.44957
-0.449611
-0.450103
-0.451263
-0.453207
-0.455982
-0.459604
-0.464084
-0.469434
-0.475668
-0.482797
-0.490824
-0.499739
-0.509505
-0.520062
-0.53131
-0.543109
-0.555274
-0.567568
-0.57971
-0.591376
-0.602206
-0.611797
-0.619796
-0.62574
-0.629247
-0.629967
-0.627594
-0.621893
-0.612718
-0.600042
-0.583977
-0.564767
-0.542705
-0.518217
-0.461453
-0.461111
-0.460881
-0.460909
-0.461519
-0.462904
-0.465182
-0.468398
-0.472571
-0.477711
-0.483834
-0.490959
-0.499103
-0.508273
-0.518459
-0.529629
-0.541714
-0.55461
-0.568164
-0.582171
-0.596376
-0.610469
-0.624096
-0.636859
-0.648333
-0.65803
-0.665525
-0.670371
-0.672146
-0.670468
-0.665012
-0.655537
-0.641938
-0.624256
-0.602708
-0.577625
-0.549396
-0.472347
-0.471548
-0.471121
-0.471128
-0.471796
-0.473335
-0.475859
-0.479411
-0.484005
-0.489653
-0.49637
-0.504176
-0.513091
-0.523122
-0.53426
-0.546468
-0.559676
-0.573769
-0.588585
-0.603905
-0.619457
-0.634916
-0.649902
-0.663996
-0.676742
-0.687623
-0.696189
-0.701949
-0.704426
-0.703194
-0.69784
-0.687923
-0.673321
-0.653983
-0.630062
-0.601883
-0.56975
-0.481994
-0.480751
-0.480111
-0.480046
-0.480713
-0.482321
-0.484981
-0.488736
-0.493597
-0.499572
-0.506674
-0.514922
-0.524333
-0.534911
-0.546645
-0.559495
-0.573387
-0.588198
-0.603757
-0.61984
-0.636168
-0.652406
-0.668171
-0.683028
-0.696477
-0.708049
-0.717251
-0.723561
-0.726455
-0.725421
-0.719968
-0.709651
-0.694156
-0.673347
-0.647263
-0.616322
-0.580566
-0.490235
-0.488584
-0.487723
-0.487539
-0.488135
-0.489713
-0.492386
-0.496196
-0.501152
-0.507259
-0.514524
-0.522961
-0.532582
-0.543388
-0.555362
-0.56846
-0.582602
-0.597663
-0.613468
-0.629788
-0.646346
-0.662811
-0.678818
-0.693988
-0.707543
-0.719301
-0.728693
-0.735159
-0.738137
-0.737058
-0.731361
-0.720534
-0.704157
-0.682028
-0.65406
-0.620918
-0.582247
-0.496991
-0.494987
-0.493906
-0.493564
-0.494017
-0.495461
-0.498017
-0.501727
-0.506602
-0.512641
-0.519847
-0.528226
-0.537782
-0.548513
-0.560394
-0.573378
-0.58738
-0.602272
-0.617878
-0.633973
-0.650277
-0.666457
-0.682122
-0.696801
-0.710354
-0.721972
-0.731183
-0.737447
-0.740179
-0.738767
-0.73259
-0.721073
-0.703724
-0.680337
-0.650723
-0.615871
-0.575021
-0.502262
-0.499983
-0.498694
-0.498161
-0.498403
-0.499615
-0.501925
-0.505383
-0.510003
-0.515783
-0.52272
-0.530813
-0.54006
-0.550448
-0.56195
-0.574512
-0.588047
-0.602428
-0.617481
-0.632987
-0.648678
-0.664235
-0.679295
-0.693457
-0.706316
-0.717342
-0.726004
-0.731728
-0.733893
-0.731842
-0.724903
-0.712464
-0.693992
-0.669345
-0.638286
-0.602136
-0.559829
-0.506126
-0.50366
-0.50219
-0.501445
-0.501421
-0.502313
-0.504258
-0.507322
-0.511526
-0.516872
-0.523354
-0.530964
-0.539693
-0.549521
-0.560416
-0.572319
-0.585142
-0.59876
-0.613004
-0.627666
-0.642488
-0.657166
-0.671353
-0.684667
-0.696666
-0.706859
-0.714701
-0.719592
-0.720872
-0.717843
-0.709799
-0.696133
-0.676329
-0.650377
-0.618086
-0.581063
-0.538077
-0.508723
-0.506168
-0.504551
-0.50359
-0.503261
-0.503762
-0.505244
-0.507791
-0.51144
-0.516201
-0.522069
-0.529036
-0.537084
-0.54619
-0.556314
-0.567396
-0.579347
-0.592044
-0.605326
-0.618993
-0.632797
-0.64645
-0.659623
-0.67192
-0.682901
-0.692068
-0.69885
-0.70261
-0.702649
-0.698245
-0.688693
-0.673449
-0.652098
-0.624831
-0.591611
-0.554243
-0.511467
-0.510239
-0.507691
-0.505975
-0.504805
-0.504154
-0.504217
-0.505164
-0.507099
-0.510081
-0.514137
-0.51927
-0.525471
-0.532723
-0.540997
-0.550251
-0.560421
-0.57142
-0.583127
-0.595385
-0.607996
-0.620734
-0.633314
-0.64539
-0.656571
-0.666398
-0.67434
-0.679785
-0.682056
-0.680428
-0.674193
-0.662712
-0.645589
-0.622604
-0.594194
-0.560539
-0.523517
-0.481899
-0.510887
-0.508438
-0.506674
-0.505321
-0.504349
-0.503955
-0.504324
-0.505586
-0.507827
-0.511095
-0.515408
-0.520765
-0.52715
-0.534535
-0.542873
-0.552102
-0.562135
-0.572856
-0.584085
-0.595665
-0.607343
-0.618823
-0.629754
-0.639717
-0.648212
-0.654658
-0.6584
-0.658739
-0.654967
-0.646461
-0.632739
-0.61364
-0.589206
-0.560127
-0.526775
-0.490957
-0.451443
-0.510892
-0.508626
-0.506865
-0.505361
-0.50409
-0.503247
-0.50303
-0.503597
-0.505062
-0.507501
-0.510952
-0.515428
-0.52092
-0.527401
-0.534827
-0.543131
-0.552222
-0.561973
-0.572255
-0.582836
-0.593462
-0.603816
-0.61351
-0.622074
-0.628952
-0.63352
-0.635104
-0.633033
-0.626697
-0.615654
-0.599662
-0.57885
-0.553516
-0.524538
-0.49237
-0.458626
-0.421987
-0.51048
-0.508463
-0.506756
-0.50514
-0.503606
-0.502344
-0.501566
-0.501452
-0.50215
-0.503763
-0.506355
-0.509956
-0.514569
-0.520173
-0.526725
-0.534154
-0.542367
-0.551235
-0.560579
-0.570165
-0.579699
-0.588815
-0.597064
-0.603916
-0.608774
-0.611002
-0.609972
-0.605126
-0.596051
-0.582555
-0.564683
-0.542815
-0.517426
-0.489452
-0.459279
-0.428275
-0.394952
-0.509872
-0.508154
-0.506538
-0.504849
-0.503096
-0.501466
-0.500177
-0.499436
-0.499415
-0.500248
-0.502025
-0.504798
-0.508583
-0.513369
-0.519104
-0.525725
-0.533115
-0.541118
-0.549521
-0.558046
-0.56634
-0.573971
-0.580431
-0.585152
-0.587541
-0.58702
-0.583095
-0.575411
-0.563811
-0.548371
-0.529378
-0.507359
-0.482835
-0.45665
-0.429011
-0.401049
-0.371095
-0.50928
-0.50789
-0.506392
-0.504664
-0.502738
-0.5008
-0.499076
-0.497786
-0.49713
-0.497268
-0.498313
-0.500339
-0.503373
-0.507407
-0.512402
-0.518259
-0.524837
-0.531939
-0.539297
-0.546571
-0.553341
-0.55912
-0.563372
-0.565549
-0.565133
-0.561693
-0.554939
-0.544756
-0.531236
-0.51465
-0.495424
-0.474093
-0.451137
-0.427215
-0.402337
-0.377436
-0.35062
-0.508918
-0.507858
-0.506488
-0.504746
-0.502693
-0.500516
-0.498443
-0.496708
-0.495527
-0.495082
-0.495506
-0.496886
-0.499262
-0.502622
-0.506903
-0.511985
-0.517682
-0.523738
-0.529823
-0.535533
-0.540402
-0.543932
-0.545622
-0.545014
-0.541742
-0.535574
-0.526438
-0.514425
-0.499782
-0.48286
-0.464096
-0.443929
-0.422788
-0.401142
-0.378975
-0.357061
-0.333154
-0.508999
-0.508243
-0.506994
-0.505253
-0.503116
-0.500769
-0.49844
-0.496371
-0.494788
-0.493883
-0.493799
-0.494632
-0.496418
-0.499128
-0.502673
-0.506887
-0.511531
-0.51629
-0.52078
-0.524562
-0.527175
-0.528168
-0.527142
-0.523793
-0.517939
-0.509538
-0.498686
-0.485589
-0.470535
-0.453846
-0.435872
-0.416914
-0.39734
-0.377426
-0.357433
-0.338028
-0.317058
-0.509727
-0.509219
-0.508068
-0.506336
-0.504152
-0.501701
-0.499211
-0.49692
-0.495054
-0.493807
-0.493325
-0.49369
-0.494921
-0.496963
-0.499682
-0.502864
-0.506214
-0.509372
-0.511931
-0.51347
-0.513586
-0.511936
-0.508272
-0.502457
-0.494476
-0.484424
-0.472477
-0.458865
-0.443838
-0.427639
-0.410505
-0.392608
-0.374192
-0.355277
-0.336318
-0.317482
-0.298753
-0.450817
-0.420422
-0.392014
-0.367257
-0.347867
-0.335187
-0.329995
-0.332234
-0.3409
-0.354311
-0.370311
-0.386196
-0.399476
-0.408328
-0.411139
-0.406127
-0.391136
-0.364845
-0.328647
-0.287111
-0.246095
-0.210244
-0.18183
-0.161166
-0.147557
-0.139998
-0.137618
-0.139835
-0.146359
-0.157418
-0.174031
-0.197394
-0.227075
-0.259259
-0.287083
-0.303097
-0.301997
-0.283781
-0.252918
-0.216807
-0.182344
-0.153651
-0.131879
-0.116469
-0.106676
-0.102101
-0.102503
-0.10799
-0.119841
-0.140684
-0.172665
-0.213526
-0.253762
-0.279872
-0.281627
-0.259396
-0.222904
-0.185952
-0.15865
-0.143575
-0.139852
-0.14834
-0.170655
-0.205004
-0.244061
-0.276336
-0.290726
-0.28197
-0.254921
-0.219408
-0.1846
-0.155574
-0.134007
-0.119769
-0.111676
-0.10806
-0.106682
-0.104941
-0.100154
-0.0923277
-0.0818039
-0.0707024
-0.0603682
-0.0515405
-0.0442603
-0.0379719
-0.0323611
-0.0268418
-0.0211792
-0.0156556
-0.00969987
-0.00487979
-0.000760601
-0.488287
-0.45148
-0.416223
-0.384199
-0.357124
-0.336497
-0.323745
-0.319365
-0.322864
-0.332724
-0.346641
-0.362273
-0.376656
-0.387214
-0.391731
-0.388233
-0.374719
-0.350198
-0.316116
-0.276815
-0.237914
-0.203967
-0.177282
-0.158275
-0.146303
-0.140389
-0.139712
-0.143735
-0.152215
-0.165518
-0.184851
-0.211413
-0.244434
-0.279523
-0.309379
-0.326269
-0.324673
-0.304905
-0.271361
-0.232067
-0.194525
-0.163218
-0.139415
-0.12249
-0.111535
-0.106025
-0.105651
-0.110462
-0.121683
-0.14191
-0.173306
-0.213726
-0.253821
-0.280033
-0.281974
-0.260038
-0.223899
-0.187412
-0.16067
-0.1462
-0.143194
-0.152593
-0.176097
-0.212008
-0.252873
-0.28675
-0.301994
-0.292695
-0.263718
-0.225029
-0.186535
-0.153936
-0.129131
-0.112043
-0.101533
-0.0959985
-0.0933617
-0.091253
-0.087133
-0.08095
-0.0725343
-0.0636408
-0.055296
-0.0481898
-0.0423332
-0.0371798
-0.0324381
-0.0275481
-0.0222143
-0.0166907
-0.0105574
-0.00535989
-0.000876831
-0.515737
-0.47275
-0.431519
-0.393327
-0.359543
-0.331926
-0.312323
-0.301285
-0.299367
-0.305228
-0.316694
-0.331145
-0.345947
-0.357986
-0.364478
-0.362829
-0.351277
-0.328998
-0.297586
-0.261222
-0.225211
-0.193882
-0.169533
-0.15266
-0.142673
-0.138643
-0.139819
-0.145723
-0.156169
-0.171654
-0.193509
-0.222846
-0.258502
-0.29575
-0.327189
-0.345103
-0.343803
-0.323084
-0.287521
-0.245579
-0.205346
-0.171672
-0.145969
-0.12758
-0.115465
-0.108979
-0.107754
-0.111764
-0.122125
-0.141341
-0.17154
-0.210757
-0.250091
-0.27624
-0.278702
-0.257636
-0.222408
-0.186836
-0.160963
-0.147268
-0.145045
-0.155317
-0.179887
-0.21715
-0.259526
-0.294824
-0.311054
-0.301608
-0.271241
-0.229827
-0.187958
-0.152037
-0.124235
-0.104528
-0.0918269
-0.0845945
-0.080876
-0.0784908
-0.0749844
-0.0703044
-0.0637742
-0.0568699
-0.0503567
-0.0448836
-0.0404165
-0.0363995
-0.0325602
-0.0283369
-0.0233557
-0.0178269
-0.0114959
-0.0059028
-0.00101458
-0.531903
-0.484727
-0.43803
-0.394129
-0.354599
-0.320814
-0.296003
-0.278584
-0.271437
-0.272214
-0.280607
-0.293458
-0.307492
-0.320325
-0.328691
-0.329295
-0.320503
-0.301347
-0.273465
-0.240838
-0.208418
-0.180303
-0.158777
-0.144403
-0.136641
-0.134619
-0.137675
-0.145405
-0.157677
-0.175072
-0.19897
-0.230384
-0.267958
-0.306886
-0.339792
-0.358982
-0.358563
-0.337708
-0.300877
-0.256915
-0.214486
-0.178798
-0.151409
-0.131666
-0.118433
-0.110959
-0.108819
-0.111911
-0.121204
-0.13906
-0.167572
-0.205018
-0.243072
-0.268923
-0.272103
-0.252423
-0.218647
-0.184406
-0.159645
-0.14682
-0.145361
-0.156383
-0.181799
-0.220091
-0.263725
-0.300384
-0.317731
-0.308497
-0.2773
-0.233678
-0.188811
-0.149864
-0.119335
-0.0972575
-0.0825905
-0.0738627
-0.069217
-0.0666266
-0.0636708
-0.0603634
-0.0555075
-0.0503855
-0.0455552
-0.0416294
-0.0385155
-0.0356374
-0.0327367
-0.0292178
-0.0246138
-0.0190769
-0.0125264
-0.00651642
-0.00117881
-0.539044
-0.488159
-0.436816
-0.387997
-0.34378
-0.305771
-0.274862
-0.250431
-0.241625
-0.235682
-0.239394
-0.25017
-0.262696
-0.275178
-0.285053
-0.287999
-0.282622
-0.267417
-0.243973
-0.215912
-0.187775
-0.163423
-0.145125
-0.133501
-0.128083
-0.128089
-0.132974
-0.142384
-0.156232
-0.175153
-0.20054
-0.233381
-0.272298
-0.312484
-0.346695
-0.367385
-0.368541
-0.348452
-0.311214
-0.265937
-0.221844
-0.184523
-0.155692
-0.134736
-0.120446
-0.111986
-0.10888
-0.110961
-0.119023
-0.135245
-0.161654
-0.196823
-0.233168
-0.258571
-0.262605
-0.244733
-0.212877
-0.180312
-0.156818
-0.144879
-0.144098
-0.155679
-0.18164
-0.22064
-0.265345
-0.30331
-0.321867
-0.313211
-0.281804
-0.236537
-0.189091
-0.147438
-0.114458
-0.0902544
-0.0738349
-0.0637977
-0.0583629
-0.0556322
-0.0531531
-0.0510948
-0.047709
-0.0441759
-0.0408902
-0.0384289
-0.0366311
-0.0348972
-0.0329749
-0.0301982
-0.0259971
-0.0204515
-0.0136587
-0.00720738
-0.00137367
-0.537728
-0.48396
-0.429727
-0.377335
-0.329267
-0.287309
-0.252471
-0.225622
-0.207995
-0.196325
-0.19679
-0.202882
-0.213957
-0.224941
-0.235655
-0.241805
-0.238826
-0.227963
-0.209593
-0.186759
-0.16349
-0.143368
-0.128615
-0.119902
-0.116866
-0.11888
-0.125532
-0.136498
-0.151705
-0.171806
-0.198197
-0.231871
-0.271505
-0.31246
-0.34778
-0.3702
-0.373532
-0.355077
-0.318317
-0.272464
-0.227274
-0.188746
-0.158767
-0.136777
-0.121527
-0.112113
-0.108012
-0.10901
-0.115717
-0.130095
-0.154113
-0.186647
-0.220915
-0.24569
-0.250674
-0.234908
-0.205323
-0.174687
-0.152551
-0.141483
-0.141275
-0.153208
-0.17941
-0.218825
-0.264362
-0.30354
-0.323378
-0.315615
-0.284652
-0.238336
-0.18878
-0.144767
-0.109623
-0.0835408
-0.065573
-0.0543945
-0.0482891
-0.0454776
-0.0434091
-0.0424625
-0.0403487
-0.0382259
-0.0363558
-0.0352785
-0.0347602
-0.0341798
-0.0332792
-0.0312834
-0.0275122
-0.02196
-0.0149025
-0.00798269
-0.00160278
-0.528177
-0.472992
-0.41794
-0.363897
-0.313403
-0.268562
-0.230422
-0.199721
-0.177047
-0.162407
-0.154891
-0.155695
-0.16357
-0.172773
-0.182957
-0.190327
-0.190771
-0.184533
-0.171468
-0.154181
-0.136112
-0.1205
-0.109467
-0.103738
-0.103081
-0.107085
-0.115453
-0.127879
-0.144274
-0.165254
-0.192172
-0.226038
-0.265733
-0.306994
-0.343304
-0.367555
-0.373475
-0.357476
-0.322078
-0.276407
-0.230713
-0.191435
-0.160632
-0.137815
-0.121729
-0.111416
-0.106317
-0.106188
-0.111468
-0.123869
-0.14529
-0.174934
-0.206852
-0.230827
-0.236733
-0.223293
-0.196205
-0.167666
-0.146952
-0.136735
-0.137002
-0.149093
-0.175254
-0.214748
-0.260811
-0.301077
-0.322253
-0.315612
-0.285786
-0.239032
-0.187878
-0.141871
-0.104849
-0.0771287
-0.0578061
-0.0456388
-0.0389662
-0.0361315
-0.0356132
-0.0344317
-0.0333973
-0.032521
-0.0319458
-0.0321739
-0.0328991
-0.0334859
-0.0336529
-0.0324778
-0.0291652
-0.0236114
-0.0162667
-0.00885969
-0.00186971
-0.511433
-0.456279
-0.402502
-0.348925
-0.297793
-0.25154
-0.21122
-0.177364
-0.150477
-0.130948
-0.11876
-0.114473
-0.116235
-0.122098
-0.130933
-0.138607
-0.142223
-0.139346
-0.131305
-0.119463
-0.106582
-0.0954993
-0.0881829
-0.0854082
-0.0870927
-0.0930404
-0.103045
-0.116814
-0.134215
-0.155777
-0.182768
-0.216255
-0.255437
-0.296568
-0.333645
-0.359845
-0.36863
-0.355639
-0.322384
-0.277663
-0.232113
-0.192583
-0.161302
-0.137885
-0.121113
-0.109985
-0.103922
-0.102652
-0.106473
-0.116836
-0.135555
-0.16216
-0.191518
-0.214527
-0.221319
-0.210249
-0.185767
-0.159442
-0.140191
-0.130801
-0.131449
-0.14352
-0.169352
-0.208541
-0.254787
-0.295964
-0.31856
-0.313127
-0.285172
-0.238577
-0.186378
-0.138766
-0.100151
-0.0710269
-0.0505313
-0.037511
-0.0303577
-0.0274872
-0.0271417
-0.0269071
-0.0268276
-0.0270493
-0.027655
-0.0291104
-0.031045
-0.0328165
-0.0340986
-0.0337853
-0.0309624
-0.0254145
-0.0177589
-0.00983088
-0.00217724
-0.489017
-0.435181
-0.384436
-0.333241
-0.283241
-0.237102
-0.195963
-0.160228
-0.130253
-0.106479
-0.0893531
-0.079333
-0.0758585
-0.0774893
-0.0829941
-0.089457
-0.0944194
-0.0946721
-0.0911488
-0.0841873
-0.076111
-0.0692924
-0.0654945
-0.0655062
-0.0694046
-0.0771734
-0.0886822
-0.103641
-0.121857
-0.143742
-0.170456
-0.203143
-0.241373
-0.281986
-0.319558
-0.347671
-0.359473
-0.349869
-0.319325
-0.276283
-0.231533
-0.192242
-0.160833
-0.137051
-0.119757
-0.107925
-0.100963
-0.0985642
-0.100936
-0.109265
-0.125255
-0.148753
-0.175439
-0.197321
-0.205094
-0.196137
-0.174283
-0.150247
-0.132474
-0.123873
-0.124804
-0.13668
-0.161894
-0.200394
-0.246459
-0.288333
-0.312457
-0.30811
-0.282824
-0.236939
-0.184277
-0.135467
-0.0955436
-0.0652368
-0.043738
-0.029986
-0.0224227
-0.0195106
-0.0193387
-0.0198699
-0.0206166
-0.0218007
-0.0234779
-0.0260831
-0.0291947
-0.0321721
-0.0346181
-0.0352096
-0.0329099
-0.0273768
-0.0193869
-0.0109024
-0.00252679
-0.462785
-0.411409
-0.364969
-0.31758
-0.270157
-0.225488
-0.184773
-0.148381
-0.116635
-0.0898864
-0.0685308
-0.0531831
-0.0441064
-0.0407806
-0.0420678
-0.0461253
-0.0509308
-0.0535738
-0.0528362
-0.0498937
-0.0459535
-0.0428797
-0.0422172
-0.0446926
-0.0505668
-0.0599545
-0.072783
-0.0887567
-0.107612
-0.129621
-0.155819
-0.187422
-0.224401
-0.264198
-0.30201
-0.331829
-0.346664
-0.340608
-0.313185
-0.272426
-0.229071
-0.190491
-0.159299
-0.135386
-0.117737
-0.105339
-0.0975649
-0.0940915
-0.0950534
-0.101407
-0.114717
-0.135114
-0.159078
-0.179731
-0.190333
-0.181262
-0.162034
-0.140326
-0.124015
-0.116151
-0.117264
-0.128777
-0.15311
-0.190561
-0.236069
-0.278411
-0.304238
-0.300646
-0.278814
-0.234107
-0.181573
-0.131988
-0.0910356
-0.0597571
-0.0374113
-0.0230345
-0.0151192
-0.012162
-0.0121576
-0.0132975
-0.0147442
-0.0167652
-0.0194092
-0.0230872
-0.0273457
-0.0315525
-0.0352123
-0.0367535
-0.0350134
-0.0295054
-0.0211565
-0.0120802
-0.00291912
-0.434662
-0.386692
-0.345298
-0.302553
-0.258668
-0.216484
-0.177218
-0.141189
-0.108749
-0.0802651
-0.0560263
-0.0364831
-0.022189
-0.0134808
-0.00994212
-0.0104835
-0.0133622
-0.0166986
-0.0178602
-0.0180676
-0.0172894
-0.0172157
-0.019122
-0.0236401
-0.0311691
-0.0419111
-0.0558314
-0.0726227
-0.0919466
-0.113921
-0.139439
-0.169786
-0.205318
-0.244074
-0.281844
-0.31315
-0.331078
-0.328345
-0.304281
-0.266301
-0.224874
-0.187442
-0.156797
-0.132984
-0.11514
-0.102316
-0.0938473
-0.0893977
-0.0890114
-0.0934868
-0.104224
-0.121599
-0.142801
-0.161878
-0.171985
-0.165671
-0.14929
-0.129908
-0.11502
-0.107834
-0.109033
-0.12004
-0.143268
-0.179347
-0.223921
-0.266474
-0.294318
-0.303495
-0.273342
-0.230094
-0.178267
-0.128342
-0.0866376
-0.0545842
-0.0315344
-0.0166243
-0.00840462
-0.00539985
-0.00554217
-0.00716251
-0.00919194
-0.0119348
-0.0154446
-0.0201189
-0.025496
-0.0309564
-0.0358805
-0.0384187
-0.0372777
-0.0318069
-0.0230713
-0.0133681
-0.00335481
-0.406669
-0.362765
-0.32657
-0.28869
-0.248787
-0.209672
-0.172547
-0.137685
-0.105428
-0.0761805
-0.0502543
-0.027953
-0.00969529
0.00392746
0.0125719
0.0164642
0.0166482
0.0143889
0.0121408
0.0103418
0.00894363
0.00680169
0.00301398
-0.00304164
-0.0118285
-0.0235948
-0.038324
-0.0556965
-0.0753041
-0.0971083
-0.121851
-0.150869
-0.184869
-0.222439
-0.259929
-0.292441
-0.313897
-0.313465
-0.292949
-0.258155
-0.219111
-0.183226
-0.153436
-0.129949
-0.112064
-0.0989431
-0.0899191
-0.0846155
-0.0829821
-0.0856904
-0.094004
-0.108487
-0.126952
-0.144256
-0.153971
-0.149911
-0.136334
-0.119211
-0.10569
-0.0991228
-0.100325
-0.11071
-0.13265
-0.167066
-0.210339
-0.252777
-0.281946
-0.290689
-0.265796
-0.224915
-0.17436
-0.12454
-0.0823601
-0.0497146
-0.0260895
-0.0107233
-0.00223607
0.000818897
0.000556459
-0.0014372
-0.00394503
-0.00730367
-0.0115806
-0.0171749
-0.0236436
-0.0303816
-0.0366203
-0.0402055
-0.0397069
-0.0342871
-0.0251328
-0.014769
-0.00383417
-0.380501
-0.340991
-0.309682
-0.276399
-0.24048
-0.204645
-0.170009
-0.136819
-0.105415
-0.0762032
-0.0495145
-0.0256234
-0.00483135
0.0124208
0.0255905
0.0342149
0.038394
0.0388629
0.0370936
0.0349105
0.0320224
0.0284247
0.0234407
0.016408
0.00683278
-0.00555828
-0.0207552
-0.0384304
-0.0581169
-0.0796256
-0.103534
-0.13121
-0.163655
-0.199918
-0.236862
-0.270025
-0.292843
-0.296227
-0.279551
-0.248256
-0.211977
-0.177993
-0.14934
-0.126394
-0.108616
-0.0953092
-0.0858539
-0.0798252
-0.0771099
-0.078177
-0.0842224
-0.0959696
-0.111799
-0.127254
-0.136622
-0.134393
-0.123411
-0.108433
-0.0962164
-0.0902134
-0.0913498
-0.101028
-0.121533
-0.154048
-0.195684
-0.237619
-0.267627
-0.276918
-0.256662
-0.218636
-0.169862
-0.120588
-0.0782059
-0.0451383
-0.0210535
-0.00529888
0.00342775
0.00653699
0.00618233
0.00390181
0.00100846
-0.00286734
-0.0078148
-0.0142534
-0.0217868
-0.0298244
-0.0374277
-0.0421132
-0.0423045
-0.0369512
-0.0273396
-0.016286
-0.00435725
-0.357271
-0.322154
-0.295129
-0.265886
-0.23368
-0.201075
-0.169023
-0.137736
-0.107579
-0.0789645
-0.0522334
-0.0276497
-0.00544025
0.0140967
0.0305155
0.0432518
0.051791
0.0560361
0.0566522
0.0549859
0.0516434
0.0473227
0.0416823
0.0341688
0.0242835
0.011716
-0.00355183
-0.0212076
-0.0407457
-0.0618397
-0.0849043
-0.111298
-0.142258
-0.177202
-0.213404
-0.246679
-0.270683
-0.27746
-0.264526
-0.236882
-0.20367
-0.171889
-0.14462
-0.12241
-0.104881
-0.0914841
-0.0816926
-0.0750751
-0.0714497
-0.0710821
-0.0750323
-0.0842006
-0.0975079
-0.11114
-0.120119
-0.11938
-0.11072
-0.0977419
-0.0867657
-0.081276
-0.0822964
-0.0912089
-0.110178
-0.140592
-0.180281
-0.221359
-0.251883
-0.262334
-0.246284
-0.211343
-0.164784
-0.116473
-0.0741539
-0.0408264
-0.0163907
-0.000310331
0.00863011
0.0117944
0.0113731
0.00887577
0.0056789
0.00137768
-0.00414593
-0.0113535
-0.0199241
-0.0292806
-0.0382978
-0.0441399
-0.0450725
-0.0398043
-0.0296882
-0.0179211
-0.00492359
-0.337363
-0.306431
-0.283008
-0.257139
-0.228251
-0.198705
-0.169194
-0.139874
-0.111141
-0.0834139
-0.0570595
-0.0323844
-0.00960864
0.0110909
0.0294688
0.0450798
0.0573298
0.0655427
0.0694473
0.0699208
0.0675885
0.063434
0.0576341
0.0500145
0.0401886
0.0278371
0.0128886
-0.0044065
-0.0235478
-0.0440963
-0.066297
-0.0914534
-0.120983
-0.154548
-0.18977
-0.222924
-0.248086
-0.257511
-0.248145
-0.224243
-0.19432
-0.164988
-0.139308
-0.118006
-0.10087
-0.0874935
-0.0774594
-0.0703807
-0.0660135
-0.0644925
-0.0666079
-0.0733987
-0.0842666
-0.0960731
-0.104587
-0.105115
-0.0984212
-0.0872845
-0.0774918
-0.0724632
-0.0733392
-0.081455
-0.0988397
-0.127024
-0.164508
-0.20435
-0.235136
-0.247018
-0.23499
-0.20313
-0.159137
-0.112172
-0.0701799
-0.0367534
-0.0120714
0.00428052
0.0134161
0.0166325
0.0161604
0.0135042
0.0100752
0.0054339
-0.00057375
-0.00847566
-0.0180541
-0.028744
-0.0392231
-0.0462821
-0.048012
-0.0428516
-0.0321729
-0.019677
-0.00553241
-0.320651
-0.293642
-0.273172
-0.249999
-0.224009
-0.197308
-0.170249
-0.142917
-0.115728
-0.0891055
-0.0634114
-0.0389012
-0.0158529
0.00546055
0.0248069
0.0419679
0.0566853
0.0682622
0.07594
0.079954
0.0795727
0.0766653
0.0713723
0.0640532
0.05459
0.0427555
0.0284483
0.0118207
-0.00669606
-0.0266005
-0.0479837
-0.0720644
-0.100343
-0.132702
-0.166988
-0.199718
-0.225484
-0.23705
-0.230851
-0.210599
-0.184076
-0.157385
-0.133485
-0.113264
-0.096685
-0.0834647
-0.0732989
-0.0658768
-0.0609234
-0.0584505
-0.059055
-0.0637486
-0.0723418
-0.0822695
-0.0901377
-0.0917903
-0.0865945
-0.0771465
-0.0684871
-0.0638806
-0.0646084
-0.0719215
-0.0876974
-0.113565
-0.148639
-0.187006
-0.21783
-0.231158
-0.223355
-0.194102
-0.152989
-0.107762
-0.0663755
-0.0329976
-0.00814369
0.00845713
0.0178004
0.0210857
0.0205748
0.0178042
0.0142052
0.00930265
0.00290038
-0.00562045