/*--------------------------------*- C++ -*----------------------------------*\
| =========                 |                                                 |
| \\      /  F ield         | OpenFOAM: The Open Source CFD Toolbox           |
|  \\    /   O peration     | Version:  2312                                  |
|   \\  /    A nd           | Website:  www.openfoam.com                      |
|    \\/     M anipulation  |                                                 |
\*---------------------------------------------------------------------------*/
FoamFile
{
    version     2.0;
    format      ascii;
    arch        "LSB;label=32;scalar=64";
    class       surfaceScalarField;
    location    "19.5";
    object      phi;
}
// * * * * * * * * * * * * * * * * * * * * * * * * * * * * * * * * * * * * * //

dimensions      [0 3 -1 0 0 0 0];

oriented        oriented;

internalField   nonuniform List<scalar> 
64047
(
-5.18197e-05
0.000521803
-0.000469983
-0.000115471
0.00125392
-0.00119027
-0.000123668
0.00171938
-0.00171118
-2.09048e-05
0.00193131
-0.00203407
0.000242725
0.00189465
-0.00215828
0.000715178
0.00160568
-0.00207813
0.00144545
0.00105339
-0.00178366
0.00248515
0.000221441
-0.00126114
0.00388874
-0.000909175
-0.000494409
0.00571213
-0.00235702
0.000533627
0.00800958
-0.00413693
0.00183948
0.0108285
-0.00625647
0.00343751
0.0142039
-0.00871255
0.00533721
0.0181515
-0.0114886
0.00754103
0.0226625
-0.0145531
0.0100421
0.0276995
-0.0178594
0.0128224
0.0331953
-0.0213477
0.0158519
0.0390546
-0.0249485
0.0190892
0.0451591
-0.0285871
0.0224827
0.0513745
-0.0321888
0.0259733
0.0575607
-0.0356846
0.0294983
0.0635816
-0.0390155
0.0329947
0.069315
-0.0421368
0.0364033
0.0746624
-0.0450202
0.0396728
0.0795551
-0.0476552
0.0427625
0.0839583
-0.0500481
0.0456449
0.0878716
-0.0522205
0.0483073
0.0913255
-0.0542052
0.0507513
0.0943743
-0.0560424
0.0529936
0.0970885
-0.0577737
0.0550595
0.0995398
-0.0594416
0.0569903
0.101803
-0.0610746
0.0588114
0.10392
-0.0627177
0.0606011
0.10595
-0.0643414
0.0623111
0.107841
-0.0660777
0.0641871
0.109529
-0.0675815
0.0658925
-0.0695488
0.0682881
0.11079
-4.77586e-05
0.000569561
-9.60005e-05
0.00130216
-7.04801e-05
0.00169386
9.36207e-05
0.0017672
0.000457384
0.00153089
0.0010812
0.000981862
0.00202668
0.000107917
0.00335665
-0.00110854
0.00513336
-0.00268588
0.00741442
-0.00463808
0.010247
-0.00696951
0.0136608
-0.0096703
0.0176611
-0.0127129
0.022223
-0.0160505
0.0272881
-0.0196183
0.0327658
-0.0233371
0.0385371
-0.027119
0.044463
-0.0308744
0.0503955
-0.0345195
0.0561893
-0.0379827
0.0617144
-0.0412096
0.0668656
-0.0441667
0.0715708
-0.046842
0.0757946
-0.049244
0.0795379
-0.0513984
0.0828333
-0.0533435
0.0857374
-0.0551247
0.0883208
-0.0567886
0.0906569
-0.0583785
0.0928134
-0.0599302
0.0948442
-0.0614724
0.0967892
-0.0630196
0.0986625
-0.064591
0.100486
-0.0661652
0.102206
-0.0677977
0.103957
-0.0693317
-0.0711416
0.105549
-3.45861e-05
0.000604147
-4.42017e-05
0.00131178
5.06465e-05
0.00159901
0.000323259
0.00149459
0.000844977
0.00100917
0.00168699
0.000139844
0.00292046
-0.00112555
0.0046143
-0.00280237
0.00683047
-0.00490206
0.00961722
-0.00742483
0.013001
-0.0103533
0.0169784
-0.0136477
0.0215105
-0.017245
0.0265205
-0.0210604
0.0318965
-0.0249943
0.0374992
-0.0289398
0.0431736
-0.0327934
0.0487633
-0.0364641
0.0541248
-0.039881
0.0591403
-0.0429982
0.0637271
-0.0457965
0.0678427
-0.0482822
0.0714835
-0.0504829
0.0746807
-0.0524413
0.0774907
-0.0542084
0.079984
-0.0558368
0.0822342
-0.057375
0.0843089
-0.0588633
0.0862629
-0.0603324
0.0881358
-0.0618031
0.0899524
-0.063289
0.0917258
-0.064793
0.093461
-0.0663262
0.0951568
-0.0678611
0.0968189
-0.0694598
0.098444
-0.0709568
-0.0727183
0.100021
-1.50388e-05
0.000619186
3.19677e-05
0.00126477
0.00022489
0.00140609
0.00064457
0.00107491
0.00137097
0.000282765
0.00248336
-0.000972539
0.00405782
-0.00270001
0.00616209
-0.00490664
0.0088477
-0.00758766
0.0121406
-0.0107177
0.0160319
-0.0142446
0.0204718
-0.0180876
0.0253679
-0.0221411
0.0305903
-0.0262828
0.0359827
-0.0303866
0.041378
-0.0343351
0.0466158
-0.0380312
0.0515586
-0.0414069
0.0561045
-0.0444269
0.0601942
-0.0470879
0.063812
-0.0494143
0.0669808
-0.0514511
0.0697524
-0.0532545
0.0721955
-0.0548844
0.0743838
-0.0563967
0.0763858
-0.0578388
0.0782582
-0.0592474
0.0800436
-0.0606486
0.0817704
-0.0620592
0.0834559
-0.0634886
0.0851085
-0.0649417
0.0867347
-0.0664192
0.088332
-0.0679236
0.0899126
-0.0694416
0.0914601
-0.0710073
0.0930131
-0.0725098
-0.0742423
0.0945372
8.31883e-06
0.000610867
0.00012444
0.00114865
0.000436922
0.00109361
0.00103308
0.000478757
0.00199957
-0.000683731
0.00341996
-0.00239293
0.00536904
-0.00464909
0.00790402
-0.00744162
0.0110536
-0.0107373
0.0148073
-0.0144714
0.0191078
-0.0185451
0.0238505
-0.0228303
0.0288901
-0.0271807
0.034056
-0.0314487
0.0391712
-0.0355019
0.0440736
-0.0392375
0.0486331
-0.0425907
0.0527636
-0.0455374
0.056427
-0.0480903
0.0596298
-0.0502907
0.062414
-0.0521985
0.064844
-0.053881
0.0669935
-0.0554041
0.0689342
-0.0568251
0.0707276
-0.0581901
0.0724216
-0.0595327
0.0740499
-0.0608758
0.0756347
-0.0622334
0.0771892
-0.0636136
0.0787206
-0.06502
0.0802332
-0.0664542
0.081729
-0.067915
0.0832092
-0.0694037
0.0846774
-0.0709098
0.086128
-0.0724579
0.0875829
-0.0739648
-0.0756604
0.089001
3.3633e-05
0.000577234
0.00022774
0.000954543
0.000675839
0.00064551
0.00147096
-0.000316364
0.0027038
-0.00191658
0.00445707
-0.00414619
0.0067958
-0.00698783
0.00975488
-0.0104007
0.0133261
-0.0143085
0.0174493
-0.0185945
0.0220109
-0.0231067
0.0268532
-0.0276726
0.0317928
-0.0321203
0.0366441
-0.0363
0.0412435
-0.0401012
0.0454676
-0.0434616
0.0492441
-0.0463672
0.0525521
-0.0488454
0.0554151
-0.0509533
0.0578882
-0.0527638
0.0600432
-0.0543534
0.0619548
-0.0557927
0.063691
-0.0571403
0.0653071
-0.0584412
0.066844
-0.059727
0.0683298
-0.0610185
0.069782
-0.062328
0.0712111
-0.0636625
0.0726226
-0.0650251
0.0740195
-0.0664169
0.075403
-0.0678377
0.0767744
-0.0692864
0.0781329
-0.0707623
0.0794826
-0.0722596
0.0808171
-0.0737923
0.0821543
-0.075302
-0.0769703
0.0834643
6.05812e-05
0.000516653
0.000339873
0.000675251
0.000936874
4.85088e-05
0.00194888
-0.00132837
0.0034667
-0.00343439
0.00556487
-0.00624436
0.00828766
-0.00971062
0.0116338
-0.0137469
0.0155449
-0.0182196
0.019903
-0.0229527
0.0245409
-0.0277446
0.0292636
-0.0323953
0.0338768
-0.0367334
0.0382137
-0.0406369
0.0421553
-0.0440429
0.0456391
-0.0469454
0.0486568
-0.049385
0.0512441
-0.0514327
0.0534646
-0.0531738
0.0553938
-0.054693
0.0571061
-0.0560657
0.0586658
-0.0573524
0.0601233
-0.0585978
0.0615147
-0.0598326
0.062864
-0.0610763
0.0641859
-0.0623403
0.0654887
-0.0636309
0.066777
-0.0649508
0.068053
-0.0663011
0.0693177
-0.0676817
0.070572
-0.069092
0.0718164
-0.0705308
0.0730511
-0.071997
0.0742783
-0.0734868
0.0754936
-0.0750076
0.0767117
-0.0765202
-0.078161
0.0779024
8.96919e-05
0.000426961
0.00046155
0.000303393
0.00121962
-0.00070956
0.00246266
-0.00257141
0.00427569
-0.00524742
0.00671523
-0.0086839
0.00979162
-0.012787
0.0134541
-0.0174093
0.0175856
-0.0223511
0.0220128
-0.0273799
0.0265307
-0.0322624
0.0309347
-0.0367993
0.0350522
-0.0408509
0.038764
-0.0443488
0.0420127
-0.0472916
0.0447982
-0.0497308
0.0471636
-0.0517504
0.049178
-0.0534471
0.0509192
-0.054915
0.0524608
-0.0562347
0.0538649
-0.0574697
0.0551783
-0.0586658
0.0564341
-0.0598535
0.0576535
-0.061052
0.0588494
-0.0622722
0.0600288
-0.0635198
0.0611954
-0.0647975
0.0623512
-0.0661066
0.063497
-0.0674469
0.0646334
-0.0688181
0.0657609
-0.0702194
0.0668797
-0.0716496
0.0679897
-0.073107
0.069092
-0.0745891
0.0701832
-0.0760988
0.0712745
-0.0776115
-0.0792261
0.0723396
0.000121904
0.000305057
0.000594409
-0.000169111
0.00152448
-0.00163964
0.0030078
-0.00405473
0.00511515
-0.00735478
0.00787302
-0.0114418
0.0112446
-0.0161586
0.0151206
-0.0212853
0.0193264
-0.026557
0.0236484
-0.0317019
0.0278704
-0.0364844
0.0318096
-0.0407385
0.0353414
-0.0443828
0.038408
-0.0474154
0.0410123
-0.0498959
0.0432016
-0.0519201
0.0450482
-0.053597
0.0466317
-0.0550306
0.0480257
-0.0563089
0.0492906
-0.0574996
0.0504716
-0.0586507
0.0515998
-0.059794
0.0526948
-0.0609485
0.0537682
-0.0621254
0.0548263
-0.0633303
0.0558723
-0.0645658
0.0569079
-0.0658331
0.0579339
-0.0671325
0.0589507
-0.0684637
0.0599588
-0.0698262
0.0609583
-0.0712189
0.0619492
-0.0726405
0.0629315
-0.0740893
0.0639054
-0.075563
0.0648689
-0.0770624
0.0658305
-0.078573
-0.0801635
0.0667679
0.000157932
0.000147124
0.00073919
-0.000750369
0.00184968
-0.00275012
0.00357506
-0.00578011
0.00596139
-0.00974111
0.0089925
-0.0144729
0.0125745
-0.0197407
0.0165386
-0.0252493
0.0206654
-0.0306838
0.0247259
-0.0357624
0.0285227
-0.0402812
0.0319196
-0.0441353
0.034852
-0.0473152
0.0373207
-0.0498841
0.0393739
-0.051949
0.0410857
-0.0536318
0.042537
-0.0550484
0.0438023
-0.0562959
0.0449419
-0.0574485
0.0460005
-0.0585581
0.0470082
-0.0596585
0.047984
-0.0607698
0.0489388
-0.0619034
0.0498786
-0.0630652
0.0508064
-0.064258
0.0517236
-0.065483
0.0526311
-0.0667406
0.0535293
-0.0680308
0.0544187
-0.0693531
0.0552993
-0.0707068
0.0561712
-0.0720909
0.0570343
-0.0735036
0.0578882
-0.0749432
0.058733
-0.0764078
0.0595676
-0.0778969
0.0603977
-0.0794032
-0.0809714
0.0612056
0.000197938
-5.08138e-05
0.000894803
-0.00144723
0.00218948
-0.0040448
0.00414866
-0.00773929
0.00678205
-0.0123745
0.0100201
-0.0177109
0.0137084
-0.023429
0.0176278
-0.0291688
0.0215367
-0.0345927
0.0252189
-0.0394445
0.0285195
-0.0435818
0.0313606
-0.0469764
0.0337351
-0.0496897
0.0356883
-0.0518374
0.0372947
-0.0535555
0.0386368
-0.0549739
0.0397904
-0.056202
0.0408171
-0.0573227
0.0417623
-0.0583937
0.0426564
-0.0594522
0.0435182
-0.0605203
0.0443587
-0.0616102
0.0451836
-0.0627283
0.045996
-0.0638776
0.0467973
-0.0650593
0.0475882
-0.0662739
0.0483693
-0.0675217
0.0491409
-0.0688024
0.0499033
-0.0701155
0.0506565
-0.0714601
0.0514004
-0.0728348
0.0521348
-0.0742379
0.0528591
-0.0756676
0.0535734
-0.0771221
0.0542773
-0.0786007
0.0549748
-0.0801007
-0.0816492
0.0556526
0.000241452
-0.000292266
0.00105812
-0.00226391
0.00253418
-0.00552085
0.00470708
-0.00991219
0.00753918
-0.0152066
0.0109014
-0.0210731
0.0145839
-0.0271114
0.0183358
-0.0329207
0.0219193
-0.0381762
0.0251545
-0.0426797
0.0279417
-0.0463691
0.0302598
-0.0492945
0.0321471
-0.0515769
0.0336759
-0.0533663
0.0349301
-0.0548097
0.035988
-0.0560318
0.0369137
-0.0571276
0.0377542
-0.0581632
0.0385412
-0.0591807
0.0392943
-0.0602053
0.0400247
-0.0612507
0.0407386
-0.0623241
0.0414389
-0.0634286
0.0421271
-0.0645658
0.0428041
-0.0657363
0.0434704
-0.0669402
0.0441263
-0.0681777
0.0447723
-0.0694483
0.0454084
-0.0707516
0.0460348
-0.0720864
0.046651
-0.073451
0.0472568
-0.0748437
0.0478517
-0.0762625
0.0484357
-0.0777061
0.0490089
-0.0791739
0.0495742
-0.080666
-0.0821969
0.050122
0.000287529
-0.000579795
0.00122435
-0.00320073
0.00287109
-0.00716759
0.00522549
-0.0122666
0.00819432
-0.0181754
0.0115894
-0.0244682
0.015159
-0.030681
0.018644
-0.0364057
0.0218335
-0.0413657
0.0245981
-0.0454444
0.0268946
-0.0486655
0.0287482
-0.0511482
0.0302268
-0.0530555
0.0314146
-0.054554
0.0323928
-0.0557879
0.033229
-0.056868
0.0339734
-0.057872
0.0346599
-0.0588496
0.0353095
-0.0598303
0.0359345
-0.0608302
0.0365413
-0.0618575
0.0371331
-0.0629159
0.0377117
-0.0640072
0.0382779
-0.065132
0.0388322
-0.0662906
0.0393751
-0.0674832
0.0399071
-0.0687096
0.0404283
-0.0699696
0.0409389
-0.0712622
0.0414389
-0.0725863
0.0419277
-0.0739399
0.0424051
-0.0753211
0.0428708
-0.0767281
0.0433247
-0.07816
0.0437673
-0.0796166
0.0442007
-0.0810994
-0.0826148
0.0446186
0.000334793
-0.000914588
0.00138752
-0.00425345
0.00318594
-0.008966
0.00567885
-0.0147595
0.0087137
-0.0212103
0.012051
-0.0278055
0.0154164
-0.0340464
0.0185651
-0.0395544
0.0213297
-0.0441303
0.0236351
-0.0477498
0.0254867
-0.0505171
0.0269428
-0.0526043
0.0280863
-0.054199
0.0290014
-0.0554691
0.0297603
-0.0565468
0.0304174
-0.0575252
0.0310101
-0.0584647
0.0315618
-0.0594013
0.0320858
-0.0603544
0.0325896
-0.061334
0.0330768
-0.0623447
0.0335492
-0.0633884
0.034008
-0.0644659
0.0344536
-0.0655776
0.0348866
-0.0667236
0.0353073
-0.0679039
0.0357163
-0.0691185
0.0361137
-0.0703669
0.0364996
-0.0716481
0.0368738
-0.0729605
0.037236
-0.0743021
0.0375858
-0.0756709
0.037923
-0.0770654
0.0382478
-0.0784848
0.0385608
-0.0799296
0.0388635
-0.0814021
-0.0829034
0.0391521
0.000381621
-0.00129621
0.00154109
-0.00541292
0.00346439
-0.0108893
0.0060448
-0.0173399
0.00907237
-0.0242378
0.0122702
-0.0310034
0.0153622
-0.0371384
0.0181361
-0.0423283
0.0204751
-0.0464693
0.0223545
-0.0496292
0.0238167
-0.0519792
0.0249396
-0.0537272
0.0258098
-0.0550692
0.0265046
-0.0561639
0.027084
-0.0571262
0.0275899
-0.0580311
0.028049
-0.0589238
0.0284767
-0.059829
0.0288816
-0.0607593
0.029268
-0.0617204
0.029638
-0.0627148
0.0299929
-0.0637433
0.0303332
-0.0648063
0.0306596
-0.0659039
0.0309724
-0.0670364
0.0312721
-0.0682036
0.0315591
-0.0694056
0.0318336
-0.0706415
0.0320957
-0.0719102
0.0323452
-0.07321
0.0325817
-0.0745386
0.0328049
-0.0758941
0.0330147
-0.0772752
0.0332113
-0.0786814
0.0333957
-0.080114
0.0335689
-0.0815752
-0.0830634
0.0337289
0.000426219
-0.00172243
0.00167845
-0.00666516
0.00369339
-0.0129042
0.00630599
-0.0199525
0.00925644
-0.0271883
0.0122479
-0.0339948
0.0150213
-0.0399119
0.0174081
-0.0447151
0.0193416
-0.0484028
0.0208388
-0.0511264
0.021967
-0.0531075
0.0228127
-0.0545729
0.0234583
-0.0557148
0.0239706
-0.0566761
0.0243973
-0.0575529
0.0247694
-0.0584033
0.0251055
-0.0592598
0.0254156
-0.0601391
0.025705
-0.0610486
0.0259762
-0.0619917
0.0262308
-0.0629693
0.0264693
-0.0639818
0.0266925
-0.0650294
0.0269007
-0.0661122
0.0270945
-0.0672301
0.0272742
-0.0683834
0.0274404
-0.0695717
0.0275932
-0.0707942
0.0277326
-0.0720496
0.0278584
-0.0733358
0.0279704
-0.0746506
0.0280683
-0.075992
0.0281521
-0.0773589
0.028222
-0.0787513
0.028279
-0.080171
0.0283238
-0.08162
-0.0830959
0.0283562
0.00046669
-0.00218912
0.00179347
-0.00799193
0.00386238
-0.0149732
0.00645157
-0.0225417
0.00926337
-0.0300001
0.0119988
-0.0367302
0.0144304
-0.0423434
0.0164368
-0.0467215
0.0179968
-0.0499628
0.0191583
-0.0522879
0.0200028
-0.0539521
0.0206168
-0.0551869
0.0210742
-0.0561722
0.0214303
-0.0570322
0.0217218
-0.0578443
0.0219709
-0.0586524
0.0221902
-0.0594791
0.0223863
-0.0603351
0.0225623
-0.0612246
0.0227199
-0.0621493
0.0228602
-0.0631095
0.0229836
-0.0641053
0.0230907
-0.0651365
0.023182
-0.0662034
0.0232579
-0.0673061
0.0233189
-0.0684444
0.0233654
-0.0696182
0.0233976
-0.0708265
0.0234156
-0.0720676
0.0234193
-0.0733395
0.0234084
-0.0746397
0.0233826
-0.0759663
0.023342
-0.0773183
0.0232869
-0.0786962
0.023218
-0.0801021
0.0231358
-0.0815378
-0.0830013
0.0230411
0.000501451
-0.00269057
0.00188147
-0.00937195
0.00396467
-0.0170564
0.00647793
-0.025055
0.00910045
-0.0326226
0.0115472
-0.039177
0.0136309
-0.0444271
0.0152767
-0.0483673
0.0165003
-0.0511864
0.0173703
-0.0531579
0.0179737
-0.0545554
0.0183914
-0.0556046
0.0186871
-0.0564679
0.0189048
-0.05725
0.0190722
-0.0580117
0.0192048
-0.058785
0.019311
-0.0595854
0.0193951
-0.0604192
0.0194592
-0.0612887
0.0195045
-0.0621946
0.0195315
-0.0631366
0.0195409
-0.0641147
0.0195332
-0.0651288
0.0195087
-0.066179
0.019468
-0.0672653
0.0194115
-0.0683879
0.0193396
-0.0695463
0.0192526
-0.0707395
0.0191506
-0.0719656
0.0190336
-0.0732224
0.0189014
-0.0745075
0.0187539
-0.0758188
0.0185911
-0.0771555
0.0184133
-0.0785184
0.018221
-0.0799097
0.0180142
-0.0813311
-0.0827811
0.017794
0.000530216
-0.00322078
0.00194048
-0.0107822
0.003998
-0.0191139
0.00638801
-0.027445
0.00878247
-0.0350171
0.0109232
-0.0413177
0.0126663
-0.0461703
0.0139786
-0.0496796
0.0149034
-0.0521112
0.0155212
-0.0537757
0.0159178
-0.054952
0.0161658
-0.0558526
0.0163182
-0.0566203
0.0164093
-0.0573411
0.0164594
-0.0580617
0.0164793
-0.0588049
0.0164746
-0.0595808
0.0164483
-0.0603928
0.0164016
-0.0612421
0.0163355
-0.0621284
0.0162504
-0.0630516
0.016147
-0.0640112
0.0160256
-0.0650073
0.0158866
-0.06604
0.0157305
-0.0671093
0.0155578
-0.0682152
0.0153689
-0.0693574
0.0151641
-0.0705346
0.0149435
-0.0717451
0.0147073
-0.0729863
0.0144555
-0.0742556
0.014188
-0.0755513
0.013905
-0.0768726
0.0136068
-0.0782203
0.013294
-0.0795969
0.0129668
-0.0810039
0.0126268
-0.0824411
-0.000240185
0.000842946
-0.000602761
-0.000831889
0.00208831
-0.00149661
-0.00168677
0.00303078
-0.0021759
-0.00273748
0.00374614
-0.00269543
-0.00393396
0.00429889
-0.00310242
-0.00524127
0.00474521
-0.0034379
-0.00663693
0.00513001
-0.00373435
-0.0081078
0.0054856
-0.00401473
-0.00964706
0.00583246
-0.0042932
-0.0112516
0.00618163
-0.00457705
-0.0129202
0.00653755
-0.00486895
-0.0146521
0.00690071
-0.00516885
-0.0164462
0.00726951
-0.00547537
-0.0183011
0.00764138
-0.00578653
-0.0202143
0.00801331
-0.00610005
-0.0221829
0.00838208
-0.00641353
-0.0242028
0.00874435
-0.00672447
-0.0262692
0.00909667
-0.00703025
-0.0283765
0.0094355
-0.0073282
-0.0305182
0.00975727
-0.00761557
-0.032687
0.0100584
-0.00788955
-0.0348748
0.0103352
-0.00814732
-0.0370729
0.0105841
-0.00838602
-0.0392717
0.0108016
-0.00860282
-0.0414611
0.0109844
-0.00879503
-0.0436303
0.0111293
-0.00896006
-0.045768
0.0112332
-0.00909543
-0.0478625
0.0112932
-0.00919878
-0.0499015
0.011307
-0.00926792
-0.0518728
0.0112721
-0.00930084
-0.0537637
0.0111867
-0.0092958
-0.0555618
0.0110494
-0.00925125
-0.0572548
0.0108584
-0.00916545
-0.0588304
0.010612
-0.0090363
-0.0602776
0.0103093
-0.00886222
-0.0615886
0.00995386
-0.00864285
0.00955488
-0.0627597
-0.00838369
-0.000199298
0.00104224
-0.000703245
0.00259226
-0.00144533
0.00377287
-0.00237125
0.00467205
-0.00343732
0.00536497
-0.00461032
0.00591821
-0.00586655
0.00638625
-0.0071903
0.00680934
-0.00857176
0.00721393
-0.010005
0.0076149
-0.0114863
0.00801882
-0.0130126
0.00842698
-0.0145808
0.00883777
-0.0161876
0.00924812
-0.0178286
0.00965431
-0.0194988
0.0100523
-0.0211925
0.010438
-0.0229029
0.0108071
-0.0246225
0.0111552
-0.0263432
0.011478
-0.028056
0.0117712
-0.0297513
0.0120304
-0.0314187
0.0122515
-0.0330474
0.0124304
-0.0346261
0.0125631
-0.0361429
0.0126461
-0.0375856
0.0126758
-0.0389414
0.0126491
-0.0401976
0.0125632
-0.041341
0.0124156
-0.0423586
0.0122043
-0.0432374
0.0119281
-0.0439651
0.0115861
-0.0445307
0.0111775
-0.0449231
0.0107017
-0.045134
0.0101648
0.00959033
-0.0451695
-0.000149714
0.00119196
-0.000545273
0.00298782
-0.00114589
0.00437349
-0.00191334
0.0054395
-0.00281256
0.00626419
-0.00381329
0.00691894
-0.00489118
0.00746413
-0.00602783
0.007946
-0.00721008
0.00839618
-0.00842868
0.00883349
-0.00967685
0.00926699
-0.0109491
0.0096992
-0.0122401
0.0101288
-0.0135446
0.0105526
-0.0148564
0.0109661
-0.0161689
0.0113649
-0.0174747
0.0117438
-0.0187658
0.0120981
-0.0200334
0.0124227
-0.021268
0.0127127
-0.0224599
0.012963
-0.0235986
0.0131691
-0.0246731
0.013326
-0.0256723
0.0134295
-0.0265845
0.0134753
-0.0273977
0.0134593
-0.0280998
0.0133779
-0.0286783
0.0132276
-0.0291206
0.0130054
-0.0294138
0.0127088
-0.029545
0.0123355
-0.029501
0.0118841
-0.0292691
0.0113542
-0.0288387
0.0107471
-0.0282011
0.0100641
-0.0273435
0.00930726
0.00850463
-0.0262578
-9.54697e-05
0.00128743
-0.00036935
0.0032617
-0.000807864
0.004812
-0.00139075
0.00602239
-0.00209351
0.00696695
-0.00289051
0.00771594
-0.00375777
0.00833139
-0.00467473
0.00886296
-0.00562486
0.00934631
-0.00659534
0.00980397
-0.00757617
0.0102478
-0.00855907
0.0106821
-0.0095366
0.0111064
-0.0105015
0.0115174
-0.0114461
0.0119108
-0.0123626
0.0122813
-0.0132424
0.0126236
-0.0140765
0.0129323
-0.0148556
0.0132018
-0.0155697
0.0134268
-0.0162087
0.0136021
-0.0167622
0.0137225
-0.0172194
0.0137832
-0.0175693
0.0137795
-0.0178011
0.0137071
-0.0179035
0.0135617
-0.0178654
0.0133397
-0.0176753
0.0130375
-0.0173219
0.012652
-0.0167936
0.0121804
-0.0160785
0.0116204
-0.0151645
0.0109701
-0.0140386
0.0102284
-0.012688
0.00939646
-0.0111028
0.00847898
-0.00927527
0.00747973
0.00640916
-0.0071798
-4.07179e-05
0.00132815
-0.000187815
0.0034088
-0.000453043
0.00507723
-0.000834501
0.00640385
-0.00131963
0.00745207
-0.00188915
0.00828546
-0.00252102
0.00896326
-0.00319357
0.00953551
-0.00388746
0.0100402
-0.00458646
0.010503
-0.00527722
0.0109386
-0.00594864
0.0113535
-0.00659096
0.0117487
-0.00719515
0.0121216
-0.00775235
0.012468
-0.00825358
0.0127826
-0.00868971
0.0130598
-0.0090513
0.0132939
-0.00932872
0.0134792
-0.00951216
0.0136102
-0.00959169
0.0136816
-0.00955727
0.0136881
-0.00939888
0.0136248
-0.00910649
0.0134871
-0.00867012
0.0132707
-0.00807988
0.0129715
-0.00732596
0.0125858
-0.00639865
0.0121102
-0.00528832
0.0115417
-0.00398541
0.0108775
-0.00248035
0.0101154
-0.000763468
0.00925322
0.00117533
0.0082896
0.00334773
0.00722406
0.00576747
0.00605924
0.00843951
0.00480769
0.00345374
0.0113949
1.06345e-05
0.00131751
-1.28454e-05
0.00343228
-0.000104076
0.00516846
-0.000277896
0.00657767
-0.000534174
0.00770835
-0.000861523
0.00861281
-0.00124164
0.00934338
-0.00165333
0.0099472
-0.00207558
0.0104624
-0.00248932
0.0109167
-0.0028781
0.0113274
-0.00322797
0.0117034
-0.00352686
0.0120476
-0.00376398
0.0123587
-0.00392924
0.0126332
-0.00401293
0.0128662
-0.00400546
0.0130523
-0.0038973
0.0131857
-0.00367893
0.0132608
-0.00334089
0.0132722
-0.00287378
0.0132145
-0.00226833
0.0130826
-0.0015154
0.0128719
-0.00060602
0.0125778
0.000468553
0.0121961
0.00171685
0.0117232
0.00314716
0.0111555
0.00476751
0.0104899
0.00658562
0.00972356
0.00860891
0.00885423
0.0108444
0.00787981
0.0132989
0.00679878
0.0159793
0.00560917
0.0188907
0.00431264
0.0220491
0.00290092
0.0254445
0.00141225
-0.000261996
0.0291602
5.51167e-05
0.00126239
0.000143847
0.00334355
0.00021698
0.00509533
0.000245528
0.00654912
0.000217934
0.00773594
0.000136916
0.00869383
1.53745e-05
0.00946492
-0.000127854
0.0100904
-0.000271666
0.0106063
-0.000395318
0.0110404
-0.000479913
0.011412
-0.000508905
0.0117324
-0.000467966
0.0120066
-0.000344533
0.0122353
-0.000127314
0.012416
0.000194129
0.0125448
0.000629682
0.0126167
0.00118884
0.0126265
0.00188079
0.0125689
0.00271446
0.0124385
0.00369848
0.0122305
0.0048412
0.0119399
0.00615066
0.0115624
0.00763456
0.0110939
0.00930024
0.0105305
0.0111547
0.0098688
0.0132043
0.00910585
0.0154553
0.0082389
0.0179131
0.00726569
0.0205828
0.00618457
0.0234686
0.00499401
0.0265729
0.00369442
0.0299038
0.00227826
0.0334552
0.000761296
0.0372494
-0.000893308
0.041253
-0.00259131
-0.00459339
0.0455844
9.03228e-05
0.00117207
0.000273475
0.00316039
0.000491095
0.00487771
0.00070466
0.00633555
0.000893026
0.00754757
0.00105041
0.00853645
0.00118319
0.00933214
0.0013061
0.00996752
0.00143844
0.0104739
0.00160103
0.0108778
0.00181407
0.0111989
0.00209598
0.0114505
0.00246301
0.0116396
0.00292939
0.0117689
0.00350762
0.0118378
0.00420885
0.0118436
0.00504325
0.0117823
0.00602018
0.0116496
0.00714837
0.0114407
0.008436
0.0111509
0.00989074
0.0107757
0.0115197
0.0103109
0.0133296
0.00975257
0.0153263
0.0090971
0.0175155
0.00834134
0.0199018
0.00748248
0.0224895
0.00651815
0.0252821
0.00544631
0.0282824
0.0042654
0.0314928
0.00297413
0.0349161
0.00157073
0.0385401
7.03784e-05
0.0423909
-0.00157246
0.0464468
-0.00329465
0.0507431
-0.00518957
0.0552136
-0.00706187
-0.0094071
0.0600273
0.000114749
0.00105732
0.00036936
0.00290578
0.000703236
0.00454383
0.00107329
0.0059655
0.00145201
0.00716886
0.00182651
0.00816195
0.00219655
0.00896209
0.00257158
0.0095925
0.00296737
0.0100781
0.00340302
0.0104421
0.00389845
0.0107035
0.00447274
0.0108762
0.00514332
0.010969
0.0059256
0.0109866
0.00683304
0.0109303
0.00787743
0.0107992
0.00906908
0.0105907
0.0104171
0.0103016
0.0119296
0.00992817
0.0136138
0.0094667
0.0154761
0.0089135
0.0175219
0.00826513
0.0197559
0.00751849
0.0221822
0.00667082
0.0248037
0.00571982
0.0276226
0.00466366
0.0306397
0.003501
0.0338578
0.00222821
0.0372745
0.000848673
0.0408904
-0.000641752
0.044709
-0.00224783
0.0487364
-0.00395707
0.0529695
-0.00580555
0.0573968
-0.00772188
0.0620886
-0.00988143
0.0669378
-0.011911
-0.0146646
0.0721953
0.000127961
0.000929361
0.0004282
0.00260554
0.000843907
0.00412812
0.00133248
0.00547693
0.00186387
0.00663747
0.00242056
0.00760525
0.00299668
0.00838597
0.00359615
0.00899303
0.00423012
0.00944414
0.00491438
0.00975786
0.00566685
0.00995102
0.00650579
0.0100372
0.00744852
0.0100263
0.00851073
0.00992443
0.00970621
0.00973486
0.0110469
0.00945849
0.012543
0.00909462
0.014203
0.00864155
0.0160341
0.00809701
0.0180423
0.00745852
0.0202323
0.00672356
0.0226076
0.00588979
0.025171
0.00495507
0.0279242
0.00391759
0.0308687
0.00277539
0.0340055
0.00152684
0.0373276
0.000178913
0.0408485
-0.00129274
0.0445661
-0.00286891
0.0484826
-0.00455826
0.0526065
-0.00637167
0.0569426
-0.00829322
0.0615223
-0.0103852
0.0663222
-0.0125219
0.0714616
-0.0150208
0.0767868
-0.0172363
-0.0205248
0.082647
0.000130395
0.000798966
0.000449695
0.00228624
0.000909539
0.00366828
0.00147217
0.0049143
0.00210889
0.00600075
0.00280053
0.00691361
0.00353751
0.00764899
0.004319
0.00821155
0.00515131
0.00861183
0.00604595
0.00886322
0.00701752
0.00897946
0.00808188
0.00897287
0.00925479
0.00885338
0.010551
0.00862827
0.0119835
0.00830233
0.0135637
0.00787829
0.015301
0.00735732
0.0172031
0.00673947
0.019276
0.00602408
0.0215244
0.00521009
0.0239518
0.00429618
0.0265606
0.00328099
0.0293533
0.00216242
0.0323308
0.000940089
0.0354946
-0.000388416
0.0388517
-0.00183029
0.0424134
-0.00338281
0.0461762
-0.00505549
0.0501596
-0.00685235
0.0543798
-0.00877845
0.0588607
-0.0108526
0.0636235
-0.013056
0.0687175
-0.0154792
0.0741292
-0.0179336
0.0799921
-0.0208838
0.0861302
-0.0233743
-0.0273167
0.0929221
0.000123093
0.000675873
0.000436069
0.00197327
0.000902177
0.00320217
0.00149177
0.00432471
0.00218074
0.00531177
0.00295124
0.00614311
0.0037923
0.00680792
0.00469989
0.00730397
0.00567614
0.00763557
0.00672819
0.00781117
0.00786655
0.0078411
0.00910365
0.00773577
0.0104525
0.00750456
0.0119256
0.00715516
0.0135344
0.00669347
0.0152891
0.00612364
0.017198
0.00544839
0.0192683
0.00466922
0.0215057
0.00378666
0.0239153
0.00280052
0.0265024
0.00170901
0.0292706
0.000512785
0.0322288
-0.000795688
0.0353862
-0.00221737
0.0387552
-0.00375744
0.0423488
-0.00542387
0.04619
-0.00722396
0.0503021
-0.00916762
0.0547155
-0.0112658
0.0594648
-0.0135278
0.0645832
-0.0159709
0.0701053
-0.018578
0.0760605
-0.0214344
0.0824542
-0.0243272
0.0893315
-0.0277611
0.0965713
-0.0306142
-0.0350991
0.104354
0.000107425
0.000568448
0.000391421
0.00168927
0.000828689
0.0027649
0.00139971
0.00375368
0.00208727
0.00462422
0.0028772
0.00535318
0.00375942
0.0059257
0.00472852
0.00633487
0.0057838
0.00658029
0.00692871
0.00666627
0.00816991
0.00659989
0.00951622
0.00638946
0.0109776
0.00604321
0.0125642
0.00556856
0.014286
0.00497164
0.0161525
0.00425709
0.0181729
0.00342807
0.0203558
0.00248624
0.0227114
0.00143106
0.025248
0.000263977
0.0279819
-0.00102496
0.0309292
-0.00243449
0.0341073
-0.00397378
0.0375409
-0.00565092
0.0412589
-0.00747545
0.0452933
-0.00945827
0.0496795
-0.0116102
0.0544535
-0.0139416
0.0596474
-0.0164597
0.0652903
-0.0191707
0.0713933
-0.0220739
0.077971
-0.0251557
0.0849804
-0.0284438
0.0924329
-0.0317797
0.100186
-0.0355143
0.108273
-0.0387015
-0.0432773
0.116452
8.49606e-05
0.000483487
0.000321316
0.00145292
0.000700113
0.00238611
0.0012129
0.0032409
0.00185059
0.00398653
0.00260433
0.00459944
0.00346673
0.0050633
0.00443293
0.00536868
0.00550111
0.00551211
0.00667266
0.00549472
0.00795179
0.00532077
0.00934506
0.00499618
0.0108609
0.00452739
0.0125091
0.00392034
0.0143009
0.00317988
0.0162488
0.00230919
0.0183674
0.00130941
0.0206721
0.00018154
0.0231856
-0.00108238
0.0259324
-0.00248289
0.0289374
-0.00402988
0.0322345
-0.00573159
0.0358588
-0.0075981
0.0398477
-0.0096398
0.0442382
-0.011866
0.0490636
-0.0142837
0.05435
-0.0168966
0.0601119
-0.0197034
0.0663486
-0.0226965
0.0730422
-0.0258643
0.0801478
-0.0291795
0.0876173
-0.0326253
0.095329
-0.0361555
0.103264
-0.0397143
0.111129
-0.0433798
0.119109
-0.0466813
-0.050726
0.126558
5.75541e-05
0.000425933
0.000232883
0.00127759
0.00053164
0.00208735
0.000956583
0.00281595
0.00150725
0.00343586
0.00218106
0.00392563
0.00297486
0.0042695
0.00388627
0.00445727
0.00491475
0.00448363
0.00606228
0.00434719
0.00733372
0.00404933
0.00873694
0.00359296
0.010283
0.00298131
0.0119864
0.00221699
0.0138651
0.00130112
0.0159411
0.000233237
0.0182414
-0.000990893
0.0207984
-0.00237551
0.0236451
-0.00392902
0.0268216
-0.00565945
0.0303676
-0.0075759
0.0343226
-0.00968656
0.0387217
-0.0119972
0.043592
-0.01451
0.0489484
-0.0172224
0.0547903
-0.0201255
0.0610981
-0.0232044
0.0678309
-0.0264363
0.0749274
-0.0297929
0.0823019
-0.0332388
0.0898538
-0.0367314
0.0974656
-0.0402371
0.104995
-0.0436847
0.112362
-0.0470814
0.119302
-0.0503202
0.126015
-0.0533937
-0.0565055
0.131794
2.76172e-05
0.000398316
0.000135305
0.0011699
0.000343126
0.00187953
0.000664777
0.0024943
0.00110854
0.00299209
0.00167896
0.00335521
0.00237867
0.00356978
0.00321026
0.00362568
0.00417775
0.00351614
0.00528787
0.00323707
0.00655105
0.00278615
0.0079822
0.00216181
0.00960128
0.00136223
0.0114338
0.000384518
0.0135107
-0.000775799
0.0158687
-0.00212477
0.0185477
-0.00366995
0.0215912
-0.00541902
0.0250414
-0.00737915
0.0289372
-0.00955524
0.0333097
-0.0119484
0.038178
-0.0145548
0.043545
-0.0173642
0.0493946
-0.0203596
0.0556891
-0.0235169
0.0623687
-0.0268051
0.0693524
-0.0301881
0.0765394
-0.0336233
0.083816
-0.0370695
0.0910543
-0.0404771
0.0981331
-0.0438102
0.104917
-0.0470214
0.111312
-0.0500798
0.117213
-0.0529823
0.122533
-0.0556402
0.127369
-0.0582298
-0.0604889
0.131353
-1.67288e-06
0.000399989
4.00813e-05
0.00112815
0.000159056
0.00176055
0.000379573
0.00227379
0.00071887
0.0026528
0.00118973
0.00288436
0.00180276
0.00295675
0.0025687
0.00285974
0.00350037
0.00258448
0.00461434
0.00212309
0.00593226
0.00146822
0.00748167
0.000612409
0.00929621
-0.000452317
0.0114152
-0.00173447
0.0138821
-0.0032427
0.0167422
-0.00498485
0.0200388
-0.0069666
0.0238096
-0.00918983
0.0280815
-0.011651
0.0328662
-0.0143399
0.0381563
-0.0172386
0.0439226
-0.0203212
0.0501129
-0.0235545
0.0566519
-0.0268986
0.0634441
-0.0303092
0.0703774
-0.0337385
0.0773285
-0.0371391
0.0841696
-0.0404645