/*--------------------------------*- C++ -*----------------------------------*\
| =========                 |                                                 |
| \\      /  F ield         | OpenFOAM: The Open Source CFD Toolbox           |
|  \\    /   O peration     | Version:  2512                                  |
|   \\  /    A nd           | Website:  www.openfoam.com                      |
|    \\/     M anipulation  |                                                 |
\*---------------------------------------------------------------------------*/
FoamFile
{
    version     2.0;
    format      ascii;
    arch        "LSB;label=32;scalar=64";
    class       volVectorField;
    location    "89";
    object      U;
}
// * * * * * * * * * * * * * * * * * * * * * * * * * * * * * * * * * * * * * //

dimensions      [0 1 -1 0 0 0 0];

internalField   nonuniform List<vector> 
9800
(
(1 -2.4862e-05 0)
(1.0001 -7.23238e-05 0)
(1.00028 -0.000118432 0)
(1.00054 -0.000164486 0)
(1.00088 -0.000211483 0)
(1.00128 -0.000260103 0)
(1.00175 -0.000310579 0)
(1.00228 -0.000362653 0)
(1.00287 -0.000415642 0)
(1.00352 -0.000468593 0)
(1.00422 -0.000520467 0)
(1.00497 -0.000570294 0)
(1.00576 -0.00061727 0)
(1.00657 -0.000660805 0)
(1.00741 -0.000700512 0)
(1.00827 -0.000736184 0)
(1.00914 -0.000767755 0)
(1.01001 -0.000795259 0)
(1.01088 -0.0008188 0)
(1.01174 -0.000838526 0)
(1.01258 -0.000854618 0)
(1.01342 -0.000867278 0)
(1.01423 -0.000876728 0)
(1.01503 -0.000883195 0)
(1.0158 -0.000886912 0)
(1.01655 -0.000888113 0)
(1.01727 -0.000887029 0)
(1.01796 -0.000883884 0)
(1.01863 -0.000878892 0)
(1.01927 -0.000872259 0)
(1.01988 -0.000864174 0)
(1.02046 -0.000854816 0)
(1.02102 -0.000844346 0)
(1.02155 -0.000832918 0)
(1.02206 -0.000820663 0)
(1.02254 -0.000807713 0)
(1.023 -0.000794174 0)
(1.02343 -0.000780158 0)
(1.02384 -0.000765751 0)
(1.02423 -0.000751048 0)
(1 -7.35483e-05 0)
(1.0001 -0.000213926 0)
(1.00028 -0.000350303 0)
(1.00054 -0.000486563 0)
(1.00087 -0.000625704 0)
(1.00127 -0.000769785 0)
(1.00173 -0.000919508 0)
(1.00226 -0.00107411 0)
(1.00286 -0.00123156 0)
(1.0035 -0.00138905 0)
(1.00421 -0.00154348 0)
(1.00495 -0.00169197 0)
(1.00574 -0.00183212 0)
(1.00656 -0.00196215 0)
(1.00741 -0.00208091 0)
(1.00827 -0.00218775 0)
(1.00914 -0.00228246 0)
(1.01002 -0.00236512 0)
(1.0109 -0.00243602 0)
(1.01177 -0.00249557 0)
(1.01263 -0.0025443 0)
(1.01347 -0.00258281 0)
(1.0143 -0.00261173 0)
(1.0151 -0.00263172 0)
(1.01588 -0.00264348 0)
(1.01664 -0.0026477 0)
(1.01738 -0.00264504 0)
(1.01808 -0.00263618 0)
(1.01876 -0.00262175 0)
(1.01941 -0.00260235 0)
(1.02003 -0.00257857 0)
(1.02063 -0.00255092 0)
(1.0212 -0.00251988 0)
(1.02174 -0.00248593 0)
(1.02226 -0.00244946 0)
(1.02275 -0.00241085 0)
(1.02321 -0.00237044 0)
(1.02366 -0.00232854 0)
(1.02407 -0.00228544 0)
(1.02447 -0.00224141 0)
(1 -0.000120011 0)
(1.0001 -0.00034892 0)
(1.00028 -0.000571334 0)
(1.00053 -0.000793763 0)
(1.00086 -0.00102125 0)
(1.00125 -0.00125726 0)
(1.00171 -0.00150298 0)
(1.00224 -0.00175717 0)
(1.00283 -0.0020165 0)
(1.00347 -0.00227633 0)
(1.00417 -0.00253157 0)
(1.00492 -0.00277744 0)
(1.00572 -0.00300996 0)
(1.00654 -0.00322616 0)
(1.0074 -0.00342407 0)
(1.00827 -0.0036026 0)
(1.00915 -0.00376131 0)
(1.01005 -0.00390028 0)
(1.01094 -0.00401992 0)
(1.01182 -0.00412087 0)
(1.0127 -0.00420397 0)
(1.01356 -0.00427012 0)
(1.01441 -0.00432035 0)
(1.01524 -0.00435572 0)
(1.01604 -0.00437734 0)
(1.01682 -0.00438631 0)
(1.01758 -0.00438373 0)
(1.01831 -0.00437068 0)
(1.01901 -0.00434821 0)
(1.01968 -0.00431731 0)
(1.02033 -0.00427891 0)
(1.02095 -0.0042339 0)
(1.02154 -0.00418307 0)
(1.0221 -0.0041272 0)
(1.02263 -0.00406695 0)
(1.02314 -0.00400297 0)
(1.02362 -0.00393582 0)
(1.02408 -0.00386607 0)
(1.02452 -0.00379414 0)
(1.02493 -0.00372055 0)
(1 -0.000163981 0)
(1.0001 -0.000476423 0)
(1.00027 -0.000780069 0)
(1.00052 -0.00108422 0)
(1.00084 -0.00139604 0)
(1.00123 -0.00172046 0)
(1.00168 -0.00205917 0)
(1.0022 -0.00241047 0)
(1.00278 -0.00276976 0)
(1.00342 -0.00313062 0)
(1.00413 -0.00348597 0)
(1.00488 -0.00382915 0)
(1.00567 -0.00415457 0)
(1.00651 -0.00445803 0)
(1.00737 -0.00473672 0)
(1.00826 -0.00498899 0)
(1.00916 -0.00521417 0)
(1.01007 -0.00541222 0)
(1.01098 -0.00558363 0)
(1.01189 -0.00572917 0)
(1.0128 -0.0058499 0)
(1.01369 -0.005947 0)
(1.01456 -0.00602182 0)
(1.01542 -0.00607576 0)
(1.01626 -0.00611026 0)
(1.01707 -0.00612682 0)
(1.01786 -0.00612694 0)
(1.01862 -0.00611207 0)
(1.01936 -0.00608363 0)
(1.02006 -0.00604301 0)
(1.02074 -0.00599147 0)
(1.02139 -0.00593026 0)
(1.02201 -0.00586048 0)
(1.0226 -0.00578325 0)
(1.02317 -0.00569949 0)
(1.0237 -0.00561016 0)
(1.02421 -0.00551602 0)
(1.0247 -0.0054179 0)
(1.02515 -0.00531646 0)
(1.02559 -0.00521241 0)
(1 -0.000205231 0)
(1.00009 -0.000595737 0)
(1.00026 -0.000975374 0)
(1.0005 -0.00135643 0)
(1.00081 -0.00174833 0)
(1.00119 -0.00215749 0)
(1.00163 -0.00258625 0)
(1.00214 -0.00303246 0)
(1.00272 -0.00349021 0)
(1.00336 -0.00395134 0)
(1.00405 -0.0044068 0)
(1.00481 -0.00484806 0)
(1.00561 -0.00526789 0)
(1.00645 -0.00566082 0)
(1.00732 -0.0060231 0)
(1.00823 -0.0063525 0)
(1.00915 -0.006648 0)
(1.01008 -0.00690938 0)
(1.01102 -0.00713705 0)
(1.01196 -0.00733186 0)
(1.0129 -0.00749499 0)
(1.01383 -0.00762782 0)
(1.01474 -0.00773191 0)
(1.01564 -0.00780892 0)
(1.01652 -0.0078606 0)
(1.01737 -0.00788876 0)
(1.01821 -0.00789522 0)
(1.01901 -0.00788181 0)
(1.01979 -0.00785028 0)
(1.02054 -0.00780237 0)
(1.02126 -0.00773968 0)
(1.02195 -0.00766381 0)
(1.02261 -0.0075762 0)
(1.02324 -0.00747827 0)
(1.02385 -0.00737126 0)
(1.02442 -0.00725645 0)
(1.02496 -0.00713483 0)
(1.02548 -0.00700755 0)
(1.02597 -0.00687546 0)
(1.02643 -0.00673955 0)
(1 -0.000243568 0)
(1.00009 -0.00070622 0)
(1.00025 -0.00115622 0)
(1.00048 -0.00160899 0)
(1.00078 -0.00207643 0)
(1.00115 -0.00256651 0)
(1.00157 -0.00308229 0)
(1.00207 -0.00362121 0)
(1.00264 -0.0041761 0)
(1.00327 -0.00473703 0)
(1.00396 -0.00529305 0)
(1.00471 -0.00583374 0)
(1.00551 -0.00635023 0)
(1.00636 -0.00683567 0)
(1.00725 -0.00728538 0)
(1.00817 -0.00769643 0)
(1.00911 -0.00806733 0)
(1.01007 -0.00839753 0)
(1.01104 -0.00868733 0)
(1.01202 -0.00893749 0)
(1.01299 -0.00914924 0)
(1.01396 -0.00932402 0)
(1.01492 -0.0094635 0)
(1.01587 -0.00956949 0)
(1.0168 -0.00964397 0)
(1.01771 -0.00968897 0)
(1.01859 -0.0097066 0)
(1.01945 -0.00969898 0)
(1.02028 -0.00966816 0)
(1.02109 -0.00961621 0)
(1.02186 -0.00954504 0)
(1.02261 -0.00945662 0)
(1.02332 -0.00935268 0)
(1.024 -0.00923503 0)
(1.02465 -0.0091052 0)
(1.02527 -0.00896482 0)
(1.02586 -0.00881516 0)
(1.02642 -0.00865772 0)
(1.02695 -0.00849355 0)
(1.02745 -0.00832401 0)
(1 -0.000278804 0)
(1.00008 -0.000807287 0)
(1.00024 -0.00132164 0)
(1.00046 -0.00184059 0)
(1.00074 -0.00237868 0)
(1.00109 -0.00294563 0)
(1.0015 -0.00354516 0)
(1.00198 -0.00417447 0)
(1.00253 -0.00482514 0)
(1.00315 -0.00548551 0)
(1.00383 -0.00614275 0)
(1.00458 -0.00678457 0)
(1.00538 -0.00740041 0)
(1.00624 -0.00798205 0)
(1.00713 -0.00852379 0)
(1.00807 -0.00902189 0)
(1.00904 -0.0094743 0)
(1.01002 -0.00988001 0)
(1.01103 -0.010239 0)
(1.01204 -0.010552 0)
(1.01306 -0.01082 0)
(1.01408 -0.0110444 0)
(1.01509 -0.0112268 0)
(1.0161 -0.0113692 0)
(1.01708 -0.0114735 0)
(1.01805 -0.011542 0)
(1.019 -0.0115769 0)
(1.01993 -0.0115807 0)
(1.02082 -0.0115555 0)
(1.02169 -0.0115038 0)
(1.02253 -0.0114277 0)
(1.02334 -0.0113295 0)
(1.02411 -0.0112114 0)
(1.02486 -0.0110755 0)
(1.02557 -0.0109236 0)
(1.02624 -0.0107578 0)
(1.02689 -0.0105796 0)
(1.0275 -0.010391 0)
(1.02808 -0.0101932 0)
(1.02862 -0.00998794 0)
(1 -0.000310752 0)
(1.00008 -0.000898433 0)
(1.00022 -0.00147073 0)
(1.00043 -0.00205001 0)
(1.00069 -0.00265352 0)
(1.00102 -0.00329293 0)
(1.00141 -0.00397264 0)
(1.00187 -0.00468972 0)
(1.0024 -0.00543458 0)
(1.003 -0.00619392 0)
(1.00367 -0.00695304 0)
(1.00441 -0.00769776 0)
(1.00521 -0.00841585 0)
(1.00607 -0.00909774 0)
(1.00698 -0.00973666 0)
(1.00793 -0.0103279 0)
(1.00891 -0.0108688 0)
(1.00993 -0.0113577 0)
(1.01097 -0.0117942 0)
(1.01203 -0.0121787 0)
(1.01309 -0.012512 0)
(1.01416 -0.0127951 0)
(1.01523 -0.0130296 0)
(1.0163 -0.0132173 0)
(1.01735 -0.0133601 0)
(1.01839 -0.0134603 0)
(1.01941 -0.0135202 0)
(1.02041 -0.0135423 0)
(1.02139 -0.0135291 0)
(1.02233 -0.0134831 0)
(1.02325 -0.0134067 0)
(1.02413 -0.0133027 0)
(1.02498 -0.0131734 0)
(1.0258 -0.0130214 0)
(1.02658 -0.0128487 0)
(1.02733 -0.012658 0)
(1.02804 -0.012451 0)
(1.02871 -0.0122303 0)
(1.02935 -0.0119972 0)
(1.02996 -0.0117542 0)
(1 -0.000339258 0)
(1.00007 -0.000979188 0)
(1.00021 -0.00160271 0)
(1.00039 -0.00223613 0)
(1.00064 -0.00289945 0)
(1.00094 -0.00360651 0)
(1.0013 -0.00436251 0)
(1.00174 -0.00516425 0)
(1.00224 -0.0060013 0)
(1.00282 -0.00685887 0)
(1.00348 -0.00772029 0)
(1.0042 -0.00856951 0)
(1.00499 -0.0093927 0)
(1.00585 -0.0101791 0)
(1.00676 -0.0109206 0)
(1.00772 -0.0116117 0)
(1.00873 -0.0122486 0)
(1.00977 -0.0128291 0)
(1.01085 -0.0133525 0)
(1.01194 -0.0138185 0)
(1.01306 -0.0142274 0)
(1.01419 -0.01458 0)
(1.01532 -0.0148773 0)
(1.01646 -0.0151209 0)
(1.01759 -0.0153126 0)
(1.01871 -0.0154545 0)
(1.01981 -0.0155488 0)
(1.02089 -0.015598 0)
(1.02195 -0.0156045 0)
(1.02299 -0.0155712 0)
(1.02399 -0.0155006 0)
(1.02496 -0.0153959 0)
(1.0259 -0.0152594 0)
(1.02681 -0.0150943 0)
(1.02767 -0.0149029 0)
(1.0285 -0.0146884 0)
(1.02929 -0.0144529 0)
(1.03004 -0.0141994 0)
(1.03075 -0.0139297 0)
(1.03143 -0.0136467 0)
(1 -0.000364201 0)
(1.00007 -0.00104913 0)
(1.00018 -0.00171697 0)
(1.00035 -0.00239793 0)
(1.00057 -0.00311518 0)
(1.00085 -0.00388469 0)
(1.00118 -0.00471258 0)
(1.00158 -0.00559532 0)
(1.00206 -0.006522 0)
(1.00261 -0.00747654 0)
(1.00324 -0.00844025 0)
(1.00395 -0.00939514 0)
(1.00472 -0.0103261 0)
(1.00557 -0.011221 0)
(1.00648 -0.0120708 0)
(1.00745 -0.0128684 0)
(1.00847 -0.0136094 0)
(1.00954 -0.0142908 0)
(1.01065 -0.0149113 0)
(1.01179 -0.0154699 0)
(1.01295 -0.0159663 0)
(1.01414 -0.0164003 0)
(1.01534 -0.0167728 0)
(1.01655 -0.0170848 0)
(1.01776 -0.0173377 0)
(1.01896 -0.0175332 0)
(1.02016 -0.0176733 0)
(1.02134 -0.0177601 0)
(1.0225 -0.0177962 0)
(1.02363 -0.0177844 0)
(1.02474 -0.0177273 0)
(1.02582 -0.0176283 0)
(1.02686 -0.0174901 0)
(1.02786 -0.0173162 0)
(1.02883 -0.0171092 0)
(1.02975 -0.0168729 0)
(1.03063 -0.0166096 0)
(1.03148 -0.0163232 0)
(1.03227 -0.0160157 0)
(1.03303 -0.0156907 0)
(1 -0.000385457 0)
(1.00006 -0.00110797 0)
(1.00016 -0.001813 0)
(1.00031 -0.00253463 0)
(1.0005 -0.00329958 0)
(1.00074 -0.00412604 0)
(1.00104 -0.00502068 0)
(1.00141 -0.00598026 0)
(1.00185 -0.00699339 0)
(1.00236 -0.00804294 0)
(1.00296 -0.00910813 0)
(1.00364 -0.0101693 0)
(1.0044 -0.0112101 0)
(1.00523 -0.0122174 0)
(1.00613 -0.0131807 0)
(1.0071 -0.0140916 0)
(1.00813 -0.0149449 0)
(1.00922 -0.0157369 0)
(1.01035 -0.0164656 0)
(1.01153 -0.017129 0)
(1.01275 -0.0177258 0)
(1.014 -0.018255 0)
(1.01527 -0.0187169 0)
(1.01655 -0.0191116 0)
(1.01785 -0.0194401 0)
(1.01915 -0.0197033 0)
(1.02044 -0.0199025 0)
(1.02173 -0.0200399 0)
(1.023 -0.0201174 0)
(1.02425 -0.0201379 0)
(1.02547 -0.020104 0)
(1.02666 -0.0200193 0)
(1.02782 -0.0198863 0)
(1.02894 -0.0197093 0)
(1.03002 -0.019491 0)
(1.03106 -0.0192359 0)
(1.03205 -0.0189466 0)
(1.033 -0.0186278 0)
(1.0339 -0.0182818 0)
(1.03476 -0.0179132 0)
(1 -0.000402932 0)
(1.00005 -0.00115557 0)
(1.00013 -0.00189038 0)
(1.00026 -0.00264563 0)
(1.00041 -0.00345187 0)
(1.00062 -0.0043293 0)
(1.00088 -0.00528493 0)
(1.00121 -0.00631654 0)
(1.0016 -0.00741249 0)
(1.00208 -0.00855409 0)
(1.00264 -0.00971887 0)
(1.00328 -0.010886 0)
(1.00401 -0.0120384 0)
(1.00481 -0.0131613 0)
(1.0057 -0.0142428 0)
(1.00666 -0.0152734 0)
(1.0077 -0.0162473 0)
(1.00879 -0.01716 0)
(1.00995 -0.0180085 0)
(1.01117 -0.0187895 0)
(1.01243 -0.0195008 0)
(1.01373 -0.0201403 0)
(1.01507 -0.0207075 0)
(1.01644 -0.0212014 0)
(1.01783 -0.021622 0)
(1.01923 -0.0219692 0)
(1.02063 -0.0222437 0)
(1.02203 -0.0224468 0)
(1.02343 -0.02258 0)
(1.0248 -0.0226463 0)
(1.02616 -0.0226475 0)
(1.02748 -0.0225875 0)
(1.02878 -0.0224689 0)
(1.03003 -0.0222963 0)
(1.03125 -0.0220725 0)
(1.03241 -0.021803 0)
(1.03353 -0.0214905 0)
(1.03461 -0.0211407 0)
(1.03563 -0.0207563 0)
(1.0366 -0.0203427 0)
(1 -0.00041659 0)
(1.00004 -0.00119187 0)
(1.00011 -0.0019489 0)
(1.0002 -0.0027306 0)
(1.00032 -0.00357169 0)
(1.00049 -0.00449345 0)
(1.00071 -0.00550372 0)
(1.00098 -0.00660207 0)
(1.00133 -0.00777651 0)
(1.00176 -0.00900613 0)
(1.00227 -0.0102674 0)
(1.00287 -0.0115393 0)
(1.00356 -0.012804 0)
(1.00433 -0.0140449 0)
(1.00519 -0.0152484 0)
(1.00613 -0.0164046 0)
(1.00716 -0.0175071 0)
(1.00826 -0.0185505 0)
(1.00943 -0.0195307 0)
(1.01067 -0.0204428 0)
(1.01198 -0.0212836 0)
(1.01334 -0.02205 0)
(1.01475 -0.0227401 0)
(1.01619 -0.0233516 0)
(1.01767 -0.0238831 0)
(1.01918 -0.0243333 0)
(1.0207 -0.0247015 0)
(1.02223 -0.0249885 0)
(1.02376 -0.0251948 0)
(1.02527 -0.0253228 0)
(1.02677 -0.0253738 0)
(1.02825 -0.0253517 0)
(1.0297 -0.0252587 0)
(1.0311 -0.0251002 0)
(1.03247 -0.0248787 0)
(1.03379 -0.0246009 0)
(1.03506 -0.0242693 0)
(1.03627 -0.0238911 0)
(1.03744 -0.0234688 0)
(1.03854 -0.0230098 0)
(1 -0.00042643 0)
(1.00003 -0.00121691 0)
(1.00007 -0.00198838 0)
(1.00014 -0.00278966 0)
(1.00023 -0.003659 0)
(1.00035 -0.00461771 0)
(1.00052 -0.0056758 0)
(1.00074 -0.00683543 0)
(1.00103 -0.00808291 0)
(1.00141 -0.0093953 0)
(1.00186 -0.0107488 0)
(1.00241 -0.0121233 0)
(1.00304 -0.0134999 0)
(1.00377 -0.0148597 0)
(1.00459 -0.0161881 0)
(1.00551 -0.0174748 0)
(1.00651 -0.0187133 0)
(1.0076 -0.0198971 0)
(1.00878 -0.0210207 0)
(1.01004 -0.0220778 0)
(1.01138 -0.023064 0)
(1.01279 -0.023975 0)
(1.01426 -0.0248074 0)
(1.01578 -0.025557 0)
(1.01736 -0.0262206 0)
(1.01897 -0.0267952 0)
(1.02062 -0.0272788 0)
(1.02228 -0.0276709 0)
(1.02396 -0.0279706 0)
(1.02563 -0.0281796 0)
(1.02729 -0.028298 0)
(1.02893 -0.02833 0)
(1.03055 -0.0282768 0)
(1.03213 -0.0281446 0)
(1.03367 -0.0279354 0)
(1.03516 -0.0276572 0)
(1.0366 -0.0273123 0)
(1.03799 -0.0269095 0)
(1.03931 -0.0264513 0)
(1.04057 -0.0259468 0)
(1 -0.000432557 0)
(1.00002 -0.0012307 0)
(1.00004 -0.00200882 0)
(1.00007 -0.00282344 0)
(1.00012 -0.00371394 0)
(1.0002 -0.00470153 0)
(1.00031 -0.00580069 0)
(1.00048 -0.0070157 0)
(1.00071 -0.00832951 0)
(1.00102 -0.00971805 0)
(1.00141 -0.0111589 0)
(1.00189 -0.0126327 0)
(1.00246 -0.014119 0)
(1.00313 -0.0155969 0)
(1.00391 -0.0170518 0)
(1.00478 -0.0184731 0)
(1.00575 -0.0198541 0)
(1.00682 -0.0211871 0)
(1.00799 -0.0224652 0)
(1.00925 -0.023681 0)
(1.01061 -0.0248292 0)
(1.01206 -0.0259036 0)
(1.01359 -0.026899 0)
(1.01519 -0.027809 0)
(1.01686 -0.0286282 0)
(1.01859 -0.0293516 0)
(1.02036 -0.0299754 0)
(1.02216 -0.0304972 0)
(1.02399 -0.0309143 0)
(1.02583 -0.0312273 0)
(1.02767 -0.0314345 0)
(1.0295 -0.0315402 0)
(1.03131 -0.0315441 0)
(1.03309 -0.0314535 0)
(1.03483 -0.0312693 0)
(1.03652 -0.0310011 0)
(1.03815 -0.0306505 0)
(1.03973 -0.0302286 0)
(1.04124 -0.0297374 0)
(1.04268 -0.0291884 0)
(1 -0.000435163 0)
(1.00001 -0.00123305 0)
(1.00001 -0.00201063 0)
(1 -0.00283306 0)
(1.00001 -0.00373669 0)
(1.00004 -0.00474485 0)
(1.0001 -0.00587886 0)
(1.0002 -0.00714243 0)
(1.00036 -0.00851434 0)
(1.00061 -0.00997158 0)
(1.00093 -0.0114944 0)
(1.00133 -0.0130629 0)
(1.00182 -0.0146547 0)
(1.00242 -0.0162479 0)
(1.00313 -0.0178291 0)
(1.00395 -0.0193878 0)
(1.00487 -0.0209165 0)
(1.0059 -0.0224061 0)
(1.00704 -0.0238491 0)
(1.0083 -0.0252371 0)
(1.00967 -0.0265638 0)
(1.01114 -0.0278209 0)
(1.01272 -0.0290014 0)
(1.01439 -0.0300958 0)
(1.01614 -0.0310966 0)
(1.01798 -0.0319962 0)
(1.01988 -0.0327884 0)
(1.02184 -0.0334683 0)
(1.02383 -0.0340307 0)
(1.02585 -0.0344747 0)
(1.02789 -0.0347962 0)
(1.02992 -0.0349993 0)
(1.03195 -0.0350816 0)
(1.03394 -0.0350515 0)
(1.0359 -0.034908 0)
(1.03782 -0.0346631 0)
(1.03968 -0.0343167 0)
(1.04147 -0.0338831 0)
(1.0432 -0.0333631 0)
(1.04485 -0.0327718 0)
(1 -0.000434438 0)
(0.999993 -0.00122353 0)
(0.999968 -0.00199484 0)
(0.999929 -0.00281986 0)
(0.999895 -0.00372729 0)
(0.999876 -0.00474857 0)
(0.999871 -0.00591155 0)
(0.999904 -0.00721533 0)
(1 -0.00863585 0)
(1.00017 -0.0101541 0)
(1.0004 -0.0117525 0)
(1.00072 -0.0134096 0)
(1.00113 -0.0151009 0)
(1.00165 -0.0168047 0)
(1.00227 -0.0185102 0)
(1.00301 -0.0202069 0)
(1.00386 -0.0218866 0)
(1.00484 -0.0235388 0)
(1.00594 -0.0251557 0)
(1.00717 -0.0267284 0)
(1.00853 -0.0282498 0)
(1.01002 -0.0297094 0)
(1.01162 -0.0310976 0)
(1.01335 -0.032402 0)
(1.01519 -0.0336128 0)
(1.01713 -0.0347189 0)
(1.01916 -0.0357112 0)
(1.02127 -0.0365817 0)
(1.02343 -0.0373218 0)
(1.02565 -0.0379284 0)
(1.0279 -0.0383946 0)
(1.03016 -0.0387236 0)
(1.03242 -0.0389101 0)
(1.03466 -0.0389636 0)
(1.03687 -0.0388805 0)
(1.03904 -0.0386753 0)
(1.04116 -0.0383459 0)
(1.0432 -0.0379102 0)
(1.04518 -0.0373674 0)
(1.04707 -0.0367367 0)
(1 -0.00043039 0)
(0.999981 -0.00120159 0)
(0.999926 -0.00196336 0)
(0.999851 -0.0027849 0)
(0.999779 -0.003686 0)
(0.999706 -0.00471494 0)
(0.999635 -0.0059003 0)
(0.9996 -0.00723408 0)
(0.999622 -0.00869345 0)
(0.999704 -0.0102649 0)
(0.999846 -0.0119315 0)
(1.00006 -0.0136691 0)
(1.00038 -0.0154519 0)
(1.0008 -0.0172604 0)
(1.00133 -0.0190861 0)
(1.00197 -0.0209189 0)
(1.00274 -0.02275 0)
(1.00364 -0.0245686 0)
(1.00468 -0.0263671 0)
(1.00586 -0.0281358 0)
(1.00719 -0.0298672 0)
(1.00867 -0.0315481 0)
(1.01029 -0.0331672 0)
(1.01206 -0.0347085 0)
(1.01397 -0.0361596 0)
(1.01601 -0.0375054 0)
(1.01816 -0.0387333 0)
(1.02042 -0.039831 0)
(1.02276 -0.0407863 0)
(1.02519 -0.0415927 0)
(1.02766 -0.0422394 0)
(1.03017 -0.0427284 0)
(1.03269 -0.0430504 0)
(1.03521 -0.0432157 0)
(1.0377 -0.0432172 0)
(1.04016 -0.0430723 0)
(1.04256 -0.0427758 0)
(1.0449 -0.0423502 0)
(1.04715 -0.0417922 0)
(1.04932 -0.0411265 0)
(1 -0.000422532 0)
(0.999967 -0.00116694 0)
(0.99988 -0.00191895 0)
(0.999772 -0.00272852 0)
(0.999662 -0.00361407 0)
(0.99953 -0.00464738 0)
(0.999392 -0.00584614 0)
(0.999289 -0.00719872 0)
(0.999233 -0.00868779 0)
(0.999223 -0.0103044 0)
(0.999264 -0.0120304 0)
(0.999378 -0.0138385 0)
(0.999588 -0.0157034 0)
(0.999898 -0.0176091 0)
(1.00031 -0.019549 0)
(1.00084 -0.0215128 0)
(1.00151 -0.0234928 0)
(1.00231 -0.0254789 0)
(1.00326 -0.0274642 0)
(1.00437 -0.0294384 0)
(1.00565 -0.0313932 0)
(1.00709 -0.0333136 0)
(1.0087 -0.0351863 0)
(1.01049 -0.0369919 0)
(1.01245 -0.0387155 0)
(1.01457 -0.0403369 0)
(1.01684 -0.0418397 0)
(1.01925 -0.0432059 0)
(1.02178 -0.044419 0)
(1.02441 -0.0454682 0)
(1.02712 -0.046338 0)
(1.0299 -0.0470275 0)
(1.03271 -0.0475227 0)
(1.03553 -0.0478343 0)
(1.03834 -0.0479501 0)
(1.04113 -0.047891 0)
(1.04386 -0.0476473 0)
(1.04652 -0.0472472 0)
(1.04911 -0.0466837 0)
(1.0516 -0.0459885 0)
(1 -0.000409516 0)
(0.999949 -0.00112021 0)
(0.999827 -0.00186462 0)
(0.999694 -0.00265025 0)
(0.999543 -0.00351461 0)
(0.99935 -0.00454942 0)
(0.999148 -0.00574917 0)
(0.998975 -0.00711045 0)
(0.998837 -0.00862073 0)
(0.998728 -0.0102737 0)
(0.998662 -0.0120486 0)
(0.998665 -0.0139156 0)
(0.998758 -0.0158523 0)
(0.998943 -0.017846 0)
(0.999228 -0.0198917 0)
(0.999628 -0.0219789 0)
(1.00016 -0.0241021 0)
(1.00084 -0.0262534 0)
(1.00168 -0.0284275 0)
(1.00269 -0.0306139 0)
(1.00389 -0.0328035 0)
(1.00527 -0.0349795 0)
(1.00685 -0.0371275 0)
(1.00863 -0.0392249 0)
(1.01062 -0.0412543 0)
(1.0128 -0.0431892 0)
(1.01517 -0.0450097 0)
(1.01772 -0.0466903 0)
(1.02043 -0.0482103 0)
(1.02328 -0.0495519 0)
(1.02625 -0.0506946 0)
(1.02931 -0.0516328 0)
(1.03243 -0.052347 0)
(1.03559 -0.0528465 0)
(1.03876 -0.0531135 0)
(1.04191 -0.0531716 0)
(1.04501 -0.0530057 0)
(1.04806 -0.0526504 0)
(1.05102 -0.0520937 0)
(1.05388 -0.051376 0)
(1 -0.000388776 0)
(0.999925 -0.00106383 0)
(0.999769 -0.00180274 0)
(0.999617 -0.0025496 0)
(0.999422 -0.00339287 0)
(0.999168 -0.00442311 0)
(0.998906 -0.00560919 0)
(0.998661 -0.00697226 0)
(0.998435 -0.0084946 0)
(0.998224 -0.0101747 0)
(0.998045 -0.0119865 0)
(0.99793 -0.0138998 0)
(0.997896 -0.0158968 0)
(0.997943 -0.0179676 0)
(0.998084 -0.0201079 0)
(0.998335 -0.0223083 0)
(0.99872 -0.0245666 0)
(0.999253 -0.0268773 0)
(0.999954 -0.029238 0)
(1.00084 -0.0316391 0)
(1.00191 -0.0340716 0)
(1.0032 -0.036517 0)
(1.00471 -0.0389603 0)
(1.00646 -0.0413761 0)
(1.00844 -0.0437444 0)
(1.01067 -0.0460326 0)
(1.01312 -0.0482166 0)
(1.0158 -0.0502626 0)
(1.01867 -0.0521444 0)
(1.02174 -0.0538356 0)
(1.02497 -0.0553096 0)
(1.02833 -0.0565537 0)
(1.03179 -0.057542 0)
(1.03533 -0.0582801 0)
(1.03889 -0.0587439 0)
(1.04246 -0.058958 0)
(1.04599 -0.0589016 0)
(1.04947 -0.0586148 0)
(1.05286 -0.0580806 0)
(1.05614 -0.057349 0)
(1.00001 -0.000356165 0)
(0.999891 -0.00100305 0)
(0.999707 -0.00173369 0)
(0.999542 -0.00242769 0)
(0.999296 -0.00325504 0)
(0.998987 -0.00426792 0)
(0.998667 -0.00542738 0)
(0.998347 -0.00678881 0)
(0.998031 -0.00831152 0)
(0.997713 -0.0100104 0)
(0.99742 -0.011845 0)
(0.997182 -0.0137922 0)
(0.997011 -0.0158367 0)
(0.996907 -0.0179714 0)
(0.99689 -0.020193 0)
(0.996976 -0.0224939 0)
(0.997191 -0.0248765 0)
(0.997553 -0.0273376 0)
(0.998084 -0.0298783 0)
(0.998803 -0.0324917 0)
(0.999732 -0.03517 0)
(1.00089 -0.037895 0)
(1.0023 -0.0406508 0)
(1.00397 -0.0434095 0)
(1.00591 -0.046149 0)
(1.00814 -0.0488308 0)
(1.01064 -0.0514267 0)
(1.01342 -0.0538932 0)
(1.01646 -0.0561986 0)
(1.01974 -0.0583047 0)
(1.02323 -0.0601783 0)
(1.02691 -0.0617961 0)
(1.03074 -0.063125 0)
(1.03468 -0.0641635 0)
(1.03868 -0.0648807 0)
(1.04272 -0.0652992 0)
(1.04674 -0.0653921 0)
(1.05072 -0.0652039 0)
(1.0546 -0.0647122 0)
(1.05838 -0.063977 0)
(1.00001 -0.000305759 0)
(0.999844 -0.000946891 0)
(0.999642 -0.00165392 0)
(0.999467 -0.00228903 0)
(0.999167 -0.00310491 0)
(0.998813 -0.00408167 0)
(0.998433 -0.00520772 0)
(0.998035 -0.00656507 0)
(0.997627 -0.00807326 0)
(0.9972 -0.00978551 0)
(0.996792 -0.0116248 0)
(0.996425 -0.0135959 0)
(0.99611 -0.0156723 0)
(0.995847 -0.0178572 0)
(0.995659 -0.0201442 0)
(0.995564 -0.0225308 0)
(0.995589 -0.025024 0)
(0.995755 -0.0276225 0)
(0.996088 -0.0303329 0)
(0.99661 -0.0331507 0)
(0.997352 -0.0360721 0)
(0.998339 -0.0390809 0)
(0.999598 -0.0421617 0)
(1.00115 -0.0452847 0)
(1.00301 -0.0484256 0)
(1.00519 -0.0515409 0)
(1.00771 -0.0545982 0)
(1.01056 -0.0575443 0)
(1.01372 -0.060341 0)
(1.0172 -0.0629364 0)
(1.02096 -0.0652888 0)
(1.02497 -0.0673608 0)
(1.02918 -0.0691108 0)
(1.03357 -0.0705256 0)
(1.03806 -0.0715666 0)
(1.04263 -0.0722502 0)
(1.04721 -0.0725433 0)
(1.05176 -0.0724917 0)
(1.05622 -0.0720683 0)
(1.06057 -0.0713421 0)
(1.00002 -0.000230066 0)
(0.99978 -0.000909245 0)
(0.999579 -0.00155441 0)
(0.999388 -0.00214347 0)
(0.999036 -0.00293958 0)
(0.998647 -0.00386432 0)
(0.998202 -0.00495588 0)
(0.997726 -0.00630531 0)
(0.997227 -0.00778179 0)
(0.99669 -0.00950664 0)
(0.996168 -0.0113259 0)
(0.995667 -0.0133175 0)
(0.995203 -0.0154036 0)
(0.994772 -0.0176279 0)
(0.994405 -0.0199601 0)
(0.994114 -0.0224172 0)
(0.993932 -0.0250029 0)
(0.993879 -0.0277224 0)
(0.993985 -0.0305877 0)
(0.994277 -0.0335972 0)
(0.994792 -0.0367528 0)
(0.995562 -0.0400426 0)
(0.996622 -0.043454 0)
(0.997999 -0.046957 0)
(0.999722 -0.0505257 0)
(1.00181 -0.0541125 0)
(1.00429 -0.0576807 0)
(1.00716 -0.0611682 0)
(1.01042 -0.0645293 0)
(1.01408 -0.0676972 0)
(1.01808 -0.0706196 0)
(1.02242 -0.0732415 0)
(1.02705 -0.0755097 0)
(1.03191 -0.0773946 0)
(1.03695 -0.0788476 0)
(1.04212 -0.0798737 0)
(1.04733 -0.0804326 0)
(1.05254 -0.080567 0)
(1.05768 -0.080246 0)
(1.0627 -0.0795449 0)
(1.00003 -0.000119742 0)
(0.999697 -0.000909193 0)
(0.999522 -0.00141994 0)
(0.999302 -0.00200795 0)
(0.998909 -0.00274654 0)
(0.998489 -0.00362429 0)
(0.997971 -0.00467437 0)
(0.997424 -0.00601482 0)
(0.996832 -0.00743867 0)
(0.996188 -0.00918254 0)
(0.995555 -0.0109465 0)
(0.994914 -0.012969 0)
(0.994302 -0.0150275 0)
(0.993695 -0.0172931 0)
(0.993143 -0.0196377 0)
(0.992643 -0.0221563 0)
(0.992238 -0.0248079 0)
(0.991945 -0.0276319 0)
(0.991798 -0.0306307 0)
(0.991827 -0.0338146 0)
(0.992075 -0.0371893 0)
(0.99258 -0.0407498 0)
(0.993386 -0.0444882 0)
(0.994531 -0.0483787 0)
(0.996054 -0.0523951 0)
(0.997988 -0.0564875 0)
(1.00036 -0.0606143 0)
(1.0032 -0.0647064 0)
(1.0065 -0.0687092 0)
(1.01028 -0.0725412 0)
(1.01452 -0.0761371 0)
(1.01918 -0.0794211 0)
(1.02423 -0.0823243 0)
(1.02961 -0.0847954 0)
(1.03525 -0.0867716 0)
(1.04109 -0.0882398 0)
(1.04703 -0.0891503 0)
(1.05302 -0.0895364 0)
(1.05894 -0.0893638 0)
(1.06476 -0.08871 0)
(1.00004 3.25222e-05 0)
(0.999595 -0.000969186 0)
(0.999482 -0.00122982 0)
(0.999206 -0.00190572 0)
(0.998799 -0.00250318 0)
(0.998335 -0.00338445 0)
(0.997747 -0.00435509 0)
(0.997133 -0.00570593 0)
(0.996449 -0.00704069 0)
(0.995702 -0.00882588 0)
(0.994962 -0.0104811 0)
(0.994177 -0.0125688 0)
(0.993422 -0.0145347 0)
(0.992627 -0.0168722 0)
(0.991893 -0.0191669 0)
(0.991167 -0.0217623 0)
(0.990534 -0.0244287 0)
(0.989977 -0.0273539 0)
(0.989555 -0.0304482 0)
(0.98929 -0.0337918 0)
(0.989231 -0.0373588 0)
(0.989422 -0.0411751 0)
(0.989916 -0.0452261 0)
(0.990762 -0.0495018 0)
(0.992012 -0.0539749 0)
(0.993713 -0.0585997 0)
(0.995908 -0.0633283 0)
(0.998631 -0.068088 0)
(1.00191 -0.0728127 0)
(1.00576 -0.0774083 0)
(1.01018 -0.0817931 0)
(1.01514 -0.0858693 0)
(1.02061 -0.0895467 0)
(1.02653 -0.0927466 0)
(1.03283 -0.0953856 0)
(1.03942 -0.0974245 0)
(1.04621 -0.0987992 0)
(1.05309 -0.0995257 0)
(1.05996 -0.0995648 0)
(1.06673 -0.0989905 0)
(1.00007 0.000230175 0)
(0.999475 -0.0011057 0)
(0.999474 -0.000962451 0)
(0.999094 -0.00186187 0)
(0.998718 -0.00218157 0)
(0.998176 -0.00318086 0)
(0.997544 -0.00397574 0)
(0.996854 -0.00540489 0)
(0.996087 -0.00657384 0)
(0.99524 -0.00845897 0)
(0.994398 -0.00991673 0)
(0.993462 -0.0121462 0)
(0.992578 -0.0139052 0)
(0.99158 -0.0164013 0)
(0.990681 -0.0185227 0)
(0.989702 -0.0212695 0)
(0.98885 -0.0238397 0)
(0.987996 -0.0269115 0)
(0.987293 -0.0300149 0)
(0.986692 -0.0335327 0)
(0.986297 -0.0372314 0)
(0.986121 -0.0412999 0)
(0.986247 -0.0456261 0)
(0.986721 -0.0502822 0)
(0.987617 -0.0552012 0)
(0.988995 -0.0603763 0)
(0.990916 -0.0657388 0)
(0.993434 -0.0712263 0)
(0.996597 -0.076754 0)
(1.00043 -0.0822204 0)
(1.00496 -0.0875225 0)
(1.01018 -0.0925401 0)
(1.01605 -0.097156 0)
(1.02253 -0.101259 0)
(1.02954 -0.104735 0)
(1.03698 -0.10751 0)
(1.04473 -0.109497 0)
(1.05267 -0.110684 0)
(1.06065 -0.111021 0)
(1.06856 -0.110573 0)
(1.00015 0.000469472 0)
(0.999324 -0.00131971 0)
(0.999527 -0.000606665 0)
(0.998949 -0.0018939 0)
(0.998694 -0.00176094 0)
(0.997992 -0.00304863 0)
(0.997388 -0.00350723 0)
(0.996572 -0.00514891 0)
(0.99577 -0.00601294 0)
(0.994793 -0.00811739 0)
(0.993884 -0.00923096 0)
(0.992771 -0.0117432 0)
(0.991795 -0.0131071 0)
(0.990555 -0.0159368 0)
(0.989536 -0.0176588 0)
(0.988251 -0.0207447 0)
(0.987227 -0.0229856 0)
(0.986012 -0.0263673 0)
(0.985059 -0.0292743 0)
(0.984052 -0.033079 0)
(0.983322 -0.036751 0)
(0.982704 -0.0411333 0)
(0.982426 -0.0456266 0)
(0.982438 -0.0506926 0)
(0.982903 -0.0559974 0)
(0.983847 -0.0617487 0)
(0.985388 -0.0677428 0)
(0.987579 -0.0740184 0)
(0.99051 -0.0804198 0)
(0.994224 -0.0868737 0)
(0.998772 -0.0932335 0)
(1.00417 -0.0993655 0)
(1.0104 -0.105115 0)
(1.01743 -0.110332 0)
(1.02519 -0.114863 0)
(1.03356 -0.118589 0)
(1.04241 -0.121382 0)
(1.05159 -0.123193 0)
(1.06091 -0.123949 0)
(1.07021 -0.123695 0)
(1.00032 0.000736145 0)
(0.999096 -0.00159381 0)
(0.999695 -0.00017167 0)
(0.998724 -0.00199885 0)
(0.998772 -0.00124199 0)
(0.997736 -0.00300282 0)
(0.997328 -0.00293131 0)
(0.996243 -0.00496662 0)
(0.995546 -0.00533408 0)
(0.994325 -0.00783796 0)
(0.993462 -0.00839894 0)
(0.992072 -0.0114059 0)
(0.991114 -0.0121039 0)
(0.989528 -0.0155461 0)
(0.988509 -0.0165141 0)
(0.986792 -0.0202845 0)
(0.985725 -0.0217771 0)
(0.984004 -0.0258386 0)
(0.982923 -0.028117 0)
(0.981359 -0.0325457 0)
(0.980383 -0.0358007 0)
(0.979171 -0.040759 0)
(0.978525 -0.0451094 0)
(0.977926 -0.0507637 0)
(0.97793 -0.0562402 0)
(0.978282 -0.0626865 0)
(0.979346 -0.0691961 0)
(0.981043 -0.0763649 0)
(0.983608 -0.0836462 0)
(0.987042 -0.0912321 0)
(0.991479 -0.0987818 0)
(0.996936 -0.106237 0)
(1.00345 -0.113351 0)
(1.011 -0.119946 0)
(1.01953 -0.125808 0)
(1.02891 -0.130761 0)
(1.03902 -0.134621 0)
(1.04965 -0.137282 0)
(1.06058 -0.138626 0)
(1.07156 -0.138669 0)
(1.00071 0.00100881 0)
(0.9987 -0.0018934 0)
(1.00007 0.000310378 0)
(0.998324 -0.00215123 0)
(0.999036 -0.000652745 0)
(0.997316 -0.00302681 0)
(0.99745 -0.00225879 0)
(0.995774 -0.00485731 0)
(0.995502 -0.00453687 0)
(0.993739 -0.00763279 0)
(0.993224 -0.0074147 0)
(0.991274 -0.0111571 0)
(0.990632 -0.0108792 0)
(0.988409 -0.0152748 0)
(0.987698 -0.015045 0)
(0.98524 -0.0199753 0)
(0.984451 -0.0201242 0)
(0.98189 -0.0254652 0)
(0.981009 -0.0263983 0)
(0.978532 -0.0321183 0)
(0.977616 -0.0341891 0)
(0.975455 -0.0403775 0)
(0.974684 -0.0438531 0)
(0.973135 -0.0506647 0)
(0.972822 -0.0556939 0)
(0.972268 -0.0632829 0)
(0.972879 -0.0698543 0)
(0.973782 -0.0782579 0)
(0.975895 -0.086168 0)
(0.978779 -0.0951753 0)
(0.982963 -0.103916 0)
(0.988284 -0.112998 0)
(0.994966 -0.121705 0)
(1.00295 -0.130026 0)
(1.01223 -0.137575 0)
(1.0227 -0.144122 0)
(1.03421 -0.149404 0)
(1.04654 -0.153228 0)
(1.05941 -0.155405 0)
(1.07248 -0.155902 0)
(1.00143 0.00126421 0)
(0.998002 -0.00217704 0)
(1.00077 0.0007957 0)
(0.997616 -0.00230987 0)
(0.999603 -4.10791e-05 0)
(0.996591 -0.00307882 0)
(0.997885 -0.00153376 0)
(0.995009 -0.00478708 0)
(0.995792 -0.00366006 0)
(0.992861 -0.00747476 0)
(0.993346 -0.00631465 0)
(0.990184 -0.0109711 0)
(0.99054 -0.00947 0)
(0.986999 -0.0151033 0)
(0.987307 -0.0132762 0)
(0.983392 -0.0198244 0)
(0.98362 -0.0180123 0)
(0.979467 -0.0253106 0)
(0.979543 -0.0240326 0)
(0.97537 -0.0319432 0)
(0.97527 -0.0317344 0)
(0.971356 -0.0402271 0)
(0.971173 -0.041571 0)
(0.967875 -0.0507008 0)
(0.967855 -0.0539791 0)
(0.965634 -0.0638512 0)
(0.966228 -0.0692778 0)
(0.96565 -0.0799409 0)
(0.967522 -0.0875099 0)
(0.969256 -0.0987987 0)
(0.973197 -0.108155 0)
(0.977931 -0.119561 0)
(0.984687 -0.129806 0)
(0.992874 -0.140442 0)
(1.00288 -0.150058 0)
(1.01446 -0.15872 0)
(1.02753 -0.165926 0)
(1.04185 -0.171339 0)
(1.05705 -0.174712 0)
(1.07274 -0.175899 0)
(1.00258 0.00148273 0)
(0.996898 -0.00240247 0)
(1.00189 0.00124226 0)
(0.996482 -0.00242919 0)