/*--------------------------------*- C++ -*----------------------------------*\
| =========                 |                                                 |
| \\      /  F ield         | OpenFOAM: The Open Source CFD Toolbox           |
|  \\    /   O peration     | Version:  2512                                  |
|   \\  /    A nd           | Website:  www.openfoam.com                      |
|    \\/     M anipulation  |                                                 |
\*---------------------------------------------------------------------------*/
FoamFile
{
    version     2.0;
    format      ascii;
    arch        "LSB;label=32;scalar=64";
    class       surfaceScalarField;
    location    "188.85";
    object      phi;
}
// * * * * * * * * * * * * * * * * * * * * * * * * * * * * * * * * * * * * * //

dimensions      [0 3 -1 0 0 0 0];

oriented        oriented;

internalField   nonuniform List<scalar> 
26232
(
-0.000511813
0.00110475
-0.00059294
-0.00139077
0.00225226
-0.0013733
-0.00211212
0.00263497
-0.00191363
-0.00221462
0.0022091
-0.00210659
-0.00126421
0.000809834
-0.00176024
0.00115507
-0.00176764
-0.000651643
0.00544398
-0.00570936
0.00142045
0.0119331
-0.011111
0.00462183
0.0207974
-0.0179157
0.00905142
0.0319948
-0.0258892
0.0146918
0.0452356
-0.034649
0.0214081
0.060006
-0.0437325
0.0289622
0.0756319
-0.0526754
0.0370495
0.0913677
-0.0610792
0.0453433
0.10649
-0.0686533
0.0535306
0.120379
-0.0752389
0.0613506
0.132601
-0.0808061
0.0685839
0.14291
-0.0854537
0.0751444
0.15142
-0.0893581
0.0808481
0.158249
-0.092839
0.0860104
0.164126
-0.0959939
0.090117
0.169177
-0.099565
0.0945134
0.173865
-0.102462
0.0977741
-0.106965
0.10255
0.17828
-0.000274686
0.00137944
-0.000615957
0.00259353
-0.000529013
0.00254803
0.000479459
0.00120062
0.00289888
-0.00160959
0.00719068
-0.00605944
0.013724
-0.0122426
0.0226694
-0.0200564
0.033904
-0.0291504
0.0469868
-0.038972
0.0612183
-0.0488805
0.075763
-0.0582771
0.0897921
-0.0667046
0.102614
-0.0739014
0.113772
-0.0798108
0.123092
-0.0845595
0.130688
-0.0884017
0.136905
-0.0916711
0.142218
-0.0946703
0.147067
-0.0976886
0.151862
-0.100789
0.156474
-0.104177
0.161388
-0.107376
-0.111392
0.165815
-7.07292e-05
0.00145017
0.000120577
0.00240222
0.00106501
0.00160359
0.00329479
-0.00102915
0.0073371
-0.00565189
0.013627
-0.0123493
0.0223607
-0.0209764
0.0333594
-0.0310551
0.0460415
-0.0418324
0.0595337
-0.0524642
0.072869
-0.0622159
0.0851919
-0.0705999
0.0959149
-0.0774277
0.104799
-0.0827852
0.111948
-0.0869598
0.117725
-0.0903365
0.122619
-0.0932958
0.127085
-0.0961373
0.131439
-0.0990246
0.13581
-0.10206
0.140163
-0.105142
0.144451
-0.108465
0.148632
-0.111557
-0.115313
0.152553
8.35295e-05
0.00136664
0.000772625
0.00171313
0.00259968
-0.000223459
0.00614661
-0.00457608
0.011922
-0.0114273
0.0201878
-0.0206151
0.0307486
-0.0315372
0.0429057
-0.0432122
0.0556278
-0.0545546
0.0678417
-0.064678
0.078703
-0.0730772
0.0877617
-0.0796586
0.094992
-0.084658
0.100705
-0.088498
0.105382
-0.0916369
0.109499
-0.0944532
0.113397
-0.0971945
0.117238
-0.0999784
0.121067
-0.102853
0.124825
-0.105817
0.128557
-0.108874
0.132184
-0.112092
0.135868
-0.115241
-0.118979
0.139534
0.000216276
0.00115036
0.00141016
0.000519241
0.00419679
-0.00301009
0.00916227
-0.00954156
0.0166748
-0.0189399
0.0265851
-0.0305253
0.0381215
-0.0430736
0.0501105
-0.0552012
0.0613781
-0.0658221
0.0710929
-0.0743928
0.0789238
-0.0809082
0.0850025
-0.0857373
0.0897515
-0.089407
0.0936701
-0.0924166
0.097166
-0.0951329
0.100487
-0.0977745
0.103739
-0.100447
0.10696
-0.103199
0.110156
-0.106049
0.113357
-0.109018
0.116582
-0.112099
0.119805
-0.115315
0.123112
-0.118548
-0.122152
0.126285
0.000371598
0.000778765
0.00214119
-0.00125036
0.00598367
-0.00685256
0.0124035
-0.0159614
0.0213896
-0.027926
0.0321799
-0.0413156
0.0434838
-0.0543775
0.0540089
-0.0657264
0.0628985
-0.0747117
0.069885
-0.0813793
0.0751857
-0.0862088
0.0792659
-0.0898175
0.0826066
-0.0927477
0.0855666
-0.0953766
0.0883572
-0.0979234
0.0910816
-0.100499
0.0937917
-0.103157
0.0965107
-0.105918
0.0992529
-0.108792
0.102008
-0.111774
0.10477
-0.11486
0.107511
-0.118057
0.11027
-0.121307
-0.124832
0.11295
0.00057561
0.000203155
0.00301361
-0.00368836
0.00797493
-0.0118139
0.0156845
-0.023671
0.0255273
-0.0377688
0.0361543
-0.0519426
0.0461218
-0.0643451
0.054474
-0.0740785
0.0609262
-0.081164
0.0657143
-0.0861674
0.0693104
-0.0898049
0.072182
-0.0926891
0.0746722
-0.095238
0.0769885
-0.0976929
0.0792402
-0.100175
0.0814793
-0.102738
0.0837234
-0.105401
0.0859741
-0.108168
0.0882235
-0.111041
0.09047
-0.11402
0.0927197
-0.11711
0.0949681
-0.120305
0.0972535
-0.123593
-0.127064
0.0994856
0.000831221
-0.000628065
0.00400532
-0.00686246
0.0100239
-0.0178325
0.0185987
-0.0322457
0.0284563
-0.0476264
0.0379849
-0.0614711
0.0460315
-0.0723917
0.0521965
-0.0802435
0.0566717
-0.0856392
0.0599191
-0.0894148
0.0624088
-0.0922946
0.0644928
-0.094773
0.0663877
-0.097133
0.0682073
-0.0995125
0.0700013
-0.101969
0.0717855
-0.104522
0.0735637
-0.107179
0.0753373
-0.109942
0.0771111
-0.112815
0.0788896
-0.115799
0.0806705
-0.118891
0.0824495
-0.122084
0.0842316
-0.125375
-0.128785
0.0859528
0.00112474
-0.00175281
0.00503603
-0.0107737
0.0118807
-0.0246772
0.0207039
-0.0410689
0.0297896
-0.0567121
0.0376901
-0.0693716
0.0437701
-0.0784717
0.0481047
-0.0845781
0.0511256
-0.08866
0.0533155
-0.0916048
0.0550506
-0.0940297
0.0565654
-0.0962879
0.0579821
-0.0985496
0.0593537
-0.100884
0.0607004
-0.103316
0.0620303
-0.105852
0.063348
-0.108497
0.064657
-0.111251
0.0659581
-0.114116
0.0672504
-0.117091
0.068534
-0.120174
0.0698102
-0.123361
0.0710834
-0.126648
-0.130031
0.0723295
0.00143325
-0.00318605
0.0059932
-0.0153337
0.0132802
-0.0319642
0.0217154
-0.0495041
0.0295179
-0.0645146
0.0356729
-0.0755266
0.0400316
-0.0828304
0.0429515
-0.087498
0.044925
-0.0906336
0.0463639
-0.0930436
0.047533
-0.0951988
0.0485726
-0.0973275
0.0495459
-0.099523
0.0504791
-0.101817
0.0513828
-0.104219
0.0522621
-0.106731
0.0531198
-0.109354
0.0539582
-0.112089
0.0547803
-0.114938
0.0555892
-0.1179
0.0563855
-0.120971
0.0571687
-0.124144
0.0579351
-0.127414
-0.130766
0.05867
0.00172786
-0.00491392
0.00675749
-0.0203633
0.0140315
-0.0392382
0.0215881
-0.0570608
0.0279028
-0.0708292
0.0324428
-0.0800666
0.0354014
-0.0857891
0.0372543
-0.0893509
0.0384549
-0.0918342
0.0393143
-0.0939029
0.0400036
-0.0958881
0.0406025
-0.0979264
0.0411441
-0.100065
0.0416414
-0.102315
0.0421001
-0.104678
0.0425243
-0.107156
0.0429176
-0.109748
0.0432842
-0.112456
0.0436274
-0.115281
0.0439486
-0.118221
0.0442478
-0.12127
0.0445239
-0.12442
0.0447722
-0.127662
-0.130991
0.0449965
0.00198154
-0.00689546
0.00723443
-0.0256162
0.014072
-0.0460758
0.0204691
-0.0634578
0.0253092
-0.0756693
0.028461
-0.0832185
0.0303119
-0.08764
0.0313471
-0.090386
0.031938
-0.0924252
0.0323033
-0.0942682
0.0325482
-0.0961329
0.0327163
-0.0980945
0.0328249
-0.100173
0.0328815
-0.102371
0.0328908
-0.104688
0.0328567
-0.107121
0.0327828
-0.109674
0.0326722
-0.112345
0.032528
-0.115137
0.0323532
-0.118046
0.0321504
-0.121067
0.0319192
-0.124189
0.0316555
-0.127399
0.0313645
-0.1307
-0.000415867
-0.00796253
0.00837839
-0.00166985
-0.0157439
0.0169979
-0.00360956
-0.0186918
0.0206315
-0.00606001
-0.019038
0.0214885
-0.00888205
-0.0182378
0.0210598
-0.0119716
-0.0169866
0.0200762
-0.015246
-0.0154409
0.0187153
-0.0186338
-0.0135017
0.0168895
-0.022068
-0.0110092
0.0144433
-0.025485
-0.0078163
0.0112333
-0.0288328
-0.00379415
0.00714194
-0.031934
0.00104337
0.00205782
-0.0348624
0.00673151
-0.00380312
-0.0375227
0.0133265
-0.0106662
-0.0398328
0.0207559
-0.0184458
-0.0417136
0.0289155
-0.0270347
-0.0430781
0.0376502
-0.0362857
-0.0438324
0.0467483
-0.045994
-0.0438781
0.0559387
-0.055893
-0.0431012
0.064897
-0.0656739
-0.0413513
0.0732613
-0.0750112
-0.0384183
0.0806387
-0.0835717
-0.0339591
0.0865897
-0.0910489
0.0907808
-0.0275945
-0.0971454
-0.000682254
-0.00728027
-0.00232602
-0.0141002
-0.00464188
-0.016376
-0.00745423
-0.0162257
-0.010665
-0.015027
-0.0142032
-0.0134484
-0.0179965
-0.0116476
-0.0219662
-0.00953207
-0.026026
-0.00694931
-0.0300905
-0.00375184
-0.0340227
0.000138074
-0.0376998
0.00472048
-0.0410735
0.0101051
-0.0439996
0.0162527
-0.0463409
0.0230973
-0.0479485
0.0305231
-0.0486561
0.0383577
-0.0482762
0.0463684
-0.0465991
0.0542616
-0.0433865
0.0616845
-0.0383552
0.06823
-0.0312269
0.0735104
-0.0216996
0.0770624
0.0784868
-0.00940557
-0.000829124
-0.00645115
-0.00264005
-0.0122892
-0.00506126
-0.0139548
-0.00792259
-0.0133643
-0.0111594
-0.0117901
-0.0147261
-0.00988175
-0.0185542
-0.00781951
-0.0225524
-0.00553381
-0.0266132
-0.00288849
-0.0305944
0.000229322
-0.0343499
0.00389355
-0.0377795
0.00815015
-0.0406916
0.0130172
-0.0429028
0.0184639
-0.0442167
0.0244111
-0.0444205
0.0307269
-0.0432866
0.0372238
-0.0405733
0.043655
-0.0360268
0.0497151
-0.0294031
0.0550608
-0.0204602
0.0592872
-0.00894745
0.0619976
0.0051403
0.0629746
0.0611267
0.0225004
-0.000864868
-0.00558628
-0.00265482
-0.0104993
-0.00495717
-0.0116524
-0.00760171
-0.0107198
-0.0105413
-0.00885058
-0.0137462
-0.00667683
-0.0171502
-0.00441554
-0.0206455
-0.00203843
-0.0240983
0.000564307
-0.0273573
0.0034883
-0.0302604
0.00679667
-0.032627
0.0105168
-0.0342509
0.014641
-0.0349089
0.0191219
-0.0343647
0.0238669
-0.0323731
0.0287353
-0.0286841
0.0335348
-0.0230543
0.0380253
-0.0152612
0.041922
-0.00509519
0.0448948
0.0074895
0.0467025
0.0228328
0.0466543
0.0402843
0.0455231
0.0404455
0.0609655
-0.000825693
-0.00476059
-0.00248053
-0.00884444
-0.00453347
-0.00959948
-0.00679988
-0.00845337
-0.00922915
-0.00642132
-0.0117968
-0.00410916
-0.0144392
-0.00177315
-0.0170495
0.000571893
-0.0194726
0.0029874
-0.021537
0.0055527
-0.0230577
0.00831738
-0.0238337
0.0112928
-0.023647
0.0144543
-0.0222647
0.0177396
-0.0194482
0.0210505
-0.0149593
0.0242465
-0.00857781
0.0271533
-9.92563e-05
0.0295467
0.0105849
0.0312378
0.0237152
0.0317645
0.038966
0.0314517
0.0568713
0.0287489
0.0762188
0.0261756
0.0185578
0.0981065
-0.000760626
-0.00399996
-0.00225618
-0.00734888
-0.00404333
-0.00781233
-0.0059069
-0.0065898
-0.00777042
-0.0045578
-0.00960169
-0.00227789
-0.0113465
-2.83833e-05
-0.0129008
0.00212624
-0.0141072
0.00419377
-0.0147873
0.00623285
-0.0147475
0.00827751
-0.0137842
0.0103295
-0.0116872
0.0123573
-0.00824525
0.0142976
-0.00325552
0.0160607
0.00346833
0.0175226
0.0120889
0.0185328
0.0227406
0.018895
0.0353837
0.0185947
0.0502369
0.0169112
0.0666615
0.0150271
0.085396
0.0100144
0.10486
0.00671138
-0.00302359
0.126442
-0.000716208
-0.00328375
-0.00210953
-0.00595556
-0.00371886
-0.006203
-0.00528847
-0.00502019
-0.00670103
-0.00314524
-0.0079008
-0.00107812
-0.00884299
0.000913806
-0.00942164
0.00270489
-0.00950751
0.00427964
-0.00893454
0.00565989
-0.00752061
0.00686357
-0.00507913
0.00788804
-0.00142925
0.00870738
0.00359924
0.00926912
0.0101668
0.00949315
0.0183994
0.00929008
0.0283936
0.00853857
0.0401789
0.00710969
0.053767
0.00500665
0.0691874
0.00149078
0.0861019
-0.00188734
0.105056
-0.00893981
0.124831
-0.0130632
-0.0250892
0.146896
-0.000721438
-0.00256232
-0.00211513
-0.00456187
-0.00369289
-0.00462524
-0.00515896
-0.00355412
-0.00635406
-0.00195013
-0.00719738
-0.000234797
-0.00761893
0.00133536
-0.00753999
0.00262595
-0.00684899
0.00358864
-0.00540479
0.00421569
-0.00304931
0.00450809
0.000383866
0.00445486
0.00506214
0.0040291
0.0111477
0.0031836
0.0187855
0.00185531
0.0281033
-2.76835e-05
0.0392334
-0.00259154
0.0522092
-0.00586613
0.0672422
-0.0100263
0.0840439
-0.0153109
0.103104
-0.0209474
0.123729
-0.0295648
0.146264
-0.0355978
-0.0491466
0.170321
-0.000774178
-0.00178814
-0.00225797
-0.00307807
-0.00393124
-0.00295197
-0.0054669
-0.00201846
-0.00667142
-0.000745614
-0.00742583
0.000519614
-0.00764342
0.00155295
-0.0072329
0.00221543
-0.00607559
0.00243132
-0.00401821
0.0021583
-0.000880669
0.00137056
0.00353846
3.57352e-05
0.00945725
-0.00188968
0.0170854
-0.00444452
0.0266098
-0.00766909
0.0382023
-0.0116202
0.0519277
-0.0163169
0.0678506
-0.0217891
0.0859688
-0.0281445
0.10583
-0.0351722
0.127938
-0.0430551
0.150342
-0.0519691
0.174825
-0.0600804
-0.0720373
0.197715
-0.000833079
-0.000955059
-0.00241349
-0.00149766
-0.00419452
-0.00117094
-0.00582421
-0.000388773
-0.00706882
0.000498993
-0.00776644
0.00121724
-0.0077704
0.00155691
-0.0069204
0.00136542
-0.00502496
0.000535883
-0.0018406
-0.00102605
0.00287048
-0.00334053
0.0093748
-0.00646859
0.0178949
-0.0104098
0.0285933
-0.0151429
0.0415361
-0.0206119
0.0567024
-0.0267865
0.0738916
-0.0335061
0.0929299
-0.0408274
0.113248
-0.0484623
0.134505
-0.0564292
0.156097
-0.0646477
0.176641
-0.0725133
0.197063
-0.0805023
-0.0880495
0.213076
-0.000830741
-0.000124318
-0.00238567
5.72714e-05
-0.00410812
0.0005515
-0.00561379
0.0011169
-0.00661659
0.00150179
-0.00686939
0.00147004
-0.00612492
0.000812437
-0.0041034
-0.000656094
-0.000540431
-0.00302709
0.00484567
-0.00641215
0.0123248
-0.0108197
0.0220483
-0.016192
0.0340496
-0.0224111
0.0482196
-0.0293129
0.064305
-0.0366974
0.0819076
-0.044389
0.100527
-0.0521255
0.119581
-0.0598812
0.138318
-0.0671995
0.156316
-0.0744269
0.172451
-0.080783
0.186818
-0.0868805
0.198608
-0.0922919
-0.0963817
0.20694
-0.000717259
-0.00203329
-0.00339542
-0.0043851
-0.00464355
-0.00382515
-0.00159227
0.00237347
0.0083978
0.0166775
0.0272659
0.040036
0.0546745
0.0707049
0.0875381
0.1045
0.120958
0.136221
0.14987
0.161453
0.170787
0.17842
0.183902
0.190071
-0.0148237
0.124564
-0.137335
0.00207509
0.120741
-0.13764
0.02265
0.108853
-0.129428
0.0458299
0.0885883
-0.111768
0.0693399
0.0613756
-0.0848856
0.0903568
0.0298994
-0.0509163
0.107578
-0.00567915
-0.0115423
0.121804
-0.0479673
0.033741
0.133875
-0.0948827
0.0828126
0.143044
-0.136566
0.127397
0.148507
-0.1641
0.158637
0.150473
-0.175835
0.17387
0.149577
-0.177043
0.177938
0.147104
-0.174781
0.177254
0.14439
-0.171595
0.174309
0.140843
-0.169567
0.173114
0.13475
-0.175402
0.181495
0.126344
-0.190249
0.198655
0.118872
-0.197906
0.205378
0.115828
-0.172887
0.175931
0.118394
-0.105226
0.10266
0.126171
-0.010333
0.00255601
0.13633
0.0829581
-0.0931173
0.14594
0.153162
-0.162771
0.153018
0.195173
-0.202252
0.158207
0.21136
-0.216549
0.161333
0.212614
-0.21574
0.160807
0.221514
-0.220988
0.155913
0.247831
-0.242938
0.147408
0.270681
-0.262176
0.137341
0.257533
-0.247466
0.129114
0.190512
-0.182284
0.126049
0.0775472
-0.0744825
0.128444
-0.0492091
0.0468147
0.134411
-0.15468
0.148714
0.140983
-0.2199
0.213327
0.143046
-0.249427
0.247365
0.137342
-0.264711
0.270415
0.12627
-0.275003
0.286075
0.115577
-0.256765
0.267459
0.110745
-0.18612
0.190952
0.114412
-0.0697601
0.0660935
0.12287
0.0550091
-0.0634676
0.12838
0.156796
-0.162306
0.127258
0.242689
-0.241567
0.122848
0.295957
-0.291547
0.119604
0.297084
-0.293839
0.118951
0.222992
-0.222339
0.120689
0.0822365
-0.0839743
0.121189
-0.0687336
0.0682337
0.11875
-0.228303
0.230741
0.116387
-0.31165
0.314013
0.115138
-0.305499
0.306748
0.113647
-0.18788
0.189371
0.11055
0.0569811
-0.0538842
0.107805
0.223832
-0.221087
0.10566
0.353884
-0.351739
0.100926
0.28497
-0.280236
0.0941962
-0.0616758
0.0684057
-0.128478
0.131034
0.0097623
0.105396
0.0311643
0.0993388
0.0540204
0.0859973
0.0771772
0.0654314
0.0987681
0.0397847
0.116776
0.0118912
0.130702
-0.0196049
0.141747
-0.0590126
0.150234
-0.103369
0.155144
-0.141477
0.155985
-0.164941
0.15374
-0.173591
0.149519
-0.172821
0.144303
-0.169565
0.139324
-0.166616
0.133948
-0.164192
0.125914
-0.167368
0.115169
-0.179504
0.105514
-0.188251
0.101693
-0.169067
0.105376
-0.108909
0.115857
-0.0208148
0.129437
0.069378
0.142095
0.140505
0.152105
0.185163
0.159963
0.203501
0.165438
0.207139
0.167551
0.219401
0.165576
0.249806
0.159345
0.276913
0.150056
0.266821
0.140999
0.199569
0.135495
0.0830513
0.134619
-0.0483331
0.136968
-0.15703
0.140728
-0.223659
0.141339
-0.250038
0.134754
-0.258127
0.122977
-0.263226
0.112607
-0.246395
0.109168
-0.182681
0.114323
-0.0749157
0.123507
0.0458253
0.129371
0.150933
0.128946
0.243113
0.124937
0.299966
0.121506
0.300516
0.120304
0.224193
0.121707
0.0808335
0.121811
-0.0688381
0.118384
-0.224875
0.115436
-0.308702
0.113927
-0.303989
0.113459
-0.187412
0.111357
0.0590834
0.10952
0.225669
0.108318
0.355086
0.102125
0.291162
0.0940941
-0.0536447
-0.126385
0.0434787
0.0844179
0.0653717
0.0774458
0.0870925
0.0642765
0.107538
0.0449855
0.12538
0.0219429
0.13967
-0.00239857
0.150552
-0.030487
0.158917
-0.0673775
0.164305
-0.108757
0.165395
-0.142567
0.162073
-0.161619
0.156155
-0.167673
0.149277
-0.165943
0.141916
-0.162204
0.135008
-0.159708
0.128424
-0.157608
0.119418
-0.158361
0.106916
-0.167002
0.0950147
-0.17635
0.0899099
-0.163962
0.0942927
-0.113291
0.106661
-0.0331832
0.122798
0.0532416
0.138192
0.125111
0.151034
0.172322
0.161511
0.193025
0.169492
0.199158
0.174545
0.214349
0.175861
0.24849
0.172289
0.280485
0.164062
0.275048
0.154114
0.209517
0.14598
0.091185
0.141695
-0.0440477
0.14033
-0.155665
0.141037
-0.224367
0.140314
-0.249315
0.133293
-0.251106
0.120951
-0.250884
0.110563
-0.236007
0.108163
-0.180281
0.114552
-0.0813053
0.124482
0.0358959
0.130974
0.14444
0.13141
0.242678
0.127735
0.30364
0.123903
0.304348
0.122025
0.226072
0.123103
0.0797547
0.122988
-0.0687226
0.118631
-0.220518
0.11497
-0.305041
0.113168
-0.302187
0.113726
-0.18797
0.112726
0.0600834
0.111793
0.226602
0.111515
0.355364
0.104145
0.298532
0.0948691
-0.0443684
-0.124459
0.0806111
0.0647723
0.100286
0.0577707
0.11879
0.045773
0.135138
0.0286377
0.148488
0.00859294
0.15906
-0.0129706
0.167701
-0.0391278
0.174259
-0.0739356
0.176634
-0.111133
0.173674
-0.139607
0.166457
-0.154401
0.157357
-0.158573
0.14837
-0.156956
0.139694
-0.153528
0.131386
-0.1514
0.123815
-0.150037
0.114787
-0.149333
0.101875
-0.15409
0.0881743
-0.162649
0.0810775
-0.156865
0.0849739
-0.117188
0.0981396
-0.0463489
0.116102
0.0352789
0.133805
0.107408
0.149261
0.156866
0.162256
0.18003
0.172782
0.188631
0.180992
0.206139
0.185982
0.2435
0.185515
0.280951
0.178707
0.281857
0.167916
0.220307
0.157157
0.101944
0.149548
-0.036439
0.144583
-0.150699
0.141972
-0.221757
0.13975
-0.247092
0.132699
-0.244055
0.120097
-0.238282
0.109384
-0.225293
0.107492
-0.178389
0.114876
-0.0886898
0.125701
0.0250708
0.133108
0.137033
0.134523
0.241263
0.131133
0.307031
0.126777
0.308704
0.124099
0.228749
0.124853
0.0790011
0.12469
-0.0685594
0.1195
-0.215328
0.115016
-0.300558
0.112839
-0.30001
0.114402
-0.189533
0.114601
0.0598844
0.114547
0.226656
0.115218
0.354693
0.106964
0.306785
0.0965063
-0.0339104
-0.122504
0.11505
0.0478286
0.131283
0.0415376
0.145808
0.031248
0.157827
0.016619
0.167406
-0.000985953
0.175162
-0.0207272
0.182182
-0.0461471
0.186772
-0.0785261
0.18591
-0.110271
0.179105
-0.132802
0.168692
-0.143988
0.157327
-0.147208
0.146865
-0.146494
0.137511
-0.144175
0.128641
-0.142529
0.120462
-0.141858
0.11172
-0.140591
0.0994202
-0.14179
0.0847622
-0.147991
0.0752735
-0.147377
0.0774449
-0.119359
0.0903855
-0.0592894
0.109347
0.0163174
0.128814
0.0879408
0.146431
0.139249
0.161573
0.164888
0.174539
0.175666
0.185949
0.194728
0.194774
0.234675
0.198045
0.27768
0.193592
0.28631
0.182365
0.231534
0.168876
0.115434
0.157898
-0.0254618
0.149489
-0.14229
0.143477
-0.215744
0.139543
-0.243159
0.132765
-0.237277
0.12029
-0.225807
0.109008
-0.214011
0.107012
-0.176393
0.115106
-0.0967833
0.12696
0.0132161
0.135637
0.128357
0.138321
0.238579
0.135247
0.310104
0.130226
0.313725
0.126586
0.232389
0.126937
0.0786501
0.12688
-0.0685018
0.120971
-0.209419
0.115575
-0.295162
0.112911
-0.297346
0.115449
-0.192072
0.116914
0.0584191
0.117696
0.225874
0.11937
0.353019
0.11054
0.315615
0.0989828
-0.0223529
-0.120364
0.140579
0.0336912
0.153672
0.0284448
0.165168
0.0197524
0.174405
0.00738168
0.182096
-0.00867745
0.188786
-0.0274172
0.194523
-0.0518837
0.196344
-0.0803468
0.191734
-0.105661
0.181555
-0.122623
0.168933
-0.131366
0.156353
-0.134628
0.145094
-0.135234
0.135403
-0.134484
0.126378
-0.133504
0.117909
-0.13339
0.10978
-0.132462
0.0990257
-0.131036
0.0845811
-0.133546
0.0726786
-0.135474
0.0718472
-0.118528
0.0833037
-0.070746
0.102432
-0.00281033
0.123049
0.0673237
0.142318
0.11998
0.159227
0.147978
0.174308
0.160585
0.188672
0.180364
0.201385
0.221963
0.208535
0.27053
0.206815
0.28803
0.196427
0.241923
0.18076
0.131101
0.166458
-0.0111597
0.154785
-0.130617
0.145448
-0.206407
0.139492
-0.237202
0.133123
-0.230909
0.121277
-0.213961
0.109346
-0.202079
0.106607
-0.173654
0.115039
-0.105216
0.128074
0.000181435
0.138338
0.118093
0.142502
0.234414
0.139881
0.312725
0.13425
0.319357
0.129541
0.237098
0.12935
0.078841
0.129507
-0.0686591
0.123002
-0.202913
0.116628
-0.288789
0.113338
-0.294056
0.1168
-0.195533
0.119578
0.0556411
0.121143
0.224309
0.12389
0.350272
0.114812
0.324694
0.102266
-0.00980765
-0.117913
0.158688
0.0218991
0.16983
0.017303
0.179833
0.00974998
0.188442
-0.00122769
0.195417
-0.0156523
0.20134
-0.0333409
0.204662
-0.0552054
0.202431
-0.0781157
0.193771
-0.0970013
0.180915
-0.109767
0.167058
-0.117509
0.154156
-0.121727
0.142777
-0.123855
0.133112
-0.12482
0.124407
-0.124798
0.115889
-0.124872
0.108037
-0.124611
0.099289
-0.122288
0.0866985
-0.120956
0.0734193
-0.122195
0.0687057
-0.113814
0.077349
-0.0793893
0.0952396
-0.0207009
0.116557
0.0460064
0.136934
0.0996021
0.155079
0.129834
0.171802
0.143862
0.188743
0.163423
0.205062
0.205644
0.216368
0.259224
0.218242
0.286155
0.209362
0.250803
0.192601
0.147861
0.174985
0.00645645
0.160082
-0.115715
0.147739
-0.194064
0.13951
-0.228973
0.133448
-0.224847
0.122747
-0.203261
0.110332
-0.189664
0.106269
-0.169591
0.114526
-0.113473
0.128791
-0.0140838
0.140991
0.105894
0.147083
0.228322
0.145236
0.314571
0.139022
0.325571
0.133074
0.243047
0.1321
0.079815
0.13251
-0.0690693
0.125531
-0.195935
0.118141
-0.281399
0.114093
-0.290007
0.118373
-0.199813
0.122507
0.0515078
0.124794
0.222022
0.128681
0.346384
0.119691
0.333684
0.106308
0.00357506
-0.115063
0.179387
0.0128334
0.188517
0.0081721
0.196602
0.00166541
0.203768
-0.00839347
0.208813
-0.020698
0.211684
-0.036211
0.210373
-0.0538951
0.203245
-0.0709873
0.191314
-0.0850699
0.177297
-0.0957505
0.163459
-0.10367
0.150961
-0.109229
0.139949
-0.112843
0.13043
-0.115301
0.122166
-0.116535
0.114133
-0.116838
0.106439
-0.116916
0.0991871
-0.115036
0.0895354
-0.111304
0.0769339
-0.109594
0.0686784
-0.105559
0.0728394
-0.0835503
0.0883592
-0.0362208
0.109446
0.0249194
0.130328
0.0787201
0.149145
0.111018
0.166971
0.126035
0.185892
0.144502
0.205325
0.186211
0.220481
0.244068
0.225682
0.280954
0.21868
0.257805
0.201963
0.164578
0.18213
0.0262895
0.164851
-0.0984355
0.150075
-0.179287
0.139499
-0.218397
0.133452
-0.2188
0.124321
-0.19413
0.11185
-0.177193
0.106057
-0.163798
0.113491
-0.120907
0.128896
-0.0294886
0.143244
0.0915458
0.151532
0.220034
0.150906
0.315197
0.144472
0.332005
0.137251
0.250268
0.135209
0.0818565
0.135815
-0.0696751
0.128485
-0.188604
0.120067
-0.272981
0.115134
-0.285075
0.120088
-0.204767
0.125604
0.0459918
0.128536
0.21909
0.13362
0.3413
0.125076
0.342228
0.111033
0.0176184
-0.111772
0.20303
0.00751904
0.208424
0.00277816
0.213279
-0.0031895
0.216184
-0.0112992
0.217059
-0.0215723
0.214927
-0.0340792
0.208548
-0.0475162
0.197993
-0.0604319
0.185021
-0.0720981
0.171569
-0.0822989
0.15869
-0.0907905
0.146964
-0.0975036
0.136587
-0.102465
0.127404
-0.106119
0.119434
-0.108564
0.112049
-0.109454
0.104706
-0.109573
0.0981946
-0.108525
0.0913643
-0.104474
0.0815082
-0.0997374
0.0717461
-0.0957966
0.0708706
-0.0826748
0.0824417
-0.0477918
0.102111
0.00524969
0.12293
0.057901
0.141963
0.0919851
0.160079
0.107919
0.179996
0.124585
0.202135
0.164072
0.221464
0.224739
0.231055
0.271363
0.227032
0.261828
0.210622
0.180988
0.188308
0.0486035
0.168879
-0.0790069
0.152251
-0.162659
0.139428
-0.205574
0.132958
-0.21233
0.12561
-0.186783
0.113681
-0.165263
0.10605
-0.156167
0.111915
-0.126772
0.128125
-0.0456984
0.144899
0.0747712
0.155933
0.209001
0.157092
0.314038
0.150666
0.338431
0.142109
0.258825
0.138644
0.0853219
0.139319
-0.0703501
0.131764
-0.18105
0.122335
-0.263552
0.116417
-0.279157
0.12186
-0.21021
0.128798
0.0390541
0.132304
0.215584
0.138597
0.335008
0.130831
0.349993
0.116372
0.0320783
-0.108031
0.215254
0.00534052
0.217049
0.00098329
0.217678
-0.00381828
0.216493
-0.0101145
0.213412
-0.0184915
0.20759
-0.0282569
0.198885
-0.0388109
0.188091
-0.0496385
0.176341
-0.060348
0.164463
-0.0704208
0.152947
-0.0792747
0.142198
-0.0867547
0.13254
-0.0928069
0.123872
-0.0974507
0.116153
-0.100846
0.109312
-0.102613
0.102646
-0.102907
0.0964564
-0.102335
0.0912779
-0.0992951
0.0848833
-0.0933428
0.0764679
-0.0873812
0.0720829
-0.0782898
0.07861
-0.0543189
0.0950349
-0.0111752
0.114846
0.0380898
0.133497
0.0733342
0.151383
0.0900333
0.171641
0.104327
0.195076
0.140636
0.217107
0.202708
0.230582
0.257888
0.229977
0.262434
0.215051
0.195913
0.19269
0.0709641
0.171917
-0.0582332
0.153993
-0.144735
0.139155
-0.190736
0.131794
-0.204969
0.126245
-0.181234
0.115499
-0.154517
0.106246
-0.146915
0.109905
-0.130431
0.126326
-0.0621195
0.145354
0.0557433
0.159341
0.195014
0.163018
0.310361
0.157487
0.343961
0.147663
0.268649
0.14247
0.0905155
0.142925
-0.070805
0.13526
-0.173385
0.124853
-0.253146
0.117877
-0.27218
0.123606
-0.21594
0.131989
0.0306713
0.135994
0.21158
0.143465
0.327536
0.136807
0.356651
0.122235
0.0466503
-0.103871
0.207958
0.00432245
0.20777
0.00117198
0.206435
-0.00248332
0.203858
-0.007538
0.199601
-0.0142349
0.193473
-0.0221289
0.185689
-0.0310263
0.176692
-0.0406414
0.166865
-0.0505214
0.156579
-0.0601348
0.146323
-0.0690187
0.136541
-0.0769723
0.127549
-0.0838149
0.119413
-0.0893149
0.112027
-0.0934602
0.105514
-0.0960992
0.0996049
-0.0969982
0.0939567
-0.0966864
0.089369
-0.0947074
0.0854481
-0.0894219
0.0800933
-0.0820264
0.075188
-0.0733844
0.0775049
-0.0566357
0.0898253
-0.0234956
0.107628
0.0202874
0.125163
0.0557988
0.141889
0.0733077
0.161208
0.0850083
0.18578
0.116064
0.211592
0.176896
0.229278
0.240201
0.231981
0.259731
0.2188
0.209095
0.195551
0.0942129
0.173229
-0.035911
0.15478
-0.126286
0.138581
-0.174536
0.12996
-0.196348
0.12601
-0.177284
0.117039
-0.145546
0.106622
-0.136498
0.107493
-0.131302
0.123398
-0.078024
0.144799
0.0343419
0.162288
0.177525
0.168779
0.30387
0.164512
0.348228
0.153611
0.27955
0.14644
0.097686
0.146487
-0.0708523
0.138914
-0.165811
0.127574
-0.241806
0.119478
-0.264084
0.125255
-0.221717
0.135135
0.0207912
0.139596
0.207119
0.148159
0.318972
0.142896
0.361915
0.128515
0.0610318
-0.0993716
0.190685
0.00370814
0.190461
0.00139633
0.189452
-0.00147435
0.187461
-0.00554652
0.1841
-0.0108743
0.179382
-0.0174106
0.173363
-0.0250073
0.166129
-0.0334074
0.157876
-0.042269
0.148983
-0.0512413
0.139925
-0.0599608
0.131118
-0.0681649
0.122815
-0.075512
0.115173
-0.0816735
0.108219
-0.0865056
0.101987
-0.0898676
0.0965395
-0.0915504
0.0915586
-0.0917056
0.0872351
-0.0903839
0.0841861
-0.0863729
0.0813521
-0.0791925
0.0781181
-0.0701504
0.0782877
-0.0568053
0.0861124
-0.0313203
0.100554
0.00584582
0.116352
0.0400005
0.131467
0.0581926
0.148679
0.0677964
0.171358
0.0933859
0.197648
0.150606
0.2198
0.218049
0.22867
0.250861
0.219336
0.218429
0.197544
0.116005
0.174901
-0.0132689
0.155876
-0.10726
0.138568
-0.157229
0.12824
-0.18602
0.125255
-0.174299
0.118379
-0.13867
0.107314
-0.125434
0.105341
-0.129329
0.119443
-0.0921256
0.142038
0.0117471
0.162924
0.156639
0.173441
0.293353
0.17185
0.349819
0.160435
0.290965
0.151035
0.107086
0.150169
-0.0699855
0.14284
-0.158483
0.130528
-0.229494
0.121337
-0.254894
0.126844
-0.227223
0.138117
0.00951762
0.142984
0.202252
0.152507
0.30945
0.148907
0.365514
0.135122
0.0748165
-0.0946232
0.206652
0.00307952
-0.206023
0.207532
0.000516153
0.20871
-0.00265282
0.209624
-0.00645972
0.210032
-0.0112827
0.209746
-0.017125
0.208615
-0.0238759
0.206528
-0.0313207
0.203461
-0.0392023
0.199492
-0.0472714
0.194701
-0.0551697
0.18919
-0.0626544
0.183042
-0.0693639
0.176337
-0.0749682
0.16925
-0.0794192
0.161853
-0.0824709
0.154301
-0.0839975
0.146727
-0.084132
0.138897
-0.082554
0.131058
-0.0785339
0.123554
-0.0716889
0.115251
-0.0618465
0.10642
-0.0479747
0.101048
-0.0259485
0.101937
0.00495648
0.108538
0.0333997
0.118899
0.0478316
0.130566
0.0561294
0.142417
0.0815352
0.154953
0.13807
0.168256
0.204746
0.180393
0.238724
0.189178
0.209643
0.193271
0.111913
0.192419
-0.0124171
0.18711
-0.101952
0.175079
-0.145197
0.162577
-0.173518
0.154056
-0.165778
0.143144
-0.127758
0.128657
-0.110947
0.120071
-0.120742
0.123399
-0.0954534
0.132942
0.00220415
0.142501
0.14708
0.147593
0.288261
0.149742
0.34767
0.149777
0.29093
0.151355
0.105508
0.156523
-0.0751537
0.151679
-0.153638
0.139312
-0.217128
0.127124
-0.242706
0.125438
-0.225537
0.130074
0.00488138
0.131383
0.200943
0.139841
0.300993
0.13991
0.365444
0.129151
0.0855758
-0.0890147
0.216086
0.00274843
-0.215755
0.216665
-6.28749e-05
0.217339
-0.00332615
0.217887
-0.00700802
0.218014
-0.0114096
0.21751
-0.0166214
0.216226
-0.0225916
0.214081
-0.0291758
0.211025
-0.0361461
0.207058
-0.0433046
0.20221
-0.0503214
0.196539
-0.056984
0.190202
-0.0630262
0.183345
-0.0681115
0.176178
-0.0722525
0.168903
-0.0751959
0.161526
-0.0766199
0.154193
-0.0767991
0.146901
-0.0752622
0.139436
-0.0710691
0.132437
-0.0646894
0.126001
-0.0554111
0.119391
-0.0413642
0.113985
-0.0205432
0.113338
0.00560369
0.118193
0.0285444
0.127098
0.0389271
0.137718
0.0455094
0.149332
0.0699207
0.162828
0.124574
0.177688
0.189886
0.191362
0.225051
0.201559
0.199445
0.207001
0.106471
0.206087
-0.0115023
0.19985
-0.0957156
0.186818
-0.132166
0.172964
-0.159663
0.164027
-0.15684
0.154034
-0.117765
0.139645
-0.0965586
0.129566
-0.110663
0.131948
-0.0978358
0.142437
-0.00828475
0.154512
0.135005
0.162215
0.280559
0.166585
0.3433
0.167222
0.290293
0.167654
0.105075
0.171918
-0.079417
0.165946
-0.147667
0.151677
-0.202858
0.137805
-0.228834
0.135894
-0.223627
0.14152
-0.00074398
0.142822
0.19964
0.151966
0.291849
0.153572
0.363838
0.142971
0.096177
-0.0828438
0.225375
0.00225761
-0.224884
0.225825
-0.000513245
0.226218
-0.00371914
0.226455
-0.00724522
0.22634
-0.0112947
0.22568
-0.0159611
0.224334
-0.0212451
0.222223
-0.0270647
0.219299
-0.0332223
0.215551
-0.0395563
0.21102
-0.0457912
0.205768
-0.0517314
0.199924