/*--------------------------------*- C++ -*----------------------------------*\
| =========                 |                                                 |
| \\      /  F ield         | OpenFOAM: The Open Source CFD Toolbox           |
|  \\    /   O peration     | Version:  2512                                  |
|   \\  /    A nd           | Website:  www.openfoam.com                      |
|    \\/     M anipulation  |                                                 |
\*---------------------------------------------------------------------------*/
FoamFile
{
    version     2.0;
    format      ascii;
    arch        "LSB;label=32;scalar=64";
    class       volVectorField;
    location    "26.5";
    object      U;
}
// * * * * * * * * * * * * * * * * * * * * * * * * * * * * * * * * * * * * * //

dimensions      [0 1 -1 0 0 0 0];

internalField   nonuniform List<vector> 
13248
(
(-0.014889 0.0131103 3.59054e-20)
(-0.0333952 0.0307633 0)
(-0.040249 0.0419547 -6.21878e-20)
(-0.0353602 0.0483269 5.75834e-20)
(-0.0187181 0.0513063 5.30893e-20)
(0.0100331 0.052182 0)
(0.051648 0.0521541 0)
(0.107079 0.0523351 1.25405e-19)
(0.177034 0.0536999 1.0116e-22)
(0.261432 0.0569886 -1.0828e-19)
(0.358924 0.0626467 1.0123e-19)
(0.466777 0.070753 -6.28769e-20)
(0.581065 0.0810109 0)
(0.697134 0.0927831 -1.10465e-19)
(0.810095 0.10522 2.06001e-19)
(0.915523 0.117294 -4.87816e-20)
(1.00938 0.128169 -8.94908e-20)
(1.08933 0.136638 8.3427e-20)
(1.15302 0.143033 0)
(1.20098 0.144605 0)
(1.23298 0.14648 0)
(1.25129 0.137894 0)
(1.25805 0.139114 2.69892e-20)
(1.25716 0.11568 1.01192e-19)
(-0.016714 0.0125318 -1.07936e-19)
(-0.0345097 0.0269479 6.80512e-20)
(-0.03724 0.034431 -3.41396e-22)
(-0.0245943 0.037745 -8.70512e-20)
(0.00398979 0.0389218 -5.30174e-20)
(0.0495288 0.0396282 -4.92006e-20)
(0.11313 0.0412901 -9.02524e-20)
(0.195279 0.0450938 8.38906e-20)
(0.295024 0.0518766 0)
(0.409435 0.0619799 3.92085e-24)
(0.533647 0.0751699 -2.67505e-22)
(0.661472 0.0906621 6.22204e-20)
(0.786303 0.107264 0)
(0.901991 0.123568 0)
(1.00358 0.138224 7.52606e-20)
(1.08762 0.150035 -1.40293e-19)
(1.1526 0.158296 8.56057e-20)
(1.19855 0.162531 -7.98102e-20)
(1.22729 0.162958 -3.56809e-20)
(1.24169 0.159853 -6.69228e-20)
(1.24524 0.154133 -2.90219e-20)
(1.24215 0.145945 -5.51368e-20)
(1.23527 0.138723 7.80809e-20)
(1.22911 0.127107 2.30347e-20)
(-0.018465 0.0120538 0)
(-0.0335799 0.0236438 0)
(-0.0284109 0.0283405 3.128e-20)
(-0.00265132 0.029814 2.85807e-20)
(0.0446787 0.0307647 -4.23155e-22)
(0.114729 0.0332974 -5.00182e-20)
(0.207723 0.0390281 0)
(0.321694 0.0489712 -4.18389e-20)
(0.451756 0.0633329 3.87913e-20)
(0.590436 0.0814221 -7.9347e-23)
(0.728919 0.101781 -6.63293e-20)
(0.858617 0.122501 -6.12514e-20)
(0.972475 0.141616 3.55388e-22)
(1.06581 0.157463 -5.18809e-20)
(1.13657 0.168934 1.22011e-19)
(1.18531 0.17555 0)
(1.21464 0.17763 -8.16723e-20)
(1.22871 0.175557 3.92509e-20)
(1.2322 0.171116 3.5644e-20)
(1.22976 0.163769 0)
(1.22499 0.157578 3.00345e-20)
(1.22044 0.147864 -1.0539e-19)
(1.21736 0.144177 9.84184e-20)
(1.21493 0.132976 6.51673e-20)
(-0.0194442 0.0111651 -3.71608e-20)
(-0.0288752 0.0199469 -3.54387e-20)
(-0.0110424 0.0228329 3.19715e-20)
(0.0340742 0.0240716 0)
(0.107365 0.0269875 0)
(0.208776 0.0340274 -6.15335e-22)
(0.335322 0.0466274 0)
(0.4799 0.0649182 -1.26241e-19)
(0.631924 0.0876439 1.16442e-19)
(0.779538 0.112492 -1.4318e-19)
(0.912151 0.136721 3.30082e-20)
(1.02226 0.157815 0)
(1.10624 0.173988 5.52268e-20)
(1.16426 0.184434 -1.0208e-19)
(1.19956 0.189284 2.41842e-20)
(1.21732 0.189475 6.40662e-20)
(1.22337 0.186192 -1.41753e-21)
(1.22303 0.180956 -7.08797e-20)
(1.22027 0.174561 0)
(1.21742 0.168009 0)
(1.21498 0.161665 -2.66823e-20)
(1.21353 0.154497 2.43203e-20)
(1.21059 0.150292 9.03136e-20)
(1.20981 0.140423 -8.42987e-20)
(-0.0189337 0.00963385 -3.85688e-20)
(-0.0185485 0.0154303 -3.58481e-20)
(0.0175931 0.0176143 9.91473e-20)
(0.0888256 0.0207067 -5.98158e-20)
(0.194664 0.0284372 5.54122e-20)
(0.3313 0.0431148 1.00357e-19)
(0.489339 0.0650221 -6.98481e-20)
(0.65455 0.0922914 -8.45886e-20)
(0.811421 0.121565 1.09677e-21)
(0.947135 0.149122 1.07301e-19)
(1.05403 0.17192 0)
(1.13014 0.18822 2.94321e-20)
(1.17828 0.197722 0)
(1.20437 0.201279 -4.90278e-20)
(1.21547 0.200426 6.86543e-20)
(1.21803 0.196753 8.39291e-22)
(1.21678 0.191658 -1.83696e-20)
(1.21439 0.185852 3.51049e-20)
(1.21188 0.179943 3.04233e-20)
(1.20915 0.173649 -2.76782e-20)
(1.20617 0.167664 2.66703e-20)
(1.20233 0.16052 -2.43092e-20)
(1.1985 0.155646 0)
(1.19499 0.146433 -1.89315e-20)
(-0.0162594 0.00746035 3.85592e-20)
(-0.000701628 0.0102836 3.72681e-20)
(0.0602054 0.0133635 -3.31941e-20)
(0.164167 0.0210836 6.10163e-20)
(0.306778 0.0369999 -5.65213e-20)
(0.476741 0.0620639 5.09138e-20)
(0.655766 0.0939155 -2.39417e-20)
(0.823742 0.127937 6.34336e-20)
(0.964937 0.159192 -3.92799e-20)
(1.0714 0.184045 6.991e-20)
(1.14294 0.200885 -1.60297e-19)
(1.18506 0.210011 5.84084e-20)
(1.20591 0.212976 -5.22224e-20)
(1.21365 0.211768 4.86144e-20)
(1.21461 0.208127 4.30014e-20)
(1.21271 0.203268 3.85096e-20)
(1.20974 0.197766 -1.06452e-19)
(1.20634 0.191952 6.61003e-20)
(1.20256 0.185773 -3.04187e-20)
(1.19865 0.179467 8.07814e-20)
(1.19461 0.173011 -2.58353e-20)
(1.19114 0.166264 -6.53182e-20)
(1.18776 0.161045 6.04207e-20)
(1.18534 0.152551 1.89248e-20)
(-0.0106776 0.00485797 0)
(0.0265543 0.00534627 3.13245e-22)
(0.119065 0.0117149 6.88922e-20)
(0.260859 0.0275203 -6.34727e-20)
(0.439588 0.0547752 -5.69154e-20)
(0.633099 0.0911324 1.04481e-19)
(0.815441 0.130563 -4.79743e-20)
(0.966472 0.166496 6.38525e-20)
(1.07704 0.194415 -1.08904e-21)
(1.14835 0.212743 -3.55915e-20)
(1.18823 0.222344 7.84838e-20)
(1.20667 0.225385 -1.14909e-19)
(1.2126 0.224216 0)
(1.21227 0.220662 -2.27948e-20)
(1.20923 0.215857 -6.18401e-20)
(1.20514 0.210353 1.91239e-20)
(1.20072 0.204446 4.91462e-22)
(1.1963 0.198237 -4.47332e-20)
(1.19213 0.191904 1.6741e-21)
(1.18825 0.185493 5.16212e-20)
(1.18477 0.179066 -2.37322e-20)
(1.18142 0.172686 -9.48359e-21)
(1.17797 0.166823 2.80037e-20)
(1.17525 0.159196 0)
(-0.00139882 0.00221919 0)
(0.064865 0.00196762 1.88953e-20)
(0.195203 0.0149227 -8.92556e-20)
(0.376348 0.0424447 3.21433e-20)
(0.583589 0.0826349 -2.97734e-20)
(0.784179 0.128214 -2.6933e-20)
(0.951051 0.170351 -4.73338e-20)
(1.07179 0.202991 2.30756e-20)
(1.14792 0.22422 2.01409e-20)
(1.18913 0.235314 0)
(1.20722 0.239013 4.61638e-20)
(1.21214 0.238071 -6.8562e-20)
(1.21058 0.234521 5.08534e-20)
(1.20632 0.229592 2.28048e-20)
(1.20119 0.223925 -1.9037e-20)
(1.19604 0.217861 -1.64287e-20)
(1.19117 0.211561 -1.56157e-20)
(1.18667 0.205145 4.50313e-20)
(1.18244 0.198636 0)
(1.17843 0.192082 2.35711e-20)
(1.17452 0.185468 2.05832e-20)
(1.17076 0.178934 -4.98555e-20)
(1.16724 0.172512 -3.54329e-20)
(1.16394 0.165461 3.24805e-20)
(0.0123348 9.03765e-05 -2.19464e-20)
(0.115206 0.00185346 -8.37277e-22)
(0.287485 0.0253602 1.81822e-20)
(0.50395 0.0673336 5.02384e-20)
(0.725687 0.119334 1.44948e-20)
(0.915526 0.169545 -2.74434e-20)
(1.05411 0.209207 2.47891e-20)
(1.14117 0.235284 -2.16327e-20)
(1.18767 0.249159 3.84488e-20)
(1.20745 0.254164 1.65316e-20)
(1.21218 0.253644 -4.61256e-20)
(1.20965 0.25006 1.37272e-20)
(1.20428 0.244905 2.36548e-20)
(1.19818 0.238968 -1.14754e-20)
(1.19222 0.232637 0)
(1.18663 0.22608 1.76938e-20)
(1.18142 0.219381 3.04022e-20)
(1.17652 0.212571 5.69971e-21)
(1.17192 0.2057 -2.54677e-20)
(1.16766 0.198807 1.08599e-20)
(1.16376 0.191948 0)
(1.16021 0.185264 -8.78415e-21)
(1.15676 0.178424 -8.53325e-21)
(1.1537 0.172012 0)
(0.031064 -0.000812627 0)
(0.177372 0.00691454 1.06641e-20)
(0.391987 0.0449361 1.94949e-20)
(0.633821 0.101999 -5.13217e-20)
(0.853622 0.162056 1.63312e-20)
(1.01952 0.211701 0)
(1.12552 0.245322 2.39175e-20)
(1.18253 0.263808 -3.29622e-20)
(1.2068 0.271079 -1.91562e-20)
(1.21256 0.271338 8.66282e-21)
(1.20951 0.267757 -1.39255e-20)
(1.20309 0.262275 3.33595e-20)
(1.19589 0.2559 1.70453e-20)
(1.18888 0.249093 -1.15166e-20)
(1.18235 0.242049 -8.28571e-22)
(1.17632 0.234861 -3.27912e-20)
(1.17077 0.227589 1.4947e-20)
(1.1657 0.220294 -4.35536e-22)
(1.16109 0.213019 0)
(1.1569 0.205802 -1.08707e-20)
(1.15303 0.198686 0)
(1.14933 0.19164 2.54034e-20)
(1.14581 0.184479 -3.04533e-20)
(1.14225 0.178354 1.39457e-20)
(0.0549139 0.000337738 -6.15884e-21)
(0.249588 0.0189719 -2.72039e-20)
(0.502248 0.0745251 3.05781e-20)
(0.755757 0.144746 1.76276e-20)
(0.959732 0.20789 -8.27837e-21)
(1.09546 0.252852 1.36549e-20)
(1.17069 0.278742 -6.54502e-21)
(1.20381 0.289869 1.07764e-20)
(1.21263 0.291585 0)
(1.20975 0.288152 2.42437e-20)
(1.20238 0.282228 -8.33061e-22)
(1.19392 0.275189 -1.945e-20)
(1.1857 0.267658 8.3967e-21)
(1.1781 0.259894 -9.58197e-21)
(1.1712 0.252021 -3.76233e-21)
(1.16495 0.244111 4.1905e-21)
(1.15928 0.236214 -3.29209e-21)
(1.15413 0.228365 -1.82437e-20)
(1.14945 0.220593 1.11223e-20)
(1.14519 0.212933 2.31856e-21)
(1.14129 0.205407 2.07007e-21)
(1.1377 0.197975 1.85113e-21)
(1.13424 0.190628 0)
(1.1308 0.184522 0)
(0.0835417 0.00441978 6.1663e-21)
(0.328597 0.0394457 -5.69229e-21)
(0.610687 0.113758 -1.02447e-20)
(0.862056 0.193289 0)
(1.04143 0.254857 -4.12253e-21)
(1.14634 0.292537 -3.65197e-21)
(1.19545 0.310234 -6.13054e-21)
(1.21087 0.314692 0)
(1.20954 0.311781 0)
(1.20155 0.305333 0)
(1.19179 0.297376 0)
(1.18223 0.288829 0)
(1.17346 0.280068 -5.26833e-21)
(1.16556 0.271249 2.3822e-21)
(1.15846 0.262445 4.2076e-21)
(1.15208 0.253701 1.97465e-21)
(1.14633 0.245051 4.92462e-21)
(1.14117 0.23653 0)
(1.13658 0.228174 -1.21644e-21)
(1.13251 0.220017 -1.18731e-21)
(1.12883 0.212062 -2.07334e-21)
(1.12539 0.204238 -1.85405e-21)
(1.12205 0.196705 0)
(1.11862 0.190283 1.38356e-21)
(-0.00405844 0.011206 3.65398e-21)
(-0.0183269 0.0162369 -3.50703e-21)
(-0.0423292 0.0129032 -6.54371e-21)
(-0.0695404 0.00612891 0)
(-0.0975057 -0.00189629 -8.58171e-21)
(-0.125442 -0.010478 2.64512e-21)
(-0.153045 -0.0195084 -5.0807e-21)
(-0.180231 -0.0289873 0)
(-0.207113 -0.0389009 0)
(-0.233809 -0.0491149 0)
(-0.260327 -0.0595252 0)
(-0.286704 -0.070021 0)
(-0.312948 -0.080481 1.82193e-23)
(-0.33904 -0.09077 -3.52567e-21)
(-0.364935 -0.100732 6.91649e-21)
(-0.390597 -0.110195 9.98202e-21)
(-0.415969 -0.119031 3.24691e-21)
(-0.440971 -0.12709 0)
(-0.465483 -0.134225 2.97916e-21)
(-0.489304 -0.1403 -8.41543e-21)
(-0.512229 -0.145149 -5.40692e-21)
(-0.534265 -0.148533 -5.18314e-21)
(-0.555732 -0.150219 0)
(-0.576711 -0.150311 0)
(-0.00533721 0.0220626 -1.10731e-20)
(-0.0196851 0.0398263 1.75852e-20)
(-0.042079 0.0434408 -6.62136e-21)
(-0.0671294 0.0401524 -1.24098e-20)
(-0.092757 0.033717 1.72206e-20)
(-0.118268 0.0258577 -1.09651e-20)
(-0.143379 0.0172712 1.52464e-20)
(-0.168075 0.00822264 9.82271e-21)
(-0.192355 -0.00117826 0)
(-0.216253 -0.0107819 -8.85908e-21)
(-0.239881 -0.0205058 -4.14371e-22)
(-0.263284 -0.0302627 7.66303e-21)
(-0.286485 -0.0399602 1.14372e-20)
(-0.309473 -0.0495011 1.47332e-20)
(-0.33221 -0.0587958 -6.522e-21)
(-0.354752 -0.0677747 -1.97653e-20)
(-0.377107 -0.0762751 6.58781e-21)
(-0.399209 -0.0841741 -2.43581e-20)
(-0.420996 -0.0913538 0)
(-0.442295 -0.0977151 5.6275e-21)
(-0.462805 -0.103164 5.39874e-21)
(-0.482412 -0.107542 5.17528e-21)
(-0.50174 -0.110601 0)
(-0.521868 -0.112238 0)
(-0.00734594 0.0307961 0)
(-0.0219971 0.0598358 3.64575e-20)
(-0.0418367 0.0702864 -1.34827e-20)
(-0.0633592 0.0708084 1.26118e-20)
(-0.0851292 0.0663292 -3.55377e-20)
(-0.106607 0.0594625 0)
(-0.127515 0.0514735 -2.11898e-20)
(-0.147758 0.0429314 9.85793e-21)
(-0.167328 0.0341258 -1.90368e-20)
(-0.186245 0.0251604 9.23603e-21)
(-0.204554 0.0161267 5.16497e-20)
(-0.222288 0.00710692 -2.40188e-20)
(-0.239474 -0.00181829 -3.90134e-20)
(-0.256145 -0.010571 -1.56545e-20)
(-0.272333 -0.0190866 -7.21722e-22)
(-0.287966 -0.0273035 5.39763e-20)
(-0.302955 -0.0350754 -2.54699e-20)
(-0.317341 -0.0423209 -9.03382e-23)
(-0.331124 -0.0489527 0)
(-0.34422 -0.0548931 -2.24605e-20)
(-0.356291 -0.0601025 0)
(-0.366863 -0.0645894 -2.07392e-20)
(-0.376281 -0.0682967 7.73365e-20)
(-0.387005 -0.0710128 7.36642e-22)
(-0.00966673 0.0365169 0)
(-0.0248162 0.0744956 4.01863e-22)
(-0.0415736 0.0914118 1.40549e-20)
(-0.0586705 0.0961209 -1.32498e-20)
(-0.0754945 0.094126 1.16915e-20)
(-0.0917427 0.0886854 6.86484e-20)
(-0.107182 0.0815753 -2.13084e-20)
(-0.121677 0.0736851 -2.04999e-20)
(-0.13517 0.0654433 3.84261e-20)
(-0.147645 0.0570498 -5.49673e-20)
(-0.159102 0.0486191 1.71323e-20)
(-0.169546 0.0402338 1.66331e-20)
(-0.178983 0.0319675 0)
(-0.187415 0.0238943 1.48833e-20)
(-0.194843 0.0161013 0)
(-0.201238 0.00869316 2.73717e-20)
(-0.206545 0.00172048 -5.25753e-20)
(-0.210724 -0.00476118 1.12956e-20)
(-0.213752 -0.0106888 4.66958e-20)
(-0.21562 -0.0159958 2.24349e-20)
(-0.216215 -0.0206372 0)
(-0.21499 -0.0246999 -6.10036e-20)
(-0.211195 -0.0284736 1.89688e-20)
(-0.206587 -0.0325211 0)
(-0.0118287 0.0388869 0)
(-0.0275904 0.0828167 -4.57737e-20)
(-0.0412176 0.105403 -1.44208e-20)
(-0.0535745 0.114496 -2.66365e-20)
(-0.0649179 0.115499 2.46808e-20)
(-0.0752619 0.11197 -2.3027e-20)
(-0.0844898 0.106063 4.41908e-20)
(-0.0924755 0.0989803 2.12187e-20)
(-0.0991305 0.0913523 -5.81676e-20)
(-0.104402 0.0835027 3.74872e-20)
(-0.108263 0.0756052 -5.27562e-20)
(-0.110698 0.0677663 1.17765e-19)
(-0.1117 0.0600641 -6.29723e-20)
(-0.111259 0.0525668 3.03534e-20)
(-0.109361 0.045342 8.71378e-20)
(-0.105976 0.0384594 -2.62051e-20)
(-0.101064 0.0319755 -2.50296e-20)
(-0.0945708 0.0259402 -2.43791e-20)
(-0.086436 0.020413 0)
(-0.0765719 0.0154486 -4.50567e-20)
(-0.065008 0.0111641 -4.32867e-20)
(-0.0517335 0.00746605 5.97402e-20)
(-0.0376705 0.0041943 7.6204e-20)
(-0.0119435 0.00234212 -7.10373e-20)
(-0.013435 0.0381355 0)
(-0.029797 0.0847202 -6.29793e-20)
(-0.0406871 0.111649 -4.99161e-22)
(-0.0485962 0.124909 5.39499e-20)
(-0.0545308 0.129204 0)
(-0.0588699 0.128001 0)
(-0.0616869 0.123637 0)
(-0.0629382 0.117557 -2.12379e-20)
(-0.0625545 0.110603 -6.97684e-22)
(-0.0604784 0.103251 3.71432e-20)
(-0.0566742 0.0957665 -5.38747e-20)
(-0.0511231 0.0883058 -5.54144e-22)
(-0.0438155 0.0809685 0)
(-0.0347432 0.073826 -3.03384e-20)
(-0.0238922 0.0669356 2.9443e-20)
(-0.0112349 0.0603497 -8.16156e-20)
(0.00326652 0.0541064 1.04463e-19)
(0.019702 0.0482218 2.58537e-20)
(0.038076 0.0427645 1.43831e-21)
(0.0586971 0.0377061 -8.79459e-20)
(0.0809615 0.0332348 -4.15478e-20)
(0.107188 0.0289301 1.38553e-19)
(0.130047 0.0251201 -9.23656e-20)
(0.173625 0.0262116 0)
(-0.0142648 0.0349554 3.40012e-20)
(-0.0310938 0.0810171 3.16199e-20)
(-0.0399511 0.110463 -2.97701e-20)
(-0.0442186 0.127085 -5.51249e-20)
(-0.0454052 0.134505 5.10756e-20)
(-0.0442147 0.135779 -4.81816e-20)
(-0.0409669 0.133186 6.72236e-20)
(-0.0357741 0.128286 -2.13175e-20)
(-0.0286527 0.122088 3.95483e-20)
(-0.01959 0.115216 0)
(-0.00857184 0.108047 3.62535e-20)
(0.00441152 0.100806 -6.66712e-20)
(0.0193713 0.0936342 6.44365e-20)
(0.0363283 0.0866176 -5.99801e-20)
(0.0553293 0.0798112 0)
(0.0764429 0.0732592 5.43256e-20)
(0.0996851 0.0669992 1.0358e-19)
(0.125355 0.0611021 -9.68617e-20)
(0.153081 0.0556257 -4.57671e-20)
(0.184805 0.0505258 -4.45665e-20)
(0.215596 0.0458647 1.23435e-19)
(0.258204 0.041965 3.87778e-20)
(0.284109 0.0366869 -3.58274e-20)
(0.353564 0.0371099 3.36877e-20)
(-0.0143285 0.0303069 -3.40095e-20)
(-0.03143 0.0732117 9.73912e-20)
(-0.0391165 0.10306 -3.01872e-20)
(-0.0408721 0.121635 5.57258e-20)
(-0.038407 0.131413 -5.16316e-20)
(-0.0326561 0.134839 -1.26929e-22)
(-0.0241788 0.133938 2.24382e-20)
(-0.0132829 0.130238 8.52696e-20)
(-0.000120366 0.124825 1.05229e-21)
(0.0152427 0.118429 -3.71519e-20)
(0.0327902 0.111526 0)
(0.0525469 0.104422 -3.3899e-20)
(0.0745838 0.0973075 6.27936e-20)
(0.0990107 0.0903082 6.03933e-20)
(0.12599 0.0835293 -2.81201e-20)
(0.155815 0.0770668 -4.25985e-22)
(0.188615 0.0709762 -2.55829e-20)
(0.225388 0.0654123 4.75118e-20)
(0.263819 0.0600954 4.57704e-20)
(0.311247 0.055905 -4.31981e-20)
(0.350447 0.0509543 3.98788e-20)
(0.418073 0.0494197 -3.73824e-20)
(0.444257 0.043605 0)
(0.548976 0.0461815 -3.36734e-20)
(-0.0138671 0.025198 3.47043e-20)
(-0.0311008 0.0631749 -3.26043e-20)
(-0.0384561 0.0913518 3.04026e-20)
(-0.0388902 0.110085 0)
(-0.0340343 0.120896 0)
(-0.0249259 0.125608 4.869e-20)
(-0.0122964 0.125894 -4.50765e-20)
(0.00338403 0.123137 4.26559e-20)
(0.0218567 0.118405 -1.98236e-19)
(0.0430294 0.11248 -3.86466e-22)
(0.066947 0.105913 3.4887e-20)
(0.0937808 0.0990879 0)
(0.123825 0.0922935 -6.29456e-20)
(0.15751 0.0857526 1.18056e-19)
(0.195288 0.0796212 -8.35044e-20)
(0.237715 0.0740314 -1.32793e-19)
(0.284661 0.0689445 -1.32025e-21)
(0.33828 0.0648689 9.24526e-20)
(0.392748 0.0606843 0)
(0.462718 0.0593618 0)
(0.514592 0.0551444 -3.98908e-20)
(0.611862 0.0584191 3.73928e-20)
(0.640889 0.0527996 -1.38823e-19)
(0.780017 0.0614682 1.2951e-19)
(-0.0132933 0.0205002 0)
(-0.0306831 0.0527585 0)
(-0.038353 0.0775738 -9.14575e-20)
(-0.0383799 0.094643 2.83545e-20)
(-0.0321237 0.104901 -1.392e-23)
(-0.0205816 0.109687 4.85212e-20)
(-0.00451152 0.110343 0)
(0.01561 0.108074 -4.20071e-20)
(0.0395981 0.103885 3.95469e-20)
(0.0675564 0.0985667 -7.38738e-20)
(0.0998246 0.0927502 -3.76173e-22)
(0.136965 0.08693 6.57253e-20)
(0.179643 0.0814765 8.08342e-22)
(0.228488 0.0766448 5.92319e-20)
(0.283937 0.0726163 -8.17233e-20)
(0.346329 0.0695593 0)
(0.414756 0.0674504 9.81113e-20)
(0.490746 0.0667725 -1.37987e-19)
(0.56702 0.0662533 4.265e-20)
(0.657081 0.0688814 0)
(0.727299 0.0681472 3.75556e-20)
(0.836995 0.0757596 1.43774e-19)
(0.8769 0.0717514 -1.34243e-19)
(1.01849 0.0852469 -1.55841e-19)
(-0.0130775 0.0168135 1.05559e-19)
(-0.0308106 0.0434362 -1.33327e-19)
(-0.0390334 0.0638259 1.81422e-22)
(-0.0388862 0.0777911 2.85392e-20)
(-0.0313502 0.0861019 -5.25431e-20)
(-0.0172052 0.0898427 -4.85811e-20)
(0.00302068 0.0901435 9.02588e-20)
(0.0291583 0.0880797 4.89304e-22)
(0.0614175 0.084606 -7.80632e-20)
(0.100371 0.0805616 1.4671e-19)
(0.146808 0.0766361 1.03406e-21)
(0.201472 0.0733493 -6.41248e-20)
(0.26485 0.0710789 0)
(0.336948 0.070081 0)
(0.417092 0.0705299 -2.71588e-20)
(0.504039 0.0723009 -5.00271e-20)
(0.595716 0.0755869 -9.56689e-20)
(0.690259 0.0794769 8.91816e-20)
(0.783843 0.0846906 -4.2684e-20)
(0.877554 0.0896065 7.88595e-20)
(0.959505 0.0942738 -3.74132e-20)
(1.04992 0.100556 6.91517e-20)
(1.0996 0.0995782 -1.60137e-19)
(1.19817 0.109675 3.06995e-20)
(-0.0135778 0.014386 3.53926e-20)
(-0.0318106 0.0360572 0)
(-0.0401126 0.0516844 6.1805e-20)
(-0.0388692 0.061818 -5.7229e-20)
(-0.0286007 0.0674327 5.26136e-20)
(-0.00962858 0.069605 0)
(0.0180821 0.0694173 0)
(0.05499 0.0679182 -4.18298e-20)
(0.101882 0.0660822 -2.64364e-22)
(0.159585 0.0647416 3.60063e-20)
(0.228613 0.0645411 -3.40735e-20)
(0.308817 0.0659439 6.34607e-20)
(0.399096 0.069194 0)
(0.497407 0.0742732 1.12771e-19)
(0.600853 0.0810138 -2.10822e-19)
(0.706098 0.0887649 1.48651e-19)
(0.809535 0.0974928 9.28476e-20)
(0.907554 0.105266 -8.65527e-20)
(0.997729 0.113929 0)
(1.0761 0.118278 0)
(1.14346 0.125051 0)
(1.19645 0.123652 0)
(1.23413 0.12531 3.13188e-20)
(1.27078 0.121507 -1.12812e-19)
(-0.599544 -0.149321 -3.49056e-21)
(-0.623379 -0.147982 3.48806e-21)
(-0.64148 -0.140911 -1.08097e-22)
(-0.656879 -0.132259 0)
(-0.666324 -0.118717 -3.48248e-21)
(-0.672098 -0.102881 6.78515e-21)
(-0.672081 -0.0830077 -3.92237e-24)
(-0.667801 -0.060443 -3.20558e-21)
(-0.65803 -0.0343083 0)
(-0.643918 -0.00525974 0)
(-0.624794 0.0275105 -1.62098e-22)
(-0.601315 0.0632299 -1.49256e-22)
(-0.572983 0.101097 -2.29226e-21)
(-0.539739 0.139899 2.09511e-21)
(-0.500962 0.177577 0)
(-0.456454 0.211104 0)
(-0.405866 0.23658 9.30333e-22)
(-0.348537 0.249524 -2.76496e-22)
(-0.283137 0.246071 -5.78249e-22)
(-0.20774 0.223242 -1.63763e-23)
(-0.119982 0.180418 0)
(-0.0179643 0.122382 0)
(0.0955639 0.0581131 0)
(0.211815 -0.00369049 0)
(0.324193 -0.0548497 0)
(0.424303 -0.0889726 0)
(0.509222 -0.108387 -1.40405e-22)
(0.57618 -0.114087 2.24297e-22)
(0.62729 -0.111487 0)
(0.663753 -0.102093 0)
(0.689338 -0.0905811 1.21283e-22)
(0.707357 -0.0762581 -1.17847e-22)
(0.722123 -0.061917 -4.82672e-23)
(0.737566 -0.0452987 0)
(0.755751 -0.0293292 0)
(0.77769 -0.0120968 -5.83835e-23)
(0.80133 0.00223507 5.67437e-23)
(0.825604 0.0159047 0)
(0.84767 0.0244287 -3.8055e-23)
(0.867326 0.031825 5.45352e-23)
(0.883038 0.0339416 -1.52432e-23)
(0.896144 0.0360929 0)
(0.906237 0.0338442 2.1592e-23)
(0.914921 0.0329891 -2.0995e-23)
(0.922062 0.0286065 0)
(0.928856 0.0269456 0)
(0.934825 0.022488 5.83674e-24)
(0.940755 0.0218297 -1.62615e-23)
(0.946075 0.0183171 0)
(0.951896 0.0190663 0)
(0.957614 0.0167155 3.00927e-24)
(0.964142 0.0187428 -2.32122e-26)
(0.970216 0.0173152 3.63768e-25)
(0.976528 0.0201021 -1.69144e-24)
(0.981481 0.0189668 0)
(0.986369 0.0221183 0)
(0.989445 0.0212299 0)
(0.992868 0.0247689 0)
(0.994264 0.0242938 0)
(0.996948 0.0283051 0)
(-0.545556 -0.113225 -3.22343e-22)
(-0.579884 -0.118594 -1.38249e-20)
(-0.603796 -0.116141 -1.37374e-22)
(-0.629257 -0.113792 1.3071e-20)
(-0.647711 -0.105908 2.00483e-22)
(-0.664181 -0.0961651 0)
(-0.674536 -0.0818744 -1.21573e-20)
(-0.680856 -0.0647915 2.38035e-20)
(-0.681033 -0.0437573 -1.16447e-20)
(-0.675755 -0.019662 1.04738e-20)
(-0.66397 0.00790498 -1.00083e-20)
(-0.646217 0.0383224 8.69837e-21)
(-0.621348 0.07116 -8.43309e-21)
(-0.588649 0.104936 -2.18529e-22)
(-0.546803 0.137584 -5.76453e-21)
(-0.495115 0.166056 5.59806e-21)
(-0.432651 0.18636 -3.57477e-21)
(-0.358583 0.194028 3.37658e-21)
(-0.271792 0.184653 -1.67229e-21)
(-0.172163 0.1554 2.44985e-21)
(-0.0596133 0.107166 -8.15092e-22)
(0.0650484 0.0471111 -1.95003e-24)
(0.194942 -0.0190789 8.80692e-22)
(0.318985 -0.0769047 -2.04802e-21)
(0.432153 -0.118785 1.15842e-21)
(0.526803 -0.141316 -8.28297e-23)
(0.603011 -0.148609 -1.45543e-21)
(0.660401 -0.143551 -2.98804e-25)
(0.703117 -0.132055 2.49985e-21)
(0.732556 -0.115655 -2.26281e-21)
(0.752583 -0.0988748 1.05487e-21)
(0.764377 -0.0811981 -1.09526e-22)
(0.771371 -0.0654358 4.8368e-23)
(0.775936 -0.0491456 -8.37229e-23)
(0.781713 -0.034503 0)
(0.790585 -0.0188034 0)
(0.803255 -0.0055513 2.05349e-22)
(0.818914 0.00803514 -1.52402e-22)
(0.835853 0.0171565 -1.13293e-22)
(0.852873 0.0255498 -1.48752e-24)
(0.868435 0.0287594 1.45304e-22)
(0.8825 0.0319107 -2.65749e-23)
(0.894596 0.0304609 0)
(0.905344 0.030194 0)
(0.914689 0.0262145 0)
(0.923241 0.0248544 0)
(0.930711 0.0206363 -2.48001e-23)
(0.937609 0.0201722 1.05955e-23)
(0.943642 0.0167606 0)
(0.949871 0.0175218 0)
(0.955937 0.0151379 0)
(0.962774 0.0171688 4.66814e-24)
(0.969168 0.0158218 -7.66005e-25)
(0.975814 0.0187844 3.72631e-24)
(0.981039 0.0178619 0)
(0.986185 0.0212496 0)
(0.989413 0.0205549 -1.51032e-24)
(0.992997 0.0242774 -3.41132e-24)
(0.994453 0.0239028 0)
(0.997254 0.0280447 0)
(-0.403353 -0.0731997 8.36286e-22)
(-0.443329 -0.0842584 -2.65632e-20)
(-0.467788 -0.0862609 2.69407e-20)
(-0.497052 -0.0888603 -2.51599e-20)
(-0.519619 -0.0864512 -2.01913e-22)
(-0.54085 -0.0818965 0)
(-0.556758 -0.073251 -2.35774e-20)
(-0.568825 -0.0615208 2.3054e-20)
(-0.575189 -0.0460746 1.72776e-22)
(-0.575868 -0.027455 3.05108e-22)
(-0.56957 -0.00587973 2.83287e-22)
(-0.555741 0.0179468 2.76612e-22)
(-0.533094 0.0441894 -1.46253e-20)
(-0.500681 0.0712109 1.44218e-20)
(-0.456847 0.0968142 0)
(-0.400601 0.117911 3.03965e-22)
(-0.331091 0.13056 -7.17766e-21)
(-0.248286 0.130971 7.06567e-21)
(-0.152221 0.114342 0)
(-0.0436014 0.0814923 0)
(0.0770535 0.0310156 -1.16821e-21)
(0.203656 -0.031064 1.02495e-21)
(0.329939 -0.0952339 1.16572e-21)
(0.447116 -0.145296 7.68704e-22)
(0.548048 -0.176226 -4.11716e-21)
(0.627899 -0.186717 4.96674e-21)
(0.688584 -0.182376 -4.98023e-21)
(0.731854 -0.167667 1.85585e-22)
(0.763203 -0.148959 2.43831e-21)
(0.784687 -0.12732 0)
(0.800288 -0.10653 0)
(0.810235 -0.0857303 -6.13449e-22)
(0.816621 -0.0677392 8.06951e-22)
(0.819274 -0.0504146 1.01946e-24)
(0.820946 -0.0359377 -5.53522e-22)
(0.822763 -0.0212798 5.37845e-22)
(0.82735 -0.0093365 0)
(0.834609 0.00311788 -4.73793e-23)
(0.844879 0.0117708 -3.53205e-22)
(0.856797 0.0202236 6.4517e-22)
(0.869672 0.0238303 -2.62667e-22)
(0.88233 0.0275342 -2.67525e-23)
(0.894477 0.0266588 2.19694e-22)
(0.905615 0.0269138 -1.68838e-22)
(0.915782 0.0233801 -3.389e-23)
(0.924868 0.0224157 -2.90087e-23)
(0.932799 0.0185517 2.48662e-23)
(0.93974 0.0183844 0)
(0.945679 0.0151505 0)
(0.951555 0.0159657 5.90371e-23)
(0.95725 0.0135607 -2.77764e-23)
(0.963703 0.015589 2.17231e-23)
(0.969797 0.0143115 -2.71992e-23)
(0.976252 0.0174428 -2.86193e-23)
(0.981344 0.0167308 6.71009e-24)
(0.986455 0.0203582 -9.47839e-24)
(0.989644 0.0198597 7.09379e-24)
(0.993269 0.0237711 -2.94994e-24)
(0.994719 0.0234987 0)
(0.99759 0.027775 0)
(-0.214881 -0.0345102 -5.44295e-20)
(-0.252643 -0.0501175 -1.78508e-22)
(-0.27589 -0.0562858 5.14642e-20)
(-0.302428 -0.0621533 -4.03103e-22)
(-0.324939 -0.0644144 0)
(-0.34569 -0.0641544 0)
(-0.362777 -0.0607259 -4.55652e-20)
(-0.37603 -0.0542702 6.74486e-22)
(-0.384426 -0.0446625 6.21106e-20)
(-0.387296 -0.0320644 -1.09631e-21)
(-0.383837 -0.016673 -1.85294e-20)
(-0.372411 0.000972975 -1.52342e-20)
(-0.351565 0.0196804 1.52793e-20)
(-0.320416 0.0386262 0)
(-0.277539 0.0561981 -1.07402e-20)
(-0.221935 0.0686884 9.81276e-21)
(-0.152951 0.0734348 0)
(-0.0714778 0.0679117 0)
(0.0242216 0.0485417 4.7114e-21)
(0.130751 0.0123178 -1.17028e-21)
(0.243956 -0.0409802 -3.23614e-21)
(0.361631 -0.104492 -7.84099e-22)
(0.476641 -0.162906 7.63684e-22)
(0.577741 -0.204048 1.36383e-21)
(0.659309 -0.223415 5.93673e-22)
(0.719196 -0.222275 -1.8849e-21)
(0.761211 -0.207991 -2.90966e-22)
(0.788837 -0.185446 -1.48371e-23)
(0.80796 -0.161337 0)
(0.820911 -0.136267 -2.01989e-21)
(0.831161 -0.113211 2.07721e-21)
(0.838865 -0.0907007 -1.07907e-22)
(0.845654 -0.0711709 0)
(0.850182 -0.0525396 8.37348e-23)
(0.853699 -0.0372509 -1.10596e-21)
(0.855628 -0.0224926 1.91199e-21)
(0.85837 -0.0110455 1.24857e-23)
(0.861817 0.000539454 -8.65972e-23)
(0.86778 0.00842877 -6.24493e-22)
(0.875298 0.0164101 -7.19784e-23)
(0.884871 0.0198597 4.70796e-22)
(0.894928 0.023666 -4.03756e-22)
(0.905574 0.0230739 -9.4249e-26)
(0.915568 0.0237028 -1.49459e-22)
(0.925047 0.0205762 1.79309e-22)
(0.933368 0.0200243 1.96553e-22)
(0.940622 0.0165573 -5.67417e-23)
(0.946708 0.0167304 -7.94193e-23)
(0.95179 0.0137099 1.44648e-22)
(0.956665 0.0145959 -9.61417e-23)
(0.961367 0.0121642 2.24706e-23)
(0.966847 0.0141649 -2.82084e-23)
(0.972081 0.0129212 -2.11891e-23)
(0.977858 0.0161849 4.36105e-23)
(0.982424 0.015652 -1.26306e-24)
(0.987211 0.0194965 9.44646e-24)
(0.990162 0.0191775 0)
(0.9937 0.0232686 2.92422e-24)
(0.995073 0.0230922 -3.79636e-24)
(0.997963 0.0275006 0)
(-0.0122467 -0.00372815 5.44541e-20)
(-0.0430515 -0.0193584 -1.06175e-19)
(-0.0627222 -0.029426 5.13137e-20)
(-0.0843957 -0.0373612 5.0432e-20)
(-0.10431 -0.043199 -9.80305e-20)
(-0.122635 -0.04673 9.0336e-22)
(-0.138404 -0.0477219 4.57258e-20)
(-0.150874 -0.046158 4.21978e-20)
(-0.15919 -0.0419523 -4.12873e-20)
(-0.162398 -0.0352024 0)
(-0.159601 -0.0259859 -3.40754e-20)
(-0.149944 -0.0144644 6.41922e-20)
(-0.131758 -0.00185553 -3.02132e-20)
(-0.102799 0.0105554 0)
(-0.0632918 0.0203643 0)
(-0.0119828 0.0256461 3.12691e-22)
(0.0530704 0.0239532 -1.6169e-20)
(0.129816 0.0124534 1.56969e-20)
(0.216526 -0.0102023 0)
(0.312338 -0.0504895 8.9009e-21)
(0.416505 -0.105497 -1.41984e-20)
(0.522624 -0.165853 8.80989e-21)
(0.621082 -0.218471 -3.59202e-21)
(0.701242 -0.250121 2.06699e-21)
(0.759453 -0.258485 -4.54441e-21)
(0.797002 -0.247288 3.00119e-21)
(0.819874 -0.225361 1.37436e-22)
(0.832626 -0.197397 1.9983e-21)
(0.840719 -0.169753 -1.60482e-23)
(0.84631 -0.142738 -2.00136e-21)
(0.851649 -0.118626 -1.166e-22)
(0.856576 -0.0955107 1.5818e-21)
(0.862399 -0.0754398 -2.94701e-21)
(0.867912 -0.0561489 1.53117e-21)
(0.873716 -0.0401188 0)
(0.87835 -0.0247597 1.08992e-21)
(0.883116 -0.0130704 -1.04585e-21)
(0.887237 -0.0016898 6.35883e-22)
(0.892555 0.00598345 -7.94734e-22)
(0.898395 0.0136244 7.23435e-23)
(0.905958 0.0168245 0)
(0.913891 0.0205559 5.39486e-23)
(0.922678 0.0200795 -1.39205e-22)
(0.930935 0.0209651 0)
(0.938884 0.0181782 -3.24546e-22)
(0.945727 0.0179981 1.32666e-22)
(0.951641 0.0149024 -4.98452e-23)
(0.956431 0.0154011 -4.23117e-23)
(0.960284 0.0125898 0)
(0.963895 0.0135438 0)
(0.967313 0.0110715 7.41438e-23)
(0.971529 0.0130133 -1.09143e-22)
(0.975581 0.0117566 5.74956e-23)
(0.980374 0.0150993 -1.74562e-23)
(0.98414 0.0146938 -2.66531e-23)
(0.988386 0.0187128 -9.45664e-24)
(0.990941 0.0185403 1.41298e-23)
(0.994282 0.0227893 0)
(0.995515 0.0226952 6.18048e-24)
(0.998373 0.0272266 1.39745e-24)
(0.174485 0.0165914 5.43202e-20)
(0.159928 0.00484364 -5.36348e-20)
(0.146269 -0.00606091 4.09493e-22)
(0.131372 -0.0153108 -3.89525e-22)
(0.116248 -0.0235019 3.85489e-22)
(0.101795 -0.0301115 -3.7104e-22)
(0.0887462 -0.0348037 6.96051e-22)
(0.0779794 -0.0375457 0)
(0.0704725 -0.0382918 -6.26822e-22)
(0.0672943 -0.0371081 5.8852e-22)
(0.0694088 -0.0340836 5.48256e-22)
(0.078193 -0.0291191 -5.09086e-22)
(0.0946359 -0.022216 0)
(0.119449 -0.0158571 0)
(0.153925 -0.0122576 3.79262e-22)
(0.199432 -0.0124626 0)
(0.256214 -0.0199015 -2.98594e-22)
(0.323863 -0.036859 0)
(0.402295 -0.0642449 -1.2256e-20)
(0.489655 -0.104723 2.21899e-20)
(0.583742 -0.158598 -1.70556e-20)
(0.676196 -0.21551 7.23622e-21)
(0.755033 -0.260679 1.83471e-21)
(0.811014 -0.282386 -1.78082e-21)
(0.844263 -0.28098 2.13858e-21)
(0.859835 -0.262167 -2.11548e-21)
(0.865526 -0.235305 0)
(0.866032 -0.204678 -1.08551e-22)
(0.865494 -0.175267 0)
(0.865486 -0.14747 0)
(0.867111 -0.123072 -3.15796e-21)
(0.869645 -0.0999021 3.2682e-21)
(0.873835 -0.0798255 -1.75457e-22)
(0.878836 -0.0604433 -1.63127e-22)
(0.885148 -0.0441348 1.40574e-22)
(0.89145 -0.0283357 9.58686e-22)
(0.898273 -0.0162119 -9.30708e-22)
(0.904528 -0.00458464 8.29627e-22)
(0.911209 0.00326961 -7.11128e-22)
(0.917545 0.0109813 -1.45691e-22)
(0.924768 0.0141871 4.76723e-22)
(0.931857 0.0179605 1.32741e-24)
(0.939397 0.0176306 -3.0474e-22)
(0.946283 0.0187637 0)
(0.952744 0.0162849 1.36856e-22)
(0.958173 0.016429 -1.61361e-22)
(0.962744 0.0136499 2.13605e-22)
(0.966357 0.0144315 4.25953e-23)
(0.969086 0.0118081 0)
(0.971592 0.0128259 -2.6744e-23)
(0.973814 0.0103071 5.56265e-23)