/*--------------------------------*- C++ -*----------------------------------*\
| =========                 |                                                 |
| \\      /  F ield         | OpenFOAM: The Open Source CFD Toolbox           |
|  \\    /   O peration     | Version:  2512                                  |
|   \\  /    A nd           | Website:  www.openfoam.com                      |
|    \\/     M anipulation  |                                                 |
\*---------------------------------------------------------------------------*/
FoamFile
{
    version     2.0;
    format      ascii;
    arch        "LSB;label=32;scalar=64";
    class       volScalarField;
    location    "124.3";
    object      p;
}
// * * * * * * * * * * * * * * * * * * * * * * * * * * * * * * * * * * * * * //

dimensions      [0 2 -2 0 0 0 0];

internalField   nonuniform List<scalar> 
13248
(
-0.529298
-0.528471
-0.525537
-0.521147
-0.516087
-0.511085
-0.506866
-0.503774
-0.501586
-0.499526
-0.496487
-0.491338
-0.483235
-0.471802
-0.457149
-0.439712
-0.420038
-0.398634
-0.375913
-0.352245
-0.327646
-0.302677
-0.275564
-0.247442
-0.538677
-0.53721
-0.534173
-0.530105
-0.525479
-0.520677
-0.515887
-0.510963
-0.505428
-0.498637
-0.48998
-0.479057
-0.465769
-0.450292
-0.432958
-0.414129
-0.394121
-0.373193
-0.351548
-0.32934
-0.306707
-0.283732
-0.260271
-0.237383
-0.550735
-0.548229
-0.544755
-0.5406
-0.535943
-0.530697
-0.524489
-0.516811
-0.507243
-0.495597
-0.48193
-0.466483
-0.449587
-0.431571
-0.412703
-0.39318
-0.37315
-0.352735
-0.332027
-0.311173
-0.290171
-0.269299
-0.248243
-0.227196
-0.565139
-0.561365
-0.557155
-0.552531
-0.547258
-0.540703
-0.53204
-0.520734
-0.506792
-0.490653
-0.472929
-0.454191
-0.434866
-0.415219
-0.395401
-0.375491
-0.355541
-0.335597
-0.315724
-0.295968
-0.276417
-0.25721
-0.238132
-0.219821
-0.581959
-0.576774
-0.57165
-0.56617
-0.559529
-0.550567
-0.538351
-0.522776
-0.504508
-0.484514
-0.46367
-0.442583
-0.421595
-0.400857
-0.380415
-0.360273
-0.340429
-0.320893
-0.301679
-0.282833
-0.264393
-0.246414
-0.228802
-0.211759
-0.601415
-0.594747
-0.588549
-0.581705
-0.572687
-0.560057
-0.543324
-0.523174
-0.500888
-0.477688
-0.454433
-0.431598
-0.40938
-0.387823
-0.366903
-0.346583
-0.326829
-0.307618
-0.288946
-0.270815
-0.25324
-0.236247
-0.219773
-0.204041
-0.623585
-0.615397
-0.607874
-0.598921
-0.586277
-0.568769
-0.54689
-0.522194
-0.496319
-0.470453
-0.445267
-0.421042
-0.397842
-0.375629
-0.354333
-0.333882
-0.314215
-0.295284
-0.277053
-0.2595
-0.24261
-0.226355
-0.210729
-0.195764
-0.648218
-0.638477
-0.629216
-0.617126
-0.599524
-0.576214
-0.548969
-0.519993
-0.490959
-0.462826
-0.436009
-0.410607
-0.386572
-0.363803
-0.342191
-0.321637
-0.302054
-0.283369
-0.265522
-0.248462
-0.232144
-0.216537
-0.201627
-0.187343
-0.674583
-0.66328
-0.65168
-0.635197
-0.611462
-0.581873
-0.549404
-0.516539
-0.484733
-0.454625
-0.426384
-0.399952
-0.375195
-0.351959
-0.3301
-0.309489
-0.290014
-0.271578
-0.254095
-0.237489
-0.221694
-0.20666
-0.19234
-0.178572
-0.701502
-0.688604
-0.67385
-0.65169
-0.621004
-0.585097
-0.547772
-0.511438
-0.477189
-0.445339
-0.415838
-0.388506
-0.363132
-0.339517
-0.317481
-0.296865
-0.277533
-0.259366
-0.242257
-0.22611
-0.210842
-0.19639
-0.182663
-0.169471
-0.727366
-0.712804
-0.693872
-0.664909
-0.626863
-0.584887
-0.54316
-0.503762
-0.467371
-0.434001
-0.403421
-0.375344
-0.349492
-0.32562
-0.303512
-0.282982
-0.263868
-0.24603
-0.229342
-0.213694
-0.198996
-0.185169
-0.172081
-0.159566
-0.750273
-0.733928
-0.709724
-0.673064
-0.627607
-0.579989
-0.53436
-0.492318
-0.45412
-0.419506
-0.388087
-0.359479
-0.333342
-0.309385
-0.287357
-0.267043
-0.248261
-0.230851
-0.214669
-0.199591
-0.185534
-0.172418
-0.160101
-0.148485
-0.514602
-0.512463
-0.511453
-0.512996
-0.518009
-0.526759
-0.539239
-0.555376
-0.574988
-0.597664
-0.622688
-0.649025
-0.675374
-0.700263
-0.722248
-0.739674
-0.751349
-0.755801
-0.752046
-0.738862
-0.715242
-0.680528
-0.636123
-0.58297
-0.529633
-0.526124
-0.524834
-0.526448
-0.531761
-0.541067
-0.554346
-0.571487
-0.592273
-0.616265
-0.642717
-0.670563
-0.69848
-0.724996
-0.748619
-0.767933
-0.781369
-0.787896
-0.786153
-0.774605
-0.751717
-0.716009
-0.668451
-0.609328
-0.539332
-0.534629
-0.53279
-0.533983
-0.538884
-0.547844
-0.560842
-0.577718
-0.598213
-0.621867
-0.647942
-0.675402
-0.702968
-0.729215
-0.752703
-0.772031
-0.786086
-0.7934
-0.792518
-0.781587
-0.7587
-0.721763
-0.671823
-0.60883
-0.543746
-0.538191
-0.535622
-0.535866
-0.539557
-0.547185
-0.558791
-0.574204
-0.593132
-0.615115
-0.639444
-0.665147
-0.691027
-0.715765
-0.738075
-0.756557
-0.770037
-0.777002
-0.775771
-0.764095
-0.739819
-0.700724
-0.648393
-0.583185
-0.543675
-0.537763
-0.534416
-0.533286
-0.535052
-0.540433
-0.549649
-0.562598
-0.579003
-0.598418
-0.62018
-0.643397
-0.666985
-0.689777
-0.710466
-0.727839
-0.740368
-0.746372
-0.743823
-0.730101
-0.70314
-0.661225
-0.606898
-0.541156
-0.54039
-0.534683
-0.530683
-0.528
-0.527404
-0.529889
-0.535971
-0.545742
-0.559025
-0.575427
-0.594343
-0.614955
-0.636282
-0.657181
-0.676462
-0.692493
-0.703568
-0.707523
-0.702
-0.684357
-0.653354
-0.608523
-0.553618
-0.490285
-0.535311
-0.530307
-0.525926
-0.521827
-0.518854
-0.518256
-0.5209
-0.527188
-0.537144
-0.550493
-0.566695
-0.584986
-0.604419
-0.623782
-0.641435
-0.655496
-0.663798
-0.663784
-0.653252
-0.630282
-0.595173
-0.548966
-0.496112
-0.438243
-0.529742
-0.525777
-0.521342
-0.516215
-0.511282
-0.507961
-0.507445
-0.510479
-0.517361
-0.527979
-0.541871
-0.558281
-0.575995
-0.593366
-0.608407
-0.618802
-0.622118
-0.616083
-0.599405
-0.5716
-0.53458
-0.490123
-0.442412
-0.391989
-0.524788
-0.521982
-0.517759
-0.512084
-0.505881
-0.500633
-0.497754
-0.49828
-0.502765
-0.511249
-0.523235
-0.537648
-0.552889
-0.566907
-0.577331
-0.581785
-0.578252
-0.565532
-0.54366
-0.513625
-0.478015
-0.438314
-0.397659
-0.354986
-0.521432
-0.519683
-0.515811
-0.510029
-0.503316
-0.497126
-0.492955
-0.491986
-0.49489
-0.50163
-0.511475
-0.522989
-0.534195
-0.542814
-0.546597
-0.543765
-0.533312
-0.515347
-0.490881
-0.461597
-0.429566
-0.395662
-0.362041
-0.326086
-0.520631
-0.519643
-0.516167
-0.510617
-0.50409
-0.497876
-0.493394
-0.491747
-0.493421
-0.49817
-0.50494
-0.512036
-0.517417
-0.519089
-0.515504
-0.505885
-0.490295
-0.46961
-0.444969
-0.417819
-0.389183
-0.359879
-0.331505
-0.30112
-0.523168
-0.522505
-0.519398
-0.514311
-0.508449
-0.502804
-0.498499
-0.496331
-0.496484
-0.498383
-0.500784
-0.502056
-0.500576
-0.495106
-0.485053
-0.470509
-0.452075
-0.430601
-0.406828
-0.381576
-0.355045
-0.328253
-0.301565
-0.275009
-0.516328
-0.441189
-0.375791
-0.325505
-0.293333
-0.279782
-0.285415
-0.309678
-0.346015
-0.380196
-0.395576
-0.379155
-0.332228
-0.271056
-0.21442
-0.173258
-0.148623
-0.138389
-0.140274
-0.1533
-0.181413
-0.230457
-0.292333
-0.340958
-0.347839
-0.311334
-0.249762
-0.188365
-0.143781
-0.11842
-0.107797
-0.112576
-0.136201
-0.17201
-0.198088
-0.192968
-0.163609
-0.127172
-0.100247
-0.0873336
-0.0902833
-0.106799
-0.122782
-0.122416
-0.107221
-0.0879161
-0.0721224
-0.0629557
-0.0595657
-0.0594863
-0.0555707
-0.0480495
-0.0427907
-0.0427654
-0.0446007
-0.0377304
-0.0294855
-0.0198342
-0.0102069
-0.00319407
-0.535263
-0.452266
-0.378214
-0.318597
-0.276946
-0.254255
-0.250771
-0.266278
-0.296134
-0.328438
-0.345729
-0.333999
-0.294978
-0.242798
-0.194747
-0.159997
-0.139933
-0.133654
-0.139368
-0.15648
-0.189671
-0.244634
-0.311573
-0.363499
-0.370742
-0.331387
-0.264822
-0.197801
-0.147648
-0.117229
-0.101687
-0.100591
-0.11696
-0.145846
-0.167434
-0.162398
-0.139189
-0.110826
-0.0917071
-0.086049
-0.0966525
-0.12095
-0.14307
-0.143202
-0.123556
-0.0981611
-0.0763747
-0.0614166
-0.0522767
-0.0489086
-0.0437649
-0.0394505
-0.0395052
-0.0459769
-0.0543576
-0.048123
-0.0390144
-0.0232372
-0.00501625
-0.000221001
-0.530282
-0.443802
-0.36702
-0.302835
-0.254743
-0.223692
-0.209619
-0.213871
-0.233946
-0.260995
-0.279889
-0.275339
-0.246703
-0.205994
-0.16777
-0.139924
-0.124893
-0.122845
-0.132282
-0.152822
-0.189417
-0.247448
-0.317061
-0.371473
-0.381621
-0.343019
-0.273955
-0.202973
-0.148684
-0.114093
-0.094097
-0.0875418
-0.0970787
-0.119362
-0.13715
-0.132054
-0.115053
-0.0939027
-0.0818687
-0.0834258
-0.102016
-0.13441
-0.162973
-0.163994
-0.139481
-0.107664
-0.08001
-0.059773
-0.045253
-0.0386813
-0.0321081
-0.030907
-0.0360735
-0.0488773
-0.0636291
-0.0581626
-0.0483034
-0.0267487
0.000137272
0.00261543
-0.502671
-0.418381
-0.344809
-0.281249
-0.230932
-0.194581
-0.172077
-0.164054
-0.171465
-0.189417
-0.206667
-0.208412
-0.190742
-0.162388
-0.134426
-0.113756
-0.103829
-0.105791
-0.11838
-0.141036
-0.178446
-0.236316
-0.306934
-0.36386
-0.377499
-0.344839
-0.276288
-0.203477
-0.146746
-0.109225
-0.0857949
-0.0743905
-0.0777651
-0.0941182
-0.108725
-0.102892
-0.0920532
-0.0767254
-0.0707432
-0.0790467
-0.105463
-0.14612
-0.18144
-0.183974
-0.154592
-0.116232
-0.0829063
-0.0580016
-0.0386223
-0.0289905
-0.0207693
-0.0224663
-0.0324624
-0.0513408
-0.0722915
-0.067754
-0.0572317
-0.0303821
0.00519177
0.00530046
-0.461772
-0.384234
-0.318062
-0.258144
-0.208325
-0.169745
-0.14133
-0.124106
-0.119334
-0.125644
-0.136536
-0.141877
-0.132535
-0.115762
-0.097345
-0.0834163
-0.078135
-0.0835788
-0.0987329
-0.122467
-0.158674
-0.213422
-0.282088
-0.341612
-0.3574
-0.336424
-0.271778
-0.199745
-0.142141
-0.102939
-0.0771805
-0.0620904
-0.0599569
-0.071016
-0.0835079
-0.0892071
-0.0709664
-0.059578
-0.0584172
-0.0724999
-0.106155
-0.155005
-0.197269
-0.202211
-0.16853
-0.123782
-0.0850419
-0.0561049
-0.032478
-0.0199959
-0.00990402
-0.0141288
-0.0286437
-0.0532646
-0.0802354
-0.082195
-0.0657035
-0.0341327
0.0100669
0.00782755
-0.415727
-0.347652
-0.291169
-0.237286
-0.18959
-0.150513
-0.119065
-0.0951165
-0.0803061
-0.0755114
-0.0778981
-0.0819539
-0.0782295
-0.0705008
-0.0597567
-0.0514914
-0.0501964
-0.0585276
-0.0756961
-0.0997927
-0.133436
-0.182611
-0.246175
-0.308397
-0.349499
-0.319824
-0.260749
-0.192175
-0.135339
-0.0955594
-0.068521
-0.0508741
-0.0443411
-0.050554
-0.0604721
-0.0641738
-0.0509541
-0.0428216
-0.0451474
-0.0638899
-0.103895
-0.16006
-0.209264
-0.217509
-0.180791
-0.130196
-0.0864037
-0.054092
-0.0269135
-0.0118383
0.00030726
-0.00594469
-0.0246211
-0.0545349
-0.0871185
-0.0898016
-0.0734119
-0.0379493
0.0146472
0.010182
-0.371947
-0.314375
-0.267266
-0.219988
-0.175725
-0.137358
-0.104733
-0.0773196
-0.0556714
-0.0414506
-0.0350671
-0.034722
-0.035716
-0.0297662
-0.024255
-0.0202942
-0.0221608
-0.0326323
-0.0510436
-0.0749106
-0.105402
-0.147963
-0.204226
-0.263909
-0.304744
-0.293066
-0.244134
-0.181458
-0.127018
-0.0876534
-0.0601745
-0.0409145
-0.0309539
-0.0329307
-0.0403691
-0.0432246
-0.0330738
-0.0270104
-0.0315766
-0.0534812
-0.0981918
-0.160822
-0.216559
-0.22889
-0.190952
-0.135418
-0.087031
-0.0519626
-0.021979
-0.00463372
0.00974934
0.00204363
-0.0204165
-0.055119
-0.092929
-0.0964711
-0.080292
-0.0417353
0.0187953
0.0123453
-0.335399
-0.287842
-0.248684
-0.207344
-0.166849
-0.129914
-0.0969881
-0.0680864
-0.0431972
-0.0227557
-0.00837683
-0.00101681
0.00130983
0.00435775
0.0067468
0.0079391
0.00390267
-0.00789104
-0.0266358
-0.0496318
-0.0769349
-0.112982
-0.16061
-0.214979
-0.257741
-0.259686
-0.222834
-0.168094
-0.117587
-0.0796066
-0.0523852
-0.0323809
-0.0198715
-0.0182479
-0.0233987
-0.0260127
-0.0180509
-0.0127534
-0.0182266
-0.0417715
-0.0895833
-0.156732
-0.218323
-0.235396
-0.198373
-0.139341
-0.0869649
-0.0497077
-0.0176596
0.00154774
0.0185319
0.0097246
-0.0160866
-0.0549597
-0.0976399
-0.10217
-0.0862704
-0.0453783
0.0223723
0.0143016
-0.307433
-0.268002
-0.234961
-0.198623
-0.162032
-0.127472
-0.095183
-0.0655511
-0.0390564
-0.0157745
0.00398044
0.0185263
0.02626
0.0294645
0.031805
0.0313143
0.0263669
0.014413
-0.0036902
-0.0252752
-0.0497136
-0.0800607
-0.119468
-0.167184
-0.210755
-0.224398
-0.199289
-0.153058
-0.107419
-0.0715931
-0.0452026
-0.0252034
-0.011049
-0.00643937
-0.0094338
-0.0121275
-0.00595115
-0.000361344
-0.00566103
-0.0292399
-0.0778455
-0.14795
-0.215248
-0.236994
-0.203026
-0.141892
-0.0862257
-0.047331
-0.0139153
0.00666758
0.0256836
0.0170918
-0.0116527
-0.054158
-0.101294
-0.10682
-0.0912795
-0.0488208
0.0252444
0.0160411
-0.286394
-0.253882
-0.225376
-0.192965
-0.159953
-0.128135
-0.0973953
-0.0681403
-0.0410433
-0.0164945
0.00532304
0.0238819
0.0376341
0.0453596
0.0492332
0.0484184
0.0432314
0.0321405
0.0158878
-0.00350292
-0.0252878
-0.0510104
-0.0826557
-0.122737
-0.165592
-0.185419
-0.1723
-0.135925
-0.0965857
-0.0638443
-0.0388248
-0.0194679
-0.00454336
0.00247082
0.00163918
-0.00106294
0.00356653
0.00992877
0.00541475
-0.0169123
-0.0647153
-0.134835
-0.205944
-0.232791
-0.20353
-0.142828
-0.0849208
-0.0449935
-0.0108787
0.010675
0.0316879
0.0239509
-0.00723807
-0.0526154
-0.103828
-0.110325
-0.0952365
-0.0520258
0.0272728
0.0175572
-0.269533
-0.244212
-0.219147
-0.189564
-0.159263
-0.129518
-0.100328
-0.072017
-0.0448378
-0.0195845
0.00339592
0.0238544
0.0410794
0.0540004
0.0615254
0.0615864
0.0574096
0.0474178
0.0331726
0.0161954
-0.00324212
-0.0254239
-0.0513682
-0.0859254
-0.126138
-0.153299
-0.149124
-0.120913
-0.0874034
-0.057782
-0.0341017
-0.0154962
-0.000334356
0.00860449
0.00999258
0.00753416
0.0109615
0.0177176
0.0150521
-0.00447305
-0.0500046
-0.118916
-0.193226
-0.224905
-0.201727
-0.14278
-0.0836909
-0.0430237
-0.00855389
0.0133746
0.0363691
0.0304977
-0.00276098
-0.0505863
-0.105478
-0.112696
-0.098135
-0.0547235
0.0283912
0.018839
-0.254632
-0.238912
-0.217935
-0.191797
-0.165035
-0.138342
-0.111501
-0.0846445
-0.0580878
-0.0325355
-0.00852975
0.0133678
0.0324639
0.0479838
0.0585292
0.0657612
0.0652995
0.0586288
0.0476291
0.0338869
0.0162732
-0.00421553
-0.0253617
-0.0528913
-0.0877008
-0.1112
-0.11685
-0.0997383
-0.0745266
-0.0497369
-0.0282813
-0.0108458
0.00383777
0.0137527
0.0168706
0.0147441
0.016245
0.0214279
0.0212189
0.00544464
-0.0355777
-0.10081
-0.174407
-0.210981
-0.193291
-0.139476
-0.0812288
-0.0403146
-0.00563524
0.0157887
0.0396562
0.0361413
0.00154957
-0.047819
-0.105801
-0.113775
-0.0998127
-0.0562655
0.0288483
0.0198956
-0.226906
-0.223808
-0.203708
-0.176964
-0.150212
-0.124759
-0.0999583
-0.0751648
-0.0504387
-0.0264838
-0.00376546
0.0174998
0.0363713
0.0516701
0.0629629
0.0704584
0.0731216
0.0690826
0.0600691
0.0494427
0.036515
0.0199675
-0.00148054
-0.0330194
-0.0716782
-0.10176
-0.0966158
-0.0797769
-0.0579665
-0.0368761
-0.0183511
-0.00307581
0.00987306
0.0191603
0.0228446
0.0210086
0.0210609
0.0262282
0.0292207
0.0175203
-0.0198253
-0.0821221
-0.156228
-0.198157
-0.18595
-0.131982
-0.0744705
-0.0348257
-0.00148423
0.0190966
0.0434131
0.0418996
0.00617034
-0.0444907
-0.105609
-0.114335
-0.100067
-0.0567429
0.0288698
0.0207048
-0.200456
-0.200845
-0.183099
-0.157738
-0.132632
-0.109548
-0.087595
-0.0656295
-0.0434135
-0.0215624
-0.000776511
0.018567
0.0358209
0.0502542
0.0614177
0.070056
0.074146
0.07214
0.0656963
0.058457
0.0500348
0.0367211
0.0140371
-0.019633
-0.0555451
-0.0753918
-0.0722811
-0.0584905
-0.0414236
-0.024823
-0.00948974
0.00370985
0.014926
0.0230658
0.0266659
0.0251071
0.0242979
0.029039
0.0329668
0.0241558
-0.00934187
-0.0672523
-0.139742
-0.183188
-0.171882
-0.121838
-0.0668455
-0.0292119
0.00244441
0.0217712
0.0460707
0.0454352
0.00925072
-0.0419209
-0.104934
-0.113907
-0.098814
-0.0566488
0.0282891
0.0211357
-0.178258
-0.179048
-0.164532
-0.142352
-0.119714
-0.0987449
-0.0789021
-0.0590755
-0.0388734
-0.0187845
0.000473616
0.0185118
0.0347743
0.0485868
0.0596567
0.0681435
0.072864
0.0723882
0.0680626
0.063342
0.0577358
0.0457698
0.0233662
-0.00708855
-0.0357697
-0.050716
-0.0497824
-0.0403594
-0.0275869
-0.0145181
-0.00183037
0.00945557
0.0191907
0.0263939
0.0299259
0.0284874
0.0268622
0.0311638
0.0352958
0.0275133
-0.00357796
-0.0568676
-0.123153
-0.163744
-0.155048
-0.110144
-0.0588973
-0.023778
0.0060782
0.0239386
0.0479011
0.0477657
0.010876
-0.0402448
-0.103499
-0.112287
-0.0963171
-0.0558997
0.0270303
0.0212504
-0.157273
-0.158445
-0.14678
-0.127619
-0.107287
-0.0881759
-0.0701638
-0.0523433
-0.0342447
-0.0161026
0.00147763
0.0180294
0.0330498
0.0459642
0.0565389
0.0649159
0.0701499
0.0711263
0.0687364
0.0656751
0.0613787
0.0509083
0.0318704
0.00697922
-0.0158339
-0.0283126
-0.0295741
-0.0238032
-0.0146316
-0.00483355
0.00526858
0.0147136
0.022968
0.0289778
0.0322092
0.0309114
0.0287143
0.0322105
0.0365246
0.0296877
0.000552474
-0.0463989
-0.10373
-0.141216
-0.135343
-0.0963909
-0.0502272
-0.0182415
0.00960315
0.025672
0.0486232
0.049147
0.0117794
-0.0384116
-0.100892
-0.109451
-0.0924693
-0.0542215
0.0251318
0.021028
-0.137718
-0.139618
-0.130251
-0.113821
-0.0958216
-0.0786712
-0.0625229
-0.0466594
-0.0305668
-0.0143133
0.00159993
0.0166859
0.030498
0.0426103
0.0527149
0.06087
0.0664195
0.068576
0.0678327
0.0659606
0.0625594
0.0543161
0.0394303
0.0198527
0.00178155
-0.00909263
-0.012273
-0.00977137
-0.00370338
0.00346531
0.0113705
0.019157
0.0261728
0.0310998
0.0338597
0.032622
0.0299401
0.0324746
0.0364692
0.0307505
0.00483
-0.0338606
-0.0823769
-0.116409
-0.113365
-0.0811235
-0.0411978
-0.012899
0.0127666
0.026975
0.0480691
0.0495157
0.0124458
-0.0359012
-0.0969157
-0.105237
-0.0871686
-0.0515404
0.0226553
0.0204228
-0.120451
-0.12265
-0.115039
-0.100998
-0.08523
-0.0700135
-0.0556416
-0.0415685
-0.0273185
-0.0128689
0.00140386
0.0150557
0.0276822
0.0390019
0.0484234
0.0562475
0.0619362
0.0649524
0.0655004
0.0645821
0.0619907
0.0557597
0.0444912
0.0295754
0.015377
0.0057022
0.00143245
0.00177561
0.00562279
0.0107548
0.0167619
0.0230017
0.0288621
0.0327681
0.034917
0.0337728
0.0307205
0.0322793
0.035335
0.0309882
0.00942542
-0.0208423
-0.0606987
-0.0905339
-0.0900293
-0.0648762
-0.0319073
-0.0077307
0.0155108
0.0278802
0.0461046
0.0487507
0.0128733
-0.0327265
-0.0913967
-0.0995448
-0.0804264
-0.0477492
0.0197522
0.0194003
-0.104916
-0.107132
-0.100992
-0.0890893
-0.0754135
-0.0620516
-0.0493731
-0.0369768
-0.024441
-0.0116854
0.00101308
0.013252
0.0246356
0.034774
0.043801
0.0512621
0.056932
0.0604623
0.0618885
0.0617197
0.0598784
0.0552829
0.0469656
0.0358238
0.0247822
0.0165279
0.0120644
0.0111185
0.0132796
0.0168197
0.0212689
0.0261338
0.0309915
0.0341065
0.0355865
0.0345963
0.0314123
0.0320493
0.0336851
0.0303141
0.0131987
-0.00886683
-0.0398248
-0.0648723
-0.0659155
-0.0484597
-0.0226502
-0.00285183
0.0177347
0.0284699
0.0427515
0.0467114
0.0128507
-0.0288493
-0.0840869
-0.0921183
-0.072324
-0.0428588
0.0166165
0.0179465
-0.0906507
-0.0929684
-0.088115
-0.07811
-0.066344
-0.054711
-0.043623
-0.0327833
-0.0218207
-0.0106332
0.000571329
0.0114573
0.0216875
0.0309751
0.0392173
0.0461996
0.0517077
0.0554869
0.0574908
0.0579462
0.0568131
0.0535094
0.0474569
0.0392747
0.030892
0.0240982
0.0199381
0.0183628
0.0193945
0.0217817
0.0250224
0.0286996
0.0326093
0.0351112
0.0360078
0.0351896
0.032204
0.0321405
0.0322502
0.0288505
0.015995
0.00184397
-0.0205355
-0.0408155
-0.04401
-0.0328019
-0.0136925
0.00173601
0.0194819
0.0288412
0.0383155
0.0433417
0.012405
-0.023964
-0.0746869
-0.0828706
-0.0630928
-0.0369811
0.0134983
0.0160921
-0.0777953
-0.0801753
-0.0763848
-0.068024
-0.0579673
-0.0479143
-0.0382901
-0.0288775
-0.0193587
-0.00962179
0.000188193
0.00979586
0.0189128
0.027302
0.034808
0.0412748
0.0465275
0.0503767
0.052736
0.0536762
0.053158
0.0509001
0.0466241
0.0407598
0.0345503
0.0291721
0.0255899
0.0238527
0.0241604
0.0256915
0.0280077
0.0307155
0.0337679
0.0357786
0.036284
0.0356245
0.0330731
0.0325754
0.0317846
0.027263
0.0184907
0.0112547
-0.00365232
-0.0196641
-0.0244943
-0.0186957
-0.00537216
0.00599192
0.0208557
0.0290402
0.0336355
0.0390357
0.012067
-0.0176165
-0.0629782
-0.0717891
-0.053135
-0.0303799
0.0106473
0.0139263
-0.0662763
-0.0685996
-0.0656816
-0.0587501
-0.0502153
-0.0415866
-0.0332919
-0.0251829
-0.0169848
-0.00857641
-5.38647e-05
0.00835911
0.0164177
0.0239173
0.0307017
0.0366347
0.0415714
0.045362
0.0479101
0.0492154
0.0492351
0.0478624
0.0449941
0.0409242
0.0364711
0.0323688
0.0294486
0.0278102
0.0277116
0.0286519
0.0302981
0.0322548
0.0345709
0.0361574
0.0364418
0.0359416
0.0339345
0.0332707
0.0323999
0.0271831
0.0218158
0.0193725
0.0099339
-0.00276779
-0.00858788
-0.00676728
0.00202316
0.00990245
0.0219838
0.0290131
0.0301217
0.0346468
0.012835
-0.00943895
-0.0490225
-0.0590339
-0.0428815
-0.023456
0.0082921
0.0116054
-0.0558432
-0.0581023
-0.0559223
-0.0502253
-0.0430294
-0.0356752
-0.0285847
-0.0216567
-0.0146495
-0.00743988
-9.03798e-05
0.00721819
0.0142811
0.0209207
0.0269973
0.0323905
0.0369754
0.0406305
0.0432577
0.0448321
0.0453121
0.0446711
0.0429011
0.0402227
0.0371928
0.0341652
0.031898
0.0305129
0.0302426
0.0307926
0.0319585
0.0333471
0.0350785
0.0363103
0.0364757
0.0361674
0.0346962
0.0341279
0.0337388
0.0302865
0.0269288
0.0264318
0.0197935
0.00934076
0.00341858
0.00286154
0.00831981
0.0134439
0.0229196
0.0287729
0.0289228
0.0310745
0.0158228
0.000401962
-0.0335777
-0.0452779
-0.033255
-0.0167315
0.00662878
0.00934098
-0.0464324
-0.0486201
-0.0470401
-0.0423934
-0.0363708
-0.0301517
-0.0241368
-0.018259
-0.0123102
-0.00617343
0.00011424
0.00641147
0.012549
0.0183781
0.0237748
0.0286354
0.0328491
0.0363169
0.0389451
0.0407025
0.0415509
0.0415005
0.0405815
0.0389653
0.0371305
0.0349271
0.0332683
0.0321988
0.0319081
0.0322236
0.0330652
0.0340485
0.0353334
0.0362991
0.0363976
0.0362877
0.0353216
0.0349589
0.0352338
0.0343696
0.0326158
0.0321429
0.0264678
0.0175936
0.0122003
0.0104432
0.013474
0.0165966
0.0236819
0.0285383
0.0300644
0.0339774
0.0213946
0.0107743
-0.0182371
-0.0316046
-0.0245429
-0.0107614
0.00577243
0.00739596
-0.0379954
-0.0400629
-0.0389599
-0.0352071
-0.0302043
-0.0249797
-0.01991
-0.0149575
-0.00994657
-0.00476537
0.000572079
0.00595597
0.0112399
0.0163221
0.021078
0.0254224
0.0292564
0.0325014
0.0350713
0.0369381
0.0380643
0.038468
0.0381824
0.0373111
0.0360267
0.0348618
0.0338076
0.033078
0.0328686
0.0330687
0.0337018
0.0344175
0.0353655
0.0361471
0.0362329
0.0362776
0.0357702
0.0356182
0.0363594
0.0368691
0.0366391
0.0357224
0.0305918
0.0231211
0.0185068
0.0162434
0.0175305
0.0192992
0.0243294
0.0284956
0.031786
0.0326551
0.0271137
0.0193747
-0.00512709
-0.0189176
-0.0169777
-0.00596854
0.00562523
0.00597945
-0.0304018
-0.0323335
-0.0316122
-0.0286122
-0.024488
-0.0201308
-0.0158891
-0.0117475
-0.00755852
-0.00321654
0.00127991
0.00584845
0.0103722
0.0147633
0.0189198
0.0227695
0.0262255
0.0292256
0.0316926
0.033602
0.0349185
0.0356602
0.0358577
0.0355908
0.0350004
0.0343598
0.0337714
0.0333529
0.0332709
0.0334388
0.033945
0.0345007
0.0352094
0.0358614
0.0359859
0.0361228
0.0359876
0.0360064
0.0367557
0.0378713
0.038245
0.0371921
0.0327908
0.0266866
0.022852
0.0204803
0.0206159
0.0214905
0.0249777
0.0286831
0.0326724
0.0319551
0.0307955
0.0245236
0.00413505
-0.00935759
-0.010599
-0.00246418
0.00590121
0.00514978
-0.0235588
-0.0253605
-0.0249438
-0.0225747
-0.0192023
-0.0155929
-0.0120668
-0.00862682
-0.0051512
-0.00154191
0.00221241
0.00605557
0.00991465
0.013682
0.017286
0.0206681
0.023754
0.0264957
0.0288256
0.0307211
0.0321488
0.0331267
0.0336779
0.0338628
0.0337674
0.033553
0.0333348
0.0331833
0.0332402
0.033433
0.0338699
0.0343396
0.034894
0.0354464
0.0356378
0.0358224
0.0359423
0.0361023
0.0367391
0.0378677
0.038259
0.0372619
0.0336864
0.0288238
0.0256633
0.0234334
0.0228898
0.0231698
0.0256779
0.0289112
0.0323051
0.031371
0.031628
0.0261504
0.00945155
-0.0026691
-0.00532976
1.42137e-08
0.00610445
0.00463621
-0.017434
-0.0190948
-0.0189062
-0.0170535
-0.0143146
-0.0113436
-0.0084318
-0.00559505
-0.00273313
0.000241937
0.00334018
0.00649945
0.00981124
0.0130369
0.0161403
0.0190865
0.0218164
0.0242932
0.0264593
0.028295
0.0297689
0.0308936
0.0316829
0.0321855
0.0324403
0.0325563
0.0326288
0.0327
0.0328888
0.0331379
0.033544
0.0339721
0.0344391
0.0349128
0.0351695
0.0353828
0.0356368
0.0359032
0.0363659
0.0372478
0.0374666
0.0365635
0.0337639
0.0299615
0.0273381
0.0254128
0.0244968
0.0244022
0.0263126
0.0289465
0.0312107
0.0306919
0.0309248
0.026041
0.0123757
0.00179278
-0.0011913
0.00163305
0.00590107
0.00402752
-0.0119511
-0.0134491
-0.0134329
-0.0120032
-0.00979723
-0.00737149
-0.00498567
-0.00266132
-0.000314118
0.00214036
0.00472939
0.00746574
0.0101253
0.0128094
0.0154413
0.0179789
0.0203696
0.0225813
0.0245653
0.0263036
0.0277679
0.0289638
0.0298961
0.0305899
0.0311006
0.0314629
0.0317569
0.0320075
0.0323096
0.0326252
0.0330266
0.0334378
0.03386
0.0342755
0.0345759
0.0348112
0.0351087
0.0354372
0.035719
0.0362985
0.0363278
0.0355113
0.033356
0.0304156
0.0281862
0.0262117
0.0255438
0.0252615
0.0266919
0.0286838
0.0298944
0.0296926
0.0294672
0.0251877
0.0140471
0.00482275
0.00185287
0.00302949
0.00538583
0.00330706
-0.00708153
-0.00844706
-0.00852651
-0.00742249
-0.00565198
-0.00368253
-0.00174157
0.000147223
0.00205249
0.00404899
0.00616575
0.00837324
0.0106199
0.0128787
0.0151074
0.0172801
0.0193558
0.0213093
0.0231013
0.0247151
0.026126
0.0273347
0.0283406
0.0291581
0.0298204
0.0303494
0.0308004
0.0311874
0.0315795
0.0319573
0.0323684
0.0327745
0.0331745
0.0335516
0.0338683
0.0341164
0.0343959
0.0346538
0.0348646
0.03519
0.0350765
0.034338
0.0326748
0.0304213
0.0285592
0.0269649
0.0262136
0.0257906
0.0267025
0.0279589
0.0285507
0.0283138
0.0276366
0.0239405
0.0149666
0.00696754
0.00399808
0.00406056
0.00478564
0.00262148
-0.00268897
-0.00391142
-0.00409206
-0.00327375
-0.0018748
-0.000288398
0.00128374
0.00281018
0.00434581
0.0059558
0.00766648
0.00946931
0.0113274
0.0132101
0.0150837
0.0169292
0.0187154
0.0204223
0.0220192
0.0234903
0.0248153
0.0259896
0.0270119
0.0278882
0.0286366
0.0292686
0.0298213
0.0303035
0.0307609
0.0311878
0.0316125
0.0320181
0.0324055
0.0327572
0.0330696
0.0333199
0.0335497
0.0337848
0.0338962
0.0340272
0.0338204
0.0331553
0.0318543
0.0301272
0.0285878
0.0272537
0.0265243
0.0260087
0.0264189
0.027146
0.0272577
0.0267335
0.0257105
0.0225248
0.0153579
0.00848943
0.00549822
0.00479835
0.00429991
0.00207533
0.00122725
0.000133001
-0.000109186
0.000487066
0.00158391
0.00285031
0.00410891
0.00532843
0.00655348
0.007841
0.00921683
0.0106785
0.0121991
0.0137537
0.0153147
0.0168677
0.0183897
0.0198647
0.0212682
0.0225864
0.0238018
0.024904
0.025903
0.0267889
0.0275725
0.0282566
0.0288653
0.0294049
0.0299032
0.0303619
0.0307968
0.0312004
0.0315773
0.031911
0.032208
0.0324504
0.0326415
0.0328225
0.0328652
0.0328651
0.0326048
0.0320088
0.0309728
0.0296319
0.0283631
0.0272119
0.0264739
0.0259527
0.0259352
0.0262182
0.0260075
0.0251302
0.023858
0.0210908
0.0153785
0.00952754
0.00653745
0.00531196
0.00401921
0.0016977
0.00469545
0.00373272
0.00346332
0.00388821
0.00473654
0.00573474
0.00673104
0.00769504
0.00866211
0.00968138
0.0107779
0.0119527
0.0131857
0.0144572
0.0157453
0.0170391
0.018322
0.0195814
0.0207978
0.0219589
0.0230515
0.0240708
0.0250082
0.0258636
0.02664
0.027336
0.0279638
0.028528
0.0290443
0.0295165
0.0299533
0.0303508
0.0307146
0.0310316
0.0313075
0.0315323
0.0316902
0.0318158
0.0318111
0.0317302
0.031446
0.0309118
0.0300705
0.0290057
0.0279522
0.0269477
0.0262283
0.0256679
0.0253321
0.0252341
0.0247886
0.0236655
0.0221809
0.0197269
0.0151547
0.0101862
0.00723349
0.00565277
0.0038645
0.00147038
0.0077847
0.00694531
0.00666176
0.00694906
0.00759361
0.00837068
0.00915048
0.00990356
0.0106578
0.011455
0.0123194
0.0132538
0.0142433
0.0152724
0.0163244
0.0173906
0.018459
0.0195209
0.0205602
0.0215646
0.0225184
0.0234432
0.0243048
0.0251047
0.0258436
0.0265195
0.0271371
0.0276989
0.0282126
0.028681
0.0291093
0.0294945
0.0298405
0.0301386
0.0303903
0.0305906
0.0307189
0.0307978
0.0307619
0.0306345
0.0303455
0.0298652
0.0291659
0.0282972
0.0274036
0.0265206
0.0257943
0.0251916
0.0246488
0.0242357
0.0236008
0.022349
0.0207202
0.0184776
0.0147781
0.0105523
0.00767154
0.00586625
0.00380217
0.00134892
0.0105263
0.00979461
0.00950849
0.00969079
0.0101723
0.0107687
0.0113702
0.0119496
0.012529
0.0131436
0.0138155
0.0145492
0.0153338
0.0161568
0.0170059
0.0178745
0.0187536
0.0196375
0.0205156
0.0213797
0.0222235
0.0230164
0.0237783
0.0245013
0.0251808
0.0258131
0.0263977
0.0269351
0.0274281
0.0278782
0.0282874
0.0286526
0.0289755
0.0292507
0.029476
0.0296488
0.0297508
0.0297934
0.0297361
0.0295834
0.0292996
0.0288655
0.0282676
0.027539
0.0267569
0.0259675
0.0252333
0.0245791
0.0239099
0.0232592
0.0224613
0.0211626
0.0194665
0.0173599
0.0143089
0.0107002
0.00791741
0.00598012
0.00378097
0.00128992
0.012944
0.012314
0.0120375
0.0121403
0.0124904
0.0129385
0.0133935
0.0138307
0.0142671
0.0147322
0.0152456
0.0158125
0.0164253
0.0170742
0.0177495
0.0184467
0.0191594
0.0198828
0.0206091
0.0213313
0.0220405
0.0227294
0.0233953
0.0240347
0.0246427
0.0252158
0.0257513
0.0262481
0.0267061
0.0271251
0.0275048
0.0278422
0.028137
0.0283846
0.0285818
0.0287266
0.0288051
0.0288189
0.0287453
0.0285801
0.0283044
0.0279089
0.0273809
0.0267503
0.0260474
0.0253214
0.0245875
0.0238816
0.0231326
0.0223241
0.02139
0.0200837
0.0183887
0.0163762
0.0137882
0.0106883
0.00802224
0.0060104
0.00376675
0.00126328
0.0150766
0.014538
0.014276
0.0143182
0.0145627
0.0148903
0.0152256
0.0155468
0.0158669
0.0162102
0.0165937
0.0170227
0.017492
0.0179942
0.0185217
0.0190713
0.019639
0.020221
0.0208105
0.0214026
0.021991
0.022573
0.0231392
0.0236896
0.0242187
0.0247231
0.0251987
0.0256434
0.0260554
0.0264332
0.0267752
0.0270779
0.0273395
0.027554
0.0277242
0.0278404
0.0278954
0.0278857
0.0277978
0.0276264
0.0273578
0.0269914
0.026512
0.025947
0.0253011
0.0246143
0.0238867
0.0231407
0.022335
0.0214339
0.0203996
0.0190953
0.0174498
0.0155179
0.0132478
0.0105592
0.00802233
0.00597222
0.00373945
0.00125001
0.0169496
0.0164915
0.0162474
0.0162445
0.0164053
0.0166352
0.016873
0.0170999
0.0173258
0.0175702
0.0178477
0.0181634
0.0185136
0.0188926
0.0192952
0.019719
0.020161
0.0206193
0.0210884
0.0215639
0.0220404
0.0225162
0.0229875
0.0234485
0.0238962
0.024327
0.0247364
0.0251218
0.0254804
0.02581
0.0261081
0.0263713
0.0265961
0.0267809
0.0269151
0.0270016
0.027032
0.0270014
0.0268995
0.0267231
0.0264595
0.0261125
0.0256671
0.0251433
0.0245379
0.0238762
0.0231551
0.0223847
0.0215372
0.0205868
0.0194924
0.0181901
0.0166164
0.0147686
0.0127117
0.0103448
0.00794659