/*--------------------------------*- C++ -*----------------------------------*\
| =========                 |                                                 |
| \\      /  F ield         | OpenFOAM: The Open Source CFD Toolbox           |
|  \\    /   O peration     | Version:  2512                                  |
|   \\  /    A nd           | Website:  www.openfoam.com                      |
|    \\/     M anipulation  |                                                 |
\*---------------------------------------------------------------------------*/
FoamFile
{
    version     2.0;
    format      ascii;
    arch        "LSB;label=32;scalar=64";
    class       volVectorField;
    location    "137";
    object      U;
}
// * * * * * * * * * * * * * * * * * * * * * * * * * * * * * * * * * * * * * //

dimensions      [0 1 -1 0 0 0 0];

internalField   nonuniform List<vector> 
13248
(
(-0.0215061 0.0153464 3.60034e-20)
(-0.0504628 0.0304901 0)
(-0.0675285 0.0348269 -6.2373e-20)
(-0.0679663 0.0349899 5.77561e-20)
(-0.0479025 0.0338354 5.29889e-20)
(-0.00351419 0.0325186 0)
(0.0685498 0.031721 0)
(0.170063 0.0317562 1.17292e-19)
(0.299406 0.0332215 -1.84164e-21)
(0.450997 0.0363898 -9.7766e-20)
(0.615767 0.0410728 8.75647e-20)
(0.782548 0.0465941 -5.38884e-20)
(0.939968 0.0518719 0)
(1.07815 0.0556373 -9.00304e-20)
(1.19003 0.0567381 1.67002e-19)
(1.27208 0.0544267 -3.95062e-20)
(1.32466 0.0484104 -7.07335e-20)
(1.35184 0.0391492 6.59484e-20)
(1.36013 0.027457 0)
(1.35766 0.0129917 0)
(1.35031 0.000795995 0)
(1.34259 -0.0217305 0)
(1.33281 -0.0249868 1.90318e-20)
(1.32095 -0.0667143 6.8302e-20)
(-0.0271574 0.0192207 -1.08511e-19)
(-0.0557257 0.0368406 6.86998e-20)
(-0.0623122 0.0413185 -4.01677e-22)
(-0.0439886 0.039963 -8.78773e-20)
(0.00274697 0.0366394 -5.29117e-20)
(0.0813155 0.0334946 -4.9158e-20)
(0.193402 0.0319491 -8.76411e-20)
(0.336562 0.0330225 8.22958e-20)
(0.50292 0.0371166 0)
(0.679932 0.0438629 6.72166e-22)
(0.853044 0.0521408 2.06788e-21)
(1.00879 0.0603383 5.50322e-20)
(1.1372 0.0667698 0)
(1.23314 0.070088 0)
(1.29655 0.0696179 6.08109e-20)
(1.33177 0.0653085 -1.1344e-19)
(1.34615 0.0578743 6.70134e-20)
(1.34778 0.047977 -6.24821e-20)
(1.34355 0.0365455 -2.70498e-20)
(1.33737 0.0243543 -4.95307e-20)
(1.32996 0.0108552 -1.99607e-20)
(1.3217 -0.00164474 -3.75846e-20)
(1.30885 -0.0135579 5.48021e-20)
(1.2992 -0.0300576 1.51546e-20)
(-0.0304186 0.0201452 0)
(-0.0546529 0.0376898 0)
(-0.0460787 0.0420452 3.16239e-20)
(-0.00308613 0.0402432 2.87444e-20)
(0.0771299 0.0368499 -6.92495e-22)
(0.196168 0.0348939 -5.09256e-20)
(0.350941 0.0363508 0)
(0.531164 0.0420241 -4.06141e-20)
(0.720334 0.0513295 3.75425e-20)
(0.9 0.0625256 5.41143e-22)
(1.05457 0.0733279 -6.05749e-20)
(1.17448 0.0816336 -5.38743e-20)
(1.25722 0.0860715 1.62089e-21)
(1.30651 0.0862464 -4.21811e-20)
(1.3302 0.0825799 1.01558e-19)
(1.33753 0.0760162 0)
(1.33644 0.0675494 -6.36605e-20)
(1.33194 0.0577833 3.09776e-20)
(1.32608 0.047854 2.70231e-20)
(1.31885 0.0363522 0)
(1.31046 0.0273335 2.17673e-20)
(1.30043 0.0136684 -7.22589e-20)
(1.29016 0.00786523 6.74797e-20)
(1.28015 -0.0088164 4.07437e-20)
(-0.0312478 0.0186458 -3.81987e-20)
(-0.0464417 0.0333962 -3.65278e-20)
(-0.0173174 0.0368931 3.26175e-20)
(0.0567849 0.0356654 0)
(0.177005 0.0348135 0)
(0.33994 0.0378252 -1.08627e-21)
(0.53314 0.0462238 0)
(0.735636 0.059192 -1.24772e-19)
(0.924254 0.0741389 1.13637e-19)
(1.08085 0.0879305 -1.37073e-19)
(1.19635 0.0980635 3.0415e-20)
(1.27104 0.103314 0)
(1.31207 0.103773 4.7719e-20)
(1.32977 0.100399 -8.70161e-20)
(1.33397 0.0944336 2.05598e-20)
(1.33165 0.08693 5.08844e-20)
(1.32645 0.078472 -2.69522e-21)
(1.31974 0.0696388 -5.50465e-20)
(1.31181 0.0600431 0)
(1.30325 0.0508009 0)
(1.29399 0.0407202 -1.87585e-20)
(1.28496 0.0306991 1.65516e-20)
(1.27455 0.0236128 5.86461e-20)
(1.26538 0.0091152 -5.47492e-20)
(-0.0296084 0.0156211 -4.02967e-20)
(-0.0298559 0.0257329 -3.71745e-20)
(0.0266881 0.0283629 1.02627e-19)
(0.139162 0.0296257 -6.15243e-20)
(0.304175 0.0348623 5.69904e-20)
(0.507979 0.0468359 1.02252e-19)
(0.724968 0.064635 -7.1183e-20)
(0.926022 0.0845663 -8.42715e-20)
(1.08927 0.102355 2.71238e-21)
(1.2055 0.115 1.03696e-19)
(1.27729 0.121484 0)
(1.31457 0.122466 2.67537e-20)
(1.32929 0.11944 0)
(1.33147 0.113917 -4.14143e-20)
(1.32756 0.106988 5.76706e-20)
(1.32086 0.0992205 6.45053e-22)
(1.31291 0.0909923 -1.44627e-20)
(1.30442 0.0822488 2.69081e-20)
(1.29591 0.0735363 2.25777e-20)
(1.28725 0.0643212 -1.99103e-20)
(1.27855 0.0557744 1.87502e-20)
(1.26932 0.0465625 -1.65441e-20)
(1.25975 0.0394488 0)
(1.25099 0.0278983 -1.17923e-20)
(-0.0250535 0.0118027 4.02866e-20)
(-0.00302369 0.0168042 3.92323e-20)
(0.088999 0.0199926 -3.44411e-20)
(0.246337 0.0270028 6.33896e-20)
(0.455483 0.0422924 -5.87152e-20)
(0.687133 0.0654813 5.23346e-20)
(0.904788 0.0916291 -2.48149e-20)
(1.08065 0.11483 6.33321e-20)
(1.20372 0.131234 -3.91901e-20)
(1.2779 0.139888 6.64477e-20)
(1.31523 0.141982 -1.50316e-19)
(1.32913 0.139533 5.40915e-20)
(1.33019 0.13437 -4.55727e-20)
(1.32508 0.127718 4.24252e-20)
(1.31739 0.120238 3.54074e-20)
(1.30887 0.112297 3.02815e-20)
(1.30024 0.104012 -8.34566e-20)
(1.29171 0.0956597 5.12963e-20)
(1.28306 0.0870773 -2.25744e-20)
(1.2743 0.0787058 5.73692e-20)
(1.26527 0.0701884 -1.858e-20)
(1.25629 0.0617139 -4.30817e-20)
(1.24707 0.0545562 3.93507e-20)
(1.23836 0.0440568 1.17886e-20)
(-0.0167142 0.00769306 0)
(0.036098 0.00856418 5.03957e-22)
(0.171499 0.0153279 7.28269e-20)
(0.376265 0.0322413 -6.69119e-20)
(0.620029 0.0602467 -5.95119e-20)
(0.85827 0.0935269 1.08736e-19)
(1.05383 0.12387 -4.9691e-20)
(1.1909 0.145824 6.4086e-20)
(1.27307 0.158077 -1.98077e-21)
(1.31402 0.162194 -3.47935e-20)
(1.3289 0.160746 7.28919e-20)
(1.32958 0.156012 -1.05727e-19)
(1.32361 0.149522 0)
(1.31508 0.142131 -1.96741e-20)
(1.30585 0.134284 -5.12747e-20)
(1.29659 0.126168 1.60368e-20)
(1.28742 0.117939 7.86439e-22)
(1.27827 0.109563 -3.29618e-20)
(1.26923 0.101239 2.63129e-21)
(1.26029 0.0928559 3.74606e-20)
(1.25151 0.0846515 -1.63849e-20)
(1.24276 0.0767079 -5.72367e-21)
(1.23393 0.0691419 1.82178e-20)
(1.22557 0.0601606 0)
(-0.00360374 0.00377636 0)
(0.0889955 0.00292295 2.00683e-20)
(0.273479 0.0175308 -9.54421e-20)
(0.521303 0.0480791 3.41951e-20)
(0.781967 0.0885862 -3.16726e-20)
(1.00499 0.127913 -2.83694e-20)
(1.16473 0.157719 -4.84858e-20)
(1.26164 0.175486 2.43498e-20)
(1.31037 0.182859 2.04152e-20)
(1.32836 0.183023 0)
(1.32964 0.178918 4.30571e-20)
(1.32322 0.17257 -6.25205e-20)
(1.31392 0.165136 4.59326e-20)
(1.3039 0.157187 1.96829e-20)
(1.29391 0.148971 -1.54828e-20)
(1.28415 0.140616 -1.24114e-20)
(1.27468 0.13216 -1.1444e-20)
(1.26552 0.123726 3.46753e-20)
(1.25659 0.115304 0)
(1.24785 0.107031 1.64022e-20)
(1.23919 0.0989049 1.31883e-20)
(1.23063 0.0909657 -3.32586e-20)
(1.22213 0.0832554 -2.18598e-20)
(1.21386 0.0752691 1.99698e-20)
(0.0151183 0.000673283 -2.39624e-20)
(0.155923 0.00193027 -1.20259e-21)
(0.390833 0.0291598 1.95895e-20)
(0.669673 0.0750605 5.42141e-20)
(0.92697 0.124907 1.52346e-20)
(1.11986 0.165423 -2.9048e-20)
(1.24047 0.191319 2.59684e-20)
(1.3028 0.203728 -2.19556e-20)
(1.327 0.206462 3.816e-20)
(1.33023 0.203378 1.55895e-20)
(1.32377 0.197249 -4.3918e-20)
(1.31369 0.18968 1.25816e-20)
(1.30272 0.181458 2.07963e-20)
(1.29185 0.172927 -1.02302e-20)
(1.28138 0.164247 0)
(1.27136 0.155502 1.4376e-20)
(1.26172 0.146777 2.34909e-20)
(1.2524 0.138095 3.55708e-21)
(1.24336 0.129537 -1.89876e-20)
(1.2346 0.121114 7.61155e-21)
(1.22611 0.112906 0)
(1.21782 0.104959 -5.65369e-21)
(1.20963 0.0971053 -5.3242e-21)
(1.20163 0.0897807 0)
(0.0398372 -0.000739865 0)
(0.235357 0.00778981 1.17084e-20)
(0.51624 0.0517342 2.14442e-20)
(0.809314 0.111863 -5.57118e-20)
(1.04686 0.16641 1.78854e-20)
(1.20339 0.20413 0)
(1.28807 0.224288 2.46253e-20)
(1.3234 0.231147 -3.38178e-20)
(1.3308 0.229763 -1.90282e-20)
(1.32503 0.224014 8.38284e-21)
(1.31425 0.216218 -1.2814e-20)
(1.30221 0.207529 3.10212e-20)
(1.29032 0.198458 1.49286e-20)
(1.27899 0.18923 -1.05294e-20)
(1.26824 0.179954 -1.19952e-21)
(1.25804 0.170704 -2.6628e-20)
(1.24832 0.161524 1.19257e-20)
(1.23907 0.152479 -3.60622e-22)
(1.23024 0.143601 0)
(1.22177 0.134954 -7.61911e-21)
(1.21357 0.126568 0)
(1.20558 0.118376 1.60311e-20)
(1.19773 0.110431 -1.85582e-20)
(1.18993 0.103512 8.28385e-21)
(0.0702899 0.000500225 -6.90287e-21)
(0.323829 0.0223583 -3.01609e-20)
(0.640757 0.0853361 3.40077e-20)
(0.931429 0.156312 1.92519e-20)
(1.13943 0.211014 -9.09939e-21)
(1.25968 0.243244 1.4386e-20)
(1.31436 0.256882 -6.96597e-21)
(1.32994 0.258453 1.09746e-20)
(1.32635 0.253463 0)
(1.31521 0.245391 2.33377e-20)
(1.30202 0.236027 -1.15863e-21)
(1.28891 0.226161 -1.80568e-20)
(1.27649 0.216122 7.48986e-21)
(1.26485 0.206054 -8.15681e-21)
(1.25393 0.196039 -2.88736e-21)
(1.24367 0.186136 3.5167e-21)
(1.23399 0.176401 -2.54832e-21)
(1.22482 0.16687 -1.35078e-20)
(1.21612 0.15759 8.16688e-21)
(1.20783 0.148592 1.57806e-21)
(1.19991 0.139886 1.34271e-21)
(1.19225 0.131444 1.14084e-21)
(1.18477 0.123424 0)
(1.17734 0.116451 0)
(0.105656 0.00536137 6.91123e-21)
(0.416441 0.0468197 -6.36653e-21)
(0.756185 0.128874 -1.14054e-20)
(1.03145 0.206323 0)
(1.20598 0.257475 -4.50855e-21)
(1.2935 0.28259 -3.92969e-21)
(1.32462 0.289529 -6.38889e-21)
(1.32636 0.286178 0)
(1.31582 0.277913 0)
(1.30158 0.267631 0)
(1.28708 0.256635 0)
(1.27338 0.245441 0)
(1.26068 0.234256 -4.65447e-21)
(1.24893 0.223182 2.08603e-21)
(1.23801 0.212278 3.50818e-21)
(1.22783 0.201593 1.62041e-21)
(1.21831 0.191161 3.8309e-21)
(1.2094 0.181022 0)
(1.20105 0.171209 -8.38987e-22)
(1.19319 0.161748 -7.97792e-22)
(1.18572 0.152629 -1.34483e-21)
(1.17853 0.143828 -1.14263e-21)
(1.17152 0.135625 0)
(1.16459 0.128363 7.21041e-22)
(-0.00341471 -0.0332807 6.12204e-21)
(-0.0189995 -0.0246144 -5.83513e-21)
(-0.0453803 0.0131438 -1.08104e-20)
(-0.0761278 0.0562209 0)
(-0.108809 0.0968128 -1.4091e-20)
(-0.142011 0.13616 4.45395e-21)
(-0.174546 0.177529 -8.03511e-21)
(-0.205531 0.222758 0)
(-0.234224 0.272002 0)
(-0.259819 0.324512 0)
(-0.281384 0.379092 0)
(-0.297884 0.43419 0)
(-0.308231 0.487872 2.73652e-22)
(-0.31133 0.537849 -5.30104e-21)
(-0.306159 0.581545 9.67141e-21)
(-0.291842 0.616223 1.39616e-20)
(-0.267744 0.63915 4.30562e-21)
(-0.233567 0.647809 0)
(-0.189447 0.640161 4.12823e-21)
(-0.135952 0.614861 -1.16516e-20)
(-0.0740263 0.571433 -7.54991e-21)
(-0.00572724 0.510525 -7.30859e-21)
(0.0671279 0.43379 0)
(0.1459 0.342363 0)
(-0.00147869 -0.021434 -1.80486e-20)
(-0.0150035 -0.00116187 2.87521e-20)
(-0.0380962 0.043569 -1.01888e-20)
(-0.06521 0.0915124 -1.93862e-20)
(-0.0941995 0.135054 2.72383e-20)
(-0.123578 0.175261 -1.66465e-20)
(-0.151894 0.215648 2.34668e-20)
(-0.177942 0.258439 1.38713e-20)
(-0.200729 0.303956 0)
(-0.219297 0.351362 -1.30609e-20)
(-0.232625 0.399307 -1.81128e-22)
(-0.239638 0.446131 1.13131e-20)
(-0.239255 0.489884 1.5345e-20)
(-0.23046 0.528363 1.97389e-20)
(-0.212393 0.559202 -9.23394e-21)
(-0.18446 0.580066 -2.6682e-20)
(-0.146394 0.5887 8.60465e-21)
(-0.0983229 0.583249 -3.23132e-20)
(-0.0408477 0.56233 0)
(0.0247683 0.525306 7.78637e-21)
(0.097176 0.472432 7.5361e-21)
(0.175374 0.404079 7.29525e-21)
(0.252522 0.324361 0)
(0.338714 0.22988 0)
(-0.000230494 -0.0130893 0)
(-0.0116556 0.0147744 5.37068e-20)
(-0.0304292 0.0648095 -1.9936e-20)
(-0.0522383 0.117516 1.86959e-20)
(-0.0754151 0.16454 -5.04171e-20)
(-0.0986186 0.205947 0)
(-0.120293 0.245086 -2.88187e-20)
(-0.138955 0.284661 1.28962e-20)
(-0.153358 0.325471 -2.39587e-20)
(-0.162423 0.366852 1.02413e-20)
(-0.16513 0.407445 6.39448e-20)
(-0.160509 0.445618 -2.9659e-20)
(-0.147661 0.479467 -4.83591e-20)
(-0.125832 0.506994 -1.82688e-20)
(-0.0944089 0.52618 -1.05503e-21)
(-0.0531705 0.535102 6.67565e-20)
(-0.00229361 0.532046 -3.16862e-20)
(0.0576099 0.5157 7.48884e-22)
(0.125547 0.485402 0)
(0.200708 0.440706 -2.97237e-20)
(0.278196 0.383138 0)
(0.364138 0.31167 -3.10119e-20)
(0.4387 0.233158 1.13377e-19)
(0.530138 0.141649 1.54012e-21)
(0.000753775 -0.00861449 0)
(-0.00871771 0.0222536 -8.68637e-22)
(-0.0232141 0.0750381 1.86109e-20)
(-0.0393149 0.131586 -1.68929e-20)
(-0.0557157 0.18235 1.6744e-20)
(-0.0714001 0.225595 8.78434e-20)
(-0.0850003 0.263788 -2.72707e-20)
(-0.0949606 0.29987 -2.43206e-20)
(-0.0998708 0.335335 4.63443e-20)
(-0.0985468 0.37009 -6.5085e-20)
(-0.0899234 0.403082 1.91313e-20)
(-0.0732421 0.43276 1.79931e-20)
(-0.0479301 0.457391 0)
(-0.0135057 0.475244 1.74016e-20)
(0.0302253 0.484662 0)
(0.0830929 0.484078 2.9989e-20)
(0.144489 0.47234 -6.23879e-20)
(0.213866 0.448525 1.21495e-20)
(0.28804 0.412595 5.72171e-20)
(0.370441 0.364084 2.96877e-20)
(0.447223 0.305766 0)
(0.537476 0.23495 -8.55805e-20)
(0.603599 0.1614 2.69791e-20)
(0.6961 0.0770702 0)
(0.00181095 -0.0073861 0)
(-0.00598573 0.0221728 -5.97065e-20)
(-0.0172051 0.074376 -1.78289e-20)
(-0.028537 0.132567 -3.32644e-20)
(-0.0386379 0.186316 3.08205e-20)
(-0.0467287 0.231805 -2.87854e-20)
(-0.051852 0.26986 5.11569e-20)
(-0.0527407 0.302981 2.3781e-20)
(-0.0480515 0.333148 -6.60026e-20)
(-0.0365902 0.361061 3.99552e-20)
(-0.0174086 0.386279 -5.63816e-20)
(0.0101404 0.407635 1.19521e-19)
(0.0464104 0.423757 -6.47634e-20)
(0.0914978 0.433196 2.97041e-20)
(0.145174 0.434607 8.90898e-20)
(0.206984 0.426885 -2.74318e-20)
(0.275408 0.409028 -2.41066e-20)
(0.350977 0.381082 -2.73951e-20)
(0.426808 0.342473 0)
(0.512581 0.293829 -5.54144e-20)
(0.583119 0.237857 -5.71363e-20)
(0.675899 0.17213 7.66499e-20)
(0.731346 0.106721 1.048e-19)
(0.828412 0.0284392 -9.57486e-20)
(0.00302369 -0.00813579 0)
(-0.003536 0.0169282 -7.56568e-20)
(-0.0131329 0.0650145 1.12005e-21)
(-0.0216974 0.121422 6.46996e-20)
(-0.0273336 0.175761 0)
(-0.029195 0.222639 0)
(-0.0266901 0.260987 0)
(-0.019066 0.292158 -2.2554e-20)
(-0.00539776 0.317992 5.97847e-22)
(0.0152327 0.339692 3.77194e-20)
(0.0435662 0.357528 -5.35544e-20)
(0.080055 0.371032 -2.07907e-23)
(0.124818 0.379327 0)
(0.177635 0.381417 -2.96893e-20)
(0.237882 0.37623 2.70443e-20)
(0.304792 0.3634 -7.69144e-20)
(0.376346 0.341426 1.04443e-19)
(0.45332 0.312299 2.83834e-20)
(0.527839 0.272805 5.67957e-21)
(0.612401 0.228567 -9.59198e-20)
(0.679394 0.176195 -4.6684e-20)
(0.778172 0.117666 1.6828e-19)
(0.829361 0.0566399 -1.11363e-19)
(0.950926 -0.0200558 0)
(0.00411534 -0.0094079 3.8526e-20)
(-0.00197663 0.00967013 3.75834e-20)
(-0.0118608 0.0507306 -3.34994e-20)
(-0.0201358 0.101487 -6.18044e-20)
(-0.0240139 0.152593 5.72615e-20)
(-0.0222533 0.198105 -5.11297e-20)
(-0.0143677 0.235535 7.0428e-20)
(-6.56373e-05 0.264903 -2.22801e-20)
(0.0209953 0.287356 3.90519e-20)
(0.0491964 0.304078 0)
(0.0848358 0.315767 3.07331e-20)
(0.128004 0.322556 -5.73496e-20)
(0.178505 0.324162 5.56454e-20)
(0.235838 0.320181 -5.17931e-20)
(0.299243 0.309906 0)
(0.367794 0.293721 4.82875e-20)
(0.440491 0.269654 9.44008e-20)
(0.517179 0.241624 -8.99197e-20)
(0.596648 0.203251 -4.39861e-20)
(0.685236 0.165052 -4.95057e-20)
(0.767162 0.112474 1.33488e-19)
(0.882419 0.0609746 4.35415e-20)
(0.955544 -0.00227807 -3.88313e-20)
(1.11001 -0.0730555 3.82728e-20)
(0.00446334 -0.00984491 -3.85356e-20)
(-0.00250387 0.00350432 1.07043e-19)
(-0.0145736 0.03582 -3.27449e-20)
(-0.0248462 0.0776426 6.00083e-20)
(-0.0296697 0.121374 -5.55977e-20)
(-0.0272973 0.161518 -5.44204e-23)
(-0.017113 0.195019 2.27435e-20)
(0.000924627 0.220938 7.84351e-20)
(0.0266657 0.239631 -2.12176e-21)
(0.0599271 0.251938 -3.48572e-20)
(0.100509 0.258644 0)
(0.148178 0.26027 -2.64328e-20)
(0.202695 0.257048 5.12282e-20)
(0.263903 0.249097 4.86084e-20)
(0.331894 0.236183 -2.30181e-20)
(0.406974 0.218772 -1.57516e-21)
(0.490529 0.195322 -2.25647e-20)
(0.582168 0.168863 4.1493e-20)
(0.685052 0.132425 4.39949e-20)
(0.795791 0.0975135 -4.35289e-20)
(0.914487 0.0453552 3.95357e-20)
(1.04433 0.00320476 -3.82292e-20)
(1.14817 -0.0608462 0)
(1.29227 -0.112872 -3.82866e-20)
(0.00319567 -0.00839116 3.68954e-20)
(-0.00658925 0.000839319 -3.54624e-20)
(-0.0224091 0.0240393 3.1902e-20)
(-0.0361609 0.0549628 0)
(-0.0436968 0.0881729 0)
(-0.042886 0.119284 4.66432e-20)
(-0.0328642 0.145449 -4.44059e-20)
(-0.0135791 0.165408 3.70686e-20)
(0.014728 0.179034 -1.75143e-19)
(0.0518399 0.186868 7.71267e-22)
(0.09778 0.189671 2.80595e-20)
(0.152935 0.188131 0)
(0.218126 0.182719 -4.83737e-20)
(0.294489 0.173654 9.08282e-20)
(0.383097 0.160918 -6.49053e-20)
(0.484659 0.144367 -1.07236e-19)
(0.599023 0.123517 -4.2533e-21)
(0.724102 0.0989414 7.62772e-20)
(0.858119 0.0679343 0)
(0.992143 0.0371272 0)
(1.12649 -0.00604178 -3.95489e-20)
(1.24232 -0.0378848 3.82428e-20)
(1.34012 -0.092696 -1.36473e-19)
(1.41568 -0.121332 1.27165e-19)
(-0.000433776 -0.0044689 0)
(-0.0150827 0.00308115 0)
(-0.0352656 0.0180302 -9.48001e-20)
(-0.052416 0.0378028 2.95888e-20)
(-0.0623099 0.0593217 1.15118e-21)
(-0.0626031 0.0796347 4.74222e-20)
(-0.051868 0.0966481 0)
(-0.0294057 0.109345 -3.80448e-20)
(0.00538034 0.117505 3.4635e-20)
(0.0533749 0.121546 -5.98628e-20)
(0.115801 0.122087 3.96835e-22)
(0.19392 0.119667 5.0421e-20)
(0.288529 0.114662 1.56816e-22)
(0.3995 0.107165 4.53835e-20)
(0.525213 0.0973249 -6.20666e-20)
(0.662544 0.0844384 0)
(0.80637 0.069239 8.07266e-20)
(0.950839 0.0499263 -1.14646e-19)
(1.08806 0.0283 3.61517e-20)
(1.21088 0.00332885 0)
(1.31216 -0.0263777 3.26594e-20)
(1.38271 -0.0510841 1.29569e-19)
(1.42788 -0.0907957 -1.20995e-19)
(1.42985 -0.104782 -1.31935e-19)
(-0.006536 0.00177313 1.06818e-19)
(-0.0271732 0.0102433 -1.35113e-19)
(-0.0504112 0.0189414 4.35986e-22)
(-0.0681939 0.0291633 2.8716e-20)
(-0.0764052 0.0401473 -5.20322e-20)
(-0.0722824 0.0504585 -4.73631e-20)
(-0.053272 0.0589609 8.32269e-20)
(-0.0174035 0.065299 -2.7399e-21)
(0.0372989 0.0692405 -6.92113e-20)
(0.112402 0.0710659 1.2176e-19)
(0.20853 0.0712339 -1.46151e-21)
(0.324838 0.0701617 -5.10624e-20)
(0.458525 0.0680613 0)
(0.604778 0.0647716 0)
(0.757101 0.0601214 -2.09875e-20)
(0.908019 0.0530929 -3.97335e-20)
(1.04956 0.0442405 -7.77317e-20)
(1.17411 0.0308798 7.24606e-20)
(1.27526 0.0166587 -3.61856e-20)
(1.34859 -0.00399267 6.60956e-20)
(1.39208 -0.0232102 -3.2791e-20)
(1.40925 -0.0457241 5.64335e-20)
(1.40511 -0.0718381 -1.31147e-19)
(1.38454 -0.0830061 2.57356e-20)
(-0.0141457 0.00901233 3.54926e-20)
(-0.0401213 0.0204594 0)
(-0.0627584 0.0257191 6.19591e-20)
(-0.0754311 0.0293683 -5.73742e-20)
(-0.074096 0.0327042 5.21006e-20)
(-0.0553834 0.0356329 0)
(-0.015595 0.0382434 0)
(0.0481298 0.0403877 -3.74158e-20)
(0.137113 0.0419514 2.05946e-21)
(0.251027 0.0434419 3.24042e-20)
(0.38674 0.0452152 -2.82314e-20)
(0.538298 0.0472941 5.22945e-20)
(0.697651 0.0493243 0)
(0.855633 0.0506234 8.98082e-20)
(1.00303 0.0503066 -1.67967e-19)
(1.13176 0.0474157 1.18348e-19)
(1.2355 0.0415257 7.44296e-20)
(1.31081 0.0314296 -6.93892e-20)
(1.35743 0.0197213 0)
(1.37834 0.0017766 0)
(1.38062 -0.0113351 0)
(1.37178 -0.0354557 0)
(1.35996 -0.0490608 2.4787e-20)
(1.34944 -0.0686692 -8.26911e-20)
(0.232431 0.232394 -4.76942e-21)
(0.330576 0.0833568 4.78869e-21)
(0.416277 -0.0750528 -1.50127e-22)
(0.491471 -0.249316 0)
(0.558542 -0.440625 -3.92267e-21)
(0.617923 -0.627039 7.12634e-21)
(0.661485 -0.768816 -5.51909e-22)
(0.684561 -0.838317 -2.59217e-21)
(0.693173 -0.842635 0)
(0.688408 -0.814913 0)
(0.675759 -0.775703 -7.77657e-23)
(0.665368 -0.732862 -7.05748e-23)
(0.649434 -0.711484 -1.25709e-21)
(0.615451 -0.728283 1.15391e-21)
(0.570678 -0.742743 0)
(0.542979 -0.670797 0)
(0.554783 -0.463644 1.90183e-21)
(0.598441 -0.153559 6.67825e-23)
(0.654638 0.176221 -1.75048e-21)
(0.711336 0.436558 -9.22454e-23)
(0.762305 0.586735 0)
(0.797382 0.64967 0)
(0.816508 0.657467 0)
(0.831877 0.632344 0)
(0.840255 0.617818 0)
(0.827367 0.652504 0)
(0.793505 0.706106 2.56247e-22)
(0.750277 0.688454 -4.1531e-22)
(0.71214 0.536283 0)
(0.688948 0.261714 0)
(0.688729 -0.0538339 -4.71149e-22)
(0.709228 -0.31264 4.57798e-22)
(0.741111 -0.468128 1.67878e-22)
(0.773774 -0.536012 0)
(0.790919 -0.559637 0)
(0.768332 -0.574326 1.49985e-22)
(0.709698 -0.573818 -1.45776e-22)
(0.641045 -0.502278 0)
(0.59774 -0.331528 2.03017e-22)
(0.592639 -0.0847245 -2.89629e-22)
(0.630748 0.146299 7.98184e-23)
(0.683579 0.307984 0)
(0.708716 0.414394 -1.03217e-22)
(0.684644 0.480089 1.00363e-22)
(0.651635 0.487606 0)
(0.628633 0.378221 0)
(0.638165 0.197168 -4.97499e-23)
(0.661161 -0.0281389 1.50858e-22)
(0.679088 -0.232972 0)
(0.664522 -0.376347 0)
(0.652702 -0.450666 -2.5853e-23)
(0.641362 -0.340678 3.73515e-24)
(0.648892 -0.161108 -1.81796e-24)
(0.635103 0.105665 1.3003e-23)
(0.623348 0.351428 0)
(0.606127 0.371342 0)
(0.616722 0.330996 0)
(0.577515 0.0293865 0)
(0.549894 -0.28215 0)
(0.532887 -0.141747 0)
(0.419856 0.12236 -4.70142e-22)
(0.504858 -0.0135666 -2.01111e-20)
(0.579516 -0.157038 3.0264e-22)
(0.647698 -0.318937 1.85256e-20)
(0.712148 -0.503978 2.65677e-22)
(0.76607 -0.681529 0)
(0.795945 -0.805839 -1.08768e-20)
(0.796434 -0.855891 1.94196e-20)
(0.779153 -0.843722 -8.53913e-21)
(0.75236 -0.80373 5.56158e-21)
(0.718555 -0.759718 -5.32306e-21)
(0.688569 -0.714455 4.3646e-21)
(0.659906 -0.683901 -4.23247e-21)
(0.616521 -0.688908 -1.28845e-22)
(0.558391 -0.703963 -5.2454e-21)
(0.508249 -0.653264 5.0943e-21)
(0.493272 -0.476332 -6.70543e-21)
(0.519686 -0.19061 6.31587e-21)
(0.572979 0.124507 -6.26768e-21)
(0.637578 0.383757 1.1169e-20)
(0.701394 0.545844 -4.94821e-21)
(0.750477 0.624674 -2.0242e-22)
(0.785702 0.642328 -2.50556e-21)
(0.816366 0.623448 4.64126e-21)
(0.837509 0.617822 -2.14432e-21)
(0.83698 0.663275 1.33629e-22)
(0.81623 0.725456 2.90039e-21)
(0.786283 0.712743 8.97034e-22)
(0.75991 0.55931 -7.68663e-21)
(0.745028 0.274885 8.61102e-21)
(0.746988 -0.0550476 -4.36421e-21)
(0.76199 -0.325455 4.78599e-22)
(0.781633 -0.484569 -1.68225e-22)
(0.798944 -0.547536 2.54481e-22)
(0.804806 -0.558311 0)
(0.775254 -0.557349 0)
(0.709566 -0.547984 -5.57535e-22)
(0.633793 -0.479784 4.10464e-22)
(0.58622 -0.322738 5.24028e-22)
(0.581742 -0.0932995 7.08624e-23)
(0.623924 0.126554 -6.94811e-22)
(0.677624 0.292877 1.06745e-22)
(0.70287 0.412946 0)
(0.681876 0.488675 0)
(0.652382 0.497026 0)
(0.630032 0.382215 0)
(0.641184 0.193058 2.51948e-22)
(0.669081 -0.0333846 -1.02576e-22)
(0.690689 -0.234519 0)
(0.673698 -0.372869 0)
(0.656684 -0.448043 0)
(0.641567 -0.340054 -3.26347e-23)
(0.64763 -0.161178 1.50403e-23)
(0.634227 0.1078 -3.35356e-23)
(0.62708 0.353329 0)
(0.613985 0.372533 0)
(0.627223 0.333368 3.70901e-23)
(0.585961 0.0381264 1.34567e-22)
(0.549356 -0.278776 0)
(0.537089 -0.140392 0)
(0.595736 0.0408588 1.288e-21)
(0.663274 -0.083352 -3.97071e-20)
(0.726413 -0.213046 3.92246e-20)
(0.790148 -0.362919 -3.66484e-20)
(0.854762 -0.538635 -2.6756e-22)
(0.902566 -0.703338 0)
(0.916117 -0.808324 -2.22546e-20)
(0.895048 -0.841268 2.17182e-20)
(0.854856 -0.820572 1.17327e-22)
(0.810665 -0.776651 1.82159e-22)
(0.763075 -0.733621 1.4948e-22)
(0.717624 -0.690703 1.36475e-22)
(0.677995 -0.6528 -7.92564e-21)
(0.628409 -0.64468 7.82636e-21)
(0.559912 -0.658801 0)
(0.491089 -0.629733 2.6095e-22)
(0.452262 -0.487863 -1.12728e-20)
(0.458557 -0.232565 1.11456e-20)
(0.504659 0.0638525 0)
(0.573728 0.320763 0)
(0.646484 0.494674 -7.33602e-21)
(0.707082 0.589288 1.28832e-20)
(0.75677 0.618219 -1.00446e-20)
(0.80203 0.607184 4.29714e-22)
(0.836752 0.609777 8.13472e-21)
(0.849435 0.664844 -8.93942e-21)
(0.842288 0.737562 1.01049e-20)
(0.825585 0.73431 1.35475e-21)
(0.811474 0.583952 -7.20608e-21)
(0.80633 0.294976 0)
(0.810704 -0.0449557 0)
(0.819671 -0.325822 2.5317e-21)
(0.82739 -0.490247 -3.41702e-21)
(0.82911 -0.552204 7.39418e-24)
(0.823638 -0.554268 1.29127e-21)
(0.788892 -0.539074 -1.25471e-21)
(0.717638 -0.521644 0)
(0.635107 -0.458807 1.3198e-22)
(0.583794 -0.317016 1.2345e-21)
(0.579226 -0.105148 -2.30715e-21)
(0.623423 0.105075 9.87291e-22)
(0.676588 0.277136 6.52788e-23)
(0.702734 0.411103 -8.641e-22)
(0.685361 0.49686 6.86196e-22)
(0.658448 0.50701 2.12781e-22)
(0.635816 0.387637 2.63939e-22)
(0.648085 0.189875 -2.52622e-22)
(0.680311 -0.0379595 0)
(0.706377 -0.235045 0)
(0.687128 -0.367815 -5.6836e-22)
(0.664226 -0.444665 2.51734e-22)
(0.644813 -0.34008 -1.27411e-22)
(0.6497 -0.161833 1.44633e-22)
(0.637036 0.108221 1.3041e-22)
(0.634644 0.354545 -5.73004e-23)
(0.625078 0.373163 1.21117e-22)
(0.641107 0.335787 -1.58901e-22)
(0.598913 0.0485515 1.24618e-22)
(0.55355 -0.274795 0)
(0.544807 -0.140152 0)
(0.74689 -0.0154277 -7.86515e-20)
(0.802053 -0.130671 -2.84237e-22)
(0.861677 -0.254397 7.46605e-20)
(0.927973 -0.400809 -5.74281e-22)
(0.992863 -0.566877 0)
(1.03102 -0.711356 0)
(1.02523 -0.792205 -4.29226e-20)
(0.982692 -0.808144 7.41746e-21)
(0.922617 -0.783347 4.61243e-20)
(0.863239 -0.73983 -2.40444e-21)
(0.806464 -0.698015 -1.04938e-20)
(0.750445 -0.660992 -7.45263e-21)
(0.70098 -0.62178 7.46973e-21)
(0.649027 -0.598298 0)
(0.577742 -0.602963 -7.28121e-21)
(0.49558 -0.591692 6.59945e-21)
(0.435131 -0.490315 0)
(0.420552 -0.274965 0)
(0.454774 -0.00175645 8.85189e-21)
(0.521903 0.249568 -1.02989e-21)
(0.598321 0.43407 -7.11792e-21)
(0.667584 0.544106 -5.04723e-21)
(0.729854 0.584831 4.96972e-21)
(0.787818 0.581792 -3.90771e-21)
(0.835164 0.591804 -1.42467e-22)
(0.862432 0.655623 3.82379e-21)
(0.870376 0.739198 6.09622e-22)
(0.86656 0.747828 1.26628e-23)
(0.864732 0.606406 0)
(0.869778 0.319222 9.83958e-21)
(0.87754 -0.0272795 -1.01661e-20)
(0.881272 -0.318215 5.08495e-22)
(0.87825 -0.488329 0)
(0.864519 -0.550712 -2.65072e-22)
(0.846384 -0.547979 2.51014e-21)
(0.807358 -0.520795 -4.03219e-21)
(0.732946 -0.494435 1.58564e-23)
(0.644221 -0.437446 -9.2749e-23)
(0.588831 -0.312922 1.40442e-21)
(0.583241 -0.119657 2.38298e-22)
(0.628 0.0821047 -1.34899e-21)
(0.680394 0.259763 1.13748e-21)
(0.708238 0.40683 2.74852e-23)
(0.69418 0.50368 7.83185e-22)
(0.669332 0.51789 -9.74976e-22)
(0.646535 0.395056 -2.024e-21)
(0.659472 0.187948 5.0685e-22)
(0.694998 -0.042318 1.02619e-21)
(0.725983 -0.23524 -1.77464e-21)
(0.704712 -0.361329 1.06598e-21)
(0.675328 -0.440006 -1.21371e-22)
(0.651054 -0.340392 2.61666e-22)
(0.65496 -0.163204 9.43526e-23)
(0.643323 0.106818 -1.12526e-22)
(0.645681 0.355005 -2.43912e-23)
(0.63912 0.373273 -1.18839e-22)
(0.658108 0.338189 0)
(0.616302 0.0604766 -1.12591e-22)
(0.562603 -0.270043 2.35496e-22)
(0.555915 -0.140827 0)
(0.871488 -0.0569217 7.40798e-20)
(0.926056 -0.167508 -1.45395e-19)
(0.99366 -0.28912 7.04687e-20)
(1.06602 -0.430861 6.57472e-20)
(1.12468 -0.578377 -1.22614e-19)
(1.14344 -0.692139 7.66123e-21)
(1.11382 -0.746957 4.82812e-20)
(1.05295 -0.750844 3.20577e-20)
(0.980765 -0.728403 -3.13494e-20)
(0.911521 -0.693688 0)
(0.848885 -0.656315 -1.66843e-20)
(0.787341 -0.624521 3.03208e-20)
(0.730129 -0.591064 -1.37309e-20)
(0.676182 -0.559614 0)
(0.607775 -0.549951 0)
(0.520354 -0.545757 2.1015e-22)
(0.441926 -0.482108 -1.383e-20)
(0.406391 -0.312841 1.34279e-20)
(0.424161 -0.0696716 0)
(0.482397 0.172281 1.25986e-20)
(0.55776 0.365439 -2.19274e-20)
(0.632276 0.490039 1.78248e-20)
(0.704151 0.543406 -1.49307e-20)
(0.772815 0.549039 1.18301e-22)
(0.832845 0.564039 1.35614e-20)
(0.874487 0.633277 -7.04877e-21)
(0.896039 0.728806 -3.00264e-22)
(0.90553 0.755421 -6.85185e-21)
(0.916935 0.630537 -1.95049e-21)
(0.932256 0.350987 8.72753e-21)
(0.944379 0.00143468 6.1661e-22)
(0.94392 -0.299845 -7.50701e-21)
(0.931692 -0.476927 1.27022e-20)
(0.904053 -0.541737 -5.79373e-21)
(0.872575 -0.538113 0)
(0.82983 -0.50264 -1.89941e-21)
(0.754983 -0.467634 1.78942e-21)
(0.660784 -0.415882 -1.12844e-21)
(0.599944 -0.309636 1.40956e-21)
(0.591933 -0.136322 -1.2963e-22)
(0.636425 0.0568084 0)
(0.688198 0.239854 -9.26552e-23)
(0.718797 0.400904 3.39276e-22)
(0.709168 0.509401 0)
(0.686599 0.528669 2.60467e-21)
(0.663521 0.404098 -8.75822e-22)
(0.676274 0.187499 6.42587e-22)
(0.713302 -0.0462149 6.5277e-22)
(0.749206 -0.234964 0)
(0.726288 -0.353262 0)
(0.689882 -0.433857 -5.06161e-22)
(0.660116 -0.340891 4.97505e-22)
(0.663149 -0.165351 -1.3781e-22)
(0.652824 0.103531 -6.49525e-23)
(0.659843 0.354417 2.97174e-23)
(0.655822 0.372738 1.18968e-22)
(0.677846 0.340276 -4.0569e-22)
(0.637908 0.0737333 0)
(0.576548 -0.264326 -3.54501e-22)
(0.57026 -0.142218 -3.21754e-23)
(0.997362 -0.100612 6.86099e-20)
(1.05931 -0.207737 -6.79281e-20)
(1.13445 -0.323846 5.41953e-22)
(1.20304 -0.450888 -4.58907e-22)
(1.24082 -0.570158 4.66456e-22)
(1.23124 -0.651757 -4.02978e-22)
(1.17874 -0.686902 6.03818e-22)
(1.1054 -0.687021 0)
(1.02872 -0.669294 -3.9969e-22)
(0.955204 -0.643542 3.20479e-22)
(0.888805 -0.612462 2.57112e-22)
(0.825332 -0.583658 -2.2749e-22)
(0.763208 -0.556278 0)
(0.707456 -0.523984 0)
(0.645913 -0.500921 1.2966e-22)
(0.562044 -0.49373 0)
(0.47167 -0.459401 -1.25058e-22)
(0.414112 -0.339367 0)
(0.411171 -0.13486 -1.02064e-20)
(0.455515 0.0928101 1.92017e-20)
(0.525108 0.290794 -1.66858e-20)
(0.600997 0.427973 7.56913e-21)
(0.679473 0.493776 5.38487e-21)
(0.756979 0.507566 -5.22671e-21)
(0.827545 0.526574 -6.16448e-21)
(0.881939 0.601029 6.0191e-21)
(0.918283 0.707546 0)
(0.941428 0.751274 3.30501e-22)
(0.9643 0.646365 0)
(0.989396 0.383381 0)
(1.00699 0.0377887 1.71741e-20)
(1.00484 -0.272172 -1.77978e-20)
(0.986083 -0.457532 7.83114e-22)
(0.946964 -0.526304 5.44752e-22)
(0.901514 -0.525024 -3.4219e-22)
(0.854325 -0.484772 -1.47534e-21)
(0.78198 -0.440959 1.43234e-21)
(0.684192 -0.392913 -1.06299e-21)
(0.616179 -0.305574 9.02797e-22)
(0.603688 -0.154028 2.17562e-22)
(0.647238 0.0295853 -6.49906e-22)
(0.699422 0.216831 -4.73607e-23)
(0.733963 0.390023 4.33978e-22)
(0.728631 0.511786 0)
(0.708609 0.540573 -9.18134e-22)
(0.686706 0.416054 2.20124e-21)
(0.699148 0.189565 -2.75312e-21)
(0.73547 -0.0492681 -6.57141e-22)
(0.775683 -0.234464 0)
(0.751615 -0.343726 2.05186e-22)
(0.707744 -0.425856 -5.42597e-22)
(0.671807 -0.341364 -2.05346e-23)
(0.673961 -0.16825 4.4023e-23)
(0.665166 0.0983073 -9.96769e-23)
(0.676662 0.352916 2.80776e-23)
(0.674783 0.371751 0)
(0.69987 0.341901 4.05931e-22)
(0.663346 0.0879764 0)
(0.595308 -0.257535 0)
(0.587684 -0.144109 5.73124e-23)
(1.15512 -0.14884 -6.25196e-20)
(1.21295 -0.246859 6.14483e-20)
(1.27743 -0.346496 -4.3214e-22)
(1.32126 -0.447471 4.70451e-22)
(1.32415 -0.533249 0)
(1.28441 -0.586444 0)
(1.21654 -0.609618 -6.18717e-22)
(1.13923 -0.613693 0)
(1.06418 -0.605613 4.09391e-22)