/*--------------------------------*- C++ -*----------------------------------*\
| =========                 |                                                 |
| \\      /  F ield         | OpenFOAM: The Open Source CFD Toolbox           |
|  \\    /   O peration     | Version:  2312                                  |
|   \\  /    A nd           | Website:  www.openfoam.com                      |
|    \\/     M anipulation  |                                                 |
\*---------------------------------------------------------------------------*/
FoamFile
{
    version     2.0;
    format      ascii;
    arch        "LSB;label=32;scalar=64";
    class       surfaceScalarField;
    location    "198.7";
    object      phi;
}
// * * * * * * * * * * * * * * * * * * * * * * * * * * * * * * * * * * * * * //

dimensions      [0 3 -1 0 0 0 0];

oriented        oriented;

internalField   nonuniform List<scalar> 
10785
(
-0.00159871
0.00414105
-0.00254233
-0.00276849
0.00675085
-0.00558107
-0.000637656
0.00447215
-0.00660298
0.0077542
-0.00411683
-0.00427502
0.0247542
-0.0199348
0.00293473
0.0507522
-0.0415701
0.0155722
0.0836398
-0.0659488
0.0330612
0.11996
-0.090033
0.0537124
0.155791
-0.111617
0.0757858
0.187985
-0.129642
0.0974481
0.213193
-0.14362
0.118412
0.23172
-0.154152
0.135625
0.242532
-0.162992
0.15218
0.248895
-0.169216
0.162853
-0.180533
0.174037
0.255391
-0.000609157
0.0047502
0.000706281
0.00543541
0.00751297
-0.00233454
0.0232337
-0.0198376
0.048352
-0.0450531
0.0797028
-0.072921
0.112492
-0.0987381
0.142283
-0.119824
0.166198
-0.135532
0.183225
-0.146668
0.194576
-0.154972
0.202988
-0.162564
0.210582
-0.170585
0.221053
-0.179688
-0.190306
0.230826
0.000342657
0.00440754
0.00471081
0.00106726
0.0175423
-0.015166
0.0404589
-0.0427541
0.0695431
-0.0741373
0.0987079
-0.102086
0.123227
-0.123257
0.141151
-0.137748
0.15321
-0.14759
0.161857
-0.155315
0.169747
-0.162862
0.178048
-0.170865
0.18678
-0.179317
0.194613
-0.18752
-0.196161
0.200468
0.00127154
0.003136
0.0094731
-0.0071343
0.0285938
-0.0342867
0.0551195
-0.0692799
0.0814968
-0.100515
0.10253
-0.123119
0.117021
-0.137748
0.126685
-0.147412
0.134111
-0.155017
0.14105
-0.162255
0.147745
-0.169557
0.153967
-0.177086
0.159465
-0.184816
0.165044
-0.1931
-0.202436
0.17132
0.00249029
0.000645715
0.0152684
-0.0199124
0.0383051
-0.0573234
0.0626999
-0.0936747
0.0819422
-0.119757
0.094777
-0.135954
0.103108
-0.146079
0.109256
-0.15356
0.114521
-0.160281
0.119232
-0.166966
0.123667
-0.173993
0.128082
-0.181501
0.132744
-0.189478
0.137645
-0.198001
-0.206569
0.141777
0.00422164
-0.00357592
0.0209424
-0.0366332
0.0433634
-0.0797444
0.0620556
-0.112367
0.0744214
-0.132123
0.0819772
-0.14351
0.0869228
-0.151025
0.0906716
-0.157309
0.0939143
-0.163524
0.0970705
-0.170122
0.100245
-0.177167
0.103366
-0.184622
0.106368
-0.19248
0.109068
-0.2007
-0.209384
0.111883
0.00634672
-0.00992264
0.0246247
-0.0549111
0.0430548
-0.0981745
0.0558068
-0.125119
0.0631686
-0.139484
0.0672625
-0.147604
0.0698229
-0.153585
0.0718048
-0.159291
0.0735975
-0.165317
0.0752323
-0.171757
0.0767087
-0.178643
0.0780828
-0.185996
0.0793849
-0.193782
0.0807741
-0.20209
-0.21057
0.0819598
0.00823022
-0.0181529
0.0251388
-0.0718197
0.0387998
-0.111836
0.0466494
-0.132968
0.0503642
-0.143199
0.0520052
-0.149245
0.0528068
-0.154387
0.0532472
-0.159731
0.0534353
-0.165505
0.0534398
-0.171761
0.0533083
-0.178512
0.0530736
-0.185761
0.0528126
-0.193521
0.0523692
-0.201646
0.0519564
-0.210157
-0.00278195
-0.00844624
0.0112282
-0.00808308
-0.00944304
0.0147442
-0.0149767
-0.00534568
0.0122394
-0.0230094
-0.000214981
0.00824764
-0.0317186
0.00563523
0.00307396
-0.040898
0.012875
-0.00369554
-0.0500367
0.0218799
-0.0127413
-0.0584816
0.0327397
-0.0242948
-0.0653823
0.0452488
-0.0383481
-0.0697373
0.0588133
-0.0544584
-0.0704604
0.0724051
-0.0716821
-0.0662298
0.0844804
-0.088711
-0.0558393
0.0934395
-0.10383
-0.0388366
0.0977441
-0.114747
0.0948649
-0.0136366
-0.120065
-0.00249522
-0.00595102
-0.00698006
-0.0049582
-0.0127567
0.000431002
-0.0194106
0.00643886
-0.0263831
0.0126077
-0.0330472
0.019539
-0.0386873
0.0275201
-0.0424193
0.0364717
-0.0432049
0.0460344
-0.0398746
0.0554831
-0.0312907
0.0638212
-0.0165477
0.0697375
0.0052247
0.0716671
0.0342471
0.0687217
0.0556576
0.0734545
-0.00173091
-0.00422011
-0.00459952
-0.00208959
-0.00816922
0.0040007
-0.012149
0.0104187
-0.01588
0.0163387
-0.0184841
0.0221431
-0.0190536
0.0280896
-0.0166399
0.0340579
-0.0102214
0.039616
0.00120587
0.0440558
0.0184362
0.0465908
0.0421681
0.0460055
0.072976
0.0408592
0.107398
0.0343001
0.0105337
0.152521
-0.00101544
-0.00320468
-0.00234993
-0.000755102
-0.00356745
0.00521822
-0.00451279
0.011364
-0.00462332
0.0164493
-0.00300844
0.0205282
0.00128495
0.0237962
0.00920605
0.0261368
0.0214146
0.0274075
0.0390114
0.0264589
0.0616596
0.0239427
0.0897594
0.0179057
0.124865
0.00575373
0.162523
-0.00335766
-0.0353921
0.208448
-0.000758612
-0.00244606
-0.0014029
-0.000110815
-0.00121181
0.00502713
-6.68864e-06
0.0101589
0.0026062
0.0138364
0.00730153
0.0158329
0.0148724
0.0162253
0.0261177
0.0148916
0.0416386
0.0118866
0.0623372
0.00576026
0.0883727
-0.00209282
0.120889
-0.0146103
0.159049
-0.0324061
0.204253
-0.0485626
-0.0841245
0.252986
-0.00109728
-0.00134878
-0.00216784
0.000959737
-0.00210606
0.00496536
-0.000496654
0.0085495
0.00296736
0.0103724
0.00899206
0.00980821
0.018518
0.00669934
0.0326604
0.000749244
0.0528992
-0.00835229
0.0793226
-0.020663
0.113321
-0.0360908
0.154383
-0.0556727
0.199359
-0.0773822
0.252382
-0.101586
-0.131169
0.299426
-0.00178108
0.000432295
-0.00391374
0.0030924
-0.00486694
0.00591856
-0.00367826
0.00736082
0.000671466
0.00602264
0.00959828
0.000881392
0.024633
-0.00833543
0.0468592
-0.0214769
0.0768464
-0.0383396
0.113298
-0.0571148
0.156088
-0.0788804
0.200931
-0.100516
0.246483
-0.122934
0.289867
-0.14497
-0.161412
0.32011
-0.00211004
-0.00459871
-0.00528313
-0.00219733
0.00676003
0.0232136
0.0479394
0.0801749
0.117621
0.157954
0.197487
0.232595
0.261841
0.279724
0.292349
0.047871
0.177957
-0.239464
0.122087
0.0483262
-0.122542
0.183073
-0.128563
0.0675777
0.209872
-0.287423
0.260624
0.218056
-0.349055
0.34087
0.204237
-0.342818
0.356637
0.165421
-0.319985
0.358802
0.150998
-0.345948
0.36037
0.185702
-0.166107
0.131403
0.237426
0.0889159
-0.14064
0.265758
0.196395
-0.224727
0.260914
0.347777
-0.342933
0.253244
0.374269
-0.366599
0.259082
0.413982
-0.41982
0.269431
0.246492
-0.25684
0.279948
-0.0313616
0.0208443
0.291919
-0.218984
0.207012
0.294885
-0.547947
0.544981
0.293563
-0.455158
0.45648
0.297351
-0.288295
0.284507
0.309928
0.0272809
-0.0398579
0.309739
0.635415
-0.635227
0.309707
0.524008
-0.523976
0.316923
0.269609
-0.276825
0.318444
-0.113792
0.112271
0.311293
-0.950357
0.957509
0.318232
-0.478414
0.471475
0.303687
0.779369
-0.764823
0.293286
0.588328
-0.577927
0.279937
-0.303408
0.316756
0.275985
-0.298477
0.302429
0.27153
0.0892948
-0.0848392
0.26748
0.10279
-0.0987406
0.264723
-0.0114796
0.0142365
0.262315
-0.016685
0.0190937
0.259952
0.00857957
-0.00621643
0.25765
0.00930167
-0.00699973
0.00564784
-0.00334944
0.131389
0.120023
0.181266
-0.00155098
0.220817
-0.168115
0.229601
-0.296206
0.219808
-0.339263
0.2006
-0.323611
0.166571
-0.285956
0.143816
-0.323193
0.175905
-0.198196
0.231704
0.0331166
0.263955
0.164144
0.259711
0.352021
0.245134
0.388846
0.254523
0.404592
0.269024
0.231991
0.279907
-0.042244
0.287488
-0.226565
0.284362
-0.54482
0.286334
-0.457131
0.290616
-0.292577
0.308088
0.00980803
0.314856
0.628648
0.312222
0.526642
0.317857
0.263974
0.313829
-0.109764
0.298107
-0.934635
0.31046
-0.490767
0.307032
0.782796
0.297635
0.597725
0.279098
-0.284871
0.273806
-0.293185
0.271086
0.0920145
0.267803
0.106073
0.264884
-0.00856034
0.262507
-0.0143078
0.260375
0.010712
0.258276
0.0114005
0.00777519
0.201617
0.0709276
0.23477
-0.0347039
0.249885
-0.18323
0.240504
-0.286825
0.218727
-0.317485
0.197733
-0.302616
0.172961
-0.261185
0.147725
-0.297956
0.172408
-0.222879
0.225819
-0.0202944
0.261346
0.128617
0.263787
0.34958
0.245117
0.407516
0.251951
0.397759
0.267194
0.216748
0.277746
-0.0527959
0.27987
-0.228689
0.269314
-0.534265
0.275209
-0.463025
0.280407
-0.297775
0.302003
-0.0117883
0.316903
0.613747
0.311856
0.531689
0.315098
0.260732
0.305524
-0.100189
0.281825
-0.910936
0.29949
-0.508433
0.307898
0.774388
0.299249
0.606374
0.276197
-0.261819
0.269684
-0.286673
0.268869
0.0928292
0.266506
0.108437
0.263605
-0.00566006
0.261437
-0.0121398
0.259711
0.0124379
0.258
0.0131122
0.0095388
0.24924
0.0301359
0.278465
-0.0639291
0.280234
-0.184999
0.254659
-0.26125
0.221263
-0.284089
0.196985
-0.278339
0.176446
-0.240646
0.151508
-0.273017
0.174864
-0.246235
0.227852
-0.0732827
0.264714
0.0917545
0.265964
0.34833
0.239975
0.433505
0.244654
0.39308
0.261836
0.199566
0.27154
-0.0624998
0.268716
-0.225865
0.251994
-0.517543
0.260653
-0.471684
0.267479
-0.304601
0.291384
-0.0356934
0.312922
0.59221
0.306894
0.537717
0.308094
0.259532
0.293952
-0.0860471
0.263554
-0.880538
0.284882
-0.529761
0.304318
0.754952
0.29705
0.613642
0.271268
-0.236037
0.26382
-0.279225
0.264964
0.0916855
0.263633
0.109768
0.260949
-0.0029761
0.259171
-0.0103616
0.258015
0.0135938
0.256862
0.0142654
0.0107562
0.286524
-0.00340195
0.30465
-0.0820554
0.290724
-0.171073
0.255138
-0.225664
0.217968
-0.24692
0.193989
-0.254359
0.176498
-0.223155
0.14798
-0.244499
0.169238
-0.267493
0.226242
-0.130286
0.263671
0.0543248
0.26749
0.344512
0.245026
0.455969
0.245433
0.392673
0.257476
0.187523
0.263841
-0.0688649
0.255881
-0.217905
0.233854
-0.495516
0.242592
-0.480422
0.25031
-0.312319
0.276874
-0.0622579
0.307049
0.562035
0.301232
0.543534
0.298949
0.261815
0.279953
-0.0670511
0.243044
-0.843629
0.267826
-0.554543
0.299021
0.723757
0.292798
0.619866
0.265023
-0.208262
0.256714
-0.270916
0.259625
0.0887744
0.259364
0.110029
0.257071
-0.000683456
0.255841
-0.0091314
0.255392
0.0140432
0.254946
0.0147112
0.0112628
0.318699
-0.0226749
0.316334
-0.07969
0.285891
-0.14063
0.243927
-0.1837
0.20741
-0.210403
0.184707
-0.231656
0.172909
-0.211357
0.141666
-0.213256
0.146568
-0.272395
0.208303
-0.192021
0.25747
0.0051573
0.271307
0.330675
0.251135
0.476141
0.244891
0.398917
0.25144
0.180974
0.25424
-0.0716656
0.241124
-0.204788
0.214785
-0.469177
0.22164
-0.487278
0.230469
-0.321147
0.258109
-0.0898985
0.293688
0.526455
0.29059
0.546632
0.287134
0.265271
0.263953
-0.0438692
0.221622
-0.801299
0.247983
-0.580903
0.288955
0.682784
0.284897
0.623924
0.25713
-0.180495
0.248509
-0.262296
0.252973
0.0843104
0.253832
0.109171
0.252138
0.00101072
0.251607
-0.00860071
0.251979
0.0136708
0.252367
0.0143229
0.0109147
0.321117
-0.0236821
0.300989
-0.0595613
0.265991
-0.105633
0.227978
-0.145687
0.194933
-0.177358
0.171203
-0.207926
0.163234
-0.203388
0.139818
-0.18984
0.121274
-0.253852
0.171271
-0.242018
0.244062
-0.0676337
0.275889
0.298849
0.262599
0.48943
0.250239
0.411278
0.244243
0.18697
0.241383
-0.0688063
0.22455
-0.187955
0.194438
-0.439065
0.197906
-0.490746
0.206848
-0.330089
0.237993
-0.121043
0.2815
0.482948
0.280811
0.547321
0.275768
0.270314
0.247681
-0.015782
0.199638
-0.753255
0.227893
-0.609159
0.279312
0.631365
0.276351
0.626885
0.24856
-0.152704
0.239743
-0.253478
0.245438
0.0786149
0.247345
0.107264
0.246384
0.00197255
0.246675
-0.00889193
0.247951
0.0123949
0.249273
0.0130006
0.00959351
0.28614
-0.0174728
0.266867
-0.0402882
0.240259
-0.0790244
0.211505
-0.116933
0.18272
-0.148574
0.158148
-0.183354
0.149158
-0.194398
0.136104
-0.176787
0.108221
-0.225969
0.125668
-0.259464
0.196119
-0.138085
0.257569
0.237399
0.263361
0.483638
0.249861
0.424778
0.237611
0.199221
0.230486
-0.0616816
0.209469
-0.166938
0.174336
-0.403932
0.172997
-0.489407
0.181823
-0.338915
0.212371
-0.151591
0.26033
0.434989
0.265763
0.541887
0.263409
0.272668
0.232354
0.0152729
0.179497
-0.700398
0.206903
-0.636565
0.26456
0.573709
0.264374
0.62707
0.238551
-0.12688
0.230394
-0.245322
0.237039
0.0719706
0.240048
0.104254
0.240025
0.00199521
0.241244
-0.0101105
0.243491
0.0101479
0.245822
0.0106699
0.00720429
0.502522
-0.0153769
-0.504618
0.500419
-0.0381849
0.491313
-0.0699189
0.471593
-0.0972129
0.450278
-0.127259
0.4199
-0.152975
0.390007
-0.164505
0.37528
-0.16206
0.336184
-0.186873
0.286459
-0.20974
0.276361
-0.127986
0.274796
0.238964
0.273192
0.485242
0.330711
0.367259
0.397579
0.132353
0.433649
-0.0977522
0.443388
-0.176677
0.414596
-0.37514
0.379545
-0.454356
0.344416
-0.303786
0.312186
-0.119361
0.319071
0.428104
0.352848
0.508111
0.409737
0.215779
0.423336
0.00167425
0.363985
-0.641047
0.322694
-0.595275
0.350763
0.545641
0.389509
0.588323
0.383135
-0.120506
0.360147
-0.222334
0.357238
0.0748799
0.361304
0.100188
0.36056
0.00273912
0.359058
-0.00860826
0.358776
0.0104303
0.358699
0.0107466
0.00736417
0.528473
-0.0131532
-0.530697
0.523231
-0.0329424
0.511707
-0.0583957
0.492373
-0.0778782
0.469046
-0.103932
0.439828
-0.123757
0.402312
-0.126989
0.376454
-0.136201
0.351555
-0.161974
0.292242
-0.150427
0.251284
-0.0870284
0.252706
0.237542
0.303118
0.43483
0.401019
0.269358
0.468644
0.0647281
0.48817
-0.117278
0.479277
-0.167784
0.437701
-0.333564
0.386908
-0.403564
0.339558
-0.256436
0.308139
-0.0879414
0.318906
0.417336
0.371627
0.45539
0.444064
0.143342
0.454478
-0.008739
0.377156
-0.563725
0.33105
-0.549168
0.365733
0.510957
0.414943
0.539114
0.411115
-0.116679
0.385059
-0.196278
0.381898
0.0780412
0.387451
0.0946351
0.387321
0.00286905
0.385779
-0.00706612
0.385528
0.0106808
0.385574
0.0107007
0.00739732
0.55724
-0.012077
-0.558316
0.552377
-0.0280798
0.542306
-0.0483245
0.529419
-0.0649916
0.50756
-0.0820721
0.483553
-0.0997506
0.460431
-0.103867
0.425137
-0.100907
0.383606
-0.120443
0.324449
-0.09127
0.274262
-0.036841
0.290439
0.221365
0.393654
0.331614
0.500179
0.162833
0.540633
0.0242741
0.538802
-0.115447
0.522982
-0.151964
0.47352
-0.284101
0.396557
-0.326601
0.322686
-0.182565
0.289212
-0.054467
0.319598
0.38695
0.400069
0.374918
0.484777
0.0586342
0.495255
-0.0192176
0.398852
-0.467322
0.33044
-0.480756
0.375965
0.465432
0.444633
0.470446
0.442746
-0.114792
0.412233
-0.165764
0.409166
0.0811087
0.416367
0.0874338
0.416451
0.00278514
0.414655
-0.00526993
0.414429
0.0109068
0.414611
0.010519
0.00731465
0.58956
-0.0105924
-0.591044
0.584916
-0.0234365
0.574588
-0.0379965
0.559634
-0.0500376
0.54192
-0.0643579
0.517295
-0.0751259
0.492904
-0.0794761
0.468776
-0.0767794
0.435941
-0.0876082
0.391801
-0.0471298
0.356507
-0.00154716
0.403903
0.173969
0.51252
0.222997
0.58618
0.0891733
0.602539
0.00791513
0.578714
-0.0916218
0.548612
-0.121863
0.493485
-0.228974
0.402479
-0.235595
0.313436
-0.0935219
0.275129
-0.0161598
0.3356
0.326479
0.442692
0.267826
0.523274
-0.0219475
0.534642
-0.0305855
0.421322
-0.354002
0.323361
-0.382796
0.387576
0.401218
0.484145
0.373877
0.478455
-0.109102
0.439159
-0.126469
0.437747
0.0825205
0.448562
0.0766194
0.44919
0.00215725
0.446973
-0.00305359
0.446903
0.0109769
0.447399
0.0100229
0.00705337
0.626103
-0.00869834
-0.627997
0.620797
-0.0181309
0.611932
-0.0291311
0.600437
-0.0385421
0.585034
-0.0489553
0.566389
-0.0564806
0.545245
-0.0583329
0.523209
-0.0547433
0.493369
-0.0577682
0.465999
-0.0197599
0.458991
0.00546124
0.518435
0.114526
0.602304
0.139127
0.637681
0.0537964
0.639347
0.00624869
0.619964
-0.0722385
0.594034
-0.0959329
0.540319
-0.175259
0.453528
-0.148804
0.374821
-0.0148152
0.33574
0.0229208
0.409677
0.252542
0.511909
0.165594
0.568169
-0.0782074
0.585612
-0.0480287
0.466447
-0.234837
0.339872
-0.256221
0.424635
0.316455
0.539731
0.258782
0.522491
-0.0918626
0.473143
-0.0771207
0.475394
0.0802692
0.491056
0.0609569
0.49128
0.00193332
0.487853
0.000373705
0.48777
0.0110596
0.488465
0.00932838
0.00679973
0.667146
-0.00666394
-0.66918
0.663057
-0.0140421
0.655412
-0.0214863
0.645532
-0.028662
0.631834
-0.0352569
0.615685
-0.0403324
0.598446
-0.0410937
0.581679
-0.0379758
0.56127
-0.0373596
0.549704
-0.00819409
0.550489
0.00467643
0.595242
0.0697727
0.654086
0.0802831
0.676017
0.031866
0.673916
0.00834952
0.651126
-0.0494483
0.627601
-0.0724085
0.582902
-0.13056
0.521187
-0.0870884
0.481635
0.0247367
0.462222
0.0423333
0.537629
0.177136
0.609328
0.0938957
0.618435
-0.0873141
0.629792
-0.0593857
0.530417
-0.135463
0.398313
-0.124117
0.490002
0.224766
0.602503
0.146281
0.574964
-0.0643235
0.522836
-0.0249932
0.531361
0.0717449
0.549709
0.0426086
0.548209
0.00343367
0.543423
0.00515893
0.543245
0.0112379
0.543801
0.00877276
0.00692843
0.714774
-0.00482183
-0.716616
0.710942
-0.010211
0.704344
-0.0148875
0.69623
-0.0205489
0.685209
-0.0242355
0.673175
-0.0282983
0.66008
-0.0279986
0.6477
-0.0255956
0.634154
-0.0238135
0.629257
-0.00329698
0.631525
0.0024077
0.661898
0.0394004
0.698416
0.0437646
0.710114
0.0201677
0.716183
0.00228102
0.703079
-0.0363441
0.677933
-0.0472634
0.6353
-0.0879261
0.595747
-0.0475356
0.594251
0.0262331
0.596857
0.0397267
0.659402
0.114591
0.705748
0.0475496
0.678446
-0.0600123
0.672719
-0.0536588
0.618325
-0.0810685
0.517966
-0.0237578
0.589029
0.153703
0.673917
0.0613931
0.644147
-0.0345542
0.59964
0.0195142
0.611624
0.0597606
0.627561
0.0266715
0.623869
0.00712628
0.618313
0.0107147
0.617651
0.0118997
0.61742
0.00900429
0.00789239
0.76857
-0.00291418
-0.770477
0.765263
-0.00690465
0.760075
-0.00969865
0.753602
-0.0140764
0.745333
-0.015966
0.736123
-0.0190888
0.726472
-0.0183477
0.717735
-0.0168584
0.708764
-0.0148423
0.707869
-0.00240226
0.710016
0.000260381
0.727614
0.0218029
0.751021
0.0203572
0.759637
0.0115524
0.761724
0.000193805
0.750115
-0.0247357
0.734289
-0.0314371
0.70391
-0.0575475
0.680659
-0.0242839
0.692067
0.0148245
0.701906
0.0298876
0.741834
0.0746631
0.766493
0.0228907
0.737817
-0.0313361
0.725056
-0.0408975
0.697963
-0.0539763
0.649088
0.0251172
0.699581
0.103211
0.743807
0.0171673
0.71639
-0.00713799
0.690986
0.0449187
0.704399
0.0463477
0.713943
0.0171269
0.709144
0.0119257
0.704771
0.0150872
0.704052
0.012619
0.703187
0.00986893
0.00939022
0.829231
-0.00139588
-0.830749
0.826542
-0.00421601
0.822691
-0.00584776
0.817688
-0.00907258
0.8117
-0.00997781
0.804925
-0.0123143
0.798237
-0.01166
0.792272
-0.010893
0.786947
-0.0095173
0.786617
-0.00207203
0.788103
-0.00122539
0.799038
0.0108673
0.811092
0.00830364
0.816945
0.00569926
0.819367
-0.00222874
0.811975
-0.0173434
0.799963
-0.0194255
0.777857
-0.0354406
0.765899
-0.0123263
0.773747
0.00697617
0.783383
0.0202519
0.811684
0.046362
0.824123
0.0104523
0.805333
-0.0125466
0.788535
-0.0240997
0.769238
-0.0346788
0.761297
0.0330582
0.798341
0.0661662
0.808895
0.00661378
0.788652
0.0131049
0.784694
0.0488764
0.796935
0.0341072
0.799405
0.0146566
0.79511
0.0162211
0.793148
0.017049
0.792744
0.0130232
0.791686
0.0109268
0.0108225
0.897427
-0.000209705
-0.898613
0.895331
-0.00212037
0.892597
-0.00311365
0.888864
-0.00533941
0.884757
-0.00587141
0.879953
-0.00750999
0.875457
-0.00716364
0.871402
-0.00683871
0.867951
-0.00606559
0.867885
-0.00200665
0.868631
-0.00197112
0.874823
0.0046757
0.880926
0.00220017
0.884851
0.0017743
0.885417
-0.00279417
0.87939
-0.0113172
0.872083
-0.0121179
0.857707
-0.0210644
0.851672
-0.00629134
0.855858
0.0027895
0.86317
0.0129403
0.880791
0.0287406
0.885689
0.00555482
0.876894
-0.00375181
0.86554
-0.0127454
0.850567
-0.0197066
0.854743
0.028882
0.877888
0.0430221
0.876621
0.00788078
0.868492
0.0212332
0.874912
0.042457
0.881855
0.027164
0.880754
0.0157578
0.878996
0.0179792
0.879003
0.0170414
0.878702
0.0133241
0.877811
0.0118183
0.0118104
0.973495
0.000664012
-0.974368
0.971954
-0.000579498
0.97009
-0.00124982
0.967447
-0.00269682
0.964701
-0.00312546
0.961388
-0.00419657
0.958382
-0.00415801
0.955629
-0.00408502
0.953397
-0.00383428
0.953171
-0.00178005
0.953165
-0.00196505
0.95656
0.00127999
0.958965
-0.000204148
0.96105
-0.000311175
0.961096
-0.00284036
0.957095
-0.00731597
0.952481
-0.00750391
0.943358
-0.0119413
0.940253
-0.00318693
0.941508
0.0015346
0.9465
0.00794911
0.958497
0.0167432
0.960075
0.00397703
0.955938
0.000384869
0.947666
-0.00447361
0.936149
-0.00818926
0.943498
0.0215334
0.958104
0.0284156
0.95461
0.0113749
0.952947
0.0228968
0.96096
0.0344432
0.964663
0.0234617
0.963631
0.0167897
0.963675
0.0179348
0.964308
0.0164085
0.9641
0.0135316
0.963569
0.0123498
0.0123195
1.05775
0.00124661
-1.05833
1.0567
0.000470069
1.05548
-3.26424e-05
1.05372
-0.000929358
1.0519
-0.00131008
1.04971
-0.00200301
1.0477
-0.00214655
1.04585
-0.00224358
1.04426
-0.00224158
1.04386
-0.00137645
1.04348
-0.00158318
1.0449
-0.000145945
1.04573
-0.00103681
1.04652
-0.00109908
1.04609
-0.00240666
1.04327
-0.00450128
1.04025
-0.00447541
1.03472
-0.0064142
1.03306
-0.00153121
1.03357
0.00102399
1.03659
0.00493581
1.04327
0.0100567
1.04366
0.00359261
1.04181
0.00223471
1.03733
5.44064e-06
1.03033
-0.00119327
1.03555
0.0163137
1.04341
0.0205529
1.04202
0.0127669
1.04389
0.0210286
1.05043
0.027904
1.05249
0.0214053
1.05229
0.0169843
1.05318
0.0170439
1.05393
0.015658
1.05388
0.0135855
1.05364
0.0125879
0.0125418
1.15069
0.00158403
-1.15103
1.15004
0.00112242
1.14925
0.000760894
1.14813
0.000188875
1.14696
-0.000140531
1.14555
-0.000597126
1.14421
-0.00079939
1.14294
-0.000974113
1.14179
-0.00109705
1.14125
-0.00083156
1.14069
-0.00102896
1.14107
-0.000517958
1.14104
-0.00101352
1.14101
-0.00106779
1.14036
-0.00175081
1.13848
-0.0026298
1.13653
-0.00252527
1.13336
-0.00323775
1.13235
-0.000524073
1.13232
0.00105697
1.13396
0.00329114
1.13784
0.00618247
1.138
0.00342396
1.13701
0.00323027
1.13426
0.00275914
1.13021
0.00285067
1.134
0.0125224
1.13896
0.0155985
1.13888
0.0128434
1.14128
0.0186308
1.14628
0.022902
1.14833
0.0193524
1.14883
0.0164872
1.14985
0.0160216
1.15062
0.0148886
1.15081
0.0133937
1.15083
0.0125704
0.0125484
1.25281
0.00174653
-1.25297
1.25246
0.00147246
1.252
0.00121924
1.25133
0.000863853
1.25058
0.000603973
1.2497
0.000285774
1.24882
8.108e-05
1.24795
-0.000101958
1.24712
-0.000269018
1.24655
-0.00025925
1.24598
-0.000459699
1.24578
-0.00031758
1.24541
-0.000644169
1.24502
-0.000685147
1.24431
-0.00103989
1.24305
-0.00136884
1.24171
-0.00118188
1.23984
-0.00136628
1.23916
0.00015144
1.23905
0.00116777
1.23984
0.00250183
1.24175
0.00427605
1.24181
0.00336
1.24135
0.00369084
1.24015
0.00395827
1.23837
0.00463099
1.24068
0.0102086
1.24363
0.0126578
1.24437
0.0121009
1.2471
0.0159009
1.25106
0.0189364
1.25312
0.0172954
1.25402
0.0155842
1.25513
0.0149186
1.25597
0.0140408
1.25637
0.0129954
1.25664
0.0123069
0.0123108
1.36482
0.00177254
-1.36484
1.36467
0.00161453
1.36445
0.00144732
1.36408
0.00122813
1.36365
0.00103425
1.36312
0.000821451
1.36255
0.000642173
1.36196
0.000487457
1.36138
0.000312451
1.36088
0.000242471
1.36036
5.97954e-05
1.35999
5.92959e-05
1.3595
-0.000159293
1.35902
-0.000203944
1.35835
-0.000366052
1.35746
-0.000480335
1.35655
-0.000278032
1.35543
-0.000245315
1.35495
0.000628514
1.35479
0.00133658
1.3551
0.00219284
1.35608
0.00329578
1.35617
0.00326074
1.35608
0.00378529
1.35561
0.00442722
1.35492
0.00532274
1.35659
0.00854094
1.35878
0.010462
1.35986
0.0110267
1.36222
0.0135374
1.36543
0.0157288
1.36756
0.0151621
1.36887
0.01428
1.37003
0.0137526
1.37093
0.0131406
1.37152
0.012403
1.37204
0.011787
0.0118513
1.48755
0.00170421
-1.48748
1.48754
0.00161916
1.48747
0.00151397
1.48732
0.0013846
1.48711
0.00124652
1.48681
0.00111323
1.48649
0.000967996
1.48612
0.000859674
1.48572
0.00070528
1.48534
0.000627329
1.48493
0.000469016
1.48456
0.000428945
1.48411
0.000287235
1.48367
0.000241963
1.48311
0.000187834
1.48248
0.000151201
1.48186
0.000342937
1.48117
0.000444254
1.48082
0.000978873
1.48067
0.00148411
1.4808
0.00206202
1.48128
0.00281994
1.48142
0.00311624
1.48152
0.00369451
1.48155
0.00439599
1.48161
0.00526239
1.48283
0.00731579
1.48444
0.00885013
1.48575
0.00971703
1.48783
0.011465
1.49052
0.0130298
1.49261
0.0130799
1.49419
0.012699
1.4955
0.0124401
1.49649
0.0121493
1.49724
0.0116558
1.49799
0.0110348
0.0111157
1.62194
0.00156715
-1.6218
1.62203
0.00152882
1.62208
0.00146603
1.62207
0.00139813
1.62201
0.00130317
1.62189
0.0012291
1.62174
0.00111837
1.62155
0.00105385
1.62132
0.000931932
1.62107
0.000874676
1.62079
0.000753596
1.62051
0.00070725
1.62017
0.000627991
1.61983
0.000580885
1.61943
0.000590075
1.619
0.000576966
1.6186
0.000748588
1.61818
0.000865298
1.61795
0.0012025
1.61784
0.00159352
1.61793
0.00197679
1.61821
0.00254371
1.61843
0.00289036
1.6187
0.003428
1.61898
0.00410999
1.61939
0.00486084
1.62042
0.00628146
1.62183
0.00743811
1.62319
0.00835662
1.62498
0.00967514
1.6273
0.010714
1.62931
0.0110672
1.631
0.0110138
1.63252
0.0109155
1.63366
0.0110127
1.63457
0.0107462
1.63553
0.0100681
0.0101662
1.76907
0.00138114
-1.76889
1.76923
0.0013728
1.76936
0.00133738
1.76945
0.00131035
1.7695
0.00124694
1.76952
0.00121495
1.7695
0.00113559
1.76945
0.00110584
1.76936
0.00101868
1.76925
0.000983289
1.7691
0.000907985
1.76894
0.000862653
1.76873
0.000836969
1.76853
0.000784844
1.76828
0.000840454
1.76803
0.00082183
1.7678
0.000978612
1.76759
0.00108115
1.7675
0.00129295
1.76747
0.00162325
1.76761
0.00183327
1.76783
0.00231984
1.76814
0.00258631
1.7685
0.00306794
1.76892
0.00368899
1.76957
0.00421235
1.7705
0.00535436
1.77177
0.00616574
1.77316
0.00696672
1.77477
0.00806457
1.77684
0.00864325
1.77873
0.00917461
1.78043
0.00931264
1.78216
0.00918444
1.7835
0.00967626
1.78457
0.00967512
1.78574
0.00889785
0.00897914
1.93011
0.00115749
-1.92989
1.93032
0.00116652
1.9305
0.00114813
1.93067
0.00114626
1.93081
0.00110693
1.93092
0.00110141
1.93101
0.00105071
1.93107
0.00104307
1.9311
0.000990964
1.93111
0.000970625
1.93108
0.000937666
1.93105
0.000898294
1.93097
0.000912173
1.9309
0.000854474
1.93081
0.000935122
1.93072
0.000903461
1.93067
0.00103718
1.93063
0.00111878
1.93068
0.00123935
1.93077
0.0015307
1.931
0.00160881
1.93126
0.00205679
1.93163
0.00222048
1.93206
0.00263149
1.93258
0.00317605
1.93331
0.00347551
1.93423
0.00443691
1.93547
0.00492573
1.93686
0.00557847
1.9384
0.00651949
1.94031
0.00673372
1.9421
0.00738666
1.94377
0.00763967
1.94556
0.00740243
1.94713
0.00809967
1.94852
0.00828419
1.94988
0.00754075
0.00761965
2.10634
0.000904426
-2.10609
2.10659
0.000919268
2.10682
0.000914185
2.10705
0.000922222
2.10725
0.000904197
2.10744
0.000909088
2.10761
0.000884845
2.10776
0.000886629
2.10789
0.000863294
2.10801
0.00085393
2.1081
0.000845292
2.10818
0.000820551
2.10825
0.000844542
2.1083
0.000803909
2.10836
0.000868057
2.10842
0.000847895
2.10852
0.000939639
2.10863
0.00100196
2.1088
0.00107495
2.10904
0.00129146
2.10931
0.00133661
2.10969
0.00167796
2.11011
0.00180304
2.11061
0.00212242
2.11126
0.00253358
2.112
0.00273209
2.11302
0.00342167
2.11421
0.00373567
2.11557
0.00421831
2.11719
0.00489531
2.11888
0.00503963
2.12065
0.0056184
2.1224
0.00589261
2.12407
0.0057273
2.1259
0.00627367
2.12771
0.00647375
2.12923
0.00602418
0.00610545
2.2992
0.000627197
-2.29893
2.29948
0.000640036
2.29975
0.000643003
2.30002
0.000651394
2.30028
0.000647557
2.30054
0.000653524
2.30078
0.000646404
2.30101
0.000650473
2.30123
0.000643063
2.30144
0.000641744
2.30165
0.000640341
2.30184
0.000633195
2.30203
0.000646702
2.3022
0.000634701
2.3024
0.00066638
2.30259
0.000667763
2.30281
0.000718681
2.30304
0.000763522
2.3033
0.00081628
2.30365
0.000940507
2.30399
0.00099692
2.30448
0.00119132
2.30498
0.00130247
2.30559
0.00150865
2.30637
0.00176235
2.30716
0.00193481
2.30826
0.00232588
2.30944
0.00255625
2.31078
0.00287514
2.31241
0.00326414
2.31401
0.00344588
2.31582
0.00380475
2.31769
0.00401818
2.3194
0.00402002
2.32137
0.00430636
2.32341
0.00443222
2.32516
0.00427828
0.00435725
2.51035
0.000326034
-2.51005
2.51066
0.000333609
2.51096
0.000337084
2.51127
0.000342428
2.51158
0.000343005
2.51188
0.00034701
2.51218
0.000346235
2.51248
0.000349323
2.51278
0.000348265
2.51307
0.000349274
2.51336
0.000350357
2.51364
0.000349837
2.51393
0.000356638
2.51421
0.000355529
2.51451
0.000369658
2.5148
0.000374691
2.51512
0.000398214
2.51547
0.000422169
2.51583
0.000450719
2.51626
0.000507466
2.51672
0.000543915
2.51728
0.000631638
2.51788
0.000695247
2.5186
0.000796674
2.51944
0.000918433
2.52036
0.00101763
2.52149
0.00119687
2.52272
0.00132161
2.52411
0.00148479
2.52571
0.00166411
2.52738
0.00177986
2.52923
0.00194934
2.53119
0.00206509
2.5331
0.00210591
2.53517
0.00223322
2.53731
0.00229397
2.53933
0.00225958
0.00230964
2.74167
-2.74135
2.74201
2.74234
2.74269
2.74303
2.74338
2.74372
2.74407
2.74442
2.74477
2.74512
2.74547
2.74583
2.74618
2.74655
2.74693
2.74732
2.74775
2.7482
2.7487
2.74925
2.74988
2.75058
2.75137
2.75229
2.75331
2.75451
2.75583
2.75731
2.75898
2.76076
2.76271
2.76477
2.76688
2.76911
2.7714
2.77366
0.431831
0.0446568
-0.424532
0.440819
0.0729723
0.448533
0.104169
0.458699
0.13161
0.467502
0.162517
0.479651
0.188319
0.493232
0.217245
0.244005
0.464324
0.0381311
-0.457798
0.472145
0.0651508
0.479712
0.0966028
0.488637
0.122685
0.498197
0.152957
0.507798
0.178718
0.519535
0.205509
0.232843
0.500473
0.0325977
-0.494939
0.506719
0.058904
0.513383
0.0899387
0.520494
0.115574
0.528609
0.144843
0.536634
0.170693
0.546553
0.19559
0.22108
0.539413
0.0276918
-0.534507
0.544439
0.0538778
0.55022
0.0841574
0.55618
0.109615
0.56322
0.137802
0.571418
0.162495
0.580601
0.186407
0.210637
0.581973
0.0237197
-0.578001
0.586136
0.0497149
0.591354
0.0789397
0.597053
0.103916
0.603881
0.130974
0.61128
0.155096
0.619107
0.17858
0.201747
0.628633
0.0203492
-0.625262
0.632322
0.0460254
0.637094
0.0741676
0.642119
0.098891
0.647867
0.125225
0.653907
0.149057
0.660901
0.171586
0.193468
0.679815
0.0175685
-0.677034
0.682797
0.0430427
0.686722
0.0702433
0.690813
0.0948
0.695885
0.120154
0.701983
0.142958
0.708902
0.164667
0.185754
0.73569
0.0154551
-0.733577
0.73812
0.0406126
0.741672
0.0666918
0.745781
0.0906912
0.751077
0.114857
0.756958
0.137077
0.763257
0.158368
0.178534
0.797419
0.0137646
-0.795729
0.799694
0.0383377
0.803115
0.0632705
0.807101
0.0867052
0.811907
0.110052
0.817332
0.131652
0.823565
0.152135
0.17135
0.865383
0.0124262
-0.864044
0.867468
0.0362519
0.870611
0.0601279
0.874427
0.0828891
0.879222
0.105257
0.884912
0.125962
0.891384
0.145663
0.164121
0.940108
0.0113503
-0.939032
0.942113
0.034247
0.945233
0.057008
0.949238
0.078884
0.954306
0.10019
0.960188
0.12008
0.966881