/*--------------------------------*- C++ -*----------------------------------*\
| =========                 |                                                 |
| \\      /  F ield         | OpenFOAM: The Open Source CFD Toolbox           |
|  \\    /   O peration     | Version:  2512                                  |
|   \\  /    A nd           | Website:  www.openfoam.com                      |
|    \\/     M anipulation  |                                                 |
\*---------------------------------------------------------------------------*/
FoamFile
{
    version     2.0;
    format      ascii;
    arch        "LSB;label=32;scalar=64";
    class       volScalarField;
    location    "43.4";
    object      p;
}
// * * * * * * * * * * * * * * * * * * * * * * * * * * * * * * * * * * * * * //

dimensions      [0 2 -2 0 0 0 0];

internalField   nonuniform List<scalar> 
13248
(
-0.448728
-0.447942
-0.44569
-0.442469
-0.438803
-0.435269
-0.432356
-0.430421
-0.42958
-0.429687
-0.430356
-0.431023
-0.431029
-0.429726
-0.426571
-0.421213
-0.413538
-0.403637
-0.391689
-0.37805
-0.362459
-0.345645
-0.325411
-0.302891
-0.453744
-0.452751
-0.450352
-0.44709
-0.443424
-0.439792
-0.436553
-0.43387
-0.431673
-0.429685
-0.427486
-0.424599
-0.420582
-0.415105
-0.408003
-0.399279
-0.389041
-0.377438
-0.364592
-0.350528
-0.335275
-0.318805
-0.300779
-0.282603
-0.46104
-0.459494
-0.456802
-0.453376
-0.449582
-0.44569
-0.441815
-0.437886
-0.433695
-0.428965
-0.423425
-0.416861
-0.409161
-0.400324
-0.390434
-0.379603
-0.36792
-0.355453
-0.342188
-0.328224
-0.313432
-0.298063
-0.28185
-0.26521
-0.470548
-0.468117
-0.464898
-0.461106
-0.456937
-0.452418
-0.447377
-0.441558
-0.434753
-0.426873
-0.417943
-0.408077
-0.39743
-0.386161
-0.374391
-0.362185
-0.349575
-0.336558
-0.323157
-0.309362
-0.295185
-0.280806
-0.265955
-0.251549
-0.482189
-0.478637
-0.47467
-0.470271
-0.465367
-0.459675
-0.452773
-0.444382
-0.434509
-0.423397
-0.411391
-0.398826
-0.385954
-0.372931
-0.359828
-0.346663
-0.33342
-0.320088
-0.306643
-0.293095
-0.279458
-0.265794
-0.252028
-0.23861
-0.496051
-0.491197
-0.486319
-0.48104
-0.474892
-0.467273
-0.457692
-0.446117
-0.43295
-0.418776
-0.404135
-0.389415
-0.374835
-0.360487
-0.346383
-0.332495
-0.318786
-0.305217
-0.291769
-0.278431
-0.265204
-0.252131
-0.239142
-0.226628
-0.512253
-0.505986
-0.500051
-0.493512
-0.485393
-0.474907
-0.461838
-0.446664
-0.430211
-0.413271
-0.39641
-0.379943
-0.364
-0.348595
-0.333689
-0.319228
-0.305155
-0.291426
-0.278003
-0.26486
-0.251989
-0.239369
-0.227
-0.215075
-0.530837
-0.523055
-0.515849
-0.50748
-0.496435
-0.482096
-0.464916
-0.445985
-0.426421
-0.407034
-0.388278
-0.370341
-0.35325
-0.336956
-0.321384
-0.306457
-0.292104
-0.278262
-0.26488
-0.251919
-0.239344
-0.227131
-0.215292
-0.203861
-0.551397
-0.542116
-0.533317
-0.52231
-0.507261
-0.488242
-0.466632
-0.444026
-0.421611
-0.400058
-0.379647
-0.360428
-0.34234
-0.325285
-0.309157
-0.293857
-0.279295
-0.265395
-0.252091
-0.239323
-0.227043
-0.215213
-0.203828
-0.192801
-0.573258
-0.562478
-0.551595
-0.536928
-0.516854
-0.492641
-0.466586
-0.440534
-0.415541
-0.392055
-0.370169
-0.349813
-0.330855
-0.31315
-0.296564
-0.280977
-0.266281
-0.252381
-0.239196
-0.22665
-0.214679
-0.203239
-0.192285
-0.181667
-0.595269
-0.582986
-0.569329
-0.549881
-0.523973
-0.494371
-0.464051
-0.434837
-0.407525
-0.382312
-0.359123
-0.337779
-0.318085
-0.299857
-0.282929
-0.267158
-0.252416
-0.238594
-0.225595
-0.213331
-0.201727
-0.190725
-0.180233
-0.170107
-0.615924
-0.602129
-0.584814
-0.559514
-0.527251
-0.492309
-0.458017
-0.425962
-0.39661
-0.369909
-0.345625
-0.323485
-0.303235
-0.284648
-0.267529
-0.251708
-0.237041
-0.2234
-0.210676
-0.19877
-0.187608
-0.17713
-0.167226
-0.157796
-0.417246
-0.417264
-0.417049
-0.417168
-0.418009
-0.419732
-0.422383
-0.425985
-0.430574
-0.436203
-0.442928
-0.450794
-0.459822
-0.469983
-0.48118
-0.493222
-0.505796
-0.51845
-0.530585
-0.541467
-0.550326
-0.55597
-0.557834
-0.554987
-0.426251
-0.425727
-0.425401
-0.425602
-0.426713
-0.428894
-0.432212
-0.436712
-0.442461
-0.44955
-0.458077
-0.468133
-0.479777
-0.493009
-0.507746
-0.523778
-0.54074
-0.558074
-0.575011
-0.590581
-0.603802
-0.612971
-0.6173
-0.614776
-0.433894
-0.432812
-0.432307
-0.432519
-0.433755
-0.43621
-0.439966
-0.445079
-0.451634
-0.459746
-0.469542
-0.481138
-0.494616
-0.50999
-0.527169
-0.54592
-0.56582
-0.586216
-0.606206
-0.624631
-0.64022
-0.651028
-0.656122
-0.652488
-0.439835
-0.438232
-0.437484
-0.437567
-0.438735
-0.441208
-0.445084
-0.450427
-0.457327
-0.465904
-0.476294
-0.48862
-0.50296
-0.519318
-0.537584
-0.557485
-0.57855
-0.600068
-0.621074
-0.640158
-0.656133
-0.666575
-0.671054
-0.66522
-0.443936
-0.441904
-0.440863
-0.440665
-0.441531
-0.443715
-0.447343
-0.452487
-0.459233
-0.467692
-0.477989
-0.490233
-0.504487
-0.520732
-0.53883
-0.558474
-0.579141
-0.600076
-0.620239
-0.638263
-0.653001
-0.661359
-0.663578
-0.654506
-0.446274
-0.443959
-0.442605
-0.441986
-0.442315
-0.443899
-0.446907
-0.451434
-0.457562
-0.465388
-0.475012
-0.486519
-0.499944
-0.515239
-0.532247
-0.550647
-0.569761
-0.588928
-0.607215
-0.6228
-0.634765
-0.639743
-0.638116
-0.624591
-0.44712
-0.444709
-0.443058
-0.441918
-0.441522
-0.442239
-0.444309
-0.447868
-0.45301
-0.459822
-0.468383
-0.478748
-0.490922
-0.50481
-0.520201
-0.536741
-0.554001
-0.570851
-0.586244
-0.598352
-0.606121
-0.606436
-0.599528
-0.580751
-0.446885
-0.44458
-0.442687
-0.440991
-0.439762
-0.439443
-0.440362
-0.442721
-0.446653
-0.452251
-0.459581
-0.468671
-0.479468
-0.491909
-0.50573
-0.520381
-0.53514
-0.548891
-0.560428
-0.567869
-0.570124
-0.56471
-0.551868
-0.528134
-0.446069
-0.444047
-0.441991
-0.439768
-0.437706
-0.436318
-0.436025
-0.437121
-0.439796
-0.444169
-0.450293
-0.458184
-0.467784
-0.478809
-0.490792
-0.503027
-0.514578
-0.524187
-0.530661
-0.532312
-0.52853
-0.517563
-0.500077
-0.473512
-0.445224
-0.443601
-0.441459
-0.438792
-0.436001
-0.433659
-0.432274
-0.432231
-0.433792
-0.437087
-0.442195
-0.449018
-0.457283
-0.466521
-0.476033
-0.484924
-0.492089
-0.496388
-0.496843
-0.492479
-0.48344
-0.468814
-0.450005
-0.424195
-0.444959
-0.443755
-0.441573
-0.438581
-0.435253
-0.432201
-0.429997
-0.429086
-0.429769
-0.432198
-0.436289
-0.441781
-0.448195
-0.454843
-0.460847
-0.465266
-0.46709
-0.465616
-0.46022
-0.450927
-0.438163
-0.422139
-0.40477
-0.382667
-0.44593
-0.445055
-0.442824
-0.439651
-0.436031
-0.432583
-0.429895
-0.428415
-0.428394
-0.429862
-0.432589
-0.436118
-0.439793
-0.442824
-0.444379
-0.443714
-0.440235
-0.433726
-0.424029
-0.411706
-0.396733
-0.380123
-0.362641
-0.343795
-0.546032
-0.525547
-0.496796
-0.460867
-0.423486
-0.387742
-0.358102
-0.338841
-0.333666
-0.345199
-0.372846
-0.412605
-0.455756
-0.493441
-0.518715
-0.522574
-0.493182
-0.432088
-0.361598
-0.30271
-0.265412
-0.250111
-0.251488
-0.267446
-0.303082
-0.35678
-0.412399
-0.44687
-0.441882
-0.396011
-0.326491
-0.256923
-0.200933
-0.160915
-0.134309
-0.117326
-0.109112
-0.108284
-0.106616
-0.0972701
-0.0827795
-0.0678065
-0.0551466
-0.0453193
-0.0376853
-0.031406
-0.0263526
-0.0228684
-0.020297
-0.0173981
-0.0137426
-0.00972892
-0.00625603
-0.00356171
-0.00156443
-0.000363935
7.90368e-05
-2.24521e-05
-0.000322847
-0.000164779
-0.60536
-0.579533
-0.543484
-0.49913
-0.451473
-0.405479
-0.365863
-0.336651
-0.321628
-0.324018
-0.34425
-0.379563
-0.422827
-0.463753
-0.493166
-0.498963
-0.472026
-0.416013
-0.352243
-0.30029
-0.269296
-0.259396
-0.265123
-0.28576
-0.325819
-0.382403
-0.438842
-0.472962
-0.466973
-0.418209
-0.343252
-0.267221
-0.205163
-0.160211
-0.129069
-0.108103
-0.0956143
-0.0910338
-0.0878606
-0.0802127
-0.0690378
-0.0579333
-0.0486205
-0.0414869
-0.0359102
-0.0310928
-0.02724
-0.0247412
-0.0225165
-0.0193604
-0.0151229
-0.0105828
-0.00674917
-0.00385381
-0.00175293
-0.000441353
0.000122931
0.000121612
-0.000159579
-7.56109e-05
-0.641233
-0.611901
-0.569314
-0.517276
-0.461054
-0.406064
-0.35771
-0.320311
-0.296854
-0.290742
-0.303556
-0.332889
-0.373633
-0.415935
-0.449101
-0.459499
-0.437707
-0.389646
-0.334921
-0.291184
-0.267202
-0.262736
-0.272681
-0.297161
-0.340344
-0.398498
-0.455106
-0.489719
-0.484929
-0.43514
-0.356421
-0.275235
-0.207985
-0.158891
-0.12401
-0.0996896
-0.0837167
-0.0758563
-0.0712327
-0.0647229
-0.056338
-0.0484857
-0.0421978
-0.0376961
-0.0341905
-0.0308689
-0.0283218
-0.0267879
-0.0247727
-0.0212123
-0.0163736
-0.0113505
-0.00720893
-0.00413638
-0.00194499
-0.000539
0.000133203
0.00023578
-2.27486e-06
1.27042e-05
-0.650458
-0.619311
-0.573796
-0.516572
-0.454018
-0.392702
-0.337996
-0.294048
-0.263822
-0.249303
-0.25383
-0.2759
-0.311465
-0.352143
-0.387198
-0.403586
-0.391094
-0.353951
-0.309543
-0.274554
-0.258259
-0.25931
-0.273025
-0.300227
-0.344939
-0.40356
-0.460634
-0.497014
-0.495136
-0.446502
-0.365957
-0.280991
-0.209627
-0.157128
-0.119288
-0.0921897
-0.0734811
-0.0627844
-0.0567311
-0.0508078
-0.0446101
-0.039385
-0.0358792
-0.0339741
-0.0325175
-0.0307224
-0.0295642
-0.0289407
-0.0270059
-0.0229048
-0.0174815
-0.0120326
-0.00763428
-0.00440959
-0.00214011
-0.000654419
0.000110051
0.000313421
0.000135478
9.0923e-05
-0.634457
-0.60205
-0.558015
-0.500239
-0.435663
-0.371847
-0.313858
-0.265425
-0.229196
-0.20741
-0.201862
-0.214769
-0.241967
-0.27862
-0.313016
-0.335078
-0.332901
-0.308433
-0.275506
-0.250161
-0.242186
-0.249293
-0.266767
-0.295705
-0.340529
-0.398862
-0.456764
-0.495726
-0.498435
-0.452939
-0.372367
-0.284806
-0.210445
-0.155196
-0.115079
-0.0857227
-0.0648777
-0.0517651
-0.0442491
-0.0383805
-0.0337138
-0.0305348
-0.0296738
-0.0303287
-0.0308576
-0.0306283
-0.0309082
-0.0311204
-0.0291358
-0.0244193
-0.0184538
-0.0126331
-0.00802419
-0.00467177
-0.00233574
-0.000783149
5.75905e-05
0.000353414
0.000243508
0.000152336
-0.597954
-0.565018
-0.525586
-0.471545
-0.409698
-0.347939
-0.290617
-0.240741
-0.200425
-0.17137
-0.156751
-0.157672
-0.174633
-0.20262
-0.234363
-0.260177
-0.266067
-0.254101
-0.233557
-0.219136
-0.220034
-0.233553
-0.25465
-0.284609
-0.328698
-0.385951
-0.444227
-0.486819
-0.494216
-0.453961
-0.3753
-0.286696
-0.210613
-0.153295
-0.111459
-0.0803899
-0.0578638
-0.0427894
-0.0337527
-0.0274443
-0.0234899
-0.0219779
-0.0236543
-0.0267685
-0.029172
-0.0305458
-0.0322706
-0.0332391
-0.0310653
-0.0259381
-0.0193068
-0.0131574
-0.00837787
-0.00492099
-0.00252875
-0.000920245
-1.77185e-05
0.000359218
0.000316757
0.000194252
-0.547602
-0.514802
-0.481837
-0.434615
-0.379206
-0.323063
-0.269718
-0.221512
-0.180102
-0.146415
-0.122598
-0.112349
-0.115866
-0.134304
-0.159556
-0.185449
-0.196741
-0.195407
-0.186572
-0.183384
-0.193088
-0.212963
-0.237564
-0.268226
-0.311386
-0.367787
-0.426491
-0.472257
-0.485381
-0.450127
-0.374717
-0.286923
-0.210321
-0.15165
-0.1085
-0.076203
-0.0523083
-0.0357417
-0.0252456
-0.0181625
-0.014109
-0.0139485
-0.0178818
-0.0232528
-0.0274003
-0.030419
-0.0335686
-0.0352149
-0.032697
-0.0271868
-0.0200289
-0.0136068
-0.00869484
-0.00515553
-0.00271626
-0.00106128
-0.000108845
0.000336981
0.00035547
0.000217558
-0.490296
-0.459419
-0.433746
-0.394874
-0.34812
-0.299791
-0.25219
-0.207425
-0.167074
-0.13168
-0.102362
-0.0814528
-0.07318
-0.0788239
-0.0946576
-0.117087
-0.132201
-0.138927
-0.139459
-0.145775
-0.163159
-0.188564
-0.216201
-0.24735
-0.289603
-0.34481
-0.40355
-0.452359
-0.470405
-0.441611
-0.370823
-0.285543
-0.209556
-0.150307
-0.10618
-0.0730502
-0.0480888
-0.030399
-0.0186513
-0.0106971
-0.00617186
-0.00670016
-0.0124814
-0.0197805
-0.0254968
-0.0301641
-0.0347125
-0.0369723
-0.033936
-0.0281658
-0.0206056
-0.0139808
-0.00897394
-0.00537344
-0.00289571
-0.0012025
-0.000209378
0.000293818
0.000364012
0.000225424
-0.434396
-0.407541
-0.388417
-0.357517
-0.319598
-0.279444
-0.238281
-0.197677
-0.159382
-0.124154
-0.0924693
-0.0655555
-0.0464168
-0.0396201
-0.0450277
-0.0596963
-0.0773403
-0.0877224
-0.0957535
-0.108644
-0.131525
-0.1612
-0.191279
-0.223098
-0.265259
-0.320539
-0.380182
-0.431227
-0.454602
-0.430839
-0.364571
-0.282623
-0.208072
-0.148993
-0.104287
-0.0706096
-0.0449583
-0.0264075
-0.0137187
-0.00498786
0.000131397
-0.000465035
-0.00755676
-0.0163097
-0.0234134
-0.0297382
-0.0356413
-0.0384584
-0.0346763
-0.0288919
-0.021033
-0.0142775
-0.00921315
-0.00557257
-0.00306507
-0.00134109
-0.000314224
0.00023648
0.00034902
0.000222087
-0.388233
-0.366501
-0.351622
-0.326731
-0.296205
-0.263042
-0.227724
-0.191516
-0.155861
-0.121828
-0.089886
-0.0603957
-0.0353942
-0.0183031
-0.0118586
-0.0155895
-0.0274111
-0.0413744
-0.055368
-0.0729859
-0.09929
-0.131824
-0.163908
-0.196334
-0.238143
-0.292561
-0.35184
-0.405295
-0.430871
-0.414735
-0.355071
-0.278179
-0.206229
-0.148048
-0.103194
-0.0690697
-0.042951
-0.0236198
-0.0101892
-0.000787572
0.00493487
0.00453303
-0.0032275
-0.012908
-0.0211472
-0.0290201
-0.0362486
-0.0396307
-0.034808
-0.0293731
-0.0213141
-0.0145018
-0.00941654
-0.00575539
-0.00322586
-0.00147708
-0.000421073
0.000169743
0.000317311
0.000211823
-0.354369
-0.338219
-0.325037
-0.303657
-0.278296
-0.250352
-0.219598
-0.186906
-0.153508
-0.120551
-0.0889077
-0.0588716
-0.0312204
-0.00800281
0.00863351
0.0155477
0.0115318
0.00067146
-0.0160865
-0.0367591
-0.0648177
-0.0986131
-0.132165
-0.166542
-0.210666
-0.266821
-0.328246
-0.383305
-0.416288
-0.400914
-0.346726
-0.275391
-0.206565
-0.149316
-0.104251
-0.0693831
-0.0425962
-0.0223901
-0.00812073
0.00201448
0.00839086
0.00852524
0.000930195
-0.00920394
-0.0185031
-0.0280642
-0.0365879
-0.0404907
-0.0390009
-0.029734
-0.0214862
-0.0146768
-0.00959831
-0.00592936
-0.00338216
-0.00161197
-0.000529477
9.6179e-05
0.000274032
0.000197893
-0.328354
-0.319428
-0.306896
-0.287837
-0.266635
-0.243628
-0.218048
-0.189929
-0.159906
-0.12902
-0.0982861
-0.0684614
-0.040041
-0.0139853
0.00804988
0.0243987
0.032854
0.0285517
0.0180592
-0.00227793
-0.030004
-0.0640634
-0.0992403
-0.135547
-0.179921
-0.235111
-0.295633
-0.35166
-0.375667
-0.374577
-0.33063
-0.267322
-0.203062
-0.147756
-0.10343
-0.0685998
-0.0416456
-0.0212185
-0.00654698
0.00415874
0.0111975
0.0116898
0.00447319
-0.00561589
-0.015654
-0.0265998
-0.0363299
-0.0406122
-0.0383142
-0.0296634
-0.021457
-0.0147281
-0.00970282
-0.00605523
-0.00350891
-0.00173014
-0.000629252
2.26432e-05
0.000225507
0.000183049
-0.29693
-0.301747
-0.288416
-0.267463
-0.245157
-0.222517
-0.198583
-0.172611
-0.144692
-0.115668
-0.0865362
-0.0579022
-0.030539
-0.00504233
0.0176641
0.0364304
0.0503153
0.0580055
0.050753
0.0344572
0.0106979
-0.0195213
-0.0551701
-0.0976679
-0.149356
-0.209723
-0.275239
-0.335928
-0.37547
-0.355384
-0.306979
-0.245208
-0.18542
-0.134692
-0.0940108
-0.0617014
-0.0363731
-0.0171074
-0.00304234
0.00734639
0.0145063
0.015824
0.00988916
-0.000371987
-0.0117466
-0.0248811
-0.0363463
-0.0409725
-0.0380575
-0.0292243
-0.0210533
-0.0144913
-0.00961111
-0.00605538
-0.00355733
-0.00180166
-0.000699721
-3.7072e-05
0.000183195
0.000170593
-0.264581
-0.272706
-0.261411
-0.240722
-0.218832
-0.197669
-0.176199
-0.153109
-0.128048
-0.101666
-0.0749303
-0.0483929
-0.0228833
0.00110161
0.0234998
0.04318
0.0587271
0.0680187
0.066117
0.0549612
0.0376167
0.0137063
-0.0205686
-0.068011
-0.126518
-0.192055
-0.260286
-0.319087
-0.344994
-0.326248
-0.278452
-0.221618
-0.168122
-0.122678
-0.0856941
-0.0558474
-0.0320245
-0.0138448
-0.000387953
0.00985018
0.0172778
0.0192926
0.0140148
0.00415504
-0.0084629
-0.0234022
-0.036025
-0.0403623
-0.0366286
-0.0281799
-0.0203551
-0.0141174
-0.00945646
-0.00602686
-0.00359333
-0.00186788
-0.000770586
-0.000100831
0.000137615
0.000151508
-0.236606
-0.245091
-0.236298
-0.217948
-0.197856
-0.178402
-0.158935
-0.138151
-0.115501
-0.0913462
-0.0666052
-0.0418529
-0.0177701
0.00513995
0.0268599
0.0461405
0.0623458
0.0741887
0.0767717
0.0697481
0.0568858
0.036785
0.00164708
-0.0512348
-0.114855
-0.181446
-0.245897
-0.296364
-0.314453
-0.29405
-0.249939
-0.19943
-0.152098
-0.111458
-0.0778412
-0.0503577
-0.028043
-0.0107815
0.00210743
0.012151
0.0199109
0.0230763
0.0189431
0.00893935
-0.00544218
-0.0219799
-0.0351203
-0.0389256
-0.0347934
-0.0268617
-0.0195325
-0.0136794
-0.00926346
-0.00597553
-0.00361667
-0.00192871
-0.0008411
-0.000166534
8.94995e-05
0.000130236
-0.211984
-0.219436
-0.212619
-0.196691
-0.17839
-0.160386
-0.142513
-0.12368
-0.103258
-0.0813722
-0.058761
-0.0359831
-0.0136274
0.0078024
0.0283306
0.046581
0.0622215
0.0747829
0.0801993
0.07695
0.0682719
0.0512095
0.0152403
-0.0406729
-0.105025
-0.16826
-0.225718
-0.267956
-0.279532
-0.258704
-0.219509
-0.176063
-0.135445
-0.100025
-0.0700129
-0.0449872
-0.0243149
-0.00801475
0.00432375
0.0141553
0.0222676
0.0267398
0.0242732
0.0140831
-0.00223088
-0.0202856
-0.0335619
-0.0367657
-0.032502
-0.0252666
-0.0185699
-0.0131644
-0.00902545
-0.00589837
-0.00362581
-0.00198269
-0.000909017
-0.000231988
4.10082e-05
0.000107934
-0.18884
-0.195756
-0.190473
-0.176746
-0.160335
-0.143936
-0.127715
-0.110816
-0.0925865
-0.0729696
-0.0525073
-0.0317348
-0.0111745
0.00867844
0.027629
0.0448956
0.0595654
0.0716443
0.078103
0.0768856
0.0705429
0.0558348
0.0216649
-0.0321992
-0.0926365
-0.149868
-0.199524
-0.234113
-0.239941
-0.221283
-0.189222
-0.153831
-0.119801
-0.0891712
-0.062505
-0.0398058
-0.020791
-0.0054778
0.00634876
0.0159106
0.0241955
0.0298911
0.02903
0.0188125
0.000900527
-0.0182418
-0.0311002
-0.0336725
-0.02976
-0.0234337
-0.0174856
-0.0125792
-0.00874365
-0.00579422
-0.00361915
-0.0020283
-0.000973336
-0.000296852
-7.4617e-06
8.47164e-05
-0.167814
-0.174381
-0.170173
-0.158332
-0.143801
-0.129078
-0.114489
-0.0993878
-0.0831676
-0.0656755
-0.0472936
-0.0285225
-0.00981918
0.00837328
0.0256769
0.0415734
0.0550926
0.0661885
0.0727367
0.0724402
0.0667512
0.0533414
0.0232769
-0.0239534
-0.0770775
-0.126521
-0.167366
-0.19257
-0.198646
-0.184959
-0.160526
-0.132404
-0.104379
-0.0783899
-0.0551298
-0.0348153
-0.0175063
-0.00326253
0.00804993
0.0173564
0.0256294
0.0318743
0.0322386
0.0221722
0.00364155
-0.0155275
-0.0275057
-0.0298594
-0.0266799
-0.02143
-0.0163046
-0.0119306
-0.00841861
-0.00566178
-0.00359514
-0.0020642
-0.00103311
-0.000360429
-5.52259e-05
6.11371e-05
-0.14934
-0.15507
-0.151619
-0.141445
-0.128695
-0.115618
-0.102617
-0.0892072
-0.0748465
-0.0593537
-0.0429966
-0.0262196
-0.00943381
0.00685443
0.022554
0.0369718
0.0492776
0.0592462
0.0654526
0.065738
0.0604719
0.0483187
0.0234499
-0.0150101
-0.0587558
-0.0993529
-0.132408
-0.153418
-0.15977
-0.151387
-0.133998
-0.11262
-0.0901509
-0.0683654
-0.0482105
-0.0301353
-0.014453
-0.00131655
0.00941032
0.018432
0.0265008
0.0328078
0.0335448
0.0239793
0.00619546
-0.0118559
-0.0229159
-0.0255708
-0.0234329
-0.0193348
-0.0150549
-0.0112273
-0.00805213
-0.00550047
-0.00355249
-0.00208899
-0.00108698
-0.000421556
-0.000101528
3.77202e-05
-0.13239
-0.137429
-0.134708
-0.126042
-0.114943
-0.103437
-0.0919549
-0.0801299
-0.0675001
-0.0538917
-0.0394835
-0.0246411
-0.00972825
0.00481424
0.0187372
0.031583
0.0426229
0.0514532
0.0571226
0.0578924
0.0534203
0.0430443
0.0234454
-0.0062593
-0.0406309
-0.0732557
-0.100364
-0.118496
-0.125898
-0.122192
-0.110665
-0.0947452
-0.0768707
-0.0587947
-0.0415714
-0.0257264
-0.0116744
0.000326736
0.0103818
0.0190302
0.0267309
0.0326572
0.033282
0.0246517
0.00865392
-0.00763533
-0.017945
-0.0212158
-0.0202079
-0.017226
-0.0137648
-0.0104788
-0.00764699
-0.00531022
-0.00349007
-0.00210122
-0.00113355
-0.000479067
-0.000145751
1.49227e-05
-0.116862
-0.121515
-0.119435
-0.112085
-0.102478
-0.0924244
-0.082364
-0.0720245
-0.0610129
-0.0491675
-0.0365958
-0.0235979
-0.0105203
0.0022909
0.0145186
0.0258081
0.0355655
0.0433058
0.0483564
0.0494684
0.0460255
0.0376658
0.0226621
0.000327207
-0.0261312
-0.0521415
-0.0743705
-0.0902367
-0.0981658
-0.0975919
-0.0902854
-0.0786876
-0.0647816
-0.050045
-0.0354849
-0.0217078
-0.00920309
0.00168186
0.0109847
0.0191072
0.0262663
0.0315325
0.0319163
0.0244504
0.0106203
-0.00369264
-0.0132942
-0.0171412
-0.0171505
-0.0151636
-0.0124592
-0.0096955
-0.00720688
-0.00509163
-0.00340712
-0.00209964
-0.00117149
-0.000531766
-0.00018724
-6.80864e-06
-0.103129
-0.107276
-0.105626
-0.0994206
-0.0911773
-0.0824765
-0.0737442
-0.0647766
-0.0552415
-0.0450433
-0.0341962
-0.0229517
-0.0116019
-0.00046344
0.010166
0.0199696
0.0284785
0.0352163
0.0396645
0.0409717
0.0385033
0.0319712
0.0205421
0.00382563
-0.0163006
-0.0366798
-0.0546446
-0.0682221
-0.0758868
-0.0771449
-0.072882
-0.0646682
-0.0539737
-0.0420471
-0.0298499
-0.0180129
-0.00702603
0.00273366
0.0112179
0.0186751
0.0251265
0.029588
0.0297593
0.0234458
0.0117997
-0.0005196
-0.00932649
-0.013524
-0.0143375
-0.0131873
-0.0111595
-0.00888806
-0.00673652
-0.00484603
-0.00330328
-0.00208316
-0.00119951
-0.000578409
-0.000225293
-2.70639e-05
-0.0909043
-0.0944175
-0.0931307
-0.0879988
-0.0809965
-0.0735256
-0.0660075
-0.058281
-0.0499876
-0.0414154
-0.0321701
-0.0225381
-0.0128001
-0.00322555
0.00591411
0.0143379
0.0216773
0.0275133
0.0314153
0.0327942
0.0311219
0.0261501
0.0175128
0.00508055
-0.0100337
-0.0257513
-0.0400386
-0.0513143
-0.058289
-0.0604958
-0.0582536
-0.0525173
-0.0443836
-0.0348657
-0.0247839
-0.0147283
-0.00517678
0.00348039
0.0111079
0.0178025
0.0234422
0.0270246
0.0271047
0.0218367
0.0122047
0.00178422
-0.00612235
-0.0104162
-0.0117995
-0.0113237
-0.00988505
-0.00806795
-0.00624157
-0.00457551
-0.00317869
-0.00205096
-0.00121649
-0.000617816
-0.000259205
-4.54723e-05
-0.0796682
-0.0829436
-0.0821507
-0.0778408
-0.0718779
-0.0655019
-0.0591207
-0.0526556
-0.0459287
-0.0383725
-0.0304493
-0.0222491
-0.0139684
-0.00582484
0.00195446
0.00912766
0.0153989
0.0204193
0.0238312
0.0252237
0.0242048
0.0205649
0.0141518
0.00498129
-0.0062605
-0.0182068
-0.0293657
-0.0385212
-0.0445522
-0.0470576
-0.0460756
-0.0421583
-0.0360597
-0.0285414
-0.0202819
-0.0118242
-0.00361886
0.00395681
0.0107043
0.0165925
0.021415
0.0243595
0.024248
0.019892
0.0120339
0.00334379
-0.00361208
-0.00779945
-0.00954526
-0.00959206
-0.00865354
-0.00724703
-0.00572856
-0.00428287
-0.00303398
-0.00200253
-0.00122148
-0.00064894
-0.000288298
-6.17103e-05
-0.069711
-0.0726956
-0.0721769
-0.0686626
-0.0636642
-0.0582769
-0.0528825
-0.0474162
-0.0416642
-0.0354427
-0.0288224
-0.0219416
-0.014981
-0.00812688
-0.00157008
0.00448434
0.00979692
0.0140915
0.0170833
0.018475
0.017982
0.0154379
0.0107803
0.00409371
-0.00416057
-0.0130912
-0.0216458
-0.0288875
-0.033896
-0.0363356
-0.0361056
-0.0334759
-0.028933
-0.0230398
-0.0163431
-0.00931162
-0.00235012
0.00418737
0.0100641
0.0151548
0.019209
0.0215905
0.0213727
0.0178113
0.0114729
0.00431485
-0.00169502
-0.00563419
-0.007573
-0.00800622
-0.00748058
-0.00643707
-0.00520474
-0.00397178
-0.00287038
-0.00193774
-0.00121376
-0.000670889
-0.000311979
-7.55352e-05
-0.0609267
-0.0635363
-0.0632251
-0.0603864
-0.0562517
-0.0517533
-0.0472399
-0.0426728
-0.0378788
-0.0327353
-0.0272542
-0.0215437
-0.0157548
-0.0100442
-0.00457022
0.000498866
0.00497295
0.0086366
0.0112645
0.0126339
0.0125437
0.0108733
0.00760017
0.00282356
-0.00313889
-0.00969655
-0.0161165
-0.0216953
-0.0257228
-0.0278952
-0.0280509
-0.0262938
-0.0229251
-0.0183421
-0.012964
-0.00717945
-0.00134367
0.00421895
0.00925818
0.0135926
0.0169584
0.0188551
0.018599
0.0157264
0.0106665
0.00483489
-0.000269695
-0.00387329
-0.00587378
-0.00657519
-0.00637959
-0.00564938
-0.00467761
-0.00364652
-0.00268986
-0.00185698
-0.00119288
-0.000682928
-0.000329739
-8.67899e-05
-0.0530478
-0.0553368
-0.0552237
-0.0529763
-0.0495944
-0.0458734
-0.0421333
-0.0383603
-0.034416
-0.0301979
-0.0257029
-0.021012
-0.016246
-0.011533
-0.00700127
-0.00278583
0.00096239
0.00407523
0.00637813
0.00770745
0.00792256
0.00693715
0.00474223
0.00142563
-0.00278795
-0.00750123
-0.0122044
-0.0163945
-0.0195191
-0.0213224
-0.0216278
-0.0204465
-0.0179489
-0.0144014
-0.0101155
-0.00540515
-0.00057252
0.00409481
0.00835084
0.0119901
0.0147569
0.0162581
0.0160087
0.0137241
0.00972294
0.00501913
0.000735506
-0.00247076
-0.00443362
-0.00530327
-0.00536126
-0.00489457
-0.0041549
-0.00331166
-0.00249476
-0.00176124
-0.00115897
-0.000684671
-0.000341173
-9.53486e-05
-0.0459955
-0.0480509
-0.0481133
-0.0463622
-0.0436202
-0.0405698
-0.0375025
-0.0344207
-0.0312125
-0.0277887
-0.0241391
-0.0203234
-0.0164364
-0.0125805
-0.00885835
-0.00537684
-0.00225423
0.000381118
0.00239762
0.00367428
0.00410914
0.00364106
0.00226706
5.72623e-05
-0.00282928
-0.00612352
-0.00947478
-0.0125215
-0.0148586
-0.0162667
-0.0165804
-0.015762
-0.0138961
-0.0111543
-0.00776129
-0.00396241
-7.11872e-06
0.00385673
0.00740008
0.0104166
0.0126721
0.0138612
0.0136466
0.0118544
0.00872337
0.0049728
0.00141849
-0.00138195
-0.00323495
-0.00419016
-0.0044333
-0.00418185
-0.00364447
-0.00297253
-0.00228781
-0.00165154
-0.00111239
-0.000676197
-0.00034618
-0.000101156
-0.039774
-0.0416203
-0.0418039
-0.0404556
-0.0382554
-0.0357824
-0.0332954
-0.0308063
-0.0282253
-0.0254755
-0.0225426
-0.0194694
-0.016329
-0.0132018
-0.0101683
-0.00731157
-0.00472205
-0.00249694
-0.000735808
0.000470982
0.00105063
0.000959863
0.00019765
-0.00118411
-0.00307566
-0.00529251
-0.00759237
-0.00972668
-0.0113988
-0.0124291
-0.0126717
-0.0120688
-0.0106535
-0.00853071
-0.00585701
-0.0028186
0.00038369
0.00354214
0.00645342
0.00892497
0.0107516
0.0116977
0.0115292
0.0101429
0.00772025
0.00476255
0.00184541
-0.000559859
-0.0022558
-0.00323208
-0.00360085
-0.00351879
-0.00315325
-0.00263474
-0.00207296
-0.00152982
-0.00105357
-0.000657381
-0.000344736
-0.000104355
-0.0343271
-0.0359385
-0.0361904
-0.0351736
-0.0334356
-0.0314576
-0.0294648
-0.027477
-0.0254242
-0.0232407
-0.0209094
-0.0184597
-0.0159465
-0.0134317
-0.0109775
-0.00864734
-0.00651008
-0.00463918
-0.00310909
-0.00198611
-0.00132274
-0.0011496
-0.00146856
-0.00224459
-0.00340055
-0.00480973
-0.00631146
-0.00773241
-0.00886195
-0.00955422
-0.00968955
-0.00920633
-0.00810809
-0.00645466
-0.00435214
-0.00193804
0.000629994
0.00318241
0.00554585
0.00755054
0.00902213
0.00977997
0.00966134
0.00860633
0.006744
0.00442799
0.00207211
4.1996e-05
-0.00147115
-0.00242104
-0.00286575
-0.00291166
-0.00268769
-0.00230301
-0.00185378
-0.00139911
-0.000984549
-0.000628792
-0.000336492
-0.000104837
-0.0294759
-0.0308846
-0.0311982
-0.0304631
-0.0291145
-0.0275521
-0.0259736
-0.0244048
-0.0227919
-0.0210787
-0.0192466
-0.017314
-0.0153216
-0.0133162
-0.0113454
-0.00945702
-0.00770284
-0.00613747
-0.00481597
-0.00378675
-0.00308873
-0.00274421
-0.00275563
-0.0030982
-0.00372054
-0.00453905
-0.0054454
-0.00632442
-0.00702268
-0.00742977
-0.00745036
-0.00702743
-0.00614974
-0.00484853
-0.00319364
-0.00128417
0.000759283
0.00280182
0.00470058
0.00631257
0.0074936
0.0081058
0.00803472
0.00724531
0.00582936
0.00402975
0.00214896
0.000463823
-0.000856752
-0.00174702
-0.00222703
-0.00236417
-0.0022537
-0.00198292
-0.00163351
-0.00126086
-0.000906629
-0.000592508
-0.000322907
-0.000102547
-0.0251743
-0.0264268
-0.0267868
-0.0262748
-0.0252425
-0.0240232
-0.0227882
-0.0215661
-0.0203152
-0.0189882
-0.0175655
-0.0160577
-0.014494
-0.0129093
-0.0113392
-0.00981949
-0.0083884
-0.00708607
-0.00595335
-0.00502586
-0.00433165
-0.00388732
-0.00369576
-0.00374069
-0.00398874
-0.0043846
-0.00485207
-0.0053324
-0.00570199
-0.00588058
-0.00579592
-0.00539975
-0.00467527
-0.00363662
-0.00232861
-0.000820927
0.000796242
0.00241825
0.00393076
0.0052177
0.00616325
0.00666192
0.00663199
0.0060527
0.00498839
0.00360597
0.0021209
0.000741745
-0.000388179
-0.00119767
-0.00168197
-0.00187857
-0.001855
-0.00167925
-0.00141739
-0.0011185
-0.000820497
-0.000547361
-0.000303999
-9.90879e-05
-0.0214091
-0.0225047
-0.0228801
-0.0225411
-0.0217672
-0.0208314
-0.0198798
-0.0189417
-0.017986
-0.016973
-0.0158833
-0.0147214
-0.0135077
-0.0122676
-0.0110276
-0.00981397
-0.0086547
-0.00757915
-0.0066173
-0.0057948
-0.00513247
-0.00464295
-0.00432898
-0.00418153
-0.00418088
-0.00428845
-0.0044542
-0.00463834
-0.00476251
-0.00476555
-0.00459321
-0.00420736
-0.00359061
-0.0027474
-0.00170585
-0.000513821
0.000762513
0.00204395
0.00324153
0.00426371
0.00501987
0.00542967
0.00543363
0.00501874
0.00422908
0.00317895
0.00201982
0.000907016
-4.25849e-05
-0.00075948
-0.001225
-0.00145557
-0.00149546
-0.00139536
-0.00120816
-0.000976338
-0.000731093
-0.000496682
-0.000279039
-9.2391e-05
-0.0180825
-0.0190353
-0.0194162
-0.0192155
-0.0186517
-0.0179471
-0.0172262
-0.0165183
-0.0158007
-0.0150405
-0.0142189
-0.0133362
-0.0124059
-0.0114463
-0.0104767
-0.00951622
-0.00858524
-0.00770477
-0.00689679
-0.00617993
-0.00556924
-0.00507446
-0.00469921
-0.00443755
-0.00427759
-0.00419819
-0.00417105
-0.00414668
-0.00409425
-0.00396879
-0.00373081
-0.00335041
-0.002812
-0.00211514
-0.00127723
-0.000330664
0.000677015
0.00168724
0.00263247
0.00344242
0.00404754
0.00438741
0.00441814
0.0041301
0.00355318
0.00276542
0.00187171
0.000986265
0.00020225
-0.000418607
-0.000849457
-0.00109291
-0.00117633
-0.00113555
-0.00100966
-0.000834613
-0.000638363
-0.000443878
-0.000253881
-8.42317e-05
-0.0151446
-0.0159763
-0.0163539
-0.0162585
-0.0158612
-0.0153424
-0.0148076
-0.0142846
-0.0137574
-0.0131987
-0.012591
-0.0119318
-0.0112295
-0.0104969
-0.00974789
-0.00899619
-0.00825644
-0.00754357
-0.00687343
-0.00625969
-0.00571306
-0.00524095
-0.00484716
-0.00452812
-0.00427682
-0.00408118
-0.00392506
-0.00377437
-0.00360871
-0.00339875
-0.00311813
-0.00274503
-0.0022669
-0.00168135
-0.000999164
-0.000241994
0.000556429
0.00135377
0.00209988
0.00274197
0.00322785
0.00351251
0.00356326
0.00337226
0.00295876
0.00237599
0.00169618
0.00100174
0.000364982
-0.00016077
-0.000547383
-0.000788528
-0.000897981
-0.000900499
-0.000824719
-0.000699185
-0.000544582
-0.000383061
-0.000222057
-7.81942e-05
-0.0125614
-0.0132825
-0.0136463
-0.013629
-0.0133628
-0.0129929
-0.0126071
-0.0122317
-0.0118553
-0.0114558
-0.0110175
-0.0105359
-0.0100158
-0.00946597
-0.00889623
-0.00831618
-0.00773625
-0.00716686
-0.00661948
-0.00610378
-0.00562751
-0.00519631
-0.00481352
-0.00447732
-0.00418392
-0.00392652
-0.00369636
-0.00347337
-0.00324223
-0.00298407
-0.00268227
-0.00232186
-0.00189377
-0.00139529
-0.000833101
-0.000221801
0.000414976
0.00104714
0.00163816
0.0021493
0.00254189
0.0027828
0.00284806
0.0027304
0.00244175
0.00201792
0.00150801
0.000971442
0.0004631