/*--------------------------------*- C++ -*----------------------------------*\
| =========                 |                                                 |
| \\      /  F ield         | OpenFOAM: The Open Source CFD Toolbox           |
|  \\    /   O peration     | Version:  2312                                  |
|   \\  /    A nd           | Website:  www.openfoam.com                      |
|    \\/     M anipulation  |                                                 |
\*---------------------------------------------------------------------------*/
FoamFile
{
    version     2.0;
    format      ascii;
    arch        "LSB;label=32;scalar=64";
    class       surfaceScalarField;
    location    "97.25";
    object      phi;
}
// * * * * * * * * * * * * * * * * * * * * * * * * * * * * * * * * * * * * * //

dimensions      [0 3 -1 0 0 0 0];

oriented        oriented;

internalField   nonuniform List<scalar> 
10785
(
-0.00163443
0.00440678
-0.00277236
-0.00272555
0.0072523
-0.00616117
-0.000318445
0.00495885
-0.00736596
0.00862097
-0.00393036
-0.00500906
0.0264974
-0.0203372
0.00246076
0.0535721
-0.0427126
0.015638
0.0874844
-0.0678077
0.0338954
0.124523
-0.0924873
0.0554487
0.160522
-0.114492
0.0784925
0.192104
-0.132696
0.101114
0.21604
-0.14667
0.122734
0.232769
-0.157068
0.140339
0.241792
-0.165818
0.156796
0.247398
-0.172324
0.166718
-0.183968
0.178152
0.253214
-0.000657085
0.00506387
0.000717931
0.00587728
0.00784161
-0.00216483
0.0242365
-0.0203252
0.0502291
-0.0463298
0.0823407
-0.0748243
0.115522
-0.100989
0.1452
-0.122165
0.168505
-0.137797
0.184659
-0.148849
0.195181
-0.157193
0.203105
-0.164993
0.210616
-0.173329
0.220807
-0.182515
-0.19289
0.229729
0.000335912
0.00472795
0.00484818
0.00136501
0.0181493
-0.0154659
0.0417525
-0.0439285
0.0713796
-0.0759569
0.100705
-0.10415
0.124991
-0.125274
0.142449
-0.139624
0.154069
-0.149417
0.162463
-0.157243
0.170241
-0.164971
0.178344
-0.173095
0.186517
-0.181502
0.193611
-0.189609
-0.198197
0.198918
0.00130656
0.00342139
0.00977474
-0.00710316
0.0294416
-0.0351328
0.0564007
-0.0708875
0.0828472
-0.102403
0.103653
-0.124956
0.117838
-0.139458
0.127298
-0.149085
0.134625
-0.156744
0.141434
-0.164052
0.14785
-0.171387
0.153683
-0.178928
0.158873
-0.186692
0.164276
-0.195012
-0.204293
0.170372
0.00256019
0.000861198
0.0157108
-0.0202538
0.0391647
-0.0585867
0.0636506
-0.0953734
0.0827271
-0.12148
0.0953503
-0.137579
0.103539
-0.147647
0.109579
-0.155124
0.114698
-0.161863
0.119229
-0.168583
0.123503
-0.175661
0.127788
-0.183213
0.13228
-0.191184
0.136908
-0.19964
-0.208101
0.140716
0.00433961
-0.00347841
0.0214327
-0.0373469
0.0440297
-0.0811837
0.0626429
-0.113987
0.0748495
-0.133687
0.0822683
-0.144998
0.0870988
-0.152478
0.0907401
-0.158765
0.0938901
-0.165013
0.0969546
-0.171647
0.100004
-0.178711
0.102945
-0.186154
0.10574
-0.193979
0.108259
-0.20216
-0.21082
0.110979
0.00650607
-0.00998448
0.0250569
-0.0558976
0.0435022
-0.099629
0.0561404
-0.126625
0.0633719
-0.140918
0.0673574
-0.148983
0.0698345
-0.154955
0.0717444
-0.160675
0.0734499
-0.166718
0.0749729
-0.17317
0.0763218
-0.18006
0.0775703
-0.187403
0.0787646
-0.195173
0.0800505
-0.203446
-0.211856
0.0810859
0.00840207
-0.0183865
0.0254428
-0.0729383
0.0390667
-0.113253
0.0468074
-0.134365
0.0504194
-0.14453
0.0519807
-0.150545
0.0527109
-0.155685
0.0530713
-0.161036
0.0531721
-0.166819
0.0530844
-0.173083
0.0528611
-0.179836
0.0525282
-0.18707
0.052145
-0.19479
0.051575
-0.202876
0.0510942
-0.211375
-0.00266583
-0.00482017
0.007486
-0.00773348
-0.00225635
0.007324
-0.0143661
0.00349236
0.00314026
-0.0221051
0.009484
-0.00174501
-0.0304912
0.0160962
-0.00771008
-0.0391218
0.0240494
-0.0154188
-0.0474166
0.0335224
-0.0252277
-0.0545794
0.0443578
-0.037195
-0.0596197
0.0561022
-0.0510619
-0.0614103
0.0679142
-0.0661236
-0.0588422
0.0785894
-0.0811575
-0.0507739
0.08649
-0.0945582
-0.0361831
0.0898921
-0.104483
-0.0144232
0.0871601
-0.10892
0.0776813
0.0143783
-0.106483
-0.00197193
-0.00284825
-0.00562569
0.00139742
-0.0105049
0.00837153
-0.0161657
0.0151449
-0.0219067
0.0218372
-0.0269972
0.0291399
-0.0306647
0.0371899
-0.0319761
0.0456692
-0.0298681
0.0539942
-0.0232663
0.0613124
-0.0110613
0.0663844
0.00747853
0.0679501
0.0322247
0.065146
0.0639668
0.055418
0.0385625
0.103086
-0.00100409
-0.00184415
-0.00264837
0.00304169
-0.00485212
0.0105753
-0.00736566
0.0176584
-0.00938854
0.0238601
-0.00993898
0.0296904
-0.00808616
0.0353371
-0.00292791
0.040511
0.00644904
0.0446173
0.0210111
0.0467504
0.0409345
0.046461
0.0671424
0.0417422
0.0988866
0.0334017
0.134091
0.0202133
-0.00441739
0.177071
-0.000283543
-0.00156061
-0.000248257
0.00300641
0.000123863
0.0102032
0.000864029
0.0169182
0.00258829
0.0221358
0.00626722
0.0260114
0.0128741
0.0287302
0.0233015
0.0300835
0.0379298
0.029989
0.0577947
0.0268854
0.0819979
0.0222578
0.111254
0.0124861
0.146042
-0.00138655
0.18343
-0.0171749
-0.048289
0.227302
-0.000155853
-0.00140476
0.000459935
0.00239062
0.00219635
0.00846676
0.00509917
0.0140154
0.00951196
0.017723
0.0161032
0.0194202
0.0256175
0.019216
0.0387664
0.0169346
0.0560094
0.012746
0.0780652
0.00482966
0.105098
-0.00477501
0.138238
-0.0206535
0.176434
-0.0395832
0.221238
-0.0619788
-0.0963492
0.269298
-0.000652636
-0.000752119
-0.00072856
0.00246654
0.000636835
0.00710136
0.00367853
0.0109737
0.00870927
0.0126923
0.0162634
0.0118661
0.0272625
0.00821681
0.0427485
0.0014486
0.0642726
-0.00877808
0.0917475
-0.0226452
0.126929
-0.0399569
0.168345
-0.0620688
0.214191
-0.0854293
0.26557
-0.113358
-0.141318
0.310539
-0.00150051
0.000748387
-0.00299497
0.003961
-0.00304274
0.00714913
-0.000802748
0.00873375
0.00458195
0.00730759
0.0146005
0.00184754
0.0308029
-0.00798558
0.0542554
-0.0220039
0.0855041
-0.0400267
0.123115
-0.060256
0.166781
-0.0836227
0.211368
-0.106656
0.256276
-0.130337
0.295637
-0.152719
-0.167767
0.322086
-0.00202397
-0.00422414
-0.00444096
-0.000716273
0.00905207
0.0265376
0.0524475
0.0858923
0.124358
0.165216
0.204327
0.23801
0.264469
0.278468
0.288853
0.0779363
0.121692
-0.185249
0.141106
-0.0350342
-0.028135
0.18594
-0.197874
0.15304
0.201233
-0.327931
0.312638
0.206622
-0.357705
0.352316
0.182614
-0.323996
0.348004
0.14559
-0.348029
0.385052
0.153613
-0.282622
0.2746
0.201257
-0.0409862
-0.00665832
0.249142
0.159306
-0.207191
0.26383
0.266479
-0.281167
0.253379
0.354847
-0.344396
0.244664
0.418368
-0.409652
0.251855
0.349038
-0.356229
0.267117
0.139948
-0.15521
0.278563
-0.0745454
0.0630991
0.284802
-0.336315
0.330076
0.290052
-0.50199
0.49674
0.288503
-0.44391
0.445459
0.294666
-0.222001
0.215837
0.305504
0.218278
-0.229116
0.310792
0.563404
-0.568691
0.315411
0.523715
-0.528333
0.320437
0.291025
-0.296051
0.307735
-0.360472
0.373175
0.3082
-0.901104
0.900639
0.31487
-0.189226
0.182556
0.296177
0.799136
-0.780444
0.267882
0.470931
-0.442636
0.259863
-0.358426
0.366445
0.270491
-0.233399
0.222771
0.263246
0.171279
-0.164034
0.246184
0.147767
-0.130706
0.255944
-0.187066
0.177306
0.264743
0.0530383
-0.0618373
0.246865
0.145912
-0.128034
0.229178
-0.056454
0.0741414
-0.00776683
0.0138237
0.153696
0.0710812
0.194969
-0.0763076
0.224615
-0.22752
0.221173
-0.324489
0.208362
-0.344893
0.184221
-0.299855
0.142933
-0.306741
0.139924
-0.279613
0.19022
-0.0912825
0.244781
0.104745
0.261973
0.249287
0.248015
0.368805
0.236528
0.429855
0.248363
0.337202
0.267571
0.120741
0.278436
-0.0854105
0.2787
-0.336579
0.281405
-0.504695
0.281651
-0.444156
0.289518
-0.229868
0.30627
0.201525
0.314076
0.555598
0.317259
0.520531
0.321656
0.286628
0.30267
-0.341486
0.29478
-0.893214
0.311386
-0.205832
0.301986
0.808536
0.272265
0.500652
0.259564
-0.345725
0.270858
-0.244693
0.264598
0.17754
0.245339
0.167026
0.254652
-0.196379
0.265678
0.0420129
0.24885
0.16274
0.231678
-0.0392825
-0.00196165
0.216907
0.0312458
0.238253
-0.0976537
0.245315
-0.234583
0.227807
-0.306981
0.204433
-0.321519
0.183781
-0.279202
0.149089
-0.272049
0.139105
-0.269629
0.183716
-0.135893
0.239148
0.0493132
0.26339
0.225045
0.253164
0.379031
0.237343
0.445676
0.246255
0.32829
0.266201
0.100795
0.27608
-0.0952889
0.269831
-0.33033
0.268807
-0.503671
0.27165
-0.446999
0.280938
-0.239156
0.303219
0.179244
0.314133
0.544684
0.31515
0.519515
0.31823
0.283548
0.293809
-0.317065
0.277862
-0.877267
0.304645
-0.232615
0.305953
0.807228
0.275314
0.531291
0.257506
-0.327917
0.269382
-0.256569
0.264631
0.18229
0.243422
0.188235
0.251946
-0.204903
0.265493
0.0284661
0.250176
0.178056
0.233744
-0.0228503
0.00335529
0.26342
-0.00487249
0.280078
-0.114311
0.268672
-0.223177
0.235076
-0.273385
0.201824
-0.288267
0.182015
-0.259393
0.154353
-0.244388
0.145482
-0.260758
0.185721
-0.176132
0.241424
-0.00639033
0.267653
0.198816
0.252625
0.394059
0.232849
0.465453
0.240947
0.320191
0.261662
0.0800794
0.270159
-0.103785
0.258379
-0.318551
0.253216
-0.498508
0.258842
-0.452626
0.269923
-0.250237
0.295876
0.153292
0.308969
0.53159
0.30814
0.520344
0.309977
0.28171
0.281696
-0.288783
0.259365
-0.854936
0.293861
-0.267111
0.305922
0.795167
0.275756
0.561456
0.253674
-0.305834
0.266133
-0.269029
0.263367
0.185056
0.240608
0.210994
0.248074
-0.21237
0.264269
0.0122713
0.250841
0.191485
0.23537
-0.00737954
0.00794529
0.297904
-0.0334781
0.303104
-0.119511
0.277311
-0.197385
0.237055
-0.233128
0.200408
-0.25162
0.181236
-0.240221
0.156147
-0.219299
0.144077
-0.248689
0.184248
-0.216302
0.240133
-0.0622759
0.268559
0.17039
0.259506
0.403112
0.242289
0.48267
0.243523
0.318957
0.256991
0.0666119
0.262129
-0.108924
0.246013
-0.302435
0.235501
-0.487996
0.242405
-0.459529
0.255027
-0.262859
0.285129
0.12319
0.302421
0.514299
0.299845
0.522921
0.29874
0.282814
0.267441
-0.257485
0.239615
-0.82711
0.280281
-0.307777
0.304504
0.770944
0.274712
0.591248
0.248541
-0.279663
0.261418
-0.281906
0.260981
0.185494
0.237138
0.234838
0.243356
-0.218588
0.262149
-0.00652189
0.25087
0.202763
0.236565
0.00692547
0.0115754
0.322334
-0.045273
0.307137
-0.104315
0.268713
-0.15896
0.227087
-0.191503
0.193357
-0.217889
0.176449
-0.223313
0.156957
-0.199807
0.134674
-0.226405
0.164016
-0.245644
0.226981
-0.125241
0.268308
0.129064
0.269843
0.401577
0.249705
0.502808
0.243316
0.325346
0.250953
0.0589741
0.2514
-0.109371
0.231662
-0.282697
0.216224
-0.472558
0.223084
-0.46639
0.23763
-0.277405
0.269831
0.0909886
0.2902
0.49393
0.287951
0.52517
0.284814
0.285951
0.251843
-0.224513
0.219803
-0.79507
0.263208
-0.351182
0.298427
0.735725
0.270291
0.619385
0.241916
-0.251289
0.255301
-0.295291
0.257467
0.183328
0.233164
0.25914
0.238102
-0.223525
0.259305
-0.027725
0.250323
0.211745
0.237351
0.0198978
0.0140264
0.315324
-0.038511
0.287514
-0.0765047
0.249823
-0.12127
0.212578
-0.154258
0.181606
-0.186917
0.164915
-0.206622
0.152995
-0.187887
0.126165
-0.199576
0.131072
-0.25055
0.197395
-0.191564
0.261958
0.0644999
0.277897
0.385638
0.262705
0.518
0.247461
0.34059
0.242017
0.0644181
0.237551
-0.104904
0.214777
-0.259923
0.195247
-0.453028
0.20044
-0.471583
0.216883
-0.293848
0.253324
0.0545474
0.279194
0.46806
0.277466
0.526898
0.271029
0.292388
0.236003
-0.189487
0.199425
-0.758492
0.245425
-0.397182
0.292527
0.688623
0.265191
0.646721
0.234868
-0.220966
0.248191
-0.308613
0.253112
0.178407
0.228927
0.283325
0.232622
-0.22722
0.255925
-0.0510283
0.249283
0.218387
0.237762
0.0314192
0.0151079
0.278067
-0.0277252
0.255196
-0.0536338
0.228119
-0.0941925
0.199079
-0.125218
0.170009
-0.157846
0.15154
-0.188154
0.143058
-0.179405
0.123204
-0.179722
0.105843
-0.233189
0.146489
-0.232211
0.221884
-0.0108944
0.270207
0.337314
0.267277
0.52093
0.246485
0.361383
0.235883
0.07502
0.226099
-0.0951203
0.199096
-0.23292
0.173698
-0.427629
0.176475
-0.474359
0.193902
-0.311274
0.230355
0.0180935
0.261618
0.436797
0.264027
0.524489
0.256861
0.299553
0.2206
-0.153226
0.179404
-0.717296
0.2255
-0.443279
0.281623
0.632501
0.257384
0.67096
0.226822
-0.190405
0.240109
-0.321901
0.247837
0.170679
0.224497
0.306665
0.227158
-0.229881
0.252174
-0.0760439
0.247867
0.222694
0.237853
0.0414335
0.014665
0.503192
-0.0230397
-0.507877
0.497506
-0.047948
0.483926
-0.0806121
0.462608
-0.103901
0.437259
-0.132497
0.406357
-0.157252
0.380331
-0.153379
0.360134
-0.159525
0.312881
-0.185936
0.270756
-0.190086
0.274734
-0.0148723
0.271753
0.340295
0.289558
0.503124
0.362345
0.288597
0.418564
0.0188013
0.442872
-0.119429
0.43966
-0.229708
0.412612
-0.400582
0.383558
-0.445305
0.345019
-0.272735
0.32324
0.0398728
0.32489
0.435147
0.354852
0.494528
0.410554
0.243851
0.416346
-0.159017
0.349891
-0.650842
0.34064
-0.434028
0.377232
0.595909
0.383033
0.66516
0.373926
-0.181298
0.378967
-0.326941
0.371609
0.178036
0.343076
0.335199
0.349324
-0.236129
0.377507
-0.104227
0.3685
0.2317
0.352997
0.0569371
0.0164338
0.527594
-0.0186044
-0.532029
0.51931
-0.0396638
0.503344
-0.0646462
0.482762
-0.0833192
0.457088
-0.106823
0.424656
-0.12482
0.388949
-0.117672
0.368769
-0.139344
0.335213
-0.15238
0.271088
-0.125961
0.245497
0.0107188
0.264275
0.321517
0.342309
0.425091
0.439673
0.191233
0.484809
-0.0263345
0.492779
-0.127399
0.473456
-0.210386
0.432804
-0.359929
0.392075
-0.404577
0.345903
-0.226563
0.32183
0.0639465
0.329152
0.427824
0.380344
0.443337
0.451556
0.172638
0.44263
-0.150091
0.362389
-0.570601
0.356127
-0.427766
0.400631
0.551405
0.414169
0.651622
0.409742
-0.176872
0.412776
-0.329975
0.403233
0.187579
0.375808
0.362624
0.382722
-0.243044
0.412577
-0.134081
0.40382
0.240457
0.387813
0.0729439
0.0173271
0.555476
-0.0157717
-0.558309
0.548423
-0.0326109
0.536094
-0.0523173
0.520942
-0.0681669
0.496518
-0.082399
0.473127
-0.101429
0.447492
-0.0920369
0.40989
-0.101743
0.367363
-0.109853
0.306359
-0.0649572
0.276652
0.0404254
0.326047
0.272122
0.447423
0.303715
0.533831
0.104824
0.548367
-0.0408706
0.540723
-0.119754
0.516668
-0.186331
0.462107
-0.305368
0.395732
-0.338202
0.330548
-0.16138
0.305719
0.0887761
0.334172
0.39937
0.413146
0.364363
0.497019
0.0887656
0.48106
-0.134132
0.37935
-0.468891
0.364765
-0.413181
0.421965
0.494205
0.449788
0.623798
0.449745
-0.176829
0.44863
-0.32886
0.436453
0.199756
0.413144
0.385934
0.421599
-0.251499
0.452138
-0.16462
0.443128
0.249467
0.426181
0.0898915
0.0174528
0.587411
-0.0129314
-0.590252
0.581133
-0.026333
0.568124
-0.039308
0.552369
-0.0524123
0.532593
-0.0626228
0.507116
-0.0759516
0.485102
-0.0700229
0.458246
-0.0748869
0.423719
-0.0753252
0.381392
-0.0226309
0.373462
0.0483556
0.448474
0.19711
0.555219
0.196971
0.607505
0.0525389
0.599656
-0.0330215
0.574691
-0.0947894
0.540395
-0.152036
0.478468
-0.243441
0.391262
-0.250996
0.306967
-0.0770852
0.289798
0.105945
0.351394
0.337774
0.452913
0.262843
0.539569
0.00210973
0.518515
-0.113078
0.395674
-0.34605
0.361937
-0.379444
0.438675
0.417467
0.492376
0.570098
0.497162
-0.181615
0.487906
-0.319604
0.47326
0.214402
0.457006
0.402188
0.467505
-0.261998
0.498037
-0.195152
0.488365
0.259139
0.469442
0.108814
0.0174137
0.623293
-0.0097205
-0.626504
0.616922
-0.0199615
0.606684
-0.0290708
0.594215
-0.0399429
0.577876
-0.0462842
0.557977
-0.056052
0.538581
-0.0506273
0.514615
-0.0509204
0.486903
-0.0476137
0.465551
-0.0012782
0.47995
0.0339566
0.55222
0.124839
0.625562
0.123629
0.647764
0.0303366
0.634171
-0.0194283
0.616704
-0.0773221
0.58553
-0.120862
0.521897
-0.179807
0.430043
-0.159141
0.348028
0.00492959
0.341055
0.112918
0.41973
0.2591
0.51545
0.167123
0.586025
-0.0684648
0.570481
-0.0975341
0.434757
-0.210326
0.368884
-0.313572
0.464282
0.322069
0.549144
0.485236
0.553482
-0.185953
0.529457
-0.295579
0.513006
0.230853
0.507989
0.407205
0.520751
-0.274759
0.550245
-0.224647
0.539827
0.269557
0.518041
0.1306
0.0177945
0.664239
-0.00684909
-0.66711
0.659462
-0.015185
0.650988
-0.0205972
0.640214
-0.0291684
0.626559
-0.0326293
0.609327
-0.0388196
0.594621
-0.0359214
0.576375
-0.0326745
0.559479
-0.0307183
0.552318
0.00588342
0.567253
0.0190212
0.617108
0.0749846
0.666832
0.0739048
0.683094
0.0140748
0.667315
-0.00365004
0.64789
-0.0578969
0.619218
-0.0921898
0.566189
-0.126779
0.501006
-0.0939577
0.44869
0.0572457
0.464781
0.0968269
0.545639
0.178241
0.605802
0.10696
0.634752
-0.0974144
0.625316
-0.0880979
0.503846
-0.0888567
0.407383
-0.217108
0.502707
0.226745
0.613283
0.37466
0.614115
-0.186786
0.565864
-0.247328
0.549527
0.24719
0.566484
0.390247
0.582146
-0.290421
0.606823
-0.249323
0.596277
0.280103
0.573146
0.15373
0.0187893
0.712096
-0.00440018
-0.714545
0.707698
-0.010787
0.700895
-0.0137944
0.691985
-0.0202577
0.681734
-0.022379
0.668616
-0.0257011
0.658011
-0.0253164
0.644713
-0.0193763
0.634491
-0.0204961
0.633515
0.00685866
0.642787
0.00974979
0.676613
0.0411586
0.705925
0.0445925
0.71602
0.00397981
0.713062
-0.000692225
0.699301
-0.0441356
0.669626
-0.0625154
0.620037
-0.0771896
0.584837
-0.0587576
0.575393
0.0666896
0.601008
0.0712117
0.670796
0.108454
0.705237
0.072519
0.689349
-0.0815266
0.679428
-0.0781767
0.607063
-0.016492
0.508916
-0.118961
0.578245
0.157416
0.689366
0.263539
0.679346
-0.176765
0.611492
-0.179473
0.606083
0.252599
0.647605
0.348725
0.65382
-0.296636
0.669382
-0.264886
0.662551
0.286935
0.63862
0.177661
0.021829
0.766407
-0.00230904
-0.768498
0.76259
-0.00697066
0.757595
-0.00879943
0.75044
-0.0131023
0.743046
-0.0149851
0.733247
-0.0159017
0.725354
-0.0174236
0.716876
-0.0108989
0.709908
-0.0135276
0.712264
0.00450304
0.716982
0.00503107
0.737383
0.0207582
0.756967
0.0250078
0.762768
-0.00182044
0.760443
0.00163195
0.746766
-0.0304577
0.728557
-0.0443064
0.692741
-0.0413743
0.67312
-0.0391368
0.688403
0.0514074
0.710322
0.0492922
0.753168
0.0656087
0.774464
0.0512224
0.744842
-0.0519041
0.730792
-0.0641274
0.700995
0.0133053
0.638671
-0.0566369
0.688287
0.1078
0.768803
0.183023
0.740969
-0.148931
0.673178
-0.111683
0.695817
0.22996
0.755
0.289542
0.733836
-0.275473
0.727227
-0.258277
0.726632
0.28753
0.70827
0.196024
0.0244126
0.827659
-0.000809729
-0.829158
0.824603
-0.0039146
0.820983
-0.00517953
0.815675
-0.00779472
0.810182
-0.00949182
0.803554
-0.00927317
0.79758
-0.0114505
0.792723
-0.00604116
0.787968
-0.00877317
0.790213
0.00225877
0.792885
0.00235881
0.804666
0.00897658
0.816021
0.0136534
0.818112
-0.00391178
0.819751
-6.62695e-06
0.809112
-0.0198189
0.794825
-0.0300198
0.772278
-0.0188271
0.759561
-0.0264193
0.776365
0.0346032
0.792874
0.0327831
0.819394
0.0390886
0.836057
0.0345593
0.809766
-0.0256134
0.790245
-0.0446062
0.780362
0.0231887
0.751758
-0.0280331
0.792553
0.0670049
0.84234
0.133236
0.804052
-0.110643
0.750105
-0.0577355
0.798452
0.181613
0.863082
0.224913
0.809499
-0.22189
0.769668
-0.218445
0.781579
0.275618
0.78441
0.193193
0.0220808
0.896357
0.000315198
-0.897482
0.894091
-0.00164817
0.891479
-0.00256836
0.887783
-0.00409838
0.883789
-0.00549802
0.87955
-0.00503415
0.875101
-0.00700099
0.872317
-0.00325718
0.869013
-0.00546921
0.870434
0.000837742
0.872127
0.000665573
0.8778
0.00330374
0.884975
0.00647855
0.885097
-0.00403359
0.885979
-0.000888903
0.87791
-0.0117503
0.867602
-0.0197115
0.856226
-0.00745132
0.846895
-0.0170875
0.858858
0.0226397
0.871793
0.0198483
0.885179
0.0257025
0.896993
0.0227453
0.880533
-0.00915323
0.864122
-0.0281958
0.863472
0.0238387
0.846621
-0.0111817
0.874144
0.039482
0.908916
0.0984641
0.875891
-0.0776187
0.837135
-0.0189787
0.892464
0.126283
0.949924
0.167453
0.876608
-0.148574
0.81672
-0.158557
0.854045
0.238292
0.883282
0.163956
0.0189744
0.972801
0.00114582
-0.973632
0.971245
-9.20523e-05
0.969409
-0.000732634
0.966975
-0.00166461
0.96417
-0.00269283
0.961479
-0.00234247
0.95834
-0.00386196
0.9566
-0.00151734
0.954423
-0.00329221
0.954917
0.000343609
0.955839
-0.000256857
0.958213
0.000929942
0.962062
0.00262947
0.961182
-0.00315298
0.96174
-0.0014469
0.956786
-0.00679716
0.949272
-0.0121973
0.943765
-0.00194414
0.93743
-0.0107523
0.944056
0.0160131
0.953408
0.0104969
0.96103
0.0180799
0.969368
0.0144083
0.95984
0.000374445
0.945944
-0.0143002
0.947865
0.0219181
0.937684
-0.00100079
0.954433
0.0227334
0.98098
0.0719171
0.955922
-0.0525612
0.92812
0.0088237
0.975982
0.0784208
1.0223
0.121136
0.950017
-0.0762924
0.892354
-0.100894
0.953256
0.17739
0.993994
0.123218
0.021732
1.05739
0.00168303
-1.05793
1.05635
0.000946071
1.05514
0.000482945
1.05358
-0.000105965
1.05172
-0.000833121
1.05001
-0.000633764
1.0479
-0.00175059
1.04675
-0.000365255
1.04522
-0.00176181
1.04521
0.000353606
1.04548
-0.000528774
1.04613
0.0002748
1.04804
0.00072023
1.04696
-0.00207409
1.04687
-0.00134901
1.04366
-0.00359442
1.03847
-0.00700826
1.03606
0.000466788
1.03193
-0.00662333
1.03606
0.0118909
1.04197
0.00457947
1.04559
0.0144677
1.05094
0.00905731
1.04574
0.0055747
1.03616
-0.00472501
1.03977
0.0183048
1.0331
0.0056724
1.04087
0.0149625
1.06131
0.051476
1.04475
-0.0359943
1.02706
0.0265081
1.06172
0.043762
1.0949
0.0879581
1.03622
-0.0176153
0.994119
-0.0587909
1.05946
0.112046
1.09451
0.0881668
0.0292203
1.15058
0.00198612
-1.15088
1.14996
0.00156109
1.14921
0.00123488
1.14823
0.000875503
1.14705
0.000348001
1.14597
0.000440786
1.14459
-0.000370159
1.1438
0.000428408
1.14271
-0.000673945
1.14244
0.000627512
1.14229
-0.000381798
1.1422
0.000363819
1.1429
2.7651e-05
1.14177
-0.000950155
1.14139
-0.000968546
1.13942
-0.00161987
1.1361
-0.00368874
1.13512
0.00143909
1.13238
-0.00387759
1.13493
0.00933956
1.1382
0.00130945
1.14012
0.0125524
1.14391
0.00526607
1.14098
0.00849991
1.13442
0.00183756
1.13796
0.0147663
1.13397
0.00965956
1.13784
0.0110886
1.15287
0.0364456
1.1416
-0.0247149
1.132
0.0361023
1.15553
0.0202344
1.17775
0.065739
1.13549
0.0246451
1.10936
-0.0326669
1.16347
0.057939
1.18781
0.0638241
0.0363118
1.25291
0.00211441
-1.25304
1.25258
0.0018834
1.25217
0.00164961
1.25161
0.00143461
1.2509
0.00105796
1.25025
0.0010931
1.24937
0.00050441
1.24883
0.00096975
1.24806
0.000102437
1.24772
0.000964468
1.24737
-3.56777e-05
1.24701
0.000728759
1.24707
-3.07774e-05
1.24614
-2.12001e-05
1.24561
-0.000444363
1.24436
-0.000365566
1.24224
-0.00156505
1.24187
0.0018092
1.24005
-0.00206598
1.24176
0.00763121
1.24341
-0.000339047
1.24429
0.0116692
1.24672
0.00283893
1.24508
0.0101406
1.24151
0.0054036
1.24444
0.01184
1.2423
0.0118037
1.2441
0.00929002
1.25475
0.0257939
1.24713
-0.0171007
1.24418
0.0390586
1.25963
0.00477734
1.2724
0.0529701
1.24496
0.0520901
1.23167
-0.0193812
1.2706
0.0190083
1.28597
0.0484545
0.0407576
1.36508
0.00210493
-1.36507
1.36497
0.00199408
1.36479
0.00182558
1.36453
0.00170357
1.36415
0.00143618
1.3638
0.00144329
1.36328
0.00102434
1.36294
0.00130634
1.36241
0.000632233
1.36213
0.00124957
1.36175
0.000340256
1.36137
0.00110813
1.36114
0.000196274
1.36043
0.00069047
1.3599
8.28152e-05
1.35907
0.000471546
1.35774
-0.000240157
1.35762
0.00193368
1.35635
-0.00079721
1.35756
0.00641897
1.35811
-0.000885117
1.35885
0.0109284
1.36031
0.00137716
1.35962
0.0108291
1.35796
0.00706942
1.36007
0.00972418
1.35909
0.0127862
1.36051
0.0078656
1.36812
0.0181861
1.36234
-0.0113227
1.36377
0.0376278
1.37339
-0.00484135
1.38013
0.046228
1.36549
0.0667304
1.3596
-0.013488
1.38472
-0.00610804
1.39488
0.038291
0.042204
1.48789
0.00199213
-1.48778
1.48793
0.00195372
1.48794
0.00182111
1.48788
0.00175919
1.48775
0.00156194
1.48764
0.00156173
1.48739
0.00126639
1.48725
0.00144535
1.48694
0.000947454
1.48678
0.00141284
1.48647
0.000646841
1.48618
0.00139587
1.48589
0.000485171
1.48536
0.00122486
1.48491
0.000531503
1.48431
0.00106994
1.48345
0.000617535
1.48341
0.00197458
1.48247
0.00014783
1.48345
0.00543717
1.48342
-0.000859068
1.4842
0.0101518
1.48514
0.00043713
1.4849
0.011071
1.48465
0.00731891
1.48618
0.00818886
1.48596
0.0130136
1.48721
0.00661017
1.49265
0.012743
1.48814
-0.00680922
1.49249
0.0332773
1.49796
-0.0103134
1.50084
0.0433522
1.49616
0.0714124
1.4946
-0.0119255
1.50907
-0.0205788
1.51619
0.0311652
0.0411367
1.62228
0.00179222
-1.62208
1.62244
0.00179584
1.62259
0.001667
1.6227
0.00165079
1.62278
0.0014778
1.62286
0.00149104
1.62286
0.00126664
1.6229
0.00139687
1.6228
0.00104853
1.6228
0.00141324
1.6226
0.000847197
1.62247
0.00152289
1.62219
0.00077122
1.62183
0.00158631
1.62144
0.000921544
1.62095
0.00155354
1.62039
0.00118211
1.62031
0.00204994
1.61963
0.000835924
1.6205
0.00455921
1.62013
-0.000485994
1.62129
0.00899583
1.62172
5.21676e-07
1.62213
0.0106675
1.62267
0.00677366
1.62384
0.00702147
1.62419
0.0126611
1.62563
0.00516983
1.62909
0.00928447
1.62547
-0.00318635
1.63159
0.0271539
1.633
-0.011724
1.63564
0.0407127
1.63945
0.0676037
1.6385
-0.0109796
1.64418
-0.0262542
1.65
0.0253423
0.0378122
1.76923
0.00150922
-1.76895
1.7695
0.00152565
1.7698
0.00136548
1.77007
0.00138223
1.77037
0.0011785
1.77063
0.00123052
1.77089
0.00100936
1.77113
0.00115402
1.77127
0.000906947
1.77146
0.00122691
1.7714
0.000907099
1.77145
0.00147885
1.77117
0.00104883
1.77095
0.00180598
1.77054
0.00132866
1.77009
0.00200949
1.76969
0.00157734
1.76947
0.00227054
1.76906
0.00124094
1.76985
0.00377124
1.76937
-1.57009e-06
1.77107
0.00729224
1.77106
8.07718e-06
1.77216
0.00956853
1.77336
0.00557536
1.77406
0.00632273
1.77521
0.0115157
1.77679
0.00358495
1.77793
0.00814053
1.77537
-0.000617526
1.78275
0.0197703
1.7801
-0.00907608
1.78434
0.0364708
1.79538
0.0565672
1.7933
-0.00890268
1.79212
-0.025071
1.79755
0.0199072
0.0326716
1.93062
0.0011906
-1.9303
1.93095
0.00119456
1.9313
0.00102253
1.93162
0.0010614
1.93197
0.000823536
1.93226
0.000940136
1.9326
0.000673062
1.93285
0.000903749
1.93309
0.000661457
1.9333
0.00101897
1.93335
0.000857912
1.9335
0.00132806
1.9333
0.00125301
1.93332
0.00177908
1.93298
0.00167598
1.93276
0.00222599
1.93256
0.00177985
1.93223
0.00260345
1.93219
0.00127535
1.93262
0.00334632
1.93212
0.000492697
1.93443
0.00498471
1.93363
0.000811048
1.93634
0.00685231
1.93797
0.00394553
1.93837
0.00592807
1.9411
0.00878125
1.94201
0.00267461
1.9401
0.010057
1.93898
0.000500858
1.94541
0.0133341
1.93757
-0.00123777
1.94909
0.0249552
1.97039
0.035263
1.9632
-0.00170815
1.95032
-0.0121906
1.95486
0.0153684
0.0240849
2.10807
0.00093505
-2.10782
2.10832
0.000943955
2.1085
0.000843574
2.10868
0.000889392
2.10877
0.000729594
2.10886
0.000849804
2.10889
0.000644111
2.10893
0.000865336
2.10894
0.000650427
2.10899
0.000965602
2.10905
0.000803406
2.1092
0.00117075
2.10935
0.00110552
2.10966
0.00147389
2.10991
0.00141836
2.11027
0.0018649
2.11059
0.00146311
2.11086
0.00233976
2.11104
0.00108957
2.11149
0.0028933
2.11121
0.000780989
2.1128
0.00339438
2.11227
0.00133371
2.11489
0.00423569
2.11613
0.00270846
2.11729
0.00476551
2.12031
0.00576048
2.12033
0.00265245
2.12062
0.00976515
2.12016
0.000960902
2.12322
0.0102788
2.11877
0.00321264
2.13001
0.0137142
2.14839
0.0168844
2.14338
0.00330289
2.12903
0.00215508
2.13173
0.01267
0.0147476
2.30114
0.000679315
-2.30088
2.30138
0.000699614
2.30156
0.000670032
2.30174
0.000704241
2.30182
0.000648551
2.30196
0.00071407
2.30197
0.000629664
2.30209
0.000745689
2.30212
0.000628976
2.30227
0.000810213
2.30241
0.000662473
2.30267
0.000916158
2.30303
0.000744854
2.30344
0.00106021
2.304
0.000859867
2.30462
0.00124876
2.30513
0.000943718
2.30595
0.00152518
2.30614
0.000894694
2.30708
0.00196201
2.30707
0.000781957
2.30799
0.00248074
2.3083
0.00101952
2.30965
0.00289208
2.31034
0.00201284
2.31216
0.00294653
2.31403
0.00388652
2.31447
0.00221547
2.31822
0.00601386
2.31782
0.00136269
2.32036
0.00773816
2.32166
0.00191299
2.32642
0.00895869
2.33373
0.00956703
2.33476
0.00227794
2.3317
0.00521305
2.33478
0.00958961
0.00875759
2.51182
0.000354995
-2.5115
2.51216
0.000368903
2.51247
0.000356065
2.5128
0.000377489
2.51309
0.000351165
2.51342
0.000388369
2.5137
0.000346888
2.51404
0.000408754
2.51432
0.000350687
2.51468
0.00044366
2.51498
0.000369449
2.51539
0.000499048
2.51573
0.000407599
2.51621
0.000579518
2.51662
0.000455427
2.51718
0.000689024
2.51763
0.000488422
2.51832
0.000834031
2.51873
0.000487031
2.51968
0.00101471
2.51996
0.000496141
2.52124
0.00120634
2.52161
0.000643327
2.52311
0.00139695
2.52405
0.00107653
2.52551
0.00148089
2.5274
0.00199466
2.52844
0.00117673
2.53123
0.00322966
2.53166
0.000928636
2.53554
0.00385374
2.53593
0.00152633
2.54092
0.00396722
2.54668
0.00381414
2.54709
0.00186327
2.54819
0.00411451
2.55277
0.00501124
0.00396965
2.74321
-2.74286
2.74358
2.74394
2.74431
2.74466
2.74505
2.7454
2.74581
2.74616
2.7466
2.74697
2.74747
2.74788
2.74846
2.74891
2.7496
2.75009
2.75093
2.75141
2.75243
2.75292
2.75413
2.75477
2.75617
2.75725
2.75873
2.76072
2.7619
2.76513
2.76606
2.76991
2.77144
2.7754
2.77922
2.78108
2.7852
2.79021
0.434052
0.0437718
-0.42673
0.443159
0.0719788
0.450936
0.103201
0.46122
0.130433
0.47022
0.161371
0.482455
0.186683
0.496472
0.215712
0.241809
0.466084
0.0371891
-0.459501
0.473808
0.064255
0.481511
0.0954982
0.490273
0.121671
0.499912
0.151732
0.509329
0.177267
0.520993
0.204048
0.230773
0.501632
0.0315876
-0.49603
0.507669
0.0582183
0.514361
0.0888061
0.521313
0.114718
0.529281
0.143764
0.537041
0.169507
0.546654
0.194435
0.219118
0.539941
0.0267118
-0.535065
0.544716
0.0534435
0.550354
0.0831684
0.556029
0.109043
0.562897
0.136896
0.57096
0.161444
0.580054
0.185341
0.208921
0.581905
0.0228644
-0.578058
0.585844
0.0495044
0.590885
0.0781273
0.596458
0.10347
0.603138
0.130216
0.610409
0.154173
0.617831
0.177919
0.200247
0.628174
0.0196597
-0.624969
0.631758
0.0459204
0.636317
0.0735681
0.641211
0.0985759
0.646582
0.124846
0.652382
0.148373
0.659008
0.171293
0.192145
0.679078
0.0171028
-0.676521
0.682008
0.0429899
0.685639
0.0699367
0.68966
0.0945548
0.694467
0.120039
0.700496
0.142344
0.707155
0.164635
0.184755
0.734882
0.0152072
-0.732986
0.737335
0.0405366
0.740684
0.0665885
0.744782
0.0904564
0.749865
0.114955
0.755535
0.136674
0.761664
0.158506
0.17792
0.796733
0.0136817
-0.795207
0.799001
0.0382684
0.802267
0.0633223
0.80615
0.0865741
0.810864
0.110241
0.816086
0.131452
0.822316
0.152276
0.171078
0.864867
0.0124495
-0.863635
0.866901
0.0362351
0.869978
0.0602452
0.873697
0.0828547
0.878503
0.105436
0.884024
0.12593
0.890495
0.145805
0.164092
0.939805
0.0114269
-0.938782
0.941751
0.0342894
0.944849
0.0571468
0.948763
0.0789412
0.953829
0.10037
0.959591
0.120167
0.966269
0.139127
0.156729
1.02224
0.0105191
-1.02133
1.02421
0.0323149
1.02739
0.0539665
1.03152
0.0748084
1.03679
0.0951041
1.04289
0.114061
1.05
0.13202
0.148802
1.11269
0.00968536
-1.11185
1.11472
0.0302815
1.11803
0.0506622
1.12244
0.0703956