/*--------------------------------*- C++ -*----------------------------------*\
| =========                 |                                                 |
| \\      /  F ield         | OpenFOAM: The Open Source CFD Toolbox           |
|  \\    /   O peration     | Version:  2512                                  |
|   \\  /    A nd           | Website:  www.openfoam.com                      |
|    \\/     M anipulation  |                                                 |
\*---------------------------------------------------------------------------*/
FoamFile
{
    version     2.0;
    format      ascii;
    arch        "LSB;label=32;scalar=64";
    class       volVectorField;
    location    "5.6";
    object      U;
}
// * * * * * * * * * * * * * * * * * * * * * * * * * * * * * * * * * * * * * //

dimensions      [0 1 -1 0 0 0 0];

internalField   nonuniform List<vector> 
13248
(
(-0.0163363 0.0109162 5.26998e-20)
(-0.0411341 0.0304017 0)
(-0.0503631 0.0473466 -9.05121e-20)
(-0.037939 0.0611567 8.38075e-20)
(-1.55615e-05 0.0701177 7.63682e-20)
(0.0665336 0.0731866 0)
(0.164223 0.0707444 0)
(0.293828 0.0641864 1.80317e-19)
(0.452263 0.0550697 1.83975e-21)
(0.631158 0.0443207 -1.58447e-19)
(0.817327 0.0322461 1.51802e-19)
(0.995062 0.0186596 -9.4765e-20)
(1.14922 0.00320805 0)
(1.26829 -0.0142494 -1.6416e-19)
(1.34683 -0.0333048 3.01735e-19)
(1.38678 -0.0529591 -7.32831e-20)
(1.39651 -0.0719883 -1.17883e-19)
(1.38738 -0.0894031 1.09916e-19)
(1.369 -0.104437 0)
(1.34688 -0.117615 0)
(1.32333 -0.125785 0)
(1.29762 -0.138018 0)
(1.27352 -0.133701 2.39721e-20)
(1.24286 -0.156687 7.58673e-20)
(-0.0222403 0.0136447 -1.58228e-19)
(-0.0455258 0.027451 9.95296e-20)
(-0.0454805 0.0337238 -9.21393e-22)
(-0.0162861 0.0367757 -1.26717e-19)
(0.0472727 0.0376455 -7.62645e-20)
(0.149056 0.0367639 -7.09e-20)
(0.289497 0.0350443 -1.29403e-19)
(0.462809 0.0334464 1.20581e-19)
(0.656203 0.0322408 0)
(0.851966 0.0308244 -2.88386e-22)
(1.03158 0.0279921 -1.68325e-21)
(1.17987 0.0224784 9.14525e-20)
(1.28801 0.0135166 0)
(1.35488 0.00120009 0)
(1.38646 -0.013517 1.0333e-19)
(1.39308 -0.0292862 -1.93068e-19)
(1.38527 -0.0448007 1.08133e-19)
(1.37034 -0.0591916 -1.00824e-19)
(1.35191 -0.0718391 -4.13484e-20)
(1.33153 -0.0824819 -7.15742e-20)
(1.30975 -0.0912019 -2.58453e-20)
(1.28818 -0.0982635 -4.75854e-20)
(1.26581 -0.100537 7.41505e-20)
(1.24459 -0.110854 1.93874e-20)
(-0.0269413 0.0160502 0)
(-0.0439784 0.0271285 0)
(-0.0257107 0.0280505 4.55465e-20)
(0.0322348 0.0255281 4.12771e-20)
(0.134293 0.0227135 -9.10117e-22)
(0.281117 0.0215612 -7.32618e-20)
(0.465362 0.0232091 0)
(0.670334 0.0275814 -6.02881e-20)
(0.873767 0.0332463 5.61106e-20)
(1.05431 0.0379689 -5.65405e-22)
(1.19698 0.0396085 -9.57832e-20)
(1.29584 0.0368977 -8.70308e-20)
(1.35376 0.0297886 1.92938e-21)
(1.37983 0.0192763 -6.89792e-20)
(1.38516 0.00681294 1.66522e-19)
(1.379 -0.00624843 0)
(1.36693 -0.0189355 -1.00415e-19)
(1.35164 -0.030762 4.95662e-20)
(1.33454 -0.0411782 4.13066e-20)
(1.31631 -0.0508368 0)
(1.29807 -0.0577097 3.10769e-20)
(1.27908 -0.0657523 -9.98348e-20)
(1.2608 -0.0674083 9.32313e-20)
(1.24135 -0.0777915 5.26359e-20)
(-0.0285662 0.0161946 -5.47788e-20)
(-0.0334791 0.0245522 -5.23215e-20)
(0.0108958 0.0230246 4.69331e-20)
(0.106693 0.0188897 0)
(0.254695 0.0168256 0)
(0.447123 0.0195029 -1.48782e-21)
(0.663935 0.0272165 0)
(0.877624 0.0379127 -1.83109e-19)
(1.06301 0.0483039 1.68154e-19)
(1.20469 0.0553679 -2.05846e-19)
(1.29915 0.057407 4.72631e-20)
(1.35256 0.0543228 0)
(1.37613 0.0471948 7.51114e-20)
(1.38119 0.0375301 -1.37216e-19)
(1.37602 0.0266601 3.27745e-20)
(1.36539 0.0155085 7.99484e-20)
(1.35178 0.00459168 -5.1663e-21)
(1.3366 -0.00566688 -8.51438e-20)
(1.32052 -0.0152217 0)
(1.30413 -0.0235265 0)
(1.28729 -0.0307697 -2.77363e-20)
(1.27063 -0.037504 2.40971e-20)
(1.25396 -0.0401312 8.20016e-20)
(1.23744 -0.0504377 -7.65613e-20)
(-0.0263873 0.0139332 -5.72582e-20)
(-0.0123479 0.0182569 -5.31142e-20)
(0.0656608 0.0158641 1.46732e-19)
(0.206243 0.0137566 -8.83209e-20)
(0.402075 0.0171479 8.18092e-20)
(0.630957 0.0277284 1.47274e-19)
(0.859237 0.0431246 -1.02493e-19)
(1.05579 0.0588376 -1.22357e-19)
(1.20296 0.0708139 2.84082e-21)
(1.29851 0.07694 1.5346e-19)
(1.35108 0.0771727 0)
(1.37365 0.0727842 4.02851e-20)
(1.37806 0.0654061 0)
(1.37261 0.0563987 -6.39872e-20)
(1.36216 0.0466772 8.94779e-20)
(1.34933 0.0367948 1.36393e-21)
(1.33545 0.0271552 -2.22442e-20)
(1.32103 0.017958 4.14127e-20)
(1.30635 0.0095186 3.44069e-20)
(1.29139 0.00173516 -3.01287e-20)
(1.27649 -0.00503444 2.77234e-20)
(1.2616 -0.0113592 -2.40857e-20)
(1.24686 -0.0154692 0)
(1.23231 -0.0240757 -1.7226e-20)
(-0.0201212 0.0100893 5.72438e-20)
(0.0209211 0.00965624 5.54892e-20)
(0.140269 0.00843556 -4.91903e-20)
(0.329912 0.0125653 9.05737e-20)
(0.567804 0.0258909 -8.38925e-20)
(0.814345 0.0464057 7.4963e-20)
(1.02948 0.0681477 -3.54037e-20)
(1.1901 0.0855842 9.17704e-20)
(1.2932 0.0959841 -5.66159e-20)
(1.3491 0.0993778 9.77148e-20)
(1.37263 0.0973465 -2.21966e-19)
(1.377 0.0917814 7.98469e-20)
(1.37134 0.084193 -6.89556e-20)
(1.36102 0.0755734 6.41936e-20)
(1.34878 0.0665247 5.41421e-20)
(1.33576 0.0574344 4.65422e-20)
(1.32233 0.0485252 -1.27736e-19)
(1.30861 0.0400047 7.85708e-20)
(1.29466 0.0319253 -3.44015e-20)
(1.28068 0.0244836 8.69391e-20)
(1.26669 0.0176929 -2.80536e-20)
(1.25287 0.0114232 -6.49393e-20)
(1.23922 0.00682566 5.92519e-20)
(1.22599 -0.000993702 1.72205e-20)
(-0.00927488 0.00565601 0)
(0.0677856 0.00133963 5.86353e-22)
(0.235383 0.00464754 1.02913e-19)
(0.47305 0.0195425 -9.47062e-20)
(0.738169 0.0451966 -8.4471e-20)
(0.979144 0.0741772 1.54426e-19)
(1.16242 0.0985982 -7.06125e-20)
(1.28084 0.114452 9.18232e-20)
(1.34514 0.121615 -2.43548e-21)
(1.37228 0.122039 -5.02103e-20)
(1.37762 0.118071 1.0739e-19)
(1.37186 0.111573 -1.55957e-19)
(1.36124 0.103753 0)
(1.34875 0.0953123 -2.95214e-20)
(1.33562 0.0866468 -7.77563e-20)
(1.32225 0.0779817 2.4219e-20)
(1.30882 0.0694926 1.19251e-21)
(1.29541 0.0612896 -5.06719e-20)
(1.28212 0.0535149 3.96794e-21)
(1.26897 0.0462174 5.75308e-20)
(1.25603 0.0394315 -2.49743e-20)
(1.24333 0.0332866 -8.91944e-21)
(1.23084 0.0277737 2.8363e-20)
(1.21871 0.0208417 0)
(0.00689559 0.00146293 0)
(0.129121 -0.00406798 2.82732e-20)
(0.348882 0.00833224 -1.33614e-19)
(0.625884 0.0374292 4.80097e-20)
(0.897681 0.0745289 -4.44684e-20)
(1.11386 0.108113 -3.96718e-20)
(1.25734 0.13153 -6.84927e-20)
(1.33684 0.14386 3.40015e-20)
(1.37142 0.147367 2.8998e-20)
(1.37944 0.145073 0)
(1.37407 0.139461 6.28467e-20)
(1.363 0.132137 -9.17425e-20)
(1.34993 0.123989 6.77455e-20)
(1.33638 0.115474 2.95344e-20)
(1.32288 0.106833 -2.34986e-20)
(1.30958 0.0982349 -1.92252e-20)
(1.29649 0.0898005 -1.77595e-20)
(1.28361 0.0816424 5.32552e-20)
(1.2709 0.0738265 0)
(1.2584 0.0664227 2.55769e-20)
(1.24612 0.059514 2.07729e-20)
(1.23407 0.0530862 -5.20124e-20)
(1.22226 0.0471189 -3.43333e-20)
(1.21087 0.0409735 3.15936e-20)
(0.0290214 -0.00163057 -3.28954e-20)
(0.204434 -0.00402448 -1.29021e-21)
(0.475071 0.0222694 2.72665e-20)
(0.775985 0.0665034 7.50407e-20)
(1.03503 0.111603 2.10742e-20)
(1.2159 0.145654 -4.02275e-20)
(1.32021 0.165542 3.61903e-20)
(1.36802 0.173504 -3.09737e-20)
(1.38154 0.173429 5.40882e-20)
(1.37757 0.168743 2.25827e-20)
(1.36615 0.161711 -6.32332e-20)
(1.35225 0.153573 1.84311e-20)
(1.33792 0.144933 3.08891e-20)
(1.32382 0.13609 -1.5109e-20)
(1.3101 0.12722 0)
(1.29676 0.118443 2.18883e-20)
(1.28376 0.109859 3.63057e-20)
(1.27109 0.101544 5.86579e-21)
(1.25878 0.0935697 -2.96103e-20)
(1.24682 0.0859984 1.2144e-20)
(1.23521 0.0788587 0)
(1.22393 0.0721658 -9.22289e-21)
(1.21296 0.0657623 -8.52113e-21)
(1.20228 0.0599523 0)
(0.0572406 -0.00269563 0)
(0.291339 0.00373329 1.59783e-20)
(0.605524 0.0477024 2.92535e-20)
(0.912567 0.105288 -7.64685e-20)
(1.14539 0.154051 2.43443e-20)
(1.28821 0.185286 0)
(1.35839 0.20018 3.42182e-20)
(1.38223 0.203542 -4.70135e-20)
(1.38162 0.200141 -2.68891e-20)
(1.37039 0.193309 1.20072e-20)
(1.35558 0.184904 -1.86625e-20)
(1.34016 0.17582 4.50324e-20)
(1.32513 0.166467 2.22173e-20)
(1.31071 0.157045 -1.54055e-20)
(1.2969 0.147677 -1.52539e-21)
(1.28366 0.13846 -4.08087e-20)
(1.27095 0.129473 1.83942e-20)
(1.25872 0.120784 -4.54863e-22)
(1.24692 0.112448 0)
(1.23552 0.104516 -1.21559e-20)
(1.22447 0.0970281 0)
(1.21375 0.089916 2.65217e-20)
(1.20334 0.083224 -3.11654e-20)
(1.1932 0.0776349 1.40246e-20)
(0.0910764 -0.00073629 -9.16692e-21)
(0.385615 0.0209637 -4.07497e-20)
(0.73124 0.0843695 4.56933e-20)
(1.02889 0.151735 2.60435e-20)
(1.22863 0.200121 -1.23548e-20)
(1.33553 0.226261 1.96763e-20)
(1.37805 0.235446 -9.5171e-21)
(1.38466 0.234284 1.52712e-20)
(1.37492 0.227788 0)
(1.35938 0.218899 3.33193e-20)
(1.34267 0.20904 -1.4019e-21)
(1.32641 0.198829 -2.62369e-20)
(1.31098 0.188538 1.10976e-20)
(1.29641 0.178306 -1.23496e-20)
(1.28262 0.168232 -4.60855e-21)
(1.2695 0.158391 5.33108e-21)
(1.257 0.148847 -4.05029e-21)
(1.24507 0.139652 -2.16408e-20)
(1.23367 0.130848 1.31604e-20)
(1.22278 0.122482 2.65264e-21)
(1.21233 0.114549 2.30363e-21)
(1.2023 0.107002 2.00018e-21)
(1.1926 0.100022 0)
(1.18314 0.0941819 0)
(0.12946 0.0052089 9.17804e-21)
(0.481866 0.0486187 -8.49902e-21)
(0.844828 0.13099 -1.52705e-20)
(1.12201 0.203927 0)
(1.28689 0.248671 -6.08559e-21)
(1.36238 0.268262 -5.28709e-21)
(1.38357 0.271463 -8.74916e-21)
(1.37826 0.265919 0)
(1.3628 0.256433 0)
(1.34479 0.245431 0)
(1.32706 0.233941 0)
(1.31037 0.222375 0)
(1.2948 0.210915 -6.95896e-21)
(1.28025 0.199656 3.13797e-21)
(1.2666 0.188667 5.38762e-21)
(1.25377 0.178003 2.49276e-21)
(1.24167 0.167712 6.08937e-21)
(1.23023 0.157833 0)
(1.21941 0.1484 -1.41939e-21)
(1.20912 0.139443 -1.33255e-21)
(1.19931 0.130951 -2.30725e-21)
(1.18991 0.122894 -2.00332e-21)
(1.18086 0.115576 0)
(1.1721 0.109306 1.39107e-21)
(-0.0206189 0.00567396 4.63687e-21)
(-0.0843306 0.00896534 -4.58435e-21)
(-0.176348 0.00814651 -8.84571e-21)
(-0.266299 0.00626601 0)
(-0.349684 0.00435522 -1.30374e-20)
(-0.4276 0.00258901 4.10359e-21)
(-0.499564 0.000945558 -8.64073e-21)
(-0.564862 -0.000625688 0)
(-0.622631 -0.00217261 0)
(-0.671903 -0.00374101 0)
(-0.711655 -0.0053763 0)
(-0.740842 -0.00712308 0)
(-0.758403 -0.00902067 -1.3051e-22)
(-0.763334 -0.0111015 -6.77396e-21)
(-0.754849 -0.0134026 1.23687e-20)
(-0.732452 -0.0159175 1.60049e-20)
(-0.696016 -0.0183825 4.55755e-21)
(-0.645533 -0.0210967 0)
(-0.581222 -0.0239457 2.63479e-21)
(-0.503829 -0.0267733 -7.01975e-21)
(-0.414843 -0.0293566 -3.15511e-21)
(-0.316752 -0.0314597 -1.93062e-21)
(-0.212059 -0.0328696 0)
(-0.100497 -0.0337204 0)
(-0.023917 0.0602254 -1.42273e-20)
(-0.0867225 0.105746 2.30329e-20)
(-0.174141 0.115311 -8.7002e-21)
(-0.259274 0.11245 -1.81253e-20)
(-0.337913 0.106485 2.53985e-20)
(-0.410941 0.0995063 -1.80704e-20)
(-0.477772 0.0914468 2.53945e-20)
(-0.537618 0.0819718 1.78089e-20)
(-0.589595 0.0708273 0)
(-0.63275 0.0578441 -1.74094e-20)
(-0.666128 0.0429293 -1.25277e-21)
(-0.688794 0.0260576 1.49769e-20)
(-0.699841 0.00726326 2.28249e-20)
(-0.698459 -0.0133563 2.73727e-20)
(-0.683987 -0.0356264 -1.33503e-20)
(-0.655591 -0.0593903 -3.3686e-20)
(-0.613919 -0.084698 8.75795e-21)
(-0.559273 -0.110742 -3.37731e-20)
(-0.491513 -0.136565 0)
(-0.411453 -0.160837 4.5549e-21)
(-0.320545 -0.181992 3.15012e-21)
(-0.22118 -0.198506 1.92757e-21)
(-0.118052 -0.208877 0)
(-0.00635682 -0.216397 0)
(-0.0296113 0.104948 0)
(-0.0891899 0.190415 5.02519e-20)
(-0.165434 0.21291 -1.86142e-20)
(-0.238926 0.211265 1.90464e-20)
(-0.306067 0.202507 -5.41467e-20)
(-0.367255 0.191218 0)
(-0.421724 0.177633 -3.77415e-20)
(-0.46858 0.161258 1.72504e-20)
(-0.506924 0.141693 -3.70283e-20)
(-0.535872 0.118702 1.91027e-20)
(-0.554622 0.0921923 1.06244e-19)
(-0.5625 0.0622066 -4.93856e-20)
(-0.558929 0.0288907 -7.88452e-20)
(-0.543393 -0.00758039 -3.01183e-20)
(-0.515884 -0.0470502 1.49517e-21)
(-0.477459 -0.0892641 9.6426e-20)
(-0.427421 -0.134438 -4.37859e-20)
(-0.365426 -0.181159 -2.2841e-21)
(-0.292341 -0.227961 0)
(-0.208869 -0.272336 -2.54787e-20)
(-0.116814 -0.311048 0)
(-0.0173547 -0.340737 -5.7943e-21)
(0.0795908 -0.358896 2.91837e-20)
(0.189088 -0.371513 -5.85802e-21)
(-0.0357634 0.133409 0)
(-0.0905617 0.25384 1.57236e-21)
(-0.150864 0.293128 2.09841e-20)
(-0.207394 0.296513 -2.14733e-20)
(-0.257695 0.287169 1.632e-20)
(-0.301566 0.272954 1.16261e-19)
(-0.337999 0.255069 -3.69351e-20)
(-0.36598 0.233102 -3.89135e-20)
(-0.384622 0.206622 7.55742e-20)
(-0.39318 0.175419 -1.13055e-19)
(-0.391121 0.139507 3.56193e-20)
(-0.378167 0.099102 3.5901e-20)
(-0.354372 0.0545546 0)
(-0.320165 0.00619663 3.05244e-20)
(-0.275956 -0.045774 0)
(-0.223447 -0.101628 5.43963e-20)
(-0.162557 -0.160222 -9.0772e-20)
(-0.0931534 -0.221445 2.61764e-20)
(-0.0159046 -0.283887 7.2366e-20)
(0.0689404 -0.343857 2.54442e-20)
(0.159225 -0.397554 0)
(0.254357 -0.438329 -4.08831e-20)
(0.338208 -0.463827 1.32211e-20)
(0.438281 -0.476457 0)
(-0.0401734 0.142323 0)
(-0.0896389 0.28909 -6.83535e-20)
(-0.131788 0.348867 -2.24533e-20)
(-0.16825 0.362276 -4.27818e-20)
(-0.198431 0.355562 3.96431e-20)
(-0.22172 0.34029 -3.92912e-20)
(-0.236893 0.31955 8.25135e-20)
(-0.242871 0.293483 4.41089e-20)
(-0.238871 0.2618 -1.1454e-19)
(-0.224419 0.224434 7.92323e-20)
(-0.199385 0.181627 -1.12774e-19)
(-0.16404 0.133894 2.56816e-19)
(-0.119108 0.08188 -1.37634e-19)
(-0.0657814 0.0261763 6.59328e-20)
(-0.00623412 -0.0327613 1.8251e-19)
(0.059019 -0.0946492 -5.7432e-20)
(0.130334 -0.159298 -5.53463e-20)
(0.206757 -0.227574 -4.62249e-20)
(0.288483 -0.298971 0)
(0.374732 -0.368449 -5.8161e-20)
(0.460838 -0.432704 -3.63937e-20)
(0.547799 -0.480108 6.47686e-20)
(0.615187 -0.51202 4.4709e-20)
(0.696148 -0.519771 -4.39524e-20)
(-0.0410229 0.132808 0)
(-0.0853486 0.292954 -9.75175e-20)
(-0.110288 0.374237 -2.79207e-21)
(-0.126337 0.402836 8.51801e-20)
(-0.135428 0.40307 0)
(-0.137253 0.389303 0)
(-0.130639 0.36731 0)
(-0.114576 0.338586 -4.2916e-20)
(-0.0884921 0.303364 -4.57508e-21)
(-0.0522915 0.261832 7.56732e-20)
(-0.00636995 0.214447 -1.17572e-19)
(0.0483283 0.161937 -1.5239e-21)
(0.110168 0.105113 0)
(0.177556 0.045338 -6.58751e-20)
(0.248494 -0.0164421 6.08864e-20)
(0.322041 -0.0797815 -1.69596e-19)
(0.398816 -0.146364 2.0084e-19)
(0.479993 -0.217089 3.72057e-20)
(0.565649 -0.292371 -1.37995e-20)
(0.654132 -0.365735 -1.39247e-19)
(0.737421 -0.434495 -5.35862e-20)
(0.813693 -0.48134 1.36803e-19)
(0.863351 -0.51455 -8.71694e-20)
(0.917381 -0.51331 0)
(-0.0378326 0.10983 5.33853e-20)
(-0.0774148 0.267019 4.89566e-20)
(-0.088734 0.365634 -4.64887e-20)
(-0.0869404 0.412537 -8.95892e-20)
(-0.0764502 0.424605 8.3005e-20)
(-0.0580377 0.416151 -8.45132e-20)
(-0.0311592 0.395286 1.17963e-19)
(0.00484721 0.365569 -4.37447e-20)
(0.0501871 0.3284 7.54646e-20)
(0.104438 0.284513 0)
(0.16654 0.234636 7.52282e-20)
(0.234679 0.1795 -1.36242e-19)
(0.307037 0.120772 1.36475e-19)
(0.381989 0.0601578 -1.27029e-19)
(0.458038 -0.00199814 0)
(0.53586 -0.0662779 1.09288e-19)
(0.617955 -0.134376 1.93594e-19)
(0.706598 -0.2068 -1.82172e-19)
(0.799823 -0.283494 -7.57214e-20)
(0.891756 -0.355374 -5.91849e-20)
(0.970031 -0.420225 1.68685e-19)
(1.03019 -0.458664 3.54303e-20)
(1.05798 -0.485879 -4.05449e-20)
(1.0797 -0.473471 2.432e-20)
(-0.031358 0.0807271 -5.33982e-20)
(-0.0663507 0.219159 1.51113e-19)
(-0.0694916 0.324598 -4.6715e-20)
(-0.0553103 0.38729 8.8739e-20)
(-0.0294981 0.41381 -8.22123e-20)
(0.00575421 0.414797 -3.44551e-21)
(0.0497024 0.398668 3.64284e-20)
(0.102075 0.370597 1.50795e-19)
(0.162363 0.333468 6.90663e-21)
(0.229496 0.289022 -7.11358e-20)
(0.301716 0.238379 0)
(0.377145 0.183353 -6.63059e-20)
(0.454606 0.125889 1.25769e-19)
(0.533278 0.0663914 1.20781e-19)
(0.614435 0.0045154 -5.80997e-20)
(0.701488 -0.0605661 -3.2586e-21)
(0.797245 -0.129859 -4.86677e-20)
(0.900523 -0.202262 8.17388e-20)
(1.00292 -0.275133 7.57201e-20)
(1.09276 -0.338365 -6.41745e-20)
(1.1559 -0.390736 5.00301e-20)
(1.19041 -0.415305 -4.02891e-20)
(1.1907 -0.432765 0)
(1.18098 -0.411925 -2.43312e-20)
(-0.0234 0.0528035 5.39887e-20)
(-0.0537518 0.162152 -5.03928e-20)
(-0.0543538 0.260605 4.61878e-20)
(-0.0350118 0.3298 0)
(-0.000823857 0.367421 0)
(0.0451062 0.378592 7.46242e-20)
(0.100608 0.369739 -7.23748e-20)
(0.164044 0.346177 7.12526e-20)
(0.23385 0.31176 -3.39732e-19)
(0.308283 0.269117 -2.72389e-21)
(0.385878 0.220793 6.13464e-20)
(0.466286 0.168998 0)
(0.550158 0.114248 -1.18819e-19)
(0.640043 0.0564086 2.22679e-19)
(0.739487 -0.00462666 -1.58757e-19)
(0.850054 -0.069061 -2.42147e-19)
(0.968268 -0.135671 5.83277e-21)
(1.08413 -0.201616 1.54866e-19)
(1.18309 -0.262055 0)
(1.25263 -0.309583 0)
(1.28482 -0.344481 -5.00513e-20)
(1.28623 -0.355633 4.03082e-20)
(1.26013 -0.36573 -1.15453e-19)
(1.22988 -0.343006 1.0768e-19)
(-0.0162288 0.0309782 0)
(-0.042451 0.108931 0)
(-0.044814 0.189036 -1.38036e-19)
(-0.0269415 0.252513 4.22926e-20)
(0.00803137 0.292376 -3.42954e-22)
(0.0570047 0.309042 7.01244e-20)
(0.116958 0.306082 0)
(0.185304 0.287801 -6.41064e-20)
(0.260061 0.258152 6.58916e-20)
(0.340458 0.220645 -1.19375e-19)
(0.427287 0.177971 -2.82647e-21)
(0.522839 0.131131 1.14965e-19)
(0.630234 0.080666 2.74282e-21)
(0.751264 0.0270864 1.05079e-19)
(0.883793 -0.0287784 -1.46388e-19)
(1.0201 -0.0857981 0)
(1.14767 -0.141142 1.58549e-19)
(1.25161 -0.192208 -2.23267e-19)
(1.32044 -0.234197 5.9521e-20)
(1.35002 -0.265056 0)
(1.34535 -0.284924 4.26036e-20)
(1.32018 -0.2898 1.37593e-19)
(1.28168 -0.298223 -1.28497e-19)
(1.24765 -0.279125 -1.12962e-19)
(-0.0120048 0.0171637 1.59143e-19)
(-0.0358804 0.0679978 -1.99589e-19)
(-0.0423238 0.124608 9.67775e-22)
(-0.0297254 0.172944 4.20246e-20)
(0.00111372 0.205664 -7.63372e-20)
(0.0480877 0.220822 -7.22471e-20)
(0.108768 0.219873 1.33248e-19)
(0.18157 0.205949 5.39431e-21)
(0.266572 0.182504 -1.17138e-19)
(0.365454 0.152405 2.30515e-19)
(0.480767 0.117404 7.19548e-21)
(0.613603 0.0787416 -1.03753e-19)
(0.761393 0.037479 0)
(0.916723 -0.00542625 0)
(1.06778 -0.0487767 -4.65715e-20)
(1.20044 -0.09118 -7.83022e-20)
(1.30164 -0.130296 -1.43767e-19)
(1.36313 -0.16473 1.34036e-19)
(1.38559 -0.19115 -5.95865e-20)
(1.37681 -0.211672 9.20255e-20)
(1.35052 -0.223597 -5.12268e-20)
(1.31753 -0.23048 5.68104e-20)
(1.28284 -0.238518 -1.47859e-19)
(1.25419 -0.225261 2.3717e-20)
(-0.0121416 0.0110736 5.29563e-20)
(-0.036074 0.042303 0)
(-0.0462113 0.0764666 9.04667e-20)
(-0.0377736 0.106314 -8.37635e-20)
(-0.00924331 0.126901 7.64511e-20)
(0.039623 0.136183 0)
(0.109178 0.134716 0)
(0.200609 0.124456 -6.04404e-20)
(0.315507 0.107789 -2.65903e-21)
(0.454137 0.0866948 5.17764e-20)
(0.613098 0.0625655 -5.23934e-20)
(0.784302 0.0363568 9.85415e-20)
(0.955535 0.00868254 0)
(1.11245 -0.0199639 1.77382e-19)
(1.24142 -0.0489399 -3.27685e-19)
(1.3327 -0.0772506 2.29801e-19)
(1.38319 -0.103467 1.29881e-19)
(1.39776 -0.12664 -1.21099e-19)
(1.38747 -0.145085 0)
(1.36378 -0.161321 0)
(1.33641 -0.170286 0)
(1.3071 -0.18172 0)
(1.27965 -0.184387 2.74311e-20)
(1.2541 -0.181561 -8.40148e-20)
(0.0225954 -0.0276372 6.1123e-22)
(0.148432 -0.0197248 -6.04907e-22)
(0.264281 -0.0129525 2.86766e-23)
(0.367893 -0.0071284 0)
(0.459027 -0.00216629 9.92212e-22)
(0.538096 0.00203449 -1.883e-21)
(0.605974 0.00559792 6.1748e-23)
(0.663902 0.00858294 8.07118e-22)
(0.71321 0.0110829 0)
(0.755056 0.0132179 0)
(0.790388 0.0150961 3.25471e-23)
(0.820129 0.0167248 2.84107e-23)
(0.845093 0.0180669 4.03261e-22)
(0.865962 0.019236 -3.67551e-22)
(0.883401 0.0202244 0)
(0.897981 0.0211061 0)
(0.910184 0.0219446 -2.2414e-22)
(0.920467 0.0226852 1.94991e-23)
(0.929231 0.0232887 1.81024e-22)
(0.936792 0.0238004 1.02039e-23)
(0.943398 0.0243084 0)
(0.94923 0.0248777 0)
(0.954415 0.0255303 0)
(0.95904 0.0262569 0)
(0.963171 0.0270367 0)
(0.966862 0.0278516 0)
(0.970164 0.0286934 -2.85581e-23)
(0.973122 0.0295616 4.64505e-23)
(0.975778 0.03046 0)
(0.978168 0.0313945 0)
(0.980322 0.0323715 2.75808e-23)
(0.98227 0.0333977 -2.67997e-23)
(0.984033 0.0344798 -1.21495e-23)
(0.985633 0.0356246 0)
(0.987088 0.0368392 0)
(0.988412 0.0381311 -1.93601e-23)
(0.989619 0.0395076 1.88165e-23)
(0.990723 0.0409764 0)
(0.991732 0.0425454 -1.60262e-23)
(0.992657 0.0442232 2.32453e-23)
(0.993506 0.0460198 -7.21718e-24)
(0.994287 0.0479457 0)
(0.995007 0.050012 1.25933e-23)
(0.995673 0.0522311 -1.22451e-23)
(0.99629 0.0546163 0)
(0.996863 0.057182 0)
(0.997399 0.0599432 4.88819e-24)
(0.9979 0.0629206 -1.40739e-23)
(0.998376 0.0661181 0)
(0.998818 0.0696031 0)
(0.999259 0.0732494 3.57387e-24)
(0.999649 0.0774964 7.04643e-27)
(1.00008 0.0812821 2.58236e-25)
(1.00043 0.0871991 -2.54454e-24)
(1.00085 0.0898022 0)
(1.00121 0.0994481 0)
(1.00158 0.099148 0)
(1.00199 0.112926 0)
(1.00231 0.112005 0)
(1.0028 0.126573 0)
(0.109925 -0.195405 1.82283e-23)
(0.224784 -0.166845 3.14219e-21)
(0.328522 -0.139889 6.61085e-22)
(0.421145 -0.114745 -3.57727e-21)
(0.50233 -0.09207 -5.65298e-23)
(0.572699 -0.072607 0)
(0.633139 -0.056218 3.19881e-21)
(0.684726 -0.0424912 -6.06051e-21)
(0.728735 -0.0310299 2.86206e-21)
(0.766379 -0.0214518 -2.25733e-21)
(0.798589 -0.0134025 2.15944e-21)
(0.825976 -0.00663147 -1.69769e-21)
(0.849181 -0.0010307 1.65043e-21)
(0.868754 0.00359478 4.29432e-23)
(0.885211 0.0076001 1.15791e-21)
(0.899168 0.0110863 -1.12452e-21)
(0.911034 0.0138724 8.98544e-22)
(0.921111 0.0160832 -8.46789e-22)
(0.929725 0.0178354 7.17371e-22)
(0.93718 0.0192395 -1.32485e-21)
(0.943719 0.0204414 6.10971e-22)
(0.949513 0.0215644 3.27402e-23)
(0.954683 0.0226747 4.54681e-22)
(0.959309 0.0237895 -8.52517e-22)
(0.963451 0.0249022 3.99104e-22)
(0.967161 0.0260033 -2.18601e-23)
(0.970484 0.0270906 -3.1928e-22)
(0.973464 0.0281687 8.14757e-24)
(0.976141 0.0292465 5.35446e-22)
(0.978552 0.0303345 -4.92662e-22)
(0.980727 0.0314433 2.33011e-22)
(0.982695 0.0325831 -2.62867e-23)
(0.984479 0.0337631 1.21751e-23)
(0.9861 0.0349926 -2.27102e-23)
(0.987576 0.0362805 0)
(0.988922 0.0376359 0)
(0.990152 0.0390675 7.28832e-23)
(0.991278 0.0405849 -5.34284e-23)
(0.992311 0.0421971 -4.79714e-23)
(0.99326 0.0439131 -5.67763e-24)
(0.994135 0.0457431 6.60654e-23)
(0.994943 0.0476981 -1.36352e-23)
(0.995691 0.0497901 0)
(0.996386 0.0520318 0)
(0.997033 0.0544369 0)
(0.997639 0.0570202 0)
(0.998209 0.0597968 -1.99955e-23)
(0.998745 0.0627875 9.32923e-24)
(0.999259 0.0659966 0)
(0.99974 0.0694921 0)
(1.00022 0.0731456 0)
(1.00065 0.0774031 6.24451e-24)
(1.00113 0.081188 -4.84565e-25)
(1.00152 0.0871224 5.36311e-24)
(1.002 0.0897113 0)
(1.00238 0.0993801 0)
(1.00283 0.0990693 -2.74048e-24)
(1.00327 0.112849 -6.50504e-24)
(1.00363 0.111938 0)
(1.00419 0.126507 0)
(0.286213 -0.340404 -4.43078e-21)
(0.375728 -0.295681 1.2381e-21)
(0.454897 -0.251206 -6.08981e-21)
(0.526299 -0.208778 5.70926e-21)
(0.58865 -0.170024 5.69346e-23)
(0.642217 -0.136444 0)
(0.688357 -0.108606 6.1161e-21)
(0.728002 -0.0857616 -5.97361e-21)
(0.762036 -0.0669031 -4.12217e-23)
(0.791414 -0.0512132 -6.864e-23)
(0.81691 -0.0381433 -6.10981e-23)
(0.83906 -0.0272819 -5.6304e-23)
(0.858304 -0.018249 2.97561e-21)
(0.875155 -0.0107489 -2.93277e-21)
(0.889894 -0.00441923 0)
(0.902475 0.000936165 -6.56909e-23)
(0.913239 0.00557026 1.79479e-21)
(0.92265 0.00934098 -1.76902e-21)
(0.930856 0.0122322 0)
(0.93803 0.0145225 0)
(0.944373 0.0164263 1.16717e-21)
(0.950039 0.0181122 -2.17921e-21)
(0.955128 0.0196893 1.90113e-21)
(0.959708 0.0212031 -8.82486e-23)
(0.963827 0.0226611 -1.52932e-21)
(0.967528 0.0240613 1.43321e-21)
(0.970853 0.0254065 -1.24601e-21)
(0.973841 0.0267052 7.13161e-23)
(0.97653 0.0279711 5.54311e-22)
(0.978954 0.0292194 0)
(0.981145 0.0304651 0)
(0.983129 0.0317221 -1.54022e-22)
(0.98493 0.0330031 2.0102e-22)
(0.98657 0.0343199 -4.01718e-26)
(0.988065 0.0356833 -1.67252e-22)
(0.989431 0.0371042 1.62515e-22)
(0.990683 0.0385924 0)
(0.991831 0.0401586 -1.74819e-23)
(0.992887 0.0418133 -1.45817e-22)
(0.993861 0.0435673 2.78416e-22)
(0.994761 0.0454311 -1.18305e-22)
(0.995595 0.0474157 -1.37268e-23)
(0.996371 0.0495334 1.27324e-22)
(0.997095 0.0517979 -9.86864e-23)
(0.997773 0.0542232 -2.28302e-23)
(0.998411 0.0568242 -2.14317e-23)
(0.999015 0.0596165 2.00489e-23)
(0.999587 0.0626213 0)
(1.00014 0.0658425 0)
(1.00066 0.0693494 6.36578e-23)
(1.00118 0.0730114 -3.05218e-23)
(1.00166 0.0772806 2.70147e-23)
(1.00218 0.0810667 -3.64863e-23)
(1.00261 0.0870192 -4.18924e-23)
(1.00315 0.0895979 9.82505e-24)
(1.00356 0.0992902 -1.55773e-23)
(1.00408 0.0989716 1.24151e-23)
(1.00454 0.112759 -5.33786e-24)
(1.00494 0.111855 0)
(1.00558 0.126436 0)
(0.502898 -0.445644 -4.85104e-21)
(0.556255 -0.393922 7.53267e-21)
(0.601505 -0.337961 -2.63602e-21)
(0.644445 -0.28294 8.68024e-23)
(0.683515 -0.232396 0)
(0.717583 -0.188086 0)
(0.747442 -0.150797 1.08067e-20)
(0.774139 -0.120382 -3.37997e-22)
(0.797912 -0.0956791 -1.43351e-20)
(0.818993 -0.0753984 3.87624e-22)
(0.837777 -0.0585617 4.05261e-21)
(0.854599 -0.0445156 3.16536e-21)
(0.869717 -0.0327964 -3.17335e-21)
(0.883303 -0.0230218 0)
(0.895502 -0.0149221 2.27139e-21)
(0.906586 -0.00812583 -2.0744e-21)
(0.916467 -0.00230095 0)
(0.924998 0.00265073 0)
(0.932536 0.00670755 -1.41686e-21)
(0.939304 0.00984742 1.0882e-22)
(0.945364 0.0124078 1.19337e-21)
(0.950824 0.0146291 1.0549e-21)
(0.955771 0.0166547 -1.05168e-21)
(0.960256 0.0185554 8.60762e-22)
(0.964314 0.0203528 -7.74945e-23)
(0.967979 0.0220516 -7.34842e-22)
(0.971283 0.0236571 -8.09162e-23)
(0.974262 0.0251806 6.08096e-27)
(0.976949 0.026639 0)
(0.979378 0.0280517 -4.87747e-22)
(0.981577 0.0294376 5.02601e-22)
(0.983572 0.0308144 -2.66762e-23)
(0.985387 0.032198 0)
(0.987042 0.0336032 2.30334e-23)
(0.988555 0.0350434 -3.37541e-22)
(0.989939 0.0365309 6.03438e-22)
(0.991211 0.0380774 2.6781e-23)
(0.99238 0.039694 -9.78824e-24)
(0.993459 0.0413919 -2.36606e-22)
(0.994456 0.0431832 -3.11313e-23)
(0.995381 0.0450802 2.30874e-22)
(0.996241 0.0470944 -1.96779e-22)
(0.997044 0.0492383 4.17134e-26)
(0.997797 0.0515256 -9.61205e-23)
(0.998506 0.0539709 1.16358e-22)
(0.999176 0.0565899 1.49277e-22)
(0.999814 0.0593981 -4.18707e-23)
(1.00042 0.0624172 -7.37293e-23)
(1.00101 0.0656511 1.40059e-22)
(1.00157 0.0691702 -9.88614e-23)
(1.00213 0.0728414 2.78752e-23)
(1.00265 0.0771235 -3.09366e-23)
(1.00322 0.0809129 -2.63978e-23)
(1.00369 0.0868844 6.35987e-23)
(1.00429 0.0894568 -1.16626e-24)
(1.00473 0.099174 1.56804e-23)
(1.00533 0.0988508 0)
(1.00582 0.112653 5.42527e-24)
(1.00626 0.111754 -7.59039e-24)
(1.00697 0.126357 0)
(0.722957 -0.496803 1.25992e-20)
(0.738534 -0.448963 -1.61585e-20)
(0.747192 -0.391079 3.80358e-21)
(0.758253 -0.331493 -5.77229e-21)
(0.771756 -0.275687 1.33806e-20)
(0.786091 -0.226254 1.06928e-21)
(0.800333 -0.183733 -8.45921e-21)
(0.814572 -0.148107 -8.64785e-21)
(0.828938 -0.118993 8.46562e-21)
(0.842982 -0.095272 0)
(0.856331 -0.0756948 6.875e-21)
(0.868848 -0.05936 -1.28774e-20)
(0.880531 -0.0457018 6.03021e-21)
(0.891458 -0.0342898 0)
(0.901661 -0.0246651 0)
(0.911078 -0.0164406 -6.56462e-23)
(0.919803 -0.00955099 3.54637e-21)
(0.927783 -0.00377769 -3.44301e-21)
(0.934769 0.00112132 0)
(0.940976 0.00517807 -2.62136e-21)
(0.946671 0.00840401 4.74937e-21)
(0.951868 0.0111423 -4.27464e-21)
(0.956617 0.0136024 3.91669e-21)
(0.960958 0.0158795 -1.21085e-22)
(0.964917 0.0180084 -3.21304e-21)
(0.968514 0.0200008 1.52954e-21)
(0.971775 0.0218646 4.09465e-23)
(0.974726 0.0236124 5.45482e-22)
(0.977399 0.025264 -3.03508e-23)
(0.979821 0.0268424 -5.20161e-22)
(0.982021 0.0283701 -2.91789e-23)
(0.984022 0.029868 4.22819e-22)
(0.985847 0.0313554 -8.03428e-22)
(0.987515 0.0328496 4.28157e-22)
(0.989042 0.0343667 0)
(0.990444 0.0359209 3.59944e-22)
(0.991734 0.0375256 -3.48153e-22)
(0.992923 0.0391935 2.44976e-22)
(0.994023 0.040936 -3.0607e-22)
(0.995043 0.0427654 3.14999e-23)
(0.995993 0.0446949 0)
(0.996879 0.0467379 2.78733e-23)
(0.997709 0.0489077 -7.86266e-23)
(0.998491 0.051218 0)
(0.999231 0.0536834 -2.28371e-22)
(0.999933 0.0563202 8.9995e-23)
(1.0006 0.0591443 -4.06145e-23)
(1.00125 0.0621778 -3.79697e-23)
(1.00187 0.0654245 0)
(1.00248 0.0689563 0)
(1.00308 0.0726374 8.79187e-23)
(1.00364 0.0769331 -1.3614e-22)
(1.00425 0.0807272 7.55539e-23)
(1.00477 0.0867185 -2.40356e-23)
(1.00543 0.0892881 -3.98861e-23)
(1.00589 0.099031 -1.56973e-23)
(1.00657 0.0987061 2.5138e-23)
(1.00709 0.11253 0)
(1.00757 0.111634 1.21775e-23)
(1.00836 0.12627 2.82721e-24)
(0.910087 -0.498847 1.91609e-20)
(0.894846 -0.461055 -1.88785e-20)
(0.874388 -0.409585 2.55708e-23)
(0.858155 -0.353684 -2.43161e-23)
(0.848973 -0.299682 -3.90051e-23)
(0.845642 -0.2506 5.26239e-23)
(0.846578 -0.207443 -7.61589e-23)
(0.85034 -0.170193 0)
(0.856179 -0.13864 9.50958e-23)
(0.86378 -0.11245 -9.57046e-23)
(0.872454 -0.0907995 -9.27659e-23)
(0.881498 -0.0727032 9.7831e-23)
(0.890471 -0.0574602 0)
(0.89918 -0.0446313 0)
(0.907607 -0.0338222 -6.8001e-23)
(0.915736 -0.0245725 0)
(0.923406 -0.0165477 5.5732e-23)
(0.930584 -0.00979472 0)
(0.937218 -0.0042666 2.73613e-21)
(0.943059 0.000424824 -5.20054e-21)
(0.94828 0.00436723 4.68491e-21)
(0.953148 0.00762629 -2.22583e-21)
(0.957653 0.010502 -1.87575e-21)
(0.961808 0.0131444 1.82072e-21)
(0.965628 0.0156011 1.59762e-21)
(0.969128 0.017888 -1.54774e-21)
(0.972322 0.0200136 0)
(0.975229 0.0219904 -3.79178e-23)
(0.977873 0.0238398 0)
(0.980281 0.025588 0)
(0.982474 0.0272609 -8.66776e-22)
(0.984476 0.0288829 8.98903e-22)
(0.986306 0.0304762 -5.08811e-23)
(0.987984 0.0320611 -4.7292e-23)
(0.989524 0.0336558 4.413e-23)
(0.990941 0.0352771 3.23779e-22)
(0.992249 0.0369398 -3.14329e-22)
(0.993457 0.0386584 3.20513e-22)
(0.994578 0.0404459 -2.76108e-22)
(0.99562 0.0423149 -6.37343e-23)
(0.996593 0.044278 2.35959e-22)
(0.997505 0.0463493 2.10422e-23)
(0.998363 0.0485442 -1.625e-22)
(0.999174 0.0508772 0)
(0.999944 0.0533629 9.35346e-23)
(1.00068 0.0560177 -1.28424e-22)
(1.00138 0.0588577 1.67242e-22)
(1.00206 0.0619058 3.82244e-23)
(1.00273 0.0651655 0)
(1.00337 0.0687103 -3.10332e-23)
(1.00401 0.0724017 6.20753e-23)
(1.00462 0.076712 -6.80749e-26)
(1.00527 0.0805121 2.47405e-23)
(1.00584 0.0865237 -4.1385e-23)
(1.00655 0.0890936 4.00732e-23)
(1.00705 0.098863 0)
(1.0078 0.0985389 -2.51529e-23)
(1.00836 0.112391 0)
(1.00888 0.111495 0)
(1.00975 0.126174 -3.74192e-24)
(1.04625 -0.466608 -2.40097e-20)
(1.00997 -0.440837 2.35205e-20)