/*--------------------------------*- C++ -*----------------------------------*\
| =========                 |                                                 |
| \\      /  F ield         | OpenFOAM: The Open Source CFD Toolbox           |
|  \\    /   O peration     | Version:  2312                                  |
|   \\  /    A nd           | Website:  www.openfoam.com                      |
|    \\/     M anipulation  |                                                 |
\*---------------------------------------------------------------------------*/
FoamFile
{
    version     2.0;
    format      ascii;
    arch        "LSB;label=32;scalar=64";
    class       volScalarField;
    location    "154.05";
    object      p;
}
// * * * * * * * * * * * * * * * * * * * * * * * * * * * * * * * * * * * * * //

dimensions      [0 2 -2 0 0 0 0];

internalField   nonuniform List<scalar> 
5478
(
-0.612187
-0.607072
-0.600082
-0.593951
-0.590214
-0.587402
-0.581715
-0.569331
-0.547723
-0.516827
-0.478711
-0.43568
-0.39073
-0.342283
-0.293428
-0.625039
-0.619517
-0.612318
-0.604057
-0.59425
-0.58101
-0.562846
-0.538892
-0.509347
-0.475363
-0.438227
-0.399408
-0.359517
-0.319273
-0.281336
-0.643748
-0.636883
-0.627612
-0.614979
-0.59646
-0.572126
-0.543462
-0.51183
-0.478206
-0.443237
-0.40757
-0.371578
-0.335881
-0.300752
-0.266326
-0.667964
-0.657802
-0.645093
-0.624969
-0.595876
-0.561408
-0.525054
-0.488541
-0.452481
-0.417113
-0.382464
-0.348775
-0.316107
-0.284692
-0.255187
-0.698089
-0.68195
-0.663671
-0.632843
-0.592467
-0.549459
-0.507498
-0.467697
-0.430151
-0.394604
-0.360894
-0.328817
-0.298293
-0.269496
-0.241742
-0.731913
-0.708935
-0.680203
-0.636268
-0.585378
-0.535523
-0.489403
-0.447286
-0.408697
-0.373149
-0.340174
-0.309458
-0.280797
-0.25396
-0.228415
-0.762862
-0.734621
-0.690836
-0.632779
-0.572851
-0.517623
-0.468392
-0.424637
-0.385497
-0.350185
-0.318087
-0.288744
-0.261821
-0.237032
-0.213437
-0.784937
-0.751829
-0.690946
-0.619951
-0.552689
-0.493404
-0.442109
-0.397493
-0.358353
-0.323732
-0.292836
-0.265097
-0.24013
-0.217429
-0.196492
-0.518388
-0.52048
-0.526389
-0.538897
-0.557469
-0.580829
-0.607005
-0.632947
-0.654601
-0.666871
-0.665412
-0.647834
-0.612662
-0.564062
-0.505394
-0.554359
-0.555083
-0.562431
-0.578071
-0.600981
-0.629873
-0.662622
-0.695979
-0.725783
-0.744925
-0.746551
-0.728158
-0.684385
-0.621843
-0.541712
-0.581216
-0.579725
-0.586525
-0.60203
-0.625346
-0.655045
-0.688936
-0.723705
-0.754383
-0.774353
-0.776168
-0.75363
-0.701359
-0.627232
-0.532874
-0.597351
-0.593295
-0.597487
-0.609925
-0.630054
-0.656584
-0.687421
-0.719331
-0.747534
-0.765237
-0.764014
-0.736299
-0.678099
-0.597341
-0.499724
-0.604192
-0.598037
-0.598454
-0.605716
-0.620205
-0.641231
-0.666928
-0.694164
-0.718037
-0.730369
-0.722584
-0.688949
-0.627124
-0.548949
-0.457502
-0.605223
-0.598173
-0.594917
-0.596543
-0.604787
-0.619893
-0.64036
-0.66223
-0.678535
-0.681202
-0.663117
-0.622159
-0.559567
-0.488271
-0.411014
-0.604493
-0.597754
-0.591894
-0.589106
-0.592395
-0.602718
-0.617445
-0.63078
-0.635655
-0.625356
-0.596821
-0.550895
-0.492405
-0.430972
-0.36651
-0.605813
-0.599916
-0.592927
-0.587832
-0.587755
-0.592746
-0.598891
-0.600199
-0.591108
-0.56835
-0.532415
-0.485792
-0.434082
-0.380928
-0.327155
-0.424021
-0.367453
-0.381182
-0.368403
-0.268936
-0.198466
-0.167676
-0.166736
-0.191815
-0.210924
-0.180678
-0.162595
-0.150799
-0.13296
-0.105475
-0.112794
-0.134653
-0.150445
-0.123026
-0.108476
-0.125351
-0.153423
-0.121981
-0.117907
-0.139425
-0.181612
-0.190867
-0.194223
-0.0983776
-0.0553651
-0.0419675
-0.0290992
-0.0172185
-0.00874869
-0.00642917
-0.0048229
-0.00267091
-0.000812775
-0.424212
-0.312934
-0.267238
-0.237915
-0.18186
-0.163092
-0.162516
-0.178534
-0.223139
-0.256502
-0.209465
-0.170961
-0.151932
-0.135773
-0.112195
-0.118835
-0.139214
-0.15349
-0.119201
-0.0997355
-0.110616
-0.135664
-0.121823
-0.124521
-0.156466
-0.196913
-0.174018
-0.167253
-0.1011
-0.0623473
-0.0422644
-0.0269459
-0.0168477
-0.00916708
-0.00648316
-0.00471062
-0.0026286
-0.000811161
-0.391282
-0.252102
-0.169641
-0.115954
-0.0899493
-0.122138
-0.152057
-0.181615
-0.241244
-0.285565
-0.234203
-0.176703
-0.150672
-0.136001
-0.119682
-0.124891
-0.143339
-0.15485
-0.114732
-0.0902248
-0.09673
-0.117309
-0.119109
-0.128106
-0.171668
-0.206573
-0.154757
-0.137528
-0.100824
-0.0680227
-0.0419297
-0.0245328
-0.0163419
-0.00955911
-0.00651645
-0.00458484
-0.00258293
-0.000808742
-0.357001
-0.214438
-0.117063
-0.0504465
-0.0342152
-0.0903162
-0.138414
-0.167675
-0.23409
-0.288292
-0.247122
-0.180345
-0.147971
-0.131915
-0.125413
-0.129136
-0.146928
-0.155989
-0.111125
-0.0806797
-0.084606
-0.0998611
-0.113847
-0.128141
-0.183644
-0.210204
-0.135839
-0.108101
-0.0972436
-0.0720275
-0.0411494
-0.0220099
-0.0157188
-0.00989484
-0.00652848
-0.00445315
-0.00253561
-0.000805292
-0.330774
-0.207819
-0.10847
-0.0382956
-0.013335
-0.0612153
-0.124407
-0.143286
-0.205752
-0.272115
-0.248577
-0.180235
-0.143873
-0.12492
-0.128299
-0.130478
-0.150273
-0.156592
-0.107483
-0.0713329
-0.074624
-0.0841472
-0.106746
-0.124403
-0.191841
-0.209652
-0.119791
-0.0805542
-0.0911096
-0.0740155
-0.040004
-0.0195062
-0.0150005
-0.0101409
-0.00651649
-0.0043214
-0.00248706
-0.000800437
-0.305568
-0.210508
-0.121878
-0.0522493
-0.00606567
-0.0208347
-0.0950382
-0.108904
-0.167197
-0.241613
-0.228155
-0.172419
-0.137226
-0.115874
-0.126845
-0.128098
-0.152728
-0.158584
-0.106272
-0.0629127
-0.0665729
-0.0703818
-0.0976079
-0.117333
-0.195578
-0.206224
-0.108168
-0.057799
-0.0832158
-0.0747072
-0.0386602
-0.0171576
-0.0142108
-0.0102943
-0.00648517
-0.00419581
-0.00243873
-0.000794123
-0.285635
-0.208339
-0.128337
-0.0603222
-0.00324764
0.0326735
-0.0330759
-0.0687796
-0.136887
-0.212738
-0.213399
-0.167063
-0.132976
-0.107071
-0.119564
-0.123057
-0.154472
-0.157911
-0.103039
-0.0562958
-0.0608727
-0.0590615
-0.086063
-0.106649
-0.195102
-0.199573
-0.0986831
-0.0402911
-0.0735445
-0.0727706
-0.036924
-0.0150876
-0.0134065
-0.0103206
-0.00642548
-0.00407505
-0.00238855
-0.000785791
-0.276637
-0.217779
-0.149361
-0.083282
-0.0279325
0.0214356
0.0221293
-0.0264956
-0.0955284
-0.16851
-0.17592
-0.14717
-0.125915
-0.0981647
-0.106279
-0.114621
-0.152857
-0.160626
-0.10362
-0.0506597
-0.0563664
-0.0483358
-0.0736053
-0.0921907
-0.190674
-0.192064
-0.0946069
-0.0161077
-0.0623174
-0.0700536
-0.0353225
-0.0132305
-0.0125217
-0.0102437
-0.00636806
-0.00397349
-0.00234402
-0.000777067
-0.243208
-0.202064
-0.13281
-0.0662473
-0.00720642
0.0674131
0.102967
0.0322274
-0.0631745
-0.135127
-0.14096
-0.117568
-0.103741
-0.0836926
-0.0890123
-0.10663
-0.138403
-0.149099
-0.0995473
-0.0457873
-0.051249
-0.0441701
-0.0626601
-0.0833768
-0.175869
-0.175685
-0.0905327
-0.0188059
-0.0512414
-0.0621359
-0.0323359
-0.0117153
-0.0114887
-0.00994833
-0.00619251
-0.00382627
-0.00226933
-0.000757268
-0.184641
-0.154631
-0.0987387
-0.0435663
0.00802193
0.0686812
0.0908282
0.0461593
-0.0265177
-0.0782639
-0.0850222
-0.0782552
-0.0756943
-0.0597412
-0.0636366
-0.0944267
-0.128227
-0.136812
-0.0888041
-0.0372109
-0.0375521
-0.0322327
-0.0442185
-0.066798
-0.152293
-0.158245
-0.0680916
0.0355119
-0.0364441
-0.0591881
-0.0277288
-0.0093972
-0.0101585
-0.00945955
-0.00589344
-0.00361165
-0.00216334
-0.00072678
-0.144624
-0.127186
-0.0868353
-0.0415389
0.00187562
0.0507498
0.0720424
0.0479882
0.000419726
-0.0374077
-0.0503754
-0.0511671
-0.0532111
-0.0406429
-0.0349667
-0.0577834
-0.0913637
-0.0973017
-0.0656825
-0.0311551
-0.0278808
-0.0232884
-0.0258019
-0.0434712
-0.117451
-0.119667
-0.0362262
0.0228329
-0.0220337
-0.0364608
-0.0214187
-0.00751485
-0.00892037
-0.00876549
-0.00549824
-0.00338984
-0.00205494
-0.000692728
-0.112433
-0.10144
-0.0717277
-0.0359234
-0.00282302
0.0287602
0.0473821
0.0375577
0.00883303
-0.0153758
-0.0247116
-0.0270215
-0.0273055
-0.0170765
-0.00636746
-0.0209695
-0.0463296
-0.0481815
-0.0398358
-0.0309512
-0.0227175
-0.0120047
-0.00531654
-0.0207373
-0.0764575
-0.0701152
-0.00303541
0.0338197
-0.00521781
-0.0292631
-0.0158068
-0.00644918
-0.00770303
-0.00794034
-0.00501443
-0.00315786
-0.00194136
-0.000653352
-0.0871826
-0.0806256
-0.0608135
-0.0352368
-0.011587
0.0104272
0.025333
0.0238387
0.00997693
-0.0047293
-0.0109068
-0.0133243
-0.0136454
-0.00587416
0.0124484
0.0154731
0.0045635
-0.00606148
-0.016667
-0.0254112
-0.0170753
-0.00601024
0.00822208
-0.00074357
-0.0354765
-0.0223843
0.0254562
0.0375671
0.0119914
-0.0131916
-0.00975536
-0.00587748
-0.00643181
-0.00589214
-0.00441937
-0.00290031
-0.0018218
-0.000608127
-0.0679384
-0.0642552
-0.0513133
-0.033322
-0.0161404
-0.000773502
0.0101292
0.0127222
0.00741956
4.13604e-05
-0.0024709
-0.00278243
0.000233747
0.00622757
0.0219879
0.0298267
0.0183224
0.010466
-0.0012991
-0.0125492
-0.00543249
0.00219451
0.0151673
0.00626883
-0.0100304
0.00467985
0.0397488
0.0382264
0.0257643
0.0011798
-0.00438779
-0.00509475
-0.00499774
-0.00485595
-0.00380526
-0.00261295
-0.00169652
-0.000560892
-0.052248
-0.0504665
-0.0426552
-0.030669
-0.018691
-0.00760058
0.000681478
0.00467089
0.00442946
0.00202761
0.00154554
0.0020305
0.00429732
0.00895784
0.0216517
0.0236881
0.0213554
0.015682
0.00775882
0.000112172
0.0010934
0.00572395
0.0178185
0.0160392
0.00289535
0.0132718
0.0386421
0.0342896
0.0322543
0.00984043
-0.000922252
-0.00377951
-0.00360231
-0.0039416
-0.00319983
-0.00228368
-0.00154638
-0.000507797
-0.0398453
-0.0396877
-0.0349624
-0.0270643
-0.0187031
-0.0107965
-0.00442008
-0.000190698
0.00174517
0.00187633
0.00282199
0.00449107
0.0081241
0.0119653
0.0198085
0.0223053
0.0203928
0.0163161
0.0111703
0.00709377
0.00779935
0.00989625
0.0175898
0.0164388
0.00828596
0.0153701
0.0319521
0.0312858
0.031091
0.0119997
0.00109439
-0.00196344
-0.00246558
-0.00316856
-0.00258818
-0.00191157
-0.00135901
-0.000448349
-0.0303611
-0.0306929
-0.0278934
-0.0227804
-0.0171201
-0.0114219
-0.00654112
-0.00267995
-2.15938e-05
0.00157791
0.00345091
0.0053376
0.00820617
0.010925
0.0160334
0.0188781
0.0179421
0.0154618
0.0122331
0.0102885
0.00991549
0.0109762
0.0159124
0.0171618
0.012171
0.0158977
0.025812
0.0271949
0.0258745
0.0130834
0.00307767
-0.000130901
-0.00137979
-0.00230801
-0.00193537
-0.00150293
-0.00111516
-0.000370427
-0.0224291
-0.0231165
-0.0215969
-0.0183195
-0.014376
-0.0103611
-0.00676142
-0.00351815
-0.000874618
0.00116084
0.00315918
0.00509304
0.00775191
0.0103028
0.0135039
0.0158405
0.0157471
0.0142717
0.0123992
0.0115441
0.011759
0.0126075
0.0149327
0.0164679
0.0140321
0.0157181
0.0214163
0.0235378
0.0221934
0.0131668
0.004903
0.0013925
-0.000377106
-0.00141259
-0.00128861
-0.00108866
-0.000851979
-0.000289163
-0.0160818
-0.0169233
-0.0161399
-0.0140504
-0.0113717
-0.00853555
-0.00582713
-0.00327486
-0.000965689
0.00101634
0.00296091
0.00485502
0.00704474
0.00911707
0.0112182
0.0130276
0.0135129
0.0129861
0.012153
0.011814
0.0117018
0.0124751
0.0138571
0.0153491
0.014623
0.015313
0.0182211
0.0196557
0.0188842
0.0128961
0.00633262
0.00269577
0.000624596
-0.000508526
-0.000650126
-0.000655665
-0.000565454
-0.000195501
-0.0109797
-0.0117842
-0.0114232
-0.0101222
-0.00830835
-0.00631744
-0.00432108
-0.00236761
-0.000505915
0.00122294
0.00288335
0.00453558
0.00627728
0.00801269
0.00962942
0.0110368
0.0118211
0.011839
0.0116125
0.0116698
0.0119178
0.0125527
0.0133767
0.0142793
0.0142232
0.0146062
0.0161712
0.0168384
0.0160917
0.0122033
0.00718626
0.00377296
0.0015531
0.000298046
-6.4536e-05
-0.00023861
-0.000290421
-0.000107026
-0.0068034
-0.00754165
-0.00743385
-0.00661925
-0.00538772
-0.00400897
-0.00258897
-0.00115284
0.000268557
0.00166151
0.00299786
0.00436576
0.00576547
0.00716885
0.00845195
0.00954767
0.0103978
0.0107951
0.0109531
0.0111928
0.0113876
0.011928
0.0124731
0.0132031
0.0134261
0.0136285
0.014295
0.0143766
0.0137293
0.0112767
0.00757947
0.00458085
0.00236647
0.00100517
0.000458987
0.000150755
-2.81505e-05
-2.04424e-05
-0.00343808
-0.00405752
-0.00406531
-0.00356202
-0.00275369
-0.0018303
-0.000850936
0.000187102
0.00124742
0.00231347
0.00334026
0.00440597
0.00550702
0.00661716
0.00764964
0.00854819
0.00934533
0.00989384
0.0102242
0.0106092
0.0109877
0.0114011
0.0118204
0.0122783
0.012489
0.012573
0.0128788
0.0126963
0.0119651
0.0103052
0.00766951
0.00517449
0.00310438
0.0016586
0.000938043
0.000508128
0.000218185
6.83257e-05
-0.000678984
-0.00117864
-0.00125589
-0.000966449
-0.000450568
0.000159565
0.00081992
0.00154011
0.00229853
0.00307495
0.00383653
0.00463276
0.0054754
0.00633156
0.00714931
0.00788251
0.00856765
0.00914577
0.00957173
0.00998311
0.0103543
0.010716
0.0110207
0.0113317
0.0115107
0.0115087
0.0115316
0.0112252
0.0105376
0.00933726
0.00745721
0.00547385
0.00365486
0.0022173
0.00134724
0.000799994
0.000412341
0.000137082
0.00156392
0.00116562
0.00105939
0.00121417
0.00152954
0.00191446
0.00234072
0.00281954
0.00334163
0.00388727
0.00443114
0.00500305
0.0056232
0.00626711
0.00689363
0.00747796
0.00804356
0.00856572
0.00898464
0.00936551
0.00971488
0.0100273
0.0102668
0.0104729
0.0105766
0.0105233
0.0104356
0.0101075
0.00947616
0.00851689
0.00714331
0.00559654
0.00405249
0.00270288
0.00173217
0.00106939
0.000585534
0.00020307
0.00337005
0.00306476
0.00295293
0.00301822
0.00319223
0.00341713
0.00367619
0.00397902
0.00432158
0.00468421
0.00505327
0.00544423
0.00588271
0.00635046
0.00681359
0.00725811
0.00769867
0.0081276
0.00848951
0.00881817
0.0091167
0.00936905
0.0095501
0.00967766
0.00972733
0.00964402
0.00947775
0.00914079
0.0085878
0.00780477
0.00675369
0.00553706
0.0042593
0.00305581
0.00206319
0.001305
0.000721768
0.000245952
0.00481692
0.00458513
0.00447549
0.00448241
0.00456033
0.00467475
0.00481514
0.00499029
0.00519818
0.00542346
0.00565936
0.00591494
0.00621116
0.00652853
0.0068516
0.00716955
0.00749325
0.00781659
0.0081002
0.00835673
0.00858667
0.008777
0.00890444
0.00897833
0.00897912
0.008874
0.00868354
0.00836046
0.00787474
0.00721818
0.00638041
0.00540516
0.00434611
0.00329166
0.00233172
0.00151716
0.000849073
0.000285994
0.00595649
0.00578116
0.00567793
0.00564815
0.00566097
0.00569984
0.00575698
0.00584161
0.00595102
0.00607467
0.00620928
0.00635892
0.00654211
0.00674216
0.00695367
0.00716339
0.0073852
0.0076078
0.00780819
0.00798943
0.00814885
0.00827788
0.00835191
0.0083811
0.00834513
0.0082258
0.00802519
0.00771559
0.00728799
0.00672696
0.00603328
0.00522649
0.00433173
0.00341193
0.00251523
0.00169008
0.000962707
0.000318884
0.00683113
0.00669618
0.00660011
0.00654683
0.00651751
0.00650592
0.006507
0.00652852
0.00656781
0.00661858
0.0066795
0.00675196
0.00685017
0.0069604
0.00708323
0.00720615
0.00734171
0.00747825
0.00760243
0.00771475
0.00780812
0.00787924
0.0079057
0.00789557
0.00782982
0.00769614
0.00749397
0.00720113
0.00681682
0.00632599
0.00573062
0.00504425
0.00427196
0.00345851
0.00262982
0.00181842
0.00105722
0.000348509
0.00747382
0.00736558
0.00727604
0.00720791
0.00715279
0.00710842
0.00707338
0.00705228
0.00704367
0.00704459
0.00705359
0.00707269
0.00710807
0.00715411
0.00720915
0.00726767
0.00733465
0.00740351
0.00746603
0.00751916
0.00755943
0.0075799
0.00756823
0.00752347
0.00743332
0.00728905
0.00708371
0.00680701
0.00645166
0.00601171
0.00548485
0.00487747
0.00419337
0.00345623
0.00268485
0.00189978
0.00112524
0.000371627
0.00790214
0.00781079
0.00772589
0.0076497
0.00757967
0.00751642
0.00745982
0.00741258
0.00737383
0.00734293
0.007319
0.00730329
0.007298
0.00730089
0.00731092
0.00732516
0.00734498
0.00736633
0.00738429
0.0073952
0.0073953
0.00737944
0.00733775
0.00726789
0.00715944
0.00700556
0.00679873
0.00653132
0.00619608
0.00578832
0.00530447
0.00474795
0.00412142
0.00343507
0.00270537
0.00194425
0.001167
0.000387504
0.00811972
0.00803679
0.00795476
0.00787541
0.00779905
0.00772745
0.00766103
0.00760134
0.00754787
0.00750127
0.00746096
0.00742785
0.00740182
0.00738263
0.00736923
0.00736035
0.00735502
0.00735083
0.00734482
0.00733267
0.00731092
0.00727476
0.00721661
0.00713259
0.00701358
0.00685443
0.00664586
0.00638336
0.00605818
0.00566632
0.00520534
0.00467374
0.00407664
0.00341703
0.00270829
0.00196212
0.00118621
0.000395165
-0.17012
-0.181499
-0.193057
-0.202369
-0.212885
-0.217039
-0.224944
-0.228469
-0.140592
-0.146849
-0.153101
-0.157975
-0.162098
-0.164784
-0.167609
-0.175244
-0.11362
-0.116928
-0.119453
-0.122738
-0.125811
-0.130096
-0.132443
-0.138258
-0.0923335
-0.0938052
-0.0949491
-0.0977861
-0.099735
-0.10243
-0.103194
-0.107045
-0.0737616
-0.0744507
-0.0748166
-0.0764003
-0.0770102
-0.0783428
-0.0790612
-0.0825608
-0.0586634
-0.0586375
-0.0583998
-0.0590503
-0.0592986
-0.0603377
-0.0612355
-0.0642079
-0.0460052
-0.0456096
-0.0451714
-0.0454486
-0.0456736
-0.046456
-0.0471855
-0.0493622
-0.0357127
-0.0351752
-0.0346741
-0.0347116
-0.0348026
-0.0352228
-0.0356618
-0.0372767
-0.0272283
-0.0266508
-0.0261029
-0.0259098
-0.0258287
-0.026042
-0.0265291
-0.0280625
-0.0201884
-0.0196425
-0.0191187
-0.0188645
-0.0187964
-0.0190143
-0.0194873
-0.0206624
-0.0144112
-0.0139667
-0.0135359
-0.0132959
-0.0132132
-0.0133375
-0.013675
-0.0146053
-0.00965176
-0.00931137
-0.00896176
-0.00873516
-0.00863899
-0.00872623
-0.00901874
-0.00978461
-0.00572845
-0.00548891
-0.00523173
-0.00505661
-0.00498078
-0.00504077
-0.00526131
-0.00585303
-0.00249273
-0.00234387
-0.00217189
-0.00204502
-0.00198493
-0.00202914
-0.00221317
-0.00268452
0.000167071
0.000237385
0.000332681
0.000406042
0.000434043
0.000388073
0.000240637
-0.000110192
0.00232365
0.00233437
0.00236981
0.00240016
0.00240596
0.00236618
0.00225357
0.00199398
0.00406843
0.00403974
0.00403338
0.00403096
0.00401616
0.00397295
0.00387925
0.00368709
0.0054634
0.00540868
0.00537268
0.00534472
0.0053124
0.00526498
0.00518644
0.00504651
0.00656315
0.00649289
0.00643799
0.00639264
0.00634755
0.00629623
0.00622724
0.00612328
0.00740781
0.0073294
0.00726313
0.0072062
0.00715223
0.00709752
0.00703448
0.00695413
0.00802531
0.00794465
0.00787317
0.00780969
0.00775056
0.00769342
0.0076341
0.00756798
0.00843026
0.00835239
0.00828067
0.00821488
0.00815335
0.0080949
0.00803749
0.00797927
0.00862884
0.00855747
0.00848879
0.00842328
0.00836084
0.00830145
0.00824439
0.00818913
0.00506829
0.00696243
0.00776987
0.0068559
0.00373047
-0.0016208
-0.00932471
-0.0200059
-0.0347944
-0.0553005
-0.083752
-0.123283
-0.178928
-0.254182
-0.325048
-0.0224077
-0.0234031
-0.0272863
-0.033237
-0.0410523
-0.0510704
-0.0639302
-0.0805691
-0.102265
-0.130732
-0.168323
-0.218198
-0.285582
-0.374421
-0.451884
-0.04847
-0.0530274
-0.0616247
-0.0722419
-0.0844475
-0.0989344
-0.116706
-0.138872
-0.166802
-0.202324
-0.247983
-0.30699
-0.383709
-0.484874
-0.560807
-0.0753835
-0.0835243
-0.0958006
-0.109934
-0.125779
-0.144291
-0.166546
-0.193652
-0.227015
-0.268545
-0.320896
-0.38763
-0.471742
-0.577675
-0.649939
-0.102998
-0.114458
-0.129387
-0.146027
-0.16476
-0.186693
-0.212808
-0.244083
-0.281845
-0.328176
-0.385569
-0.457792
-0.546661
-0.651035
-0.717639
-0.129376
-0.143984
-0.161081
-0.179824
-0.201092
-0.225926
-0.255139
-0.289671
-0.330665
-0.380413
-0.441322
-0.516402
-0.606069
-0.705031
-0.763319
-0.153936
-0.17121
-0.190089
-0.210732
-0.234364
-0.261623
-0.293217
-0.33009
-0.373484
-0.425178
-0.487464
-0.562445
-0.649498
-0.739341
-0.788054
-0.1764
-0.195371
-0.216038
-0.238944
-0.264748
-0.294009
-0.327384
-0.365771
-0.410329
-0.462511
-0.524194
-0.596588
-0.677564
-0.754554
-0.794427
0.183715
0.1982
0.214524
0.233065
0.253827
0.276674
0.301513
0.328302
0.356959
0.387218
0.418474
0.449525
0.478336
0.500835
0.519191
0.175606
0.1887
0.203857
0.221446
0.241243
0.262939
0.286391
0.311563
0.338363
0.36647
0.395193
0.423214
0.448336
0.466512
0.480606
0.163285
0.174257
0.187666
0.203749
0.221947
0.241714
0.262818
0.285192
0.308697
0.332924
0.357049
0.379587
0.398066
0.408553
0.41542
0.146755
0.15507
0.166274
0.180286
0.19617
0.213184
0.231032
0.249592
0.268625
0.28756
0.305357
0.320289
0.329507
0.329007
0.326226
0.126173
0.131604
0.140512
0.152217
0.165241
0.178683
0.19227
0.2059
0.219259
0.231594
0.2416
0.247249
0.245279
0.23142
0.216138
0.10178
0.103753
0.110183
0.119465
0.129409
0.13894
0.14779
0.155838
0.162663
0.167335
0.168311
0.16327
0.148514
0.11951
0.0895538
0.0743826
0.0734661
0.0775132
0.083633
0.0895386
0.0943939
0.0980216
0.100146
0.100061
0.0965746
0.0878883
0.0713807
0.0429658
-0.00193167
-0.0471496
0.0421997
0.0403198
0.0435225
0.0465527
0.047897
0.0474426
0.0452726
0.0409715
0.0335572
0.0215636
0.00293254
-0.0252772
-0.0676108
-0.128327
-0.187876
0.0257561
0.0301453
0.0264911
0.0304116
0.027969
0.032273
0.0305055
0.0349019
0.0342473
0.038745
0.0394768
0.0442714
0.0467877
0.0523598
0.0570602
0.0643077
0.0716095
0.0815019
0.0923742
0.106224
0.121959
0.141358
0.163575
0.0257006
0.0300507
0.0264355
0.0302939
0.0278981
0.0321261
0.0304049
0.0346938
0.0340832
0.0384977
0.0391885
0.0439207
0.046369
0.0518527
0.0563925
0.063489
0.0704143
0.0800824
0.090317
0.1037
0.118348
0.136823
0.157355
0.0256551
0.0299307
0.0263978
0.0301473
0.0278526
0.0319474
0.0303304
0.0344502
0.0339536
0.0382091
0.0389325
0.0435115
0.0459382
0.0511267
0.0556449
0.0625317
0.0690304
0.0784293
0.0877779
0.100492
0.113598
0.130573
0.148226
0.0256187
0.0297871
0.0263768
0.0299759
0.0278286
0.0317424
0.0302927
0.0341809
0.0338484
0.0378986
0.0387009
0.0431325
0.0455712
0.0506858
0.0549915
0.0616823
0.0676128
0.0766862
0.0848512
0.0966515
0.10758
0.122404
0.136015
0.0255919
0.0296238
0.026369
0.029784
0.027823
0.0315136
0.0302643
0.0338918
0.0337627
0.0375551
0.0384813
0.0426628
0.0450844
0.0497555
0.0541598
0.0604286
0.0658253
0.0742596
0.0812489
0.0917975
0.100283
0.112222
0.120541
0.0255667
0.0294439
0.0263696
0.0295769
0.0278288
0.0312703
0.0302668
0.0336176
0.0336943
0.0372371
0.0383196
0.0423568
0.0448584
0.0495262
0.0535314
0.0595223
0.0642615
0.0721185
0.0774858
0.0865223
0.0916049
0.100275
0.102324
0.0255522
0.0292493
0.0263763
0.0293624
0.0278433
0.0310176
0.0302527
0.0333137
0.0336238
0.0368625
0.0380973
0.0418219
0.0443209
0.0484598
0.0524905
0.0577343
0.062076
0.068732
0.0729563
0.0798907
0.0821362
0.0858368
0.0812867
0.0255337
0.0290477
0.026385
0.0291501
0.0278605
0.0307861
0.0302964
0.0330985
0.0335839
0.0366441
0.0380518
0.0417274
0.0441953
0.0484091
0.0520256
0.0569819
0.0605265
0.0663796
0.0683524
0.0730715
0.070355
0.0704098
0.056572
0.0255129
0.0287807
0.0264037
0.028847
0.0278718
0.0304003
0.0302346
0.032631
0.0334202
0.0360226
0.0376205
0.0407975
0.0431448
0.0465498
0.0499509
0.0533836
0.0565116
0.0595989
0.0604282
0.0607535
0.0552106
0.0459452
0.0248881
0.0254947
0.0284162
0.0264312
0.0284373
0.0278549
0.0298468
0.0301047
0.0319265
0.0330352
0.0349786
0.0367031
0.0391366
0.0413796
0.0438732
0.046667
0.0485315
0.0505226
0.051026
0.050197
0.0462338
0.0392803
0.027011
0.0105566
0.0254944
0.0279732
0.026475
0.0279469
0.0278548
0.0292085
0.0299392
0.031154
0.0325393
0.033934
0.0356833
0.0374657
0.0394105
0.0410205
0.0429726
0.0435809
0.0441828
0.0428217
0.0401781
0.0343109
0.0262935
0.0141804
-0.00122046
0.0255126
0.0274419
0.0265376
0.0273928
0.0278125
0.0286016
0.0296519
0.0304177
0.031887
0.0328349
0.0344749
0.0356272
0.0371635
0.0380141
0.0389281
0.038578
0.0377546
0.0350455
0.0310189
0.0243093
0.0158149
0.00440458
-0.00956088
0.0255526
0.0268146
0.0265714
0.0268831
0.0276539
0.0280364
0.0292384
0.0296572
0.0310539
0.0316913
0.0330309
0.0336729
0.0346391
0.0348742
0.0347229
0.0335668
0.0316029
0.0279384
0.0231153
0.0162449
0.00798312
-0.00239476
-0.0148238
0.0256087
0.0261638
0.0264942
0.026417
0.0274001
0.0274786
0.0286867
0.0288815
0.0300494
0.0304637
0.0313892
0.031579
0.031955
0.0316217
0.0305587
0.0286983
0.0259781
0.0218123
0.0167007
0.0101087
0.00246187
-0.00675326
-0.0175596
0.0256331
0.0255339
0.0263038
0.0259852
0.0270317
0.026924
0.0279938
0.0280695
0.0288944
0.0291306
0.0295998
0.0293632
0.0292031
0.0283351
0.0265916
0.0242245
0.0210972
0.016811
0.0117459
0.00568533
-0.00111413
-0.00903268
-0.0181345
0.0256032
0.0249425
0.0260045
0.0255725
0.0265409
0.0263577
0.027175
0.0271922
0.0276353
0.0276831
0.0277166
0.0270799
0.0264664
0.0251544
0.0229658
0.0203137
0.0170471
0.0129154
0.00815846
0.00277925
-0.00303965
-0.00962032
-0.0170913
0.0254923
0.0244115
0.0255852
0.0251658
0.0259362
0.0257651
0.0262644
0.0262237
0.0263118
0.0261404
0.0257915
0.0248087
0.0238337
0.0222069
0.0197961
0.0170539
0.0138528
0.0100586
0.00579774
0.00117539
-0.00366463
-0.00899629
-0.0150086
0.0252827
0.0239517
0.0250483
0.0247464
0.02524
0.0251068
0.0253004
0.0251572
0.0249494
0.0245439
0.0238809
0.0226373
0.0213964
0.0195963
0.0171435
0.0144709
0.0114878
0.00813131
0.00445714
0.000594829
-0.00334656
-0.00758656
-0.0123498
0.0249625
0.0235615
0.0244148
0.0242877
0.0244968
0.0243641
0.0243066
0.0240132
0.0235684
0.0229425
0.0220435
0.0206387
0.0192326
0.0173831
0.0150243
0.0125389
0.00986787
0.00698579
0.00390985
0.000756348
-0.00239778
-0.00572765
-0.00946308
0.0245292
0.0232257
0.0237211
0.0237249
0.0237341
0.0235459
0.0232957
0.0228341
0.0221985
0.0213971
0.0203385
0.0188681
0.0173932
0.0155948
0.0134192
0.0111904
0.00887483
0.00645951
0.00394209
0.00141265
-0.0010777
-0.00367034
-0.00657968
0.0239917
0.0229181
0.0230297
0.0230406
0.0229473
0.0226759
0.0222769
0.0216648
0.0208829
0.0199605
0.018816
0.0173561
0.0158955
0.0142161
0.0122762
0.0103367
0.00837978
0.00639297
0.00436484
0.0023604
0.000411903
-0.00159528
-0.00384916
0.0233723
0.0225668
0.0223871
0.0222781
0.0221215
0.0217632
0.0212575
0.0205426
0.019663
0.0186725
0.0175057
0.0161126
0.014727
0.013208
0.011527
0.00988019
0.00825693
0.00664416
0.00502712
0.00345105
0.00193343
0.00038209
-0.0013594
0.0227017
0.0221227
0.0217861
0.0215421
0.0212771
0.0208333
0.0202538
0.0194858
0.0185658
0.0175562
0.016416
0.0151271
0.0138581
0.01252
0.0110944
0.00972113
0.00839251
0.00709542
0.005815
0.00458162
0.00340253
0.00220579
0.000865473
0.0220124
0.0215904
0.0212019
0.0208355
0.0204467
0.0199261
0.0192946
0.018509
0.0175966
0.016614
0.0155412
0.0143808
0.0132513
0.0120958
0.0109035
0.00977131
0.00869151
0.00765128
0.00663793
0.00567199
0.00475502
0.00383144
0.00280343
0.0213282
0.0210004
0.0205992
0.0201527
0.019663
0.0190792
0.0184118
0.0176328
0.0167605
0.0158401
0.014864
0.0138448
0.0128631
0.0118814
0.0108926
0.0099625
0.00908284
0.00824271
0.00743392
0.00667182
0.00595516
0.00524093
0.00445717
0.0206654
0.0203884
0.0199858
0.0194967
0.0189455
0.0183197
0.0176337
0.0168753
0.0160585
0.0152174
0.014351
0.013474
0.0126377
0.0118158
0.0110011
0.0102355
0.00951193
0.00882346
0.00816752
0.00755686
0.00698951
0.00643452
0.00583941
0.0200387
0.0197877
0.0193878
0.0188821
0.0183037
0.0176621
0.0169766
0.0162493
0.0154943
0.014737
0.0139786
0.0132306
0.0125211
0.0118309
0.0111558
0.0105206
0.00992058
0.00935202
0.00881487
0.00831889
0.00786335
0.00742715
0.00697412
0.0194676
0.0192305
0.0188368
0.0183304
0.0177479
0.0171113
0.0164432
0.0157554
0.0150622
0.0143834
0.0137204
0.013078
0.0124699
0.0118845
0.011319
0.0107873
0.0102865
0.00981395
0.00936966
0.00896043
0.00858669
0.00823614
0.00788614
0.0189793
0.0187519
0.0183669
0.017869
0.017296
0.0166761
0.0160337
0.0153848
0.0147443
0.0141277
0.0135371
0.0129735
0.0124429
0.0119386
0.0114591
0.011011
0.0105925
0.0101999
0.00983072
0.00948735
0.00917178
0.00888022
0.00860248
0.0186072
0.0183853
0.0180099
0.0175247
0.0169668
0.0163674
0.0157519
0.0151385
0.0145403
0.0139693
0.013429
0.01292
0.0124431
0.0119941
0.0115718
0.0111786
0.0108133
0.0104727
0.0101545
0.00985883
0.00958735
0.00933988
0.00911264
0.0184042
0.0181879
0.0178157
0.0173336
0.0167805
0.0161895
0.0155866
0.0149893
0.0144109
0.0138634
0.0133532
0.0128798
0.0124389
0.0120258
0.0116386
0.0112782
0.010945
0.0106373
0.0103533
0.0100927
0.00985662
0.00964597
0.00946036
0.0015054
-0.0240803
-0.049418
-0.0723856
-0.0953065
-0.117363
-0.138027
-0.155514
-0.00756606
-0.0307814
-0.0565929
-0.076468
-0.0924032
-0.107322
-0.120941
-0.132024
-0.0165179
-0.0350938
-0.0558922
-0.0708766
-0.081081
-0.091021
-0.100214
-0.108062
-0.0231882
-0.0380504
-0.0531503
-0.0644008
-0.0717809
-0.0786695
-0.0845631
-0.0895129
-0.027035
-0.0387148
-0.0487337
-0.0562126
-0.0612772
-0.0657639
-0.0692657
-0.0722414
-0.0281507
-0.0370222
-0.0432304
-0.0478036
-0.0512617
-0.0543133
-0.0565046
-0.0581422
-0.0270381
-0.0336375
-0.0372065
-0.0397142
-0.0419342
-0.0439587
-0.0452844
-0.046058
-0.0243996
-0.0292624
-0.0311112
-0.032233
-0.033534
-0.0348561
-0.0356787
-0.0360014
-0.0208908
-0.0244601
-0.0252538
-0.0255036
-0.0261486
-0.0269819
-0.0275051
-0.0275987
-0.017013
-0.0196304
-0.0198183
-0.0195592
-0.019757
-0.0202427
-0.0205724
-0.0205604
-0.013117
-0.0150356
-0.0149043
-0.0143858
-0.0142994
-0.0145443
-0.0147525
-0.0147168
-0.00941637
-0.0108222
-0.0105474
-0.00993382
-0.0096885
-0.00977437
-0.00990342
-0.00987682
-0.00603073
-0.00705875
-0.00674334
-0.00613133
-0.00581383
-0.00580363
-0.00588324
-0.00587624
-0.00302391
-0.00377229
-0.00346947
-0.00290858
-0.00257016
-0.00250512
-0.00255594
-0.00257164
-0.000395674
-0.000938393
-0.000673413
-0.000193302
0.000125466
0.000216158
0.000183669
0.000147759
0.00186036
0.0014721
0.00168833
0.0020736
0.00234342
0.00243144
0.00240332
0.00234959
0.00376117
0.0034866
0.00365197
0.00394285
0.00415137
0.00421997
0.00418846
0.00412298
0.00533224
0.00513994
0.0052583
0.00546419
0.00561039
0.00565121
0.00561065
0.00553608
0.00660685
0.00647089
0.00654701
0.00667998
0.00676879
0.00677969
0.0067277
0.00664631
0.00761686
0.00751418
0.00755024
0.00762096
0.00765971
0.00764318
0.0075808
0.00749559
0.00839745
0.00830724
0.00830088
0.00831497
0.00830892
0.00826816
0.00819794
0.00811256
0.00894697
0.00885653
0.00880966
0.00877418
0.00872985
0.0086692
0.00859443
0.0085125
0.00931631
0.00920638
0.00910597
0.00901563
0.00893274
0.00885412
0.00877756
0.00870241
-0.339879
-0.347312
-0.356908
-0.369354
-0.386278
-0.408839
-0.434773
-0.458328
-0.341081
-0.346599
-0.353593
-0.363095
-0.376465
-0.393727
-0.413971
-0.433256
-0.339642
-0.34417
-0.349075
-0.355908
-0.366172
-0.379223
-0.391713
-0.399403
-0.335779
-0.339426
-0.342485
-0.346343
-0.351732
-0.357417
-0.360278
-0.357068
-0.327884
-0.330856
-0.33182
-0.331823
-0.331344
-0.329637
-0.32483
-0.31459
-0.315384
-0.317337
-0.31594
-0.312205
-0.306986