/*--------------------------------*- C++ -*----------------------------------*\
| =========                 |                                                 |
| \\      /  F ield         | OpenFOAM: The Open Source CFD Toolbox           |
|  \\    /   O peration     | Version:  2312                                  |
|   \\  /    A nd           | Website:  www.openfoam.com                      |
|    \\/     M anipulation  |                                                 |
\*---------------------------------------------------------------------------*/
FoamFile
{
    version     2.0;
    format      ascii;
    arch        "LSB;label=32;scalar=64";
    class       surfaceScalarField;
    location    "82";
    object      phi;
}
// * * * * * * * * * * * * * * * * * * * * * * * * * * * * * * * * * * * * * //

dimensions      [0 3 -1 0 0 0 0];

oriented        oriented;

internalField   nonuniform List<scalar> 
10785
(
0.000586444
0.00316213
-0.00374857
0.00400133
0.00229042
-0.00570531
0.0122519
-0.00657524
-0.00167531
0.0278201
-0.0244326
0.00886432
0.0514286
-0.0498886
0.0262802
0.0804624
-0.0787456
0.0497118
0.110241
-0.106275
0.0764965
0.136266
-0.129142
0.103118
0.155709
-0.145909
0.126466
0.168179
-0.157003
0.144533
0.175015
-0.16383
0.156995
0.179337
-0.168295
0.163973
0.183197
-0.172198
0.168338
0.18734
-0.174508
0.170365
-0.17823
0.171972
0.193598
0.000512894
0.00264924
0.00530234
-0.00249902
0.01792
-0.0191929
0.0399785
-0.0464911
0.0682355
-0.0781457
0.0967873
-0.107297
0.120611
-0.130099
0.137314
-0.145845
0.147376
-0.155971
0.153091
-0.162718
0.157282
-0.168021
0.162074
-0.173088
0.167812
-0.177936
0.176003
-0.182699
-0.188384
0.186157
0.00111919
0.00153004
0.00889355
-0.0102734
0.0271843
-0.0374837
0.0533113
-0.072618
0.080046
-0.10488
0.101693
-0.128944
0.11628
-0.144686
0.125036
-0.154602
0.130606
-0.161541
0.135319
-0.167432
0.140371
-0.173073
0.14584
-0.178557
0.151769
-0.183864
0.158293
-0.189223
-0.194356
0.164265
0.00228062
-0.00075058
0.0142695
-0.0222623
0.0367694
-0.0599836
0.0616788
-0.0975274
0.081976
-0.125177
0.0955522
-0.14252
0.103874
-0.153008
0.109432
-0.160159
0.113984
-0.166093
0.118214
-0.171662
0.122255
-0.177113
0.126328
-0.18263
0.130854
-0.18839
0.13608
-0.194449
-0.201056
0.142781
0.00390267
-0.00465325
0.0199793
-0.0383389
0.0427437
-0.082748
0.062561
-0.117345
0.0760179
-0.138634
0.0841997
-0.150702
0.0893529
-0.158161
0.0930779
-0.163884
0.0961573
-0.169173
0.0990208
-0.174526
0.102053
-0.180145
0.105544
-0.186121
0.109509
-0.192355
0.114063
-0.199003
-0.205753
0.118759
0.00595757
-0.0106108
0.0241989
-0.0565803
0.0436979
-0.102247
0.0577458
-0.131393
0.0661077
-0.146996
0.0708085
-0.155403
0.0736763
-0.161029
0.0758048
-0.166012
0.07777
-0.171138
0.0798401
-0.176596
0.082085
-0.18239
0.0844477
-0.188484
0.087014
-0.194921
0.0897235
-0.201713
-0.208704
0.092675
0.00795291
-0.0185637
0.0255757
-0.074203
0.040591
-0.117262
0.0497023
-0.140504
0.054304
-0.151598
0.0565261
-0.157625
0.0577853
-0.162288
0.0587379
-0.166965
0.0595831
-0.171983
0.0603624
-0.177375
0.0611298
-0.183158
0.062032
-0.189386
0.0631445
-0.196034
0.0644964
-0.203065
-0.210391
0.0661834
0.00924426
-0.027808
0.0242839
-0.0892426
0.0348742
-0.127853
0.0400428
-0.145673
0.0419047
-0.15346
0.0422909
-0.158011
0.0421207
-0.162118
0.0417006
-0.166545
0.0411455
-0.171428
0.0405486
-0.176778
0.0399936
-0.182603
0.0394987
-0.188891
0.0390963
-0.195631
0.0388306
-0.202799
0.038775
-0.210336
-0.00253538
0.00944147
-0.00690609
-0.00758377
0.0115797
-0.00653131
-0.0142101
0.00904292
-0.00241663
-0.0219018
0.00542325
0.0022685
-0.0303258
0.000494088
0.00792994
-0.0395365
-0.0060311
0.0152418
-0.049095
-0.0150308
0.0245893
-0.0585292
-0.0266085
0.0360426
-0.0672132
-0.0406976
0.0493816
-0.0743938
-0.0567825
0.0639631
-0.0791633
-0.0738641
0.0786336
-0.0804334
-0.0905779
0.0918479
-0.0771543
-0.105148
0.101869
-0.0685988
-0.115355
0.1068
-0.120256
-0.0534623
0.105119
-0.00179618
0.0112377
-0.00591032
0.0156938
-0.0114082
0.0145408
-0.0177911
0.0118062
-0.0249791
0.00768208
-0.0324511
0.00144086
-0.0404836
-0.00699826
-0.0486997
-0.0183924
-0.0567602
-0.0326371
-0.0643303
-0.0492124
-0.0710917
-0.0671027
-0.0766461
-0.0850235
-0.0802902
-0.101504
-0.0815221
-0.114123
-0.123014
-0.078764
-0.000521593
0.0117592
-0.00275641
0.0179287
-0.00602243
0.0178068
-0.00973312
0.0155169
-0.0136216
0.0115706
-0.0175848
0.00540404
-0.0212086
-0.00337445
-0.0243449
-0.015256
-0.0266936
-0.0302884
-0.0281048
-0.0478012
-0.0286912
-0.0665163
-0.0289832
-0.0847315
-0.0292094
-0.101278
-0.0305712
-0.112761
-0.121534
-0.0320514
0.000828394
0.0109309
0.000827502
0.0179296
0.00020034
0.018434
-0.000350219
0.0160675
-0.000439241
0.0116596
0.000218885
0.00474591
0.00215782
-0.00531339
0.00592347
-0.0190217
0.0119247
-0.0362897
0.0203949
-0.0562714
0.0305885
-0.0767098
0.0424661
-0.0966091
0.053129
-0.111941
0.0632067
-0.122839
-0.1285
0.070173
0.00183074
0.00910012
0.00382353
0.0159368
0.00578302
0.0164745
0.00831972
0.0135308
0.0120488
0.00793058
0.0174493
-0.000654668
0.0253458
-0.0132099
0.0362465
-0.0299224
0.0504187
-0.0504619
0.0675165
-0.0733692
0.0866548
-0.0958481
0.106356
-0.11631
0.12598
-0.131565
0.144499
-0.141358
-0.146597
0.162596
0.00221189
0.00688823
0.00548945
0.0126592
0.00937249
0.0125914
0.0144367
0.00846651
0.0214473
0.000920015
0.0317147
-0.010922
0.0459352
-0.0274303
0.0644888
-0.048476
0.0867377
-0.0727108
0.110886
-0.097517
0.135095
-0.120057
0.157285
-0.1385
0.17603
-0.15031
0.193188
-0.158516
-0.15949
0.206081
0.00192329
0.00496494
0.00553577
0.00904672
0.0105254
0.00760183
0.0176343
0.00135754
0.0285531
-0.00999874
0.0444483
-0.0268173
0.0658213
-0.0488033
0.0915028
-0.0741575
0.118941
-0.100149
0.14502
-0.123596
0.167551
-0.142589
0.184779
-0.155728
0.197683
-0.163215
0.206962
-0.167795
-0.165662
0.213135
0.00121637
0.00455778
0.0104843
0.0207062
0.0369876
0.059882
0.0875752
0.116536
0.142852
0.16379
0.178195
0.186441
0.191564
0.194134
0.200444
-0.00525369
-0.23519
0.186982
0.0679804
-0.109087
0.0358525
0.126609
0.0836468
-0.142275
0.168929
0.266139
-0.308459
0.196504
0.331741
-0.359316
0.178416
0.368406
-0.350317
0.151431
0.410408
-0.383423
0.168152
0.272882
-0.289603
0.208837
-0.0148435
-0.0258414
0.248961
-0.234831
0.194707
0.258969
-0.283691
0.273683
0.243774
-0.314895
0.33009
0.238223
-0.381031
0.386582
0.245651
-0.357459
0.350031
0.260936
-0.214896
0.19961
0.274765
0.0543414
-0.06817
0.285775
0.320535
-0.331545
0.294715
0.480828
-0.489767
0.299247
0.499066
-0.503598
0.300187
0.254637
-0.255577
0.297479
-0.196553
0.19926
0.296891
-0.54606
0.546648
0.30089
-0.589726
0.585726
0.311701
-0.206658
0.195848
0.315297
0.490213
-0.493809
0.307495
0.764169
-0.756367
0.283017
0.209168
-0.18469
0.273109
-0.483736
0.493643
0.283418
-0.393347
0.383039
0.274582
0.218057
-0.20922
0.245231
0.417509
-0.388158
0.219313
0.13261
-0.106692
0.220777
-0.224356
0.222892
0.23479
-0.097468
0.0834557
0.240863
0.14201
-0.148083
0.22584
0.357292
-0.342269
0.204479
0.211571
-0.19021
-0.137818
0.142526
-0.0583999
-0.255554
0.00684711
-0.174334
0.0885811
0.00191277
0.165615
0.189104
0.20293
0.294426
0.186303
0.385033
0.173596
0.423115
0.198048
0.24843
0.225791
-0.0425861
0.252369
-0.261409
0.260899
-0.292221
0.242507
-0.296503
0.237235
-0.375759
0.246599
-0.366823
0.258496
-0.226793
0.273419
0.0394189
0.286985
0.306969
0.296229
0.471584
0.302308
0.492987
0.301287
0.255658
0.291653
-0.186919
0.286475
-0.540882
0.288839
-0.592089
0.304699
-0.222518
0.318
0.476911
0.314448
0.767722
0.285009
0.238606
0.269808
-0.468535
0.283105
-0.406644
0.278561
0.222602
0.250239
0.44583
0.223036
0.159814
0.223702
-0.225023
0.237579
-0.111345
0.24416
0.135429
0.230169
0.371282
0.208817
0.232923
-0.132417
-0.0548202
-0.232786
-0.0263124
-0.202841
0.05927
-0.0836696
0.15816
0.0902144
0.202041
0.250544
0.194039
0.393035
0.198095
0.41906
0.227633
0.218891
0.243506
-0.0584591
0.253595
-0.271498
0.258932
-0.297558
0.236122
-0.273693
0.227263
-0.3669
0.241721
-0.381282
0.253518
-0.23859
0.26955
0.0233867
0.286183
0.290337
0.295972
0.461794
0.302795
0.486164
0.299525
0.258928
0.283021
-0.170415
0.272795
-0.530656
0.273171
-0.592465
0.293279
-0.242626
0.317215
0.452975
0.318529
0.766407
0.285138
0.271998
0.263918
-0.447315
0.279923
-0.422649
0.280896
0.221629
0.254531
0.472195
0.22609
0.188255
0.22571
-0.224643
0.239577
-0.125211
0.246942
0.128063
0.234422
0.383803
0.213339
0.254007
-0.126451
0.014025
-0.176638
-0.0134694
-0.175347
0.0343332
-0.131472
0.125986
-0.00143797
0.178469
0.19806
0.191207
0.380297
0.215583
0.394683
0.250039
0.184435
0.259196
-0.0676156
0.253051
-0.265354
0.256682
-0.301189
0.23411
-0.25112
0.214887
-0.347677
0.230653
-0.397048
0.24718
-0.255117
0.264403
0.00616425
0.280489
0.27425
0.289222
0.453061
0.2974
0.477986
0.293628
0.262699
0.272489
-0.149275
0.257254
-0.515422
0.255565
-0.590776
0.27804
-0.265101
0.311321
0.419694
0.317845
0.759883
0.282427
0.307416
0.255936
-0.420824
0.274013
-0.440726
0.281373
0.214269
0.257791
0.495777
0.228311
0.217735
0.226783
-0.223115
0.24086
-0.139288
0.249185
0.119739
0.238355
0.394633
0.217831
0.27453
-0.120152
0.124328
-0.138369
0.0657276
-0.116747
0.0452004
-0.110945
0.0986171
-0.0548547
0.161439
0.135239
0.198582
0.343154
0.234111
0.359155
0.267964
0.150582
0.271986
-0.0716374
0.250078
-0.243446
0.246677
-0.297788
0.228851
-0.233294
0.20022
-0.319045
0.211358
-0.408186
0.23473
-0.278489
0.256111
-0.0152172
0.273796
0.256565
0.282462
0.444395
0.290648
0.4698
0.285599
0.267748
0.260349
-0.124025
0.240038
-0.495111
0.235885
-0.586623
0.25948
-0.288696
0.302401
0.376772
0.314927
0.747358
0.277641
0.344702
0.246333
-0.389516
0.265825
-0.460219
0.280022
0.200072
0.259918
0.515881
0.229632
0.248022
0.226919
-0.220403
0.241466
-0.153835
0.250869
0.110336
0.241815
0.403687
0.222176
0.294168
-0.113803
0.186444
-0.118732
0.156038
-0.0863408
0.113769
-0.0686762
0.109503
-0.0505887
0.157121
0.0876207
0.210187
0.290088
0.251505
0.317836
0.279256
0.122832
0.277777
-0.0701585
0.245953
-0.211622
0.233185
-0.28502
0.220273
-0.220383
0.186627
-0.285399
0.187411
-0.408969
0.216651
-0.307729
0.244332
-0.0428983
0.262761
0.238137
0.27002
0.437136
0.278957
0.460864
0.275119
0.271586
0.247194
-0.0960993
0.22236
-0.470278
0.215588
-0.579851
0.238781
-0.311888
0.288407
0.327146
0.306421
0.729344
0.269722
0.381401
0.235244
-0.355037
0.255476
-0.480452
0.276807
0.178741
0.260763
0.531926
0.23001
0.278774
0.22613
-0.216522
0.241372
-0.169077
0.251977
0.0997311
0.244754
0.41091
0.226341
0.312581
-0.107699
0.190698
-0.0962959
0.180498
-0.0761405
0.168185
-0.0563631
0.159624
-0.0420283
0.186006
0.0612389
0.236187
0.239907
0.273215
0.280808
0.286755
0.109292
0.274229
-0.0576325
0.236812
-0.174205
0.216656
-0.264864
0.206706
-0.210433
0.173614
-0.252307
0.162506
-0.397861
0.191781
-0.337004
0.229852
-0.0809701
0.253089
0.2149
0.259761
0.430464
0.267751
0.452873
0.263922
0.275416
0.233741
-0.0659183
0.204738
-0.441275
0.194566
-0.569679
0.216872
-0.334194
0.273671
0.270347
0.297673
0.705342
0.261085
0.417989
0.223655
-0.317607
0.243487
-0.500284
0.271825
0.150403
0.26012
0.543631
0.229358
0.309537
0.224399
-0.211564
0.240528
-0.185206
0.252482
0.0877771
0.247157
0.416235
0.230323
0.329415
-0.102126
0.182469
-0.078321
0.171249
-0.0649199
0.167576
-0.0526903
0.168324
-0.0427766
0.196277
0.0332856
0.249007
0.187178
0.28822
0.241594
0.295052
0.10246
0.273751
-0.0363317
0.230263
-0.130716
0.202868
-0.237469
0.192398
-0.199963
0.160001
-0.21991
0.139416
-0.377277
0.163676
-0.361264
0.205657
-0.122951
0.23588
0.184677
0.244445
0.421899
0.252703
0.444615
0.252019
0.2761
0.221127
-0.0350269
0.187479
-0.407627
0.174354
-0.556554
0.194314
-0.354155
0.252616
0.212045
0.282654
0.675303
0.249841
0.450802
0.211141
-0.278907
0.229994
-0.519136
0.265064
0.115333
0.258296
0.550398
0.227942
0.339891
0.221882
-0.205504
0.23889
-0.202214
0.252364
0.0743037
0.249105
0.419494
0.234161
0.344359
-0.0973057
0.406428
-0.0497053
-0.435044
0.382343
-0.0408348
0.360111
-0.0304581
0.33662
-0.0192861
0.325167
0.0447388
0.375961
0.136384
0.461194
0.156362
0.512553
0.0511006
0.516823
-0.0406015
0.492287
-0.10618
0.45737
-0.202552
0.430918
-0.173511
0.407207
-0.196199
0.374983
-0.345052
0.346276
-0.332558
0.328091
-0.104766
0.298702
0.214066
0.279181
0.44142
0.32805
0.395747
0.396939
0.207211
0.417716
-0.0558038
0.4005
-0.390412
0.356977
-0.513031
0.313913
-0.311091
0.332714
0.193245
0.374691
0.633326
0.385922
0.439571
0.371617
-0.264602
0.377383
-0.524903
0.392395
0.100322
0.379075
0.563718
0.353769
0.365197
0.354059
-0.205795
0.37076
-0.218914
0.379727
0.0653364
0.372666
0.426555
0.353679
0.363346
-0.0874776
0.445549
-0.0275272
-0.467727
0.42846
-0.023746
0.412703
-0.0147014
0.400045
-0.00662798
0.407721
0.0370626
0.460327
0.0837778
0.521817
0.0948716
0.546659
0.0262587
0.537923
-0.0318656
0.51451
-0.0827668
0.479312
-0.167354
0.446129
-0.140328
0.426322
-0.176392
0.395961
-0.314691
0.356671
-0.293268
0.324286
-0.0723809
0.291405
0.246947
0.283572
0.449253
0.359757
0.319562
0.441906
0.125062
0.457373
-0.0712715
0.427192
-0.36023
0.37012
-0.455958
0.315554
-0.256525
0.331757
0.177042
0.388934
0.576149
0.4157
0.412805
0.402985
-0.251888
0.408253
-0.53017
0.425682
0.082892
0.415206
0.574194
0.392038
0.388365
0.393869
-0.207626
0.411989
-0.237035
0.421025
0.0563009
0.415611
0.431969
0.398335
0.380622
-0.0767291
0.490932
-0.0127822
-0.505677
0.479322
-0.0121364
0.469632
-0.00501074
0.461519
0.001485
0.472524
0.0260574
0.510566
0.0457353
0.548825
0.056613
0.565748
0.00933566
0.563408
-0.0295255
0.544393
-0.0637522
0.515431
-0.138392
0.494256
-0.119153
0.476345
-0.158481
0.42179
-0.260136
0.348585
-0.220063
0.306501
-0.0302972
0.28526
0.268188
0.313815
0.420698
0.409827
0.22355
0.491361
0.0435276
0.507551
-0.0874616
0.466153
-0.318832
0.383461
-0.373267
0.307997
-0.181061
0.326887
0.158151
0.412638
0.490398
0.457057
0.368386
0.440453
-0.235284
0.442266
-0.531982
0.463124
0.0620342
0.455684
0.581634
0.434448
0.409601
0.437364
-0.210541
0.457113
-0.256784
0.466678
0.0467361
0.464129
0.434518
0.449758
0.394993
-0.06497
0.538344
-0.00361552
-0.547511
0.529671
-0.00346377
0.523987
0.000673455
0.52278
0.00269236
0.530257
0.0185806
0.554428
0.0215639
0.580594
0.0304471
0.58978
0.000149388
0.587289
-0.0270345
0.573363
-0.0498259
0.545314
-0.110343
0.515482
-0.089321
0.491972
-0.134971
0.438427
-0.206591
0.348105
-0.129741
0.302215
0.0155932
0.32193
0.248473
0.398424
0.344205
0.492145
0.129829
0.549214
-0.0135413
0.551024
-0.089272
0.500456
-0.268263
0.39233
-0.265141
0.296182
-0.0849128
0.332403
0.121931
0.454498
0.368303
0.51308
0.309804
0.488087
-0.210291
0.479008
-0.522904
0.498347
0.0426959
0.495462
0.584519
0.481009
0.424053
0.486247
-0.215778
0.50706
-0.277598
0.51785
0.0359465
0.519677
0.432691
0.508957
0.405713
-0.0519726
0.587925
0.00197535
-0.593516
0.583441
0.00102045
0.580429
0.00368585
0.580784
0.00233758
0.58658
0.012784
0.600339
0.00780525
0.61577
0.015016
0.622257
-0.00633742
0.621382
-0.0261598
0.608497
-0.0369412
0.591037
-0.092883
0.56789
-0.0661733
0.531349
-0.09843
0.476951
-0.152193
0.402132
-0.0549227
0.373072
0.0446532
0.428991
0.192554
0.521643
0.251553
0.587157
0.0643145
0.610678
-0.0370617
0.600074
-0.0786685
0.551891
-0.22008
0.440521
-0.153771
0.331627
0.0239819
0.369763
0.0837943
0.515564
0.222502
0.584873
0.240495
0.546642
-0.17206
0.519816
-0.496077
0.536944
0.0255676
0.541301
0.580161
0.53582
0.429535
0.540953
-0.220911
0.560103
-0.296748
0.572037
0.0240123
0.580728
0.423999
0.575715
0.410727
-0.0380326
0.641469
0.00497436
-0.644468
0.639315
0.00317392
0.637811
0.00519039
0.638588
0.00156026
0.64295
0.00842186
0.649451
0.00130472
0.659751
0.0047161
0.66108
-0.00766668
0.660215
-0.0252951
0.649425
-0.0261514
0.626262
-0.0697198
0.609992
-0.049903
0.582096
-0.0705342
0.539628
-0.109726
0.49278
-0.00807413
0.488007
0.0494258
0.560325
0.120236
0.637083
0.174794
0.667614
0.0337841
0.664532
-0.0339799
0.635643
-0.0497793
0.591839
-0.176276
0.517318
-0.0792494
0.432799
0.1085
0.45432
0.0622735
0.585257
0.0915648
0.661324
0.164428
0.615592
-0.126328
0.563167
-0.443652
0.576889
0.0118453
0.593394
0.563657
0.599684
0.423244
0.602638
-0.223865
0.616901
-0.311012
0.630979
0.00993449
0.649475
0.405503
0.651209
0.408993
-0.0228525
0.698543
0.00633374
-0.699902
0.697637
0.00407988
0.697363
0.00546384
0.697569
0.00135441
0.700872
0.00511893
0.703123
-0.000946752
0.708873
-0.00103399
0.707935
-0.00672822
0.70534
-0.0227005
0.698099
-0.0189101
0.679459
-0.0510795
0.668138
-0.0385819
0.640736
-0.0431322
0.604752
-0.0737421
0.589718
0.0069601
0.600246
0.0388981
0.655437
0.0650445
0.71037
0.119862
0.726306
0.0178474
0.72157
-0.029244
0.688859
-0.017068
0.640093
-0.12751
0.608634
-0.0477904
0.581899
0.135235
0.587887
0.0562854
0.66586
0.0135928
0.730319
0.099968
0.688651
-0.0846601
0.605725
-0.360725
0.597154
0.0204158
0.637289
0.523522
0.672714
0.38782
0.673426
-0.224576
0.674936
-0.312521
0.689501
-0.00463043
0.72086
0.374143
0.731674
0.39818
-0.0073147
0.759735
0.00646016
-0.759862
0.759388
0.00442678
0.759805
0.00504737
0.759484
0.00167558
0.761677
0.00292558
0.761808
-0.0010778
0.764161
-0.00338667
0.763064
-0.00563124
0.758327
-0.0179636
0.753519
-0.0141025
0.736317
-0.0338772
0.726289
-0.0285539
0.709308
-0.0261511
0.682429
-0.0468637
0.681857
0.00753269
0.693327
0.0274279
0.726371
0.0320004
0.768112
0.078121
0.771699
0.0142607
0.765732
-0.0232771
0.749797
-0.0011329
0.705717
-0.08343
0.693843
-0.0359167
0.710729
0.118349
0.714712
0.0523028
0.740879
-0.012574
0.781392
0.059455
0.749707
-0.052975
0.65142
-0.262439
0.626504
0.045332
0.702057
0.447968
0.76983
0.320047
0.757231
-0.211977
0.734722
-0.290012
0.746853
-0.0167612
0.794222
0.326774
0.816431
0.37597
0.00806117
0.825714
0.0060392
-0.825293
0.825632
0.00450916
0.826181
0.00449869
0.825744
0.00211169
0.826774
0.00189604
0.826226
-0.000529953
0.826225
-0.00338516
0.824742
-0.00414871
0.819547
-0.012769
0.815697
-0.0102525
0.803426
-0.0216059
0.794953
-0.0200804
0.7845
-0.0156979
0.764803
-0.0271674
0.768392
0.00394345
0.778308
0.0175124
0.793417
0.0168912
0.824947
0.0465913
0.829281
0.00992665
0.822923
-0.0169191
0.815807
0.00598298
0.779701
-0.0473245
0.769628
-0.0258436
0.800573
0.0874037
0.80943
0.0434466
0.810059
-0.0132034
0.832004
0.0375101
0.807777
-0.0287485
0.719109
-0.173771
0.705795
0.0586466
0.812409
0.341354
0.886272
0.246184
0.845501
-0.171207
0.793593
-0.238103
0.803919
-0.0270875
0.867454
0.263238
0.898759
0.344666
0.0226502
0.897206
0.00547404
-0.89664
0.897301
0.0044133
0.897732
0.00406817
0.89733
0.00251397
0.89753
0.00169547
0.896713
0.000287569
0.89562
-0.0022922
0.89403
-0.0025591
0.889533
-0.00827224
0.886021
-0.00674062
0.87767
-0.0132543
0.870126
-0.0125367
0.864034
-0.0096061
0.851798
-0.0149309
0.853968
0.00177356
0.861918
0.00956199
0.869374
0.00943547
0.889904
0.0260612
0.89323
0.0066008
0.886173
-0.00986208
0.885834
0.00632147
0.863102
-0.0245922
0.851106
-0.013848
0.878038
0.060472
0.887475
0.0340092
0.877789
-0.00351717
0.890265
0.0250341
0.875427
-0.0139103
0.809729
-0.108073
0.815597
0.0527779
0.925762
0.23119
0.987111
0.184834
0.926771
-0.110866
0.850767
-0.162099
0.853271
-0.0295919
0.92429
0.19222
0.966842
0.302113
0.0304049
0.975127
0.00490918
-0.974562
0.97531
0.00423023
0.975579
0.00379953
0.975237
0.00285567
0.97501
0.00192256
0.97414
0.0011577
0.972791
-0.000943486
0.971113
-0.00088118
0.967569
-0.00472834
0.964442
-0.00361357
0.95878
-0.00759175
0.953322
-0.00707919
0.949317
-0.00560107
0.942249
-0.00786318
0.94314
0.000883003
0.948248
0.00445426
0.952337
0.0053463
0.964677
0.0137207
0.967739
0.00353961
0.963026
-0.00514981
0.963102
0.00624585
0.949725
-0.011215
0.939127
-0.00325021
0.957462
0.042137
0.966451
0.0250207
0.95643
0.00650321
0.962152
0.0193126
0.954601
-0.00635989
0.91078
-0.0642517
0.920931
0.0426268
1.01091
0.141209
1.06003
0.13572
1.00242
-0.0532578
0.92063
-0.0803113
0.913492
-0.0224544
0.981624
0.124088
1.03499
0.248745
0.0287812
1.06032
0.00442986
-1.05984
1.06051
0.00404155
1.06067
0.00363686
1.0604
0.00313209
1.06004
0.0022796
1.05922
0.00197536
1.05795
0.000326619
1.05647
0.000603953
1.05378
-0.00204683
1.05131
-0.00113792
1.04753
-0.0038156
1.04367
-0.00322077
1.04094
-0.00286201
1.03691
-0.00383365
1.03715
0.000635228
1.03995
0.00165435
1.04242
0.00288345
1.04954
0.00659644
1.05101
0.0020659
1.04825
-0.00238158
1.04888
0.00561044
1.04094
-0.00327791
1.03449
0.00320134
1.04588
0.0307501
1.0511
0.0197964
1.04345
0.0141584
1.04644
0.0163198
1.04284
-0.00275426
1.01572
-0.0371349
1.02622
0.03213
1.0897
0.0777211
1.124
0.10142
1.0795
-0.00875713
1.01534
-0.0161448
1.01002
-0.0171366
1.0683
0.0658113
1.11887
0.198176
0.0246346
1.15355
0.00402537
-1.15315
1.15376
0.00383508
1.15388
0.00351458
1.1537
0.00331406
1.15336
0.00261465
1.15271
0.00263085
1.15169
0.00133991
1.15049
0.00180843
1.1486
-0.000157705
1.14673
0.000735341
1.1442
-0.00129061
1.14163
-0.000647823
1.13974
-0.000974896
1.13742
-0.00151573
1.13734
0.000719058
1.13872
0.000270033
1.13995
0.00165393
1.14402
0.0025308
1.14486
0.00122413
1.14329
-0.000809018
1.14416
0.00473826
1.13932
0.00155955
1.13537
0.00715479
1.14231
0.023809
1.1451
0.0170105
1.14044
0.0188162
1.14262
0.014139
1.14055
-0.000684126
1.12419
-0.0207744
1.13476
0.0215579
1.17785
0.0346281
1.19996
0.0793115
1.16757
0.0236337
1.12691
0.0245188
1.12829
-0.0185151
1.17235
0.021747
1.21175
0.158772
0.0217046
1.25572
0.00366025
-1.25536
1.25594
0.00361461
1.25607
0.00338891
1.25598
0.00339965
1.25575
0.00284652
1.2553
0.00308874
1.25457
0.00206041
1.2537
0.00267914
1.25243
0.00111893
1.25112
0.00204589
1.24947
0.000353166
1.24782
0.00100947
1.24652
0.0003251
1.24515
-0.000154637
1.24488
0.00099697
1.24552
-0.000371034
1.24604
0.00113035
1.24816
0.000413422
1.24863
0.000748582
1.24767
0.000154277
1.2484
0.00400698
1.24584
0.00412375
1.24368
0.00931228
1.24776
0.0197257
1.24899
0.015782
1.24642
0.0213877
1.24824
0.0123207
1.2475
5.83335e-05
1.23879
-0.0120706
1.24927
0.0110813
1.27682
0.00708129
1.28913
0.0669973
1.26743
0.0453367
1.2461
0.0458477
1.2516
-0.0240142
1.27935
-0.00600482
1.30767
0.13045
0.0186017
1.36768
0.00331983
-1.36734
1.36792
0.00337303
1.36809
0.00322199
1.36811
0.00337613
1.36801
0.00294375
1.36776
0.00333752
1.36733
0.00249845
1.36678
0.00322414
1.36598
0.00192029
1.36515
0.00287766
1.36412
0.00137773
1.3631
0.00203625
1.36224
0.00118051
1.36143
0.000657264
1.36112
0.00130855
1.36132
-0.000575339
1.36146
0.000997454
1.36245
-0.000579141
1.36274
0.000460712
1.36217
0.000718646
1.36279
0.0033927
1.36153
0.00537938
1.36054
0.010305
1.36302
0.0172388
1.36359
0.0152184
1.36292
0.0220559
1.36468
0.0105571
1.36455
0.000196561
1.36042
-0.00794205
1.36963
0.00186718
1.38603
-0.00931331
1.39329
0.0597313
1.38087
0.0577576
1.37246
0.0542576
1.37701
-0.028565
1.3912
-0.0201945
1.41286
0.108788
0.014901
1.49033
0.00296422
-1.48998
1.49062
0.00308772
1.49085
0.00298806
1.49099
0.00324187
1.49103
0.00289888
1.49098
0.00338878
1.49079
0.00269115
1.49054
0.00347582
1.4901
0.00235823
1.48965
0.00333062
1.48906
0.00196629
1.48847
0.00262275
1.48795
0.00169927
1.48746
0.00114944
1.4872
0.00156819
1.48721
-0.000582987
1.48716
0.0010494
1.48759
-0.00101301
1.48768
0.000365338
1.48739
0.00101115
1.4879
0.00288087
1.48732
0.00596715
1.48727
0.0103463
1.48903
0.0154792
1.48935
0.0149037
1.48994
0.021461
1.4918
0.00869649
1.49213
-0.000131144
1.49073
-0.00653791
1.49866
-0.00606881
1.50724
-0.0178898
1.51123
0.0557392
1.50595
0.0630385
1.50609
0.054124
1.50879
-0.0312731
1.51339
-0.0247896
1.53071
0.0914705
0.0108657
1.62465
0.00256741
-1.62425
1.62499
0.00274129
1.62532
0.00266343
1.62557
0.0029875
1.62577
0.00269903
1.62591
0.00325012
1.62594
0.0026618
1.62596
0.003462
1.6258
0.00251703
1.62568
0.00344409
1.62539
0.00225986
1.62515
0.00285897
1.62487
0.0019862
1.62457
0.00144431
1.6244
0.0017412
1.62423
-0.00041709
1.62408
0.00120139
1.62414
-0.00107553
1.624
0.000503427
1.62388
0.0011344
1.62432
0.0024384
1.62419
0.00610167
1.62511
0.00942674
1.62675
0.0138402
1.62747
0.0141836
1.6295
0.0194306
1.63117
0.00702275
1.6312
-0.00016318
1.63108
-0.00640933
1.63638
-0.0113747
1.63853
-0.020042
1.64263
0.0516385
1.64476
0.0609127
1.6505
0.0483821
1.64837
-0.029138
1.64725
-0.0236739
1.66436
0.0743604
0.0070989
1.77171
0.00210347
-1.77125
1.77214
0.00231082
1.77258
0.00222611
1.77297
0.00260216
1.77333
0.00233652
1.77365
0.00292618
1.77389
0.00242667
1.77415
0.00320062
1.77421
0.00245186
1.7744
0.00325392
1.77431
0.00235299
1.77437
0.00279939
1.77423
0.0021228
1.77407
0.00160862
1.77399
0.00182177
1.77361
-3.73712e-05
1.77343
0.00137707
1.77314
-0.000783754
1.77275
0.000894478
1.77276
0.00112203
1.77306
0.0021434
1.77334
0.00582289
1.77522
0.0075389
1.77696
0.0121066
1.77857
0.0125685
1.78194
0.0160663
1.78315
0.00580592
1.78278
0.000206816
1.78356
-0.00718665
1.78577
-0.0135789
1.78215
-0.0164272
1.7876
0.0461892
1.79696
0.0515482
1.80589
0.039453
1.79817
-0.0214111
1.79381
-0.0193126
1.81245
0.0557142
0.00372665
1.93232
0.00160587
-1.93182
1.93286
0.00176982
1.9334
0.00168404
1.93399
0.0020088
1.93456
0.00177234
1.9352
0.00228856
1.93573
0.00189496
1.9364
0.00253002
1.9368
0.00205414
1.93744
0.0026064
1.93761
0.0021851
1.93802
0.00238644
1.93799
0.00215719
1.93777
0.00183054
1.93765
0.00194241
1.93655
0.00106133
1.93617
0.00176018
1.9349
0.00048376
1.93396
0.00182845
1.93385
0.00123271
1.93369
0.00231046
1.93506
0.00445165
1.93812
0.00447372
1.94115
0.00907631
1.94609
0.00763472
1.95171
0.0104439
1.95192
0.00559537
1.95024
0.00188999
1.9486
-0.00555358
1.94096
-0.00593286
1.92961
-0.00508035
1.9436
0.0321953
1.96667
0.0284816
1.9795
0.0266245
1.96321
-0.00512351
1.95558
-0.0116822
1.97654
0.0347595
0.0014618
2.10882
0.00123365
-2.10845
2.10929
0.00130486
2.1097
0.00126973
2.11028
0.00143223
2.11075
0.00130539
2.11145
0.00158717
2.11197
0.00137287
2.11277
0.00173204
2.11332
0.00150652
2.11411
0.00181536
2.11461
0.00168553
2.11518
0.00181785
2.11554
0.00179675
2.11557
0.00179201
2.11574
0.00177688
2.11507
0.00173347
2.11499
0.0018375
2.11399
0.0014848
2.11367
0.00214751
2.11339
0.00151423
2.11342
0.00227829
2.11495
0.00292224
2.11691
0.00251743
2.12054
0.00544374
2.12497
0.00320904
2.12954
0.00586781
2.13076
0.00437283
2.12917
0.00348258
2.12482
-0.00120564
2.11561
0.00327995
2.10817
0.00235625
2.12331
0.0170571
2.14293
0.00886699
2.15536
0.0141936
2.14701
0.00322424
2.13815
-0.00282197
2.14966
0.0232454
0.000305827
2.30255
0.000899757
-2.30221
2.30292
0.000929074
2.30325
0.000938142
2.30369
0.000996535
2.30403
0.000970008
2.30454
0.00107542
2.30491
0.00100291
2.30548
0.00116092
2.30594
0.00104835
2.30651
0.0012421
2.30708
0.00111252
2.30761
0.00129531
2.30822
0.00118581
2.30871
0.0013025
2.30922
0.00126464
2.30969
0.00126304
2.31016
0.00136276
2.31043
0.00122135
2.31109
0.00147996
2.31122
0.00139284
2.31186
0.00163183
2.31275
0.00203336
2.31331
0.00195453
2.31567
0.00308524
2.31678
0.00210527
2.31877
0.00386945
2.32099
0.00215984
2.32148
0.00299393
2.31919
0.00108295
2.31882
0.00364455
2.3196
0.00157645
2.32671
0.00994849
2.33089
0.00468358
2.33819
0.00689955
2.34045
0.000962522
2.33619
0.00143545
2.34183
0.0176087
-0.000171604
2.51402
0.000462426
-2.51358
2.51448
0.000475671
2.51493
0.000484297
2.51542
0.000508339
2.51588
0.000503682
2.51641
0.000546153
2.51689
0.000524026
2.51746
0.00058829
2.51796
0.000551632
2.51857
0.000633552
2.51909
0.000590904
2.51971
0.000676755
2.52026
0.000637306
2.52085
0.000715874
2.52142
0.000689573
2.52194
0.000746978
2.52254
0.000754268
2.523
0.000763606
2.52365
0.000831303
2.52422
0.000821961
2.52498
0.000871793
2.52597
0.00104792
2.52705
0.000869016
2.5287
0.00143858
2.5299
0.000901638
2.53202
0.00175569
2.53308
0.00109842
2.53411
0.00196717
2.53424
0.00095139
2.53523
0.00265499
2.53539
0.00141161
2.54122
0.00411886
2.54495
0.000956858
2.54938
0.0024691
2.54879
0.00154686
2.54887
0.00135898
2.55824
0.00823727
0.000145491
2.74569
-2.74523
2.74617
2.74665
2.74716
2.74767
2.74821
2.74874
2.74932
2.74988
2.75051
2.7511
2.75178
2.75241
2.75313
2.75382
2.75457
2.75532
2.75608
2.75692
2.75774
2.75861
2.75966
2.76053
2.76196
2.76287
2.76462
2.76572
2.76769
2.76864
2.77129
2.77271
2.77682
2.77778
2.78025
2.7818
2.78316
2.79139
0.428059
0.03337
-0.422654
0.433565
0.0606772
0.437151
0.0890888
0.442085
0.113826
0.441896
0.14297
0.444827
0.161334
0.441104
0.18988
0.199658
0.456487
0.029682
-0.452799
0.461148
0.0560167
0.46338
0.0868563
0.466712
0.110494
0.468098
0.141584
0.46887
0.160562
0.470562
0.188188
0.202493
0.490538
0.0267622
-0.487619
0.493382
0.0531735
0.496153
0.0840853
0.498375
0.108272
0.502041
0.137918
0.503233
0.15937
0.506202
0.185218
0.203018
0.528399
0.0240738
-0.52571
0.530358
0.0512143
0.533957
0.080486
0.536177
0.106051
0.540428
0.133667
0.54257
0.157228
0.545916
0.181873
0.201423
0.571182
0.0216417
-0.56875
0.5731
0.0492963
0.576676
0.0769101
0.579173
0.103554
0.583026
0.129815
0.585914
0.15434
0.590072
0.177714
0.197979
0.618636
0.0195537
-0.616548
0.620666
0.0472669
0.62371
0.0738661
0.626499
0.100765
0.630377
0.125936
0.63451
0.150207
0.639704
0.17252
0.193216
0.670964
0.0178366
-0.669247
0.673105
0.0451263
0.676003
0.070968
0.679549
0.0972189
0.683942
0.121544
0.689006
0.145143
0.694322
0.167205
0.187635
0.728738
0.0163407
-0.727242
0.731093
0.0427712
0.734079
0.067982
0.738029
0.0932689
0.742513
0.117059
0.7477
0.139956
0.753475
0.161429
0.181249
0.792267
0.0150033
-0.790929
0.794636
0.040402
0.79767
0.0649477
0.801713
0.0892262
0.806426
0.112347
0.812008
0.134374
0.81839
0.155047
0.174346
0.861931
0.013768
-0.860696
0.86427
0.0380627
0.867431
0.0617873
0.871605
0.0850523
0.876627
0.107324
0.882523
0.128478
0.889258
0.148312
0.166964
0.938198
0.0126093
-0.937039
0.940492
0.0357681
0.943752
0.0585278
0.94806
0.0807439
0.953347
0.102038
0.959561
0.122263
0.966665
0.141208
0.159067
1.02156
0.0115342
-1.02049
1.02383
0.0334956
1.02722
0.0551426
1.03176
0.0762064
1.03734
0.0964494
1.04392
0.115686
1.05143
0.133696
0.150659
1.11275
0.0105107
-1.11173
1.11507
0.0311837
1.11861
0.0515996
1.12336
0.0714558
1.12923
0.090574
1.1362
0.108725
1.14418
0.125714
0.141691
1.21243
0.00953767
-1.21146
1.21478
0.0288315