/*--------------------------------*- C++ -*----------------------------------*\
| =========                 |                                                 |
| \\      /  F ield         | OpenFOAM: The Open Source CFD Toolbox           |
|  \\    /   O peration     | Version:  2512                                  |
|   \\  /    A nd           | Website:  www.openfoam.com                      |
|    \\/     M anipulation  |                                                 |
\*---------------------------------------------------------------------------*/
FoamFile
{
    version     2.0;
    format      ascii;
    arch        "LSB;label=32;scalar=64";
    class       volScalarField;
    location    "195.5";
    object      p;
}
// * * * * * * * * * * * * * * * * * * * * * * * * * * * * * * * * * * * * * //

dimensions      [0 2 -2 0 0 0 0];

internalField   nonuniform List<scalar> 
13248
(
-0.477913
-0.477494
-0.474903
-0.470725
-0.465619
-0.460232
-0.455297
-0.451404
-0.448694
-0.446774
-0.444826
-0.441828
-0.436846
-0.429264
-0.418899
-0.405937
-0.39075
-0.37373
-0.355204
-0.335493
-0.314538
-0.292927
-0.268783
-0.243307
-0.486929
-0.485787
-0.483018
-0.479166
-0.474631
-0.469768
-0.464855
-0.459957
-0.454855
-0.449118
-0.442235
-0.433774
-0.423497
-0.411403
-0.397664
-0.382516
-0.36618
-0.348845
-0.330656
-0.311713
-0.292111
-0.271887
-0.250865
-0.230164
-0.498522
-0.496282
-0.493026
-0.489082
-0.484664
-0.47974
-0.474053
-0.46722
-0.458917
-0.448992
-0.437475
-0.424534
-0.410412
-0.395352
-0.379545
-0.363124
-0.346179
-0.328781
-0.310973
-0.292869
-0.27442
-0.255899
-0.236979
-0.217917
-0.512367
-0.508832
-0.504805
-0.500433
-0.495617
-0.489845
-0.482362
-0.472618
-0.460552
-0.446529
-0.431103
-0.414805
-0.398027
-0.381007
-0.363857
-0.346621
-0.329315
-0.311944
-0.294547
-0.277137
-0.25978
-0.242609
-0.225397
-0.208862
-0.528601
-0.523649
-0.518713
-0.513599
-0.507731
-0.500071
-0.489638
-0.476161
-0.46014
-0.442448
-0.423925
-0.405178
-0.386549
-0.368185
-0.350118
-0.332332
-0.314798
-0.297504
-0.280441
-0.263637
-0.247114
-0.230922
-0.214972
-0.199519
-0.547519
-0.541089
-0.535139
-0.52887
-0.521038
-0.510236
-0.495768
-0.478054
-0.458196
-0.437353
-0.416385
-0.395789
-0.375779
-0.356403
-0.337635
-0.319423
-0.301721
-0.28449
-0.267715
-0.251384
-0.235503
-0.220094
-0.205094
-0.190763
-0.569276
-0.561339
-0.554187
-0.546121
-0.535135
-0.519924
-0.500637
-0.478544
-0.455151
-0.431627
-0.408666
-0.386583
-0.36546
-0.34527
-0.325943
-0.307405
-0.289585
-0.27243
-0.255896
-0.239955
-0.224586
-0.209759
-0.195467
-0.181773
-0.593732
-0.58424
-0.575532
-0.564727
-0.549255
-0.528597
-0.504119
-0.477792
-0.45122
-0.425374
-0.400707
-0.37735
-0.355275
-0.334393
-0.3146
-0.295796
-0.277894
-0.260818
-0.244505
-0.228903
-0.213963
-0.199654
-0.185963
-0.17284
-0.620187
-0.609161
-0.59836
-0.583602
-0.5624
-0.535678
-0.506028
-0.47578
-0.446372
-0.418476
-0.392298
-0.367814
-0.344905
-0.323432
-0.303259
-0.28426
-0.266326
-0.24936
-0.233277
-0.218002
-0.203469
-0.189626
-0.176432
-0.163738
-0.647556
-0.634979
-0.621323
-0.6013
-0.573433
-0.540479
-0.505939
-0.472144
-0.440204
-0.410473
-0.382941
-0.357454
-0.333821
-0.311854
-0.291383
-0.272258
-0.254345
-0.237527
-0.221703
-0.206776
-0.192666
-0.17931
-0.166624
-0.154423
-0.674279
-0.660102
-0.642592
-0.616104
-0.581031
-0.541994
-0.502963
-0.465996
-0.431807
-0.400453
-0.371738
-0.3454
-0.32118
-0.298846
-0.278193
-0.259041
-0.241236
-0.224643
-0.209138
-0.194613
-0.180981
-0.168165
-0.156035
-0.144434
-0.698477
-0.682606
-0.660128
-0.626189
-0.583744
-0.538978
-0.495918
-0.45618
-0.420063
-0.387351
-0.357685
-0.330707
-0.306095
-0.283569
-0.26289
-0.243852
-0.226279
-0.210015
-0.194922
-0.180881
-0.167806
-0.155619
-0.144179
-0.133393
-0.486523
-0.484228
-0.482926
-0.48369
-0.487396
-0.494419
-0.504873
-0.518849
-0.536394
-0.557395
-0.581474
-0.607922
-0.635708
-0.663595
-0.690091
-0.713694
-0.73312
-0.747201
-0.754863
-0.754942
-0.746445
-0.727904
-0.698555
-0.657061
-0.49628
-0.492614
-0.490901
-0.491521
-0.495223
-0.502422
-0.513244
-0.527768
-0.546033
-0.56792
-0.593038
-0.620655
-0.649707
-0.678874
-0.706694
-0.73171
-0.752598
-0.768221
-0.777407
-0.779135
-0.772208
-0.754592
-0.725297
-0.6818
-0.501495
-0.496723
-0.494429
-0.494539
-0.497669
-0.504302
-0.514588
-0.528577
-0.546271
-0.567537
-0.591983
-0.618898
-0.647251
-0.675761
-0.703009
-0.727597
-0.748282
-0.763742
-0.773122
-0.77514
-0.768491
-0.750563
-0.720294
-0.674474
-0.502313
-0.496843
-0.493886
-0.493071
-0.494957
-0.50016
-0.508919
-0.521287
-0.537241
-0.556631
-0.579086
-0.603945
-0.630257
-0.656829
-0.682344
-0.705542
-0.725019
-0.739904
-0.748882
-0.750491
-0.743133
-0.723739
-0.691307
-0.642519
-0.499532
-0.493891
-0.490301
-0.488241
-0.488277
-0.491226
-0.497525
-0.507323
-0.520623
-0.537281
-0.556954
-0.579045
-0.602701
-0.62685
-0.650344
-0.671854
-0.690403
-0.704449
-0.712614
-0.712953
-0.703464
-0.681021
-0.645254
-0.593801
-0.494312
-0.489053
-0.485004
-0.481606
-0.47945
-0.479573
-0.482709
-0.489237
-0.499284
-0.512768
-0.529387
-0.548595
-0.56964
-0.591581
-0.613301
-0.633659
-0.651068
-0.663806
-0.670053
-0.667285
-0.653499
-0.626273
-0.586601
-0.533746
-0.487872
-0.483455
-0.479229
-0.474676
-0.470389
-0.467579
-0.467309
-0.470287
-0.476884
-0.487169
-0.500919
-0.517551
-0.536468
-0.556769
-0.577219
-0.596118
-0.611654
-0.621573
-0.623712
-0.615532
-0.595977
-0.56408
-0.52247
-0.471653
-0.481295
-0.478003
-0.473891
-0.468562
-0.462598
-0.457296
-0.453991
-0.453735
-0.457206
-0.464723
-0.476325
-0.490778
-0.50812
-0.526922
-0.545455
-0.561676
-0.573326
-0.577956
-0.573755
-0.559117
-0.534598
-0.500686
-0.460804
-0.415393
-0.47551
-0.473408
-0.469608
-0.46393
-0.456966
-0.450021
-0.444587
-0.441972
-0.443093
-0.44837
-0.457644
-0.471132
-0.486833
-0.503189
-0.51813
-0.529359
-0.53465
-0.532218
-0.521263
-0.501706
-0.475377
-0.443245
-0.408406
-0.369908
-0.471429
-0.470363
-0.466944
-0.46128
-0.454029
-0.446451
-0.440072
-0.436324
-0.436248
-0.440318
-0.448309
-0.459402
-0.471917
-0.483821
-0.492899
-0.497129
-0.494971
-0.485818
-0.469975
-0.448554
-0.423467
-0.395445
-0.366743
-0.334598
-0.470035
-0.46965
-0.4666
-0.461271
-0.454368
-0.447084
-0.440823
-0.436963
-0.436334
-0.439197
-0.445051
-0.452666
-0.460269
-0.4659
-0.467776
-0.464668
-0.456066
-0.442346
-0.424287
-0.403195
-0.380072
-0.355653
-0.331599
-0.304765
-0.472129
-0.47197
-0.469217
-0.464448
-0.458354
-0.451959
-0.446424
-0.442687
-0.441362
-0.442357
-0.444886
-0.447626
-0.449029
-0.447687
-0.442649
-0.433588
-0.420739
-0.404726
-0.386144
-0.365773
-0.343713
-0.32098
-0.297978
-0.274633
-0.596475
-0.51487
-0.433296
-0.361941
-0.308022
-0.274418
-0.259503
-0.26177
-0.282
-0.318176
-0.359374
-0.38727
-0.384933
-0.34757
-0.28853
-0.228414
-0.181606
-0.151483
-0.13639
-0.134138
-0.143131
-0.166176
-0.209569
-0.269242
-0.322108
-0.33797
-0.309706
-0.250501
-0.188609
-0.142811
-0.116158
-0.104575
-0.108868
-0.132101
-0.1661
-0.188854
-0.180695
-0.149895
-0.116017
-0.0926372
-0.08316
-0.0890315
-0.104285
-0.114607
-0.108706
-0.0935219
-0.0769868
-0.0639549
-0.0568948
-0.056052
-0.0539416
-0.0473133
-0.040685
-0.0390281
-0.0409633
-0.0386279
-0.0299569
-0.021265
-0.00843239
-0.00282514
-0.617763
-0.532566
-0.446112
-0.368137
-0.306405
-0.264263
-0.240924
-0.235194
-0.247091
-0.275338
-0.31179
-0.339672
-0.340617
-0.31005
-0.259582
-0.208097
-0.168055
-0.142529
-0.131276
-0.132732
-0.145601
-0.173437
-0.222832
-0.288333
-0.345718
-0.364663
-0.331738
-0.26718
-0.199256
-0.147443
-0.115445
-0.0986548
-0.0968686
-0.112812
-0.140074
-0.158831
-0.15192
-0.12715
-0.101236
-0.0854935
-0.0833178
-0.0968653
-0.119591
-0.134316
-0.127189
-0.107163
-0.0849562
-0.0660531
-0.0528485
-0.0473182
-0.042228
-0.037026
-0.0345958
-0.0392968
-0.0487308
-0.0493636
-0.0409341
-0.0272775
-0.00495681
-0.000136016
-0.607732
-0.521985
-0.436822
-0.358698
-0.294897
-0.24848
-0.218502
-0.203653
-0.205072
-0.222818
-0.251255
-0.27736
-0.283465
-0.261516
-0.222073
-0.180743
-0.148011
-0.127585
-0.120521
-0.125647
-0.141921
-0.17335
-0.226512
-0.295476
-0.356059
-0.380181
-0.345279
-0.277933
-0.205684
-0.149253
-0.112824
-0.0913807
-0.0839691
-0.0931092
-0.113994
-0.129433
-0.123907
-0.104621
-0.0857915
-0.0771361
-0.0823538
-0.103985
-0.134569
-0.154135
-0.145913
-0.120365
-0.0922259
-0.0677647
-0.0488695
-0.0388958
-0.0307714
-0.0268465
-0.0284399
-0.0393475
-0.0560138
-0.0596727
-0.051596
-0.0333664
-0.0015038
0.00241261
-0.572678
-0.490038
-0.411682
-0.338093
-0.276068
-0.229066
-0.19555
-0.174324
-0.165374
-0.170643
-0.188222
-0.208848
-0.218136
-0.205492
-0.178197
-0.147478
-0.12229
-0.107095
-0.104034
-0.112381
-0.131043
-0.163859
-0.2176
-0.287892
-0.350901
-0.377627
-0.34818
-0.281726
-0.20737
-0.148056
-0.108456
-0.0834283
-0.0710753
-0.0741239
-0.0892643
-0.101784
-0.0978203
-0.0828674
-0.069927
-0.0674945
-0.0797948
-0.109542
-0.148352
-0.17324
-0.16419
-0.132875
-0.0986216
-0.0689965
-0.0450126
-0.0309578
-0.0197705
-0.0168912
-0.022242
-0.0390727
-0.062679
-0.069358
-0.0617834
-0.03949
0.00185438
0.00481271
-0.522582
-0.446397
-0.378252
-0.312433
-0.254451
-0.208428
-0.173552
-0.148131
-0.132166
-0.126778
-0.13238
-0.144477
-0.153392
-0.148171
-0.131626
-0.110659
-0.0926276
-0.0822944
-0.082757
-0.0938045
-0.113982
-0.146323
-0.197619
-0.265954
-0.330309
-0.361183
-0.339786
-0.278157
-0.204646
-0.144147
-0.102642
-0.0751489
-0.0590235
-0.0566868
-0.0666921
-0.0766898
-0.0742918
-0.0622084
-0.0538521
-0.056548
-0.0751052
-0.112704
-0.159948
-0.190563
-0.181443
-0.1445
-0.104071
-0.0697273
-0.0413165
-0.0236408
-0.00941421
-0.00723268
-0.0160143
-0.0383917
-0.0686063
-0.0782398
-0.0713563
-0.0455745
0.00499942
0.00705625
-0.464226
-0.398044
-0.342228
-0.285985
-0.233926
-0.190094
-0.154696
-0.126795
-0.105862
-0.0924366
-0.0877779
-0.0905319
-0.0960926
-0.0965257
-0.0865183
-0.0733958
-0.0614118
-0.0552991
-0.0587277
-0.0719316
-0.092974
-0.123574
-0.170041
-0.232807
-0.295995
-0.332337
-0.320712
-0.267356
-0.197815
-0.137962
-0.0957061
-0.0668287
-0.0480035
-0.0413561
-0.0467803
-0.0545881
-0.0529812
-0.0430361
-0.0379645
-0.0444773
-0.0683487
-0.113003
-0.168235
-0.204975
-0.196848
-0.154964
-0.108492
-0.0699468
-0.0378229
-0.017065
0.000129528
0.00202771
-0.00980937
-0.0372284
-0.0736862
-0.0861755
-0.0801737
-0.0515097
0.00778333
0.00913088
-0.408102
-0.353412
-0.309439
-0.262503
-0.216709
-0.175917
-0.140806
-0.111408
-0.0873875
-0.0685895
-0.0558634
-0.0500071
-0.0495178
-0.0501655
-0.0452207
-0.0380849
-0.0308756
-0.0282249
-0.0339095
-0.0485599
-0.0698921
-0.0980843
-0.138432
-0.193488
-0.252819
-0.293854
-0.29336
-0.250682
-0.187572
-0.130142
-0.088201
-0.0588284
-0.038238
-0.0281868
-0.0297073
-0.0356314
-0.0342737
-0.0258631
-0.0228532
-0.0318541
-0.0594839
-0.10986
-0.172612
-0.215517
-0.209867
-0.164021
-0.111863
-0.0696718
-0.0345387
-0.0113112
0.00870364
0.0107953
-0.00367667
-0.0355641
-0.0778788
-0.0930581
-0.0881031
-0.0571579
0.0100607
0.0110239
-0.360722
-0.316799
-0.282308
-0.243252
-0.20335
-0.166113
-0.132121
-0.10199
-0.076124
-0.0542681
-0.0363339
-0.0233126
-0.0160845
-0.0135468
-0.0111683
-0.00646406
-0.00276744
-0.00285426
-0.0101568
-0.0254503
-0.0464876
-0.0721465
-0.106339
-0.152696
-0.206069
-0.249864
-0.25949
-0.229097
-0.174458
-0.121093
-0.0804857
-0.0513839
-0.0299034
-0.0172876
-0.0154892
-0.0197589
-0.0187913
-0.0111502
-0.00911679
-0.0191259
-0.0490336
-0.103375
-0.172223
-0.22123
-0.219111
-0.171252
-0.11416
-0.0689245
-0.0314279
-0.00639618
0.0161895
0.0189525
0.00227962
-0.0333722
-0.0811279
-0.0988009
-0.0950213
-0.0623854
0.0117166
0.0127279
-0.324511
-0.289209
-0.261272
-0.228176
-0.193358
-0.159843
-0.127972
-0.0981802
-0.0712376
-0.0475162
-0.0268341
-0.00911955
0.00427233
0.0119974
0.0159881
0.0204009
0.0211121
0.0194035
0.0114097
-0.00366675
-0.0237709
-0.0470465
-0.0757888
-0.113809
-0.160061
-0.203913
-0.222831
-0.204851
-0.159412
-0.111181
-0.0727177
-0.0445092
-0.0229351
-0.00860337
-0.00401218
-0.00673111
-0.00637548
0.000828083
0.00278759
-0.00683201
-0.0371928
-0.0931704
-0.167529
-0.222078
-0.226691
-0.176489
-0.115374
-0.0677198
-0.028468
-0.00228271
0.0224991
0.0264567
0.00805141
-0.0307221
-0.0834936
-0.103372
-0.10083
-0.0671138
0.0126604
0.0142433
-0.297129
-0.268853
-0.245355
-0.216588
-0.186082
-0.156054
-0.126679
-0.0982309
-0.0713057
-0.0465743
-0.0243478
-0.00441373
0.0128392
0.0257985
0.0337559
0.0377173
0.0391855
0.0366234
0.0287744
0.0149835
-0.00329645
-0.0242457
-0.0487812
-0.0795934
-0.117663
-0.159797
-0.18046
-0.176764
-0.142044
-0.100491
-0.0651323
-0.0383846
-0.0174188
-0.00218786
0.00473846
0.00365376
0.00328951
0.00826784
0.0124787
0.00430294
-0.0250968
-0.0807622
-0.157346
-0.217224
-0.226965
-0.178657
-0.115491
-0.0661934
-0.0258129
0.000940101
0.0275768
0.03317
0.0134665
-0.0276208
-0.0848668
-0.106728
-0.105402
-0.0712872
0.0128022
0.0155699
-0.275489
-0.254261
-0.233945
-0.208233
-0.18112
-0.153984
-0.126718
-0.0996397
-0.0733403
-0.0484475
-0.0254147
-0.00430404
0.0150173
0.0313676
0.0433454
0.0522405
0.0529698
0.0502973
0.0429218
0.0307169
0.0145491
-0.00406272
-0.0248005
-0.0496083
-0.0821166
-0.122086
-0.15932
-0.154334
-0.127009
-0.0914445
-0.0591816
-0.0338469
-0.0136463
0.00194204
0.0108838
0.0115881
0.010638
0.0150777
0.0198852
0.0145464
-0.0124407
-0.0661447
-0.143694
-0.208498
-0.221374
-0.178795
-0.115194
-0.0648531
-0.0235788
0.00320466
0.0311711
0.0391632
0.0186609
-0.024157
-0.085545
-0.108925
-0.108754
-0.0746872
0.0121573
0.0166943
-0.256726
-0.244352
-0.227187
-0.204536
-0.180989
-0.15721
-0.132786
-0.107826
-0.082736
-0.058133
-0.034661
-0.0126814
0.00756242
0.0252918
0.0394006
0.0490858
0.0575273
0.0580244
0.0525281
0.0429873
0.0300532
0.0135316
-0.00569551
-0.0258476
-0.0504795
-0.0829449
-0.113448
-0.120352
-0.104657
-0.0782575
-0.0511532
-0.0281283
-0.00914958
0.00594061
0.0160067
0.0182531
0.016866
0.0200082
0.0244712
0.0216007
-0.00150255
-0.0509378
-0.126056
-0.193071
-0.210014
-0.173849
-0.112884
-0.0625831
-0.0206169
0.00580492
0.0337263
0.0438949
0.0232356
-0.020326
-0.0850563
-0.109821
-0.110754
-0.0767986
0.0111155
0.017635
-0.228438
-0.228656
-0.211959
-0.188329
-0.164344
-0.141385
-0.118789
-0.0958821
-0.0726533
-0.0496546
-0.0276011
-0.00673277
0.0128411
0.0303615
0.0449026
0.0582227
0.0638473
0.0661961
0.0622764
0.053949
0.0438129
0.0311231
0.0154037
-0.00224334
-0.0276418
-0.0633426
-0.0947542
-0.100792
-0.0848858
-0.0615506
-0.0382074
-0.0181552
-0.00153242
0.0117998
0.0212731
0.024079
0.0224517
0.0246093
0.0317238
0.030821
0.0113917
-0.0345497
-0.107696
-0.177741
-0.200364
-0.166846
-0.106077
-0.0565483
-0.0158989
0.0095433
0.0369056
0.0489913
0.0279346
-0.0160264
-0.084024
-0.110151
-0.111632
-0.0777165
0.0100285
0.0183952
-0.200915
-0.204583
-0.190142
-0.167549
-0.144801
-0.123873
-0.103916
-0.0837309
-0.0629623
-0.0420726
-0.0218377
-0.00264829
0.015244
0.0312021
0.0444893
0.0535118
0.0638068
0.0679652
0.0657857
0.0594757
0.0522187
0.043447
0.0316795
0.0151583
-0.0120066
-0.0477278
-0.0735927
-0.0770198
-0.0632484
-0.0444974
-0.0258711
-0.00916284
0.00517121
0.0166144
0.0249968
0.0279077
0.0262804
0.0276597
0.0341744
0.0355434
0.0188985
-0.0227498
-0.09245
-0.162452
-0.187074
-0.155658
-0.097461
-0.0499588
-0.0111764
0.0128578
0.0392569
0.0517838
0.0308383
-0.0128443
-0.0829119
-0.109786
-0.110295
-0.0777822
0.00864023
0.0187968
-0.177922
-0.181828
-0.170278
-0.150581
-0.130055
-0.111017
-0.0929858
-0.0748073
-0.0559858
-0.0368079
-0.018036
-0.000179852
0.0165374
0.0315903
0.0443021
0.0544478
0.0633348
0.0680187
0.0671996
0.0627339
0.0580966
0.0529952
0.0440184
0.0272676
0.000511693
-0.0309309
-0.05278
-0.0544267
-0.0442329
-0.0299824
-0.015249
-0.00141011
0.0108872
0.0207417
0.0282027
0.0311492
0.0293864
0.0299643
0.0361809
0.0383567
0.0227144
-0.0157083
-0.0803728
-0.144898
-0.16922
-0.141754
-0.0878582
-0.0432495
-0.00667571
0.0158091
0.0407633
0.0537444
0.0323736
-0.0109059
-0.0816531
-0.108357
-0.107821
-0.0769503
0.00682941
0.0189063
-0.156633
-0.160383
-0.151317
-0.134386
-0.115927
-0.0985006
-0.0820747
-0.0657125
-0.0488532
-0.0315944
-0.0145123
0.00187016
0.0172521
0.0312006
0.0432075
0.0531316
0.0615239
0.0666673
0.067284
0.06475
0.0622352
0.0596543
0.0525238
0.0369188
0.0129793
-0.0134479
-0.0305454
-0.0332083
-0.0265046
-0.016241
-0.00518589
0.00583012
0.0161562
0.0243808
0.0306426
0.0334609
0.0316206
0.0315326
0.0369789
0.0400987
0.0251325
-0.0100267
-0.0670398
-0.12409
-0.148079
-0.124971
-0.0767722
-0.0360982
-0.0021751
0.0185398
0.0412741
0.0548697
0.0330315
-0.00926613
-0.0795247
-0.105781
-0.103836
-0.0749595
0.00473883
0.0186953
-0.136638
-0.140685
-0.133598
-0.119153
-0.102818
-0.0871574
-0.0724102
-0.0578479
-0.0428836
-0.0274633
-0.0120185
0.00293202
0.0170316
0.0299261
0.0412504
0.0508912
0.0588869
0.0642976
0.0661667
0.0653735
0.0642965
0.0628918
0.0572242
0.0442469
0.0244959
0.00349842
-0.0102298
-0.0143913
-0.0112256
-0.0045141
0.00349831
0.0120647
0.0206383
0.0275202
0.0326111
0.0351518
0.0331585
0.0324737
0.0368079
0.0404822
0.0266725
-0.00353885
-0.0513692
-0.101133
-0.12406
-0.105885
-0.0645931
-0.0288511
0.00200269
0.0209233
0.0407521
0.0550047
0.0330377
-0.00732984
-0.0762318
-0.101952
-0.0983594
-0.0717043
0.00249844
0.0181112
-0.118903
-0.12299
-0.117339
-0.105033
-0.0907351
-0.0768265
-0.0636765
-0.0507394
-0.0374736
-0.0237622
-0.00992057
0.00359656
0.0164325
0.02828
0.0388287
0.0479578
0.0555871
0.0611291
0.0639456
0.0645164
0.064365
0.0634475
0.0591177
0.0491367
0.0339053
0.0176975
0.00609859
0.000767037
0.00139606
0.00553377
0.0111645
0.0176021
0.0245341
0.0301877
0.0341187
0.0362798
0.0341788
0.0329504
0.0360217
0.039632
0.0277751
0.00349071
-0.0352419
-0.0773686
-0.0984441
-0.0852959
-0.0515894
-0.0215593
0.00582434
0.0228987
0.039196
0.0540145
0.0323858
-0.0051116
-0.071684
-0.096782
-0.0913541
-0.0670781
0.000319427
0.0171187
-0.103104
-0.106873
-0.102372
-0.0919594
-0.0795602
-0.0673325
-0.0557084
-0.0442894
-0.0326054
-0.0205062
-0.00820329
0.00392134
0.0155188
0.0263119
0.0360495
0.0445876
0.051818
0.0573474
0.0607624
0.0622791
0.0627619
0.062213
0.059071
0.0516865
0.0402778
0.0278123
0.0181136
0.0125593
0.0115908
0.013804
0.0175839
0.0222523
0.0277136
0.0323585
0.0353253
0.0370205
0.0349939
0.0332766
0.0351239
0.0377564
0.0281144
0.00958415
-0.0200827
-0.0539894
-0.0725228
-0.064267
-0.0382935
-0.0144327
0.00917756
0.0243566
0.0367991
0.0517918
0.0309267
-0.00273423
-0.0657096
-0.0901385
-0.0828847
-0.061078
-0.00157465
0.0156949
-0.088566
-0.0921412
-0.0886647
-0.0799331
-0.0692675
-0.0586104
-0.0484237
-0.0384207
-0.0281948
-0.0175824
-0.00672722
0.00405446
0.0144461
0.0242024
0.0331122
0.0410183
0.0477992
0.0531903
0.0569186
0.0590489
0.0600216
0.0598475
0.0576096
0.0521846
0.0437686
0.0343287
0.0264332
0.021276
0.0194833
0.0204162
0.0228682
0.0261558
0.0303087
0.034051
0.0362784
0.0374757
0.035711
0.0337346
0.0345829
0.0354712
0.0277064
0.0145325
-0.00630435
-0.0320716
-0.0477634
-0.0440026
-0.0253474
-0.00758964
0.0121056
0.0252411
0.0339985
0.0481488
0.028677
-7.66922e-05
-0.0580197
-0.0818374
-0.0731716
-0.0538287
-0.00294566
0.0138993
-0.0754086
-0.078848
-0.076216
-0.0689331
-0.0598131
-0.0505899
-0.0417312
-0.0330311
-0.0241403
-0.0148969
-0.00539525
0.00411078
0.0133484
0.0220985
0.0301731
0.0374249
0.0437263
0.0488916
0.0527283
0.05522
0.0565477
0.0567004
0.0551595
0.0512548
0.045181
0.0381597
0.0319372
0.0275097
0.0254528
0.025571
0.0270616
0.0292941
0.0323509
0.0352918
0.0369767
0.0377566
0.0363234
0.0343409
0.034608
0.0338071
0.0272824
0.0187907
0.00574599
-0.0126615
-0.0255692
-0.0256915
-0.0134772
-0.00118309
0.01465
0.0255803
0.0315492
0.0435408
0.0261434
0.00321665
-0.0483412
-0.0717037
-0.0625552
-0.0456241
-0.00361207
0.0118479
-0.0636702
-0.0668626
-0.0649008
-0.0588693
-0.0511229
-0.0431962
-0.0355479
-0.0280369
-0.0203668
-0.0123785
-0.00412497
0.00419139
0.0123358
0.0201127
0.0273583
0.0339557
0.039761
0.0446333
0.0484257
0.051087
0.0526554
0.053109
0.0521747
0.049485
0.0452166
0.040112
0.0353603
0.0317559
0.029764
0.0294215
0.0302663
0.0317327
0.0339303
0.0361717
0.0374175
0.0379255
0.0368074
0.0350558
0.0350698
0.0335074
0.0278664
0.0228024
0.0156723
0.00318335
-0.00740248
-0.0104458
-0.00329235
0.00466351
0.0168505
0.0255758
0.0302938
0.0386031
0.0243079
0.00760944
-0.0365917
-0.0596752
-0.0515205
-0.0369418
-0.00348344
0.00969653
-0.053057
-0.0560116
-0.0546171
-0.0496715
-0.043138
-0.0363707
-0.0298159
-0.0233844
-0.0168207
-0.00996848
-0.00285157
0.00436827
0.0114921
0.0183428
0.024767
0.0307262
0.0360266
0.040563
0.044213
0.0469176
0.0486498
0.0493836
0.0489804
0.0472555
0.0443707
0.0407777
0.0372643
0.0344622
0.0327286
0.0321781
0.0326135
0.033531
0.0350801
0.0367503
0.0376231
0.0380038
0.0371612
0.0357864
0.0357061
0.0345173
0.0302346
0.027403
0.0235348
0.0147329
0.00589748
0.00121995
0.00500669
0.00983631
0.0187163
0.0255576
0.0303638
0.0344796
0.0243702
0.013335
-0.0232502
-0.0460878
-0.0406993
-0.0284099
-0.00259254
0.00764535
-0.0434819
-0.0462381
-0.0453048
-0.0412809
-0.0358059
-0.0300693
-0.0244961
-0.019031
-0.0134536
-0.00761783
-0.00152788
0.00469095
0.0108743
0.016876
0.022585
0.0278554
0.0326308
0.0368011
0.0402509
0.0429192
0.0447515
0.045725
0.0457752
0.0448178
0.042989
0.0405746
0.0380888
0.0360039
0.03461
0.0340139
0.0342152
0.0347709
0.0358379
0.0370754
0.0376571
0.0379678
0.0374032
0.0364114
0.036388
0.0362164
0.0339622
0.0324295
0.0296077
0.0225034
0.015069
0.0101288
0.011565
0.0142429
0.0203304
0.0258711
0.031179
0.0321613
0.026957
0.0199409
-0.00964586
-0.0319226
-0.0307073
-0.0206694
-0.00112702
0.00587791
-0.0349315
-0.0374583
-0.036877
-0.0336325
-0.0290807
-0.0242536
-0.0195469
-0.0149339
-0.0102291
-0.00529739
-0.000128272
0.00518452
0.0105059
0.0157119
0.0206984
0.025365
0.0296366
0.0334314
0.036645
0.0392232
0.0411056
0.0422721
0.0426891
0.0423334
0.0413112
0.0398108
0.0381459
0.0366716
0.0356382
0.0351065
0.035194
0.0355368
0.0362529
0.0371706
0.0375657
0.0378114
0.0375242
0.0368758
0.0370003
0.0377515
0.0370923
0.0363326
0.033639
0.0274503
0.0212969
0.0167004
0.0166095
0.0178226
0.0218341
0.0265375
0.0318287
0.0317044
0.0304575
0.0257137
0.00209996
-0.0188071
-0.0219382
-0.0141705
0.000554516
0.00454792
-0.0272638
-0.0295583
-0.0292566
-0.0266714
-0.0229154
-0.0188799
-0.014932
-0.0110673
-0.0071307
-0.00299714
0.001355
0.00585874
0.0104017
0.0148804
0.0192029
0.0232961
0.0270854
0.0305055
0.0334643
0.0359163
0.0378012
0.039104
0.0398055
0.0399117
0.0395028
0.0387128
0.0376816
0.0367102
0.0360159
0.0356123
0.0356618
0.0358974
0.0363802
0.0370598
0.0373619
0.0375495
0.0374914
0.0371426
0.0374095
0.0385742
0.0386057
0.0382102
0.0356504
0.0303599
0.0254008
0.0213959
0.0203897
0.0206097
0.0233153
0.0272808
0.0317526
0.0320799
0.0326064
0.0289687
0.010235
-0.00837005
-0.0145435
-0.00909353
0.00205824
0.00386779
-0.020373
-0.0224616
-0.0223796
-0.0203433
-0.0172691
-0.0139216
-0.0106346
-0.00741985
-0.00415044
-0.000712084
0.00292358
0.00671019
0.010557
0.01438
0.0180999
0.0216594
0.0249922
0.028046
0.0307417
0.0330403
0.0348867
0.0362701
0.0371733
0.0376135
0.0376627
0.0374824
0.0368649
0.0362993
0.035905
0.0356611
0.0357237
0.0359198
0.0362677
0.03677
0.0370396
0.0371899
0.0372801
0.0371725
0.0374044
0.0385179
0.0387796
0.0385108
0.036243
0.0318865
0.027941
0.024569
0.0231331
0.0227263
0.0247092
0.0278447
0.031108
0.0321319
0.0325108
0.0293344
0.0144301
-0.00131907
-0.00846313
-0.00522445
0.00302082
0.00334004
-0.01422
-0.0161107
-0.0161894
-0.0146041
-0.0121066
-0.00934863
-0.00663112
-0.00397702
-0.00128312
0.00155372
0.00456604
0.00772433
0.0109548
0.0141902
0.0173671
0.020439
0.0233475
0.02605
0.0284806
0.0306073
0.0323803
0.0337886
0.0348165
0.0354758
0.0357864
0.0357375
0.0357439
0.0355707
0.0354429
0.035366
0.0354736
0.0356676
0.0359519
0.0363293
0.0365914
0.0367336
0.0368913
0.036963
0.0371405
0.0379735
0.038199
0.0379188
0.0360126
0.0325226
0.0293733
0.026573
0.0250485
0.0243068
0.0258219
0.0280887
0.0301943
0.0314899
0.0313399
0.0284195
0.0162886
0.00307654
-0.00362041
-0.00223257
0.00338011
0.00277647
-0.00873592
-0.0104266
-0.0106161
-0.00939806
-0.00738572
-0.00513153
-0.00290375
-0.000731594
0.00146884
0.0037891
0.00626327
0.00887455
0.0115636
0.0142784
0.0169766
0.0196074
0.0221247
0.0244949
0.0266642
0.0286053
0.0302769
0.0316678
0.0327635
0.0335717
0.0341127
0.0344
0.0345986
0.0346753
0.0347505
0.0348228
0.0349903
0.0352013
0.035464
0.0357642
0.0360215
0.0361759
0.0363455
0.0365143
0.0366234
0.0371476
0.0372461
0.0369037
0.0353404
0.0325956
0.0300567
0.0277373
0.0263173
0.0254393
0.0264955
0.0280199
0.029228
0.0302774
0.0297401
0.0270453
0.0170597
0.00588336
3.95598e-05
0.000102826
0.00334406
0.00222915
-0.00382988
-0.00533361
-0.00560021
-0.00468208
-0.00307723
-0.00125221
0.000557619
0.0023197
0.00410128
0.00598211
0.00799556
0.0101336
0.0123411
0.014632
0.0168985
0.0191293
0.0212869
0.0233446
0.0252595
0.0270084
0.0285575
0.0298945
0.0310076
0.0319019
0.0326064
0.0330701
0.0334339
0.0336908
0.0339164
0.0341101
0.034339
0.034576
0.0348376
0.0350975
0.0353426
0.0355134
0.0356681
0.0358591
0.0359092
0.036182
0.0361427
0.0357331
0.0344493
0.0323108
0.0302464
0.0283148
0.0270434
0.0261629
0.0267256
0.0276777
0.0282412
0.0287192
0.0279038
0.0254086
0.0172436
0.00780511
0.00270238
0.00188859
0.00318272
0.00177659
0.000521721
-0.000800145
-0.00110855
-0.000425648
0.000846037
0.00230638
0.00376315
0.00517994
0.00660913
0.00811932
0.00973975
0.0115044
0.0133555
0.0152125
0.0170879
0.0189563
0.0207854
0.0225529
0.024225
0.0257797
0.02719
0.0284425
0.0295269
0.0304358
0.0311676
0.0317914
0.0322863
0.0326732
0.0330069
0.0332925
0.0335745
0.0338386
0.0341058
0.0343487
0.034577
0.0347551
0.0348851
0.0350515
0.0350561
0.0351445
0.0349925
0.0345381
0.0334686
0.031797
0.0301125
0.028488
0.0273934
0.0265298
0.0266071
0.0271127
0.0272095
0.0270717
0.0260204
0.0236804
0.0170585
0.00915385
0.00460943
0.00322409
0.00309615
0.00145556
0.00440083
0.00322632
0.00287891
0.00335962
0.00434789
0.00552839
0.00670567
0.00784372
0.00898721
0.0102001
0.01152
0.0129171
0.0143959
0.0159236
0.0174727
0.0190272
0.0205651
0.0220689
0.023512
0.0248756
0.0261391
0.0272889
0.0283158
0.0292133
0.0299872
0.030647
0.0312056
0.0316704
0.0320737
0.0324214
0.0327426
0.0330293
0.0333014
0.0335378
0.0337475
0.0339194
0.0340238
0.034144
0.034114
0.0340784
0.0338475
0.0333737
0.0324676
0.0311397
0.0297596
0.0283781
0.0273959
0.0265678
0.0262541
0.0263251
0.026135
0.0255012
0.024223
0.0220022
0.016646
0.0100698
0.0059556
0.00419968
0.0031318
0.00126354
0.00783234
0.00680505
0.00645143
0.00678535
0.00754905
0.00847343
0.00940216
0.0102994
0.0111985
0.0121513
0.0131878
0.0143107
0.015503
0.0167442
0.018012
0.019294
0.0205742
0.0218401
0.0230714
0.0242519
0.0253652
0.0263995
0.0273462
0.0281957
0.0289591
0.029628
0.0302119
0.0307142
0.0311542
0.0315369
0.0318812
0.0321818
0.0324539
0.0326846
0.0328763
0.033033
0.0331138
0.0331831
0.0331233
0.0330104
0.0327329
0.0322582
0.0314787
0.0303967
0.0292508
0.0280642
0.0271366
0.0263372
0.025764
0.0254956
0.0250461
0.0240724
0.0225891
0.0204574
0.0161091
0.0106446
0.00688081
0.00489378
0.00324929
0.001178
0.0108736
0.00998506
0.0096362
0.00985067
0.0104255
0.0111405
0.0118635
0.0125606
0.0132572
0.0139965
0.0148065
0.0156931
0.016643
0.0176396
0.0186656
0.0197113
0.020765
0.0218179
0.022855
0.0238628
0.0248277
0.02574
0.0265924
0.0273782
0.0280952
0.0287408
0.0293173
0.0298255
0.0302753
0.0306698
0.0310206
0.031324
0.0315893
0.0318109
0.0319851
0.0321212
0.0321801
0.0322047
0.0321192
0.0319589
0.0316584
0.0311947
0.0305122
0.029606
0.0286289
0.0275986
0.0266976
0.0259023
0.0251759
0.024622
0.0239582
0.0227912
0.0211572
0.0190831
0.0155132
0.0109544
0.00749091
0.00537246
0.00339562
0.00115927
0.0135657
0.0127966
0.0124579
0.0125799
0.0130032
0.0135476
0.0141015
0.0146337
0.0151637
0.0157279
0.0163509
0.0170403
0.0177864
0.0185759
0.0193953
0.0202374
0.0210935
0.0219572
0.0228179
0.0236651
0.0244872
0.0252758
0.0260249
0.0267293
0.0273833
0.0279835
0.0285284
0.0290176
0.0294551
0.029842
0.030184
0.0304789
0.0307305
0.0309373
0.0310923
0.0312039
0.0312424
0.0312315
0.0311257
0.0309364
0.0306271
0.030181
0.0295697
0.028791
0.0279314
0.0270174
0.0261385
0.025327
0.024512
0.0237438
0.0228955
0.0216362
0.019925
0.0178867
0.014896
0.0110652
0.00786503
0.00568209
0.00352895
0.00117326
0.0159301
0.0152701
0.0149511
0.0150044
0.0153059
0.0157103
0.0161248
0.0165218
0.0169158
0.0173368
0.0178064
0.0183324
0.0189082
0.0195236
0.0201676
0.020835
0.02152
0.0222178
0.02292
0.0236194
0.0243067
0.0249744
0.0256169
0.0262306
0.0268104
0.0273501
0.0278465
0.0282983
0.0287059
0.0290689
0.0293893
0.029665
0.0298961
0.030082
0.0302153
0.0303007
0.0303193
0.0302805
0.0301577
0.0299514
0.0296395
0.0292127
0.0286529
0.0279646
0.0271874
0.0263534
0.0254985
0.0246627
0.0237916
0.0228836
0.0218857
0.020583
0.0188649
0.0168586
0.0142803
0.0110294
0.00806412
0.00585561
0.00362626
0.00119763
0.0180061
0.0174442
0.0171479
0.017149
0.0173524
0.0176426
0.0179433
0.01823
0.0185134
0.0188179
0.0191622
0.0195536
0.019988
0.0204574
0.0209535
0.0214722
0.0220097
0.0225628
0.0231251
0.0236908
0.0242527
0.0248059
0.0253451
0.0258688
0.0263635
0.026832
0.0272684
0.0276699
0.0280347
0.0283616
0.0286497
0.0288968
0.0291008
0.0292603
0.0293683
0.0294276
0.0294257
0.029364
0.0292258
0.0290086
0.0286965
0.0282869
0.0277643
0.0271368
0.0264189
0.0256373
0.0248052
0.0239499
0.0230376
0.0220494
0.0209457
0.0196165
0.0179403
0.015979
0.0136831
0.0108861
0.00813345
0.0059218
0.00367772
0.00121921
0.0198226
0.0193456
0.0190732
0.0190358
0.0191616
0.0193594
0.0195673
0.0197643
0.019958
0.0201683
0.0204107
0.020692
0.0210095
0.0213573
0.0217291
0.022122
0.0225334
0.0229611
0.0234006
0.0238474
0.0242952
0.0247407
0.0251793
0.0256083
0.0260229
0.0264158
0.0267869
0.0271304
0.0274438
0.0277262
0.0279741
0.0281854
0.0283562
0.0284841
0.0285641
0.0285972
0.0285734
0.0284908
0.0283378
0.0281119
0.0278004
0.0274027
0.0269066
0.0263187
0.0256428
0.0248966
0.024082
0.0232173
0.0222744
0.0212437
0.0200795
0.0187318
0.0171185
0.0152234
0.0131167
0.0106644
0.00810811
0.00590804
0.00368213