/*--------------------------------*- C++ -*----------------------------------*\
| =========                 |                                                 |
| \\      /  F ield         | OpenFOAM: The Open Source CFD Toolbox           |
|  \\    /   O peration     | Version:  2512                                  |
|   \\  /    A nd           | Website:  www.openfoam.com                      |
|    \\/     M anipulation  |                                                 |
\*---------------------------------------------------------------------------*/
FoamFile
{
    version     2.0;
    format      ascii;
    arch        "LSB;label=32;scalar=64";
    class       surfaceScalarField;
    location    "83.7";
    object      phi;
}
// * * * * * * * * * * * * * * * * * * * * * * * * * * * * * * * * * * * * * //

dimensions      [0 3 -1 0 0 0 0];

oriented        oriented;

internalField   nonuniform List<scalar> 
26232
(
-0.000246298
0.00194948
-0.00170319
-0.000171875
0.00346301
-0.00353743
0.000816003
0.00302994
-0.00401782
0.00326337
0.000607676
-0.00305504
0.00769452
-0.00401873
-0.00041242
0.0146184
-0.0110591
0.00413519
0.024299
-0.0204945
0.0108139
0.0365863
-0.0319039
0.0196166
0.0508045
-0.0444737
0.0302555
0.0658494
-0.0571841
0.0421393
0.0804398
-0.069059
0.0544685
0.0934209
-0.0793718
0.0663907
0.104021
-0.0877601
0.0771601
0.111991
-0.0942364
0.0862666
0.117584
-0.099108
0.0935144
0.121389
-0.102829
0.0990246
0.124071
-0.105837
0.103155
0.126154
-0.108439
0.106357
0.127961
-0.110794
0.108987
0.129594
-0.112979
0.111345
0.131177
-0.114915
0.113332
0.132599
-0.116861
0.115439
0.133446
-0.117888
0.11704
-0.119566
0.11955
0.133463
-0.000102258
0.00205174
0.000354738
0.00300601
0.00204397
0.00134071
0.00562298
-0.00297134
0.011698
-0.0100937
0.0206324
-0.0199935
0.0322802
-0.0321423
0.0458661
-0.0454898
0.0601439
-0.0587514
0.0737505
-0.0707907
0.0855754
-0.0808838
0.0950074
-0.0888039
0.101997
-0.0947498
0.106939
-0.0991782
0.110437
-0.102606
0.113063
-0.105456
0.115221
-0.107994
0.117134
-0.110353
0.118921
-0.112581
0.120642
-0.114699
0.122436
-0.116709
0.124234
-0.118659
0.126712
-0.120365
-0.122735
0.129881
9.3061e-05
0.00195868
0.00108995
0.00200912
0.00373155
-0.00130088
0.00873436
-0.00797415
0.0166089
-0.0179683
0.0273182
-0.0307029
0.0400695
-0.0448935
0.0535045
-0.0589248
0.0661749
-0.0714218
0.0769942
-0.08161
0.0854752
-0.0893648
0.0917127
-0.0950414
0.09618
-0.0992171
0.0994608
-0.102459
0.102044
-0.105189
0.104246
-0.107658
0.106244
-0.109992
0.108138
-0.112247
0.109999
-0.114442
0.111899
-0.116599
0.113865
-0.118675
0.11597
-0.120763
0.11823
-0.122626
-0.124734
0.120229
0.000300708
0.00165797
0.0019334
0.000376427
0.00568681
-0.00505429
0.0122344
-0.0145217
0.0217499
-0.0274838
0.0335381
-0.0424911
0.0461737
-0.0575291
0.0580999
-0.0708511
0.0681992
-0.0815211
0.0760372
-0.089448
0.081778
-0.0951057
0.085916
-0.0991794
0.0889976
-0.102299
0.0914523
-0.104914
0.0935547
-0.107291
0.0954654
-0.109569
0.0972816
-0.111808
0.0990644
-0.11403
0.100865
-0.116243
0.102704
-0.118438
0.104647
-0.120618
0.106703
-0.122819
0.108997
-0.124919
-0.127404
0.111666
0.000523616
0.00113436
0.00286417
-0.00196413
0.00781958
-0.0100097
0.0158388
-0.022541
0.0264778
-0.0381227
0.0383278
-0.0543411
0.0496914
-0.0688927
0.0593301
-0.0804897
0.066769
-0.08896
0.0721734
-0.0948525
0.076035
-0.0989672
0.0788844
-0.102029
0.0811377
-0.104552
0.0830669
-0.106843
0.0848329
-0.109057
0.0865257
-0.111262
0.0881939
-0.113476
0.0898692
-0.115705
0.0915718
-0.117946
0.0933347
-0.120201
0.0951904
-0.122474
0.0971402
-0.124769
0.0992628
-0.127042
-0.129495
0.101354
0.000776576
0.000357783
0.00388906
-0.00507661
0.010041
-0.0161616
0.0192002
-0.0317002
0.0301504
-0.049073
0.0410573
-0.065248
0.050457
-0.0782924
0.0577233
-0.0877561
0.0629563
-0.0941929
0.0666306
-0.0985267
0.0692817
-0.101618
0.0713379
-0.104085
0.07308
-0.106294
0.0746669
-0.10843
0.0761784
-0.110569
0.0776523
-0.112735
0.0791119
-0.114936
0.0805775
-0.117171
0.0820744
-0.119443
0.0836265
-0.121753
0.0852561
-0.124103
0.0869889
-0.126502
0.0888771
-0.12893
-0.131528
0.0909103
0.00106706
-0.000709276
0.00498325
-0.0089928
0.0121757
-0.0233541
0.0218971
-0.0414215
0.0323005
-0.0594764
0.0416077
-0.0745552
0.0489042
-0.0855888
0.0541344
-0.0929863
0.0577256
-0.0977842
0.0602242
-0.101025
0.0620861
-0.10348
0.0636128
-0.105612
0.0649724
-0.107654
0.066247
-0.109704
0.0674766
-0.111798
0.0686856
-0.113944
0.069894
-0.116144
0.0711211
-0.118398
0.0723837
-0.120705
0.0736979
-0.123067
0.0750811
-0.125486
0.076539
-0.12796
0.0780977
-0.130489
-0.133118
0.079688
0.00138743
-0.0020967
0.00607142
-0.0136768
0.0139759
-0.0312586
0.0235799
-0.0510256
0.0328017
-0.0686982
0.040284
-0.0820374
0.0456832
-0.0909881
0.0493174
-0.0966205
0.0517327
-0.1002
0.0534246
-0.102717
0.0547329
-0.104788
0.0558498
-0.106729
0.05687
-0.108674
0.057838
-0.110672
0.0587774
-0.112738
0.0597035
-0.114871
0.0606293
-0.11707
0.0615673
-0.119336
0.0625312
-0.121669
0.0635362
-0.124072
0.0645947
-0.126545
0.0657239
-0.129089
0.0669437
-0.131708
-0.134411
0.0682367
0.00171654
-0.00381324
0.00704204
-0.0190023
0.0152073
-0.0394238
0.0241063
-0.0599245
0.0318296
-0.0764216
0.0375595
-0.0877673
0.0413875
-0.0948161
0.0438181
-0.0990511
0.0453883
-0.10177
0.0464931
-0.103822
0.0473644
-0.10566
0.048118
-0.107482
0.0488062
-0.109362
0.0494537
-0.11132
0.0500746
-0.113358
0.0506809
-0.115477
0.051285
-0.117674
0.0518999
-0.119951
0.0525385
-0.122308
0.0532117
-0.124745
0.0539303
-0.127263
0.0547021
-0.129861
0.0555307
-0.132537
-0.135279
0.0563981
0.00202439
-0.00583763
0.0077766
-0.0247545
0.0157313
-0.0473785
0.0235403
-0.0677336
0.029704
-0.0825852
0.0338919
-0.0919553
0.0364698
-0.097394
0.0379944
-0.100576
0.0389285
-0.102704
0.0395624
-0.104456
0.0400456
-0.106143
0.0404451
-0.107882
0.0407904
-0.109707
0.0410971
-0.111627
0.0413768
-0.113638
0.0416402
-0.11574
0.0418978
-0.117932
0.04216
-0.120213
0.0424365
-0.122584
0.0427376
-0.125046
0.043073
-0.127599
0.0434529
-0.130241
0.0438844
-0.132968
-0.135767
0.0443727
0.00228073
-0.00811836
0.0081862
-0.03066
0.0155366
-0.0547289
0.0220724
-0.0742693
0.026766
-0.0872788
0.0296572
-0.0948465
0.0312505
-0.0989872
0.0320734
-0.101399
0.0324935
-0.103124
0.0327125
-0.104675
0.0328228
-0.106253
0.0328637
-0.107923
0.0328532
-0.109697
0.0328028
-0.111576
0.0327219
-0.113557
0.0326194
-0.115638
0.0325046
-0.117817
0.0323869
-0.120095
0.0322763
-0.122474
0.0321825
-0.124953
0.0321152
-0.127531
0.0320803
-0.130206
0.0320766
-0.132965
-0.135797
0.0321062
0.00246415
-0.0105825
0.00824046
-0.0364363
0.0147208
-0.0612093
0.019946
-0.0794945
0.0233256
-0.0906584
0.0251455
-0.0966664
0.025951
-0.0997928
0.0261994
-0.101647
0.0261682
-0.103093
0.025992
-0.104499
0.0257275
-0.105989
0.0253981
-0.107593
0.0250159
-0.109315
0.0245898
-0.11115
0.0241279
-0.113095
0.0236383
-0.115148
0.023129
-0.117308
0.0226074
-0.119574
0.0220818
-0.121948
0.021561
-0.124432
0.021055
-0.127025
0.020574
-0.129725
0.0201255
-0.132516
0.0197206
-0.135392
0.000391669
0.00805189
-0.00844356
0.000572074
0.0189012
-0.0190816
0.000181678
0.0255009
-0.0251105
-0.00075734
0.0289643
-0.0280253
-0.00204629
0.0305745
-0.0292855
-0.00347781
0.0312856
-0.0298541
-0.00487865
0.0315517
-0.0301508
-0.00611361
0.0314408
-0.0302059
-0.00707361
0.0308228
-0.0298628
-0.00766701
0.0295106
-0.0289172
-0.00782026
0.0273323
-0.0271791
-0.007484
0.0241579
-0.0244942
-0.00663989
0.019909
-0.0207531
-0.00530492
0.0145582
-0.0158931
-0.00353627
0.00812277
-0.00989142
-0.00142326
0.000642763
-0.00275578
0.00111018
-0.00782509
0.00529165
0.00405049
-0.0173266
0.0143863
0.0074304
-0.0278512
0.0244713
0.011374
-0.0393658
0.0354222
0.0161101
-0.051755
0.0470189
0.0217128
-0.0644353
0.0588326
0.0282878
-0.0770406
0.0704656
-0.0881243
0.0353995
0.0810127
0.000749382
0.0073025
0.00170854
0.017942
0.00229025
0.0249192
0.00240486
0.0288497
0.00221758
0.0307617
0.00196862
0.0315345
0.00186896
0.0316513
0.00207175
0.031238
0.00267907
0.0302154
0.00375533
0.0284344
0.00533368
0.025754
0.00741571
0.0220759
0.00997002
0.0173547
0.0129349
0.0115933
0.0162143
0.00484336
0.0197542
-0.00289715
0.0234968
-0.0115677
0.0273993
-0.0212291
0.0315576
-0.0320095
0.0360951
-0.0439033
0.0412634
-0.0569233
0.0470426
-0.0702145
0.0535586
-0.0835565
-0.0950212
0.0604554
0.00102179
0.00628072
0.00269423
0.0162696
0.0042586
0.0233548
0.00547992
0.0276284
0.00645891
0.0297827
0.00742908
0.0305644
0.00862007
0.0304604
0.0101989
0.0296593
0.0122639
0.0281504
0.0148583
0.02584
0.0179829
0.0226294
0.0216044
0.0184544
0.0256598
0.0132992
0.0300562
0.00719687
0.0346315
0.000268108
0.0394686
-0.00773426
0.0444425
-0.0165416
0.0495902
-0.0263768
0.0550644
-0.0374837
0.0609436
-0.0497826
0.0674182
-0.0633979
0.0741808
-0.0769771
0.0811561
-0.0905318
-0.101488
0.0876231
0.00116473
0.00511599
0.00336927
0.014065
0.00579051
0.0209336
0.00805886
0.0253601
0.0101669
0.0276747
0.0122964
0.0284349
0.0146667
0.02809
0.0174499
0.026876
0.0207454
0.024855
0.0245853
0.022
0.0289493
0.0182653
0.0337767
0.013627
0.0389756
0.0081003
0.0444025
0.00176996
0.0501849
-0.00551426
0.0560637
-0.0136131
0.0622072
-0.0226851
0.0687408
-0.0329104
0.0758866
-0.0446295
0.0836396
-0.0575356
0.0919989
-0.0717572
0.100321
-0.0852989
0.108309
-0.0985206
-0.108089
0.11491
0.00116453
0.00395146
0.00363665
0.0115929
0.00665653
0.0179137
0.00977223
0.0222444
0.012857
0.02459
0.0160015
0.0252903
0.0193777
0.0247138
0.0231412
0.0231125
0.0273868
0.0206094
0.0321413
0.0172455
0.0373739
0.0130328
0.0430122
0.00798873
0.0489422
0.00217032
0.0552447
-0.00453254
0.0617786
-0.0120482
0.0686748
-0.0205093
0.0761562
-0.0301665
0.0844326
-0.0411868
0.0936255
-0.0538223
0.103462
-0.0673721
0.113471
-0.081766
0.122666
-0.0944937
0.13055
-0.106405
-0.113579
0.136041
0.0010387
0.00291277
0.00348487
0.00914671
0.00674811
0.0146504
0.0103769
0.0186155
0.0141547
0.0208122
0.018068
0.021377
0.0222108
0.0205711
0.0266943
0.018629
0.0315936
0.0157102
0.036929
0.0119101
0.0426744
0.00728735
0.0487641
0.00189908
0.0552955
-0.00436117
0.062223
-0.01146
0.0697403
-0.0195654
0.0781231
-0.0288921
0.0876361
-0.0396795
0.0983457
-0.0518964
0.109939
-0.0654157
0.121674
-0.0791069
0.132517
-0.0926093
0.14138
-0.103356
0.147749
-0.112775
-0.116797
0.150967
0.000823985
0.00208878
0.00298262
0.00698807
0.00610943
0.0115236
0.00983382
0.0148911
0.0139075
0.0167386
0.0182341
0.0170504
0.0228233
0.0159818
0.0277265
0.0137258
0.0329902
0.0104465
0.0386401
0.00626014
0.0446848
0.00124264
0.051299
-0.00471509
0.0585466
-0.0116088
0.0667167
-0.0196301
0.076129
-0.0289777
0.0870203
-0.0397834
0.0993326
-0.0519918
0.1126
-0.0651642
0.125855
-0.07867
0.137957
-0.0912093
0.147667
-0.102319
0.15436
-0.110049
0.157862
-0.116276
-0.117473
0.158538
0.000560108
0.00152867
0.00224476
0.00530343
0.00491409
0.0088543
0.00832746
0.0114778
0.0122656
0.0128004
0.0165959
0.0127201
0.0212723
0.0113055
0.0263095
0.00868859
0.0317658
0.00499021
0.0377231
0.000302772
0.044461
-0.00549527
0.0521663
-0.0124203
0.061206
-0.0206485
0.0718839
-0.030308
0.0842966
-0.0413904
0.098181
-0.0536678
0.112804
-0.0666142
0.127087
-0.0794473
0.139697
-0.0912808
0.149609
-0.101121
0.156047
-0.108757
0.159274
-0.113276
0.159761
-0.116763
-0.116407
0.158694
0.000280052
0.00124862
0.00139712
0.00418635
0.00341079
0.00684063
0.00622388
0.00866467
0.00969436
0.00932993
0.0137179
0.00869657
0.0182675
0.00675593
0.0234103
0.00354578
0.0293236
-0.000923097
0.0363235
-0.00669714
0.0447162
-0.013888
0.0548663
-0.0225704
0.0669531
-0.0327353
0.0808388
-0.0441937
0.0959721
-0.0565238
0.111405
-0.0691005
0.125913
-0.081122
0.138291
-0.0918261
0.147567
-0.100556
0.15346
-0.107015
0.156135
-0.111432
0.156662
-0.113803
0.155812
-0.115913
-0.115443
0.154848
1.58937e-05
0.00123273
0.000573672
0.00362858
0.00190233
0.00551197
0.00404501
0.006522
0.00698471
0.00639023
0.0107345
0.00494677
0.0154025
0.00208798
0.0212248
-0.00227656
0.0285417
-0.00824
0.0377194
-0.0158748
0.0489906
-0.0251593
0.062322
-0.0359018
0.0772913
-0.0477047
0.0930781
-0.0599804
0.108564
-0.0720098
0.122527
-0.0830636
0.133912
-0.0925068
0.142096
-0.10001
0.147031
-0.105491
0.14937
-0.109354
0.149922
-0.111985
0.149923
-0.113804
0.149633
-0.115623
-0.115725
0.149916
-0.00018857
0.0014213
-5.25239e-05
0.00349253
0.000761742
0.00469771
0.00246361
0.00482013
0.00521339
0.00364045
0.0092218
0.000938364
0.0147917
-0.00348189
0.0222903
-0.00977516
0.0320253
-0.017975
0.0440774
-0.0279269
0.0581606
-0.0392425
0.0735795
-0.0513206
0.0893034
-0.0634286
0.104139
-0.0748159
0.11697
-0.0848408
0.126999
-0.0930932
0.133953
-0.0994601
0.138113
-0.10417
0.140211
-0.107589
0.141154
-0.110297
0.141608
-0.112439
0.142323
-0.114519
0.143018
-0.116317
-0.117022
0.144315
-0.000281888
-0.000326793
0.000353093
0.00211818
0.0053462
0.0104198
0.0177517
0.0275932
0.0398736
0.0540859
0.069312
0.084382
0.0981136
0.109564
0.118238
0.124169
0.127864
0.13005
0.131448
0.132496
0.13339
0.134309
0.135032
0.13756
0.0402811
-0.127985
0.123103
0.0430366
-0.138187
0.135431
0.0421957
-0.144304
0.145145
0.0383883
-0.148972
0.152779
0.0347381
-0.153683
0.157333
0.0358738
-0.155785
0.15465
0.0448652
-0.148393
0.139402
0.0606896
-0.125509
0.109685
0.0790478
-0.0865077
0.0681495
0.0966126
-0.0354104
0.0178456
0.112646
0.0231548
-0.0391882
0.12686
0.0822483
-0.0964619
0.138486
0.131365
-0.142992
0.146701
0.162877
-0.171091
0.151071
0.177816
-0.182186
0.152428
0.182769
-0.184126
0.152618
0.18207
-0.18226
0.1521
0.179784
-0.179266
0.149478
0.186083
-0.183462
0.144113
0.205923
-0.200558
0.137909
0.224114
-0.21791
0.133655
0.210772
-0.206518
0.132851
0.148581
-0.147777
0.135899
0.0469229
-0.0499705
0.141898
-0.0622598
0.056261
0.14839
-0.149874
0.143382
0.153457
-0.20283
0.197763
0.157119
-0.222891
0.219229
0.158537
-0.22405
0.222632
0.155583
-0.229478
0.232431
0.147523
-0.247051
0.255112
0.135993
-0.256476
0.268007
0.124636
-0.234791
0.246147
0.117328
-0.164379
0.171687
0.117016
-0.0587224
0.0590337
0.122895
0.0604293
-0.0663081
0.132619
0.153115
-0.162839
0.140168
0.215196
-0.222744
0.139955
0.252969
-0.252756
0.132048
0.287678
-0.279771
0.121747
0.295484
-0.285184
0.114852
0.245078
-0.238183
0.115445
0.134216
-0.134809
0.122731
-0.00799859
0.000712791
0.128691
-0.117739
0.111779
0.128666
-0.218685
0.21871
0.124974
-0.274541
0.278233
0.122058
-0.302216
0.305132
0.120794
-0.243213
0.244477
0.120948
-0.11762
0.117466
0.120961
0.0399744
-0.0399872
0.120836
0.206843
-0.206718
0.120991
0.262721
-0.262875
0.121205
0.316549
-0.316764
0.122749
0.257279
-0.258823
0.123622
0.0878699
-0.0887429
0.12173
-0.102037
0.10393
0.119491
-0.441704
0.443942
0.115857
-0.363507
0.367142
-0.027923
0.0321434
0.0623652
-0.129894
0.0635412
-0.139363
0.0618655
-0.142628
0.0554045
-0.142511
0.0451795
-0.143458
0.0359053
-0.146511
0.0336257
-0.146114
0.0410751
-0.132958
0.0560982
-0.101531
0.074494
-0.0538062
0.0936088
0.00403993
0.112069
0.0637883
0.12845
0.114984
0.141257
0.150071
0.149644
0.169428
0.154433
0.17798
0.157432
0.179072
0.159295
0.17792
0.15931
0.186068
0.157145
0.208087
0.153898
0.227362
0.150931
0.213739
0.149109
0.150403
0.148998
0.0470336
0.150983
-0.064245
0.153787
-0.152677
0.155606
-0.204648
0.15635
-0.223636
0.155441
-0.22314
0.150513
-0.224551
0.140691
-0.237229
0.128003
-0.243788
0.116587
-0.223375
0.110345
-0.158136
0.112113
-0.0604911
0.120922
0.0516209
0.133154
0.140882
0.142283
0.206067
0.143247
0.252005
0.136507
0.294419
0.126549
0.305442
0.118794
0.252833
0.117594
0.135416
0.123561
-0.0139657
0.1292
-0.123379
0.12863
-0.218114
0.124214
-0.270126
0.121027
-0.299029
0.120164
-0.24235
0.120703
-0.118159
0.121586
0.0390918
0.121864
0.206565
0.122046
0.262539
0.122467
0.316128
0.124086
0.255659
0.125183
0.0867728
0.122218
-0.0990714
0.118904
-0.43839
0.116346
-0.36095
-0.0243477
0.0849412
-0.127212
0.0818148
-0.136236
0.0781647
-0.138978
0.0720191
-0.136365
0.0605696
-0.132008
0.0452636
-0.131205
0.0326662
-0.133516
0.0295463
-0.129838
0.0376713
-0.109656
0.05391
-0.0700449
0.0745263
-0.0165764
0.0965287
0.0417858
0.117345
0.0941675
0.134638
0.132778
0.147158
0.156908
0.155616
0.169522
0.16169
0.172998
0.166287
0.173323
0.169357
0.182998
0.170724
0.206721
0.170645
0.227441
0.169141
0.215243
0.166036
0.153508
0.162423
0.0506461
0.160216
-0.062038
0.159227
-0.151689
0.157813
-0.203235
0.155724
-0.221546
0.152698
-0.220115
0.146357
-0.21821
0.135412
-0.226284
0.121838
-0.230214
0.11015
-0.211688
0.104831
-0.152817
0.108405
-0.064065
0.119662
0.0403643
0.134096
0.126448
0.144921
0.195242
0.147493
0.249432
0.142322
0.29959
0.132975
0.314789
0.124386
0.261423
0.121039
0.138762
0.125115
-0.0180412
0.130247
-0.128511
0.129195
-0.217062
0.123938
-0.264868
0.120205
-0.295296
0.119682
-0.241827
0.120836
-0.119313
0.122651
0.0372776
0.123329
0.205887
0.123429
0.262439
0.123969
0.315588
0.125639
0.253989
0.127013
0.0853992
0.12318
-0.0952382
0.11882
-0.434031
0.11729
-0.359419
-0.021381
0.108793
-0.121095
0.100973
-0.128417
0.0927229
-0.130728
0.0852557
-0.128898
0.0761235
-0.122876
0.0612964
-0.116378
0.042909
-0.115129
0.0294188
-0.116348
0.0278345
-0.108071
0.0386505
-0.080861
0.057951
-0.0358768
0.0818121
0.0179247
0.105897
0.0700825
0.126982
0.111693
0.143361
0.140529
0.155416
0.157467
0.164549
0.163865
0.171875
0.165997
0.177963
0.17691
0.182867
0.201817
0.186154
0.224153
0.186532
0.214865
0.182618
0.157423
0.175686
0.0575781
0.169517
-0.0558694
0.164753
-0.146924
0.160137
-0.198619
0.155353
-0.216762
0.150349
-0.215111
0.142911
-0.210772
0.131435
-0.214808
0.11748
-0.216259
0.105502
-0.19971
0.100574
-0.14789
0.105418
-0.068909
0.118678
0.0271047
0.135135
0.109991
0.147963
0.182414
0.152551
0.244845
0.149198
0.302942
0.140729
0.323259
0.131548
0.270603
0.125903
0.144407
0.127498
-0.0196366
0.13181
-0.132823
0.130352
-0.215605
0.124163
-0.258679
0.11964
-0.290774
0.119394
-0.241581
0.121293
-0.121212
0.124107
0.0344635
0.125191
0.204803
0.125114
0.262516
0.125668
0.315033
0.127337
0.25232
0.129073
0.0836637
0.124597
-0.0907627
0.119249
-0.428683
0.118611
-0.358781
-0.0190307
0.127232
-0.112286
0.116971
-0.118157
0.10546
-0.119216
0.0944969
-0.117935
0.0856757
-0.114055
0.0756243
-0.106327
0.059569
-0.0990734
0.0407298
-0.097509
0.029064
-0.0964057
0.031172
-0.0829689
0.0459809
-0.0506857
0.0690345
-0.00512894
0.0944523
0.0446647
0.118225
0.0879199
0.137992
0.120762
0.153462
0.141997
0.165555
0.151771
0.175453
0.156099
0.184292
0.168071
0.192502
0.193608
0.199023
0.217632
0.201256
0.212632
0.197291
0.161387
0.188309
0.0665602
0.178458
-0.0460177
0.169923
-0.138389
0.162287
-0.190982
0.15507
-0.209546
0.14833
-0.20837
0.140195
-0.202637
0.1287
-0.203313
0.114835
-0.202393
0.102645
-0.187519
0.0976413
-0.142886
0.103023
-0.074291
0.117658
0.01247
0.13587
0.0917786
0.150933
0.167351
0.158078
0.2377
0.157163
0.303858
0.149932
0.330489
0.140324
0.280212
0.132229
0.152502
0.13076
-0.0181675
0.133815
-0.135878
0.132028
-0.213818
0.12488
-0.251531
0.119329
-0.285223
0.119266
-0.241518
0.122001
-0.123947
0.125893
0.0305708
0.127417
0.20328
0.127074
0.262859
0.127523
0.314584
0.129121
0.250722
0.131326
0.0814583
0.126448
-0.0858851
0.120178
-0.422412
0.120299
-0.358902
-0.0172811
0.139139
-0.100459
0.126869
-0.105886
0.114759
-0.107107
0.102596
-0.105771
0.0918982
-0.103357
0.0839196
-0.0983484
0.0743623
-0.089516
0.0586835
-0.0818303
0.041605
-0.0793271
0.0336698
-0.0750337
0.0403889
-0.0574048
0.0587191
-0.0234592
0.0832712
0.0201126
0.1081
0.0630914
0.130335
0.0985273
0.1488
0.123531
0.163651
0.136921
0.175881
0.143869
0.187107
0.156846
0.198205
0.182509
0.207629
0.208208
0.21174
0.208521
0.208149
0.164978
0.198187
0.0765216
0.185977
-0.0338074
0.174398
-0.12681
0.164119
-0.180703
0.154821
-0.200248
0.146517
-0.200066
0.137852
-0.193973
0.126811
-0.192272
0.113578
-0.18916
0.101395
-0.175336
0.0958845
-0.137376
0.100993
-0.0793992
0.116265
-0.00280199
0.13594
0.0721033
0.153415
0.149876
0.163461
0.227654
0.165274
0.302045
0.159718
0.336044
0.150118
0.289812
0.139797
0.162823
0.134885
-0.0132556
0.136162
-0.137155
0.134099
-0.211754
0.126068
-0.2435
0.119259
-0.278414
0.119236
-0.241494
0.122864
-0.127575
0.127926
0.0255088
0.129954
0.201251
0.129291
0.263522
0.129499
0.314377
0.130954
0.249267
0.133745
0.0786682
0.128707
-0.0808479
0.12158
-0.415285
0.122325
-0.359647
-0.0161106
0.145393
-0.0873136
0.131756
-0.0922489
0.11906
-0.0944108
0.107703
-0.0944135
0.0969565
-0.0926111
0.0882291
-0.0896211
0.0823056
-0.0835925
0.0743965
-0.0739212
0.0606024
-0.0655329
0.0466301
-0.0610615
0.0428309
-0.0536056
0.0529605
-0.0335887
0.0738098
-0.000736707
0.0979276
0.0389736
0.121455
0.0750002
0.142136
0.10285
0.159185
0.119872
0.173178
0.129876
0.18611
0.143914
0.199518
0.1691
0.211698
0.196029
0.218029
0.20219
0.215374
0.167633
0.20512
0.0867761
0.191571
-0.0202586
0.17786
-0.113099
0.165396
-0.168239
0.154414
-0.189266
0.144862
-0.190514
0.135756
-0.184866
0.125365
-0.181881
0.113271
-0.177067
0.101511
-0.163575
0.095223
-0.131089
0.0992873
-0.0834635
0.114139
-0.0176539
0.134945
0.0512975
0.154901
0.12992
0.168281
0.214274
0.173451
0.296876
0.170264
0.339231
0.160886
0.299191
0.148404
0.175305
0.139801
-0.00465249
0.138751
-0.136105
0.136401
-0.209404
0.127678
-0.234777
0.119421
-0.270158
0.119227
-0.241301
0.123767
-0.132114
0.130116
0.019159
0.132755
0.198613
0.131732
0.264545
0.131567
0.314541
0.132832
0.248002
0.136314
0.0751856
0.131346
-0.0758797
0.123422
-0.40736
0.124648
-0.360874
-0.0154983
0.146173
-0.0747923
0.133659
-0.0797346
0.121525
-0.0822771
0.110756
-0.0836443
0.101312
-0.0831674
0.0925412
-0.0808503
0.0859705
-0.0770217
0.0821777
-0.0701284
0.0766037
-0.0599589
0.0658539
-0.0503117
0.055455
-0.0432067
0.0549025
-0.0330362
0.0670341
-0.0128683
0.0882679
0.0177398
0.11212
0.0511482
0.134554
0.0804152
0.153312
0.101115
0.168356
0.114832
0.182072
0.130199
0.196806
0.154366
0.210999
0.181836
0.219397
0.193791
0.218275
0.168755
0.208826
0.0962251
0.19515
-0.00658314
0.180203
-0.098152
0.166038
-0.154074
0.153685
-0.176914
0.143184
-0.180012
0.133707
-0.17539
0.123983
-0.172157
0.113364
-0.166448
0.102603
-0.152814
0.095593
-0.124079
0.0977779
-0.0856484
0.111307
-0.0311834
0.132713
0.0298918
0.155038
0.107596
0.17174
0.197571
0.180276
0.288339
0.179917
0.33959
0.171639
0.307469
0.157458
0.189486
0.145381
0.00742388
0.141491
-0.132215
0.138753
-0.206665
0.12963
-0.225654
0.119819
-0.260347
0.119163
-0.240645
0.124595
-0.137546
0.13236
0.011394
0.135749
0.195224
0.134372
0.265922
0.13374
0.315173
0.13478
0.246962
0.139045
0.0709202
0.13434
-0.0711747
0.125662
-0.398681
0.127221
-0.362433
-0.0154251
0.143827
-0.0637718
0.132943
-0.0688501
0.122473
-0.0718071
0.112628
-0.0737992
0.103973
-0.074513
0.0964161
-0.0732932
0.0896896
-0.0702952
0.0852192
-0.0656581
0.0833981
-0.0581379
0.0806106
-0.0475242
0.0738149
-0.0364111
0.0671364
-0.0263577
0.068546
-0.0142778
0.0815307
0.00475502
0.102186
0.0304931
0.125086
0.0575151
0.145502
0.0806982
0.16175
0.0985838
0.175965
0.115984
0.191377
0.138955
0.207132
0.166081
0.217522
0.183401
0.21803
0.168247
0.209699
0.104556
0.196323
0.00679327
0.181045
-0.0828744
0.165812
-0.13884
0.152455
-0.163557
0.141349
-0.168906
0.131594
-0.165634
0.122375
-0.162938
0.113275
-0.157347
0.104099
-0.143638
0.0968998
-0.116879
0.0967652
-0.0855138
0.107917
-0.0423352
0.128944
0.00886435
0.15338
0.0831601
0.173868
0.177083
0.18631
0.275897
0.189
0.3369
0.182342
0.314128
0.16692
0.204908
0.151242
0.023101
0.144287
-0.12526
0.140967
-0.203345
0.131802
-0.21649
0.120446
-0.24899
0.118984
-0.239183
0.125217
-0.14378
0.13455
0.00206156
0.138866
0.190908
0.137163
0.267625
0.136013
0.316323
0.136843
0.246133
0.141943
0.0658197
0.137665
-0.0668965
0.128256
-0.389273
0.130001
-0.364178
-0.0158712
0.140905
-0.0547613
0.131496
-0.0594405
0.122261
-0.0625727
0.11357
-0.0651079
0.105544
-0.0664868
0.0985649
-0.0663143
0.0927017
-0.064432
0.0879501
-0.0609065
0.0853258
-0.0555136
0.0854148
-0.0476132
0.0854458
-0.0364421
0.0824725
-0.0233843
0.0789966
-0.0108019
0.081776
0.00197556
0.0939166
0.0183525
0.112552
0.0388794
0.132296
0.0609542
0.149621
0.0812596
0.165354
0.100251
0.18204
0.122269
0.198675
0.149446
0.210244
0.171833
0.212917
0.165573
0.20714
0.110333
0.195904
0.0180299
0.180921
-0.0678919
0.164889
-0.122808
0.150604
-0.149273
0.139097
-0.1574
0.129224
-0.155761
0.120322
-0.154036
0.112505
-0.149531
0.105278
-0.136411
0.0987967
-0.110398
0.0965881
-0.0833051
0.104403
-0.0501505
0.123894
-0.010626
0.149712
0.0573423
0.173353
0.153442
0.189462
0.259788
0.195525
0.330837
0.191214
0.318439
0.175933
0.220189
0.157608
0.0414265
0.147082
-0.114733
0.142851
-0.199114
0.134016
-0.207655
0.121255
-0.236229
0.118639
-0.236566
0.125513
-0.150654
0.136551
-0.00897604
0.142022
0.185437
0.140115
0.269532
0.138469
0.31797
0.139091
0.24551
0.145032
0.0598785
0.141289
-0.0631539
0.131174
-0.379158
0.132953
-0.365956
-0.0168095
0.136777
-0.0472236
0.12851
-0.0511732
0.120144
-0.0542067
0.112171
-0.0571353
0.104813
-0.0591282
0.098301
-0.0598028
0.0930424
-0.0591733
0.0891023
-0.0569665
0.0864079
-0.0528191
0.085666
-0.0468713
0.0876104
-0.0383865
0.0906765
-0.0264504
0.0922296
-0.012355
0.0928922
0.00131289
0.0962035
0.0150412
0.105639
0.0294442
0.119424
0.0471685
0.134309
0.0663748
0.150068
0.0844922
0.168314
0.104022
0.187549
0.130211
0.201964
0.157418
0.206849
0.160689
0.2031
0.114082
0.192579
0.0285509
0.178445
-0.0537576
0.162426
-0.106789
0.147749
-0.134595
0.136172
-0.145823
0.126462
-0.146051
0.117797
-0.145371
0.110872
-0.142606
0.105542
-0.131081
0.100644
-0.1055
0.0973969
-0.0800583
0.101494
-0.0542477
0.117738
-0.0268695
0.144097
0.0309827
0.171513
0.126026
0.191847
0.239454
0.200862
0.321823
0.198343
0.320957
0.184275
0.234257
0.16374
0.061961
0.149723
-0.100716
0.14425
-0.193641
0.136088
-0.199493
0.122323
-0.222464
0.11816
-0.232403
0.125316
-0.15781
0.138301
-0.0219612
0.145112
0.178625
0.143122
0.271523
0.14107
0.320021
0.141549
0.245031
0.148302
0.0531264
0.145162
-0.0600142
0.134393
-0.368389
0.136048
-0.367611
-0.0182086
0.131432
-0.0410956
0.124351
-0.0440925
0.11722
-0.047076
0.110177
-0.0500921
0.103647
-0.0525983
0.097964
-0.0541193
0.0931637
-0.054373
0.0894107
-0.0532135
0.0868631
-0.0502715
0.0855067
-0.0455148
0.0861823
-0.0390622
0.0896434
-0.0299115
0.0944276
-0.0171393
0.0982536
-0.00251308
0.101853
0.0114421
0.106582
0.0247151
0.113678
0.0400727
0.123065
0.0569878
0.135258
0.072299
0.151375
0.0879048
0.169597
0.111989
0.184634
0.14238
0.193374
0.151949
0.195642
0.111814
0.190366
0.033827
0.177293
-0.0406847
0.160862
-0.0903583
0.145414
-0.119147
0.133544
-0.133953
0.124025
-0.136532
0.115462
-0.136808
0.108919
-0.136063
0.104997
-0.127159
0.101924
-0.102427
0.0987839
-0.0769177
0.0998416
-0.0553054
0.111609
-0.0386365
0.136077
0.00651405
0.165183
0.0969201
0.189512
0.215125
0.202936
0.308399
0.203806
0.320087
0.191147
0.246916
0.170161
0.0829467
0.15274
-0.0832944
0.145594
-0.186495
0.13811
-0.19201
0.12393
-0.208284
0.117867
-0.22634
0.124887
-0.16483
0.139428
-0.036503
0.148051
0.170002
0.146334
0.27324
0.143948
0.322407
0.144284
0.244696
0.151795
0.0456148
0.149267
-0.0574858
0.137904
-0.357026
0.139227
-0.368934
-0.0200585
0.187648
-0.0350386
-0.193705
0.182543
-0.0389875
0.177387
-0.0419202
0.171783
-0.0444882
0.165721
-0.0465361
0.159382
-0.0477808
0.152908
-0.0478988
0.146403
-0.0467083
0.140025
-0.043894
0.133798
-0.0392874
0.127833
-0.0330973
0.122713
-0.024792
0.119135
-0.0135613
0.116932
-0.00030952
0.114415
0.0139591
0.111088
0.0280421
0.107906
0.0432546
0.107147
0.0577468
0.110321
0.0691251
0.116409
0.0818164
0.123932
0.104466
0.136433
0.129879
0.159646
0.128736
0.187325
0.0841353
0.204939
0.0162126
0.208999
-0.0447447
0.202891
-0.0842498
0.1919
-0.108156
0.180243
-0.122297
0.16879
-0.125079
0.157568
-0.125586
0.147263
-0.125758
0.138069
-0.117965
0.128747
-0.0931042
0.119314
-0.0674852
0.113643
-0.049634
0.116574
-0.0415681
0.129203
-0.00611521
0.14374
0.0823834
0.156081
0.202784
0.165547
0.298933
0.173577
0.312057
0.176983
0.243511
0.174298
0.0856316
0.168227
-0.0772235
0.163355
-0.181624
0.155557
-0.184211
0.139864
-0.19259
0.128833
-0.21531
0.127389
-0.163387
0.13297
-0.0420838
0.135037
0.167936
0.131267
0.277009
0.130435
0.32324
0.135254
0.239877
0.145419
0.0354496
0.14532
-0.0573865
0.133601
-0.345307
0.130644
-0.365977
-0.0199779
0.19597
-0.0301266
-0.200882
0.190845
-0.0338623
0.185614
-0.0366894
0.180063
-0.0389374
0.174165
-0.0406375
0.168017
-0.0416329
0.161793
-0.0416752
0.15566
-0.0405753
0.149817
-0.0380509
0.144457
-0.0339276
0.139639
-0.0282789
0.13555
-0.0207031
0.132656
-0.0106675
0.131228
0.00111841
0.130899
0.0142884
0.13012
0.0288211
0.128886
0.0444885
0.128554
0.0580789
0.130019
0.0676601
0.133338
0.0784977
0.140638
0.0971657
0.157525
0.112992
0.184411
0.101851
0.209604
0.0589422
0.222207
0.0036091
0.221491
-0.0440285
0.212808
-0.075567
0.200637
-0.0959846
0.188577
-0.110237
0.177326
-0.113828
0.16626
-0.11452
0.155984
-0.115481
0.147451
-0.109433
0.13948
-0.0851334
0.131052
-0.0590569
0.124423
-0.043005
0.125349
-0.0424935
0.137393
-0.01816
0.153714
0.0660629
0.168301
0.188196
0.179851
0.287384
0.189777
0.30213
0.19414
0.239148
0.191551
0.0882205
0.183681
-0.0693533
0.176678
-0.174621
0.168024
-0.175557
0.151241
-0.175807
0.138671
-0.202739
0.136927
-0.161643
0.143854
-0.0490107
0.146901
0.164888
0.142872
0.281039
0.142206
0.323906
0.147603
0.234479
0.158604
0.0244485
0.158571
-0.0573526
0.145161
-0.331898
0.141307
-0.362123
-0.0198622
0.204948
-0.0260787
-0.208996
0.200195
-0.0291095
0.195245
-0.0317394
0.19008
-0.0337726
0.184652
-0.0352094
0.179004
-0.0359847
0.173253
-0.0359241
0.167549
-0.0348716
0.16208
-0.0325821
0.15703
-0.0288776
0.152526
-0.0237747
0.148813
-0.0169899
0.14635
-0.0082047
0.145397
0.0020713
0.146003
0.0136828
0.147566
0.0272575
0.149809
0.0422462
0.152632
0.0552552
0.155624
0.064668
0.159611
0.0745107
0.168817
0.0879596
0.187614
0.0941958
0.211995
0.0774694
0.230514
0.0404229
0.236554
-0.00243093
0.232354
-0.0398277
0.222967
-0.0661808
0.211285
-0.0843022
0.19966
-0.0986118
0.188831
-0.102999
0.177942
-0.103631
0.167367
-0.104906
0.158813
-0.100879
0.151602
-0.0779228
0.144062
-0.0515167