/*--------------------------------*- C++ -*----------------------------------*\
| =========                 |                                                 |
| \\      /  F ield         | OpenFOAM: The Open Source CFD Toolbox           |
|  \\    /   O peration     | Version:  2512                                  |
|   \\  /    A nd           | Website:  www.openfoam.com                      |
|    \\/     M anipulation  |                                                 |
\*---------------------------------------------------------------------------*/
FoamFile
{
    version     2.0;
    format      ascii;
    arch        "LSB;label=32;scalar=64";
    class       volScalarField;
    location    "26";
    object      p;
}
// * * * * * * * * * * * * * * * * * * * * * * * * * * * * * * * * * * * * * //

dimensions      [0 2 -2 0 0 0 0];

internalField   nonuniform List<scalar> 
9200
(
-0.324933
-0.326377
-0.326033
-0.324404
-0.321207
-0.315761
-0.307763
-0.297135
-0.284125
-0.269335
-0.25362
-0.23788
-0.22285
-0.209018
-0.196457
-0.185276
-0.174982
-0.165744
-0.156788
-0.147816
-0.330148
-0.330327
-0.329293
-0.327273
-0.32384
-0.318371
-0.310353
-0.299569
-0.286254
-0.271084
-0.254953
-0.238713
-0.223013
-0.20824
-0.194595
-0.182084
-0.170555
-0.159917
-0.149504
-0.139584
-0.336886
-0.335519
-0.333341
-0.330367
-0.326203
-0.320114
-0.311393
-0.299759
-0.285548
-0.269562
-0.25275
-0.235956
-0.219789
-0.204625
-0.190556
-0.177563
-0.165413
-0.153996
-0.143054
-0.132747
-0.345173
-0.342125
-0.338542
-0.33434
-0.328989
-0.321564
-0.311265
-0.297976
-0.282304
-0.265241
-0.247783
-0.230696
-0.214448
-0.199204
-0.184988
-0.17171
-0.15926
-0.147653
-0.136586
-0.126429
-0.355758
-0.35092
-0.345911
-0.340219
-0.333027
-0.32325
-0.310351
-0.294707
-0.277291
-0.25919
-0.241265
-0.224046
-0.207768
-0.192511
-0.178253
-0.164932
-0.152497
-0.140821
-0.129818
-0.119691
-0.36941
-0.36271
-0.356111
-0.348452
-0.338401
-0.32509
-0.308755
-0.290414
-0.271242
-0.252173
-0.23379
-0.21638
-0.20005
-0.184795
-0.170565
-0.15729
-0.144883
-0.133283
-0.122445
-0.11242
-0.386524
-0.377725
-0.369195
-0.358692
-0.344483
-0.326623
-0.306423
-0.285342
-0.264459
-0.244414
-0.225509
-0.207842
-0.191399
-0.176122
-0.161936
-0.148757
-0.136506
-0.125082
-0.114463
-0.104549
-0.406534
-0.395509
-0.384476
-0.369784
-0.350103
-0.327074
-0.302939
-0.279216
-0.256677
-0.235629
-0.21613
-0.198129
-0.181536
-0.166244
-0.152144
-0.139127
-0.12708
-0.115925
-0.105597
-0.0958768
-0.428322
-0.414861
-0.400304
-0.379798
-0.353622
-0.325246
-0.297349
-0.271155
-0.247036
-0.224996
-0.204899
-0.18658
-0.169871
-0.154617
-0.140672
-0.127903
-0.116195
-0.105446
-0.0955252
-0.0862203
-0.449787
-0.433795
-0.414144
-0.386281
-0.353146
-0.31964
-0.288321
-0.259917
-0.234398
-0.211503
-0.190933
-0.172415
-0.155719
-0.140636
-0.126983
-0.114602
-0.103366
-0.0931756
-0.083865
-0.0752734
-0.489184
-0.490595
-0.491194
-0.493564
-0.498235
-0.504937
-0.513147
-0.522102
-0.530713
-0.537649
-0.541103
-0.540633
-0.534682
-0.522372
-0.503541
-0.478942
-0.450371
-0.420326
-0.391759
-0.366813
-0.456456
-0.45786
-0.457324
-0.457386
-0.458639
-0.460827
-0.463431
-0.465718
-0.466768
-0.465452
-0.461233
-0.453284
-0.441093
-0.4246
-0.404348
-0.381531
-0.357978
-0.33606
-0.318723
-0.303426
-0.42627
-0.427491
-0.426088
-0.424328
-0.422764
-0.42115
-0.418987
-0.415648
-0.410438
-0.402767
-0.392141
-0.378325
-0.361438
-0.342049
-0.321245
-0.30064
-0.282242
-0.265429
-0.257524
-0.254099
-0.399635
-0.400719
-0.398911
-0.396062
-0.392584
-0.388229
-0.382591
-0.37522
-0.365586
-0.353358
-0.338406
-0.320904
-0.301405
-0.280883
-0.260675
-0.2421
-0.227692
-0.217649
-0.216147
-0.219218
-0.37678
-0.377932
-0.37619
-0.372961
-0.368453
-0.362398
-0.354558
-0.344522
-0.332058
-0.317066
-0.299687
-0.280366
-0.259924
-0.239468
-0.220578
-0.204397
-0.193616
-0.187105
-0.189456
-0.195768
-0.357584
-0.359062
-0.357704
-0.354583
-0.349694
-0.342723
-0.333413
-0.321681
-0.307486
-0.290939
-0.27238
-0.252359
-0.232046
-0.212569
-0.195559
-0.1817
-0.174131
-0.170341
-0.175073
-0.182969
-0.342042
-0.34401
-0.343117
-0.340274
-0.335323
-0.327833
-0.31771
-0.304994
-0.289856
-0.272633
-0.25385
-0.234149
-0.21491
-0.197294
-0.182819
-0.17197
-0.167207
-0.166131
-0.171605
-0.179505
-0.330564
-0.332973
-0.332437
-0.329858
-0.324994
-0.317509
-0.307259
-0.294372
-0.2792
-0.262189
-0.244019
-0.225923
-0.20871
-0.193563
-0.181578
-0.173396
-0.169746
-0.169727
-0.173309
-0.178346
-0.32386
-0.326423
-0.326125
-0.323864
-0.319471
-0.312521
-0.302936
-0.290874
-0.276576
-0.260665
-0.243907
-0.227289
-0.211813
-0.198435
-0.187714
-0.180132
-0.175428
-0.1733
-0.172739
-0.172292
-0.322297
-0.324562
-0.324368
-0.32251
-0.318772
-0.312772
-0.304197
-0.29305
-0.279674
-0.264659
-0.248823
-0.233109
-0.218379
-0.205343
-0.194195
-0.185129
-0.177616
-0.171353
-0.165935
-0.161038
-0.348112
-0.344733
-0.35962
-0.390528
-0.429548
-0.467979
-0.490217
-0.477787
-0.422686
-0.347579
-0.279871
-0.234273
-0.213132
-0.212315
-0.229144
-0.270571
-0.334587
-0.394572
-0.416928
-0.388196
-0.32387
-0.256718
-0.207141
-0.178484
-0.165903
-0.169996
-0.183282
-0.185922
-0.164231
-0.131515
-0.09932
-0.0735633
-0.0551359
-0.0420395
-0.0319386
-0.0236331
-0.0171596
-0.0126278
-0.00941274
-0.00675635
-0.00470001
-0.00356369
-0.00325493
-0.00324795
-0.00310055
-0.00273691
-0.00222638
-0.00163233
-0.00100434
-0.000325975
-0.303422
-0.319721
-0.348646
-0.385802
-0.424191
-0.458906
-0.478012
-0.463646
-0.40918
-0.334634
-0.267132
-0.219853
-0.192919
-0.184808
-0.193483
-0.224239
-0.276508
-0.329827
-0.353062
-0.331097
-0.280687
-0.229779
-0.195333
-0.179161
-0.178493
-0.194586
-0.217596
-0.22282
-0.195103
-0.153226
-0.113249
-0.0818083
-0.059661
-0.0443789
-0.0330425
-0.0239931
-0.0170494
-0.0123178
-0.00917253
-0.00671322
-0.0047433
-0.00351573
-0.00305045
-0.00294781
-0.00280025
-0.00249946
-0.00206585
-0.0015356
-0.000955173
-0.000311069
-0.264535
-0.292959
-0.329927
-0.369037
-0.405209
-0.43569
-0.450624
-0.433222
-0.380104
-0.30977
-0.246395
-0.200694
-0.171566
-0.156769
-0.156316
-0.175064
-0.214712
-0.260057
-0.284714
-0.271763
-0.235479
-0.200665
-0.181103
-0.177678
-0.189629
-0.218517
-0.251323
-0.260231
-0.227043
-0.175515
-0.127364
-0.0901445
-0.0642618
-0.0468073
-0.0342926
-0.0245573
-0.0171741
-0.0122246
-0.00908697
-0.00675348
-0.00483183
-0.00350899
-0.00289208
-0.00269197
-0.00253166
-0.00228112
-0.0019154
-0.00144442
-0.00090906
-0.000297468
-0.234624
-0.266453
-0.305255
-0.343396
-0.377455
-0.40323
-0.412379
-0.391483
-0.340695
-0.277954
-0.221422
-0.178874
-0.149669
-0.131365
-0.122959
-0.129146
-0.155172
-0.191001
-0.215877
-0.211586
-0.188872
-0.168981
-0.163517
-0.171698
-0.196649
-0.238437
-0.282148
-0.295917
-0.258211
-0.197588
-0.141328
-0.0984353
-0.068905
-0.0493126
-0.0356692
-0.0252986
-0.0174981
-0.0123063
-0.00912163
-0.00685819
-0.00495952
-0.0035438
-0.00278378
-0.0024885
-0.00230628
-0.00209112
-0.0017805
-0.00136142
-0.000867027
-0.000285432
-0.212318
-0.242097
-0.278283
-0.313611
-0.341796
-0.363902
-0.367849
-0.344735
-0.298684
-0.245222
-0.196733
-0.157835
-0.129125
-0.108806
-0.0958576
-0.0917557
-0.103344
-0.127998
-0.150613
-0.153137
-0.141714
-0.134612
-0.140969
-0.160126
-0.196283
-0.252118
-0.30789
-0.327651
-0.287907
-0.218989
-0.154947
-0.10662
-0.0735841
-0.0518951
-0.0371555
-0.0261878
-0.0179867
-0.012527
-0.00924796
-0.00701072
-0.00511923
-0.00361803
-0.00272612
-0.00233943
-0.00212999
-0.00193499
-0.00166518
-0.00128877
-0.000829904
-0.000275091
-0.198304
-0.222374
-0.253109
-0.283976
-0.307506
-0.320932
-0.318791
-0.295616
-0.257158
-0.214091
-0.173934
-0.139402
-0.111499
-0.0900797
-0.0739963
-0.0638046
-0.0639489
-0.0761833
-0.0931257
-0.100264
-0.096897
-0.0990122
-0.114128
-0.142727
-0.190302
-0.257265
-0.323754
-0.35176
-0.312517
-0.238359
-0.167788
-0.114559
-0.0782531
-0.0545354
-0.0387273
-0.0271931
-0.0186074
-0.0128586
-0.00944599
-0.00719994
-0.00530442
-0.00372611
-0.00271493
-0.00224167
-0.00200465
-0.00181399
-0.00157154
-0.00122787
-0.000798246
-0.000266493
-0.190897
-0.205821
-0.229263
-0.250588
-0.266431
-0.273483
-0.268485
-0.249355
-0.220481
-0.187532
-0.154745
-0.124453
-0.0978569
-0.0756628
-0.0574998
-0.0435178
-0.0357201
-0.0375233
-0.0471814
-0.0561074
-0.0574254
-0.0647318
-0.0851895
-0.120274
-0.175447
-0.253021
-0.332595
-0.368961
-0.334742
-0.256253
-0.179767
-0.122058
-0.0827676
-0.0571413
-0.0403161
-0.028259
-0.0193145
-0.0132654
-0.00969192
-0.0074148
-0.00551112
-0.00386387
-0.0027428
-0.00218754
-0.00192398
-0.00172559
-0.00149981
-0.0011794
-0.000772384
-0.000259631
-0.182925
-0.188057
-0.200681
-0.214916
-0.222898
-0.226374
-0.222175
-0.209245
-0.189366
-0.164962
-0.138549
-0.112303
-0.0875357
-0.0654499
-0.0462953
-0.030018
-0.0176385
-0.0118974
-0.0143411
-0.0211659
-0.0249329
-0.0349491
-0.0571346
-0.0944251
-0.154025
-0.240165
-0.326058
-0.373532
-0.344791
-0.268811
-0.189535
-0.128664
-0.0870055
-0.0596881
-0.0419122
-0.0293817
-0.0201115
-0.0137445
-0.0099741
-0.00764425
-0.00573507
-0.00403348
-0.00281185
-0.00217003
-0.00186623
-0.00166576
-0.00144859
-0.00114314
-0.000752401
-0.000254478
-0.168521
-0.168448
-0.176641
-0.182723
-0.187064
-0.189606
-0.187864
-0.18041
-0.167053
-0.148745
-0.127139
-0.104198
-0.0813639
-0.059688
-0.0401848
-0.0228674
-0.00782228
0.00290906
0.00610861
0.00304364
-0.000791128
-0.0106555
-0.030835
-0.0663781
-0.125373
-0.215548
-0.316157
-0.373123
-0.357684
-0.281628
-0.199637
-0.135886
-0.0919066
-0.0627557
-0.0438511
-0.0307442
-0.0211083
-0.0143727
-0.0103406
-0.00790893
-0.00597604
-0.00422668
-0.00292186
-0.0021988
-0.00184352
-0.00162925
-0.00141579
-0.00111825
-0.000737864
-0.000250677
-0.15604
-0.155552
-0.159116
-0.159713
-0.160479
-0.161222
-0.160095
-0.15566
-0.146927
-0.133892
-0.117281
-0.0982118
-0.078026
-0.0577275
-0.0382302
-0.0204953
-0.00453984
0.00931179
0.0178255
0.018078
0.0125728
0.00493855
-0.0121645
-0.0426727
-0.0956721
-0.184327
-0.289367
-0.354769
-0.345874
-0.284127
-0.206248
-0.14167
-0.0959658
-0.0653525
-0.045489
-0.0318748
-0.0219345
-0.0149194
-0.0106892
-0.0081765
-0.00621281
-0.00440473
-0.00301905
-0.00222891
-0.00184204
-0.00161774
-0.00140234
-0.00110663
-0.000730359
-0.000249167
-0.150388
-0.158699
-0.155628
-0.151537
-0.148405
-0.145883
-0.142806
-0.137549
-0.128856
-0.116388
-0.10074
-0.082934
-0.0641488
-0.0455068
-0.027251
-0.0103712
0.00446213
0.0182279
0.0284384
0.0308833
0.0260042
0.0202838
0.00847356
-0.0134709
-0.059326
-0.146071
-0.260107
-0.339075
-0.343736
-0.275673
-0.197881
-0.135794
-0.0925217
-0.0634379
-0.0444349
-0.0313833
-0.0217286
-0.0147983
-0.0106141
-0.00821191
-0.00635325
-0.00454054
-0.00306877
-0.0021851
-0.00177039
-0.00156712
-0.00137252
-0.00108986
-0.000722068
-0.000247335
-0.134915
-0.142213
-0.142574
-0.137773
-0.132225
-0.127468
-0.122998
-0.1173
-0.109052
-0.0977499
-0.0837341
-0.0679119
-0.051223
-0.0346244
-0.0181246
-0.00229034
0.0114083
0.0238933
0.0339292
0.0366667
0.0324366
0.0250051
0.0178586
0.00267883
-0.0361168
-0.118604
-0.236531
-0.321118
-0.322245
-0.258596
-0.185603
-0.128403
-0.088582
-0.0614518
-0.0434025
-0.0308737
-0.0215377
-0.0147887
-0.0106678
-0.00829195
-0.00645291
-0.004632
-0.00312058
-0.00220214
-0.00178595
-0.00157914
-0.00137719
-0.00108963
-0.000718488
-0.000245952
-0.119635
-0.12875
-0.129596
-0.12449
-0.117946
-0.112093
-0.106872
-0.10112
-0.0935505
-0.0835217
-0.0711145
-0.0569398
-0.0418325
-0.0265407
-0.0113746
0.00341237
0.0167015
0.0284878
0.0384755
0.0424056
0.0395304
0.0330101
0.0280058
0.0149918
-0.0218409
-0.10266
-0.214568
-0.293166
-0.294755
-0.237643
-0.171799
-0.120293
-0.0841536
-0.0590905
-0.0421194
-0.0302317
-0.0212822
-0.0147239
-0.0106688
-0.00832973
-0.00653329
-0.00472842
-0.00318932
-0.00223729
-0.00180735
-0.00159761
-0.00139137
-0.00109437
-0.000715797
-0.000244443
-0.10569
-0.114348
-0.115481
-0.110891
-0.104385
-0.0981383
-0.0924555
-0.0865876
-0.0793744
-0.0701655
-0.0589311
-0.0460965
-0.0324824
-0.0186439
-0.00487591
0.00839931
0.0204931
0.0313015
0.0406402
0.0451337
0.042512
0.039048
0.0370449
0.0256998
-0.0102722
-0.0851018
-0.182835
-0.255607
-0.259722
-0.211077
-0.154598
-0.110292
-0.0786859
-0.0561842
-0.0405377
-0.0294019
-0.0209162
-0.0146057
-0.010645
-0.00835275
-0.00660168
-0.00481842
-0.00326042
-0.00227686
-0.00183526
-0.00162462
-0.00141039
-0.00110212
-0.000715043
-0.000243889
-0.0916753
-0.0997626
-0.101372
-0.0975511
-0.0914341
-0.0851529
-0.0792492
-0.0733422
-0.0666014
-0.058411
-0.0486197
-0.0373801
-0.025297
-0.0129523
-0.000460514
0.0116706
0.0228764
0.0331219
0.0418894
0.0466992
0.0452685
0.0429545
0.0427213
0.0330701
0.00176451
-0.0599861
-0.143197
-0.211658
-0.219064
-0.181186
-0.136014
-0.0995598
-0.07263
-0.0528171
-0.0386371
-0.0283619
-0.0204194
-0.014412
-0.0105779
-0.00834479
-0.00664518
-0.00489484
-0.00333195
-0.00232529
-0.001873
-0.00165818
-0.0014347
-0.0011145
-0.000717561
-0.00024452
-0.0779825
-0.0858012
-0.0877624
-0.0845875
-0.0790057
-0.0730305
-0.0673194
-0.0617157
-0.0555916
-0.0483444
-0.0397314
-0.0297686
-0.0189209
-0.00780645
0.00348509
0.0144548
0.0244986
0.0338804
0.0421849
0.0471626
0.0467363
0.0449878
0.0459335
0.0410288
0.0190246
-0.0307866
-0.103246
-0.165804
-0.175859
-0.149518
-0.116119
-0.0877855
-0.0658177
-0.0489594
-0.0364269
-0.0271134
-0.0197849
-0.0141352
-0.0104606
-0.00830085
-0.00666075
-0.00495483
-0.00340075
-0.00237894
-0.00191598
-0.00169638
-0.00146401
-0.00113132
-0.000722936
-0.000245832
-0.0655188
-0.0726876
-0.0746921
-0.0721312
-0.0672739
-0.0618904
-0.0566346
-0.0514458
-0.0458724
-0.0393973
-0.0317822
-0.0230547
-0.0135343
-0.00375893
0.00618267
0.0159929
0.0250509
0.0336178
0.0414884
0.0466275
0.0473639
0.046637
0.0487617
0.0490825
0.0363471
-0.00340776
-0.0661568
-0.119996
-0.133046
-0.11858
-0.0966844
-0.0760587
-0.0587596
-0.0447724
-0.0339329
-0.0256475
-0.0189958
-0.0137589
-0.0102811
-0.00821247
-0.0066414
-0.00499218
-0.00346163
-0.00243417
-0.00196197
-0.00173719
-0.00149605
-0.00115086
-0.000730197
-0.000247508
-0.0541233
-0.0604048
-0.0623965
-0.0604813
-0.056418
-0.0516951
-0.0469514
-0.0422258
-0.0372188
-0.0315264
-0.0249245
-0.0174004
-0.00913038
-0.000547355
0.00820194
0.0169291
0.025062
0.0327675
0.0400499
0.0453561
0.0469679
0.0475189
0.0506617
0.0540697
0.0472413
0.0171733
-0.0338791
-0.0785158
-0.0949634
-0.0908026
-0.0784137
-0.0643911
-0.0514174
-0.0402678
-0.0311811
-0.0239802
-0.018054
-0.0132769
-0.0100311
-0.00807248
-0.00658121
-0.00500165
-0.00350985
-0.00248729
-0.00200805
-0.00177759
-0.00152811
-0.00117136
-0.000738603
-0.000249441
-0.0435843
-0.0491531
-0.0511948
-0.0498369
-0.0464586
-0.0423591
-0.0381731
-0.0339945
-0.029611
-0.0246944
-0.0190198
-0.0125571
-0.00542536
0.00203363
0.00963014
0.0172583
0.0244714
0.0313071
0.0379062
0.0435858
0.0454636
0.0470225
0.0504075
0.05397
0.0501803
0.0287234
-0.0102603
-0.0463635
-0.0643295
-0.067242
-0.0620378
-0.0534256
-0.0442111
-0.0356425
-0.0282383
-0.0221257
-0.0169537
-0.0126771
-0.00969919
-0.00787202
-0.00647317
-0.00497699
-0.00353992
-0.00253411
-0.00205131
-0.00181515
-0.00155811
-0.00119135
-0.000747454
-0.000251456
-0.0341219
-0.0390838
-0.0410835
-0.040125
-0.0373445
-0.0338729
-0.0302864
-0.0266859
-0.0229144
-0.0187127
-0.0138836
-0.00839733
-0.00233539
0.00405344
0.0105709
0.0171429
0.0234485
0.0293893
0.0349432
0.0389884
0.0426077
0.0449406
0.0478585
0.050289
0.0475266
0.0320359
0.00356964
-0.0244191
-0.0416926
-0.0483363
-0.0478737
-0.0433066
-0.0371962
-0.0309401
-0.0251422
-0.0201103
-0.0157076
-0.0119609
-0.00928127
-0.00760563
-0.00631178
-0.00491262
-0.00354654
-0.00257051
-0.00208927
-0.0018482
-0.0015846
-0.00120957
-0.000755999
-0.000253312
-0.0259008
-0.0301704
-0.0319579
-0.0312956
-0.0290978
-0.0262559
-0.0232495
-0.0201975
-0.017004
-0.013472
-0.00943148
-0.00484166
0.000241988
0.00563944
0.0111665
0.016748
0.0221659
0.027296
0.0321135
0.036115
0.039311
0.0416493
0.0437813
0.0449327
0.0422734
0.0309502
0.010686
-0.0104196
-0.0255354
-0.0335193
-0.0358671
-0.0342144
-0.0306036
-0.0263308
-0.0219865
-0.0179772
-0.01433
-0.0111271
-0.00877064
-0.00726635
-0.00609095
-0.00480282
-0.00352428
-0.00259227
-0.00211966
-0.00187565
-0.00160672
-0.00122517
-0.000763603
-0.000254821
-0.0186673
-0.02223
-0.023859
-0.0234887
-0.0218099
-0.019504
-0.0170041
-0.014458
-0.0118089
-0.00889696
-0.00557397
-0.00179045
0.00241381
0.00690166
0.0115204
0.0161917
0.0207589
0.0251173
0.0292527
0.0329862
0.0356092
0.0376272
0.0390185
0.0392
0.0365174
0.028156
0.0138238
-0.00171803
-0.0142376
-0.0222129
-0.0260022
-0.0262805
-0.0245456
-0.0218896
-0.0188181
-0.0157561
-0.012838
-0.010182
-0.00816663
-0.00685071
-0.00580648
-0.00464291
-0.00346833
-0.00259553
-0.00214054
-0.0018969
-0.00162424
-0.00123773
-0.000769824
-0.000255876
-0.0121861
-0.0152474
-0.0167707
-0.0166454
-0.0153571
-0.0135084
-0.0114784
-0.00940761
-0.00725999
-0.00490631
-0.00222118
0.000842964
0.00426096
0.0079282
0.0117191
0.0155613
0.0193308
0.0229193
0.0262434
0.0289762
0.0316003
0.0333191
0.0341608
0.0337575
0.0311928
0.0249477
0.0147732
0.00342728
-0.00652597
-0.0137636
-0.0180516
-0.0194822
-0.0190913
-0.0177131
-0.0157182
-0.013502
-0.0112634
-0.00913929
-0.00747251
-0.0063578
-0.00545602
-0.00442951
-0.0033748
-0.00257695
-0.00215025
-0.00191168
-0.00163723
-0.00124712
-0.000774375
-0.000256397
-0.00664285
-0.00928617
-0.0106528
-0.0106265
-0.00964313
-0.00821991
-0.00663318
-0.00499187
-0.0032865
-0.00142409
0.000698032
0.00312754
0.00584972
0.00878617
0.0118371
0.0149335
0.0179813
0.0208926
0.0235873
0.025926
0.0278686
0.0291522
0.0295892
0.0288995
0.0266014
0.0219111
0.0146474
0.00630014
-0.00135223
-0.00754462
-0.0117622
-0.0137877
-0.0142963
-0.0138727
-0.0127468
-0.0112579
-0.00963358
-0.00801282
-0.00669251
-0.00578743
-0.00503807
-0.00416038
-0.00324092
-0.00253401
-0.00214747
-0.00191986
-0.00164589
-0.0012533
-0.000777015
-0.000256277
-0.00198259
-0.00414302
-0.00531835
-0.00541225
-0.00473395
-0.00364182
-0.00242192
-0.00115282
0.00016799
0.00160317
0.00323646
0.00511506
0.00723345
0.00953156
0.0119306
0.0143711
0.0167736
0.0190743
0.0212032
0.0230337
0.0244667
0.0253618
0.0255307
0.0247505
0.0227853
0.0192553
0.0140385
0.00791134
0.00206771
-0.00304105
-0.00687918
-0.00910646
-0.0101541
-0.0104012
-0.00994865
-0.00906666
-0.00798417
-0.00682722
-0.00584019
-0.00514535
-0.00455425
-0.00383487
-0.00306499
-0.00246509
-0.00213138
-0.00192144
-0.0016504
-0.00125621
-0.000777473
-0.000255358
0.00209361
0.000306199
-0.000745297
-0.000951404
-0.000509189
0.000290144
0.00124684
0.00217581
0.00315385
0.00422364
0.00544397
0.0068552
0.00845785
0.0102078
0.0120434
0.013914
0.0157553
0.0175158
0.0191329
0.0205022
0.0215244
0.0221052
0.0220849
0.0213152
0.0197068
0.0170474
0.0132212
0.00875513
0.00432117
0.000205245
-0.00312535
-0.00531362
-0.00663897
-0.00732243
-0.00736218
-0.00696302
-0.00634119
-0.00560083
-0.00492864
-0.00444114
-0.00401115
-0.00345642
-0.00284725
-0.00236911
-0.00210129
-0.00191626
-0.00165068
-0.00125564
-0.000775466
-0.000253487
0.00555194
0.00404518
0.0031103
0.00284344
0.00308867
0.0036244
0.00426679
0.00498675
0.00570876
0.00648165
0.00736288
0.00838572
0.00955541
0.0108431
0.0122011
0.0135869
0.0149486
0.0162443
0.0174229
0.0184046
0.0191074
0.0194594
0.0193407
0.0186449
0.0173103
0.0152698
0.0124374
0.00916023
0.00581218
0.00254468
-0.000257573
-0.00227493
-0.00369953
-0.00463952
-0.00501813
-0.00498524
-0.00473718
-0.00435319
-0.00396588
-0.0036784
-0.00341267
-0.00303068
-0.00259318
-0.0022486
-0.00205744
-0.00190431
-0.0016463
-0.00125078
-0.000770133
-0.000250458
0.00843024
0.00719104
0.00638092
0.00608193
0.00618453
0.00652524
0.00697206
0.00745005
0.00793077
0.00844677
0.00903916
0.00973938
0.0105517
0.0114566
0.0124172
0.0133991
0.0143608
0.0152686
0.0160833
0.0167433
0.0171839
0.0173529
0.0171607
0.0165361
0.0154637
0.0138942
0.0117779
0.00935153
0.00681614
0.00424138
0.00193242
0.000149236
-0.0012561
-0.00231927
-0.00291661
-0.00315636
-0.00320931
-0.0031229
-0.00297951
-0.00286998
-0.00276075
-0.00255319
-0.00229996
-0.00210585
-0.00200265
-0.00188616
-0.00163813
-0.0012418
-0.000761636
-0.000243768
0.0108489
0.00983292
0.00912906
0.00880881
0.00879761
0.00897565
0.00924178
0.00953554
0.00983365
0.010145
0.0105055
0.0109427
0.011465
0.0120586
0.0126951
0.0133478
0.0139834
0.0145755
0.0150947
0.0154965
0.0157306
0.0157616
0.0155233
0.0149691
0.0140985
0.0128787
0.0112746
0.0094536
0.00751807
0.0054913
0.00361052
0.00207353
0.0007562
-0.000331166
-0.00104454
-0.0014679
-0.00175225
-0.00191621
-0.00199078
-0.00204669
-0.00208704
-0.0020467
-0.00197129
-0.00193002
-0.00192657
-0.00186126
-0.00162091
-0.00122492
-0.000748875
-0.000246725
0.0128679
0.0120307
0.0114147
0.0110805
0.0109806
0.011031
0.0111556
0.0113026
0.0114502
0.0116032
0.0117837
0.0120125
0.0123035
0.0126498
0.0130288
0.0134193
0.0137951
0.0141365
0.0144224
0.0146213
0.0146952
0.0146213
0.0143504
0.0138537
0.0131357
0.0121716
0.0109338
0.00954498
0.00804893
0.00644577
0.00491917
0.00360976
0.00240519
0.00134706
0.000584542
4.88378e-05
-0.000390693
-0.000734719
-0.000981436
-0.00118608
-0.00138039
-0.00152305
-0.00164067
-0.0017598
-0.00185441
-0.00180936
-0.00159154
-0.00119243
-0.000716406
-0.000212348
0.0145323
0.0138371
0.0132951
0.0129573
0.0127945
0.0127481
0.0127607
0.0127909
0.0128183
0.0128436
0.0128813
0.0129552
0.0130709
0.013227
0.0134063
0.0135931
0.0137671
0.0139143
0.0140199
0.0140624
0.0140137
0.01386
0.0135642
0.0131095
0.0125016
0.0117206
0.0107443
0.00966392
0.00848846
0.00720972
0.00597024
0.00486381
0.0037831
0.00278676
0.00201533
0.00140272
0.000840314
0.000355571
-1.71796e-05
-0.000328901
-0.000644036
-0.000945104
-0.00125656
-0.00155161
-0.00175545
-0.00180674
-0.00156955
-0.00117374
-0.000711005
-0.000238856
0.0158889
0.0153109
0.0148348
0.0145011
0.0142932
0.0141727
0.0140991
0.0140399
0.0139766
0.0139068
0.0138405
0.013794
0.0137757
0.0137868
0.013814
0.0138461
0.0138668
0.013867
0.0138365
0.0137611
0.01362
0.0134062
0.0130907
0.0126652
0.0121341
0.0114812
0.0106886
0.00982573
0.00888053
0.0078452
0.00683037
0.00589336
0.00493454
0.00402366
0.00328533
0.00264769
0.00201366
0.00142045
0.000927596
0.00049478
3.76023e-05
-0.000427908
-0.000904333
-0.00134077
-0.00164374
-0.00165331
-0.00146351
-0.00106433
-0.000610505
-0.000155799
0.0169934
0.0165081
0.0160857
0.0157587
0.0155201
0.0153463
0.0152089
0.0150825
0.0149507
0.0148098
0.0146667
0.0145335
0.0144171
0.0143212
0.0142357
0.0141531
0.0140604
0.0139521
0.0138211
0.0136589
0.0134498
0.0131913
0.0128605
0.0124552
0.0119779
0.0114152
0.0107521
0.0100423
0.00926061
0.0084054
0.00756138
0.00675872
0.00590372
0.00507404
0.0043736
0.00372577
0.00306014
0.00242606
0.00188748
0.0013904
0.000819351
0.000168549
-0.000540332
-0.00116469
-0.00155878
-0.00170974
-0.00146362
-0.0010642
-0.000628433
-0.000210013
0.0178818
0.0174682
0.0170903
0.0167736
0.0165168
0.0163062
0.0161225
0.0159465
0.0157647
0.0155727
0.0153744
0.0151796
0.014994
0.014822
0.0146555
0.0144905
0.0143161
0.0141299
0.0139267
0.0137017
0.0134435
0.0131523
0.0128097
0.0124175
0.0119764
0.0114763
0.0109058
0.0103062
0.00964457
0.00892705
0.00821467
0.00752032
0.006757
0.0060111
0.00535948
0.00471513
0.00402309
0.0033333
0.00272653
0.002146
0.00148117
0.000733258
-8.37245e-05
-0.00083202
-0.00134017
-0.00137921
-0.00118625
-0.000800212
-0.000407172
-6.35735e-05
0.0185868
0.0182296
0.0178891
0.0175848
0.0173185
0.0170835
0.0168672
0.0166558
0.0164383
0.0162105
0.0159749
0.0157387
0.0155059
0.0152812
0.0150583
0.0148359
0.0146049
0.014365
0.014112
0.0138438
0.0135518
0.0132378
0.0128873
0.0125039
0.0120871
0.0116291
0.0111213
0.0105966
0.0100189
0.00940351
0.00879158
0.00818644
0.00750888
0.00684554
0.00624596
0.00562431
0.00495272
0.00427573
0.00366727
0.00302829
0.00220949
0.00121155
0.000127564
-0.000771785
-0.00130252
-0.00146148
-0.00118743
-0.000796377
-0.000426481
-0.000129109
0.0191383
0.0188243
0.0185145
0.0182234
0.017954
0.0177043
0.0174659
0.0172298
0.0169876
0.0167362
0.0164764
0.0162137
0.0159502
0.0156909
0.0154301
0.0151691
0.0148998
0.0146243
0.0143381
0.0140417
0.013728
0.0133998
0.0130464
0.012671
0.0122738
0.0118469
0.0113865
0.0109151
0.0103995
0.00986054
0.00931824
0.00877718
0.00816246
0.00757147
0.00701667
0.00642732
0.00578082
0.00510549
0.00448793
0.00382931
0.00301844
0.00201272
0.000864377
-0.000175856
-0.000857204
-0.000860479
-0.000646412
-0.000314226
-5.36861e-05
7.67227e-05
0.0195586
0.0192772
0.0189922
0.018714
0.0184457
0.018188
0.0179354
0.0176832
0.0174249
0.0171588
0.0168843
0.0166057
0.0163234
0.0160429
0.0157578
0.0154724
0.0151786
0.0148802
0.014573
0.0142585
0.0139312
0.0135943
0.0132405
0.0128703
0.0124887
0.0120829
0.0116588
0.0112269
0.0107633
0.0102868
0.00980767
0.0093282
0.00878211
0.00826261
0.00774949
0.00719352
0.00658878
0.00596285
0.00535582
0.00461211
0.00357502
0.00226385
0.000907008
-0.000153599
-0.00079873
-0.000761436
-0.000495457
-0.000191437
-7.20514e-07
3.71759e-05
0.0198648
0.0196071
0.0193413
0.0190747
0.0188097
0.0185485
0.0182872
0.0180248
0.0177558
0.0174811
0.0171983
0.0169115
0.0166185
0.0163262
0.0160265
0.0157275
0.0154188
0.0151082
0.0147887
0.0144647
0.0141305
0.0137899
0.0134383
0.0130726
0.0127044
0.0123124
0.0119151
0.0115052
0.0110802
0.0106406
0.0102054
0.00976993
0.00927863
0.00882487
0.00837296
0.00791089
0.00738237
0.00682432
0.00630339
0.00570552
0.00484609
0.00356268
0.00206754
0.000828929
0.000385623
0.000229832
0.000320466
0.000475687
0.000473351
0.000264267
0.0200692
0.019827
0.0195747
0.0193172
0.0190555
0.0187933
0.0185268
0.0182587
0.017983
0.0177037
0.017416
0.0171256
0.0168275
0.0165297
0.0162216
0.0159165
0.0155989
0.0152828
0.0149573
0.014628
0.014292
0.013951
0.0136017
0.013243
0.0128868
0.0125035
0.0121321
0.0117405
0.0113462
0.0109366
0.010546
0.0101364
0.00969649
0.00928807
0.00888146
0.00844642
0.00796492
0.00749039
0.00701512
0.0063842
0.00527247
0.00377302
0.00232335
0.0012033
0.00076984
0.000734799
0.000765177
0.000792503
0.000626405
0.000271686
0.0201755
0.0199418
0.0196963
0.019444
0.0191841
0.0189222
0.0186527
0.0183827
0.0181025
0.017823
0.0175312
0.0172416
0.0169396
0.0166405
0.0163287
0.016021
0.0156995
0.0153822
0.0150535
0.0147224
0.0143892
0.0140425
0.0137021
0.0133401
0.0129942
0.0126117
0.0122605
0.0118692
0.0114993
0.0111071
0.0107457
0.0103593
0.00996601
0.00961948
0.00929176
0.00895027
0.00856691
0.00832334
0.00818752
0.00798435
0.00704639
0.00532656
0.00350664
0.00227405
0.00165461
0.00149637
0.00141662
0.00131252
0.000968542
0.000415298
-0.066945
-0.0768403
-0.0857967
-0.0940861
-0.101898
-0.109139
-0.11611
-0.122537
-0.129589
-0.138724
-0.0586861
-0.0672905
-0.0750936
-0.0823866
-0.0896011
-0.0963652
-0.10295
-0.109227
-0.115414
-0.123666
-0.0506931
-0.0578911
-0.0644316
-0.0706299
-0.0768096
-0.0827192
-0.0881787
-0.0936368
-0.0990462
-0.107113
-0.0432241
-0.0491823
-0.0545855
-0.0598328
-0.0649863
-0.0700481
-0.0747224
-0.0797863
-0.0857225
-0.0939783
-0.0361736
-0.0411137
-0.0456386
-0.050143
-0.0546295
-0.0591935
-0.0638071
-0.0689132
-0.0748118
-0.0816743
-0.0297522
-0.0338806
-0.0377133
-0.0415981
-0.0456577
-0.0498498
-0.0542193
-0.0585321
-0.0630986
-0.0687213
-0.0238785
-0.0273378
-0.0305824
-0.0338992
-0.0374587
-0.0409927
-0.0445154
-0.0477786
-0.0516236
-0.0570443
-0.0184731
-0.0213582
-0.0240611
-0.0267952
-0.029723
-0.0325399
-0.0354024
-0.0383181
-0.0420614
-0.0469722
-0.0134754
-0.0158648
-0.0180802
-0.0202992
-0.022704
-0.0250993
-0.0276894
-0.0304394
-0.0336715
-0.037587
-0.00888899
-0.0108618
-0.0126845
-0.014531
-0.0165875
-0.0187139
-0.020988
-0.0232171
-0.0256704
-0.0288978
-0.00472041
-0.00635681
-0.00787885
-0.00944189
-0.0111863
-0.0129496
-0.014723
-0.0164134
-0.0184636
-0.0213928
-0.000957824
-0.0023154
-0.00357823
-0.00486288
-0.00625672
-0.00763609
-0.00905191
-0.010557
-0.0124803
-0.0150018
0.00243077
0.00131936
0.000296066
-0.000735352
-0.00186027
-0.00303432
-0.00432297
-0.00570104
-0.00725722
-0.00919621
0.00547584
0.00456705
0.00372762
0.00286241
0.00189032
0.000856914
-0.000217733
-0.00126118
-0.00243566
-0.00407258
0.00818746
0.0074267
0.00671789
0.005984
0.00517909
0.00435746
0.00352667
0.00266803
0.00159986
0.000136476
0.0105853
0.00994079
0.00934678
0.0087425
0.0080876
0.0074008
0.00666509
0.0058728
0.00495169
0.00378349
0.0127007
0.0121459
0.0116375
0.0111198
0.0105528
0.00994775
0.0093096
0.00865376
0.00791604
0.0069571
0.0145487
0.0140555
0.0136042
0.0131496
0.0126602
0.0121454
0.0116095
0.0110524
0.010412
0.00958783
0.016148
0.0156988
0.01529
0.0148859
0.0144593
0.0140109
0.0135393
0.0130426
0.0124821
0.0117898
0.0175184
0.0171015
0.0167223
0.0163534
0.0159701
0.0155678
0.0151449
0.0147029
0.0142172
0.0136367
0.0186783
0.0182855
0.017926
0.0175802
0.0172276
0.0168624
0.0164828
0.0160897
0.0156645
0.0151688
0.019645
0.0192722
0.0189275
0.0185993
0.0182711
0.0179361
0.0175902
0.0172325
0.0168506
0.0164195
0.0204388
0.0200844
0.0197528
0.0194376
0.0191264
0.0188122
0.0184903
0.0181606
0.0178155
0.0174391
0.0210791
0.020742
0.0204218
0.0201166
0.019818
0.0195201
0.0192186
0.0189129
0.0185981
0.0182634
0.0215856
0.0212647
0.0209559
0.0206601
0.0203719
0.0200869
0.0198012
0.0195141
0.0192223
0.0189195
0.0219778
0.0216717
0.021374
0.0210868
0.0208071
0.0205321
0.0202586
0.0199862
0.0197125
0.019434
0.0222726
0.0219794
0.0216921
0.0214129
0.0211405
0.0208735
0.0206096
0.0203483
0.0200884
0.0198274
0.0224847
0.022202
0.0219237
0.0216516
0.0213855
0.0211247
0.0208678
0.0206146
0.0203641
0.020115
0.0226236
0.0223491
0.0220782
0.0218123
0.0215512
0.0212952
0.0210431
0.0207951
0.0205501
0.0203078
0.0226903
0.0224215
0.0221557
0.0218944
0.0216374
0.0213852
0.0211364
0.0208916
0.0206489
0.0204093
0.0851666
0.0889927
0.0922871
0.095012
0.09689
0.0979626
0.0983652
0.098053
0.0967896
0.0942408
0.0900121
0.0836207
0.0744425
0.0616552
0.0441705
0.0205474
-0.0110328
-0.0518037
-0.099511
-0.126207
0.0697014
0.0723212
0.0729677
0.0727534
0.0720838
0.0708841
0.0689737
0.066121
0.0620301
0.0563507
0.0486673
0.0384606
0.0250566
0.0075756
-0.0151359
-0.0445846
-0.0824784
-0.129481
-0.183582
-0.212474
0.0537008