/*--------------------------------*- C++ -*----------------------------------*\
| =========                 |                                                 |
| \\      /  F ield         | OpenFOAM: The Open Source CFD Toolbox           |
|  \\    /   O peration     | Version:  2512                                  |
|   \\  /    A nd           | Website:  www.openfoam.com                      |
|    \\/     M anipulation  |                                                 |
\*---------------------------------------------------------------------------*/
FoamFile
{
    version     2.0;
    format      ascii;
    arch        "LSB;label=32;scalar=64";
    class       surfaceScalarField;
    location    "5.5";
    object      phi;
}
// * * * * * * * * * * * * * * * * * * * * * * * * * * * * * * * * * * * * * //

dimensions      [0 3 -1 0 0 0 0];

oriented        oriented;

internalField   nonuniform List<scalar> 
26232
(
-0.000301978
0.00131065
-0.00100867
-0.000249519
0.00308242
-0.00313488
0.00066401
0.00385525
-0.00476878
0.00277379
0.00331704
-0.00542682
0.006409
0.00109675
-0.00473196
0.0119472
-0.00314565
-0.00239257
0.0197911
-0.0096406
0.00179675
0.0302428
-0.0183832
0.00793146
0.0432404
-0.0290656
0.016068
0.0582478
-0.0410679
0.0260605
0.0742641
-0.0535514
0.0375351
0.0899949
-0.0656092
0.0498783
0.104132
-0.0764348
0.0622975
0.115669
-0.0854766
0.0739395
0.124169
-0.0925495
0.0840503
0.129859
-0.0978507
0.0921601
0.133485
-0.101836
0.0982104
0.135924
-0.104999
0.10256
0.137887
-0.10768
0.105717
0.139709
-0.110092
0.10827
0.141614
-0.112178
0.110272
0.143547
-0.114315
0.112382
0.145171
-0.11553
0.113906
-0.117573
0.11624
0.146504
-0.000365869
0.00167651
-0.000414796
0.00313135
0.000550454
0.00289
0.0031199
0.000747591
0.00785216
-0.00363552
0.015242
-0.0105355
0.0255228
-0.0199214
0.0384632
-0.0313236
0.053275
-0.0438773
0.0687338
-0.0565267
0.0834589
-0.0682765
0.096248
-0.0783983
0.106366
-0.0865529
0.113697
-0.0928074
0.118686
-0.0975388
0.12208
-0.101244
0.124589
-0.104346
0.126696
-0.107105
0.128658
-0.109641
0.130581
-0.112015
0.132642
-0.114239
0.134761
-0.116433
0.13754
-0.118309
-0.120964
0.140931
-0.000204348
0.00188086
0.000137481
0.00278952
0.00181409
0.00121339
0.00556753
-0.00300585
0.0120294
-0.0100974
0.0215053
-0.0200114
0.0337229
-0.032139
0.0477549
-0.0453556
0.0622321
-0.0583545
0.0757354
-0.07003
0.0871814
-0.0797225
0.0960664
-0.0872833
0.102498
-0.0929847
0.107017
-0.0973259
0.110295
-0.100817
0.112882
-0.103832
0.115121
-0.106585
0.117199
-0.109183
0.119228
-0.111671
0.121308
-0.114095
0.123494
-0.116425
0.125843
-0.118782
0.128432
-0.120898
-0.123399
0.130866
5.18541e-05
0.00182901
0.0010331
0.00180828
0.00378243
-0.00153594
0.00906685
-0.00829026
0.0173628
-0.0183934
0.028502
-0.0311505
0.0415282
-0.0451652
0.0549752
-0.0588026
0.0673852
-0.0707645
0.0777538
-0.0803987
0.0857283
-0.0876969
0.0915339
-0.0930889
0.0957173
-0.0971682
0.0988581
-0.100467
0.101393
-0.103351
0.103592
-0.10603
0.105617
-0.10861
0.107571
-0.111137
0.109534
-0.113634
0.111543
-0.116105
0.113668
-0.11855
0.115916
-0.12103
0.1184
-0.123382
-0.126173
0.121174
0.00030947
0.00151954
0.00202362
9.41252e-05
0.00598795
-0.00550027
0.0128668
-0.0151691
0.0227164
-0.028243
0.0346684
-0.0431025
0.0471898
-0.0576866
0.0587417
-0.0703545
0.0683203
-0.0803431
0.0756333
-0.0877117
0.0809504
-0.0930141
0.0848034
-0.0969419
0.0877179
-0.100083
0.0900836
-0.102832
0.0921486
-0.105416
0.094063
-0.107945
0.0959141
-0.110461
0.0977558
-0.112978
0.0996197
-0.115498
0.101538
-0.118023
0.103549
-0.120561
0.105646
-0.123126
0.107923
-0.125659
-0.128441
0.110191
0.000562204
0.000957335
0.00304979
-0.00239346
0.00826954
-0.01072
0.0165792
-0.0234787
0.0273482
-0.039012
0.0390347
-0.054789
0.0499619
-0.0686138
0.059026
-0.0794186
0.0659057
-0.0872228
0.0708679
-0.0926739
0.0744335
-0.0965797
0.0771116
-0.0996201
0.07928
-0.102251
0.0811755
-0.104728
0.0829307
-0.107172
0.0846125
-0.109627
0.086257
-0.112106
0.0878896
-0.114611
0.0895372
-0.117145
0.0912269
-0.119713
0.0929819
-0.122316
0.0948241
-0.124968
0.0968081
-0.127643
-0.130517
0.0988846
0.000835846
0.000121489
0.00413212
-0.00568973
0.0105405
-0.0171284
0.0198488
-0.032787
0.030657
-0.0498202
0.0411199
-0.065252
0.0499142
-0.077408
0.0565823
-0.0860867
0.0613347
-0.0919752
0.0646789
-0.0960181
0.0671293
-0.0990301
0.0690715
-0.101562
0.0707437
-0.103923
0.0722727
-0.106257
0.0737201
-0.108619
0.0751196
-0.111026
0.076496
-0.113482
0.0778719
-0.115987
0.0792681
-0.118542
0.0807018
-0.121147
0.0821922
-0.123806
0.0837439
-0.12652
0.0853885
-0.129288
-0.13218
0.0870517
0.00114173
-0.00102024
0.00525015
-0.00979815
0.0126183
-0.0244965
0.022272
-0.0424407
0.0322786
-0.0598268
0.0409791
-0.0739525
0.0476423
-0.0840712
0.0523426
-0.0907871
0.0555545
-0.0951871
0.0578093
-0.0982729
0.05952
-0.100741
0.060944
-0.102986
0.0622168
-0.105196
0.0634033
-0.107443
0.0645358
-0.109752
0.0656343
-0.112125
0.0667141
-0.114562
0.0677895
-0.117062
0.0688746
-0.119627
0.0699855
-0.122257
0.0711341
-0.124955
0.072336
-0.127722
0.0736122
-0.130564
-0.133499
0.0749311
0.00147205
-0.0024923
0.00631775
-0.0146438
0.0142496
-0.0324284
0.0235567
-0.0517479
0.03221
-0.06848
0.0390384
-0.0807809
0.0438564
-0.0888893
0.0470533
-0.093984
0.0491735
-0.0973072
0.0506725
-0.0997719
0.0518443
-0.101913
0.0528458
-0.103988
0.0537507
-0.106101
0.0545926
-0.108285
0.0553892
-0.110548
0.0561534
-0.112889
0.0568981
-0.115306
0.0576363
-0.117801
0.0583817
-0.120372
0.0591454
-0.123021
0.0599386
-0.125748
0.0607705
-0.128554
0.0616472
-0.131441
-0.134401
0.0625491
0.00179838
-0.00429068
0.00721221
-0.0200577
0.0152217
-0.0404379
0.0236416
-0.0601677
0.0307184
-0.0755569
0.0358213
-0.0858838
0.0391483
-0.0922162
0.0412239
-0.0960596
0.0425534
-0.0986367
0.0434847
-0.100703
0.044211
-0.102639
0.0448232
-0.1046
0.045361
-0.106639
0.0458431
-0.108767
0.0462815
-0.110987
0.0466871
-0.113294
0.0470706
-0.11569
0.0474425
-0.118172
0.0478131
-0.120743
0.0481928
-0.123401
0.0485905
-0.126146
0.0490159
-0.128979
0.0494756
-0.1319
-0.134895
0.0499699
0.00208851
-0.00637919
0.00782033
-0.0257895
0.0154437
-0.0480613
0.0226618
-0.0673857
0.0281718
-0.0810669
0.0317947
-0.0895067
0.0339506
-0.0943722
0.0351803
-0.0972892
0.0359016
-0.099358
0.0363617
-0.101163
0.0366808
-0.102958
0.0369108
-0.10483
0.0370739
-0.106802
0.0371825
-0.108876
0.0372462
-0.11105
0.037274
-0.113322
0.0372751
-0.115691
0.0372586
-0.118156
0.0372338
-0.120718
0.0372095
-0.123376
0.037194
-0.12613
0.0371932
-0.128979
0.0372076
-0.131915
-0.134928
0.0372406
0.0023167
-0.00869588
0.00807811
-0.0315509
0.0149619
-0.054945
0.0208575
-0.0732814
0.024932
-0.0851414
0.0273283
-0.091903
0.0285627
-0.0956066
0.0291253
-0.0978519
0.0293389
-0.0995716
0.0293703
-0.101195
0.0292923
-0.10288
0.0291347
-0.104672
0.0289112
-0.106578
0.0286309
-0.108596
0.0283013
-0.110721
0.0279304
-0.112951
0.0275259
-0.115286
0.0270959
-0.117726
0.0266482
-0.12027
0.0261907
-0.122919
0.025732
-0.125672
0.0252794
-0.128526
0.0248373
-0.131472
0.0244184
-0.134509
-0.00335849
0.00204379
0.0013147
-0.00961246
0.00382885
0.00242512
-0.0170339
0.00457938
0.00284207
-0.024959
0.00493614
0.00298891
-0.0331895
0.00518105
0.0030495
-0.0416398
0.00538178
0.00306853
-0.0502087
0.00552644
0.00304242
-0.0587602
0.00559068
0.0029608
-0.0671243
0.00555018
0.00281392
-0.0750987
0.00538131
0.0025931
-0.082451
0.00506128
0.00229102
-0.0889205
0.00456781
0.00190168
-0.0942181
0.00387842
0.00141922
-0.0980279
0.00297249
0.00083729
-0.100002
0.0018343
0.000139659
-0.099871
0.000437639
-0.000568539
-0.0973895
-0.00111425
-0.00136722
-0.0922517
-0.00290694
-0.00223087
-0.0842463
-0.00488351
-0.00312183
-0.0732967
-0.00695243
-0.00399724
-0.0594843
-0.00900127
-0.0048111
-0.0430718
-0.0109053
-0.00550718
-0.0245353
-0.0125043
-0.00603225
-0.0141108
-0.00393935
-0.00648511
-0.00302434
0.00506813
-0.0088174
0.00962191
-0.0157905
0.0115525
-0.0232723
0.012418
-0.0310318
0.0129405
-0.0389635
0.0133135
-0.0469568
0.0135197
-0.0548701
0.013504
-0.0625308
0.0132109
-0.0697375
0.012588
-0.0762629
0.0115866
-0.0818575
0.0101624
-0.0862538
0.00827473
-0.089161
0.00587969
-0.0902534
0.00292668
-0.0892322
-0.000583585
-0.0859839
-0.00436254
-0.0801728
-0.00871805
-0.0715759
-0.0134804
-0.0601015
-0.0184268
-0.0458389
-0.0232639
-0.029036
-0.0277082
-0.0102457
-0.0312946
-0.0348728
0.0105162
-0.00223359
0.00730172
-0.00689755
0.0142859
-0.0127549
0.0174098
-0.0191328
0.0187958
-0.0257251
0.0195328
-0.0323804
0.0199688
-0.0389697
0.0201091
-0.0453443
0.0198786
-0.0513311
0.0191977
-0.0567371
0.017994
-0.0613554
0.0162049
-0.0649698
0.0137769
-0.0673588
0.0106637
-0.0682979
0.00681878
-0.0675138
0.00214257
-0.0650262
-0.00307117
-0.0604183
-0.00897046
-0.0534848
-0.0156516
-0.0440204
-0.0229448
-0.0319055
-0.0305416
-0.0172128
-0.0379566
-0.000287951
-0.044633
0.0183995
-0.049982
-0.0548947
0.0384214
-0.00114545
0.00844717
-0.00414817
0.0172886
-0.00832453
0.0215862
-0.0130481
0.0235194
-0.0179172
0.0244019
-0.0227052
0.0247568
-0.0272514
0.0246553
-0.0313971
0.0240243
-0.0349715
0.022772
-0.0377961
0.0208187
-0.0396951
0.0181039
-0.0405066
0.0145884
-0.0400906
0.0102478
-0.0383216
0.00504978
-0.0351914
-0.000987633
-0.0306
-0.00766265
-0.0242973
-0.0152731
-0.0161368
-0.0238121
-0.00590216
-0.0331794
0.00640604
-0.0428499
0.0208161
-0.0523667
0.036932
-0.0607489
0.0542447
-0.0672947
-0.072589
0.0719389
2.26344e-05
0.00842453
-0.00102456
0.0183358
-0.00312341
0.023685
-0.00580116
0.0261972
-0.00859118
0.0271919
-0.0111747
0.0273403
-0.0133432
0.0268238
-0.0149286
0.0256096
-0.0157723
0.0236158
-0.0157258
0.0207721
-0.0146592
0.0170373
-0.0124746
0.0124039
-0.00912182
0.00689498
-0.00461162
0.000539583
0.0009825
-0.00658176
0.00777544
-0.0144556
0.0157732
-0.0232709
0.0250787
-0.0331175
0.035858
-0.0439587
0.0481639
-0.0551557
0.0618787
-0.0660816
0.0763696
-0.0752398
0.0913644
-0.0822895
-0.0868627
0.105638
0.00098852
0.00743601
0.00188404
0.0174403
0.00203742
0.0235317
0.00160981
0.0266248
0.00103839
0.0277633
0.000715514
0.0276632
0.000912501
0.0266269
0.0018114
0.0247107
0.0035441
0.0218831
0.00620969
0.0181066
0.00987247
0.0133745
0.014552
0.00772428
0.02016
0.00128703
0.0267304
-0.00603084
0.0341419
-0.0139933
0.042408
-0.0227216
0.0515986
-0.0324615
0.061848
-0.0433669
0.0732447
-0.0553555
0.0855588
-0.0674698
0.098384
-0.0789068
0.110885
-0.0877406
0.122881
-0.0942856
-0.097266
0.133284
0.00158409
0.00585192
0.00403669
0.0149877
0.00627432
0.021294
0.00808182
0.0248173
0.00971037
0.0261348
0.0115297
0.0258438
0.0138426
0.024314
0.0168477
0.0217056
0.0206576
0.0180731
0.0253155
0.0134487
0.0308035
0.00788648
0.0369953
0.00153247
0.0440275
-0.00574516
0.0516568
-0.0136601
0.0599509
-0.0222874
0.069079
-0.0318498
0.0792517
-0.0426342
0.0905383
-0.0546535
0.102651
-0.0674685
0.114891
-0.0797094
0.126422
-0.0904376
0.136464
-0.0977827
0.145009
-0.102831
-0.10388
0.151623
0.00172756
0.00412436
0.00503467
0.0116806
0.00877477
0.0175539
0.0124323
0.0211597
0.0159857
0.0225814
0.0196559
0.0221737
0.0236956
0.0202743
0.0282865
0.0171147
0.0335127
0.012847
0.0393683
0.00759312
0.0457332
0.00152155
0.0527912
-0.00552557
0.0603244
-0.0132783
0.0684993
-0.0218351
0.0776148
-0.0314029
0.0879944
-0.0422293
0.099708
-0.0543478
0.112347
-0.0672923
0.124926
-0.0800476
0.136326
-0.0911093
0.145604
-0.0997162
0.152519
-0.104697
0.157512
-0.107825
-0.107394
0.161026
0.00149936
0.002625
0.0048486
0.00833131
0.00916554
0.013237
0.0138497
0.0164756
0.0186548
0.0177763
0.0235921
0.0172364
0.0287762
0.0150902
0.0343106
0.0115802
0.0402395
0.0069181
0.0465209
0.00131176
0.0534157
-0.00537325
0.0608408
-0.0129507
0.0691215
-0.021559
0.0786691
-0.0313827
0.089807
-0.0425408
0.102488
-0.0549107
0.116048
-0.0679071
0.129295
-0.0805399
0.140807
-0.0915599
0.149671
-0.0999728
0.15555
-0.105595
0.15915
-0.108297
0.161356
-0.11003
-0.109169
0.163131
0.00105406
0.00157094
0.00378158
0.00560379
0.00770909
0.00930948
0.0123595
0.0118252
0.0174071
0.0127287
0.0227076
0.0119358
0.0282418
0.00955604
0.0340557
0.00576634
0.0402253
0.00074842
0.0470865
-0.00554935
0.0547986
-0.0130854
0.0638266
-0.0219787
0.0745715
-0.0323039
0.0871636
-0.0439748
0.101223
-0.0566005
0.115776
-0.0694631
0.129421
-0.0815519
0.140772
-0.0918915
0.148929
-0.0997165
0.153969
-0.105013
0.156534
-0.10816
0.158017
-0.109779
0.159113
-0.111127
-0.110771
0.160714
0.000527927
0.00104302
0.00226702
0.0038647
0.00513707
0.00643944
0.00889414
0.0080681
0.0132922
0.0083306
0.0181932
0.00703488
0.023605
0.00414424
0.0297067
-0.000335399
0.0368578
-0.00640267
0.0454479
-0.0141395
0.0559011
-0.0235386
0.0683967
-0.0344743
0.0826801
-0.0465873
0.097963
-0.0592576
0.11301
-0.0716474
0.1264
-0.0828536
0.136953
-0.0921049
0.144129
-0.0990667
0.148233
-0.103821
0.150275
-0.107055
0.151286
-0.109171
0.152465
-0.110959
0.153792
-0.112453
-0.112941
0.155962
3.43478e-05
0.000764167
0.00243483
0.00507611
0.00867475
0.0133171
0.019258
0.0268541
0.0365194
0.0484405
0.062437
0.077841
0.0935512
0.108233
0.120636
0.129943
0.136048
0.139541
0.141436
0.142652
0.143753
0.145176
0.146629
0.149928
0.0222788
-0.0171526
-0.00906554
0.0458811
-0.0147123
-0.00889001
0.066877
-0.0124048
-0.00859101
0.0853552
-0.0102608
-0.00821738
0.101396
-0.00820816
-0.00783292
0.115171
-0.00630582
-0.0074685
0.126926
-0.00460374
-0.00715201
0.136922
-0.00310116
-0.00689502
0.14539
-0.00177046
-0.00669756
0.152519
-0.000573071
-0.00655568
0.158501
0.000469744
-0.00645145
0.163491
0.00139175
-0.00638201
0.16763
0.00221582
-0.00635427
0.171049
0.00296415
-0.00638385
0.173876
0.00364712
-0.00647416
0.176207
0.00429389
-0.00662441
0.178134
0.00488851
-0.00681576
0.179737
0.00542437
-0.00702723
0.181081
0.00590707
-0.00725132
0.182219
0.00635988
-0.00749768
0.183189
0.00681352
-0.00778334
0.184018
0.00729093
-0.00811981
0.184725
0.00780262
-0.00850934
0.185323
0.00834952
-0.00894794
0.185824
0.00892864
-0.0094301
0.186239
0.00953768
-0.00995218
0.186575
0.0101771
-0.0105136
0.186842
0.0108497
-0.0111164
0.187046
0.0115598
-0.0117637
0.187193
0.0123124
-0.0124597
0.187289
0.0131132
-0.0132094
0.187339
0.0139684
-0.0140179
0.187346
0.0148844
-0.0148912
0.187313
0.0158684
-0.0158358
0.187244
0.0169279
-0.0168588
0.187141
0.0180713
-0.0179681
0.187006
0.0193076
-0.0191726
0.186841
0.020647
-0.0204818
0.186647
0.0221003
-0.0219067
0.186426
0.0236798
-0.0234591
0.18618
0.025399
-0.0251523
0.185908
0.0272729
-0.0270013
0.185613
0.0293184
-0.0290227
0.185294
0.0315541
-0.0312352
0.184952
0.0340009
-0.0336594
0.184588
0.0366822
-0.0363186
0.184203
0.0396235
-0.0392382
0.183797
0.0428555
-0.042449
0.183369
0.0464026
-0.0459752
0.182921
0.0503284
-0.04988
0.182453
0.0545817
-0.0541136
0.181962
0.0594768
-0.058986
0.181456
0.0643234
-0.0638172
0.18092
0.0710059
-0.0704698
0.180378
0.0754946
-0.0749528
0.179798
0.0859349
-0.0853547
0.179208
0.0884661
-0.0878768
0.178597
0.103687
-0.103076
0.177953
0.105999
-0.105355
0.123389
-0.12272
0.0343112
-0.0409477
0.0559029
-0.0363039
0.0751424
-0.0316444
0.0919884
-0.0271068
0.1066
-0.0228197
0.119133
-0.0188389
0.129836
-0.015307
0.138964
-0.0122289
0.146741
-0.00954725
0.153365
-0.00719744
0.158968
-0.00513288
0.163682
-0.00332269
0.167631
-0.00173298
0.170905
-0.00030935
0.173661
0.000890281
0.175958
0.00199734
0.177874
0.00297237
0.179473
0.00382505
0.180818
0.00456198
0.181961
0.00521769
0.182939
0.0058353
0.18378
0.00644975
0.184502
0.00708055
0.185118
0.00773378
0.185638
0.00840886
0.186071
0.00910461
0.186426
0.00982217
0.18671
0.0105649
0.186932
0.0113379
0.187097
0.0121473
0.187211
0.0129994
0.187278
0.0139012
0.187303
0.0148599
0.187288
0.0158831
0.187237
0.0169789
0.187152
0.0181562
0.187036
0.0194242
0.186889
0.0207935
0.186714
0.0222752
0.186512
0.0238816
0.186285
0.0256267
0.186032
0.0275254
0.185756
0.0295949
0.185456
0.031854
0.185133
0.0343237
0.184788
0.0370274
0.184421
0.0399907
0.184032
0.0432447
0.183621
0.0468136
0.183187
0.0507616
0.182733
0.0550361
0.182254
0.0599557
0.181757
0.0648201
0.181228
0.0715353
0.180689
0.0760335
0.180107
0.0865166
0.179514
0.0890594
0.178887
0.104315
0.178229
0.106657
0.12409
0.0573492
-0.0598754
0.0748892
-0.0538439
0.0906389
-0.0473941
0.104416
-0.0408837
0.11631
-0.0347143
0.126568
-0.0290968
0.135344
-0.0240826
0.142849
-0.0197344
0.149288
-0.0159861
0.154826
-0.0127347
0.159591
-0.00989872
0.163689
-0.00742015
0.167213
-0.00525668
0.170266
-0.0033625
0.172848
-0.00169152
0.175007
-0.000161948
0.176874
0.00110528
0.178449
0.00225044
0.179786
0.00322417
0.180932
0.00407188
0.181922
0.00484525
0.182782
0.00559006
0.183528
0.00633481
0.184171
0.00709085
0.18472
0.00785975
0.185183
0.00864114
0.185569
0.00943636
0.185885
0.0102491
0.186138
0.0110849
0.186334
0.0119507
0.18648
0.0128539
0.186579
0.0138019
0.186636
0.0148028
0.186655
0.0158647
0.186637
0.0169962
0.186587
0.0182067
0.186505
0.0195059
0.186394
0.0209044
0.186256
0.0224137
0.186091
0.0240464
0.185901
0.0258166
0.185687
0.0277395
0.185449
0.0298324
0.185189
0.0321143
0.184906
0.0346064
0.184601
0.0373322
0.184275
0.0403175
0.183926
0.0435935
0.183555
0.0471843
0.183162
0.051155
0.182747
0.0554513
0.182306
0.0603966
0.181845
0.0652805
0.181351
0.07203
0.180843
0.0765407
0.18029
0.0870703
0.179723
0.0896263
0.179111
0.104927
0.178471
0.107297
0.12479
0.0838312
-0.0717677
0.0956044
-0.0656171
0.106615
-0.0584051
0.116576
-0.0508446
0.125367
-0.0435054
0.133084
-0.0368138
0.139881
-0.0308795
0.14581
-0.0256632
0.150978
-0.0211545
0.155506
-0.0172626
0.159489
-0.0138813
0.162998
-0.0109288
0.166087
-0.008346
0.168805
-0.00608092
0.171196
-0.00408227
0.173318
-0.00228388
0.175097
-0.000673428
0.17665
0.000697511
0.177984
0.00189001
0.179138
0.00291763
0.180146
0.00383699
0.181032
0.00470458
0.18181
0.00555709
0.182489
0.00641119
0.183078
0.00727072
0.183584
0.00813582
0.184012
0.00900758
0.184372
0.0098895
0.184669
0.0107876
0.184911
0.0117093
0.185102
0.0126628
0.185247
0.0136564
0.185351
0.0146985
0.185418
0.0157981
0.18545
0.0169645
0.185449
0.0182071
0.185419
0.0195363
0.185361
0.0209629
0.185276
0.0224986
0.185166
0.0241564
0.185032
0.0259505
0.184875
0.0278964
0.184696
0.0300115
0.184495
0.0323151
0.184273
0.0348285
0.18403
0.0375754
0.183766
0.0405817
0.18348
0.0438789
0.183173
0.047491
0.182844
0.0514841
0.182493
0.0558023
0.182116
0.0607735
0.181719
0.0656777
0.181287
0.0724625
0.18084
0.0769877
0.180344
0.0875664
0.179834
0.0901363
0.179268
0.105492
0.17868
0.107885
0.125453
0.109698
-0.075828
0.114864
-0.0707831
0.120468
-0.0640088
0.126168
-0.0565443
0.131755
-0.0490925
0.137043
-0.0421016
0.141974
-0.0358109
0.146573
-0.030262
0.150777
-0.0253582
0.154584
-0.0210697
0.158022
-0.0173192
0.161121
-0.014028
0.163913
-0.0111385
0.166432
-0.00859917
0.168693
-0.006344
0.170717
-0.00430797
0.172521
-0.00247663
0.17406
-0.000842093
0.175407
0.000543145
0.176584
0.00174111
0.177618
0.0028025
0.178537
0.0037853
0.179356
0.00473893
0.180081
0.00568563
0.18072
0.0066316
0.181278
0.00757756
0.181762
0.00852402
0.182178
0.00947386
0.182532
0.0104331
0.182832
0.0114098
0.183082
0.0124127
0.183288
0.0134505
0.183453
0.0145328
0.183583
0.0156688
0.183679
0.0168684
0.183744
0.0181417
0.183781
0.0194992
0.183792
0.0209523
0.183778
0.0225129
0.18374
0.0241941
0.18368
0.0260104
0.183599
0.0279774
0.183498
0.0301129
0.183376
0.0324365
0.183235
0.0349694
0.183075
0.0377357
0.182895
0.0407614
0.182696
0.0440784
0.182476
0.0477105
0.182236
0.0517249
0.181974
0.0560639
0.181687
0.0610607
0.18138
0.0659849
0.181037
0.0728052
0.180679
0.0773459
0.180269
0.0879757
0.179847
0.090559
0.17936
0.105978
0.178855
0.10839
0.126047
0.130876
-0.0734193
0.13025
-0.0701572
0.131011
-0.0647701
0.132844
-0.0583773
0.135493
-0.0517415
0.138655
-0.0452641
0.142034
-0.0391889
0.145441
-0.033669
0.148841
-0.0287585
0.152118
-0.0243471
0.155199
-0.0203999
0.158051
-0.01688
0.160667
-0.0137548
0.163063
-0.0109946
0.165261
-0.00854288
0.167272
-0.00631812
0.169074
-0.00427948
0.17068
-0.00244743
0.172057
-0.000833901
0.17327
0.000528293
0.174346
0.00172634
0.175307
0.00282386
0.176174
0.00387209
0.176955
0.00490509
0.177654
0.00593235
0.178276
0.00695535
0.178826
0.00797388
0.17931
0.00898973
0.179735
0.0100087
0.180106
0.011039
0.180429
0.0120898
0.180708
0.0131706
0.18095
0.0142914
0.181157
0.0154621
0.181332
0.0166932
0.181478
0.0179951
0.181598
0.019379
0.181694
0.0208564
0.181768
0.0224396
0.18182
0.0241422
0.181852
0.0259784
0.181865
0.0279642
0.18186
0.0301178
0.181838
0.0324588
0.181798
0.0350089
0.181741
0.0377923
0.181668
0.0408352
0.181576
0.0441697
0.181467
0.0478198
0.181338
0.0518537
0.181191
0.0562117
0.181018
0.0612327
0.180828
0.0661759
0.180602
0.0730309
0.180361
0.0775869
0.180068
0.0882688
0.179762
0.0908642
0.179386
0.106355
0.178997
0.108779
0.126536
0.144992
-0.066788
0.140361
-0.0655263
0.137643
-0.0620524
0.136606
-0.0573403
0.136995
-0.0521298
0.13843
-0.0466997
0.140546
-0.0413044
0.143042
-0.0361651
0.145702
-0.0314186
0.148479
-0.0271245
0.151258
-0.0231785
0.153928
-0.0195505
0.156431
-0.0162575
0.158759
-0.0133225
0.16093
-0.0107137
0.162952
-0.00834062
0.164809
-0.00613656
0.166467
-0.00410528
0.167935
-0.00230177
0.169197
-0.00073348
0.17033
0.000593188
0.171352
0.00180177
0.172279
0.00294502
0.173125
0.0040592
0.173895
0.00516265
0.174591
0.00625862
0.175219
0.00734617
0.175783
0.00842562
0.17629
0.00950219
0.176745
0.0105842
0.177153
0.0116812
0.177521
0.0128031
0.177852
0.0139605
0.17815
0.015164
0.178419
0.0164244
0.178661
0.0177526
0.17888
0.0191603
0.179077
0.0206593
0.179254
0.0222625
0.179413
0.0239836
0.179554
0.025837
0.179679
0.0278389
0.179789
0.0300076
0.179885
0.0323632
0.179967
0.0349274
0.180034
0.0377249
0.180087
0.0407819
0.180126
0.0441311
0.180149
0.0477963
0.180156
0.051847
0.180146
0.0562215
0.180114
0.0612645
0.180066
0.0662245
0.179984
0.0731129
0.179888
0.0776827
0.17974
0.0884172
0.179582
0.0910221
0.179347
0.10659
0.179105
0.10902
0.126888
0.152402
-0.0581644
0.145673
-0.058797
0.140906
-0.0572849
0.138015
-0.0544502
0.136807
-0.0509209
0.13691
-0.0468031
0.137953
-0.0423473
0.139633
-0.0378455
0.141707
-0.0334923
0.143985
-0.0294021
0.146409
-0.0256031
0.14889
-0.022031
0.1513
-0.0186679
0.153586
-0.0156089
0.155754
-0.0128811
0.157809
-0.0103952
0.15973
-0.00805791
0.161482
-0.00585737
0.163032
-0.00385163
0.164403
-0.00210494
0.165586
-0.000589979
0.166678
0.000710225
0.167678
0.00194466
0.1686
0.00313779
0.169451
0.00431141
0.170234
0.00547525
0.170952
0.00662837
0.171609
0.00776883
0.17221
0.00890086
0.172762
0.0100326
0.173269
0.0111737
0.173738
0.0123346
0.174172
0.0135265
0.174576
0.0147603
0.174952
0.0160475
0.175305
0.0173996
0.175637
0.0188283
0.175951
0.020346
0.176247
0.0219658
0.176529
0.023702
0.176797
0.0255692
0.177052
0.0275839
0.177295
0.0297645
0.177527
0.0321309
0.177749
0.0347057
0.17796
0.0375136
0.178161
0.0405811
0.178351
0.0439414
0.178529
0.0476179
0.178694
0.0516822
0.178846
0.0560696
0.178978
0.0611319
0.179098
0.0661052
0.179186
0.0730251
0.179262
0.0776059
0.179287
0.0883924
0.179306
0.0910034
0.179243
0.106653
0.179179
0.109084
0.127068
0.154464
-0.0494971
0.147209
-0.0515418
0.141527
-0.0516028
0.137575
-0.0504982
0.135276
-0.0486218
0.134334
-0.0458615
0.134455
-0.0424686
0.13538
-0.0387702
0.136868
-0.03498
0.138726
-0.03126
0.140811
-0.0276886
0.14305
-0.0242703
0.145355
-0.020972
0.147606
-0.0178608
0.149777
-0.0150517
0.151863
-0.0124813
0.153846
-0.0100405
0.155684
-0.00769587
0.157346
-0.00551386
0.158818
-0.00357661
0.160144
-0.00191618
0.161309
-0.000454588
0.162408
0.000846132
0.163421
0.00212433
0.164362
0.00337012
0.16524
0.00459756
0.166056
0.0058123
0.166815
0.00701041
0.16752
0.0081949
0.16818
0.00937348
0.168797
0.0105559
0.169379
0.0117532
0.169928
0.0129767
0.170451
0.0142381
0.170949
0.0155492
0.171427
0.016922
0.171886
0.0183686
0.172331
0.0199016
0.172762
0.0215347
0.173182
0.023282
0.173592
0.0251589
0.173994
0.0271824
0.174387
0.0293707
0.174774
0.0317441
0.175155
0.0343252
0.175529
0.0371392
0.175897
0.0402129
0.176259
0.0435799
0.176613
0.0472635
0.176958
0.0513371
0.177295
0.055733
0.177616
0.060811
0.177928
0.0657932
0.178211
0.072742
0.178487
0.0773293
0.178713
0.088167
0.178937
0.0907796
0.179077
0.106512
0.179222
0.108939
0.127042
0.153106
-0.0418891
0.146189
-0.0446246
0.140196
-0.0456105
0.135653
-0.0459551
0.132582
-0.0455509
0.130804
-0.0440829
0.130133
-0.0417977
0.130375
-0.039012
0.131318
-0.0359237
0.13276
-0.0327012
0.134552
-0.0294814
0.136606
-0.0263242
0.138789
-0.0231543
0.14099
-0.0200626
0.143146
-0.0172077
0.145245
-0.0145798
0.147272
-0.0120679
0.149189
-0.00961251
0.150954
-0.00727893
0.15255
-0.00517287
0.153976
-0.00334223
0.155286
-0.00176403
0.156449
-0.000317419
0.157574
0.000999063
0.158626
0.00231859
0.159614
0.00360975
0.160542
0.00488382
0.161416
0.00613683
0.162239
0.00737136
0.163018
0.00859446
0.163759
0.0098158
0.164465
0.0110467
0.165143
0.012299
0.165796
0.013585
0.166429
0.0149167
0.167044
0.0163066
0.167645
0.0177675
0.168235
0.019312
0.168815
0.0209543
0.169388
0.0227089
0.169956
0.0245911
0.17052
0.0266185
0.171081
0.0288099
0.171639
0.0311855
0.172196
0.0337681
0.172752
0.0365834
0.173307
0.0396582
0.17386
0.043027
0.174411
0.0467125
0.174957
0.0507905
0.175501
0.0551897
0.176033
0.060279
0.176562
0.0652645
0.177064
0.0722392
0.177567
0.0768269
0.178019
0.0877144
0.178476
0.0903228
0.17885
0.106139
0.179232
0.108557
0.126778
0.149485
-0.0354116
0.142961
-0.0381009
0.136993
-0.0396432
0.132208
-0.0411697
0.128635
-0.0419778
0.126253
-0.0417006
0.12499
-0.0405352
0.124707
-0.0387285
0.125223
-0.0364395
0.126342
-0.0338204
0.12788
-0.0310194
0.129683
-0.0281269
0.131676
-0.0251477
0.133773
-0.02216
0.135878
-0.0193129
0.137952
-0.0166529
0.140004
-0.0141198
0.142002
-0.0116107
0.143891
-0.00916856
0.145629
-0.00691042
0.147206
-0.00491891
0.148629
-0.00318767
0.14996
-0.00164815
0.15115
-0.000190622
0.152317
0.00115103
0.153423
0.00250349
0.15447
0.00383716
0.155464
0.00514279
0.156411
0.00642427
0.157317
0.00768841
0.158188
0.00894507
0.159029
0.010206
0.159844
0.0114835
0.160639
0.0127902
0.161417
0.0141387
0.162182
0.0155419
0.162936
0.0170128
0.163684
0.0185644
0.164427
0.0202114
0.165167
0.0219685
0.165907
0.0238513
0.166648
0.0258776
0.167391
0.0280666
0.168138
0.030439
0.168888
0.0330177
0.169643
0.0358286
0.170402
0.0388989
0.171165
0.0422638
0.171933
0.0459454
0.172701
0.0500221
0.173472
0.0544184
0.174237
0.059514
0.175006
0.0644959
0.175752
0.0714932
0.176505
0.0760732
0.177211
0.0870089
0.177927
0.0896062
0.178563
0.105504
0.17921
0.10791
0.126243
0.144722
-0.0302051
0.138954
-0.0323333
0.133562
-0.0342509
0.128602
-0.0362099
0.124316
-0.0376918
0.121087
-0.0384718
0.119035
-0.0384832
0.118044
-0.0377378
0.117966
-0.0363614
0.118625
-0.034479
0.119833
-0.0322275
0.121446
-0.0297404
0.123364
-0.0270652
0.125474
-0.0242699
0.127657
-0.0214956
0.129829
-0.018825
0.131953
-0.0162441
0.134032
-0.0136899
0.136042
-0.0111787
0.137937
-0.00880479
0.139685
-0.00666735
0.141288
-0.0047908
0.142756
-0.00311568
0.144142
-0.0015766
0.145394
-0.000101622
0.146634
0.00126426
0.147819
0.00265219
0.148954
0.00400784
0.150042
0.00533548
0.151091
0.00663971
0.152106
0.00793011
0.153093
0.0092188
0.154058
0.0105185
0.155006
0.0118426
0.155941
0.013204
0.156866
0.0146162
0.157787
0.0160925
0.158704
0.0176466
0.159623
0.0192932
0.160543
0.0210476
0.161469
0.0229257
0.162401
0.0249454
0.163341
0.0271264
0.164291
0.0294897
0.16525
0.0320584
0.16622
0.0348588
0.1672
0.0379183
0.168191
0.0412727
0.169193
0.0449438
0.170202
0.049013
0.171221
0.0533994
0.17224
0.0584956
0.17327
0.0634657
0.174281
0.0704818
0.17531
0.0750445
0.176293
0.0860262
0.177294
0.0886044
0.17822
0.104579
0.179158
0.106971
0.125406
0.192794
-0.0251171
-0.197882
0.188639
-0.0281778
0.184727
-0.0303391
0.180713
-0.0321959
0.176658
-0.0336364
0.172718
-0.0345324
0.16904
-0.034805
0.165724
-0.0344213
0.162818
-0.0334554
0.160348
-0.0320094
0.158308
-0.0301878
0.156673
-0.0281048
0.155427
-0.0258196
0.154544
-0.0233867
0.153964
-0.0209152
0.153619
-0.0184807
0.153461
-0.0160857
0.153471
-0.0136999
0.153632
-0.0113396
0.153912
-0.00908459
0.154266
-0.00702138
0.154652
-0.00517757
0.155044
-0.00350715
0.155425
-0.00195786
0.155829
-0.0005052
0.156174
0.000918525
0.156515
0.00231134
0.156843
0.00368015
0.157159
0.00501986
0.157461
0.00633746
0.157749
0.00764234
0.158022
0.00894582
0.15828
0.0102602
0.158524
0.0115984
0.158755
0.0129733
0.158973
0.014398
0.15918
0.0158859
0.159376
0.0174506
0.159562
0.0191067
0.159741
0.0208693
0.159911
0.0227549
0.160076
0.0247809
0.160235
0.0269671
0.16039
0.0293347
0.160542
0.0319068
0.160691
0.0347096
0.160839
0.0377705
0.160986
0.0411257
0.161133
0.0447968
0.161281
0.0488649
0.16143
0.0532507
0.161582
0.058343
0.161733
0.063315
0.161893
0.0703221
0.162047
0.0748899
0.162206
0.0858677
0.162377
0.0884326
0.162516
0.10444
0.162698
0.106789
0.12527
0.201768
-0.0211849
-0.2057
0.197875
-0.0242842
0.19409
-0.0265548
0.190263
-0.0283688
0.186426
-0.0297993
0.182687
-0.0307932
0.179165
-0.0312834
0.175956
-0.0312116
0.173112
-0.0306118
0.170666
-0.0295635
0.168622
-0.0281441
0.166959
-0.0264416
0.165651
-0.024511
0.164671
-0.0224069
0.163983
-0.0202274
0.163535
-0.0180333
0.163273
-0.0158232
0.163166
-0.0135928
0.163205
-0.0113789
0.163374
-0.00925334
0.163637
-0.00728392
0.163953
-0.00549387
0.164299
-0.00385293
0.164653
-0.0023124
0.164985
-0.000837127
0.165325
0.000578213
0.165658
0.0019785
0.165986
0.0033522
0.166305
0.00470136
0.166611
0.0060307
0.166905
0.00734863
0.167185
0.0086658
0.167451
0.00999406
0.167704
0.0113457
0.167944
0.0127336
0.168171
0.0141704
0.168388
0.0156694
0.168594
0.0172445
0.168791
0.0189096
0.16898
0.0206804
0.169162
0.022573
0.169337
0.0246051
0.169508
0.0267962
0.169675
0.0291678
0.169839
0.0317429
0.170001
0.0345477
0.170162
0.0376098
0.170322
0.0409651
0.170483
0.0446357
0.170646
0.0487023
0.17081
0.0530869
0.170978
0.0581751
0.171145
0.0631475
0.17132
0.0701472
0.171494
0.0747158
0.171667
0.0856947
0.171859
0.0882408
0.172014
0.104285
0.172213
0.106591
0.125116
0.21135
-0.0181138
-0.214421
0.207795
-0.0207293
0.204236
-0.0229951
0.200691
-0.0248246
0.197146
-0.0262538