/*--------------------------------*- C++ -*----------------------------------*\
| =========                 |                                                 |
| \\      /  F ield         | OpenFOAM: The Open Source CFD Toolbox           |
|  \\    /   O peration     | Version:  2512                                  |
|   \\  /    A nd           | Website:  www.openfoam.com                      |
|    \\/     M anipulation  |                                                 |
\*---------------------------------------------------------------------------*/
FoamFile
{
    version     2.0;
    format      ascii;
    arch        "LSB;label=32;scalar=64";
    class       volScalarField;
    location    "4";
    object      p;
}
// * * * * * * * * * * * * * * * * * * * * * * * * * * * * * * * * * * * * * //

dimensions      [0 2 -2 0 0 0 0];

internalField   nonuniform List<scalar> 
13248
(
-0.616055
-0.614298
-0.610877
-0.606578
-0.602304
-0.598826
-0.596481
-0.594937
-0.593183
-0.589771
-0.583214
-0.57238
-0.556752
-0.536491
-0.512282
-0.48505
-0.455717
-0.425067
-0.393714
-0.362151
-0.330535
-0.299382
-0.267204
-0.234809
-0.624559
-0.62247
-0.619039
-0.614805
-0.610351
-0.606024
-0.601704
-0.596731
-0.590095
-0.580764
-0.568001
-0.551537
-0.531589
-0.508709
-0.483585
-0.456871
-0.429113
-0.400748
-0.37212
-0.343498
-0.315104
-0.287099
-0.259361
-0.232827
-0.635866
-0.633016
-0.62926
-0.624791
-0.619753
-0.613971
-0.606873
-0.597686
-0.585761
-0.57078
-0.552808
-0.532217
-0.509539
-0.485322
-0.460041
-0.434072
-0.407716
-0.381221
-0.354788
-0.32864
-0.302863
-0.277726
-0.252986
-0.228687
-0.649659
-0.645714
-0.641295
-0.636174
-0.629934
-0.621854
-0.611091
-0.59713
-0.579987
-0.560106
-0.53813
-0.514696
-0.490332
-0.465424
-0.440243
-0.414981
-0.389795
-0.364819
-0.340189
-0.316018
-0.292428
-0.269586
-0.247294
-0.225993
-0.665816
-0.660542
-0.655179
-0.648911
-0.640661
-0.629273
-0.614028
-0.595052
-0.573136
-0.549282
-0.524364
-0.499005
-0.473585
-0.448315
-0.423312
-0.398652
-0.374402
-0.350633
-0.327412
-0.304821
-0.282932
-0.261807
-0.241346
-0.221665
-0.684344
-0.677607
-0.67103
-0.66299
-0.651701
-0.635917
-0.615554
-0.591624
-0.565542
-0.538539
-0.511445
-0.484714
-0.458554
-0.433037
-0.408181
-0.383993
-0.360483
-0.337668
-0.315577
-0.294241
-0.273693
-0.253967
-0.235002
-0.216933
-0.705178
-0.696901
-0.688761
-0.678115
-0.662588
-0.64142
-0.615619
-0.587045
-0.557421
-0.527912
-0.499142
-0.471365
-0.444636
-0.41893
-0.394198
-0.370393
-0.34748
-0.325437
-0.30425
-0.283915
-0.26443
-0.24578
-0.227952
-0.210943
-0.727943
-0.718088
-0.707898
-0.693582
-0.672611
-0.645379
-0.614169
-0.581404
-0.548784
-0.517225
-0.487091
-0.458453
-0.431248
-0.405376
-0.380738
-0.357247
-0.334832
-0.313433
-0.293004
-0.273506
-0.254902
-0.237168
-0.220292
-0.20417
-0.751872
-0.740396
-0.727508
-0.70832
-0.680912
-0.647367
-0.611066
-0.574614
-0.539453
-0.506171
-0.474887
-0.445519
-0.417914
-0.391913
-0.367375
-0.344176
-0.322208
-0.301383
-0.281623
-0.262857
-0.245028
-0.228088
-0.211992
-0.196559
-0.775751
-0.762595
-0.746185
-0.720977
-0.686525
-0.646803
-0.605891
-0.566241
-0.528907
-0.494152
-0.461887
-0.431903
-0.403976
-0.377896
-0.353481
-0.330573
-0.309037
-0.288756
-0.269628
-0.25156
-0.234473
-0.218304
-0.202961
-0.188244
-0.797978
-0.783054
-0.762147
-0.729953
-0.688242
-0.642719
-0.597718
-0.55531
-0.516125
-0.480132
-0.447064
-0.41661
-0.388477
-0.362411
-0.338191
-0.315626
-0.294557
-0.274842
-0.256357
-0.238994
-0.222663
-0.207285
-0.19273
-0.178832
-0.816705
-0.799874
-0.773481
-0.733571
-0.684692
-0.633871
-0.585316
-0.540589
-0.499899
-0.462945
-0.429309
-0.398585
-0.370422
-0.344517
-0.320615
-0.298496
-0.277978
-0.258897
-0.241111
-0.2245
-0.208975
-0.194459
-0.180815
-0.167941
-0.517672
-0.518191
-0.519349
-0.523169
-0.530254
-0.540534
-0.553732
-0.569448
-0.587095
-0.605849
-0.62465
-0.642207
-0.657118
-0.667861
-0.673162
-0.671799
-0.662809
-0.645683
-0.620562
-0.588333
-0.550749
-0.510166
-0.46956
-0.430917
-0.546476
-0.545855
-0.547166
-0.551873
-0.560417
-0.572655
-0.588243
-0.606715
-0.627411
-0.649418
-0.671572
-0.692501
-0.710681
-0.724388
-0.732051
-0.732139
-0.723338
-0.704803
-0.676239
-0.638144
-0.592316
-0.541879
-0.490485
-0.438679
-0.570548
-0.568586
-0.569692
-0.574652
-0.583796
-0.596949
-0.613689
-0.633484
-0.655623
-0.679146
-0.702842
-0.725304
-0.744926
-0.759958
-0.768651
-0.769209
-0.759953
-0.73952
-0.707232
-0.66352
-0.610349
-0.550681
-0.489033
-0.42678
-0.588774
-0.585493
-0.585966
-0.590484
-0.599294
-0.61223
-0.628833
-0.648517
-0.670544
-0.693957
-0.717574
-0.740018
-0.759653
-0.774809
-0.783633
-0.784123
-0.774242
-0.75216
-0.71682
-0.668472
-0.609377
-0.5427
-0.473881
-0.404725
-0.600944
-0.596573
-0.596103
-0.599521
-0.607082
-0.618726
-0.634021
-0.652362
-0.673009
-0.695041
-0.717331
-0.738553
-0.757228
-0.771606
-0.779752
-0.779477
-0.768446
-0.74455
-0.706641
-0.655083
-0.592547
-0.522491
-0.450659
-0.379277
-0.607701
-0.602651
-0.601115
-0.602944
-0.608518
-0.617989
-0.631044
-0.647124
-0.665516
-0.685352
-0.705573
-0.724879
-0.741877
-0.754725
-0.761325
-0.759245
-0.74597
-0.719406
-0.678798
-0.625129
-0.561757
-0.492418
-0.422568
-0.353787
-0.610299
-0.605081
-0.602558
-0.602585
-0.605744
-0.612472
-0.622682
-0.63594
-0.651607
-0.668861
-0.686616
-0.703812
-0.718742
-0.729449
-0.733586
-0.728521
-0.711816
-0.68183
-0.638652
-0.584102
-0.522142
-0.456488
-0.391925
-0.329462
-0.610249
-0.605358
-0.602092
-0.600409
-0.601109
-0.604932
-0.612085
-0.622336
-0.635156
-0.649724
-0.665184
-0.680006
-0.692367
-0.700017
-0.700364
-0.690865
-0.669641
-0.636061
-0.591341
-0.538034
-0.480115
-0.420538
-0.363001
-0.30758
-0.609031
-0.604833
-0.601145
-0.598088
-0.596648
-0.597825
-0.602119
-0.609533
-0.619662
-0.631819
-0.644716
-0.656649
-0.665447
-0.668598
-0.663604
-0.648543
-0.622584
-0.586358
-0.541952
-0.492162
-0.440334
-0.388289
-0.338665
-0.290274
-0.607954
-0.604616
-0.600801
-0.596824
-0.593812
-0.592931
-0.594902
-0.599925
-0.607667
-0.617179
-0.626933
-0.634874
-0.638604
-0.635755
-0.624484
-0.603943
-0.574485
-0.537668
-0.495724
-0.451077
-0.405951
-0.361361
-0.319165
-0.277193
-0.608165
-0.605639
-0.601895
-0.597464
-0.593537
-0.591316
-0.591601
-0.594607
-0.599851
-0.606129
-0.611609
-0.614089
-0.611399
-0.601859
-0.584667
-0.560057
-0.52916
-0.493702
-0.455424
-0.416027
-0.376662
-0.338205
-0.301985
-0.265515
-0.610629
-0.608708
-0.60511
-0.600615
-0.596341
-0.593369
-0.592359
-0.593336
-0.595546
-0.597535
-0.597422
-0.593316
-0.583765
-0.568082
-0.546436
-0.5197
-0.489123
-0.456006
-0.42142
-0.386332
-0.351134
-0.316755
-0.283538
-0.251464
-0.392853
-0.36461
-0.354956
-0.364437
-0.385188
-0.410201
-0.429115
-0.430049
-0.403977
-0.351676
-0.287522
-0.228861
-0.186453
-0.161614
-0.152046
-0.155218
-0.16958
-0.19776
-0.245735
-0.308938
-0.363665
-0.382043
-0.347693
-0.285816
-0.220375
-0.167628
-0.133938
-0.117209
-0.113819
-0.126406
-0.158023
-0.198629
-0.224603
-0.215776
-0.180322
-0.139228
-0.10881
-0.093501
-0.0944359
-0.112666
-0.136258
-0.14492
-0.12975
-0.105437
-0.0843902
-0.0705914
-0.0652807
-0.0649534
-0.0641476
-0.0584187
-0.0509485
-0.0456756
-0.04655
-0.0476502
-0.0435942
-0.0313035
-0.0252049
-0.0139358
-0.0124381
-0.00326134
-0.38776
-0.343546
-0.317238
-0.314121
-0.326462
-0.346932
-0.365502
-0.369442
-0.348817
-0.305008
-0.250908
-0.202271
-0.167921
-0.149111
-0.144507
-0.152208
-0.171062
-0.204276
-0.257628
-0.325104
-0.382788
-0.401068
-0.36685
-0.300506
-0.229872
-0.172451
-0.134215
-0.113137
-0.105183
-0.111771
-0.13589
-0.169749
-0.191933
-0.18458
-0.155335
-0.122334
-0.0997814
-0.0915758
-0.100039
-0.126341
-0.157164
-0.168865
-0.150201
-0.119152
-0.0914865
-0.0715365
-0.0605022
-0.0551234
-0.0517756
-0.046678
-0.0426068
-0.0438148
-0.0507419
-0.057205
-0.054746
-0.0387996
-0.0273478
-0.00704642
-0.00382979
-0.000954031
-0.364749
-0.308228
-0.263118
-0.257633
-0.251118
-0.267671
-0.280974
-0.289074
-0.276465
-0.244594
-0.20369
-0.166778
-0.141192
-0.128859
-0.129513
-0.141652
-0.164166
-0.200416
-0.255816
-0.32481
-0.384558
-0.406745
-0.37507
-0.307454
-0.233715
-0.173452
-0.131946
-0.107132
-0.0948694
-0.0957622
-0.112558
-0.139755
-0.158878
-0.153388
-0.130079
-0.10449
-0.0891312
-0.087893
-0.104078
-0.138542
-0.176595
-0.191862
-0.170187
-0.132107
-0.0977033
-0.0720308
-0.0558604
-0.0457925
-0.0398552
-0.0350748
-0.0341964
-0.0418182
-0.0546158
-0.0662135
-0.0655117
-0.0460721
-0.0294129
-0.000458746
0.00454781
0.0012976
-0.334209
-0.270885
-0.221287
-0.191005
-0.170341
-0.185153
-0.188055
-0.197469
-0.193088
-0.175129
-0.148834
-0.124054
-0.10733
-0.101407
-0.107146
-0.123138
-0.147945
-0.184704
-0.238976
-0.307327
-0.369417
-0.396045
-0.371003
-0.305689
-0.231593
-0.170461
-0.127264
-0.0998086
-0.0838941
-0.0795236
-0.0895711
-0.110532
-0.126933
-0.123518
-0.105418
-0.0860934
-0.0769459
-0.0820446
-0.105485
-0.147907
-0.19326
-0.212603
-0.188856
-0.144009
-0.102893
-0.0719999
-0.0513979
-0.0371238
-0.0285549
-0.0237641
-0.0257568
-0.0396035
-0.0580586
-0.0745231
-0.0757156
-0.0530053
-0.0313969
0.00563856
0.0126304
0.00351142
-0.305931
-0.239247
-0.184335
-0.14147
-0.113428
-0.105314
-0.104089
-0.110439
-0.113739
-0.104202
-0.0909281
-0.0772313
-0.0687686
-0.0688432
-0.0791567
-0.0983227
-0.124416
-0.159917
-0.210544
-0.275481
-0.339123
-0.375383
-0.355097
-0.295562
-0.224298
-0.164047
-0.120498
-0.0915597
-0.0731855
-0.0643257
-0.0681308
-0.0833131
-0.0972914
-0.0959862
-0.0819481
-0.0675908
-0.0633822
-0.0737956
-0.103488
-0.153346
-0.205805
-0.229649
-0.205348
-0.154659
-0.107057
-0.0714591
-0.0471365
-0.0292321
-0.0180346
-0.0128842
-0.017291
-0.0370941
-0.0609703
-0.0820027
-0.0851953
-0.0595084
-0.0332905
0.0110627
0.0203615
0.00569517
-0.282975
-0.217728
-0.162925
-0.114434
-0.0757951
-0.0518223
-0.0405734
-0.0390358
-0.0417443
-0.0384084
-0.035694
-0.03058
-0.0288668
-0.0342256
-0.0484991
-0.0700749
-0.0965561
-0.129685
-0.175134
-0.234388
-0.296804
-0.337261
-0.328547
-0.278053
-0.212441
-0.154904
-0.112135
-0.0827025
-0.0628415
-0.0509088
-0.0493355
-0.0590897
-0.0708148
-0.0731025
-0.0602901
-0.0495828
-0.0488453
-0.0633347
-0.0981946
-0.154296
-0.213088
-0.241818
-0.218747
-0.16377
-0.110182
-0.070442
-0.0431004
-0.022226
-0.00843665
-0.00260048
-0.00886911
-0.0342383
-0.0632311
-0.0885411
-0.0937937
-0.0654936
-0.0350739
0.0156566
0.0276862
0.00784317
-0.26519
-0.204816
-0.153458
-0.105932
-0.0633287
-0.0282121
-0.00387738
0.00825731
0.010755
0.00809968
0.0106668
0.0108061
0.00815441
-0.000811649
-0.0177407
-0.0406011
-0.0666043
-0.0969088
-0.136875
-0.18944
-0.248667
-0.292907
-0.295439
-0.255281
-0.197132
-0.143877
-0.102928
-0.07374
-0.0531946
-0.0391766
-0.0334657
-0.0382872
-0.0475993
-0.0504445
-0.0407671
-0.0327264
-0.0340491
-0.0512892
-0.0894711
-0.150357
-0.214746
-0.248345
-0.228392
-0.171087
-0.112335
-0.0690177
-0.0392821
-0.0161741
0.00011222
0.00693713
-0.000536112
-0.0310163
-0.0648085
-0.0940759
-0.101412
-0.0708796
-0.0367111
0.0193112
0.0345459
0.00994009
-0.251077
-0.197797
-0.151515
-0.106613
-0.0645826
-0.0272445
0.00487596
0.0295747
0.0429872
0.0465771
0.0470336
0.0439569
0.0386479
0.0279153
0.0100093
-0.0127528
-0.0372872
-0.0644723
-0.0989071
-0.144099
-0.198773
-0.245947
-0.257644
-0.228451
-0.179166
-0.131524
-0.0933713
-0.0650764
-0.044454
-0.0292635
-0.02042
-0.0210272
-0.0279056
-0.0312585
-0.0241514
-0.0177093
-0.0197143
-0.0381583
-0.0782004
-0.141682
-0.210349
-0.248758
-0.233412
-0.176233
-0.11356
-0.0672586
-0.0356486
-0.0110711
0.0075243
0.0155862
0.00754698
-0.0274245
-0.0656167
-0.0985424
-0.10797
-0.0755813
-0.0381561
0.021981
0.0408835
0.0119638
-0.240861
-0.193982
-0.152618
-0.111225
-0.0711769
-0.0342007
-0.00124202
0.0276877
0.0518175
0.0671226
0.0740913
0.0690709
0.0628449
0.051944
0.0347328
0.013374
-0.00916108
-0.0337213
-0.0638996
-0.102983
-0.152638
-0.200568
-0.220036
-0.200471
-0.159921
-0.118408
-0.0837179
-0.0568932
-0.0366727
-0.0210849
-0.0101445
-0.0072498
-0.0116828
-0.0155675
-0.0108207
-0.00493811
-0.00648722
-0.0247093
-0.0645709
-0.128504
-0.20084
-0.243624
-0.234406
-0.178947
-0.113852
-0.0651992
-0.0321748
-0.00684665
0.0137404
0.0232525
0.0153946
-0.0234515
-0.0657666
-0.101988
-0.113749
-0.079524
-0.0393988
0.023657
0.0466465
0.013887
-0.234657
-0.194102
-0.156959
-0.11867
-0.0811371
-0.045485
-0.0125897
0.0167786
0.0422952
0.0628593
0.0756809
0.0818939
0.0797359
0.0710398
0.0560692
0.0371933
0.0172636
-0.00488524
-0.0317969
-0.0654583
-0.109903
-0.156814
-0.179509
-0.169465
-0.138735
-0.104488
-0.0741605
-0.049444
-0.0300622
-0.0146957
-0.00265363
0.00302992
0.00114798
-0.00293675
-0.00151761
0.00547015
0.00491615
-0.0118796
-0.0502406
-0.112764
-0.185178
-0.232767
-0.22823
-0.178213
-0.113203
-0.0629985
-0.029006
-0.00358495
0.018699
0.0298341
0.0226955
-0.0191621
-0.0650762
-0.104303
-0.119097
-0.082627
-0.0404919
0.0242977
0.0517714
0.0156781
-0.229903
-0.19578
-0.161781
-0.126219
-0.0907571
-0.0565278
-0.0238036
0.00680053
0.0344337
0.0576906
0.0772985
0.0857547
0.0906449
0.0880656
0.0774933
0.0607076
0.0422127
0.0215043
-0.00365896
-0.035323
-0.0767269
-0.120564
-0.147132
-0.143668
-0.120765
-0.0927067
-0.0663916
-0.0438233
-0.0253148
-0.0103203
0.0021842
0.0100081
0.0106944
0.00703663
0.00744843
0.0136196
0.014276
0.000488231
-0.034967
-0.0947753
-0.167326
-0.218305
-0.225298
-0.175586
-0.112402
-0.0612674
-0.0263741
-0.00128625
0.0221349
0.0354597
0.0296927
-0.0144439
-0.0639337
-0.10567
-0.12123
-0.0848793
-0.0413681
0.0239887
0.0561681
0.0173025
-0.226366
-0.203137
-0.174597
-0.142006
-0.109539
-0.0776628
-0.0466945
-0.0171002
0.0107159
0.0353687
0.0536749
0.0729056
0.0843856
0.0901912
0.0874826
0.0771372
0.062476
0.0446543
0.0220475
-0.00690815
-0.0438453
-0.0824223
-0.106088
-0.108956
-0.0964438
-0.0769346
-0.0560901
-0.0367228
-0.0198064
-0.00560927
0.00674255
0.0157613
0.0183579
0.0152777
0.0144774
0.01774
0.0202695
0.00960332
-0.021213
-0.0762185
-0.145688
-0.198351
-0.207928
-0.167091
-0.109162
-0.0586743
-0.0232144
0.00152324
0.0248599
0.0367718
0.0354597
-0.00943911
-0.0618081
-0.105601
-0.121907
-0.0859085
-0.0414407
0.0234717
0.0597736
0.0187281
-0.202626
-0.191766
-0.165114
-0.132989
-0.101512
-0.0716467
-0.042873
-0.0151555
0.0110897
0.0350986
0.0550577
0.0716341
0.0832224
0.0913464
0.0933284
0.0871804
0.0757044
0.0617448
0.0421956
0.0115649
-0.02814
-0.0646959
-0.0859374
-0.0855913
-0.0748411
-0.0589118
-0.0416798
-0.0253769
-0.010699
0.00182662
0.0128516
0.021485
0.024973
0.0225338
0.0205343
0.0228626
0.0272993
0.0209756
-0.00565597
-0.0572343
-0.125067
-0.179899
-0.194005
-0.156818
-0.100865
-0.0520733
-0.0179546
0.00566017
0.0284002
0.0411278
0.0415738
-0.00370566
-0.0592937
-0.105061
-0.122267
-0.0855009
-0.0404784
0.0233258
0.0625634
0.019881
-0.180987
-0.173578
-0.149451
-0.119272
-0.0901366
-0.0633546
-0.0379928
-0.0134023
0.010093
0.0316926
0.0505577
0.0661336
0.0782158
0.086918
0.0903011
0.0867191
0.0782023
0.0667782
0.0489559
0.0204399
-0.0148364
-0.0446539
-0.0595511
-0.0601622
-0.0527909
-0.0412899
-0.0281098
-0.0151358
-0.00281217
0.00820714
0.0179424
0.0256068
0.0289184
0.0268123
0.0243451
0.0258405
0.0304375
0.0266661
0.00372704
-0.0430257
-0.107733
-0.161709
-0.176321
-0.142791
-0.0909534
-0.0451718
-0.0127974
0.00941538
0.0311333
0.0436211
0.0455781
0.000416292
-0.0575914
-0.104032
-0.121184
-0.0839412
-0.0389832
0.0228997
0.064162
0.0206982
-0.162316
-0.155902
-0.135523
-0.109002
-0.0828574
-0.0587295
-0.0359693
-0.0138538
0.00750892
0.0275149
0.0454239
0.0601981
0.0717759
0.0801819
0.0841174
0.0823188
0.0758573
0.0658958
0.0502931
0.0272464
0.000380539
-0.0225873
-0.035528
-0.038391
-0.0347522
-0.0270161
-0.0169402
-0.00642309
0.00397574
0.0135215
0.0220692
0.0289976
0.032266
0.0304116
0.0275023
0.0281512
0.032364
0.0293804
0.00844261
-0.0341903
-0.0928943
-0.140696
-0.155342
-0.12687
-0.0803692
-0.0382864
-0.00800121
0.0127565
0.0332768
0.0457185
0.0483308
0.00289925
-0.0567897
-0.102184
-0.118737
-0.0813503
-0.0369985
0.0220716
0.0648665
0.0212367
-0.143902
-0.139108
-0.122292
-0.0992731
-0.0758947
-0.0541204
-0.0337035
-0.0139518
0.00523073
0.0233449
0.0395849
0.0534387
0.0644637
0.0726286
0.0770598
0.0767944
0.0722829
0.0643784
0.0522731
0.0349744
0.0143951
-0.00416427
-0.0160173
-0.0203498
-0.0191495
-0.0141068
-0.00659676
0.00163305
0.0101338
0.0182682
0.0256335
0.0315565
0.0345043
0.0328993
0.0298007
0.0295703
0.0331203
0.031062
0.01158
-0.0263386
-0.0761335
-0.117217
-0.132227
-0.108736
-0.068459
-0.0310714
-0.00331043
0.0158554
0.0348213
0.0467877
0.0501701
0.00468164
-0.0556875
-0.0992107
-0.114781
-0.0775624
-0.0343292
0.0210203
0.0646198
0.0214928
-0.126989
-0.123873
-0.110018
-0.0901602
-0.0694865
-0.0500509
-0.0318748
-0.0143726
0.00265391
0.0188604
0.033622
0.0464427
0.0569033
0.0648395
0.0696566
0.0707019
0.0681247
0.0624604
0.0533187
0.0401064
0.0242652
0.00953741
-0.000780545
-0.00569184
-0.00618617
-0.00333006
0.00204406
0.00845697
0.0153591
0.0221923
0.0285426
0.0335562
0.0360614
0.0345989
0.0314079
0.0303747
0.0331067
0.0316442
0.0142435
-0.0170084
-0.0573227
-0.0924908
-0.107428
-0.0892433
-0.0558372
-0.0238658
0.0010457
0.0185295
0.0357469
0.046727
0.051101
0.00643293
-0.0537468
-0.0949272
-0.109048
-0.072479
-0.0309824
0.0198299
0.0632723
0.021424
-0.11204
-0.109957
-0.0985384
-0.0815434
-0.0634688
-0.0463082
-0.0302629
-0.0148652
0.000145823
0.0145505
0.0278709
0.0396408
0.0494546
0.0570468
0.0620256
0.0639803
0.0628731
0.0589643
0.0521416
0.0422974
0.0305316
0.0192246
0.0104567
0.0055371
0.00413157
0.00561183
0.00944227
0.0144
0.0198916
0.0254923
0.030873
0.0350207
0.0370041
0.0356312
0.0325122
0.0308017
0.0324553
0.0314528
0.0168498
-0.0072404
-0.0385004
-0.0677086
-0.0823368
-0.0692087
-0.0427966
-0.0166673
0.00511364
0.0207397
0.0361001
0.045512
0.0510019
0.00812884
-0.050854
-0.0890974
-0.10139
-0.0660602
-0.0269437
0.0186682
0.0607087
0.0209677
-0.0983422
-0.0970733
-0.0877758
-0.0733759
-0.0577449
-0.042762
-0.0287196
-0.0152489
-0.00208396
0.0106256
0.0225111
0.0331866
0.0422548
0.0494147
0.0543884
0.0569226
0.056924
0.054523
0.0497377
0.0426556
0.0340709
0.0256325
0.0184526
0.0140266
0.0122923
0.0128822
0.0154905
0.0192565
0.0235946
0.0281072
0.0326085
0.0360679
0.0375733
0.0362232
0.0333438
0.0312231
0.0317825
0.0309643
0.0187351
0.00140651
-0.0208556
-0.0439437
-0.0580516
-0.0495878
-0.0299418
-0.00966465
0.00882727
0.0224338
0.0360401
0.0432621
0.0496667
0.00944831
-0.0467018
-0.0813892
-0.0916721
-0.058339
-0.0222913
0.0176613
0.0568732
0.0200704
-0.0857512
-0.0852388
-0.0777665
-0.065674
-0.0522869
-0.0393226
-0.0271149
-0.0153988
-0.00393835
0.00717226
0.0176698
0.0272413
0.0355374
0.0422476
0.0471393
0.0500562
0.0509133
0.0497548
0.0466288
0.0417003
0.0355678
0.029297
0.0238602
0.0201721
0.0184347
0.0185388
0.020321
0.023178
0.0266019
0.0301812
0.0338383
0.0367113
0.0378558
0.0365435
0.0340021
0.031762
0.0315222
0.0305979
0.0196922
0.00868348
-0.00481461
-0.0220747
-0.0358017
-0.0314471
-0.0178469
-0.00294876
0.0122063
0.0236903
0.0357668
0.0402798
0.0470054
0.0103847
-0.0406938
-0.0713991
-0.0799205
-0.0494933
-0.0171763
0.0169043
0.0518607
0.0187184
-0.0743701
-0.0744266
-0.0684926
-0.0584205
-0.0470336
-0.035889
-0.0253552
-0.0152443
-0.0053445
0.004284
0.0134862
0.0219961
0.0295237
0.035761
0.0404969
0.0436328
0.0451068
0.0449214
0.0431368
0.0399286
0.0357329
0.0312021
0.0272788
0.0244257
0.0229373
0.0228435
0.0240671
0.0262044
0.0288961
0.0317281
0.0346369
0.0369945
0.0379059
0.0366848
0.0345607
0.0324447
0.0314164
0.0251916
0.0205915
0.015314
0.00904925
-0.00349834
-0.0169108
-0.0157449
-0.00705272
0.00331187
0.0152332
0.0246588
0.0354516
0.0372421
0.043308
0.0115173
-0.0321813
-0.0587952
-0.0663759
-0.0398767
-0.0118456
0.0164338
0.0458976
0.0169482
-0.0640492
-0.0645142
-0.0598691
-0.0515412
-0.0419217
-0.0324203
-0.0234113
-0.0147526
-0.00625211
0.00207107
0.010049
0.0175446
0.0243074
0.0300442
0.0345603
0.0377928
0.0397037
0.0402758
0.0395595
0.0377075
0.0350431
0.0320068
0.0292724
0.0272097
0.0260639
0.0259343
0.0268178
0.0284433
0.0305664
0.0328204
0.0351087
0.036992
0.0377637
0.0366984
0.03504
0.0333862
0.0323104
0.0280764
0.0240825
0.0225939
0.0200979
0.0103752
-0.00223041
-0.00301111
0.00215873
0.0089753
0.0179241
0.0254879
0.0351049
0.0350905
0.0392768
0.0137476
-0.0208571
-0.0436025
-0.0516383
-0.0300428
-0.00660805
0.0162624
0.0393452
0.0148536
-0.0546157
-0.0554049
-0.0518378
-0.0450187
-0.0369618
-0.0289232
-0.0212715
-0.0139086
-0.00666942
0.00045515
0.00734679
0.0139046
0.0199284
0.0251542
0.0294093
0.0326463
0.0348441
0.0359778
0.0360826
0.0352843
0.0338216
0.031969
0.0302017
0.0288374
0.0280749
0.0280304
0.0287322
0.0300044
0.0316834
0.0334897
0.0352975
0.0367752
0.0374663
0.0366215
0.0354508
0.034399
0.0336894
0.0318065
0.0298131
0.0302636
0.0282314
0.019731
0.00868159
0.00696822
0.00973496
0.0138927
0.0202868
0.0262534
0.0346453
0.0342606
0.0359902
0.0177921
-0.0073814
-0.0267392
-0.0367341
-0.0206461
-0.00176483
0.0163894
0.0327159
0.0126206
-0.04605
-0.0470721
-0.0443856
-0.0388459
-0.0321443
-0.0253882
-0.018933
-0.0127185
-0.00660161
-0.000545726
0.00536734
0.0110669
0.0163923
0.0211108
0.0250704
0.0282339
0.0305921
0.0321176
0.0328265
0.0328264
0.0323187
0.0313449
0.0303632
0.0296042
0.0292175
0.0293118
0.02993
0.0309746
0.0323285
0.0337952
0.0352482
0.0364079
0.0370595
0.0364824
0.0357648
0.0353059
0.0350485
0.0348809
0.0349919
0.0361725
0.0335746
0.0258998
0.0166905
0.01455
0.0157137
0.017977
0.0223333
0.0269546
0.0340302
0.034323
0.0333595
0.0231786
0.00622935
-0.0102026
-0.0228839
-0.0122552
0.00246126
0.0167543
0.0266667
0.0105641
-0.0383071
-0.0394436
-0.037451
-0.0329888
-0.0274612
-0.021828
-0.0164247
-0.0112211
-0.00606876
-0.000961832
0.00407387
0.00899159
0.013664
0.017886
0.0215248
0.0245547
0.0269694
0.0287412
0.0298692
0.0304209
0.0304639
0.0303061
0.0299815
0.0297319
0.0296836
0.0299417
0.0305462
0.0314568
0.032584
0.0337961
0.034998
0.0359294
0.036567
0.0362768
0.0359191
0.0358812
0.0361012
0.0367184
0.0378334
0.0390191
0.0363786
0.0298711
0.0223667
0.0197484
0.0202076
0.0212216
0.0240589
0.0275521
0.0332473
0.0342542
0.0319368
0.0279259
0.0171246
0.00335597
-0.0112357
-0.00529563
0.00596043
0.017148
0.0218248
0.00908559
-0.0312546
-0.0324411
-0.031016
-0.0274664
-0.0229428
-0.0182767
-0.0137814
-0.00943485
-0.00513873
-0.0008587
0.00339768
0.00761151
0.0116801
0.015424
0.018729
0.0215791
0.0239676
0.0258688
0.0272737
0.0282499
0.0287762
0.0290945
0.0292524
0.0294093
0.0296512
0.0300738
0.0307044
0.0315414
0.0325199
0.0335484
0.0345788
0.0353632
0.0359944
0.0359735
0.0358872
0.0361314
0.0365355
0.0373991
0.0386889
0.0395611
0.0373101
0.0321932
0.0262024
0.0237042
0.0234758
0.023695
0.025449
0.0280194
0.0324005
0.0335673
0.03147
0.0303657
0.0237289
0.0123943
-0.00250946
0.000136725
0.00868754
0.0173576
0.0184366
0.00839453
-0.024847
-0.0260734
-0.0251094
-0.0223062
-0.0186176
-0.014767
-0.011044
-0.00744569
-0.00388222
-0.000319312
0.00325582
0.00684344
0.0103602
0.0136514
0.0166194
0.019256
0.0215537
0.0234885
0.0250331
0.0262126
0.0271254
0.0278077
0.0283232
0.0287914
0.0292673
0.0298353
0.0305112
0.0313137
0.0322022
0.0331047
0.0340174
0.0347186
0.0353407
0.0355371
0.0356533
0.0360396
0.0365644
0.0373196
0.0384054
0.0389297
0.0371166
0.033282
0.0286201
0.0263305
0.0257279
0.0254957
0.0264968
0.0283126
0.0315737
0.0325798
0.031502
0.0309387
0.0265504
0.0171408
0.00362076
0.00424403
0.0106163
0.0170119
0.0161134
0.00812932
-0.0190594
-0.0202799
-0.0196677
-0.0174764
-0.0144911
-0.0113334
-0.00826727
-0.00530383
-0.0023673
0.000579768
0.00356389
0.00659886
0.00961618
0.0124842
0.0151207
0.017523
0.0196839
0.021584
0.0231899
0.0245298
0.0256282
0.0265441
0.0273052
0.0279965
0.02865
0.0293355
0.0300619
0.0308521
0.0316882
0.0325085
0.0333385
0.0339982
0.0346077
0.0349531
0.0352151
0.0356449
0.0361944
0.0367749
0.0375433
0.0377986
0.0363508
0.0335347
0.029996
0.0279511
0.0271745
0.0267255
0.0272161
0.0284239
0.0308157
0.0316671
0.0314311
0.0306868
0.0274478
0.0193699
0.00791527
0.00723805
0.0117346
0.0160541
0.0141239
0.00759489
-0.0138582
-0.0150262
-0.0146695
-0.01297
-0.01057
-0.00799815
-0.00549088
-0.00306591
-0.000661104
0.00176126
0.00423615
0.00678681
0.00935671
0.0118343
0.0141507
0.0163099
0.0183027
0.0201095
0.0217091
0.0231056
0.0243079
0.0253619
0.0262781
0.0271169
0.0278954
0.0286663
0.0294367
0.030224
0.0310284
0.0317971
0.0325671
0.0332064
0.033801
0.0342318
0.0345869
0.0350076
0.0355151
0.0359434
0.0364173
0.036489
0.035332
0.0332654
0.0306227
0.0288559
0.0280158
0.027478
0.0276377
0.0283637
0.0300918
0.0307979
0.0308129
0.0298401
0.0272391
0.0203198
0.010935
0.00934099
0.0121616
0.0145841
0.0121812
0.00657776
-0.00915536
-0.0102464
-0.0100825
-0.00878387
-0.00687113
-0.00479139
-0.00275456
-0.000782742
0.00117365
0.00315159
0.00519119
0.00732049
0.00949231
0.0116139
0.0136286
0.0155431
0.0173499
0.0190328
0.0205606
0.0219462
0.0231822
0.0242987
0.0252984
0.026222
0.027078
0.0279017
0.0287019
0.0294871
0.0302687
0.0310042
0.0317275
0.0323515
0.0329291
0.0333984
0.0338001
0.0341916
0.0346254
0.03494
0.0351917
0.0351443
0.0342207
0.0326899
0.0307259
0.0292453
0.0284116
0.0278345
0.0277935
0.0281419
0.0293264
0.0298354
0.0296841
0.028556
0.0263236
0.0205723
0.0129935
0.0107606
0.0121203
0.0130266
0.0103541
0.00537906
-0.00490196
-0.00591945
-0.00590219
-0.00492387
-0.00340859
-0.00173578
-9.14625e-05
0.00150071
0.00308084
0.00468463
0.006354
0.00811897
0.00994
0.0117396
0.0134724
0.0151468
0.0167561
0.0182899
0.019716
0.0210418
0.0222567
0.0233786
0.0244053
0.0253621
0.0262535
0.0271001
0.0279119
0.02869
0.0294494
0.0301588
0.0308433
0.0314497
0.032006
0.0324817
0.032896
0.0332548
0.0336097
0.0338415
0.0339478
0.0338293
0.0330926
0.0319435
0.030473
0.029247
0.0283703
0.0278662
0.0277106
0.0277696
0.0284756
0.0287382
0.0283008
0.0270849
0.0250604
0.0203868
0.0142795
0.0116646
0.0118349
0.0116089
0.00881111
0.00428526
-0.00109801
-0.00202667
-0.00210388
-0.00137445
-0.000182972
0.00115236
0.00246965
0.00374512
0.00501133
0.00630165
0.00765787
0.00911009
0.0106246
0.0121367
0.0136109
0.0150554
0.0164614
0.0178373
0.0191406
0.0203741
0.0215277
0.022612
0.0236223
0.0245719
0.0254631
0.0263061
0.0271102
0.0278722
0.0286052
0.0292883
0.0299365
0.0305197
0.0310513
0.0315128
0.0319163
0.0322432
0.03253
0.0327027
0.0327246
0.03257
0.0319815
0.0311067
0.0299916
0.0289909
0.0282133
0.0276675
0.027421
0.0272659
0.0275525
0.0275681
0.026884
0.0255957
0.0236932
0.0199128
0.0149655
0.0121702
0.0114503
0.01044
0.00756899
0.00342004
0.00231178
0.00148129
0.00134249
0.00187465
0.00280153
0.0038584
0.00490531
0.00591844
0.00692392
0.00795311
0.00904603
0.0102311
0.0114799
0.0127384
0.01398
0.0152146
0.0164392
0.0176408
0.0188017
0.0199195
0.0209844
0.0220002
0.0229612
0.0238728
0.0247354
0.0255525
0.0263303
0.0270648
0.0277646
0.0284165
0.0290281
0.0295826
0.0300845
0.0305195
0.0308946
0.0311946
0.0314295
0.0315609
0.0315398
0.0313741
0.0309025
0.0302235
0.0293631
0.0285418
0.0278462
0.0272899
0.0269487
0.0266507
0.026591
0.0263716
0.0255336
0.024181
0.0223553
0.0192581
0.0152058
0.0123709
0.0110256
0.00949246
0.00660443
0.00278072
0.00536906
0.00463125
0.00445348
0.00483199
0.00554549
0.00637422
0.00719827
0.00799494
0.00878506
0.00959773
0.0104702
0.0114278
0.0124474
0.0134844
0.014518
0.0155586
0.0166075
0.017643
0.0186584
0.0196502
0.0206098
0.0215371
0.0224256
0.0232767
0.0240887
0.024861
0.0255967
0.0262921
0.0269508
0.0275654
0.0281381
0.0286582
0.0291252
0.0295256
0.0298748
0.0301452
0.0303399
0.0304408
0.0304021
0.0302398
0.0298586
0.0293195
0.0286403
0.0279548
0.0273272
0.0267708
0.0263519
0.0259445
0.0256204
0.0251881
0.0242657
0.0228806
0.0211072
0.0185006
0.0151284
0.0123477
0.0105951
0.00873064
0.00586205
0.0023216
0.00809627
0.00744874
0.00725181
0.00751215
0.00805364
0.00869558
0.00933642
0.00995528
0.0105685
0.0112022
0.0118905
0.0126556
0.013478
0.0143223
0.0151721
0.016035
0.0169117
0.0177951
0.0186715
0.0195364
0.0203831
0.0212105
0.0220125
0.0227876
0.0235328
0.0242459
0.0249266
0.0255724
0.0261831
0.0267536
0.0272827
0.0277644
0.0281964
0.0285723
0.0288787
0.0291183
0.0292812
0.0293585
0.0293154
0.0291632
0.0288498
0.0284098
0.0278585
0.0272722
0.0266959
0.0261441
0.0256574
0.025165
0.0246584
0.0240494
0.0230743
0.0216937
0.0199659
0.0176953
0.0148359
0.0121662
0.010169
0.00811042
0.0052943
0.00199634
0.0105247
0.00996292
0.00975996
0.00992939
0.0103324
0.0108218
0.0113126
0.0117857
0.0122543
0.012741
0.0132764
0.0138794
0.0145337
0.0152111
0.0159004
0.0166069
0.0173308
0.0180692
0.0188101
0.0195506
0.020283
0.0210057
0.0217134
0.0224032
0.0230711
0.0237148
0.0243314
0.024919
0.0254743
0.025994
0.0264753
0.0269134
0.0273035
0.0276399
0.0279163
0.0281277
0.0282653
0.0283246
0.028281
0.02814
0.0278757
0.0275057
0.0270407
0.0265255
0.0259864
0.0254404
0.0249023
0.0243392
0.0237126
0.0229734
0.0219574
0.0206047
0.0189284
0.0168818
0.014404
0.0118765
0.0097501
0.00759535
0.00485844
0.00176557
0.0126807
0.0121977
0.0119977
0.0120979
0.01239
0.0127553
0.0131233
0.0134775
0.013828
0.0141949
0.014604
0.015071
0.0155832
0.0161181
0.0166677
0.0172378
0.0178271
0.0184309
0.0190418
0.0196658
0.0202879
0.020906
0.0215161
0.0221162
0.0227014
0.0232692
0.0238153
0.0243381
0.0248331
0.0252977
0.0257271
0.0261176
0.026463
0.0267603
0.0270033
0.0271868
0.0273018
0.0273445
0.0272999
0.0271685
0.026937
0.0266145
0.0262066
0.0257406
0.0252279
0.0246852
0.0241124
0.0234939
0.0227884
0.0219632
0.0209146
0.0195974
0.0179835
0.0160878
0.0138886
0.0115169
0.00934073
0.00715596
0.00451734
0.00159935
0.0145879
0.0141762
0.0139849
0.0140329
0.0142363
0.0145007
0.0147686
0.015026
0.0152808
0.0155497
0.015855
0.0162093
0.016602
0.0170159
0.0174458
0.017897
0.0183693
0.0188588
0.0193609
0.0198658
0.0203781
0.0208939
0.0214076
0.0219172
0.0224178
0.0229066
0.0233792
0.0238332
0.0242645
0.0246708
0.0250458
0.0253852
0.0256856
0.0259423
0.0261502
0.0263042
0.0263965
0.0264234
0.0263739
0.0262473
0.026036
0.0257444
0.025373
0.0249388
0.0244451
0.0239031
0.0233075
0.0226491
0.0218915
0.0210166
0.0199459
0.018661
0.0171177
0.0153311
0.0133306
0.0111154
0.00894486