/*--------------------------------*- C++ -*----------------------------------*\
| =========                 |                                                 |
| \\      /  F ield         | OpenFOAM: The Open Source CFD Toolbox           |
|  \\    /   O peration     | Version:  2512                                  |
|   \\  /    A nd           | Website:  www.openfoam.com                      |
|    \\/     M anipulation  |                                                 |
\*---------------------------------------------------------------------------*/
FoamFile
{
    version     2.0;
    format      ascii;
    arch        "LSB;label=32;scalar=64";
    class       volScalarField;
    location    "4";
    object      p;
}
// * * * * * * * * * * * * * * * * * * * * * * * * * * * * * * * * * * * * * //

dimensions      [0 2 -2 0 0 0 0];

internalField   nonuniform List<scalar> 
13248
(
-0.474348
-0.471759
-0.465548
-0.457256
-0.449435
-0.445112
-0.446038
-0.45228
-0.461518
-0.469698
-0.472461
-0.466702
-0.451507
-0.428158
-0.399161
-0.367139
-0.3342
-0.301777
-0.270726
-0.241546
-0.214275
-0.189187
-0.165232
-0.142567
-0.476463
-0.474378
-0.468724
-0.461184
-0.454025
-0.449441
-0.4487
-0.451187
-0.454408
-0.455024
-0.450232
-0.438687
-0.420687
-0.397661
-0.371397
-0.343502
-0.315198
-0.287338
-0.260475
-0.234949
-0.210921
-0.188536
-0.167435
-0.148226
-0.484323
-0.481848
-0.476656
-0.470097
-0.463664
-0.458767
-0.455738
-0.453484
-0.449975
-0.443207
-0.43199
-0.41619
-0.396509
-0.374027
-0.349835
-0.324854
-0.299795
-0.275189
-0.251409
-0.22873
-0.207275
-0.187201
-0.16826
-0.150399
-0.496956
-0.493361
-0.488205
-0.482106
-0.475886
-0.469902
-0.463673
-0.456122
-0.446163
-0.433156
-0.417056
-0.398288
-0.377509
-0.35541
-0.332604
-0.309602
-0.286813
-0.264558
-0.243085
-0.222577
-0.203146
-0.184932
-0.1677
-0.151632
-0.513224
-0.508135
-0.50248
-0.496273
-0.489401
-0.481254
-0.470963
-0.457999
-0.442368
-0.42446
-0.404824
-0.384004
-0.362463
-0.340577
-0.318651
-0.296947
-0.27569
-0.255073
-0.235254
-0.216352
-0.198455
-0.181612
-0.165683
-0.150752
-0.532647
-0.52592
-0.519447
-0.51245
-0.503785
-0.492186
-0.47707
-0.458835
-0.438417
-0.416754
-0.39454
-0.37221
-0.350021
-0.328139
-0.306696
-0.28581
-0.265593
-0.246143
-0.227542
-0.209855
-0.193122
-0.177366
-0.162506
-0.148604
-0.555069
-0.546723
-0.539143
-0.530484
-0.518601
-0.502259
-0.481818
-0.45867
-0.434283
-0.409706
-0.385523
-0.361995
-0.339216
-0.31722
-0.296024
-0.275654
-0.256139
-0.237509
-0.219791
-0.203003
-0.187155
-0.17223
-0.158188
-0.145021
-0.580239
-0.570312
-0.561197
-0.54972
-0.533112
-0.511035
-0.485146
-0.457556
-0.429853
-0.402921
-0.377132
-0.352576
-0.329225
-0.307022
-0.285913
-0.265859
-0.246832
-0.228809
-0.21177
-0.195692
-0.180549
-0.16631
-0.152952
-0.140376
-0.607374
-0.595935
-0.584668
-0.568993
-0.546372
-0.518054
-0.486919
-0.455391
-0.424868
-0.395952
-0.368789
-0.343325
-0.319437
-0.297001
-0.275908
-0.256067
-0.237402
-0.219849
-0.203348
-0.187847
-0.173292
-0.159639
-0.146836
-0.134724
-0.635268
-0.622317
-0.608047
-0.586806
-0.557298
-0.522696
-0.48672
-0.451725
-0.418765
-0.388129
-0.359764
-0.333491
-0.309115
-0.286454
-0.265353
-0.245679
-0.227319
-0.210174
-0.194156
-0.179183
-0.165182
-0.152089
-0.13982
-0.128189
-0.662245
-0.647731
-0.62939
-0.601419
-0.564604
-0.523976
-0.483633
-0.445602
-0.410527
-0.37841
-0.34902
-0.322076
-0.297314
-0.274503
-0.253443
-0.233962
-0.215915
-0.199177
-0.183634
-0.169187
-0.15575
-0.143249
-0.131559
-0.120513
-0.686342
-0.670149
-0.646617
-0.611021
-0.566859
-0.520648
-0.476453
-0.435817
-0.398972
-0.365652
-0.335471
-0.308054
-0.283074
-0.260249
-0.239341
-0.220147
-0.202494
-0.18623
-0.17122
-0.157351
-0.144539
-0.132705
-0.121703
-0.111431
-0.318346
-0.333064
-0.348262
-0.368946
-0.394189
-0.42092
-0.445963
-0.465978
-0.477633
-0.477918
-0.464574
-0.43656
-0.394386
-0.339942
-0.276397
-0.207966
-0.139288
-0.0746658
-0.0175096
0.0298453
0.066485
0.0930707
0.110297
0.120145
-0.330348
-0.344174
-0.359001
-0.379631
-0.405136
-0.43248
-0.458507
-0.479877
-0.493218
-0.495409
-0.483966
-0.457651
-0.41688
-0.36343
-0.300061
-0.230958
-0.160903
-0.0944527
-0.0352703
0.013311
0.0518243
0.0800092
0.0985677
0.109621
-0.358268
-0.369951
-0.383883
-0.404348
-0.430405
-0.459116
-0.487383
-0.511878
-0.529134
-0.535783
-0.528908
-0.506409
-0.469867
-0.418539
-0.355285
-0.284448
-0.211187
-0.140683
-0.0774579
-0.0241724
0.0179947
0.0494918
0.071029
0.0847285
-0.395344
-0.403886
-0.416491
-0.43662
-0.46324
-0.493549
-0.524558
-0.55301
-0.575412
-0.588205
-0.58825
-0.573354
-0.541149
-0.492834
-0.430094
-0.357202
-0.279658
-0.203956
-0.135046
-0.0762339
-0.0291023
0.00680677
0.0323957
0.049674
-0.433362
-0.438069
-0.44891
-0.468269
-0.494961
-0.526302
-0.559465
-0.591311
-0.618415
-0.637131
-0.643958
-0.635996
-0.610474
-0.566917
-0.505028
-0.431179
-0.350513
-0.270235
-0.196298
-0.13255
-0.0808043
-0.0406352
-0.0109615
0.0100928
-0.465182
-0.465634
-0.474212
-0.491826
-0.517363
-0.548229
-0.581817
-0.615116
-0.64494
-0.667616
-0.679592
-0.677502
-0.65812
-0.619427
-0.561543
-0.488603
-0.40722
-0.325088
-0.248846
-0.182653
-0.128336
-0.0854155
-0.0527475
-0.0285827
-0.486465
-0.482978
-0.488531
-0.503018
-0.525315
-0.55345
-0.584995
-0.617153
-0.646889
-0.670947
-0.685866
-0.688063
-0.673959
-0.640553
-0.587348
-0.517921
-0.43924
-0.359299
-0.284829
-0.219838
-0.165947
-0.122562
-0.088645
-0.0626136
-0.496439
-0.490024
-0.491904
-0.501548
-0.518383
-0.541221
-0.568114
-0.59666
-0.624157
-0.647524
-0.663543
-0.668845
-0.659062
-0.630623
-0.582695
-0.518818
-0.446033
-0.372124
-0.303264
-0.24285
-0.192138
-0.150429
-0.116966
-0.0903573
-0.497128
-0.489415
-0.487674
-0.491416
-0.500994
-0.516376
-0.536552
-0.559857
-0.584386
-0.605322
-0.622111
-0.629636
-0.623018
-0.598564
-0.55575
-0.498552
-0.433858
-0.36862
-0.307879
-0.254173
-0.208364
-0.169738
-0.137957
-0.111748
-0.491993
-0.484694
-0.480209
-0.478346
-0.480424
-0.487709
-0.500364
-0.51739
-0.536714
-0.55808
-0.575166
-0.583314
-0.57775
-0.555408
-0.516881
-0.466678
-0.411031
-0.355495
-0.303683
-0.257318
-0.21694
-0.18199
-0.152568
-0.127303
-0.484508
-0.478749
-0.472781
-0.466842
-0.463033
-0.463747
-0.470353
-0.482844
-0.499847
-0.51827
-0.533066
-0.538923
-0.531579
-0.509434
-0.47442
-0.431046
-0.384271
-0.337991
-0.294507
-0.254955
-0.219624
-0.188321
-0.161386
-0.137261
-0.477701
-0.47374
-0.467343
-0.459312
-0.452228
-0.44909
-0.451978
-0.461179
-0.474861
-0.489191
-0.49909
-0.49982
-0.488679
-0.46582
-0.433919
-0.396733
-0.357683
-0.319203
-0.282677
-0.248862
-0.217833
-0.18978
-0.164722
-0.141933
0.124024
0.121539
0.115185
0.106901
0.0977976
0.0885948
0.0798304
0.071714
0.0644648
0.0580908
0.0525156
0.047617
0.0432904
0.0395159
0.0362296
0.0333515
0.0308229
0.0286018
0.0266501
0.0249324
0.0234186
0.0220828
0.0209031
0.0198607
0.0189391
0.018123
0.0173996
0.0167572
0.0161856
0.0156754
0.0152182
0.0148069
0.0144346
0.0140953
0.0137837
0.0134944
0.0132227
0.0129641
0.0127143
0.0124692
0.012225
0.0119778
0.0117236
0.0114582
0.0111777
0.0108773
0.0105522
0.0101971
0.00980605
0.00937231
0.00888967
0.00834768
0.00774297
0.00705407
0.00629262
0.00540908
0.00444342
0.00333447
0.00207901
0.000748845
0.11456
0.113802
0.109644
0.103138
0.0951745
0.0866955
0.0783693
0.0706498
0.0636879
0.0575757
0.0521398
0.047397
0.043171
0.0394705
0.0362175
0.0333597
0.0308494
0.0286422
0.0266986
0.0249857
0.0234744
0.0221393
0.0209586
0.0199144
0.0189903
0.0181716
0.0174453
0.0168002
0.0162259
0.0157131
0.0152535
0.0148398
0.014465
0.0141233
0.0138091
0.0135175
0.0132437
0.0129832
0.0127317
0.012485
0.0122391
0.0119903
0.0117345
0.0114677
0.0111857
0.0108841
0.0105578
0.0102014
0.00980925
0.00937446
0.00889065
0.00834788
0.00774162
0.00705287
0.0062886
0.00540694
0.00443838
0.00332892
0.00207924
0.000740056
0.0921288
0.0954453
0.0962156
0.0935304
0.0880729
0.0813592
0.0744515
0.067862
0.0617702
0.0562226
0.0512201
0.0466222
0.0425555
0.0391093
0.0359768
0.033188
0.0307327
0.0285707
0.0266604
0.024971
0.0234763
0.0221524
0.0209793
0.0199399
0.0190188
0.0182015
0.0174758
0.0168307
0.0162559
0.0157425
0.0152821
0.0148675
0.0144919
0.0141491
0.0138336
0.0135405
0.013265
0.0130029
0.0127501
0.0125022
0.0122552
0.0120052
0.0117481
0.0114801
0.0111971
0.0108943
0.010567
0.0102097
0.00981654
0.00938084
0.00889597
0.00835249
0.00774468
0.00705603
0.00628878
0.00540879
0.00443696
0.00332641
0.00208163
0.000732142
0.0604158
0.0695144
0.0765853
0.0787753
0.0769588
0.0730017
0.0682598
0.0633124
0.0584203
0.0537582
0.0493981
0.0453279
0.0416686
0.0383409
0.0353908
0.032795
0.0304531
0.0283705
0.0265226
0.0248805
0.0234197
0.0221199
0.0209639
0.0199371
0.0190249
0.0182138
0.0174923
0.0168498
0.0162768
0.0157643
0.0153045
0.0148903
0.0145149
0.0141722
0.0138567
0.0135632
0.0132871
0.0130239
0.0127699
0.012521
0.0122733
0.0120226
0.0117647
0.0114958
0.0112119
0.0109084
0.0105804
0.0102223
0.00982843
0.00939202
0.00890626
0.00836218
0.00775288
0.00706431
0.00629399
0.00541541
0.0044399
0.00332768
0.00208666
0.000725647
0.0244914
0.0395387
0.0529179
0.0600754
0.0623967
0.0620204
0.0600907
0.0572323
0.0538759
0.0503465
0.0468393
0.0434554
0.0402612
0.0372498
0.0345766
0.0321117
0.0299902
0.0280415
0.0262827
0.0247099
0.0233012
0.0220394
0.020911
0.0199043
0.0190071
0.0182072
0.0174937
0.0168571
0.0162881
0.0157784
0.0153206
0.0149077
0.0145333
0.0141915
0.0138767
0.013584
0.0133084
0.0130454
0.012791
0.0125413
0.0122929
0.0120418
0.0117834
0.011514
0.0112297
0.0109257
0.0105972
0.0102387
0.00984437
0.0094075
0.00892108
0.00837658
0.00776596
0.0070775
0.00630414
0.00542675
0.00444729
0.00333295
0.00209439
0.000720844
-0.0109757
0.0087716
0.0273967
0.0392545
0.0455496
0.0488186
0.0500946
0.049718
0.0481812
0.0460044
0.0435448
0.0409802
0.038404
0.0358777
0.033509
0.0313647
0.0292883
0.0275487
0.0259305
0.02445
0.0231114
0.0219033
0.0208152
0.0198384
0.0189634
0.01818
0.017479
0.0168516
0.0162893
0.0157845
0.0153303
0.01492
0.0145475
0.0142071
0.0138936
0.013602
0.0133276
0.0130659
0.0128124
0.0125628
0.0123141
0.0120624
0.0118038
0.0115343
0.0112498
0.0109457
0.010617
0.0102583
0.00986376
0.00942668
0.00893982
0.00839508
0.00778331
0.007095
0.00631875
0.00544234
0.00445877
0.00334206
0.00210452
0.000717833
-0.0427824
-0.0201837
0.00200927
0.0177907
0.0278419
0.0343835
0.0385144
0.0407428
0.0413608
0.0408162
0.0395729
0.0379407
0.0360909
0.0341501
0.0322178
0.0303481
0.0286333
0.0268885
0.0254589
0.0241154
0.0228643
0.0217212
0.0206825
0.019743
0.0188964
0.0181344
0.0174494
0.016834
0.0162809
0.0157829
0.0153338
0.0149274
0.0145577
0.0142196
0.0139078
0.0136177
0.0133447
0.0130844
0.0128327
0.0125848
0.0123368
0.0120849
0.011826
0.0115565
0.0112721
0.0109681
0.0106395
0.0102809
0.00988637
0.00944927
0.00896217
0.00841734
0.00780462
0.00711647
0.00633751
0.00546182
0.00447407
0.00335484
0.00211671
0.000716843
-0.069384
-0.0457171
-0.0218444
-0.00327507
0.00995141
0.019448
0.0261601
0.0306254
0.0333592
0.0346875
0.0348963
0.0343564
0.0333455
0.0320458
0.0306113
0.0291326
0.0276457
0.0262644
0.0248082
0.0236353
0.0225139
0.0214609
0.0204895
0.0196016
0.0187946
0.018063
0.0174009
0.0168025
0.0162619
0.0157734
0.0153313
0.0149301
0.0145645
0.0142293
0.0139198
0.0136316
0.0133602
0.0131015
0.0128514
0.0126057
0.0123598
0.012109
0.0118502
0.0115806
0.0112964
0.0109927
0.0106645
0.0103062
0.00991193
0.00947504
0.00898792
0.00844315
0.00782969
0.00714166
0.00636027
0.00548497
0.00449307
0.00337129
0.00213081
0.000718355
-0.0905106
-0.067222
-0.0433856
-0.0232405
-0.00760934
0.004335
0.0133619
0.019976
0.0245864
0.02759
0.0293557
0.0300887
0.0300742
0.0295428
0.0286934
0.02768
0.0265749
0.02541
0.024316
0.0231291
0.0221366
0.0211849
0.0202802
0.0194426
0.0186753
0.0179755
0.0173383
0.0167592
0.0162333
0.0157562
0.0153228
0.0149282
0.0145676
0.0142363
0.0139299
0.013644
0.0133745
0.0131177
0.0128691
0.0126252
0.0123816
0.012133
0.0118756
0.0116067
0.0113229
0.0110196
0.0106919
0.0103341
0.00994027
0.00950377
0.00901684
0.00847226
0.00785829
0.00717032
0.00638688
0.00551156
0.00451565
0.0033914
0.00214674
0.00072285
-0.1064
-0.0845816
-0.0621589
-0.0415058
-0.0242581
-0.0104727
0.000467587
0.00902268
0.0154651
0.0200917
0.0232356
0.0252237
0.0262761
0.0265896
0.0263902
0.0258661
0.0251411
0.0242856
0.023356
0.0224885
0.0215454
0.0207535
0.0199648
0.0192086
0.0185019
0.0178489
0.0172476
0.0166954
0.0161899
0.0157281
0.0153064
0.0149206
0.0145667
0.0142406
0.0139381
0.0136553
0.0133883
0.0131335
0.0128869
0.0126448
0.012403
0.0121565
0.0119012
0.0116339
0.011351
0.0110485
0.0107215
0.0103644
0.00997122
0.00953529
0.00904874
0.00850447
0.00789026
0.00720224
0.0064172
0.00554134
0.00454176
0.00341517
0.00216444
0.000731272
-0.117303
-0.0978909
-0.0778667
-0.057491
-0.0392544
-0.0241304
-0.0116786
-0.00152719
0.00645076
0.0124563
0.0168779
0.02007
0.0221879
0.0234101
0.0239627
0.0240566
0.0238133
0.0233196
0.0226618
0.0218999
0.0211775
0.0203796
0.0196856
0.0190009
0.0183426
0.0177278
0.0171573
0.0166301
0.0161442
0.0156978
0.0152879
0.0149113
0.0145645
0.0142438
0.0139456
0.0136661
0.0134018
0.0131491
0.0129046
0.0126645
0.0124242
0.0121795
0.0119263
0.0116608
0.0113794
0.0110782
0.0107523
0.0103964
0.0100041
0.00956901
0.00908311
0.00853933
0.00792522
0.00723705
0.00645106
0.00557408
0.00457128
0.0034427
0.00218408
0.000744309
-0.124805
-0.109036
-0.0924624
-0.0740258
-0.0562054
-0.040605
-0.0270944
-0.0154143
-0.00559542
0.00230202
0.0084375
0.0131279
0.0165815
0.0189153
0.0203446
0.0211311
0.0214828
0.0215075
0.021274
0.0208522
0.0203235
0.0197806
0.0191631
0.0186148
0.0180603
0.0175195
0.017003
0.0165163
0.0160611
0.0156379
0.0152458
0.0148829
0.0145467
0.0142343
0.0139425
0.0136682
0.0134082
0.0131588
0.0129172
0.0126798
0.0124419
0.0121994
0.0119486
0.0116854
0.011406
0.0111065
0.0107822
0.0104276
0.0100366
0.00960266
0.00911775
0.00857473
0.00796112
0.00727293
0.00648664
0.00560827
0.00460296
0.00347259
0.00220474
0.000763095
-0.11773
-0.109406
-0.0933024
-0.0748609
-0.0578127
-0.0430656
-0.0303278
-0.0191982
-0.00960077
-0.00171267
0.00452177
0.00943896
0.013246
0.0160193
0.0179001
0.0191118
0.0198317
0.0201637
0.0201958
0.0200206
0.0196988
0.0192565
0.0188208
0.0182891
0.0177966
0.0173109
0.0168403
0.0163916
0.0159676
0.0155698
0.0151981
0.0148517
0.0145287
0.0142269
0.0139437
0.0136763
0.0134219
0.013177
0.0129392
0.0127053
0.0124703
0.0122305
0.011982
0.0117209
0.0114433
0.0111453
0.0108223
0.010469
0.010079
0.00964596
0.00916183
0.00861895
0.00800606
0.00731601
0.00653123
0.00564721
0.00464205
0.00350631
0.00222701
0.000785975
-0.110968
-0.10454
-0.0894708
-0.0721328
-0.0564707
-0.0431929
-0.0318136
-0.0217371
-0.0127468
-0.00513186
0.00100643
0.00600364
0.0100462
0.0130927
0.0152481
0.0167527
0.0177663
0.01837
0.0186466
0.0186787
0.0185389
0.0182854
0.017936
0.0176435
0.0172767
0.01689
0.0165016
0.01612
0.0157508
0.0153975
0.0150622
0.0147453
0.0144462
0.0141639
0.0138964
0.0136418
0.0133976
0.0131612
0.0129304
0.0127021
0.0124717
0.0122354
0.0119899
0.0117315
0.0114562
0.0111603
0.0108391
0.0104873
0.0100989
0.0096671
0.00918425
0.00864226
0.00803073
0.00734025
0.00655779
0.00567004
0.00466773
0.0035265
0.00224098
0.000798945
-0.103565
-0.0981593
-0.0853399
-0.0699149
-0.0557132
-0.0436481
-0.0333282
-0.0241002
-0.0156304
-0.00826466
-0.00224048
0.00278444
0.00699742
0.0102632
0.0126502
0.0144179
0.0157143
0.0165883
0.0171127
0.0173795
0.0174601
0.0174097
0.0172741
0.0170238
0.0167515
0.0164525
0.0161388
0.0158209
0.0155053
0.0151972
0.0148995
0.0146138
0.0143407
0.0140796
0.0138297
0.0135895
0.0133571
0.0131305
0.0129073
0.0126847
0.0124586
0.0122257
0.0119832
0.0117273
0.0114543
0.0111601
0.0108404
0.0104899
0.0101025
0.00967164
0.0091897
0.0086483
0.00803788
0.00734718
0.00656683
0.00567675
0.00467721
0.00353277
0.0022421
0.000801776
-0.0942026
-0.0909046
-0.0805807
-0.0671351
-0.0543399
-0.0433483
-0.0339654
-0.025596
-0.0177824
-0.0108025
-0.00499437
-5.06424e-05
0.00423205
0.00764772
0.0102091
0.0121898
0.0137334
0.0148547
0.0156095
0.0160899
0.0163633
0.0164709
0.0164595
0.0163547
0.0161927
0.0159872
0.0157534
0.0155029
0.0152442
0.0149836
0.0147256
0.0144731
0.0142273
0.013989
0.0137578
0.013533
0.0133133
0.013097
0.0128815
0.0126646
0.0124432
0.0122145
0.0119756
0.0117227
0.0114521
0.0111598
0.0108416
0.0104922
0.0101057
0.00967549
0.00919415
0.00865299
0.00804325
0.00735188
0.00657295
0.00568039
0.00468224
0.00353531
0.00223852
0.000802753
-0.0850762
-0.0835876
-0.0753641
-0.0637884
-0.0524031
-0.0424731
-0.0339986
-0.0264873
-0.0193731
-0.0128342
-0.00729951
-0.00251444
0.00176162
0.00527178
0.00795412
0.0100901
0.0118325
0.0131638
0.014116
0.0147806
0.0152267
0.015498
0.0156354
0.0156618
0.0156082
0.0154968
0.0153443
0.0151635
0.014964
0.0147534
0.0145375
0.0143202
0.0141039
0.01389
0.0136791
0.013471
0.0132651
0.0130596
0.0128526
0.0126426
0.0124276
0.0122042
0.0119696
0.0117202
0.0114524
0.0111625
0.010846
0.0104981
0.0101128
0.00968358
0.00920307
0.00866231
0.00805331
0.00736136
0.00658356
0.00568861
0.00469102
0.00354149
0.0022392
0.000807137
-0.0766627
-0.0761695
-0.0696784
-0.0598716
-0.0499087
-0.0410676
-0.0334847
-0.0267793
-0.0203506
-0.0143063
-0.00912171
-0.00457182
-0.000376463
0.00316513
0.00591046
0.0081419
0.0100297
0.0115308
0.0126532
0.0134867
0.0140994
0.0145256
0.0147971
0.0149448
0.0149995
0.0149827
0.0149124
0.0148026
0.014664
0.0145054
0.0143336
0.0141534
0.0139683
0.0137806
0.0135915
0.0134014
0.0132101
0.0130166
0.0128197
0.0126184
0.0124105
0.0121931
0.0119631
0.0117175
0.011453
0.0111658
0.0108516
0.0105056
0.0101219
0.00969396
0.00921464
0.00867466
0.00806668
0.00737458
0.00659791
0.00570115
0.00470363
0.00355205
0.00224477
0.000812653
-0.068358
-0.0686272
-0.0636629
-0.0555167
-0.0469496
-0.0391899
-0.0324624
-0.0265108
-0.0207581
-0.0152556
-0.0104789
-0.00621846
-0.00216626
0.00134681
0.00410238
0.0063747
0.00835764
0.00999347
0.0112611
0.0122393
0.0129934
0.013554
0.0139509
0.0142152
0.0143746
0.0144506
0.0144619
0.0144233
0.0143465
0.0142411
0.0141148
0.0139733
0.013821
0.0136609
0.0134949
0.0133241
0.0131488
0.0129687
0.0127832
0.0125912
0.0123908
0.0121794
0.0119545
0.0117133
0.0114524
0.0111683
0.0108567
0.0105128
0.0101309
0.00970452
0.00922658
0.00868759
0.00808077
0.00738876
0.00661314
0.00571505
0.00471711
0.00356412
0.00225108
0.000816435
-0.0602623
-0.0612391
-0.0575703
-0.0508957
-0.0436226
-0.0368938
-0.0309894
-0.0257585
-0.0206598
-0.0157065
-0.011368
-0.00744137
-0.00358924
-0.000161738
0.00255409
0.00481905
0.00685161
0.0085824
0.00995886
0.0110493
0.0119209
0.0126013
0.013113
0.0134845
0.0137421
0.0139072
0.0139979
0.0140296
0.0140145
0.0139628
0.0138828
0.0137812
0.0136629
0.0135317
0.0133901
0.0132397
0.0130816
0.0129161
0.0127426
0.0125603
0.012368
0.0121634
0.0119441
0.0117077
0.0114509
0.0111701
0.0108613
0.0105198
0.01014
0.0097153
0.00923888
0.00870099
0.00809535
0.00740358
0.0066288
0.00572961
0.00473081
0.00357643
0.00225692
0.000819173
-0.0527525
-0.0541495
-0.0515064
-0.0461053
-0.0400077
-0.0342447
-0.0291241
-0.0245755
-0.0200954
-0.0156823
-0.0118032
-0.00824801
-0.00464274
-0.00134958
0.00128313
0.00349806
0.00553349
0.0073141
0.00876296
0.0099383
0.0109056
0.0116863
0.0122973
0.0127641
0.0131117
0.01336
0.0135264
0.0136261
0.0136714
0.0136731
0.0136397
0.0135785
0.013495
0.0133935
0.0132773
0.0131485
0.0130086
0.0128583
0.0126976
0.0125259
0.0123423
0.0121452
0.0119322
0.011701
0.0114487
0.0111716
0.010866
0.0105272
0.0101496
0.00972687
0.00925215
0.00871555
0.00811116
0.00741978
0.00664572
0.00574561
0.00474559
0.00358958
0.00226364
0.000822126
-0.0457209
-0.0473335
-0.0455261
-0.0412322
-0.0361885
-0.0313116
-0.0269249
-0.023019
-0.0191228
-0.0152322
-0.0118177
-0.00865551
-0.00533102
-0.00221183
0.000299122
0.00242341
0.00441808
0.00620876
0.00769764
0.00892932
0.00996579
0.0108249
0.0115179
0.0120666
0.0124938
0.0128178
0.0130545
0.0132183
0.0133217
0.0133752
0.0133878
0.0133669
0.0133185
0.0132473
0.0131572
0.0130507
0.0129298
0.0127955
0.0126483
0.012488
0.012314
0.0121249
0.0119187
0.0116932
0.0114457
0.0111729
0.0108708
0.0105349
0.0101599
0.00973937
0.00926657
0.00873148
0.00812848
0.0074377
0.00666428
0.00576347
0.00476193
0.00360417
0.0022719
0.000825429
-0.0390251
-0.0408445
-0.0397327
-0.0363759
-0.0322556
-0.0281784
-0.0244673
-0.0211565
-0.0178031
-0.0144078
-0.0114487
-0.00868732
-0.00566621
-0.0027525
-0.000396631
0.00160286
0.00352087
0.00528607
0.00678162
0.00803897
0.00911773
0.0100329
0.0107896
0.0114053
0.0118999
0.01229
0.0125899
0.0128128
0.0129706
0.0130735
0.0131305
0.013149
0.0131353
0.0130946
0.0130308
0.0129471
0.0128457
0.0127281
0.0125951
0.0124468
0.012283
0.0121024
0.0119036
0.0116843
0.0114421
0.0111737
0.0108755
0.010543
0.0101709
0.00975282
0.00928218
0.00874883
0.00814737
0.00745739
0.00668461
0.00578324
0.00478001
0.00362032
0.0022816
0.000829004
-0.0328231
-0.0347745
-0.0341933
-0.0316094
-0.0282872
-0.0249198
-0.0218178
-0.0190489
-0.016194
-0.0132615
-0.0107395
-0.00837566
-0.00566995
-0.00298411
-0.000808228
0.00104005
0.0028508
0.00455738
0.00602796
0.00728249
0.00837788
0.00932583
0.0101264
0.0107928
0.0113415
0.0117869
0.0121414
0.0124167
0.0126239
0.0127727
0.0128715
0.0129278
0.0129479
0.0129371
0.0128996
0.0128388
0.0127572
0.0126567
0.0125384
0.0124027
0.0122494
0.012078
0.0118869
0.0116743
0.0114377
0.0111743
0.0108804
0.0105515
0.0101826
0.00976729
0.00929908
0.00876772
0.00816797
0.00747899
0.00670687
0.00580506
0.0048
0.00363814
0.00229273
0.000833001
-0.0272058
-0.0291368
-0.0289302
-0.0269779
-0.0243407
-0.0215983
-0.0190406
-0.0167589
-0.0143551
-0.0118481
-0.0097376
-0.00775844
-0.00536998
-0.00292503
-0.000946594
0.00073004
0.00240848
0.0040284
0.00544638
0.00667214
0.00775968
0.00871769
0.00954159
0.0102416
0.0108302
0.0113189
0.0117181
0.012038
0.0122885
0.0124783
0.0126155
0.0127071
0.0127592
0.0127772
0.0127653
0.0127271
0.0126653
0.0125821
0.0124787
0.0123558
0.0122137
0.0120517
0.0118688
0.0116632
0.0114328
0.0111747
0.0108854
0.0105605
0.0101952
0.00978291
0.00931741
0.00878829
0.00819046
0.00750269
0.00673132
0.00582915
0.00482218
0.00365784
0.00230545
0.000837593
-0.0220306
-0.0238863
-0.0239654
-0.0225354
-0.020482
-0.0182811
-0.0161999
-0.0143473
-0.0123446
-0.0102227
-0.00849299
-0.0068783
-0.00480013
-0.00260046
-0.000829499
0.00066191
0.00218965
0.00370047
0.00504232
0.00621599
0.00727285
0.00821959
0.00904665
0.00976399
0.0103772
0.0108962
0.0113292
0.0116848
0.0119713
0.0121964
0.0123675
0.012491
0.0125726
0.0126176
0.0126301
0.0126137
0.0125714
0.0125052
0.0124168
0.0123069
0.0121761
0.012024
0.0118496
0.0116514
0.0114275
0.011175
0.0108907
0.0105702
0.0102087
0.00979983
0.00933732
0.00881074
0.00821506
0.00752872
0.0067582
0.00585576
0.00484682
0.00367971
0.00231992
0.000842903
-0.0172501
-0.019044
-0.0193446
-0.0183345
-0.0167637
-0.01502
-0.0133483
-0.0118688
-0.0102179
-0.0084392
-0.00705558
-0.00577915
-0.0039973
-0.00204002
-0.000479438
0.000819947
0.00218503
0.0035699
0.00481612
0.00591784
0.00692466
0.00784119
0.00865818
0.00937143
0.0099932
0.0105289
0.0109841
0.0113654
0.0116796
0.0119334
0.012133
0.0122841
0.012392
0.0124615
0.0124966
0.0125008
0.012477
0.0124274
0.0123537
0.0122568
0.0121374
0.0119952
0.0118296
0.0116391
0.011422
0.0111755
0.0108964
0.0105806
0.0102233
0.00981819
0.009359
0.00883525
0.00824198
0.0075573
0.00678781
0.00588516
0.00487423
0.00370402
0.00233631
0.000849043
-0.0129434
-0.0146364
-0.0150727
-0.0143849
-0.0132093
-0.0118518
-0.0105307
-0.00937195
-0.0080245
-0.00654633
-0.00547217
-0.00450457
-0.00300022
-0.00127622
7.7664e-05
0.00118418
0.00237989
0.00362746
0.00476353
0.00577661
0.00671657
0.00758297
0.0083718
0.00907006
0.00968655
0.0102255
0.010691
0.0110877
0.0114209
0.0116959
0.0119178
0.0120915
0.0122217
0.0123125
0.0123678
0.0123908
0.0123842
0.0123503
0.0122906
0.0122064
0.0120982
0.011966
0.0118092
0.0116267
0.0114165
0.0111763
0.0109028
0.0105921
0.0102393
0.00983821
0.00938266
0.00886205
0.00827148
0.0075887
0.00682045
0.00591765
0.00490473
0.00373112
0.0023548
0.000856128
-0.00905294
-0.0106071
-0.0111245
-0.0106918
-0.00984241
-0.00880843
-0.00778369
-0.00689621
-0.00580673
-0.00458861
-0.00378764
-0.00309749
-0.00184762
-0.00034283
0.000812694
0.00173071
0.00275612
0.00385955
0.00487458
0.00578536
0.00665041
0.00746456
0.00820182
0.0088679
0.00946457
0.00999375
0.0104576
0.0108591
0.011202
0.0114901
0.0117276
0.0119183
0.0120661
0.0121745
0.012247
0.0122864
0.0122953
0.0122757
0.0122292
0.012157
0.0120596
0.0119372
0.0117892
0.0116145
0.0114115
0.0111777
0.0109101
0.0106047
0.0102568
0.00986009
0.00940852
0.00889138
0.00830384
0.00762323
0.00685647
0.00595361
0.0049387
0.00376135
0.00237564
0.000864278
-0.00550761
-0.00693471
-0.00750202
-0.0072659
-0.00667936
-0.00591179
-0.00513425
-0.00447443
-0.00360232
-0.00260627
-0.00204253
-0.00159745
-0.000577364
0.000725163
0.00169494
0.0024339
0.00329408
0.00425312
0.00513879
0.00591557
0.00671704
0.00746141
0.00814488
0.00876749
0.00933174
0.00983903
0.0102899
0.0106859
0.0110291
0.0113222
0.0115681
0.0117696
0.0119298
0.0120516
0.0121377
0.0121907
0.0122127
0.0122057
0.0121711
0.0121099
0.0120227
0.0119096
0.0117702
0.0116033
0.0114075
0.0111803
0.0109187
0.0106189
0.0102761
0.00988412
0.00943687
0.00892354
0.00833937
0.00766121
0.00689623
0.0059934
0.00497654
0.00379514
0.0023991
0.000873626
-0.00230091
-0.00360873
-0.00420239
-0.00411307
-0.00373218
-0.00317883
-0.00260507
-0.00213319
-0.00144133
-0.000632477
-0.000272151
-4.06536e-05
0.000775033
0.00189417
0.00269373
0.00326689
0.00397231
0.00479861
0.00558084
0.00631155
0.00695326
0.00759498
0.00820442
0.00876977
0.00929016
0.00976473
0.0101924
0.010573
0.0109076
0.0111975
0.0114444
0.0116503
0.0118173
0.0119476
0.0120434
0.0121067
0.0121393
0.0121427
0.0121182
0.0120668
0.0119888
0.0118844
0.011753
0.0115938
0.011405
0.0111844
0.010929
0.0106349
0.0102975
0.00991059
0.009468
0.00895882
0.00837839
0.00770299
0.00694013
0.00603747
0.00501868
0.00383292
0.00242549
0.000884322
0.000592844
-0.000592815
-0.00119027
-0.00121711
-0.00100633
-0.00062967
-0.000218117
0.000104539
0.000650949
0.00130421
0.00149227
0.00153994
0.00217609
0.00313178
0.00377778
0.00419848
0.00475589
0.00544594
0.00610277
0.00669734
0.0072679
0.00782968
0.00836613
0.00886921
0.00933819
0.0097715
0.010167
0.0105237
0.0108413
0.0111201
0.0113609
0.0115647
0.0117328
0.0118667
0.0119678
0.0120377
0.0120777
0.012089
0.0120727
0.0120293
0.0119593
0.0118626
0.0117387
0.0115866
0.0114047
0.0111906
0.0109414
0.0106533
0.0103215
0.00993987
0.00950226
0.00899757
0.00842127
0.00774896
0.0069886
0.00608627
0.00506563
0.00387522
0.00245517
0.000896542
0.00320748
0.00213627
0.00154779
0.00143466
0.00151153
0.00174602
0.00202269
0.00222347
0.00265259
0.00317916
0.00322517
0.00312005
0.00360384
0.00441604
0.00492428
0.00520572
0.00562565
0.00618687
0.00672397
0.00720833
0.00768511
0.00816234
0.00862328
0.00906014
0.00947222
0.00985773
0.010214
0.0105393
0.0108325
0.0110931
0.011321
0.0115164
0.0116799
0.0118122
0.0119142
0.0119867
0.0120308
0.0120472
0.0120366
0.0119994
0.0119358
0.0118457
0.0117284
0.0115828
0.0114073
0.0111996
0.0109566
0.0106744
0.0103485
0.00997233
0.00954002
0.00904017
0.0084684
0.00779953
0.0070421
0.00614028
0.0051179
0.00392257
0.00248856
0.000910486
0.005565
0.00459932
0.0040291
0.00385257
0.00382377
0.0039437
0.004112
0.00421587
0.00455121
0.00497387
0.00490151
0.00466606
0.00501688
0.00570437
0.00609414
0.00625502
0.00655323
0.00699824
0.00742644
0.00780866
0.00819146
0.00858321
0.00896712
0.00933522
0.00968673
0.0100198
0.0103313
0.0106192
0.0108818
0.011118
0.0113269
0.0115081
0.0116615
0.0117871
0.0118854
0.0119566
0.0120011
0.0120195
0.012012
0.0119789
0.01192
0.011835
0.0117232
0.0115833
0.0114137
0.011212
0.010975
0.0106988
0.0103788
0.0100084
0.0095817
0.00908701
0.00852018
0.0078551
0.0071011
0.00620002
0.00517607
0.0039756
0.00252609
0.000926386
0.00768697
0.00681808
0.00627187
0.00604918
0.00593744
0.00596593
0.00604784
0.00607589
0.00633747
0.00667623
0.0065077
0.00616531
0.00640377
0.00698367
0.0072712
0.00732735
0.00751778
0.00785811
0.00818743
0.00847565
0.00876943
0.00907829
0.00938608
0.00968496
0.00997416
0.0102519
0.010515
0.0107611
0.0109882
0.0111947
0.0113794
0.0115412
0.0116794
0.0117937
0.0118838
0.0119496
0.011991
0.0120081
0.012001
0.0119694
0.0119132
0.0118317
0.0117242
0.0115891
0.0114247
0.0112285
0.0109974
0.0107271
0.0104131
0.0100486
0.00962772
0.00913847
0.008577
0.00791606
0.00716603
0.00626597
0.00524069
0.00403493
0.00256825
0.000944503
0.0095975
0.00881691
0.00829794
0.0080421
0.00786542
0.00782094
0.00783382
0.00780275
0.00800634
0.00827728
0.00803126
0.00760193
0.00774589
0.00823364
0.00843418
0.00840092
0.00849741
0.00874494
0.00898572
0.00918872
0.00940032
0.00963119
0.00986606
0.0100974
0.0103246
0.0105461
0.0107589
0.0109605
0.0111487
0.0113217
0.0114779
0.011616
0.0117348
0.0118334
0.0119112
0.0119676
0.0120023
0.0120149
0.0120052
0.0119727
0.011917
0.0118373
0.0117325
0.0116011
0.0114412
0.01125
0.0110244
0.0107599
0.0104518
0.0100934
0.00967853
0.00919497
0.00863923
0.00798277
0.00723732
0.0063386
0.00531231
0.00410124
0.00261551
0.00096513
0.0113044
0.0106062
0.0101191
0.00984322
0.00961893
0.00951879
0.00947838
0.00940265
0.0095611
0.00977676
0.00946795
0.00896732
0.00902995
0.0094365
0.0095613
0.00945025
0.00946326
0.00962695
0.00978732
0.00991263
0.0100487
0.0102073
0.0103739
0.0105415
0.0107096
0.0108769
0.0110404
0.0111977
0.0113466
0.011485
0.0116112
0.0117236
0.0118205
0.0119009
0.0119637
0.0120081
0.0120333
0.0120388
0.012024
0.0119884
0.0119312
0.0118515
0.0117482
0.0116195
0.0114632
0.0112767
0.0110562
0.0107975
0.0104954
0.0101431
0.00973442
0.00925673
0.00870708
0.00805539
0.0073152
0.00641816
0.00539137
0.00417508
0.00266825
0.00098848
0.0128351
0.0122072
0.0117514
0.0114672
0.0112163
0.0110861
0.0110207
0.0109309
0.011076
0.0112698
0.0109351
0.0104014
0.0104177
0.0107746
0.0108538
0.0106933
0.0106472
0.0107464
0.0108413
0.0108996
0.0109663
0.0110544
0.0111506
0.0112486
0.0113484
0.0114494
0.0115493
0.011646
0.0117378
0.011823
0.0119002
0.0119679