/*--------------------------------*- C++ -*----------------------------------*\
| =========                 |                                                 |
| \\      /  F ield         | OpenFOAM: The Open Source CFD Toolbox           |
|  \\    /   O peration     | Version:  2512                                  |
|   \\  /    A nd           | Website:  www.openfoam.com                      |
|    \\/     M anipulation  |                                                 |
\*---------------------------------------------------------------------------*/
FoamFile
{
    version     2.0;
    format      ascii;
    arch        "LSB;label=32;scalar=64";
    class       surfaceScalarField;
    location    "4";
    object      phi;
}
// * * * * * * * * * * * * * * * * * * * * * * * * * * * * * * * * * * * * * //

dimensions      [0 3 -1 0 0 0 0];

oriented        oriented;

internalField   nonuniform List<scalar> 
26232
(
-0.000274989
0.00152869
-0.0012537
0.000123535
0.00372085
-0.00411937
0.00180656
0.00450636
-0.00618938
0.0051658
0.00322934
-0.00658857
0.0106166
-0.000733079
-0.00471773
0.0185567
-0.00777616
-0.000163897
0.0293542
-0.0179661
0.00716857
0.0427607
-0.030839
0.0174325
0.0578087
-0.0453176
0.0302696
0.0729049
-0.0599101
0.0448138
0.0863679
-0.0731374
0.0596745
0.0970396
-0.0839827
0.073311
0.104609
-0.0921196
0.0845502
0.109517
-0.0978294
0.0929211
0.112582
-0.101704
0.0986398
0.114625
-0.104361
0.102317
0.116275
-0.10628
0.10463
0.117926
-0.107782
0.106132
0.119804
-0.109055
0.107176
0.122001
-0.110221
0.108024
0.124567
-0.111272
0.108706
0.127508
-0.112418
0.109477
0.130465
-0.113185
0.110228
-0.114309
0.111231
0.133543
-0.000365585
0.00189427
-7.97018e-05
0.00343497
0.00171982
0.00270683
0.0057578
-0.000808644
0.0126214
-0.00759664
0.0226501
-0.0178049
0.0355543
-0.0308702
0.0502263
-0.0455111
0.064981
-0.0600722
0.0781328
-0.0730619
0.0885774
-0.0835821
0.0960482
-0.0914534
0.100976
-0.0970474
0.104122
-0.100976
0.106243
-0.103826
0.107915
-0.106033
0.109509
-0.107873
0.111234
-0.109507
0.113202
-0.111023
0.115453
-0.112473
0.118057
-0.113876
0.12096
-0.11532
0.124405
-0.116631
-0.118516
0.128612
-0.000192037
0.00208631
0.000512529
0.0027304
0.00313641
8.29527e-05
0.00850169
-0.00617393
0.0171501
-0.0162451
0.0288982
-0.029553
0.0426443
-0.0446163
0.0566521
-0.059519
0.0692183
-0.0726384
0.0792671
-0.0831106
0.0865558
-0.0908708
0.0914919
-0.0963895
0.0947698
-0.100325
0.0970622
-0.103268
0.0988732
-0.105636
0.100525
-0.107684
0.102204
-0.109553
0.104018
-0.111321
0.106025
-0.113031
0.108272
-0.114719
0.110787
-0.116391
0.113575
-0.118108
0.116713
-0.119769
-0.121699
0.119896
0.00011434
0.00197197
0.00155377
0.00129097
0.00534781
-0.00371108
0.0122929
-0.013119
0.0224978
-0.02645
0.0350315
-0.0420868
0.0481607
-0.0577455
0.0601261
-0.0714843
0.0698129
-0.0823253
0.0769473
-0.090245
0.0818827
-0.0958061
0.085239
-0.0997459
0.0876179
-0.102704
0.0894734
-0.105124
0.0911027
-0.107266
0.0926851
-0.109267
0.0943278
-0.111196
0.0960954
-0.113088
0.0980332
-0.114969
0.100167
-0.116854
0.102527
-0.118751
0.105134
-0.120714
0.108015
-0.12265
-0.124902
0.111218
0.000434102
0.00153787
0.0027172
-0.000992123
0.00781494
-0.00880882
0.0162235
-0.0215276
0.027363
-0.0375894
0.0395871
-0.0543109
0.0510302
-0.0691886
0.0604455
-0.0808996
0.0674606
-0.0893404
0.0723591
-0.0951435
0.0757113
-0.0991583
0.0780878
-0.102122
0.0799264
-0.104543
0.0815129
-0.10671
0.0830161
-0.108769
0.0845309
-0.110782
0.0861123
-0.112777
0.0877967
-0.114773
0.0896105
-0.116783
0.0915757
-0.118819
0.0937221
-0.120898
0.09604
-0.123032
0.0985858
-0.125196
-0.127579
0.101263
0.000748026
0.000789839
0.00389807
-0.00414216
0.0102489
-0.0151597
0.0197343
-0.0310129
0.0309676
-0.0488228
0.0419641
-0.0653074
0.0512376
-0.0784622
0.0582313
-0.0878933
0.0631292
-0.0942384
0.0664641
-0.0984784
0.0688001
-0.101494
0.0705754
-0.103898
0.072072
-0.106039
0.0734499
-0.108088
0.0747958
-0.110115
0.07616
-0.112146
0.0775773
-0.114194
0.0790752
-0.116271
0.0806766
-0.118384
0.0824036
-0.120546
0.0842707
-0.122765
0.086295
-0.125057
0.0885105
-0.127412
-0.129947
0.0908788
0.00106935
-0.000279508
0.00507343
-0.00814625
0.0124734
-0.0225596
0.0224228
-0.0409623
0.0329311
-0.0593311
0.042175
-0.0745512
0.0492864
-0.0855736
0.0542792
-0.0928861
0.0576316
-0.0975907
0.0599133
-0.10076
0.061584
-0.103165
0.062941
-0.105255
0.0641509
-0.107249
0.0653012
-0.109239
0.0664408
-0.111254
0.0676012
-0.113306
0.0688064
-0.1154
0.0700757
-0.11754
0.0714264
-0.119735
0.0728723
-0.121992
0.0744296
-0.124322
0.0761045
-0.126732
0.0779169
-0.129224
-0.131854
0.0798235
0.00140382
-0.00168333
0.006197
-0.0129394
0.0142806
-0.0306432
0.02401
-0.0506917
0.0332243
-0.0685454
0.0405858
-0.0819128
0.0458097
-0.0907975
0.0492636
-0.09634
0.0515184
-0.0998455
0.0530733
-0.102315
0.0542625
-0.104354
0.0552737
-0.106266
0.0562018
-0.108177
0.0570951
-0.110132
0.0579821
-0.112141
0.0588839
-0.114208
0.0598183
-0.116334
0.0608014
-0.118523
0.0618468
-0.12078
0.0629683
-0.123113
0.0641755
-0.125529
0.0654785
-0.128034
0.0668919
-0.130637
-0.13335
0.068388
0.00174165
-0.00342498
0.00717641
-0.0183742
0.0154709
-0.0389377
0.0244129
-0.0596338
0.0320736
-0.076206
0.037677
-0.0875162
0.0413632
-0.0944837
0.0436663
-0.098643
0.0451314
-0.101311
0.0461497
-0.103333
0.046947
-0.105151
0.0476355
-0.106954
0.048268
-0.10881
0.0488719
-0.110736
0.0494664
-0.112736
0.0500678
-0.114809
0.050691
-0.116957
0.0513493
-0.119181
0.0520545
-0.121485
0.0528161
-0.123875
0.0536423
-0.126355
0.0545399
-0.128932
0.0555115
-0.131609
-0.134377
0.0565387
0.00205383
-0.00547881
0.00790105
-0.0242214
0.0159318
-0.0469685
0.0237315
-0.0674335
0.0298142
-0.0822887
0.0338919
-0.0915938
0.0363639
-0.0969557
0.0378016
-0.100081
0.0386678
-0.102177
0.0392466
-0.103912
0.0396822
-0.105587
0.0400397
-0.107312
0.0403496
-0.10912
0.0406303
-0.111016
0.0408964
-0.113002
0.0411617
-0.115075
0.0414388
-0.117234
0.041739
-0.119481
0.0420721
-0.121818
0.0424467
-0.124249
0.0428697
-0.126778
0.043347
-0.129409
0.0438814
-0.132143
-0.134965
0.0444696
0.00231081
-0.00778963
0.00828894
-0.0301995
0.0156718
-0.0543513
0.0221711
-0.0739328
0.026785
-0.0869027
0.029588
-0.0943968
0.0311055
-0.0984733
0.0318704
-0.100846
0.0322466
-0.102553
0.0324301
-0.104096
0.0325105
-0.105667
0.0325262
-0.107328
0.032496
-0.10909
0.0324327
-0.110953
0.0323475
-0.112917
0.0322513
-0.114978
0.0321547
-0.117138
0.0320683
-0.119395
0.032001
-0.121751
0.0319612
-0.124209
0.0319562
-0.126773
0.0319905
-0.129444
0.0320621
-0.132215
-0.135074
0.0321707
0.0024921
-0.0102817
0.00831687
-0.0360243
0.0147998
-0.0608342
0.0199773
-0.0791103
0.0232865
-0.0902119
0.0250388
-0.096149
0.025791
-0.0992255
0.0260006
-0.101055
0.0259404
-0.102493
0.025741
-0.103896
0.0254571
-0.105383
0.0251121
-0.106983
0.0247186
-0.108696
0.024287
-0.110522
0.0238267
-0.112456
0.0233473
-0.114499
0.0228575
-0.116648
0.0223659
-0.118903
0.0218799
-0.121265
0.0214067
-0.123736
0.0209538
-0.12632
0.0205287
-0.129019
0.020135
-0.131821
0.0197781
-0.134717
-0.00374084
0.00239501
0.00134583
-0.0105276
0.00437379
0.00241295
-0.0183709
0.00509261
0.00275067
-0.0264917
0.00532183
0.00279902
-0.0346002
0.00537128
0.00273722
-0.0425003
0.00529649
0.00260355
-0.0499628
0.0050713
0.00239127
-0.0567124
0.00466093
0.00208861
-0.062432
0.00403394
0.00168566
-0.066774
0.0031662
0.00117585
-0.0693746
0.00204496
0.000555639
-0.0698911
0.00067423
-0.000157808
-0.0681131
-0.000873643
-0.000904351
-0.0638308
-0.00257686
-0.00170541
-0.0569665
-0.00435066
-0.00251362
-0.047593
-0.00609397
-0.00327956
-0.0359258
-0.00770516
-0.00396208
-0.0222995
-0.00909677
-0.00452951
-0.00712969
-0.0102082
-0.00496163
0.00921004
-0.011086
-0.00525371
0.0262713
-0.0116243
-0.00543694
0.0438411
-0.0120386
-0.00553118
0.0613871
-0.012023
-0.0055231
-0.0123555
0.0792358
-0.00549318
-0.0034031
0.00579811
-0.00974562
0.0107163
-0.0171741
0.0125211
-0.0249012
0.013049
-0.0326101
0.0130802
-0.0400939
0.0127803
-0.0471235
0.0121009
-0.0534276
0.010965
-0.0586956
0.00930195
-0.0625854
0.00705598
-0.0647381
0.00419769
-0.0647431
0.000679225
-0.0625272
-0.00308951
-0.0578087
-0.0072954
-0.0504933
-0.011666
-0.0406665
-0.0159208
-0.0285741
-0.0197975
-0.0145913
-0.0230796
0.000865194
-0.0256646
0.0173426
-0.0275634
0.0343928
-0.0286745
0.0517731
-0.0294189
0.0690175
-0.0292673
-0.0296855
0.0863476
-0.00258967
0.00838778
-0.0078257
0.0159523
-0.0142031
0.0188985
-0.0209313
0.0197772
-0.0276337
0.0197826
-0.0340797
0.0192263
-0.0400445
0.0180657
-0.045273
0.0161935
-0.0494783
0.0135072
-0.052343
0.00992076
-0.0535225
0.00537711
-0.0526727
-0.000170504
-0.0496136
-0.00614869
-0.0440704
-0.0128386
-0.0359675
-0.0197689
-0.0254134
-0.0264749
-0.0126595
-0.0325514
0.00181161
-0.0375507
0.0174937
-0.0413467
0.0338866
-0.0439564
0.050556
-0.0453438
0.0672165
-0.0460795
0.0835574
-0.0456082
-0.0457584
0.0996302
-0.00143727
0.00982504
-0.00501
0.0195251
-0.00976653
0.023655
-0.0149547
0.0249654
-0.0201176
0.0249456
-0.0249768
0.0240854
-0.0293098
0.0223987
-0.0328895
0.0197732
-0.0354711
0.0160888
-0.0367882
0.0112379
-0.0365302
0.00511908
-0.034566
-0.00213468
-0.0304446
-0.0102701
-0.0240065
-0.0192767
-0.0151143
-0.028661
-0.00395168
-0.0376376
0.00903191
-0.045535
0.0234446
-0.0519634
0.0386958
-0.0565978
0.0542643
-0.0595249
0.069762
-0.0608415
0.0849069
-0.0612243
0.0996054
-0.0603067
-0.059916
0.113763
-0.000164161
0.0099892
-0.00169856
0.0210595
-0.00438952
0.026346
-0.00759846
0.0281743
-0.0108103
0.0281574
-0.0136609
0.026936
-0.0159212
0.024659
-0.0173953
0.0212474
-0.0179021
0.0165956
-0.0172632
0.0105989
-0.0152618
0.00311767
-0.0118077
-0.0055888
-0.0064607
-0.0156171
0.000926201
-0.0266636
0.0102767
-0.0380115
0.0215081
-0.048869
0.0342373
-0.0582641
0.0478336
-0.0655598
0.0617463
-0.0705106
0.0755119
-0.0732904
0.0888858
-0.0742155
0.101683
-0.0740216
0.114038
-0.0726618
-0.0716724
0.125795
0.000979617
0.00900959
0.00154834
0.0204907
0.00116925
0.0267251
0.000186046
0.0291575
-0.000814617
0.029158
-0.00145515
0.0275765
-0.00146351
0.0246674
-0.000665579
0.0204494
0.00106392
0.0148661
0.00381233
0.00785053
0.00758541
-0.000655409
0.0126592
-0.0106626
0.0192139
-0.0221718
0.0273991
-0.0348489
0.0372334
-0.0478458
0.0483486
-0.0599843
0.0602192
-0.0701346
0.0722503
-0.0775909
0.0839888
-0.082249
0.0951555
-0.0844572
0.105737
-0.0847972
0.11573
-0.0840148
0.12545
-0.0823817
-0.0809838
0.134762
0.00174504
0.00726454
0.00413414
0.0181016
0.00603257
0.0248266
0.00739923
0.0277909
0.00862031
0.027937
0.010144
0.0260528
0.012266
0.0225454
0.0151473
0.0175681
0.0188461
0.0111673
0.0233308
0.00336581
0.0287576
-0.00608224
0.0352731
-0.017178
0.0430711
-0.0299698
0.0522032
-0.043981
0.0624018
-0.0580444
0.0730912
-0.0706737
0.0836257
-0.0806691
0.0935232
-0.0874885
0.102581
-0.0913072
0.110828
-0.0927034
0.118514
-0.092484
0.125828
-0.0913289
0.133174
-0.089727
-0.0882584
0.140448
0.00201298
0.00525157
0.00554749
0.0145671
0.00923101
0.0211431
0.0126304
0.0243914
0.015886
0.0246814
0.0193223
0.0226165
0.0232115
0.0186563
0.0276963
0.0130833
0.0327995
0.0060642
0.0386696
-0.00250431
0.0454568
-0.0128695
0.0533898
-0.025111
0.0625933
-0.0391733
0.072772
-0.0541597
0.0832216
-0.068494
0.0931277
-0.0805798
0.101903
-0.089444
0.109364
-0.0949495
0.115687
-0.0976305
0.121249
-0.0982653
0.126503
-0.097738
0.131738
-0.0965637
0.137331
-0.0953203
-0.0940885
0.143161
0.00182255
0.00342902
0.00562119
0.0107685
0.0102023
0.016562
0.0149225
0.0196712
0.0196382
0.0199657
0.0244754
0.0177793
0.0296128
0.0135188
0.0351968
0.0074993
0.0412728
-1.18684e-05
0.0484331
-0.00966458
0.0567743
-0.0212107
0.0665596
-0.0348963
0.0774592
-0.0500729
0.088565
-0.0652655
0.0987792
-0.0787082
0.107314
-0.0891145
0.113944
-0.0960744
0.118968
-0.0999731
0.122948
-0.101611
0.126499
-0.101816
0.130102
-0.101341
0.134026
-0.100487
0.138522
-0.0998161
-0.0989873
0.143421
0.00133237
0.00209665
0.00459711
0.00750376
0.00904488
0.0121142
0.0140686
0.0146475
0.0193633
0.0146711
0.0248827
0.0122599
0.0307389
0.00766258
0.0371278
0.00111042
0.0447436
-0.00762766
0.0537058
-0.0186268
0.0644258
-0.0319307
0.0764963
-0.0469668
0.0887938
-0.0623705
0.0999299
-0.0764015
0.108883
-0.0876616
0.11536
-0.0955912
0.119734
-0.100448
0.122743
-0.102982
0.125138
-0.104007
0.127535
-0.104213
0.130265
-0.104071
0.133524
-0.103746
0.13738
-0.103672
-0.103305
0.141698
0.000715182
0.00138146
0.00295593
0.00526301
0.00648609
0.00858405
0.0109295
0.0102041
0.01603
0.00957055
0.021771
0.00651884
0.0283737
0.00105988
0.0363911
-0.0069069
0.0462334
-0.01747
0.0580994
-0.0304928
0.0714585
-0.0452898
0.0850041
-0.0605124
0.0971537
-0.07452
0.106739
-0.0859865
0.11342
-0.0943429
0.117627
-0.099798
0.120196
-0.103018
0.121987
-0.104773
0.123645
-0.105665
0.12559
-0.106158
0.127967
-0.106448
0.130935
-0.106714
0.134384
-0.107121
-0.107194
0.138273
0.000127768
0.0012714
0.00366607
0.0072816
0.0121344
0.0184894
0.0267178
0.0372434
0.050043
0.064364
0.0787487
0.0915473
0.101578
0.108512
0.112809
0.115328
0.116941
0.1183
0.119812
0.121678
0.123935
0.126699
0.129806
0.133842
0.0970132
-0.0105519
-0.00722549
0.112016
-0.00808509
-0.00691743
0.124614
-0.00595791
-0.00663992
0.135218
-0.00419775
-0.00640676
0.144104
-0.00266882
-0.00621713
0.151479
-0.00130801
-0.00606695
0.157533
-0.000104151
-0.00595003
0.162534
0.000861659
-0.00586288
0.166656
0.00172468
-0.00584598
0.170076
0.00247269
-0.00589275
0.17293
0.00314042
-0.00599458
0.175321
0.00375164
-0.00614227
0.177331
0.00430135
-0.00631168
0.179037
0.00477538
-0.0064817
0.180499
0.00520211
-0.00666354
0.181759
0.00561824
-0.00687841
0.182849
0.00604693
-0.00713732
0.183793
0.00649836
-0.00744176
0.184606
0.00697394
-0.00778779
0.185305
0.00747037
-0.00816916
0.185902
0.00798477
-0.00858113
0.186407
0.00851737
-0.0090224
0.18683
0.0090709
-0.00949434
0.18718
0.00964891
-0.00999931
0.187465
0.0102554
-0.0105402
0.187691
0.0108947
-0.0111203
0.187863
0.0115714
-0.0117434
0.187986
0.01229
-0.0124133
0.188065
0.0130556
-0.0131342
0.188102
0.0138733
-0.0139108
0.188102
0.0147489
-0.0147484
0.188066
0.0156885
-0.0156528
0.187997
0.0166989
-0.0166301
0.187898
0.0177873
-0.0176876
0.187769
0.0189617
-0.0188328
0.187612
0.0202309
-0.0200744
0.187429
0.0216046
-0.0214218
0.187222
0.0230937
-0.0228858
0.18699
0.02471
-0.024478
0.186735
0.0264667
-0.0262115
0.186457
0.0283786
-0.028101
0.186158
0.030462
-0.0301626
0.185837
0.0327352
-0.0324146
0.185495
0.0352185
-0.034877
0.185133
0.0379344
-0.0375724
0.184751
0.0409077
-0.0405256
0.184349
0.0441662
-0.0437641
0.183927
0.0477405
-0.0473187
0.183486
0.0516645
-0.051223
0.183025
0.0559765
-0.0555155
0.182544
0.0607132
-0.0602326
0.182044
0.0659398
-0.0654393
0.181524
0.0716264
-0.0711067
0.180982
0.0781039
-0.0775622
0.180425
0.0845579
-0.0840004
0.179837
0.0934634
-0.0928757
0.179241
0.0990804
-0.098484
0.17861
0.113292
-0.112661
0.177956
0.116317
-0.115663
0.135197
-0.134515
0.10214
-0.0263446
0.11556
-0.021505
0.127014
-0.0174121
0.136773
-0.0139566
0.145021
-0.0109162
0.151939
-0.00822633
0.157733
-0.0058987
0.162535
-0.00393992
0.166544
-0.00228463
0.169884
-0.000866873
0.17268
0.000344355
0.175048
0.00138348
0.177055
0.0022949
0.178763
0.00306658
0.180228
0.00373723
0.181496
0.00435075
0.182598
0.00494464
0.183557
0.00553965
0.184388
0.00614272
0.185105
0.00675324
0.18572
0.00736992
0.186243
0.00799409
0.186685
0.00862955
0.187053
0.00928089
0.187355
0.00995317
0.187598
0.0106518
0.187787
0.0113822
0.187927
0.0121497
0.188023
0.0129598
0.188078
0.0138185
0.188095
0.014732
0.188076
0.0157068
0.188025
0.0167499
0.187944
0.017869
0.187833
0.0190724
0.187695
0.0203691
0.18753
0.0217689
0.187341
0.023283
0.187128
0.0249232
0.186891
0.026703
0.186633
0.0286374
0.186352
0.0307426
0.18605
0.0330372
0.185727
0.0355416
0.185383
0.0382783
0.185018
0.0412724
0.184633
0.0445515
0.184227
0.0481466
0.1838
0.0520915
0.183352
0.0564247
0.182882
0.0611828
0.18239
0.0664316
0.181877
0.0721402
0.181337
0.0786431
0.180778
0.085117
0.180185
0.0940571
0.179577
0.0996884
0.178926
0.113942
0.17825
0.116992
0.135921
0.11181
-0.0385244
0.12233
-0.0320246
0.131532
-0.0266147
0.139585
-0.0220092
0.146542
-0.0178732
0.152512
-0.0141965
0.157623
-0.0110096
0.16199
-0.00830661
0.165733
-0.00602796
0.168952
-0.00408562
0.171691
-0.0023952
0.173995
-0.000920624
0.175962
0.000328295
0.177663
0.00136572
0.179131
0.0022694
0.180408
0.00307327
0.181527
0.00382611
0.182507
0.00455959
0.183363
0.00528648
0.184107
0.00600883
0.184751
0.00672661
0.185303
0.0074419
0.185773
0.00815911
0.186171
0.00888371
0.186502
0.00962171
0.186774
0.0103795
0.186993
0.0111634
0.187163
0.0119794
0.18729
0.0128337
0.187375
0.0137329
0.187423
0.0146837
0.187437
0.015693
0.187419
0.0167683
0.18737
0.0179175
0.187293
0.0191493
0.18719
0.0204727
0.187061
0.021898
0.186907
0.0234363
0.186731
0.0250997
0.186532
0.0269021
0.186311
0.0288582
0.186069
0.0309847
0.185806
0.0333002
0.185522
0.0358253
0.185218
0.0385825
0.184893
0.0415971
0.184548
0.044897
0.184181
0.0485131
0.183793
0.0524794
0.183383
0.0568345
0.182951
0.0616153
0.182495
0.066888
0.182014
0.0726206
0.181506
0.0791516
0.180974
0.0856488
0.180404
0.0946271
0.179815
0.100278
0.179176
0.114582
0.178511
0.117657
0.136651
0.121933
-0.0466944
0.12929
-0.0393821
0.135976
-0.0333003
0.142089
-0.0281225
0.147613
-0.0233966
0.15254
-0.0191234
0.156919
-0.0153889
0.160794
-0.0121819
0.16421
-0.00944412
0.167203
-0.00707864
0.169816
-0.00500767
0.172098
-0.00320247
0.17407
-0.00164404
0.175734
-0.000297937
0.17721
0.000793328
0.178502
0.00178076
0.179644
0.00268487
0.180653
0.00355021
0.181543
0.00439619
0.182325
0.00522749
0.183006
0.0060447
0.183598
0.00685002
0.184109
0.00764832
0.184547
0.00844575
0.18492
0.00924911
0.185234
0.0100657
0.185494
0.0109025
0.185707
0.0117663
0.185877
0.0126642
0.186007
0.0136031
0.1861
0.0145903
0.18616
0.0156331
0.186189
0.0167396
0.186189
0.0179178
0.186161
0.0191767
0.186108
0.0205258
0.186031
0.0219755
0.18593
0.0235369
0.185807
0.0252225
0.185663
0.027046
0.185499
0.0290227
0.185314
0.0311692
0.18511
0.0335045
0.184886
0.0360492
0.184643
0.038826
0.184379
0.0418603
0.184096
0.0451802
0.183792
0.0488168
0.183468
0.0528042
0.183121
0.0571814
0.182751
0.0619852
0.182356
0.0672825
0.181937
0.0730404
0.181487
0.0796012
0.181011
0.0861243
0.180495
0.0951435
0.179955
0.100817
0.179359
0.115178
0.178738
0.118278
0.137355
0.130087
-0.0509871
0.134531
-0.0438255
0.139026
-0.0377956
0.143365
-0.0324612
0.147572
-0.0276036
0.151567
-0.0231189
0.155291
-0.0191128
0.158707
-0.0155978
0.161808
-0.0125448
0.164609
-0.0098799
0.16712
-0.00751919
0.16934
-0.00542221
0.171289
-0.00359263
0.173013
-0.0020225
0.174481
-0.000674005
0.175789
0.000472271
0.176958
0.00151567
0.178003
0.00250567
0.178935
0.00346367
0.179763
0.00439948
0.180494
0.00531365
0.181137
0.0062075
0.181699
0.00708585
0.18219
0.00795536
0.182615
0.00882343
0.182983
0.00969805
0.183299
0.010587
0.183567
0.0114979
0.183793
0.0124383
0.18398
0.0134159
0.184132
0.0144383
0.184252
0.0155134
0.184342
0.0166495
0.184405
0.0178551
0.184442
0.0191396
0.184455
0.0205127
0.184445
0.021985
0.184414
0.0235681
0.184362
0.0252742
0.184291
0.0271173
0.184201
0.0291127
0.184093
0.0312775
0.183966
0.0336308
0.183822
0.0361934
0.18366
0.0389882
0.18348
0.0420407
0.183281
0.0453792
0.183063
0.049035
0.182824
0.0530425
0.182565
0.0574409
0.182283
0.0622672
0.181976
0.0675892
0.181644
0.0733726
0.181281
0.0799642
0.18089
0.0865148
0.180457
0.0955769
0.179998
0.101276
0.179476
0.115699
0.178931
0.118823
0.137997
0.135775
-0.0520008
0.13774
-0.0457901
0.14035
-0.040406
0.143291
-0.035402
0.146357
-0.0306695
0.149516
-0.0262772
0.152663
-0.0222603
0.155685
-0.0186196
0.158514
-0.0153737
0.161136
-0.0125026
0.163551
-0.00993419
0.165746
-0.00761683
0.167701
-0.00554794
0.169422
-0.00374278
0.170949
-0.00220147
0.172285
-0.000863857
0.173481
0.000320344
0.174569
0.00141708
0.17555
0.00248275
0.176433
0.00351684
0.177223
0.00452369
0.177927
0.00550342
0.178552
0.00646024
0.179107
0.00740072
0.179598
0.00833256
0.180032
0.00926434
0.180414
0.0102045
0.180751
0.0111614
0.181046
0.0121431
0.181304
0.013158
0.181528
0.0142142
0.181721
0.01532
0.181887
0.0164841
0.182026
0.0177154
0.182143
0.0190234
0.182237
0.0204182
0.182311
0.0219109
0.182366
0.0235131
0.182403
0.0252378
0.182421
0.0270987
0.182423
0.0291106
0.18241
0.0312912
0.18238
0.0336602
0.182335
0.0362384
0.182275
0.0390488
0.182198
0.0421173
0.182105
0.0454723
0.181995
0.0491453
0.181866
0.053171
0.181718
0.0575891
0.181549
0.0624366
0.181356
0.0677822
0.181138
0.0735906
0.180889
0.080213
0.180612
0.0867916
0.180291
0.0958977
0.179943
0.101625
0.179528
0.116114
0.179091
0.11926
0.138544
0.139084
-0.0506361
0.139138
-0.0458443
0.140203
-0.0414716
0.141936
-0.0371349
0.144104
-0.0328368
0.146544
-0.0287173
0.149123
-0.0248397
0.151752
-0.0212486
0.154324
-0.0179456
0.15679
-0.0149688
0.159128
-0.012272
0.161304
-0.00979277
0.163281
-0.00752492
0.165042
-0.00550341
0.166593
-0.00375317
0.167983
-0.00225402
0.16923
-0.000926064
0.170358
0.000288628
0.171401
0.00144004
0.172348
0.00256939
0.173207
0.00366473
0.173984
0.00472704
0.174684
0.00576022
0.175314
0.00677039
0.175882
0.00776508
0.176393
0.00875297
0.176854
0.00974311
0.177271
0.0107446
0.177648
0.0117662
0.177989
0.0128167
0.178299
0.0139048
0.178579
0.0150394
0.178834
0.0162294
0.179065
0.0174843
0.179275
0.0188137
0.179465
0.0202278
0.179638
0.0217382
0.179794
0.0233566
0.179936
0.0250966
0.180062
0.0269725
0.180174
0.0289986
0.180272
0.0311925
0.180358
0.0335743
0.180432
0.0361649
0.180493
0.0389881
0.18054
0.0420697
0.180574
0.0454383
0.180594
0.0491258
0.180597
0.0531672
0.180584
0.0576025
0.180552
0.0624689
0.180497
0.0678365
0.18042
0.0736682
0.180312
0.0803205
0.180177
0.0869264
0.179998
0.0960771
0.179791
0.101832
0.179513
0.116392
0.179217
0.119556
0.13896
0.14029
-0.047765
0.138987
-0.0445416
0.138833
-0.0413173
0.139535
-0.0378363
0.140881
-0.0341833
0.142694
-0.0305307
0.144796
-0.0269416
0.147015
-0.0234671
0.149294
-0.0202243
0.151588
-0.0172627
0.153849
-0.0145335
0.156022
-0.011966
0.158041
-0.00954329
0.159858
-0.00732037
0.161471
-0.00536671
0.162908
-0.00369089
0.164217
-0.00223497
0.16541
-0.00090432
0.166504
0.000345638
0.167525
0.00154923
0.168459
0.00273
0.169317
0.00386978
0.170102
0.00497504
0.17082
0.00605208
0.171477
0.00710793
0.172079
0.0081508
0.172633
0.00918985
0.173142
0.0102346
0.173614
0.0112947
0.174052
0.0123792
0.174459
0.0134973
0.17484
0.0146586
0.175197
0.0158723
0.175533
0.0171481
0.175851
0.0184962
0.176152
0.019927
0.176438
0.0214522
0.17671
0.0230838
0.176971
0.0248355
0.177222
0.0267224
0.177461
0.0287592
0.17769
0.0309635
0.177909
0.0333548
0.17812
0.0359546
0.178321
0.0387869
0.178513
0.0418779
0.178694
0.0452566
0.178865
0.0489551
0.179023
0.0530088
0.179168
0.0574582
0.179296
0.0623405
0.179406
0.0677272
0.179494
0.0735798
0.179554
0.0802602
0.179589
0.0868916
0.179579
0.0960867
0.179544
0.101868
0.179434
0.116502
0.179309
0.119681
0.139212
0.139713
-0.0440569
0.137499
-0.0423277
0.136391
-0.0402099
0.136215
-0.0376598
0.136818
-0.0347867
0.138014
-0.0317268
0.139633
-0.0285601
0.141511
-0.0253451
0.143512
-0.0222254
0.145598
-0.0193484
0.14775
-0.0166864
0.149898
-0.0141137
0.151955
-0.0116003
0.153842
-0.00920762
0.155531
-0.00705494
0.157044
-0.00520412
0.15842
-0.00361123
0.159703
-0.00218692
0.160889
-0.000840205
0.161994
0.000443871
0.163022
0.00170177
0.16397
0.00292168
0.164848
0.0040976
0.165661
0.00523908
0.166415
0.00635358
0.167117
0.00744909
0.167772
0.00853497
0.168385
0.0096211
0.168962
0.0107174
0.169508
0.0118336
0.170026
0.0129795
0.170519
0.0141648
0.170992
0.0153995
0.171447
0.0166935
0.171886
0.0180573
0.172311
0.0195017
0.172725
0.0210383
0.173129
0.0226798
0.173525
0.02444
0.173914
0.0263333
0.174296
0.0283763
0.174673
0.0305869
0.175044
0.032984
0.175409
0.035589
0.17577
0.0384263
0.176125
0.0415227
0.176475
0.0449073
0.176817
0.0486127
0.177151
0.0526745
0.177476
0.0571338
0.177788
0.0620281
0.178085
0.0674304
0.178364
0.0733002
0.178618
0.0800064
0.17885
0.0866599
0.179038
0.0958987
0.179203
0.101703
0.179291
0.116413
0.179369
0.119603
0.139265
0.137611
-0.0399703
0.134794
-0.0395108
0.13294
-0.0383552
0.132028
-0.0367477
0.131969
-0.034728
0.132587
-0.0323452
0.133734
-0.029707
0.135265
-0.0268762
0.137039
-0.0239989
0.138965
-0.0212742
0.14098
-0.0187021
0.143051
-0.0161847
0.145109
-0.0136582
0.147063
-0.0111612
0.14885
-0.00884235
0.150464
-0.00681839
0.151937
-0.00508392
0.153299
-0.00354852
0.15458
-0.00212135
0.155759
-0.000735678
0.156878
0.000583017
0.157932
0.00186791
0.158917
0.0031121
0.15984
0.0043162
0.160706
0.00548759
0.161521
0.00663417
0.162291
0.0077654
0.16302
0.0088913
0.163716
0.0100221
0.164381
0.0111681
0.165022
0.0123393
0.16564
0.0135462
0.166241
0.0147989
0.166826
0.016108
0.1674
0.017484
0.167963
0.0189384
0.168519
0.0204828
0.169068
0.0221301
0.169613
0.0238951
0.170155
0.0257913
0.170696
0.0278355
0.171236
0.0300472
0.171774
0.0324452
0.172313
0.0350508
0.17285
0.0378885
0.173388
0.0409854
0.173924
0.044371
0.174458
0.0480783
0.174989
0.0521433
0.175515
0.0566079
0.176034
0.0615094
0.176542
0.0669229
0.177036
0.0728054
0.177509
0.0795338
0.177964
0.086205
0.178376
0.0954863
0.17877
0.101309
0.179087
0.116096
0.179397
0.119293
0.139086
0.134091
-0.0357878
0.130844
-0.0362644
0.128371
-0.0358819
0.126842
-0.0352186
0.12623
-0.0341165
0.12637
-0.0324854
0.127126
-0.0304625
0.128381
-0.0281311
0.129976
-0.025594
0.131731
-0.0230296
0.133573
-0.0205437
0.135502
-0.018114
0.137502
-0.0156575
0.139497
-0.013156
0.141393
-0.010739
0.143148
-0.00857339
0.144756
-0.00669151
0.14624
-0.00503247
0.147623
-0.00350423
0.148933
-0.00204592
0.150142
-0.000626622
0.151302
0.000708774
0.1524
0.00201372
0.153435
0.00328091
0.154415
0.00450785
0.155346
0.00570313
0.156235
0.00687672
0.157087
0.00803912
0.157908
0.00920124
0.158702
0.0103738
0.159474
0.0115673
0.160228
0.0127924
0.160967
0.0140597
0.161695
0.0153803
0.162414
0.0167648
0.163127
0.0182251
0.163837
0.0197731
0.164545
0.0214218
0.165254
0.0231866
0.165964
0.0250811
0.166677
0.0271221
0.167395
0.0293295
0.168117
0.0317229
0.168844
0.0343237
0.169577
0.0371564
0.170314
0.0402484
0.171055
0.0436295
0.1718
0.0473331
0.172548
0.0513957
0.173296
0.0558599
0.174042
0.060763
0.174783
0.0661824
0.175516
0.0720721
0.176231
0.0788185
0.176935
0.0855013
0.177598
0.0948237
0.178249
0.100658
0.178822
0.115524
0.179393
0.118722
0.138642
0.130255
-0.0321998
0.126567
-0.0325772
0.123536
-0.0328504
0.121331
-0.0330136
0.119958
-0.0327432
0.119399
-0.0319265
0.11957
-0.0306337
0.120364
-0.0289252
0.121647
-0.0268776
0.123248
-0.0246302
0.125018
-0.0223139
0.126907
-0.0200028
0.128918
-0.0176681
0.131004
-0.0152422
0.133063
-0.0127985
0.134996
-0.0105063
0.136774
-0.00846923
0.138414
-0.0066725
0.139946
-0.00503611
0.141384
-0.0034837
0.142748
-0.00199111
0.144009
-0.000551996
0.145231
0.000791557
0.146402
0.00211022
0.147519
0.00339037
0.148587
0.0046351
0.149612
0.00585155
0.150602
0.00705007
0.151561
0.00824214
0.152495
0.00943915
0.15341
0.0106522
0.15431
0.0118926
0.155199
0.0131711
0.15608
0.0144992
0.156956
0.0158881
0.157832
0.0173498
0.158708
0.0188965
0.159588
0.0205418
0.160474
0.0223011
0.161366
0.0241889
0.162266
0.0262219
0.163176
0.0284199
0.164096
0.030803
0.165026
0.033393
0.165968
0.0362146
0.166921
0.0392954
0.167885
0.0426657
0.168859
0.0463593
0.169841
0.0504132
0.170831
0.0548705
0.171825
0.0597688
0.172819
0.065188
0.173813
0.0710783
0.174794
0.0778378
0.175771
0.0845245
0.176708
0.0938863
0.177643
0.0997227
0.178499
0.114668
0.179358
0.117863
0.137899
0.180889
-0.0274659
-0.185623
0.177083
-0.0287714
0.173616
-0.029383
0.170292
-0.0296898
0.167166
-0.029617
0.164323
-0.0290838
0.161825
-0.0281358
0.159708
-0.0268079
0.15799
-0.0251597
0.156657
-0.0232975
0.155644
-0.0213001
0.154875
-0.0192342
0.154335
-0.0171283
0.154044
-0.0149513
0.153981
-0.012735
0.154083
-0.0106088
0.154288
-0.00867415
0.154549
-0.00693337
0.154841
-0.00532749
0.155151
-0.00379438
0.155474
-0.00231366
0.155826
-0.000904036
0.156153
0.000464571
0.156472
0.00179098
0.156783
0.00307954
0.157085
0.00433312
0.157376
0.00556005
0.157656
0.00677073
0.157922
0.00797575
0.158175
0.00918595
0.158415
0.0104121
0.158643
0.011665
0.158859
0.0129554
0.159063
0.0142946
0.159258
0.0156938
0.159443
0.0171648
0.159619
0.0187202
0.159787
0.0203735
0.159949
0.0221392
0.160105
0.0240327
0.160256
0.0260709
0.160403
0.0282728
0.160547
0.0306591
0.160689
0.0332515
0.160829
0.0360747
0.160968
0.0391564
0.161107
0.0425269
0.161246
0.0462203
0.161385
0.0502733
0.161527
0.0547294
0.161669
0.0596262
0.161814
0.0650435
0.161959
0.0709329
0.162108
0.0776891
0.162253
0.0843792
0.162403
0.093736
0.16255
0.0995761
0.162679
0.114539
0.162837
0.117705
0.137797
0.190684
-0.0237503
-0.194399
0.187133
-0.0252205
0.183764
-0.0260145
0.180523
-0.026448
0.177473
-0.0265678
0.174706
-0.0263162
0.172264
-0.0256936
0.170158
-0.0247027
0.168396
-0.0233971
0.166984
-0.0218861
0.165891
-0.0202071
0.165041
-0.0183841
0.164393
-0.0164803
0.163961
-0.0145188
0.163749
-0.0125233
0.163722
-0.0105813
0.163822
-0.00877409
0.163998
-0.0071101
0.164221
-0.00554995
0.164479
-0.00405244
0.164764
-0.00259897
0.165049
-0.00118855
0.165348
0.000165435
0.165652
0.00148688
0.165956
0.00277526
0.166256
0.00403359
0.166547
0.00526886
0.166828
0.00648977
0.167097
0.00770612
0.167355
0.00892814
0.167601
0.0101662
0.167835
0.0114307
0.168059
0.0127323
0.168271
0.014082
0.168474
0.0154909
0.168668
0.0169708
0.168854
0.0185345
0.169032
0.0201953
0.169204
0.0219671
0.169371
0.0238661
0.169533
0.0259091
0.169691
0.0281146
0.169846
0.0305036
0.17
0.033098
0.170152
0.0359225
0.170304
0.0390046
0.170456
0.042375
0.170608
0.0460676
0.170762
0.0501193
0.170918
0.0545737
0.171076
0.0594685
0.171236
0.0648834
0.171397
0.0707714
0.171562
0.0775245
0.171725
0.0842162
0.171889
0.0935715
0.172056
0.0994099
0.172197
0.114398
0.172371
0.117532
0.137678
0.201239
-0.0204753
-0.204513
0.197828
-0.0218104
0.194578
-0.0227638
0.191492
-0.0233626
0.188576
-0.0236516
0.18588
-0.0236199
0.183451
-0.0232646
0.181316
-0.0225682
0.179483