/*--------------------------------*- C++ -*----------------------------------*\
| =========                 |                                                 |
| \\      /  F ield         | OpenFOAM: The Open Source CFD Toolbox           |
|  \\    /   O peration     | Version:  2512                                  |
|   \\  /    A nd           | Website:  www.openfoam.com                      |
|    \\/     M anipulation  |                                                 |
\*---------------------------------------------------------------------------*/
FoamFile
{
    version     2.0;
    format      ascii;
    arch        "LSB;label=32;scalar=64";
    class       surfaceScalarField;
    location    "97.7";
    object      phi;
}
// * * * * * * * * * * * * * * * * * * * * * * * * * * * * * * * * * * * * * //

dimensions      [0 3 -1 0 0 0 0];

oriented        oriented;

internalField   nonuniform List<scalar> 
26232
(
-0.000520343
0.00118649
-0.000666144
-0.00139423
0.00249079
-0.00161691
-0.00209397
0.00299799
-0.00229825
-0.0021571
0.00266313
-0.00260001
-0.00114417
0.00132586
-0.00233879
0.00137668
-0.00122223
-0.00129862
0.00580542
-0.00517241
0.000743675
0.0125014
-0.0106271
0.00393107
0.0216385
-0.0175367
0.0083996
0.0331703
-0.025666
0.0141343
0.0467875
-0.0346236
0.0210063
0.0619429
-0.0439329
0.0287775
0.0779198
-0.0531129
0.037136
0.0939261
-0.0617473
0.045741
0.109197
-0.0695297
0.0542592
0.123079
-0.0762895
0.0624069
0.135135
-0.0819933
0.069938
0.145136
-0.0867467
0.0767449
0.153246
-0.0907386
0.0826291
0.159657
-0.0943166
0.0879056
0.16516
-0.0975771
0.0920741
0.169886
-0.101286
0.0965599
0.174278
-0.104244
0.0998521
-0.108876
0.10492
0.178234
-0.000292693
0.00147918
-0.000649528
0.00284762
-0.000562562
0.00291103
0.000469989
0.00163058
0.0029494
-0.00115356
0.00734981
-0.00562263
0.014052
-0.0118746
0.0232316
-0.0198066
0.0347545
-0.0290597
0.0481537
-0.0390652
0.0626933
-0.0491632
0.0774976
-0.0587372
0.0917022
-0.0673175
0.104592
-0.074637
0.115704
-0.0806415
0.124882
-0.0854679
0.132275
-0.0893858
0.138269
-0.0927413
0.143377
-0.0958463
0.148039
-0.0989787
0.152649
-0.102187
0.157022
-0.105659
0.16167
-0.108892
-0.112963
0.165758
-8.71401e-05
0.00156632
8.9273e-05
0.00267121
0.00103651
0.00196379
0.00329956
-0.000632463
0.00742066
-0.00527466
0.0138454
-0.0120473
0.0227725
-0.0208017
0.0340099
-0.031044
0.0469476
-0.0419974
0.0606756
-0.0527932
0.0741923
-0.0626799
0.0866189
-0.0711638
0.0973622
-0.0780608
0.106195
-0.0834701
0.113249
-0.0876954
0.118917
-0.0911355
0.123707
-0.0941757
0.128077
-0.097111
0.132322
-0.100091
0.13655
-0.103207
0.140713
-0.10635
0.144776
-0.109721
0.148717
-0.112834
-0.116633
0.152387
7.29687e-05
0.00149335
0.000756332
0.00198785
0.00260098
0.000119135
0.00620172
-0.0042332
0.0120801
-0.011153
0.0205017
-0.0204689
0.0312577
-0.0315577
0.0436197
-0.0434061
0.056521
-0.0548987
0.0688601
-0.0651322
0.0797809
-0.0736007
0.08884
-0.0802229
0.0960322
-0.0852531
0.101692
-0.0891303
0.106318
-0.0923214
0.110386
-0.0952033
0.114227
-0.0980164
0.117985
-0.100869
0.121699
-0.103805
0.125315
-0.106823
0.128892
-0.109928
0.132357
-0.113186
0.135881
-0.116358
-0.120129
0.139377
0.000211687
0.00128166
0.00141226
0.000787274
0.00423196
-0.00270056
0.00927312
-0.00927436
0.0169089
-0.0187888
0.0269794
-0.0305394
0.0386837
-0.043262
0.0508138
-0.0555361
0.062172
-0.0662569
0.0719231
-0.0748833
0.079749
-0.0814266
0.0858024
-0.0862763
0.0905228
-0.0899735
0.0944149
-0.0930224
0.0978808
-0.0957873
0.101159
-0.0984818
0.10435
-0.101207
0.107491
-0.10401
0.110595
-0.10691
0.113694
-0.109923
0.116806
-0.113039
0.119901
-0.11628
0.123068
-0.119526
-0.123138
0.126077
0.000371395
0.000910269
0.00215832
-0.000999656
0.00605105
-0.00659329
0.0125647
-0.015788
0.0216825
-0.0279066
0.0326151
-0.0414721
0.0440376
-0.0546846
0.0546359
-0.0661344
0.0635523
-0.0751734
0.0705344
-0.0818653
0.0758178
-0.08671
0.0798797
-0.0903382
0.0832028
-0.0932966
0.0861414
-0.095961
0.088902
-0.0985479
0.091586
-0.101166
0.0942453
-0.103866
0.0969023
-0.106667
0.0995692
-0.109577
0.102234
-0.112588
0.104891
-0.115696
0.107519
-0.118908
0.110161
-0.122168
-0.125702
0.112725
0.000578868
0.000331401
0.0030441
-0.00346488
0.00807045
-0.0116196
0.0158849
-0.0236025
0.0258511
-0.0378728
0.0365851
-0.052206
0.0466198
-0.0647193
0.0549979
-0.0745125
0.0614486
-0.0816241
0.066224
-0.0866406
0.0698057
-0.0902918
0.0726633
-0.0931958
0.0751377
-0.095771
0.0774336
-0.0982569
0.0796582
-0.100772
0.0818614
-0.103369
0.0840586
-0.106063
0.0862505
-0.108859
0.0884305
-0.111757
0.0905995
-0.114757
0.0927666
-0.117863
0.094928
-0.12107
0.0971223
-0.124362
-0.127834
0.0992539
0.000837902
-0.000506501
0.0040483
-0.00667529
0.010143
-0.0177143
0.0188225
-0.032282
0.0287807
-0.0478309
0.0383775
-0.0618029
0.0464544
-0.0727962
0.0526226
-0.0806807
0.0570886
-0.0860901
0.0603238
-0.0898758
0.0628016
-0.0927696
0.0648734
-0.0952676
0.0667537
-0.0976513
0.0685535
-0.100057
0.0703204
-0.102539
0.0720691
-0.105118
0.0738036
-0.107798
0.0755264
-0.110582
0.0772427
-0.113473
0.0789573
-0.116471
0.0806672
-0.119573
0.0823693
-0.122772
0.0840709
-0.126064
-0.129474
0.0857112
0.00113468
-0.00164118
0.00509044
-0.010631
0.0120163
-0.0246402
0.0209327
-0.0411984
0.0300907
-0.0569889
0.0380291
-0.0697413
0.0441191
-0.0788862
0.0484486
-0.0850102
0.0514595
-0.0891009
0.0536392
-0.0920556
0.0553642
-0.0944947
0.0568675
-0.0967708
0.0582687
-0.0990525
0.0596195
-0.101408
0.0609394
-0.103859
0.0622366
-0.106415
0.0635156
-0.109077
0.0647794
-0.111846
0.0660293
-0.114723
0.067265
-0.117707
0.0684884
-0.120796
0.0697028
-0.123986
0.0709127
-0.127274
-0.130654
0.0720928
0.00144658
-0.00308776
0.006057
-0.0152415
0.0134229
-0.0320062
0.0219331
-0.0497085
0.0297829
-0.0648387
0.0359565
-0.075915
0.0403157
-0.0832454
0.0432284
-0.0879229
0.0451933
-0.0910658
0.0466235
-0.0934857
0.0477829
-0.0956541
0.0488102
-0.0977981
0.0497675
-0.10001
0.0506801
-0.10232
0.0515585
-0.104738
0.0524073
-0.107264
0.0532295
-0.109899
0.0540278
-0.112644
0.0548058
-0.115501
0.0555673
-0.118468
0.0563132
-0.121542
0.0570432
-0.124716
0.0577548
-0.127986
-0.131334
0.0584344
0.00174427
-0.00483203
0.00682728
-0.0203245
0.0141718
-0.0393507
0.0217843
-0.057321
0.028128
-0.0711824
0.0326759
-0.0804629
0.0356312
-0.0862007
0.0374772
-0.0897689
0.0386703
-0.0922589
0.0395215
-0.0943369
0.0402009
-0.0963336
0.0407872
-0.0983844
0.0413126
-0.100535
0.0417898
-0.102797
0.0422245
-0.105172
0.0426207
-0.10766
0.0429823
-0.110261
0.0433137
-0.112976
0.0436184
-0.115806
0.0438981
-0.118748
0.0441539
-0.121798
0.0443857
-0.124948
0.0445895
-0.128189
-0.131513
0.0447683
0.00200038
-0.00683241
0.00730609
-0.0256302
0.0142026
-0.0462472
0.0206393
-0.0637577
0.0254964
-0.0760395
0.0286504
-0.0836168
0.0304968
-0.0880472
0.0315257
-0.0907978
0.0321098
-0.092843
0.0324671
-0.0946942
0.0327018
-0.0965683
0.032857
-0.0985396
0.0329496
-0.100628
0.0329871
-0.102835
0.0329741
-0.105159
0.0329145
-0.1076
0.0328121
-0.110158
0.0326702
-0.112834
0.0324923
-0.115628
0.032282
-0.118538
0.0320423
-0.121558
0.0317731
-0.124679
0.0314707
-0.127887
0.031142
-0.131184
-0.000562851
-0.00713844
0.00770129
-0.00202049
-0.0136037
0.0150613
-0.00414666
-0.0156161
0.0177423
-0.00676593
-0.015335
0.0179542
-0.00976029
-0.0140853
0.0170796
-0.0130466
-0.0124446
0.0157309
-0.0165592
-0.010502
0.0140145
-0.0202407
-0.00814178
0.0118233
-0.0240364
-0.00521401
0.00900971
-0.0279021
-0.00157231
0.00543806
-0.0316104
0.00273873
0.000969492
-0.0353075
0.00787574
-0.00417863
-0.038826
0.0138369
-0.0103185
-0.0420689
0.0205876
-0.0173447
-0.0449319
0.0280449
-0.0251819
-0.0472947
0.0360728
-0.03371
-0.0490175
0.0444765
-0.0427536
-0.0499385
0.0529993
-0.0520783
-0.0498685
0.0613229
-0.0613929
-0.0485746
0.06907
-0.070364
-0.0457718
0.0758282
-0.078631
-0.0411434
0.081172
-0.0858005
-0.0343148
0.0846319
-0.0914604
0.0858736
-0.0249394
-0.0952491
-0.000761673
-0.00637676
-0.00248226
-0.0118831
-0.00483759
-0.0132608
-0.0076633
-0.0125093
-0.0108778
-0.0108708
-0.0144193
-0.00890308
-0.0182206
-0.00670067
-0.0222104
-0.00415197
-0.0263093
-0.0011151
-0.030344
0.00246239
-0.0343033
0.006698
-0.0380422
0.0116146
-0.0414183
0.0172131
-0.0442752
0.0234445
-0.0464391
0.0302087
-0.0477151
0.0373489
-0.0478853
0.0446467
-0.0467077
0.0518217
-0.0439209
0.0585361
-0.0392563
0.0644054
-0.0324185
0.0689904
-0.0231594
0.0719128
-0.0112911
0.0727636
0.0711031
0.00347935
-0.000838389
-0.00553838
-0.00260132
-0.0101201
-0.00491759
-0.0109445
-0.00763748
-0.00978936
-0.010709
-0.0077993
-0.0140853
-0.00552671
-0.0176906
-0.00309543
-0.0214289
-0.000413704
-0.0251572
0.00261322
-0.0287874
0.00609263
-0.0321614
0.010072
-0.0351134
0.0145667
-0.0374551
0.0195547
-0.0389796
0.024969
-0.0394626
0.0306918
-0.0386636
0.0365499
-0.0363334
0.0423164
-0.0322197
0.047708
-0.026074
0.0523903
-0.0176833
0.0560148
-0.00689943
0.0582066
0.00647688
0.0585365
0.022159
0.0570815
0.0523661
0.040896
-0.000813043
-0.00472533
-0.00244767
-0.00848552
-0.0045192
-0.00887299
-0.00688536
-0.0074232
-0.0095112
-0.00517346
-0.0123609
-0.00267699
-0.0153559
-0.000100439
-0.0183647
0.00259512
-0.0212544
0.00550284
-0.0238652
0.00870344
-0.0260242
0.012231
-0.0275379
0.0160804
-0.0281912
0.0202081
-0.0277524
0.0245302
-0.0259796
0.028919
-0.0226292
0.0331995
-0.0174602
0.0371474
-0.0102638
0.0405116
-0.000875242
0.0430018
0.0108797
0.0442599
0.0248914
0.0441948
0.041444
0.0419839
0.0597361
0.0387894
0.0315219
0.0805803
-0.00072862
-0.00399671
-0.00214796
-0.00706618
-0.00387397
-0.00714699
-0.00575579
-0.00554138
-0.00775791
-0.00317134
-0.00984576
-0.000589134
-0.0119601
0.00201385
-0.0139546
0.00458966
-0.0156673
0.00721555
-0.0169171
0.0099532
-0.0175129
0.0128268
-0.0172515
0.0158189
-0.0159176
0.0188743
-0.0132854
0.021898
-0.00913558
0.0247691
-0.00325709
0.027321
0.00452737
0.0293629
0.0143926
0.0306464
0.0263408
0.0310535
0.0405597
0.030041
0.0565814
0.0281731
0.0748581
0.0237072
0.0941452
0.0195022
0.0104281
0.115239
-0.000635614
-0.0033611
-0.00184628
-0.00585551
-0.00324611
-0.00574716
-0.00465608
-0.0041314
-0.00601585
-0.00181157
-0.00730986
0.000704874
-0.00845438
0.00315837
-0.00933666
0.00547193
-0.00978958
0.00766846
-0.00962431
0.00978794
-0.00864388
0.0118464
-0.00664887
0.0138239
-0.00344386
0.0156693
0.00115529
0.0172988
0.00733148
0.0185929
0.0152317
0.0194208
0.0249589
0.0196357
0.0365737
0.0190317
0.0499749
0.0176523
0.0652856
0.0147303
0.0818429
0.0116158
0.100258
0.00529229
0.11906
0.000699932
-0.0101353
0.139623
-0.000578652
-0.00278245
-0.00166751
-0.00476665
-0.0028669
-0.00454777
-0.00395756
-0.00304075
-0.0048403
-0.000928825
-0.00547315
0.00133772
-0.00579321
0.00347843
-0.00570316
0.00538189
-0.00506084
0.00702614
-0.00369655
0.00842364
-0.00143114
0.00958097
0.00190772
0.0104851
0.00648736
0.0110896
0.0124554
0.0113307
0.0199267
0.0111217
0.0289794
0.0103681
0.0396745
0.00894059
0.0519699
0.00673628
0.0658961
0.00372613
0.0813518
-0.000725451
0.0981961
-0.0052284
0.116758
-0.0132701
0.136126
-0.0186675
-0.0316784
0.157669
-0.000584557
-0.00219789
-0.00168142
-0.00366979
-0.00286211
-0.00336708
-0.00386402
-0.00203884
-0.00454915
-0.000243695
-0.00483494
0.00162351
-0.00466451
0.003308
-0.00395841
0.00467579
-0.00260627
0.005674
-0.000471003
0.00628838
0.00259465
0.00651532
0.0067457
0.00633401
0.0121273
0.00570808
0.0188756
0.00458238
0.0271142
0.00288305
0.0369519
0.000530437
0.048509
-0.00261651
0.0618054
-0.0065601
0.077101
-0.0115695
0.0940245
-0.0176489
0.113268
-0.0244715
0.13383
-0.033833
0.156474
-0.0413107
-0.0554624
0.180258
-0.000651339
-0.00154655
-0.00187249
-0.00244864
-0.00319627
-0.00204329
-0.00432462
-0.000910493
-0.00507651
0.000508193
-0.00534364
0.00189063
-0.00504752
0.00301188
-0.00410407
0.00373234
-0.00240387
0.0039738
0.000196238
0.00368827
0.00386648
0.00284508
0.00880095
0.00139953
0.0152106
-0.000701544
0.0233033
-0.00351038
0.0332709
-0.00708451
0.0452936
-0.0114922
0.0594373
-0.0167602
0.0757838
-0.0229066
0.0942751
-0.0300608
0.114493
-0.0378664
0.136793
-0.0467717
0.159184
-0.0562238
0.183395
-0.0655225
-0.0773784
0.205311
-0.000738335
-0.000808215
-0.00211573
-0.00107124
-0.00362729
-0.000531733
-0.00494101
0.000403228
-0.0058412
0.00140839
-0.00617116
0.0022206
-0.00579441
0.00263513
-0.00455914
0.00249708
-0.0022813
0.00169595
0.00127854
0.000128432
0.00636775
-0.00224414
0.013255
-0.00548769
0.0221758
-0.00962236
0.0333051
-0.0146397
0.0467108
-0.0204902
0.0623643
-0.0271457
0.0800344
-0.0344304
0.0995147
-0.0423869
0.120127
-0.0506735
0.141551
-0.0592895
0.162867
-0.0680881
0.182933
-0.0762895
0.202137
-0.0847269
-0.0917904
0.216549
-0.000774108
-3.4107e-05
-0.002203
0.00035765
-0.00375236
0.00101762
-0.00505842
0.0017093
-0.00584395
0.00219391
-0.00586803
0.00224467
-0.00488658
0.00165367
-0.00261933
0.000229837
0.00120995
-0.00213333
0.0068914
-0.00555303
0.0147017
-0.0100544
0.0248063
-0.0155923
0.0372398
-0.0220559
0.051882
-0.0292819
0.0684523
-0.0370604
0.0865065
-0.0452
0.105487
-0.0534104
0.124732
-0.0616322
0.143426
-0.0693674
0.161075
-0.0769387
0.176472
-0.0834852
0.189902
-0.0897198
0.200266
-0.0950903
-0.0989983
0.207474
-0.000700251
-0.00195951
-0.00324013
-0.00413084
-0.00427572
-0.00332966
-0.000932314
0.00322859
0.00949487
0.0180762
0.029028
0.0422132
0.0572934
0.0737525
0.0909513
0.108158
0.124686
0.139798
0.15306
0.164027
0.172616
0.179456
0.184218
0.190139
-0.00794938
0.113437
-0.130427
0.0126608
0.103613
-0.124223
0.0353987
0.0865626
-0.1093
0.058874
0.0626071
-0.0860824
0.080711
0.0342072
-0.0560442
0.098938
0.00262275
-0.0208497
0.113781
-0.0344087
0.0195659
0.126452
-0.0779953
0.0653238
0.136859
-0.121445
0.111038
0.143889
-0.154471
0.147441
0.14731
-0.171999
0.168579
0.14756
-0.176458
0.176207
0.145576
-0.174923
0.176907
0.142919
-0.17196
0.174618
0.139931
-0.168624
0.171611
0.135023
-0.169941
0.17485
0.127381
-0.18118
0.188822
0.119319
-0.194179
0.202241
0.114829
-0.185167
0.189656
0.11587
-0.135381
0.134341
0.122361
-0.0497833
0.0432926
0.132272
0.0462737
-0.0561847
0.142899
0.12639
-0.137017
0.151186
0.178959
-0.187246
0.156821
0.205665
-0.211301
0.160809
0.21148
-0.215468
0.162243
0.212362
-0.213796
0.159686
0.228814
-0.226257
0.153166
0.258006
-0.251487
0.143964
0.269799
-0.260597
0.134439
0.233594
-0.224069
0.128278
0.143635
-0.137474
0.127829
0.0189665
-0.0185179
0.132041
-0.10017
0.095958
0.138618
-0.188428
0.181851
0.14401
-0.234999
0.229608
0.143246
-0.255123
0.255886
0.13491
-0.268694
0.27703
0.123019
-0.272
0.283891
0.113489
-0.23968
0.249209
0.111103
-0.149069
0.151456
0.117313
-0.0284689
0.0222588
0.126112
0.0927609
-0.10156
0.130266
0.182424
-0.186578
0.12767
0.259728
-0.257131
0.122824
0.303767
-0.298922
0.119933
0.278258
-0.275367
0.120435
0.203783
-0.204284
0.122683
0.044594
-0.0468418
0.123642
-0.0918278
0.0908687
0.121113
-0.242879
0.245407
0.119105
-0.328022
0.330031
0.118181
-0.283257
0.284181
0.117408
-0.203903
0.204676
0.11332
0.0964351
-0.0923465
0.111525
0.236958
-0.235163
0.110317
0.291047
-0.289839
0.108532
0.356543
-0.354759
0.102454
-0.00319606
0.00927398
-0.156379
0.159238
0.0243697
0.0925464
0.0464755
0.081507
0.0690092
0.0640288
0.0904637
0.0411526
0.109088
0.0155829
0.123858
-0.0121475
0.135458
-0.0460087
0.144805
-0.0873424
0.151207
-0.127847
0.153598
-0.156862
0.152406
-0.170806
0.148898
-0.17295
0.143945
-0.169969
0.138795
-0.166811
0.133832
-0.16366
0.127121
-0.16323
0.117286
-0.171345
0.106714
-0.183607
0.100447
-0.178899
0.101645
-0.13658
0.11013
-0.058268
0.123529
0.032874
0.137456
0.112463
0.148748
0.167667
0.157283
0.19713
0.163752
0.20501
0.167571
0.208544
0.167835
0.228551
0.164146
0.261695
0.156652
0.277292
0.14721
0.243036
0.139429
0.151417
0.136066
0.0223298
0.136802
-0.100905
0.139927
-0.191554
0.142994
-0.238065
0.14106
-0.253189
0.131865
-0.259499
0.119474
-0.259608
0.110659
-0.230866
0.109847
-0.148257
0.117448
-0.03607
0.126902
0.0833073
0.131376
0.17795
0.129543
0.261561
0.124827
0.308483
0.121476
0.281609
0.121565
0.203694
0.123527
0.0426311
0.124265
-0.0925656
0.12064
-0.239254
0.118225
-0.325606
0.116972
-0.282004
0.11708
-0.204011
0.114604
0.0989108
0.112632
0.23893
0.112246
0.291433
0.110072
0.358717
0.102995
0.00388092
-0.153375
0.0614818
0.0719607
0.0821622
0.0608266
0.101873
0.0443179
0.119485
0.0235404
0.133958
0.00111009
0.145298
-0.0234869
0.154196
-0.0549069
0.160718
-0.0938645
0.163567
-0.130696
0.161835
-0.15513
0.156606
-0.165577
0.149951
-0.166296
0.142683
-0.162702
0.135396
-0.159524
0.128852
-0.157117
0.121204
-0.155582
0.109992
-0.160133
0.0971218
-0.170737
0.0887159
-0.170493
0.0895265
-0.13739
0.0994635
-0.068205
0.115334
0.0170031
0.131974
0.0958228
0.14614
0.153502
0.157507
0.185763
0.166521
0.195997
0.172967
0.202097
0.176354
0.225164
0.175809
0.262241
0.170384
0.282717
0.161197
0.252223
0.15172
0.160894
0.145162
0.0288873
0.142366
-0.0981089
0.141913
-0.191102
0.142503
-0.238655
0.13971
-0.250397
0.130086
-0.249875
0.117184
-0.246706
0.108688
-0.22237
0.109196
-0.148765
0.117887
-0.0447611
0.128084
0.0731103
0.133153
0.172881
0.132204
0.26251
0.127532
0.313155
0.123493
0.285648
0.123021
0.204166
0.124749
0.0409034
0.125411
-0.0932278
0.120749
-0.234591
0.11774
-0.322597
0.116186
-0.28045
0.117178
-0.205003
0.116382
0.0997065
0.114278
0.241034
0.114578
0.291133
0.112192
0.361104
0.104238
0.0118342
-0.150153
0.0986693
0.0538717
0.116026
0.0434703
0.131616
0.0287271
0.144543
0.0106139
0.155111
-0.00945762
0.163603
-0.031979
0.170784
-0.0620886
0.174915
-0.097995
0.173987
-0.129769
0.168174
-0.149317
0.159442
-0.156845
0.150184
-0.157037
0.14133
-0.153848
0.13266
-0.150854
0.124722
-0.149178
0.116691
-0.147551
0.105475
-0.148917
0.0913305
-0.156593
0.080567
-0.159729
0.0798566
-0.13668
0.0899767
-0.0783252
0.107359
-0.000378746
0.12612
0.0770611
0.142865
0.136756
0.156906
0.171723
0.168423
0.184479
0.177616
0.192904
0.184434
0.218345
0.187423
0.259252
0.184511
0.28563
0.175785
0.260949
0.164644
0.172035
0.154938
0.038593
0.148709
-0.0918796
0.1447
-0.187093
0.142502
-0.236456
0.138908
-0.246803
0.129351
-0.240318
0.116085
-0.233439
0.107469
-0.213755
0.108799
-0.150094
0.118442
-0.054404
0.129574
0.0619779
0.13552
0.166935
0.135519
0.26251
0.13085
0.317824
0.125994
0.290504
0.124805
0.205356
0.126324
0.0393841
0.127055
-0.0939583
0.121441
-0.228978
0.117685
-0.318841
0.115814
-0.278579
0.117696
-0.206885
0.118591
0.0988115
0.116482
0.243143
0.117322
0.290293
0.114864
0.363562
0.106166
0.0205323
-0.146676
0.130228
0.0388824
0.143868
0.0298307
0.155501
0.0170941
0.164645
0.00146945
0.172177
-0.0169897
0.179044
-0.0388452
0.184663
-0.067708
0.186047
-0.0993784
0.181279
-0.125001
0.171809
-0.139847
0.160421
-0.145458
0.149344
-0.14596
0.139526
-0.14403
0.130364
-0.141692
0.121748
-0.140562
0.113532
-0.139335
0.103064
-0.13845
0.0888403
-0.142369
0.0759909
-0.14688
0.0727737
-0.133463
0.0819348
-0.0874862
0.0995613
-0.0180052
0.119857
0.0567649
0.138721
0.117893
0.154994
0.155449
0.168764
0.17071
0.180706
0.180963
0.191028
0.208023
0.197851
0.252429
0.198217
0.285263
0.190871
0.268295
0.178138
0.184768
0.165161
0.0515698
0.155529
-0.0822476
0.148098
-0.179662
0.142953
-0.231312
0.1385
-0.24235
0.129463
-0.231281
0.116077
-0.220053
0.106916
-0.204594
0.108466
-0.151644
0.118909
-0.0648466
0.13117
0.0497162
0.138384
0.159722
0.139572
0.261322
0.134928
0.322468
0.129115
0.296317
0.126992
0.207479
0.128227
0.0381486
0.129157
-0.0948883
0.122695
-0.222516
0.118072
-0.314218
0.115828
-0.276335
0.118567
-0.209625
0.12119
0.0961889
0.119168
0.245165
0.120458
0.289003
0.118061
0.365959
0.108753
0.0298407
-0.142928
0.151979
0.0265269
0.162987
0.0188222
0.172123
0.00795897
0.180117
-0.00652524
0.186531
-0.0234036
0.192535
-0.0448488
0.195952
-0.0711248
0.193687
-0.0971143
0.185174
-0.116487
0.172954
-0.127626
0.160012
-0.132516
0.147987
-0.133935
0.137599
-0.133642
0.128322
-0.132415
0.119463
-0.131703
0.111343
-0.131215
0.102247
-0.129354
0.0892334
-0.129355
0.0750461
-0.132693
0.068512
-0.126929
0.0752265
-0.0942007
0.0919635
-0.0347423
0.113067
0.0356611
0.133496
0.0974648
0.151567
0.137378
0.167263
0.155014
0.181644
0.166582
0.195332
0.194334
0.206092
0.24167
0.209858
0.281497
0.204549
0.273604
0.191643
0.197675
0.17558
0.0676324
0.162573
-0.06924
0.151905
-0.168994
0.143761
-0.223168
0.138201
-0.23679
0.130047
-0.223127
0.116967
-0.206973
0.106946
-0.194573
0.108046
-0.152745
0.119057
-0.0758573
0.13268
0.0360929
0.141496
0.150906
0.144055
0.258763
0.139601
0.326922
0.132909
0.303009
0.129664
0.210725
0.130455
0.0373577
0.131664
-0.0960978
0.124472
-0.215323
0.118887
-0.308633
0.116197
-0.273646
0.119701
-0.213128
0.124093
0.0917961
0.122261
0.246998
0.123945
0.287318
0.12174
0.368164
0.111964
0.039617
-0.13891
0.168297
0.0158985
0.178163
0.00895643
0.186887
-0.000764695
0.194207
-0.0138455
0.200183
-0.0293795
0.20431
-0.0489755
0.203965
-0.0707799
0.197263
-0.0904128
0.185419
-0.104644
0.171501
-0.113708
0.158034
-0.119049
0.145925
-0.121826
0.13545
-0.123167
0.126414
-0.12338
0.11777
-0.123059
0.109566
-0.123011
0.101698
-0.121487
0.0911482
-0.118805
0.0773304
-0.118875
0.0675139
-0.117112
0.0701208
-0.0968076
0.0847566
-0.049378
0.105825
0.0145927
0.127254
0.0760362
0.146584
0.118047
0.163675
0.137923
0.180085
0.150172
0.196824
0.177595
0.211424
0.227069
0.219179
0.273741
0.21667
0.276113
0.20418
0.210165
0.185939
0.0858737
0.169438
-0.0527392
0.155802
-0.155358
0.144845
-0.212211
0.137855
-0.2298
0.130724
-0.215996
0.118497
-0.194746
0.107526
-0.183603
0.107487
-0.152706
0.118691
-0.0870611
0.133831
0.0209533
0.144665
0.140071
0.149051
0.254377
0.145092
0.330881
0.137571
0.310529
0.132955
0.215341
0.133004
0.0373082
0.134508
-0.0976012
0.126714
-0.20753
0.120094
-0.302012
0.116879
-0.270431
0.121008
-0.217257
0.127216
0.0855875
0.125696
0.248519
0.12774
0.285274
0.125848
0.370056
0.115757
0.0497079
-0.134636
0.188649
0.00750709
0.196586
0.00101924
0.203909
-0.00808721
0.20896
-0.0188971
0.212097
-0.0325156
0.211849
-0.0487278
0.206344
-0.0652754
0.195598
-0.0796666
0.181927
-0.0909721
0.167815
-0.0995962
0.154738
-0.105971
0.14313
-0.110219
0.132916
-0.112953
0.124161
-0.114624
0.116148
-0.115046
0.108203
-0.115066
0.100956
-0.11424
0.092997
-0.110846
0.0815325
-0.10741
0.069977
-0.105557
0.0676162
-0.0944468
0.0784181
-0.0601799
0.098289
-0.00527814
0.120057
0.0542685
0.140119
0.0979851
0.158076
0.119965
0.175917
0.132331
0.195084
0.158428
0.21317
0.208984
0.22459
0.262321
0.224774
0.27593
0.213405
0.221534
0.19431
0.104968
0.175352
-0.0337811
0.159373
-0.139379
0.146032
-0.19887
0.137335
-0.221103
0.131121
-0.209782
0.120326
-0.18395
0.108631
-0.171908
0.106837
-0.150912
0.117692
-0.0979161
0.13437
0.00427526
0.147475
0.126966
0.153973
0.247879
0.151037
0.333817
0.143061
0.318505
0.136931
0.221471
0.135916
0.0383231
0.137619
-0.0993041
0.129358
-0.199269
0.121653
-0.294307
0.117834
-0.266612
0.122401
-0.221824
0.130447
0.0775409
0.129379
0.249587
0.131773
0.282881
0.130322
0.371507
0.120083
0.0599464
-0.130136
0.209988
0.00283019
0.21458
-0.00357221
0.21743
-0.0109377
0.218174
-0.0196414
0.216473
-0.0308142
0.211062
-0.0433162
0.201532
-0.0557459
0.189118
-0.0672521
0.175756
-0.0776103
0.162699
-0.0865396
0.150523
-0.0937952
0.139619
-0.0993149
0.129941
-0.103275
0.121455
-0.106138
0.113999
-0.10759
0.10669
-0.107756
0.0997534
-0.107303
0.0935617
-0.104654
0.0855281
-0.0993766
0.0749269
-0.0949553
0.0686058
-0.0881258
0.0742843
-0.0658584
0.0908873
-0.0218811
0.112266
0.0328895
0.132618
0.0776334
0.150902
0.101682
0.169232
0.114001
0.190036
0.137625
0.211507
0.187513
0.22724
0.246587
0.231348
0.271822
0.221821
0.231061
0.201818
0.124972
0.180306
-0.0122697
0.162383
-0.121455
0.147185
-0.183672
0.136615
-0.210532
0.130965
-0.204132
0.122048
-0.175034
0.110136
-0.159995
0.106204
-0.146979
0.115961
-0.107674
0.134008
-0.0137716
0.149779
0.111196
0.158972
0.238686
0.157645
0.335144
0.149402
0.326748
0.141667
0.229207
0.139119
0.0408707
0.140902
-0.101087
0.132319
-0.190686
0.123504
-0.285492
0.119012
-0.26212
0.123792
-0.226605
0.133705
0.0676283
0.133251
0.250041
0.135989
0.280142
0.13509
0.372406
0.124882
0.0701543
-0.125454
0.218267
0.00111218
0.218693
-0.00399769
0.21739
-0.00963498
0.214431
-0.0166828
0.209171
-0.0255534
0.201214
-0.0353595
0.191057
-0.0455892
0.179722
-0.055917
0.168037
-0.0659253
0.156506
-0.0750086
0.145485
-0.0827744
0.13539
-0.0892193
0.126369
-0.0942538
0.118261
-0.0980308
0.111147
-0.100476
0.104603
-0.101212
0.0981424
-0.100843
0.0926436
-0.0991551
0.087458
-0.0941911
0.0800095
-0.0875068
0.0725907
-0.080707
0.0730685
-0.0663362
0.0849349
-0.0337475
0.104257
0.013567
0.124108
0.0577825
0.142167
0.083623
0.160494
0.0956738
0.181966
0.116153
0.20523
0.164249
0.224262
0.227555
0.232123
0.263961
0.225208
0.237976
0.20601
0.144169
0.183937
0.00980406
0.164568
-0.102087
0.148044
-0.167148
0.135583
-0.198072
0.13002
-0.198568
0.123247
-0.168262
0.111782
-0.14853
0.105661
-0.140858
0.113586
-0.115599
0.132499
-0.0326849
0.150838
0.0928569
0.163033
0.226492
0.16419
0.333987
0.15648
0.334457
0.147116
0.23857
0.142708
0.0452789
0.144274
-0.102653
0.13551
-0.181921
0.125567
-0.275549
0.12036
-0.256913
0.125117
-0.231362
0.13686
0.0558851
0.137184
0.249717
0.140303
0.277023
0.140083
0.372627
0.130089
0.0801481
-0.120649
0.207753
0.000833116
0.206567
-0.00281167
0.204012
-0.00708001
0.200137
-0.012808
0.194572
-0.0199883
0.18739
-0.0281772
0.178956
-0.0371559
0.169619
-0.0465801
0.15965
-0.0559563
0.14946
-0.0648187
0.139532
-0.0728464
0.130241
-0.0799281
0.121811
-0.0858236
0.114168
-0.090388
0.107305
-0.093613
0.101296
-0.0952033
0.095632
-0.0951789
0.0905042
-0.0940272
0.08667
-0.0903569
0.0825485
-0.0833853
0.0770094
-0.0751679
0.0746806
-0.0640074
0.0816463
-0.0407132
0.0978616
-0.0026483
0.116181
0.0394629
0.133268
0.0665363
0.150407
0.0785344
0.171552
0.0950081
0.197188
0.138613
0.220363
0.20438
0.231997
0.252328
0.2278
0.242173
0.209772
0.162196
0.185351
0.0342252
0.165242
-0.0819778
0.148241
-0.150148
0.134246
-0.184076
0.12824
-0.192563
0.123659
-0.16368
0.113329
-0.1382
0.105249
-0.132778
0.110522
-0.120872
0.129782
-0.0519456
0.151009
0.0716305
0.166698
0.210802
0.17062
0.330065
0.163836
0.341242
0.153095
0.249311
0.146378
0.0519956
0.147564
-0.103838
0.138845
-0.173203
0.127809
-0.264514
0.121844
-0.250947
0.126341
-0.235859
0.139878
0.0423478
0.141139
0.248456
0.144664
0.273498
0.145236
0.372055
0.135643
0.0897411
-0.115792
0.190151
0.000821468
0.189142
-0.00180257
0.187275
-0.00521337
0.184346
-0.0098782
0.18008
-0.0157224
0.174553
-0.0226502
0.167844
-0.0304473
0.160074
-0.0388098
0.151516
-0.0473981
0.142597
-0.0558999
0.133759
-0.0640085
0.125317
-0.071486
0.117459
-0.0779659
0.110287
-0.0832155
0.103781
-0.0871069
0.0980544
-0.0894771
0.0930163
-0.0901407
0.0883965
-0.0894075
0.0848392
-0.0867995
0.0824122
-0.0809582
0.0795881
-0.0723438
0.0774043
-0.0618236
0.0809117
-0.0442207
0.0919331
-0.0136697
0.108006
0.0233899
0.123601
0.050941
0.139039
0.0630965
0.15798
0.0760678
0.182347
0.114246
0.20763
0.179096
0.224933
0.235025
0.226074
0.241032
0.21052
0.17775
0.187321
0.0574238
0.166315
-0.0609714
0.148814
-0.132646
0.133445
-0.168708
0.126299
-0.185417
0.123522
-0.160903
0.114808
-0.129486
0.105188
-0.123158
0.107561
-0.123246
0.125594
-0.0699784
0.148712
0.0485129
0.168136
0.191378
0.176126
0.322075
0.171759
0.345608
0.159931
0.26114
0.150659
0.061267
0.150916
-0.104095
0.142451
-0.164737
0.130277
-0.25234
0.123552
-0.244222
0.127545
-0.239853
0.142595
0.027298
0.144952
0.246099
0.148971
0.269479
0.15045
0.370576
0.141489
0.0987026
-0.110943
0.208317
0.00078264
-0.208278
0.209018
-0.00250355
0.209804
-0.00600016
0.210218
-0.0102922
0.210027
-0.0155311
0.20907
-0.0216934
0.207239
-0.0286156
0.204483
-0.0360542
0.20084
-0.0437547
0.196393
-0.0514537
0.19121
-0.0588247
0.185384
-0.0656599
0.178965
-0.0715478
0.172084
-0.0763339
0.164877
-0.0798998
0.1574
-0.0820002
0.149874
-0.0826151
0.142246
-0.0817792
0.134391
-0.0789447
0.126822
-0.073389
0.119317
-0.0648389
0.110747
-0.0532534
0.103011
-0.0364851
0.10047
-0.0111285
0.10411
0.0197499
0.112751
0.0422996
0.123855
0.0519925
0.135248
0.0646752
0.146851
0.102642
0.159673
0.166275
0.172703
0.221994
0.183738
0.229997
0.191419
0.170069
0.193713
0.0551298
0.191469
-0.058727
0.183817
-0.124994
0.170511
-0.155402
0.159296
-0.174201
0.151061
-0.152669
0.138766
-0.11719
0.125239
-0.109631
0.11986
-0.117866
0.12635
-0.076468
0.136091
0.0387712
0.145081
0.182389
0.149594
0.317562
0.151345
0.343856
0.151968
0.260517
0.153343
0.0598922
0.15837
-0.109122
0.151913
-0.15828
0.138945
-0.239372
0.128944
-0.234221
0.125912
-0.23682
0.133218
0.0199912
0.133568
0.24575
0.136947
0.2661
0.140611
0.366911
0.134291
0.105023
-0.105385
0.217693
0.000628245
-0.217539
0.217862
-0.00267247
0.218176
-0.00631448
0.218258
-0.0103742
0.217843
-0.0151156
0.216737
-0.0205877
0.214827
-0.0267053
0.212067
-0.0332944
0.208434
-0.0401219
0.203954
-0.0469734
0.198653
-0.0535239
0.192629
-0.059636
0.186036
-0.0649548
0.179021
-0.0693184
0.171815
-0.072694
0.164524
-0.0747087
0.157183
-0.0752745
0.149952
-0.0745477
0.142673
-0.0716664
0.135443
-0.066159
0.128984
-0.0583793
0.122788
-0.0470579
0.116636
-0.0303334
0.112841
-0.00733327
0.114672
0.0179192
0.121402
0.0355698
0.131172
0.0422223
0.141908
0.0539392
0.153897
0.0906528
0.16802
0.152152
0.182445
0.207569
0.194898
0.217545
0.20407
0.160896
0.207755
0.0514447
0.204685
-0.0556563
0.195999
-0.116309
0.181647
-0.14105
0.169242
-0.161796
0.161154
-0.144581
0.149874
-0.10591
0.135928
-0.0956852
0.128937
-0.110876
0.1349
-0.0824305
0.146106
0.027565
0.157671
0.170824
0.164885
0.310348
0.168719
0.340023
0.169607
0.259629
0.169604
0.0598947
0.173553
-0.113071
0.16583
-0.150557
0.150838
-0.224381
0.139511
-0.222893
0.136243
-0.233553
0.144499
0.0117356
0.145403
0.244846
0.149171
0.262332
0.153891
0.362191
0.147755
0.111159
-0.0993842
0.226635
0.000287549
-0.226294
0.226768
-0.00280553
0.226818
-0.00636496
0.226649
-0.0102048
0.22606
-0.0145268
0.224875
-0.0194021
0.222975
-0.024806
0.220315
-0.030634
0.216864
-0.036671
0.212646
-0.0427551
0.207711
-0.0485894
0.202137
-0.054062
0.196072
-0.0588901
0.18963
-0.0628764
0.182908
-0.0659713