/*--------------------------------*- C++ -*----------------------------------*\
| =========                 |                                                 |
| \\      /  F ield         | OpenFOAM: The Open Source CFD Toolbox           |
|  \\    /   O peration     | Version:  2512                                  |
|   \\  /    A nd           | Website:  www.openfoam.com                      |
|    \\/     M anipulation  |                                                 |
\*---------------------------------------------------------------------------*/
FoamFile
{
    version     2.0;
    format      ascii;
    arch        "LSB;label=32;scalar=64";
    class       volVectorField;
    location    "35.05";
    object      U;
}
// * * * * * * * * * * * * * * * * * * * * * * * * * * * * * * * * * * * * * //

dimensions      [0 1 -1 0 0 0 0];

internalField   nonuniform List<vector> 
13248
(
(-0.0107926 0.00733946 2.78271e-20)
(-0.0269564 0.0154209 0)
(-0.0380866 0.0183939 -4.84171e-20)
(-0.0415662 0.0194108 4.48337e-20)
(-0.0357718 0.0199003 4.11431e-20)
(-0.0192844 0.0206237 0)
(0.00932271 0.0222008 0)
(0.0513174 0.0252007 9.29939e-20)
(0.10757 0.0302446 -1.14617e-21)
(0.178221 0.0379337 -7.80961e-20)
(0.262386 0.0486462 7.03013e-20)
(0.358093 0.0624855 -4.33884e-20)
(0.462397 0.0792152 0)
(0.5717 0.0982421 -7.26553e-20)
(0.682047 0.118725 1.35248e-19)
(0.789736 0.13951 -3.14862e-20)
(0.891012 0.159649 -5.96205e-20)
(0.98343 0.177525 5.55786e-20)
(1.06416 0.193201 0)
(1.13229 0.203566 0)
(1.18694 0.212492 0)
(1.22794 0.211299 0)
(1.25575 0.214032 2.12528e-20)
(1.27684 0.197889 8.54504e-20)
(-0.0148962 0.00981583 -8.36633e-20)
(-0.0325078 0.0188615 5.29732e-20)
(-0.0399018 0.020958 -2.57441e-22)
(-0.0353077 0.0204181 -6.7793e-20)
(-0.0171432 0.0195468 -4.10866e-20)
(0.0162816 0.0197655 -3.79881e-20)
(0.066575 0.0221598 -6.83165e-20)
(0.134689 0.0276224 6.37579e-20)
(0.220287 0.0368467 0)
(0.321367 0.0501501 5.24628e-22)
(0.434213 0.0673815 1.14652e-21)
(0.553829 0.0878833 4.3722e-20)
(0.67462 0.110558 0)
(0.791099 0.133999 0)
(0.898481 0.156724 5.0599e-20)
(0.99304 0.17724 -9.42773e-20)
(1.07233 0.194449 5.87644e-20)
(1.13535 0.207306 -5.47839e-20)
(1.18195 0.215562 -2.53915e-20)
(1.21412 0.21884 -4.88935e-20)
(1.23273 0.217726 -2.28117e-20)
(1.24288 0.212426 -4.39133e-20)
(1.24419 0.204651 5.99772e-20)
(1.24663 0.194366 1.85737e-20)
(-0.0182421 0.011298 0)
(-0.035095 0.0208076 0)
(-0.0352564 0.0227585 2.43645e-20)
(-0.0177892 0.022066 2.21984e-20)
(0.0187933 0.0217227 -4.93731e-22)
(0.0761044 0.0237521 -3.89621e-20)
(0.155041 0.0296382 0)
(0.254697 0.0403463 -3.15686e-20)
(0.371643 0.0561837 2.9097e-20)
(0.499999 0.0766766 2.99e-22)
(0.632311 0.100605 -4.78598e-20)
(0.760816 0.126207 -4.32783e-20)
(0.878618 0.151488 6.53451e-22)
(0.980517 0.174548 -3.5887e-20)
(1.06339 0.193858 8.45935e-20)
(1.1263 0.20836 0)
(1.17022 0.217807 -5.75375e-20)
(1.19766 0.221948 2.72689e-20)
(1.21234 0.222323 2.53643e-20)
(1.21815 0.217998 0)
(1.21923 0.213386 2.23171e-20)
(1.21862 0.203826 -8.12654e-20)
(1.2191 0.199071 7.589e-20)
(1.22093 0.187604 5.3295e-20)
(-0.0202142 0.0114635 -2.90223e-20)
(-0.0332318 0.0203977 -2.7762e-20)
(-0.0220716 0.0225541 2.49801e-20)
(0.0135038 0.022971 0)
(0.0746568 0.0251669 0)
(0.162038 0.0316239 -5.95779e-22)
(0.274095 0.0438886 0)
(0.405769 0.0623822 -9.60487e-20)
(0.548562 0.0862618 8.79041e-20)
(0.692082 0.113589 -1.06824e-19)
(0.826201 0.141795 2.40192e-20)
(0.94287 0.168256 0)
(1.03714 0.190797 3.95437e-20)
(1.10741 0.208033 -7.2933e-20)
(1.15505 0.219435 1.71055e-20)
(1.18368 0.225383 4.56658e-20)
(1.19819 0.226649 -6.74173e-22)
(1.20383 0.224683 -5.13484e-20)
(1.20499 0.220335 0)
(1.20531 0.214939 0)
(1.2058 0.209046 -2.00282e-20)
(1.20853 0.202008 1.85221e-20)
(1.20991 0.19721 7.07955e-20)
(1.2148 0.187568 -6.60751e-20)
(-0.0204213 0.0103737 -3.03293e-20)
(-0.0256361 0.0175927 -2.81623e-20)
(0.00173034 0.0202592 7.78115e-20)
(0.0612138 0.0232572 -4.68072e-20)
(0.152926 0.0304526 4.33622e-20)
(0.274688 0.0443762 7.79643e-20)
(0.419726 0.0658013 -5.41966e-20)
(0.576466 0.0935069 -6.48108e-20)
(0.730963 0.124652 1.43344e-21)
(0.870393 0.155678 8.08466e-20)
(0.985732 0.183294 0)
(1.07288 0.205199 2.18444e-20)
(1.13243 0.220395 0)
(1.16847 0.229101 -3.56339e-20)
(1.18709 0.232453 4.97126e-20)
(1.1947 0.231915 3.76443e-22)
(1.19678 0.229051 -1.34394e-20)
(1.19697 0.224788 2.54956e-20)
(1.19727 0.220033 2.24815e-20)
(1.19785 0.214542 -2.06143e-20)
(1.19876 0.209118 2.00193e-20)
(1.19899 0.20217 -1.85138e-20)
(1.19858 0.196852 0)
(1.19931 0.187765 -1.47674e-20)
(-0.0185099 0.00836429 3.03218e-20)
(-0.0109083 0.0131722 2.94117e-20)
(0.0385313 0.0171743 -2.60708e-20)
(0.128151 0.0249226 4.78456e-20)
(0.255179 0.0402028 -4.43218e-20)
(0.411401 0.0645749 3.96436e-20)
(0.581893 0.0965653 -1.87207e-20)
(0.748369 0.132235 4.87019e-20)
(0.894645 0.166773 -3.02051e-20)
(1.01059 0.19612 5.28837e-20)
(1.09323 0.217931 -1.2087e-19)
(1.14559 0.231764 4.408e-20)
(1.17439 0.238658 -3.86644e-20)
(1.18751 0.24044 3.59926e-20)
(1.1919 0.238969 3.16338e-20)
(1.19247 0.235739 2.82703e-20)
(1.19185 0.231539 -7.85163e-20)
(1.19106 0.226846 4.87067e-20)
(1.1901 0.221565 -2.24781e-20)
(1.18907 0.215887 6.03879e-20)
(1.1877 0.209731 -1.92907e-20)
(1.18667 0.202862 -4.97072e-20)
(1.18578 0.197238 4.61163e-20)
(1.18591 0.188465 1.47622e-20)
(-0.0139811 0.00584941 0)
(0.012586 0.0084286 2.79486e-22)
(0.0907334 0.015585 5.43504e-20)
(0.216084 0.0311324 -5.00407e-20)
(0.379588 0.0577046 -4.46435e-20)
(0.563302 0.0940514 8.18161e-20)
(0.74375 0.135048 -3.75025e-20)
(0.900147 0.174238 4.94163e-20)
(1.02047 0.206498 -1.03926e-21)
(1.1026 0.229358 -2.73594e-20)
(1.15181 0.242938 5.93461e-20)
(1.17705 0.249051 -8.6865e-20)
(1.18742 0.250084 0)
(1.19 0.248121 -1.70667e-20)
(1.18921 0.244573 -4.59814e-20)
(1.18721 0.240144 1.42805e-20)
(1.18488 0.235174 3.27199e-22)
(1.18252 0.229719 -3.32748e-20)
(1.1804 0.223918 1.10825e-21)
(1.17858 0.217813 3.84779e-20)
(1.17726 0.211449 -1.78347e-20)
(1.17635 0.204965 -7.26934e-21)
(1.17525 0.198773 2.11324e-20)
(1.17536 0.190959 0)
(-0.00612857 0.00326842 0)
(0.0465098 0.00490202 1.49308e-20)
(0.159889 0.0181444 -7.07957e-20)
(0.323905 0.0450322 2.53956e-20)
(0.518807 0.0849422 -2.35234e-20)
(0.71556 0.131864 -2.12658e-20)
(0.886841 0.177203 -3.70481e-20)
(1.01693 0.214141 1.82421e-20)
(1.1035 0.2397 1.56843e-20)
(1.1536 0.254392 0)
(1.17808 0.260706 3.5229e-20)
(1.1872 0.261546 -5.21958e-20)
(1.18843 0.259247 3.85524e-20)
(1.18624 0.255289 1.70741e-20)
(1.18287 0.25044 -1.42431e-20)
(1.17935 0.245077 -1.21926e-20)
(1.17612 0.239357 -1.15644e-20)
(1.17337 0.233403 3.34849e-20)
(1.17103 0.227235 0)
(1.16904 0.22089 1.76056e-20)
(1.16722 0.214341 1.54918e-20)
(1.16545 0.207696 -3.74161e-20)
(1.1639 0.200998 -2.69133e-20)
(1.16253 0.193653 2.46134e-20)
(0.00585736 0.00110812 -1.76146e-20)
(0.0920938 0.00427682 -7.85579e-22)
(0.245657 0.0274079 1.44632e-20)
(0.446349 0.0686434 4.00053e-20)
(0.660649 0.121383 1.14993e-20)
(0.852498 0.174496 -2.17967e-20)
(0.999267 0.218417 1.96013e-20)
(1.09632 0.248839 -1.69426e-20)
(1.1516 0.266266 3.00179e-20)
(1.17782 0.273772 1.27027e-20)
(1.18682 0.274878 -3.56277e-20)
(1.1871 0.272357 1.04656e-20)
(1.1837 0.267961 1.79056e-20)
(1.17918 0.262631 -8.7059e-21)
(1.1747 0.256827 0)
(1.17063 0.25074 1.32067e-20)
(1.16704 0.24446 2.26208e-20)
(1.16383 0.237994 4.19392e-21)
(1.16094 0.231363 -1.89192e-20)
(1.15836 0.224583 8.0358e-21)
(1.1561 0.217681 0)
(1.15425 0.210842 -6.51025e-21)
(1.15254 0.203717 -6.41399e-21)
(1.15131 0.196952 0)
(0.0226307 2.88671e-05 0)
(0.149546 0.00841255 8.59898e-21)
(0.34501 0.0454337 1.56956e-20)
(0.574367 0.102188 -4.10739e-20)
(0.792042 0.164352 1.3142e-20)
(0.963887 0.218038 0)
(1.07911 0.256131 1.89531e-20)
(1.14492 0.278382 -2.61175e-20)
(1.17591 0.288313 -1.49966e-20)
(1.18623 0.29025 6.70899e-21)
(1.18612 0.28769 -1.07027e-20)
(1.18172 0.282866 2.56708e-20)
(1.17611 0.276985 1.29147e-20)
(1.17056 0.27061 -8.80288e-21)
(1.16548 0.263967 -7.05763e-22)
(1.16091 0.257144 -2.44946e-20)
(1.15684 0.250177 1.11357e-20)
(1.15324 0.243105 -3.49064e-22)
(1.15012 0.235963 0)
(1.14746 0.228783 -8.04384e-21)
(1.14516 0.221617 0)
(1.14304 0.214442 1.87631e-20)
(1.14111 0.207026 -2.24723e-20)
(1.1391 0.200583 1.02994e-20)
(0.0444501 0.00080732 -5.05289e-21)
(0.217577 0.0191116 -2.20381e-20)
(0.452183 0.0733112 2.48575e-20)
(0.697514 0.144148 1.42409e-20)
(0.90356 0.210623 -6.66893e-21)
(1.04697 0.260098 1.09484e-20)
(1.13084 0.290119 -5.2476e-21)
(1.17107 0.304284 8.53682e-21)
(1.18487 0.307931 0)
(1.18524 0.305632 1.88828e-20)
(1.18006 0.300389 -7.43919e-22)
(1.17328 0.293823 -1.49767e-20)
(1.16653 0.286684 6.38788e-21)
(1.16033 0.279276 -7.20612e-21)
(1.1548 0.271724 -2.75935e-21)
(1.14991 0.264091 3.14936e-21)
(1.14563 0.256421 -2.42071e-21)
(1.14188 0.24874 -1.34061e-20)
(1.1386 0.241069 8.15586e-21)
(1.13574 0.233433 1.67653e-21)
(1.13322 0.225844 1.49129e-21)
(1.131 0.218267 1.32991e-21)
(1.12892 0.210661 0)
(1.12682 0.204224 0)
(0.0711403 0.00430565 5.059e-21)
(0.293385 0.0378813 -4.65087e-21)
(0.559814 0.110893 -8.34574e-21)
(0.807114 0.192146 0)
(0.991114 0.257828 -3.33437e-21)
(1.10391 0.299984 -2.9641e-21)
(1.16043 0.321263 -4.91531e-21)
(1.18137 0.328105 0)
(1.18373 0.32661 0)
(1.17819 0.320985 0)
(1.17024 0.31356 0)
(1.16219 0.305419 0)
(1.15481 0.297008 -3.99195e-21)
(1.14826 0.288506 1.79926e-21)
(1.14249 0.279987 3.1417e-21)
(1.13744 0.271489 1.4733e-21)
(1.133 0.263037 3.61996e-21)
(1.12913 0.254653 0)
(1.1258 0.246368 -8.7457e-22)
(1.12298 0.238212 -8.63229e-22)
(1.12058 0.230196 -1.49365e-21)
(1.11843 0.222247 -1.33201e-21)
(1.11636 0.214489 0)
(1.11413 0.207794 9.77761e-22)
(-0.00115982 -0.0225878 4.11024e-21)
(-0.00829437 -0.0354117 -3.91953e-21)
(-0.0217957 -0.031292 -7.27518e-21)
(-0.0379842 -0.0196151 0)
(-0.0553253 -0.00564141 -9.46965e-21)
(-0.0731315 0.0085059 2.96208e-21)
(-0.091022 0.0225696 -5.44004e-21)
(-0.108807 0.0370055 0)
(-0.126415 0.0523265 0)
(-0.143858 0.0688766 0)
(-0.161161 0.0867964 0)
(-0.178345 0.106125 0)
(-0.195413 0.126842 1.1251e-22)
(-0.212341 0.148887 -3.52029e-21)
(-0.229073 0.172153 6.51717e-21)
(-0.245512 0.196472 9.34491e-21)
(-0.261524 0.221602 2.86665e-21)
(-0.276947 0.247227 0)
(-0.291588 0.272952 2.72826e-21)
(-0.305181 0.298314 -7.58609e-21)
(-0.317383 0.322762 -4.83058e-21)
(-0.32799 0.345642 -4.64546e-21)
(-0.337111 0.366301 0)
(-0.344522 0.384287 0)
(-0.000196302 -0.0165835 -1.22182e-20)
(-0.00671196 -0.0221976 1.94437e-20)
(-0.0198726 -0.013754 -7.02989e-21)
(-0.0358224 0.000547413 -1.32934e-20)
(-0.0529272 0.0160841 1.85843e-20)
(-0.0704544 0.0311018 -1.14827e-20)
(-0.0879778 0.0455796 1.60853e-20)
(-0.105262 0.0601838 9.76979e-21)
(-0.12219 0.0755636 0)
(-0.138707 0.0921236 -8.9078e-21)
(-0.154777 0.110031 -1.18386e-22)
(-0.170355 0.129311 7.72172e-21)
(-0.185371 0.149909 1.06443e-20)
(-0.199723 0.171718 1.35287e-20)
(-0.21327 0.194575 -6.34001e-21)
(-0.225826 0.218253 -1.80443e-20)
(-0.237169 0.242456 5.63445e-21)
(-0.247042 0.266813 -2.12201e-20)
(-0.255164 0.290895 0)
(-0.261218 0.314222 5.03289e-21)
(-0.264832 0.336252 4.82295e-21)
(-0.265684 0.356393 4.63802e-21)
(-0.263746 0.374169 0)
(-0.25912 0.389391 0)
(0.000265293 -0.0111891 0)
(-0.00582949 -0.0104912 3.74469e-20)
(-0.0181802 0.0017832 -1.38968e-20)
(-0.0331237 0.0185322 1.30656e-20)
(-0.0490549 0.0356381 -3.56806e-20)
(-0.0652323 0.0515719 0)
(-0.0812101 0.0664563 -2.06263e-20)
(-0.096709 0.0810799 9.38701e-21)
(-0.111547 0.0962219 -1.75257e-20)
(-0.125593 0.112382 7.82665e-21)
(-0.13873 0.129777 4.63654e-20)
(-0.150839 0.148434 -2.15372e-20)
(-0.161779 0.168276 -3.43105e-20)
(-0.171376 0.189151 -1.27365e-20)
(-0.179422 0.210848 -3.00569e-22)
(-0.18567 0.233093 4.55122e-20)
(-0.189849 0.25555 -2.13728e-20)
(-0.19166 0.277809 4.97203e-22)
(-0.190786 0.299411 0)
(-0.186918 0.319864 -1.84984e-20)
(-0.179751 0.338646 0)
(-0.168881 0.355253 -1.88445e-20)
(-0.153723 0.369222 6.94809e-20)
(-0.134808 0.380547 1.87902e-21)
(0.000384401 -0.0068791 0)
(-0.00542882 -0.00122688 -3.38028e-22)
(-0.0166592 0.01417 1.33976e-20)
(-0.0300337 0.0330883 -1.23654e-20)
(-0.0440513 0.0517443 1.17956e-20)
(-0.0579887 0.0686685 6.426e-20)
(-0.0714061 0.0839782 -1.99534e-20)
(-0.0840012 0.0985033 -1.82198e-20)
(-0.0955371 0.113126 3.4412e-20)
(-0.105808 0.128463 -4.83039e-20)
(-0.114625 0.144818 1.45451e-20)
(-0.1218 0.162256 1.36007e-20)
(-0.127141 0.180698 0)
(-0.13043 0.19997 1.24699e-20)
(-0.13143 0.21983 0)
(-0.129869 0.239968 2.1084e-20)
(-0.125493 0.260063 -4.14498e-20)
(-0.118028 0.279662 9.02582e-21)
(-0.107197 0.298301 3.69591e-20)
(-0.0927489 0.315486 1.84782e-20)
(-0.074438 0.330718 0)
(-0.0522202 0.343542 -5.26305e-20)
(-0.0253768 0.353624 1.62909e-20)
(0.00780765 0.360735 0)
(0.000344084 -0.00387265 0)
(-0.0052662 0.00510701 -4.30821e-20)
(-0.0152785 0.022677 -1.31146e-20)
(-0.02683 0.0432646 -2.44495e-20)
(-0.0385092 0.0632889 2.26541e-20)
(-0.0496132 0.0812021 -2.12138e-20)
(-0.0597315 0.0969715 3.86653e-20)
(-0.0685756 0.111353 1.81178e-20)
(-0.0758934 0.125269 -5.01363e-20)
(-0.0814371 0.139444 3.07807e-20)
(-0.0849699 0.154305 -4.31865e-20)
(-0.0862606 0.169998 9.2369e-20)
(-0.0850852 0.186485 -4.95746e-20)
(-0.0812244 0.203608 2.26942e-20)
(-0.0744626 0.221122 6.51475e-20)
(-0.0644906 0.238754 -2.04749e-20)
(-0.0511163 0.256133 -1.82133e-20)
(-0.0342003 0.272833 -1.86139e-20)
(-0.0135067 0.288428 0)
(0.0110992 0.302455 -3.52867e-20)
(0.039806 0.314483 -3.60066e-20)
(0.0726613 0.32388 4.82283e-20)
(0.107905 0.330658 6.75429e-20)
(0.156582 0.334288 -6.24729e-20)
(0.000294589 -0.00211321 0)
(-0.0051791 0.00853777 -5.58365e-20)
(-0.0141247 0.0271096 3.54224e-22)
(-0.0239407 0.0485529 4.79487e-20)
(-0.0332336 0.0694508 0)
(-0.0412905 0.0881207 0)
(-0.0477335 0.104282 0)
(-0.0523248 0.118496 -1.75434e-20)
(-0.0548569 0.131624 1.566e-22)
(-0.0550931 0.144453 2.97907e-20)
(-0.052796 0.157517 -4.19824e-20)
(-0.0477396 0.171079 3.32307e-23)
(-0.0396945 0.185192 0)
(-0.0284537 0.199758 -2.26843e-20)
(-0.0138203 0.214586 2.04723e-20)
(0.00438749 0.229416 -5.79802e-20)
(0.0263217 0.243872 7.4564e-20)
(0.0520791 0.257607 1.86924e-20)
(0.0817167 0.270253 2.28306e-21)
(0.115421 0.2813 -6.45712e-20)
(0.152334 0.290576 -3.12919e-20)
(0.195671 0.297158 1.11615e-19)
(0.234564 0.301671 -7.49816e-20)
(0.297454 0.301549 0)
(0.000281642 -0.00129782 2.88398e-20)
(-0.00517891 0.00958515 2.78024e-20)
(-0.0134483 0.0278702 -2.52376e-20)
(-0.0219361 0.0490368 -4.68374e-20)
(-0.0291688 0.0699005 4.33968e-20)
(-0.0343773 0.088696 -3.97351e-20)
(-0.0371952 0.104887 5.50113e-20)
(-0.0374475 0.118771 -1.74536e-20)
(-0.0350091 0.131046 3.12853e-20)
(-0.0297361 0.142463 0)
(-0.0214564 0.153606 2.58731e-20)
(-0.00999101 0.164848 -4.82131e-20)
(0.0048374 0.17635 4.54819e-20)
(0.0231851 0.188106 -4.23355e-20)
(0.0451807 0.199994 0)
(0.070922 0.211798 3.72345e-20)
(0.100432 0.223251 7.03132e-20)
(0.133859 0.234003 -6.63857e-20)
(0.170578 0.243875 -3.14439e-20)
(0.212325 0.252095 -3.34402e-20)
(0.25401 0.259181 9.08901e-20)
(0.307415 0.262966 3.09097e-20)
(0.346624 0.266822 -2.71425e-20)
(0.421141 0.262829 2.8506e-20)
(0.000197753 -0.000962787 -2.88469e-20)
(-0.00553662 0.00914851 8.11134e-20)
(-0.0137058 0.0258999 -2.48904e-20)
(-0.021496 0.0454452 4.60113e-20)
(-0.027277 0.064981 -4.26311e-20)
(-0.0301886 0.0828002 -1.67508e-22)
(-0.0298468 0.0981986 1.79139e-20)
(-0.0261292 0.111224 6.47325e-20)
(-0.0190111 0.122358 -6.75464e-22)
(-0.00847243 0.132225 -2.85445e-20)
(0.0055346 0.14139 0)
(0.023081 0.150275 -2.29606e-20)
(0.0442461 0.159124 4.37448e-20)
(0.0690981 0.168033 4.04959e-20)
(0.097679 0.176972 -1.92562e-20)
(0.130055 0.185817 -8.55035e-22)
(0.165998 0.194387 -1.71735e-20)
(0.206378 0.202404 3.11265e-20)
(0.248295 0.209909 3.14487e-20)
(0.29879 0.215881 -3.04372e-20)
(0.341917 0.221717 2.83181e-20)
(0.408754 0.223918 -2.77332e-20)
(0.444438 0.228234 0)
(0.537773 0.223283 -2.85093e-20)
(-0.000213097 -0.000576849 2.82257e-20)
(-0.00675697 0.00831098 -2.69482e-20)
(-0.0155088 0.0225024 2.45554e-20)
(-0.023285 0.0390834 0)
(-0.0283024 0.0558193 0)
(-0.029616 0.0712346 3.75189e-20)
(-0.0268118 0.0846033 -3.53949e-20)
(-0.0197947 0.0958129 3.13615e-20)
(-0.00861692 0.105153 -1.4705e-19)
(0.00663564 0.113099 3.37044e-22)
(0.0259009 0.120153 2.43822e-20)
(0.0491586 0.126736 0)
(0.0764325 0.133156 -4.17789e-20)
(0.107774 0.139604 7.76556e-20)
(0.143217 0.146161 -5.45622e-20)
(0.182975 0.152862 -8.53763e-20)
(0.22647 0.159586 -1.08072e-21)
(0.276334 0.166401 5.88287e-20)
(0.325525 0.172877 0)
(0.391146 0.179241 0)
(0.437949 0.184973 -2.83305e-20)
(0.530143 0.189624 2.7745e-20)
(0.561415 0.194268 -1.10421e-19)
(0.691502 0.194419 1.03011e-19)
(-0.00132857 0.000337916 0)
(-0.0094555 0.00809389 0)
(-0.0193901 0.0190859 -7.3306e-20)
(-0.0276182 0.0316491 2.27314e-20)
(-0.032285 0.0443071 4.29944e-22)
(-0.0324041 0.0559719 3.75953e-20)
(-0.0275189 0.0660565 0)
(-0.0174989 0.074428 -3.1368e-20)
(-0.00236581 0.0812846 2.91609e-20)
(0.0178368 0.0870172 -5.15978e-20)
(0.0431154 0.0920903 3.05829e-22)
(0.0735557 0.09695 4.37971e-20)
(0.10933 0.101983 -3.9777e-22)
(0.150684 0.10749 3.72072e-20)
(0.197812 0.113663 -5.24338e-20)
(0.251157 0.120669 0)
(0.309716 0.128309 6.21783e-20)
(0.377031 0.13692 -8.78158e-20)
(0.443002 0.145282 2.78463e-20)
(0.530346 0.15524 0)
(0.591344 0.162721 2.63293e-20)
(0.710339 0.173356 1.07753e-19)
(0.746217 0.17819 -1.00609e-19)
(0.907817 0.187668 -1.29698e-19)
(-0.00348259 0.00205448 8.31405e-20)
(-0.0140275 0.00920459 -1.05071e-19)
(-0.0253433 0.0168849 2.15621e-22)
(-0.0338433 0.0249786 2.23837e-20)
(-0.0377203 0.0329171 -4.08966e-20)
(-0.0359634 0.0401394 -3.76887e-20)
(-0.0279617 0.0463512 6.78261e-20)
(-0.0133648 0.0515649 -8.69579e-22)
(0.00808981 0.0560388 -5.73594e-20)
(0.0367077 0.0601913 1.03107e-19)
(0.072842 0.0645341 -5.07489e-22)
(0.116854 0.0695759 -4.35146e-20)
(0.169012 0.0757458 0)
(0.229407 0.0833365 0)
(0.297773 0.0925021 -1.72028e-20)
(0.373787 0.10318 -3.1687e-20)
(0.455808 0.115261 -6.07854e-20)
(0.54484 0.128196 5.66631e-20)
(0.633636 0.14177 -2.78699e-20)
(0.734082 0.155383 5.43938e-20)
(0.815985 0.167592 -2.40053e-20)
(0.932129 0.18066 5.4668e-20)
(0.983863 0.1874 -1.21701e-19)
(1.12779 0.199367 2.49969e-20)
(-0.00674679 0.00452465 2.76603e-20)
(-0.0202194 0.0118131 0)
(-0.0323062 0.0166622 4.82957e-20)
(-0.0397306 0.0206544 -4.47214e-20)
(-0.0407915 0.024223 4.09514e-20)
(-0.0343623 0.027437 0)
(-0.0194737 0.0304404 0)
(0.00474811 0.0335279 -3.03299e-20)
(0.0390725 0.0370931 1.1544e-21)
(0.0841399 0.0416736 2.61538e-20)
(0.14035 0.0478287 -2.29491e-20)
(0.207636 0.056009 4.32164e-20)
(0.285331 0.0664797 0)
(0.37214 0.079263 7.25245e-20)
(0.466139 0.0941939 -1.35141e-19)
(0.565113 0.110619 9.47015e-20)
(0.666376 0.128385 6.01069e-20)
(0.767369 0.145518 -5.60304e-20)
(0.865538 0.163412 0)
(0.958761 0.177186 0)
(1.04296 0.192147 0)
(1.12425 0.199045 0)
(1.17945 0.207393 2.44068e-20)
(1.25915 0.206888 -9.51733e-20)
(-0.349527 0.401976 -3.20622e-21)
(-0.350927 0.415877 3.20868e-21)
(-0.345865 0.418777 -1.07317e-22)
(-0.333464 0.412672 0)
(-0.312805 0.393275 -3.67754e-21)
(-0.28423 0.362098 7.3531e-21)
(-0.247825 0.317653 2.03364e-22)
(-0.205563 0.261804 -3.76374e-21)
(-0.158975 0.194811 0)
(-0.111782 0.120851 0)
(-0.0671431 0.0399083 -2.52929e-22)
(-0.0272784 -0.0457765 -2.48971e-22)
(0.0061877 -0.137648 -3.98671e-21)
(0.0333911 -0.237323 3.63688e-21)
(0.057289 -0.344936 0)
(0.0823069 -0.456597 0)
(0.112438 -0.559373 2.33795e-21)
(0.146902 -0.632306 -4.34009e-22)
(0.178186 -0.661099 -1.68563e-21)
(0.18952 -0.653439 -7.10038e-23)
(0.156075 -0.639214 0)
(0.0785267 -0.631997 0)
(0.0122935 -0.597316 0)
(0.0152935 -0.487382 0)
(0.0833579 -0.303003 0)
(0.186893 -0.0908848 0)
(0.299864 0.103624 1.23301e-22)
(0.407443 0.248764 -1.83274e-22)
(0.498103 0.331748 0)
(0.568519 0.363233 0)
(0.611839 0.360976 4.93869e-24)
(0.635734 0.338899 -4.79875e-24)
(0.654337 0.300504 -9.38477e-24)
(0.659972 0.260074 0)
(0.636694 0.226036 0)
(0.603982 0.189811 -1.65835e-23)
(0.602234 0.133263 1.61178e-23)
(0.643629 0.0626073 0)
(0.709261 -0.00624349 -1.62308e-23)
(0.774075 -0.0562538 2.3604e-23)
(0.82558 -0.0868998 -9.17926e-24)
(0.86053 -0.098846 0)
(0.881517 -0.100341 2.00489e-23)
(0.891051 -0.0935656 -1.94946e-23)
(0.89001 -0.0856175 0)
(0.882171 -0.0743704 0)
(0.873109 -0.0621581 6.15281e-24)
(0.871446 -0.0442424 -1.71702e-23)
(0.878321 -0.0255559 0)
(0.893581 -0.00513852 0)
(0.909565 0.0100302 2.89251e-24)
(0.925327 0.0223661 6.7415e-26)
(0.935305 0.0277138 2.78557e-25)
(0.944441 0.0309752 -1.85498e-24)
(0.947897 0.0294298 0)
(0.954234 0.0280874 0)
(0.954438 0.0243724 0)
(0.961655 0.0223791 0)
(0.960883 0.0197622 0)
(0.970965 0.0188593 0)
(-0.249641 0.403458 -3.05304e-22)
(-0.239694 0.409344 -1.39644e-20)
(-0.221712 0.406496 -8.32629e-22)
(-0.196735 0.392243 1.38507e-20)
(-0.164663 0.366242 2.39566e-22)
(-0.126391 0.328669 0)
(-0.082771 0.279697 -1.62396e-20)
(-0.0369786 0.221184 3.27942e-20)
(0.0106426 0.154889 -1.65551e-20)
(0.0569373 0.0830361 1.69261e-20)
(0.0987791 0.00641699 -1.61827e-20)
(0.134577 -0.0740877 1.60822e-20)
(0.163358 -0.161378 -1.56351e-20)
(0.187293 -0.258082 -4.78523e-22)
(0.209087 -0.365912 -1.34997e-20)
(0.232259 -0.480934 1.311e-20)
(0.258955 -0.588451 -9.69063e-21)
(0.285384 -0.664852 9.14523e-21)
(0.305758 -0.691008 -5.5675e-21)
(0.317579 -0.663887 9.21002e-21)
(0.304712 -0.611679 -3.71714e-21)
(0.234062 -0.577524 -1.19921e-22)
(0.123132 -0.558492 -1.43992e-21)
(0.0515409 -0.49507 2.69318e-21)
(0.0654328 -0.348308 -1.25742e-21)
(0.142365 -0.151629 5.30693e-23)
(0.244792 0.0392604 8.43504e-22)
(0.351574 0.190447 -2.77015e-22)
(0.447121 0.285888 -6.59561e-22)
(0.522147 0.332935 1.89205e-22)
(0.572094 0.343308 -2.76643e-25)
(0.608974 0.327231 -1.9101e-23)
(0.633275 0.295496 9.40479e-24)
(0.626215 0.267156 -1.54303e-23)
(0.592253 0.239664 0)
(0.57371 0.194455 0)
(0.604928 0.120587 2.72571e-23)
(0.674138 0.0384115 -2.28643e-23)
(0.752268 -0.0320163 -4.12014e-23)
(0.817255 -0.0770425 -2.4273e-23)
(0.863026 -0.100967 7.14914e-23)
(0.890426 -0.107214 -1.86338e-23)
(0.904962 -0.104599 0)
(0.91086 -0.0947286 0)
(0.909592 -0.0842556 0)
(0.902124 -0.0715728 0)
(0.890949 -0.0597143 -2.72103e-23)
(0.882913 -0.0437276 1.11974e-23)
(0.88144 -0.0273621 0)
(0.889035 -0.00845187 0)
(0.900205 0.00638378 0)
(0.913976 0.0192764 4.93331e-24)
(0.924107 0.0253479 -5.21799e-25)
(0.934633 0.0293549 3.94907e-24)
(0.939827 0.0281797 0)
(0.948078 0.0272254 0)
(0.949582 0.0235098 -1.6763e-24)
(0.95819 0.0216317 -3.78462e-24)
(0.957893 0.0188281 0)
(0.969042 0.0178414 0)
(-0.114377 0.390557 2.2053e-21)
(-0.0979437 0.390209 -2.64658e-20)
(-0.0714312 0.38164 3.03009e-20)
(-0.0396527 0.362323 -2.82839e-20)
(-0.00175867 0.332075 -2.41273e-22)
(0.039985 0.29123 0)
(0.084893 0.240861 -3.45287e-20)
(0.130633 0.18267 3.38133e-20)
(0.175377 0.119923 2.65721e-22)
(0.217258 0.0524936 5.42957e-22)
(0.255385 -0.0181129 5.38685e-22)
(0.288455 -0.093227 5.21034e-22)
(0.316625 -0.175153 -3.24392e-20)
(0.341346 -0.267787 3.19815e-20)
(0.365111 -0.374189 0)
(0.390846 -0.490722 8.11757e-22)
(0.418461 -0.600667 -1.98701e-20)
(0.439709 -0.677897 1.95637e-20)
(0.445263 -0.703477 0)
(0.435957 -0.674215 0)
(0.421899 -0.602383 -4.79711e-21)
(0.379926 -0.529469 7.53016e-21)
(0.273916 -0.494415 -4.47235e-21)
(0.14753 -0.464073 4.63912e-22)
(0.0905637 -0.370779 2.2954e-21)
(0.124133 -0.205336 -2.08982e-21)
(0.208069 -0.0221153 1.60242e-21)
(0.307984 0.132449 -3.80719e-22)
(0.402464 0.239137 -2.78972e-22)
(0.480518 0.300006 0)
(0.541107 0.320681 0)
(0.587497 0.31334 -1.17866e-22)
(0.604789 0.295295 1.55786e-22)
(0.582615 0.279866 5.02672e-24)
(0.553262 0.250494 -2.83699e-23)
(0.565486 0.188253 2.75659e-23)
(0.631569 0.0974397 0)
(0.719894 0.00920847 -3.64194e-24)
(0.801001 -0.0578117 -7.74216e-23)
(0.86003 -0.0955064 1.98559e-22)
(0.89718 -0.112185 -1.07336e-22)
(0.916387 -0.113087 -1.63296e-23)
(0.924372 -0.107176 1.87608e-22)
(0.925964 -0.0953058 -1.46628e-22)
(0.923735 -0.0832155 -3.40098e-23)
(0.917616 -0.0691847 -3.0978e-23)
(0.907711 -0.0569155 2.72827e-23)
(0.897747 -0.0418741 0)
(0.891285 -0.0273694 0)
(0.89234 -0.0101775 6.32576e-23)
(0.898147 0.00371192 -2.93375e-23)
(0.908565 0.0165579 2.32204e-23)
(0.917641 0.0229221 -2.9086e-23)
(0.928585 0.0274529 -3.13173e-23)
(0.93502 0.0265745 7.24632e-24)
(0.944715 0.0260453 -1.0505e-23)
(0.947395 0.0223952 7.86167e-24)
(0.956932 0.0207166 -3.23495e-24)
(0.957074 0.0177762 0)
(0.968608 0.0167499 0)
(0.034859 0.36634 -5.44713e-20)
(0.058135 0.363491 -4.08257e-21)
(0.0888021 0.351413 5.53315e-20)
(0.123887 0.33 -4.75715e-22)
(0.162797 0.298082 0)
(0.204161 0.256725 0)
(0.246907 0.207248 -7.05164e-20)
(0.289344 0.151394 -3.6817e-21)
(0.329827 0.0913554 1.05332e-19)
(0.367368 0.027882 3.65901e-22)
(0.401939 -0.0383325 -3.51448e-20)
(0.432685 -0.108869 -3.32227e-20)
(0.460353 -0.186883 3.32936e-20)
(0.486176 -0.276492 0)
(0.512542 -0.381844 -2.82831e-20)
(0.541931 -0.500009 2.5823e-20)
(0.571375 -0.612043 0)
(0.589008 -0.687161 0)
(0.586247 -0.704299 1.0786e-20)
(0.560241 -0.669989 -3.4118e-21)
(0.522422 -0.598473 -6.68518e-21)
(0.489043 -0.503631 -2.33086e-21)
(0.42187 -0.431379 2.24005e-21)
(0.292315 -0.400433 -2.12143e-22)
(0.171675 -0.355325 2.79859e-22)
(0.139039 -0.241034 -8.11157e-23)
(0.189367 -0.0798814 -1.61554e-23)
(0.27623 0.0739189 4.64694e-23)
(0.367979 0.189727 0)
(0.45013 0.262558 -5.22785e-22)
(0.518053 0.294742 5.45058e-22)
(0.561514 0.302149 -2.34717e-23)
(0.564314 0.301293 0)
(0.537522 0.293 1.05583e-23)
(0.531829 0.252141 9.58825e-23)
(0.583043 0.169882 -2.32047e-22)
(0.677431 0.0670048 -5.68074e-24)
(0.774478 -0.0213351 1.00124e-22)
(0.850942 -0.0812161 3.448e-23)
(0.900015 -0.110548 -2.06419e-23)
(0.927068 -0.120386 2.53174e-22)
(0.938299 -0.116709 -2.10786e-22)
(0.940567 -0.108229 -1.72959e-24)
(0.938173 -0.0951435 -1.41067e-22)
(0.934222 -0.0823071 1.71274e-22)
(0.928804 -0.0674663 2.10878e-22)
(0.921144 -0.0546026 -6.03994e-23)
(0.912237 -0.0397469 -8.91228e-23)
(0.904362 -0.0263674 1.61776e-22)
(0.901485 -0.0106228 -1.06246e-22)
(0.902973 0.00208156 2.39795e-23)
(0.90984 0.0144274 -3.02615e-23)
(0.917173 0.0206636 -2.33257e-23)
(0.927646 0.0254456 4.81937e-23)
(0.934643 0.0247471 -1.40307e-24)
(0.945036 0.0246384 1.05441e-23)
(0.948527 0.0211131 0)
(0.95831 0.019701 3.25394e-24)
(0.958755 0.0166864 -4.01039e-24)
(0.969871 0.0156573 0)
(0.183 0.33693 5.38653e-20)
(0.211575 0.332325 -1.09528e-19)
(0.244461 0.319891 5.50172e-20)
(0.280536 0.298483 6.34341e-20)
(0.318756 0.26742 -1.28307e-19)
(0.358102 0.227525 -3.77597e-21)
(0.397621 0.180178 6.71231e-20)
(0.436111 0.127147 7.1535e-20)
(0.47212 0.0701669 -7.00021e-20)
(0.505476 0.00978763 0)
(0.53645 -0.0526805 -7.07384e-20)
(0.564726 -0.119892 1.3761e-19)
(0.591845 -0.194787 -6.69397e-20)
(0.619303 -0.28151 0)
(0.649361 -0.38511 0)
(0.683109 -0.5031 8.29956e-22)
(0.71364 -0.614613 -4.04315e-20)
(0.724215 -0.687149 3.9252e-20)
(0.707986 -0.698978 0)
(0.672211 -0.655592 1.46139e-20)
(0.619526 -0.584204 -2.19243e-20)
(0.56864 -0.493398 1.19577e-20)
(0.527744 -0.39586 -4.78127e-21)
(0.443078 -0.333421 1.91032e-21)
(0.308363 -0.303171 -3.08117e-21)
(0.20558 -0.241961 2.017e-21)
(0.196286 -0.123285 3.89023e-23)
(0.255047 0.0186264 9.66752e-22)
(0.33905 0.139113 -4.73368e-23)
(0.421773 0.223058 -9.04162e-22)
(0.488238 0.270162 -3.77111e-23)
(0.521524 0.295997 3.79518e-22)
(0.516626 0.309456 -5.18102e-22)
(0.504027 0.299387 1.43943e-22)
(0.536117 0.240999 0)
(0.62464 0.141334 -3.42301e-22)
(0.73656 0.0333303 3.33812e-22)
(0.832761 -0.0500207 -7.75899e-23)
(0.899012 -0.10066 1.01169e-22)
(0.935902 -0.121649 1.20584e-23)
(0.952503 -0.1256 0)
(0.956377 -0.118388 3.0777e-23)
(0.95395 -0.108085 -1.02925e-22)
(0.948482 -0.0943114 0)
(0.942724 -0.0813082 -3.23793e-22)
(0.937137 -0.0662438 1.28962e-22)
(0.931152 -0.0530236 -5.50562e-23)
(0.924337 -0.0380413 -4.78913e-23)
(0.917455 -0.0251757 0)
(0.913412 -0.0104038 0)
(0.91254 0.00122763 8.30767e-23)
(0.916725 0.0128787 -1.22958e-22)
(0.922324 0.0187006 6.46681e-23)
(0.931786 0.0234975 -1.96993e-23)
(0.938715 0.0228628 -2.98775e-23)
(0.949008 0.0231386 -1.05554e-23)
(0.952845 0.0197831 1.5519e-23)
(0.962165 0.0186751 0)
(0.962743 0.0156501 6.60688e-24)
(0.972713 0.0146395 1.62164e-24)
(0.32158 0.303682 5.2703e-20)
(0.353 0.299268 -5.21141e-20)
(0.38725 0.28799 4.53265e-22)
(0.423082 0.268389 -4.59695e-22)
(0.459871 0.239868 5.02031e-22)
(0.496859 0.203087 -5.22642e-22)
(0.533264 0.159207 1.04239e-21)
(0.568079 0.109787 0)
(0.599955 0.0563196 -1.08257e-21)
(0.630221 -0.000583123 1.08775e-21)
(0.658474 -0.0604951 1.07888e-21)
(0.685052 -0.125972 -1.08743e-21)
(0.713104 -0.199474 0)
(0.744329 -0.28528 0)
(0.780907 -0.388228 9.0644e-22)
(0.820789 -0.504488 0)
(0.850933 -0.610469 -6.8339e-22)
(0.851955 -0.67441 0)
(0.817687 -0.681965 -2.10548e-20)
(0.763538 -0.638062 3.50191e-20)
(0.704692 -0.563714 -2.20508e-20)
(0.641805 -0.480287 8.21241e-21)
(0.595004 -0.385355 6.22727e-22)
(0.551991 -0.294062 -6.04492e-22)
(0.460896 -0.241254 3.20354e-21)
(0.333192 -0.205484 -3.1333e-21)
(0.253967 -0.136125 0)
(0.257429 -0.0253498 -1.26001e-22)
(0.314772 0.0902567 0)
(0.386524 0.183284 0)
(0.445467 0.247195 -1.41922e-21)
(0.473113 0.290844 1.50783e-21)
(0.476527 0.312386 -3.72912e-23)
(0.494924 0.293566 1.30884e-24)
(0.568774 0.217296 -4.85899e-23)
(0.685599 0.106478 -4.40376e-22)
(0.803343 -0.000183448 4.27492e-22)
(0.890698 -0.074647 -1.88704e-22)
(0.942996 -0.115299 1.56762e-22)
(0.966882 -0.128758 -2.0801e-23)
(0.973608 -0.128087 2.13758e-22)
(0.971086 -0.118465 7.47624e-23)
(0.964887 -0.107084 -1.80367e-22)
(0.957269 -0.0930157 0)
(0.950105 -0.0801523 1.29673e-22)
(0.943952 -0.0652647 -1.72131e-22)
(0.938702 -0.0520483 2.26351e-22)
(0.933689 -0.0369831 4.82122e-23)
(0.928664 -0.0243242 0)
(0.925343 -0.0101067 -3.07486e-23)
(0.92402 0.000728819 6.44045e-23)
(0.926888 0.0117223 -4.15966e-25)
(0.931303 0.0170323 2.11664e-23)
(0.939661 0.0217079 -3.14013e-23)
(0.946122 0.0210627 3.01932e-23)
(0.955704 0.0216746 0)
(0.959493 0.0185197 -1.55282e-23)
(0.967808 0.0177217 0)
(0.968393 0.0147424 0)
(0.976733 0.0137566 -2.12145e-24)