/*--------------------------------*- C++ -*----------------------------------*\
| =========                 |                                                 |
| \\      /  F ield         | OpenFOAM: The Open Source CFD Toolbox           |
|  \\    /   O peration     | Version:  2512                                  |
|   \\  /    A nd           | Website:  www.openfoam.com                      |
|    \\/     M anipulation  |                                                 |
\*---------------------------------------------------------------------------*/
FoamFile
{
    version     2.0;
    format      ascii;
    arch        "LSB;label=32;scalar=64";
    class       surfaceScalarField;
    location    "181.5";
    object      phi;
}
// * * * * * * * * * * * * * * * * * * * * * * * * * * * * * * * * * * * * * //

dimensions      [0 3 -1 0 0 0 0];

oriented        oriented;

internalField   nonuniform List<scalar> 
26232
(
0.000331791
0.00109238
-0.00142417
0.00119092
0.00173082
-0.00258994
0.00263618
0.000829875
-0.00227514
0.00488102
-0.00159426
-0.000650583
0.00823276
-0.0055653
0.00221355
0.0130307
-0.0111518
0.00635381
0.01956
-0.0183818
0.0118525
0.027928
-0.0271197
0.0187517
0.0379669
-0.0369929
0.026954
0.0492117
-0.0474136
0.0361688
0.0609758
-0.0576887
0.0459247
0.0724933
-0.0671609
0.0556434
0.0830794
-0.0753312
0.064745
0.092259
-0.0819297
0.07275
0.0998335
-0.0869255
0.0793511
0.105879
-0.0904873
0.0844418
0.110686
-0.0929039
0.0880969
0.114669
-0.0945138
0.0905312
0.11827
-0.0956147
0.092013
0.121884
-0.0964761
0.0928628
0.125793
-0.0972123
0.0933024
0.130258
-0.0980202
0.093556
0.135113
-0.098833
0.0939774
-0.0996048
0.0942603
0.140458
0.000271918
0.000820462
0.00120433
0.000798401
0.00299522
-0.000961016
0.00595119
-0.00455022
0.0104503
-0.0100644
0.0168349
-0.0175364
0.025242
-0.0267889
0.03546
-0.0373378
0.0469018
-0.0484347
0.058723
-0.0592348
0.0700276
-0.0689933
0.0800758
-0.077209
0.0884272
-0.0836826
0.0949916
-0.0884941
0.0999877
-0.0919216
0.103835
-0.0943344
0.107027
-0.0960962
0.110015
-0.0975019
0.113147
-0.0987466
0.116637
-0.0999659
0.120606
-0.101182
0.12511
-0.102524
0.13012
-0.103843
-0.105455
0.13597
0.000242353
0.000578109
0.00131909
-0.000278339
0.00359191
-0.00323383
0.00747804
-0.00843636
0.0133802
-0.0159666
0.0214833
-0.0256394
0.0315523
-0.0368579
0.0428889
-0.0486743
0.0544997
-0.0600455
0.0653796
-0.0701147
0.0747697
-0.0783834
0.0823043
-0.0847436
0.0880232
-0.0894015
0.0922728
-0.0927437
0.0955491
-0.095198
0.0983452
-0.0971305
0.101049
-0.0987999
0.103906
-0.100359
0.107046
-0.101887
0.110508
-0.103428
0.114323
-0.104996
0.11846
-0.106661
0.122958
-0.108341
-0.110265
0.127768
0.000283439
0.00029467
0.00165598
-0.00165088
0.00462462
-0.00620247
0.00967723
-0.013489
0.017093
-0.0233823
0.026674
-0.0352204
0.0376514
-0.0478354
0.0488986
-0.0599215
0.0593079
-0.0704548
0.0681081
-0.0789149
0.0750048
-0.0852802
0.0801412
-0.08988
0.0839374
-0.0931976
0.0868979
-0.0957042
0.0894615
-0.0977615
0.0919318
-0.0996008
0.0944801
-0.101348
0.0971916
-0.10307
0.100107
-0.104802
0.103257
-0.106578
0.106674
-0.108414
0.110386
-0.110373
0.114425
-0.11238
-0.114657
0.118817
0.000406838
-0.000112168
0.00224429
-0.00348834
0.00611455
-0.0100727
0.0124479
-0.0198223
0.0211834
-0.0321178
0.0315644
-0.0456014
0.0423545
-0.0586255
0.0523261
-0.0698932
0.0606625
-0.0787912
0.0670999
-0.0853522
0.0718353
-0.0900157
0.0753148
-0.0933594
0.0780215
-0.0959043
0.0803427
-0.0980254
0.082532
-0.0999508
0.0847343
-0.101803
0.0870326
-0.103647
0.0894801
-0.105517
0.0921202
-0.107442
0.0949823
-0.10944
0.0980965
-0.111528
0.101453
-0.11373
0.105067
-0.115994
-0.118505
0.108915
0.000600714
-0.000712882
0.00304423
-0.00593185
0.00792893
-0.0149574
0.0154364
-0.0273298
0.0249603
-0.0416417
0.0352122
-0.0558533
0.0448147
-0.068228
0.0528404
-0.0779189
0.0589905
-0.0849413
0.0634656
-0.0898274
0.0667114
-0.0932614
0.069193
-0.0958411
0.0712736
-0.0979849
0.0731906
-0.0999424
0.0750849
-0.101845
0.0770398
-0.103758
0.079106
-0.105713
0.0813162
-0.107728
0.083689
-0.109815
0.0862347
-0.111986
0.0889593
-0.114252
0.0918528
-0.116624
0.0949483
-0.119089
-0.12175
0.0981939
0.000846219
-0.0015591
0.0039786
-0.00906423
0.00985032
-0.0208291
0.0181775
-0.035657
0.0277513
-0.0512155
0.0370319
-0.0651338
0.0448933
-0.0760894
0.0509146
-0.0839402
0.0552463
-0.0892731
0.0583192
-0.0929002
0.0605951
-0.0955374
0.0624383
-0.0976843
0.0640887
-0.0996353
0.0656872
-0.101541
0.067312
-0.10347
0.0690045
-0.105451
0.0707881
-0.107496
0.0726773
-0.109617
0.0746845
-0.111822
0.0768214
-0.114123
0.0790972
-0.116528
0.081516
-0.119043
0.0840904
-0.121663
-0.124444
0.0867843
0.00112532
-0.00268442
0.00495787
-0.0128968
0.011628
-0.0274992
0.0202373
-0.0442663
0.0291508
-0.0601291
0.0369551
-0.0729381
0.0429942
-0.0821285
0.0472995
-0.0882455
0.0502675
-0.0922411
0.0523684
-0.095001
0.0539856
-0.0971546
0.0553736
-0.0990723
0.0566784
-0.10094
0.0579753
-0.102838
0.0593024
-0.104797
0.0606816
-0.10683
0.0621293
-0.108944
0.0636608
-0.111148
0.0652894
-0.113451
0.0670243
-0.115858
0.0688683
-0.118372
0.0708166
-0.120991
0.0728719
-0.123719
-0.126566
0.0749935
0.00141904
-0.00410346
0.00588216
-0.0173599
0.0130182
-0.0346352
0.0213334
-0.0525815
0.029097
-0.0678926
0.03528
-0.0791212
0.0396895
-0.0865379
0.042644
-0.0911999
0.0446192
-0.0942164
0.0460313
-0.0964132
0.0471624
-0.0982857
0.0481731
-0.100083
0.0491444
-0.101911
0.050116
-0.10381
0.0511107
-0.105792
0.0521446
-0.107864
0.0532306
-0.11003
0.0543795
-0.112297
0.0555983
-0.11467
0.0568912
-0.117151
0.0582583
-0.119739
0.0597013
-0.122434
0.06122
-0.125237
-0.128141
0.0627953
0.00170364
-0.0058071
0.00664473
-0.022301
0.0138361
-0.0418266
0.0213891
-0.0601345
0.0277788
-0.0742824
0.0324286
-0.083771
0.0354881
-0.0895974
0.0374113
-0.0931231
0.0386529
-0.095458
0.039539
-0.0972992
0.040259
-0.0990058
0.0409086
-0.100733
0.0415331
-0.102536
0.0421558
-0.104432
0.0427914
-0.106427
0.0434507
-0.108523
0.0441432
-0.110723
0.0448774
-0.113031
0.0456606
-0.115453
0.0464976
-0.117988
0.0473909
-0.120633
0.048341
-0.123384
0.0493448
-0.126241
-0.129193
0.0503971
0.00195239
-0.00775949
0.00715136
-0.0275
0.0139991
-0.0486744
0.0204991
-0.0666344
0.0254936
-0.0792769
0.0288008
-0.0870782
0.0307788
-0.0915755
0.0319096
-0.0942539
0.0325778
-0.0961261
0.0330192
-0.0977407
0.0333549
-0.0993415
0.0336405
-0.101018
0.0339018
-0.102797
0.0341527
-0.104683
0.0344037
-0.106678
0.0346638
-0.108783
0.0349416
-0.111001
0.0352447
-0.113335
0.0355789
-0.115787
0.0359474
-0.118356
0.0363515
-0.121037
0.0367908
-0.123823
0.0372618
-0.126712
-0.129698
0.0377661
0.00214363
-0.00990312
0.00734882
-0.0327052
0.0135396
-0.0548652
0.0188595
-0.0719543
0.0225526
-0.08297
0.0247279
-0.0892535
0.0258412
-0.0926887
0.0263381
-0.0947508
0.0265209
-0.0963089
0.0265518
-0.0977716
0.0265052
-0.099295
0.0264132
-0.100926
0.0262914
-0.102675
0.0261497
-0.104542
0.0259962
-0.106525
0.0258384
-0.108625
0.0256826
-0.110845
0.0255347
-0.113187
0.0253993
-0.115652
0.0252804
-0.118237
0.0251815
-0.120938
0.0251049
-0.123747
0.025049
-0.126656
0.0250208
-0.12967
-0.000415534
-0.00305501
0.00347055
-0.00152942
-0.0089231
0.010037
-0.00332185
-0.0136218
0.0154142
-0.0056921
-0.0170328
0.0194031
-0.00847835
-0.0196834
0.0224697
-0.0115232
-0.0222048
0.0252497
-0.0147072
-0.024989
0.0281731
-0.017938
-0.0281511
0.0313819
-0.0211208
-0.0316397
0.0348225
-0.0241373
-0.0353324
0.0383489
-0.0268386
-0.0390731
0.0417745
-0.0290484
-0.0426771
0.0448869
-0.030571
-0.0459325
0.0474551
-0.0312031
-0.0486071
0.0492392
-0.0307489
-0.0504608
0.0500066
-0.0290383
-0.051261
0.0495504
-0.0259491
-0.0507982
0.047709
-0.021427
-0.0489018
0.0443797
-0.0154569
-0.0454481
0.039478
-0.00811185
-0.0403727
0.0330276
0.000425127
-0.0336313
0.0250944
0.00986442
-0.0251945
0.0157552
0.0200289
-0.0151067
0.00494224
-0.00322154
0.0305703
-0.00731985
-0.000724561
-0.00233045
-0.00243223
-0.00721543
-0.00490236
-0.0111517
-0.00795127
-0.0139839
-0.0114246
-0.0162101
-0.0152153
-0.018414
-0.0192579
-0.0209465
-0.0234999
-0.0239091
-0.0278739
-0.0272657
-0.0322809
-0.0309254
-0.0365861
-0.0347679
-0.0406199
-0.0386433
-0.044183
-0.0423694
-0.0470545
-0.0457356
-0.0490051
-0.0485102
-0.0498145
-0.0504516
-0.0492906
-0.051322
-0.0472909
-0.0509015
-0.043741
-0.0489981
-0.0386557
-0.0454579
-0.0321114
-0.0401756
-0.0242223
-0.0330837
-0.0152285
-0.0241005
-0.0131389
-0.00531116
-0.000939128
-0.00139132
-0.00304158
-0.00511298
-0.00593162
-0.00826163
-0.00936914
-0.0105464
-0.0132139
-0.0123654
-0.0174012
-0.0142267
-0.021906
-0.0164416
-0.0267069
-0.0191083
-0.031762
-0.0222105
-0.0369994
-0.025688
-0.0423128
-0.0294546
-0.0475611
-0.033395
-0.0525692
-0.0373613
-0.0571319
-0.0411729
-0.0610202
-0.0446218
-0.0639925
-0.0474793
-0.0658088
-0.0495057
-0.0662505
-0.0504598
-0.0651417
-0.0501068
-0.0623716
-0.048228
-0.0579085
-0.0446388
-0.0517985
-0.0391936
-0.0441593
-0.0317398
-0.0221092
-0.0351889
-0.00102956
-0.000361763
-0.00329691
-0.00284563
-0.00633337
-0.00522516
-0.00986305
-0.00701673
-0.0137527
-0.00847572
-0.0179598
-0.0100197
-0.0224769
-0.0119245
-0.0272934
-0.0142918
-0.0323786
-0.0171253
-0.0376779
-0.0203886
-0.0431131
-0.0240194
-0.0485826
-0.0279255
-0.0539625
-0.0319814
-0.0591061
-0.0360294
-0.0638427
-0.0398852
-0.0679782
-0.0433438
-0.0712969
-0.0461869
-0.0735653
-0.0481914
-0.0745406
-0.0491315
-0.0739948
-0.0487738
-0.0717543
-0.0468793
-0.0677189
-0.043229
-0.0618315
-0.0376272
-0.0300557
-0.053885
-0.000988503
0.00062674
-0.00318843
-0.000645709
-0.0061057
-0.00230788
-0.0094474
-0.00367502
-0.0130746
-0.0048485
-0.0169473
-0.00614695
-0.0210566
-0.00781522
-0.0253844
-0.00996399
-0.0298904
-0.0126193
-0.034513
-0.015766
-0.0391742
-0.0193583
-0.0437856
-0.0233141
-0.0482554
-0.0275116
-0.0524929
-0.0317919
-0.0564101
-0.035968
-0.0599185
-0.0398354
-0.0629186
-0.0431868
-0.0652824
-0.0458276
-0.0668334
-0.0475805
-0.0673388
-0.0482684
-0.0665275
-0.0476906
-0.0641372
-0.0456192
-0.0599369
-0.0418275
-0.0368904
-0.0531023
-0.000832372
0.00145911
-0.0027555
0.00127742
-0.0053075
0.000244122
-0.00821019
-0.000772336
-0.0112951
-0.00176358
-0.0145109
-0.00293119
-0.017832
-0.00449404
-0.0212214
-0.00657463
-0.0246179
-0.00922279
-0.0279391
-0.0124449
-0.0310876
-0.0162098
-0.033961
-0.0204407
-0.0364632
-0.0250094
-0.038515
-0.0297401
-0.0400631
-0.03442
-0.0410868
-0.0388117
-0.0415917
-0.0426819
-0.041594
-0.0458253
-0.0410923
-0.0480822
-0.0400191
-0.0493416
-0.0383003
-0.0494095
-0.0352398
-0.0486797
-0.031273
-0.0457943
-0.0431792
-0.0249843
-0.000580937
0.00204005
-0.00205532
0.0027518
-0.00407462
0.00226342
-0.00631706
0.0014701
-0.00861618
0.000535543
-0.0109004
-0.000646936
-0.0131076
-0.00228683
-0.0151726
-0.00450964
-0.0170095
-0.00738596
-0.0185131
-0.0109412
-0.0195671
-0.0151558
-0.020057
-0.0199507
-0.0198852
-0.0251812
-0.0189832
-0.0306421
-0.0173056
-0.0360976
-0.0148638
-0.0412535
-0.0117074
-0.0458383
-0.00791127
-0.0496214
-0.00356375
-0.0524298
0.00129692
-0.0542023
0.00668915
-0.0548017
0.0124755
-0.054466
0.0193213
-0.0526401
-0.0510305
0.0271727
-0.00029046
0.00233051
-0.00121581
0.00367715
-0.00253857
0.00358618
-0.00398343
0.00291496
-0.00535838
0.0019105
-0.00651548
0.000510159
-0.00738441
-0.0014179
-0.00786119
-0.00403286
-0.00783403
-0.00741313
-0.00718169
-0.0115936
-0.00577451
-0.016563
-0.00350084
-0.0222244
-0.000282196
-0.0283998
0.0039175
-0.0348418
0.00904587
-0.041226
0.0150358
-0.0472434
0.0217865
-0.052589
0.0291843
-0.0570192
0.0371412
-0.0603867
0.0455853
-0.0626464
0.0544306
-0.063647
0.0640497
-0.0640851
0.0740433
-0.0626337
-0.0627114
0.0857242
-1.24728e-05
0.00234298
-0.000366062
0.00403074
-0.000951722
0.00417184
-0.00153408
0.00349731
-0.00189907
0.0022755
-0.00188474
0.000495824
-0.00134686
-0.00195578
-0.000163329
-0.00521639
0.00180464
-0.00938109
0.00470277
-0.0144917
0.00863744
-0.0204976
0.0136745
-0.0272615
0.0198194
-0.0345447
0.0269959
-0.0420183
0.035073
-0.0493031
0.0438601
-0.0560305
0.053156
-0.0618849
0.0627838
-0.066647
0.0726353
-0.0702382
0.0826089
-0.0726199
0.0928623
-0.0739005
0.103269
-0.0744919
0.11432
-0.073685
-0.0740087
0.125618
0.000208621
0.00213436
0.000361321
0.00387804
0.000466706
0.00406645
0.000714251
0.00324977
0.00132351
0.00166623
0.00249525
-0.000675916
0.00441305
-0.00387357
0.00724295
-0.00804628
0.0111434
-0.0132816
0.0162381
-0.0195864
0.0225939
-0.0268534
0.0301782
-0.0348458
0.0388428
-0.0432092
0.0483379
-0.0515135
0.0583521
-0.0593172
0.0685625
-0.0662409
0.0786856
-0.072008
0.0885322
-0.0764936
0.0979956
-0.0797015
0.107078
-0.0817025
0.115986
-0.082808
0.124541
-0.0830468
0.133668
-0.0828124
-0.0827115
0.142371
0.000338019
0.00179634
0.000869359
0.0033467
0.00155076
0.00338505
0.00253778
0.00226275
0.00404192
0.000162089
0.00632067
-0.00295467
0.00959024
-0.00714314
0.0140623
-0.0125184
0.0198985
-0.0191177
0.027164
-0.0268519
0.0357824
-0.0354718
0.0455145
-0.044578
0.0559808
-0.0536754
0.0667214
-0.0622541
0.0772782
-0.069874
0.0872683
-0.0762311
0.0964431
-0.0811827
0.10471
-0.0847603
0.112103
-0.0870949
0.118832
-0.0884314
0.125084
-0.08906
0.131113
-0.0890754
0.137371
-0.0890705
-0.0885255
0.143185
0.00037217
0.00112893
0.00223884
0.00385101
0.00622665
0.00962579
0.0143352
0.0205685
0.0284048
0.0377216
0.0481745
0.0592399
0.0703095
0.0808054
0.0902825
0.0984933
0.105407
0.111178
0.116096
0.120528
0.12477
0.129251
0.134158
0.139893
0.0445159
0.0167486
-0.0306942
0.0564506
0.0477209
-0.0596555
0.0688403
0.0795424
-0.0919321
0.0809726
0.110542
-0.122674
0.0917703
0.135864
-0.146661
0.0998316
0.152822
-0.160883
0.105275
0.161497
-0.16694
0.109245
0.162791
-0.166761
0.110964
0.160697
-0.162415
0.108937
0.162556
-0.160529
0.104777
0.170398
-0.166239
0.103441
0.173694
-0.172358
0.10854
0.156233
-0.161333
0.118588
0.111138
-0.121185
0.13044
0.0429489
-0.0548014
0.142188
-0.0368618
0.0251141
0.152233
-0.111313
0.101268
0.159455
-0.163699
0.156477
0.163087
-0.189006
0.185374
0.163242
-0.196537
0.196382
0.161905
-0.197016
0.198354
0.160274
-0.193434
0.195064
0.156667
-0.193021
0.196628
0.149549
-0.206529
0.213647
0.140079
-0.226847
0.236317
0.130954
-0.22595
0.235076
0.124476
-0.17866
0.185138
0.122661
-0.0857999
0.0876157
0.125976
0.0271209
-0.0304363
0.133505
0.124456
-0.131985
0.142669
0.186004
-0.195169
0.150025
0.218514
-0.22587
0.152513
0.24077
-0.243258
0.148491
0.264926
-0.260904
0.139175
0.284761
-0.275445
0.128308
0.276181
-0.265313
0.12004
0.21369
-0.205422
0.117492
0.0964587
-0.0939111
0.121627
-0.042227
0.038092
0.129797
-0.15547
0.1473
0.134764
-0.219659
0.214692
0.131392
-0.257455
0.260827
0.123257
-0.28171
0.289844
0.116671
-0.272826
0.279412
0.115472
-0.205164
0.206364
0.119206
-0.084252
0.0805173
0.123236
0.048105
-0.0521351
0.123568
0.184498
-0.18483
0.121516
0.280304
-0.278253
0.119507
0.317818
-0.315809
0.118615
0.263731
-0.262839
0.118041
0.104986
-0.104412
0.11587
-0.0655906
0.0677611
0.111961
-0.264116
0.268025
0.110418
-0.342522
0.344065
0.108231
-0.255493
0.25768
0.104387
-0.106376
0.11022
0.0993137
0.216869
-0.211796
0.0967238
0.298281
-0.295691
0.0746429
-0.0703166
0.0110841
0.000353357
0.0276635
0.0311415
0.0448313
0.0623747
0.0614031
0.0939701
0.0770432
0.120223
0.0905152
0.13935
0.101725
0.150286
0.110256
0.15426
0.114666
0.156286
0.115015
0.162206
0.114691
0.170722
0.118423
0.169962
0.127294
0.147363
0.13802
0.100411
0.148164
0.0328052
0.15684
-0.0455381
0.163035
-0.117507
0.166022
-0.166687
0.165934
-0.188917
0.163126
-0.193729
0.159211
-0.193102
0.155543
-0.189766
0.150211
-0.187688
0.141092
-0.19741
0.129766
-0.215521
0.119982
-0.216166
0.114368
-0.173047
0.114191
-0.0856226
0.120196
0.0211164
0.130656
0.113996
0.142529
0.174131
0.152382
0.208662
0.157147
0.236005
0.155241
0.266832
0.14765
0.292352
0.13765
0.28618
0.129018
0.222322
0.124253
0.101224
0.125006
-0.0429807
0.130516
-0.160979
0.134588
-0.223732
0.130678
-0.253545
0.121976
-0.273007
0.115562
-0.266411
0.115209
-0.204811
0.119392
-0.0884359
0.123718
0.0437792
0.124778
0.183438
0.123316
0.281767
0.12164
0.319494
0.12037
0.265001
0.119307
0.106049
0.116369
-0.0626529
0.111126
-0.258873
0.109511
-0.340906
0.107382
-0.253364
0.104895
-0.103889
0.101525
0.220238
0.0976224
0.302184
0.0801579
-0.0173552
-0.0174804
0.00226886
0.0115175
0.0235905
0.0410531
0.0445147
0.0730458
0.0650004
0.0997378
0.0835328
0.120817
0.099281
0.134538
0.110798
0.142743
0.117249
0.149836
0.120326
0.15913
0.12433
0.166718
0.132896
0.161396
0.144803
0.135456
0.155796
0.089418
0.16387
0.0247315
0.169719
-0.0513869
0.17251
-0.120299
0.171594
-0.16577
0.168025
-0.185349
0.162666
-0.18837
0.156515
-0.186951
0.151037
-0.184288
0.144624
-0.181275
0.134286
-0.187072
0.121278
-0.202513
0.110499
-0.205387
0.105504
-0.168052
0.107113
-0.0872318
0.115337
0.012892
0.128163
0.10117
0.142539
0.159755
0.154942
0.196259
0.162264
0.228683
0.162915
0.266181
0.157464
0.297804
0.148561
0.295083
0.139558
0.231324
0.132554
0.108228
0.129657
-0.0400841
0.131959
-0.163281
0.134969
-0.226741
0.130763
-0.24934
0.121419
-0.263663
0.114741
-0.259733
0.114974
-0.205045
0.119757
-0.0932186
0.124625
0.0389106
0.126561
0.181503
0.125631
0.282696
0.124154
0.320971
0.122497
0.266658
0.121032
0.107514
0.117488
-0.0591081
0.110962
-0.252347
0.109127
-0.339071
0.107123
-0.251359
0.105994
-0.10276
0.10425
0.221983
0.0992349
0.307199
0.0867863
-0.0374112
-0.0339542
-0.0165901
-0.00930359
0.00570385
0.0187591
0.0299282
0.0488215
0.0537883
0.0758777
0.0757891
0.0988166
0.0942629
0.116064
0.107748
0.129258
0.11648
0.141104
0.123147
0.152463
0.131959
0.157906
0.144898
0.148457
0.158992
0.121362
0.170158
0.0782518
0.177404
0.017485
0.181131
-0.0551136
0.180789
-0.119957
0.176267
-0.161248
0.16948
-0.178562
0.161903
-0.180793
0.153974
-0.179022
0.146857
-0.177171
0.139648
-0.174067
0.128942
-0.176366
0.114938
-0.188509
0.102986
-0.193435
0.0979592
-0.163025
0.100808
-0.0900809
0.110832
0.0028687
0.125651
0.0863507
0.142208
0.143198
0.157165
0.181302
0.167488
0.21836
0.171219
0.262449
0.168152
0.300871
0.160382
0.302854
0.15105
0.240656
0.142021
0.117258
0.135552
-0.033615
0.134204
-0.161933
0.135788
-0.228325
0.131484
-0.245035
0.121566
-0.253745
0.114257
-0.252425
0.114784
-0.205572
0.120262
-0.0986966
0.125886
0.0332874
0.128813
0.178576
0.128392
0.283117
0.126991
0.322372
0.124924
0.268725
0.123158
0.109279
0.119212
-0.0551612
0.111485
-0.244621
0.109286
-0.336871
0.107425
-0.249499
0.10764
-0.102975
0.107496
0.222127
0.101553
0.313142
0.0944426
-0.0433978
-0.0436586
-0.0275476
-0.0251538
-0.00761769
-0.00117083
0.0159114
0.0252924
0.040308
0.0514811
0.0637669
0.0753577
0.0839677
0.0958637
0.099898
0.113328
0.112205
0.128797
0.123576
0.141092
0.137358
0.144123
0.153852
0.131963
0.169338
0.105877
0.180772
0.0668177
0.187824
0.010433
0.190172
-0.0574613
0.18715
-0.116935
0.179565
-0.153663
0.17007
-0.169067
0.16071
-0.171434
0.151548
-0.16986
0.143224
-0.168847
0.13549
-0.166333
0.124993
-0.165868
0.11066
-0.174176
0.0975982
-0.180373
0.0920185
-0.157445
0.0955095
-0.093572
0.10672
-0.0083423
0.122892
0.0701796
0.141092
0.124998
0.158456
0.163938
0.171984
0.204831
0.179255
0.255179
0.179307
0.300818
0.173107
0.309054
0.1633
0.250463
0.152308
0.128249
0.14247
-0.0237766
0.137208
-0.156671
0.136937
-0.228055
0.132667
-0.240765
0.122333
-0.24341
0.114093
-0.244185
0.114591
-0.20607
0.120816
-0.104922
0.127401
0.026702
0.131475
0.174502
0.13157
0.283021
0.130115
0.323828
0.127587
0.271254
0.125624
0.111242
0.121509
-0.0510464
0.112681
-0.235793
0.109989
-0.33418
0.108249
-0.247758
0.109744
-0.10447
0.111226
0.220644
0.104554
0.319814
0.103025
-0.0257942
-0.0428486
-0.0198868
-0.0310613
-0.00800182
-0.0130558
0.00971235
0.00757824
0.0306866
0.0305068
0.0526641
0.0533802
0.0734639
0.0750638
0.0919257
0.0948662
0.108257
0.112466
0.124377
0.124972
0.142344
0.126157
0.161122
0.113184
0.177187
0.0898113
0.188799
0.0552058
0.195783
0.00344921
0.196887
-0.0585651
0.191526
-0.111573
0.181445
-0.143583
0.169798
-0.157419
0.159027
-0.160663
0.149072
-0.159906
0.139845
-0.159619
0.131756
-0.158244
0.122038
-0.156149
0.108272
-0.160411
0.0944144
-0.166516
0.0877679
-0.150798
0.0912608
-0.0970648
0.102823
-0.0199045
0.119674
0.0533287
0.138878
0.105794
0.158288
0.144528
0.175119
0.187999
0.186328
0.243971
0.189715
0.297431
0.185346
0.313423
0.175357
0.260452
0.162775
0.140832
0.150058
-0.0110604
0.140871
-0.147484
0.13828
-0.225463
0.134085
-0.23657
0.123597
-0.232923
0.114218
-0.234805
0.114323
-0.206176
0.121322
-0.11192
0.129048
0.0189757
0.134393
0.169157
0.135048
0.282366
0.133467
0.325409
0.13043
0.274291
0.128366
0.113306
0.124336
-0.0470164
0.114514
-0.225971
0.111216
-0.330881
0.109548
-0.246091
0.112207
-0.107129
0.115367
0.217484
0.1082
0.326981
0.112409
0.0183389
-0.0340149
0.0133265
-0.0260488
0.0151225
-0.0148518
0.0235481
-0.000847363
0.0366883
0.0173666
0.0536392
0.0364293
0.0725617
0.0561413
0.0918243
0.0756036
0.110696
0.0935946
0.129837
0.10583
0.149817
0.106177
0.168764
0.0942376
0.184102
0.0744726
0.195367
0.0439411
0.201987
-0.00317071
0.201622
-0.0582004
0.193951
-0.103902
0.18178
-0.131412
0.168573
-0.144212
0.156756
-0.148846
0.146425
-0.149575
0.136784
-0.149979
0.128337
-0.149797
0.119548
-0.147361
0.107174
-0.148036
0.0932431
-0.152585
0.085272
-0.142827
0.08793
-0.0997229
0.0992222
-0.0311966
0.116005
0.0365456
0.135457
0.0863418
0.156282
0.123704
0.176215
0.168066
0.19162
0.228566
0.199092
0.289959
0.197401
0.315114
0.187931
0.269922
0.173536
0.155227
0.158123
0.00435224
0.145101
-0.134462
0.139727
-0.220089
0.135523
-0.232366
0.125215
-0.222614
0.114615
-0.224205
0.113919
-0.20548
0.121638
-0.119639
0.130692
0.00992194
0.137505
0.162344
0.13881
0.281061
0.137019
0.3272
0.133415
0.277895
0.131325
0.115397
0.127618
-0.0433097
0.116932
-0.215285
0.112925
-0.326874
0.111267
-0.244432
0.114935
-0.110798
0.119838
0.212581
0.112441
0.334378
0.122453
0.0754844
-0.0237751
0.0663527
-0.0169172
0.060531
-0.00903013
0.0588072
0.000876431
0.0622864
0.0138874
0.0711034
0.0276123
0.0846265
0.0426182
0.101467
0.0587634
0.120171
0.07489
0.139857
0.0861447
0.159389
0.0866443
0.176606
0.077021
0.19041
0.0606686
0.200988
0.0333634
0.206563
-0.00874562
0.204183
-0.0558206
0.194248
-0.0939677
0.180479
-0.117642
0.166401
-0.130135
0.153973
-0.136417
0.143448
-0.13905
0.133797
-0.140327
0.125139
-0.141139
0.117103
-0.139325
0.106657
-0.13759
0.093668
-0.139596
0.0845724
-0.133732
0.0856199
-0.10077
0.0958937
-0.0414704
0.111871
0.020568
0.130791
0.0674226
0.152331
0.102163
0.174956
0.145441
0.194412
0.20911
0.20586
0.278511
0.20674
0.314234
0.198217
0.278445
0.183708
0.169736
0.166248
0.021812
0.149681
-0.117894
0.14117
-0.211578
0.136775
-0.227972
0.127021
-0.21286
0.115273
-0.212458
0.113329
-0.203536
0.121625
-0.127935
0.132161
-0.000614163
0.140602
0.153903
0.142713
0.27895
0.140744
0.329169
0.136534
0.282105
0.134462
0.117469
0.131274
-0.0401213
0.119868
-0.203879
0.115064
-0.32207
0.113358
-0.242727
0.117824
-0.115264
0.124533
0.205872
0.117199
0.341711
0.132988
0.118607
-0.0167644
0.112324
-0.0106345
0.107117
-0.00382312
0.102952
0.00504181
0.10133
0.0155091
0.103248
0.0256951
0.109575
0.0362908
0.120521
0.047817
0.135456
0.0599555
0.152745
0.0688551
0.169867
0.0695229
0.184618
0.06227
0.196778
0.0485082
0.205975
0.0241664
0.209381
-0.0121516
0.204339
-0.0507788
0.192375
-0.0820039
0.177592
-0.102859
0.163227
-0.115769
0.150634
-0.123824
0.140074
-0.12849
0.130675
-0.130929
0.122053
-0.132517
0.114473
-0.131745
0.105916
-0.129033
0.09478
-0.12846
0.0853254
-0.124277
0.0844058
-0.0998508
0.0929735
-0.0500382
0.10757
0.00597173
0.125275
0.0497173
0.146427
0.0810116
0.170776
0.121092
0.194447
0.185439
0.210908
0.26205
0.215281
0.309861
0.207805
0.28592
0.193009
0.184532
0.173696
0.0411257
0.154296
-0.0984944
0.142515
-0.199796
0.137659
-0.223116
0.128832
-0.204034
0.116187
-0.199812
0.112544
-0.199894
0.121118
-0.136509
0.133296
-0.0127925
0.143638
0.143561
0.146755
0.275834
0.144593
0.33133
0.139749
0.286949
0.137724
0.119494
0.135221
-0.0376178
0.123242
-0.1919
0.11756
-0.316389
0.115762
-0.240928
0.120789
-0.120292
0.12936
0.197301
0.122399
0.348673
0.143829
0.138941
-0.0133344
0.136854
-0.0085481
0.135637
-0.00260541
0.135042
0.00563618
0.135482
0.0150695
0.137047
0.0241301
0.1405
0.0328379
0.146993
0.0413232
0.156858
0.0500905
0.169401
0.0563127
0.182282
0.0566415
0.193614
0.0509384
0.203199
0.0389234
0.209771
0.0175944
0.209614
-0.0119954
0.201595
-0.0427596
0.188169
-0.0685776
0.173113
-0.0878025
0.158986
-0.101642
0.146612
-0.11145
0.136129
-0.118007
0.127067
-0.121867
0.11878
-0.12423
0.111515
-0.12448
0.104403
-0.121921
0.0955193
-0.119577
0.0867943
-0.115552
0.0842847
-0.0973412
0.0906584
-0.0564119
0.103187
-0.00655681
0.119085
0.0338194
0.139034
0.0610628
0.164061
0.0960643
0.190586
0.158914
0.211218
0.241417
0.21956
0.301519
0.214189
0.291292
0.199619
0.199101
0.180189
0.0605561
0.158688
-0.0769931
0.143652
-0.184761
0.13796
-0.217424
0.130407
-0.196481
0.117306
-0.18671
0.111599
-0.194187
0.119998
-0.144908
0.133804
-0.0265988
0.146269
0.131096
0.150753
0.27135
0.148646
0.333438
0.143142
0.292452
0.141113
0.121523
0.139397
-0.035902
0.126973
-0.179476
0.120327
-0.309742
0.118429
-0.23903
0.123753
-0.125615
0.134193
0.186861
0.127925
0.354941
0.154765
0.141249
-0.0113988
0.140917
-0.00821629
0.142114
-0.00380234
0.145423
0.00232707
0.149896
0.0105966
0.154772
0.0192538
0.16007
0.0275406
0.166624
0.0347689
0.175062
0.041653
0.184644
0.0467299
0.193823
0.0474634
0.201557
0.0432039
0.207345
0.033135
0.209162
0.0157777
0.205172
-0.008005
0.195108
-0.0326957
0.181453
-0.0549229
0.167039
-0.0733888
0.153622
-0.0882249
0.141791
-0.0996196
0.131572
-0.107788
0.122815
-0.11311
0.11503
-0.116445
0.108142
-0.117592
0.101964
-0.115743
0.0951187
-0.112731
0.087946
-0.108379
0.0848235
-0.0942187
0.0892128
-0.0608012
0.0995192
-0.0168632
0.113075
0.0202638
0.130678
0.0434596
0.155003
0.0717394
0.184495
0.129422
0.210553
0.21536
0.223057
0.289016
0.21917
0.295179
0.204853
0.213418
0.184967
0.0804416
0.162252
-0.0542777
0.144453
-0.166962
0.137549
-0.21052
0.131522
-0.190455
0.118617
-0.173805
0.110623
-0.186193
0.118136
-0.152421
0.133667
-0.0421297
0.1486
0.116163
0.154671
0.265279
0.152679
0.33543
0.14655
0.298582
0.14453
0.123543
0.143703
-0.0350745
0.130979
-0.166753
0.123323
-0.302086
0.121322
-0.237029
0.126685
-0.130979
0.138964
0.174583
0.133691
0.360214
0.165581
0.138486
-0.00999238
0.13769
-0.00741943
0.138035
-0.00414819
0.140244
0.000118326
0.144561
0.00627941
0.150692
0.0131234
0.158122
0.02011
0.166015
0.0268764
0.174745
0.0329233
0.184046
0.0374284
0.192391
0.0391189
0.198872
0.0367223
0.202812
0.0291951
0.202934
0.0156561
0.197494
-0.0025652
0.187293
-0.0224946
0.174575
-0.0422049
0.161263
-0.0600771
0.148605
-0.075567
0.137279
-0.0882933
0.127383
-0.0978921
0.118835
-0.104562
0.111474
-0.109084
0.105037
-0.111155
0.0993906
-0.110096
0.0939333
-0.107274
0.0885099
-0.102956
0.0857732
-0.0914821
0.0886846
-0.0637126
0.0965196
-0.0246981
0.1076
0.00918322
0.122326
0.0287333
0.143714
0.050352
0.172509
0.100627
0.201997
0.185871
0.220787
0.270226
0.221767
0.294198
0.208835
0.226351
0.189473
0.0998034
0.166064
-0.0308685
0.145751
-0.146649
0.137059
-0.201828
0.132358
-0.185753
0.120236
-0.161684
0.110136
-0.176093
0.116002
-0.158287
0.132272
-0.0584001
0.149822
0.0986133
0.158341
0.25676
0.157063
0.336708
0.150309
0.305337
0.148159
0.125692
0.148135
-0.0350507
0.135254
-0.153872
0.126579
-0.293411
0.124481
-0.234931
0.129566
-0.136064
0.143526
0.160623
0.139552
0.364187
0.176038
0.170633
-0.00647849
-0.174147
0.167717
-0.00450357
0.165434
-0.00186457
0.163884
0.00166783
0.163836
0.00632786
0.165213
0.0117464
0.167906
0.0174162
0.171838
0.022945
0.177096
0.0276646
0.183648
0.0308765
0.191199
0.0315677
0.199251
0.0286709
0.206846
0.0215999
0.21238
0.0101223
0.214666
-0.00485085
0.213594
-0.0214226
0.209796
-0.0384072
0.20405
-0.0543307
0.196941
-0.0684585
0.188988
-0.0803403
0.180561
-0.0894654
0.171855
-0.0958553
0.163258
-0.100488
0.154672
-0.102568
0.145915
-0.101339
0.137263
-0.0986222
0.127978
-0.0936709
0.117946
-0.0814498
0.109701
-0.0554684
0.106583
-0.0215795
0.109491
0.00627451
0.118033
0.0201913
0.130583
0.0378022
0.145972
0.0852385
0.161881
0.169963
0.174474
0.257632
0.182243
0.286429
0.187397
0.221197
0.189247
0.0979535
0.183833
-0.0254547
0.17335
-0.136166
0.163912
-0.19239
0.155662
-0.177503
0.141464
-0.147486
0.127106
-0.161735
0.124034
-0.155215
0.128945
-0.0633117
0.136295
0.0912633
0.138723
0.254332
0.13808
0.337351
0.138399
0.305017
0.144213
0.119877
0.149398
-0.0402351
0.139595
-0.14407
0.129221
-0.283036
0.123074
-0.228784
0.122614
-0.135605
0.13319
0.150047
0.130979
0.366399
0.184791
0.181699
-0.00384629
-0.184332
0.179516
-0.00231975
0.177816
-0.00016512
0.176759
0.00272505
0.176766
0.00632033
0.178019
0.0104942
0.180578
0.0148563
0.184499
0.0190241
0.189697
0.022467
0.19596
0.0246136
0.202853
0.0246751
0.209718
0.0218055
0.215678
0.0156402
0.219778
0.00602175
0.221259
-0.00633167
0.220068
-0.0202317
0.216522
-0.0348616
0.211059
-0.0488669
0.204107
-0.0615073
0.196177
-0.0724096
0.187874
-0.081163
0.179343
-0.0873244
0.170845
-0.0919894
0.16256
-0.0942834
0.153983
-0.0927622
0.145336
-0.0899748
0.136992
-0.0853272
0.128817
-0.073275
0.121661
-0.0483122
0.118061
-0.0179795
0.119973
0.00436287
0.127376
0.0127886
0.139023
0.026155
0.154533
0.0697279
0.17211
0.152386
0.18706
0.242683
0.196524
0.276965
0.202029
0.215691
0.204337
0.0956461
0.198797
-0.0199154
0.186923
-0.124292
0.175601
-0.181068
0.166835
-0.168736
0.152777
-0.133428
0.137289
-0.146247
0.133082
-0.151008
0.138491
-0.0687208
0.147955
0.0817989
0.151852
0.250435
0.151725
0.337478
0.152165
0.304578
0.158326
0.113716
0.164237
-0.0461461
0.153166
-0.132998
0.141013
-0.270883
0.134203
-0.221974
0.13318
-0.134583
0.145027
0.138201
0.143888
0.367537
0.193582
0.193907
-0.00152078
-0.196233
0.19204
-0.000451996
0.190629
0.00124525
0.189862
0.00349249
0.189965
0.00621659
0.191134
0.00932536
0.193462
0.0125286
0.196948
0.0155376
0.201495
0.0179204
0.206898
0.0192104
0.212758
0.0188154
0.218474
0.0160895
0.223354
0.0107606
0.22666
0.0027154
0.227868
-0.00753953