/*--------------------------------*- C++ -*----------------------------------*\
| =========                 |                                                 |
| \\      /  F ield         | OpenFOAM: The Open Source CFD Toolbox           |
|  \\    /   O peration     | Version:  2312                                  |
|   \\  /    A nd           | Website:  www.openfoam.com                      |
|    \\/     M anipulation  |                                                 |
\*---------------------------------------------------------------------------*/
FoamFile
{
    version     2.0;
    format      ascii;
    arch        "LSB;label=32;scalar=64";
    class       volVectorField;
    location    "26.5";
    object      U;
}
// * * * * * * * * * * * * * * * * * * * * * * * * * * * * * * * * * * * * * //

dimensions      [0 1 -1 0 0 0 0];

internalField   nonuniform List<vector> 
32230
(
(-0.00495084 0.00415412 2.89689e-20)
(-0.0143577 0.0114597 -5.84472e-20)
(-0.0228519 0.0175142 0)
(-0.0294901 0.0227249 -7.97899e-20)
(-0.0337009 0.0273048 2.54319e-20)
(-0.0351054 0.0313557 -2.41395e-20)
(-0.0334125 0.0349587 4.57087e-20)
(-0.0284026 0.0381877 -3.1102e-22)
(-0.0199016 0.0411236 2.03399e-20)
(-0.00774819 0.0438776 -7.85498e-20)
(0.00821548 0.0465855 -3.71552e-20)
(0.0281544 0.0494051 0)
(0.0522514 0.0525211 6.67077e-20)
(0.0807051 0.0561229 -1.27181e-19)
(0.113703 0.0603969 9.07429e-20)
(0.151412 0.065522 -1.15077e-19)
(0.193944 0.0716475 -2.71897e-20)
(0.241319 0.0788887 5.23988e-20)
(0.293445 0.0873143 5.01116e-20)
(0.350084 0.0969351 -4.79516e-20)
(0.410835 0.107699 0)
(0.475133 0.119487 -4.45364e-20)
(0.542248 0.132116 2.13241e-20)
(0.611307 0.145343 0)
(0.68132 0.158873 0)
(0.751219 0.172373 -1.9277e-20)
(0.819898 0.185484 -7.59492e-20)
(0.88625 0.197851 7.27239e-20)
(0.949249 0.209095 3.52198e-20)
(1.00791 0.21896 3.41969e-20)
(1.06148 0.226992 0)
(1.10929 0.233367 0)
(1.15084 0.237021 6.42199e-20)
(1.18652 0.239772 -9.18159e-20)
(1.21476 0.237641 6.05615e-20)
(1.23934 0.238126 -1.16788e-19)
(1.25565 0.227447 5.64802e-20)
(-0.00610505 0.00468487 5.69934e-23)
(-0.0166703 0.0119478 2.92227e-20)
(-0.0254988 0.0171579 -2.78191e-20)
(-0.0317294 0.0210961 9.58716e-23)
(-0.0348437 0.0242215 5.07846e-20)
(-0.0344813 0.0268128 9.64027e-20)
(-0.0303368 0.0290852 -1.14644e-19)
(-0.0221329 0.0312143 4.36818e-20)
(-0.00961529 0.0333685 1.61732e-23)
(0.00747113 0.0357231 3.91531e-20)
(0.0293837 0.0384669 4.31248e-24)
(0.0563806 0.0418046 3.51828e-20)
(0.0886949 0.045943 -9.98189e-20)
(0.126522 0.051077 3.21169e-20)
(0.169984 0.0573907 1.20562e-19)
(0.219082 0.0650272 0)
(0.273667 0.0740762 2.73204e-20)
(0.333398 0.0845627 0)
(0.397732 0.0964355 0)
(0.465919 0.109562 0)
(0.53701 0.123728 -2.30265e-20)
(0.609898 0.138645 8.7991e-20)
(0.683353 0.153962 -8.45989e-20)
(0.756084 0.169284 -3.6299e-22)
(0.826796 0.184189 1.38431e-19)
(0.894251 0.198257 -7.57933e-20)
(0.957326 0.211085 -7.44992e-20)
(1.01507 0.222323 1.43526e-19)
(1.06675 0.231665 -1.38649e-19)
(1.11183 0.23892 6.68265e-20)
(1.15021 0.243919 -6.49212e-20)
(1.18168 0.246691 -3.10277e-20)
(1.2071 0.247152 0)
(1.22596 0.245673 8.96381e-20)
(1.2408 0.241859 -1.14196e-19)
(1.24991 0.237441 8.17473e-20)
(1.25756 0.230019 -2.59309e-20)
(-0.00743052 0.00528321 -5.81891e-20)
(-0.0191383 0.0126457 0)
(-0.0279555 0.0172304 -8.39545e-20)
(-0.0331821 0.0201648 8.01853e-20)
(-0.0343796 0.0221492 1.01643e-19)
(-0.031209 0.0236428 -4.84102e-20)
(-0.0233373 0.0249999 -8.47139e-23)
(-0.0104253 0.0265112 2.1567e-20)
(0.00786728 0.0284352 -2.91951e-22)
(0.0318789 0.0310186 -3.93461e-20)
(0.0619273 0.0345032 1.41561e-22)
(0.0982794 0.0391234 3.52e-20)
(0.141112 0.0450906 -3.3554e-20)
(0.190457 0.0525847 3.14116e-20)
(0.24616 0.0617305 -1.2042e-19)
(0.307835 0.072579 0)
(0.374835 0.0850921 8.15174e-20)
(0.446251 0.0991339 -5.19558e-20)
(0.520928 0.114468 -2.47943e-20)
(0.597512 0.130764 2.37348e-20)
(0.674515 0.147612 -9.41152e-23)
(0.75039 0.164549 0)
(0.823618 0.181081 1.63852e-22)
(0.892787 0.196718 4.05992e-20)
(0.956674 0.211002 -7.7858e-20)
(1.0143 0.22354 3.01005e-22)
(1.06499 0.234019 0)
(1.10838 0.242242 0)
(1.14443 0.248088 3.43046e-20)
(1.17346 0.251627 -3.31801e-20)
(1.196 0.252855 -6.32922e-20)
(1.21287 0.252202 9.1632e-20)
(1.22498 0.249467 0)
(1.2332 0.245793 2.76086e-20)
(1.23906 0.240001 2.78672e-20)
(1.24188 0.235179 -1.13842e-21)
(1.24653 0.227636 -4.88348e-20)
(-0.00880643 0.00583944 2.91562e-20)
(-0.0214577 0.013336 2.96441e-20)
(-0.029747 0.0174932 0)
(-0.0331928 0.0197231 -5.35937e-20)
(-0.0314541 0.0209442 2.57416e-20)
(-0.0242138 0.0217894 1.45594e-22)
(-0.011111 0.0227519 2.30101e-20)
(0.00824724 0.0242347 2.18296e-20)
(0.0342573 0.0265853 4.1401e-20)
(0.067282 0.0301143 -3.94821e-20)
(0.1076 0.0351008 -3.73354e-20)
(0.155346 0.0417834 0)
(0.210441 0.0503427 -1.38727e-22)
(0.272535 0.0608815 3.17715e-20)
(0.34096 0.0734022 3.00509e-20)
(0.414713 0.0877907 5.70273e-20)
(0.492474 0.103809 -8.17404e-20)
(0.572656 0.121098 -2.59375e-20)
(0.65349 0.139198 -2.47476e-20)
(0.733135 0.157571 2.36699e-20)
(0.809787 0.175641 -2.2676e-20)
(0.881799 0.192833 -2.16252e-20)
(0.94778 0.208615 2.09029e-20)
(1.00667 0.222535 4.00762e-20)
(1.0578 0.23425 -1.90111e-20)
(1.1009 0.243546 7.44436e-20)
(1.13611 0.250345 -8.85513e-20)
(1.16392 0.254699 -6.85832e-20)
(1.18511 0.256769 3.2161e-20)
(1.20067 0.256815 9.43434e-20)
(1.21171 0.25511 0)
(1.21925 0.252056 2.87135e-20)
(1.2244 0.247773 0)
(1.22779 0.242989 -2.75911e-20)
(1.23041 0.237028 2.65063e-20)
(1.23202 0.23214 -4.969e-20)
(1.23495 0.225152 -4.67739e-20)
(-0.0100921 0.00625105 2.95219e-20)
(-0.0232868 0.0137988 -5.93795e-20)
(-0.0303679 0.0176731 5.66975e-20)
(-0.0311015 0.0194875 -5.4197e-20)
(-0.0252521 0.0203431 0)
(-0.0125291 0.0210306 -2.43646e-20)
(0.00744041 0.0221724 0)
(0.0350659 0.0242755 2.20956e-20)
(0.0707273 0.0277635 -4.17279e-20)
(0.114697 0.0329918 1.98298e-20)
(0.167051 0.0402449 3.73118e-20)
(0.22758 0.0497199 0)
(0.295713 0.0615026 6.71689e-20)
(0.370466 0.075544 -3.17491e-20)
(0.45044 0.0916442 0)
(0.533866 0.109449 2.87228e-20)
(0.618702 0.128462 0)
(0.70277 0.148081 7.76855e-20)
(0.78391 0.167635 -7.42377e-20)
(0.860138 0.186445 2.3549e-20)
(0.929788 0.203875 0)
(0.991616 0.219383 8.61399e-20)
(1.04486 0.232564 -4.12312e-20)
(1.08929 0.243167 -5.91009e-20)
(1.12513 0.251109 5.65665e-20)
(1.15303 0.256462 1.83025e-20)
(1.17396 0.259425 1.75771e-20)
(1.18909 0.260295 5.02594e-20)
(1.19966 0.259407 -1.60275e-19)
(1.20685 0.257132 9.14318e-20)
(1.21169 0.253759 -2.88364e-20)
(1.215 0.249653 -8.49964e-20)
(1.21743 0.24485 0)
(1.21919 0.239918 2.52909e-20)
(1.22095 0.234172 0)
(1.22186 0.229481 2.42265e-20)
(1.22437 0.222997 4.53873e-20)
(-0.0111481 0.00643978 2.98548e-20)
(-0.024284 0.0138502 -6.01274e-20)
(-0.0293235 0.0175195 -1.44809e-22)
(-0.0262825 0.0191748 5.44637e-20)
(-0.0150331 0.0200574 -2.59598e-20)
(0.0046753 0.0210951 0)
(0.0331887 0.0230237 0)
(0.0708578 0.026436 -2.20848e-20)
(0.117923 0.0318076 2.09261e-20)
(0.174391 0.0395012 1.60804e-22)
(0.239908 0.0497524 3.74842e-20)
(0.313664 0.0626434 -3.58433e-20)
(0.394332 0.0780771 -6.72724e-20)
(0.480081 0.0957609 -6.36437e-20)
(0.56866 0.115211 1.21318e-19)
(0.657554 0.135782 -8.64743e-20)
(0.744176 0.156714 -2.73403e-20)
(0.82609 0.177205 0)
(0.901208 0.196482 9.86026e-20)
(0.967945 0.213872 -9.41104e-20)
(1.02532 0.228858 0)
(1.07298 0.241114 2.12026e-20)
(1.11117 0.250518 -1.18838e-22)
(1.14065 0.257135 -3.86675e-20)
(1.16253 0.261185 -1.87437e-20)
(1.17816 0.262999 0)
(1.18892 0.26296 0)
(1.19613 0.261459 1.64408e-20)
(1.2009 0.258848 -7.7265e-20)
(1.20411 0.255429 5.93691e-20)
(1.20638 0.251411 1.1338e-19)
(1.20811 0.247 -5.42695e-20)
(1.20954 0.242183 0)
(1.21069 0.237325 -2.52804e-20)
(1.21186 0.231842 0)
(1.21245 0.227289 2.20719e-20)
(1.2144 0.221107 -2.2118e-20)
(-0.0118537 0.00636325 -3.02884e-20)
(-0.0241347 0.0133767 0)
(-0.0261512 0.0168641 -3.92709e-22)
(-0.0181526 0.0185861 2.78048e-20)
(-0.000121864 0.0198854 -2.09432e-22)
(0.028122 0.0218037 -3.80331e-22)
(0.0668277 0.025166 -9.44373e-20)
(0.116164 0.0306208 2.24555e-20)
(0.176049 0.0386517 0)
(0.245978 0.0495647 4.00976e-20)
(0.324891 0.063459 -3.9362e-22)
(0.411096 0.080198 -1.80768e-20)
(0.5023 0.099394 -3.3823e-20)
(0.595734 0.120423 1.62622e-20)
(0.68838 0.142473 3.06238e-20)
(0.777247 0.164619 0)
(0.859654 0.185925 2.73265e-20)
(0.933469 0.205537 0)
(0.997273 0.222766 -6.78225e-23)
(1.05043 0.23715 2.34404e-20)
(1.09304 0.248473 -4.4309e-20)
(1.12587 0.256753 4.24087e-20)
(1.15013 0.262207 0)
(1.16734 0.265189 3.2275e-22)
(1.17905 0.266125 0)
(1.18674 0.265449 0)
(1.19168 0.26356 0)
(1.19485 0.260787 0)
(1.19696 0.257376 -4.47768e-20)
(1.19847 0.253509 5.75167e-20)
(1.19965 0.249287 2.67593e-20)
(1.20062 0.244814 -5.23198e-20)
(1.20147 0.240054 0)
(1.20216 0.235262 0)
(1.2029 0.229969 0)
(1.20323 0.225482 -6.51204e-20)
(1.20469 0.219517 4.12088e-20)
(-0.0121102 0.00601635 2.99902e-22)
(-0.0225574 0.0123516 -3.0881e-20)
(-0.0204172 0.0156598 2.93903e-20)
(-0.00615555 0.0176745 5.86877e-22)
(0.0201204 0.0198069 1.3553e-22)
(0.0584649 0.0231839 5.05876e-20)
(0.108913 0.0286849 0)
(0.171265 0.0369634 4.52324e-20)
(0.244859 0.0484355 0)
(0.32838 0.0632469 -2.01482e-20)
(0.41976 0.0812375 0)
(0.51621 0.101927 -1.8031e-20)
(0.614406 0.124541 0)
(0.710793 0.148086 1.61341e-20)
(0.801957 0.171461 0)
(0.884985 0.19359 2.89756e-20)
(0.957742 0.213545 -2.73768e-20)
(1.01902 0.230641 -2.58731e-20)
(1.06857 0.244489 -2.45754e-20)
(1.10698 0.254995 -4.6243e-20)
(1.13547 0.262328 4.42563e-20)
(1.15567 0.266841 -2.07307e-20)
(1.16936 0.268998 3.94428e-20)
(1.17822 0.269289 -7.48577e-20)
(1.18374 0.268173 5.35101e-20)
(1.18709 0.266032 0)
(1.18911 0.263163 1.59098e-20)
(1.19039 0.259774 0)
(1.19126 0.256003 0)
(1.19194 0.25194 0)
(1.1925 0.247632 5.26458e-20)
(1.19301 0.243135 -5.04311e-20)
(1.19347 0.238424 0)
(1.19385 0.233675 0)
(1.19429 0.228538 2.11882e-20)
(1.19444 0.22408 4.1099e-20)
(1.19556 0.218299 -2.01709e-20)
(-0.011835 0.00542591 -6.27704e-20)
(-0.0192905 0.0108336 -2.50957e-22)
(-0.0117014 0.0139969 6.00578e-20)
(0.0102553 0.0165796 -8.50247e-20)
(0.0463085 0.0200284 -1.12018e-22)
(0.096283 0.025519 -2.57286e-20)
(0.159819 0.0339299 -2.43512e-20)
(0.236083 0.0458338 -2.58162e-22)
(0.323511 0.0614606 -8.65602e-20)
(0.419653 0.0806522 1.02424e-19)
(0.521207 0.102845 -3.89018e-20)
(0.624245 0.127108 0)
(0.724626 0.152251 -5.15848e-20)
(0.818472 0.176979 6.51253e-20)
(0.902616 0.200065 -4.63266e-20)
(0.974922 0.220506 -2.89688e-20)
(1.03441 0.237626 2.7371e-20)
(1.08122 0.251118 5.16338e-20)
(1.11639 0.261017 0)
(1.14156 0.26763 2.2915e-20)
(1.15871 0.271435 2.16262e-20)
(1.1698 0.272983 3.0672e-22)
(1.17658 0.272808 -3.87358e-20)
(1.1805 0.271377 1.90194e-20)
(1.18266 0.269056 1.74597e-20)
(1.18378 0.266113 4.9283e-20)
(1.18437 0.262727 -4.74536e-20)
(1.18469 0.259015 1.49785e-20)
(1.18491 0.255048 -2.83892e-20)
(1.18509 0.25087 0)
(1.18526 0.246508 -3.82185e-20)
(1.18543 0.241994 4.85877e-20)
(1.1856 0.237316 -1.12546e-20)
(1.18575 0.232592 0)
(1.18593 0.227572 -2.11864e-20)
(1.18592 0.223105 0)
(1.18671 0.217474 -5.64825e-20)
(-0.0109496 0.00463839 3.17381e-20)
(-0.0140758 0.00895254 -2.08065e-22)
(0.000415474 0.0120944 3.91845e-22)
(0.0316138 0.0156191 0)
(0.0790003 0.0209703 5.44233e-20)
(0.142001 0.0293177 -3.28354e-22)
(0.219596 0.0414482 -3.81647e-22)
(0.309982 0.0577224 6.91546e-20)
(0.410341 0.0780207 -4.40919e-20)
(0.516845 0.101716 -2.05796e-20)
(0.624921 0.127723 -1.96514e-20)
(0.729767 0.154636 5.51193e-20)
(0.826967 0.18094 -5.21822e-20)
(0.913037 0.205235 3.2984e-20)
(0.985797 0.226426 3.08063e-20)
(1.04446 0.243841 0)
(1.08953 0.257248 0)
(1.12245 0.266804 -3.85697e-20)
(1.14526 0.272947 4.80237e-20)
(1.16019 0.276265 -6.88727e-20)
(1.16937 0.277382 -6.42826e-20)
(1.17461 0.276871 6.1251e-20)
(1.17732 0.275204 1.89288e-20)
(1.17852 0.272736 0)
(1.17891 0.269718 -1.68488e-20)
(1.17889 0.266312 3.1637e-20)
(1.17872 0.26262 -3.65013e-22)
(1.1785 0.258702 -1.439e-20)
(1.17831 0.254597 0)
(1.17815 0.250328 0)
(1.17803 0.245913 3.63254e-20)
(1.17793 0.24137 -3.53741e-20)
(1.17786 0.2367 1.1255e-20)
(1.1778 0.231976 0)
(1.17778 0.227038 0)
(1.17767 0.222534 0)
(1.17819 0.217035 0)
(-0.0093659 0.00371268 -3.27415e-20)
(-0.00664633 0.00689245 2.6127e-22)
(0.0163468 0.0102722 6.22875e-20)
(0.0584053 0.0152486 -2.96354e-20)
(0.118614 0.023206 -5.59503e-20)
(0.195747 0.0352189 2.65285e-20)
(0.28778 0.051845 -2.52278e-20)
(0.391563 0.0730542 4.74549e-20)
(0.502751 0.0981911 0)
(0.616089 0.126024 0)
(0.726027 0.154917 1.96503e-20)
(0.827491 0.183101 1.83815e-20)
(0.916566 0.208961 -6.03594e-22)
(0.990927 0.231278 -1.67098e-20)
(1.04992 0.249355 3.05899e-20)
(1.09433 0.263019 -1.47901e-20)
(1.126 0.272539 1.33831e-20)
(1.14729 0.27847 -2.55502e-20)
(1.1607 0.281506 3.61108e-20)
(1.1685 0.282343 5.58119e-20)
(1.17257 0.281592 -5.32123e-20)
(1.17432 0.27974 0)
(1.17475 0.277143 -1.89315e-20)
(1.17449 0.274042 -1.75976e-20)
(1.17393 0.27059 5.03968e-20)
(1.17328 0.266882 -2.14926e-22)
(1.17265 0.262972 -4.22114e-22)
(1.17208 0.258893 -4.19349e-20)
(1.17158 0.254666 2.62614e-20)
(1.17115 0.250307 -2.51527e-20)
(1.17079 0.245827 0)
(1.17047 0.241241 -3.36099e-20)
(1.17021 0.236558 1.09313e-20)
(1.16998 0.23182 -3.97713e-20)
(1.16981 0.226939 3.81065e-20)
(1.16961 0.222379 0)
(1.1699 0.217002 -8.27203e-21)
(-0.00698007 0.0027163 0)
(0.00327327 0.00487645 0)
(0.0364751 0.00891888 1.61504e-20)
(0.0910019 0.016007 -1.52638e-20)
(0.165315 0.0273751 5.65266e-20)
(0.257197 0.0438659 -4.06827e-20)
(0.363225 0.0656207 1.27646e-20)
(0.478586 0.0920109 2.41679e-20)
(0.597324 0.121685 2.79293e-23)
(0.713048 0.152767 0)
(0.819863 0.183186 0)
(0.913249 0.211056 1.88439e-20)
(0.990578 0.234975 0)
(1.0512 0.254171 -4.90862e-20)
(1.09613 0.268504 1.57726e-20)
(1.12752 0.27833 -2.88704e-20)
(1.14809 0.28432 1.35565e-20)
(1.16057 0.287272 1.23258e-20)
(1.16742 0.287961 -3.58702e-20)
(1.17061 0.28705 1.0796e-20)
(1.17158 0.285051 1.00744e-20)
(1.17134 0.282332 -1.00677e-20)
(1.1705 0.279135 3.63427e-20)
(1.16943 0.275612 -5.22366e-20)
(1.16833 0.271853 7.98723e-21)
(1.16728 0.267911 1.54744e-20)
(1.16634 0.263816 -4.26136e-20)
(1.16549 0.259586 4.10442e-20)
(1.16475 0.255236 -1.2518e-20)
(1.1641 0.250778 0)
(1.16353 0.246223 -1.11192e-20)
(1.16304 0.241583 0)
(1.16262 0.23687 4.03403e-20)
(1.16227 0.232106 -1.92573e-20)
(1.16198 0.227258 8.81545e-21)
(1.16171 0.222626 0)
(1.16179 0.217363 8.27477e-21)
(-0.00367576 0.00172582 1.72761e-20)
(0.0159492 0.00315788 -3.49749e-20)
(0.0611077 0.00846369 1.63782e-20)
(0.129583 0.0184613 -7.74399e-22)
(0.218904 0.0340959 -2.93595e-20)
(0.32546 0.0557888 1.36086e-20)
(0.444067 0.0830395 -2.59551e-20)
(0.568103 0.114431 0)
(0.690246 0.147846 -2.27837e-20)
(0.8036 0.180869 -1.08634e-20)
(0.902793 0.211262 0)
(0.984669 0.237347 -1.88479e-20)
(1.04841 0.258213 0)
(1.09513 0.273696 4.9132e-20)
(1.12729 0.28422 -3.12069e-20)
(1.14789 0.290563 1.44097e-20)
(1.16 0.293636 2.64948e-20)
(1.16627 0.294306 -6.16954e-22)
(1.16881 0.293306 -1.20729e-20)
(1.16915 0.291191 0)
(1.16831 0.288352 -1.01072e-20)
(1.16692 0.285044 -9.66396e-21)
(1.16536 0.281423 0)
(1.1638 0.277581 0)
(1.16234 0.273568 -7.9901e-21)
(1.16101 0.269416 -2.2027e-20)
(1.15981 0.265143 4.21832e-20)
(1.15875 0.260761 0)
(1.1578 0.256283 2.4566e-20)
(1.15697 0.251718 0)
(1.15624 0.247078 1.11231e-20)
(1.1556 0.242374 0)
(1.15507 0.237617 9.29364e-21)
(1.15462 0.23282 -2.72824e-20)
(1.15424 0.227984 -8.8186e-21)
(1.15391 0.223271 0)
(1.15381 0.21812 0)
(0.000666358 0.000830099 1.82213e-20)
(0.0316092 0.0020172 1.75728e-20)
(0.0904236 0.00935573 0)
(0.174062 0.023161 1.5668e-20)
(0.27874 0.043894 -1.45456e-20)
(0.399059 0.0713178 2.84104e-20)
(0.527841 0.104065 -1.31931e-20)
(0.656809 0.139815 3.72578e-20)
(0.77787 0.175766 -4.72036e-22)
(0.884507 0.209226 -1.12594e-20)
(0.972722 0.238128 1.02692e-20)
(1.04127 0.26131 0)
(1.09124 0.278514 1.75079e-20)
(1.12529 0.290192 -4.12987e-20)
(1.14677 0.297224 1.55762e-20)
(1.15906 0.300642 2.81617e-20)
(1.1651 0.301432 -1.37466e-20)
(1.1672 0.300416 2.43899e-20)
(1.16701 0.298215 -4.63451e-20)
(1.16563 0.295257 -2.11831e-20)
(1.16372 0.29182 6.00394e-20)
(1.16166 0.288072 -9.70066e-21)
(1.15965 0.284111 0)
(1.15776 0.27999 0)
(1.15604 0.275741 1.51101e-20)
(1.15448 0.271383 -7.58532e-21)
(1.15309 0.26693 -6.97837e-21)
(1.15184 0.262391 -6.16337e-21)
(1.15072 0.257778 -1.20492e-20)
(1.14974 0.253099 -1.65509e-20)
(1.14888 0.248366 1.59564e-20)
(1.14814 0.243588 0)
(1.14751 0.238777 -4.49474e-21)
(1.14699 0.233941 4.47044e-22)
(1.14655 0.229095 0)
(1.14615 0.224299 0)
(1.14591 0.219256 7.04155e-21)
(0.00615475 0.000133351 -9.12582e-21)
(0.0504081 0.00175975 1.82786e-20)
(0.124424 0.0120463 -1.74707e-20)
(0.224029 0.0306 0)
(0.343729 0.0571494 -1.51835e-20)
(0.476017 0.0905408 1.43493e-20)
(0.611748 0.128369 1.32008e-20)
(0.741496 0.167434 -1.31271e-20)
(0.857263 0.204489 0)
(0.953813 0.236923 0)
(1.02913 0.263173 -1.02737e-20)
(1.08405 0.282779 0)
(1.12131 0.296162 0)
(1.14461 0.304285 -1.64679e-20)
(1.15771 0.308318 -7.60272e-21)
(1.16391 0.309388 2.09715e-20)
(1.16578 0.30844 -3.30517e-20)
(1.16517 0.306181 0)
(1.16329 0.303102 2.8109e-20)
(1.16087 0.299516 -6.06915e-22)
(1.15831 0.29561 -2.97319e-20)
(1.15583 0.291493 1.77165e-20)
(1.1535 0.287224 -4.4817e-22)
(1.15137 0.282838 -2.38162e-20)
(1.14944 0.278354 -1.45988e-20)
(1.1477 0.273787 3.32326e-22)
(1.14614 0.269147 1.2808e-20)
(1.14474 0.264444 -5.7837e-21)
(1.14349 0.259688 2.49091e-22)
(1.14239 0.254888 -1.03756e-20)
(1.14143 0.250054 3.48411e-20)
(1.14062 0.245196 -3.79494e-22)
(1.13993 0.240322 -1.32117e-20)
(1.13935 0.235441 -7.85479e-21)
(1.13885 0.230566 1.563e-20)
(1.1384 0.225693 0)
(1.13804 0.22075 -7.04735e-21)
(0.012872 -0.000244171 1.90214e-20)
(0.0723953 0.00270925 0)
(0.162892 0.0169692 0)
(0.27874 0.0411844 0)
(0.412369 0.0740643 0)
(0.554041 0.113304 0)
(0.693002 0.155403 0)
(0.819478 0.196475 0)
(0.926517 0.233183 0)
(1.01087 0.263364 -1.1293e-20)
(1.07275 0.28619 -1.04334e-20)
(1.11485 0.301956 0)
(1.14114 0.311674 0)
(1.15582 0.316659 8.22413e-21)
(1.16264 0.318212 2.25027e-20)
(1.16454 0.317434 -2.81035e-20)
(1.16363 0.315158 1.96857e-20)
(1.16129 0.311957 0)
(1.15836 0.308198 5.59934e-21)
(1.15529 0.304099 0)
(1.15231 0.299784 9.38818e-21)
(1.14953 0.295323 -2.23183e-20)
(1.14698 0.290754 -1.21782e-20)
(1.14466 0.2861 2.33121e-20)
(1.14256 0.281375 1.05716e-20)
(1.14066 0.27659 -1.67169e-20)
(1.13896 0.271756 -6.32738e-21)
(1.13744 0.266882 0)
(1.13609 0.261976 1.06855e-20)
(1.13491 0.257048 1.61483e-23)
(1.13388 0.252107 -9.57477e-21)
(1.13302 0.247162 0)
(1.13229 0.242219 0)
(1.13167 0.237286 0)
(1.13113 0.232366 -3.54129e-21)
(1.13063 0.227426 1.01108e-20)
(1.13018 0.222571 -6.50163e-21)
(0.0208592 -0.000169433 0)
(0.0974831 0.00519516 0)
(0.205367 0.0245189 0)
(0.337117 0.0552066 -8.62975e-21)
(0.482847 0.0946559 1.60019e-22)
(0.63075 0.139255 -7.38651e-21)
(0.769136 0.184512 3.57471e-20)
(0.888845 0.226184 -7.08545e-21)
(0.984788 0.261247 -1.86789e-20)
(1.05607 0.288274 1.13004e-20)
(1.10502 0.307274 1.04405e-20)
(1.1358 0.319238 0)
(1.15307 0.32562 8.69549e-21)
(1.16112 0.327927 -8.31744e-21)
(1.16339 0.327462 0)
(1.16234 0.325224 -1.75093e-22)
(1.15961 0.321905 -9.63478e-21)
(1.15617 0.317946 0)
(1.15257 0.313613 1.06492e-20)
(1.14908 0.309055 -1.01914e-20)
(1.14581 0.304352 9.11105e-21)
(1.1428 0.299551 4.07686e-21)
(1.14007 0.294676 -1.60218e-20)
(1.1376 0.289744 0)
(1.13536 0.284768 3.49498e-21)
(1.13335 0.279757 3.25353e-21)
(1.13154 0.274721 0)
(1.12993 0.269667 -5.44727e-21)
(1.12851 0.264604 5.21691e-21)
(1.12727 0.259541 4.93016e-21)
(1.12621 0.254487 0)
(1.12531 0.249449 8.28092e-21)
(1.12456 0.244432 1.7112e-21)
(1.12392 0.239441 -7.42142e-21)
(1.12335 0.234465 -1.58698e-21)
(1.12282 0.229476 -1.62659e-21)
(1.12229 0.224687 7.54971e-21)
(0.0301032 0.000500296 2.66823e-21)
(0.125424 0.00954352 1.01994e-20)
(0.251132 0.0350376 4.66479e-21)
(0.3978 0.0728359 -1.34118e-20)
(0.553194 0.118771 8.51057e-21)
(0.703914 0.167905 -7.75031e-21)
(0.838234 0.215022 3.87457e-21)
(0.948528 0.255946 6.69813e-21)
(1.0321 0.28832 9.31856e-21)
(1.09044 0.311625 0)
(1.12766 0.326694 5.14293e-21)
(1.14888 0.335083 -4.91848e-21)
(1.15902 0.338527 0)
(1.16213 0.338584 2.00437e-21)
(1.16118 0.336473 0)
(1.15814 0.33305 0)
(1.15422 0.328868 -2.96486e-21)
(1.15007 0.324255 4.43944e-21)
(1.14603 0.319398 -5.17847e-21)
(1.14224 0.314396 4.95589e-21)
(1.13876 0.309304 0)
(1.13559 0.304152 0)
(1.13272 0.298959 9.53273e-21)
(1.13013 0.293739 -1.87321e-21)
(1.12779 0.2885 -1.59813e-21)
(1.12569 0.283253 0)
(1.12381 0.278004 -2.7794e-21)
(1.12214 0.272762 5.24504e-21)
(1.12067 0.267535 -1.29214e-21)
(1.1194 0.262331 0)
(1.11832 0.257158 0)
(1.11742 0.252022 9.52313e-22)
(1.11667 0.246926 -1.01218e-21)
(1.11603 0.24187 0)
(1.11545 0.236834 -8.88389e-22)
(1.11489 0.231816 -8.33039e-22)
(1.11432 0.227068 -1.45592e-21)
(0.0405583 0.00192002 -2.62309e-21)
(0.155865 0.0160761 0)
(0.299327 0.0487999 0)
(0.459344 0.094102 -4.57162e-21)
(0.621566 0.1461 -2.13871e-21)
(0.77174 0.198685 2.04428e-21)
(0.89908 0.246323 -3.69086e-21)
(0.998216 0.285324 0)
(1.06907 0.314262 -3.1312e-21)
(1.11528 0.333573 0)
(1.14229 0.344813 1.2822e-21)
(1.1557 0.349946 -2.39557e-21)
(1.16035 0.350839 2.18502e-21)
(1.15985 0.349001 -2.05301e-21)
(1.15666 0.345514 -9.31327e-22)
(1.15229 0.341087 0)
(1.14759 0.336143 0)
(1.14297 0.330922 1.41411e-21)
(1.13864 0.325553 0)
(1.13465 0.320102 5.75352e-22)
(1.13102 0.314608 -2.14774e-23)
(1.12773 0.30909 -1.92284e-23)
(1.12476 0.303564 -1.88926e-21)
(1.12208 0.29804 -2.15967e-21)
(1.11968 0.292527 1.59973e-21)
(1.11753 0.287031 0)
(1.11561 0.281561 0)
(1.11391 0.276122 0)
(1.11243 0.270723 -1.18319e-21)
(1.11117 0.265371 0)
(1.11011 0.260072 0)
(1.10923 0.254831 -4.99558e-22)
(1.1085 0.24965 -1.32323e-21)
(1.10788 0.244523 -3.93864e-22)
(1.1073 0.239426 -3.96375e-22)
(1.10674 0.234395 -7.22751e-22)
(1.10616 0.229663 0)
(-0.000772759 -0.0243986 -2.01996e-21)
(-0.0058485 -0.0556586 0)
(-0.0163737 -0.0744993 0)
(-0.029969 -0.0845565 -3.78328e-21)
(-0.0453371 -0.0887813 1.83829e-21)
(-0.0617572 -0.089416 -1.75749e-21)
(-0.0787229 -0.0880179 -3.35526e-21)
(-0.0959055 -0.0855634 0)
(-0.113121 -0.0825926 -3.11327e-21)
(-0.130282 -0.0793551 0)
(-0.147356 -0.0759315 -1.47567e-21)
(-0.164344 -0.0723182 1.41134e-21)
(-0.18126 -0.0684769 -1.38421e-21)
(-0.198123 -0.0643601 -2.65265e-21)
(-0.214949 -0.0599206 1.28454e-21)
(-0.231755 -0.0551144 0)
(-0.248551 -0.0499017 0)
(-0.265345 -0.0442464 2.34644e-21)
(-0.282142 -0.0381171 0)
(-0.29894 -0.0314874 -1.14033e-21)
(-0.315742 -0.0243363 -2.11216e-23)
(-0.332547 -0.0166445 -2.10995e-23)
(-0.349345 -0.00839983 -4.15232e-21)
(-0.366123 0.000404426 -3.01838e-21)
(-0.382845 0.00977207 3.93954e-21)
(-0.399537 0.0197148 0)
(-0.416201 0.0301882 0)
(-0.432777 0.0411696 0)
(-0.449249 0.0526269 -3.59037e-21)
(-0.465611 0.0645001 0)
(-0.481847 0.0767756 0)
(-0.497918 0.0893902 -5.06914e-21)
(-0.513783 0.10227 -1.61965e-21)
(-0.52941 0.115355 1.63931e-21)
(-0.544799 0.128598 -4.68375e-21)
(-0.559976 0.141943 -3.03678e-21)
(-0.574884 0.155226 0)
(-0.000135523 -0.0200566 6.03028e-21)
(-0.00465628 -0.0451367 -8.11366e-21)
(-0.0151971 -0.0597015 -3.92537e-21)
(-0.029091 -0.0668715 1.87539e-20)
(-0.0448908 -0.0692164 -7.17169e-21)
(-0.0618016 -0.0686761 6.92263e-21)
(-0.0792804 -0.0665684 -9.84247e-21)
(-0.0969839 -0.0636893 6.32829e-21)
(-0.114725 -0.0604518 9.20687e-21)
(-0.132418 -0.0570219 5.96724e-21)
(-0.150033 -0.0534299 -1.14724e-20)
(-0.167573 -0.0496452 5.51438e-21)
(-0.185052 -0.0456183 0)
(-0.202489 -0.0412989 7.86566e-21)
(-0.219899 -0.0366416 -5.00687e-21)
(-0.237295 -0.0316066 0)
(-0.254687 -0.0261586 1.42757e-20)
(-0.272079 -0.020266 -1.15148e-20)
(-0.289471 -0.0139018 0)
(-0.306862 -0.00704437 0)
(-0.324239 0.000323364 0)
(-0.341588 0.00821687 0)
(-0.358894 0.0166444 3.91982e-21)
(-0.376135 0.0256072 1.18762e-20)
(-0.393284 0.0350983 -3.93609e-21)
(-0.41032 0.0450882 0)
(-0.427216 0.0555787 7.45003e-21)
(-0.443927 0.0665372 -1.44121e-20)
(-0.460411 0.0779221 1.0557e-20)
(-0.476627 0.0896851 0)
(-0.492529 0.101777 0)
(-0.508062 0.114133 3.34461e-21)
(-0.523148 0.126677 -3.03136e-21)
(-0.537688 0.139333 0)
(-0.551626 0.152045 -2.89446e-21)
(-0.565055 0.164747 -2.83004e-21)
(-0.578161 0.177235 -5.77729e-21)
(0.000197188 -0.0155295 0)
(-0.00401858 -0.0342862 0)
(-0.0144699 -0.0445545 0)
(-0.0283777 -0.0488697 7.36425e-21)
(-0.0442338 -0.0493763 2.96375e-23)
(-0.061212 -0.0476914 6.82455e-21)
(-0.0787543 -0.044888 -1.94761e-20)
(-0.0965121 -0.0415848 -6.40676e-21)
(-0.114297 -0.0380743 5.92866e-21)
(-0.132019 -0.0344445 1.15233e-20)
(-0.149648 -0.0306792 1.11164e-20)
(-0.167183 -0.0267233 0)
(-0.184633 -0.0225161 0)
(-0.202013 -0.0180051 0)
(-0.219332 -0.0131473 0)
(-0.236597 -0.00790703 -1.90223e-20)
(-0.253811 -0.00225433 4.49778e-21)
(-0.270969 0.00383653 0)
(-0.288065 0.010387 -1.76128e-20)
(-0.305083 0.0174148 1.68557e-20)
(-0.322006 0.0249333 -1.66862e-20)
(-0.338807 0.0329489 7.65247e-21)
(-0.355456 0.0414622 -1.5193e-22)
(-0.371917 0.0504679 0)
(-0.388151 0.0599527 7.34776e-21)
(-0.404112 0.0698942 7.16807e-21)
(-0.419748 0.0802691 0)
(-0.435001 0.0910415 1.4026e-20)
(-0.449808 0.102166 -1.34326e-20)
(-0.464098 0.113589 1.30309e-20)
(-0.477804 0.125249 0)
(-0.49085 0.137072 -2.55475e-20)
(-0.503128 0.14897 5.80672e-21)
(-0.51448 0.160856 2.3912e-20)
(-0.524786 0.172654 4.14378e-20)
(-0.53421 0.18428 -5.03819e-21)
(-0.543245 0.195508 -1.67169e-20)
(0.000235663 -0.0110551 -4.66847e-23)
(-0.00391223 -0.0236041 0)
(-0.0141689 -0.0296649 0)
(-0.0278124 -0.0311812 0)
(-0.0433593 -0.0298702 0)
(-0.0599922 -0.0270329 0)
(-0.0771591 -0.023508 0)
(-0.0945148 -0.0197504 0)
(-0.11187 -0.0159392 0)
(-0.129131 -0.0120903 -1.15159e-20)
(-0.14626 -0.00814359 -1.11092e-20)
(-0.163246 -0.00401887 2.13448e-20)
(-0.180091 0.00035606 -2.04156e-20)
(-0.196799 0.00503725 9.82325e-21)
(-0.213373 0.0100665 -9.82114e-21)
(-0.229809 0.0154753 3.74272e-20)
(-0.2461 0.0212884 -9.00076e-21)
(-0.262231 0.027525 0)
(-0.278185 0.0342003 8.39174e-21)
(-0.293933 0.0413248 0)
(-0.309446 0.0489046 -1.61884e-20)
(-0.324684 0.0569394 -7.84627e-21)
(-0.339602 0.0654228 3.84154e-20)
(-0.35415 0.0743422 -1.47737e-20)
(-0.368271 0.0836772 -3.64984e-20)
(-0.3819 0.0934006 -7.68647e-21)
(-0.394969 0.103477 1.36942e-20)
(-0.407401 0.113864 0)
(-0.419112 0.124509 -2.64633e-20)
(-0.430014 0.135351 -9.22879e-22)
(-0.440021 0.14632 2.47648e-20)
(-0.449048 0.157337 -2.47048e-20)
(-0.456979 0.168307 2.36666e-20)
(-0.463616 0.179128 0)
(-0.468762 0.189706 -1.16093e-20)
(-0.472623 0.199938 -1.12821e-20)
(-0.476098 0.209587 2.18345e-20)
(1.77538e-05 -0.0068529 -2.28575e-20)
(-0.0042674 -0.0135504 -1.5523e-20)
(-0.0142322 -0.015597 1.48386e-20)
(-0.0273588 -0.0143971 0)
(-0.0422621 -0.0112796 -1.36053e-20)
(-0.0581701 -0.0072549 -1.31577e-20)
(-0.0745564 -0.00295292 -1.26964e-20)
(-0.0910862 0.00131756 3.62023e-20)
(-0.10757 0.00547669 0)
(-0.123908 0.00957462 0)
(-0.140054 0.0137145 -1.07246e-20)
(-0.155985 0.0180026 0)
(-0.17169 0.0225251 0)
(-0.187161 0.0273442 -1.94499e-20)
(-0.202389 0.0325022 -9.49742e-21)
(-0.217361 0.0380276 -9.10344e-21)
(-0.232056 0.0439401 -8.83627e-21)
(-0.246451 0.0502528 0)
(-0.260513 0.0569741 -2.53718e-20)
(-0.274206 0.0641074 -4.69706e-22)
(-0.287484 0.0716507 1.55756e-20)
(-0.300297 0.0795965 4.05288e-22)
(-0.312588 0.0879307 -2.9793e-20)
(-0.324292 0.0966327 1.39249e-20)
(-0.335338 0.105675 0)
(-0.345651 0.115022 0)
(-0.355147 0.124632 3.89995e-22)
(-0.363738 0.134453 3.90782e-20)
(-0.371329 0.144427 5.01996e-22)
(-0.377821 0.154488 -4.94e-20)
(-0.383116 0.16456 -3.70529e-20)
(-0.38713 0.174559 -1.00716e-21)
(-0.389768 0.184393 5.74183e-20)
(-0.390831 0.193957 6.84423e-20)
(-0.390026 0.20314 -4.40438e-20)
(-0.3875 0.211834 0)
(-0.384692 0.219815 -2.13492e-20)
(-0.00039658 -0.0031067 7.14422e-23)
(-0.00497663 -0.00451852 1.52627e-20)
(-0.0145662 -0.00284758 0)
(-0.0269683 0.000944485 1.40385e-20)
(-0.040949 0.00585576 4.06846e-20)
(-0.0558051 0.0111176 -2.58937e-20)
(-0.071054 0.0162727 3.7321e-20)
(-0.0863808 0.0211342 -5.98397e-20)
(-0.101599 0.0257042 -1.27069e-22)
(-0.116604 0.0300913 3.30092e-20)
(-0.131337 0.0344397 1.07194e-20)
(-0.145761 0.0388833 0)
(-0.159853 0.0435267 -1.98578e-20)
(-0.17359 0.0484418 2.8868e-20)
(-0.186952 0.0536746 -1.83415e-20)
(-0.199913 0.0592528 0)
(-0.212442 0.0651921 1.74243e-20)
(-0.224503 0.0715004 -3.36004e-20)
(-0.236057 0.0781798 -2.25848e-22)
(-0.247053 0.0852263 3.16026e-20)
(-0.25744 0.0926309 -3.04494e-20)
(-0.267156 0.100378 4.4356e-20)
(-0.276135 0.108447 0)
(-0.284304 0.116808 0)
(-0.291585 0.125428 -2.74896e-20)
(-0.297894 0.134264 -1.35895e-20)
(-0.303143 0.143266 3.87892e-20)
(-0.307238 0.152378 -1.28152e-20)
(-0.310083 0.161536 -2.43827e-20)
(-0.311576 0.170672 6.09986e-20)
(-0.311616 0.179707 -5.86713e-20)
(-0.310123 0.188561 0)
(-0.307036 0.19715 -1.14616e-20)
(-0.30222 0.205388 -4.98672e-22)
(-0.295306 0.213172 0)
(-0.286141 0.220388 0)
(-0.276664 0.226817 2.13084e-20)
(-0.000933467 4.49828e-05 -1.50383e-20)
(-0.00591074 0.00318434 -1.04517e-22)
(-0.0150659 0.0081811 -4.37158e-20)
(-0.0265865 0.0143924 -1.86384e-22)
(-0.0394285 0.0210642 2.67414e-20)
(-0.0529777 0.0276084 1.27783e-20)
(-0.0668026 0.0336985 -2.46255e-20)
(-0.080615 0.0392375 0)
(-0.0942368 0.0442917 -2.257e-20)
(-0.107559 0.0490173 -1.09742e-20)
(-0.120513 0.0535954 2.10479e-20)
(-0.13305 0.0581896 -8.07393e-20)
(-0.145132 0.062926 3.87765e-20)
(-0.156724 0.0678911 -1.87761e-20)
(-0.167792 0.0731389 3.60596e-20)
(-0.1783 0.0786995 1.73469e-20)
(-0.188208 0.0845877 0)
(-0.197472 0.0908074 -3.29036e-20)
(-0.206042 0.0973553 4.74898e-20)
(-0.213865 0.104221 0)
(-0.22088 0.11139 -1.50532e-20)
(-0.227023 0.118838 -1.42906e-20)
(-0.232224 0.126539 0)
(-0.236406 0.134456 0)
(-0.239491 0.142549 -1.31312e-20)
(-0.241395 0.150768 6.53387e-20)
(-0.242031 0.159059 -2.50689e-20)
(-0.24131 0.167359 0)
(-0.23914 0.175603 4.81593e-20)
(-0.235429 0.183718 0)
(-0.230082 0.191629 2.27791e-20)
(-0.223016 0.19926 0)
(-0.214188 0.206541 -6.66766e-20)
(-0.203568 0.213422 2.09557e-20)