/*--------------------------------*- C++ -*----------------------------------*\
| =========                 |                                                 |
| \\      /  F ield         | OpenFOAM: The Open Source CFD Toolbox           |
|  \\    /   O peration     | Version:  2512                                  |
|   \\  /    A nd           | Website:  www.openfoam.com                      |
|    \\/     M anipulation  |                                                 |
\*---------------------------------------------------------------------------*/
FoamFile
{
    version     2.0;
    format      ascii;
    arch        "LSB;label=32;scalar=64";
    class       volScalarField;
    location    "76.7";
    object      p;
}
// * * * * * * * * * * * * * * * * * * * * * * * * * * * * * * * * * * * * * //

dimensions      [0 2 -2 0 0 0 0];

internalField   nonuniform List<scalar> 
13248
(
-0.289304
-0.290383
-0.28957
-0.287408
-0.283988
-0.279221
-0.273337
-0.266476
-0.259142
-0.251817
-0.244958
-0.238922
-0.233894
-0.229858
-0.226609
-0.223815
-0.221114
-0.218218
-0.214871
-0.211136
-0.206512
-0.201439
-0.194282
-0.185443
-0.293793
-0.294128
-0.292998
-0.290836
-0.287695
-0.283496
-0.27824
-0.272065
-0.265217
-0.258004
-0.250747
-0.243717
-0.237077
-0.230854
-0.224977
-0.219335
-0.21381
-0.208302
-0.202704
-0.196827
-0.190479
-0.183482
-0.175407
-0.167296
-0.300262
-0.299591
-0.297838
-0.295346
-0.292134
-0.288127
-0.283195
-0.277267
-0.270371
-0.262673
-0.25444
-0.245965
-0.237501
-0.229223
-0.221235
-0.213574
-0.2062
-0.199031
-0.191888
-0.184704
-0.177228
-0.169529
-0.161393
-0.153163
-0.308305
-0.306461
-0.303856
-0.300726
-0.297191
-0.293059
-0.288013
-0.281744
-0.274131
-0.265321
-0.255663
-0.245584
-0.235473
-0.225613
-0.21616
-0.207142
-0.198515
-0.190176
-0.18204
-0.173999
-0.165931
-0.157905
-0.149624
-0.141814
-0.318044
-0.314944
-0.31137
-0.30751
-0.303411
-0.298752
-0.29296
-0.285573
-0.276508
-0.266074
-0.254804
-0.243247
-0.231833
-0.220824
-0.210326
-0.200349
-0.190838
-0.181725
-0.172916
-0.164339
-0.155928
-0.147672
-0.139473
-0.131739
-0.32992
-0.325488
-0.320933
-0.316262
-0.311315
-0.305514
-0.298122
-0.288769
-0.277642
-0.265315
-0.252453
-0.23961
-0.227146
-0.21524
-0.203949
-0.193254
-0.183101
-0.173417
-0.164137
-0.1552
-0.146551
-0.138182
-0.129997
-0.122326
-0.344351
-0.338509
-0.332962
-0.327319
-0.321014
-0.313214
-0.303291
-0.29127
-0.277733
-0.263449
-0.249088
-0.235101
-0.221732
-0.209072
-0.197126
-0.185855
-0.175199
-0.165098
-0.155489
-0.146315
-0.137533
-0.129094
-0.120974
-0.113348
-0.361505
-0.354192
-0.347572
-0.3406
-0.332154
-0.321365
-0.308105
-0.292986
-0.276922
-0.260727
-0.244955
-0.229907
-0.215701
-0.202354
-0.189832
-0.178077
-0.167025
-0.15661
-0.146769
-0.137446
-0.128585
-0.120141
-0.112104
-0.104503
-0.381224
-0.3724
-0.364502
-0.355577
-0.343982
-0.329269
-0.312138
-0.293769
-0.275223
-0.257206
-0.240093
-0.224025
-0.20902
-0.195032
-0.181994
-0.169829
-0.158462
-0.147819
-0.137831
-0.128433
-0.119564
-0.111177
-0.103253
-0.0957157
-0.402869
-0.392571
-0.383028
-0.371238
-0.355425
-0.33609
-0.314869
-0.293305
-0.2724
-0.252658
-0.234259
-0.21721
-0.201443
-0.186862
-0.173368
-0.160863
-0.149258
-0.138465
-0.128406
-0.119005
-0.110193
-0.101922
-0.0941395
-0.0867113
-0.425412
-0.413677
-0.401908
-0.386137
-0.365153
-0.340809
-0.315523
-0.290927
-0.267817
-0.246458
-0.226852
-0.20889
-0.192431
-0.177336
-0.16347
-0.150715
-0.138961
-0.128108
-0.118067
-0.108753
-0.100093
-0.0920272
-0.0844613
-0.0772709
-0.447414
-0.434284
-0.419478
-0.398583
-0.371725
-0.342259
-0.313086
-0.285692
-0.260578
-0.237766
-0.217095
-0.198353
-0.181336
-0.165856
-0.151749
-0.138869
-0.127087
-0.11629
-0.106375
-0.0972506
-0.0888459
-0.0810966
-0.0738901
-0.0671402
-0.423069
-0.425578
-0.426641
-0.427708
-0.429371
-0.4317
-0.434654
-0.438053
-0.441688
-0.445313
-0.448652
-0.45144
-0.453468
-0.454637
-0.455014
-0.454866
-0.454671
-0.455084
-0.456854
-0.460704
-0.467192
-0.476495
-0.488066
-0.501308
-0.399392
-0.401292
-0.401443
-0.401129
-0.400945
-0.401012
-0.401321
-0.401791
-0.402327
-0.402843
-0.403289
-0.403681
-0.404126
-0.404859
-0.406252
-0.408806
-0.41311
-0.419761
-0.429267
-0.441907
-0.457596
-0.475939
-0.496006
-0.515941
-0.378778
-0.379932
-0.379286
-0.377859
-0.376185
-0.374429
-0.372635
-0.370802
-0.368937
-0.367099
-0.365427
-0.364158
-0.363629
-0.364285
-0.366677
-0.371396
-0.379007
-0.389955
-0.404475
-0.422502
-0.443547
-0.466583
-0.490943
-0.513607
-0.361028
-0.361461
-0.360214
-0.357987
-0.355213
-0.352078
-0.348682
-0.345096
-0.341413
-0.337801
-0.334539
-0.332017
-0.330721
-0.331203
-0.334057
-0.339895
-0.349175
-0.362192
-0.378956
-0.399007
-0.421971
-0.446026
-0.471211
-0.494233
-0.345699
-0.345582
-0.343963
-0.34125
-0.337723
-0.333564
-0.328926
-0.323957
-0.318831
-0.313768
-0.309159
-0.30548
-0.303287
-0.303188
-0.305772
-0.311577
-0.320988
-0.334094
-0.350913
-0.370498
-0.392809
-0.415373
-0.438553
-0.45812
-0.332315
-0.331924
-0.330176
-0.327233
-0.323214
-0.318264
-0.312583
-0.306397
-0.299967
-0.293609
-0.287743
-0.28289
-0.279638
-0.278599
-0.280349
-0.285355
-0.293966
-0.306102
-0.321851
-0.340026
-0.360967
-0.3821
-0.403981
-0.421969
-0.320497
-0.32016
-0.318492
-0.315511
-0.311183
-0.305588
-0.29896
-0.291618
-0.283929
-0.276302
-0.269217
-0.263222
-0.258917
-0.256903
-0.257739
-0.261854
-0.269565
-0.2808
-0.295461
-0.312683
-0.332577
-0.352161
-0.37214
-0.387247
-0.310045
-0.310063
-0.308621
-0.305716
-0.301204
-0.295093
-0.287635
-0.279233
-0.270371
-0.261576
-0.25341
-0.246471
-0.24138
-0.238741
-0.239095
-0.242839
-0.250222
-0.261104
-0.275371
-0.291794
-0.309845
-0.326923
-0.342858
-0.352851
-0.301021
-0.301583
-0.300415
-0.297609
-0.293012
-0.286555
-0.278511
-0.269334
-0.259621
-0.250016
-0.24119
-0.233828
-0.228587
-0.226074
-0.226757
-0.230879
-0.238426
-0.248992
-0.261975
-0.27616
-0.29052
-0.303085
-0.31266
-0.315793
-0.29382
-0.29491
-0.293972
-0.291252
-0.286657
-0.280139
-0.27194
-0.262525
-0.252631
-0.242963
-0.234272
-0.227303
-0.222653
-0.220776
-0.221925
-0.226064
-0.232866
-0.241646
-0.251633
-0.261552
-0.270668
-0.277347
-0.280773
-0.278455
-0.2891
-0.290558
-0.289755
-0.287148
-0.282748
-0.27653
-0.268733
-0.259835
-0.25053
-0.241596
-0.23371
-0.227482
-0.223423
-0.2218
-0.222604
-0.225563
-0.230072
-0.235436
-0.240754
-0.24521
-0.248462
-0.249687
-0.249548
-0.245765
-0.287567
-0.289033
-0.288282
-0.285881
-0.281915
-0.276353
-0.269385
-0.261539
-0.253311
-0.245288
-0.238142
-0.232371
-0.228289
-0.225974
-0.225238
-0.225677
-0.226669
-0.227701
-0.228032
-0.227592
-0.225929
-0.223349
-0.220462
-0.216373
-0.520478
-0.542448
-0.558434
-0.566809
-0.562202
-0.537674
-0.487328
-0.415508
-0.338112
-0.271432
-0.224087
-0.196244
-0.185567
-0.188816
-0.204058
-0.23422
-0.281839
-0.33563
-0.370822
-0.364429
-0.319587
-0.259321
-0.204182
-0.163664
-0.140224
-0.131904
-0.136411
-0.157479
-0.199345
-0.25088
-0.285166
-0.276966
-0.23435
-0.181584
-0.138501
-0.11212
-0.101442
-0.108569
-0.128999
-0.145159
-0.140761
-0.121502
-0.101287
-0.0875847
-0.0835588
-0.087661
-0.0923274
-0.0916454
-0.0854941
-0.0767963
-0.0704966
-0.0608431
-0.0501308
-0.0456173
-0.0424991
-0.0372389
-0.0314564
-0.0220414
-0.0146908
-0.00409134
-0.54023
-0.563773
-0.579549
-0.585796
-0.579737
-0.554282
-0.50266
-0.429081
-0.349577
-0.280163
-0.229371
-0.196836
-0.180187
-0.177568
-0.186824
-0.209452
-0.248283
-0.295314
-0.327845
-0.324535
-0.287928
-0.236879
-0.189332
-0.154202
-0.135199
-0.130904
-0.139615
-0.165748
-0.213444
-0.270101
-0.308019
-0.299843
-0.253437
-0.1946
-0.144691
-0.111881
-0.0950038
-0.095375
-0.109076
-0.120778
-0.116722
-0.102462
-0.0887894
-0.0819598
-0.0846751
-0.0955037
-0.105504
-0.105726
-0.0974973
-0.0847268
-0.0750648
-0.0614002
-0.0471387
-0.0393923
-0.0351397
-0.0328254
-0.0315402
-0.0280595
-0.0212522
-0.00583674
-0.539149
-0.562018
-0.576519
-0.582688
-0.575789
-0.549489
-0.498106
-0.425538
-0.347158
-0.278674
-0.227389
-0.19272
-0.171852
-0.163154
-0.165718
-0.180062
-0.208826
-0.24712
-0.277001
-0.278298
-0.250938
-0.209882
-0.170032
-0.140526
-0.126163
-0.125776
-0.138359
-0.168842
-0.220953
-0.281492
-0.322921
-0.316702
-0.268088
-0.204409
-0.148777
-0.110395
-0.0881183
-0.0824692
-0.0902076
-0.0981065
-0.0945052
-0.0840677
-0.0760097
-0.0757976
-0.0855181
-0.103622
-0.119481
-0.120467
-0.109578
-0.0922927
-0.0793027
-0.0619247
-0.044191
-0.0332174
-0.0278733
-0.0285044
-0.0315944
-0.0340263
-0.0278396
-0.00757489
-0.51736
-0.541113
-0.555874
-0.562038
-0.554154
-0.526767
-0.4758
-0.406557
-0.33332
-0.269171
-0.219613
-0.184476
-0.161348
-0.148271
-0.144315
-0.150327
-0.168801
-0.197507
-0.223464
-0.230148
-0.210956
-0.179562
-0.14724
-0.123248
-0.113191
-0.116238
-0.131832
-0.165016
-0.219895
-0.283802
-0.328738
-0.326124
-0.277427
-0.210463
-0.150557
-0.107723
-0.0810587
-0.0703806
-0.073051
-0.0776526
-0.0737387
-0.0665293
-0.06303
-0.0690371
-0.0858038
-0.111698
-0.133989
-0.135761
-0.121626
-0.099399
-0.0831133
-0.0623491
-0.0413201
-0.0272174
-0.0207915
-0.0242804
-0.0315558
-0.0398087
-0.034354
-0.00928441
-0.478597
-0.498199
-0.519364
-0.527412
-0.519044
-0.491019
-0.441929
-0.378414
-0.312835
-0.255018
-0.208696
-0.173947
-0.149484
-0.133582
-0.125055
-0.123733
-0.132303
-0.151264
-0.17152
-0.180258
-0.169535
-0.147341
-0.122101
-0.103169
-0.0968159
-0.102735
-0.120419
-0.15465
-0.21025
-0.276274
-0.324486
-0.327348
-0.281061
-0.212747
-0.150185
-0.104128
-0.0740471
-0.0593234
-0.0578399
-0.0597355
-0.055198
-0.0501054
-0.0499359
-0.0614494
-0.0851175
-0.119356
-0.148594
-0.151351
-0.133517
-0.105978
-0.0864271
-0.0626311
-0.038549
-0.0215043
-0.0139572
-0.020148
-0.0313656
-0.0452817
-0.0406936
-0.0109516
-0.437989
-0.456264
-0.475954
-0.483604
-0.473773
-0.445557
-0.400385
-0.345124
-0.289098
-0.238737
-0.196646
-0.163117
-0.137751
-0.119699
-0.107766
-0.101475
-0.102051
-0.111479
-0.124974
-0.133811
-0.129739
-0.11495
-0.095914
-0.0814873
-0.078241
-0.0864377
-0.105357
-0.139095
-0.192946
-0.258901
-0.310493
-0.319973
-0.278117
-0.211146
-0.147815
-0.0998639
-0.0673154
-0.0494753
-0.0446913
-0.0444735
-0.0391291
-0.0350165
-0.0369232
-0.0531023
-0.0832373
-0.125921
-0.162628
-0.166805
-0.145057
-0.111953
-0.0891712
-0.0627218
-0.0358984
-0.0161731
-0.00742176
-0.0161025
-0.0309546
-0.0503285
-0.0467533
-0.0125659
-0.397902
-0.410571
-0.427189
-0.432685
-0.421285
-0.394979
-0.356622
-0.3114
-0.26536
-0.222495
-0.184865
-0.15321
-0.127555
-0.107728
-0.0930732
-0.0828579
-0.0775409
-0.0789467
-0.0857102
-0.0926502
-0.0928373
-0.083428
-0.0699846
-0.0595871
-0.0587559
-0.0685866
-0.0881204
-0.120051
-0.169819
-0.232828
-0.286524
-0.304256
-0.268261
-0.205796
-0.143703
-0.0952505
-0.0611144
-0.0409546
-0.0335507
-0.0317869
-0.0256191
-0.0215527
-0.0244282
-0.0440089
-0.0797546
-0.1309
-0.175345
-0.181579
-0.156027
-0.117254
-0.091292
-0.0625648
-0.0333691
-0.0112969
-0.00122723
-0.0121346
-0.0302661
-0.0548494
-0.0524271
-0.0141161
-0.355133
-0.360077
-0.373416
-0.376596
-0.365479
-0.343999
-0.314464
-0.279671
-0.243059
-0.207243
-0.174072
-0.144701
-0.119484
-0.0985804
-0.0818747
-0.0687427
-0.0590977
-0.0542335
-0.0546708
-0.0577197
-0.0597122
-0.0540154
-0.0457109
-0.0387337
-0.0396931
-0.0504575
-0.0698046
-0.0991612
-0.14373
-0.201418
-0.255239
-0.277952
-0.252172
-0.197111
-0.138071
-0.0904042
-0.0555766
-0.0337922
-0.0242784
-0.0214606
-0.0146549
-0.00994953
-0.0127754
-0.0344452
-0.0747445
-0.133428
-0.185662
-0.194768
-0.166035
-0.121782
-0.0927388
-0.0621189
-0.0309399
-0.00692529
0.00458153
-0.00826284
-0.0292476
-0.0587412
-0.0576118
-0.0155898
-0.308854
-0.308106
-0.319141
-0.321287
-0.312973
-0.298223
-0.277586
-0.251952
-0.223306
-0.193656
-0.164695
-0.137744
-0.113442
-0.0921002
-0.0740165
-0.0589272
-0.046416
-0.0371408
-0.0320302
-0.030398
-0.0305377
-0.0280712
-0.0237323
-0.0197346
-0.0219381
-0.0330073
-0.0519107
-0.0782265
-0.116189
-0.167533
-0.219333
-0.246088
-0.232052
-0.185797
-0.131084
-0.0852534
-0.0506316
-0.0278578
-0.0166634
-0.0131526
-0.00608089
-0.000382012
-0.00228602
-0.0244383
-0.067653
-0.133457
-0.193101
-0.205788
-0.174849
-0.125436
-0.0934561
-0.0614138
-0.0286563
-0.00310436
0.00999544
-0.00447203
-0.0278824
-0.0619336
-0.0622308
-0.0169779
-0.265881
-0.26374
-0.273094
-0.274873
-0.269845
-0.260756
-0.246795
-0.228034
-0.205688
-0.181299
-0.156296
-0.131875
-0.108882
-0.0877569
-0.0689314
-0.0525852
-0.038351
-0.0263687
-0.017306
-0.0113811
-0.00859505
-0.00771342
-0.00477456
-0.00327724
-0.00652476
-0.0172972
-0.0352004
-0.0585292
-0.0906853
-0.134007
-0.18077
-0.210965
-0.206365
-0.171214
-0.122747
-0.0799455
-0.0464556
-0.0231831
-0.0106109
-0.0065783
0.000333778
0.00707274
0.00660079
-0.0146907
-0.0592526
-0.13004
-0.196196
-0.213475
-0.181799
-0.128133
-0.0934742
-0.0605423
-0.0266965
3.27342e-05
0.0149634
-0.000825926
-0.0261492
-0.064344
-0.0662095
-0.018273
-0.234791
-0.233942
-0.240466
-0.24112
-0.237965
-0.232292
-0.222785
-0.209094
-0.191765
-0.171775
-0.150269
-0.128306
-0.106784
-0.0863198
-0.0673356
-0.0501768
-0.0347921
-0.0211094
-0.00947297
-0.00014541
0.00605076
0.00926248
0.011635
0.010406
0.00657266
-0.0035527
-0.020153
-0.040366
-0.0661119
-0.10196
-0.145311
-0.17797
-0.184669
-0.157786
-0.115261
-0.0755749
-0.043645
-0.0201106
-0.00611175
-0.00143143
0.00472712
0.0122952
0.0142588
-0.00475708
-0.0491276
-0.123513
-0.196517
-0.218112
-0.187297
-0.130203
-0.0930665
-0.0593945
-0.0249058
0.00234324
0.0194878
0.00276335
-0.0240525
-0.0659833
-0.0694972
-0.0194505
-0.21235
-0.214153
-0.216488
-0.214449
-0.211165
-0.206879
-0.200311
-0.190718
-0.17793
-0.162284
-0.144474
-0.125357
-0.105757
-0.0863607
-0.0677441
-0.0503562
-0.0343095
-0.0197048
-0.00687126
0.00427943
0.0135876
0.0196221
0.0210687
0.0202887
0.0161679
0.00763818
-0.00764572
-0.0257904
-0.0465428
-0.0749058
-0.111031
-0.140861
-0.149255
-0.1363
-0.103788
-0.0688446
-0.0395035
-0.0169257
-0.00207934
0.00340899
0.00849903
0.015527
0.0191912
0.00349375
-0.0385718
-0.113189
-0.191054
-0.217855
-0.189481
-0.130584
-0.091582
-0.0570078
-0.0222677
0.00471942
0.0233595
0.00610336
-0.0216158
-0.0666964
-0.0718747
-0.0204111
-0.193597
-0.204195
-0.204224
-0.19933
-0.19347
-0.18747
-0.180508
-0.171431
-0.159623
-0.145186
-0.128726
-0.111073
-0.0930153
-0.0751002
-0.0577629
-0.0413762
-0.0260045
-0.0117568
0.000996336
0.012416
0.0226188
0.0301376
0.0332642
0.0299679
0.0244083
0.0167347
0.00516184
-0.0090752
-0.0263311
-0.0506749
-0.0845547
-0.117906
-0.137561
-0.119349
-0.0890268
-0.0573352
-0.0311491
-0.0109285
0.00284236
0.00814912
0.0124127
0.0196228
0.0263287
0.0134492
-0.0263304
-0.100298
-0.184086
-0.216574
-0.189169
-0.127435
-0.0873634
-0.0531586
-0.0188467
0.00792749
0.027692
0.00955685
-0.0186939
-0.0665041
-0.0737031
-0.0211113
-0.171638
-0.184693
-0.185834
-0.179877
-0.172415
-0.165458
-0.158548
-0.150336
-0.139905
-0.127135
-0.112534
-0.0968416
-0.0807117
-0.0645877
-0.04881
-0.0336539
-0.0191916
-0.00567848
0.00640862
0.01726
0.0271436
0.0345216
0.0366097
0.0343461
0.028977
0.0222256
0.0131111
0.00178492
-0.0120015
-0.0322407
-0.0638108
-0.0964557
-0.111561
-0.0991812
-0.0730054
-0.0456935
-0.0232184
-0.00585344
0.00674013
0.011927
0.0155479
0.0225262
0.0297887
0.0191652
-0.0177801
-0.0894595
-0.17593
-0.211632
-0.184856
-0.122529
-0.0821249
-0.0489454
-0.0154451
0.0108565
0.0302386
0.0120315
-0.0160215
-0.0656305
-0.0746255
-0.0216135
-0.15149
-0.165017
-0.167079
-0.161485
-0.153934
-0.146903
-0.140301
-0.13293
-0.123791
-0.112577
-0.0996174
-0.0855385
-0.0709198
-0.0561651
-0.0415644
-0.0273915
-0.0137723
-0.000853539
0.010869
0.0212497
0.0305785
0.0378094
0.0404325
0.0380599
0.0326629
0.0266979
0.0191258
0.00890018
-0.00293895
-0.0189005
-0.0444164
-0.0731606
-0.0884818
-0.0798167
-0.0583745
-0.0353517
-0.0160565
-0.001175
0.0102184
0.0150343
0.0181216
0.0248109
0.0326591
0.0224301
-0.0127562
-0.0811946
-0.165592
-0.202051
-0.177419
-0.116262
-0.0761553
-0.044356
-0.0119952
0.0134151
0.0322303
0.0137493
-0.013656
-0.063914
-0.0746476
-0.0219623
-0.134065
-0.14624
-0.148795
-0.144135
-0.137047
-0.130123
-0.123671
-0.116809
-0.108574
-0.0985775
-0.0870026
-0.0743714
-0.0611937
-0.0478369
-0.0345586
-0.0215478
-0.0089498
0.0030568
0.014079
0.0238733
0.0326075
0.0394896
0.0423961
0.0406068
0.0358307
0.0310799
0.0253169
0.0164523
0.00672512
-0.00442395
-0.0246739
-0.0518066
-0.0668674
-0.0607753
-0.0438145
-0.0250747
-0.00899019
0.00320138
0.0131643
0.0174225
0.0201552
0.0262277
0.0347628
0.0247153
-0.00896253
-0.0721614
-0.151506
-0.18814
-0.166415
-0.108244
-0.0692858
-0.0390996
-0.00830404
0.0155359
0.0337042
0.0149832
-0.0111175
-0.0611163
-0.073629
-0.0220955
-0.117508
-0.128557
-0.131408
-0.12762
-0.121158
-0.114539
-0.108329
-0.101964
-0.0946289
-0.0858824
-0.0757471
-0.0645853
-0.0528256
-0.0407926
-0.0287179
-0.0167786
-0.00512538
0.00604485
0.0163774
0.0255727
0.0336831
0.0401496
0.0432472
0.0422898
0.0386445
0.0354125
0.0323374
0.0269643
0.0203499
0.01128
-0.00797609
-0.0332284
-0.0463898
-0.0425593
-0.0302839
-0.0158193
-0.00258563
0.0072604
0.0157208
0.0192266
0.0216231
0.0268276
0.0357376
0.0261145
-0.00493354
-0.0607846
-0.13378
-0.169727
-0.151764
-0.0985663
-0.0617251
-0.0333762
-0.00446271
0.017225
0.0346219
0.01599
-0.0081145
-0.0571319
-0.0713924
-0.0219437
-0.102019
-0.112224
-0.115118
-0.111986
-0.106225
-0.100138
-0.094376
-0.08859
-0.0820988
-0.0744397
-0.0655302
-0.055624
-0.0450903
-0.0342386
-0.0233047
-0.0124544
-0.00181208
0.00843073
0.0179574
0.0264936
0.0340109
0.0400768
0.0433354
0.0433457
0.0411473
0.039421
0.0390534
0.0380274
0.0340221
0.0243453
0.00514653
-0.016628
-0.0275967
-0.0259494
-0.0178589
-0.00727199
0.00331548
0.0110456
0.0178854
0.0205652
0.0225416
0.026752
0.0353614
0.0267765
-0.000501831
-0.0481213
-0.11341
-0.147564
-0.133726
-0.0873005
-0.0536205
-0.0272211
-0.000458344
0.0185166
0.0350206
0.0168881
-0.00470149
-0.0519026
-0.0678084
-0.0214327
-0.0880087
-0.0971445
-0.0999153
-0.097363
-0.0923575
-0.0869202
-0.081699
-0.0764818
-0.0707168
-0.06398
-0.056153
-0.0474144
-0.0380734
-0.0284056
-0.0186111
-0.00883344
0.000808559
0.0101411
0.0188799
0.0267697
0.0337242
0.0394455
0.0428922
0.0438012
0.0430541
0.0427135
0.0441294
0.0456185
0.0430497
0.0334186
0.016173
-0.00152086
-0.01091
-0.0114078
-0.00692413
0.000227805
0.00843964
0.0144949
0.0197758
0.0216618
0.0230489
0.026329
0.0336255
0.0265146
0.00335879
-0.0355396
-0.0915328
-0.122621
-0.112892
-0.0746892
-0.0452003
-0.0208367
0.00363672
0.0195305
0.0350228
0.0176831
-0.00100582
-0.0454161
-0.0627856
-0.0204933
-0.0751429
-0.0831944
-0.0858672
-0.0838709
-0.0795817
-0.0747801
-0.0701052
-0.0654424
-0.060351
-0.0544602
-0.0476366
-0.039993
-0.031768
-0.0231949
-0.0144563
-0.0056906
0.00298185
0.011414
0.0193643
0.02661
0.0330236
0.0383934
0.0419795
0.043624
0.0440638
0.044773
0.0468047
0.0488672
0.0473395
0.0393558
0.0253582
0.0112279
0.00270745
0.000491346
0.00232675
0.00675391
0.0128749
0.0175772
0.0214594
0.0226851
0.0233886
0.0258846
0.0308679
0.0251725
0.00617327
-0.0236149
-0.0691653
-0.0962203
-0.0902963
-0.0611282
-0.0366835
-0.01438
0.00778008
0.020429
0.034793
0.0184349
0.0028861
-0.0377479
-0.0563212
-0.0190697
-0.0632215
-0.0704498
-0.0730471
-0.0715016
-0.0678319
-0.0636274
-0.0595013
-0.0553953
-0.0509484
-0.0458356
-0.0399192
-0.0332644
-0.0260582
-0.0185034
-0.0107684
-0.00297603
0.00476308
0.0123247
0.0195049
0.0261161
0.0320138
0.0370394
0.0407008
0.0428983
0.044195
0.0455993
0.0476728
0.0495514
0.04872
0.0426486
0.0318334
0.0206436
0.0129815
0.00978629
0.00989728
0.0122781
0.0165947
0.0202076
0.022974
0.0236815
0.0238572
0.0257111
0.0277843
0.0230845
0.00837932
-0.0124898
-0.0474813
-0.0699979
-0.0673319
-0.0471726
-0.0282891
-0.00807311
0.0118968
0.0213786
0.0345724
0.0193168
0.00684755
-0.0291313
-0.0485361
-0.0171289
-0.0524241
-0.0589135
-0.0613624
-0.0601658
-0.0570561
-0.0534263
-0.049837
-0.0462648
-0.0424156
-0.0380072
-0.0329059
-0.027148
-0.0208819
-0.0142787
-0.0074852
-0.000608374
0.00624952
0.0129828
0.0194248
0.0254155
0.0308135
0.0354966
0.0391522
0.0417139
0.0435526
0.0453269
0.0472428
0.0487511
0.0482031
0.0436769
0.0355706
0.0268978
0.0202675
0.0167404
0.0158712
0.0168521
0.019694
0.0223746
0.0243296
0.0246126
0.0244856
0.0259318
0.0256665
0.0212633
0.0106263
-0.00245273
-0.0276498
-0.0456048
-0.0456234
-0.0335403
-0.0202015
-0.00216194
0.0158691
0.022573
0.0346402
0.0205212
0.0106414
-0.019991
-0.0397107
-0.014678
-0.0427924
-0.0484485
-0.050693
-0.0498144
-0.0472327
-0.0441378
-0.041044
-0.0379645
-0.034664
-0.0308959
-0.0265328
-0.0215904
-0.0161843
-0.010456
-0.00453292
0.00149024
0.00752237
0.0134756
0.0192152
0.0246041
0.0295167
0.0338518
0.037412
0.0401526
0.0422712
0.0441753
0.045887
0.0470318
0.0465812
0.0432638
0.0373094
0.0307075
0.0252083
0.0217859
0.0204439
0.0205341
0.0222381
0.0241004
0.0254989
0.0254821
0.025246
0.0264109
0.0253202
0.0206352
0.0132196
0.00604496
-0.0108182
-0.024779
-0.0270612
-0.0210899
-0.0125713
0.00312376
0.0194803
0.0241535
0.0352497
0.0221573
0.0139171
-0.0109742
-0.0303445
-0.0117981
-0.0340019
-0.0389344
-0.0410343
-0.040448
-0.0383265
-0.0357018
-0.0330564
-0.0304301
-0.0276308
-0.0244415
-0.0207422
-0.0165336
-0.0119046
-0.00697336
-0.00185007
0.0033833
0.00864986
0.0138745
0.0189499
0.0237613
0.0282003
0.0321798
0.0355644
0.0383252
0.0405347
0.0424259
0.043947
0.0448249
0.0444511
0.0420591
0.0377393
0.0328035
0.0284056
0.0253187
0.0238184
0.0233983
0.024279
0.0254548
0.0264627
0.0262562
0.0260602
0.0270138
0.0263185
0.0217115
0.0166524
0.0129928
0.00204691
-0.00891966
-0.0129502
-0.0104268
-0.00551774
0.00763945
0.0224684
0.0260624
0.0367344
0.0242572
0.016372
-0.00294913
-0.0212176
-0.00867804
-0.0260079
-0.0304017
-0.0323768
-0.0320049
-0.0302625
-0.0280544
-0.0258191
-0.0236053
-0.0212557
-0.0185825
-0.0154745
-0.0119209
-0.00799025
-0.0037808
0.000614236
0.0051246
0.00968664
0.0142363
0.0186885
0.0229513
0.0269278
0.0305412
0.0336921
0.0363561
0.0385327
0.0403377
0.0416992
0.0424205
0.042146
0.0404596
0.0373732
0.0337363
0.030324
0.0276797
0.0262138
0.0255399
0.0258638
0.0265028
0.0272157
0.0269142
0.0268179
0.0276923
0.0277321
0.024847
0.0211394
0.018795
0.0108535
0.00200701
-0.00270563
-0.0016296
0.000857507
0.0113097
0.0245898
0.0279924
0.0399827
0.026566
0.0179743
0.003326
-0.0132469
-0.00568643
-0.018971
-0.0228116
-0.0245938
-0.0243771
-0.0229727
-0.0211447
-0.0192787
-0.0174318
-0.0154804
-0.0132633
-0.0106776
-0.0077056
-0.00439852
-0.000837185
0.00290094
0.0067559
0.010675
0.0146049
0.0184772
0.0222188
0.025746
0.0289926
0.0318745
0.034365
0.036432
0.0381173
0.039353
0.0400024
0.0398501
0.0387052
0.0365444
0.0339014
0.0313249
0.0291529
0.027823
0.027065
0.0270396
0.0272887
0.0277857
0.0274581
0.0274555
0.0283219
0.0288182
0.0273146
0.0253138
0.0233021
0.0165483
0.00927664
0.00465847
0.00544864
0.00643496
0.0141565
0.0257612
0.0292938
0.0391151
0.0280546
0.0189971
0.00746925
-0.00710294
-0.00320596
-0.012697
-0.0159868
-0.0175927
-0.0175237
-0.0164215
-0.0149259
-0.0133818
-0.0118566
-0.0102542
-0.00843651
-0.00630906
-0.00384933
-0.00109395
0.00189138
0.00504266
0.00830813
0.0116445
0.0150098
0.0183489
0.0216009
0.0246941
0.0275753
0.030171
0.0324493
0.0343654
0.0359201
0.0370556
0.0376833
0.0376643
0.0369327
0.035468
0.0335813
0.0316879
0.0299669
0.0288161
0.0280798
0.0278612
0.0278456
0.0281925
0.0278864
0.027939
0.0287673
0.0293939
0.0287138
0.0278175
0.026096
0.0200899
0.0140829
0.0099979
0.0109488
0.0110714
0.0162698
0.0260387
0.0295976
0.0365051
0.0282207
0.0196111
0.00978202
-0.00293
-0.00143924
-0.00701485
-0.00988483
-0.0113623
-0.0114107
-0.0105532
-0.00933796
-0.00807378
-0.00683039
-0.00553236
-0.00406155
-0.00233194
-0.000318306
0.00195398
0.00443198
0.00706267
0.00980251
0.012617
0.0154721
0.0183223
0.0211196
0.0238039
0.0263289
0.0286318
0.0306797
0.0324258
0.0338498
0.0349026
0.0355309
0.0356424
0.0352252
0.0342797
0.032968
0.0316131
0.0302997
0.0293395
0.0286791
0.0283824
0.0281996
0.028435
0.0281849
0.0282271
0.0289395
0.0295009
0.0291155
0.0286228
0.0273601
0.0222353
0.0172966
0.0139116
0.0150137
0.0147312
0.0177959
0.0256772
0.0288961
0.0330447
0.0270773
0.0196373
0.0108234
-0.000155039
-0.000315003
-0.00200161
-0.00450195
-0.00583241
-0.00595305
-0.00529715
-0.00432623
-0.00330782
-0.00230957
-0.00127334
-9.96643e-05
0.00128826
0.00291686
0.0047694
0.00680385
0.00897681
0.0112525
0.0136024
0.0159999
0.0184084
0.0207893
0.0230929
0.0252787
0.0272946
0.0291087
0.0306772
0.0319725
0.0329528
0.0335847
0.0338093
0.033629
0.0330647
0.0321913
0.0312481
0.0302852
0.0295143
0.0289489
0.028647
0.028376
0.0285168
0.0283352
0.0283208
0.0288508
0.0292884
0.0289772
0.0284802
0.0276159
0.0234786
0.0195092
0.0168082
0.0178386
0.0174994
0.0189238
0.0249142
0.0276789
0.02974
0.0257952
0.019273
0.0111093
0.00182558
0.000386793
0.00240719
0.000270567
-0.000910823
-0.00108928
-0.000608179
0.000151737
0.000959393
0.00174861
0.0025624
0.00348356
0.00458003
0.00587865
0.0073696
0.00902007
0.0107946
0.0126636
0.0146042
0.0165952
0.0186088
0.0206132
0.0225674
0.0244351
0.0261786
0.0277653
0.0291571
0.0303256
0.0312349
0.0318625
0.0321744
0.0321695
0.0318812
0.0313375
0.0307055
0.030027
0.029436
0.0289663
0.0286946
0.0284002
0.0284498
0.0283255
0.0282497
0.0285748
0.0288564
0.0285644
0.0279529
0.0273052
0.0241338
0.0210544
0.018941
0.0196707
0.0194953
0.0199039
0.0243494
0.0263834
0.0272827
0.0255581
0.019141
0.0112511
0.00338058
0.000897181
0.00633633
0.00450546
0.00344641
0.00322153
0.00355945
0.00414314
0.00477204
0.00538338
0.00600894
0.00671724
0.00756765
0.00858657
0.00976918
0.0110902
0.0125208
0.0140367
0.01562
0.0172541
0.0189177
0.0205846
0.0222225
0.0238011
0.0252899
0.0266599
0.0278791
0.0289218
0.0297586
0.0303704
0.0307391
0.0308593
0.0307629
0.0304631
0.0300632
0.0296071
0.0291759
0.0287972
0.0285649
0.0282906
0.0282576
0.0281624
0.0280428
0.0281793
0.0283118
0.0280209
0.0273194
0.0267264
0.0244128
0.0220887
0.020443
0.0207599
0.0208187
0.0208018
0.0238704
0.025273
0.0259595
0.0264446
0.0194754
0.0116529
0.004694
0.00133371
0.009801
0.00822937
0.00728869
0.00703724
0.00725917
0.00769352
0.00816987
0.00863088
0.00909896
0.00962983
0.0102745
0.0110582
0.0119798
0.0130203
0.0141567
0.0153691
0.0166433
0.0179664
0.0193225
0.0206912
0.0220469
0.0233648
0.0246193
0.0257867
0.0268411
0.0277594
0.0285191
0.029102
0.0294978
0.0297003
0.0297336
0.0296073
0.0293794
0.0290881
0.0287894
0.0284952
0.0282988
0.0280636
0.0279671
0.0278716
0.027727
0.0277113
0.0277061
0.0274102
0.0266853
0.0260742
0.0244432
0.0226984
0.0214012
0.0213306
0.0215502
0.021478
0.0233523
0.0243821
0.0254028
0.0269891
0.0196427
0.0120223
0.00569456
0.00167284
0.0128366
0.0114986
0.0106695
0.0104061
0.0105346
0.0108435
0.0111913
0.0115262
0.0118627
0.0122461
0.01272
0.0133075
0.0140104
0.0148146
0.0157016
0.016655
0.017664
0.0187189
0.0198082
0.020916
0.0220223
0.0231062
0.0241486
0.0251293
0.0260281
0.0268249
0.0275019
0.0280435
0.028442
0.0286918
0.0288063
0.028795
0.0286892
0.0285176
0.0283212
0.0281016
0.0279345
0.0277389
0.0276038
0.0274883
0.0273281
0.0271998
0.0270783
0.0267688
0.0260817
0.0254517
0.0242947
0.0229648
0.0219118
0.0215821
0.0217979
0.0217615
0.0226891
0.0235434
0.0247024
0.0259718
0.0191186
0.0120543
0.00629639
0.00186779
0.0155022
0.0143652
0.0136335
0.0133634
0.0134197
0.0136278
0.0138696
0.014099
0.0143265
0.0145888
0.0149226
0.0153485
0.0158695
0.0164757
0.0171529
0.0178877
0.0186714
0.0194971
0.0203566
0.0212378
0.0221253
0.0230025
0.023855
0.0246655
0.0254187
0.0260981
0.0266888
0.027178
0.0275582
0.0278257
0.0279849
0.0280439
0.0280198
0.0279311
0.0278081
0.0276489
0.0275057
0.0273397
0.0271867
0.0270444
0.0268684
0.0266709
0.02646
0.0261293
0.0255099
0.0248853
0.0240143
0.0229715
0.0220833
0.0216446
0.021688
0.0216377
0.0219043
0.0226258
0.0233578
0.0235939
0.017966
0.0116951
0.00651338
0.00198106
0.0178321
0.0168669
0.0162213
0.0159484
0.0159458
0.0160751
0.0162333
0.0163779
0.0165175
0.0166813
0.0169003
0.0171933
0.0175644
0.0180065
0.0185086
0.0190602
0.0196542
0.0202854
0.0209489
0.0216353
0.0223327
0.0230274
0.0237123
0.0243697
0.0249882
0.0255548
0.0260575
0.0264857
0.0268317
0.0270927
0.0272689
0.027365
0.0273897
0.0273539
0.0272789
0.0271634
0.0270389
0.0268909
0.0267315
0.0265647
0.026371
0.0261326
0.0258636
0.025512
0.0249583
0.0243588
0.0236415
0.0227939
0.0220126
0.0215236
0.0213462
0.0211771
0.0211021
0.0215146
0.0215715
0.0209597
0.0165889
0.0111304
0.0064865
0.00205493
0.0198624
0.0190456
0.0184776
0.0182068
0.0181556
0.0182141
0.0183008
0.018381
0.0184541
0.0185421
0.0186683
0.0188534
0.0191021
0.0194094
0.0197667
0.0201657
0.0206012
0.0210692
0.0215667
0.0220869
0.0226201
0.0231609
0.0236955
0.0242151
0.0247097
0.0251693
0.0255844
0.0259458
0.0262464
0.0264832
0.0266544
0.026762
0.0268098
0.0268035
0.0267558
0.026667
0.0265551
0.0264156
0.0262531
0.0260675
0.0258559
0.0255935
0.0252899
0.0249223
0.0244165
0.0238494
0.0232082
0.022488
0.0217714
0.0212476
0.0208832
0.02061
0.0202651
0.0202712
0.0197597
0.0186171
0.0151678
0.0104729
0.00627306
0.0020656
0.0216234
0.0209335
0.0204351
0.0201714
0.0200841
0.0200869
0.0201133
0.0201326
0.0201455
0.0201701
0.0202295
0.0203332
0.0204861
0.0206851
0.0209243
0.0211977
0.0215018
0.021834
0.0221922
0.0225723
0.0229693
0.0233728
0.0237768
0.0241737
0.0245561
0.0249159
0.0252454
0.0255374
0.0257854
0.0259858
0.0261361
0.0262361
0.0262882
0.0262909
0.0262541
0.0261776
0.0260708
0.0259324
0.0257658
0.0255664
0.0253383
0.0250604
0.0247365
0.0243575
0.0238802
0.0233415
0.0227383
0.0220917
0.0214097
0.0208504
0.020342
0.0199309
0.0193798
0.0189981
0.0181113
0.0166594
0.0137924
0.00977017
0.00594648
0.00201447
0.023145
0.0225638
0.0221271
0.0218728
0.0217582
0.0217167
0.0216956
0.0216694
0.0216371
0.0216122
0.0216111
0.0216453
0.021719
0.0218304
0.0219749
0.0221476
0.0223455
0.0225667
0.0228102
0.0230729
0.023351
0.0236383
0.0239294
0.0242186
0.0245006
0.0247692
0.0250177
0.0252403
0.0254315
0.0255877
0.0257059
0.0257844
0.0258236
0.0258223
0.0257838
0.0257078
0.0255984
0.0254553
0.0252819
0.0250716
0.0248285
0.0245387
0.0242012
0.0238138
0.02335
0.02283
0.0222457
0.0216337