/*--------------------------------*- C++ -*----------------------------------*\
| =========                 |                                                 |
| \\      /  F ield         | OpenFOAM: The Open Source CFD Toolbox           |
|  \\    /   O peration     | Version:  2512                                  |
|   \\  /    A nd           | Website:  www.openfoam.com                      |
|    \\/     M anipulation  |                                                 |
\*---------------------------------------------------------------------------*/
FoamFile
{
    version     2.0;
    format      ascii;
    arch        "LSB;label=32;scalar=64";
    class       volVectorField;
    location    "142.45";
    object      U;
}
// * * * * * * * * * * * * * * * * * * * * * * * * * * * * * * * * * * * * * //

dimensions      [0 1 -1 0 0 0 0];

internalField   nonuniform List<vector> 
13248
(
(-0.014614 0.0129081 7.86773e-20)
(-0.0211481 0.0256903 0)
(-0.00132526 0.0291559 -1.35884e-19)
(0.0452599 0.0234695 1.25814e-19)
(0.119895 0.0101787 1.16178e-19)
(0.224011 -0.00872534 0)
(0.357238 -0.0311569 0)
(0.514898 -0.0551383 2.7583e-19)
(0.686733 -0.0790141 -7.56221e-22)
(0.858273 -0.101624 -2.35799e-19)
(1.0142 -0.122353 2.13472e-19)
(1.14198 -0.141004 -1.32572e-19)
(1.23441 -0.157544 0)
(1.29045 -0.171897 -2.03262e-19)
(1.31446 -0.183885 3.6717e-19)
(1.31411 -0.19328 -8.79768e-20)
(1.29791 -0.199908 -1.32647e-19)
(1.27322 -0.203674 1.2368e-19)
(1.24507 -0.204479 0)
(1.21626 -0.202973 0)
(1.18866 -0.197416 0)
(1.16013 -0.193674 0)
(1.13702 -0.179698 2.40679e-20)
(1.10398 -0.18168 7.07048e-20)
(-0.014701 0.0108547 -2.36482e-19)
(-0.0132661 0.0157629 1.48756e-19)
(0.0208338 0.0113955 -7.62051e-22)
(0.0890002 -8.71293e-05 -1.90271e-19)
(0.193351 -0.0163241 -1.16016e-19)
(0.333697 -0.0348447 -1.07724e-19)
(0.504022 -0.0533523 -1.97602e-19)
(0.690884 -0.0701887 1.82787e-19)
(0.875834 -0.0846742 0)
(1.04054 -0.0970492 1.81004e-21)
(1.17153 -0.108053 1.63823e-21)
(1.26274 -0.118388 1.27355e-19)
(1.31546 -0.128351 0)
(1.33641 -0.137785 0)
(1.33482 -0.146236 1.25379e-19)
(1.31959 -0.153196 -2.33776e-19)
(1.29747 -0.15824 1.25574e-19)
(1.2726 -0.161143 -1.17084e-19)
(1.24705 -0.161846 -4.71017e-20)
(1.22179 -0.160345 -7.78045e-20)
(1.19688 -0.156781 -2.69186e-20)
(1.17303 -0.151838 -4.82493e-20)
(1.15086 -0.142305 7.81156e-20)
(1.12545 -0.139976 1.99306e-20)
(-0.0138614 0.00908296 0)
(-4.21675e-05 0.00744086 0)
(0.0557996 -0.00283474 6.84289e-20)
(0.15487 -0.017988 6.25791e-20)
(0.297559 -0.0345623 -8.95557e-22)
(0.477543 -0.0495414 -1.09114e-19)
(0.678527 -0.0610673 0)
(0.877399 -0.0689241 -9.09789e-20)
(1.05189 -0.0742626 8.19242e-20)
(1.18716 -0.0787595 -1.87345e-21)
(1.27829 -0.0837574 -1.3446e-19)
(1.32906 -0.089803 -1.17183e-19)
(1.34854 -0.0966785 5.45518e-21)
(1.34721 -0.103727 -8.56457e-20)
(1.33398 -0.110228 2.11726e-19)
(1.31488 -0.115618 0)
(1.29322 -0.11956 -1.19859e-19)
(1.27058 -0.121952 5.90826e-20)
(1.24774 -0.122612 4.70522e-20)
(1.22499 -0.121932 0)
(1.20312 -0.119055 3.40093e-20)
(1.18173 -0.116002 -1.08318e-19)
(1.16198 -0.10923 1.01151e-19)
(1.14127 -0.10818 5.49272e-20)
(-0.0108277 0.00672275 -8.12186e-20)
(0.0212013 -0.000827448 -7.72822e-20)
(0.106724 -0.0148759 6.9857e-20)
(0.244892 -0.0306828 0)
(0.430104 -0.0439045 0)
(0.644477 -0.0518393 -7.60715e-22)
(0.859769 -0.0544774 0)
(1.04821 -0.0539192 -2.66966e-19)
(1.19225 -0.0528555 2.42522e-19)
(1.28747 -0.0532659 -2.94009e-19)
(1.33974 -0.0558914 6.60545e-20)
(1.36017 -0.0604252 0)
(1.36022 -0.0660389 9.91155e-20)
(1.34882 -0.0718702 -1.79271e-19)
(1.33161 -0.077275 4.2547e-20)
(1.31165 -0.0818544 9.8939e-20)
(1.2905 -0.085403 -8.50375e-21)
(1.26903 -0.0877524 -1.05321e-19)
(1.24775 -0.0889067 0)
(1.22716 -0.0887379 0)
(1.20742 -0.0871781 -3.24349e-20)
(1.18856 -0.0852179 2.77648e-20)
(1.17143 -0.0798166 9.07932e-20)
(1.15306 -0.0805511 -8.47791e-20)
(-0.00455951 0.00348109 -8.37858e-20)
(0.0527444 -0.00954393 -7.80704e-20)
(0.17574 -0.0248588 2.15952e-19)
(0.358422 -0.0374404 -1.304e-19)
(0.583349 -0.0431535 1.20785e-19)
(0.817654 -0.041516 2.16924e-19)
(1.02583 -0.0355443 -1.49613e-19)
(1.185 -0.0291617 -1.74181e-19)
(1.28955 -0.0251263 6.29399e-21)
(1.34679 -0.0244077 2.17071e-19)
(1.36971 -0.0266056 0)
(1.37108 -0.0307147 5.4743e-20)
(1.36053 -0.0357283 0)
(1.34404 -0.0409011 -8.3568e-20)
(1.32494 -0.0457539 1.16291e-19)
(1.30492 -0.0499941 1.26017e-21)
(1.28486 -0.0534179 -2.81568e-20)
(1.26518 -0.0559282 5.06852e-20)
(1.24609 -0.0574325 4.24201e-20)
(1.22766 -0.0579364 -3.66771e-20)
(1.20997 -0.0574843 3.24191e-20)
(1.19314 -0.0563206 -2.77511e-20)
(1.17703 -0.0534942 0)
(1.1608 -0.0546691 -1.99381e-20)
(0.00584807 -0.000467957 8.37646e-20)
(0.0963977 -0.0180099 8.05337e-20)
(0.263672 -0.0312877 -7.22348e-20)
(0.491534 -0.0361718 1.32288e-19)
(0.745135 -0.0311094 -1.22531e-19)
(0.979448 -0.0197437 1.08204e-19)
(1.16207 -0.00765002 -5.09389e-20)
(1.28316 0.00122555 1.31072e-19)
(1.3502 0.00550493 -8.01222e-20)
(1.37814 0.00567042 1.35158e-19)
(1.38179 0.00297662 -3.05074e-19)
(1.37224 -0.00132679 1.09072e-19)
(1.35642 -0.00630946 -9.19362e-20)
(1.33807 -0.0113678 8.55866e-20)
(1.319 -0.0161318 7.04034e-20)
(1.29996 -0.0203726 5.9298e-20)
(1.28119 -0.0239639 -1.63195e-19)
(1.26283 -0.0268234 9.97072e-20)
(1.24494 -0.028919 -4.24123e-20)
(1.22765 -0.0302548 1.06311e-19)
(1.21112 -0.0307873 -3.42185e-20)
(1.19532 -0.0307686 -7.83071e-20)
(1.18049 -0.0293722 7.11989e-20)
(1.16594 -0.0309747 1.99316e-20)
(0.0211542 -0.00449914 0)
(0.153288 -0.0244557 4.85006e-22)
(0.36922 -0.031507 1.48285e-19)
(0.636365 -0.0246034 -1.36887e-19)
(0.901391 -0.0078059 -1.21028e-19)
(1.11714 0.0110332 2.20411e-19)
(1.26421 0.0259166 -1.00387e-19)
(1.34778 0.0345979 1.28818e-19)
(1.3845 0.0375545 -4.03436e-21)
(1.39201 0.0364068 -6.95992e-20)
(1.38379 0.0328153 1.46664e-19)
(1.36831 0.0280202 -2.12039e-19)
(1.35006 0.0228035 0)
(1.33108 0.0176132 -3.93949e-20)
(1.31217 0.0126999 -1.02369e-19)
(1.2936 0.00820576 3.21357e-20)
(1.27549 0.00422659 1.73661e-21)
(1.25797 0.000826807 -6.4484e-20)
(1.24114 -0.00195441 5.78661e-21)
(1.22509 -0.00407573 7.27484e-20)
(1.20982 -0.0056021 -3.07783e-20)
(1.19536 -0.00644231 -1.10161e-20)
(1.18156 -0.00673807 3.54318e-20)
(1.16817 -0.00862265 0)
(0.0418628 -0.00785671 0)
(0.223348 -0.0267066 4.06638e-20)
(0.48821 -0.0227788 -1.9069e-19)
(0.782308 -0.00167971 6.8125e-20)
(1.04055 0.0252313 -6.31026e-20)
(1.22569 0.0481321 -5.52892e-20)
(1.33546 0.0628647 -9.52624e-20)
(1.38696 0.0695894 4.742e-20)
(1.40128 0.0703875 4.03639e-20)
(1.39548 0.0675574 0)
(1.38045 0.0628427 8.55563e-20)
(1.362 0.0573183 -1.24121e-19)
(1.34274 0.0515675 9.15088e-20)
(1.32366 0.0458967 3.94116e-20)
(1.30511 0.0404807 -3.11234e-20)
(1.28718 0.0354375 -2.50727e-20)
(1.26994 0.0308511 -2.27368e-20)
(1.25339 0.0267763 6.92707e-20)
(1.23755 0.0232502 0)
(1.22241 0.0202609 3.26991e-20)
(1.20797 0.0178468 2.61654e-20)
(1.19416 0.0159396 -6.58365e-20)
(1.18098 0.0143581 -4.27262e-20)
(1.16842 0.0124501 3.95661e-20)
(0.0682589 -0.00966754 -4.59235e-20)
(0.305023 -0.0224633 -1.08717e-21)
(0.613849 -0.00320138 3.85623e-20)
(0.919079 0.0320602 1.04414e-19)
(1.1563 0.0658408 2.86726e-20)
(1.306 0.089455 -5.52325e-20)
(1.38173 0.101867 4.9927e-20)
(1.40802 0.10559 -4.26998e-20)
(1.40682 0.103845 7.39304e-20)
(1.39279 0.0991903 3.07582e-20)
(1.37398 0.0932103 -8.5926e-20)
(1.35403 0.086744 2.49571e-20)
(1.33433 0.0802068 4.15646e-20)
(1.31533 0.0738159 -2.03354e-20)
(1.2971 0.0677023 0)
(1.27965 0.0619528 2.89984e-20)
(1.26295 0.0566272 4.79821e-20)
(1.247 0.0517663 7.59025e-21)
(1.23181 0.0473893 -3.89444e-20)
(1.2174 0.0435262 1.59854e-20)
(1.20369 0.0401677 0)
(1.19067 0.0372673 -1.20427e-20)
(1.17828 0.0346279 -1.08284e-20)
(1.16641 0.0324938 0)
(0.100108 -0.00897136 0)
(0.395075 -0.00973147 2.21672e-20)
(0.738109 0.0277795 4.02905e-20)
(1.03929 0.0750478 -1.05133e-19)
(1.24701 0.112 3.31444e-20)
(1.36163 0.133571 0)
(1.40878 0.142217 4.64583e-20)
(1.41642 0.142393 -6.3722e-20)
(1.40492 0.137949 -3.66004e-20)
(1.386 0.131357 1.63927e-20)
(1.36515 0.123925 -2.51904e-20)
(1.34451 0.116271 6.0919e-20)
(1.32472 0.108685 2.99552e-20)
(1.30592 0.101315 -2.07955e-20)
(1.28806 0.094258 -2.11827e-21)
(1.2711 0.0875813 -5.47746e-20)
(1.25502 0.0813389 2.46593e-20)
(1.23979 0.075565 -4.72383e-22)
(1.22539 0.0702885 0)
(1.21175 0.0655198 -1.6001e-20)
(1.1988 0.061255 0)
(1.18645 0.0573931 3.48389e-20)
(1.17463 0.0539224 -4.1004e-20)
(1.16332 0.0514751 1.84227e-20)
(0.136591 -0.00481953 -1.22173e-20)
(0.488876 0.0128174 -5.53794e-20)
(0.853582 0.0694836 6.15322e-20)
(1.13889 0.125388 3.50327e-20)
(1.3137 0.162103 -1.67679e-20)
(1.39658 0.179586 2.64097e-20)
(1.42105 0.183601 -1.28332e-20)
(1.41545 0.179986 2.06243e-20)
(1.3974 0.172756 0)
(1.37566 0.164095 4.49851e-20)
(1.35378 0.155011 -1.85896e-21)
(1.33286 0.14594 -3.54549e-20)
(1.31315 0.137075 1.50117e-20)
(1.2946 0.128522 -1.672e-20)
(1.27712 0.120354 -6.27043e-21)
(1.26066 0.112625 7.18769e-21)
(1.24513 0.10537 -5.51607e-21)
(1.23051 0.0986098 -2.92086e-20)
(1.21674 0.0923605 1.78026e-20)
(1.20374 0.0866378 3.61692e-21)
(1.19144 0.0814079 3.14094e-21)
(1.17976 0.0766026 2.72656e-21)
(1.16864 0.0723809 0)
(1.15799 0.0692995 0)
(0.176409 0.00361734 1.22321e-20)
(0.581219 0.0456607 -1.13735e-20)
(0.954772 0.120527 -2.04261e-20)
(1.2164 0.181318 0)
(1.35845 0.214973 -8.1644e-21)
(1.41421 0.226947 -6.99546e-21)
(1.42143 0.225836 -1.16842e-20)
(1.4068 0.218294 0)
(1.38475 0.208166 0)
(1.36152 0.197249 0)
(1.33922 0.18628 0)
(1.31835 0.175551 0)
(1.29889 0.165185 -9.44364e-21)
(1.28074 0.155253 4.26492e-21)
(1.26377 0.145801 7.3229e-21)
(1.24789 0.136865 3.37361e-21)
(1.23301 0.12846 8.30768e-21)
(1.2191 0.120602 0)
(1.20608 0.113308 -1.95306e-21)
(1.19387 0.10658 -1.80042e-21)
(1.18236 0.100372 -3.14584e-21)
(1.17149 0.0946492 -2.73082e-21)
(1.16115 0.0896817 0)
(1.15133 0.0857956 1.92129e-21)
(-0.00687997 0.088818 7.28935e-21)
(-0.0243688 0.143461 -6.95603e-21)
(-0.051724 0.13888 -1.29492e-20)
(-0.0825006 0.111364 0)
(-0.11445 0.0773134 -1.68486e-20)
(-0.14672 0.0405932 5.10002e-21)
(-0.178424 4.49877e-05 -1.01054e-20)
(-0.209031 -0.0458567 0)
(-0.238313 -0.0977529 0)
(-0.265788 -0.155719 0)
(-0.290887 -0.219455 0)
(-0.313041 -0.288149 0)
(-0.33166 -0.360507 -4.11561e-22)
(-0.346135 -0.434735 -6.34797e-21)
(-0.355839 -0.508553 1.2506e-20)
(-0.360123 -0.579228 1.68693e-20)
(-0.358296 -0.643657 5.46815e-21)
(-0.349621 -0.698482 0)
(-0.333355 -0.740277 4.05894e-21)
(-0.308858 -0.765812 -1.144e-20)
(-0.275646 -0.772412 -6.86833e-21)
(-0.233081 -0.758209 -6.18407e-21)
(-0.180429 -0.722102 0)
(-0.119271 -0.664368 0)
(-0.012213 0.0997561 -2.23707e-20)
(-0.0312613 0.168974 3.52526e-20)
(-0.0554473 0.172928 -1.37169e-20)
(-0.0814206 0.150042 -2.5182e-20)
(-0.107836 0.118306 3.46676e-20)
(-0.134069 0.0826615 -2.24251e-20)
(-0.159499 0.0426112 3.08959e-20)
(-0.183495 -0.00334303 2.07725e-20)
(-0.205691 -0.0559841 0)
(-0.226015 -0.11537 -1.76585e-20)
(-0.244178 -0.181229 -6.51591e-22)
(-0.259811 -0.252804 1.51882e-20)
(-0.272684 -0.328844 2.32332e-20)
(-0.282624 -0.407617 2.8463e-20)
(-0.289525 -0.486929 -1.27578e-20)
(-0.293352 -0.564189 -3.59197e-20)
(-0.294101 -0.636509 1.1181e-20)
(-0.291715 -0.700821 -4.0708e-20)
(-0.285999 -0.753986 0)
(-0.276535 -0.792898 7.64318e-21)
(-0.262474 -0.814543 6.85927e-21)
(-0.241828 -0.816249 6.17614e-21)
(-0.213076 -0.796033 0)
(-0.178748 -0.753909 0)
(-0.0177171 0.105882 0)
(-0.0379806 0.187736 7.66378e-20)
(-0.057134 0.200761 -2.82897e-20)
(-0.0758588 0.183217 2.63237e-20)
(-0.094037 0.154279 -7.54677e-20)
(-0.11129 0.120151 0)
(-0.127078 0.0811083 -4.57652e-20)
(-0.140989 0.0360353 2.17341e-20)
(-0.152582 -0.015947 -4.24137e-20)
(-0.161664 -0.0751152 2.16803e-20)
(-0.16828 -0.141095 1.14196e-19)
(-0.172328 -0.213152 -5.32979e-20)
(-0.17378 -0.290063 -8.30519e-20)
(-0.172723 -0.370092 -3.22393e-20)
(-0.169401 -0.451021 7.23559e-22)
(-0.164312 -0.530255 1.05513e-19)
(-0.158229 -0.605004 -4.8539e-20)
(-0.152103 -0.672497 -1.1558e-21)
(-0.146899 -0.73021 0)
(-0.143205 -0.775902 -3.22878e-20)
(-0.141001 -0.807324 0)
(-0.138017 -0.8223 -2.20075e-20)
(-0.133035 -0.819329 7.97415e-20)
(-0.122941 -0.798209 -2.58522e-21)
(-0.0226108 0.106006 0)
(-0.0438635 0.197027 1.50571e-21)
(-0.0569725 0.219218 3.0508e-20)
(-0.0669434 0.207766 -2.92274e-20)
(-0.075168 0.182203 2.46651e-20)
(-0.0816252 0.149975 1.51483e-19)
(-0.0858478 0.112328 -4.71101e-20)
(-0.087446 0.0685315 -4.65434e-20)
(-0.0862436 0.0178903 8.68903e-20)
(-0.08203 -0.0399795 -1.25015e-19)
(-0.074675 -0.104727 3.99912e-20)
(-0.064355 -0.175683 3.85441e-20)
(-0.0511249 -0.25167 0)
(-0.0351034 -0.330885 3.22653e-20)
(-0.0165929 -0.410961 0)
(0.00368073 -0.488951 5.67437e-20)
(0.0245104 -0.561584 -9.75285e-20)
(0.0442251 -0.625666 2.74715e-20)
(0.0606841 -0.678794 7.93514e-20)
(0.0720432 -0.719639 3.22485e-20)
(0.076081 -0.748 0)
(0.0744031 -0.763774 -6.37635e-20)
(0.0629024 -0.768836 2.16216e-20)
(0.0622616 -0.759579 0)
(-0.0261519 0.100034 0)
(-0.0481985 0.195515 -9.98035e-20)
(-0.055243 0.226201 -3.16323e-20)
(-0.0561154 0.221464 -5.88268e-20)
(-0.0537625 0.19998 5.45067e-20)
(-0.0487279 0.170185 -5.11135e-20)
(-0.0407557 0.134341 1.00749e-19)
(-0.0295107 0.092299 4.92497e-20)
(-0.0148235 0.0435031 -1.33876e-19)
(0.00338045 -0.0123165 8.7851e-20)
(0.0251791 -0.075051 -1.23493e-19)
(0.0503697 -0.144227 2.76285e-19)
(0.078883 -0.21882 -1.46956e-19)
(0.110588 -0.297146 6.9324e-20)
(0.145116 -0.376709 1.88878e-19)
(0.181629 -0.454204 -6.08716e-20)
(0.218642 -0.525619 -5.68131e-20)
(0.254164 -0.586731 -4.79814e-20)
(0.285536 -0.63411 0)
(0.310743 -0.665314 -5.93524e-20)
(0.325872 -0.680906 -3.99002e-20)
(0.333701 -0.680842 6.92422e-20)
(0.319539 -0.674296 5.79916e-20)
(0.324097 -0.647325 -5.26119e-20)
(-0.0278039 0.0889696 0)
(-0.0503618 0.183488 -1.38938e-19)
(-0.0521523 0.220949 -1.76139e-21)
(-0.0446337 0.223041 1.19376e-19)
(-0.0321146 0.206259 0)
(-0.0158574 0.179452 0)
(0.00409384 0.145836 0)
(0.0279524 0.105981 -4.96545e-20)
(0.0558446 0.0595534 -2.53268e-21)
(0.0878546 0.00638162 8.72051e-20)
(0.124054 -0.0535458 -1.27413e-19)
(0.164415 -0.119957 -7.38998e-22)
(0.208939 -0.19202 0)
(0.257495 -0.268182 -6.92823e-20)
(0.309372 -0.345915 6.22412e-20)
(0.362948 -0.421771 -1.74487e-19)
(0.415733 -0.491462 1.99949e-19)
(0.464715 -0.550466 3.21896e-20)
(0.506784 -0.595119 -1.66228e-20)
(0.540437 -0.622115 -1.30921e-19)
(0.561727 -0.631941 -4.78659e-20)
(0.577365 -0.621423 1.2574e-19)
(0.570102 -0.602448 -7.72704e-20)
(0.584007 -0.5527 0)
(-0.0274275 0.0745958 7.52948e-20)
(-0.049981 0.162753 6.97828e-20)
(-0.04787 0.204181 -6.58621e-20)
(-0.0334682 0.212298 -1.23033e-19)
(-0.0120415 0.200393 1.13991e-19)
(0.0144366 0.176936 -1.09553e-19)
(0.0454577 0.145816 1.52991e-19)
(0.0810445 0.108233 -5.00915e-20)
(0.121457 0.0641957 9.18791e-20)
(0.166918 0.0138133 0)
(0.217682 -0.0430804 8.54072e-20)
(0.274052 -0.106337 -1.5688e-19)
(0.336211 -0.175189 1.48711e-19)
(0.40372 -0.247963 -1.38421e-19)
(0.474934 -0.32188 0)
(0.546721 -0.393112 1.12867e-19)
(0.614846 -0.457187 1.90189e-19)
(0.674789 -0.509705 -1.78789e-19)
(0.722609 -0.547694 -7.00425e-20)
(0.757004 -0.568661 -5.16995e-20)
(0.7747 -0.574605 1.49457e-19)
(0.78543 -0.562284 2.81833e-20)
(0.772554 -0.542382 -3.30645e-20)
(0.783294 -0.49862 1.94338e-20)
(-0.0253222 0.0590379 -7.53133e-20)
(-0.0471202 0.136338 2.15164e-19)
(-0.0425648 0.178104 -6.66635e-20)
(-0.0232176 0.190366 1.24066e-19)
(0.00532964 0.182722 -1.14946e-19)
(0.0405564 0.16254 -1.17658e-21)
(0.0815348 0.133858 5.03913e-20)
(0.128052 0.0982472 1.96022e-19)
(0.180604 0.0565436 3.94955e-21)
(0.23999 0.00873213 -8.65978e-20)
(0.306752 -0.0454275 0)
(0.381502 -0.105646 -7.77499e-20)
(0.464048 -0.170921 1.45653e-19)
(0.552646 -0.239179 1.33194e-19)
(0.64353 -0.30718 -6.4076e-20)
(0.731163 -0.370844 -2.33603e-21)
(0.809422 -0.425857 -4.88346e-20)
(0.872864 -0.468437 7.93593e-20)
(0.918158 -0.496497 7.00409e-20)
(0.944605 -0.508445 -5.71772e-20)
(0.952314 -0.50716 4.33126e-20)
(0.948849 -0.490202 -3.39359e-20)
(0.926421 -0.469946 0)
(0.91697 -0.428443 -1.94345e-20)
(-0.0221619 0.0442905 7.66485e-20)
(-0.0423778 0.107842 -7.19567e-20)
(-0.0365205 0.146103 6.69139e-20)
(-0.0140321 0.159722 0)
(0.0198645 0.154817 0)
(0.0624447 0.137184 1.08622e-19)
(0.112563 0.110499 -1.01259e-19)
(0.170491 0.0769161 9.74462e-20)
(0.236989 0.0373041 -4.54255e-19)
(0.313105 -0.00848004 -1.36925e-21)
(0.399951 -0.060118 8.00602e-20)
(0.497409 -0.116894 0)
(0.603278 -0.177228 -1.40494e-19)
(0.712777 -0.238465 2.58721e-19)
(0.818917 -0.297113 -1.79112e-19)
(0.913797 -0.349444 -2.54629e-19)
(0.990494 -0.392038 1.43448e-20)
(1.04449 -0.422526 1.56584e-19)
(1.07472 -0.440129 0)
(1.08309 -0.444425 0)
(1.0734 -0.439049 -4.33305e-20)
(1.053 -0.420676 3.39509e-20)
(1.02025 -0.402422 -9.36101e-20)
(0.996057 -0.364788 8.73569e-20)
(-0.0188377 0.0318515 0)
(-0.0367753 0.0806606 0)
(-0.0300763 0.112102 -2.01152e-19)
(-0.00540615 0.123924 6.1947e-20)
(0.0330206 0.119558 -5.78188e-22)
(0.0829001 0.103204 1.06719e-19)
(0.143593 0.0781126 0)
(0.215817 0.0462064 -9.43101e-20)
(0.300984 0.00815214 9.02745e-20)
(0.400164 -0.0353544 -1.67267e-19)
(0.512961 -0.0834688 -7.11553e-22)
(0.6362 -0.134789 1.46828e-19)
(0.76355 -0.187124 -1.93756e-21)
(0.886257 -0.237667 1.18113e-19)
(0.994866 -0.283415 -1.72784e-19)
(1.0813 -0.321754 0)
(1.14072 -0.350623 1.62131e-19)
(1.1722 -0.369288 -2.25692e-19)
(1.17866 -0.377694 5.83114e-20)
(1.1655 -0.376818 0)
(1.13862 -0.369193 3.93862e-20)
(1.10595 -0.352884 1.19371e-19)
(1.06667 -0.338894 -1.11476e-19)
(1.03729 -0.307434 -9.14081e-20)
(-0.0162221 0.0225362 2.31826e-19)
(-0.0313499 0.0573181 -2.92413e-19)
(-0.0231988 0.0797565 4.2303e-22)
(0.00437936 0.0870025 6.23892e-20)
(0.0487435 0.0809009 -1.1527e-19)
(0.108796 0.0644481 -1.07563e-19)
(0.184918 0.0401236 2.01101e-19)
(0.278404 0.00950375 2.93853e-21)
(0.390092 -0.0261753 -1.74926e-19)
(0.518605 -0.0656798 3.29635e-19)
(0.659056 -0.107541 2.25398e-21)
(0.802951 -0.149913 -1.4248e-19)
(0.939521 -0.190682 0)
(1.05797 -0.227764 0)
(1.14983 -0.259358 -5.39574e-20)
(1.21067 -0.284231 -8.84894e-20)
(1.24082 -0.301609 -1.51276e-19)
(1.24438 -0.31183 1.41045e-19)
(1.22846 -0.314904 -5.83757e-20)
(1.19969 -0.312656 8.82992e-20)
(1.16543 -0.305229 -4.96822e-20)
(1.12995 -0.292834 4.93685e-20)
(1.09353 -0.28241 -1.33922e-19)
(1.06805 -0.255727 1.98193e-20)
(-0.0148519 0.0164253 7.76925e-20)
(-0.0264651 0.0390555 0)
(-0.0146588 0.0517377 1.35131e-19)
(0.0191615 0.0527157 -1.25119e-19)
(0.0743884 0.043313 1.15425e-19)
(0.151532 0.0256769 0)
(0.251742 0.00177344 0)
(0.375202 -0.026625 -9.2709e-20)
(0.519006 -0.0578705 -5.32657e-22)
(0.67583 -0.0903677 7.94825e-20)
(0.834437 -0.122575 -7.2326e-20)
(0.981864 -0.153099 1.37645e-19)
(1.1063 -0.180788 0)
(1.19962 -0.204755 2.1631e-19)
(1.25878 -0.224381 -3.91371e-19)
(1.2859 -0.239303 2.65563e-19)
(1.28699 -0.249424 1.41328e-19)
(1.26992 -0.255079 -1.31774e-19)
(1.24246 -0.256171 0)
(1.21003 -0.254363 0)
(1.17793 -0.247624 0)
(1.1454 -0.240375 0)
(1.11707 -0.229879 2.49417e-20)
(1.09411 -0.209876 -7.40469e-20)
(-0.0507632 -0.578411 -3.86701e-21)
(0.0624451 -0.432276 3.86579e-21)
(0.161489 -0.267446 -1.14133e-22)
(0.263537 -0.0802118 0)
(0.35372 0.119852 -3.69839e-21)
(0.433097 0.332083 6.91597e-21)
(0.504191 0.536565 -4.14072e-22)
(0.563739 0.6964 -2.73295e-21)
(0.609833 0.784135 0)
(0.643525 0.807045 0)
(0.661808 0.794776 -7.43948e-23)
(0.67061 0.764625 -6.61952e-23)
(0.677457 0.728793 -1.13683e-21)
(0.674779 0.717655 1.04193e-21)
(0.653875 0.745817 0)
(0.624746 0.766337 0)
(0.615363 0.69257 1.74602e-21)
(0.639942 0.47877 2.59381e-22)
(0.685944 0.158484 -1.77165e-21)
(0.737541 -0.182701 -1.21489e-22)
(0.784611 -0.450054 0)
(0.821936 -0.598918 0)
(0.842512 -0.654386 0)
(0.846905 -0.654826 0)
(0.848878 -0.624782 0)
(0.844508 -0.607901 0)
(0.818291 -0.639357 1.95378e-22)
(0.769881 -0.67931 -3.06704e-22)
(0.712884 -0.639105 0)
(0.661398 -0.469535 0)
(0.63338 -0.200318 -4.26928e-22)
(0.636737 0.0895642 4.14839e-22)
(0.667892 0.318934 1.58724e-22)
(0.713593 0.457007 0)
(0.758959 0.523189 0)
(0.774777 0.559582 1.52998e-22)
(0.74737 0.589229 -1.48703e-22)
(0.688728 0.575323 0)
(0.635399 0.468003 2.12285e-22)
(0.607297 0.250604 -3.26136e-22)
(0.619082 -0.0108625 1.14517e-22)
(0.663186 -0.222199 0)
(0.709262 -0.353208 -1.2048e-22)
(0.707017 -0.4331 1.17149e-22)
(0.674655 -0.482137 0)
(0.641407 -0.435926 0)
(0.636981 -0.302953 -4.07699e-23)
(0.647578 -0.0916444 1.11079e-22)
(0.667427 0.133665 0)
(0.662027 0.312764 0)
(0.654055 0.441648 -2.63635e-23)
(0.641978 0.393241 -1.67732e-24)
(0.650639 0.249459 2.65534e-25)
(0.640878 0.00348554 2.97399e-23)
(0.626674 -0.279637 0)
(0.599191 -0.360443 0)
(0.605386 -0.374844 0)
(0.575816 -0.120447 0)
(0.552289 0.23392 0)
(0.52918 0.152574 0)
(-0.151224 -0.681485 -3.0892e-22)
(-0.0644283 -0.550395 -1.36762e-20)
(0.0138269 -0.386821 -2.13911e-22)
(0.10669 -0.195114 1.30307e-20)
(0.193406 0.0161581 1.80814e-22)
(0.278917 0.236901 0)
(0.361697 0.448361 -9.54189e-21)
(0.439874 0.619209 1.72199e-20)
(0.510445 0.724571 -7.68168e-21)
(0.568065 0.769751 5.03642e-21)
(0.608535 0.775797 -4.81616e-21)
(0.638808 0.75482 4.05728e-21)
(0.663123 0.726257 -3.927e-21)
(0.673353 0.72595 -1.27585e-22)
(0.665556 0.762247 -5.16025e-21)
(0.655977 0.779147 5.01149e-21)
(0.670486 0.692264 -7.26236e-21)
(0.713379 0.465406 6.81348e-21)
(0.770237 0.135724 -8.37518e-21)
(0.82577 -0.211242 1.55756e-20)
(0.866399 -0.479227 -7.22965e-21)
(0.889164 -0.620628 -3.26661e-22)
(0.8941 -0.663525 -3.41442e-21)
(0.881849 -0.655711 5.90897e-21)
(0.867123 -0.621414 -2.51819e-21)
(0.850952 -0.596227 1.14519e-22)
(0.815332 -0.615915 1.88816e-21)
(0.756055 -0.648127 3.31796e-22)
(0.688856 -0.608118 -4.45794e-21)
(0.628158 -0.447388 5.26375e-21)
(0.594112 -0.19577 -2.78522e-21)
(0.597742 0.074761 3.26241e-22)
(0.63583 0.293348 -1.59063e-22)
(0.692818 0.431622 2.10957e-22)
(0.749074 0.508205 0)
(0.773435 0.560892 0)
(0.754455 0.604849 -6.6155e-22)
(0.705332 0.597382 4.60125e-22)
(0.660567 0.486485 7.37989e-22)
(0.636311 0.257754 1.94965e-22)
(0.644315 -0.0187739 -1.10587e-21)
(0.68115 -0.23849 2.12757e-22)
(0.725488 -0.362479 0)
(0.722695 -0.428531 0)
(0.685471 -0.472197 0)
(0.647826 -0.430399 0)
(0.641471 -0.304278 1.26179e-22)
(0.648225 -0.096146 -7.14986e-23)
(0.664924 0.130564 0)
(0.660028 0.313565 0)
(0.655828 0.443552 0)
(0.647169 0.394656 -6.44601e-23)
(0.658006 0.24957 -1.43112e-23)
(0.649328 0.00763546 -5.49592e-23)
(0.632811 -0.275649 0)
(0.599806 -0.357648 0)
(0.601935 -0.372693 1.37897e-23)
(0.574644 -0.116256 -4.43869e-24)
(0.561004 0.237458 0)
(0.533531 0.155981 0)
(-0.142929 -0.750428 -1.00415e-21)
(-0.116312 -0.646796 -2.17979e-20)
(-0.0761245 -0.494642 2.12027e-20)
(-0.00474667 -0.312529 -1.98689e-20)
(0.067957 -0.103312 -1.8214e-22)
(0.1466 0.122273 0)
(0.234535 0.336986 -1.55101e-20)
(0.327852 0.517882 1.50982e-20)
(0.418103 0.642415 9.62124e-23)
(0.495909 0.712467 1.18546e-22)
(0.557627 0.738638 1.0319e-22)
(0.608947 0.729896 1.19813e-22)
(0.650319 0.711917 -7.72364e-21)
(0.673426 0.722401 7.62862e-21)
(0.679099 0.764243 0)
(0.688359 0.777204 3.20607e-22)
(0.723765 0.683079 -1.4379e-20)
(0.78255 0.453896 1.42041e-20)
(0.849379 0.124469 0)
(0.909896 -0.221879 0)
(0.946449 -0.488147 -1.27023e-20)
(0.955723 -0.624718 2.18788e-20)
(0.945608 -0.659735 -1.58772e-20)
(0.918758 -0.647732 1.70763e-21)
(0.888447 -0.612512 8.86178e-21)
(0.861033 -0.580171 -7.44194e-21)
(0.818907 -0.587646 6.36682e-21)
(0.751234 -0.614109 1.62345e-22)
(0.67427 -0.578898 -3.38459e-21)
(0.605518 -0.430144 0)
(0.565701 -0.196222 0)
(0.568611 0.0551753 1.63363e-21)
(0.612287 0.262619 -2.16899e-21)
(0.678437 0.401065 -3.30639e-23)
(0.744079 0.488219 1.21182e-21)
(0.777039 0.557929 -1.17749e-21)
(0.768152 0.618225 0)
(0.729899 0.619398 1.83633e-22)
(0.69461 0.506554 2.40335e-21)
(0.675398 0.269481 -5.00993e-21)
(0.679595 -0.0197282 2.23605e-21)
(0.705955 -0.249763 2.59236e-22)
(0.7462 -0.369899 -1.46487e-21)
(0.743239 -0.422663 1.09533e-21)
(0.701047 -0.46119 1.66325e-22)
(0.657574 -0.425374 1.2545e-22)
(0.648699 -0.306308 -1.26514e-22)
(0.651895 -0.101508 0)
(0.666349 0.12703 0)
(0.662117 0.313255 -3.32543e-22)
(0.661223 0.444707 1.76696e-22)
(0.655186 0.396186 -2.47078e-22)
(0.668292 0.249929 4.18664e-22)
(0.661073 0.0131594 5.50583e-22)
(0.643097 -0.270262 -1.01912e-22)
(0.604477 -0.354037 1.35621e-22)
(0.602049 -0.370373 -6.3223e-23)
(0.577368 -0.114375 -2.22769e-23)
(0.573817 0.240699 0)
(0.541559 0.160294 0)
(-0.00260318 -0.743323 -3.4334e-20)
(-0.054295 -0.684098 2.5219e-21)
(-0.0704789 -0.571406 2.9853e-20)
(-0.0478479 -0.415409 -2.69421e-22)
(0.0010858 -0.223254 0)
(0.0646467 -0.00355927 0)
(0.142912 0.208984 -2.1478e-20)
(0.237882 0.398473 2.89817e-21)
(0.335224 0.541568 2.44182e-20)
(0.42615 0.635088 -9.68364e-22)
(0.5066 0.680659 -6.06544e-21)
(0.577719 0.686758 -5.82035e-21)
(0.634761 0.682279 5.79392e-21)
(0.669366 0.7036 0)
(0.687765 0.748816 -9.16951e-21)
(0.715705 0.75838 8.29273e-21)
(0.770484 0.66496 0)
(0.84124 0.445079 0)
(0.917359 0.122876 1.60468e-20)
(0.987227 -0.221636 -8.16523e-22)
(1.02442 -0.486007 -1.391e-20)
(1.02224 -0.61871 -9.50239e-21)
(0.996886 -0.647728 9.37538e-21)
(0.956781 -0.632311 -5.14371e-21)
(0.912874 -0.59867 1.15116e-21)
(0.874324 -0.56257 3.69632e-21)
(0.826873 -0.557586 3.51739e-22)
(0.75429 -0.57615 3.31121e-23)
(0.669604 -0.546714 0)
(0.593799 -0.413935 3.86551e-21)
(0.54855 -0.20017 -3.97857e-21)
(0.549342 0.0315467 2.73116e-22)
(0.596445 0.226942 0)
(0.669104 0.365277 -1.80277e-22)
(0.742921 0.463694 2.14852e-21)
(0.785583 0.549907 -4.10787e-21)
(0.787405 0.625189 -9.16043e-22)
(0.759584 0.636186 -1.02294e-21)
(0.734938 0.525208 3.1185e-21)
(0.722555 0.284476 6.05481e-22)
(0.724277 -0.0144007 -4.52723e-21)
(0.738178 -0.256343 3.92358e-21)
(0.771199 -0.376375 -2.22754e-23)
(0.767894 -0.416212 8.16241e-22)
(0.721046 -0.448474 -9.60414e-22)
(0.670432 -0.419693 -7.77982e-22)
(0.658326 -0.308773 2.5189e-22)
(0.658466 -0.108033 2.75978e-22)
(0.671527 0.122479 -5.32951e-22)
(0.667966 0.31173 4.08654e-22)
(0.669915 0.445427 -2.67785e-22)
(0.665762 0.398137 1.07586e-22)
(0.681161 0.250579 2.61626e-22)
(0.67589 0.0195321 -9.18186e-22)
(0.657383 -0.263661 4.58987e-23)
(0.613253 -0.349514 -1.39394e-22)
(0.605713 -0.367736 0)
(0.58365 -0.114704 7.37433e-24)
(0.590318 0.24353 -7.32018e-23)
(0.553252 0.165417 0)
(0.243663 -0.648201 2.48008e-20)
(0.135139 -0.635712 -4.48932e-20)
(0.0509305 -0.582642 2.00121e-20)
(0.00436258 -0.475712 1.52317e-20)
(0.00619003 -0.318153 -2.91549e-20)
(0.039424 -0.126133 8.09494e-22)
(0.0976927 0.0762724 1.28888e-20)
(0.183588 0.26734 9.72294e-21)
(0.278548 0.424095 -9.5342e-21)
(0.375704 0.537461 0)
(0.469112 0.602608 -7.43248e-21)
(0.554096 0.627268 1.57673e-20)
(0.620761 0.639961 -8.35993e-21)
(0.661772 0.672944 0)
(0.690165 0.720018 0)
(0.73504 0.727197 2.90818e-22)
(0.80577 0.640402 -2.43445e-20)
(0.887235 0.435738 2.36325e-20)
(0.975212 0.126148 0)
(1.05647 -0.211058 2.90249e-20)
(1.09632 -0.469278 -5.06476e-20)
(1.08498 -0.598309 4.03762e-20)
(1.04564 -0.625247 -3.06493e-20)
(0.994036 -0.60905 3.10777e-21)
(0.93922 -0.57889 1.65457e-20)
(0.891415 -0.542824 -7.07854e-21)
(0.840295 -0.527712 -1.65757e-22)
(0.76554 -0.538158 -2.12307e-21)
(0.675234 -0.514764 -3.43353e-22)
(0.593087 -0.399256 2.47961e-21)
(0.54246 -0.206811 2.26296e-22)
(0.539469 0.00516313 -2.91449e-21)
(0.587051 0.187488 5.23806e-21)
(0.663619 0.324814 -2.56758e-21)
(0.74474 0.432341 0)
(0.797041 0.534535 -2.32297e-21)
(0.810406 0.62755 2.31148e-21)
(0.795001 0.651105 -3.49671e-21)
(0.781575 0.544726 4.32845e-21)
(0.775997 0.303393 -6.81853e-22)
(0.776591 -0.00163365 0)
(0.777347 -0.256346 -5.52532e-22)
(0.800037 -0.380493 1.13196e-21)
(0.795936 -0.408945 0)
(0.745106 -0.433987 1.39512e-21)
(0.686181 -0.413043 -6.2556e-22)
(0.670005 -0.311536 1.6528e-22)
(0.667651 -0.115856 7.13641e-23)
(0.680139 0.116682 0)
(0.677413 0.308754 0)
(0.681801 0.445101 -6.11571e-22)
(0.678659 0.400223 1.30896e-21)
(0.696223 0.251208 -9.35165e-22)
(0.693562 0.0265244 4.33364e-22)
(0.675441 -0.255788 6.15232e-22)
(0.626094 -0.34405 1.39543e-22)
(0.612873 -0.364663 -7.1771e-23)
(0.593058 -0.117166 0)
(0.610056 0.245719 9.97099e-23)
(0.568558 0.171244 -9.31876e-24)
(0.508733 -0.528456 1.87894e-20)
(0.40259 -0.51201 -1.85334e-20)
(0.283236 -0.496017 1.05213e-22)
(0.173043 -0.454048 -1.5768e-23)
(0.102115 -0.35893 7.37154e-23)
(0.0798717 -0.220852 -6.64365e-23)
(0.0987664 -0.0457177 -1.24127e-23)
(0.161475 0.134292 0)
(0.247669 0.296267 1.5519e-23)
(0.345514 0.423536 -1.01456e-23)
(0.44489 0.507819 4.64589e-24)
(0.536035 0.55454 -9.14793e-23)
(0.6057 0.587878 0)
(0.64878 0.632782 0)
(0.684914 0.679679 1.41874e-22)
(0.743634 0.685235 0)
(0.826043 0.609815 -2.54302e-22)
(0.917777 0.425271 0)
(1.02125 0.131352 -2.66671e-20)
(1.11704 -0.195323 5.18774e-20)
(1.16133 -0.444514 -4.6599e-20)
(1.14328 -0.569178 2.12989e-20)
(1.09174 -0.59604 1.22929e-20)
(1.03051 -0.580524 -1.19327e-20)
(0.966995 -0.554209 -6.78727e-21)
(0.910712 -0.52128 6.53645e-21)
(0.857124 -0.499234 0)
(0.783698 -0.500458 9.71244e-23)
(0.690629 -0.481638 0)
(0.602948 -0.384323 0)
(0.546814 -0.213953 4.61847e-21)
(0.537707 -0.0222991 -4.72061e-21)
(0.582455 0.145287 2.15677e-22)
(0.660675 0.279481 2.32433e-22)
(0.747975 0.395347 -1.46245e-22)
(0.810524 0.51241 -1.83053e-21)
(0.836063 0.62025 1.77715e-21)
(0.831438 0.658075 -4.31548e-21)
(0.828421 0.561479 3.79895e-21)
(0.831365 0.324514 1.38809e-21)
(0.833595 0.0176855 -5.20118e-21)
(0.822425 -0.249539 5.16663e-22)
(0.83223 -0.382044 3.03942e-21)
(0.826475 -0.401296 0)
(0.772789 -0.417597 -6.22159e-22)
(0.70464 -0.404703 4.02688e-22)
(0.683345 -0.314257 -5.85666e-22)
(0.679116 -0.125072 -7.18418e-23)
(0.691819 0.108984 0)
(0.690053 0.304129 1.71335e-22)
(0.696459 0.444609 -2.09976e-22)
(0.69351 0.403106 8.75419e-24)
(0.713092 0.251962 -3.88709e-22)
(0.71383 0.0341082 7.44397e-22)
(0.696957 -0.246763 -6.69752e-22)
(0.642864 -0.337636 0)
(0.623485 -0.360985 7.18132e-23)
(0.605127 -0.121642 0)
(0.632524 0.247163 0)
(0.587342 0.177679 2.51926e-24)
(0.720235 -0.465851 -1.74891e-20)