/*--------------------------------*- C++ -*----------------------------------*\
| =========                 |                                                 |
| \\      /  F ield         | OpenFOAM: The Open Source CFD Toolbox           |
|  \\    /   O peration     | Version:  2512                                  |
|   \\  /    A nd           | Website:  www.openfoam.com                      |
|    \\/     M anipulation  |                                                 |
\*---------------------------------------------------------------------------*/
FoamFile
{
    version     2.0;
    format      ascii;
    arch        "LSB;label=32;scalar=64";
    class       volScalarField;
    location    "111";
    object      p;
}
// * * * * * * * * * * * * * * * * * * * * * * * * * * * * * * * * * * * * * //

dimensions      [0 2 -2 0 0 0 0];

internalField   nonuniform List<scalar> 
13248
(
-0.574204
-0.572155
-0.570986
-0.570649
-0.571231
-0.572567
-0.574051
-0.574621
-0.572817
-0.567012
-0.555793
-0.538324
-0.514577
-0.485314
-0.451855
-0.415746
-0.378455
-0.341188
-0.304786
-0.269871
-0.236654
-0.205443
-0.175748
-0.14709
-0.578665
-0.57627
-0.57417
-0.572476
-0.571342
-0.570591
-0.569514
-0.566906
-0.5613
-0.551347
-0.53618
-0.515632
-0.490244
-0.461063
-0.429348
-0.396308
-0.362945
-0.33
-0.297994
-0.267286
-0.238068
-0.210582
-0.18453
-0.160148
-0.584069
-0.581269
-0.578372
-0.575487
-0.572719
-0.569762
-0.565742
-0.559418
-0.549573
-0.535395
-0.516686
-0.49386
-0.467759
-0.439403
-0.409761
-0.379641
-0.349653
-0.32025
-0.29176
-0.264437
-0.238439
-0.213909
-0.19069
-0.168495
-0.591205
-0.587802
-0.584112
-0.580072
-0.575558
-0.570033
-0.562523
-0.551991
-0.537747
-0.519655
-0.498102
-0.47382
-0.447655
-0.420394
-0.392678
-0.364995
-0.337714
-0.311113
-0.285408
-0.260777
-0.237318
-0.215184
-0.194164
-0.174196
-0.600449
-0.596163
-0.591563
-0.586217
-0.579611
-0.570979
-0.559447
-0.544471
-0.526052
-0.504664
-0.481033
-0.455926
-0.430009
-0.403798
-0.377672
-0.35191
-0.326727
-0.302292
-0.278748
-0.256206
-0.234757
-0.214465
-0.195181
-0.176871
-0.611872
-0.606421
-0.600706
-0.593719
-0.584472
-0.572102
-0.556138
-0.536752
-0.514614
-0.49058
-0.465452
-0.439854
-0.414226
-0.388858
-0.36395
-0.339649
-0.31607
-0.293315
-0.271463
-0.250586
-0.230731
-0.211928
-0.194091
-0.177221
-0.625348
-0.61852
-0.611417
-0.602284
-0.589675
-0.572923
-0.552291
-0.528737
-0.503408
-0.477282
-0.451043
-0.425107
-0.399709
-0.374977
-0.35099
-0.327806
-0.305473
-0.284032
-0.263519
-0.243959
-0.225373
-0.207758
-0.191081
-0.175331
-0.64058
-0.632245
-0.623404
-0.611443
-0.594635
-0.572946
-0.54762
-0.520276
-0.492263
-0.464459
-0.437338
-0.411112
-0.385853
-0.361577
-0.33828
-0.315956
-0.2946
-0.274208
-0.254776
-0.236298
-0.218762
-0.202148
-0.186446
-0.171565
-0.657014
-0.647105
-0.636075
-0.620438
-0.598607
-0.571655
-0.541834
-0.511151
-0.480892
-0.45171
-0.423849
-0.397347
-0.372161
-0.348222
-0.325465
-0.303834
-0.283281
-0.263764
-0.245246
-0.227689
-0.211058
-0.19532
-0.180451
-0.166301
-0.673745
-0.662225
-0.648434
-0.628193
-0.600691
-0.568444
-0.534494
-0.500921
-0.468774
-0.43843
-0.409929
-0.383172
-0.358024
-0.334353
-0.312046
-0.291005
-0.271146
-0.252394
-0.234685
-0.217958
-0.202157
-0.187241
-0.17315
-0.159712
-0.689508
-0.676341
-0.65907
-0.633336
-0.599777
-0.562424
-0.524771
-0.488713
-0.454969
-0.423651
-0.394619
-0.367663
-0.342575
-0.319171
-0.297294
-0.276809
-0.257602
-0.239573
-0.222634
-0.206706
-0.191723
-0.17763
-0.164327
-0.15167
-0.702764
-0.687902
-0.666335
-0.634331
-0.594584
-0.552453
-0.511539
-0.47338
-0.438333
-0.406256
-0.376853
-0.34982
-0.324885
-0.301816
-0.280416
-0.26052
-0.241987
-0.224695
-0.208538
-0.193426
-0.179288
-0.166063
-0.153633
-0.141916
-0.413791
-0.415766
-0.416523
-0.417429
-0.419254
-0.422254
-0.42653
-0.432155
-0.439204
-0.44774
-0.457799
-0.46937
-0.482381
-0.496693
-0.512089
-0.528275
-0.544871
-0.561421
-0.577386
-0.592107
-0.604893
-0.614894
-0.620973
-0.622376
-0.42387
-0.42702
-0.428755
-0.430705
-0.433657
-0.437781
-0.443068
-0.449441
-0.456778
-0.46491
-0.473619
-0.482649
-0.491724
-0.50058
-0.508991
-0.516791
-0.523861
-0.530113
-0.535453
-0.539723
-0.542613
-0.543524
-0.541538
-0.535924
-0.436834
-0.440868
-0.443574
-0.446681
-0.450929
-0.4564
-0.462968
-0.470394
-0.478338
-0.486365
-0.493958
-0.500544
-0.50556
-0.508515
-0.509073
-0.507102
-0.502676
-0.496055
-0.487635
-0.477857
-0.466955
-0.454623
-0.440356
-0.425809
-0.452833
-0.457328
-0.460896
-0.46516
-0.470763
-0.477694
-0.485726
-0.494466
-0.503361
-0.511703
-0.518655
-0.523297
-0.524717
-0.522129
-0.51499
-0.503094
-0.486606
-0.466061
-0.442314
-0.416403
-0.389167
-0.360751
-0.331381
-0.305068
-0.471268
-0.475839
-0.48002
-0.485294
-0.492149
-0.500458
-0.509922
-0.520007
-0.529963
-0.53883
-0.545461
-0.548596
-0.546976
-0.539506
-0.525425
-0.504436
-0.476769
-0.443177
-0.404867
-0.363323
-0.320046
-0.276054
-0.232484
-0.192498
-0.490977
-0.495148
-0.499711
-0.505753
-0.513534
-0.522891
-0.533499
-0.544659
-0.555454
-0.564701
-0.570978
-0.57272
-0.568373
-0.556608
-0.536529
-0.507824
-0.470866
-0.426682
-0.376947
-0.323395
-0.268086
-0.212636
-0.159377
-0.104796
-0.510468
-0.513854
-0.518383
-0.524764
-0.53307
-0.543048
-0.554158
-0.56577
-0.576799
-0.585876
-0.591359
-0.591459
-0.584397
-0.56875
-0.543625
-0.508865
-0.465135
-0.413451
-0.356903
-0.296995
-0.236268
-0.175795
-0.119636
-0.0627303
-0.528269
-0.530608
-0.534713
-0.54091
-0.549088
-0.558913
-0.569852
-0.581076
-0.591479
-0.599573
-0.603575
-0.601673
-0.591763
-0.57261
-0.543455
-0.504455
-0.456713
-0.402119
-0.343228
-0.282386
-0.2223
-0.164132
-0.111303
-0.0614539
-0.543284
-0.544438
-0.547775
-0.553262
-0.560675
-0.569611
-0.579508
-0.589516
-0.598454
-0.604775
-0.606643
-0.602114
-0.589381
-0.567234
-0.535267
-0.494093
-0.445277
-0.391093
-0.334093
-0.276759
-0.221252
-0.169038
-0.12178
-0.0791372
-0.554989
-0.555011
-0.557298
-0.561622
-0.567698
-0.575138
-0.583324
-0.591438
-0.598253
-0.602192
-0.601407
-0.594018
-0.578454
-0.553827
-0.520198
-0.478644
-0.431071
-0.379839
-0.327325
-0.275646
-0.226399
-0.180669
-0.139348
-0.102587
-0.563517
-0.562596
-0.563683
-0.566512
-0.570857
-0.576307
-0.58241
-0.588227
-0.592505
-0.593638
-0.589807
-0.579303
-0.560917
-0.534261
-0.499922
-0.459363
-0.414591
-0.367747
-0.320783
-0.275183
-0.232074
-0.191947
-0.155491
-0.122266
-0.56956
-0.567955
-0.567841
-0.56903
-0.5714
-0.574807
-0.578626
-0.58192
-0.583353
-0.581267
-0.573949
-0.560022
-0.538811
-0.510529
-0.476233
-0.437567
-0.396366
-0.354363
-0.312902
-0.272973
-0.235158
-0.199744
-0.167304
-0.137296
-0.619057
-0.60327
-0.566528
-0.508867
-0.434875
-0.358486
-0.293506
-0.247547
-0.222055
-0.214746
-0.221627
-0.24179
-0.278519
-0.330689
-0.383775
-0.414735
-0.40316
-0.351644
-0.28282
-0.219647
-0.173134
-0.143797
-0.129572
-0.127587
-0.138229
-0.166434
-0.211955
-0.258437
-0.279358
-0.258504
-0.210932
-0.162481
-0.128106
-0.110028
-0.107582
-0.123953
-0.15726
-0.18841
-0.192574
-0.166444
-0.129315
-0.100392
-0.0834808
-0.0797185
-0.0833019
-0.0857964
-0.0809292
-0.0735759
-0.0640898
-0.060097
-0.0609586
-0.0634493
-0.0576914
-0.0514393
-0.0402222
-0.0351693
-0.0290948
-0.0221869
-0.0113059
-0.00688236
-0.525045
-0.518126
-0.481842
-0.43371
-0.371254
-0.30837
-0.256353
-0.221469
-0.205338
-0.205208
-0.217517
-0.242597
-0.28377
-0.338955
-0.39333
-0.424612
-0.413133
-0.360638
-0.289614
-0.223684
-0.174485
-0.142159
-0.124569
-0.118992
-0.124911
-0.146574
-0.184372
-0.224756
-0.24333
-0.225948
-0.185949
-0.145862
-0.118744
-0.106921
-0.11101
-0.134934
-0.175779
-0.212914
-0.218554
-0.188171
-0.143372
-0.106853
-0.0834779
-0.073793
-0.0720152
-0.0709609
-0.0666771
-0.0614636
-0.057395
-0.0593782
-0.066286
-0.0733915
-0.0673051
-0.0598241
-0.0423367
-0.0301311
-0.0193652
-0.0100239
-0.0059905
-0.00751521
-0.412063
-0.403229
-0.370445
-0.336994
-0.289031
-0.243168
-0.206083
-0.1838
-0.177601
-0.184289
-0.200982
-0.228945
-0.271881
-0.328238
-0.384004
-0.41652
-0.40844
-0.358115
-0.28759
-0.221558
-0.171702
-0.1377
-0.117213
-0.108134
-0.109516
-0.124575
-0.15442
-0.188549
-0.205707
-0.19217
-0.159716
-0.127466
-0.107054
-0.101215
-0.111865
-0.143128
-0.190863
-0.233498
-0.241486
-0.207909
-0.156103
-0.112154
-0.0828473
-0.0679963
-0.0616005
-0.057108
-0.0529388
-0.0493859
-0.0505865
-0.0584085
-0.0713221
-0.0829619
-0.0765345
-0.0677942
-0.0444125
-0.0250745
-0.00982564
0.00196928
-0.000957064
-0.0080651
-0.287129
-0.278127
-0.247233
-0.229478
-0.198562
-0.170194
-0.14759
-0.137637
-0.14028
-0.152437
-0.171966
-0.201196
-0.244723
-0.301633
-0.358922
-0.394608
-0.389873
-0.343836
-0.276955
-0.213551
-0.164898
-0.13075
-0.108527
-0.0962545
-0.0932424
-0.102003
-0.124232
-0.152107
-0.16808
-0.158691
-0.13328
-0.107858
-0.0933191
-0.0927154
-0.109125
-0.146825
-0.200907
-0.24885
-0.259777
-0.224598
-0.16713
-0.116205
-0.0815658
-0.0623589
-0.0521786
-0.044362
-0.0398896
-0.0374482
-0.0436622
-0.0570783
-0.0759276
-0.0920407
-0.0851865
-0.0752039
-0.0464135
-0.0201199
-0.00067354
0.0136413
0.00384702
-0.00847997
-0.170026
-0.157423
-0.146294
-0.122842
-0.112057
-0.0955589
-0.0860218
-0.0865337
-0.0960356
-0.112232
-0.133942
-0.164512
-0.20883
-0.265737
-0.323488
-0.361848
-0.361237
-0.320686
-0.259842
-0.201181
-0.155035
-0.121756
-0.0989182
-0.0846128
-0.07774
-0.0804515
-0.0953557
-0.117149
-0.131902
-0.126446
-0.10741
-0.0877225
-0.0778826
-0.0814683
-0.102472
-0.145374
-0.204938
-0.257736
-0.272232
-0.23744
-0.176225
-0.119129
-0.079756
-0.0569079
-0.0437762
-0.0328373
-0.0277238
-0.0257538
-0.0365222
-0.0552902
-0.0800163
-0.100519
-0.0931403
-0.0819451
-0.048323
-0.0153793
0.0079094
0.0248486
0.00848409
-0.00872535
-0.0765938
-0.0531405
-0.0397202
-0.0242648
-0.0260712
-0.020375
-0.022455
-0.0309803
-0.0460338
-0.0661989
-0.0912022
-0.124633
-0.170494
-0.22689
-0.283759
-0.322942
-0.325711
-0.291194
-0.23787
-0.185574
-0.143147
-0.11142
-0.0887208
-0.0732789
-0.0639801
-0.0616143
-0.069597
-0.085275
-0.0984427
-0.0966384
-0.0829964
-0.0678868
-0.0614909
-0.0680416
-0.0922932
-0.139012
-0.202792
-0.25981
-0.278254
-0.245797
-0.183049
-0.121
-0.0775419
-0.0516918
-0.0364031
-0.0226419
-0.0166112
-0.0144747
-0.029176
-0.0529633
-0.0834546
-0.108301
-0.100299
-0.0879114
-0.050114
-0.0109541
0.0157572
0.0354682
0.0129825
-0.00877741
-0.0243402
0.0136102
0.0359272
0.0481141
0.0505307
0.0475677
0.0396698
0.0262407
0.0069413
-0.0177159
-0.0477831
-0.0856047
-0.133197
-0.188263
-0.24275
-0.28094
-0.286112
-0.257977
-0.213114
-0.168102
-0.13027
-0.1007
-0.078548
-0.0625729
-0.0516817
-0.0459229
-0.0479372
-0.0575928
-0.0686253
-0.0701693
-0.0607646
-0.0492205
-0.0450531
-0.0533943
-0.0794278
-0.127794
-0.194252
-0.25506
-0.277371
-0.249259
-0.187261
-0.121939
-0.0750779
-0.0467473
-0.0300064
-0.0138535
-0.00669696
-0.00380177
-0.0215651
-0.0500611
-0.0862313
-0.115357
-0.106741
-0.0930166
-0.0517402
-0.00691647
0.0227373
0.0453774
0.0173474
-0.00862072
-0.0203722
0.026111
0.0640581
0.0869065
0.0963436
0.0950593
0.0875791
0.0736973
0.0532479
0.0256894
-0.00890022
-0.0504428
-0.0986558
-0.151245
-0.201887
-0.237603
-0.244346
-0.222797
-0.186965
-0.149749
-0.11704
-0.0901718
-0.0689663
-0.0528193
-0.0409626
-0.0328665
-0.0303092
-0.0346069
-0.0430257
-0.0479207
-0.0411043
-0.0324013
-0.0295913
-0.0384477
-0.0645892
-0.113168
-0.179886
-0.243389
-0.269801
-0.247045
-0.188304
-0.121921
-0.0724766
-0.0421095
-0.024461
-0.00650707
0.00191942
0.00604553
-0.0138422
-0.0465475
-0.0881859
-0.121611
-0.112327
-0.0971745
-0.053137
-0.00330163
0.0287668
0.0544462
0.021573
-0.00824769
-0.042196
0.00226458
0.0463724
0.0797211
0.101824
0.111238
0.111092
0.102226
0.0849841
0.0583782
0.0227138
-0.0197185
-0.0666118
-0.115638
-0.162073
-0.19447
-0.202466
-0.187582
-0.160745
-0.131293
-0.103859
-0.0800366
-0.0602052
-0.0442408
-0.0318454
-0.0223638
-0.0165737
-0.0163931
-0.0216373
-0.0269132
-0.0239035
-0.0178881
-0.015795
-0.0241118
-0.0490591
-0.0955118
-0.160881
-0.226156
-0.256586
-0.240795
-0.186091
-0.12082
-0.0697575
-0.0377873
-0.0196114
-0.000559951
0.00914442
0.0149165
-0.00584859
-0.0423942
-0.0895118
-0.127077
-0.117792
-0.100331
-0.0542887
-0.00014726
0.0338132
0.062557
0.0256441
-0.00766131
-0.0710636
-0.0312535
0.0116298
0.0493973
0.0787292
0.0973441
0.105494
0.104504
0.0949753
0.0749116
0.0433314
0.00417456
-0.038393
-0.0820134
-0.122127
-0.150862
-0.16051
-0.152762
-0.134895
-0.113127
-0.0910725
-0.070569
-0.052502
-0.0371407
-0.0245934
-0.0143955
-0.00665586
-0.00295199
-0.00474184
-0.00933593
-0.00967807
-0.00592766
-0.0042365
-0.0114035
-0.0339054
-0.0772934
-0.139541
-0.203265
-0.237609
-0.228006
-0.180155
-0.118565
-0.0671237
-0.0339238
-0.0154818
0.00397746
0.0149867
0.022549
0.00200712
-0.0376745
-0.0897712
-0.13154
-0.121639
-0.102371
-0.0552545
0.00241804
0.037843
0.069582
0.0295308
-0.00687162
-0.0932121
-0.0586189
-0.0196763
0.0188738
0.0510216
0.0732463
0.0870805
0.0938945
0.0927229
0.0807128
0.0583278
0.025766
-0.0122537
-0.0507648
-0.0857618
-0.111674
-0.124149
-0.123301
-0.113091
-0.0977871
-0.0804444
-0.063048
-0.0468131
-0.0322427
-0.0197575
-0.009138
-0.000313411
0.00592787
0.00736065
0.00429491
0.00273689
0.00376657
0.00495907
-0.000571522
-0.0194812
-0.0582807
-0.116245
-0.179519
-0.216782
-0.218155
-0.173138
-0.116098
-0.0653707
-0.0309374
-0.0120988
0.00707938
0.0192416
0.0290606
0.0101257
-0.0322347
-0.089539
-0.135209
-0.126087
-0.103396
-0.0558961
0.00438405
0.0407903
0.0754191
0.0332183
-0.00590712
-0.112214
-0.0861692
-0.0562654
-0.0218413
0.00963769
0.0366888
0.0570288
0.070177
0.0754983
0.0732454
0.061689
0.0416397
0.0146649
-0.0154431
-0.0455921
-0.0693144
-0.0833784
-0.0888041
-0.0867491
-0.0787944
-0.0671435
-0.053666
-0.0399034
-0.0266638
-0.0147499
-0.00424151
0.00498383
0.0128648
0.0166068
0.0146374
0.00915268
0.0106264
0.0117723
0.00699045
-0.00863042
-0.0413735
-0.0934869
-0.152761
-0.190395
-0.194391
-0.159799
-0.110134
-0.0624225
-0.0277452
-0.0083785
0.0101644
0.0223088
0.0335632
0.017492
-0.0262864
-0.087749
-0.137289
-0.12676
-0.103169
-0.0552262
0.00654287
0.043069
0.0798794
0.036657
-0.00478803
-0.10608
-0.0883221
-0.0616613
-0.0312171
-0.00303984
0.022389
0.0416927
0.0550498
0.0629858
0.0644283
0.0574014
0.0419629
0.0201371
-0.00493768
-0.0296197
-0.0498029
-0.062683
-0.0685162
-0.0678172
-0.0618244
-0.0524002
-0.0410876
-0.0292348
-0.0175374
-0.00666107
0.00306309
0.0116704
0.0196038
0.0247106
0.0243917
0.019282
0.0171036
0.0177753
0.0153996
0.00443143
-0.0230934
-0.0711848
-0.128817
-0.168626
-0.176744
-0.146281
-0.0993611
-0.0547839
-0.0218575
-0.00346746
0.0139941
0.0262709
0.0393397
0.0256026
-0.0191401
-0.0850457
-0.139153
-0.128486
-0.101118
-0.0530013
0.00927798
0.0452622
0.0833107
0.0397817
-0.00364548
-0.103251
-0.0869831
-0.0618021
-0.034672
-0.00964356
0.0117226
0.0289948
0.0418694
0.049937
0.0520612
0.0474297
0.0362868
0.0200739
0.00111395
-0.0176938
-0.0336113
-0.0444849
-0.0497115
-0.0497984
-0.0455906
-0.0384416
-0.029418
-0.0195488
-0.00948663
0.000168498
0.00911469
0.0171436
0.0244835
0.029365
0.0291146
0.0239275
0.0210938
0.021236
0.0193588
0.0109214
-0.0119149
-0.0541712
-0.108684
-0.147669
-0.155158
-0.129156
-0.0870239
-0.0469701
-0.0163272
0.00097433
0.017324
0.0293332
0.0423161
0.0309268
-0.0137616
-0.0828404
-0.140271
-0.125979
-0.0971005
-0.0501546
0.0117472
0.0468944
0.0851922
0.0422233
-0.00249697
-0.0983537
-0.0839246
-0.0622025
-0.0386281
-0.0168202
0.0020026
0.0175296
0.0293317
0.0369128
0.0397213
0.0374281
0.0302182
0.019042
0.00551491
-0.0083709
-0.0207493
-0.0297085
-0.0345924
-0.0354931
-0.0327766
-0.0273415
-0.0199826
-0.0115787
-0.00275392
0.00590552
0.0140866
0.021445
0.0282536
0.0331438
0.0333056
0.0285822
0.0244506
0.0236686
0.0215177
0.0138139
-0.00619388
-0.043145
-0.0906302
-0.123927
-0.132481
-0.111342
-0.0746352
-0.0392953
-0.0111026
0.00483099
0.0202263
0.0318245
0.0445378
0.0345085
-0.0103552
-0.0813159
-0.139953
-0.122781
-0.0917427
-0.0466234
0.014018
0.0479849
0.0857968
0.0440146
-0.00123683
-0.090486
-0.0799532
-0.0622417
-0.0418079
-0.0225927
-0.00604855
0.00762256
0.0182609
0.0255847
0.0292218
0.0289219
0.0247829
0.0173979
0.00791033
-0.00212745
-0.0115104
-0.0186337
-0.0227851
-0.0237716
-0.0217375
-0.0173789
-0.0113222
-0.0042338
0.00339234
0.0109845
0.0183394
0.024992
0.031027
0.0355009
0.0359435
0.0314266
0.026714
0.0254612
0.0233496
0.0161053
-0.00202728
-0.0328093
-0.0703481
-0.0985987
-0.108641
-0.0922993
-0.0612013
-0.031206
-0.00601712
0.00829678
0.0227948
0.0336227
0.0458492
0.037109
-0.0074146
-0.078698
-0.137637
-0.118189
-0.084918
-0.0420511
0.0162115
0.0484895
0.0850539
0.0452377
0.000180282
-0.0830824
-0.0756953
-0.0611658
-0.0436443
-0.026923
-0.0124624
-0.000418777
0.00921901
0.0162745
0.0204407
0.0215202
0.0195774
0.015051
0.00877681
0.00176911
-0.00484264
-0.0100966
-0.0132522
-0.0140657
-0.0125414
-0.0091026
-0.00413738
0.00183483
0.00846601
0.0151658
0.0217396
0.027744
0.0330855
0.0369774
0.037543
0.0334329
0.0284393
0.0267483
0.0246819
0.017945
0.00247002
-0.0205103
-0.0487148
-0.0730087
-0.0843981
-0.073034
-0.0477048
-0.0231496
-0.00122036
0.0112885
0.0249383
0.034786
0.0460369
0.03893
-0.00389194
-0.0740329
-0.132588
-0.111745
-0.0766331
-0.0365039
0.0182755
0.0483865
0.0828912
0.0459652
0.00174346
-0.0760498
-0.070588
-0.0588245
-0.0441277
-0.0297878
-0.0172127
-0.00660974
0.00205922
0.00870142
0.0131039
0.0151319
0.0148417
0.0125467
0.00881618
0.0043099
-0.000109935
-0.00373078
-0.0059539
-0.00647675
-0.00515756
-0.00225343
0.0019811
0.00709797
0.012858
0.0187123
0.0244593
0.0297653
0.0344615
0.0377576
0.0383312
0.0346826
0.0298564
0.0279092
0.0258416
0.0196186
0.00743948
-0.00801982
-0.0279151
-0.0482113
-0.0609192
-0.0542884
-0.0343821
-0.0150857
0.00332452
0.0138952
0.0266216
0.0353815
0.0450116
0.04002
0.000312839
-0.0669824
-0.123962
-0.103083
-0.0670874
-0.0300286
0.0202407
0.0477051
0.0792837
0.0461495
0.00338646
-0.0683661
-0.0647654
-0.0556037
-0.0434907
-0.031309
-0.0204291
-0.0111323
-0.00339438
0.00276238
0.00721825
0.00988418
0.010793
0.0101551
0.00837004
0.00580621
0.00313172
0.000897383
-0.000395928
-0.000470598
0.000843815
0.00337543
0.00699923
0.011365
0.0163328
0.0214641
0.0264967
0.0311454
0.0352755
0.0380857
0.0385903
0.0356277
0.0312241
0.0292505
0.0269574
0.0211684
0.0115872
0.0028275
-0.0089556
-0.0252973
-0.0391928
-0.0368161
-0.0218822
-0.00732328
0.00755123
0.0161805
0.0278595
0.0355741
0.042906
0.0401713
0.00483208
-0.0572519
-0.110962
-0.0918196
-0.0565971
-0.0228903
0.0220859
0.0464958
0.0741556
0.0456505
0.00502348
-0.060602
-0.0586636
-0.0517094
-0.0418318
-0.0315633
-0.0222182
-0.0141254
-0.00727231
-0.00163494
0.00273116
0.00576847
0.00749196
0.00803492
0.00761975
0.0065903
0.00532872
0.0042694
0.00379727
0.00414152
0.0055014
0.00779316
0.0109832
0.0148016
0.019124
0.0236131
0.0280034
0.0320248
0.0356145
0.0380569
0.0385132
0.0363271
0.032607
0.0307867
0.0288506
0.0236524
0.0163252
0.0131757
0.00760141
-0.00609924
-0.0206196
-0.0213694
-0.0105962
1.90163e-05
0.0114844
0.0182524
0.0287149
0.0355147
0.0402176
0.0393437
0.00954395
-0.0446448
-0.0931705
-0.0777653
-0.0456302
-0.01547
0.0238198
0.044846
0.0679313
0.0443649
0.00658143
-0.0532271
-0.0524547
-0.0472474
-0.0392694
-0.0307011
-0.0227546
-0.0157699
-0.009747
-0.00464562
-0.000481354
0.00271342
0.00494377
0.00628858
0.00688431
0.00696473
0.00678677
0.00664876
0.00685136
0.00759443
0.0090759
0.0112529
0.0141201
0.0174842
0.0212377
0.0251476
0.028989
0.0324786
0.0355871
0.037744
0.0382254
0.0367775
0.0339148
0.0325002
0.0316221
0.0282064
0.0238426
0.0242341
0.0208755
0.00818177
-0.0056445
-0.00816157
-0.000786496
0.00670506
0.0150787
0.0202187
0.0293054
0.0353047
0.0377206
0.0379339
0.0144964
-0.0296194
-0.0711288
-0.061125
-0.0346777
-0.0082305
0.0254304
0.0428651
0.0609422
0.0422921
0.00800938
-0.0462725
-0.0461819
-0.0423362
-0.0359876
-0.0289313
-0.0222404
-0.0162593
-0.0110104
-0.00645102
-0.00257022
0.000623067
0.00312806
0.0049804
0.00626772
0.00712927
0.00774061
0.00831064
0.00906751
0.0101645
0.0117662
0.0138633
0.0164713
0.0194725
0.0227702
0.0261931
0.0295632
0.0326067
0.035302
0.0372331
0.0377955
0.0369868
0.0350321
0.0341733
0.0341534
0.0332688
0.0321122
0.0339198
0.0303633
0.0184219
0.00625483
0.00282232
0.00743847
0.0125637
0.0182762
0.0221499
0.0297956
0.035012
0.0361077
0.0365326
0.0194537
-0.0136908
-0.0468365
-0.0428116
-0.0242363
-0.00158682
0.0269354
0.0407323
0.0536533
0.0395825
0.00926716
-0.0393993
-0.0398876
-0.0372077
-0.0322396
-0.0264747
-0.0208776
-0.0157938
-0.0112613
-0.00723511
-0.00368581
-0.000609381
0.00198929
0.00412407
0.0058424
0.00723008
0.00839916
0.00948803
0.0106563
0.012021
0.013719
0.0157675
0.0181845
0.0208962
0.0238189
0.0268235
0.0297865
0.0324655
0.0348236
0.0365877
0.0372719
0.0370039
0.0359265
0.0356534
0.0364126
0.0372926
0.0378906
0.0396992
0.0361909
0.0257917
0.015496
0.0116292
0.0140715
0.0174326
0.0210438
0.0240176
0.0302639
0.0346885
0.0355449
0.035627
0.0237425
0.000889133
-0.0233964
-0.0243129
-0.0146793
0.00416352
0.0283506
0.0387259
0.0467892
0.0366111
0.0103392
-0.0328381
-0.033851
-0.0320772
-0.0282019
-0.0235065
-0.0188536
-0.0145681
-0.0106905
-0.00717403
-0.00398301
-0.00110924
0.00145093
0.00370157
0.00565934
0.00737001
0.00889749
0.0103306
0.0117803
0.0133387
0.0151099
0.0171179
0.0193782
0.0218449
0.0244586
0.0271152
0.0297352
0.0321187
0.0342139
0.0358549
0.0366806
0.0368419
0.0365009
0.0367049
0.0378315
0.0394091
0.0404935
0.041811
0.039019
0.0307554
0.0222359
0.0183381
0.0192191
0.0212494
0.0234199
0.0257513
0.0307042
0.0343562
0.0356318
0.0351803
0.026576
0.0120585
-0.00396996
-0.00757336
-0.00619809
0.00885225
0.0295798
0.0371583
0.0412673
0.0340511
0.011243
-0.0269175
-0.0281376
-0.0269816
-0.0239788
-0.0201875
-0.0163521
-0.012769
-0.00948012
-0.00644355
-0.00362088
-0.000989526
0.00144465
0.00368587
0.00573102
0.00760114
0.0093278
0.0109677
0.0125935
0.0142716
0.0160763
0.0180324
0.0201566
0.0224168
0.0247755
0.0271453
0.0294765
0.0316173
0.033512
0.0350561
0.0360172
0.0364996
0.0367024
0.0372414
0.0384294
0.0400921
0.0411405
0.0418548
0.0397803
0.0336262
0.0267944
0.0232008
0.0230911
0.0240984
0.0254306
0.027231
0.0310486
0.0339965
0.0356501
0.034601
0.0275668
0.0190325
0.00965558
0.00540406
0.00109989
0.0125699
0.0304443
0.0361516
0.0377591
0.0326633
0.0119978
-0.0213726
-0.0226714
-0.0219993
-0.0197149
-0.0166794
-0.0135366
-0.0105579
-0.00778915
-0.00519563
-0.0027395
-0.000374597
0.00188073
0.00402501
0.00604745
0.00795674
0.00976351
0.0114996
0.0132078
0.0149344
0.0167325
0.0186233
0.0206227
0.0227035
0.0248456
0.0269762
0.0290667
0.0310046
0.032742
0.0342041
0.0352739
0.0359784
0.0365278
0.0372704
0.0383669
0.0398339
0.0406957
0.0409387
0.0393686
0.0349536
0.0296731
0.0265553
0.0259039
0.0261671
0.0270612
0.0283954
0.0312309
0.0335654
0.0352682
0.0341606
0.0281481
0.0231281
0.0176887
0.0133426
0.00722117
0.0155557
0.0307459
0.0355457
0.0360465
0.0323866
0.0124909
-0.0161884
-0.0175548
-0.0172449
-0.0155181
-0.0130942
-0.0105297
-0.00806845
-0.00575664
-0.00355954
-0.00143108
0.000642813
0.00267715
0.00466431
0.00658931
0.00845147
0.0102472
0.0119909
0.0137059
0.0154227
0.0171787
0.0189872
0.0208635
0.0227824
0.0247357
0.0266648
0.0285526
0.0303156
0.0319243
0.0333093
0.0344415
0.0352878
0.0360276
0.036865
0.0378239
0.0390057
0.0396657
0.0396332
0.0384
0.0352847
0.0313417
0.0287569
0.027855
0.0276479
0.0282833
0.029231
0.0312621
0.0330394
0.0345651
0.033711
0.0289583
0.0258619
0.022296
0.018343
0.01223
0.0178424
0.03028
0.0346986
0.0347241
0.0316865
0.0123927
-0.0114696
-0.0128103
-0.012738
-0.0114431
-0.00951964
-0.00744176
-0.00542504
-0.00351215
-0.00167064
0.00014007
0.00194506
0.00374872
0.00554761
0.00732709
0.00908165
0.0108007
0.0124873
0.014152
0.015812
0.0174935
0.0192025
0.0209528
0.0227212
0.0245056
0.0262581
0.027972
0.0295805
0.0310752
0.0323838
0.0335292
0.0344513
0.0352749
0.0361265
0.0369538
0.0378642
0.0383519
0.0381981
0.0372122
0.035018
0.0321468
0.0301136
0.0291085
0.0286716
0.0290967
0.0297541
0.0311592
0.0324268
0.0336927
0.0331363
0.0295544
0.0274298
0.0249564
0.0212781
0.0160282
0.0195186
0.0291675
0.0331263
0.0325991
0.0292561
0.0115401
-0.00713667
-0.00840829
-0.00850408
-0.00755057
-0.00603506
-0.00436228
-0.00272062
-0.00114843
0.000381367
0.00190535
0.00345185
0.00502454
0.0066204
0.00822641
0.00983543
0.0114342
0.0130183
0.0145901
0.0161571
0.0177376
0.0193319
0.020952
0.0225753
0.024204
0.025797
0.0273562
0.0288252
0.0302109
0.0314428
0.0325593
0.0335042
0.0343426
0.0351609
0.0358783
0.0365728
0.0369305
0.0367508
0.0359698
0.0344089
0.0323045
0.0303795
0.029776
0.0293133
0.0295472
0.0299812
0.0309243
0.0317514
0.0327121
0.0323654
0.0296325
0.0279232
0.0262514
0.0229259
0.0186084
0.0205809
0.0276148
0.0308276
0.0295631
0.0254748
0.0101917
-0.00317867
-0.00436637
-0.00457154
-0.00387897
-0.00269128
-0.00135183
-2.39004e-05
0.00125796
0.00251662
0.00378566
0.0050922
0.00644161
0.00783173
0.00925169
0.0106943
0.0121459
0.0135978
0.0150474
0.0164961
0.0179558
0.0194234
0.0209086
0.0223894
0.0238705
0.0253158
0.0267325
0.0280722
0.0293482
0.0305006
0.031561
0.0324881
0.0333023
0.0340635
0.0346923
0.0352327
0.0355029
0.035347
0.034747
0.0336335
0.0321387
0.0307475
0.0301017
0.0296376
0.0297
0.0299448
0.0305579
0.0310341
0.0316544
0.031431
0.0293027
0.0277424
0.0265464
0.0237109
0.0202016
0.0210879
0.0259021
0.0281809
0.0263413
0.021555
0.00870579
0.000411024
-0.000670235
-0.000937165
-0.000444303
0.000478902
0.00154352
0.00260835
0.00364337
0.00466861
0.00571372
0.00680295
0.00794421
0.0091356
0.0103682
0.0116362
0.0129268
0.0142297
0.0155394
0.0168534
0.0181794
0.0195117
0.0208584
0.0221982
0.0235372
0.0248425
0.0261239
0.0273407
0.0285063
0.0295746
0.0305621
0.0314439
0.0322131
0.0329089
0.0334672
0.0339047
0.034123
0.0340124
0.0335692
0.032778
0.0317297
0.0307136
0.0301233
0.0296842
0.0296144
0.0296988
0.0300687
0.0302852
0.0305503
0.0303737
0.0287166
0.0272235
0.0262063
0.0238874
0.0210556
0.0211389
0.0241585
0.0254544
0.0231934
0.0180351
0.00728579
0.00366989
0.00269969
0.00239989
0.00273925
0.00344895
0.00428688
0.00513168
0.00595865
0.0067858
0.00763594
0.00853331
0.00948465
0.0104906
0.011543
0.0126376
0.0137634
0.0149107
0.016072
0.0172429
0.018428
0.0196206
0.020827
0.0220274
0.0232277
0.0243986
0.02555
0.0266482
0.0277031
0.0286818
0.0295876
0.0304068
0.0311201
0.0317512
0.0322525
0.0326249
0.0328168
0.0327555
0.0324437
0.0318885
0.0311562
0.03041
0.0299005
0.0294955
0.0293397
0.0292988
0.0294716
0.0295069
0.0294875
0.0292553
0.0279678
0.0265357
0.025526
0.023652
0.0213442
0.0208337
0.0224403
0.0228668
0.020278
0.0150627
0.00602681
0.00661533
0.00575454
0.00544333
0.00566618
0.00620405
0.00685629
0.00751992
0.00817321
0.00883314
0.00951878
0.0102466
0.0110261
0.0118616
0.0127462
0.0136753
0.01464
0.015632
0.0166436
0.0176695
0.0187119
0.019764
0.0208308
0.0218941
0.0229592
0.0240001
0.0250256
0.0260083
0.0269543
0.0278396
0.0286594
0.0294067
0.0300596
0.0306295
0.0310832
0.0314135
0.0315939
0.0315784
0.0313728
0.0309886
0.0304756
0.0299221
0.0294802
0.0291176
0.0289159
0.0287849
0.0287901
0.0286923
0.028475
0.0281311
0.027108
0.0257591
0.0246911
0.0231364
0.0212085
0.0202716
0.0207796
0.020483
0.017681
0.0126276
0.00496628
0.00926444
0.00851054
0.00820372
0.00833951
0.00874038
0.00924076
0.00975476
0.0102627
0.0107797
0.0113248
0.0119086
0.0125382
0.0132196
0.0139507
0.0147267
0.0155393
0.0163821
0.0172481
0.0181317
0.019034
0.0199483
0.0208784
0.0218085
0.0227423
0.023658
0.0245617
0.025432
0.0262709
0.0270614
0.0277951
0.0284668
0.0290573
0.0295694
0.0299812
0.030281
0.0304569
0.0304788
0.0303549
0.0300929
0.0297313
0.0293181
0.0289521
0.0286273
0.0283825
0.0281793
0.0280497
0.0278467
0.0275045
0.0270382
0.0261738
0.024929
0.023798
0.0224319
0.0207601
0.0195294
0.0192035
0.0183388
0.0154384
0.0106659
0.0041053
0.011641
0.0109885
0.0106962
0.0107668
0.0110578
0.0114334
0.0118232
0.012211
0.0126085
0.0130331
0.0134961
0.0139985
0.0145429
0.0151342
0.0157707
0.016444
0.0171475
0.0178758
0.0186238
0.0193919
0.020174
0.0209726
0.0217748
0.0225825
0.0233782
0.0241645
0.0249257
0.0256609
0.026358
0.027007
0.0276008
0.0281289
0.028586
0.0289588
0.0292326
0.0294047
0.029453
0.0293879
0.0292116
0.0289527
0.0286405
0.0283289
0.0280334
0.0277619
0.0275106
0.0272761
0.0269793
0.0265612
0.0259952
0.0251989
0.02406
0.022889
0.0216058
0.020093
0.0186713
0.0177397
0.0164512
0.0135441
0.00910016
0.00342284
0.0137679
0.0132074
0.0129344
0.0129559
0.0131586
0.0134329
0.0137207
0.0140093
0.014308
0.0146298
0.0149858
0.0153786
0.0158103
0.0162794
0.0167898
0.017337
0.0179139
0.0185153
0.019137
0.0197792
0.0204369
0.0211113
0.0217925
0.0224803
0.0231616
0.0238364
0.0244931
0.0251289
0.0257343
0.0263004
0.0268208
0.0272853
0.0276876
0.028021
0.0282692
0.0284344
0.0284985
0.0284712
0.028353
0.0281607
0.0279173
0.0276438
0.0273679
0.0270792
0.026788
0.0264822
0.026106
0.0256343
0.0250026
0.0242149
0.0231607
0.0219794
0.0207115
0.0192861
0.0177534
0.0164018
0.0148074
0.0119584
0.00785587
0.00288963
0.0156611
0.0151833
0.0149326
0.0149182
0.015051
0.0152429
0.0154475
0.0156542
0.0158708
0.0161082
0.0163742
0.0166727
0.0170055
0.0173726
0.0177723
0.0182055
0.018668
0.0191546
0.0196612
0.0201876
0.0207302
0.0212892
0.0218573
0.022433
0.0230066
0.0235763
0.0241333
0.0246745
0.0251912
0.0256755
0.0261245
0.0265279
0.0268767
0.0271694
0.0273903
0.0275426
0.0276123
0.027605
0.027523
0.0273712
0.027171
0.0269236
0.0266567
0.0263575
0.026032
0.0256764
0.0252402
0.0247214
0.0240518
0.023247
0.0222421
0.0210751
0.0197929
0.0184015
0.0168159
0.0151904
0.0133864
0.0106366
0.00686778
0.00247586
0.0173393
0.0169351
0.0167077
0.0166672
0.016744
0.0168691
0.0170054
0.017145
0.0172941
0.0174611
0.0176524
0.0178704
0.0181173
0.0183943
0.0187026
0.0190383
0.019399
0.0197825
0.0201855
0.0206072
0.021045
0.0214986
0.0219626
0.0224348
0.022908
0.0233797
0.0238431
0.0242958
0.0247292
0.0251394
0.0255148
0.0258565
0.0261523
0.0264024
0.0265931
0.026726
0.0267917
0.0267907
0.0267268
0.0265972
0.0264199
0.0261886
0.0259231
0.0256155
0.0252629
0.0248682
0.0243894
0.023828
0.0231346
0.0223105