/*--------------------------------*- C++ -*----------------------------------*\
| =========                 |                                                 |
| \\      /  F ield         | OpenFOAM: The Open Source CFD Toolbox           |
|  \\    /   O peration     | Version:  2512                                  |
|   \\  /    A nd           | Website:  www.openfoam.com                      |
|    \\/     M anipulation  |                                                 |
\*---------------------------------------------------------------------------*/
FoamFile
{
    version     2.0;
    format      ascii;
    arch        "LSB;label=32;scalar=64";
    class       volVectorField;
    location    "111";
    object      U;
}
// * * * * * * * * * * * * * * * * * * * * * * * * * * * * * * * * * * * * * //

dimensions      [0 1 -1 0 0 0 0];

internalField   nonuniform List<vector> 
13248
(
(-0.0142774 0.0155086 7.10526e-20)
(-0.0198743 0.0314495 0)
(-0.00136741 0.0359884 -1.23488e-19)
(0.0385607 0.0304229 1.14339e-19)
(0.0996144 0.0176417 1.06018e-19)
(0.182813 8.85591e-05 0)
(0.288802 -0.0203199 0)
(0.415995 -0.0419508 2.54437e-19)
(0.559019 -0.063328 -1.03363e-21)
(0.708637 -0.0831837 -2.17026e-19)
(0.853372 -0.100605 1.94752e-19)
(0.982045 -0.115094 -1.20829e-19)
(1.08613 -0.126483 0)
(1.16115 -0.134796 -1.79337e-19)
(1.20698 -0.140147 3.21637e-19)
(1.2271 -0.142676 -7.67037e-20)
(1.22727 -0.142481 -1.11395e-19)
(1.2139 -0.139843 1.03862e-19)
(1.19315 -0.134554 0)
(1.16925 -0.127662 0)
(1.14608 -0.117629 0)
(1.12382 -0.107955 0)
(1.1061 -0.0944838 1.83875e-20)
(1.08631 -0.0839583 5.07215e-20)
(-0.0119086 0.0106774 -2.13448e-19)
(-0.0107601 0.0189414 1.34314e-19)
(0.018042 0.0185044 -4.10968e-22)
(0.0738521 0.0104138 -1.72099e-19)
(0.157579 -0.00277751 -1.05872e-19)
(0.2699 -0.0184934 -9.79488e-20)
(0.408662 -0.0345346 -1.81072e-19)
(0.566738 -0.04923 1.66906e-19)
(0.732012 -0.0616184 0)
(0.889921 -0.0715117 1.87259e-21)
(1.02709 -0.0793125 1.90128e-21)
(1.13431 -0.0856382 1.15988e-19)
(1.20789 -0.0909724 0)
(1.24949 -0.0954885 0)
(1.26463 -0.0990597 1.09643e-19)
(1.26078 -0.101356 -2.04173e-19)
(1.24531 -0.102061 1.07109e-19)
(1.22435 -0.100874 -9.98668e-20)
(1.20187 -0.0977153 -3.95961e-20)
(1.1803 -0.0927434 -6.33921e-20)
(1.1606 -0.0855323 -2.1223e-20)
(1.14263 -0.0782025 -3.73436e-20)
(1.12783 -0.0666009 6.23049e-20)
(1.11028 -0.0613844 1.56548e-20)
(-0.00965959 0.00710918 0)
(0.0014893 0.00820814 0)
(0.0462496 0.0027948 6.17988e-20)
(0.125358 -0.00746293 5.67805e-20)
(0.239801 -0.0197083 -5.29504e-22)
(0.387267 -0.0311525 -9.79709e-20)
(0.558887 -0.0398496 0)
(0.739111 -0.0451449 -8.31566e-20)
(0.909558 -0.0476676 7.45342e-20)
(1.05432 -0.0488111 -2.0183e-21)
(1.16371 -0.0499939 -1.22389e-19)
(1.23543 -0.0520899 -1.05936e-19)
(1.2734 -0.0552361 5.57385e-21)
(1.28536 -0.0589773 -7.55149e-20)
(1.28012 -0.0625645 1.88217e-19)
(1.26533 -0.0652905 0)
(1.24649 -0.0666229 -1.03432e-19)
(1.22669 -0.0663581 5.10363e-20)
(1.2074 -0.0644086 3.95542e-20)
(1.18913 -0.0610325 0)
(1.1719 -0.056151 2.7828e-20)
(1.15601 -0.0507416 -8.8345e-20)
(1.14105 -0.0436401 8.24995e-20)
(1.12646 -0.03978 4.39689e-20)
(-0.00659889 0.004229 -7.26606e-20)
(0.0192528 -0.000939178 -6.89847e-20)
(0.087231 -0.0100999 6.26705e-20)
(0.197989 -0.0206812 0)
(0.349764 -0.0293211 0)
(0.532827 -0.0335088 -1.04306e-22)
(0.72812 -0.0327576 0)
(0.912544 -0.0285873 -2.41669e-19)
(1.06682 -0.0235125 2.19721e-19)
(1.18051 -0.0197986 -2.66897e-19)
(1.25274 -0.0186615 6.0016e-20)
(1.28973 -0.0201332 0)
(1.30114 -0.0234189 8.89196e-20)
(1.29658 -0.0274216 -1.60317e-19)
(1.28353 -0.0311815 3.80302e-20)
(1.26674 -0.0340593 8.66694e-20)
(1.24866 -0.0357614 -8.30764e-21)
(1.2304 -0.0362185 -9.20357e-20)
(1.2125 -0.0354468 0)
(1.19524 -0.0337104 0)
(1.17914 -0.0306224 -2.75478e-20)
(1.164 -0.0277385 2.34062e-20)
(1.15086 -0.0221476 7.50456e-20)
(1.13732 -0.0212839 -7.00688e-20)
(-0.00149896 0.00143218 -7.44618e-20)
(0.0451618 -0.00897326 -6.93984e-20)
(0.144219 -0.0196676 1.9224e-19)
(0.293749 -0.0274738 -1.16318e-19)
(0.484578 -0.0290649 1.07745e-19)
(0.695024 -0.0235966 1.94562e-19)
(0.896282 -0.0134034 -1.34113e-19)
(1.06402 -0.00232426 -1.56749e-19)
(1.18588 0.00635216 5.43982e-21)
(1.2619 0.0110022 1.96278e-19)
(1.30032 0.0116811 0)
(1.3125 0.00947873 4.9249e-20)
(1.30884 0.00576179 0)
(1.29683 0.00165687 -7.44916e-20)
(1.28098 -0.00211646 1.03544e-19)
(1.26363 -0.00518941 1.0475e-21)
(1.24598 -0.00740872 -2.47577e-20)
(1.22868 -0.00870252 4.40553e-20)
(1.21211 -0.00912166 3.68562e-20)
(1.19665 -0.00858987 -3.16727e-20)
(1.18226 -0.00732835 2.75344e-20)
(1.16925 -0.00556906 -2.33947e-20)
(1.15712 -0.00239938 0)
(1.14549 -0.00279032 -1.68061e-20)
(0.00683458 -0.00157557 7.44431e-20)
(0.0815241 -0.0159286 7.1313e-20)
(0.219031 -0.0251053 -6.4218e-20)
(0.410942 -0.0262177 1.17514e-19)
(0.635111 -0.0176317 -1.08849e-19)
(0.856772 -0.00204822 9.66218e-20)
(1.04396 0.0151228 -4.53221e-20)
(1.18 0.0291666 1.1792e-19)
(1.26454 0.0378019 -7.19723e-20)
(1.30747 0.0410651 1.21631e-19)
(1.32195 0.0403073 -2.74318e-19)
(1.31954 0.037171 9.78994e-20)
(1.30835 0.0329859 -8.22159e-20)
(1.29319 0.0286151 7.65373e-20)
(1.27657 0.0245478 6.24538e-20)
(1.25974 0.0210424 5.21932e-20)
(1.24332 0.0182396 -1.43668e-19)
(1.22756 0.0161734 8.75894e-20)
(1.21262 0.0148787 -3.68495e-20)
(1.19848 0.0142389 9.18707e-20)
(1.18525 0.014276 -2.95889e-20)
(1.1728 0.0146454 -6.70975e-20)
(1.16124 0.0160417 6.09026e-20)
(1.15018 0.0147593 1.68005e-20)
(0.0193963 -0.00464376 0)
(0.129953 -0.0209912 3.00794e-22)
(0.311516 -0.0248073 1.31013e-19)
(0.543837 -0.0152612 -1.21042e-19)
(0.788123 0.00493897 -1.07413e-19)
(1.00198 0.0286552 1.9592e-19)
(1.16028 0.0490328 -8.93753e-20)
(1.25975 0.0625922 1.15353e-19)
(1.31115 0.0691238 -3.51998e-21)
(1.32975 0.0702293 -6.2392e-20)
(1.32905 0.067925 1.31564e-19)
(1.31848 0.0638641 -1.8993e-19)
(1.30359 0.0591407 0)
(1.28726 0.0543905 -3.50782e-20)
(1.27078 0.0499533 -9.0831e-20)
(1.25467 0.0460008 2.8561e-20)
(1.23912 0.0425983 1.60441e-21)
(1.22421 0.0397765 -5.63862e-20)
(1.20999 0.0375007 5.37133e-21)
(1.19659 0.0357859 6.34795e-20)
(1.18402 0.0345237 -2.66005e-20)
(1.17239 0.0337553 -9.46066e-21)
(1.16155 0.0334745 3.06069e-20)
(1.15131 0.0315911 0)
(0.0369196 -0.00724829 0)
(0.191027 -0.0225588 3.58798e-20)
(0.418978 -0.0166103 -1.68093e-19)
(0.683205 0.00641418 6.01607e-20)
(0.930358 0.037174 -5.57252e-20)
(1.12101 0.0654601 -4.9003e-20)
(1.24424 0.0855334 -8.48622e-20)
(1.30995 0.0964552 4.20938e-20)
(1.33572 0.10003 3.60489e-20)
(1.33792 0.0988089 0)
(1.32821 0.0949615 7.64745e-20)
(1.31344 0.0899366 -1.10669e-19)
(1.29707 0.0845641 8.16359e-20)
(1.28056 0.0792711 3.5093e-20)
(1.26446 0.0742659 -2.75193e-20)
(1.24894 0.0696491 -2.20085e-20)
(1.23408 0.0654803 -1.99015e-20)
(1.21996 0.061784 6.0952e-20)
(1.20666 0.058588 0)
(1.19417 0.0558596 2.84726e-20)
(1.1825 0.0536036 2.25852e-20)
(1.17154 0.0517736 -5.70543e-20)
(1.16117 0.0501216 -3.67218e-20)
(1.15142 0.0480355 3.40227e-20)
(0.0598141 -0.00861912 -4.0373e-20)
(0.263928 -0.0186066 -8.73292e-22)
(0.535984 0.00138493 3.39391e-20)
(0.818531 0.0385205 9.19881e-20)
(1.05259 0.0767774 2.5462e-20)
(1.2116 0.105902 -4.88541e-20)
(1.30046 0.123161 4.42715e-20)
(1.3385 0.130338 -3.80393e-20)
(1.34593 0.130702 6.58585e-20)
(1.33779 0.127211 2.74423e-20)
(1.32306 0.121879 -7.65195e-20)
(1.30626 0.115843 2.22488e-20)
(1.28927 0.109672 3.69229e-20)
(1.27278 0.103636 -1.81004e-20)
(1.25699 0.0978761 0)
(1.24195 0.0924769 2.56398e-20)
(1.2277 0.0874873 4.2217e-20)
(1.21424 0.0829372 6.54105e-21)
(1.20156 0.0788229 -3.41585e-20)
(1.18965 0.0751424 1.39396e-20)
(1.17842 0.0718745 0)
(1.16783 0.0689584 -1.04256e-20)
(1.15783 0.0661881 -9.33704e-21)
(1.14835 0.0638021 0)
(0.08804 -0.00785849 0)
(0.346204 -0.00717056 1.94616e-20)
(0.655164 0.0300504 3.53535e-20)
(0.940953 0.0796234 -9.25567e-20)
(1.15083 0.121524 2.91321e-20)
(1.27603 0.148417 0)
(1.33483 0.1613 4.12105e-20)
(1.35181 0.16427 -5.65179e-20)
(1.3469 0.161455 -3.25586e-20)
(1.33254 0.155785 1.46258e-20)
(1.31511 0.148933 -2.23207e-20)
(1.29732 0.14172 5.40706e-20)
(1.28015 0.134528 2.65439e-20)
(1.26385 0.127538 -1.84838e-20)
(1.24843 0.12085 -1.92802e-21)
(1.23388 0.114525 -4.82878e-20)
(1.22017 0.108599 2.17126e-20)
(1.20729 0.103093 -4.35263e-22)
(1.19522 0.0980186 0)
(1.18393 0.0933778 -1.39533e-20)
(1.17333 0.0891645 0)
(1.16334 0.0852825 3.01146e-20)
(1.15385 0.0816592 -3.53496e-20)
(1.14483 0.0789402 1.58487e-20)
(0.121006 -0.00404645 -1.07124e-20)
(0.433888 0.0132173 -4.8557e-20)
(0.768867 0.0690304 5.39495e-20)
(1.04483 0.127826 3.08352e-20)
(1.22481 0.169701 -1.47407e-20)
(1.31807 0.19214 2.33522e-20)
(1.35239 0.199801 -1.13469e-20)
(1.35418 0.198472 1.82889e-20)
(1.3413 0.192577 0)
(1.32334 0.184739 3.98709e-20)
(1.30452 0.176248 -1.6618e-21)
(1.28634 0.167676 -3.13967e-20)
(1.26921 0.159269 1.32732e-20)
(1.25313 0.151146 -1.47407e-20)
(1.23806 0.143374 -5.48395e-21)
(1.22395 0.136 6.3415e-21)
(1.21074 0.129055 -4.82627e-21)
(1.19843 0.12256 -2.55282e-20)
(1.18696 0.116522 1.55437e-20)
(1.17624 0.110944 3.13596e-21)
(1.16615 0.105791 2.71368e-21)
(1.1566 0.100966 2.3468e-21)
(1.14752 0.0965842 0)
(1.13882 0.0932499 0)
(0.157626 0.00365702 1.07254e-20)
(0.522134 0.0432694 -9.96505e-21)
(0.870806 0.117114 -1.79131e-20)
(1.12752 0.181326 0)
(1.2761 0.220131 -7.19104e-21)
(1.34134 0.236637 -6.1689e-21)
(1.35673 0.238679 -1.03318e-20)
(1.34802 0.23308 0)
(1.33022 0.224144 0)
(1.3103 0.214052 0)
(1.29087 0.203747 0)
(1.27264 0.193603 0)
(1.2557 0.183772 -8.3201e-21)
(1.23997 0.174331 3.75234e-21)
(1.22535 0.165327 6.43735e-21)
(1.21176 0.156791 2.9677e-21)
(1.19914 0.148738 7.26686e-21)
(1.18744 0.14118 0)
(1.17658 0.134119 -1.69239e-21)
(1.16649 0.127551 -1.56192e-21)
(1.15703 0.121434 -2.71793e-21)
(1.14813 0.115709 -2.35047e-21)
(1.13971 0.110613 0)
(1.13172 0.106502 1.63179e-21)
(-0.00187683 -0.0365731 6.45339e-21)
(-0.0110509 -0.119345 -6.15804e-21)
(-0.031241 -0.188861 -1.14315e-20)
(-0.0579812 -0.239357 0)
(-0.0879093 -0.277033 -1.47813e-20)
(-0.118545 -0.310719 4.52738e-21)
(-0.148265 -0.34602 -8.68171e-21)
(-0.176158 -0.384481 0)
(-0.201592 -0.425246 0)
(-0.223886 -0.466552 0)
(-0.242217 -0.506335 0)
(-0.255652 -0.542362 0)
(-0.263222 -0.57227 2.99388e-23)
(-0.263998 -0.593674 -5.8626e-21)
(-0.257199 -0.604311 1.1391e-20)
(-0.242284 -0.602221 1.64354e-20)
(-0.219048 -0.585926 5.15581e-21)
(-0.187693 -0.554562 0)
(-0.148899 -0.507995 4.92197e-21)
(-0.103784 -0.446689 -1.34812e-20)
(-0.0538795 -0.371851 -8.41035e-21)
(-8.82275e-05 -0.284917 -7.92509e-21)
(0.055307 -0.187699 0)
(0.11152 -0.0809492 0)
(-0.00214258 -0.0246647 -1.95392e-20)
(-0.0123375 -0.0931951 3.088e-20)
(-0.0360906 -0.153612 -1.16997e-20)
(-0.0667019 -0.198627 -2.16222e-20)
(-0.100178 -0.233701 2.9923e-20)
(-0.134159 -0.26684 -1.89319e-20)
(-0.167336 -0.302892 2.62354e-20)
(-0.199102 -0.343041 1.70284e-20)
(-0.22905 -0.386472 0)
(-0.256663 -0.431666 -1.4785e-20)
(-0.281259 -0.476824 -5.26774e-22)
(-0.302022 -0.519917 1.28334e-20)
(-0.318068 -0.558697 1.90808e-20)
(-0.328495 -0.590776 2.41572e-20)
(-0.332465 -0.613744 -1.10169e-20)
(-0.32928 -0.62532 -3.21434e-20)
(-0.318459 -0.623514 1.00512e-20)
(-0.299835 -0.606781 -3.75196e-20)
(-0.273649 -0.574158 0)
(-0.240605 -0.52535 8.88049e-21)
(-0.201785 -0.460807 8.40151e-21)
(-0.158504 -0.381549 7.91672e-21)
(-0.112119 -0.28924 0)
(-0.0649371 -0.185112 0)
(-0.00385662 -0.00947291 0)
(-0.0153166 -0.0609571 6.46341e-20)
(-0.040729 -0.112051 -2.38664e-20)
(-0.072552 -0.152228 2.20723e-20)
(-0.106669 -0.185062 -6.29166e-20)
(-0.140917 -0.217313 0)
(-0.174222 -0.253179 -3.71831e-20)
(-0.206186 -0.293744 1.75052e-20)
(-0.236578 -0.338423 -3.37236e-20)
(-0.265065 -0.386026 1.66767e-20)
(-0.291178 -0.43507 8.9069e-20)
(-0.31435 -0.483783 -4.13238e-20)
(-0.333953 -0.530105 -6.48951e-20)
(-0.349335 -0.571745 -2.48123e-20)
(-0.359851 -0.60628 6.04051e-23)
(-0.364889 -0.631278 8.40539e-20)
(-0.363902 -0.644424 -3.9044e-20)
(-0.356471 -0.643649 1.15441e-21)
(-0.342431 -0.627264 0)
(-0.321989 -0.594119 -2.80411e-20)
(-0.295613 -0.543752 0)
(-0.263612 -0.476316 -2.66336e-20)
(-0.226581 -0.392141 8.98522e-20)
(-0.190116 -0.292828 -1.2605e-21)
(-0.00703082 0.00677213 0)
(-0.0198833 -0.0264542 1.01897e-21)
(-0.0448388 -0.0682026 2.53722e-20)
(-0.0751295 -0.103923 -2.39667e-20)
(-0.106971 -0.134626 2.07497e-20)
(-0.138368 -0.165569 1.24004e-19)
(-0.168325 -0.200365 -3.83486e-20)
(-0.196483 -0.240095 -3.74913e-20)
(-0.222666 -0.284405 6.91626e-20)
(-0.246649 -0.33238 -9.75478e-20)
(-0.268153 -0.382803 3.10685e-20)
(-0.286909 -0.434153 2.95612e-20)
(-0.302697 -0.484612 0)
(-0.315368 -0.532116 2.46205e-20)
(-0.324832 -0.574444 0)
(-0.331016 -0.609316 4.17625e-20)
(-0.33378 -0.634485 -7.3638e-20)
(-0.332879 -0.647799 2.05102e-20)
(-0.328048 -0.647251 6.10524e-20)
(-0.319117 -0.631038 2.80194e-20)
(-0.305774 -0.597634 0)
(-0.286689 -0.54591 -6.00672e-20)
(-0.261034 -0.475489 2.09374e-20)
(-0.235506 -0.389237 0)
(-0.011264 0.0217813 0)
(-0.0255534 0.00663625 -8.28427e-20)
(-0.0480824 -0.0256291 -2.66503e-20)
(-0.0742679 -0.0569407 -4.87818e-20)
(-0.101121 -0.0854484 4.52034e-20)
(-0.126779 -0.114755 -4.195e-20)
(-0.150202 -0.147943 8.19391e-20)
(-0.170928 -0.186152 3.89483e-20)
(-0.188712 -0.229241 -1.07459e-19)
(-0.203312 -0.276479 6.91097e-20)
(-0.214519 -0.326758 -9.59987e-20)
(-0.222234 -0.378614 2.13339e-19)
(-0.226548 -0.430252 -1.12381e-19)
(-0.227791 -0.479641 5.23304e-20)
(-0.226533 -0.52466 1.3883e-19)
(-0.223518 -0.563253 -4.57492e-20)
(-0.219499 -0.593545 -4.12985e-20)
(-0.215053 -0.613902 -3.49613e-20)
(-0.210471 -0.622883 0)
(-0.205761 -0.619021 -4.28502e-20)
(-0.200572 -0.600596 -2.97897e-20)
(-0.192236 -0.565815 5.18059e-20)
(-0.179376 -0.513718 4.77581e-20)
(-0.158387 -0.446686 -4.06138e-20)
(-0.0157671 0.0335942 0)
(-0.0313073 0.0349851 -1.16673e-19)
(-0.0499216 0.0122504 -1.9485e-21)
(-0.0699869 -0.0143198 1.0033e-19)
(-0.0894496 -0.040301 0)
(-0.106724 -0.067697 0)
(-0.120725 -0.0989082 0)
(-0.130792 -0.135091 -4.02145e-20)
(-0.136529 -0.176329 -1.37686e-21)
(-0.137644 -0.222051 7.13585e-20)
(-0.133945 -0.271216 -9.96999e-20)
(-0.125454 -0.322322 1.00465e-22)
(-0.112477 -0.373457 0)
(-0.0956998 -0.422379 -5.23001e-20)
(-0.0761932 -0.46675 4.56781e-20)
(-0.0553363 -0.504347 -1.28594e-19)
(-0.0346351 -0.533331 1.41983e-19)
(-0.0155171 -0.552471 1.98506e-20)
(0.000875095 -0.561144 -1.38455e-20)
(0.014024 -0.558947 -8.77945e-20)
(0.0225301 -0.545754 -2.94515e-20)
(0.0308217 -0.52048 7.51753e-20)
(0.0305912 -0.483475 -4.22158e-20)
(0.0611306 -0.42786 0)
(-0.0197252 0.0409065 6.37858e-20)
(-0.0361992 0.0560283 5.875e-20)
(-0.0497061 0.0426367 -5.67431e-20)
(-0.0620366 0.02121 -1.05543e-19)
(-0.0723951 -0.00200856 9.77963e-20)
(-0.0792704 -0.0273062 -9.40427e-20)
(-0.0813877 -0.056368 1.3194e-19)
(-0.0780228 -0.0903006 -4.06523e-20)
(-0.0686581 -0.129326 7.8314e-20)
(-0.0529362 -0.173016 0)
(-0.0307308 -0.220388 7.12539e-20)
(-0.00230944 -0.26987 -1.31875e-19)
(0.031724 -0.319532 1.18212e-19)
(0.0701791 -0.366892 -1.10035e-19)
(0.111391 -0.409358 0)
(0.153359 -0.444411 8.3991e-20)
(0.193962 -0.470003 1.35134e-19)
(0.231298 -0.484766 -1.26487e-19)
(0.263934 -0.48813 -4.69381e-20)
(0.292077 -0.479871 -3.06331e-20)
(0.311147 -0.462207 9.18367e-20)
(0.333745 -0.432866 1.11614e-20)
(0.328799 -0.401165 -1.59881e-20)
(0.373923 -0.345885 5.90153e-21)
(-0.0223632 0.0433179 -6.3801e-20)
(-0.039286 0.0684104 1.86686e-19)
(-0.0472757 0.0636367 -5.80617e-20)
(-0.0510061 0.0474477 1.08772e-19)
(-0.0508928 0.0271444 -1.00786e-19)
(-0.0458413 0.00392912 1.39804e-24)
(-0.0344817 -0.0231624 4.50594e-20)
(-0.0158223 -0.0549411 1.74849e-19)
(0.0107261 -0.091691 2.54374e-21)
(0.045495 -0.133089 -7.49995e-20)
(0.0885395 -0.17813 0)
(0.139135 -0.225314 -6.57617e-20)
(0.196012 -0.272489 1.22316e-19)
(0.257314 -0.317032 1.06512e-19)
(0.32038 -0.356251 -5.12777e-20)
(0.382362 -0.387596 -6.11116e-22)
(0.440473 -0.409043 -3.55368e-20)
(0.492447 -0.419301 5.70114e-20)
(0.53664 -0.418134 4.69277e-20)
(0.574248 -0.40521 -3.62276e-20)
(0.59905 -0.383613 2.58813e-20)
(0.630601 -0.349453 -1.81473e-20)
(0.627767 -0.315186 0)
(0.681298 -0.260663 -5.89446e-21)
(-0.0232232 0.0412837 6.67712e-20)
(-0.0399079 0.0719614 -6.26411e-20)
(-0.0425288 0.0743499 5.95842e-20)
(-0.037621 0.0631627 0)
(-0.0265952 0.0457303 0)
(-0.00877415 0.0242534 9.99385e-20)
(0.017111 -0.00131073 -9.14156e-20)
(0.0522093 -0.031405 8.8986e-20)
(0.0971942 -0.0662546 -4.10002e-19)
(0.152338 -0.105486 -3.27935e-22)
(0.217323 -0.148054 7.15501e-20)
(0.290931 -0.192324 0)
(0.370768 -0.235913 -1.18592e-19)
(0.453518 -0.276247 2.15622e-19)
(0.535143 -0.310653 -1.45905e-19)
(0.611638 -0.336827 -1.96947e-19)
(0.679625 -0.353094 1.58668e-20)
(0.736688 -0.35868 1.18813e-19)
(0.782087 -0.353705 0)
(0.816456 -0.338628 0)
(0.83831 -0.315529 -2.58859e-20)
(0.859879 -0.283959 1.81509e-20)
(0.857872 -0.250011 -4.10712e-20)
(0.890344 -0.205573 3.83241e-20)
(-0.0222871 0.0359814 0)
(-0.0378548 0.0677804 0)
(-0.0355426 0.0750329 -1.80369e-19)
(-0.0224446 0.0679449 5.53299e-20)
(-0.000593302 0.05298 -1.24859e-21)
(0.0303793 0.0328551 9.86537e-20)
(0.0716141 0.00835671 0)
(0.124345 -0.0205452 -8.71741e-20)
(0.18934 -0.0537775 8.21195e-20)
(0.266626 -0.090734 -1.52759e-19)
(0.355057 -0.130168 4.72519e-22)
(0.451935 -0.170199 1.29262e-19)
(0.552971 -0.208481 -4.10048e-21)
(0.652773 -0.242544 9.70338e-20)
(0.745722 -0.270122 -1.45698e-19)
(0.826986 -0.289513 0)
(0.893221 -0.299739 1.25291e-19)
(0.942841 -0.300728 -1.72249e-19)
(0.976856 -0.292997 4.34702e-20)
(0.995542 -0.277594 0)
(1.00442 -0.256265 2.67733e-20)
(1.00406 -0.229361 6.99782e-20)
(0.996267 -0.200577 -6.53461e-20)
(0.998455 -0.166012 -4.41096e-20)
(-0.0199998 0.0289648 2.07645e-19)
(-0.0334657 0.0579268 -2.62955e-19)
(-0.0265496 0.0671106 -4.18627e-22)
(-0.00565327 0.0624955 5.6621e-20)
(0.027131 0.0491716 -1.0586e-19)
(0.072073 0.0300868 -9.89284e-20)
(0.1304 0.00645687 1.86568e-19)
(0.203323 -0.0212646 2.20291e-21)
(0.291342 -0.0524881 -1.62176e-19)
(0.393398 -0.0862052 3.02306e-19)
(0.506264 -0.120875 -5.37431e-23)
(0.624469 -0.154536 -1.28981e-19)
(0.740959 -0.185093 0)
(0.848334 -0.210648 0)
(0.940245 -0.229743 -4.53635e-20)
(1.01247 -0.241576 -7.43109e-20)
(1.06328 -0.245974 -1.20972e-19)
(1.09373 -0.243384 1.12782e-19)
(1.10619 -0.234696 -4.35117e-20)
(1.10491 -0.220758 6.36635e-20)
(1.0943 -0.203471 -3.65405e-20)
(1.07711 -0.181943 2.96404e-20)
(1.05878 -0.16134 -8.74374e-20)
(1.04212 -0.134257 1.07051e-20)
(-0.0170934 0.0217602 6.98328e-20)
(-0.0273548 0.0449945 0)
(-0.0155316 0.053098 1.22969e-19)
(0.0136108 0.0489412 -1.1386e-19)
(0.0586655 0.0363776 1.05994e-19)
(0.120154 0.0180915 0)
(0.199336 -0.00446895 0)
(0.296981 -0.0301734 -8.59263e-20)
(0.411944 -0.0578663 7.87283e-23)
(0.540154 -0.0861517 7.37447e-20)
(0.674519 -0.113437 -6.5597e-20)
(0.805972 -0.138161 1.25252e-19)
(0.925245 -0.159024 0)
(1.0247 -0.175134 1.88858e-19)
(1.09967 -0.186016 -3.38754e-19)
(1.14886 -0.191676 2.2615e-19)
(1.17423 -0.192318 1.16223e-19)
(1.1798 -0.188662 -1.0836e-19)
(1.1709 -0.181035 0)
(1.15286 -0.170541 0)
(1.13016 -0.157493 0)
(1.10636 -0.141802 0)
(1.08436 -0.127564 1.64749e-20)
(1.0664 -0.104155 -4.77084e-20)
(0.169982 0.045565 -5.02085e-21)
(0.241512 0.219507 5.02853e-21)
(0.308362 0.401042 -1.30835e-22)
(0.373728 0.579291 0)
(0.434643 0.724858 -2.99237e-21)
(0.4864 0.814077 5.29393e-21)
(0.524287 0.848652 -3.95025e-22)
(0.547286 0.843791 -1.86843e-21)
(0.565401 0.809403 0)
(0.578303 0.769088 0)
(0.571403 0.758729 -8.66926e-23)
(0.5454 0.77591 -9.28675e-23)
(0.527467 0.757587 -1.91723e-21)
(0.547822 0.633019 1.76024e-21)
(0.604396 0.391598 0)
(0.674616 0.0761076 0)
(0.743767 -0.245551 2.00223e-21)
(0.798152 -0.498471 -3.09041e-22)
(0.83339 -0.638495 -1.49904e-21)
(0.851948 -0.682562 -6.72697e-23)
(0.852878 -0.679688 0)
(0.84634 -0.653688 0)
(0.841862 -0.623158 0)
(0.825162 -0.627466 0)
(0.785924 -0.673266 0)
(0.732636 -0.693297 0)
(0.682707 -0.603072 3.67194e-22)
(0.650707 -0.376168 -5.68367e-22)
(0.643402 -0.0689308 0)
(0.659932 0.221497 0)
(0.695973 0.416494 -3.30298e-22)
(0.742676 0.513063 3.20938e-22)
(0.783594 0.555069 1.02875e-22)
(0.795738 0.584141 0)
(0.769286 0.613934 0)
(0.712932 0.601886 2.14763e-22)
(0.657309 0.503102 -2.08735e-22)
(0.626411 0.286972 0)
(0.624875 0.0194054 2.52491e-22)
(0.65785 -0.222759 -3.66532e-22)
(0.706403 -0.363267 9.052e-23)
(0.729136 -0.439301 0)
(0.701514 -0.488976 -1.02449e-22)
(0.652736 -0.477793 9.96178e-23)
(0.626932 -0.395107 0)
(0.628498 -0.191473 0)
(0.65581 0.00289712 -4.3387e-23)
(0.676389 0.220065 1.15912e-22)
(0.673759 0.375721 0)
(0.656922 0.430925 0)
(0.6551 0.417075 -3.12536e-23)
(0.655674 0.19314 -6.86929e-24)
(0.658051 -0.0143288 -2.85587e-24)
(0.64444 -0.255818 2.62378e-23)
(0.629462 -0.43342 0)
(0.617004 -0.334375 0)
(0.62033 -0.213959 0)
(0.582476 0.129745 0)
(0.573756 0.347346 0)
(0.548652 0.125793 0)
(-0.0170844 -0.0585978 -4.00567e-22)
(0.0650019 0.123917 -1.65152e-20)
(0.132459 0.305817 1.48147e-21)
(0.209143 0.487572 1.40741e-20)
(0.285581 0.6393 1.55852e-22)
(0.358393 0.7449 0)
(0.421191 0.800858 -6.71402e-21)
(0.474467 0.81151 1.25293e-20)
(0.521276 0.788996 -5.81911e-21)
(0.551683 0.765708 5.51393e-21)
(0.555689 0.772251 -5.26766e-21)
(0.546241 0.790803 6.38189e-21)
(0.557182 0.753493 -6.17818e-21)
(0.608955 0.606404 -2.41959e-22)
(0.685818 0.352823 -9.21296e-21)
(0.767048 0.0332619 8.94672e-21)
(0.840464 -0.287386 -8.23229e-21)
(0.88919 -0.532487 7.76304e-21)
(0.908666 -0.660535 -5.24519e-21)
(0.908791 -0.690541 8.95862e-21)
(0.893231 -0.676684 -3.77235e-21)
(0.869949 -0.647141 -1.60654e-22)
(0.851911 -0.613198 -2.17381e-21)
(0.826005 -0.607477 4.22459e-21)
(0.777436 -0.642747 -2.05259e-21)
(0.713736 -0.660259 1.38557e-22)
(0.653865 -0.57715 3.34402e-21)
(0.611944 -0.363926 5.74114e-22)
(0.598977 -0.0746786 -7.02891e-21)
(0.616775 0.199711 6.42604e-21)
(0.661347 0.387763 -2.91983e-21)
(0.720152 0.487615 2.34934e-22)
(0.773191 0.541123 -1.03095e-22)
(0.795874 0.58616 1.6893e-22)
(0.779084 0.630116 0)
(0.733426 0.625075 0)
(0.68778 0.523783 -1.15664e-21)
(0.664095 0.297938 8.0088e-22)
(0.660943 0.0166295 8.22406e-22)
(0.68475 -0.2372 -8.38327e-23)
(0.72447 -0.378278 -9.74249e-22)
(0.745947 -0.43981 1.41575e-22)
(0.714988 -0.47733 0)
(0.661133 -0.465762 0)
(0.633014 -0.391746 0)
(0.63212 -0.196354 0)
(0.656414 -0.00502405 1.34392e-22)
(0.672061 0.217037 -7.37898e-23)
(0.672279 0.377028 0)
(0.65769 0.433334 0)
(0.659165 0.417814 0)
(0.662944 0.194248 -7.08211e-23)
(0.665607 -0.013853 -2.9161e-24)
(0.652145 -0.251181 -5.15519e-23)
(0.631344 -0.431488 0)
(0.614721 -0.332575 0)
(0.618161 -0.211668 1.26133e-23)
(0.584298 0.133929 1.11495e-24)
(0.582644 0.349743 0)
(0.550123 0.129889 0)
(-0.16651 -0.169248 -5.94011e-22)
(-0.0728454 0.0122735 -2.71218e-20)
(-0.003703 0.186479 2.31754e-20)
(0.0794035 0.375322 -2.1735e-20)
(0.164275 0.531266 -1.56999e-22)
(0.253336 0.650991 0)
(0.338321 0.724026 -1.13063e-20)
(0.417099 0.751614 1.10174e-20)
(0.483026 0.749383 8.09546e-23)
(0.523454 0.749625 1.38204e-22)
(0.537063 0.771341 1.48654e-22)
(0.547106 0.785012 1.82575e-22)
(0.588485 0.728304 -1.44213e-20)
(0.667955 0.568518 1.42468e-20)
(0.761526 0.316795 0)
(0.852562 0.00312896 5.58368e-22)
(0.930639 -0.310302 -1.64155e-20)
(0.975426 -0.544446 1.6174e-20)
(0.980842 -0.661817 0)
(0.963385 -0.683419 0)
(0.933507 -0.663832 -6.09755e-21)
(0.895754 -0.634097 1.07614e-20)
(0.864459 -0.59869 -8.62894e-21)
(0.831436 -0.582871 2.48267e-22)
(0.777149 -0.607712 7.53867e-21)
(0.7038 -0.626265 -8.56817e-21)
(0.634124 -0.554809 9.64459e-21)
(0.583546 -0.357227 4.69708e-22)
(0.564766 -0.0858867 -5.941e-21)
(0.582868 0.172483 0)
(0.634306 0.353433 0)
(0.70296 0.456479 1.18386e-21)
(0.767153 0.521316 -1.57705e-21)
(0.800481 0.582432 -1.16031e-23)
(0.794773 0.642687 1.6137e-21)
(0.761323 0.647536 -1.56801e-21)
(0.726 0.545597 0)
(0.710172 0.312909 3.24639e-22)
(0.706434 0.0216186 2.86835e-21)
(0.719805 -0.243675 -5.06973e-21)
(0.74795 -0.389379 1.94771e-21)
(0.767145 -0.438865 1.54218e-22)
(0.734151 -0.464623 -9.69416e-22)
(0.67428 -0.453647 7.40819e-22)
(0.6424 -0.389491 1.35581e-22)
(0.638686 -0.202208 1.17546e-22)
(0.660467 -0.0128979 -1.34751e-22)
(0.671833 0.213087 0)
(0.675115 0.377828 0)
(0.661923 0.43508 -5.0777e-22)
(0.665883 0.418557 2.61092e-22)
(0.672867 0.196041 -3.43109e-22)
(0.676549 -0.0126799 4.45585e-22)
(0.66348 -0.244802 4.74112e-22)
(0.637308 -0.428681 -1.02176e-22)
(0.615858 -0.330785 9.21156e-23)
(0.619563 -0.210172 -3.68778e-23)
(0.589964 0.136097 -3.26905e-23)
(0.595217 0.352738 0)
(0.555312 0.13503 0)
(-0.237885 -0.280179 -3.92169e-20)
(-0.158692 -0.112255 2.89143e-21)
(-0.0921186 0.059736 3.4047e-20)
(-0.00287146 0.242139 -2.80467e-22)
(0.0795114 0.40202 0)
(0.17937 0.53272 0)
(0.277874 0.622341 -1.6678e-20)
(0.369249 0.672108 2.81386e-22)
(0.441586 0.696949 2.33191e-20)
(0.486159 0.72184 6.99346e-22)
(0.510481 0.75326 -8.51323e-21)
(0.544288 0.756319 -1.08691e-20)
(0.617304 0.682883 1.08306e-20)
(0.720413 0.521778 0)
(0.8264 0.283073 -1.72646e-20)
(0.928355 -0.0193033 1.56716e-20)
(1.01469 -0.32358 0)
(1.05764 -0.545563 0)
(1.0508 -0.65175 1.00141e-20)
(1.01613 -0.667047 -2.22162e-21)
(0.97292 -0.643561 -7.0837e-21)
(0.923892 -0.614995 -4.62751e-21)
(0.880416 -0.58159 4.57676e-21)
(0.840138 -0.55762 -3.44788e-21)
(0.783137 -0.569537 1.30299e-23)
(0.703568 -0.58675 3.23845e-21)
(0.624477 -0.529884 5.01638e-22)
(0.565656 -0.353007 6.99239e-23)
(0.541283 -0.101293 0)
(0.558195 0.140862 4.31847e-21)
(0.614097 0.313919 -4.41026e-21)
(0.690076 0.419218 2.04894e-22)
(0.763974 0.495539 0)
(0.80909 0.572796 -1.59353e-22)
(0.815681 0.648379 3.26234e-21)
(0.793858 0.663596 -7.02124e-21)
(0.768889 0.564572 -1.84274e-21)
(0.76179 0.329894 -6.95983e-22)
(0.759422 0.0323537 5.02893e-21)
(0.762884 -0.243221 5.97776e-22)
(0.77715 -0.397227 -3.05173e-21)
(0.791847 -0.437637 2.66745e-21)
(0.758088 -0.450969 3.92428e-24)
(0.691798 -0.440177 5.653e-22)
(0.654591 -0.387238 -6.85645e-22)
(0.647738 -0.209116 -6.90299e-22)
(0.667779 -0.0214423 2.28703e-22)
(0.675553 0.207543 3.56438e-22)
(0.681813 0.378122 -7.76507e-22)
(0.669365 0.436678 6.58125e-22)
(0.67494 0.419649 -3.62821e-22)
(0.685126 0.198583 3.06219e-22)
(0.690672 -0.0111055 3.68656e-22)
(0.678303 -0.237081 -7.84568e-22)
(0.647392 -0.424844 5.64102e-23)
(0.620401 -0.328885 -6.23883e-23)
(0.62438 -0.209427 0)
(0.59915 0.136365 1.13085e-23)
(0.611185 0.356137 -2.56443e-23)
(0.56427 0.141121 0)
(-0.192632 -0.360497 2.30891e-20)
(-0.16416 -0.225095 -4.33095e-20)
(-0.128233 -0.0602727 2.00814e-20)
(-0.0546883 0.101476 1.51527e-20)
(0.0219422 0.264795 -2.77867e-20)
(0.116733 0.402679 1.64284e-21)
(0.216317 0.509222 1.08258e-20)
(0.308914 0.583448 1.04455e-20)
(0.382777 0.636113 -1.02429e-20)
(0.434047 0.682141 0)
(0.475749 0.717369 -1.56115e-20)
(0.539019 0.707333 3.4048e-20)
(0.642585 0.622969 -1.83991e-20)
(0.764208 0.469316 0)
(0.882572 0.247803 0)
(0.998915 -0.038556 5.33569e-22)
(1.09336 -0.326806 -2.99194e-20)
(1.13243 -0.531378 2.90452e-20)
(1.11399 -0.625907 0)
(1.06453 -0.638829 1.4801e-20)
(1.00986 -0.615619 -2.46993e-20)
(0.952718 -0.589587 1.88428e-20)
(0.90002 -0.560913 -1.50986e-20)
(0.853526 -0.532517 7.5895e-22)
(0.795489 -0.531959 1.12502e-20)
(0.712935 -0.546291 -5.46417e-21)
(0.625591 -0.504307 -2.23739e-22)
(0.558389 -0.350895 -3.6762e-21)
(0.528411 -0.120456 -1.47716e-22)
(0.542515 0.105222 3.86135e-21)
(0.599804 0.270326 2.1812e-22)
(0.680173 0.376921 -2.33539e-21)
(0.762814 0.462318 4.44741e-21)
(0.819828 0.55392 -2.36476e-21)
(0.838938 0.647318 0)
(0.830751 0.677337 -4.83667e-21)
(0.816606 0.584946 4.87021e-21)
(0.817129 0.35094 -5.49697e-21)
(0.817335 0.0495981 6.84474e-21)
(0.812417 -0.234383 -6.73536e-22)
(0.811724 -0.39981 0)
(0.819328 -0.435324 -3.15754e-22)
(0.785957 -0.436521 6.07845e-22)
(0.713339 -0.425185 0)
(0.669282 -0.384496 9.33648e-22)
(0.658781 -0.217181 -4.08797e-22)
(0.677935 -0.030981 1.53784e-22)
(0.683018 0.200437 8.8857e-23)
(0.692308 0.377416 0)
(0.680125 0.437531 0)
(0.686155 0.420716 -1.04781e-21)
(0.699426 0.201569 1.88665e-21)
(0.70779 -0.009293 -1.11332e-21)
(0.696435 -0.228044 4.3834e-22)
(0.66149 -0.419818 4.73429e-22)
(0.628265 -0.326844 6.24552e-23)
(0.632372 -0.209312 8.09951e-23)
(0.611484 0.134736 0)
(0.630244 0.359697 3.98829e-23)
(0.576986 0.148064 -5.48836e-23)
(-0.00340649 -0.369462 9.35033e-21)
(-0.0500429 -0.28185 -9.21561e-21)
(-0.0660023 -0.151913 9.78508e-23)
(-0.0377732 -0.0107946 1.27605e-23)
(0.00784528 0.137211 6.84408e-23)
(0.0755819 0.275087 -5.57474e-23)
(0.159026 0.393454 -1.69585e-23)
(0.243604 0.487749 0)
(0.318332 0.562981 -3.40142e-23)
(0.381056 0.624459 7.16073e-23)
(0.446444 0.659629 1.1552e-22)
(0.541815 0.638391 -2.33864e-22)
(0.671273 0.551125 0)
(0.805646 0.411786 0)
(0.935408 0.210451 3.89465e-22)
(1.06602 -0.0563707 0)
(1.1664 -0.323562 -4.26333e-22)
(1.1995 -0.508341 0)
(1.17015 -0.591272 -1.72451e-20)
(1.10851 -0.60361 3.02634e-20)
(1.0442 -0.583198 -2.28141e-20)
(0.981376 -0.559579 9.80802e-21)
(0.921471 -0.536643 6.05599e-21)
(0.869562 -0.508541 -5.87855e-21)
(0.812699 -0.496542 -4.5745e-21)
(0.731161 -0.504364 4.44081e-21)
(0.637909 -0.475934 0)
(0.561888 -0.348354 1.43362e-22)
(0.525548 -0.141259 0)
(0.534966 0.0677313 0)
(0.590387 0.224029 4.18408e-21)
(0.672408 0.329337 -4.31803e-21)
(0.761885 0.422083 1.84452e-22)
(0.830985 0.527719 2.51465e-22)
(0.864166 0.636661 -2.80392e-22)
(0.868326 0.681709 -4.3252e-21)
(0.86304 0.60077 4.19883e-21)
(0.871528 0.372458 -7.20488e-21)
(0.876738 0.0717028 6.24312e-21)
(0.866293 -0.218013 1.37825e-21)
(0.851109 -0.396897 -3.33685e-21)
(0.848838 -0.432175 7.97438e-22)
(0.816652 -0.421654 1.64897e-21)
(0.738474 -0.408193 0)
(0.686206 -0.380477 -3.56191e-22)
(0.671317 -0.226137 2.40662e-22)
(0.690616 -0.04179 -3.60774e-22)
(0.693956 0.190793 -8.94531e-23)
(0.706018 0.375556 0)
(0.693797 0.438875 3.54622e-22)
(0.699218 0.422618 -5.54417e-22)
(0.715472 0.205019 2.9384e-23)
(0.727748 -0.00740639 -4.24328e-22)
(0.717648 -0.21793 5.59036e-22)
(0.679385 -0.4135 -5.02808e-22)
(0.639328 -0.324551 0)
(0.643262 -0.209732 -8.10428e-23)
(0.626507 0.131208 0)