/*--------------------------------*- C++ -*----------------------------------*\
| =========                 |                                                 |
| \\      /  F ield         | OpenFOAM: The Open Source CFD Toolbox           |
|  \\    /   O peration     | Version:  2312                                  |
|   \\  /    A nd           | Website:  www.openfoam.com                      |
|    \\/     M anipulation  |                                                 |
\*---------------------------------------------------------------------------*/
FoamFile
{
    version     2.0;
    format      ascii;
    arch        "LSB;label=32;scalar=64";
    class       volScalarField;
    location    "8";
    object      p;
}
// * * * * * * * * * * * * * * * * * * * * * * * * * * * * * * * * * * * * * //

dimensions      [0 2 -2 0 0 0 0];

internalField   nonuniform List<scalar> 
940
(
-0.425334
-0.379725
-0.399823
-0.396631
-0.340258
-0.240569
-0.404699
-0.369408
-0.339122
-0.302733
-0.253543
-0.197167
-0.411359
-0.327647
-0.280616
-0.22086
-0.182232
-0.133399
-0.317352
-0.406255
-0.488939
-0.489484
-0.408983
-0.240312
-0.494924
-0.532484
-0.605951
-0.636759
-0.547195
-0.355824
-0.434701
-0.415968
-0.500099
-0.536632
-0.486324
-0.339987
-0.0961417
-0.00426128
0.0522394
0.0669618
0.0587676
0.0446867
0.0326811
0.0241771
0.0180779
0.0144037
0.0117423
0.00974685
0.00818665
0.00648873
0.00471692
0.0020702
-0.204963
-0.0863248
0.00502761
0.0449658
0.0516789
0.0436894
0.0334116
0.0248926
0.0183212
0.0151956
0.0124852
0.0103889
0.00867314
0.00687332
0.00492405
0.00203353
-0.241196
-0.149987
-0.0713832
-0.0132597
0.0162533
0.0269776
0.027535
0.0244005
0.0213062
0.0167539
0.0135488
0.0111679
0.00921592
0.00731062
0.00518028
0.00209988
-0.183373
-0.144641
-0.0779967
-0.0274603
0.00160367
0.0163788
0.0216599
0.021648
0.0197899
0.0167154
0.0139083
0.0116119
0.00963927
0.00764041
0.00540425
0.002267
-0.123477
-0.104058
-0.0587287
-0.0210502
0.00200819
0.01363
0.0184351
0.0195036
0.0187558
0.0171378
0.0141573
0.0119486
0.00997777
0.00789632
0.00557594
0.00236662
-0.0831552
-0.0815308
-0.057317
-0.0302467
-0.00844036
0.00507797
0.0122702
0.0156825
0.0166317
0.0150879
0.0138228
0.0119782
0.0100923
0.00804335
0.00564645
0.00239858
-0.0420593
-0.0439755
-0.0326325
-0.0159329
-0.00102426
0.00874764
0.0133068
0.0156499
0.0168602
0.0166733
0.0149199
0.0129645
0.0110248
0.00876364
0.00626704
0.0026247
-0.0173384
-0.0232268
-0.020777
-0.0131528
-0.00382248
0.00440072
0.00896566
0.0116672
0.0136397
0.0143019
0.0132856
0.0120076
0.0102568
0.0082096
0.00560614
0.00233547
0.00803368
0.00323046
0.00250183
0.00419613
0.00827209
0.0130939
0.0153498
0.0160285
0.0167448
0.016389
0.0160604
0.0144698
0.0125126
0.0101839
0.00736109
0.0030934
0.0180161
0.0126717
0.0103988
0.0100678
0.0116006
0.0139292
0.0144072
0.0140234
0.0142631
0.0143127
0.0133704
0.0121614
0.0102865
0.00827124
0.00547632
0.00206819
0.0365968
0.0322833
0.0294484
0.026732
0.0250165
0.0250729
0.0243043
0.0224184
0.021063
0.0203712
0.0184901
0.0166259
0.0139271
0.0118642
0.00813491
0.00321023
0.0394294
0.0356387
0.0326167
0.0295862
0.0275073
0.0266745
0.0247465
0.0219008
0.01965
0.0178032
0.0157198
0.0139001
0.0110788
0.00938271
0.00553776
0.00214233
0.0506857
0.0468158
0.0430701
0.0391732
0.036094
0.0342535
0.0316632
0.0281929
0.0248221
0.0226668
0.0193639
0.018111
0.0132233
0.0129208
0.00695773
0.00278493
-0.0982723
-0.138913
-0.15813
-0.068562
-0.0827178
-0.1013
-0.0407718
-0.0466088
-0.0630124
-0.0182263
-0.0228887
-0.0308534
0.000679274
-0.00244786
-0.00658282
0.0170292
0.0149495
0.0137718
0.0282693
0.0258108
0.0241931
0.0426082
0.0408185
0.0402407
0.0478039
0.0440878
0.0425383
0.0583804
0.0552602
0.0536634
0.0663365
0.0648146
0.0571905
0.0271508
0.00712734
-0.182644
0.00407199
-0.0195264
-0.0388135
-0.108775
-0.145746
-0.400037
-0.0712106
-0.111852
-0.140236
-0.216587
-0.267029
-0.456704
0.210796
0.251283
0.30363
0.367879
0.437435
0.495097
0.189449
0.219953
0.260135
0.305213
0.345719
0.3543
0.128018
0.146054
0.168176
0.184039
0.192663
0.106526
0.044863
0.046747
0.0520051
0.0560761
0.0723963
0.0758718
0.102269
0.11698
0.144524
0.176574
0.051291
0.0520541
0.0572447
0.0597606
0.0744121
0.0787328
0.099848
0.114782
0.140878
0.165162
0.0574836
0.0570266
0.061611
0.0641367
0.0778108
0.0854525
0.103482
0.115907
0.130995
0.132041
0.0630945
0.0616463
0.0656648
0.0671102
0.077279
0.084662
0.0930299
0.100541
0.0951221
0.0877781
0.0687739
0.0660288
0.0689856
0.0702056
0.0756562
0.0831473
0.0822342
0.0876327
0.0787214
0.0677793
0.0758346
0.0713015
0.0730188
0.0705027
0.0750952
0.0789844
0.0742065
0.0736241
0.0639248
0.050363
0.0846403
0.0781281
0.078256
0.0755258
0.0745945
0.0760972
0.0683504
0.0623002
0.0546797
0.0436236
0.0960405
0.0856517
0.083049
0.0756398
0.0738204
0.0724941
0.0624913
0.0557193
0.0490359
0.039863
0.111148
0.0979375
0.0924899
0.0831243
0.0774657
0.0737786
0.0636196
0.0559148
0.0502749
0.043613
0.130281
0.107382
0.0975773
0.0855926
0.0786716
0.074002
0.0638857
0.0567791
0.0525343
0.0477948
0.1678
0.133753
0.116506
0.100946
0.0906739
0.0836342
0.073788
0.0665866
0.0624082
0.0583341
0.194872
0.142043
0.121191
0.105923
0.0944523
0.0867303
0.0778248
0.0705785
0.0665536
0.0635654
0.344024
0.19111
0.158696
0.133463
0.115506
0.103288
0.092425
0.0840347
0.0788816
0.0749702
0.0604421
0.00322876
-0.0589368
0.0455878
-0.00192508
-0.0434524
0.0332627
0.00405553
-0.0234956
0.0284563
0.0081188
-0.00696097
0.0273049
0.0142119
0.00707091
0.0337704
0.0248783
0.0211594
0.0402339
0.0340929
0.0317369
0.0521926
0.0468716
0.0450978
0.0587213
0.0537721
0.0514797
0.0700255
0.0650835
0.0619891
-0.427098
-0.415618
-0.418928
-0.376756
-0.378583
-0.346233
-0.412377
-0.352695
-0.300043
-0.417972
-0.322841
-0.243223
-0.366032
-0.276504
-0.204782
-0.26215
-0.221462
-0.158811
-0.321826
-0.499082
-0.447859
-0.409595
-0.534809
-0.428526
-0.495685
-0.612191
-0.514884
-0.503949
-0.651532
-0.559874
-0.420553
-0.574551
-0.51696
-0.248884
-0.372729
-0.360978
-0.10546
-0.221948
-0.260386
-0.00777483
-0.100324
-0.165879
0.0497635
-0.00397194
-0.08415
0.0638948
0.0359551
-0.0254963
0.0554187
0.0425739
0.00360008
0.0412926
0.0361472
0.0153163
0.0299926
0.0273885
0.0177624
0.0221568
0.0202244
0.016058
0.0166264
0.0150222
0.0132547
0.0131598
0.0117974
0.0107368
0.010785
0.0097525
0.00894595
0.00899429
0.00823699
0.00757257
0.00764539
0.00713847
0.00664118
0.00607843
0.0057119
0.00534066
0.00449494
0.00432242
0.00411632
0.00211941
0.00215969
0.00209549
-0.205145
-0.14356
-0.106163
-0.0726868
-0.0502449
-0.0405589
-0.0298835
-0.033294
-0.0271966
-0.0328081
-0.162741
-0.122489
-0.101975
-0.0720333
-0.0518676
-0.0410449
-0.0285483
-0.0317775
-0.0254133
-0.0306982
-0.0933857
-0.0767578
-0.0779629
-0.0604726
-0.0486484
-0.0399176
-0.0277082
-0.0306767
-0.0240029
-0.0285979
-0.0415166
-0.038252
-0.0494817
-0.0416744
-0.038426
-0.034018
-0.0252197
-0.0279169
-0.0219034
-0.0260882
-0.0124745
-0.0157454
-0.0273374
-0.0258427
-0.0277493
-0.0273292
-0.022395
-0.025301
-0.0203629
-0.02435
0.00285071
-0.00339682
-0.0136306
-0.016315
-0.0202845
-0.0227175
-0.020015
-0.0237816
-0.0194273
-0.0232915
0.00961002
0.00366352
-0.00411932
-0.0091413
-0.0132954
-0.017648
-0.0159487
-0.0210486
-0.0170167
-0.0211099
0.0111142
0.00677298
0.00152098
-0.00332272
-0.00684823
-0.0122372
-0.0113055
-0.0172575
-0.0137382
-0.0180821
0.0102366
0.00731092
0.00383351
-0.000232369
-0.0027848
-0.00827236
-0.00766325
-0.0138866
-0.0108102
-0.0150305
0.00882239
0.00687507
0.00457431
0.00134961
-0.000335759
-0.00545142
-0.00475653
-0.0110716
-0.00822039
-0.012552
0.00768842
0.00639445
0.00486392
0.00243292
0.00146679
-0.00303
-0.00202004
-0.00808349
-0.00522639
-0.00914926
0.0067341
0.00586703
0.00483287
0.0030345
0.00259387
-0.0012742
5.53979e-05
-0.00579639
-0.00291543
-0.0074082
0.00605248
0.00546619
0.0047637
0.0034572
0.00344813
0.000241751
0.00202274
-0.00296422
0.000147498
-0.00283821
0.00497372
0.00460216
0.00412748
0.00323861
0.00339991
0.000711247
0.00261873
-0.00226603
0.000960036
-0.00305791
0.00391665
0.00370177
0.00343063
0.00286561
0.00339978
0.00125878
0.00354535
0.000275302
0.00298758
0.00184552
0.00199777
0.00190806
0.00179255
0.00164676
0.0018475
0.000971429
0.00233712
0.000535621
0.00282774
0.001227
-0.124831
-0.0977908
-0.0730818
-0.0561814
-0.0427607
-0.0358773
-0.030074
-0.0323779
-0.0300289
-0.0352598
-0.164714
-0.111517
-0.0785215
-0.0591615
-0.0441738
-0.0369187
-0.0302524
-0.0328354
-0.0287355
-0.034409
-0.178215
-0.126789
-0.0930533
-0.0662724
-0.0470683
-0.0394619
-0.0313053
-0.0343021
-0.0287421
-0.0344143
0.0301875
-0.0326046
-0.10338
0.0269561
-0.0575932
-0.14094
0.0194572
-0.0752367
-0.171517
-0.0201006
-0.153812
-0.245369
-0.0396951
-0.18883
-0.296804
-0.250824
-0.446747
-0.474458
0.203208
0.168885
0.0982526
0.243617
0.197757
0.115045
0.295778
0.235834
0.133592
0.358595
0.276878
0.143002
0.425235
0.310968
0.145308
0.477253
0.306523
0.0346283
0.0382617
0.0315817
0.0248681
0.0412038
0.0356906
0.0303682
0.0466978
0.0404282
0.0354844
0.0519791
0.0475697
0.0452392
0.0686124
0.0616502
0.056766
0.0712081
0.0649513
0.0626328
0.0978211
0.0879052
0.083784
0.11116
0.100127
0.0890419
0.139243
0.125641
0.106043
0.170118
0.147225
0.103732
0.0187225
0.0124824
0.0045469
-0.00546852
-0.0185094
-0.0354021
-0.0565077
-0.0940291
-0.11752
-0.254031
0.0250806
0.0199695
0.0132289
0.00414107
-0.00646489
-0.0228893
-0.037321
-0.0668584
-0.0806384
-0.123851
0.0297299
0.0239073
0.0182627
0.00264132
-0.00274747
-0.0212718
-0.0308433
-0.0561108
-0.0668687
-0.102481
0.0405927
0.035699
0.0290019
0.0196283
0.00887282
-0.00655026
-0.0204926
-0.0420042
-0.0547258
-0.0802252
0.0493948
0.0402521
0.0313322
0.0193162
0.0074297
-0.00696751
-0.0193055
-0.0371739
-0.0471489
-0.0657304
0.0540328
0.0462042
0.0354338
0.0215912
0.00745021
-0.00779037
-0.0200948
-0.0351461
-0.043348
-0.0573069
0.0679813
0.0515372
0.0365975
0.0218208
0.00765808
-0.00661506
-0.0175697
-0.0312459
-0.0386883
-0.0505222
0.0710722
0.0519077
0.0333488
0.0152091
0.00222261
-0.0102276
-0.0186778
-0.0303972
-0.0358777
-0.0462675
0.0667844
0.0427771
0.0239124
0.00603985
-0.00532225
-0.0159812
-0.0221148
-0.0315929
-0.035423
-0.0442142
0.0556005
0.0323624
0.0127501
-0.0023175
-0.0112842
-0.019756
-0.0239332
-0.0315943
-0.0348528
-0.0423232
0.0261311
0.0102155
-0.00112019
-0.0113029
-0.0163654
-0.0218441
-0.0236396
-0.03011
-0.0327171
-0.0396611
-0.0292302
-0.0370744
-0.0313589
-0.0317831
-0.0277764
-0.0277318
-0.0261333
-0.0307574
-0.0315033
-0.0378998
-0.0886522
-0.0771727
-0.0589559
-0.0490981
-0.0389355
-0.0345722
-0.0302358
-0.0327499
-0.0317895
-0.0370401
)
;

boundaryField
{
    outlet
    {
        type            fixedValue;
        value           uniform 0;
    }
    upperWall
    {
        type            symmetryPlane;
    }
    lowerWall
    {
        type            symmetryPlane;
    }
    inlet
    {
        type            zeroGradient;
    }
    cylinder
    {
        type            zeroGradient;
    }
    frontAndBack
    {
        type            empty;
    }
}


// ************************************************************************* //
