/*--------------------------------*- C++ -*----------------------------------*\
| =========                 |                                                 |
| \\      /  F ield         | OpenFOAM: The Open Source CFD Toolbox           |
|  \\    /   O peration     | Version:  2312                                  |
|   \\  /    A nd           | Website:  www.openfoam.com                      |
|    \\/     M anipulation  |                                                 |
\*---------------------------------------------------------------------------*/
FoamFile
{
    version     2.0;
    format      ascii;
    arch        "LSB;label=32;scalar=64";
    class       volVectorField;
    location    "53.5";
    object      U;
}
// * * * * * * * * * * * * * * * * * * * * * * * * * * * * * * * * * * * * * //

dimensions      [0 1 -1 0 0 0 0];

internalField   nonuniform List<vector> 
940
(
(-0.134652 0.0352148 1.26112e-19)
(0.165734 0.0336054 0)
(0.582353 0.0784075 6.95521e-20)
(0.873066 0.0954841 -5.05629e-20)
(1.06104 0.151879 -5.52702e-20)
(1.22008 0.155053 4.07261e-20)
(-0.0620331 0.0241732 -1.68421e-19)
(0.75846 0.125526 6.57459e-21)
(1.08953 0.221692 -4.17441e-20)
(1.22091 0.244211 4.63061e-20)
(1.25919 0.235745 0)
(1.20114 0.227083 -2.82673e-20)
(0.4144 0.227458 -1.93744e-20)
(1.11084 0.291562 -9.54066e-21)
(1.17894 0.353604 4.65712e-20)
(1.12912 0.260352 -2.52924e-20)
(1.0701 0.237916 1.13166e-20)
(1.06019 0.207868 0)
(-0.0790722 -0.0318704 1.67048e-20)
(-0.176081 -0.0815677 -1.19474e-20)
(-0.270958 -0.107379 4.3198e-22)
(-0.273482 -0.11951 4.18491e-20)
(-0.305591 -0.0820013 -2.04402e-20)
(-0.228334 -0.0252887 0)
(-0.0677676 0.0735588 3.53627e-20)
(-0.0774442 0.0559245 1.51431e-21)
(-0.160226 0.0156758 1.72331e-20)
(0.00399785 -0.0360631 -4.68198e-21)
(-0.0500645 -0.0616809 -3.65591e-20)
(0.215546 -0.0457749 3.61375e-20)
(-0.11522 0.0795908 -3.83749e-20)
(-0.0560533 0.0946944 0)
(0.057281 0.0284289 -7.50121e-20)
(0.438811 0.0265018 5.45327e-20)
(0.441367 -0.0204401 6.15999e-20)
(0.836437 0.0718007 -4.53515e-20)
(-0.212099 0.0781533 0)
(-0.162132 0.187758 1.54308e-20)
(-0.165846 0.195105 1.85204e-22)
(-0.0794228 0.254536 -2.64559e-20)
(0.0101187 0.318834 1.9493e-20)
(0.317554 -0.21909 -6.338e-21)
(0.197832 -0.654534 0)
(0.308662 -0.0548477 -1.50516e-21)
(0.156421 0.519404 1.34271e-21)
(0.343531 0.133725 5.62385e-22)
(0.344 -0.341078 3.32019e-22)
(0.479963 -0.219832 0)
(0.832362 0.0971063 0)
(0.836051 0.203221 0)
(0.814154 0.0788104 0)
(0.894774 -0.0583661 2.557e-23)
(0.12646 0.0251176 -2.73424e-20)
(0.133077 0.123719 2.9019e-20)
(0.169704 0.152872 -2.57666e-20)
(0.264343 0.168028 3.0781e-20)
(0.30122 0.144326 -2.68894e-20)
(0.719732 -0.26119 0)
(0.720752 -0.620161 0)
(0.330814 -0.0916115 -2.3561e-22)
(0.260509 0.449552 0)
(0.680568 0.112731 7.81557e-21)
(0.813003 -0.248572 -7.81001e-21)
(0.460388 -0.218091 3.80527e-23)
(0.567088 0.0595541 0)
(0.684868 0.190225 -2.60662e-23)
(0.841194 0.0678282 0)
(0.92824 -0.0613853 -2.5514e-23)
(0.771701 0.0527961 -2.33282e-22)
(0.69983 0.0953434 0)
(0.622677 0.10359 5.88102e-20)
(0.736587 0.104082 -5.17636e-20)
(0.725152 0.114489 -7.00618e-20)
(1.02027 -0.275309 6.13731e-20)
(1.16383 -0.564613 0)
(0.496361 -0.0480786 2.61531e-22)
(0.352218 0.377171 -7.55668e-21)
(0.819147 -0.00406994 6.64655e-21)
(1.04748 -0.277284 0)
(0.71618 -0.177428 -4.04773e-23)
(0.541113 0.0210853 3.61623e-22)
(0.689061 0.1384 -2.89796e-22)
(0.923656 0.0323068 0)
(0.985845 -0.0733767 0)
(1.20115 0.137882 0)
(1.1592 0.15237 0)
(1.15881 0.148715 0)
(1.11675 0.0533329 0)
(1.23506 0.0707524 0)
(1.24482 -0.191045 0)
(1.07192 -0.377783 0)
(0.692576 0.0207609 0)
(0.744874 0.290087 0)
(1.0682 -0.0271301 0)
(1.02642 -0.208027 0)
(0.85844 -0.101642 0)
(0.720708 0.038196 0)
(0.849213 0.0984152 0)
(1.0146 0.00982886 0)
(1.00712 -0.0730342 0)
(1.18956 0.162636 0)
(1.19073 0.113925 0)
(1.221 0.150126 0)
(1.2186 0.0470984 0)
(1.23731 0.0161179 0)
(1.24403 -0.134447 0)
(1.06285 -0.297455 0)
(0.804542 0.0581747 0)
(0.990408 0.226796 0)
(1.21662 -0.0697716 0)
(1.12468 -0.207617 0)
(0.968384 -0.0911293 0)
(0.910648 0.0317155 0)
(1.00551 0.0746608 0)
(1.08129 0.0032863 0)
(1.02535 -0.071283 0)
(1.15242 0.140244 0)
(1.17193 0.100246 0)
(1.1741 0.112708 0)
(1.21318 0.0410106 0)
(1.17943 0.0210933 0)
(1.18865 -0.06155 0)
(1.07662 -0.160943 0)
(0.909419 0.0521324 0)
(1.10356 0.124996 0)
(1.21965 -0.0719666 0)
(1.10456 -0.145353 0)
(0.990366 -0.0447526 0)
(0.995635 0.0335478 0)
(1.06367 0.0589535 0)
(1.09826 0.00567474 0)
(1.04216 -0.0619886 0)
(1.12889 0.130029 0)
(1.14714 0.093369 0)
(1.1503 0.0960801 0)
(1.17043 0.0515011 0)
(1.14256 0.0193961 0)
(1.1536 -0.0151809 0)
(1.09357 -0.09582 0)
(1.00132 0.0171183 0)
(1.12301 0.0549661 0)
(1.17819 -0.0464267 0)
(1.08885 -0.109887 0)
(1.01311 -0.0499509 0)
(1.03491 0.0120269 0)
(1.08386 0.0462741 0)
(1.10163 0.0105059 0)
(1.04803 -0.0575901 0)
(1.12482 0.09995 0)
(1.14304 0.0786835 0)
(1.14703 0.0694135 0)
(1.16294 0.0442058 0)
(1.15234 0.0186321 0)
(1.1513 0.00255195 0)
(1.13064 -0.0450631 0)
(1.0797 0.00731899 0)
(1.11906 0.0175684 0)
(1.14785 -0.0441899 0)
(1.10513 -0.0778787 0)
(1.04883 -0.0272526 0)
(1.05465 0.00594756 0)
(1.08726 0.0317736 0)
(1.11035 0.0161904 0)
(1.0599 -0.0459623 0)
(1.12245 0.0891554 0)
(1.13473 0.0784474 0)
(1.14075 0.0661939 0)
(1.1478 0.0540272 0)
(1.14465 0.0303621 0)
(1.14076 0.022698 0)
(1.13448 -0.007002 0)
(1.10876 0.00952264 0)
(1.1233 0.00803139 0)
(1.13418 -0.0152584 0)
(1.10138 -0.0430567 0)
(1.0649 -0.0215996 0)
(1.07596 -0.00471805 0)
(1.09482 0.0243153 0)
(1.11384 0.0242552 0)
(1.07577 -0.0364423 0)
(1.12231 0.0524128 0)
(1.13127 0.047453 0)
(1.13862 0.0373848 0)
(1.14344 0.0311214 0)
(1.14677 0.0163355 0)
(1.14403 0.0128924 0)
(1.14411 -0.00438974 0)
(1.1326 -0.00147609 0)
(1.13473 -0.00686572 0)
(1.13354 -0.018386 0)
(1.12695 -0.0351053 0)
(1.10031 -0.0177781 0)
(1.10168 -0.0130256 0)
(1.10433 0.00793971 0)
(1.13253 0.0230959 0)
(1.09616 -0.0293089 0)
(1.13416 0.0574626 0)
(1.13946 0.0553478 0)
(1.14568 0.0480572 0)
(1.14902 0.0449275 0)
(1.15326 0.0342444 0)
(1.15264 0.0317097 0)
(1.15538 0.020057 0)
(1.15065 0.0190908 0)
(1.1539 0.0100689 0)
(1.15014 0.00789924 0)
(1.1499 -0.00573563 0)
(1.13203 0.00193434 0)
(1.13648 -0.00425484 0)
(1.13342 0.00618832 0)
(1.15868 0.0320763 0)
(1.13064 -0.0100768 0)
(1.15133 0.00748999 0)
(1.15474 0.00743241 0)
(1.16063 0.00346223 0)
(1.16291 0.00344482 0)
(1.1687 -0.00275652 0)
(1.16803 -0.00243349 0)
(1.17427 -0.00847057 0)
(1.16942 -0.00825155 0)
(1.17674 -0.012812 0)
(1.16753 -0.0127278 0)
(1.17557 -0.0212293 0)
(1.16049 -0.0108043 0)
(1.17099 -0.0192205 0)
(1.14964 -0.0148051 0)
(1.18369 0.0220159 0)
(1.16356 -0.0109254 0)
(1.26367 0.0318647 0)
(1.2645 0.031811 0)
(1.27099 0.0297033 0)
(1.27056 0.0289745 0)
(1.27872 0.0268474 0)
(1.27524 0.0248431 0)
(1.28519 0.0227837 0)
(1.27741 0.02252 0)
(1.2905 0.0169139 0)
(1.27516 0.0203685 0)
(1.29515 0.0100512 0)
(1.2646 0.0127272 0)
(1.29789 0.014205 0)
(1.25489 -0.00329961 0)
(1.28389 0.0180715 0)
(1.28852 0.0161194 0)
(1.08487 0.182861 -6.6935e-21)
(1.12978 0.190132 4.25108e-20)
(1.20008 0.18361 0)
(1.12056 0.194389 5.41139e-21)
(1.09972 0.160783 -4.17107e-21)
(1.15202 0.170042 -3.12695e-20)
(1.10655 0.17293 0)
(1.10435 0.130722 -8.72616e-21)
(1.11216 0.140439 7.7389e-21)
(1.09388 0.154396 9.81756e-23)
(1.11616 0.130519 -1.03422e-22)
(1.10438 0.125106 1.38362e-20)
(1.09395 0.119308 1.17149e-22)
(1.11745 0.107106 0)
(1.11113 0.103078 0)
(1.09826 0.1013 -9.48524e-23)
(1.11157 0.094033 -2.02612e-22)
(1.11218 0.094667 0)
(1.10445 0.0620612 6.94804e-23)
(1.11256 0.0556557 5.05711e-22)
(1.11372 0.0581644 0)
(1.12469 0.0650316 1.30015e-22)
(1.13036 0.0599252 -1.01296e-21)
(1.12877 0.0619356 0)
(1.14195 0.0111821 2.52939e-22)
(1.1485 0.00739625 4.08962e-22)
(1.14619 0.0102427 -7.45297e-22)
(1.25538 0.0363125 0)
(1.26118 0.0341933 0)
(1.25861 0.0338327 4.04259e-22)
(1.02321 0.268041 -1.33594e-20)
(1.01019 0.293565 1.81614e-20)
(0.89334 0.312861 6.6904e-21)
(0.863209 0.416601 -1.08729e-20)
(0.947496 0.502917 0)
(0.772833 0.655843 -7.73665e-20)
(0.961428 0.235335 -8.37226e-22)
(0.985919 0.293309 0)
(1.01155 0.328272 1.44808e-20)
(1.01907 0.456384 6.44653e-21)
(1.07655 0.447626 2.36804e-20)
(0.842348 0.525936 -3.03381e-20)
(1.13504 0.267318 0)
(1.1417 0.292397 7.3956e-21)
(1.08233 0.279188 -1.73953e-20)
(1.08002 0.360309 1.44109e-20)
(1.18072 0.342402 -5.17473e-21)
(0.861635 0.391253 -1.91179e-20)
(0.783854 0.0793694 0)
(0.736162 0.0924061 2.00576e-20)
(0.653487 0.105532 -4.37399e-20)
(0.52985 0.12571 4.4127e-20)
(0.37938 0.16801 2.00801e-20)
(0.155377 0.183559 -2.80664e-20)
(0.818788 0.141429 3.69806e-20)
(0.778949 0.168063 3.27268e-20)
(0.772965 0.229644 2.65008e-20)
(0.688297 0.271282 -5.18811e-20)
(0.555045 0.350285 3.62506e-21)
(0.333437 0.445435 -6.74743e-20)
(0.89026 0.206665 2.88555e-20)
(0.764536 0.217855 -3.92289e-20)
(0.737642 0.292415 -4.98884e-20)
(0.771407 0.415305 4.1956e-20)
(0.733474 0.502381 0)
(0.511097 0.61793 8.87178e-21)
(1.01446 0.164072 4.33408e-22)
(0.987036 0.119443 -2.34558e-22)
(0.953823 0.107863 -6.7654e-23)
(0.959211 0.0944322 0)
(0.935765 0.0895125 -1.1983e-21)
(0.941237 0.0777824 1.65535e-21)
(0.908798 0.0653345 0)
(0.897708 0.0721178 2.06075e-22)
(0.859574 0.0639047 0)
(0.831917 0.0772992 0)
(0.994634 0.154876 -4.32081e-22)
(1.01817 0.135115 0)
(0.965668 0.101929 -9.91467e-22)
(1.00075 0.114266 1.66539e-21)
(0.956231 0.0808648 3.18536e-22)
(0.963472 0.0909034 -1.96425e-22)
(0.938375 0.0656664 0)
(0.921 0.0917951 -2.17829e-22)
(0.883641 0.0838883 -2.20467e-20)
(0.86045 0.123939 -3.43035e-21)
(0.976826 0.150046 8.41912e-22)
(1.00264 0.136331 -1.06841e-21)
(0.989805 0.100298 0)
(0.983123 0.112515 0)
(1.02731 0.0907336 -3.47689e-22)
(0.960596 0.104051 0)
(0.977175 0.0816094 -2.33132e-20)
(0.927769 0.133573 6.14892e-20)
(0.920136 0.128086 -8.20638e-20)
(0.895257 0.198747 5.21682e-20)
(0.993539 0.150603 0)
(0.977491 0.13579 0)
(0.978486 0.0973887 0)
(0.974328 0.107992 0)
(0.998258 0.0811808 0)
(0.980156 0.116008 0)
(0.985017 0.0803458 0)
(0.957755 0.14946 0)
(0.966516 0.132639 0)
(0.9548 0.211604 0)
(1.01244 0.148759 0)
(0.991504 0.143746 0)
(0.966263 0.0922442 0)
(0.999685 0.112871 0)
(0.935762 0.0768578 0)
(0.996727 0.112629 0)
(0.971174 0.0919591 0)
(0.983606 0.144187 0)
(0.982531 0.138541 0)
(0.991244 0.190031 0)
(0.99379 0.142507 0)
(1.01423 0.151311 0)
(0.994973 0.0869692 0)
(1.01507 0.129755 0)
(0.971333 0.0734479 0)
(1.00974 0.102245 0)
(0.986137 0.0966224 0)
(1.00066 0.136452 0)
(1.00072 0.129176 0)
(1.00695 0.174369 0)
(0.979054 0.136769 0)
(1.00229 0.151824 0)
(1.01714 0.0817678 0)
(1.00207 0.135567 0)
(1.02779 0.0754025 0)
(1.01193 0.105243 0)
(1.01659 0.100356 0)
(1.01412 0.138602 0)
(1.03081 0.120222 0)
(1.02411 0.16292 0)
(0.990202 0.13495 0)
(0.988385 0.147073 0)
(1.01886 0.0772502 0)
(0.993391 0.123749 0)
(1.03529 0.0736117 0)
(1.0098 0.098536 0)
(1.02819 0.0917066 0)
(1.02446 0.123253 0)
(1.04725 0.105862 0)
(1.04292 0.132713 0)
(1.00056 0.131668 0)
(0.986673 0.147169 0)
(1.01929 0.0833989 0)
(1.0005 0.118018 0)
(1.03226 0.0831734 0)
(1.0198 0.103754 0)
(1.03546 0.0901056 0)
(1.03604 0.113059 0)
(1.05445 0.100757 0)
(1.05551 0.115748 0)
(1.00579 0.121562 0)
(0.987782 0.130201 0)
(1.03179 0.0723618 0)
(1.01495 0.0910185 0)
(1.0422 0.0655308 0)
(1.03719 0.0771074 0)
(1.05455 0.0638051 0)
(1.05313 0.0759609 0)
(1.06913 0.0676522 0)
(1.06973 0.0751293 0)
(1.00206 0.125685 0)
(1.00186 0.130891 0)
(1.04576 0.0893561 0)
(1.04129 0.0963443 0)
(1.065 0.0800699 0)
(1.06569 0.0850523 0)
(1.08277 0.0754032 0)
(1.08327 0.0798084 0)
(1.09627 0.0740948 0)
(1.09711 0.0769591 0)
(1.00118 0.0788942 0)
(1.01361 0.076775 0)
(1.06186 0.0397777 0)
(1.06178 0.0398797 0)
(1.08534 0.0243549 0)
(1.08643 0.02694 0)
(1.10386 0.0186236 0)
(1.10433 0.021497 0)
(1.11691 0.0167279 0)
(1.11707 0.0190414 0)
(0.990258 0.10143 0)
(1.10855 0.0817676 0)
(1.16026 0.068523 0)
(1.17215 0.0578014 0)
(1.19713 0.0521361 0)
(1.2041 0.0463753 0)
(1.22013 0.0444557 0)
(1.22333 0.0416607 0)
(1.23375 0.0403081 0)
(1.23506 0.0392183 0)
(0.981929 0.206797 -2.14191e-20)
(0.99652 0.18949 7.5295e-22)
(1.10591 0.222286 3.65384e-21)
(1.00122 0.182313 4.64109e-21)
(1.05351 0.202457 -2.98671e-22)
(1.07831 0.188778 -2.95395e-21)
(1.02024 0.154587 2.41328e-21)
(1.05734 0.182636 2.11216e-22)
(1.073 0.138011 0)
(1.0486 0.136527 1.11603e-20)
(1.06319 0.167174 -1.61535e-23)
(1.09293 0.126591 1.53421e-23)
(1.06633 0.115151 -4.04421e-21)
(1.07169 0.131996 0)
(1.10266 0.106352 1.08971e-23)
(1.07192 0.105292 0)
(1.07915 0.110165 -5.01921e-23)
(1.09931 0.0968157 3.93376e-23)
(1.08384 0.0678775 0)
(1.09109 0.068586 -8.55141e-22)
(1.10338 0.0603807 1.22842e-22)
(1.10846 0.0717614 -1.91317e-21)
(1.11457 0.0706794 1.20492e-21)
(1.12369 0.0649794 1.68145e-22)
(1.12781 0.0150141 2.02009e-21)
(1.13249 0.0142626 -5.95219e-22)
(1.14156 0.0102569 3.21135e-22)
(1.24362 0.0381302 -6.97421e-22)
(1.24743 0.0381959 0)
(1.25507 0.0364085 0)
(-0.139976 -0.0312692 -1.33153e-19)
(0.0246155 -0.0873555 1.27328e-19)
(0.651352 -0.258202 2.03577e-20)
(0.354791 -0.0168388 0)
(0.932322 -0.125672 -5.8225e-21)
(1.20556 -0.217588 -1.45458e-20)
(0.789732 -0.0737034 -7.42258e-20)
(1.18991 -0.196489 4.54832e-20)
(1.20511 -0.263627 -3.10029e-20)
(1.05945 -0.0771079 7.86904e-20)
(1.31756 -0.186415 -3.06548e-20)
(1.14599 -0.172795 2.71058e-20)
(1.30941 -0.104055 7.10118e-20)
(1.26515 -0.155851 -3.15881e-20)
(1.11223 -0.155977 -1.22919e-20)
(1.35078 -0.0511033 -5.23328e-20)
(1.13696 -0.110696 3.51138e-20)
(1.12227 -0.122381 0)
(-0.0694656 -0.210118 -1.86946e-20)
(-0.0750393 -0.192316 -8.18802e-20)
(-0.130134 -0.126595 3.87718e-20)
(-0.122159 -0.207984 -1.50307e-20)
(-0.00923567 -0.229347 -1.84926e-21)
(-0.0416748 -0.156702 0)
(-0.170139 -0.183887 1.97586e-20)
(-0.04362 -0.208243 -2.65195e-20)
(0.221434 -0.112978 8.17093e-20)
(-0.128606 -0.104072 -4.96951e-20)
(0.255854 -0.180059 3.52253e-20)
(0.615058 -0.0752268 -2.77199e-20)
(-0.163479 -0.0794733 2.48116e-20)
(0.176737 -0.0832047 0)
(0.76812 -0.0469185 -9.20423e-20)
(-0.0122899 0.0432401 0)
(0.692286 -0.0172931 -7.79573e-20)
(1.19555 0.00910145 6.77804e-20)
(-0.0407231 0.158529 0)
(0.549949 0.078873 5.94303e-20)
(1.13273 0.04719 0)
(0.0256916 0.196434 -1.87744e-20)
(0.636241 0.168475 -3.918e-20)
(1.15548 0.132677 0)
(-0.0548158 0.246567 1.8162e-21)
(0.545289 0.176892 3.50279e-20)
(1.14461 0.154822 -2.65112e-22)
(0.041542 0.334324 2.43317e-20)
(0.506144 0.263657 -1.41481e-20)
(1.02221 0.150183 0)
(-0.046353 0.405788 -1.34902e-20)
(0.419551 0.357527 1.24677e-20)
(1.14305 0.314526 1.38247e-21)
(0.065244 -0.182649 3.22711e-21)
(0.151875 -0.0992885 0)
(0.654612 -0.043118 -1.12212e-21)
(0.0164399 -0.652955 0)
(0.254215 -0.395535 0)
(0.620926 -0.333982 0)
(0.595328 -0.0414822 2.09038e-21)
(0.820899 0.14036 0)
(1.05214 0.116341 0)
(0.406865 0.399989 -1.86456e-21)
(0.827149 0.307476 0)
(0.960674 0.287785 1.8763e-21)
(0.108598 0.160969 1.27047e-23)
(0.409334 0.053907 4.01519e-22)
(0.684993 0.0657339 -1.65128e-21)
(0.151474 -0.242295 -1.2503e-22)
(0.470901 -0.140619 -2.39204e-22)
(0.832383 -0.0738858 0)
(0.645477 -0.0551326 0)
(0.872368 0.0705419 2.37273e-22)
(1.10294 0.0768564 -2.52387e-22)
(0.994199 0.157089 0)
(0.967912 0.209974 0)
(1.04642 0.17924 2.11978e-22)
(0.973945 0.187876 0)
(0.955546 0.176907 2.9987e-24)
(0.984404 0.155972 -1.88755e-22)
(0.848381 0.0790233 0)
(0.82853 0.0609445 0)
(0.809722 0.05325 0)
(0.899703 -0.0455338 -1.29297e-23)
(0.855206 -0.0466082 1.29029e-23)
(0.798884 -0.041869 0)
(1.26854 -0.00553453 0)
(1.1744 -0.0162963 0)
(1.1162 -0.00990307 0)
(1.07103 -0.0080504 0)
(1.04038 -0.0084 0)
(1.01208 0.000693188 0)
(0.978408 -0.00778313 0)
(0.940325 0.013978 0)
(0.900666 -0.0110877 0)
(0.745505 0.0186117 0)
(1.25665 0.0611232 0)
(1.185 0.0501694 0)
(1.13295 0.0116253 0)
(1.07911 0.00785733 0)
(1.0447 -0.00199406 0)
(1.01463 0.00599201 0)
(0.979212 -0.00469704 0)
(0.939887 0.0156231 0)
(0.899368 -0.0101933 0)
(0.742936 0.0196464 0)
(1.21055 0.0915641 0)
(1.13889 0.0757106 0)
(1.10142 0.0436516 0)
(1.07091 0.0284958 0)
(1.04539 0.00780979 0)
(1.01592 0.00809732 0)
(0.981696 -0.00414888 0)
(0.941213 0.015135 0)
(0.900505 -0.0100682 0)
(0.744101 0.0190154 0)
(1.11085 0.101678 0)
(1.09485 0.0560513 0)
(1.08925 0.0244981 0)
(1.05497 0.0204354 0)
(1.03778 0.00554395 0)
(1.01323 0.0138759 0)
(0.982081 -0.000156741 0)
(0.940002 0.0185327 0)
(0.899051 -0.0080233 0)
(0.741132 0.0213641 0)
(1.12428 0.163456 0)
(1.05069 0.13932 0)
(1.05484 0.0524645 0)
(1.04605 0.0336556 0)
(1.03469 0.0102833 0)
(1.01305 0.0143676 0)
(0.98309 0.000765432 0)
(0.940711 0.018944 0)
(0.899677 -0.00715192 0)
(0.741853 0.0227665 0)
(0.884711 -0.10914 0)
(0.94201 -0.0663679 0)
(0.996823 -0.0406222 0)
(1.02367 0.00239262 0)
(1.02817 0.00243113 0)
(1.00921 0.0207676 0)
(0.982968 0.00628721 0)
(0.939283 0.0242143 0)
(0.898253 -0.00380309 0)
(0.738109 0.026648 0)
(1.0134 -0.221509 0)
(1.13361 -0.145656 0)
(1.10284 -0.0727841 0)
(1.07194 -0.0320617 0)
(1.03927 -0.0110854 0)
(1.01408 0.0140855 0)
(0.983061 0.00591001 0)
(0.939168 0.0255724 0)
(0.898034 -0.00237654 0)
(0.736795 0.0296358 0)
(1.24688 0.112757 0)
(1.22075 0.100348 0)
(1.15947 0.0657238 0)
(1.10115 0.0472317 0)
(1.06559 0.030976 0)
(1.02158 0.0319303 0)
(0.986214 0.0163976 0)
(0.937756 0.0324044 0)
(0.897007 0.0034089 0)
(0.73054 0.0355064 0)
(1.07259 0.178372 0)
(1.05134 0.174542 0)
(1.06586 0.0933371 0)
(1.04349 0.0971727 0)
(1.04216 0.0460849 0)
(1.00902 0.0522462 0)
(0.983098 0.0223551 0)
(0.935356 0.0366451 0)
(0.895945 0.00604259 0)
(0.724202 0.0392799 0)
(0.923023 0.0560494 0)
(0.985898 0.0657693 0)
(0.992767 0.0494148 0)
(1.00787 0.0665875 0)
(1.00537 0.0407846 0)
(0.993398 0.0549452 0)
(0.972452 0.0295438 0)
(0.929911 0.0433818 0)
(0.89498 0.0127305 0)
(0.713331 0.0403934 0)
(1.04496 -0.0159521 0)
(1.06791 -0.00969387 0)
(1.03996 0.0180362 0)
(1.03959 0.026934 0)
(1.01211 0.0301181 0)
(0.994793 0.0388964 0)
(0.96754 0.0223408 0)
(0.924875 0.0345987 0)
(0.891357 0.0112111 0)
(0.700974 0.0270201 0)
(1.12918 0.104814 0)
(1.10229 0.0749092 0)
(1.08869 0.0877717 0)
(1.05176 0.0715249 0)
(1.0249 0.0642556 0)
(0.994332 0.0617884 0)
(0.967554 0.042631 0)
(0.923446 0.0448528 0)
(0.888326 0.0185811 0)
(0.694532 0.0145175 0)
(1.0251 0.172903 0)
(1.01567 0.146229 0)
(1.02957 0.132833 0)
(0.994767 0.109489 0)
(0.992002 0.082842 0)
(0.966165 0.0748427 0)
(0.947194 0.0455218 0)
(0.902528 0.0400358 0)
(0.867598 0.00298749 0)
(0.680745 -0.00674441 0)
(0.972217 0.131935 0)
(0.959307 0.116522 0)
(0.95763 0.0970252 0)
(0.936857 0.0887846 0)
(0.945825 0.0681495 0)
(0.935215 0.0651697 0)
(0.921046 0.0361816 0)
(0.8815 0.0319487 0)
(0.849496 -0.0134602 0)
(0.699358 -0.0154113 0)
(0.825863 0.0278821 0)
(0.87135 0.018804 0)
(0.918936 0.00217248 0)
(0.92854 0.0093616 0)
(0.931236 -0.0030512 0)
(0.915965 0.00398226 0)
(0.896609 -0.0212737 0)
(0.849557 -0.013866 0)
(0.818198 -0.0499423 0)
(0.699538 -0.029427 0)
(0.802183 -0.0471113 0)
(0.856244 -0.0451914 0)
(0.916869 -0.0521958 0)
(0.935394 -0.0432428 0)
(0.929964 -0.0536784 0)
(0.91097 -0.0406271 0)
(0.890661 -0.0597566 0)
(0.854115 -0.0395606 0)
(0.8314 -0.0593205 0)
(0.770783 -0.0196987 0)
(1.19812 -0.097394 8.70011e-21)
(1.14611 -0.0738675 -7.03371e-21)
(1.07909 -0.0426567 0)
(1.04696 -0.0349586 -1.87701e-22)
(1.02144 -0.0248014 -8.75968e-22)
(0.997242 -0.0064929 8.8342e-22)
(0.968342 -0.00898415 2.45792e-22)
(0.931929 0.014924 2.05631e-22)
(0.895768 -0.0102736 3.11821e-22)
(0.740684 0.022288 0)
(1.09056 -0.0911806 -5.37919e-20)
(1.06641 -0.0784863 4.77087e-21)
(1.05277 -0.0483373 1.181e-20)
(1.03964 -0.0300533 1.97724e-22)
(1.02195 -0.0178051 0)
(0.998211 -0.00238695 -1.79396e-22)
(0.968008 -0.00835707 7.93268e-22)
(0.931987 0.0143735 -1.44736e-21)
(0.894791 -0.0117922 6.59624e-22)
(0.741203 0.0201837 0)
(1.25567 -0.0515476 6.91736e-20)
(1.16171 -0.0346372 -1.49504e-20)
(1.1006 -0.0298308 -7.65304e-21)
(1.06334 -0.0230627 -3.49755e-20)
(1.0327 -0.0168368 1.21149e-20)
(1.00801 -0.00189121 0)
(0.976351 -0.00795273 0)
(0.938556 0.0145782 1.27692e-21)
(0.899739 -0.0105557 -2.35442e-21)
(0.744203 0.0199793 5.2657e-22)
(0.866985 -0.168014 1.2835e-20)
(0.990108 -0.146766 -8.06138e-22)
(1.0714 -0.163966 0)
(0.97646 -0.240509 -1.74495e-20)
(0.96431 -0.201946 -3.21572e-21)
(1.14154 -0.226204 -7.6724e-21)
(0.990927 -0.299544 -9.66627e-21)
(1.01083 -0.251862 -7.69256e-21)
(1.17354 -0.242153 1.79942e-20)
(0.885395 -0.371437 1.32896e-20)
(1.04091 -0.383708 -6.57425e-21)
(1.11305 -0.316999 -1.20297e-21)
(0.913618 -0.446434 0)
(1.11317 -0.404514 -2.5496e-20)
(1.1889 -0.272851 -1.47869e-20)
(0.765503 -0.622409 7.07135e-20)
(0.907454 -0.533574 -1.35443e-20)
(0.917488 -0.356588 2.06873e-20)
(0.786596 -0.0113658 0)
(0.823568 -0.0729108 -3.69338e-20)
(0.901917 -0.137557 -2.84811e-20)
(0.734583 -0.0227759 -2.00777e-20)
(0.764825 -0.10005 0)
(0.901028 -0.180539 3.87253e-20)
(0.664855 -0.0446132 4.38343e-20)
(0.698115 -0.148241 -5.45241e-20)
(0.769357 -0.215773 3.42895e-20)
(0.563792 -0.0636283 -7.14652e-20)
(0.658048 -0.220921 5.38914e-20)
(0.717492 -0.31044 -4.7143e-20)
(0.40486 -0.0978735 1.59282e-20)
(0.543526 -0.303246 -4.99683e-21)
(0.728759 -0.450064 0)
(0.173226 -0.0994203 2.94027e-20)
(0.316165 -0.376801 1.2132e-19)
(0.521896 -0.58265 -7.53361e-22)
(0.994121 0.161783 -3.42368e-22)
(0.961443 0.161849 3.41317e-22)
(0.91349 0.151465 -4.66423e-22)
(0.946889 0.114591 -8.64533e-23)
(0.949658 0.104809 3.01834e-22)
(1.01488 0.119281 5.91932e-22)
(0.97162 0.106721 3.74403e-23)
(1.00584 0.119546 2.35753e-22)
(1.00912 0.105446 5.67709e-22)
(0.955306 0.092869 0)
(0.948572 0.0682763 -1.32708e-21)
(0.956225 0.0675753 0)
(0.942077 0.0892313 1.14456e-21)
(0.961963 0.0965602 -2.55632e-22)
(1.00078 0.0779844 2.79016e-22)
(0.931472 0.0559358 -1.57544e-21)
(0.932823 0.0331859 -1.6678e-22)
(0.910233 0.0200112 3.85674e-22)
(0.905993 0.0519451 0)
(0.920716 0.0594744 0)
(0.948022 0.0236036 2.08142e-20)
(0.890157 0.0287485 -1.9607e-22)
(0.895866 0.00644986 2.07247e-22)
(0.877558 -0.0286858 -5.55644e-20)
(0.860358 0.0186712 0)
(0.875443 0.00685016 2.15504e-20)
(0.908841 -0.0467125 3.6529e-20)
(0.827827 0.00113266 0)
(0.842805 -0.0451548 3.98189e-21)
(0.868961 -0.110699 0)
(0.915519 0.157506 0)
(0.971691 0.160698 0)
(0.96928 0.162256 0)
(0.965412 0.160105 0)
(0.96627 0.158355 0)
(0.968003 0.153386 0)
(0.970438 0.143272 0)
(0.975854 0.141854 0)
(0.979786 0.0961734 0)
(0.985456 0.11194 0)
(1.08795 0.117496 0)
(1.01861 0.112682 0)
(0.990629 0.105058 0)
(0.992015 0.103835 0)
(0.987372 0.101875 0)
(0.982841 0.104104 0)
(0.973378 0.096352 0)
(0.960125 0.106636 0)
(0.944687 0.0678235 0)
(0.830154 0.0843931 0)
(0.93242 0.106916 0)
(0.945864 0.104695 0)
(0.951341 0.107675 0)
(0.953114 0.10399 0)
(0.952474 0.0990499 0)
(0.953657 0.0945269 0)
(0.945475 0.0759344 0)
(0.936543 0.0842117 0)
(0.91969 0.0374938 0)
(0.8125 0.0656351 0)
(1.02864 0.0615126 0)
(0.997107 0.0497954 0)
(0.976327 0.0422758 0)
(0.97894 0.0420988 0)
(0.974634 0.0454209 0)
(0.970235 0.0559669 0)
(0.96048 0.0493574 0)
(0.943215 0.0667273 0)
(0.922811 0.0279232 0)
(0.789633 0.0519653 0)
(0.915238 0.0740439 0)
(0.906223 0.0784691 0)
(0.933781 0.0783424 0)
(0.950725 0.0707025 0)
(0.955026 0.0558053 0)
(0.953437 0.0535323 0)
(0.943166 0.0364707 0)
(0.928311 0.0522899 0)
(0.908451 0.0130527 0)
(0.771856 0.0432937 0)
(0.989916 -0.00162132 0)
(0.99969 -0.0112426 0)
(0.970468 -0.00512849 0)
(0.962181 0.0106568 0)
(0.962776 0.0155087 0)
(0.965929 0.0295531 0)
(0.956441 0.0208808 0)
(0.934286 0.0420533 0)
(0.910909 0.0104818 0)
(0.761864 0.0389906 0)
(0.873545 0.0298997 0)
(0.904425 0.0192776 0)
(0.953585 0.0158633 0)
(0.965674 0.01371 0)
(0.958522 0.0113306 0)
(0.95601 0.0225022 0)
(0.94548 0.0128067 0)
(0.924953 0.034281 0)
(0.901377 0.0024531 0)
(0.754638 0.0340714 0)
(0.962269 -0.0546078 0)
(0.978959 -0.0335605 0)
(0.972986 -0.0238635 0)
(0.969949 -0.0163741 0)
(0.973095 -0.0150862 0)
(0.971516 0.00673015 0)
(0.95847 0.00348887 0)
(0.931629 0.0285228 0)
(0.905458 0.00138591 0)
(0.752949 0.0310055 0)
(0.888734 -0.0400271 0)
(0.935689 -0.0421496 0)
(0.963134 -0.0430758 0)
(0.970076 -0.0246011 0)
(0.969455 -0.0143183 0)
(0.967128 0.00557501 0)
(0.952647 0.000727819 0)
(0.926569 0.0245866 0)
(0.899889 -0.00351205 0)
(0.748893 0.0279313 0)
(0.963747 -0.125435 0)
(0.98296 -0.0821111 0)
(0.986564 -0.061465 0)
(0.987362 -0.0421623 0)
(0.984918 -0.030294 0)
(0.978182 -0.00463802 0)
(0.962318 -0.00447414 0)
(0.932239 0.0213679 0)
(0.903894 -0.0038619 0)
(0.749348 0.0264242 0)
(0.915896 -0.122767 0)
(0.968376 -0.0969039 7.35688e-21)
(0.985982 -0.0773972 -4.60272e-21)
(0.986928 -0.0462012 -1.02786e-21)
(0.983079 -0.0303833 0)
(0.975898 -0.0046693 0)
(0.957703 -0.00594568 0)
(0.927851 0.0192666 -3.91169e-22)
(0.899001 -0.00751944 3.8833e-22)
(0.74594 0.0245365 -5.61983e-22)
(1.10308 -0.103395 3.00873e-21)
(1.07496 -0.0884961 1.24402e-21)
(1.02372 -0.0618895 -2.5171e-21)
(1.00847 -0.0443611 1.07382e-22)
(0.997851 -0.0308907 0)
(0.983671 -0.00696836 -1.3353e-22)
(0.961474 -0.0076134 -1.07074e-21)
(0.928506 0.0173362 1.64302e-21)
(0.897079 -0.00831839 -6.22934e-22)
(0.742069 0.024479 0)
(1.03412 -0.126398 -5.43463e-21)
(1.00812 -0.108005 4.39351e-21)
(1.01705 -0.0739452 0)
(1.01603 -0.0478112 -1.01982e-22)
(1.00438 -0.0283901 7.25392e-22)
(0.986635 -0.00513223 -4.60825e-22)
(0.960671 -0.00792459 2.05274e-22)
(0.927341 0.015406 1.90031e-22)
(0.893991 -0.0107529 3.14655e-22)
(0.740833 0.0221682 0)
)
;

boundaryField
{
    outlet
    {
        type            zeroGradient;
    }
    upperWall
    {
        type            symmetryPlane;
    }
    lowerWall
    {
        type            symmetryPlane;
    }
    inlet
    {
        type            fixedValue;
        value           uniform (0.9848 0.1736 0);
    }
    cylinder
    {
        type            fixedValue;
        value           uniform (0 0 0);
    }
    frontAndBack
    {
        type            empty;
    }
}


// ************************************************************************* //
