/*--------------------------------*- C++ -*----------------------------------*\
| =========                 |                                                 |
| \\      /  F ield         | OpenFOAM: The Open Source CFD Toolbox           |
|  \\    /   O peration     | Version:  2512                                  |
|   \\  /    A nd           | Website:  www.openfoam.com                      |
|    \\/     M anipulation  |                                                 |
\*---------------------------------------------------------------------------*/
FoamFile
{
    version     2.0;
    format      ascii;
    arch        "LSB;label=32;scalar=64";
    class       volScalarField;
    location    "36";
    object      p;
}
// * * * * * * * * * * * * * * * * * * * * * * * * * * * * * * * * * * * * * //

dimensions      [0 2 -2 0 0 0 0];

internalField   nonuniform List<scalar> 
13248
(
-0.227847
-0.228636
-0.228305
-0.22721
-0.225439
-0.222955
-0.219758
-0.215841
-0.21127
-0.206149
-0.200629
-0.194909
-0.189241
-0.183904
-0.17918
-0.175316
-0.172491
-0.170824
-0.170307
-0.170968
-0.172595
-0.175297
-0.178625
-0.182954
-0.23064
-0.231071
-0.230525
-0.229307
-0.227484
-0.225007
-0.22181
-0.217893
-0.213285
-0.208078
-0.202434
-0.196581
-0.19079
-0.185339
-0.180472
-0.176368
-0.173116
-0.170744
-0.1692
-0.168401
-0.168243
-0.168573
-0.169412
-0.170923
-0.234756
-0.234628
-0.233693
-0.232187
-0.230147
-0.227499
-0.224166
-0.220098
-0.215301
-0.209866
-0.203973
-0.197872
-0.191836
-0.186113
-0.180889
-0.176283
-0.172337
-0.169068
-0.166404
-0.164343
-0.162713
-0.16156
-0.160763
-0.160788
-0.240018
-0.23915
-0.237645
-0.235646
-0.233185
-0.230186
-0.226532
-0.222128
-0.216955
-0.211111
-0.204799
-0.198278
-0.19181
-0.185613
-0.179847
-0.174609
-0.169953
-0.165878
-0.162352
-0.159319
-0.156671
-0.154411
-0.152456
-0.151258
-0.246431
-0.244677
-0.242435
-0.239775
-0.236726
-0.233196
-0.229012
-0.224029
-0.218221
-0.211712
-0.204741
-0.197587
-0.190512
-0.183728
-0.177386
-0.17157
-0.166307
-0.161582
-0.157343
-0.153545
-0.150096
-0.147022
-0.144237
-0.142163
-0.254202
-0.251433
-0.248343
-0.244917
-0.241137
-0.236859
-0.231843
-0.225919
-0.219108
-0.211611
-0.203728
-0.195772
-0.188009
-0.180628
-0.173741
-0.167393
-0.161587
-0.156292
-0.151474
-0.147079
-0.143055
-0.139396
-0.13602
-0.13331
-0.263648
-0.259731
-0.255732
-0.251453
-0.246751
-0.24139
-0.235089
-0.22775
-0.219528
-0.210751
-0.201786
-0.192951
-0.184476
-0.176496
-0.169073
-0.162222
-0.155927
-0.150155
-0.144864
-0.140006
-0.135541
-0.131431
-0.127647
-0.12444
-0.275022
-0.269842
-0.264875
-0.259607
-0.253662
-0.246709
-0.238554
-0.229311
-0.219345
-0.209102
-0.198969
-0.189221
-0.180018
-0.171433
-0.163485
-0.156157
-0.149418
-0.143226
-0.137538
-0.132308
-0.127497
-0.123063
-0.119
-0.115452
-0.288401
-0.281862
-0.275838
-0.269326
-0.261629
-0.252437
-0.241847
-0.23031
-0.218398
-0.206608
-0.195283
-0.184611
-0.174674
-0.165483
-0.157015
-0.149232
-0.142088
-0.135533
-0.129518
-0.123996
-0.118921
-0.114246
-0.109987
-0.106155
-0.303551
-0.295624
-0.288383
-0.280186
-0.270043
-0.257921
-0.244425
-0.230368
-0.216442
-0.203105
-0.190597
-0.179006
-0.168334
-0.158541
-0.149572
-0.141367
-0.133866
-0.127007
-0.120734
-0.114992
-0.109725
-0.104892
-0.100487
-0.0964264
-0.319924
-0.310621
-0.301881
-0.291338
-0.277937
-0.262271
-0.245574
-0.228924
-0.21301
-0.198168
-0.184511
-0.172025
-0.160644
-0.150284
-0.14086
-0.13229
-0.124497
-0.11741
-0.110962
-0.105088
-0.0997286
-0.0948366
-0.0903641
-0.0861892
-0.336614
-0.325995
-0.315325
-0.301582
-0.284101
-0.264437
-0.244413
-0.225214
-0.207402
-0.191146
-0.17642
-0.163116
-0.151105
-0.140262
-0.130471
-0.121629
-0.113642
-0.106427
-0.0999068
-0.0940103
-0.0886748
-0.083851
-0.0794579
-0.075392
-0.287953
-0.289255
-0.289865
-0.290435
-0.291271
-0.292437
-0.29394
-0.295767
-0.297898
-0.300309
-0.302969
-0.305846
-0.30892
-0.312222
-0.315819
-0.319595
-0.323528
-0.327622
-0.331891
-0.336352
-0.341043
-0.346082
-0.351708
-0.358056
-0.277435
-0.278798
-0.279306
-0.279615
-0.280034
-0.280629
-0.281412
-0.282375
-0.283499
-0.284756
-0.286136
-0.287627
-0.289232
-0.290979
-0.292903
-0.295027
-0.297397
-0.300088
-0.303204
-0.306874
-0.311245
-0.316519
-0.323124
-0.33179
-0.267835
-0.269144
-0.269511
-0.269553
-0.269559
-0.269594
-0.269674
-0.269789
-0.269925
-0.270074
-0.270222
-0.270378
-0.270565
-0.27083
-0.27124
-0.271879
-0.272864
-0.274339
-0.276488
-0.279533
-0.283726
-0.289292
-0.296533
-0.306628
-0.259295
-0.260465
-0.260676
-0.260467
-0.260093
-0.259613
-0.259041
-0.258375
-0.257605
-0.256724
-0.255737
-0.254667
-0.253562
-0.252495
-0.251569
-0.250919
-0.250727
-0.251201
-0.252578
-0.255131
-0.259189
-0.265082
-0.272874
-0.282516
-0.251836
-0.252825
-0.252884
-0.252459
-0.251755
-0.250819
-0.249667
-0.248299
-0.246713
-0.244912
-0.242914
-0.240762
-0.238528
-0.236314
-0.234254
-0.232501
-0.231345
-0.231021
-0.231817
-0.234013
-0.238011
-0.244197
-0.252872
-0.263689
-0.245392
-0.246208
-0.246141
-0.245542
-0.244563
-0.243233
-0.241567
-0.239573
-0.23726
-0.234643
-0.231757
-0.228665
-0.225464
-0.222295
-0.219351
-0.216526
-0.214648
-0.213697
-0.214015
-0.215947
-0.219863
-0.226042
-0.235293
-0.246136
-0.239871
-0.240568
-0.240411
-0.23968
-0.238475
-0.236804
-0.234681
-0.232123
-0.229155
-0.225809
-0.222139
-0.218227
-0.214184
-0.210175
-0.20639
-0.203045
-0.200488
-0.199004
-0.198936
-0.200567
-0.204435
-0.210328
-0.219877
-0.230447
-0.235203
-0.235866
-0.235664
-0.234833
-0.233438
-0.23147
-0.228936
-0.225868
-0.222306
-0.218307
-0.213944
-0.209322
-0.204579
-0.199895
-0.195489
-0.191628
-0.188624
-0.186777
-0.186508
-0.187849
-0.191817
-0.197246
-0.206963
-0.216972
-0.231392
-0.232111
-0.231897
-0.230987
-0.229432
-0.227204
-0.224313
-0.220799
-0.216721
-0.212158
-0.207211
-0.202009
-0.196719
-0.191546
-0.186702
-0.182506
-0.179283
-0.177274
-0.177104
-0.17834
-0.182792
-0.187863
-0.197817
-0.20697
-0.228544
-0.229372
-0.229162
-0.228188
-0.226501
-0.22407
-0.220904
-0.21705
-0.212585
-0.207609
-0.202249
-0.19666
-0.191031
-0.18559
-0.180641
-0.176433
-0.173326
-0.171478
-0.171641
-0.173081
-0.177826
-0.183026
-0.192729
-0.201613
-0.226852
-0.227787
-0.227579
-0.226553
-0.224782
-0.222235
-0.218921
-0.214895
-0.210239
-0.205079
-0.199552
-0.193835
-0.188139
-0.18271
-0.177833
-0.173789
-0.170908
-0.169373
-0.169661
-0.171489
-0.175801
-0.181402
-0.19015
-0.199375
-0.226574
-0.227519
-0.22728
-0.226218
-0.224424
-0.221866
-0.21855
-0.214531
-0.209889
-0.204726
-0.199197
-0.193489
-0.187829
-0.182479
-0.177726
-0.173858
-0.171123
-0.169759
-0.169841
-0.171549
-0.174758
-0.179657
-0.186299
-0.194763
-0.365996
-0.376277
-0.38871
-0.403842
-0.422241
-0.444143
-0.469437
-0.497459
-0.526943
-0.555736
-0.582597
-0.6051
-0.621306
-0.629115
-0.626206
-0.608581
-0.5707
-0.507255
-0.420577
-0.327111
-0.244565
-0.181416
-0.139174
-0.114962
-0.107913
-0.112776
-0.116793
-0.108136
-0.0866768
-0.0595051
-0.0348959
-0.0170304
-0.00579013
0.000494859
0.00370276
0.00506336
0.0049107
0.00371879
0.0029689
0.00371359
0.00582992
0.00842698
0.0105288
0.0117669
0.0121308
0.011865
0.0110673
0.00985369
0.008345
0.00688264
0.00565848
0.00478383
0.00418847
0.00372244
0.00325767
0.00275566
0.00217222
0.00158174
0.000939132
0.000341157
-0.344215
-0.360363
-0.379745
-0.402629
-0.429112
-0.458796
-0.490905
-0.524264
-0.557604
-0.587075
-0.614158
-0.635602
-0.650411
-0.656473
-0.652071
-0.633369
-0.593873
-0.526662
-0.433849
-0.333119
-0.242981
-0.172811
-0.123688
-0.0922664
-0.0767868
-0.0749368
-0.0774445
-0.0732271
-0.0587917
-0.039672
-0.021929
-0.0092027
-0.00170433
0.00174588
0.00284515
0.00248072
0.000696059
-0.00146444
-0.00200997
-0.000107023
0.00324008
0.00678944
0.00947893
0.0110863
0.011701
0.0116223
0.0110076
0.00998154
0.00864145
0.00726324
0.00602671
0.00507435
0.00438779
0.00384778
0.0033283
0.0027922
0.00218681
0.00158487
0.000936286
0.000341305
-0.323832
-0.344791
-0.370032
-0.398882
-0.43135
-0.466654
-0.503032
-0.539486
-0.574318
-0.605357
-0.631716
-0.651863
-0.664762
-0.66981
-0.664278
-0.644807
-0.604759
-0.535948
-0.440019
-0.335209
-0.240167
-0.165818
-0.11161
-0.0743095
-0.0514406
-0.0424627
-0.0417039
-0.0401805
-0.032295
-0.0203971
-0.00892728
-0.00120258
0.00236922
0.00273214
0.00154304
-0.000824988
-0.00431569
-0.00711367
-0.00696804
-0.00377299
0.000933696
0.00531704
0.00848903
0.010399
0.0112322
0.0113208
0.0108648
0.0100056
0.00883522
0.00756827
0.00636286
0.00536929
0.00460091
0.00398394
0.00340165
0.00282636
0.00219643
0.00158315
0.00092976
0.000338908
-0.30546
-0.328695
-0.358313
-0.391182
-0.427396
-0.466034
-0.505457
-0.543907
-0.579673
-0.611074
-0.637042
-0.656429
-0.667941
-0.671562
-0.664978
-0.645191
-0.605045
-0.536456
-0.440435
-0.334228
-0.237186
-0.160687
-0.103699
-0.0620015
-0.0331427
-0.0169753
-0.0115873
-0.0103698
-0.00765624
-0.00170707
0.0041593
0.00695021
0.00642252
0.00359975
-3.31063e-05
-0.00467705
-0.00980741
-0.0128701
-0.0115601
-0.006919
-0.00107926
0.00398679
0.0075474
0.00970671
0.0107322
0.0109737
0.0106577
0.00994255
0.00892655
0.00777849
0.00663465
0.00563566
0.00480535
0.00411839
0.00347324
0.00285767
0.00220259
0.00157847
0.000921205
0.000334515
-0.285417
-0.311911
-0.34353
-0.378895
-0.417349
-0.457713
-0.498492
-0.537886
-0.574112
-0.605583
-0.631424
-0.651436
-0.661716
-0.664303
-0.657225
-0.637396
-0.597524
-0.529278
-0.434763
-0.330389
-0.234804
-0.157794
-0.0994241
-0.0550222
-0.0219341
0.00049974
0.0116246
0.0149545
0.0152262
0.0161085
0.0170511
0.0151376
0.0106337
0.00472194
-0.00157908
-0.0087401
-0.0153893
-0.0183482
-0.0155103
-0.00956946
-0.00280041
0.00278671
0.00664859
0.00901279
0.0102088
0.0105925
0.0104037
0.00981378
0.00893061
0.00789479
0.00682658
0.00584663
0.00497998
0.0042373
0.00353729
0.00288492
0.00220677
0.0015728
0.000912558
0.000329048
-0.266823
-0.294472
-0.326586
-0.362371
-0.401176
-0.44186
-0.482899
-0.522523
-0.558925
-0.590521
-0.616284
-0.63498
-0.646997
-0.649673
-0.642526
-0.622597
-0.582785
-0.515595
-0.42422
-0.324472
-0.23305
-0.15745
-0.0983439
-0.0525307
-0.0167086
0.0100685
0.0271376
0.0344491
0.035126
0.0325488
0.0296439
0.0236145
0.0154516
0.00658915
-0.00270952
-0.0126055
-0.0206426
-0.0231634
-0.019208
-0.0117295
-0.00423863
0.00171175
0.00579263
0.00832293
0.00966947
0.0101864
0.0101163
0.009638
0.00886792
0.0079319
0.00693961
0.00599158
0.00511228
0.00433106
0.0035893
0.0029069
0.00221013
0.00156768
0.000905563
0.000323558
-0.249691
-0.276913
-0.308221
-0.34294
-0.380708
-0.420515
-0.460871
-0.500118
-0.536512
-0.568328
-0.594582
-0.613936
-0.626094
-0.629409
-0.62254
-0.602504
-0.562841
-0.497633
-0.411102
-0.317869
-0.232001
-0.159299
-0.100188
-0.0534291
-0.0161098
0.0133742
0.0349212
0.0472591
0.0507469
0.0471874
0.042506
0.0332287
0.0217246
0.00974026
-0.00306475
-0.0159171
-0.0251598
-0.0269116
-0.0217614
-0.0133381
-0.00539789
0.000758735
0.00498233
0.00764354
0.00912143
0.00976243
0.00980439
0.00942865
0.00875685
0.00790818
0.00698524
0.00607597
0.00520003
0.00439639
0.00362723
0.00292294
0.00221326
0.0015639
0.000901283
0.0003189
-0.235054
-0.260736
-0.289946
-0.322423
-0.358026
-0.395798
-0.434421
-0.472478
-0.508182
-0.539958
-0.566656
-0.586601
-0.6
-0.603974
-0.597423
-0.577265
-0.538073
-0.476117
-0.396313
-0.311097
-0.231592
-0.162492
-0.104425
-0.0570026
-0.0188218
0.0120705
0.0362986
0.0530794
0.0611818
0.0618375
0.0556189
0.0444978
0.0301083
0.0145094
-0.0023148
-0.018275
-0.0285241
-0.0292588
-0.0232411
-0.0143762
-0.00628713
-7.31309e-05
0.00422371
0.00698315
0.00857329
0.00932749
0.00947448
0.00919465
0.00861107
0.00784007
0.00697857
0.00611279
0.00524779
0.00443498
0.00365125
0.00293287
0.00221605
0.00156151
0.000899889
0.000315535
-0.223727
-0.246872
-0.272976
-0.302728
-0.335811
-0.371125
-0.407647
-0.444118
-0.479064
-0.510612
-0.53749
-0.558074
-0.571092
-0.575675
-0.569192
-0.548868
-0.510787
-0.453308
-0.381497
-0.305023
-0.232249
-0.166959
-0.110684
-0.0630926
-0.0238942
0.00800498
0.033666
0.0528443
0.0655893
0.0720664
0.0669654
0.0564267
0.0401825
0.0205331
-0.000660169
-0.0195173
-0.0303933
-0.0304471
-0.0238127
-0.0149029
-0.00692365
-0.000782873
0.00352429
0.00635093
0.00803495
0.00888995
0.00913344
0.00894312
0.00844029
0.00774028
0.00693321
0.00611992
0.00526277
0.00445083
0.0036626
0.00293688
0.00221789
0.00156
0.000900804
0.000313492
-0.216811
-0.235852
-0.2573
-0.283358
-0.313162
-0.345275
-0.378745
-0.4126
-0.445334
-0.475482
-0.502071
-0.522748
-0.535919
-0.540463
-0.534237
-0.51473
-0.479531
-0.428513
-0.365883
-0.298555
-0.232734
-0.171509
-0.117588
-0.0706615
-0.0308738
0.00191218
0.0286792
0.0494166
0.0641054
0.0729832
0.07301
0.0656598
0.0497093
0.0271319
0.00217664
-0.0189086
-0.0302382
-0.0298538
-0.0234078
-0.0149299
-0.00731802
-0.00137858
0.00287726
0.00574167
0.00750441
0.00845229
0.0087864
0.00868034
0.00825224
0.00761842
0.00686235
0.00612016
0.00524982
0.00444805
0.00366284
0.00293528
0.00221799
0.00155873
0.000903139
0.000312526
-0.212725
-0.227264
-0.244212
-0.266256
-0.292454
-0.321602
-0.352822
-0.384799
-0.4161
-0.445238
-0.470075
-0.489668
-0.502346
-0.507358
-0.501759
-0.483886
-0.4526
-0.408498
-0.35455
-0.295321
-0.235211
-0.177982
-0.126567
-0.0805177
-0.0402261
-0.0061826
0.0219879
0.0443163
0.0607573
0.0721829
0.0745837
0.0711248
0.0570161
0.032922
0.00528065
-0.0171324
-0.0282765
-0.0285988
-0.0224729
-0.0146696
-0.00758376
-0.00192268
0.00224698
0.00513523
0.0069703
0.00800452
0.00842727
0.0084045
0.00804849
0.00747895
0.0067719
0.00604078
0.0052164
0.00443138
0.00365418
0.00292901
0.00221609
0.00155739
0.000906227
0.000312484
-0.205676
-0.216538
-0.229258
-0.245738
-0.265874
-0.289335
-0.315395
-0.343023
-0.370904
-0.397475
-0.422089
-0.44191
-0.454623
-0.459981
-0.457245
-0.444348
-0.42053
-0.386142
-0.34271
-0.292905
-0.239914
-0.18723
-0.13787
-0.0926456
-0.0524482
-0.018027
0.0110936
0.0347529
0.0527795
0.0640616
0.0718963
0.0712053
0.0607575
0.038676
0.0112494
-0.011578
-0.0233927
-0.024752
-0.0202897
-0.0138048
-0.00751741
-0.00226561
0.00174841
0.00461468
0.00648897
0.00758288
0.0080716
0.00812105
0.00783057
0.00732128
0.0066603
0.00594184
0.00516117
0.00439898
0.00363508
0.00291664
0.00221024
0.0015545
0.000908413
0.000312816
-0.200511
-0.210864
-0.222072
-0.235897
-0.252922
-0.273163
-0.296044
-0.320678
-0.345713
-0.369668
-0.391334
-0.408623
-0.419711
-0.42402
-0.420337
-0.407259
-0.384436
-0.352538
-0.313034
-0.268173
-0.220637
-0.173284
-0.128425
-0.0870201
-0.0498639
-0.0175677
0.0100113
0.032742
0.0502446
0.0620495
0.0695478
0.0706762
0.0620205
0.041109
0.0140764
-0.00842647
-0.0198324
-0.0217336
-0.017982
-0.012392
-0.00682574
-0.00206941
0.00164659
0.00435553
0.00617027
0.00726732
0.00778952
0.0078868
0.00764687
0.00718653
0.00656529
0.00586766
0.00513572
0.00435839
0.00360321
0.00289322
0.0021946
0.00154543
0.000905491
0.000311164
-0.19304
-0.205633
-0.217477
-0.229898
-0.24443
-0.261655
-0.281287
-0.30243
-0.323767
-0.344052
-0.361647
-0.375212
-0.383623
-0.385646
-0.380568
-0.367636
-0.346622
-0.318158
-0.28349
-0.244348
-0.202733
-0.160781
-0.12043
-0.0827447
-0.0484973
-0.0183355
0.00760114
0.0290975
0.0457659
0.0572811
0.0647437
0.0663049
0.0587528
0.0401278
0.0158495
-0.00443707
-0.0150334
-0.0173846
-0.0148923
-0.0105025
-0.00586222
-0.00172485
0.00161833
0.00412449
0.00584941
0.0069222
0.0074586
0.00758893
0.00739251
0.00697621
0.00639577
0.00573388
0.0050068
0.00428409
0.00354999
0.00285487
0.00216979
0.00152978
0.00089826
0.00030788
-0.185565
-0.199937
-0.211954
-0.223039
-0.235166
-0.249376
-0.265609
-0.283002
-0.300411
-0.316518
-0.330446
-0.341388
-0.347812
-0.348493
-0.343251
-0.331802
-0.313745
-0.289277
-0.259282
-0.225075
-0.188272
-0.150692
-0.114064
-0.0795233
-0.0478393
-0.019652
0.00474406
0.0250906
0.0410242
0.0524001
0.0594061
0.0608688
0.0542557
0.0383377
0.0176739
1.99245e-05
-0.0100132
-0.0132143
-0.0119658
-0.00872725
-0.0049522
-0.00139579
0.0015891
0.00389293
0.0055218
0.00656377
0.00710927
0.00726941
0.00711501
0.00674312
0.00620597
0.00558547
0.00489507
0.00419675
0.00348517
0.00280705
0.00213818
0.00150921
0.000888337
0.000304059
-0.17843
-0.192676
-0.204264
-0.214131
-0.224207
-0.23575
-0.248914
-0.263075
-0.277224
-0.290286
-0.301479
-0.310202
-0.314939
-0.314981
-0.310082
-0.299898
-0.284058
-0.262646
-0.236295
-0.206158
-0.17368
-0.140349
-0.107551
-0.0763062
-0.0473427
-0.0212796
0.00148337
0.0206375
0.0358018
0.0467339
0.0534158
0.0549903
0.0496079
0.0365486
0.0192762
0.00387361
-0.00549547
-0.00944537
-0.00927597
-0.00704848
-0.00405924
-0.00105454
0.00157579
0.0036717
0.00519643
0.00620077
0.00675044
0.00693779
0.00682432
0.00649745
0.0060059
0.00542567
0.00476972
0.00409864
0.00341235
0.00275321
0.00210208
0.00148563
0.000876869
0.000300106
-0.169897
-0.183773
-0.194847
-0.203722
-0.212218
-0.22165
-0.232364
-0.243951
-0.25557
-0.266361
-0.275447
-0.281876
-0.285197
-0.284743
-0.280056
-0.270827
-0.256827
-0.238126
-0.215251
-0.189111
-0.16077
-0.131362
-0.102033
-0.0737529
-0.0472667
-0.0231989
-0.00201926
0.0159036
0.0302084
0.0406563
0.0471046
0.0488933
0.0447471
0.0342118
0.0199257
0.00667631
-0.00224966
-0.00626818
-0.00689199
-0.00550705
-0.00321513
-0.00072193
0.00156729
0.00345592
0.00487157
0.00583245
0.00638131
0.00659255
0.006518
0.00623517
0.00578858
0.00524837
0.00462983
0.00398961
0.00333073
0.00269266
0.00206087
0.00145868
0.000863374
0.000295598
-0.16032
-0.173961
-0.184499
-0.192518
-0.199765
-0.20756
-0.216347
-0.225843
-0.235343
-0.244028
-0.251114
-0.255968
-0.258203
-0.257294
-0.252803
-0.244487
-0.232201
-0.215991
-0.196212
-0.1735
-0.148682
-0.122705
-0.0965623
-0.0711436
-0.047143
-0.0251393
-0.00561719
0.0110288
0.0244477
0.0343748
0.0405953
0.0425963
0.0395328
0.0311916
0.019611
0.00845415
0.000410161
-0.00367702
-0.00485416
-0.00413992
-0.00244442
-0.000411703
0.00155663
0.0032423
0.0045459
0.00545832
0.00600155
0.006233
0.00619476
0.00595469
0.00555342
0.00505517
0.00447618
0.00386884
0.00323935
0.00262452
0.00201383
0.00142777
0.000847334
0.000290256
-0.150655
-0.163661
-0.173582
-0.180858
-0.187096
-0.193582
-0.200789
-0.208528
-0.216202
-0.223116
-0.228654
-0.232299
-0.233686
-0.232431
-0.228193
-0.220757
-0.210004
-0.195946
-0.178815
-0.15909
-0.137447
-0.114664
-0.0915495
-0.0688577
-0.0472269
-0.0272103
-0.00929756
0.00610103
0.0186309
0.0280088
0.0339781
0.0362317
0.0341585
0.0277491
0.0185551
0.00934245
0.00230393
-0.0016646
-0.00317654
-0.00296674
-0.00176474
-0.000136945
0.00153559
0.00302645
0.00421762
0.00507795
0.00561136
0.00585963
0.00585541
0.00565723
0.00530148
0.00484615
0.00430806
0.00373568
0.00313769
0.00254832
0.00196058
0.00139257
0.000828519
0.000284003
-0.140853
-0.153041
-0.162323
-0.168943
-0.174342
-0.179749
-0.185654
-0.191944
-0.198136
-0.203658
-0.207984
-0.210667
-0.211411
-0.209939
-0.205984
-0.199355
-0.189945
-0.177754
-0.162948
-0.145889
-0.1271
-0.107196
-0.0868353
-0.0666667
-0.047279
-0.0291909
-0.0128686
0.00128095
0.0129088
0.0217299
0.027502
0.0299786
0.0288024
0.0240591
0.0169253
0.00948563
0.00349486
-0.000191881
-0.00185634
-0.00200123
-0.0011925
8.91972e-05
0.00149567
0.00280368
0.00388467
0.00469091
0.00521119
0.00547326
0.00550078
0.00534323
0.00503265
0.00462097
0.00412521
0.00358989
0.00302544
0.00246373
0.00190079
0.00135282
0.000806789
0.000276786
-0.130935
-0.142347
-0.150976
-0.15698
-0.161662
-0.166179
-0.171029
-0.176158
-0.181176
-0.18559
-0.188947
-0.190881
-0.191162
-0.189578
-0.185921
-0.180031
-0.171816
-0.161272
-0.148514
-0.133806
-0.117545
-0.100221
-0.0823756
-0.0645603
-0.0472971
-0.0310587
-0.0162788
-0.00335022
0.00738892
0.0156639
0.0212456
0.023944
0.0235645
0.0202453
0.014881
0.0090357
0.00407492
0.000785945
-0.000883204
-0.00125107
-0.000740603
0.000254878
0.00142837
0.00256891
0.00354465
0.00429652
0.00480123
0.00507437
0.00513137
0.00501313
0.00474729
0.00437987
0.00392766
0.00343124
0.00290224
0.00237037
0.00183414
0.00130825
0.000782008
0.000268534
-0.121239
-0.13179
-0.13973
-0.145151
-0.149219
-0.153007
-0.157007
-0.161206
-0.165282
-0.16881
-0.171407
-0.172781
-0.172743
-0.171129
-0.167783
-0.162577
-0.155434
-0.146341
-0.135376
-0.122732
-0.108711
-0.0937009
-0.078143
-0.0624976
-0.0472183
-0.0327301
-0.01943
-0.00768431
0.00218601
0.00992294
0.0153151
0.0182148
0.0185276
0.0164177
0.0125597
0.00812123
0.00413468
0.00131909
-0.00023973
-0.000718522
-0.000418894
0.000349677
0.00132567
0.00231704
0.00319491
0.0038938
0.00438154
0.00466352
0.00474797
0.00466773
0.00444602
0.0041232
0.00371547
0.00325894
0.00276787
0.00226795
0.00176036
0.00125861
0.000754046
0.000259185
-0.111842
-0.121466
-0.128713
-0.133596
-0.137139
-0.140327
-0.143637
-0.147086
-0.150407
-0.153237
-0.155253
-0.156218
-0.155976
-0.1544
-0.151375
-0.146804
-0.140618
-0.132802
-0.123409
-0.112578
-0.100538
-0.0875936
-0.0740999
-0.060438
-0.0469962
-0.0341496
-0.0222544
-0.0116433
-0.00261386
0.00459454
0.0097925
0.01286
0.013759
0.0126607
0.0100712
0.00681304
0.00375893
0.00146033
9.78754e-05
-0.000399645
-0.000232683
0.000365644
0.00118039
0.00204297
0.00283251
0.00348161
0.00395219
0.00424142
0.00435144
0.00430784
0.0041295
0.00385143
0.00348893
0.00307445
0.00262228
0.00215625
0.00167921
0.00120372
0.000722795
0.000248695
-0.102725
-0.111468
-0.11805
-0.122435
-0.125524
-0.128216
-0.130964
-0.133807
-0.136527
-0.138815
-0.140394
-0.141067
-0.140709
-0.139223
-0.136523
-0.132536
-0.127208
-0.120518
-0.112502
-0.10326
-0.092966
-0.0818557
-0.070213
-0.0583508
-0.0465963
-0.0352742
-0.0246986
-0.0151655
-0.00694425
-0.000253759
0.00473829
0.00793271
0.00931397
0.00903221
0.00748238
0.00526881
0.00304084
0.00126892
0.000159273
-0.000284838
-0.000183447
0.000296875
0.00098624
0.00174195
0.00245472
0.00305875
0.00351306
0.00380867
0.00394274
0.00393437
0.00379856
0.00356522
0.00324845
0.00287724
0.00246539
0.00203513
0.00159057
0.00114341
0.000688175
0.000237037
-0.0940013
-0.1019
-0.107841
-0.111763
-0.114456
-0.116734
-0.119024
-0.12138
-0.123624
-0.12549
-0.126742
-0.127216
-0.126809
-0.125449
-0.123071
-0.119623
-0.115059
-0.109362
-0.102551
-0.0946994
-0.0859378
-0.0764479
-0.0664551
-0.0562134
-0.0459948
-0.0360754
-0.0267273
-0.0182095
-0.0107604
-0.00457657
0.00019309
0.00346491
0.00522978
0.00561326
0.00490821
0.00356471
0.00206819
0.000803722
-2.25355e-05
-0.000360088
-0.000268695
0.000140477
0.000738887
0.00141019
0.00205902
0.00262408
0.00306399
0.00336574
0.00352278
0.00354849
0.00345425
0.00326534
0.00299454
0.00266751
0.00229702
0.00190465
0.00149439
0.0010776
0.000650137
0.000224197
-0.0857462
-0.0928185
-0.0981451
-0.10164
-0.103989
-0.105923
-0.107839
-0.109803
-0.111668
-0.113206
-0.114217
-0.114562
-0.114156
-0.112944
-0.110881
-0.107925
-0.104044
-0.099218
-0.0934604
-0.0868224
-0.079401
-0.071336
-0.0628046
-0.0540113
-0.0451792
-0.0365391
-0.0283229
-0.0207533
-0.0140377
-0.00834975
-0.00382197
-0.000527335
0.00152487
0.00243122
0.00240557
0.00177996
0.000915416
0.000121398
-0.000411249
-0.000606399
-0.000481302
-0.000103118
0.000435928
0.00104482
0.00164319
0.00217648
0.002605
0.00291331
0.00309239
0.00315114
0.00309768
0.0029528
0.00272792
0.00244569
0.00211821
0.00176501
0.00139075
0.00100626
0.000608669
0.000210173
-0.07795
-0.084247
-0.0890007
-0.0921067
-0.0941585
-0.0958067
-0.0974183
-0.0990649
-0.100628
-0.101913
-0.102748
-0.103016
-0.102646
-0.101594
-0.0998289
-0.0973217
-0.0940457
-0.0899849
-0.0851452
-0.0795626
-0.0733089
-0.0664905
-0.059246
-0.0517381
-0.0441478
-0.0366648
-0.0294837
-0.0227931
-0.0167707
-0.0115677
-0.00730106
-0.00403663
-0.00178745
-0.000485051
2.26522e-05
-2.22885e-05
-0.000352225
-0.000723362
-0.000968492
-0.00100114
-0.000810515
-0.000430482
7.696e-05
0.000644159
0.00120583
0.00171521
0.00213604
0.0024522
0.00265289
0.00274345
0.0027297
0.00262853
0.00244954
0.00221259
0.00192895
0.00161625
0.00127977
0.000929473
0.000563785
0.000194969
-0.0706321
-0.0762153
-0.0804398
-0.0831929
-0.0849861
-0.0863963
-0.087759
-0.0891492
-0.0904722
-0.0915615
-0.0922691
-0.092495
-0.0921813
-0.0912931
-0.0898078
-0.0877045
-0.0849637
-0.0815714
-0.077529
-0.072861
-0.0676203
-0.0618873
-0.0557694
-0.0493948
-0.0429083
-0.0364639
-0.0302223
-0.024341
-0.0189703
-0.0142391
-0.0102507
-0.00706587
-0.00470289
-0.00311684
-0.00220247
-0.00178788
-0.00167653
-0.00167944
-0.00165583
-0.00151919
-0.00124226
-0.000835113
-0.000335848
0.000208167
0.0007463
0.00124008
0.00165734
0.00198283
0.00220544
0.0023273
0.00235192
0.00229343
0.0021601
0.0019689
0.00172974
0.00145871
0.00116182
0.0008474
0.000515561
0.000178592
-0.0638164
-0.0687384
-0.0724745
-0.074908
-0.0764771
-0.0776891
-0.0788485
-0.0800311
-0.0811613
-0.0820986
-0.0827149
-0.0829233
-0.0826766
-0.0819478
-0.0807198
-0.0789778
-0.0767076
-0.0738967
-0.070544
-0.0666658
-0.0623004
-0.0575077
-0.0523704
-0.0469885
-0.0414765
-0.0359578
-0.0305631
-0.0254219
-0.0206596
-0.0163854
-0.0126893
-0.00962778
-0.00722375
-0.00545114
-0.00424067
-0.00347327
-0.00300799
-0.00270031
-0.00243554
-0.00213365
-0.00175952
-0.00130764
-0.000798033
-0.000261236
0.00026512
0.000751146
0.00116959
0.00150632
0.00175069
0.0019035
0.00196627
0.00194973
0.0018609
0.00171509
0.00152114
0.00129282
0.00103738
0.000760279
0.000464103
0.000161119
-0.0574952
-0.0618114
-0.0651019
-0.0672486
-0.0686241
-0.0696717
-0.070665
-0.0716789
-0.0726544
-0.0734728
-0.074023
-0.0742308
-0.0740554
-0.0734754
-0.0724796
-0.0710579
-0.0691984
-0.0668904
-0.0641317
-0.0609324
-0.0573198
-0.0533379
-0.0490496
-0.0445319
-0.0398747
-0.0351755
-0.0305391
-0.0260704
-0.021873
-0.0180382
-0.014644
-0.0117417
-0.00935809
-0.00748196
-0.00607095
-0.00504471
-0.00430507
-0.00374428
-0.0032716
-0.00281705
-0.0023436
-0.00183638
-0.00130294
-0.000760572
-0.000235552
0.000249791
0.000673505
0.00102398
0.00129078
0.00147321
0.00157271
0.00159815
0.00155417
0.00145324
0.00130413
0.00111877
0.000907231
0.000668439
0.000409427
0.000142542
-0.0516576
-0.0554263
-0.058314
-0.0602046
-0.0614129
-0.0623238
-0.0631815
-0.0640582
-0.0649084
-0.0656332
-0.0661359
-0.0663507
-0.0662446
-0.0658015
-0.0650128
-0.0638709
-0.0623667
-0.0604916
-0.0582421
-0.0556235
-0.052655
-0.0493686
-0.0458112
-0.0420416
-0.0381298
-0.0341515
-0.0301898
-0.0263286
-0.0226524
-0.0192368
-0.0161481
-0.0134331
-0.0111206
-0.00921028
-0.00767937
-0.00647591
-0.00553366
-0.00477509
-0.0041309
-0.00354236
-0.00297455
-0.00240808
-0.00184216
-0.00128469
-0.000752758
-0.000261569
0.000171352
0.000537025
0.000827113
0.00103965
0.00117428
0.00123892
0.00123866
0.00118393
0.00108148
0.000937055
0.000772829
0.000572437
0.000351759
0.000122508
-0.0462944
-0.0495701
-0.0520951
-0.0537574
-0.0548212
-0.0556185
-0.0563654
-0.0571303
-0.057878
-0.0585275
-0.0589994
-0.059222
-0.0591786
-0.058857
-0.05825
-0.0573503
-0.0561519
-0.054647
-0.0528312
-0.0507067
-0.0482868
-0.045594
-0.0426628
-0.0395373
-0.0362715
-0.0329237
-0.0295589
-0.0262431
-0.0230446
-0.0200251
-0.0172407
-0.0147331
-0.0125314
-0.0106429
-0.00905874
-0.00774747
-0.00666667
-0.00576232
-0.00498371
-0.00428382
-0.00363201
-0.0030078
-0.00240591
-0.0018273
-0.00128223
-0.000780471
-0.000334708
4.83628e-05
0.000361335
0.000603237
0.000773921
0.000877796
0.000918265
0.000906502
0.000849818
0.000763461
0.000639493
0.000473502
0.000291958
0.000102984
-0.0413887
-0.0442226
-0.0464226
-0.0478821
-0.0488212
-0.049524
-0.0501798
-0.0508525
-0.0515164
-0.0521019
-0.0525367
-0.0527755
-0.0527939
-0.0525804
-0.0521298
-0.0514389
-0.0505017
-0.0493106
-0.0478618
-0.0461557
-0.0442005
-0.0420115
-0.039614
-0.0370404
-0.0343315
-0.031532
-0.0286919
-0.0258629
-0.0230991
-0.0204504
-0.0179639
-0.0156759
-0.0136146
-0.0117919
-0.0102085
-0.00884741
-0.00768352
-0.00668098
-0.00580438
-0.00501764
-0.00429604
-0.00362007
-0.00298241
-0.00238045
-0.00181881
-0.00130275
-0.000842206
-0.000440592
-0.000103339
0.000166585
0.000370115
0.000513622
0.000597602
0.00062759
0.000612955
0.000569093
0.000492695
0.00036709
0.000226374
7.88655e-05
-0.0369197
-0.0393605
-0.0412708
-0.042551
-0.0433825
-0.0440064
-0.0445872
-0.0451835
-0.0457761
-0.046308
-0.0467189
-0.0469686
-0.0470375
-0.0469166
-0.0466013
-0.0460873
-0.0453697
-0.0444429
-0.0433031
-0.0419488
-0.0403846
-0.038621
-0.0366759
-0.0345724
-0.0323413
-0.0300159
-0.0276349
-0.0252375
-0.0228665
-0.0205617
-0.0183621
-0.0162986
-0.0143979
-0.012674
-0.0111336
-0.00976993
-0.00857
-0.00751151
-0.00657133
-0.00572322
-0.00494823
-0.00422974
-0.00356032
-0.00293494
-0.00235558
-0.00182424
-0.00134684
-0.000926154
-0.000566104
-0.000267299
-3.05219e-05
0.000146089
0.0002674
0.000343195
0.000377954
0.000382064
0.000417244
0.000264453
0.000165494
6.11886e-05
-0.0328656
-0.0349585
-0.036612
-0.0377339
-0.0384726
-0.0390308
-0.03955
-0.0400831
-0.0406165
-0.0411033
-0.0414948
-0.0417543
-0.0418668
-0.0418214
-0.0416167
-0.0412491
-0.0407152
-0.0400095
-0.0391276
-0.0380669
-0.0368302
-0.0354239
-0.0338603
-0.0321553
-0.0303316
-0.0284141
-0.0264321
-0.0244153
-0.0223968
-0.0204078
-0.0184802
-0.0166403
-0.0149119
-0.0133098
-0.0118441
-0.0105149
-0.00931732
-0.00823916
-0.00726671
-0.00638167
-0.00557126
-0.00482172
-0.00412658
-0.00348118
-0.00288489
-0.00233731
-0.00184405
-0.0014045
-0.0010203
-0.000695337
-0.00042872
-0.000214358
-5.50048e-05
5.2224e-05
0.000110938
0.000135066
7.80895e-05
0.000119984
8.35851e-05
2.95904e-05
-0.0292038
-0.0309901
-0.0324168
-0.0333995
-0.0340582
-0.0345615
-0.0350302
-0.0355113
-0.0359959
-0.0364466
-0.0368224
-0.0370922
-0.0372329
-0.0372476
-0.0371333
-0.0368867
-0.0365044
-0.0359808
-0.0353119
-0.034495
-0.0335308
-0.0324226
-0.0311786
-0.0298097
-0.028332
-0.0267634
-0.0251261
-0.0234424
-0.0217377
-0.0200359
-0.0183631
-0.0167406
-0.0151895
-0.013724
-0.0123558
-0.011089
-0.00992448
-0.00885678
-0.00787926
-0.00698057
-0.00615258
-0.00538494
-0.00467321
-0.00401245
-0.00340189
-0.00284055
-0.00233091
-0.00187252
-0.00146705
-0.00111609
-0.000817731
-0.000570621
-0.000370839
-0.000212518
-9.22726e-05
-2.80952e-05
-1.74203e-05
2.77157e-05
3.45416e-05
1.89656e-05
-0.0259105
-0.0274281
-0.0286551
-0.0295156
-0.030105
-0.0305623
-0.0309889
-0.031426
-0.031868
-0.0322843
-0.0326409
-0.0329114
-0.0330816
-0.0331473