/*--------------------------------*- C++ -*----------------------------------*\
| =========                 |                                                 |
| \\      /  F ield         | OpenFOAM: The Open Source CFD Toolbox           |
|  \\    /   O peration     | Version:  2512                                  |
|   \\  /    A nd           | Website:  www.openfoam.com                      |
|    \\/     M anipulation  |                                                 |
\*---------------------------------------------------------------------------*/
FoamFile
{
    version     2.0;
    format      ascii;
    arch        "LSB;label=32;scalar=64";
    class       surfaceScalarField;
    location    "36";
    object      phi;
}
// * * * * * * * * * * * * * * * * * * * * * * * * * * * * * * * * * * * * * //

dimensions      [0 3 -1 0 0 0 0];

oriented        oriented;

internalField   nonuniform List<scalar> 
26232
(
-0.000302918
0.000866459
-0.000563542
-0.00081003
0.00185268
-0.00134557
-0.00123251
0.00228206
-0.00185958
-0.00132323
0.00217934
-0.00208863
-0.000846264
0.00150314
-0.00198011
0.000443707
0.00016901
-0.00145898
0.00279867
-0.00191584
-0.00043912
0.0064846
-0.00484395
0.00115802
0.0117433
-0.0086609
0.00340221
0.0187578
-0.0133523
0.00633785
0.027617
-0.0188319
0.00997271
0.0382923
-0.0249488
0.0142734
0.0506322
-0.031507
0.0191671
0.064374
-0.038293
0.0245512
0.0791717
-0.0450965
0.0302989
0.0946209
-0.0517432
0.036294
0.110306
-0.0580737
0.0423884
0.125805
-0.0640266
0.0485273
0.14076
-0.069486
0.0545311
0.154813
-0.0745578
0.060505
0.16783
-0.079104
0.0660873
0.179347
-0.0834681
0.0719513
0.189881
-0.0872537
0.0767191
-0.0914327
0.0834832
0.197831
-0.000228537
0.001095
-0.000532519
0.00215666
-0.000594478
0.00234402
-0.000112948
0.00169781
0.00122038
0.000169812
0.0037191
-0.00232971
0.00769871
-0.00589546
0.0134239
-0.0105692
0.0210615
-0.0162985
0.03063
-0.0229208
0.0419765
-0.0301785
0.0547875
-0.0377598
0.0686263
-0.0453458
0.0829865
-0.0526531
0.0973511
-0.0594611
0.111238
-0.0656302
0.12426
-0.0710952
0.136118
-0.0758854
0.14668
-0.0800477
0.1559
-0.0837774
0.163898
-0.0871018
0.170832
-0.0904021
0.177063
-0.0934856
-0.097022
0.182653
-0.000122919
0.00121792
-0.000131184
0.00216493
0.000324311
0.00188852
0.00160527
0.000416856
0.00408496
-0.00230987
0.0081294
-0.00637415
0.0140374
-0.0118034
0.0219635
-0.0184952
0.0318516
-0.0261867
0.0434145
-0.0344837
0.0561695
-0.0429335
0.069515
-0.0511053
0.0828233
-0.0586541
0.0955267
-0.0653566
0.107186
-0.0711208
0.117533
-0.0759769
0.126487
-0.080049
0.134137
-0.0835355
0.140729
-0.0866393
0.146571
-0.08962
0.152024
-0.092555
0.157404
-0.0957816
0.162903
-0.0989844
-0.102801
0.168681
-8.13278e-06
0.00122605
0.000337451
0.00181934
0.00143227
0.000793699
0.00369776
-0.00184863
0.00755511
-0.00616723
0.0133517
-0.0121707
0.021249
-0.0197008
0.0311278
-0.028374
0.042568
-0.0376269
0.0549224
-0.0468381
0.0674472
-0.0554583
0.0794426
-0.0631006
0.0903661
-0.0695776
0.0999018
-0.0748923
0.10798
-0.0791992
0.11475
-0.0827465
0.120519
-0.0858181
0.125657
-0.0886738
0.130535
-0.0915171
0.135398
-0.0944829
0.140436
-0.0975931
0.145619
-0.100964
0.150926
-0.104292
-0.108165
0.156291
0.000109201
0.00111685
0.000855419
0.00107313
0.00269748
-0.00104836
0.00610941
-0.00526056
0.0115017
-0.0115596
0.019074
-0.0197429
0.0286713
-0.0292982
0.0397563
-0.039459
0.0515277
-0.0493983
0.0631223
-0.0584327
0.0738102
-0.0661462
0.0831259
-0.0724163
0.0909158
-0.0773676
0.0973085
-0.0812849
0.102625
-0.0845154
0.107263
-0.0873848
0.111586
-0.0901416
0.115854
-0.0929415
0.120192
-0.0958553
0.124614
-0.098905
0.129097
-0.102076
0.133532
-0.105399
0.138005
-0.108764
-0.112509
0.142348
0.000238231
0.000878617
0.00144667
-0.000135317
0.00415174
-0.00375343
0.00883773
-0.00994655
0.0157821
-0.018504
0.0248464
-0.0288071
0.0354092
-0.039861
0.0465303
-0.05058
0.057239
-0.060107
0.0667931
-0.0679868
0.0748165
-0.0741697
0.0813052
-0.0789049
0.0865305
-0.0825929
0.0908933
-0.0856478
0.0947839
-0.0884059
0.0984885
-0.0910894
0.102165
-0.0938179
0.105865
-0.0966415
0.109588
-0.0995784
0.113322
-0.102639
0.117072
-0.105826
0.120852
-0.10918
0.12471
-0.112622
-0.116389
0.12859
0.000397341
0.000481276
0.00215013
-0.00188811
0.00582324
-0.00742654
0.011812
-0.0159353
0.0200717
-0.0267637
0.0299626
-0.0386981
0.040427
-0.0503254
0.0503804
-0.0605334
0.0590507
-0.0687773
0.0661224
-0.0750585
0.0716916
-0.0797388
0.0761062
-0.0833195
0.0797826
-0.0862693
0.0830703
-0.0889355
0.0861949
-0.0915306
0.0892705
-0.094165
0.0923422
-0.0968896
0.0954291
-0.0997284
0.0985468
-0.102696
0.101706
-0.105798
0.104925
-0.109045
0.108173
-0.112428
0.111477
-0.115926
-0.119653
0.11474
0.00059865
-0.000117374
0.00297644
-0.0042659
0.00766334
-0.0121134
0.014797
-0.023069
0.023829
-0.0357957
0.0336301
-0.0484991
0.0429796
-0.059675
0.051023
-0.0685768
0.0574445
-0.0751987
0.0623797
-0.0799938
0.0662053
-0.0835644
0.0693332
-0.0864474
0.0720875
-0.0890236
0.0746718
-0.0915197
0.0771946
-0.0940534
0.079709
-0.0966795
0.0822412
-0.0994218
0.0848029
-0.10229
0.0873939
-0.105287
0.0900102
-0.108415
0.0926393
-0.111674
0.095274
-0.115063
0.0979347
-0.118586
-0.122267
0.100549
0.000840641
-0.000958015
0.00389292
-0.00731818
0.00952049
-0.017741
0.017414
-0.0309625
0.0264757
-0.0448574
0.0353344
-0.0573579
0.0429742
-0.0673147
0.0489945
-0.0745972
0.0535102
-0.0797143
0.0568988
-0.0833824
0.0595735
-0.0862391
0.0618576
-0.0887315
0.063957
-0.091123
0.0659843
-0.0935471
0.0679938
-0.0960629
0.070007
-0.0986926
0.0720284
-0.101443
0.0740557
-0.104317
0.0760872
-0.107319
0.0781239
-0.110451
0.0801698
-0.11372
0.0822281
-0.117121
0.0842968
-0.120655
-0.124313
0.0863427
0.00111205
-0.00207006
0.00482435
-0.0110305
0.0111694
-0.024086
0.0192708
-0.0390639
0.0276517
-0.0532382
0.0350498
-0.064756
0.0408744
-0.0731394
0.0451494
-0.0788721
0.0482298
-0.0827948
0.0505377
-0.0856903
0.0524137
-0.0881151
0.0540781
-0.0903959
0.0556503
-0.0926952
0.0571851
-0.0950819
0.0587028
-0.0975806
0.0602095
-0.100199
0.0617073
-0.102941
0.0631994
-0.105809
0.0646889
-0.108808
0.0661776
-0.11194
0.0676622
-0.115204
0.069136
-0.118595
0.0705931
-0.122112
-0.125723
0.0720033
0.00139129
-0.00346135
0.00566935
-0.0153085
0.0123783
-0.030795
0.0201157
-0.0468013
0.0273337
-0.0604562
0.0331246
-0.0705469
0.0373247
-0.0773394
0.0402251
-0.0817726
0.0422542
-0.0848238
0.0437816
-0.0872177
0.0450528
-0.0893864
0.0462019
-0.091545
0.0472905
-0.0937837
0.0483432
-0.0961346
0.0493695
-0.098607
0.0503739
-0.101204
0.051359
-0.103926
0.052326
-0.106776
0.0532753
-0.109757
0.0542063
-0.112871
0.0551172
-0.116115
0.0560068
-0.119485
0.0568623
-0.122968
-0.126537
0.0576761
0.00165489
-0.00511624
0.00632632
-0.01998
0.0129863
-0.037455
0.0199102
-0.0537251
0.0257575
-0.0663035
0.0300366
-0.074826
0.0328948
-0.0801976
0.0347423
-0.08362
0.035983
-0.0860646
0.0369017
-0.0881364
0.0376587
-0.0901434
0.0383302
-0.0922164
0.0389475
-0.0944011
0.0395229
-0.0967099
0.040061
-0.0991451
0.0405637
-0.101706
0.0410323
-0.104395
0.0414686
-0.107213
0.041875
-0.110164
0.0422534
-0.113249
0.0426038
-0.116466
0.0429209
-0.119802
0.0431944
-0.123241
0.0434238
-0.126767
-0.000310278
-0.00252546
0.00283574
-0.00107039
-0.00502448
0.00578459
-0.0021726
-0.00595253
0.00705474
-0.00353804
-0.00594331
0.00730876
-0.00511271
-0.00544558
0.00702024
-0.00686337
-0.00472434
0.006475
-0.00877261
-0.00389518
0.00580443
-0.0108349
-0.0029785
0.00504082
-0.0130531
-0.00195048
0.00416861
-0.0154362
-0.000773862
0.00315701
-0.0179909
0.000581324
0.00197336
-0.0207216
0.00214971
0.000581022
-0.0236622
0.00395267
-0.00101211
-0.0268081
0.00602147
-0.00287554
-0.0301717
0.00837991
-0.00501625
-0.0337549
0.0110509
-0.00746784
-0.0375551
0.0140527
-0.0102525
-0.0415639
0.017397
-0.0133882
-0.0457661
0.0210878
-0.0168856
-0.050139
0.0251188
-0.0207458
-0.0546487
0.0294678
-0.0249582
-0.0592493
0.034098
-0.0294974
-0.0639113
0.0389833
-0.0343213
0.04412
-0.0686761
-0.0393552
-0.00034721
-0.00217825
-0.00115731
-0.00421438
-0.00229745
-0.00481239
-0.00368421
-0.00455655
-0.00526708
-0.00386271
-0.00701597
-0.00297544
-0.0089127
-0.00199846
-0.0109467
-0.000944547
-0.013111
0.000213878
-0.0154027
0.00151779
-0.0178236
0.00300226
-0.0203708
0.00469688
-0.0230446
0.00662648
-0.0258372
0.00881404
-0.0287365
0.0112793
-0.0317234
0.0140379
-0.0347704
0.0170996
-0.0378402
0.0204668
-0.0408854
0.024133
-0.0438483
0.0280816
-0.0466627
0.0322823
-0.0492442
0.0366795
-0.0514599
0.0411989
0.0458856
-0.0532254
-0.000350307
-0.00182795
-0.0011417
-0.00342299
-0.00223099
-0.00372311
-0.00353535
-0.00325219
-0.00500847
-0.00238959
-0.00662209
-0.00136182
-0.00835456
-0.000265989
-0.0101845
0.000885399
-0.0120948
0.00212416
-0.0140679
0.0034909
-0.0160874
0.00502181
-0.0181356
0.00674498
-0.0201911
0.008682
-0.0222268
0.0108498
-0.024208
0.0132604
-0.0260908
0.0159207
-0.0278213
0.0188302
-0.0293341
0.0219797
-0.0305512
0.0253501
-0.0313801
0.0289105
-0.0317196
0.0326219
-0.0314774
0.0364372
-0.0305376
0.0402592
0.0438705
-0.0285226
-0.000325897
-0.00150205
-0.0010444
-0.00270448
-0.00201237
-0.00275513
-0.00314993
-0.00211463
-0.00441428
-0.00112524
-0.00577783
1.7248e-06
-0.00721391
0.00117009
-0.0086931
0.0023646
-0.0101818
0.00361284
-0.0116454
0.00495448
-0.0130486
0.00642503
-0.0143544
0.00805084
-0.015522
0.00984952
-0.0165039
0.0118317
-0.0172451
0.0140016
-0.0176813
0.0163569
-0.0177391
0.0188879
-0.0173345
0.0215751
-0.0163711
0.0243867
-0.0147396
0.027279
-0.0123266
0.0302089
-0.00900364
0.0331143
-0.00466904
0.0359246
0.0386045
0.000597012
-0.000285344
-0.0012167
-0.00090036
-0.00208947
-0.00170655
-0.00194895
-0.00262585
-0.00119533
-0.00361636
-0.000134728
-0.00465017
0.00103553
-0.00569727
0.00221719
-0.00671959
0.00338691
-0.00767084
0.00456409
-0.00849987
0.0057835
-0.00915298
0.00707814
-0.00957434
0.00847221
-0.00970499
0.00998016
-0.00948067
0.0116074
-0.00883051
0.0133515
-0.00767497
0.0152014
-0.00593034
0.0171433
-0.00350278
0.0191475
-0.000295161
0.0211791
0.00378807
0.0231958
0.00886933
0.0251276
0.0151018
0.0268819
0.0224642
0.0285622
0.029497
0.0315716
-0.000242777
-0.000973928
-0.000752663
-0.00157958
-0.00139424
-0.00130737
-0.00208696
-0.000502616
-0.00278589
0.000564204
-0.00346009
0.00170973
-0.004077
0.0028341
-0.00459373
0.00390364
-0.00495601
0.00492637
-0.005101
0.00592849
-0.00496052
0.00693767
-0.00446346
0.00797515
-0.00353591
0.00905261
-0.00210136
0.0101728
-7.9867e-05
0.01133
0.00260984
0.0125117
0.00606111
0.013692
0.0103653
0.0148434
0.015612
0.0159323
0.0219228
0.016885
0.0293144
0.017736
0.0380555
0.0181407
0.0478541
0.0187636
0.0177155
0.0596356
-0.00021217
-0.000761758
-0.000644048
-0.0011477
-0.00115692
-0.000794497
-0.00166181
2.27732e-06
-0.00210515
0.00100754
-0.00245009
0.00205467
-0.00266065
0.00304467
-0.00269201
0.00393501
-0.0024871
0.00472145
-0.00197827
0.00541967
-0.00109082
0.00605021
0.000254753
0.00662957
0.00214043
0.00716694
0.00464992
0.00766331
0.00786824
0.00811165
0.011882
0.00849789
0.0167725
0.00880152
0.0226316
0.00898425
0.029506
0.00905792
0.0375692
0.00882181
0.0466673
0.00863792
0.0573311
0.00747697
0.0687679
0.00732681
0.00405844
0.0824249
-0.000204363
-0.000557395
-0.000607305
-0.00074476
-0.00105794
-0.00034386
-0.00145308
0.000397415
-0.00172634
0.00128081
-0.00183134
0.00215967
-0.00172692
0.00294024
-0.00136669
0.00357478
-0.000694114
0.00404887
0.000358015
0.00436754
0.00186583
0.0045424
0.00391104
0.00458436
0.00657846
0.00449952
0.00995401
0.00428777
0.0141252
0.00394047
0.0191793
0.00344381
0.0251933
0.00278747
0.032272
0.00190553
0.040404
0.00092591
0.04987
-0.000644104
0.0602879
-0.00177998
0.0725884
-0.00482358
0.0854247
-0.00550949
-0.0113756
0.100859
-0.000223732
-0.000333662
-0.00065436
-0.000314133
-0.00111996
0.000121737
-0.00149992
0.000777377
-0.00171225
0.00149313
-0.00169827
0.00214569
-0.0014084
0.00265037
-0.000791152
0.00295753
0.000213028
0.00304469
0.00167468
0.00290589
0.00367514
0.00254194
0.0063049
0.00195461
0.0096613
0.00114312
0.0138419
0.000107208
0.0189553
-0.001173
0.0251121
-0.00271295
0.0324023
-0.00450276
0.0409656
-0.0066577
0.0507822
-0.00889072
0.0622131
-0.012075
0.0747672
-0.0143341
0.0894352
-0.0194916
0.104796
-0.0208698
-0.0293997
0.12282
-0.000264291
-6.93709e-05
-0.000764351
0.000185927
-0.00130191
0.000659293
-0.00173616
0.00121163
-0.00196678
0.00172375
-0.00191753
0.00209645
-0.00152124
0.00225408
-0.000708
0.00214428
0.000604974
0.00173172
0.00251273
0.000998132
0.00512949
-7.48296e-05
0.00858293
-0.00149883
0.0130113
-0.00328529
0.0185591
-0.00544059
0.0253559
-0.00796973
0.0335238
-0.0108809
0.0431621
-0.014141
0.0543597
-0.0178553
0.0671552
-0.0216862
0.0815791
-0.0264989
0.0975808
-0.0303358
0.115153
-0.0370641
0.133983
-0.0396996
-0.0496908
0.154274
-0.000306817
0.000237446
-0.000878588
0.000757698
-0.00148685
0.00126756
-0.00196625
0.00169102
-0.00218984
0.00194735
-0.0020492
0.00195581
-0.00143721
0.00164209
-0.000235073
0.000942148
0.00169658
-0.00019993
0.0045104
-0.00181569
0.00838199
-0.00394642
0.0134854
-0.00660224
0.0199802
-0.00978009
0.0279983
-0.0134586
0.0376255
-0.0175969
0.0488984
-0.0221538
0.0618039
-0.0270465
0.0762382
-0.0322897
0.0921911
-0.0376391
0.109214
-0.043522
0.127701
-0.0488226
0.146383
-0.0557459
0.166597
-0.059914
-0.0689508
0.185857
-0.000326095
-0.000913967
-0.00150599
-0.00190359
-0.00193635
-0.00143952
-0.000236553
0.00186361
0.00506589
0.00958805
0.0156143
0.0232855
0.0326726
0.0437651
0.056467
0.0706072
0.0859491
0.102187
0.119079
0.136062
0.153326
0.169532
0.186337
0.200869
-0.0709879
0.0633425
-0.0610307
-0.072293
0.0715542
-0.0702491
-0.072501
0.0789104
-0.0787024
-0.0711568
0.0853019
-0.0866461
-0.0679672
0.0896043
-0.0927939
-0.0626244
0.0914747
-0.0968175
-0.0550104
0.0900149
-0.0976289
-0.0452369
0.0849337
-0.0947071
-0.0337071
0.0758647
-0.0873945
-0.0210154
0.0629098
-0.0756016
-0.00817886
0.0467577
-0.0595943
0.00390853
0.0278402
-0.0399276
0.0145184
0.00663907
-0.0172489
0.0234327
-0.0171318
0.00821742
0.0305794
-0.043982
0.0368352
0.0364855
-0.075649
0.0697429
0.0423269
-0.113192
0.107351
0.0486691
-0.153873
0.147531
0.0550145
-0.188706
0.182361
0.0603175
-0.208893
0.20359
0.0644498
-0.212109
0.207976
0.0636276
-0.200085
0.200907
0.0518337
-0.185306
0.1971
0.0338223
-0.181909
0.199921
0.0243115
-0.179384
0.188895
0.0301352
-0.150201
0.144377
0.0460335
-0.0889808
0.0730825
0.0660998
-0.0151063
-0.00496002
0.0860597
0.0519574
-0.0719173
0.103131
0.101479
-0.11855
0.115963
0.130235
-0.143066
0.12383
0.143129
-0.150996
0.127762
0.144895
-0.148826
0.130014
0.138353
-0.140604
0.130074
0.126668
-0.126729
0.125926
0.116564
-0.112415
0.12017
0.104888
-0.0991327
0.119061
0.0832761
-0.0821676
0.125388
0.0481683
-0.0544948
0.136312
0.00983217
-0.0207569
0.147503
-0.0229249
0.0117343
0.156358
-0.0441445
0.0352893
0.162236
-0.0559642
0.0500861
0.165497
-0.0591983
0.0559378
0.166532
-0.0583489
0.0573134
0.165689
-0.0539687
0.0548125
0.163715
-0.0494469
0.0514201
0.161894
-0.0423127
0.0441343
0.161406
-0.0337929
0.0342807
0.162538
-0.0211731
0.0200409
0.16475
-0.00841771
0.00620556
0.167087
0.00495489
-0.00729094
0.168996
0.014281
-0.0161907
0.170164
0.0216123
-0.0227799
0.170827
0.0242344
-0.0248977
0.171003
0.0256759
-0.0258522
0.171048
0.0241344
-0.024179
0.170944
0.0228796
-0.0227761
0.17091
0.0208373
-0.0208025
0.0192152
-0.0193445
-0.0530192
0.0631363
-0.0515888
0.0701238
-0.048933
0.0762546
-0.0446823
0.0810511
-0.0387644
0.0836864
-0.0310429
0.0837533
-0.0216753
0.0806472
-0.0108912
0.0741496
0.000771323
0.0642022
0.0123418
0.0513393
0.0234628
0.0356368
0.0335319
0.0177711
0.0423665
-0.00219548
0.0495641
-0.0243294
0.0552463
-0.0496642
0.0596298
-0.0800325
0.0636524
-0.117215
0.0679846
-0.158205
0.0720612
-0.192783
0.074152
-0.210984
0.074131
-0.212088
0.0733115
-0.199265
0.0658123
-0.177807
0.0474893
-0.163586
0.0296888
-0.161584
0.0268465
-0.147359
0.039161
-0.101295
0.058506
-0.0344514
0.0791322
0.0313312
0.0975062
0.0831048
0.111385
0.116356
0.120134
0.13438
0.125508
0.13952
0.128428
0.135432
0.126834
0.128263
0.120832
0.122565
0.116427
0.109293
0.119623
0.0800808
0.130005
0.0377858
0.14276
-0.00292282
0.153852
-0.0340165
0.161643
-0.0519353
0.166242
-0.0605639
0.168495
-0.0614515
0.169096
-0.0589492
0.168316
-0.053189
0.166422
-0.0475524
0.164152
-0.040043
0.162591
-0.0322318
0.162399
-0.0209809
0.163517
-0.00953564
0.165226
0.00324513
0.166966
0.0125414
0.168261
0.0203173
0.169212
0.0232835
0.169705
0.0251826
0.17005
0.0237897
0.17018
0.0227493
0.170336
0.0206814
0.0189506
-0.0262392
0.0608529
-0.0226898
0.0665744
-0.0180164
0.0715811
-0.0120219
0.0750567
-0.0047289
0.0763934
0.00371395
0.0753104
0.0130917
0.0712695
0.0231176
0.0641236
0.0333213
0.0539985
0.0433359
0.0413247
0.0526017
0.026371
0.0607854
0.00958732
0.0679781
-0.00938812
0.0737116
-0.0300629
0.0778654
-0.053818
0.0805182
-0.0826853
0.0826867
-0.119383
0.0849367
-0.160455
0.0867917
-0.194638
0.0870595
-0.211251
0.0841574
-0.209186
0.0807336
-0.195841
0.0765984
-0.173672
0.0632565
-0.150244
0.0422236
-0.140551
0.0297864
-0.134922
0.0351869
-0.106696
0.0522071
-0.0514715
0.072711
0.0108272
0.091623
0.0641928
0.106328
0.101651
0.11662
0.124088
0.123568
0.132572
0.126026
0.132974
0.122345
0.131944
0.116161
0.12875
0.115236
0.110217
0.123125
0.0721928
0.136336
0.0245747
0.149475
-0.0160622
0.159528
-0.0440694
0.165874
-0.0582816
0.169152
-0.0638417
0.170406
-0.0627055
0.17049
-0.0590331
0.169748
-0.0524476
0.168216
-0.0460204
0.166126
-0.0379528
0.164196
-0.0303015
0.163144
-0.019929
0.163286
-0.00967793
0.164251
0.00228068
0.165624
0.0111683
0.166884
0.0190571
0.168017
0.0221506
0.16878
0.0244197
0.169398
0.0231711
0.169754
0.0223938
0.170083
0.0203525
0.0185736
0.00477621
0.0566737
0.00967454
0.0616761
0.0155357
0.0657199
0.0222516
0.0683409
0.0297137
0.0689312
0.0378774
0.0671467
0.046487
0.06266
0.0552367
0.0553739
0.0637932
0.045442
0.0718981
0.0332198
0.0792779
0.0189912
0.0856486
0.0032166
0.0910455
-0.014785
0.0951455
-0.0341628
0.0978523
-0.0565249
0.0993167
-0.0841497
0.10021
-0.120277
0.100794
-0.161039
0.0999004
-0.193744
0.0972803
-0.208631
0.0928408
-0.204746
0.0869773
-0.189978
0.0831521
-0.169846
0.0765735
-0.143666
0.0593084
-0.123286
0.0402918
-0.115905
0.0359113
-0.102315
0.0478382
-0.0633984
0.0670418
-0.00837632
0.0861457
0.0450889
0.102016
0.0857801
0.114002
0.112102
0.12147
0.125104
0.122355
0.132089
0.117376
0.136923
0.113214
0.132912
0.117005
0.106425
0.128867
0.0603308
0.143385
0.010057
0.155745
-0.0284224
0.164168
-0.052492
0.168912
-0.0630263
0.17097
-0.0658995
0.17139
-0.0631254
0.170998
-0.0586415
0.170204
-0.0516529
0.169025
-0.044842
0.167403
-0.03633
0.165654
-0.0285532
0.164311
-0.018586
0.163843
-0.00921
0.164181
0.00194255
0.16514
0.01021
0.166258
0.0179385
0.16746
0.0209493
0.168407
0.023472
0.169228
0.0223502
0.169763
0.0218595
0.170218
0.0198976
0.018124
0.036618
0.0516273
0.0423303
0.0559638
0.0486383
0.0594119
0.0555025
0.0614767
0.0627622
0.0616716
0.0702498
0.0596591
0.0777207
0.055189
0.0849247
0.0481699
0.0916412
0.0387255
0.0976833
0.0271778
0.102891
0.0137832
0.107365
-0.00125669
0.110762
-0.0181828
0.113297
-0.0366978
0.114967
-0.0581947
0.116075
-0.085257
0.11677
-0.120973
0.116064
-0.160333
0.112565
-0.190245
0.106358
-0.202424
0.0997078
-0.198096
0.0927085
-0.182979
0.0871751
-0.164313
0.0844128
-0.140903
0.0755545
-0.114427
0.0572794
-0.0976298
0.0436951
-0.088731
0.0467127
-0.0664161
0.0622582
-0.0239219
0.0812967
0.0260505
0.0984401
0.0686367
0.111373
0.0991698
0.118101
0.118376
0.117466
0.132724
0.113074
0.141315
0.112855
0.133131
0.121466
0.0978148
0.135969
0.0458277
0.150339
-0.00431238
0.161111
-0.0391948
0.167603
-0.0589841
0.170749
-0.0661725
0.171741
-0.066891
0.171536
-0.0629202
0.170807
-0.0579127
0.169935
-0.050781
0.169
-0.0439073
0.167864
-0.0351934
0.166575
-0.0272642
0.165399
-0.0174105
0.164761
-0.00857176
0.164758
0.00194539
0.165406
0.00956211
0.166369
0.0169756
0.167559
0.0197592
0.168605
0.0224262
0.169542
0.0214129
0.170194
0.0212072
0.170722
0.01937
0.0176401
0.0655675
0.0456954
0.0718084
0.0497229
0.0783152
0.0529051
0.0850354
0.0547565
0.091803
0.054904
0.0984338
0.0530283
0.104711
0.0489119
0.110437
0.0424436
0.115455
0.0337079
0.119661
0.0229721
0.123012
0.010432
0.125684
-0.00392929
0.127382
-0.0198802
0.12861
-0.0379262
0.129561
-0.0591452
0.130502
-0.0861988
0.130766
-0.121236
0.128361
-0.157928
0.122411
-0.184296
0.113775
-0.193787
0.104887
-0.189208
0.0974243
-0.175516
0.090934
-0.157823
0.0879786
-0.137948
0.0860479
-0.112497
0.0756232
-0.0872051
0.0592675
-0.0723752
0.0518286
-0.0589772
0.0596374
-0.0317306
0.0761878
0.00950009
0.0935656
0.0512589
0.106696
0.086039
0.112706
0.112366
0.112144
0.133286
0.110619
0.14284
0.115389
0.128361
0.127973
0.0852314
0.143546
0.0302541
0.156648
-0.0174138
0.165277
-0.0478246
0.169758
-0.0634645
0.171436
-0.0678505
0.171547
-0.0670024
0.170908
-0.0622815
0.170002
-0.0570064
0.169106
-0.0498845
0.168335
-0.0431367
0.167587
-0.0344457
0.166804
-0.0264805
0.166043
-0.0166495
0.165587
-0.00811663
0.165563
0.00196945
0.166096
0.009029
0.166975
0.0160969
0.168133
0.0186014
0.169221
0.0213377
0.17021
0.0204245
0.170933
0.0204841
0.171499
0.0188044
0.0171408
0.0890231
0.0390973
0.0956862
0.0430598
0.102398
0.0461932
0.109048
0.0481063
0.115439
0.0485135
0.121385
0.0470821
0.126703
0.0435933
0.131221
0.0379265
0.134842
0.0300866
0.137548
0.0202664
0.139314
0.00866527
0.140491
-0.00510551
0.141118
-0.0205079
0.141644
-0.0384519
0.142366
-0.0598676
0.143199
-0.0870319
0.142615
-0.120651
0.138159
-0.153473
0.129445
-0.175582
0.118797
-0.183138
0.108543
-0.178954
0.100517
-0.16749
0.0943983
-0.151704
0.0903475
-0.133897
0.0903084
-0.112458
0.0886381
-0.0855348
0.0781811
-0.0619182
0.0654173
-0.0462134
0.0628588
-0.0291722
0.0724764
-0.000117466
0.0873551
0.0363802
0.0999968
0.0733973
0.106401
0.105961
0.107987
0.131701
0.110962
0.139866
0.120637
0.118686
0.135751
0.0701169
0.150893
0.015112
0.161858
-0.0283784
0.168065
-0.0540319
0.170621
-0.0660201
0.171051
-0.0682812
0.170492
-0.066443
0.169582
-0.0613719
0.16863
-0.0560544
0.167791
-0.0490449
0.167167
-0.0425129
0.166712
-0.0339911
0.166364
-0.0261324
0.166077
-0.0163626
0.165997
-0.00803682
0.166196
0.00177089
0.166814
0.00841132
0.167723
0.0151876
0.168882
0.0174423
0.170004
0.0202154
0.171021
0.0194077
0.171801
0.0197042
0.172404
0.0182016
0.0166163
0.1068
0.0331561
0.113045
0.0368149
0.119522
0.0397162
0.125974
0.0416545
0.132096
0.0423914
0.137649
0.0415291
0.142422
0.03882
0.146255
0.0340937
0.149074
0.0272673
0.150934
0.0184059
0.152048
0.0075513
0.152592
-0.00564933
0.152818
-0.0207341
0.153204
-0.0388375
0.153879
-0.0605427
0.15422
-0.0873727
0.151993
-0.118425
0.145165
-0.146645
0.134213
-0.16463
0.121944
-0.17087
0.110969
-0.167978
0.102472
-0.158994
0.0966707
-0.145903
0.0926218
-0.129848
0.0916039
-0.11144
0.0939633
-0.0878942
0.0926013
-0.0605562
0.0836843
-0.0372964
0.0748386
-0.0203266
0.0750497
-0.000328554
0.0837519
0.027678
0.0943873
0.0627619
0.10183
0.0985187
0.106832
0.126699
0.11464
0.132058
0.128088
0.105238
0.144012
0.0541933
0.157392
0.0017312
0.165651
-0.0366368
0.169395
-0.0577759
0.170244
-0.0668695
0.169697
-0.0677342
0.168681
-0.0654265
0.167638
-0.0603291
0.166734
-0.0551498
0.166021
-0.0483325
0.165565
-0.0420571
0.165353
-0.0337791
0.165354
-0.0261334
0.165499
-0.0165073
0.165844
-0.00838208
0.166392
0.00122338
0.167235
0.00756762
0.168285
0.0141379
0.169509
0.0162187
0.170696
0.0190284
0.171762
0.0183419
0.172619
0.0188466
0.173293
0.0175278
0.0160289
0.125791
0.0301843
0.129639
0.032967
0.134263
0.0350926
0.139301
0.0366169
0.144392
0.0372996
0.149212
0.036709
0.153469
0.0345634
0.15693
0.0306324
0.159484
0.0247137
0.161187
0.0167025
0.16205
0.00668861
0.162646
-0.00624527
0.163175
-0.0212631
0.16368
-0.0393423
0.163999
-0.0608619
0.163014
-0.086388
0.158368
-0.113778
0.14887
-0.137147
0.136204
-0.151964
0.123264
-0.157929
0.112173
-0.156888
0.103707
-0.150528
0.0980561
-0.140252
0.0946043
-0.126396
0.0929535
-0.109789
0.0947176
-0.0896583
0.0984183
-0.0642569
0.0980417
-0.0369198
0.0918636
-0.0141485
0.0864814
0.0050537
0.087696
0.0264634
0.0942281
0.0562298
0.101859
0.0908876
0.109977
0.118581
0.121534
0.1205
0.136941
0.089831
0.151976
0.0391585
0.162504
-0.00879699
0.167814
-0.0419466
0.169271
-0.059233
0.168729
-0.0663274
0.167489
-0.0664943
0.166214
-0.0641513
0.165154
-0.0592688
0.164361
-0.0543577
0.163823
-0.0477939
0.163563
-0.0417978
0.163581
-0.0337968
0.163872
-0.026424
0.16438
-0.0170159
0.165122
-0.00912353
0.166048
0.000297392
0.167186
0.00642935
0.168452
0.0128719
0.169807
0.0148643
0.171109
0.017726
0.172273
0.017178
0.173254
0.0178655
0.174055
0.0167265
0.0153224
0.153556
0.0309026
0.153954
0.0325686
0.155312
0.0337352
0.157403
0.0345259
0.160045
0.0346569
0.162963
0.0337912
0.165859
0.0316678
0.168478
0.028013
0.170599
0.0225931
0.172158
0.0151436
0.173377
0.00546895
0.1739
-0.00676803
0.174141
-0.0215043
0.173896
-0.0390966
0.17268
-0.0596458
0.169085
-0.0827931
0.161375
-0.106069
0.149564
-0.125336
0.13586
-0.13826
0.122889
-0.144958
0.112087
-0.146085
0.103846
-0.142287
0.0983265
-0.134733
0.0952771
-0.123347
0.0940179
-0.10853
0.0949729
-0.0906133
0.0991907
-0.0684747
0.103976
-0.0417054
0.104765
-0.014937
0.101756
0.00806232
0.0993361
0.0288836
0.101459
0.0541067
0.10779
0.0845564
0.117584
0.108788
0.131114
0.10697
0.146325
0.0746199
0.158839
0.0266442
0.165953
-0.0159114
0.168274
-0.0442668
0.167776
-0.0587351
0.166204
-0.0647553
0.164541
-0.0648312
0.163175
-0.0627858
0.162191
-0.058285
0.16156
-0.0537267
0.161226
-0.0474594
0.161185
-0.0417572
0.161437
-0.0340485
0.161989
-0.0269763
0.162809
-0.0178355
0.163895
-0.0102097
0.165178
-0.000985343
0.166626
0.00498156
0.168147
0.0113501
0.169686
0.013326
0.171156
0.0162554
0.172477
0.0158577
0.173636
0.0167058
0.174629
0.0157338
0.0144342
0.183977
0.0327832
0.182712
0.0338338
0.181913
0.0345336
0.181575
0.0348644
0.181676
0.0345559
0.182106
0.033361
0.18272
0.0310535
0.183363
0.0273699
0.183898
0.0220579
0.184147
0.0148951
0.183919
0.00569655
0.183482
-0.00633032
0.182463
-0.020486
0.180393
-0.037026
0.176601
-0.0558539
0.169905
-0.0760974
0.159556
-0.0957199
0.146548
-0.112328
0.132969
-0.124681
0.120535
-0.132525
0.110095
-0.135645
0.102226
-0.134417
0.0969362
-0.129443
0.0940677
-0.120478
0.0932816
-0.107744
0.0943266
-0.0916583
0.0979757
-0.0721239
0.104267
-0.0479962
0.110377
-0.0210473
0.113143
0.0052959
0.113334
0.0286924
0.114265
0.0531766
0.118938
0.0798828
0.128378
0.0993481
0.141588
0.0937597
0.154812
0.0613965
0.163772
0.0176836
0.167305
-0.0194437
0.167014
-0.0439759
0.165037
-0.0567582
0.162814
-0.0625322
0.160965
-0.0629826
0.159642
-0.0614626
0.158805
-0.0574484
0.158372
-0.0532933
0.158262
-0.0473494
0.158455
-0.0419505
0.158949
-0.0345423
0.159754
-0.0277814
0.160854
-0.0189352
0.16224
-0.0115961
0.163851
-0.00259597
0.165596
0.00323593
0.167389
0.00955768
0.169149
0.0115661
0.170832
0.0145718
0.172363
0.0143267
0.173754
0.0153149
0.174997
0.0144907
0.0133046
0.200296
0.0333562
0.200023
0.0341069
0.199882
0.0346742
0.199826
0.0349205
0.199805
0.0345769
0.199756
0.0334104
0.19962
0.0311891
0.19929
0.0277004
0.198642
0.0227058
0.197601
0.0159355
0.196118
0.00717954
0.193611
-0.00382256
0.190014
-0.0168894
0.18498
-0.0319917
0.177939
-0.0488132
0.168324
-0.0664818
0.156314
-0.0837102
0.14313
-0.0991442
0.130289
-0.11184
0.118842
-0.121077
0.109378
-0.126181
0.102039
-0.127078
0.096643
-0.124048
0.0931703
-0.117006
0.0919034
-0.106477
0.0927533
-0.0925082
0.0958182
-0.0751887
0.101632
-0.0538102
0.109458
-0.0288727
0.116752
-0.00199879
0.122005
0.0234395
0.126037
0.0491451
0.131401
0.0745182
0.140405
0.0903446
0.151966
0.0821987
0.161776
0.0515866
0.166698
0.0127617
0.166801
-0.0195468
0.164405
-0.04158
0.161415
-0.0537683
0.158833
-0.0599501
0.156951
-0.0611011
0.155741
-0.0602528
0.155083
-0.0567899
0.154861
-0.0530711
0.154982
-0.0474702
0.155414
-0.0423824
0.156153
-0.0352815
0.157208
-0.0288362
0.158572
-0.0202997
0.160234
-0.0132578
0.162137
-0.00449945
0.164169
0.00120447
0.166237
0.00748966
0.168245
0.00955783
0.170177
0.0126396
0.171964
0.0125401
0.17363
0.0136488
0.175172
0.0129488
0.0118823
0.199959
0.0321816
-0.198785
0.201251
0.032815
0.20251
0.0334153
0.20394
0.033491
0.205636
0.0328804
0.207637
0.0314092
0.209967
0.0288594
0.212576
0.0250914
0.215433
0.0198489
0.218389
0.0129797
0.221175
0.00439334
0.223522
-0.00616894
0.225117
-0.0184847
0.225328
-0.0322026
0.223639
-0.0471245
0.21965
-0.062493
0.213409
-0.0774691
0.205378
-0.0911135
0.196088
-0.102549
0.185995
-0.110985
0.175642
-0.115828
0.165451
-0.116887
0.155818
-0.114415
0.147139
-0.108326
0.139623
-0.0989613
0.133425
-0.0863097
0.128674
-0.0704375
0.125818
-0.0509549
0.12551
-0.0285649
0.127411
-0.00389912
0.129283
0.0215673
0.130653
0.0477751
0.134339
0.0708317
0.14376
0.080924
0.157426
0.0685324
0.169598
0.0394151
0.176167
0.00619219
0.177544
-0.0209234
0.175692
-0.039728
0.172494
-0.0505701
0.169034
-0.05649
0.165815
-0.0578825
0.16301
-0.0574474
0.160644
-0.0544237
0.158683
-0.0511105
0.157088
-0.0458748
0.15583
-0.0411248
0.154914
-0.0343657
0.154354
-0.0282758
0.154171
-0.020117
0.15436
-0.0134469
0.154894
-0.00503361
0.155646
0.000452535
0.156514
0.00662176
0.15736
0.00871169
0.158139
0.0118606
0.158776
0.0119034
0.159275
0.0131504
0.159639
0.0125843
0.0116868
0.211801
0.0305869
-0.210206
0.213773
0.0308428
0.216216
0.0309719
0.218921
0.0307867
0.221785
0.0300164
0.224769
0.0284253
0.227803
0.0258253
0.23081
0.0220845
0.233668
0.0169905
0.236166
0.0104821
0.238063
0.00249635
0.239205
-0.00731154
0.239165
-0.0184445
0.237694
-0.0307317
0.234458
-0.0438881
0.229347
-0.0573822
0.222438
-0.0705601
0.213971
-0.0826463
0.204321
-0.0928997
0.193976
-0.100639
0.18355
-0.105402
0.173567
-0.106904
0.164401
-0.105249
0.156313
-0.100238
0.149402
-0.09205
0.14378
-0.0806885
0.139639
-0.066296
0.137216
-0.0485316
0.136955
-0.0283044
0.13912
-0.00606406
0.143052
0.0176349
0.148041
0.0427864
0.155395
0.0634782
0.166186
0.0701331
0.177838
0.0568798
0.186216
0.0310375
0.189642
0.00276599
0.18897
-0.0202513
0.186128
-0.0368859
0.182487