/*--------------------------------*- C++ -*----------------------------------*\
| =========                 |                                                 |
| \\      /  F ield         | OpenFOAM: The Open Source CFD Toolbox           |
|  \\    /   O peration     | Version:  2312                                  |
|   \\  /    A nd           | Website:  www.openfoam.com                      |
|    \\/     M anipulation  |                                                 |
\*---------------------------------------------------------------------------*/
FoamFile
{
    version     2.0;
    format      ascii;
    arch        "LSB;label=32;scalar=64";
    class       volScalarField;
    location    "43";
    object      p;
}
// * * * * * * * * * * * * * * * * * * * * * * * * * * * * * * * * * * * * * //

dimensions      [0 2 -2 0 0 0 0];

internalField   nonuniform List<scalar> 
940
(
-0.336788
-0.303918
-0.295136
-0.286706
-0.267408
-0.240406
-0.345783
-0.319933
-0.280276
-0.248152
-0.22193
-0.192068
-0.339951
-0.292677
-0.248109
-0.20037
-0.172332
-0.141952
-0.253607
-0.267739
-0.294915
-0.301135
-0.315411
-0.282242
-0.310519
-0.302354
-0.345589
-0.327023
-0.361244
-0.298538
-0.313051
-0.291457
-0.323668
-0.323325
-0.320928
-0.305982
-0.257608
-0.253463
-0.23903
-0.222963
-0.215588
-0.205813
-0.157576
-0.148936
-0.114232
-0.0786203
-0.00192433
0.00768715
-0.00855229
-0.00757266
-0.00382009
-0.000524585
-0.235978
-0.226586
-0.20549
-0.173043
-0.170813
-0.258547
-0.273424
-0.122562
-0.0129191
-0.0118024
0.0043492
-0.00286689
-0.0134165
-0.00870715
-0.00455697
-0.000956916
-0.273033
-0.226987
-0.201064
-0.165792
-0.14236
-0.228874
-0.28479
-0.149336
-0.00309808
0.0206549
0.00348342
-0.00960055
-0.0151159
-0.00961828
-0.00500117
-0.000773789
-0.233768
-0.227495
-0.203522
-0.181096
-0.144447
-0.201486
-0.248031
-0.133797
-0.0169762
0.00973498
-0.00204056
-0.0136558
-0.0149803
-0.0101085
-0.00561722
-0.00116735
-0.182128
-0.1864
-0.168544
-0.154264
-0.143235
-0.170217
-0.186736
-0.105254
-0.0220663
-0.00157555
-0.00723519
-0.0121961
-0.0138138
-0.0104077
-0.00611148
-0.00150847
-0.141887
-0.157585
-0.153092
-0.14744
-0.136871
-0.138554
-0.146655
-0.100071
-0.0395474
-0.0136988
-0.0133222
-0.0167557
-0.0153806
-0.0112073
-0.00643291
-0.0014648
-0.106572
-0.120707
-0.122642
-0.119202
-0.113104
-0.109173
-0.107868
-0.0783107
-0.0387821
-0.0196867
-0.015565
-0.0143429
-0.0135072
-0.0111309
-0.00707328
-0.00182263
-0.0763651
-0.0894994
-0.0966712
-0.0983499
-0.0967585
-0.0925975
-0.0894199
-0.0747821
-0.049181
-0.0317087
-0.0277523
-0.0228346
-0.018477
-0.0140995
-0.00871361
-0.00254806
-0.0498605
-0.0599115
-0.0665487
-0.0688234
-0.0680664
-0.065138
-0.0611191
-0.052967
-0.0393825
-0.0274356
-0.0203406
-0.0172793
-0.014355
-0.0117397
-0.00757335
-0.00195228
-0.0333409
-0.0416624
-0.0483861
-0.0526641
-0.0548445
-0.0552164
-0.0540504
-0.0507861
-0.0434162
-0.0351757
-0.0292079
-0.0247565
-0.0217593
-0.0178223
-0.0119712
-0.00394884
-0.0100202
-0.0158713
-0.0212967
-0.0254425
-0.0280329
-0.0292366
-0.0293044
-0.0283268
-0.0259211
-0.0229719
-0.0203342
-0.0180099
-0.0151059
-0.0126076
-0.00822939
-0.00211446
-0.00492149
-0.00974648
-0.0146288
-0.0190224
-0.0226362
-0.0254675
-0.0274308
-0.0286551
-0.0287385
-0.0276925
-0.0261019
-0.024057
-0.0224495
-0.0203253
-0.0143603
-0.00467694
0.00924564
0.00548644
0.00125966
-0.00311469
-0.00716894
-0.0105639
-0.0131468
-0.0151675
-0.0167532
-0.017634
-0.0176123
-0.0172899
-0.0169693
-0.015332
-0.0101785
-0.002582
-0.120324
-0.158669
-0.200975
-0.100191
-0.121275
-0.14939
-0.0773011
-0.092166
-0.112376
-0.0604148
-0.0718498
-0.0861538
-0.0439481
-0.05121
-0.0614108
-0.0270652
-0.0322231
-0.0393102
-0.0151392
-0.0192841
-0.0251074
0.00117848
-0.00176733
-0.00513013
0.00749918
0.00361118
-0.000401612
0.0201801
0.0161689
0.0126716
0.0422115
0.0390263
0.0329538
0.0014169
-0.0215316
-0.206579
-0.0179532
-0.0393271
-0.0553225
-0.121622
-0.156711
-0.373789
-0.0865796
-0.114683
-0.140879
-0.201733
-0.248232
-0.384934
0.200168
0.240873
0.291644
0.351228
0.404166
0.434638
0.167308
0.193606
0.226949
0.267309
0.308078
0.309179
0.111146
0.121536
0.131931
0.137207
0.137656
0.0364424
0.0433061
0.0292402
0.0533824
0.0410512
0.0671363
0.0671348
0.0924712
0.109863
0.137632
0.166661
0.0500713
0.0343278
0.0579467
0.0450067
0.0686706
0.0675494
0.0885779
0.103114
0.127618
0.146667
0.0562535
0.0402688
0.0612574
0.0497368
0.0702758
0.0701401
0.0902331
0.097019
0.114781
0.108092
0.0613671
0.0451782
0.0637903
0.0524938
0.0684534
0.0689416
0.0789468
0.0809572
0.0797606
0.064504
0.0664966
0.0502609
0.0655042
0.0551314
0.0652716
0.0659892
0.0671645
0.0653599
0.0560839
0.0433158
0.0730695
0.0563138
0.0677077
0.0578746
0.0619975
0.0603388
0.0572572
0.050655
0.0396427
0.0265897
0.0811249
0.0642579
0.0699865
0.0616027
0.0591213
0.0550616
0.0481911
0.0391308
0.0272673
0.0150811
0.0908947
0.0752903
0.0718326
0.0654813
0.0570736
0.0504724
0.0409854
0.0307567
0.019338
0.00865315
0.104161
0.0899739
0.077749
0.070935
0.0592013
0.049719
0.0393881
0.0294791
0.0196551
0.0107119
0.121766
0.104218
0.0827315
0.0742283
0.0608585
0.0492997
0.0385124
0.0289093
0.0201368
0.0124465
0.158136
0.129602
0.102124
0.0869744
0.0724589
0.0594553
0.0482526
0.0389573
0.0311239
0.0244804
0.185094
0.141493
0.10918
0.0916163
0.0760439
0.0626132
0.0514535
0.0425285
0.0353748
0.0294489
0.334007
0.188804
0.145163
0.119444
0.0980576
0.080808
0.0669298
0.0561123
0.0480419
0.0420458
0.037057
-0.0169201
-0.0740099
0.0209947
-0.0273725
-0.0692278
0.00926478
-0.0226082
-0.054677
0.00064327
-0.0209576
-0.0439322
-0.00366979
-0.0190904
-0.0335828
0.000829233
-0.0103286
-0.0199144
0.00429627
-0.00402834
-0.0104017
0.0175734
0.0104924
0.00512582
0.0235147
0.0172677
0.0118756
0.0363728
0.0303825
0.0249325
-0.298275
-0.296765
-0.295186
-0.265362
-0.274532
-0.242296
-0.24153
-0.231627
-0.201282
-0.227234
-0.198696
-0.155705
-0.207966
-0.176199
-0.132642
-0.200962
-0.156741
-0.112121
-0.239848
-0.266851
-0.263856
-0.248614
-0.253876
-0.241484
-0.266985
-0.286151
-0.260971
-0.2612
-0.244213
-0.2433
-0.277801
-0.277121
-0.233236
-0.263295
-0.268781
-0.24835
-0.268284
-0.254207
-0.245421
-0.280584
-0.291808
-0.255922
-0.293451
-0.316821
-0.279145
-0.298213
-0.328121
-0.281531
-0.26944
-0.306122
-0.282881
-0.149847
-0.124232
-0.185305
-0.0364277
0.0232004
-0.0432592
-0.139372
-0.101287
-0.0928884
-0.161036
-0.164081
-0.136933
-0.0913647
-0.103145
-0.0966011
-0.0014302
-0.0104779
-0.0293327
0.0153094
0.0187048
0.00127303
-0.003448
0.0071962
0.00381377
-0.00682044
-0.00540307
-0.0038538
-0.00286383
-0.00292301
-0.00303667
0.000534555
0.000340956
-0.000404496
-0.218271
-0.174204
-0.141907
-0.112577
-0.0895651
-0.0768825
-0.0648321
-0.0639566
-0.058478
-0.0609968
-0.237312
-0.194102
-0.162313
-0.126903
-0.100691
-0.0830908
-0.0681037
-0.065035
-0.0589928
-0.060357
-0.247374
-0.20157
-0.17108
-0.13463
-0.108347
-0.0879014
-0.0713456
-0.0659347
-0.0595002
-0.0597731
-0.245773
-0.197637
-0.168562
-0.134152
-0.110846
-0.0898617
-0.0735283
-0.0664277
-0.05992
-0.0592104
-0.230502
-0.184851
-0.156629
-0.126921
-0.107072
-0.0885815
-0.0740004
-0.0663114
-0.06013
-0.058631
-0.170191
-0.149087
-0.135655
-0.114186
-0.0997185
-0.0845543
-0.0724532
-0.065176
-0.0598705
-0.057859
-0.0692724
-0.0853722
-0.0951552
-0.0920339
-0.0878178
-0.0776795
-0.0691338
-0.0629259
-0.059098
-0.0568102
-0.0755322
-0.0842816
-0.0803608
-0.0781016
-0.0751521
-0.069454
-0.0640799
-0.0595365
-0.0573034
-0.0550773
-0.112361
-0.0979615
-0.0843099
-0.074189
-0.0682645
-0.0616457
-0.058463
-0.0549857
-0.0543542
-0.0525201
-0.0791745
-0.0693295
-0.0656175
-0.056537
-0.0573618
-0.0512991
-0.0520696
-0.0492621
-0.050008
-0.0487103
-0.0293593
-0.0306814
-0.0330407
-0.033225
-0.0391989
-0.0386011
-0.0434305
-0.042458
-0.0441747
-0.0433149
0.000107705
-0.00403117
-0.00985804
-0.0157141
-0.023225
-0.027443
-0.0338097
-0.0343546
-0.0368862
-0.0358947
0.00086322
-0.00164648
-0.00560191
-0.0101649
-0.0155638
-0.0199021
-0.0246772
-0.0264583
-0.028059
-0.0269371
-0.00431642
-0.00528434
-0.00682595
-0.00891272
-0.0116334
-0.0141021
-0.0168891
-0.0181944
-0.0190109
-0.0177966
-0.00352713
-0.00423081
-0.00480518
-0.00584618
-0.00705566
-0.0082316
-0.00965452
-0.0102818
-0.0107227
-0.00971668
-0.00100391
-0.00140444
-0.00140366
-0.00179657
-0.00199763
-0.00241514
-0.00279927
-0.00303489
-0.00322393
-0.00289597
-0.101883
-0.0923375
-0.0780513
-0.0722228
-0.0641462
-0.0611824
-0.0573507
-0.0596296
-0.057049
-0.062527
-0.13949
-0.114284
-0.0948129
-0.0846161
-0.0724081
-0.0668534
-0.0606266
-0.0615751
-0.0576831
-0.0621496
-0.184314
-0.141598
-0.112596
-0.0952424
-0.0790517
-0.0711509
-0.0625867
-0.0628675
-0.058063
-0.0616658
0.0617337
0.0017886
-0.0586127
0.0679652
-0.00706072
-0.077974
0.0713575
-0.0160952
-0.0978491
0.0534338
-0.0701334
-0.154742
0.0408366
-0.0948727
-0.194391
-0.118178
-0.302667
-0.335229
0.204541
0.180868
0.123038
0.24644
0.213651
0.144712
0.29775
0.255137
0.170181
0.360394
0.301565
0.187649
0.425788
0.348598
0.196433
0.478861
0.367509
0.125277
0.0365443
0.029576
0.0223544
0.0240836
0.0205832
0.0171697
0.0480698
0.0411414
0.0355123
0.0361743
0.0334432
0.0311591
0.0638591
0.0558192
0.0537506
0.0644097
0.0604602
0.0596699
0.0913321
0.0808954
0.0848492
0.110535
0.100428
0.097235
0.139235
0.129404
0.118853
0.169322
0.154716
0.115088
0.0152327
0.00774959
-0.00107776
-0.0120934
-0.0257962
-0.043017
-0.0639103
-0.101568
-0.122538
-0.259235
0.0136164
0.010114
0.00512297
-0.00128101
-0.01054
-0.0237867
-0.0378096
-0.0667621
-0.0772494
-0.122835
0.0284038
0.0206018
0.0115395
0.0012377
-0.0106181
-0.0260693
-0.0378102
-0.0633828
-0.0725195
-0.112466
0.0278383
0.024269
0.0184474
0.0100299
-0.000538946
-0.0177888
-0.0316097
-0.057746
-0.067447
-0.0952696
0.0459042
0.0362137
0.0259378
0.0129976
0.000144905
-0.0175728
-0.0295372
-0.053352
-0.0616559
-0.0824608
0.0530148
0.043999
0.0326905
0.0174042
0.00270376
-0.0172962
-0.0297576
-0.0507743
-0.0581578
-0.0751967
0.068046
0.0510141
0.0353846
0.0168225
0.00036636
-0.0194343
-0.0316656
-0.0500358
-0.0564234
-0.0710426
0.0772276
0.0581589
0.0360986
0.0136326
-0.00418982
-0.0228097
-0.0342213
-0.0503432
-0.0558529
-0.0685108
0.0779479
0.0543215
0.0304117
0.0075798
-0.0098319
-0.0267463
-0.0369745
-0.0510972
-0.0558029
-0.0668017
0.0732549
0.0469726
0.0211399
-0.000401479
-0.0159211
-0.0308102
-0.0396411
-0.0518163
-0.0558621
-0.065616
0.054702
0.0296738
0.00966071
-0.00976435
-0.0229
-0.0353374
-0.0424374
-0.052498
-0.0559051
-0.0645225
-0.00316523
-0.0225292
-0.0235173
-0.0320878
-0.0362796
-0.0433261
-0.0468476
-0.0542394
-0.0559239
-0.0636002
-0.0548235
-0.0617495
-0.0546181
-0.0554805
-0.0524492
-0.0534439
-0.0526414
-0.057078
-0.0563358
-0.0629839
)
;

boundaryField
{
    outlet
    {
        type            fixedValue;
        value           uniform 0;
    }
    upperWall
    {
        type            symmetryPlane;
    }
    lowerWall
    {
        type            symmetryPlane;
    }
    inlet
    {
        type            zeroGradient;
    }
    cylinder
    {
        type            zeroGradient;
    }
    frontAndBack
    {
        type            empty;
    }
}


// ************************************************************************* //
