/*--------------------------------*- C++ -*----------------------------------*\
| =========                 |                                                 |
| \\      /  F ield         | OpenFOAM: The Open Source CFD Toolbox           |
|  \\    /   O peration     | Version:  2312                                  |
|   \\  /    A nd           | Website:  www.openfoam.com                      |
|    \\/     M anipulation  |                                                 |
\*---------------------------------------------------------------------------*/
FoamFile
{
    version     2.0;
    format      ascii;
    arch        "LSB;label=32;scalar=64";
    class       volVectorField;
    location    "42.35";
    object      U;
}
// * * * * * * * * * * * * * * * * * * * * * * * * * * * * * * * * * * * * * //

dimensions      [0 1 -1 0 0 0 0];

internalField   nonuniform List<vector> 
5478
(
(-0.0377003 0.0274141 -1.07888e-19)
(-0.0537619 0.0478371 0)
(-0.00660654 0.0484186 1.61905e-19)
(0.11351 0.0358721 -2.8379e-19)
(0.311179 0.0196927 1.86076e-19)
(0.562374 0.00640898 -5.49164e-20)
(0.822406 -0.00270489 -9.67463e-20)
(1.04997 -0.0102976 0)
(1.21723 -0.0194956 0)
(1.31414 -0.0341861 1.26148e-19)
(1.34539 -0.053064 -5.81449e-20)
(1.33114 -0.0723514 -9.50923e-20)
(1.29154 -0.101129 -3.64448e-20)
(1.25613 -0.100834 0)
(1.21013 -0.15292 9.24794e-20)
(-0.0427785 0.0257869 2.16528e-19)
(-0.0344698 0.0315867 0)
(0.0712261 0.0203903 0)
(0.284562 0.00778702 -1.4311e-19)
(0.571908 0.00445003 1.88541e-19)
(0.86172 0.00923519 5.45534e-20)
(1.09654 0.015423 -9.34891e-20)
(1.24983 0.0168152 8.29012e-20)
(1.32317 0.00961783 2.05155e-19)
(1.33612 -0.00487376 -1.79407e-19)
(1.31768 -0.022199 4.1852e-21)
(1.29019 -0.042606 0)
(1.26885 -0.054695 3.63807e-20)
(1.24512 -0.0692012 0)
(1.22613 -0.0832298 0)
(-0.0414556 0.0219265 -6.22765e-22)
(0.0129199 0.0148779 -1.01225e-19)
(0.213167 0.00264655 6.90964e-22)
(0.531226 0.00674999 0)
(0.858654 0.0238582 -6.356e-20)
(1.10943 0.0411115 5.39538e-20)
(1.25726 0.0496847 4.55778e-20)
(1.31793 0.0469067 0)
(1.32514 0.0360055 -6.80178e-20)
(1.31173 0.0218898 5.74586e-20)
(1.295 0.00661383 4.8199e-20)
(1.27971 -0.00439635 0)
(1.25818 -0.0190824 0)
(1.2363 -0.0249019 -9.96565e-20)
(1.204 -0.0412907 8.87905e-20)
(-0.0296681 0.0142826 -1.18031e-19)
(0.101004 -0.00266522 9.98679e-20)
(0.422225 0.00349801 -8.62865e-20)
(0.799906 0.0342839 7.59181e-20)
(1.08866 0.0641873 1.27355e-19)
(1.25108 0.0802992 -1.07202e-19)
(1.31551 0.0819074 -4.55543e-20)
(1.3269 0.0745269 3.61e-20)
(1.31871 0.063584 -3.41985e-20)
(1.3042 0.0512173 0)
(1.28574 0.0400934 0)
(1.26193 0.026049 -6.89958e-20)
(1.23866 0.0167011 8.97339e-20)
(1.21426 0.00509072 -5.06326e-20)
(1.19421 -0.00742348 0)
(-0.00302034 0.00384146 5.97276e-20)
(0.240538 -0.0108789 5.04503e-20)
(0.664818 0.0317297 -1.8084e-19)
(1.02349 0.0813909 2.42474e-21)
(1.2292 0.110068 -1.87329e-21)
(1.31398 0.118291 -1.50042e-21)
(1.33339 0.114495 4.30159e-20)
(1.32561 0.105424 3.68349e-20)
(1.30722 0.0939551 2.70154e-20)
(1.28489 0.0819649 -3.68697e-21)
(1.26209 0.0686502 -6.202e-20)
(1.24248 0.0577663 0)
(1.22404 0.0468854 2.8528e-20)
(1.20684 0.0359573 -2.14748e-20)
(1.18897 0.0299307 3.85799e-20)
(0.0445763 -0.00580251 -1.28198e-19)
(0.42595 0.00613363 1.3878e-19)
(0.884736 0.0832249 -4.7516e-20)
(1.17571 0.136414 3.6148e-20)
(1.30436 0.156804 -6.63386e-20)
(1.33897 0.157501 -4.99644e-20)
(1.33228 0.149217 1.197e-21)
(1.31165 0.137406 0)
(1.28911 0.124634 5.46011e-20)
(1.26862 0.111443 -4.85553e-20)
(1.25024 0.0996917 1.97192e-20)
(1.23147 0.0875868 0)
(1.21201 0.0767752 1.2357e-20)
(1.19239 0.0660314 -2.18168e-20)
(1.17223 0.0576049 0)
(0.11648 -0.00692223 -1.60434e-20)
(0.622617 0.0551092 1.24048e-21)
(1.05344 0.14875 2.33519e-20)
(1.2687 0.195247 3.90776e-20)
(1.33771 0.205242 -3.00785e-20)
(1.33908 0.198214 5.07773e-20)
(1.3186 0.185396 -1.1504e-20)
(1.295 0.171329 0)
(1.27258 0.156993 -3.21507e-20)
(1.25104 0.143147 1.9161e-21)
(1.22994 0.129195 2.71619e-20)
(1.21029 0.116399 0)
(1.19281 0.10455 -1.80503e-20)
(1.17675 0.0926409 0)
(1.16309 0.0872641 1.13709e-20)
(0.208856 0.00756041 -1.73949e-20)
(0.793593 0.127244 0)
(1.16922 0.22263 2.4272e-20)
(1.31565 0.256582 0)
(1.34183 0.254856 0)
(1.32494 0.240629 0)
(1.29879 0.223677 -9.93456e-21)
(1.27284 0.20644 0)
(1.24903 0.189545 6.47056e-21)
(1.22804 0.173127 0)
(1.20983 0.158174 -8.54429e-21)
(1.19342 0.14409 0)
(1.17746 0.130962 5.6871e-21)
(1.1624 0.119266 0)
(1.1473 0.111229 3.79192e-21)
(-0.00762576 0.122847 -1.19869e-20)
(-0.0236404 0.214854 0)
(-0.0486285 0.233208 1.87612e-20)
(-0.0750599 0.22706 0)
(-0.100805 0.217321 0)
(-0.124799 0.206593 0)
(-0.145989 0.191578 -1.23708e-20)
(-0.163402 0.168737 0)
(-0.175932 0.135094 1.04536e-20)
(-0.182285 0.0883532 0)
(-0.181216 0.0274107 -1.76659e-20)
(-0.171744 -0.0475025 0)
(-0.15192 -0.134373 1.43633e-20)
(-0.127238 -0.226363 0)
(-0.0835037 -0.320147 1.07959e-20)
(-0.0160668 0.125787 6.08193e-20)
(-0.0330041 0.230268 -4.3618e-20)
(-0.0493276 0.257341 2.00688e-20)
(-0.0643398 0.254762 6.89493e-20)
(-0.0770465 0.245093 6.96293e-22)
(-0.0861505 0.23264 -5.57029e-20)
(-0.0902862 0.214809 3.73765e-20)
(-0.0882762 0.188038 0)
(-0.0789964 0.149176 3.39493e-20)
(-0.0612264 0.0957851 1.55817e-21)
(-0.0341312 0.0265979 -1.88882e-20)
(0.000736902 -0.0577841 0)
(0.0518725 -0.152507 -4.57932e-20)
(0.0932465 -0.256656 0)
(0.176545 -0.349503 -5.50728e-20)
(-0.0229609 0.117969 1.00784e-19)
(-0.040603 0.229784 2.23228e-20)
(-0.0465572 0.266313 -3.87396e-20)
(-0.0471598 0.268199 -1.05363e-19)
(-0.0428373 0.25866 6.25148e-20)
(-0.0323961 0.244252 5.85513e-20)
(-0.0143066 0.223745 -1.04969e-19)
(0.0126299 0.194002 0)
(0.0493219 0.151902 -9.31631e-20)
(0.0965313 0.0944465 8.28333e-20)
(0.155525 0.0216753 3.94083e-20)
(0.221045 -0.0697469 0)
(0.316234 -0.160678 3.14068e-20)
(0.374812 -0.276309 -5.63322e-20)
(0.512684 -0.359491 0)
(-0.0269956 0.100752 5.18256e-20)
(-0.0459499 0.211963 -1.3583e-19)
(-0.0424786 0.256656 1.60211e-19)
(-0.0284276 0.263559 -1.41934e-19)
(-0.00606827 0.254373 -6.38357e-20)
(0.0250005 0.237654 5.78712e-20)
(0.0660008 0.214011 5.30704e-20)
(0.118213 0.181079 4.89125e-20)
(0.182112 0.135943 -1.39215e-19)
(0.259984 0.0751409 -3.54634e-21)
(0.355609 0.00470285 3.80492e-20)
(0.456465 -0.0930409 0)
(0.594716 -0.176335 6.25477e-20)
(0.673927 -0.292001 1.64405e-19)
(0.842279 -0.361653 -9.61852e-20)
(-0.0279647 0.0782947 3.08479e-22)
(-0.0490214 0.179393 9.17819e-20)
(-0.0393708 0.227764 -8.03581e-20)
(-0.013167 0.238562 7.11607e-20)
(0.0254177 0.229694 1.27049e-19)
(0.0755118 0.210456 -1.14843e-19)
(0.13793 0.18302 -5.18969e-20)
(0.215225 0.146398 -1.47799e-19)
(0.309811 0.099329 1.33185e-19)
(0.427982 0.0365967 0)
(0.562203 -0.0320909 0)
(0.709724 -0.126557 1.37272e-19)
(0.867229 -0.197645 -3.04224e-19)
(0.971768 -0.303329 1.06478e-19)
(1.11718 -0.342997 0)
(-0.027266 0.0562449 4.61564e-22)
(-0.0507594 0.138981 -9.11307e-20)
(-0.0388035 0.183537 2.41321e-19)
(-0.00422441 0.194409 -7.07311e-20)
(0.0480735 0.184741 -6.32588e-20)
(0.117404 0.163024 5.70136e-20)
(0.20689 0.132584 5.19236e-20)
(0.322231 0.0940748 9.54915e-20)
(0.46396 0.0448517 -1.69294e-19)
(0.632699 -0.0140586 7.69567e-20)
(0.806653 -0.0796115 6.91446e-20)
(0.982892 -0.152866 0)
(1.12485 -0.20949 0)
(1.21989 -0.283796 1.78917e-19)
(1.28555 -0.301135 -1.58981e-19)
(-0.0276236 0.0395812 1.78801e-22)
(-0.0531507 0.0998416 0)
(-0.0403329 0.132787 0)
(0.00251359 0.138433 1.40303e-19)
(0.0737104 0.125844 -6.20931e-20)
(0.177302 0.102341 5.49748e-20)
(0.318473 0.071043 1.01131e-19)
(0.494513 0.0340127 -8.96658e-20)
(0.694812 -0.0105331 8.45897e-20)
(0.897404 -0.0538959 -7.7029e-20)
(1.0803 -0.105461 -5.75491e-21)
(1.22402 -0.14693 0)
(1.30693 -0.190412 4.6101e-20)
(1.33611 -0.232084 0)
(1.31377 -0.235425 0)
(-0.0313426 0.0304572 -1.05424e-19)
(-0.0563896 0.0690114 0)
(-0.0363681 0.0857627 -1.60217e-19)
(0.0284531 0.0822236 2.81142e-19)
(0.144626 0.0656178 -3.08992e-19)
(0.31566 0.0426351 -5.59977e-20)
(0.530049 0.0172541 9.75343e-20)
(0.762088 -0.00852648 0)
(0.981989 -0.0341049 0)
(1.16237 -0.059594 -1.37771e-19)
(1.2857 -0.0893967 -5.94668e-20)
(1.34473 -0.112244 1.05639e-19)
(1.34494 -0.147715 -4.61954e-20)
(1.30755 -0.162616 0)
(1.25449 -0.178803 -1.09959e-19)
(-0.0301445 -0.447119 0)
(0.020904 -0.577367 3.08952e-21)
(0.0704673 -0.67513 -2.84508e-21)
(0.128588 -0.713888 0)
(0.259437 -0.477249 0)
(0.552752 0.0401115 -1.65405e-22)
(0.721174 0.547402 0)
(0.776726 0.750326 0)
(0.786686 0.741531 8.4123e-23)
(0.67546 0.854819 0)
(0.579956 0.858296 0)
(0.587331 0.462262 -2.84562e-22)
(0.624432 -0.0638914 0)
(0.658785 -0.417767 -2.26981e-22)
(0.691831 -0.549851 -1.48202e-22)
(0.637055 -0.532134 0)
(0.653911 -0.445342 -3.09222e-22)
(0.629773 -0.313103 3.44731e-22)
(0.559961 -0.208125 0)
(0.528956 -0.126707 4.65848e-23)
(0.556948 -0.0418744 -5.13871e-23)
(0.602968 -0.0203336 8.57133e-24)
(0.6622 -0.00245207 4.41391e-25)
(0.712108 -0.0123981 -4.21755e-25)
(0.758272 -0.0153391 3.5767e-24)
(0.798069 -0.0204129 0)
(0.843732 0.00427524 3.64976e-24)
(0.870418 -0.0106637 -3.48972e-24)
(0.914102 0.031166 1.9654e-24)
(0.935279 0.028524 0)
(0.948869 0.0199465 -1.80382e-25)
(0.970513 0.0649297 0)
(0.969612 0.0327945 7.04742e-25)
(0.975782 0.0418351 -5.56676e-25)
(0.983411 0.0598133 2.07122e-26)
(0.984033 0.0452419 2.04592e-25)
(0.985443 0.0397671 0)
(0.990164 0.0478299 1.9941e-26)
(0.229118 -0.482258 2.04349e-20)
(0.256201 -0.594486 -1.07362e-22)
(0.23677 -0.683961 -1.01313e-20)
(0.189397 -0.74421 9.66285e-21)
(0.173714 -0.59156 0)
(0.379272 -0.0946976 1.66708e-22)
(0.569219 0.452856 -2.33083e-22)
(0.714548 0.704383 0)
(0.789054 0.751761 -8.47626e-23)
(0.688889 0.895485 0)
(0.606469 0.894396 0)
(0.651628 0.477856 2.86605e-22)
(0.711709 -0.0683458 0)
(0.731586 -0.438705 6.56188e-21)
(0.750953 -0.559863 -5.58598e-21)
(0.706139 -0.526996 2.26422e-21)
(0.684466 -0.44772 -2.16135e-21)
(0.679563 -0.30803 -4.97849e-23)
(0.647211 -0.194653 0)
(0.60805 -0.123617 0)
(0.600287 -0.0498449 -5.22939e-24)
(0.646361 -0.0334049 7.04192e-24)
(0.697289 -0.0166939 5.1112e-24)
(0.749447 -0.0232969 -8.57412e-24)
(0.787623 -0.0242222 -1.14372e-23)
(0.813633 -0.0284533 0)
(0.842101 -0.00231557 -1.08509e-23)
(0.858528 -0.0169454 0)
(0.897497 0.0249666 -1.9723e-24)
(0.918401 0.0251881 3.24319e-24)
(0.933522 0.0169671 -2.90206e-24)
(0.959172 0.062939 1.92752e-25)
(0.960126 0.0322451 -8.85561e-25)
(0.968964 0.0408371 6.28763e-26)
(0.978662 0.0590977 4.68933e-25)
(0.981336 0.0450307 3.52454e-25)
(0.983926 0.0393697 1.58126e-26)
(0.989716 0.0475306 -1.54892e-26)
(0.542346 -0.490937 3.54224e-20)
(0.560749 -0.57626 -5.99384e-20)
(0.493672 -0.630755 6.32499e-21)
(0.359096 -0.694808 1.80014e-20)
(0.183884 -0.638495 1.80078e-22)
(0.225893 -0.234519 -1.98598e-22)
(0.42353 0.310533 2.37118e-22)
(0.65452 0.614936 -2.95304e-22)
(0.773307 0.75705 0)
(0.714589 0.945812 1.45262e-20)
(0.680106 0.913614 -1.38558e-20)
(0.724996 0.493358 -6.13113e-22)
(0.793287 -0.0514388 0)
(0.821367 -0.425172 -1.33265e-20)
(0.808221 -0.554157 1.24001e-20)
(0.770566 -0.51937 -2.32203e-21)
(0.723302 -0.447298 2.21574e-21)
(0.707467 -0.31471 6.43657e-22)
(0.716643 -0.193506 -5.24777e-22)
(0.711879 -0.120558 0)
(0.694228 -0.0546949 0)
(0.742006 -0.0453198 -1.47003e-23)
(0.781182 -0.0296259 1.40341e-23)
(0.827618 -0.0324931 3.13142e-23)
(0.853198 -0.0299769 1.03305e-23)
(0.862053 -0.0323221 -3.88132e-23)
(0.866004 -0.00520932 -3.91879e-25)
(0.867574 -0.0208981 1.27695e-23)
(0.890574 0.0197074 -3.2143e-23)
(0.90569 0.0221959 2.57763e-23)
(0.918859 0.0136251 -1.16457e-25)
(0.94553 0.0604564 9.32184e-26)
(0.948697 0.0313719 -4.3014e-25)
(0.960515 0.0394326 4.11272e-25)
(0.972736 0.0580487 7.37503e-27)
(0.978001 0.0446085 7.36848e-25)
(0.9821 0.0388231 -5.70492e-25)
(0.98916 0.0471598 5.51535e-27)
(0.838788 -0.492925 0)
(0.836889 -0.553007 2.44337e-20)
(0.760499 -0.543672 -2.4031e-20)
(0.602342 -0.570468 0)
(0.31956 -0.582227 -1.8508e-22)
(0.167985 -0.348064 2.04057e-22)
(0.323994 0.121488 0)
(0.619304 0.482867 7.16419e-23)
(0.792404 0.705981 -3.16551e-22)
(0.750767 0.923111 0)
(0.689779 0.936034 -1.80998e-20)
(0.754344 0.54137 1.78825e-20)
(0.855424 -0.0198386 -1.29821e-21)
(0.906599 -0.41308 -1.39205e-20)
(0.881353 -0.547955 1.32733e-20)
(0.832155 -0.510568 3.86853e-22)
(0.776608 -0.441089 0)
(0.736129 -0.323883 -9.58176e-23)
(0.753798 -0.205502 3.94946e-22)
(0.790279 -0.127063 -3.39987e-22)
(0.796391 -0.0611138 -7.97065e-23)
(0.85044 -0.0555068 3.67413e-23)
(0.88174 -0.0398134 6.15659e-23)
(0.916648 -0.0390575 -7.59384e-23)
(0.929516 -0.0325488 8.47043e-24)
(0.925066 -0.0321459 0)
(0.908103 -0.00411256 1.15032e-23)
(0.89684 -0.0214751 -1.29376e-23)
(0.898223 0.0168778 3.50849e-23)
(0.903406 0.0204253 -2.84947e-23)
(0.910881 0.0105657 1.36647e-24)
(0.933396 0.0578567 0)
(0.93826 0.0302155 5.24328e-25)
(0.952258 0.0375996 1.38632e-25)
(0.966595 0.0566413 5.1507e-25)
(0.974558 0.0439359 -1.32502e-24)
(0.980239 0.0381026 5.70893e-25)
(0.98859 0.0467093 -2.94537e-26)
(1.07559 -0.457595 5.31333e-22)
(1.02702 -0.521313 8.60861e-22)
(0.924969 -0.485094 0)
(0.818208 -0.438421 0)
(0.545597 -0.44905 0)
(0.258244 -0.371304 0)
(0.269756 -0.0753859 6.2964e-21)
(0.582231 0.293417 -1.44446e-20)
(0.792459 0.639809 8.766e-21)
(0.763054 0.945705 0)
(0.766274 0.954964 -1.7225e-20)
(0.833548 0.563745 1.68215e-20)
(0.927542 0.00711867 2.14015e-20)
(0.980937 -0.390922 -1.80432e-20)
(0.948716 -0.532279 9.07698e-21)
(0.880741 -0.500072 -9.04829e-21)
(0.822649 -0.434226 -2.25421e-22)
(0.773366 -0.331085 -1.21645e-21)
(0.778357 -0.222677 1.15914e-21)
(0.82779 -0.144523 2.17278e-23)
(0.86299 -0.0743767 -6.276e-24)
(0.924764 -0.066408 -6.34e-23)
(0.956749 -0.0480321 6.6296e-23)
(0.983252 -0.0432705 1.69048e-23)
(0.988589 -0.0329752 8.25607e-24)
(0.978689 -0.0297029 1.18818e-23)
(0.951575 -0.000509197 0)
(0.934642 -0.0192374 0)
(0.917755 0.0168206 0)
(0.912858 0.0203075 0)
(0.912974 0.0084886 -5.44355e-24)
(0.926678 0.0556732 3.86798e-24)
(0.932069 0.0289641 -1.12004e-24)
(0.946546 0.0354834 -9.02848e-25)
(0.961684 0.0549619 2.13318e-25)
(0.971802 0.043033 -2.54501e-25)
(0.978752 0.0372192 7.876e-25)
(0.988151 0.0461853 4.14836e-26)
(1.20842 -0.387997 -5.59407e-22)
(1.13525 -0.439073 4.61938e-20)
(0.98376 -0.440358 -4.44093e-20)
(0.90764 -0.366973 -1.8514e-20)
(0.751354 -0.315597 1.76328e-20)
(0.448844 -0.296961 8.9713e-21)
(0.291926 -0.196948 -8.32316e-21)
(0.471613 0.0700301 1.53155e-22)
(0.734422 0.504521 -3.20257e-22)
(0.766903 0.860766 0)
(0.733258 0.966324 -4.53758e-22)
(0.789763 0.660178 4.03728e-20)
(0.958434 0.0943883 -3.84138e-20)
(1.0524 -0.339802 -1.11098e-21)
(1.02015 -0.503087 0)
(0.937142 -0.482606 -5.87153e-21)
(0.866265 -0.424483 8.31275e-21)
(0.811709 -0.336013 -2.63941e-21)
(0.804134 -0.237431 0)
(0.844553 -0.164673 6.0808e-23)
(0.891853 -0.0920543 -1.28238e-22)
(0.95415 -0.0787888 5.2757e-23)
(0.989851 -0.0560793 8.26401e-23)
(1.01437 -0.0468588 -7.80202e-23)
(1.01922 -0.032913 8.04626e-23)
(1.01102 -0.0270477 1.37041e-23)
(0.983815 0.0034724 -9.81418e-23)
(0.968124 -0.0157707 6.56372e-23)
(0.941547 0.0186317 -6.2422e-23)
(0.929997 0.0216075 1.10334e-23)
(0.92396 0.00770282 -1.04908e-23)
(0.927176 0.0542925 0)
(0.931892 0.02786 -1.11682e-24)
(0.945031 0.0333382 1.62565e-24)
(0.959245 0.0531907 0)
(0.970453 0.0419873 1.27661e-24)
(0.978023 0.0362255 -5.00487e-25)
(0.987983 0.0456104 2.70032e-26)
(1.21742 -0.313961 0)
(1.15384 -0.347689 0)
(1.0074 -0.363365 -1.48285e-22)
(0.898234 -0.338434 0)
(0.844295 -0.239249 0)
(0.643209 -0.157016 6.2771e-21)
(0.425856 -0.168787 -5.97572e-21)
(0.360049 -0.100339 1.36761e-20)
(0.594269 0.34167 -1.29921e-20)
(0.713288 0.825188 0)
(0.745409 0.969742 -3.52388e-22)
(0.874594 0.639811 4.99537e-22)
(1.02367 0.0952752 -4.03527e-20)
(1.11566 -0.318827 6.47658e-21)
(1.07777 -0.480858 2.97486e-20)
(0.986042 -0.466861 2.20392e-22)
(0.907173 -0.415214 -1.34844e-22)
(0.846063 -0.340493 3.01382e-21)
(0.828706 -0.251099 -2.98502e-21)
(0.855867 -0.184202 0)
(0.90125 -0.110499 0)
(0.957928 -0.0911988 2.9191e-24)
(0.995154 -0.0643556 0)
(1.02032 -0.0510613 -6.52821e-23)
(1.028 -0.0337721 -1.9559e-23)
(1.0244 -0.025482 6.83527e-23)
(1.00231 0.00658673 9.49012e-23)
(0.991072 -0.0123493 -6.29806e-23)
(0.962752 0.0211279 8.02503e-24)
(0.948885 0.0236689 0)
(0.939538 0.0079443 7.71855e-24)
(0.933934 0.0537501 -7.31814e-24)
(0.937297 0.027098 -7.25216e-25)
(0.947921 0.03139 -5.31912e-25)
(0.959765 0.0515204 1.72737e-25)
(0.970836 0.0409336 -6.71205e-25)
(0.978243 0.0352061 0)
(0.988167 0.0450183 -1.06684e-25)
(1.18381 -0.240382 6.74406e-20)
(1.13286 -0.283605 4.86097e-20)
(1.03769 -0.300173 -9.62859e-21)
(0.912082 -0.310144 -5.93739e-20)
(0.856076 -0.279152 2.35146e-20)
(0.748661 -0.149592 -6.10361e-23)
(0.602177 -0.105188 0)
(0.41331 -0.158193 -6.7052e-23)
(0.421265 0.0929306 -1.25224e-22)
(0.551298 0.62709 0)
(0.649481 0.936576 -2.68791e-20)
(0.737764 0.782466 2.53668e-20)
(0.986433 0.246653 6.39677e-22)
(1.16932 -0.226624 3.14088e-20)
(1.14161 -0.435835 -2.98373e-20)
(1.03776 -0.449627 2.49043e-22)
(0.948731 -0.40895 1.43381e-22)
(0.880494 -0.345527 0)
(0.852055 -0.264882 1.63083e-21)
(0.86666 -0.203542 -1.54566e-21)
(0.904789 -0.129732 -5.80638e-24)
(0.954533 -0.104464 5.15801e-23)
(0.990991 -0.0735867 -4.65516e-23)
(1.01645 -0.0562779 5.83149e-23)
(1.02659 -0.0358405 9.57493e-24)
(1.02678 -0.0258722 -1.48643e-22)
(1.01067 0.00818431 6.30158e-23)
(1.00349 -0.00979464 -7.35862e-23)
(0.978172 0.0231588 5.37031e-23)
(0.96513 0.026072 0)
(0.955142 0.00879011 0)
(0.944431 0.0537934 0)
(0.946337 0.0267906 -3.5851e-25)
(0.954149 0.0298249 6.98744e-25)
(0.962901 0.0500752 -1.4851e-24)
(0.972811 0.0399832 9.82708e-25)
(0.979366 0.0342538 3.95026e-25)
(0.9887 0.0444538 0)
(1.18329 -0.151253 0)
(1.13895 -0.188465 0)
(1.06957 -0.196637 0)
(0.970894 -0.184068 0)
(0.882046 -0.187784 0)
(0.810148 -0.0853962 0)
(0.758187 0.0166852 0)
(0.57425 -0.0587695 0)
(0.392924 0.0234103 0)
(0.465393 0.507112 0)
(0.57523 0.843407 0)
(0.805716 0.64499 0)
(1.14601 0.152873 0)
(1.25364 -0.200797 0)
(1.1969 -0.354313 0)
(1.09235 -0.376588 0)
(0.99913 -0.35723 0)
(0.925819 -0.318029 0)
(0.883952 -0.257036 0)
(0.882523 -0.210844 0)
(0.908892 -0.144911 0)
(0.950255 -0.118441 0)
(0.984551 -0.0846233 0)
(1.00958 -0.0626122 0)
(1.0212 -0.0383519 0)
(1.0238 -0.0257644 0)
(1.01384 0.00956083 0)
(1.00924 -0.00714447 0)
(0.989807 0.0253852 0)
(0.979685 0.028148 0)
(0.970669 0.0103338 0)
(0.958911 0.054272 0)
(0.959287 0.0263976 0)
(0.96401 0.0284945 0)
(0.969058 0.0486866 0)
(0.976704 0.0388951 0)
(0.981596 0.0331861 0)
(0.989683 0.0438073 0)
(1.13609 -0.111282 0)
(1.10981 -0.159393 0)
(1.04055 -0.170241 0)
(0.972969 -0.149547 0)
(0.91802 -0.159159 0)
(0.837084 -0.079645 0)
(0.819004 0.0391062 0)
(0.796764 0.0598608 0)
(0.636372 0.142909 0)
(0.564374 0.465633 0)
(0.702891 0.692947 0)
(1.04887 0.475724 0)
(1.31291 0.0545688 0)
(1.33429 -0.232405 0)
(1.22535 -0.353459 0)
(1.09562 -0.361022 0)
(1.00178 -0.338469 0)
(0.942405 -0.302262 0)
(0.911796 -0.248208 0)
(0.909961 -0.211543 0)
(0.927821 -0.152932 0)
(0.95838 -0.128125 0)
(0.98575 -0.0927801 0)
(1.00579 -0.0675258 0)
(1.0153 -0.0403755 0)
(1.01684 -0.0248697 0)
(1.01012 0.0116921 0)
(1.00579 -0.00424261 0)
(0.992755 0.0289164 0)
(0.986618 0.0307105 0)
(0.980346 0.0123902 0)
(0.972705 0.0557982 0)
(0.972341 0.0263023 0)
(0.975107 0.0276413 0)
(0.977054 0.0479201 0)
(0.981911 0.0380002 0)
(0.984682 0.0321701 0)
(0.991085 0.0431753 0)
(1.1064 -0.0744713 0)
(1.09309 -0.102417 0)
(1.04122 -0.107625 0)
(0.993414 -0.0848445 0)
(0.956649 -0.082659 0)
(0.884977 -0.0246794 0)
(0.858083 0.0672899 0)
(0.879682 0.0877421 0)
(0.831285 0.181264 0)
(0.794949 0.438373 0)
(0.971138 0.54665 0)
(1.26712 0.316135 0)
(1.40334 -0.00376007 0)
(1.35472 -0.181799 0)
(1.24433 -0.253587 0)
(1.14175 -0.269495 0)
(1.05987 -0.274145 0)
(0.993972 -0.267495 0)
(0.951601 -0.234757 0)
(0.937856 -0.212092 0)
(0.945209 -0.161797 0)
(0.966109 -0.137985 0)
(0.987221 -0.100641 0)
(1.00321 -0.0716956 0)
(1.01092 -0.0411811 0)
(1.01187 -0.0238799 0)
(1.00703 0.0135254 0)
(1.00224 -0.00204335 0)
(0.992654 0.0308441 0)
(0.988598 0.0321746 0)
(0.984072 0.0133835 0)
(0.98129 0.0565752 0)
(0.980724 0.0262449 0)
(0.982974 0.0271931 0)
(0.983368 0.0475556 0)
(0.986236 0.0374629 0)
(0.987373 0.0314806 0)
(0.992408 0.0426665 0)
(1.08223 -0.0450605 0)
(1.07387 -0.0644067 0)
(1.03799 -0.0695707 0)
(1.00065 -0.0551127 0)
(0.974351 -0.0481852 0)
(0.930049 -0.00631485 0)
(0.91593 0.0638749 0)
(0.937159 0.0934968 0)
(0.926833 0.181397 0)
(0.957133 0.353835 0)
(1.13999 0.376316 0)
(1.3372 0.203726 0)
(1.38447 0.000978692 0)
(1.31591 -0.130195 0)
(1.21666 -0.21566 0)
(1.12272 -0.250743 0)
(1.04638 -0.261708 0)
(0.99157 -0.256047 0)
(0.959259 -0.228073 0)
(0.949404 -0.212485 0)
(0.955375 -0.168313 0)
(0.971285 -0.146498 0)
(0.98778 -0.108592 0)
(1.0006 -0.0773475 0)
(1.0073 -0.0441242 0)
(1.00824 -0.0242652 0)
(1.00483 0.0146505 0)
(1.0001 -3.9902e-05 0)
(0.992344 0.0324552 0)
(0.989268 0.0334668 0)
(0.985276 0.0137567 0)
(0.985714 0.0566224 0)
(0.984923 0.0261273 0)
(0.987186 0.0266922 0)
(0.987083 0.047294 0)
(0.988975 0.0371695 0)
(0.98914 0.030953 0)
(0.99341 0.0421997 0)
(1.06529 -0.0247382 0)
(1.06117 -0.0355908 0)
(1.03977 -0.0378549 0)
(1.01478 -0.0270768 0)
(0.996394 -0.0130293 0)
(0.96973 0.0166591 0)
(0.962108 0.0662988 0)
(0.977987 0.0961553 0)
(0.982743 0.15409 0)
(1.03512 0.248812 0)
(1.17327 0.249432 0)
(1.28787 0.146714 0)
(1.30774 0.0101577 0)
(1.26584 -0.0872649 0)
(1.2013 -0.151715 0)
(1.13291 -0.180422 0)
(1.07287 -0.199375 0)
(1.02442 -0.21322 0)
(0.990165 -0.205143 0)
(0.973537 -0.204022 0)
(0.971418 -0.169159 0)
(0.979848 -0.150522 0)
(0.991039 -0.112335 0)
(1.00025 -0.0790757 0)
(1.00476 -0.0438197 0)
(1.00517 -0.0228378 0)
(1.00257 0.0168945 0)
(0.998437 0.00235633 0)
(0.992133 0.0344103 0)
(0.989773 0.0351185 0)
(0.985849 0.0142071 0)
(0.987764 0.0568131 0)
(0.986587 0.0262805 0)
(0.988843 0.0263683 0)
(0.988707 0.0472513 0)
(0.990337 0.0370338 0)
(0.99003 0.0305021 0)
(0.994091 0.0417427 0)
(1.05507 -0.00898551 0)
(1.05329 -0.0152378 0)
(1.0411 -0.0152856 0)
(1.02477 -0.00842234 0)
(1.01277 0.00504241 0)
(1.00011 0.0249116 0)
(0.997678 0.0598467 0)
(1.01006 0.0875101 0)
(1.02375 0.122917 0)
(1.06747 0.171099 0)
(1.15114 0.167311 0)
(1.22165 0.108358 0)
(1.23998 0.0188336 0)
(1.21531 -0.0507711 0)
(1.16797 -0.114376 0)
(1.11537 -0.156072 0)
(1.06829 -0.187471 0)
(1.03004 -0.207953 0)
(1.00259 -0.20305 0)
(0.987696 -0.205285 0)
(0.98364 -0.173841 0)
(0.987266 -0.156426 0)
(0.993421 -0.118022 0)
(0.999111 -0.0833911 0)
(1.00181 -0.0462863 0)
(1.00197 -0.0236986 0)
(0.999981 0.0171267 0)
(0.996775 0.00337224 0)
(0.991743 0.0350705 0)
(0.990229 0.0358182 0)
(0.986328 0.0138536 0)
(0.988941 0.0562442 0)
(0.987342 0.0259745 0)
(0.989477 0.0257446 0)
(0.989443 0.0469846 0)
(0.991086 0.0367984 0)
(0.990505 0.0300297 0)
(0.994645 0.0412421 0)
(1.04806 0.00121699 0)
(1.0482 -0.00257622 0)
(1.04253 -0.00105189 0)
(1.03334 0.00361526 0)
(1.02649 0.0155999 0)
(1.02149 0.0296609 0)
(1.02224 0.052938 0)
(1.03226 0.0739704 0)
(1.04782 0.0949972 0)
(1.07835 0.118681 0)
(1.12633 0.112949 0)
(1.16954 0.0800208 0)
(1.18363 0.0190338 0)
(1.1715 -0.0327769 0)
(1.14415 -0.085279 0)
(1.11037 -0.119153 0)
(1.0748 -0.147804 0)
(1.04216 -0.173395 0)
(1.01679 -0.178542 0)
(1.00071 -0.191256 0)
(0.993897 -0.168373 0)
(0.993766 -0.155473 0)
(0.996711 -0.118652 0)
(0.999927 -0.0834628 0)
(1.00063 -0.0452993 0)
(1.00005 -0.022073 0)
(0.997916 0.0195067 0)
(0.995143 0.00590087 0)
(0.991089 0.0370618 0)
(0.990342 0.0377639 0)
(0.98639 0.0145571 0)
(0.989541 0.0566228 0)
(0.987494 0.0264546 0)
(0.989502 0.0255762 0)
(0.989746 0.0469234 0)
(0.99155 0.0367123 0)
(0.990789 0.0295992 0)
(0.995187 0.0407027 0)
(1.04345 0.00695393 0)
(1.04542 0.00474254 0)
(1.04362 0.00702947 0)
(1.03918 0.0100349 0)
(1.03619 0.0195456 0)
(1.03512 0.0292958 0)
(1.03782 0.0448074 0)
(1.04601 0.0594917 0)
(1.05887 0.0720595 0)
(1.07952 0.0840173 0)
(1.10728 0.0778256 0)
(1.1334 0.059402 0)
(1.14383 0.017704 0)
(1.13898 -0.0172943 0)
(1.12112 -0.0613197 0)
(1.09606 -0.0960986 0)
(1.06918 -0.130429 0)
(1.04465 -0.162186 0)
(1.0251 -0.172164 0)
(1.01123 -0.188743 0)
(1.00398 -0.168846 0)
(1.00078 -0.157027 0)
(0.999834 -0.120357 0)
(0.999894 -0.084689 0)
(0.998572 -0.045909 0)
(0.997513 -0.0224823 0)
(0.995474 0.0194655 0)
(0.9933 0.00607533 0)
(0.990201 0.0368162 0)
(0.990255 0.0378845 0)
(0.986235 0.0137607 0)
(0.990084 0.0557723 0)
(0.987641 0.0260827 0)
(0.989579 0.0247362 0)
(0.990191 0.046401 0)
(0.992107 0.0363667 0)
(0.991137 0.0289818 0)
(0.995824 0.039975 0)
(1.04109 0.00932 0)
(1.04373 0.00771667 0)
(1.04405 0.0101339 0)
(1.04256 0.012027 0)
(1.04209 0.0194212 0)
(1.04296 0.0260893 0)
(1.04636 0.0367956 0)
(1.05282 0.0466127 0)
(1.06237 0.0543295 0)
(1.07604 0.0612584 0)
(1.09196 0.0551467 0)
(1.1074 0.0450499 0)
(1.11416 0.0152892 0)
(1.11202 -0.0096847 0)
(1.10069 -0.0475988 0)
(1.08499 -0.0786007 0)
(1.06678 -0.110412 0)
(1.04826 -0.142947 0)
(1.03232 -0.156264 0)
(1.01917 -0.177519 0)
(1.01093 -0.162455 0)
(1.00563 -0.153656 0)
(1.0026 -0.11873 0)
(1.00088 -0.083243 0)
(0.99794 -0.0440386 0)
(0.996065 -0.0206109 0)
(0.993599 0.0218096 0)
(0.991622 0.00841919 0)
(0.989128 0.0384104 0)
(0.989868 0.0398663 0)
(0.985691 0.0144617 0)
(0.990266 0.0562359 0)
(0.98742 0.026857 0)
(0.989426 0.0245664 0)
(0.990446 0.0463327 0)
(0.992556 0.0364001 0)
(0.991433 0.0285853 0)
(0.996511 0.0394007 0)
(1.03928 0.00916182 0)
(1.04211 0.00768855 0)
(1.04371 0.0100109 0)
(1.0439 0.0110977 0)
(1.04486 0.0169789 0)
(1.04649 0.0215247 0)
(1.04982 0.0293229 0)
(1.05477 0.0361329 0)
(1.06136 0.0411904 0)
(1.07021 0.0460609 0)
(1.07947 0.0406777 0)
(1.08871 0.0357018 0)
(1.09254 0.0134743 0)
(1.09179 -0.00408356 0)
(1.08474 -0.0359961 0)
(1.07463 -0.0637565 0)
(1.06172 -0.0955631 0)
(1.04769 -0.130394 0)
(1.03535 -0.146432 0)
(1.02419 -0.17054 0)
(1.01674 -0.157855 0)
(1.01028 -0.150167 0)
(1.00505 -0.116073 0)
(1.00118 -0.0810868 0)
(0.996565 -0.0424487 0)
(0.994114 -0.0200338 0)
(0.991446 0.0221164 0)
(0.98971 0.00848559 0)
(0.987722 0.037633 0)
(0.989221 0.0397637 0)
(0.984853 0.0133186 0)
(0.990314 0.0549809 0)
(0.987327 0.0262983 0)
(0.989374 0.0232183 0)
(0.990843 0.0451827 0)
(0.993147 0.0356167 0)
(0.991843 0.0274688 0)
(0.997247 0.0380888 0)
(1.03761 0.00720575 0)
(1.04046 0.00577474 0)
(1.04262 0.00794192 0)
(1.04359 0.00846555 0)
(1.04518 0.0133588 0)
(1.04697 0.0165887 0)
(1.04987 0.0227503 0)
(1.05354 0.0279491 0)
(1.05796 0.0316944 0)
(1.06369 0.0360635 0)
(1.06896 0.0316024 0)
(1.07449 0.0297561 0)
(1.0764 0.0120769 0)
(1.07626 -0.000561579 0)
(1.07168 -0.0285718 0)
(1.06508 -0.0542237 0)
(1.05629 -0.084826 0)
(1.04638 -0.119773 0)
(1.03749 -0.136522 0)
(1.02793 -0.162182 0)
(1.0205 -0.151429 0)
(1.01298 -0.145059 0)
(1.00641 -0.112134 0)
(1.00128 -0.0775164 0)
(0.995501 -0.038995 0)
(0.99255 -0.0174168 0)
(0.98945 0.0246609 0)
(0.988013 0.0105127 0)
(0.986275 0.0387376 0)
(0.988419 0.041725 0)
(0.983956 0.0138664 0)
(0.990139 0.055562 0)
(0.986885 0.0275661 0)
(0.989275 0.0231669 0)
(0.990998 0.0454136 0)
(0.993614 0.0361518 0)
(0.99218 0.0274658 0)
(0.998066 0.0378131 0)
(1.03602 0.00425478 0)
(1.03857 0.00276659 0)
(1.04083 0.00478683 0)
(1.04207 0.00494807 0)
(1.04383 0.00929701 0)
(1.04545 0.0118036 0)
(1.04783 0.0171662 0)
(1.05049 0.0216529 0)
(1.05339 0.0249335 0)
(1.0571 0.0294185 0)
(1.06004 0.0258641 0)
(1.06349 0.0261064 0)
(1.06419 0.0113376 0)
(1.06434 0.00191596 0)
(1.06115 -0.0233803 0)
(1.05703 -0.0470749 0)
(1.05138 -0.0761861 0)
(1.04418 -0.110958 0)
(1.03741 -0.128067 0)
(1.02899 -0.154438 0)
(1.02238 -0.144557 0)
(1.01468 -0.13842 0)
(1.00726 -0.106518 0)
(1.00111 -0.0729346 0)
(0.99425 -0.0358594 0)
(0.990719 -0.016081 0)
(0.987331 0.0249586 0)
(0.986087 0.0103407 0)
(0.984489 0.0369863 0)
(0.987532 0.0408938 0)
(0.98274 0.0118553 0)
(0.989776 0.0531302 0)
(0.986785 0.0262509 0)
(0.98909 0.0206898 0)
(0.991242 0.0429697 0)
(0.994236 0.0343228 0)
(0.992615 0.0252476 0)
(0.998782 0.0353113 0)
(1.03422 0.00082112 0)
(1.03639 -0.000730584 0)
(1.03852 0.00122708 0)
(1.03974 0.00120668 0)
(1.04142 0.00532185 0)
(1.04275 0.00751557 0)
(1.04463 0.0125801 0)
(1.04651 0.0168965 0)
(1.04841 0.0201322 0)
(1.05085 0.0250413 0)
(1.05241 0.0222388 0)
(1.05464 0.023965 0)
(1.05472 0.0110022 0)
(1.05494 0.00367827 0)
(1.05273 -0.0196965 0)
(1.05026 -0.0420015 0)
(1.04649 -0.0699444 0)
(1.04125 -0.104551 0)
(1.03648 -0.121091 0)
(1.02932 -0.147292 0)
(1.02289 -0.137191 0)
(1.01451 -0.130834 0)
(1.00614 -0.0993966 0)
(0.999202 -0.0663379 0)
(0.991676 -0.029951 0)
(0.988416 -0.0119573 0)
(0.98477 0.0286976 0)
(0.984117 0.0129258 0)
(0.98254 0.0384243 0)
(0.98624 0.0435603 0)
(0.981518 0.0127357 0)
(0.989265 0.0543213 0)
(0.986034 0.0284739 0)
(0.989049 0.0211811 0)
(0.991233 0.044027 0)
(0.994699 0.0358944 0)
(0.992973 0.0261452 0)
(0.999767 0.0358243 0)
(1.03228 -0.00272697 0)
(1.03403 -0.0042736 0)
(1.03591 -0.00234101 0)
(1.03694 -0.00237489 0)
(1.03841 0.00166847 0)
(1.03944 0.00382638 0)
(1.04089 0.00886198 0)
(1.04223 0.0132791 0)
(1.04342 0.016704 0)
(1.04512 0.0220623 0)
(1.04585 0.0199421 0)
(1.04746 0.0226338 0)
(1.04714 0.010943 0)
(1.0475 0.00489717 0)
(1.04588 -0.0170508 0)
(1.0442 -0.0384022 0)
(1.04175 -0.0651606 0)
(1.03771 -0.0988342 0)
(1.03425 -0.114437 0)
(1.0276 -0.139544 0)
(1.02173 -0.12927 0)
(1.0134 -0.122332 0)
(1.0048 -0.0922058 0)
(0.997589 -0.0605968 0)
(0.989561 -0.0265248 0)
(0.985869 -0.0108999 0)
(0.982147 0.0277001 0)
(0.981985 0.0114311 0)
(0.980381 0.0345632 0)
(0.985327 0.0408181 0)
(0.980146 0.00903324 0)
(0.988587 0.0495712 0)
(0.98614 0.0255464 0)
(0.988789 0.0168163 0)
(0.991353 0.0393916 0)
(0.995408 0.0322001 0)
(0.993418 0.0221003 0)
(1.00037 0.031375 0)
(1.03026 -0.00609472 0)
(1.0316 -0.00764844 0)
(1.03315 -0.00563523 0)
(1.03392 -0.00565061 0)
(1.03511 -0.00148959 0)
(1.03581 0.000727152 0)
(1.0369 0.0059175 0)
(1.0378 0.0105556 0)
(1.03859 0.0142135 0)
(1.03977 0.0200884 0)
(1.04014 0.0184046 0)
(1.04139 0.0219405 0)
(1.04108 0.0109733 0)
(1.04159 0.00594114 0)
(1.0405 -0.0151457 0)
(1.03952 -0.0357625 0)