/*--------------------------------*- C++ -*----------------------------------*\
| =========                 |                                                 |
| \\      /  F ield         | OpenFOAM: The Open Source CFD Toolbox           |
|  \\    /   O peration     | Version:  2512                                  |
|   \\  /    A nd           | Website:  www.openfoam.com                      |
|    \\/     M anipulation  |                                                 |
\*---------------------------------------------------------------------------*/
FoamFile
{
    version     2.0;
    format      ascii;
    arch        "LSB;label=32;scalar=64";
    class       volScalarField;
    location    "136.8";
    object      p;
}
// * * * * * * * * * * * * * * * * * * * * * * * * * * * * * * * * * * * * * //

dimensions      [0 2 -2 0 0 0 0];

internalField   nonuniform List<scalar> 
13248
(
-0.300535
-0.301414
-0.300253
-0.297607
-0.293624
-0.288395
-0.282239
-0.275579
-0.269102
-0.263358
-0.258723
-0.255326
-0.253016
-0.251397
-0.249939
-0.248114
-0.245527
-0.241979
-0.237366
-0.231818
-0.22486
-0.216993
-0.206388
-0.193902
-0.306074
-0.306177
-0.304716
-0.302155
-0.298614
-0.294119
-0.288797
-0.282912
-0.276798
-0.270754
-0.264991
-0.259585
-0.254461
-0.249442
-0.244325
-0.238954
-0.233221
-0.227048
-0.220337
-0.212929
-0.204704
-0.195554
-0.185115
-0.174562
-0.313764
-0.312805
-0.310719
-0.307888
-0.304413
-0.300272
-0.29539
-0.289723
-0.283298
-0.276245
-0.268754
-0.261016
-0.25318
-0.245344
-0.237559
-0.22982
-0.222057
-0.214181
-0.206037
-0.197604
-0.188655
-0.179312
-0.169318
-0.159084
-0.323193
-0.320996
-0.31805
-0.314648
-0.31095
-0.306783
-0.301783
-0.295589
-0.288058
-0.27934
-0.269786
-0.25981
-0.249769
-0.239897
-0.230295
-0.220951
-0.211805
-0.202751
-0.193717
-0.184599
-0.175313
-0.165956
-0.15625
-0.147008
-0.334499
-0.330985
-0.327073
-0.322996
-0.318802
-0.31409
-0.308174
-0.300532
-0.291111
-0.280294
-0.268672
-0.256807
-0.245102
-0.233772
-0.222885
-0.212419
-0.202304
-0.192463
-0.182806
-0.173279
-0.163836
-0.154479
-0.145119
-0.136174
-0.348146
-0.34325
-0.338374
-0.333521
-0.328448
-0.322418
-0.314575
-0.304565
-0.292687
-0.279624
-0.266101
-0.252673
-0.239668
-0.227229
-0.215379
-0.204072
-0.193242
-0.182813
-0.172724
-0.162919
-0.153353
-0.14403
-0.134866
-0.126205
-0.364542
-0.3582
-0.352345
-0.346496
-0.339899
-0.331535
-0.320745
-0.307682
-0.293081
-0.277813
-0.262576
-0.247809
-0.233721
-0.22037
-0.207736
-0.195763
-0.18438
-0.173524
-0.163129
-0.153142
-0.143526
-0.134235
-0.125253
-0.116747
-0.383808
-0.375978
-0.369037
-0.361737
-0.352681
-0.340885
-0.326338
-0.309857
-0.2925
-0.275143
-0.25834
-0.242363
-0.227301
-0.213146
-0.199844
-0.187322
-0.175507
-0.164326
-0.153715
-0.143616
-0.133974
-0.124748
-0.115932
-0.107542
-0.405718
-0.396369
-0.388085
-0.378583
-0.365936
-0.349745
-0.330964
-0.310991
-0.290986
-0.271673
-0.253405
-0.236294
-0.22033
-0.205448
-0.191562
-0.178584
-0.166429
-0.155017
-0.144272
-0.134128
-0.124522
-0.115408
-0.106759
-0.0984882
-0.429518
-0.4187
-0.408633
-0.395884
-0.378513
-0.357274
-0.334124
-0.31078
-0.288289
-0.267144
-0.247492
-0.229311
-0.212508
-0.19697
-0.182582
-0.169233
-0.156824
-0.14526
-0.134456
-0.124333
-0.11482
-0.105866
-0.0974099
-0.0893092
-0.454068
-0.44181
-0.429285
-0.412076
-0.389041
-0.362449
-0.335028
-0.308521
-0.283727
-0.26088
-0.239946
-0.220787
-0.20324
-0.187145
-0.172355
-0.158737
-0.146173
-0.134554
-0.123782
-0.113769
-0.104439
-0.0957283
-0.087533
-0.0797247
-0.477808
-0.464133
-0.448236
-0.425393
-0.396055
-0.364084
-0.33263
-0.303234
-0.276365
-0.252005
-0.229954
-0.209973
-0.191834
-0.175331
-0.160283
-0.146534
-0.133943
-0.122389
-0.111759
-0.101959
-0.0929133
-0.0845522
-0.0767517
-0.0694336
-0.401983
-0.404076
-0.404698
-0.405117
-0.406007
-0.407565
-0.40985
-0.412872
-0.416631
-0.421136
-0.426422
-0.432559
-0.439663
-0.447898
-0.457466
-0.468577
-0.481402
-0.496001
-0.512241
-0.529753
-0.547864
-0.565686
-0.582088
-0.595427
-0.38514
-0.386113
-0.385741
-0.384972
-0.384422
-0.384358
-0.384921
-0.386231
-0.38844
-0.391751
-0.396413
-0.402719
-0.410979
-0.421492
-0.434525
-0.450212
-0.468524
-0.489238
-0.511759
-0.535296
-0.55875
-0.580696
-0.600167
-0.615065
-0.370853
-0.370684
-0.369469
-0.367766
-0.366086
-0.364741
-0.363944
-0.363894
-0.364851
-0.367152
-0.371191
-0.377396
-0.386188
-0.397861
-0.412765
-0.430874
-0.451989
-0.475629
-0.500992
-0.5269
-0.552307
-0.575173
-0.595087
-0.609569
-0.358328
-0.357227
-0.355385
-0.35298
-0.350391
-0.347964
-0.345969
-0.344666
-0.344382
-0.345529
-0.348584
-0.354043
-0.36237
-0.373925
-0.388918
-0.407312
-0.428788
-0.45268
-0.478197
-0.503767
-0.528749
-0.550887
-0.569973
-0.583168
-0.346991
-0.345323
-0.343076
-0.340165
-0.3368
-0.333333
-0.330105
-0.327448
-0.325737
-0.32542
-0.327009
-0.331032
-0.33797
-0.348188
-0.361862
-0.378916
-0.399016
-0.421398
-0.445406
-0.469328
-0.492949
-0.513618
-0.531763
-0.543279
-0.33651
-0.334696
-0.332305
-0.329052
-0.324987
-0.320436
-0.315817
-0.311569
-0.308145
-0.306042
-0.305791
-0.307931
-0.312946
-0.321203
-0.332878
-0.347895
-0.365957
-0.386314
-0.40844
-0.430929
-0.45341
-0.472866
-0.489446
-0.498416
-0.326745
-0.32521
-0.322921
-0.319483
-0.314806
-0.309154
-0.303016
-0.296968
-0.291601
-0.287505
-0.285263
-0.285436
-0.288519
-0.294881
-0.304714
-0.317957
-0.334363
-0.353388
-0.374297
-0.395595
-0.416281
-0.433559
-0.446979
-0.451253
-0.317726
-0.316804
-0.3148
-0.311318
-0.306173
-0.299551
-0.291984
-0.284185
-0.276913
-0.270905
-0.266851
-0.265372
-0.266995
-0.272104
-0.280905
-0.293338
-0.30906
-0.327178
-0.346637
-0.365696
-0.382891
-0.395658
-0.402782
-0.400033
-0.309657
-0.309552
-0.307875
-0.304438
-0.299013
-0.291734
-0.283143
-0.274052
-0.265374
-0.258015
-0.252807
-0.250473
-0.251561
-0.256417
-0.265058
-0.277086
-0.29179
-0.30788
-0.32414
-0.338584
-0.350024
-0.356196
-0.356183
-0.347301
-0.303077
-0.303747
-0.30235
-0.298969
-0.293494
-0.286014
-0.277067
-0.267534
-0.258424
-0.25076
-0.245457
-0.243239
-0.244507
-0.249313
-0.257337
-0.26786
-0.279812
-0.291839
-0.302684
-0.310723
-0.315534
-0.315569
-0.311325
-0.300547
-0.298879
-0.300059
-0.298839
-0.295587
-0.290345
-0.283241
-0.274738
-0.265742
-0.257234
-0.250235
-0.245514
-0.24359
-0.244677
-0.248559
-0.254616
-0.261941
-0.269337
-0.27575
-0.280076
-0.28177
-0.280892
-0.277195
-0.272271
-0.263159
-0.297965
-0.299221
-0.298087
-0.295109
-0.290423
-0.28416
-0.276661
-0.268885
-0.261511
-0.255314
-0.250969
-0.248791
-0.248739
-0.2504
-0.253064
-0.255872
-0.25793
-0.258649
-0.25747
-0.254651
-0.24996
-0.244042
-0.237413
-0.229129
-0.60792
-0.615045
-0.609192
-0.585688
-0.537973
-0.466739
-0.385178
-0.310092
-0.252582
-0.215318
-0.196709
-0.194021
-0.204205
-0.228
-0.268915
-0.322075
-0.367231
-0.379383
-0.348173
-0.289658
-0.228478
-0.17946
-0.146741
-0.130172
-0.127095
-0.137094
-0.165209
-0.213304
-0.266244
-0.295675
-0.279285
-0.230337
-0.175263
-0.1325
-0.106838
-0.0971545
-0.105371
-0.128821
-0.14967
-0.147881
-0.12717
-0.102218
-0.0844445
-0.0778649
-0.0818587
-0.0904541
-0.093111
-0.0873747
-0.0741106
-0.0616105
-0.053458
-0.0504874
-0.0471695
-0.0418915
-0.035391
-0.035602
-0.0359362
-0.0334002
-0.0201272
-0.00699422
-0.627985
-0.632688
-0.625847
-0.602362
-0.554211
-0.481624
-0.39811
-0.320352
-0.259496
-0.217937
-0.193367
-0.184145
-0.188113
-0.204768
-0.236952
-0.282006
-0.323129
-0.336262
-0.310968
-0.2617
-0.20954
-0.167112
-0.139083
-0.126607
-0.127419
-0.141742
-0.175305
-0.229548
-0.287748
-0.320529
-0.303252
-0.249618
-0.187944
-0.138279
-0.10627
-0.0903639
-0.0917313
-0.108212
-0.124034
-0.122306
-0.105975
-0.0879781
-0.0772523
-0.0776566
-0.0887085
-0.103361
-0.108118
-0.101018
-0.0834387
-0.0655245
-0.0513709
-0.0425366
-0.0367002
-0.0312446
-0.0302133
-0.0372497
-0.043586
-0.0455799
-0.0276907
-0.00708795
-0.62036
-0.623581
-0.617558
-0.594611
-0.546817
-0.475593
-0.39368
-0.317456
-0.256904
-0.213932
-0.186042
-0.171037
-0.168036
-0.176659
-0.198904
-0.233935
-0.269324
-0.284073
-0.266439
-0.22815
-0.185633
-0.150004
-0.127022
-0.118745
-0.123217
-0.141422
-0.179476
-0.238189
-0.300357
-0.33672
-0.320767
-0.264296
-0.197288
-0.141794
-0.104309
-0.0828741
-0.0780616
-0.0883028
-0.0998465
-0.0979869
-0.0854846
-0.0734396
-0.0692982
-0.0768218
-0.0953545
-0.116406
-0.123307
-0.114428
-0.092254
-0.069034
-0.049301
-0.0347451
-0.0263947
-0.0206626
-0.0251312
-0.0386106
-0.0508008
-0.0574232
-0.0353545
-0.00718363
-0.591531
-0.593518
-0.589267
-0.566906
-0.519379
-0.451111
-0.374967
-0.304498
-0.247197
-0.204661
-0.175255
-0.156781
-0.147866
-0.148491
-0.160555
-0.18476
-0.212735
-0.228085
-0.218248
-0.191022
-0.157906
-0.129031
-0.110963
-0.106456
-0.114001
-0.134914
-0.175465
-0.237031
-0.302719
-0.342728
-0.330247
-0.273438
-0.202729
-0.142845
-0.101045
-0.0751137
-0.0650275
-0.0698919
-0.0777623
-0.0754708
-0.0659917
-0.0587531
-0.0605399
-0.0750667
-0.101361
-0.129246
-0.13846
-0.127384
-0.100403
-0.0720268
-0.0472729
-0.02728
-0.0164723
-0.0102875
-0.0201035
-0.0396094
-0.057395
-0.0702431
-0.0430343
-0.00728962
-0.548215
-0.549229
-0.546485
-0.524636
-0.478706
-0.416028
-0.348373
-0.285786
-0.233501
-0.192624
-0.162536
-0.141812
-0.12906
-0.123579
-0.12638
-0.139852
-0.159499
-0.173389
-0.170024
-0.152341
-0.127836
-0.105306
-0.0916088
-0.090289
-0.100247
-0.122634
-0.163691
-0.225865
-0.293855
-0.33733
-0.330783
-0.276589
-0.204297
-0.141615
-0.0967513
-0.0673344
-0.0529997
-0.0533017
-0.0581833
-0.0552628
-0.047785
-0.0440712
-0.0508544
-0.0719856
-0.106307
-0.141453
-0.153238
-0.139702
-0.107799
-0.0744503
-0.0453156
-0.0202837
-0.00711479
-0.000251467
-0.0150733
-0.0401841
-0.0631328
-0.0805979
-0.0505947
-0.00741316
-0.498198
-0.495567
-0.492774
-0.471491
-0.429083
-0.374826
-0.317982
-0.264643
-0.21828
-0.180059
-0.149964
-0.127565
-0.111895
-0.102036
-0.0982583
-0.102325
-0.113265
-0.124018
-0.126654
-0.114246
-0.0971082
-0.0802368
-0.0703125
-0.0715875
-0.0833141
-0.106149
-0.145754
-0.2056
-0.273636
-0.320987
-0.321574
-0.272774
-0.201956
-0.138319
-0.0916966
-0.0598173
-0.042166
-0.0387223
-0.0412764
-0.037667
-0.0312143
-0.0296526
-0.0403594
-0.0675228
-0.109661
-0.152397
-0.167173
-0.151126
-0.114331
-0.0762517
-0.0434527
-0.0138998
0.00152344
0.00930455
-0.0100186
-0.040275
-0.0678729
-0.0899985
-0.0579341
-0.00757475
-0.443093
-0.434849
-0.431814
-0.412804
-0.37703
-0.333503
-0.288029
-0.243884
-0.203524
-0.168421
-0.139051
-0.115499
-0.0974761
-0.0842144
-0.0754262
-0.0722208
-0.0753646
-0.0813388
-0.0845209
-0.0778214
-0.0673332
-0.0553525
-0.0485775
-0.0517228
-0.0646141
-0.0871836
-0.123725
-0.17861
-0.243589
-0.293828
-0.303467
-0.262024
-0.195866
-0.133309
-0.0862519
-0.0528692
-0.0327217
-0.0262078
-0.0269912
-0.0227912
-0.0165495
-0.0159851
-0.0292999
-0.0613441
-0.11106
-0.161525
-0.179743
-0.16146
-0.119928
-0.0774029
-0.0416729
-0.00824471
0.00930899
0.0182548
-0.00493361
-0.039866
-0.0715366
-0.0983277
-0.0649276
-0.00780384
-0.383073
-0.370963
-0.369324
-0.354741
-0.327645
-0.29527
-0.260302
-0.224478
-0.189885
-0.158208
-0.130274
-0.106395
-0.0867347
-0.0709676
-0.0585666
-0.049989
-0.0465018
-0.0472085
-0.0487634
-0.0453484
-0.0399742
-0.0319859
-0.0277743
-0.0321337
-0.0455135
-0.0670429
-0.0997588
-0.148298
-0.207767
-0.259241
-0.277455
-0.244963
-0.186436
-0.126865
-0.0805944
-0.0466711
-0.0247688
-0.0157212
-0.0151388
-0.010618
-0.00402722
-0.00344918
-0.0180139
-0.0537511
-0.109968
-0.167878
-0.190182
-0.17029
-0.124486
-0.0778792
-0.0399268
-0.00337853
0.0161454
0.026461
0.000159076
-0.0389546
-0.0740636
-0.105457
-0.0714396
-0.0081299
-0.324859
-0.313172
-0.314061
-0.304446
-0.285669
-0.262682
-0.236211
-0.207371
-0.178001
-0.149708
-0.123565
-0.100029
-0.0794505
-0.0619968
-0.0472598
-0.0351478
-0.026617
-0.0222432
-0.0211385
-0.0221189
-0.0157464
-0.0108855
-0.00877513
-0.0137391
-0.027098
-0.0475491
-0.0759729
-0.116786
-0.169686
-0.219735
-0.243452
-0.223465
-0.174349
-0.119188
-0.0746873
-0.0411642
-0.0182264
-0.00713757
-0.00542922
-0.000975105
0.00622375
0.00758607
-0.0068104
-0.0443115
-0.106116
-0.171462
-0.19803
-0.177562
-0.127936
-0.0776617
-0.0381878
0.000670134
0.0219692
0.0338553
0.00526562
-0.0376114
-0.0754792
-0.111292
-0.0773527
-0.00858087
-0.278984
-0.270351
-0.272118
-0.265292
-0.252077
-0.235495
-0.215291
-0.192141
-0.167465
-0.142521
-0.118382
-0.0957201
-0.0749383
-0.0564527
-0.0402718
-0.0261064
-0.0143749
-0.00586054
-0.000715336
0.00154722
0.0043362
0.00718169
0.00757342
0.00230866
-0.0104268
-0.029378
-0.053902
-0.0879102
-0.132064
-0.177761
-0.205247
-0.196324
-0.159014
-0.110305
-0.0687061
-0.0365074
-0.0131697
-0.00042142
0.00235169
0.00639672
0.0140403
0.0167721
0.00362596
-0.0340496
-0.0991856
-0.170806
-0.202281
-0.182314
-0.130128
-0.0768213
-0.0365724
0.00373595
0.0267395
0.0403017
0.0103002
-0.0358339
-0.0757702
-0.115744
-0.0825554
-0.00918491
-0.247132
-0.241895
-0.242499
-0.236339
-0.226376
-0.214052
-0.198583
-0.180118
-0.159485
-0.137649
-0.115581
-0.0940917
-0.0736931
-0.0547849
-0.0376305
-0.0221405
-0.00841285
0.00310746
0.0120546
0.0178592
0.0215393
0.0228772
0.021473
0.0160563
0.00424235
-0.0131616
-0.0338689
-0.0605928
-0.0970433
-0.139183
-0.169703
-0.173253
-0.145012
-0.102506
-0.0638735
-0.0332695
-0.00992803
0.00441711
0.00842393
0.0117309
0.0195977
0.0241406
0.0136374
-0.0225414
-0.089172
-0.167735
-0.203328
-0.185608
-0.13153
-0.0757622
-0.0351126
0.00573239
0.030272
0.0458483
0.0153382
-0.0337896
-0.0751353
-0.118787
-0.0868697
-0.00993141
-0.222045
-0.221401
-0.219711
-0.212782
-0.204351
-0.194812
-0.183166
-0.168968
-0.152332
-0.133804
-0.114192
-0.0942933
-0.0747296
-0.0560135
-0.0385104
-0.0222746
-0.00749253
0.00542253
0.0164793
0.0254251
0.0309981
0.0334309
0.0312194
0.0261371
0.0162871
0.000324647
-0.0179572
-0.0392177
-0.0676343
-0.102034
-0.129664
-0.137323
-0.122857
-0.0905965
-0.0568653
-0.0286363
-0.00651775
0.00864907
0.0138328
0.0163634
0.0232871
0.0289708
0.0211439
-0.0115082
-0.076549
-0.159061
-0.199295
-0.184288
-0.130846
-0.07368
-0.0326253
0.00789049
0.0329129
0.0499911
0.0201902
-0.0313757
-0.0734139
-0.120367
-0.0899654
-0.0106784
-0.199322
-0.209035
-0.205618
-0.19621
-0.185711
-0.175173
-0.163843
-0.150737
-0.135484
-0.118399
-0.100249
-0.0818267
-0.0636723
-0.0461858
-0.0296498
-0.0140628
0.000423642
0.0133912
0.0249447
0.03517
0.0432689
0.044486
0.0405701
0.0344869
0.0260652
0.0140893
-0.000253804
-0.0178604
-0.0422878
-0.0747316
-0.106174
-0.1219
-0.104847
-0.0752425
-0.0449339
-0.0198038
-0.000240021
0.0138401
0.0189294
0.0207799
0.0273308
0.035977
0.0304
0.00110354
-0.0618114
-0.148343
-0.194469
-0.182435
-0.126508
-0.0683547
-0.0281911
0.0109991
0.0357932
0.054188
0.0250556
-0.0287763
-0.071082
-0.120722
-0.0919177
-0.011328
-0.174083
-0.186459
-0.184651
-0.174804
-0.163481
-0.152873
-0.142492
-0.131028
-0.11772
-0.102653
-0.0864789
-0.0699193
-0.0534788
-0.0374993
-0.0221714
-0.00752727
0.00613244
0.0183623
0.0293923
0.0394703
0.0474936
0.0483207
0.0449073
0.0391193
0.0320014
0.0226121
0.0110901
-0.00290177
-0.0233291
-0.0536424
-0.084261
-0.0969129
-0.0840052
-0.0588634
-0.0330769
-0.0115026
0.00510994
0.0177916
0.0227172
0.0241685
0.0302035
0.038236
0.0354878
0.0094423
-0.0500571
-0.13767
-0.18698
-0.174858
-0.119915
-0.0620349
-0.0235714
0.0136132
0.0379223
0.0564685
0.0284462
-0.0267925
-0.0686387
-0.119758
-0.0929073
-0.0120026
-0.151641
-0.164398
-0.164129
-0.155491
-0.144849
-0.13484
-0.125366
-0.115237
-0.10355
-0.0901787
-0.0756206
-0.06053
-0.0454039
-0.0305569
-0.0162048
-0.00241022
0.0106463
0.0224469
0.0329224
0.0424586
0.0516079
0.0514814
0.048209
0.0426793
0.0366478
0.0287826
0.0183105
0.00664198
-0.00904179
-0.0335878
-0.0608586
-0.0736618
-0.0643932
-0.0440876
-0.0226604
-0.00418256
0.0099442
0.0213361
0.0258395
0.026893
0.0323529
0.0395792
0.0385042
0.0142419
-0.0419378
-0.12633
-0.17487
-0.163988
-0.111723
-0.055271
-0.0189472
0.0157661
0.0394197
0.0576979
0.0306407
-0.0255129
-0.0658674
-0.11728
-0.0928994
-0.0127408
-0.132513
-0.143921
-0.144611
-0.137442
-0.127739
-0.118288
-0.109392
-0.10015
-0.0897061
-0.077809
-0.0647879
-0.051181
-0.037457
-0.0239197
-0.0107322
0.00200585
0.0141168
0.0251622
0.0349154
0.0432603
0.0478873
0.0523086
0.0503217
0.0456884
0.0410829
0.0351944
0.0266847
0.0177586
0.00658444
-0.0141694
-0.0400202
-0.0521396
-0.0453358
-0.0295101
-0.0124419
0.00291806
0.0144624
0.0242872
0.0281747
0.0289401
0.0338168
0.0414185
0.0406739
0.0176332
-0.0339606
-0.111644
-0.158343
-0.149421
-0.101483
-0.0478133
-0.0141045
0.017633
0.0401923
0.0579042
0.0320539
-0.0242705
-0.062388
-0.11324
-0.0916865
-0.0134627
-0.114697
-0.125012
-0.126251
-0.120318
-0.111644
-0.102915
-0.0946887
-0.0863775
-0.0772113
-0.0668237
-0.055353
-0.0432134
-0.0308204
-0.0184782
-0.00636511
0.00539293
0.0166207
0.0269197
0.0359989
0.0436933
0.0492401
0.0526937
0.0516955
0.0483827
0.0455055
0.0427065
0.0383858
0.0323416
0.0221056
0.00168068
-0.0215846
-0.0318225
-0.0274882
-0.0161888
-0.00333992
0.00918261
0.0186025
0.0268219
0.0299675
0.0303827
0.034679
0.0420446
0.0417977
0.020705
-0.0241889
-0.0935746
-0.137623
-0.131159
-0.0892949
-0.0399933
-0.00942858
0.0191508
0.0402365
0.0569834
0.0329598
-0.0226622
-0.0581622
-0.107511
-0.089095
-0.0140943
-0.0981996
-0.107696
-0.109179
-0.104257
-0.0966793
-0.0888546
-0.0814259
-0.0740142
-0.0659495
-0.0568293
-0.0466838
-0.0358363
-0.0246667
-0.0134877
-0.00247897
0.00824065
0.0185082
0.0279795
0.0363948
0.0435809
0.0491449
0.0524908
0.0525297
0.0507479
0.0495293
0.0494127
0.0489568
0.0448467
0.033968
0.0146064
-0.00474301
-0.0134414
-0.0115816
-0.00416325
0.00499313
0.0148473
0.0223989
0.0289291
0.0313363
0.0313388
0.0350554
0.0415504
0.041959
0.0237742
-0.0135827
-0.0735809
-0.113704
-0.109847
-0.0753565
-0.0319619
-0.00507595
0.0203761
0.0395689
0.0548839
0.0333566
-0.0206832
-0.0532613
-0.100056
-0.0849694
-0.0145263
-0.0834574
-0.0918992
-0.0934714
-0.0894403
-0.0829153
-0.0760084
-0.0693753
-0.0627784
-0.0556685
-0.0476696
-0.0387535
-0.0291653
-0.0192243
-0.00920643
0.000716818
0.0104185
0.0197491
0.0284196
0.0362004
0.0429196
0.0483209
0.0517822
0.0527556
0.0523531
0.0524458
0.0537719
0.0550036
0.0520808
0.0421383
0.0257917
0.0102933
0.00244015
0.00199023
0.00618537
0.0122312
0.0196777
0.0257315
0.0307238
0.0325195
0.0320514
0.0351581
0.0403465
0.041149
0.0260198
-0.00373462
-0.053087
-0.0879186
-0.0857414
-0.060098
-0.0239685
-0.00130326
0.0213625
0.0382409
0.0516103
0.0330229
-0.0183714
-0.0477335
-0.0909145
-0.0791847
-0.0146431
-0.0700705
-0.0774726
-0.0791255
-0.0758653
-0.0702745
-0.0642273
-0.0583669
-0.052549
-0.0463266
-0.0393603
-0.0315844
-0.0231689
-0.0143733
-0.00544497
0.00344253
0.0121586
0.0205744
0.0284589
0.0356125
0.0418605
0.0470068
0.0505925
0.0523171
0.0529797
0.0539674
0.0557368
0.05722
0.0553742
0.0475825
0.0347267
0.0223514
0.0150063
0.0128706
0.01475
0.0184614
0.0238107
0.0285687
0.0322644
0.0336157
0.0327728
0.0352003
0.038886
0.0394565
0.0271452
0.00481859
-0.0332775
-0.0620654
-0.0626072
-0.0443094
-0.0162218
0.00184257
0.0222337
0.0363388
0.046497
0.0318287
-0.0155951
-0.0415957
-0.0802279
-0.0716773
-0.0143191
-0.0577019
-0.0643841
-0.066099
-0.0634681
-0.0587026
-0.0534605
-0.0483444
-0.0432685
-0.0378655
-0.031833
-0.0250853
-0.0177406
-0.0100141
-0.00212415
0.00576788
0.0135416
0.021082
0.0282019
0.0347329
0.040514
0.0453843
0.0490312
0.0513065
0.0527284
0.0542558
0.0560646
0.0573831
0.0562212
0.0504263
0.0406359
0.0308789
0.0242916
0.0212684
0.0216071
0.0236566
0.0272415
0.030856
0.0336104
0.0345963
0.0336137
0.0353826
0.0376463
0.0373867
0.0276859
0.0121496
-0.0153018
-0.0379156
-0.0408477
-0.0288659
-0.00892364
0.00449962
0.0231264
0.0341565
0.0415088
0.0300018
-0.0120873
-0.0348852
-0.0682856
-0.0624856
-0.0134469
-0.0466274
-0.0526155
-0.0542912
-0.0521852
-0.0481641
-0.0436622
-0.0392349
-0.0348429
-0.030186
-0.0249958
-0.0191794
-0.0128178
-0.00608692
0.000829787
0.0077856
0.0146703
0.0213791
0.0277659
0.0336901
0.0390021
0.0435775
0.0472054
0.0498243
0.05172
0.0535031
0.0552038
0.0562524
0.0553963
0.0511742
0.0439271
0.0363903
0.0307671
0.0274938
0.0269019
0.027859
0.030066
0.0326611
0.0347849
0.0354221
0.0344961
0.0357186
0.0370469
0.0356291
0.0282696
0.0180881
-0.000207752
-0.0169415
-0.0218531
-0.0148487
-0.00225192
0.00704125
0.024158
0.0322148
0.0366095
0.0280961
-0.00750029
-0.0276604
-0.0555674
-0.0518426
-0.0119648
-0.0368156
-0.0419906
-0.0435887
-0.0419558
-0.0386008
-0.0347615
-0.0309589
-0.0271914
-0.0232127
-0.0187842
-0.0138113
-0.00834403
-0.00252526
0.00349218
0.00957516
0.0156262
0.0215547
0.0272454
0.0325796
0.037423
0.0416795
0.0452051
0.0479711
0.0501057
0.0519601
0.053507
0.0543292
0.0536583
0.0506379
0.045381
0.0396552
0.0350626
0.0319538
0.0308675
0.031127
0.0323377
0.0340755
0.0357395
0.036078
0.0353241
0.0361562
0.0371073
0.0353639
0.0292132
0.0225931
0.0113644
-0.000363978
-0.00674863
-0.00328003
0.00368707
0.00981418
0.0251941
0.0311186
0.0327559
0.0270389
-0.0014935
-0.0199968
-0.0428025
-0.0403104
-0.00990399
-0.02784
-0.0323928
-0.0339615
-0.0327298
-0.0299462
-0.0266939
-0.0234565
-0.0202544
-0.0168858
-0.0131399
-0.00892266
-0.00426033
0.000731094
0.00592409
0.0112011
0.0164786
0.0216791
0.0267113
0.0314779
0.0358597
0.0397772
0.0431236
0.045882
0.0480863
0.0499133
0.0513148
0.0520046
0.0515067
0.0493774
0.0456361
0.0413609
0.0377342
0.035004
0.0337166
0.0335511
0.034111
0.0351736
0.0364395
0.0365677
0.0359975
0.0365966
0.03747
0.0361046
0.0310745
0.0265467
0.0195456
0.0112091
0.00427345
0.00548083
0.0089388
0.0129493
0.0260671
0.0310516
0.0308744
0.0278122
0.00594053
-0.0120495
-0.0309151
-0.0288809
-0.00743818
-0.0197774
-0.023846
-0.0253489
-0.0244246
-0.0221304
-0.0194006
-0.0166697
-0.0139721
-0.0111456
-0.00800471
-0.00445833
-0.000515301
0.00373081
0.00817442
0.0127145
0.0172811
0.0218081
0.0262218
0.030444
0.034373
0.037938
0.0410505
0.0436945
0.0458557
0.047607
0.0488898
0.0495252
0.0492112
0.0477485
0.0451414
0.0420168
0.0392255
0.0369583
0.0356629
0.0352601
0.0354265
0.0359862
0.0368911
0.0368983
0.0364823
0.0369351
0.0378091
0.037239
0.0334815
0.0302616
0.0252475
0.0186628
0.0120977
0.0118379
0.0135864
0.0162703
0.0266634
0.0315907
0.0310724
0.0304086
0.0139126
-0.00419637
-0.0206699
-0.0187994
-0.00490756
-0.0127117
-0.0162367
-0.0176193
-0.0169519
-0.0150905
-0.0128231
-0.0105397
-0.00828756
-0.00593768
-0.00332814
-0.000372969
0.00293119
0.00651089
0.0102808
0.0141549
0.0180737
0.0219812
0.0258187
0.0295219
0.0330085
0.0362142
0.0390619
0.0415284
0.043577
0.0452294
0.0464221
0.0470527
0.0469257
0.0459697
0.0442019
0.0419732
0.0398762
0.0380733
0.0368904
0.0363774
0.0363254
0.0365298
0.0371295
0.0370761
0.0367897
0.037122
0.0379162
0.0378616
0.0354284
0.0329472
0.0289986
0.0233919
0.0176443
0.0163616
0.0175843
0.0192947
0.0269244
0.031892
0.0322314
0.0327928
0.0203284
0.00263976
-0.0125117
-0.0110167
-0.00272691
-0.00637191
-0.0094149
-0.0107052
-0.0102624
-0.00877241
-0.00690475
-0.00501142
-0.00314871
-0.00121462
0.000931177
0.00336881
0.00611066
0.0091014
0.0122717
0.0155481
0.0188814
0.0222244
0.025531
0.0287471
0.0318055
0.03465
0.0372171
0.0394745
0.0413746
0.042918
0.0440403
0.0446885
0.0447371
0.0441703
0.043019
0.0414769
0.0399409
0.0385601
0.0375565
0.0370143
0.0368567
0.0368242
0.0371854
0.0371031
0.0369091
0.0371389
0.0377601
0.0379713
0.0362886
0.0342108
0.0311147
0.0264015
0.0215304
0.0197468
0.0207994
0.0217453
0.0269993
0.0315959
0.0329627
0.0334151
0.0237156
0.00758659
-0.00632896
-0.00570413
-0.00114886
-0.000688839
-0.00335919
-0.00456562
-0.0042948
-0.00311203
-0.00158739
-3.35648e-05
0.0014898
0.00306336
0.00480809
0.00679812
0.00905106
0.0115255
0.0141658
0.0169109
0.0197197
0.0225528
0.0253742
0.0281391
0.0307928
0.0332872
0.0355667
0.037599
0.0393345
0.0407634
0.0418248
0.0424949
0.0426934
0.042425
0.0417218
0.040702
0.0396145
0.0385913
0.0377895
0.0372682
0.0370703
0.0368988
0.0370779
0.036984
0.0368312
0.0369658
0.0373702
0.0375773
0.0363235
0.0344851
0.0320513
0.0282398
0.0241894
0.022245
0.0231255
0.0235099
0.0268993
0.0307242
0.0326074
0.0322112
0.0242393
0.0104822
-0.00163983
-0.00230014
-0.00017232
0.00430225
0.00198737
0.000888269
0.00102892
0.00195105
0.00317843
0.00443818
0.00566947
0.0069346
0.00833632
0.00994214
0.0117727
0.0137981
0.0159742
0.0182509
0.0205938
0.022971
0.0253547
0.0277074
0.0299841
0.0321452
0.0341432
0.0359481
0.0375116
0.0388201
0.0398228
0.0405073
0.0408205
0.040776
0.0403982
0.0397682
0.0390336
0.0382996
0.0376926
0.0372236
0.0370183
0.0367849
0.0368253
0.0367242
0.0365721
0.0366157
0.0368101
0.036868
0.0358737
0.0342397
0.0322432
0.0292262
0.0259443
0.0240126
0.0245948
0.0246426
0.0266778
0.0295245
0.0313441
0.0303261
0.0234333
0.011974
0.0018786
-9.35001e-05
0.000392899
0.00871319
0.00672693
0.00572953
0.00576325
0.00646488
0.00743893
0.00844761
0.00942985
0.0104327
0.0115425
0.0128207
0.0142894
0.0159281
0.0177017
0.0195695
0.021503
0.0234766
0.0254677
0.0274476
0.0293801
0.0312314
0.0329604
0.0345412
0.0359321
0.0371177
0.038057
0.0387405
0.0391325
0.0392498
0.0391053
0.038757
0.038294
0.037788
0.0373506
0.0369535
0.0367539
0.0365092
0.0364486
0.036333
0.036163
0.0361123
0.0360759
0.0359988
0.0351619
0.0337314
0.0320107
0.0296139
0.027017
0.0251905
0.0253727
0.025268
0.0263298
0.028167
0.0295406
0.0282221
0.0221865
0.0126588
0.00438513
0.00146801
0.000747023
0.0126261
0.0109141
0.0100067
0.00995818
0.0104786
0.0112389
0.0120336
0.0128043
0.0135858
0.0144502
0.0154518
0.0166134
0.017922
0.0193497
0.0208635
0.0224401
0.0240591
0.025703
0.0273496
0.0289705
0.030537
0.0320147
0.0333814
0.0346032
0.0356643
0.0365315
0.0371971
0.0376351
0.0378594
0.0378765
0.0377265
0.0374662
0.0371361
0.0368348
0.0365162
0.0363281
0.0360972
0.0359697
0.0358294
0.0356355
0.0355012
0.0353176
0.0350825
0.0343254
0.033081
0.031559
0.0296107
0.027567
0.025894
0.0256762
0.0254473
0.0258533
0.0267711
0.0275345
0.0260846
0.0208299
0.0128743
0.00606179
0.00265031
0.000997617
0.0160616
0.0145917
0.0137754
0.0136685
0.0140402
0.0146198
0.0152332
0.0158258
0.0164225
0.0170818
0.0178516
0.0187546
0.0197833
0.0209158
0.0221258
0.0233938
0.0247045
0.0260442
0.0273961
0.0287367
0.0300449
0.031292
0.0324583
0.0335168
0.0344524
0.0352393
0.03587
0.0363242
0.0366106
0.0367335
0.0367175
0.0366015
0.0364027
0.0362042
0.0359597
0.0357864
0.0355757
0.0354089
0.0352384
0.0350174
0.0347984
0.0345183
0.0341667
0.0334467
0.0323525
0.0310019
0.0293657
0.0277236
0.0262244
0.0256602
0.0253236
0.0252653
0.0254162
0.0254835
0.0240206
0.0194849
0.0128036
0.00710689
0.00353927
0.0011971
0.0190698
0.0178209
0.0170958
0.0169448
0.0171935
0.0176218
0.0180825
0.0185251
0.0189667
0.0194554
0.0200328
0.0207198
0.0215132
0.0223962
0.0233475
0.0243514
0.0253963
0.0264722
0.0275653
0.0286558
0.0297343
0.0307718
0.0317525
0.032655
0.0334662
0.0341659
0.0347461
0.0351908
0.0355044
0.0356886
0.0357566
0.0357366
0.0356318
0.035506
0.0353235
0.0351663
0.0349731
0.0347841
0.0345838
0.0343362
0.034058
0.0337028
0.0332702
0.0325712
0.0315866
0.0303906
0.0289761
0.0275966
0.0262644
0.0254724
0.0249674
0.0245866
0.0241538
0.0236577
0.0221187
0.0182104
0.0125598
0.00769448
0.00416745
0.00136164
0.0216998
0.0206332
0.0199854
0.0198144
0.0199717
0.0202759
0.0206095
0.0209274
0.021241
0.0215894
0.0220079
0.022516
0.0231131
0.0237868
0.02452
0.0252998
0.0261175
0.0269657
0.027835
0.0287127
0.0295827
0.0304299
0.0312393
0.0319943
0.0326835
0.0332909
0.0338086
0.0342238
0.0345365
0.0347474
0.0348614
0.0348983
0.0348553
0.0347775
0.0346407
0.0344972
0.0343156
0.0341142
0.0338881
0.0336124
0.0332913
0.0328877
0.0324001
0.0317184
0.030812
0.0297438
0.028496
0.0272733
0.026077
0.0251367
0.0244425
0.0238218
0.0229897
0.0220408
0.0204183
0.0170343
0.0122123
0.00796126
0.00456401
0.00148701
0.0239971
0.0230904
0.0225125
0.0223156
0.0223926
0.0226029
0.0228386
0.0230585
0.0232668
0.0235002
0.0237888
0.0241498
0.0245843
0.0250834
0.0256338
0.0262249
0.0268494
0.0275013
0.0281769
0.0288675
0.0295582
0.0302367
0.0308907
0.0315081
0.0320796
0.0325925
0.0330391
0.0334089
0.0336995
0.0339106
0.0340416
0.0341055
0.0340975
0.0340466
0.0339386
0.0338037
0.0336272
0.0334172
0.03317
0.032872
0.0325166
0.0320831
0.0315599
0.0308934
0.0300459
0.0290711
0.0279518
0.0268219
0.0257123
0.0246915
0.0238167
0.022998
0.0219216
0.0206381
0.0189248
0.0159623
0.0118036
0.00800788
0.00476612
0.00156808
0.0259942
0.0252252
0.0247118
0.0245024
0.0245155
0.0246371
0.0247824
0.0249171
0.0250481
0.0251945
0.0253814
0.0256247
0.0259268
0.026282
0.0266803
0.0271134
0.0275759
0.0280658
0.0285764
0.0291028
0.0296351
0.0301633
0.0306776
0.0311684
0.0316281
0.0320471
0.0324178
0.0327317
0.0329847
0.0331751
0.0333009
0.0333691
0.0333747
0.0333341
0.0332391
0.0331064
0.0329283
0.03271
0.0324448
0.0321287
0.0317481
0.0312951
0.0307516
0.0300961
0.0292942
0.0283834
0.027358
0.026288
0.0252192
0.0241599
0.0231445
0.0221538
0.0209316
0.019431
0.0176276
0.014989
0.011362
0.00790763
0.00481639
0.00160571
0.0277202
0.0270701
0.0266163
0.0264018
0.0263659
0.0264196
0.0264947
0.0265613
0.0266207
0.0266914
0.0267935
0.0269407
0.0271357
0.0273743
0.0276485
0.0279519
0.0282802
0.0286317
0.0290034
0.0293907
0.0297863
0.0301827
0.0305724
0.0309484
0.0313039
0.0316316
0.0319246
0.032176
0.032381
0.032537
0.0326412
0.0326967
0.0326988
0.0326544
0.0325591
0.0324216
0.0322362
0.0320078
0.0317271
0.0313953
0.0309964
0.0305292
0.0299751
0.0293262
0.0285582
0.0276918
0.0267282
0.0257009
0.0246457
0.0235632
0.0224545
0.02132
0.0200046
0.0183878
0.0165106
0.0141073
0.0109055
0.00771406
0.00475757
0.00160616
0.029207
0.0286584
0.0282573
0.0280418
0.0279677
0.0279666
0.0279841
0.0279948
0.0279983
0.0280091
0.0280435
0.0281132
0.028221
0.0283639
0.0285358
0.028732
0.028949
0.0291858
0.0294404
0.0297097
0.0299882
0.0302703
0.0305502
0.0308226
0.0310824
0.0313235
0.0315401
0.0317262
0.0318771
0.0319899
0.032061
0.0320909
0.032075
0.0320165
0.0319106
0.0317618
0.0315647
0.0313239
0.0310289
0.0306818
0.0302689
0.0297902
0.02923
0.0285856
0.0278399
0.0270045
0.0260781
0.0250809
0.0240293
0.0229253
0.0217613
0.0205195
0.0191358
0.0174753
0.0155545
0.0133104
0.0104455