/*--------------------------------*- C++ -*----------------------------------*\
| =========                 |                                                 |
| \\      /  F ield         | OpenFOAM: The Open Source CFD Toolbox           |
|  \\    /   O peration     | Version:  2312                                  |
|   \\  /    A nd           | Website:  www.openfoam.com                      |
|    \\/     M anipulation  |                                                 |
\*---------------------------------------------------------------------------*/
FoamFile
{
    version     2.0;
    format      ascii;
    arch        "LSB;label=32;scalar=64";
    class       surfaceScalarField;
    location    "9.65";
    object      phi;
}
// * * * * * * * * * * * * * * * * * * * * * * * * * * * * * * * * * * * * * //

dimensions      [0 3 -1 0 0 0 0];

oriented        oriented;

internalField   nonuniform List<scalar> 
10785
(
-8.79683e-05
0.00266687
-0.0025789
0.00216067
0.00648624
-0.00873488
0.00748832
0.00677415
-0.0121018
0.0166284
0.00193117
-0.0110712
0.031061
-0.00900678
-0.00542588
0.0521044
-0.0259302
0.0048868
0.080094
-0.047524
0.0195344
0.113708
-0.0718362
0.0382223
0.14994
-0.0966536
0.0604219
0.185867
-0.120197
0.0842701
0.216735
-0.140644
0.109776
0.240724
-0.156456
0.132467
0.255254
-0.169048
0.154517
0.259842
-0.174654
0.170067
-0.183119
0.183001
0.25996
-0.000961774
0.00362865
0.000282157
0.00524231
0.00623266
0.000823645
0.0194137
-0.0112499
0.0413993
-0.0309924
0.0711707
-0.0557015
0.105511
-0.0818647
0.140136
-0.106461
0.170991
-0.127508
0.194871
-0.144077
0.210277
-0.15605
0.218855
-0.165034
0.222098
-0.172291
0.227176
-0.179732
-0.190366
0.234423
-0.000510749
0.0041394
0.00234507
0.00238649
0.012565
-0.00939625
0.0328195
-0.0315044
0.0614788
-0.0596517
0.0937227
-0.0879454
0.124193
-0.112335
0.148891
-0.131159
0.166068
-0.144685
0.176379
-0.154388
0.182832
-0.162503
0.188298
-0.1705
0.19528
-0.179273
0.203838
-0.18829
-0.196727
0.210199
0.000585946
0.00355345
0.00678304
-0.0038106
0.0231872
-0.0258004
0.0490065
-0.0573238
0.0781557
-0.0888009
0.104409
-0.114198
0.124232
-0.132158
0.137333
-0.144261
0.145768
-0.153119
0.152455
-0.161075
0.159053
-0.169102
0.165907
-0.177355
0.172018
-0.185384
0.176871
-0.193144
-0.201639
0.181783
0.00185825
0.0016952
0.0124907
-0.0144431
0.034182
-0.0474917
0.0604139
-0.0835556
0.0836968
-0.112084
0.100612
-0.131113
0.111671
-0.143217
0.119233
-0.151822
0.125448
-0.159335
0.131023
-0.16665
0.135911
-0.173989
0.140013
-0.181457
0.143819
-0.189189
0.148367
-0.197692
-0.206262
0.15299
0.0034375
-0.0017423
0.0185528
-0.0295584
0.0417616
-0.0707004
0.063425
-0.105219
0.0790492
-0.127708
0.0890512
-0.141115
0.0956421
-0.149808
0.100582
-0.156762
0.104591
-0.163343
0.108044
-0.170103
0.111318
-0.177263
0.114714
-0.184853
0.118368
-0.192843
0.121698
-0.201022
-0.209309
0.124745
0.00542551
-0.00716781
0.0233307
-0.0474636
0.0438345
-0.0912042
0.0593371
-0.120722
0.0690031
-0.137374
0.0747541
-0.146867
0.0784613
-0.153516
0.0812116
-0.159513
0.0836054
-0.165737
0.0858809
-0.172379
0.088008
-0.179391
0.0899143
-0.186759
0.0915179
-0.194447
0.0930915
-0.202596
-0.210992
0.0947749
0.00750482
-0.0146726
0.0253444
-0.0653032
0.041201
-0.107061
0.0512685
-0.130789
0.0566654
-0.142771
0.0594628
-0.149664
0.0611115
-0.155164
0.0623091
-0.16071
0.0632275
-0.166655
0.0638674
-0.173019
0.0642937
-0.179817
0.0645927
-0.187058
0.0649457
-0.1948
0.0652875
-0.202937
0.0656499
-0.211354
-0.00944526
0.00578376
0.0036615
-0.0244064
0.00915195
0.00580922
-0.0409441
0.0101177
0.00642001
-0.0582237
0.0105074
0.00677227
-0.0759757
0.0105987
0.0071533
-0.0938484
0.0103269
0.00754577
-0.111449
0.00968497
0.00791555
-0.128347
0.00869682
0.00820163
-0.144086
0.0074186
0.00832052
-0.158176
0.0059213
0.00816791
-0.170082
0.00426885
0.00763703
-0.179218
0.00249345
0.00664312
-0.184866
0.000556316
0.00509118
-0.186277
-0.00141835
0.00282937
-0.00386867
-0.18223
-0.00017811
-0.00788094
0.0136647
-0.0210233
0.0222943
-0.0357673
0.0248617
-0.0510722
0.0258122
-0.0665575
0.0260839
-0.0818411
0.0256105
-0.0965102
0.0243541
-0.110126
0.0223129
-0.122224
0.0195166
-0.132294
0.0159914
-0.139786
0.0117603
-0.144054
0.0067614
-0.144151
0.000653249
-0.14025
-0.00531924
-0.0133305
-0.130788
-0.0040502
0.0177149
-0.0124668
0.0307109
-0.0224785
0.0348734
-0.0326226
0.0359563
-0.0422367
0.0356981
-0.0508772
0.034251
-0.0580999
0.0315768
-0.0634694
0.0276825
-0.0665588
0.022606
-0.0668855
0.016318
-0.0641005
0.00897535
-0.0574894
0.000150337
-0.0473326
-0.00950362
-0.0324022
-0.0202496
-0.0337639
-0.0119689
0.000431211
0.0172837
-0.00193301
0.0330751
-0.00601773
0.0389581
-0.0100781
0.0400167
-0.0130884
0.0387084
-0.0144744
0.0356369
-0.0138007
0.0309031
-0.0106626
0.0245444
-0.00470639
0.0166499
0.00447072
0.00714089
0.0166322
-0.00318611
0.0326316
-0.0158491
0.0524831
-0.0293551
0.0767647
-0.0445312
-0.0651676
0.108168
0.00383257
0.0134511
0.00742618
0.0294815
0.00964132
0.036743
0.0116648
0.0379933
0.0147751
0.035598
0.019747
0.030665
0.0269916
0.0236586
0.036739
0.014797
0.0489108
0.00447803
0.0640909
-0.0080392
0.0820758
-0.021171
0.10384
-0.0376134
0.12982
-0.0553348
0.159967
-0.0746783
-0.101482
0.196281
0.00499631
0.0084548
0.0124721
0.0220057
0.019883
0.0293321
0.0272612
0.0306151
0.0354451
0.0274141
0.045115
0.0209951
0.05661
0.0121637
0.0697909
0.00161607
0.0858173
-0.0115485
0.104458
-0.0266798
0.127049
-0.0437618
0.15406
-0.0646248
0.185469
-0.0867438
0.222447
-0.111656
-0.138787
0.259752
0.00397556
0.00447924
0.0118537
0.0141276
0.0212536
0.0199322
0.0313339
0.0205348
0.0421499
0.0165981
0.0540537
0.00909131
0.0676076
-0.00139029
0.0840862
-0.0148625
0.104118
-0.0315806
0.128252
-0.0508131
0.158234
-0.0737441
0.19173
-0.0981213
0.228367
-0.12338
0.265236
-0.148526
-0.168376
0.294826
0.00190033
0.00729304
0.0151234
0.024587
0.0357592
0.0497373
0.0678814
0.0912411
0.120082
0.153539
0.189571
0.223917
0.255055
0.276595
0.29122
-0.141296
-0.0315188
-0.00941468
-0.0763707
-0.0366808
-0.0282449
-0.0038349
-0.0265865
-0.0459493
0.0640107
-0.0153368
-0.0525088
0.120666
-0.00344132
-0.0532142
0.163762
0.00640771
-0.0495031
0.195338
0.0138332
-0.0454091
0.218573
0.0191553
-0.0423908
0.236034
0.0229862
-0.0404474
0.249214
0.0260562
-0.0392362
0.259066
0.0286021
-0.0384536
0.266254
0.0306763
-0.0378647
0.271346
0.0324383
-0.0375304
0.274864
0.0341528
-0.0376702
0.277253
0.0360062
-0.0383958
0.278854
0.0380702
-0.0396705
0.279901
0.0403674
-0.0414147
0.280546
0.0428737
-0.0435187
0.280898
0.0457167
-0.0460693
0.281019
0.0484981
-0.0486184
0.280959
0.0526445
-0.0525851
0.280766
0.0542929
-0.0540994
0.280391
0.0639093
-0.0635341
0.280045
0.0564563
-0.0561108
0.279342
0.0871973
-0.0864943
0.278916
0.0485208
-0.0480945
0.27813
0.121957
-0.121171
0.277125
0.059089
-0.0580844
0.276796
0.104689
-0.10436
0.275588
0.155726
-0.154518
0.274063
0.083543
-0.0820178
0.273694
0.107564
-0.107195
0.273332
0.226979
-0.226617
0.271622
0.258998
-0.257288
0.269292
0.150024
-0.147695
0.267185
0.0351054
-0.0329977
0.265439
-0.0680105
0.0697561
-0.0768355
0.0784137
-0.0977434
-0.0645634
-0.0476848
-0.0867394
0.0151167
-0.089388
0.0758725
-0.0760927
0.126942
-0.0545112
0.166267
-0.0329165
0.195374
-0.0152742
0.217178
-0.00264827
0.234027
0.0061368
0.247093
0.0129898
0.257133
0.0185626
0.2646
0.0232094
0.269945
0.0270935
0.273654
0.030444
0.276181
0.0334791
0.277884
0.0363665
0.279016
0.0392361
0.279735
0.0421541
0.280154
0.0452982
0.280343
0.0483086
0.28034
0.0526476
0.280229
0.0544042
0.279895
0.0642434
0.279663
0.0566884
0.278985
0.0878752
0.278675
0.0488304
0.277985
0.122647
0.276964
0.0601105
0.276879
0.104774
0.275658
0.156947
0.274101
0.0850997
0.274006
0.107659
0.273785
0.227201
0.271922
0.260861
0.269411
0.152535
0.267255
0.0372608
0.265607
-0.0663624
-0.0754218
0.00748971
-0.0840219
0.0373301
-0.11658
0.0786025
-0.13066
0.121956
-0.119447
0.159219
-0.0917737
0.188198
-0.0618954
0.209957
-0.0370339
0.226086
-0.0187764
0.238353
-0.00613098
0.248223
0.00312001
0.256151
0.0106352
0.262337
0.0170226
0.267
0.0224308
0.270406
0.0270381
0.272851
0.031034
0.27459
0.0346271
0.275813
0.0380136
0.27665
0.0413167
0.277194
0.0447545
0.277522
0.0479808
0.277648
0.0525214
0.2777
0.0543526
0.277488
0.0644551
0.277458
0.0567182
0.276898
0.0884349
0.276797
0.048932
0.276307
0.123137
0.275378
0.0610392
0.275635
0.104517
0.274546
0.158037
0.273077
0.0865683
0.273374
0.107363
0.273415
0.227159
0.271553
0.262723
0.269024
0.155065
0.266983
0.0393018
0.265599
-0.0649782
-0.0743468
0.110011
-0.0858646
0.124881
-0.131449
0.145782
-0.151562
0.169015
-0.142679
0.190372
-0.113131
0.208067
-0.0795901
0.222201
-0.0511682
0.23287
-0.0294448
0.241051
-0.0143123
0.247646
-0.00347436
0.253243
0.00503813
0.257931
0.0123345
0.261742
0.0186199
0.264759
0.0240208
0.267106
0.0286865
0.268912
0.0328215
0.270282
0.0366439
0.271305
0.0402939
0.272045
0.0440141
0.272586
0.0474399
0.272916
0.0521911
0.27321
0.0540588
0.2732
0.0644654
0.273459
0.056459
0.273107
0.0887867
0.273303
0.0487355
0.273121
0.12332
0.272381
0.0617789
0.273086
0.103812
0.272261
0.158862
0.270994
0.087835
0.271783
0.106574
0.272234
0.226708
0.270529
0.264428
0.268139
0.157455
0.26637
0.0410712
0.265414
-0.0640226
-0.0737834
0.191152
-0.0807354
0.187115
-0.127413
0.190213
-0.15466
0.196024
-0.14849
0.203641
-0.120748
0.212442
-0.0883914
0.221051
-0.0597776
0.228887
-0.0372804
0.23556
-0.0209857
0.241324
-0.00923751
0.246268
9.40802e-05
0.250496
0.00810657
0.253978
0.015137
0.256814
0.0211853
0.259128
0.0263727
0.261019
0.03093
0.262556
0.0351072
0.263799
0.0390513
0.264784
0.0430287
0.265598
0.046626
0.266198
0.0515911
0.266809
0.0534478
0.267075
0.0641997
0.267707
0.0558265
0.267648
0.0888462
0.268229
0.0481539
0.268461
0.123088
0.267998
0.0622418
0.269261
0.102548
0.268825
0.159298
0.267867
0.0887929
0.269255
0.105185
0.270261
0.225703
0.268869
0.265819
0.266768
0.159557
0.265422
0.0424172
0.265055
-0.0636558
-0.0739011
0.249204
-0.0701879
0.232604
-0.110813
0.216583
-0.138639
0.206519
-0.138425
0.202616
-0.116845
0.204442
-0.0902174
0.210191
-0.0655267
0.216955
-0.0440444
0.223469
-0.0274996
0.229296
-0.0150651
0.234435
-0.00504416
0.238921
0.00362046
0.242749
0.0113086
0.245918
0.0180161
0.248545
0.0237462
0.250741
0.0287338
0.252585
0.033263
0.254147
0.03749
0.255457
0.0417182
0.256618
0.0454652
0.257559
0.0506503
0.258562
0.0524446
0.259177
0.0635847
0.260265
0.0547386
0.260578
0.0885326
0.261628
0.0471047
0.262376
0.12234
0.262271
0.0623468
0.264204
0.100616
0.264271
0.15923
0.263726
0.0893378
0.265817
0.103095
0.267522
0.223998
0.266595
0.266746
0.264925
0.161227
0.264148
0.0431946
0.264524
-0.0640324
-0.0748645
0.27729
-0.052652
0.251575
-0.0850972
0.222268
-0.109332
0.201919
-0.118077
0.192815
-0.10774
0.192343
-0.0897459
0.196552
-0.0697358
0.202833
-0.0503256
0.209313
-0.0339788
0.215375
-0.0211275
0.220901
-0.0105703
0.225626
-0.00110449
0.22972
0.00721458
0.233139
0.0145968
0.236011
0.0208743
0.238477
0.0262682
0.240624
0.0311163
0.242524
0.0355897
0.244197
0.0400451
0.245757
0.0439051
0.247095
0.0493123
0.24856
0.0509795
0.249587
0.0625582
0.251212
0.053114
0.251969
0.0877755
0.253564
0.0455092
0.254935
0.120969
0.25525
0.0620317
0.257968
0.0978982
0.25865
0.158548
0.258603
0.0893849
0.2615
0.100198
0.26406
0.221438
0.263742
0.267064
0.262636
0.162333
0.262561
0.0432699
0.263829
-0.0653006
-0.0768314
0.271661
-0.0330932
0.244275
-0.0577111
0.21498
-0.0800368
0.189758
-0.0928551
0.176282
-0.0942647
0.172911
-0.0863748
0.176237
-0.0730613
0.183122
-0.0572111
0.190677
-0.0415335
0.197709
-0.0281593
0.203787
-0.0166486
0.209184
-0.00650195
0.213809
0.00259032
0.217836
0.0105691
0.221248
0.0174629
0.224175
0.0233403
0.226741
0.0285509
0.229052
0.0332784
0.231142
0.0379552
0.23315
0.0418971
0.234939
0.0475228
0.236919
0.0489996
0.238425
0.061052
0.240644
0.0508954
0.241934
0.0864852
0.244128
0.0433157
0.246219
0.118878
0.247031
0.0612198
0.250603
0.0943257
0.252026
0.157126
0.252572
0.0888382
0.256338
0.0964322
0.25989
0.217886
0.260338
0.266616
0.259929
0.162742
0.260686
0.0425123
0.262978
-0.0675927
-0.0799501
0.493533
-0.0164301
-0.510196
0.474903
-0.0390813
0.452092
-0.0572253
0.427971
-0.0687342
0.407286
-0.0735801
0.391682
-0.0707711
0.381134
-0.0625129
0.374813
-0.0508899
0.371534
-0.0382543
0.370218
-0.0268435
0.370075
-0.0165053
0.370672
-0.00709951
0.371946
0.00131605
0.373428
0.00908792
0.375021
0.0158693
0.376569
0.0217927
0.378022
0.0270977
0.379359
0.0319419
0.380562
0.0367515
0.381645
0.0408147
0.382623
0.0465448
0.383451
0.0481718
0.384319
0.0601837
0.384845
0.0503696
0.385745
0.0855853
0.386094
0.0429662
0.386669
0.118304
0.387599
0.0602895
0.387528
0.0943961
0.38819
0.156464
0.389253
0.0877751
0.389579
0.096106
0.389527
0.217939
0.389732
0.266411
0.389943
0.16253
0.389853
0.0426031
0.389753
-0.0674928
-0.0799534
0.516981
-0.00560668
-0.527804
0.501749
-0.0238493
0.483941
-0.0394175
0.465768
-0.0505606
0.448245
-0.0560578
0.433451
-0.0559768
0.422269
-0.0513313
0.414812
-0.0434326
0.4107
-0.0341417
0.40876
-0.0249035
0.408018
-0.0157641
0.407971
-0.0070526
0.408381
0.00090665
0.409389
0.00807992
0.410653
0.014605
0.412064
0.020382
0.413483
0.025678
0.414846
0.0305795
0.416109
0.0354887
0.417256
0.0396667
0.418309
0.0454927
0.419206
0.0472744
0.420141
0.0592483
0.420758
0.0497531
0.421697
0.0846458
0.422165
0.0424984
0.422795
0.117674
0.423775
0.05931
0.423846
0.0943246
0.42457
0.15574
0.425705
0.0866399
0.426059
0.0957522
0.426089
0.217908
0.426372
0.266128
0.42662
0.162282
0.426556
0.0426666
0.426491
-0.0674269
-0.0799964
0.548466
0.000831009
-0.554903
0.538157
-0.0135403
0.524721
-0.0259819
0.50921
-0.0350495
0.493399
-0.0402469
0.479021
-0.0415984
0.467269
-0.0395796
0.458642
-0.0348056
0.453002
-0.0285015
0.449677
-0.0215789
0.448047
-0.0141345
0.447618
-0.00662312
0.448128
0.000396843
0.44901
0.00719785
0.450165
0.01345
0.451408
0.0191392
0.452684
0.0244014
0.453954
0.0293094
0.455179
0.034264
0.456331
0.0385149
0.457415
0.0444083
0.458371
0.0463185
0.459354
0.0582657
0.460076
0.0490307
0.46104
0.0836824
0.461652
0.0418865
0.462339
0.116986
0.46338
0.0582696
0.463622
0.0940827
0.464433
0.154928
0.465578
0.0854957
0.466054
0.0952757
0.466291
0.217672
0.466658
0.265761
0.466879
0.162061
0.466795
0.0427506
0.466764
-0.0673954
-0.0800822
0.582409
0.00552723
-0.587105
0.573655
-0.00478701
0.562091
-0.0144172
0.549195
-0.0221543
0.536376
-0.0274279
0.524615
-0.0298372
0.514621
-0.0295854
0.506836
-0.0270205
0.501224
-0.0228894
0.497398
-0.0177529
0.494951
-0.0116878
0.493545
-0.00521733
0.492902
0.00103995
0.493022
0.00707788
0.493641
0.012831
0.494576
0.0182043
0.495678
0.0232994
0.496851
0.0281362
0.49803
0.0330853
0.49917
0.0373749
0.50027
0.0433084
0.501274
0.0453142
0.502292
0.0572477
0.503134
0.0481895
0.504108
0.0827077
0.504893
0.0411023
0.505651
0.116227
0.50672
0.057201
0.507225
0.0935782
0.508104
0.154049
0.509219
0.0843806
0.509917
0.0945778
0.510461
0.217127
0.510909
0.265314
0.511064
0.161906
0.510945
0.0428697
0.510941
-0.0673922
-0.0802111
0.620592
0.00895706
-0.624022
0.614236
0.00156987
0.605747
-0.00592843
0.595996
-0.012404
0.585593
-0.0170249
0.575309
-0.0195532
0.565892
-0.0201685
0.557906
-0.019034
0.55162
-0.0166034
0.547048
-0.0131812
0.543954
-0.00859408
0.542056
-0.00331921
0.54115
0.00194609
0.540998
0.00723
0.541366
0.0124632
0.542053
0.0175172
0.542942
0.0224106
0.543957
0.0271215
0.545037
0.0320047
0.546132
0.0362796
0.547227
0.0422138
0.548271
0.0442699
0.549322
0.0561965
0.550284
0.047228
0.551277
0.0817142
0.552237
0.0401427
0.553085
0.115379
0.554182
0.0561046
0.555004
0.0927557
0.555937
0.153116
0.557035
0.0832828
0.55803
0.0935829
0.55894
0.216217
0.55948
0.264773
0.55956
0.161826
0.559394
0.0430366
0.559417
-0.0674157
-0.0803836
0.663376
0.0112631
-0.665682
0.658933
0.00601278
0.652566
0.000438269
0.644676
-0.00451365
0.636054
-0.00840272
0.627454
-0.0109535
0.619432
-0.012146
0.61239
-0.0119922
0.606503
-0.0107163
0.601829
-0.00850687
0.598437
-0.00520231
0.596152
-0.00103423
0.594648
0.00345018
0.593934
0.00794416
0.593832
0.012565
0.594162
0.0171871
0.594789
0.0217839
0.595619
0.0262911
0.596582
0.0310424
0.597615
0.0352458
0.598688
0.0411412
0.599764
0.0431938
0.600842
0.0551184
0.601921
0.0461495
0.602944
0.0806904
0.604077
0.0390097
0.605044
0.114412
0.606183
0.0549659
0.607342
0.0915964
0.608351
0.152107
0.609466
0.0821677
0.610806
0.0922431
0.612119
0.214904
0.61278
0.264112
0.612796
0.16181
0.612583
0.0432498
0.612634
-0.0674667
-0.0805996
0.712056
0.0128513
-0.713644
0.708786
0.00928323
0.703936
0.00528763
0.697958
0.00146423
0.691247
-0.00169171
0.684291
-0.00399722
0.677481
-0.00533652
0.671156
-0.00566632
0.665563
-0.00512346
0.660865
-0.00380919
0.657175
-0.00151227
0.654485
0.00165542
0.652708
0.00522786
0.651653
0.00899832
0.651219
0.0129993
0.651252
0.0171546
0.651629
0.0214063
0.652266
0.0256544
0.653092
0.0302162
0.654048
0.0342901
0.655085
0.0401041
0.656184
0.0420944
0.657286
0.0540171
0.658479
0.0449559
0.659551
0.0796184
0.660858
0.037703
0.661973
0.113297
0.663171
0.0537682
0.664682
0.0900849
0.66581
0.15098
0.666977
0.0810001
0.668704
0.0905167
0.670459
0.213149
0.671279
0.263293
0.671257
0.161832
0.671007
0.0435001
0.671086
-0.0675458
-0.0808564
0.766415
0.0140947
-0.767658
0.764037
0.0116607
0.760495
0.00883017
0.755967
0.00599178
0.750758
0.0035178
0.745127
0.0016333
0.739418
0.000372479
0.733962
-0.000209807
0.728971
-0.000132597
0.724585
0.000576477
0.720989
0.00208439
0.71822
0.00442403
0.716185
0.00726307
0.714812
0.0103707
0.714045
0.0137666
0.713781
0.0174183
0.71391
0.0212775
0.71435
0.0252146
0.715032
0.0295338
0.715901
0.0334215
0.716894
0.0391114
0.718009
0.0409785
0.719135
0.0528911
0.720444
0.0436477
0.721584
0.0784784
0.723065
0.0362218
0.724357
0.112005
0.725639
0.052486
0.727521
0.0882033
0.728816
0.149684
0.730077
0.079739
0.732237
0.0883565
0.734486
0.2109
0.735515
0.262264
0.735493
0.161853
0.735221
0.0437723
0.735328
-0.0676536
-0.081148
0.826728
0.0148548
-0.827488
0.825131
0.0132572
0.822632
0.0113297
0.819297
0.00932671
0.815298
0.00751636
0.810905
0.00602688
0.806337
0.0049406
0.801815
0.00431215
0.797514
0.0041684
0.79356
0.00453007
0.79012
0.00552425
0.787334
0.00721049
0.785194
0.00940284
0.783647
0.0119175
0.782656
0.0147581
0.782161
0.0179131
0.782081
0.0213574
0.782346
0.0249498
0.782894
0.0289861
0.783677
0.0326376
0.784626
0.038163
0.785758
0.0398467
0.786915
0.0517338
0.78834
0.042223
0.789569
0.0772494
0.791231
0.0345595
0.792731
0.110505
0.794133
0.051084
0.796405
0.0859317
0.797926
0.148163
0.799334
0.0783313
0.801982
0.085708
0.804791
0.208092
0.806095
0.26096
0.806118
0.16183
0.805847
0.0440437
0.805983
-0.0677897
-0.0814637
0.89385
0.0152841
-0.894279
0.892771
0.0143361
0.891018
0.0130822
0.888622
0.0117231
0.88568
0.0104587
0.882341
0.0093658
0.878751
0.00853027
0.875081
0.00798278
0.871477
0.00777218
0.86806
0.00794638
0.864977
0.00860781
0.862361
0.00982625
0.860257
0.0115072
0.85865
0.0135243
0.857531
0.0158774
0.856877
0.0185668
0.85664
0.0215947
0.856767
0.0248225
0.857205
0.0285478
0.85792
0.0319227
0.858836
0.0372474
0.859992
0.0386908
0.861193
0.0505328
0.862743
0.0406725
0.864084
0.0759091
0.865946
0.0326968
0.867683
0.108768
0.869252
0.0495146
0.871941
0.0832429
0.873754
0.14635
0.875376
0.0767092
0.878579
0.0825052
0.882032
0.204638
0.883703
0.259289
0.883833
0.1617
0.883591
0.0442859
0.883753
-0.0679519
-0.0817846
0.967993
0.0155112
-0.96822
0.967338
0.0149916
0.966204
0.014216
0.96458
0.013347
0.962504
0.0125351
0.960038
0.0118316
0.957312
0.0112556
0.95445
0.0108451
0.951559
0.0106633
0.948736
0.0107689
0.946101
0.0112433
0.943777
0.0121505
0.941835
0.0134493
0.940294
0.0150653
0.939164
0.0170069
0.938448
0.0192827
0.938126
0.0219168
0.938169
0.0247793
0.938538
0.0281789
0.939214
0.0312466
0.940121
0.0363408
0.941322
0.0374901
0.942586
0.0492684
0.944284
0.0389746
0.94576
0.0744331
0.947855
0.0306019
0.949863
0.10676
0.951647
0.0477307
0.954801
0.0800887
0.956983
0.144168
0.95889
0.0748027
0.962737
0.0786583
0.966965
0.20041
0.969105
0.257149
0.969402
0.161403
0.969271
0.0444169
0.969442
-0.0681221
-0.0820798
1.04972
0.0155136
-1.04973
1.04944
0.015276
1.04879
0.0148602
1.04777
0.0143688
1.04639
0.0139152
1.0447
0.013522
1.04277
0.013191
1.04066
0.0129477
1.03847
0.0128567
1.03626
0.0129772
1.03413
0.0133712
1.03219
0.0140925
1.03051
0.0151282
1.02914
0.0164397
1.0281
0.0180465
1.02742
0.0199661
1.02709
0.0222408
1.02712
0.0247509
1.02748
0.0278214
1.02816
0.0305645
1.0291
0.0354009
1.03037
0.03622
1.03175
0.0478919
1.03359
0.0371265
1.0353
0.0727294
1.03759
0.0283121
1.04
0.104346
1.04199
0.0457414
1.04568
0.0764021
1.04837
0.14148
1.05063
0.0725404
1.05519
0.0740952
1.06037
0.195227
1.06326
0.254261
1.06386
0.160805
1.06372
0.0445571
1.06394
-0.0683439
-0.0822977
1.13966
0.0152785
-1.13943
1.13963
0.0153036
1.13935
0.0151415
1.1388
0.0149255
1.13797
0.0147411
1.1369
0.0145898
1.13563
0.0144628
1.1342
0.0143767
1.13267
0.014391
1.13109
0.0145589
1.12953
0.0149275
1.12808
0.0155437
1.1268
0.0164085
1.12574
0.0175021
1.12493
0.0188516
1.12442
0.0204804
1.12421
0.0224439
1.12433
0.0246298
1.12477
0.0273842
1.12554
0.0297948
1.12658
0.0343677
1.12799
0.034804
1.12949
0.0463931
1.13161
0.0350016
1.13342
0.0709245
1.13622
0.0255078
1.13875
0.10182
1.14136
0.0431306
1.14551
0.0722515
1.14867
0.138317
1.1516
0.0696121
1.15705
0.0686489
1.16325
0.189025
1.16689
0.250621
1.16797
0.15973
1.1684
0.0441261
1.16844
-0.0683827
-0.0823319
1.23866
0.0148861
-1.23826
1.23895
0.0150126
1.23906
0.0150328
1.23896
0.0150192
1.23867
0.0150359
1.23818
0.0150754
1.23752
0.015123
1.23672
0.0151833
1.23579
0.0153132
1.23479
0.0155661
1.23374
0.0159725
1.23272
0.0165614
1.2318
0.0173329
1.23103
0.0182757
1.23045
0.0194222
1.23013
0.0208034
1.23009
0.0224868
1.23035
0.0243692
1.23092
0.0268146
1.23182
0.0288939
1.23301
0.0331808
1.23458
0.0332312
1.23632
0.0446492
1.23863
0.0326994
1.24092
0.0686295
1.24376
0.0226658
1.24717
0.0984105
1.24976
0.0405474
1.25478
0.0672222
1.25884
0.13426
1.26207
0.0663819
1.2685
0.0622235
1.27645
0.181074
1.28172
0.245348
1.28343
0.158018
1.28351
0.0440445
1.28375
-0.0686163
-0.0821051
1.34643
0.0142237
-1.34577
1.34693
0.0145097
1.34732
0.0146492
1.34758
0.0147602
1.34771
0.0149049
1.34771
0.0150715
1.3476
0.0152392
1.34736
0.0154156
1.34703
0.0156486
1.34663
0.015966
1.34621
0.016386
1.34583
0.0169468
1.3455
0.0176594
1.34527
0.018511
1.34517
0.0195228
1.34525
0.0207203
1.34556
0.0221731
1.34615
0.0237871
1.34702
0.0259411
1.34821
0.0276983
1.3497
0.0316959
1.35159
0.0313368
1.35363
0.04261
1.35638
0.0299511
1.35885
0.0661581
1.36256
0.0189594
1.36598
0.0949908
1.36976
0.0367694
1.37519
0.0617883
1.38006
0.129395
1.38453
0.061909
1.39218
0.0545677
1.4017
0.171556
1.40859
0.238458
1.41169
0.154922
1.41335
0.0423807
1.41269
-0.0679569
-0.0810836
1.46594
0.0133853
-1.4651
1.46678
0.0136629
1.46757
0.0138682
1.46825
0.0140757
1.46883
0.0143282
1.4693
0.0145934
1.46969
0.0148491
1.47002
0.0150947
1.47028
0.0153813
1.47046
0.0157844
1.47051
0.0163371
1.47044
0.0170188
1.47033
0.0177727
1.47028
0.0185586
1.4704
0.0194048
1.47075
0.0203681
1.47137
0.0215502
1.47228
0.022881
1.47348
0.02474
1.47499
0.0261907
1.4768
0.0298803
1.47899
0.0291501
1.48146
0.0401401
1.48445
0.0269584
1.48772
0.0628924
1.49134
0.0153384
1.49607
0.0902581
1.49977
0.033074
1.50627
0.055289
1.51263
0.123033
1.51743
0.0571077
1.52615
0.0458512
1.53849
0.159211
1.54849
0.228464
1.55304
0.150371
1.55418
0.0412401
1.55387
-0.0676505
-0.0794579
1.59482
0.0122247
-1.59365
1.5959
0.0125793
1.59694
0.0128227
1.59796
0.0130633
1.59895
0.0133382
1.59991
0.013626
1.60084
0.013927
1.60169
0.0142452
1.60243
0.0146362
1.60308
0.0151349
1.60372
0.0157007
1.6044
0.0163398
1.60508
0.0170865
1.60575
0.0178883
1.60648
0.0186789
1.60736
0.0194827
1.6085
0.0204149
1.60991
0.0214661
1.61167
0.0229885
1.61369
0.0241618
1.61614
0.0274381
1.61877
0.0265136
1.62203
0.0368848
1.62525
0.0237357
1.62961
0.0585349
1.63337
0.0115732
1.63945
0.0841839
1.64389
0.0286291
1.65083
0.0483549
1.65962
0.114235
1.66543
0.0512973
1.67505
0.0362324
1.69114
0.143127
1.70731
0.212296
1.7169
0.140777
1.72084
0.0372961
1.71712
-0.0639262
-0.0747087
1.73788
0.0108095
-1.73647
1.73932
0.0111387
1.74084
0.0112996
1.74235
0.0115608
1.74379
0.0118963
1.7452
0.0122126
1.74668
0.012447
1.74845
0.0124782
1.75052
0.0125666
1.75247
0.0131871
1.75372
0.0144511
1.75404
0.0160189
1.7538
0.0173218
1.75371
0.017979
1.75427
0.0181159
1.75557
0.0181863
1.75745
0.0185398
1.75967
0.0192411
1.76219
0.0204646
1.76484
0.0215117
1.76792
0.0243592
1.77094
0.023494
1.77498
0.0328443
1.77829
0.0204247
1.78406
0.0527714
1.78733
0.00830124
1.79529
0.0762221
1.79987
0.0240521
1.80756
0.0406593
1.81869
0.103108
1.82539
0.0446003
1.83558
0.0260398
1.85482
0.123884
1.876
0.191116
1.88954
0.127241
1.89447
0.0323639
1.89106
-0.0605112
-0.0685872
1.89285
0.00904926
-1.89109
1.89457
0.00941762
1.89646
0.00941279
1.89841
0.00961299
1.90034
0.00996848
1.90227
0.0102756
1.90437
0.0103543
1.90697
0.00987287
1.91014
0.00939477
1.91312
0.0102146
1.91479
0.0127784
1.91474
0.0160671
1.91373
0.0183321
1.9131
0.0186071
1.91377
0.0174535
1.9158
0.0161513
1.91879
0.0155529
1.92226
0.0157678
1.92597
0.0167538
1.92968
0.0177994
1.93386
0.0201862
1.93733
0.0200251
1.94332
0.026848
1.94476
0.0189841
1.95633
0.0412042
1.95247
0.0121604
1.97067
0.0580242
1.97033
0.0243941
1.97518
0.0358052
1.99901
0.0792833
2.00395
0.0396508
2.00056
0.0294375
2.02811
0.0963273
2.08106
0.138174
2.11896
0.0893403
2.12749
0.0238318
2.1088
-0.0418252
-0.0499751
2.09191
0.006961
-2.08982
2.09403
0.00729874
2.09604
0.00740183
2.09804
0.00761185
2.10009
0.00791883
2.10216
0.00820456
2.10419
0.00832201
2.10603
0.00803282
2.10764
0.00778242
2.10934
0.00851648
2.11162
0.0105016
2.1148
0.0128848
2.11862
0.0145129
2.12249
0.0147332
2.12603
0.0139184
2.12921
0.012973
2.13219
0.0125688
2.13521
0.0127461
2.13843
0.0135392
2.14186
0.0143689
2.14598
0.0160651
2.14947
0.016531
2.15618
0.0201394
2.15704
0.0181226
2.17128
0.02697
2.16451
0.018931
2.18777
0.034758
2.18535
0.0268168
2.18989
0.0312639
2.2201
0.0490694
2.2238
0.0359545
2.21551
0.0377255
2.2473
0.0645426
2.31058
0.0748921
2.35212
0.047798
2.35651
0.019445
2.32951
-0.0148264
-0.0254477
2.28452
0.00494726
-2.28251
2.2867
0.00512388
2.2888
0.00530211
2.29092
0.00548558
2.29315
0.0056935
2.29542
0.00592649
2.29757
0.00617579
2.29925
0.00635663
2.30053
0.00650031
2.30222
0.00682184
2.30531
0.00741257
2.31013
0.00807183
2.31607
0.0085666
2.32195
0.00885439
2.32686
0.00900996
2.3307
0.00912981
2.33393
0.00933782
2.33704
0.00963572
2.34042
0.0101584
2.34415
0.0106399
2.34857
0.0116443
2.35309
0.0120116
2.35916
0.0140711
2.36382
0.0134691
2.3729
0.0178821
2.37661
0.0152207
2.38935
0.0220174
2.39549
0.0206772
2.40475
0.0220067
2.42237
0.0314528
2.43112
0.0272057
2.44083
0.0280088
2.46448
0.0409007
2.49236
0.0470052
2.50808
0.0320781
2.51164
0.0158887
2.50326
-0.00644723
-0.0151751
2.49276
0.0025216
-2.49034
2.49526
0.00262442
2.49784
0.00273064
2.50048
0.00283656
2.50323
0.00294441
2.50611
0.00305431
2.50911
0.00317151
2.51215
0.00331946
2.51516
0.00349022
2.5183
0.00367897
2.5218
0.00391002
2.5257
0.00417456
2.52985
0.00442106
2.53409
0.0046101
2.53835
0.00474758
2.54262
0.00485963
2.54697
0.00498804
2.55146
0.00515037
2.55622
0.00539391
2.56119
0.0056675
2.56674
0.00610043
2.5723
0.00644617
2.57919
0.0071897
2.58519
0.00746395
2.59433
0.00874239
2.60072
0.00882968
2.61222
0.0105207
2.62164
0.0112585
2.63192
0.0117193
2.64861
0.0147711
2.6613
0.0145084
2.67437
0.0149422
2.69662
0.0186457
2.72372
0.0199078
2.74229
0.0135087
2.7505
0.00767593
2.74487
-0.000810636
-0.00531026
2.72336
-2.72084
2.72598
2.72871
2.73155
2.73449
2.73755
2.74072
2.74404
2.74753
2.75121
2.75512
2.75929
2.76371
2.76832
2.77307
2.77793
2.78292
2.78807
2.79346
2.79913
2.80523
2.81168
2.81887
2.82633
2.83507
2.8439
2.85442
2.86568
2.8774
2.89217
2.90668
2.92162
2.94027
2.96018
2.97369
2.98136
2.98055
0.434697
0.0577039
-0.426751
0.44378
0.0856923
0.452605
0.115919
0.462708
0.142887
0.472854
0.171637
0.485939
0.197115
0.496985
0.223376
0.24675
0.466076
0.0508296
-0.459201
0.474037
0.0777313
0.481798
0.108158
0.490764
0.13392
0.499634
0.162768
0.509364
0.187385
0.518626
0.214115
0.237571
0.501004
0.0451519
-0.495327
0.507198
0.0715376
0.513793
0.101563
0.520625
0.127088
0.527788
0.155605
0.534796
0.180377
0.543948
0.204963
0.226615
0.538521
0.0402608
-0.53363
0.543278
0.0667802
0.548903
0.0959379
0.554356
0.121635
0.561249
0.148712
0.569249
0.172377
0.57851
0.195702
0.218021
0.579968
0.0362692
-0.575976
0.583942
0.0628061
0.589301
0.0905787
0.594991
0.115945
0.601962
0.141742
0.608912
0.165427
0.616183
0.188431
0.210181
0.62574
0.032838
-0.622309
0.629556
0.0589903
0.634355
0.0857798
0.639351
0.110949
0.644967
0.136126
0.65075
0.159643
0.657716
0.181465
0.202215
0.67598
0.0299998
-0.673142
0.679154
0.0558163
0.683055
0.0818787
0.687309
0.106695
0.692602
0.130833
0.698999
0.153246
0.706102
0.174362
0.194673
0.730744
0.0278128
-0.728557
0.733498
0.0530619
0.737236
0.0781407
0.741896
0.102035
0.747508
0.125221
0.753641
0.147112
0.760288
0.167715
0.187303
0.791295
0.0259102
-0.789392
0.794057
0.0502997
0.797807
0.0743908
0.80223
0.0976115
0.807375
0.120077
0.813218
0.14127
0.819936
0.160997
0.17975
0.857811
0.0242484
-0.856149
0.860364
0.0477473
0.863806
0.070948
0.868073
0.093345
0.873348
0.114801
0.879559
0.135059
0.88656
0.153997
0.17203
0.930592
0.0228107
-0.929154
0.933051
0.0452884
0.936574
0.0674245
0.941113
0.0888063
0.946643
0.109271
0.953024
0.128678
0.960199
0.146822
0.16401
1.01049
0.0214296
-1.00911
1.013
0.042785
1.01664
0.0637845
1.02131
0.0841373
1.027
0.103576
1.03366
0.122016
1.04125
0.139232
0.155538
1.09796
0.0201247
-1.09666
1.10051
0.0402389
1.10427
0.0600187
1.10916
0.0792505
1.11519
0.0975433
1.1223
0.114915
1.13038
0.131148
0.14649
1.19356
0.0188093
-1.19225
1.19625
0.0375468
1.20028
0.0559906
1.20559
0.0739377
1.21212
0.0910187
1.21979
0.107248
1.22853
0.122408
0.136753
1.29837
0.0173349
-1.2969
1.30127
0.0346536
1.3056
0.0516559
1.31128
0.0682628
1.3182
0.0840983
1.32626
0.0991845
1.3354