/*--------------------------------*- C++ -*----------------------------------*\
| =========                 |                                                 |
| \\      /  F ield         | OpenFOAM: The Open Source CFD Toolbox           |
|  \\    /   O peration     | Version:  2512                                  |
|   \\  /    A nd           | Website:  www.openfoam.com                      |
|    \\/     M anipulation  |                                                 |
\*---------------------------------------------------------------------------*/
FoamFile
{
    version     2.0;
    format      ascii;
    arch        "LSB;label=32;scalar=64";
    class       surfaceScalarField;
    location    "119.75";
    object      phi;
}
// * * * * * * * * * * * * * * * * * * * * * * * * * * * * * * * * * * * * * //

dimensions      [0 3 -1 0 0 0 0];

oriented        oriented;

internalField   nonuniform List<scalar> 
26232
(
-9.8485e-06
0.00116933
-0.00115948
-1.85035e-05
0.00186079
-0.00185214
0.000246398
0.00135844
-0.00162334
0.0011438
-0.000226332
-0.000671066
0.00304485
-0.00295911
0.00105805
0.0063007
-0.00696794
0.0037121
0.0112111
-0.0123648
0.00745435
0.01798
-0.0191387
0.0123698
0.0266358
-0.0271
0.0184443
0.036991
-0.0358759
0.0255207
0.0486487
-0.0449661
0.0333084
0.0610629
-0.0538366
0.0414224
0.0736317
-0.0620155
0.0494467
0.0857947
-0.069163
0.057
0.0971099
-0.0751029
0.0637877
0.107306
-0.0798252
0.0696294
0.116292
-0.0834519
0.0744653
0.124134
-0.0861983
0.0783564
0.131067
-0.0883206
0.0813879
0.137317
-0.0900996
0.0838491
0.143266
-0.0916959
0.0857474
0.149201
-0.0934726
0.0875379
0.155254
-0.0952752
0.0892221
-0.097507
0.0908837
0.161877
0.000124034
0.00104529
0.000526541
0.00145829
0.00147774
0.00040724
0.00335498
-0.00210358
0.00656271
-0.00616684
0.0114804
-0.0118856
0.0183618
-0.0192462
0.0272331
-0.02801
0.0378256
-0.0376926
0.0495961
-0.0476464
0.0618311
-0.0572011
0.0737934
-0.0657989
0.0848605
-0.0730826
0.0946215
-0.078924
0.102921
-0.0834022
0.109844
-0.0867481
0.115659
-0.089267
0.120748
-0.0912876
0.125499
-0.0930712
0.130259
-0.0948598
0.135289
-0.0967259
0.140684
-0.0988677
0.14645
-0.101041
-0.1037
0.152643
0.000191216
0.000854078
0.000924581
0.000724922
0.00253161
-0.00119978
0.00543671
-0.00500868
0.0100788
-0.0108089
0.0167808
-0.0185876
0.0255861
-0.0280515
0.0361546
-0.0385785
0.0477973
-0.0493352
0.0596403
-0.0594894
0.0708385
-0.0683993
0.0807575
-0.0757179
0.0890762
-0.0814013
0.0958
-0.0856478
0.101197
-0.0887991
0.105684
-0.0912352
0.109713
-0.0932959
0.113655
-0.0952294
0.117771
-0.0971876
0.122173
-0.0992623
0.126884
-0.101437
0.131839
-0.103822
0.137002
-0.106205
-0.108992
0.142294
0.000242569
0.000611509
0.00130713
-0.000339637
0.00363058
-0.00352324
0.00769534
-0.00907344
0.0139022
-0.0170157
0.0223458
-0.0270312
0.032647
-0.0383528
0.0439881
-0.0499196
0.0553479
-0.060695
0.0657967
-0.0699382
0.0747201
-0.0773227
0.0819085
-0.0829063
0.0875187
-0.0870116
0.091946
-0.090075
0.0956636
-0.0925167
0.0990903
-0.0946619
0.102512
-0.0967177
0.106077
-0.0987938
0.109831
-0.100942
0.113752
-0.103183
0.117843
-0.105528
0.122063
-0.108043
0.126459
-0.1106
-0.11355
0.131017
0.000326762
0.000284746
0.00180647
-0.00181935
0.0049793
-0.00669607
0.0103378
-0.0144319
0.01808
-0.0247579
0.0278518
-0.036803
0.0387433
-0.0492443
0.0495944
-0.0607706
0.0593901
-0.0704907
0.0675298
-0.0780779
0.0738938
-0.0836867
0.0787421
-0.0877546
0.0825279
-0.0907974
0.0857142
-0.0932613
0.0886564
-0.0954589
0.0915685
-0.097574
0.0945513
-0.0997005
0.0976444
-0.101887
0.100863
-0.104161
0.104227
-0.106547
0.10776
-0.10906
0.111451
-0.111733
0.115337
-0.114487
-0.117572
0.11936
0.000471694
-0.000186948
0.00248637
-0.00383402
0.00664275
-0.0108524
0.0133023
-0.0210915
0.0222411
-0.0336966
0.0325309
-0.0470929
0.0428821
-0.0595955
0.0521655
-0.0700541
0.0597516
-0.0780767
0.0655592
-0.0838855
0.0698967
-0.0880242
0.0732313
-0.0910892
0.0759995
-0.0935656
0.0785147
-0.0957764
0.0809621
-0.0979064
0.0834388
-0.100051
0.085997
-0.102259
0.0886666
-0.104557
0.0914681
-0.106962
0.0944046
-0.109484
0.097473
-0.112129
0.100643
-0.114903
0.103932
-0.117776
-0.120887
0.107247
0.000679065
-0.000866012
0.00333753
-0.00649248
0.00852309
-0.016038
0.0162647
-0.0288331
0.0257505
-0.0431824
0.0355961
-0.0569385
0.0445091
-0.0685085
0.0517552
-0.0773001
0.0572226
-0.0835442
0.0612208
-0.0878836
0.0642133
-0.0910168
0.0666238
-0.0934997
0.0687537
-0.0956955
0.0707858
-0.0978085
0.0728207
-0.0999412
0.0749113
-0.102141
0.0770826
-0.10443
0.0793442
-0.106818
0.0816948
-0.109313
0.0841321
-0.111921
0.0866539
-0.11465
0.0892541
-0.117504
0.0919492
-0.120471
-0.123624
0.0946863
0.000935683
-0.0018017
0.00429259
-0.00984938
0.0104078
-0.0221532
0.0187772
-0.0372025
0.0280304
-0.0524356
0.0366698
-0.0655779
0.0437562
-0.0755949
0.0490621
-0.082606
0.0528534
-0.0873355
0.0555863
-0.0906166
0.0576902
-0.0931208
0.0594764
-0.0952859
0.0611354
-0.0973544
0.0627695
-0.0994426
0.0644279
-0.1016
0.0661314
-0.103845
0.0678888
-0.106187
0.0697055
-0.108635
0.0715879
-0.111195
0.0735417
-0.113875
0.0755676
-0.116676
0.0776582
-0.119594
0.0798147
-0.122628
-0.125791
0.0819817
0.00122168
-0.00302338
0.0052543
-0.013882
0.0120384
-0.0289374
0.0204481
-0.0456122
0.0288096
-0.0607971
0.0358693
-0.0726376
0.0411732
-0.0808988
0.0448852
-0.086318
0.0474428
-0.089893
0.0492937
-0.0924675
0.0507733
-0.0946003
0.0520874
-0.0966
0.0533442
-0.0986111
0.0545937
-0.100692
0.0558583
-0.102864
0.0571503
-0.105137
0.0584786
-0.107516
0.0598505
-0.110007
0.0612699
-0.112615
0.0627366
-0.115342
0.0642459
-0.118186
0.0657941
-0.121143
0.0673789
-0.124212
-0.12739
0.0689778
0.00151268
-0.00453605
0.00611117
-0.0184805
0.0131805
-0.0360067
0.0210726
-0.0535042
0.0281519
-0.0678763
0.0335937
-0.0780795
0.037363
-0.0846682
0.0398431
-0.0887981
0.0415009
-0.0915508
0.0427083
-0.0936749
0.0436993
-0.0955913
0.0445971
-0.0974978
0.0454594
-0.0994734
0.0463124
-0.101545
0.04717
-0.103722
0.0480408
-0.106008
0.0489307
-0.108406
0.049844
-0.11092
0.0507837
-0.113554
0.0517511
-0.116309
0.0527459
-0.11918
0.0537666
-0.122163
0.0548099
-0.125256
-0.128445
0.0558647
0.00178125
-0.00631731
0.00675542
-0.0234547
0.0136871
-0.0429385
0.0206584
-0.0604755
0.026324
-0.073542
0.0302946
-0.08205
0.0328178
-0.0871914
0.0343596
-0.0903398
0.0353381
-0.0925292
0.0360312
-0.0943681
0.03659
-0.0961501
0.0370855
-0.0979934
0.0375492
-0.099937
0.0379956
-0.101992
0.0384331
-0.104159
0.0388676
-0.106442
0.0393046
-0.108843
0.0397493
-0.111365
0.0402057
-0.114011
0.0406749
-0.116778
0.0411553
-0.119661
0.0416434
-0.122651
0.0421328
-0.125745
-0.128934
0.0426218
0.0020031
-0.00832041
0.00711034
-0.0285619
0.0135329
-0.049361
0.0193668
-0.0663095
0.0236595
-0.0778346
0.0263702
-0.0847607
0.0279007
-0.0887219
0.0287102
-0.0911494
0.0291375
-0.0929565
0.0293771
-0.0946077
0.0295225
-0.0962955
0.0296134
-0.0980843
0.0296672
-0.0999908
0.0296927
-0.102017
0.0296964
-0.104163
0.0296837
-0.106429
0.0296594
-0.108818
0.0296274
-0.111333
0.0295904
-0.113974
0.0295499
-0.116738
0.029507
-0.119618
0.0294611
-0.122605
0.0294088
-0.125693
0.0293528
-0.128878
0.000168016
-0.00777652
0.00760851
-5.91688e-05
-0.0181215
0.0183486
-0.00100548
-0.0243306
0.0252769
-0.00258068
-0.0276794
0.0292546
-0.00459582
-0.0295274
0.0315425
-0.00685572
-0.0308847
0.0331446
-0.00920216
-0.0322314
0.0345779
-0.0115081
-0.0336322
0.0359381
-0.0136535
-0.0349349
0.0370804
-0.0155099
-0.0359148
0.0377712
-0.0169392
-0.0363402
0.0377695
-0.0178045
-0.0359953
0.0368607
-0.0179854
-0.034694
0.0348749
-0.0173971
-0.0322914
0.0317032
-0.0160015
-0.0286901
0.0272944
-0.0138028
-0.023843
0.0216443
-0.0108643
-0.0177484
0.0148099
-0.00727892
-0.0104176
0.00683217
-0.00326627
-0.00184426
-0.00216839
0.00137236
0.00758718
-0.0122258
0.00655192
0.0182673
-0.0234468
0.0124506
0.0299451
-0.0358438
0.0194563
0.0425101
-0.0495158
0.0554258
0.0277274
-0.0636969
-0.000236192
-0.00754033
-0.0012373
-0.0171203
-0.00301549
-0.0225524
-0.00543154
-0.0252633
-0.00830286
-0.0266561
-0.0114876
-0.0276999
-0.0148846
-0.0288345
-0.0184056
-0.0301112
-0.0219501
-0.0313904
-0.0253925
-0.0324724
-0.0285831
-0.0331496
-0.0313564
-0.0332221
-0.033546
-0.0325044
-0.0350021
-0.0308353
-0.035606
-0.0280862
-0.0352808
-0.0241682
-0.0339999
-0.0190293
-0.031771
-0.0126465
-0.0286284
-0.0049868
-0.0246096
0.00356836
-0.01948
0.0131376
-0.0131729
0.023638
-0.00551173
0.034849
0.0464745
0.00343958
-0.00059679
-0.00694354
-0.0022157
-0.0155014
-0.00464328
-0.0201249
-0.00766401
-0.0222426
-0.0111216
-0.0231985
-0.0149285
-0.0238931
-0.0190348
-0.0247281
-0.0233909
-0.0257551
-0.0279224
-0.0268589
-0.0325215
-0.0278733
-0.0370468
-0.0286243
-0.0413295
-0.0289394
-0.0451833
-0.0286506
-0.0484176
-0.0276009
-0.050852
-0.0256519
-0.0523285
-0.0226917
-0.0527182
-0.0186396
-0.0519188
-0.0134458
-0.0498328
-0.00707284
-0.0466155
0.000351024
-0.0418941
0.00841631
-0.0356968
0.0174406
-0.0279537
0.0271059
0.0373783
-0.0188575
-0.000883186
-0.00606036
-0.00295774
-0.0134269
-0.00582382
-0.0172588
-0.00920996
-0.0188565
-0.0129734
-0.019435
-0.0170617
-0.0198048
-0.0214588
-0.020331
-0.0261432
-0.0210707
-0.031066
-0.0219361
-0.0361446
-0.0227947
-0.0412619
-0.023507
-0.0462689
-0.0239324
-0.0509893
-0.0239301
-0.0552276
-0.0233626
-0.0587782
-0.0221014
-0.0614359
-0.0200339
-0.0630029
-0.0170726
-0.0632918
-0.0131569
-0.0621072
-0.00825739
-0.0594251
-0.00233106
-0.0550773
0.00406849
-0.0489554
0.0113187
-0.0410634
0.0192139
0.0275937
-0.0312788
-0.00108389
-0.00497646
-0.00345535
-0.0110554
-0.00657399
-0.0141401
-0.0101228
-0.0153076
-0.0139578
-0.0156
-0.0180378
-0.0157249
-0.0223568
-0.0160119
-0.0269003
-0.0165273
-0.0316261
-0.0172103
-0.0364615
-0.0179593
-0.0413044
-0.0186641
-0.046025
-0.0192119
-0.0504676
-0.0194876
-0.0544551
-0.0193751
-0.0577915
-0.0187649
-0.0602706
-0.0175548
-0.0616784
-0.0156649
-0.0617897
-0.0130456
-0.0603711
-0.00967601
-0.0571249
-0.00557723
-0.0522437
-0.00081265
-0.0451795
0.00425445
-0.0362728
0.0103073
0.0157013
-0.0243805
-0.00119937
-0.00377709
-0.00372332
-0.00853147
-0.00693906
-0.0109244
-0.010494
-0.0117527
-0.0142325
-0.0118615
-0.018107
-0.0118504
-0.0221034
-0.0120155
-0.0261959
-0.0124347
-0.0303297
-0.0130765
-0.0344195
-0.0138695
-0.0383536
-0.0147301
-0.0419974
-0.0155681
-0.0451977
-0.0162872
-0.0477854
-0.0167874
-0.0495811
-0.0169691
-0.050394
-0.016742
-0.0500288
-0.0160301
-0.0482855
-0.0147889
-0.0449517
-0.0130098
-0.039826
-0.0107029
-0.032808
-0.00783072
-0.0234015
-0.00515205
-0.0120055
-0.00108875
0.00109223
0.00260363
-0.00123081
-0.00254628
-0.00377103
-0.00599125
-0.00694428
-0.00775115
-0.0103744
-0.00832252
-0.013889
-0.008347
-0.0174233
-0.00831603
-0.020944
-0.00849484
-0.0244032
-0.00897554
-0.0277222
-0.00975756
-0.0307905
-0.0108011
-0.0334721
-0.0120485
-0.0356122
-0.0134281
-0.0370446
-0.0148548
-0.0375988
-0.0162332
-0.0371031
-0.0174648
-0.0353891
-0.018456
-0.0322911
-0.0191281
-0.0276444
-0.0194356
-0.0212996
-0.0193547
-0.0130067
-0.0189957
-0.00283513
-0.0180023
0.00981261
-0.0177998
0.0240695
-0.0153456
-0.0175114
0.0426731
-0.00117344
-0.00137284
-0.00358495
-0.00357974
-0.00656229
-0.00477381
-0.00971722
-0.00516758
-0.0128551
-0.00520915
-0.0158828
-0.00528827
-0.0187345
-0.00564322
-0.0213274
-0.00638263
-0.0235469
-0.00753806
-0.0252474
-0.0091006
-0.0262616
-0.0110342
-0.0264128
-0.0132769
-0.0255272
-0.0157404
-0.0234433
-0.0183171
-0.0200161
-0.0208921
-0.015117
-0.023355
-0.00865041
-0.0255947
-0.000520885
-0.0275651
0.00933736
-0.0292129
0.0210875
-0.0307459
0.0345355
-0.0314503
0.0504681
-0.0337324
0.0677169
-0.0325943
-0.0378713
0.0880767
-0.00102216
-0.000350679
-0.00314281
-0.0014591
-0.00573927
-0.00217735
-0.00841821
-0.00248864
-0.0109529
-0.0026745
-0.013205
-0.00303615
-0.0150577
-0.00379054
-0.0163763
-0.00506396
-0.0169981
-0.00691631
-0.0167381
-0.0093606
-0.015406
-0.0123663
-0.0128248
-0.0158581
-0.00884429
-0.0197209
-0.00335697
-0.0238044
0.00369639
-0.0279454
0.0123325
-0.0319911
0.0225463
-0.0358086
0.0343168
-0.0393356
0.0476064
-0.0425024
0.0623342
-0.0454737
0.0786094
-0.0477255
0.0960264
-0.0511494
0.115186
-0.0517539
-0.0576346
0.134949
-0.000788012
0.000437333
-0.00245605
0.00020894
-0.00447462
-0.000158782
-0.00644871
-0.000514553
-0.00811127
-0.00101194
-0.00926709
-0.00188033
-0.0097378
-0.00331982
-0.00933298
-0.00546879
-0.00785004
-0.00839925
-0.00508866
-0.012122
-0.000876296
-0.0165786
0.00490718
-0.0216416
0.0123084
-0.0271221
0.021305
-0.032801
0.031807
-0.0384475
0.0436828
-0.0438669
0.0567538
-0.0488796
0.070857
-0.0534389
0.0858194
-0.0574648
0.101381
-0.0610354
0.11779
-0.0641343
0.133915
-0.0672741
0.151461
-0.0693003
-0.0736267
0.167453
-0.000499677
0.00093701
-0.00161563
0.00132489
-0.00290297
0.00112856
-0.00398388
0.000566361
-0.00455669
-0.000439124
-0.00437059
-0.00206644
-0.00319145
-0.00449897
-0.000787088
-0.00787315
0.00305476
-0.0122411
0.00849604
-0.0175633
0.0156171
-0.0236997
0.0243941
-0.0304186
0.0346962
-0.0374243
0.0462964
-0.0444012
0.0589072
-0.0510583
0.0722126
-0.0571723
0.0859075
-0.0625745
0.0997257
-0.067257
0.11341
-0.071149
0.126825
-0.0744506
0.139887
-0.0771967
0.152152
-0.0795386
0.164592
-0.0817407
-0.0840193
0.174985
-0.000222468
-0.000749719
-0.0012445
-0.00134921
-0.000730282
0.000915383
0.00387077
0.00836739
0.0145706
0.022528
0.0321368
0.0431406
0.055163
0.0677619
0.0804913
0.0929483
0.104839
0.115939
0.126177
0.135576
0.144127
0.152126
0.159607
0.166472
0.0385244
0.0965706
-0.107368
0.0490087
0.117614
-0.128099
0.059003
0.133043
-0.143038
0.0666651
0.143255
-0.150917
0.070124
0.150251
-0.15371
0.0691497
0.156576
-0.155602
0.0670187
0.162052
-0.159921
0.0692887
0.160894
-0.163164
0.0794216
0.14494
-0.155073
0.0954141
0.111456
-0.127449
0.112357
0.0640044
-0.0809471
0.12762
0.00567677
-0.02094
0.140902
-0.0590164
0.0457347
0.151432
-0.1189
0.10837
0.158283
-0.16145
0.154599
0.161326
-0.182188
0.179145
0.160978
-0.187065
0.187413
0.158757
-0.186163
0.188384
0.156405
-0.183406
0.185757
0.153229
-0.181479
0.184656
0.147162
-0.189063
0.195131
0.138205
-0.20787
0.216827
0.129034
-0.217948
0.227119
0.122849
-0.191241
0.197425
0.121768
-0.117969
0.11905
0.126188
-0.0149153
0.0104952
0.133319
0.0882136
-0.095344
0.14173
0.164951
-0.173363
0.149928
0.204157
-0.212355
0.155715
0.219688
-0.225475
0.156835
0.234896
-0.236016
0.152243
0.260088
-0.255496
0.142954
0.279346
-0.270057
0.132295
0.268947
-0.258288
0.124042
0.205267
-0.197014
0.121166
0.0921584
-0.0892825
0.123965
-0.0419062
0.039108
0.131136
-0.155209
0.148038
0.137541
-0.22056
0.214155
0.136659
-0.254461
0.255343
0.128428
-0.272321
0.280551
0.118675
-0.279689
0.289442
0.113218
-0.230216
0.235674
0.115275
-0.132198
0.130141
0.12163
-0.00536845
-0.000987376
0.125895
0.123166
-0.12743
0.125375
0.220487
-0.219967
0.122415
0.306468
-0.303509
0.120099
0.299926
-0.29761
0.120128
0.226382
-0.226412
0.120265
0.0819817
-0.082118
0.118823
-0.113356
0.114798
0.115818
-0.24496
0.247965
0.113935
-0.355655
0.357538
0.112517
-0.271422
0.272841
0.110045
-0.083047
0.0855183
0.106224
0.106898
-0.103076
0.10357
0.374036
-0.371382
0.0989489
0.251836
-0.247215
-0.00697253
0.01154
0.0185801
0.0814301
0.0326359
0.103558
0.0455052
0.120174
0.0550753
0.133685
0.0609826
0.144344
0.0648321
0.152727
0.0704342
0.15645
0.0815548
0.149774
0.0985232
0.127972
0.117294
0.0926853
0.133561
0.0477377
0.146395
-0.00715763
0.156408
-0.0690297
0.163005
-0.125496
0.165453
-0.163899
0.164404
-0.181139
0.160895
-0.183556
0.156127
-0.181395
0.151699
-0.178977
0.146857
-0.176638
0.138942
-0.181148
0.127911
-0.196838
0.1174
-0.207437
0.111438
-0.185279
0.111734
-0.118265
0.118354
-0.0215357
0.128381
0.0781871
0.139643
0.153689
0.150473
0.193327
0.158723
0.211438
0.162384
0.231235
0.160269
0.262203
0.152873
0.286741
0.143043
0.278778
0.134326
0.213983
0.129337
0.0971475
0.128765
-0.0413339
0.132524
-0.158968
0.137159
-0.225195
0.13559
-0.252891
0.126731
-0.263462
0.116778
-0.269736
0.112382
-0.225819
0.115272
-0.135089
0.122148
-0.0122437
0.126638
0.118675
0.126759
0.220365
0.124469
0.308759
0.121897
0.302497
0.121701
0.226578
0.121362
0.0823213
0.119244
-0.111239
0.115276
-0.240992
0.112663
-0.353041
0.112037
-0.270797
0.109918
-0.0809278
0.107692
0.109124
0.105695
0.376033
0.0995753
0.257956
-0.00150469
-0.00249255
0.0650651
0.0147916
0.0862743
0.0301783
0.104787
0.0432688
0.120594
0.0544322
0.13318
0.0654935
0.141665
0.0791477
0.142795
0.0971041
0.131817
0.117876
0.1072
0.137217
0.0733446
0.152055
0.0328991
0.162559
-0.0176614
0.16969
-0.0761609
0.172796
-0.128601
0.171286
-0.162389
0.166614
-0.176468
0.16052
-0.177462
0.153731
-0.174606
0.147487
-0.172733
0.141497
-0.170648
0.132608
-0.172258
0.119928
-0.184158
0.107809
-0.195318
0.101563
-0.179033
0.103148
-0.11985
0.111532
-0.0299194
0.123917
0.0658018
0.137683
0.139922
0.150976
0.180035
0.161797
0.200617
0.168314
0.224719
0.169139
0.261379
0.164066
0.291814
0.155257
0.287587
0.145972
0.223268
0.138766
0.104354
0.134742
-0.0373096
0.134743
-0.15897
0.137313
-0.227765
0.135311
-0.250889
0.126041
-0.254192
0.115582
-0.259277
0.111758
-0.221996
0.115395
-0.138725
0.122906
-0.0197547
0.127913
0.113668
0.128764
0.219515
0.127044
0.310479
0.124113
0.305429
0.123585
0.227106
0.122895
0.0830112
0.120237
-0.108581
0.115335
-0.23609
0.111864
-0.34957
0.112019
-0.270952
0.11035
-0.0792586
0.10966
0.109814
0.10839
0.377302
0.100952
0.265394
0.00485948
-0.0145981
0.0483845
0.00309304
0.0685832
0.021153
0.0867273
0.0385766
0.103171
0.0555852
0.116172
0.0732039
0.124047
0.0926466
0.123353
0.114218
0.110246
0.135822
0.0855957
0.154005
0.0551625
0.1673
0.0196041
0.176447
-0.0268086
0.181301
-0.0810148
0.181029
-0.128329
0.175869
-0.15723
0.167983
-0.168581
0.159683
-0.169162
0.151433
-0.166356
0.143668
-0.164968
0.136643
-0.163624
0.127565
-0.163181
0.114289
-0.170882
0.100722
-0.181752
0.0935183
-0.171829
0.095506
-0.121837
0.105105
-0.0395184
0.119469
0.0514377
0.135424
0.123967
0.150921
0.164537
0.1643
0.187238
0.174042
0.214976
0.178385
0.257036
0.176031
0.294168
0.168322
0.295295
0.158361
0.233229
0.149042
0.113673
0.14179
-0.0300575
0.137894
-0.155074
0.137946
-0.227816
0.135584
-0.248528
0.126225
-0.244833
0.115094
-0.248146
0.111325
-0.218226
0.115555
-0.142955
0.123849
-0.0280482
0.129645
0.107872
0.131282
0.217877
0.130063
0.311699
0.126674
0.308817
0.125726
0.228054
0.124805
0.0839314
0.121784
-0.10556
0.116005
-0.23031
0.111566
-0.345132
0.11241
-0.271797
0.111303
-0.0781515
0.112114
0.109003
0.11163
0.377786
0.103065
0.27396
0.0120833
-0.0100318
0.0340358
0.00763852
0.0509128
0.0264472
0.0679186
0.046471
0.0831469
0.0672035
0.0954392
0.0885772
0.102673
0.110575
0.101355
0.13262
0.088201
0.152585
0.0656302
0.168297
0.0394509
0.179816
0.00808494
0.187705
-0.0346983
0.190443
-0.0837528
0.186963
-0.124849
0.178594
-0.148861
0.168129
-0.158116
0.158125
-0.159158
0.148965
-0.157196
0.140316
-0.156319
0.132566
-0.155874
0.123731
-0.154346
0.110725
-0.157875
0.0961224
-0.167149
0.0874015
-0.163108
0.0889383
-0.123374
0.0991828
-0.0497629
0.114979
0.0356412
0.132602
0.106344
0.149839
0.147301
0.165595
0.171482
0.178677
0.201895
0.186913
0.2488
0.188059
0.293021
0.182137
0.301217
0.171405
0.243962
0.159874
0.125204
0.14961
-0.0197933
0.141874
-0.147338
0.139004
-0.224946
0.136222
-0.245746
0.127118
-0.23573
0.115269
-0.236296
0.111046
-0.214004
0.115639
-0.147548
0.12485
-0.0372585
0.131742
0.100979
0.13431
0.215309
0.133545
0.312464
0.12957
0.312792
0.128088
0.229536
0.127049
0.0849705
0.123854
-0.102365
0.117281
-0.223737
0.111774
-0.339624
0.113227
-0.27325
0.112739
-0.0776636
0.114992
0.10675
0.115375
0.377403
0.105892
0.283442
0.020104
0.0154242
0.0212153
0.0305294
0.0358076
0.0477907
0.0506573
0.0672008
0.0637368
0.0882748
0.0743652
0.110066
0.0808816
0.131601
0.0798199
0.151583
0.0682191
0.168173
0.0490401
0.18071
0.026914
0.190522
-0.00172702
0.196765
-0.0409417
0.197045
-0.0840321
0.190518
-0.118321
0.179554
-0.137898
0.167284
-0.145846
0.156087
-0.147961
0.146371
-0.14748
0.1372
-0.147148
0.1289
-0.147575
0.120637
-0.146082
0.108854
-0.146092
0.0940095
-0.152305
0.0834376
-0.152536
0.0835741
-0.123511
0.093725
-0.0599138
0.110302
0.0190639
0.129003
0.0876441
0.147462
0.128842
0.165183
0.15376
0.181496
0.185583
0.193941
0.236354
0.198897
0.288066
0.195158
0.304956
0.184303
0.254817
0.170718
0.138789
0.15782
-0.00689517
0.146533
-0.136051
0.140391
-0.218804
0.136962
-0.242316
0.128465
-0.227233
0.116022
-0.223853
0.110873
-0.208856
0.115537
-0.152212
0.125783
-0.0475047
0.134042
0.0927208
0.137659
0.211692
0.137369
0.312754
0.132761
0.317399
0.130651
0.231646
0.129579
0.0860432
0.126398
-0.0991845
0.119145
-0.216485
0.112479
-0.332958
0.114433
-0.275204
0.114595
-0.0778257
0.118204
0.103142
0.119558
0.376049
0.109391
0.293608
0.028828
0.0518376
0.0120508
0.0631384
0.0245067
0.0770866
0.036709
0.0936839
0.0471395
0.112415
0.0556346
0.132107
0.0611891
0.151259
0.060668
0.168037
0.0514409
0.181139
0.0359384
0.191231
0.0168221
0.199486
-0.00998269
0.203767
-0.0452221
0.201101
-0.081366
0.191609
-0.10883
0.178617
-0.124906
0.165314
-0.132544
0.153466
-0.136113
0.143504
-0.137517
0.134301
-0.137945
0.125602
-0.138875
0.117728
-0.138208
0.107788
-0.136153
0.0939236
-0.13844
0.0818252
-0.140438
0.0797025
-0.121388
0.0888118
-0.0690232
0.105418
0.00245747
0.124623
0.068439
0.143735
0.10973
0.162788
0.134707
0.181907
0.166464
0.19854
0.219721
0.207972
0.278634
0.207441
0.305486
0.197415
0.264843
0.182067
0.154137
0.166341
0.00883109
0.151685
-0.121395
0.142052
-0.209171
0.137617
-0.237882
0.129994
-0.21961
0.117248
-0.211107
0.110798
-0.202406
0.115141
-0.156554
0.126471
-0.0588349
0.136399
0.0827928
0.14133
0.206761
0.141588
0.312496
0.136281
0.322707
0.133438
0.234488
0.132353
0.0871287
0.129357
-0.0961884
0.12155
-0.208678
0.113659
-0.325067
0.115976
-0.27752
0.116792
-0.0786419
0.121664
0.0982693
0.12411
0.373603
0.113511
0.304208
0.0381441
0.0917272
0.00840036
0.0981178
0.0181162
0.107896
0.0269309
0.12036
0.0346753
0.135071
0.0409236
0.151208
0.0450518
0.167219
0.0446572
0.181056
0.0376039
0.191855
0.0251397
0.200482
0.00819456
0.206982
-0.0164819
0.208203
-0.0464437
0.202019
-0.075182
0.189999
-0.0968091
0.175811
-0.110718
0.162247
-0.11898
0.15031
-0.124176
0.140249
-0.127456
0.131284
-0.128981
0.122602
-0.130193
0.114858
-0.130465
0.106714
-0.128009
0.0950386
-0.126765
0.0825168
-0.127916
0.0777257
-0.116597
0.0847596
-0.0760571
0.100399
-0.0131816
0.119426
0.0494113
0.138582
0.090574
0.158371
0.114919
0.179699
0.145136
0.200118
0.199301
0.213863
0.264889
0.216456
0.302893
0.207551
0.273747
0.19174
0.169949
0.174178
0.0263923
0.15684
-0.104057
0.143836
-0.196167
0.138021
-0.232067
0.131426
-0.213014
0.118806
-0.198487
0.110833
-0.194433
0.114377
-0.160099
0.126739
-0.0711966
0.138567
0.0709644
0.145022
0.200306
0.146033
0.311485
0.140137
0.328603
0.136469
0.238156
0.135364
0.0882334
0.132669
-0.0934935
0.124428
-0.200436
0.115272
-0.315911
0.117796
-0.280044
0.119254
-0.0800999
0.12527
0.0922525
0.128932
0.369941
0.118177
0.314962
0.0479194
0.134665
0.00868433
0.137036
0.0157451
0.142294
0.0216729
0.150123
0.0268466
0.159967
0.0310797
0.171502
0.0335173
0.183511
0.0326483
0.19412
0.0269946
0.20253
0.0167294
0.208857
0.00186735
0.211937
-0.0195613
0.208887
-0.0433941
0.199334
-0.0656288
0.185804
-0.0832793
0.171426
-0.0963401
0.158191
-0.105744
0.14659
-0.112575
0.136626
-0.117492
0.127962
-0.120317
0.119662
-0.121892
0.111993
-0.122796
0.105057
-0.121074
0.0960824
-0.11779
0.084708
-0.116542
0.0777928
-0.109682
0.0819107
-0.0801749
0.0955553
-0.0268262
0.113758
0.031209
0.132408
0.0719239
0.152055
0.0952713
0.174521
0.12267
0.198411
0.175411
0.217176
0.246125
0.224168
0.295901
0.217173
0.280742
0.200772
0.18635
0.181024
0.0461403
0.161668
-0.0847007
0.14563
-0.180129
0.138075
-0.224513
0.132518
-0.207457
0.120521
-0.18649
0.111001
-0.184912
0.113186
-0.162284
0.12637
-0.0843806
0.140393
0.0569413
0.148761
0.191938
0.150754
0.309492
0.144317
0.33504
0.139771
0.242703
0.138567
0.0894376
0.13626
-0.0911873
0.127693
-0.191869
0.117249
-0.305467
0.119823
-0.282617
0.121909
-0.0821863
0.128943
0.0852194
0.133941
0.364943
0.123312
0.325591
0.0580019
0.166869
0.00926803
0.168512
0.0141022
0.171949
0.0182362
0.17696
0.0218358
0.183365
0.0246747
0.190878
0.026004
0.198637
0.0248888
0.205316
0.0203164
0.210188
0.0118566
0.212967
-0.000911131
0.211292
-0.0178863
0.204267
-0.0363698
0.192782
-0.0541436
0.179216
-0.0697127
0.165636
-0.0827602
0.153195
-0.0933034
0.142181
-0.101561
0.132495
-0.107805
0.124097
-0.111919
0.116388
-0.114183
0.109034
-0.115442
0.102677
-0.114717
0.0960017
-0.111114
0.0870023
-0.107542
0.0794341
-0.102113
0.0804658
-0.0812066
0.091292
-0.0376524
0.107749
0.0147519
0.125271
0.0544018
0.144195
0.076348
0.166976
0.099889
0.19281
0.149577
0.215246
0.223688
0.226638
0.284509
0.222583
0.284797
0.206538
0.202395
0.186516
0.066163
0.165935
-0.0641205
0.147277
-0.16147
0.137626
-0.214862
0.133014
-0.202845
0.122173
-0.175649
0.111297
-0.174037
0.111591
-0.162578
0.125171
-0.0979604
0.141427
0.0406857
0.152037
0.181327
0.155523
0.306007
0.148945
0.341617
0.143429
0.24822
0.141989
0.0908777
0.140054
-0.0892523
0.131255
-0.183071
0.119508
-0.29372
0.121978
-0.285088
0.124692
-0.0848997
0.132577
0.0773345
0.139001
0.358519
0.128803
0.335788
0.0682067
0.175657
0.00859585
0.178178
0.011581
0.181688
0.0147265
0.185984
0.01754
0.191255
0.0194034
0.196937
0.0203218
0.202267
0.0195588
0.206337
0.0162462
0.20839
0.00980374
0.207232
0.00024695
0.202802
-0.0134562
0.194359
-0.0279271
0.183214
-0.0429978
0.170925
-0.0574239
0.158712
-0.0705475
0.147272
-0.0818633
0.136929
-0.091218
0.127689
-0.0985649
0.119545
-0.103776
0.11236
-0.106998
0.10563
-0.108712
0.0996429
-0.10873
0.094393
-0.105864
0.087991
-0.10114
0.0813591
-0.0954815
0.0803209
-0.0801684
0.0882549
-0.0455864
0.102531
0.000476143
0.11819
0.0387425
0.135426
0.059112
0.157348
0.0779666
0.184957
0.121969
0.212032
0.196613
0.228177
0.268364
0.226873
0.286101
0.211339
0.21793
0.190266
0.0872352
0.168862
-0.0427162
0.148496
-0.141105
0.13665
-0.203015
0.132727
-0.198923
0.123592
-0.166513
0.111783
-0.162228
0.109633
-0.160428
0.123019
-0.111346
0.141739
0.021965
0.155039
0.168028
0.16025
0.300796
0.153687
0.348179
0.147277
0.25463
0.145514
0.0926405
0.143968
-0.0877064
0.135033
-0.174136
0.122006
-0.280693
0.124203
-0.287285
0.127547
-0.0882438
0.136125
0.0687574
0.14405
0.350593
0.134566
0.345272
0.0783489
0.168062
0.00700545
0.170408
0.00923472
0.173633
0.0115021
0.177625
0.0135475
0.182019
0.0150102
0.186592
0.0157481
0.190781
0.0153704
0.19388
0.0131469
0.195189
0.00849464
0.194379
0.00105713
0.189776
-0.00885352
0.182561
-0.0207122
0.173296
-0.0337327
0.162837
-0.0469642
0.152074
-0.0597851
0.141646
-0.071435
0.131935
-0.081507
0.123184
-0.0898141
0.115366
-0.0959571
0.10851
-0.100142
0.102403
-0.102605
0.0968415
-0.103169
0.0922303
-0.101253
0.0877165
-0.0966263
0.0828812
-0.0906462
0.081226
-0.0785131
0.0866219
-0.0509823
0.0975625
-0.0104645
0.111203
0.0251017
0.126213
0.0441028
0.145668
0.0585115
0.171779
0.0958577
0.200573
0.167819
0.222479
0.246458
0.22742
0.28116
0.214297
0.231053
0.193541
0.107991
0.171962
-0.021137
0.150205
-0.119347
0.135987
-0.188797
0.132064
-0.195
0.124899
-0.159348
0.112677
-0.150006
0.108011
-0.155762
0.11998
-0.123315
0.140416
0.00152932
0.156748
0.151695
0.164803
0.292742
0.159111
0.353871
0.151744
0.261997
0.149399
0.0949856
0.148103
-0.0864101
0.138996
-0.165029
0.12478
-0.266477
0.126522
-0.289027
0.130447
-0.0921683
0.13947
0.0597336
0.148924
0.34114
0.140454
0.353742
0.0881911
0.184288
0.00703388
-0.184316
0.184985
0.00853775
0.186489
0.00999852
0.188693
0.0113433
0.191488
0.0122147
0.194848
0.0123889
0.198722
0.0114956
0.202783
0.00908657
0.20645
0.00482772
0.20918
-0.00167297
0.210517
-0.010191
0.210175
-0.0203702
0.208123
-0.0316801
0.204484
-0.0433252
0.199562
-0.0548635
0.193611
-0.0654842
0.186803
-0.0746989
0.17945
-0.0824606
0.171704
-0.0882118
0.163723
-0.0921609
0.155833
-0.0947146
0.147664
-0.095
0.139395
-0.0929843
0.131225
-0.088456
0.122154
-0.0815754
0.11231
-0.0686685
0.105128
-0.0438005
0.104093
-0.00943028
0.108823
0.0203726
0.118552
0.0343738
0.131037
0.0460259
0.144924
0.0819709
0.159406
0.153337
0.173228
0.232636
0.183112
0.271275
0.18865
0.225514
0.191018
0.105624
0.188831
-0.0189499
0.179513
-0.11003
0.167497
-0.176781
0.159381
-0.186884
0.148414
-0.148381
0.133788
-0.13538
0.123022
-0.144996
0.12437
-0.124664
0.132928
-0.00702843
0.139081
0.145542
0.142491
0.289332
0.140647
0.355716
0.142032
0.260611
0.148257
0.0887605
0.151901
-0.0900538
0.14487
-0.157998
0.130089
-0.251696
0.126482
-0.285421
0.125008
-0.090694
0.129163
0.055578
0.137544
0.332759
0.13214
0.359146
0.0967317
0.195706
0.00698098
-0.195653
0.196396
0.00784775
0.197625
0.0087691
0.199475
0.00949416
0.201894
0.00979471
0.204799
0.00948404
0.20803
0.00826441
0.21132
0.00579732
0.214347
0.0018006
0.216548
-0.00387462
0.217574
-0.0112164
0.217138
-0.0199341
0.21517
-0.0297118
0.211698
-0.039854
0.206853
-0.0500181
0.200881
-0.0595125
0.193998
-0.067816
0.186571
-0.0750333
0.17894
-0.0805805
0.171096
-0.0843176
0.163322
-0.0869398
0.155525
-0.0872032
0.147444
-0.0849034
0.139432
-0.0804437
0.131735
-0.0738785
0.123928
-0.0608621
0.117507
-0.0373795
0.115418
-0.0073412
0.11917
0.0166206
0.127698
0.0258463
0.139265
0.0344589
0.153021
0.0682146
0.168447
0.137911
0.184328
0.216754
0.196324
0.259279
0.20264
0.219199
0.205342
0.102922
0.203114
-0.0167221
0.193003
-0.0999186
0.179316
-0.163094
0.170045
-0.177613
0.159407
-0.137743
0.14484
-0.120813
0.132603
-0.132759
0.133156
-0.125217
0.142835
-0.0167077
0.1512
0.137177
0.156674
0.283858
0.155825
0.356565
0.157027
0.25941
0.163278
0.0825087
0.166772
-0.0935475
0.158614
-0.14984
0.141591
-0.234674
0.13738
-0.281209
0.135965
-0.0892791
0.140157
0.0513853
0.149879
0.323038
0.145248
0.363776
0.10541
0.207724
0.00702331
-0.207767
0.208194
0.0073775
0.209205
0.00775857
0.210749
0.0079498
0.212761
0.00778297
0.215161
0.00708368
0.21781
0.00561635
0.220467
0.00314008
0.222796
-0.000529017
0.224474
-0.00555216
0.225179
-0.0119217
0.22467
-0.0194252