/*--------------------------------*- C++ -*----------------------------------*\
| =========                 |                                                 |
| \\      /  F ield         | OpenFOAM: The Open Source CFD Toolbox           |
|  \\    /   O peration     | Version:  2512                                  |
|   \\  /    A nd           | Website:  www.openfoam.com                      |
|    \\/     M anipulation  |                                                 |
\*---------------------------------------------------------------------------*/
FoamFile
{
    version     2.0;
    format      ascii;
    arch        "LSB;label=32;scalar=64";
    class       surfaceScalarField;
    location    "46.5";
    object      phi;
}
// * * * * * * * * * * * * * * * * * * * * * * * * * * * * * * * * * * * * * //

dimensions      [0 3 -1 0 0 0 0];

oriented        oriented;

internalField   nonuniform List<scalar> 
19380
(
0.87455
-4.73684e-05
0.874692
-0.000142058
0.874925
-0.000232762
0.875243
-0.000317904
0.875638
-0.0003954
0.876102
-0.000463687
0.876624
-0.00052222
0.877195
-0.000570854
0.877805
-0.000610152
0.878446
-0.000641016
0.87911
-0.000664458
0.879792
-0.000681463
0.880485
-0.000692919
0.881184
-0.000699607
0.881887
-0.000702204
0.882588
-0.000701293
0.883285
-0.000697366
0.883976
-0.000690834
0.884658
-0.000682035
0.885329
-0.000671249
0.885988
-0.000658706
0.886633
-0.000644601
0.887262
-0.000629105
0.887874
-0.000612377
0.888469
-0.000594571
0.889045
-0.00057584
0.889601
-0.000556345
0.890137
-0.000536243
0.890653
-0.0005157
0.891148
-0.000494877
0.891622
-0.00047388
0.892075
-0.000452821
0.892506
-0.000431852
0.892917
-0.000411109
0.893308
-0.000390713
0.893679
-0.000370759
0.89403
-0.000351332
0.894363
-0.000332499
0.894677
-0.000314315
-0.000296866
0.894974
0.844009
-9.28106e-05
0.844145
-0.000278543
0.844369
-0.000456589
0.844675
-0.000623865
0.845056
-0.000776267
0.845503
-0.000910679
0.846007
-0.00102607
0.846558
-0.0011221
0.847148
-0.00119987
0.847768
-0.00126113
0.848411
-0.00130785
0.849072
-0.00134197
0.849744
-0.00136521
0.850424
-0.00137908
0.851106
-0.0013849
0.851789
-0.00138381
0.852468
-0.00137674
0.853142
-0.00136451
0.853808
-0.00134776
0.854463
-0.00132703
0.855108
-0.00130278
0.855738
-0.00127536
0.856354
-0.00124513
0.856954
-0.00121239
0.857537
-0.00117744
0.858102
-0.00114059
0.858648
-0.00110216
0.859174
-0.00106246
0.85968
-0.00102184
0.860166
-0.000980613
0.860631
-0.000939007
0.861075
-0.000897247
0.861499
-0.000855639
0.861903
-0.000814457
0.862286
-0.000773942
0.862649
-0.000734291
0.862994
-0.000695675
0.863319
-0.000658231
0.863627
-0.000622071
-0.000587365
0.863918
0.814534
-0.000136079
0.814664
-0.000408835
0.814879
-0.000670748
0.815172
-0.000917252
0.815538
-0.00114231
0.815968
-0.00134102
0.816454
-0.00151201
0.816987
-0.00165468
0.817558
-0.0017706
0.818159
-0.00186233
0.818784
-0.00193273
0.819426
-0.00198462
0.820082
-0.00202051
0.820745
-0.00204262
0.821413
-0.00205285
0.822082
-0.00205285
0.822749
-0.00204397
0.823412
-0.00202736
0.824068
-0.00200395
0.824716
-0.00197453
0.825353
-0.00193973
0.825978
-0.00190008
0.826589
-0.00185606
0.827184
-0.00180813
0.827764
-0.00175675
0.828325
-0.00170237
0.828869
-0.00164547
0.829393
-0.00158654
0.829897
-0.00152609
0.830381
-0.00146461
0.830845
-0.00140251
0.831287
-0.0013401
0.83171
-0.00127785
0.832111
-0.00121616
0.832493
-0.00115543
0.832854
-0.00109594
0.833197
-0.00103798
0.83352
-0.000981756
0.833826
-0.00092744
-0.000875293
0.834114
0.786088
-0.000176987
0.786212
-0.0005325
0.786416
-0.000874667
0.786696
-0.00119749
0.787047
-0.00149303
0.78746
-0.00175454
0.787928
-0.00198002
0.788443
-0.00216889
0.788995
-0.00232302
0.789578
-0.00244569
0.790186
-0.00254062
0.790813
-0.00261142
0.791454
-0.00266134
0.792105
-0.00269325
0.792761
-0.00270961
0.793421
-0.00271249
0.794081
-0.00270362
0.794738
-0.00268445
0.79539
-0.00265615
0.796035
-0.0026197
0.796671
-0.00257587
0.797297
-0.00252534
0.797909
-0.00246872
0.798508
-0.0024066
0.79909
-0.00233958
0.799656
-0.00226829
0.800204
-0.00219337
0.800733
-0.00211547
0.801242
-0.00203529
0.801731
-0.00195352
0.8022
-0.0018708
0.802647
-0.00178754
0.803074
-0.00170434
0.803479
-0.00162178
0.803864
-0.00154038
0.804229
-0.00146059
0.804574
-0.00138277
0.804899
-0.00130723
0.805206
-0.00123423
-0.00116411
0.805495
0.758636
-0.000215359
0.758752
-0.000649097
0.758945
-0.00106775
0.759212
-0.00146387
0.759546
-0.00182766
0.759943
-0.00215073
0.760392
-0.00242966
0.760888
-0.00266448
0.761422
-0.00285714
0.761988
-0.00301154
0.762579
-0.00313218
0.763191
-0.00322341
0.763819
-0.00328917
0.764459
-0.00333293
0.765107
-0.0033576
0.76576
-0.00336567
0.766416
-0.00335914
0.767071
-0.00333972
0.767724
-0.00330876
0.768371
-0.00326736
0.769012
-0.00321642
0.769643
-0.00315672
0.770263
-0.00308897
0.770871
-0.00301388
0.771463
-0.00293221
0.77204
-0.00284473
0.772599
-0.00275226
0.773139
-0.00265564
0.773659
-0.00255578
0.774159
-0.00245356
0.774638
-0.00234988
0.775096
-0.00224535
0.775532
-0.00214065
0.775947
-0.00203655
0.776341
-0.00193376
0.776713
-0.00183286
0.777064
-0.00173435
0.777396
-0.00163864
0.777708
-0.00154608
-0.00145713
0.778001
0.732142
-0.000251026
0.732251
-0.000758185
0.732432
-0.00124935
0.732684
-0.0017156
0.733002
-0.0021453
0.73338
-0.00252864
0.73381
-0.00286017
0.734286
-0.00314072
0.734801
-0.00337234
0.735349
-0.00355945
0.735924
-0.00370724
0.736522
-0.00382073
0.737137
-0.0039045
0.737767
-0.00396255
0.738407
-0.00399821
0.739056
-0.00401424
0.73971
-0.00401288
0.740366
-0.00399602
0.741022
-0.00396513
0.741676
-0.00392137
0.742326
-0.00386569
0.742968
-0.00379893
0.743601
-0.00372188
0.744222
-0.00363537
0.74483
-0.00354028
0.745423
-0.00343752
0.745999
-0.0033281
0.746556
-0.00321306
0.747094
-0.00309355
0.747611
-0.00297067
0.748107
-0.00284556
0.748581
-0.00271916
0.749032
-0.00259223
0.749461
-0.0024657
0.749868
-0.0023405
0.750253
-0.00221739
0.750615
-0.00209704
0.750957
-0.00197998
0.751277
-0.00186667
-0.0017577
0.751578
0.706572
-0.000283824
0.706674
-0.000859321
0.706843
-0.00141877
0.707079
-0.00195181
0.707379
-0.00244492
0.707737
-0.00288681
0.708147
-0.00327054
0.708603
-0.00359638
0.709098
-0.00386743
0.709627
-0.00408835
0.710185
-0.00426486
0.710766
-0.00440266
0.711369
-0.00450692
0.711988
-0.00458209
0.712622
-0.00463179
0.713267
-0.00465901
0.71392
-0.00466616
0.714579
-0.00465522
0.715242
-0.00462767
0.715905
-0.00458467
0.716567
-0.00452713
0.717224
-0.00445591
0.717874
-0.00437186
0.718514
-0.00427587
0.719143
-0.00416892
0.719757
-0.00405207
0.720356
-0.00392652
0.720936
-0.00379353
0.721497
-0.00365448
0.722037
-0.00351072
0.722555
-0.00336368
0.723051
-0.00321464
0.723523
-0.00306458
0.723972
-0.00291454
0.724397
-0.0027657
0.724799
-0.00261902
0.725177
-0.00247539
0.725533
-0.00233548
0.725866
-0.0021999
-0.00206938
0.726177
0.681896
-0.00031361
0.681989
-0.00095207
0.682145
-0.00157533
0.682365
-0.00217154
0.682645
-0.00272533
0.682982
-0.00322379
0.683371
-0.00365917
0.683804
-0.00402993
0.684278
-0.00434077
0.684786
-0.00459653
0.685324
-0.00480339
0.68589
-0.00496771
0.686478
-0.00509517
0.687086
-0.00519057
0.687712
-0.00525773
0.688353
-0.00529981
0.689006
-0.0053193
0.689669
-0.00531818
0.690339
-0.00529783
0.691014
-0.00525927
0.69169
-0.00520334
0.692365
-0.00513084
0.693036
-0.00504264
0.6937
-0.00493962
0.694353
-0.00482285
0.694995
-0.00469348
0.695621
-0.00455293
0.69623
-0.00440267
0.69682
-0.00424437
0.697389
-0.00407965
0.697936
-0.00391022
0.698459
-0.00373768
0.698958
-0.00356347
0.699432
-0.00338868
0.699881
-0.00321475
0.700305
-0.00304289
0.700704
-0.00287425
0.701078
-0.00270968
0.701428
-0.00254998
-0.00239606
0.701755
0.658081
-0.000340248
0.658165
-0.00103603
0.658308
-0.00171835
0.65851
-0.00237385
0.65877
-0.00298535
0.659084
-0.0035382
0.659449
-0.00402381
0.659859
-0.00443974
0.660308
-0.00479034
0.660794
-0.0050818
0.661311
-0.00532058
0.661857
-0.00551368
0.662429
-0.00566721
0.663025
-0.00578618
0.663641
-0.0058745
0.664277
-0.00593549
0.664929
-0.00597165
0.665596
-0.0059848
0.666274
-0.00597607
0.666961
-0.00594627
0.667654
-0.00589607
0.668349
-0.00582615
0.669044
-0.00573729
0.669735
-0.00563031
0.670418
-0.0055063
0.671091
-0.0053665
0.671751
-0.00521252
0.672394
-0.00504606
0.673019
-0.00486909
0.673623
-0.00468348
0.674204
-0.00449132
0.674761
-0.0042945
0.675292
-0.004095
0.675798
-0.00389413
0.676276
-0.00369351
0.676728
-0.00349465
0.677153
-0.003299
0.677551
-0.00310767
0.677922
-0.00292166
-0.00274211
0.678269
0.635097
-0.000363619
0.635172
-0.00111086
0.635301
-0.00184719
0.635485
-0.00255786
0.635723
-0.00322381
0.636014
-0.00382848
0.636352
-0.00436251
0.636736
-0.00482349
0.63716
-0.00521396
0.637619
-0.00554161
0.638113
-0.00581372
0.638637
-0.00603785
0.63919
-0.00622032
0.63977
-0.00636628
0.640375
-0.0064797
0.641004
-0.00656401
0.641654
-0.00662159
0.642323
-0.00665398
0.643009
-0.0066619
0.643708
-0.00664581
0.644418
-0.00660618
0.645136
-0.00654344
0.645856
-0.00645817
0.646577
-0.00635101
0.647294
-0.00622303
0.648003
-0.00607552
0.648701
-0.00591028
0.649384
-0.00572919
0.650049
-0.00553452
0.650694
-0.00532844
0.651316
-0.00511343
0.651913
-0.00489171
0.652484
-0.00466576
0.653028
-0.00443742
0.653542
-0.00420841
0.654028
-0.00398055
0.654485
-0.00375566
0.654912
-0.00353514
0.655311
-0.00332029
-0.00311252
0.655682
0.612916
-0.000383647
0.612981
-0.00117626
0.613095
-0.0019613
0.61326
-0.00272281
0.613476
-0.00343956
0.613741
-0.00409312
0.614052
-0.00467364
0.614407
-0.0051784
0.614802
-0.00560926
0.615234
-0.00597315
0.6157
-0.00627975
0.616199
-0.00653701
0.61673
-0.00675119
0.617291
-0.00692753
0.617881
-0.0070701
0.6185
-0.00718244
0.619145
-0.0072666
0.619814
-0.00732363
0.620506
-0.00735374
0.621218
-0.00735702
0.621945
-0.00733356
0.622685
-0.00728341
0.623434
-0.00720679
0.624187
-0.00710406
0.62494
-0.00697622
0.625689
-0.00682451
0.626429
-0.00665091
0.627158
-0.00645741
0.62787
-0.0062466
0.628562
-0.00602093
0.629232
-0.00578329
0.629877
-0.00553633
0.630494
-0.00528297
0.631082
-0.00502569
0.63164
-0.00476657
0.632167
-0.00450757
0.632663
-0.00425099
0.633126
-0.00399859
0.633558
-0.00375205
-0.00351306
0.633958
0.591509
-0.000400296
0.591565
-0.00123197
0.591664
-0.00206029
0.591809
-0.00286809
0.592001
-0.00363153
0.592239
-0.00433071
0.592521
-0.00495558
0.592845
-0.00550244
0.593208
-0.0059729
0.593609
-0.0063737
0.594045
-0.00671553
0.594515
-0.00700765
0.59502
-0.00725598
0.595559
-0.00746595
0.59613
-0.0076418
0.596735
-0.00778705
0.597371
-0.00790318
0.598038
-0.00799062
0.598734
-0.00804901
0.599455
-0.00807796
0.600198
-0.00807707
0.600961
-0.00804575
0.601737
-0.00798375
0.602524
-0.00789101
0.603317
-0.00776835
0.604109
-0.00761692
0.604897
-0.00743874
0.605675
-0.00723589
0.60644
-0.00701122
0.607186
-0.00676746
0.607911
-0.00650798
0.608611
-0.0062358
0.609282
-0.00595442
0.609923
-0.00566679
0.610532
-0.00537585
0.611108
-0.00508353
0.61165
-0.00479267
0.612157
-0.00450544
0.612629
-0.004224
-0.00395043
0.613066
0.57085
-0.000413558
0.570896
-0.00127778
0.570979
-0.00214395
0.571105
-0.00299327
0.571272
-0.00379875
0.571481
-0.00454011
0.571733
-0.00520699
0.572024
-0.00579373
0.572353
-0.00630187
0.572719
-0.00673992
0.573122
-0.00711798
0.57356
-0.00744608
0.574035
-0.00773051
0.574546
-0.00797713
0.575094
-0.0081903
0.57568
-0.00837336
0.576304
-0.00852693
0.576964
-0.00865079
0.577659
-0.00874401
0.578387
-0.00880558
0.579144
-0.0088344
0.579928
-0.00882902
0.580732
-0.00878856
0.581554
-0.00871239
0.582387
-0.00860108
0.583225
-0.0084555
0.584064
-0.0082776
0.584898
-0.00806947
0.585721
-0.00783415
0.586528
-0.00757465
0.587315
-0.00729479
0.588077
-0.00699802
0.588811
-0.00668843
0.589513
-0.00636944
0.590182
-0.00604493
0.590816
-0.00571717
0.591413
-0.00538936
0.591972
-0.00506416
0.592492
-0.00474434
-0.00443242
0.592974
0.550912
-0.000423428
0.550948
-0.00131355
0.551016
-0.00221234
0.551121
-0.00309794
0.551263
-0.00394043
0.551443
-0.00472066
0.551663
-0.00542675
0.551919
-0.00605035
0.552212
-0.006594
0.55254
-0.00706834
0.552906
-0.00748375
0.553308
-0.00784849
0.553748
-0.00817042
0.554227
-0.00845638
0.554748
-0.00871066
0.555311
-0.00893618
0.555916
-0.00913258
0.556564
-0.00929904
0.557254
-0.009434
0.557984
-0.00953568
0.558752
-0.00960204
0.559554
-0.00963053
0.560385
-0.00961952
0.56124
-0.00956765
0.562114
-0.00947506
0.563
-0.00934214
0.563893
-0.00917064
0.564787
-0.00896249
0.565673
-0.0087209
0.566548
-0.00844905
0.567404
-0.00815122
0.568237
-0.00783125
0.569043
-0.00749389
0.569816
-0.00714305
0.570555
-0.00678344
0.571256
-0.00641825
0.571917
-0.00605084
0.572538
-0.00568438
0.573116
-0.00532244
-0.00496804
0.573651
0.53167
-0.000429855
0.531696
-0.00133932
0.531749
-0.00226579
0.531833
-0.00318169
0.531949
-0.00405618
0.5321
-0.00487218
0.532287
-0.00561389
0.532508
-0.00627053
0.532761
-0.00684734
0.533049
-0.00735673
0.533374
-0.00780874
0.533737
-0.00821106
0.534138
-0.00857146
0.534581
-0.00889895
0.535067
-0.00919757
0.535601
-0.00946973
0.536183
-0.00971409
0.536813
-0.00992931
0.537492
-0.0101132
0.538219
-0.0102628
0.538992
-0.0103751
0.539808
-0.0104462
0.540662
-0.0104736
0.541549
-0.0104549
0.542464
-0.0103897
0.543399
-0.0102776
0.544349
-0.0101201
0.545305
-0.00991861
0.546261
-0.00967651
0.547208
-0.00939701
0.548142
-0.0090848
0.549055
-0.00874408
0.549941
-0.00838024
0.550796
-0.00799773
0.551615
-0.0076021
0.552394
-0.00719753
0.553131
-0.00678807
0.553824
-0.00637706
0.55447
-0.00596907
-0.00556772
0.55507
0.5131
-0.000432675
0.513116
-0.00135543
0.513155
-0.00230468
0.513217
-0.00324409
0.513307
-0.00414626
0.51343
-0.00499495
0.513584
-0.00576743
0.513766
-0.00645284
0.513979
-0.00706044
0.514226
-0.00760312
0.514507
-0.00808993
0.514825
-0.00852924
0.515183
-0.0089295
0.515584
-0.00930017
0.516032
-0.00964555
0.51653
-0.00996785
0.517081
-0.0102648
0.517686
-0.0105348
0.518348
-0.0107747
0.519066
-0.0109804
0.519838
-0.0111474
0.520662
-0.0112705
0.521535
-0.0113461
0.522451
-0.0113708
0.523404
-0.011343
0.524388
-0.0112615
0.525395
-0.011127
0.526417
-0.0109406
0.527445
-0.0107053
0.528473
-0.0104245
0.529491
-0.010103
0.530492
-0.00974523
0.531469
-0.00935735
0.532416
-0.00894428
0.533326
-0.00851252
0.534196
-0.00806697
0.535021
-0.00761327
0.535798
-0.0071545
0.536526
-0.00669645
-0.00624339
0.537202
0.495178
-0.00043159
0.495185
-0.0013626
0.49521
-0.0023292
0.49525
-0.00328489
0.495316
-0.00421187
0.49541
-0.00508929
0.495529
-0.00588645
0.495673
-0.0065965
0.495845
-0.00723233
0.496047
-0.00780576
0.496282
-0.00832492
0.496553
-0.00879953
0.496863
-0.00923987
0.497218
-0.00965539
0.497622
-0.0100491
0.498078
-0.0104242
0.498591
-0.0107778
0.499164
-0.0111081
0.499801
-0.0114109
0.500501
-0.0116806
0.501265
-0.0119114
0.502091
-0.0120964
0.502976
-0.012231
0.503915
-0.0123102
0.504903
-0.0123313
0.505933
-0.0122915
0.506997
-0.012191
0.508087
-0.0120298
0.509192
-0.0118108
0.510304
-0.0115367
0.511414
-0.0112128
0.512512
-0.0108434
0.51359
-0.0104354
0.51464
-0.00999413
0.515655
-0.00952712
0.516628
-0.00903989
0.517554
-0.00853996
0.51843
-0.00803053
0.519252
-0.00751844
-0.00700868
0.520018
0.477881
-0.000426187
0.47788
-0.00136198
0.47789
-0.00233906
0.47791
-0.00330458
0.477953
-0.00425497
0.478019
-0.00515511
0.478103
-0.00597036
0.478208
-0.00670147
0.478338
-0.00736242
0.478495
-0.00796323
0.478682
-0.00851166
0.478902
-0.00901956
0.479161
-0.00949882
0.479465
-0.0099593
0.479819
-0.0104027
0.480227
-0.0108325
0.480695
-0.0112459
0.481228
-0.0116413
0.48183
-0.0120132
0.482504
-0.0123545
0.483251
-0.012658
0.48407
-0.0129153
0.484959
-0.0131203
0.485915
-0.0132662
0.486933
-0.0133488
0.488005
-0.0133638
0.489124
-0.0133099
0.49028
-0.0131863
0.491465
-0.012995
0.492666
-0.0127381
0.493874
-0.0124207
0.495078
-0.0120472
0.496267
-0.0116248
0.497432
-0.0111592
0.498564
-0.0106592
0.499655
-0.0101307
0.500698
-0.00958306
0.501688
-0.00902056
0.50262
-0.00845061
-0.00787907
0.503491
0.461188
-0.000415997
0.461181
-0.00135485
0.461175
-0.00233342
0.461175
-0.00330496
0.461198
-0.00427766
0.461234
-0.00519166
0.461284
-0.00601941
0.46135
-0.00676826
0.461438
-0.00745038
0.46155
-0.00807468
0.461687
-0.00864879
0.461855
-0.00918748
0.46206
-0.00970372
0.462308
-0.0102074
0.462606
-0.0107006
0.46296
-0.0111866
0.463376
-0.011662
0.463861
-0.0121262
0.46442
-0.0125724
0.465058
-0.0129923
0.465777
-0.0133772
0.466579
-0.013717
0.467463
-0.0140042
0.468426
-0.0142297
0.469465
-0.0143878
0.470573
-0.0144719
0.471743
-0.0144796
0.472965
-0.014408
0.474228
-0.0142583
0.475522
-0.0140315
0.476833
-0.0137322
0.47815
-0.0133644
0.479461
-0.0129356
0.480754
-0.0124519
0.482017
-0.0119227
0.483242
-0.0113549
0.484418
-0.0107592
0.485539
-0.0101416
0.486599
-0.00951043
-0.00887202
0.487592
0.445077
-0.000400502
0.445064
-0.0013423
0.445042
-0.00231133
0.445026
-0.00328952
0.44503
-0.00428108
0.445036
-0.0051979
0.445052
-0.00603503
0.445081
-0.00679746
0.445127
-0.00749637
0.445192
-0.00813999
0.445279
-0.00873563
0.445394
-0.00930217
0.445542
-0.00985235
0.445732
-0.0103966
0.445969
-0.0109377
0.446262
-0.0114801
0.446619
-0.0120194
0.447048
-0.0125549
0.447555
-0.0130792
0.448146
-0.0135835
0.448826
-0.0140575
0.449599
-0.0144899
0.450466
-0.014871
0.451426
-0.0151897
0.452476
-0.015438
0.453612
-0.0156074
0.454825
-0.0156931
0.456108
-0.0156905
0.457448
-0.015599
0.458835
-0.0154181
0.460254
-0.0151515
0.461692
-0.0148022
0.463134
-0.014378
0.464567
-0.0138846
0.465977
-0.0133325
0.467351
-0.012729
0.468678
-0.0120866
0.469949
-0.0114126
0.471156
-0.0107174
-0.0100073
0.472292
0.429527
-0.00037896
0.42951
-0.00132525
0.429471
-0.00227226
0.429445
-0.00326324
0.429428
-0.00426414
0.429404
-0.00517369
0.429388
-0.00601954
0.42938
-0.00678938
0.429385
-0.0075015
0.429405
-0.00815969
0.429441
-0.00877226
0.429503
-0.00936331
0.429593
-0.00994306
0.429721
-0.0105244
0.429894
-0.0111106
0.430121
-0.0117072
0.430412
-0.0123105
0.430776
-0.0129191
0.431221
-0.0135241
0.431755
-0.0141171
0.432384
-0.0146869
0.433115
-0.0152208
0.433951
-0.0157072
0.434894
-0.0161325
0.435943
-0.0164868
0.437094
-0.0167586
0.438342
-0.016941
0.439678
-0.0170267
0.441092
-0.0170128
0.442571
-0.0168968
0.4441
-0.0166808
0.445664
-0.0163665
0.447247
-0.015961
0.448833
-0.0154698
0.450404
-0.0149038
0.451946
-0.0142708
0.453444
-0.0135848
0.454886
-0.0128544
0.456262
-0.0120933
-0.0113069
0.457561
0.414519
-0.000349849
0.414499
-0.00130545
0.414443
-0.00221604
0.414412
-0.0032318
0.41437
-0.00422281
0.414318
-0.00512139
0.414273
-0.00597493
0.414229
-0.00674459
0.414195
-0.00746813
0.41417
-0.0081345
0.414157
-0.00875968
0.414165
-0.0093712
0.414197
-0.00997486
0.414262
-0.0105895
0.414368
-0.0112164
0.414525
-0.0118642
0.414743
-0.0125288
0.415035
-0.0132103
0.415408
-0.0138976
0.415873
-0.0145822
0.416439
-0.0152527
0.417114
-0.0158956
0.417904
-0.0164975
0.418814
-0.0170428
0.419846
-0.0175186
0.420999
-0.0179112
0.422268
-0.0182104
0.423648
-0.018406
0.425127
-0.0184922
0.426694
-0.0184636
0.428333
-0.0183201
0.430028
-0.0180613
0.43176
-0.0176929
0.43351
-0.0172197
0.435258
-0.0166524
0.436987
-0.0159992
0.438677
-0.0152753
0.440313
-0.0144906
0.441882
-0.0136625
-0.0127959
0.443371
0.400032
-0.000310057
0.400014
-0.00128751
0.399939
-0.00214158
0.399908
-0.00320095
0.399836
-0.00415011
0.399762
-0.00504748
0.399688
-0.00590083
0.399609
-0.0066656
0.399539
-0.00739895
0.39947
-0.00806531
0.399411
-0.00869997
0.399366
-0.0093266
0.399339
-0.00994772
0.399341
-0.0105918
0.399378
-0.0112531
0.399462
-0.0119484
0.399603
-0.0126697
0.399814
-0.013421
0.400106
-0.0141896
0.400491
-0.0149678
0.400981
-0.0157421
0.401585
-0.0164996
0.402313
-0.0172256
0.403173
-0.0179027
0.40417
-0.0185156
0.405306
-0.0190475
0.40658
-0.0194849
0.407989
-0.0198142
0.409522
-0.020026
0.41117
-0.0201112
0.412916
-0.0200663
0.414743
-0.0198883
0.416631
-0.0195804
0.418557
-0.0191457
0.420498
-0.0185942
0.422433
-0.0179341
0.424339
-0.0171813
0.426196
-0.016347
0.427985
-0.0154521
-0.0145026
0.429692
0.386045
-0.000254596
0.386038
-0.00128052
0.385941
-0.00204486
0.385917
-0.00317683
0.385803
-0.00403633
0.38572
-0.00496406
0.385611
-0.00579209
0.385505
-0.00655974
0.3854
-0.00729417
0.38529
-0.00795469
0.385185
-0.00859556
0.38509
-0.00923079
0.385004
-0.00986265
0.384945
-0.0105323
0.384911
-0.011219
0.384921
-0.0119585
0.38498
-0.0127286
0.385105
-0.0135465
0.385307
-0.014391
0.385601
-0.0152624
0.386001
-0.0161421
0.38652
-0.0170178
0.387168
-0.0178743
0.387959
-0.0186932
0.3889
-0.0194571
0.389999
-0.0201466
0.391259
-0.0207443
0.392677
-0.0212329
0.39425
-0.0215985
0.395967
-0.0218278
0.397813
-0.0219126
0.399771
-0.0218461
0.401818
-0.0216278
0.403931
-0.0212582
0.406082
-0.0207454
0.408244
-0.0200966
0.410391
-0.0193283
0.412497
-0.0184525
0.414538
-0.0174933
-0.0164591
0.416495
0.37254
-0.000177555
0.372557
-0.00129778
0.372429
-0.001917
0.37242
-0.00316754
0.372253
-0.00386933
0.372179
-0.00488958
0.372023
-0.00563659
0.371906
-0.00644235
0.371759
-0.00714711
0.371615
-0.0078109
0.371465
-0.00844597
0.371322
-0.0090876
0.37118
-0.0097206
0.371061
-0.0104136
0.370955
-0.0111129
0.370893
-0.0118959
0.370865
-0.0127008
0.370903
-0.0135844
0.371006
-0.0144938
0.371201
-0.0154576
0.371496
-0.0164377
0.371914
-0.0174355
0.372466
-0.0184257
0.373166
-0.019394
0.37403
-0.0203208
0.375068
-0.0211845
0.376288
-0.0219643
0.377694
-0.0226389
0.379284
-0.023189
0.381053
-0.0235965
0.382988
-0.0238472
0.385071
-0.0239291
0.38728
-0.0238367
0.389587
-0.0235659
0.391964
-0.0231216
0.394376
-0.0225092
0.396792
-0.021744
0.399179
-0.0208394
0.401507
-0.0198212
-0.0187025
0.40375
0.359501
-7.42097e-05
0.359557
-0.00135324
0.359385
-0.00174493
0.359402
-0.00318458
0.359168
-0.00363605
0.359126
-0.00484683
0.358905
-0.00541554
0.3588
-0.00633762
0.358593
-0.00694067
0.358436
-0.00765323
0.358232
-0.008242
0.358053
-0.00890857
0.35785
-0.00951816
0.35768
-0.0102429
0.357498
-0.0109316
0.357368
-0.0117656
0.357247
-0.0125802
0.3572
-0.0135374
0.357194
-0.0144879
0.357288
-0.0155509
0.357463
-0.0166133
0.357768
-0.0177401
0.358201
-0.0188591
0.358793
-0.0199856
0.359554
-0.0210822
0.360505
-0.0221349
0.361657
-0.0231168
0.363022
-0.0240036
0.364604
-0.0247708
0.366401
-0.0253938
0.368406
-0.025852
0.370603
-0.0261264
0.37297
-0.0262039
0.375479
-0.0260748
0.378095
-0.0257379
0.380782
-0.0251954
0.383497
-0.0244597
0.386202
-0.0235445
0.388858
-0.0224769
-0.021276
0.391431
0.346916
5.63035e-05
0.347018
-0.00145542
0.34679
-0.00151657
0.346845
-0.00324004
0.346537
-0.00332743
0.346546
-0.00485614
0.346239
-0.0051089
0.346176
-0.0062741
0.345885
-0.00664951
0.345744
-0.00751262
0.345464
-0.00796197
0.345275
-0.00871897
0.344997
-0.0092408
0.344792
-0.0100379
0.344525
-0.0106645
0.344341
-0.0115811
0.344116
-0.0123552
0.343995
-0.0134165
0.343864
-0.0143575
0.343862
-0.015549
0.343897
-0.0166482
0.344087
-0.0179294
0.344373
-0.0191451
0.344841
-0.0204541
0.345469
-0.0217105
0.346307
-0.0229726
0.347359
-0.0241684
0.34865
-0.0252947
0.350189
-0.0263103
0.351984
-0.0271888
0.354033
-0.027901
0.356326
-0.0284188
0.358842
-0.0287201
0.361553
-0.0287861
0.364422
-0.0286071
0.367406
-0.0281794
0.370456
-0.0275097
0.373523
-0.026611
0.376555
-0.0255096
-0.0242312
0.379511
0.334775
0.000208725
0.334921
-0.00160129
0.334635
-0.0012305
0.334733
-0.00333806
0.33435
-0.00294495
0.33442
-0.00492639
0.334017
-0.00470598
0.334017
-0.0062733
0.333619
-0.00625146
0.333528
-0.00742185
0.333143
-0.00757763
0.332979
-0.00855444
0.3326
-0.00886164
0.332393
-0.00983111
0.332017
-0.0102883
0.331807
-0.0113711
0.331454
-0.0120024
0.331285
-0.0132477
0.331002
-0.0140746
0.330929
-0.0154756
0.330788
-0.0165074
0.33088
-0.0180214
0.330975
-0.0192402
0.331323
-0.0208021
0.331768
-0.0221554
0.33248
-0.0236845
0.333383
-0.0250714
0.334571
-0.0264823
0.336024
-0.0277633
0.33778
-0.0289449
0.339837
-0.0299585
0.342196
-0.0307774
0.344843
-0.031367
0.34775
-0.0316936
0.350881
-0.031738
0.354187
-0.0314851
0.357609
-0.0309319
0.361087
-0.0300887
0.364556
-0.0289787
-0.0276325
0.367957
0.323068
0.000371338
0.323242
-0.00177449
0.322913
-0.000901566
0.323043
-0.00346804
0.322602
-0.0025045
0.322724
-0.00504834
0.322234
-0.00421593
0.322297
-0.00633626
0.321789
-0.00574379
0.321764
-0.00739699
0.321259
-0.00707242
0.321148
-0.00844364
0.320642
-0.00835506
0.320469
-0.00965808
0.319954
-0.00977363
0.319758
-0.0111748
0.319244
-0.0114883
0.319071
-0.0130752
0.318592
-0.0135959
0.318496
-0.0153794
0.318121
-0.0161325
0.318165
-0.0180653
0.317997
-0.0190717
0.318266
-0.021072
0.318438
-0.0223267
0.319047
-0.0242937
0.319711
-0.0257355
0.320791
-0.0275626
0.322081
-0.0290529
0.32377
-0.0306342
0.325781
-0.0319687
0.328171
-0.0331674
0.330918
-0.0341145
0.334005
-0.0347803
0.3374
-0.0351332
0.341048
-0.0351334
0.344884
-0.0347673
0.348831
-0.0340358
0.352807
-0.0329549
-0.0315604
0.356735
0.311784
0.000530777
0.311961
-0.00195174
0.311615
-0.000555814
0.311754
-0.00360685
0.311286
-0.00203637
0.311432
-0.00519403
0.310886
-0.00367002
0.310988
-0.00643875
0.310396
-0.00515146
0.310423
-0.00742421
0.30981
-0.00645905
0.309753
-0.00838688
0.309118
-0.00772053
0.308993
-0.00953252
0.308328
-0.0091089
0.308171
-0.0110172
0.307473
-0.0107906
0.307334
-0.0129361
0.306621
-0.0128833
0.306557
-0.0153155
0.305884
-0.0154592
0.305958
-0.0181388
0.305423
-0.0185376
0.30571
-0.0213586
0.305467
-0.0220833
0.306067
-0.0248944
0.306314
-0.0259827
0.30736
-0.0286076
0.308315
-0.0300085
0.309965
-0.0322838
0.311802
-0.0338065
0.314214
-0.0355786
0.316999
-0.0369004
0.320243
-0.0380243
0.323897
-0.0387871
0.327901
-0.0391369
0.332195
-0.0390619
0.336681
-0.0385208
0.34125
-0.0375241
-0.0361178
0.345807
0.300902
0.000678022
0.301062
-0.00211189
0.300728
-0.000220982
0.300848
-0.00372692
0.30039
-0.00157843
0.30052
-0.00532438
0.299965
-0.00311453
0.300064
-0.00653778
0.299434
-0.00452213
0.299473
-0.0074627
0.298794
-0.00578036
0.298758
-0.00835059
0.298031
-0.00699365
0.297929
-0.00943021
0.297142
-0.00832206
0.297008
-0.0108837
0.296147
-0.0099288
0.296036
-0.0128259
0.295096
-0.0119427
0.295075
-0.0152952
0.294083
-0.0144666
0.294226
-0.0182815
0.293259
-0.0175708
0.293647
-0.0217469
0.292852
-0.0212883
0.293585
-0.0256276
0.293183
-0.0255806
0.294382
-0.0298067
0.294673
-0.0302995
0.296465
-0.0340753
0.297795
-0.035137
0.300337
-0.0381206
0.302955
-0.0395182
0.306395
-0.0414644
0.310262
-0.0426534
0.314627
-0.0435027
0.319436
-0.0438708
0.324531
-0.0436155
0.329812
-0.0428056
-0.0414457
0.33514
0.290402
0.000812105
0.290533
-0.00224263
0.29023
8.17884e-05
0.29031
-0.00380625
0.289897
-0.0011659
0.289974
-0.00540115
0.289457
-0.00259806
0.289505
-0.00658503
0.288895
-0.00391264
0.288891
-0.00745888
0.288207
-0.00509637
0.288137
-0.00828043
0.287379
-0.00623563
0.287246
-0.00929735
0.286401
-0.0074768
0.286236
-0.0107185
0.285279
-0.00897194
0.285137
-0.0126835
0.284043
-0.0108488
0.284
-0.0152521
0.28276
-0.0132272
0.282908
-0.0184297
0.281558
-0.0162204
0.282007
-0.0221963
0.280649
-0.0199304
0.281529
-0.0265077
0.280363
-0.0244144
0.281826
-0.0312692
0.281166
-0.0296394
0.283367
-0.0362763
0.283671
-0.0354412
0.286712
-0.0411623
0.288546
-0.0413515
0.292488
-0.0454066
0.296245
-0.0464104
0.301107
-0.048365
0.306458
-0.049222
0.312215
-0.0493725
0.318405
-0.0489947
-0.047721
0.32468
0.280265
0.000937981
0.280362
-0.00234025
0.280104
0.000340405
0.280131
-0.00383369
0.279789
-0.00082392
0.279785
-0.00539671
0.279347
-0.00216014
0.279302
-0.00654047
0.278764
-0.00337444
0.278669
-0.00736374
0.278039
-0.00446667
0.27788
-0.00812186
0.277158
-0.00551266
0.276934
-0.00907426
0.276107
-0.00664895
0.275839
-0.0104511
0.274881
-0.00801381
0.274614
-0.0124162
0.273489
-0.00972445
0.273295
-0.0150579
0.271969
-0.0119007
0.271951
-0.0184118
0.270409
-0.0146784
0.270708
-0.0224953
0.268986
-0.0182084
0.269786
-0.0273079
0.268005
-0.022633
0.269543
-0.0328076
0.267951
-0.0280473
0.270499
-0.0388242
0.269532
-0.0344745
0.273308
-0.0449382
0.273651
-0.0416943
0.278695
-0.0504508
0.281322
-0.0490378
0.287411
-0.0544536
0.292921
-0.0547324
0.299559
-0.05601
0.306942
-0.0563776
-0.0550607
0.314281
0.270478
0.00105906
0.27054
-0.00240287
0.270332
0.000548234
0.270306
-0.00380747
0.270048
-0.000565235
0.269949
-0.00529796
0.269614
-0.0018252
0.269453
-0.00637996
0.269024
-0.00294508
0.268804
-0.00714374
0.268276
-0.00393857
0.267989
-0.00783505
0.267356
-0.00487964
0.266998
-0.00871598
0.266252
-0.00590312
0.265826
-0.0100255
0.264952
-0.00713968
0.264477
-0.0119408
0.263448
-0.00869597
0.262967
-0.0145768
0.261746
-0.0106797
0.261345
-0.0180109
0.259889
-0.0132217
0.25972
-0.0223265
0.257996
-0.0164843
0.258293
-0.0276049
0.256323
-0.0206634
0.257398
-0.0338823
0.255319
-0.0259684
0.25764
-0.041145
0.255723
-0.032557
0.259816
-0.0490317
0.258621
-0.040499
0.264818
-0.0566476
0.265435
-0.049655
0.273652
-0.062671
0.277795
-0.0588757
0.286861
-0.0650757
0.29523
-0.0647461
-0.0635549
0.303724
0.261038
0.00117035
0.261065
-0.00242997
0.260908
0.00070541
0.260833
-0.00373307
0.26065
-0.000382127
0.260468
-0.00511555
0.260231
-0.00158834
0.259962
-0.00611145
0.259646
-0.00262886
0.259302
-0.00679972
0.258889
-0.00352535
0.258469
-0.00741555
0.257947
-0.00435688
0.257446
-0.00821569
0.256808
-0.00526446
0.256216
-0.00943368
0.255459
-0.00638281
0.25476
-0.0112417
0.253886
-0.00782185
0.253069
-0.0137599
0.252078
-0.00968868
0.251156
-0.017089
0.250041
-0.0121066
0.249086
-0.0213714
0.247812
-0.0152109
0.247024
-0.0268172
0.245529
-0.0191683
0.245355
-0.0337082
0.243581
-0.0241938
0.244698
-0.0422625
0.242712
-0.0305708
0.245965
-0.052285
0.244056
-0.03859
0.250472
-0.063064
0.24937
-0.0485527
0.259472
-0.0727724
0.261089
-0.0604932
0.274342
-0.0783288
0.281799
-0.0722031
-0.0753213
0.293566
0.251945
0.00125428
0.251928
-0.00241232
0.251825
0.00080776
0.2517
-0.00360755
0.251584
-0.000266847
0.251334
-0.00486511
0.251177
-0.00143097
0.250828
-0.0057629
0.250598
-0.00239924
0.250168
-0.00636876
0.249838
-0.00319542
0.24933
-0.00690832
0.248881
-0.00390752
0.248294
-0.00762839
0.247715
-0.00468614
0.24703
-0.00874854
0.246324
-0.00567613
0.245506