/*--------------------------------*- C++ -*----------------------------------*\
| =========                 |                                                 |
| \\      /  F ield         | OpenFOAM: The Open Source CFD Toolbox           |
|  \\    /   O peration     | Version:  2512                                  |
|   \\  /    A nd           | Website:  www.openfoam.com                      |
|    \\/     M anipulation  |                                                 |
\*---------------------------------------------------------------------------*/
FoamFile
{
    version     2.0;
    format      ascii;
    arch        "LSB;label=32;scalar=64";
    class       volScalarField;
    location    "10";
    object      p;
}
// * * * * * * * * * * * * * * * * * * * * * * * * * * * * * * * * * * * * * //

dimensions      [0 2 -2 0 0 0 0];

internalField   nonuniform List<scalar> 
13248
(
-0.361127
-0.359872
-0.357052
-0.353032
-0.348583
-0.344776
-0.342743
-0.343319
-0.34687
-0.353303
-0.361979
-0.371867
-0.381725
-0.390278
-0.396397
-0.399243
-0.398345
-0.39368
-0.385457
-0.374456
-0.360692
-0.345452
-0.326943
-0.306195
-0.361988
-0.361228
-0.358615
-0.354679
-0.350223
-0.346218
-0.343606
-0.343146
-0.345139
-0.349367
-0.355136
-0.361429
-0.367111
-0.371143
-0.37274
-0.371479
-0.367307
-0.360454
-0.351322
-0.340237
-0.327466
-0.313203
-0.297094
-0.280829
-0.3659
-0.365049
-0.362457
-0.358725
-0.354495
-0.35048
-0.347457
-0.345962
-0.34614
-0.347703
-0.350004
-0.352199
-0.353454
-0.353126
-0.350855
-0.346572
-0.340392
-0.332545
-0.323163
-0.312492
-0.300501
-0.287539
-0.273554
-0.259219
-0.372692
-0.3712
-0.368362
-0.364616
-0.360412
-0.356261
-0.352637
-0.349826
-0.347837
-0.346398
-0.345033
-0.343213
-0.340499
-0.336629
-0.331518
-0.325182
-0.317699
-0.309126
-0.299566
-0.289112
-0.27783
-0.266043
-0.253536
-0.241404
-0.381933
-0.379368
-0.375948
-0.371866
-0.367389
-0.362767
-0.358158
-0.353622
-0.349119
-0.34452
-0.339638
-0.334297
-0.328377
-0.321823
-0.314612
-0.306745
-0.298228
-0.289097
-0.279387
-0.269159
-0.25848
-0.247475
-0.236132
-0.225101
-0.393361
-0.389489
-0.385229
-0.380534
-0.375416
-0.369824
-0.363637
-0.356823
-0.349471
-0.341716
-0.333673
-0.325418
-0.316982
-0.308361
-0.299532
-0.290464
-0.281138
-0.271537
-0.261669
-0.251558
-0.241238
-0.230813
-0.220254
-0.210083
-0.407055
-0.401739
-0.396498
-0.390921
-0.384657
-0.377349
-0.368788
-0.359108
-0.348689
-0.337939
-0.327163
-0.316531
-0.306098
-0.295848
-0.28573
-0.275688
-0.265675
-0.255659
-0.245629
-0.235583
-0.22555
-0.215539
-0.205583
-0.195993
-0.423141
-0.416312
-0.409969
-0.403136
-0.394982
-0.385007
-0.373255
-0.360271
-0.34675
-0.333259
-0.32014
-0.307539
-0.295471
-0.283882
-0.272697
-0.261842
-0.251256
-0.240893
-0.230719
-0.220715
-0.210869
-0.201182
-0.191697
-0.182531
-0.441539
-0.433166
-0.425524
-0.416852
-0.405837
-0.392213
-0.376646
-0.360164
-0.343661
-0.327702
-0.312552
-0.298273
-0.284819
-0.2721
-0.26002
-0.24849
-0.237432
-0.226784
-0.216496
-0.206528
-0.196854
-0.187455
-0.178355
-0.169531
-0.461756
-0.451861
-0.442584
-0.431228
-0.416275
-0.398204
-0.378495
-0.358545
-0.339261
-0.321081
-0.304136
-0.288391
-0.273739
-0.260057
-0.247227
-0.235141
-0.223707
-0.212848
-0.202497
-0.192596
-0.183096
-0.173966
-0.165195
-0.156671
-0.482882
-0.471494
-0.460052
-0.444944
-0.425042
-0.402017
-0.378105
-0.354849
-0.333006
-0.312824
-0.294284
-0.277258
-0.261582
-0.247098
-0.233662
-0.221149
-0.209448
-0.198467
-0.188123
-0.178344
-0.169071
-0.160255
-0.151832
-0.143681
-0.503594
-0.490751
-0.476392
-0.456381
-0.430729
-0.402527
-0.374536
-0.348214
-0.324066
-0.302119
-0.282206
-0.264109
-0.247609
-0.232509
-0.21864
-0.205851
-0.194017
-0.183029
-0.17279
-0.163218
-0.154247
-0.145827
-0.137874
-0.13029
-0.255003
-0.265067
-0.27439
-0.287314
-0.304577
-0.325441
-0.34913
-0.37485
-0.40176
-0.428983
-0.455624
-0.480799
-0.503664
-0.523443
-0.539456
-0.551145
-0.558076
-0.559944
-0.55655
-0.547801
-0.533714
-0.514446
-0.490228
-0.461258
-0.264345
-0.273622
-0.28261
-0.295367
-0.312557
-0.333431
-0.357196
-0.383037
-0.410088
-0.437448
-0.4642
-0.489441
-0.512313
-0.532033
-0.547923
-0.559429
-0.56613
-0.567737
-0.56409
-0.555125
-0.540822
-0.521259
-0.497005
-0.468542
-0.282549
-0.290086
-0.298251
-0.310491
-0.327312
-0.347966
-0.371643
-0.397509
-0.424672
-0.452205
-0.479161
-0.504616
-0.527692
-0.547596
-0.563647
-0.575298
-0.582143
-0.583913
-0.580494
-0.571947
-0.558417
-0.540001
-0.51659
-0.489062
-0.305474
-0.310541
-0.31749
-0.328881
-0.344985
-0.365056
-0.388277
-0.413796
-0.440709
-0.468069
-0.494913
-0.520299
-0.543336
-0.563226
-0.579287
-0.590985
-0.597938
-0.59991
-0.59684
-0.58891
-0.576312
-0.559036
-0.537682
-0.509166
-0.328465
-0.330613
-0.336053
-0.346257
-0.361225
-0.380233
-0.402455
-0.427037
-0.453085
-0.479666
-0.505817
-0.530603
-0.553143
-0.572644
-0.588438
-0.60001
-0.607007
-0.609262
-0.606705
-0.599364
-0.587866
-0.571288
-0.55169
-0.525041
-0.347573
-0.346882
-0.350586
-0.359168
-0.372462
-0.38981
-0.410371
-0.433288
-0.457717
-0.482783
-0.507522
-0.531055
-0.552535
-0.571193
-0.586384
-0.597621
-0.604557
-0.607005
-0.605084
-0.598485
-0.588251
-0.572623
-0.554539
-0.529467
-0.360774
-0.357668
-0.359447
-0.365934
-0.376892
-0.39179
-0.409876
-0.430345
-0.452379
-0.475143
-0.497785
-0.519474
-0.539415
-0.5569
-0.571328
-0.582117
-0.589136
-0.592089
-0.591096
-0.58555
-0.576604
-0.562135
-0.54508
-0.520819
-0.367792
-0.363115
-0.362978
-0.36689
-0.374742
-0.386303
-0.401015
-0.418179
-0.437056
-0.456889
-0.476909
-0.496347
-0.514482
-0.53061
-0.544265
-0.555156
-0.562727
-0.566594
-0.56677
-0.562569
-0.554706
-0.541243
-0.524474
-0.500186
-0.369767
-0.364588
-0.362857
-0.364027
-0.36824
-0.375684
-0.386168
-0.399242
-0.41434
-0.430837
-0.448072
-0.465335
-0.481729
-0.497127
-0.51084
-0.52211
-0.530424
-0.535265
-0.536323
-0.532885
-0.525208
-0.511901
-0.494438
-0.469423
-0.368486
-0.363792
-0.361061
-0.359841
-0.360512
-0.363672
-0.369602
-0.378257
-0.38936
-0.402462
-0.416976
-0.432353
-0.448251
-0.463466
-0.477187
-0.48866
-0.497107
-0.501787
-0.502205
-0.497829
-0.488975
-0.474904
-0.456834
-0.431748
-0.365673
-0.3621
-0.359004
-0.356132
-0.354032
-0.353603
-0.355562
-0.360316
-0.367957
-0.378274
-0.390877
-0.405091
-0.419954
-0.434363
-0.447218
-0.457498
-0.464219
-0.466725
-0.464521
-0.457601
-0.44651
-0.431411
-0.414119
-0.391694
-0.362775
-0.360489
-0.357455
-0.353701
-0.349907
-0.347131
-0.346387
-0.34842
-0.353632
-0.361921
-0.372762
-0.385266
-0.398278
-0.410532
-0.420771
-0.427929
-0.431136
-0.430045
-0.424372
-0.414756
-0.401443
-0.385649
-0.368825
-0.350618
-0.421831
-0.368163
-0.30695
-0.238805
-0.166745
-0.0937665
-0.0246194
0.0355949
0.0831606
0.115937
0.134369
0.140854
0.138584
0.130863
0.120363
0.108947
0.0977526
0.0873145
0.077876
0.0694601
0.0620285
0.0554894
0.0498194
0.044786
0.0403279
0.0363903
0.0329018
0.0298052
0.0270567
0.0246167
0.0224494
0.0205218
0.0188038
0.0172696
0.0158965
0.014665
0.013558
0.0125607
0.0116602
0.0108446
0.0101041
0.00942819
0.00881055
0.00823964
0.00771455
0.00721863
0.00676081
0.00631282
0.00589893
0.0054752
0.00507787
0.00466156
0.00424353
0.00382032
0.00334503
0.0028772
0.00232929
0.00175558
0.00110218
0.000397767
-0.430675
-0.377287
-0.316721
-0.248613
-0.176735
-0.10376
-0.0341909
0.0271799
0.0759959
0.109985
0.129696
0.137248
0.135931
0.128895
0.118928
0.107942
0.0970205
0.0867768
0.0774712
0.0691757
0.0618221
0.0552503
0.0497456
0.0447941
0.0403586
0.0364287
0.0329466
0.0298535
0.0271056
0.0246639
0.0224944
0.0205643
0.0188437
0.0173066
0.0159308
0.0146965
0.0135869
0.0125871
0.0116843
0.0108665
0.010124
0.00944637
0.00882687
0.00825469
0.00772769
0.00723123
0.00677107
0.00632354
0.00590674
0.00548405
0.00508435
0.00466759
0.00425036
0.00382286
0.00335205
0.00287806
0.00233419
0.00175568
0.00110509
0.000394039
-0.455178
-0.403215
-0.344889
-0.278109
-0.20686
-0.133547
-0.0609709
0.00303499
0.0551034
0.0925791
0.115401
0.125709
0.126931
0.122016
0.113708
0.104034
0.094158
0.0847292
0.0760434
0.0682118
0.0612337
0.0551161
0.0493878
0.0444822
0.0401594
0.0363222
0.0328894
0.0298271
0.0271015
0.0246736
0.0225127
0.0205876
0.0188694
0.017333
0.015957
0.0147219
0.013611
0.0126099
0.0117055
0.0108863
0.0101422
0.00946317
0.00884212
0.00826896
0.00774025
0.00724348
0.00678112
0.00633425
0.00591462
0.00549317
0.00509117
0.00467406
0.00425781
0.00382595
0.00335984
0.00287961
0.00233987
0.0017565
0.00110853
0.000390586
-0.482502
-0.431525
-0.375885
-0.311801
-0.242226
-0.169415
-0.097282
-0.0310721
0.0242663
0.0656372
0.0924796
0.106744
0.111633
0.110244
0.104768
0.0973224
0.0892118
0.0811143
0.0734023
0.0662755
0.059801
0.0539762
0.0486947
0.0439562
0.0397743
0.0360134
0.0327095
0.0297124
0.0270329
0.0246367
0.022498
0.0205876
0.0188784
0.0173475
0.0159746
0.0147412
0.013631
0.0126297
0.0117248
0.0109047
0.0101596
0.00947954
0.00885722
0.0082833
0.00775304
0.0072561
0.00679165
0.00634555
0.00592318
0.00550307
0.00509884
0.00468149
0.00426621
0.00383012
0.00336865
0.00288227
0.00234657
0.00175834
0.00111269
0.000387628
-0.496529
-0.453735
-0.402161
-0.342563
-0.276203
-0.205744
-0.134906
-0.0683747
-0.0111512
0.0332364
0.0638915
0.082377
0.0915873
0.0944598
0.0928122
0.0883343
0.0825072
0.076173
0.0697956
0.0636555
0.0578965
0.0525787
0.0476788
0.0432223
0.0392092
0.0356676
0.0324222
0.0295198
0.0269076
0.0245552
0.0224505
0.0205635
0.0188694
0.0173484
0.0159822
0.0147529
0.0136453
0.0126454
0.0117411
0.010921
0.0101755
0.00949503
0.00887182
0.00829741
0.00776586
0.00726891
0.00680255
0.00635733
0.00593237
0.00551368
0.00510731
0.00468987
0.00427549
0.00383547
0.00337838
0.00288616
0.00235425
0.00176128
0.00111756
0.000385274
-0.500573
-0.461243
-0.415741
-0.362861
-0.302247
-0.236509
-0.169162
-0.104331
-0.0469123
-0.000758275
0.0329754
0.0554802
0.0690639
0.0761408
0.0787507
0.077812
0.074627
0.0702875
0.0654335
0.0604381
0.055524
0.0508227
0.0463983
0.0423108
0.0385511
0.0350905
0.0320397
0.0292071
0.0267095
0.0244219
0.0223662
0.0205131
0.018841
0.0173349
0.0159788
0.0147566
0.0136535
0.0126566
0.0117541
0.010935
0.0101898
0.00950935
0.00888566
0.00831107
0.00777848
0.00728172
0.00681365
0.0063694
0.00594204
0.00552484
0.00511643
0.00469909
0.00428542
0.00384196
0.00338878
0.00289127
0.00236272
0.00176531
0.00112302
0.000383621
-0.490505
-0.454841
-0.416857
-0.369696
-0.314462
-0.255632
-0.195383
-0.135573
-0.0801237
-0.0334767
0.00242862
0.0283708
0.0459952
0.0571012
0.0633827
0.0661365
0.0659051
0.0637256
0.0604939
0.0567438
0.0527747
0.0487797
0.0448879
0.0411899
0.0377395
0.0345295
0.0315359
0.0287604
0.0264346
0.0242408
0.0222505
0.020439
0.0187943
0.0173073
0.0159648
0.0147521
0.0136557
0.0126633
0.0117637
0.0109465
0.0102023
0.0095224
0.00889866
0.00832419
0.00779084
0.0072944
0.00682488
0.00638164
0.00595212
0.00553643
0.00512609
0.0047091
0.00429584
0.00384961
0.00339964
0.00289762
0.0023718
0.00177048
0.00112895
0.000382831
-0.467958
-0.435178
-0.405283
-0.365383
-0.316177
-0.263019
-0.209815
-0.158456
-0.108317
-0.0630359
-0.0260142
0.00249902
0.0235371
0.0382107
0.0478144
0.0535648
0.0563495
0.0565585
0.0550771
0.0526465
0.0496893
0.0464612
0.0431496
0.0398882
0.0367595
0.0338056
0.031017
0.0286004
0.0261222
0.0240032
0.0220993
0.0203385
0.0187272
0.0172642
0.0159391
0.0147388
0.0136512
0.012665
0.0117697
0.0109553
0.0102128
0.00953407
0.00891072
0.00833668
0.00780288
0.0073069
0.00683619
0.00639395
0.00596257
0.00554835
0.00513621
0.00471986
0.00430659
0.00385848
0.00341076
0.00290528
0.00238132
0.00177687
0.00113524
0.000383149
-0.435142
-0.40565
-0.383478
-0.350743
-0.309026
-0.26372
-0.217328
-0.172723
-0.129839
-0.0882568
-0.0515681
-0.021498
0.00209847
0.0197593
0.0323102
0.0407523
0.045966
0.0486175
0.04907
0.0480875
0.0462283
0.0438505
0.0411997
0.0384429
0.0356929
0.0330243
0.0304802
0.0280495
0.0258509
0.0237174
0.0219135
0.0202117
0.0186403
0.017206
0.0159018
0.0147167
0.0136401
0.0126618
0.0117719
0.0109614
0.0102214
0.00954427
0.00892175
0.00834842
0.00781452
0.00731907
0.00684752
0.00640621
0.00597334
0.0055605
0.00514673
0.00473133
0.00431751
0.00386861
0.00342191
0.00291432
0.00239111
0.00178457
0.00114178
0.000384907
-0.396909
-0.372478
-0.356855
-0.330705
-0.296929
-0.260119
-0.221344
-0.18254
-0.145556
-0.108819
-0.0740646
-0.0435945
-0.0182703
0.00175824
0.0169144
0.0278616
0.0353912
0.0401163
0.0425194
0.0431127
0.042423
0.0409018
0.0389109
0.0366804
0.0343512
0.0320166
0.029733
0.0275388
0.025388
0.0232354
0.0216639
0.0200502
0.0185299
0.0171308
0.0158523
0.0146856
0.0136223
0.0126534
0.0117703
0.0109644
0.0102276
0.0095528
0.0089316
0.00835931
0.00782568
0.00733087
0.00685889
0.00641834
0.00598446
0.0055728
0.00515763
0.0047435
0.00432848
0.00388011
0.00343293
0.00292485
0.00240099
0.00179374
0.00114845
0.00038857
-0.361603
-0.344396
-0.332737
-0.311376
-0.284507
-0.254882
-0.2226
-0.188947
-0.156139
-0.123528
-0.0917758
-0.0622006
-0.0361141
-0.0145025
0.0025659
0.0154515
0.0247765
0.0312649
0.0354306
0.0376265
0.0383714
0.0379425
0.0367173
0.0350248
0.0330877
0.0310474
0.0289934
0.026982
0.0250319
0.0233955
0.021385
0.0198536
0.0183987
0.0170377
0.0157873
0.0146425
0.0135957
0.0126392
0.0117648
0.0109652
0.0102327
0.00956067
0.00894123
0.00837011
0.00783699
0.00734268
0.00687052
0.00643046
0.00599589
0.00558518
0.00516866
0.00475623
0.00433915
0.00389288
0.00344341
0.00293688
0.0024106
0.00180444
0.00115512
0.000394883
-0.334338
-0.325653
-0.315056
-0.296862
-0.275807
-0.252818
-0.227245
-0.199124
-0.169708
-0.140037
-0.11113
-0.0836259
-0.0577562
-0.0348881
-0.0156907
-0.000233518
0.0117014
0.0205369
0.0267351
0.0306366
0.0327218
0.0335631
0.033437
0.0325989
0.0313066
0.0297494
0.0280545
0.0263112
0.0245774
0.0228834
0.0212518
0.0196283
0.0182442
0.0169401
0.0157245
0.0146024
0.0135711
0.0126252
0.0117583
0.0109638
0.0102348
0.00956524
0.00894737
0.00837745
0.00784498
0.00735138
0.00687947
0.00644001
0.00600539
0.00559563
0.00517823
0.00476805
0.00434815
0.00390603
0.00345202
0.00294982
0.00241892
0.0018161
0.00116094
0.000404385
-0.304809
-0.311481
-0.299742
-0.280132
-0.258885
-0.237133
-0.214198
-0.189456
-0.163316
-0.136533
-0.109899
-0.0843836
-0.0606194
-0.0393636
-0.0211883
-0.00625588
0.00555788
0.0145573
0.0211299
0.0256547
0.0285142
0.0300537
0.0305367
0.0302331
0.0293927
0.0282103
0.0268303
0.0253499
0.0238261
0.0223323
0.0207854
0.0193681
0.0179692
0.0167123
0.0155436
0.014461
0.0134621
0.0125422
0.011696
0.0109178
0.0102019
0.00954249
0.00893317
0.00836922
0.00784294
0.00735193
0.00688553
0.00644567
0.00601659
0.00560498
0.00519116
0.00478162
0.00435966
0.00392288
0.00346256
0.00296558
0.00242901
0.00182915
0.00116623
0.000415338
-0.272079
-0.282609
-0.273897
-0.255311
-0.235028
-0.215282
-0.195453
-0.174419
-0.151925
-0.128512
-0.105075
-0.0825381
-0.0614485
-0.0422886
-0.025553
-0.0114785
-3.14491e-05
0.00897339
0.0158197
0.0207922
0.0241411
0.0261509
0.0271176
0.0272936
0.0268962
0.0261066
0.0250636
0.0238668
0.0225766
0.0212505
0.0198974
0.0185413
0.0173947
0.016252
0.0151705
0.0141593
0.0132184
0.0123455
0.0115374
0.0107903
0.0100995
0.00946051
0.00886788
0.00831724
0.00780227
0.00731965
0.0068615
0.00642626
0.006004
0.00559417
0.005186
0.00477749
0.00435818
0.00392427
0.00346303
0.00296945
0.00243137
0.00183324
0.00116685
0.00042043
-0.243001
-0.254745
-0.24914
-0.233372
-0.215357
-0.197866
-0.180648
-0.162627
-0.14327
-0.122879
-0.102201
-0.0820234
-0.0629362
-0.0453911
-0.0298031
-0.0164257
-0.00529284
0.00370045
0.0107392
0.0160256
0.0197693
0.0222314
0.0236791
0.0243288
0.0243685
0.0239676
0.0232644
0.0223593
0.0213235
0.0202162
0.0190733
0.0179611
0.0168249
0.0157705
0.0147699
0.013826
0.0129415
0.0121158
0.0113471
0.0106327
0.00996917
0.00935268
0.00877888
0.00824361
0.00774181
0.00726943
0.00682087
0.00639201
0.00597725
0.00557095
0.00516877
0.0047624
0.00434689
0.0039155
0.00345555
0.00296475
0.00242709
0.00183093
0.00116335
0.000421886
-0.217863
-0.228818
-0.225554
-0.21272
-0.197026
-0.181504
-0.166353
-0.150714
-0.133985
-0.116256
-0.0980802
-0.0801485
-0.0630488
-0.0471967
-0.0329153
-0.0204298
-0.00981375
-0.00102996
0.00602499
0.011498
0.0155607
0.0184198
0.020294
0.0213707
0.0218148
0.0217832
0.0214102
0.0207959
0.0200136
0.0191228
0.0181593
0.0171766
0.0161916
0.0152441
0.0143324
0.013463
0.0126404
0.0118662
0.0111403
0.0104613
0.00982718
0.009235
0.00868152
0.00816284
0.00767528
0.00721399
0.0067758
0.00635393
0.00594714
0.00554501
0.00514881
0.00474543
0.00433333
0.00390528
0.00344644
0.00295877
0.00242163
0.00182776
0.00115959
0.000422736
-0.194626
-0.204978
-0.203402
-0.193094
-0.179647
-0.166043
-0.152777
-0.139268
-0.124924
-0.109667
-0.0938697
-0.0781022
-0.0628954
-0.0486318
-0.0355912
-0.0239831
-0.0139125
-0.00539707
0.00161067
0.0072123
0.0115313
0.0147197
0.0169587
0.0184144
0.0192302
0.0195467
0.0194911
0.0191607
0.0186259
0.0179449
0.0171697
0.0163529
0.0155103
0.0146734
0.0138558
0.0130661
0.0123103
0.0115918
0.0109124
0.0102722
0.00967033
0.00910491
0.00857386
0.00807358
0.00760176
0.00715288
0.0067261
0.00631225
0.0059141
0.00551697
0.0051271
0.00472753
0.00431885
0.00389501
0.00343704
0.0029532
0.00241649
0.00182513
0.00115686
0.000423638
-0.173583
-0.18341
-0.182899
-0.174608
-0.163239
-0.151506
-0.140029
-0.128432
-0.116187
-0.103124
-0.0894687
-0.0756681
-0.0621852
-0.0493829
-0.0375275
-0.0268155
-0.0173604
-0.00920823
-0.00234885
0.00327862
0.0077527
0.0111815
0.0137153
0.0154969
0.0166452
0.0172823
0.0175261
0.0174675
0.0171752
0.016712
0.0161321
0.0154774
0.0147744
0.0140553
0.0133378
0.0126327
0.011948
0.0112894
0.0106602
0.010062
0.0094954
0.00895937
0.00845303
0.00797316
0.0075188
0.00708388
0.00666971
0.00626513
0.00587639
0.00548532
0.00510225
0.00470737
0.00430246
0.00388348
0.00342665
0.00294716
0.00241112
0.00182241
0.0011547
0.000424192
-0.154961
-0.163844
-0.163973
-0.157347
-0.147855
-0.13788
-0.128065
-0.118167
-0.107744
-0.0965931
-0.0848397
-0.0728228
-0.0609409
-0.0495291
-0.0388351
-0.0290379
-0.0202472
-0.0125258
-0.00589442
-0.000325658
0.00422274
0.00782074
0.0105888
0.012646
0.0140867
0.0150134
0.0155346
0.0157355
0.0156815
0.0154319
0.0150393
0.0145471
0.0139882
0.0133916
0.0127785
0.0121622
0.0115528
0.0109579
0.0103824
0.00982959
0.00930117
0.00879717
0.00831786
0.00786045
0.00742529
0.00700591
0.00660562
0.00621159
0.0058331
0.0054492
0.00507343
0.00468417
0.0042834
0.00386993
0.00341468
0.00293988
0.00240499
0.00181898
0.00115256
0.00042412
-0.138012
-0.145965
-0.146612
-0.141402
-0.133549
-0.125144
-0.116819
-0.10842
-0.0995816
-0.0901002
-0.0800349
-0.0696403
-0.0592479
-0.0491511
-0.0395728
-0.0306779
-0.0225721
-0.0153292
-0.00899303
-0.00355863
0.000988885
0.00468509
0.00762298
0.00990033
0.0115871
0.0127672
0.0135399
0.0139829
0.0141532
0.0141069
0.0138981
0.0135704
0.0131561
0.0126844
0.0121788
0.0116548
0.0111244
0.0105968
0.0100785
0.00957418
0.00908687
0.00861752
0.00816756
0.00773468
0.0073205
0.00691832
0.00653323
0.0061511
0.00578374
0.00540817
0.00504025
0.00465757
0.00426136
0.00385406
0.00340087
0.00293106
0.00239794
0.00181463
0.00115022
0.000423466
-0.122493
-0.129784
-0.130851
-0.126786
-0.120305
-0.113256
-0.106239
-0.0991611
-0.0917105
-0.0836924
-0.0751242
-0.0661932
-0.0571672
-0.0482944
-0.0397723
-0.0317551
-0.0243443
-0.0176178
-0.011633
-0.00639948
-0.00192251
0.00180334
0.00484698
0.007288
0.00917355
0.0105686
0.0115625
0.0122242
0.0126026
0.0127505
0.0127203
0.0125535
0.0122814
0.0119367
0.0115406
0.0111116
0.0106632
0.0102059
0.009748
0.00929514
0.00885172
0.00841959
0.00800126
0.00759502
0.00720369
0.00682042
0.00645193
0.00608311
0.00572787
0.00536181
0.00500238
0.00462728
0.00423613
0.00383567
0.00338511
0.0029206
0.00238994
0.00180935
0.00114767
0.000422486
-0.108605
-0.11524
-0.116539
-0.113373
-0.108044
-0.102167
-0.0962996
-0.0903821
-0.0841476
-0.0774105
-0.0701616
-0.0625363
-0.0547478
-0.0470034
-0.0394757
-0.0323074
-0.0255921
-0.0194063
-0.0138152
-0.00883748
-0.00449291
-0.000800792
0.0022877
0.00483757
0.00687439
0.00844329
0.00962453
0.0104798
0.0110487
0.0113773
0.0115157
0.0115038
0.0113729
0.0111528
0.0108667
0.0105342
0.0101699
0.00978563
0.00939074
0.00899205
0.0085951
0.00820261
0.0078182
0.00744073
0.00707413
0.00671155
0.00636109
0.00600703
0.00566496
0.00530965
0.00495945
0.00459292
0.00420746
0.00381451
0.00336729
0.00290834
0.00238098
0.00180312
0.0011449
0.000421414
-0.0962051
-0.102085
-0.103482
-0.10106
-0.0967239
-0.0918671
-0.0870004
-0.0820913
-0.0769115
-0.0712884
-0.0651945
-0.0587248
-0.0520486
-0.0453378
-0.03874
-0.032383
-0.0263512
-0.0207162
-0.0155473
-0.0108688
-0.00670942
-0.00310757
-3.05513e-05
0.00257534
0.00471594
0.00641696
0.00775061
0.00877162
0.00950868
0.0100009
0.0102957
0.0104309
0.0104359
0.0103379
0.0101609
0.00992529
0.00964641
0.00933689
0.00900713
0.00866488
0.00831669
0.00796615
0.00761786
0.00727122
0.00693119
0.00659103
0.00626007
0.00592227
0.00559447
0.00525118
0.00491104
0.00455411
0.00417507
0.00379027
0.00334722
0.00289411
0.00237095
0.00179593
0.00114186
0.000420308
-0.0849084
-0.0901352
-0.0916248
-0.089838
-0.086346
-0.0823556
-0.0783397
-0.0742912
-0.0700165
-0.0653558
-0.0602674
-0.0548148
-0.0491317
-0.0433595
-0.0376214
-0.0320296
-0.0266584
-0.0215733
-0.016844
-0.012497
-0.00856574
-0.00510303
-0.00208855
0.000523694
0.00272236
0.00451415
0.00596363
0.00711976
0.00800066
0.00863737
0.00907403
0.00934576
0.00947889
0.00949846
0.00942822
0.00928847
0.00909514
0.00886132
0.00859814
0.0083141
0.00801663
0.00771008
0.00739989
0.00708599
0.00677429
0.00645827
0.00614829
0.00582824
0.00551588
0.00518589
0.00485672
0.00451041
0.00413862
0.00376265
0.00332467
0.00287773
0.00235967
0.00178774
0.00113843
0.000419128
-0.0746787
-0.0793795
-0.0809318
-0.0796519
-0.0768496
-0.0735811
-0.070284
-0.066969
-0.0634697
-0.0596368
-0.0554193
-0.0508564
-0.0460535
-0.0411256
-0.0361741
-0.0312963
-0.0265558
-0.0220102
-0.0177275
-0.0137333
-0.0100631
-0.00678002
-0.00387266
-0.0012994
0.000914043
0.00275621
0.00428476
0.00554472
0.00654389
0.00730391
0.00786523
0.00826035
0.00851192
0.00864242
0.0086747
0.00862843
0.00851956
0.00836135
0.00816539
0.00794073
0.00769547
0.00743457
0.00716417
0.00688474
0.00660303
0.0063128
0.00602527
0.00572444
0.00542872
0.00511329
0.00479609
0.00446142
0.0040978
0.00373132
0.0032994
0.00285901
0.00234696
0.00177853
0.00113449
0.000417854
-0.0655827
-0.069768
-0.0712801
-0.0703681
-0.0681364
-0.0654874
-0.0628087
-0.0601203
-0.0572807
-0.0541545
-0.0506861
-0.0468966
-0.0428684
-0.0386939
-0.0344555
-0.0302367
-0.0260902
-0.0220654
-0.0182263
-0.0145963
-0.01121
-0.00813828
-0.00537552
-0.00288136
-0.00069276
0.00116201
0.00273421
0.00406631
0.00515667
0.00601724
0.00668437
0.00718768
0.00754603
0.00777892
0.00790767
0.00795086
0.00792401
0.00784024
0.00771124
0.00754639
0.00735422
0.00714014
0.00691092
0.00666746
0.00641724
0.00615432
0.00589064
0.00561043
0.00533257
0.00503296
0.00472876
0.00440674
0.00405227
0.00369601
0.00327116
0.0028378
0.00233264
0.00176827
0.00112993
0.000416493
-0.0574343
-0.0610993
-0.0625374
-0.0619329
-0.0601882
-0.0580667
-0.0559101
-0.0537465
-0.05146
-0.0489308
-0.046102
-0.0429803
-0.0396286
-0.0361206
-0.0325221
-0.0289045
-0.0253104
-0.0217803
-0.0183737
-0.0151098
-0.0120212
-0.00918392
-0.00659568
-0.00421454
-0.00208578
-0.000252983
0.00132929
0.00270221
0.00385617
0.00479373
0.00554662
0.00614144
0.00659319
0.00691802
0.0071354
0.00726245
0.00731381
0.00730209
0.00723879
0.00713332
0.00699443
0.00682783
0.00664076
0.00643445
0.00621698
0.0059827
0.00574417
0.00548589
0.00522709
0.00494449
0.00465438
0.00434602
0.00400174
0.00365644
0.00323968
0.00281395
0.00231655
0.00175688
0.00112469
0.000415033
-0.0500561
-0.0532814
-0.0546652
-0.0543149
-0.0529703
-0.0512824
-0.0495567
-0.0478298
-0.0460062
-0.0439797
-0.0416935
-0.0391439
-0.0363784
-0.0334548
-0.0304254
-0.027351
-0.0242645
-0.021198
-0.0182058
-0.0153022
-0.0125169
-0.00992901
-0.00753739
-0.0052966
-0.00325775
-0.00147781
8.36642e-05
0.0014678
0.00265842
0.00364904
0.00446673
0.00513528
0.00566572
0.00607048
0.00636695
0.00657071
0.00669511
0.00675182
0.00675187
0.00670444
0.00661828
0.0064992
0.00635474
0.00618636
0.00600259
0.00579804
0.00558579
0.00535064
0.00511203
0.00484759
0.00457265
0.00427895
0.00394589
0.00361237
0.00320471
0.00278729
0.0022985
0.0017443
0.00111873
0.000413446
-0.0434524
-0.0463055
-0.0476181
-0.0474459
-0.0464121
-0.0450767
-0.0437109
-0.0423513
-0.0409159
-0.0393105
-0.0374814
-0.0354183
-0.0331569
-0.0307422
-0.0282148
-0.0256262
-0.0230009
-0.0203633
-0.0177621
-0.0152064
-0.0127224
-0.010391
-0.00821073
-0.00613108
-0.00420667
-0.00250581
-0.000992367
0.000375538
0.00157681
0.00259693
0.00345846
0.00418256
0.00477607
0.00524739
0.00561196
0.00588389
0.0060748
0.00619511
0.00625507
0.00626338
0.00622856
0.00615634
0.00605438
0.00592422
0.00577474
0.00560074
0.00541569
0.00520469
0.00498731
0.00474208
0.00448335
0.00420529
0.00388446
0.00356358
0.00316601
0.0027577
0.00227835
0.00173044
0.00111202
0.000411704
-0.0375809
-0.0400658
-0.0412702
-0.0412285
-0.0404545
-0.0394188
-0.0383564
-0.0373021
-0.0361872
-0.0349308
-0.0334837
-0.0318314
-0.0300006
-0.0280254
-0.0259367
-0.0237781
-0.0215671
-0.019321
-0.0170833
-0.0148578
-0.0126668
-0.0105922
-0.00863097
-0.00672667
-0.00493544
-0.00333491
-0.00189245
-0.000564737
0.00062327
0.00164974
0.00253344
0.00329405
0.00393548
0.0044598
0.00488058
0.00521084
0.00546048
0.00563838
0.00575371
0.00581445
0.00582871
0.00580191
0.00574169
0.00564951
0.0055345
0.00539149
0.00523431
0.00504824
0.00485298
0.00462789
0.00438633
0.00412486
0.00381724
0.00350989
0.00312337
0.00272504
0.00225597
0.00171522
0.00110453
0.000409793
-0.0323131
-0.0344676
-0.0355754
-0.0356432
-0.0350794
-0.034287
-0.0334696
-0.0326625
-0.0318096
-0.0308414
-0.0297122
-0.0284047
-0.026939
-0.0253402
-0.0236313
-0.0218496
-0.0200066
-0.0181138
-0.0162095
-0.0142924
-0.0123811
-0.0105579
-0.0088175
-0.00709679
-0.00545216
-0.00396881
-0.00261629
-0.0013486
-0.000193421
0.000820326
0.00170656
0.00248331
0.00315442
0.00371551
0.00418109
0.0045598
0.00485973
0.0050883
0.00525352
0.00536249
0.0054227
0.00543912
0.00541921
0.0053642
0.00528332
0.00517133
0.00504236
0.00488176
0.00470932
0.00450514
0.00428161
0.00403761
0.00374408
0.00345119
0.00307662
0.00268918
0.00223126
0.00169855
0.00109626
0.000407705
-0.0275897
-0.0294636
-0.0304784
-0.030622
-0.030229
-0.0296324
-0.0290136
-0.0284082
-0.0277702
-0.0270392
-0.0261732
-0.0251534
-0.0239949
-0.0227165
-0.0213343
-0.0198803
-0.0183609
-0.0167829
-0.0151804
-0.0135472
-0.0118984
-0.0103162
-0.00879286
-0.00725834
-0.00576853
-0.00441493
-0.00316879
-0.00198053
-0.000878198
0.000105722
0.000982393
0.00176543
0.00245747
0.00303042
0.00352575
0.00394192
0.00428219
0.00455298
0.00476127
0.00491309
0.00501516
0.00507177
0.00508999
0.00507069
0.00502309
0.00494171
0.00484091
0.00470599
0.00455683
0.00437415
0.00416933
0.0039436
0.00366495
0.00338744
0.00302565
0.00265003
0.00220415
0.00168036
0.0010872
0.000405441
-0.0233917
-0.0250122
-0.0259287
-0.0261207
-0.0258611
-0.0254266
-0.0249699
-0.0245267
-0.0240613
-0.0235225
-0.0228716
-0.0220889
-0.0211868
-0.020179
-0.0190761
-0.017905
-0.0166678
-0.0153673
-0.0140343
-0.0126583
-0.0112515
-0.00989589
-0.00858062
-0.00722892
-0.00589521
-0.00467617
-0.00354538
-0.00245186
-0.00142511
-0.000502126
0.000329273
0.00108808
0.00175876
0.002383
0.00290988
0.00335617
0.00372998
0.00403642
0.00428166
0.004471
0.00461048
0.00470371
0.00475734
0.00477175
0.00475605
0.00470439
0.00463133
0.00452198
0.00439625
0.00423544
0.00404982
0.00384306
0.00357991
0.00331865
0.00297041
0.00260753
0.0021746
0.00166058
0.00107732
0.000402999
-0.0196399
-0.0210302
-0.0218519
-0.0220772
-0.0219243
-0.021621
-0.0212971
-0.0209864
-0.0206604
-0.0202759
-0.0197993
-0.0192106
-0.0185197
-0.0177372
-0.0168693
-0.015939
-0.0149447
-0.0138861
-0.0127907
-0.0116442
-0.0104566
-0.0093093
-0.00818836
-0.00701045
-0.00582811
-0.00474163
-0.00372464
-0.00272204
-0.00176262
-0.00088744
-9.55125e-05
0.000619149
0.0012929
0.00187609
0.00239454
0.00284571
0.00323247
0.00355889
0.00382921
0.004047
0.00421692
0.00434143
0.0044264
0.00447144
0.00448543
0.00446194
0.00441563
0.00433126
0.00422876
0.00408989
0.0039237
0.00373642
0.00348921
0.00324503
0.00291099
0.00256168
0.00214263
0.00163919
0.00106663
0.000400412
-0.0163127
-0.0175045
-0.018244
-0.0185008
-0.0184495
-0.0182742
-0.0180776
-0.017882
-0.017662
-0.0173852
-0.0170363
-0.0166006
-0.0160825
-0.0154868
-0.0148162
-0.0140912
-0.0133069
-0.0124602
-0.0115761
-0.0106375
-0.00965284
-0.00870329
-0.00777234
-0.00677088
-0.00574938
-0.00481112
-0.00393005
-0.00304709
-0.00219
-0.00139979
-0.000660094
5.05391e-05
0.000709469
0.00130743
0.00183789
0.00230897
0.00272118
0.00307555
0.00337523
0.00362317
0.00382361
0.00397855
0.00409364
0.00416802
0.00421053
0.0042142
0.00419396
0.00413407
0.00405463
0.00393769
0.00379109
0.00362376
0.00339282
0.00316651
0.00284726
0.00251232
0.00210813
0.00161598
0.00105502
0.000397479
-0.0133151
-0.0143168
-0.0149493
-0.0151795
-0.0151464
-0.0150041
-0.0148454
-0.0147004
-0.0145591
-0.0144011
-0.0141946
-0.0139108
-0.0135521
-0.0131193
-0.0126159
-0.0120636
-0.0114564
-0.0107885
-0.0100823
-0.00931868
-0.00850451
-0.0077207
-0.00694801
-0.00609207
-0.00520113
-0.00438097
-0.00360682
-0.00281707
-0.00203689
-0.00131958
-0.000677517
-6.12612e-06
0.000575006
0.00110869
0.00159209
0.00202611
0.00241228
0.00275124
0.00304482
0.00329434
0.00350257
0.0036699
0.00380097
0.00389349
0.00395598
0.00398009
0.00398101
0.00394176
0.00388269
0.00378582
0.00365729
0.00350942
0.00329389
0.00308571
0.00278112
0.00246094
0.00207215
0.00159183
0.00104319
0.000395316
-0.0108123
-0.0117131
-0.0123266
-0.0126211
-0.0127074
-0.012708
-0.0126934
-0.0126798
-0.0126472
-0.0125684
-0.0124185
-0.0121879
-0.0118854
-0.0115358
-0.0111419
-0.0107187
-0.0102523
-0.00973223
-0.00917776
-0.00856812
-0.00790968
-0.00728328
-0.00666774
-0.00596402
-0.00521744
-0.00453471
-0.00389081
-0.00322217
-0.00255517
-0.00193336
-0.00124982
-0.000650466
-7.06242e-05
0.000467214
0.00096445
0.00142063
0.001834