/*--------------------------------*- C++ -*----------------------------------*\
| =========                 |                                                 |
| \\      /  F ield         | OpenFOAM: The Open Source CFD Toolbox           |
|  \\    /   O peration     | Version:  2512                                  |
|   \\  /    A nd           | Website:  www.openfoam.com                      |
|    \\/     M anipulation  |                                                 |
\*---------------------------------------------------------------------------*/
FoamFile
{
    version     2.0;
    format      ascii;
    arch        "LSB;label=32;scalar=64";
    class       surfaceScalarField;
    location    "10";
    object      phi;
}
// * * * * * * * * * * * * * * * * * * * * * * * * * * * * * * * * * * * * * //

dimensions      [0 3 -1 0 0 0 0];

oriented        oriented;

internalField   nonuniform List<scalar> 
26232
(
-0.000299032
0.0010597
-0.000760665
-0.00084979
0.00180071
-0.00124995
-0.00122444
0.00162962
-0.00125496
-0.000999117
0.000591212
-0.00081654
0.000220868
-0.00144293
0.000222942
0.00283555
-0.00465309
0.00203841
0.0071667
-0.00918037
0.00484923
0.0134689
-0.0150707
0.00876854
0.02185
-0.0222046
0.0138235
0.0322171
-0.0302915
0.0199244
0.0442649
-0.0389107
0.0268629
0.0575122
-0.0475875
0.0343402
0.0713726
-0.0558748
0.0420145
0.0852392
-0.0634195
0.0495529
0.0985622
-0.0699976
0.0566746
0.110911
-0.0755274
0.0631783
0.122018
-0.0800516
0.0689451
0.131753
-0.0837142
0.0739791
0.140238
-0.0867215
0.0782367
0.147548
-0.0893464
0.0820361
0.154151
-0.0917084
0.085105
0.160231
-0.0943552
0.0882754
0.166044
-0.0967349
0.0909224
-0.10007
0.0941132
0.172001
-7.82913e-05
0.00113799
-9.18965e-05
0.00181431
0.000342504
0.00119522
0.00166523
-0.000731509
0.00431618
-0.00409389
0.00869944
-0.00903635
0.0151228
-0.0156038
0.0236923
-0.0236402
0.0342417
-0.032754
0.0463252
-0.042375
0.0592887
-0.0518742
0.0723918
-0.0606906
0.0849393
-0.0684223
0.0963887
-0.0748689
0.106418
-0.0800274
0.114949
-0.0840579
0.122117
-0.0872197
0.128234
-0.0898316
0.13368
-0.092167
0.138836
-0.0945026
0.144056
-0.0969287
0.149369
-0.0996675
0.155019
-0.102386
-0.105772
0.160721
7.21191e-05
0.00106587
0.000518409
0.00136803
0.00172757
-1.39452e-05
0.00418479
-0.00318872
0.00835272
-0.00826182
0.0146069
-0.0152906
0.0230814
-0.0240782
0.0335531
-0.0341119
0.0454378
-0.0446387
0.0579124
-0.0548496
0.070106
-0.0640678
0.0812845
-0.0718691
0.090979
-0.0781169
0.0990373
-0.0829272
0.1056
-0.0865903
0.111015
-0.0894726
0.115727
-0.0919321
0.120147
-0.0942516
0.124588
-0.096608
0.129203
-0.0991175
0.134005
-0.10173
0.138936
-0.104598
0.143933
-0.107382
-0.110691
0.148852
0.000172064
0.000893806
0.00102916
0.00051093
0.0030445
-0.00202929
0.00671882
-0.00686305
0.0125129
-0.0140559
0.0206182
-0.0233959
0.0307876
-0.0342476
0.0423164
-0.0456407
0.0542251
-0.0565474
0.0655354
-0.06616
0.0755119
-0.0740443
0.0837945
-0.0801517
0.0904071
-0.0847295
0.0956655
-0.0881855
0.100027
-0.0909516
0.10394
-0.0933863
0.107739
-0.0957311
0.111602
-0.098114
0.115587
-0.100593
0.119649
-0.103179
0.123793
-0.105875
0.127945
-0.10875
0.132186
-0.111624
-0.114989
0.136484
0.000273361
0.000620444
0.00157966
-0.000795366
0.00447454
-0.00492417
0.00948685
-0.0118754
0.0169102
-0.0214792
0.0265324
-0.0330181
0.0375679
-0.045283
0.0488942
-0.056967
0.0594316
-0.0670848
0.068447
-0.0751754
0.0756783
-0.0812757
0.0812834
-0.0857568
0.0856761
-0.0891222
0.0893338
-0.0918432
0.0926508
-0.0942685
0.0958747
-0.0966102
0.099119
-0.0989754
0.102421
-0.101416
0.105784
-0.103956
0.109224
-0.106619
0.112761
-0.109412
0.11638
-0.112368
0.120144
-0.115388
-0.118772
0.123927
0.000414847
0.000205597
0.0022603
-0.00264082
0.00615535
-0.00881922
0.0125346
-0.0182546
0.0213129
-0.0302574
0.0317
-0.0434053
0.0424514
-0.0560344
0.052368
-0.0668836
0.0606853
-0.0754021
0.0671921
-0.0816822
0.0721195
-0.086203
0.0759188
-0.089556
0.0790512
-0.0922546
0.0818637
-0.0946558
0.084564
-0.0969689
0.0872559
-0.099302
0.0899901
-0.10171
0.0927925
-0.104219
0.0956821
-0.106845
0.0986575
-0.109595
0.101713
-0.112468
0.104816
-0.115471
0.107987
-0.118558
-0.121902
0.111117
0.000613158
-0.000407561
0.0031003
-0.00512796
0.00805681
-0.0137757
0.0156291
-0.0258269
0.0251547
-0.0397831
0.0353166
-0.0535672
0.0447621
-0.0654799
0.052626
-0.0747476
0.0586763
-0.0814523
0.0631577
-0.0861636
0.0665268
-0.0895722
0.0692312
-0.0922604
0.0716001
-0.0946235
0.0738347
-0.0968904
0.0760437
-0.0991778
0.0782821
-0.10154
0.0805735
-0.104001
0.0829249
-0.10657
0.0853302
-0.109251
0.0877833
-0.112048
0.0902817
-0.114967
0.0928173
-0.118007
0.0954157
-0.121156
-0.1245
0.0980136
0.00086349
-0.00127105
0.00405767
-0.00832214
0.0100055
-0.0197235
0.0183499
-0.0341713
0.0278235
-0.0492566
0.0368968
-0.0626406
0.0445105
-0.0730935
0.0503202
-0.0805573
0.054529
-0.0856611
0.057584
-0.0892186
0.0599346
-0.0919228
0.061917
-0.0942428
0.0637405
-0.096447
0.0655178
-0.0986677
0.0673016
-0.100962
0.0691118
-0.103351
0.0709541
-0.105843
0.0728296
-0.108446
0.0747424
-0.111164
0.0766967
-0.114002
0.0786921
-0.116962
0.0807221
-0.120037
0.0827889
-0.123223
-0.126539
0.0848276
0.00114898
-0.00242003
0.00504424
-0.0122174
0.011749
-0.0264283
0.020275
-0.0426973
0.0289673
-0.0579489
0.0364739
-0.0701472
0.0422246
-0.0788442
0.0463133
-0.084646
0.0491605
-0.0885082
0.0512284
-0.0912865
0.0528759
-0.0935704
0.0543287
-0.0956956
0.0557063
-0.0978246
0.0570631
-0.100024
0.0584211
-0.10232
0.0597899
-0.104719
0.0611758
-0.107229
0.062584
-0.109854
0.0640168
-0.112596
0.0654725
-0.115458
0.0669469
-0.118436
0.0684361
-0.121526
0.0699388
-0.124726
-0.128033
0.0714331
0.00144561
-0.00386564
0.00594832
-0.0167201
0.0130362
-0.0335163
0.0211475
-0.0508086
0.0285913
-0.0653927
0.0344314
-0.0759872
0.0385509
-0.0829638
0.0413033
-0.0873985
0.0431625
-0.0903674
0.0445217
-0.0926458
0.0456349
-0.0946836
0.0466378
-0.0966985
0.0475932
-0.09878
0.048528
-0.100959
0.049455
-0.103247
0.0503808
-0.105645
0.0513099
-0.108158
0.0522446
-0.110788
0.0531868
-0.113538
0.0541375
-0.116409
0.0550962
-0.119395
0.0560611
-0.122491
0.0570289
-0.125694
-0.128989
0.057985
0.0017255
-0.00559115
0.00665662
-0.0216512
0.0136935
-0.0405531
0.0209356
-0.0580506
0.0269473
-0.0714044
0.0312465
-0.0802864
0.0340345
-0.0857518
0.0357726
-0.0891366
0.0368958
-0.0914906
0.0377018
-0.0934517
0.0383552
-0.0953369
0.0389336
-0.097277
0.0394706
-0.099317
0.0399806
-0.101469
0.0404705
-0.103736
0.0409448
-0.10612
0.0414078
-0.108621
0.0418635
-0.111244
0.0423151
-0.11399
0.0427635
-0.116857
0.0432068
-0.119838
0.0436412
-0.122925
0.0440593
-0.126112
-0.129392
0.0444624
0.00196306
-0.00755421
0.00708242
-0.0267706
0.01367
-0.0471407
0.0197842
-0.0641649
0.0243799
-0.0760001
0.0273516
-0.0832581
0.0290807
-0.0874809
0.0300353
-0.0900912
0.030572
-0.0920273
0.0309005
-0.0937802
0.0311224
-0.0955589
0.031281
-0.0974356
0.0313941
-0.0994301
0.0314698
-0.101545
0.0315136
-0.10378
0.0315297
-0.106136
0.0315223
-0.108614
0.0314944
-0.111216
0.0314484
-0.113944
0.0313857
-0.116794
0.0313071
-0.11976
0.0312119
-0.12283
0.0310961
-0.125996
0.0309612
-0.129258
9.88509e-05
-0.00880515
0.00870629
-0.000309327
-0.0193532
0.0197614
-0.00143384
-0.0249427
0.0260673
-0.00315337
-0.0274189
0.0291384
-0.00528488
-0.0283532
0.0304847
-0.00765369
-0.0287363
0.0311051
-0.0101157
-0.0289606
0.0314226
-0.0125487
-0.0290199
0.0314528
-0.0148383
-0.0287327
0.0310223
-0.0168722
-0.0278825
0.0299165
-0.0185443
-0.0262737
0.0279457
-0.0197638
-0.0237474
0.0249669
-0.020467
-0.0201872
0.0208904
-0.0206247
-0.0155202
0.0156778
-0.0202457
-0.0097107
0.00933177
-0.0193873
-0.00273367
0.00187525
-0.0179894
0.00504394
-0.00644182
-0.0160241
0.013866
-0.0158313
-0.0134314
0.0235959
-0.0261887
-0.0100921
0.034067
-0.0374063
-0.00585766
0.0450292
-0.0492636
-0.000710611
0.0561205
-0.0612675
0.00527705
0.0669903
-0.072978
0.0771144
0.011565
-0.0834024
-0.00028917
-0.00851598
-0.00138787
-0.0182545
-0.00324377
-0.0230868
-0.00569956
-0.0249631
-0.00859887
-0.0254539
-0.0118214
-0.0255138
-0.0152678
-0.0255141
-0.0188402
-0.0254475
-0.0224299
-0.025143
-0.0259146
-0.0243978
-0.0291633
-0.023025
-0.0320447
-0.0208659
-0.0344394
-0.0177926
-0.0362501
-0.0137095
-0.037411
-0.00854973
-0.0379034
-0.00224133
-0.0375996
0.00474021
-0.036476
0.0127424
-0.0344834
0.0216033
-0.0315557
0.0311392
-0.0276505
0.041124
-0.0227848
0.0512548
-0.0169861
0.0611916
0.0707484
-0.0106201
-0.000608339
-0.00790764
-0.00221974
-0.0166431
-0.00459072
-0.0207159
-0.00752156
-0.0220323
-0.0108894
-0.0220861
-0.0146244
-0.0217787
-0.0186687
-0.0214698
-0.0229491
-0.0211671
-0.0273687
-0.0207235
-0.0318076
-0.0199589
-0.0361272
-0.0187054
-0.0401762
-0.0168168
-0.0437994
-0.0141694
-0.0468457
-0.0106631
-0.0491759
-0.00621956
-0.0506851
-0.000732099
-0.0511901
0.00524517
-0.0506656
0.0122179
-0.0489831
0.0199208
-0.0460254
0.0281815
-0.0416906
0.0367892
-0.0359486
0.0455128
-0.0287394
0.0539824
0.0619169
-0.0199079
-0.000837344
-0.00707029
-0.00278447
-0.014696
-0.00545105
-0.0180493
-0.00860089
-0.0188824
-0.0121281
-0.0185589
-0.0159958
-0.017911
-0.0201762
-0.0172894
-0.0246173
-0.0167259
-0.0292354
-0.0161054
-0.033918
-0.0152763
-0.0385273
-0.0140961
-0.0429045
-0.0124397
-0.0468737
-0.0102001
-0.0502503
-0.00728656
-0.0528438
-0.00362607
-0.0542991
0.000723176
-0.054771
0.00571703
-0.0539345
0.0113815
-0.0516013
0.0175876
-0.0476001
0.0241802
-0.0417379
0.030927
-0.0338151
0.03759
-0.023952
0.0441193
0.0493248
-0.0113599
-0.000982654
-0.00608764
-0.0031208
-0.0125579
-0.00591453
-0.0152556
-0.00908813
-0.0157088
-0.0125301
-0.0151169
-0.0162121
-0.014229
-0.0201187
-0.0133828
-0.0242083
-0.0126363
-0.0284032
-0.0119105
-0.0325938
-0.0110858
-0.0366426
-0.0100473
-0.0403854
-0.00869688
-0.0436377
-0.00694785
-0.0461781
-0.00474613
-0.047762
-0.00204213
-0.0482046
0.00116573
-0.0473344
0.00484683
-0.0448924
0.00893957
-0.0406381
0.0133332
-0.0343305
0.0178727
-0.0258453
0.0224418
-0.0146931
0.0264379
-0.0010577
0.0304838
0.0325254
0.0157417
-0.00106764
-0.00502
-0.0033019
-0.0103236
-0.00612306
-0.0124344
-0.00921364
-0.0126182
-0.0124385
-0.0118921
-0.0157569
-0.0109107
-0.0191483
-0.00999135
-0.0225692
-0.00921544
-0.0259389
-0.00854073
-0.0291423
-0.0078824
-0.0320358
-0.00715383
-0.0344522
-0.00628046
-0.0361972
-0.00520281
-0.0370678
-0.00387556
-0.0368173
-0.00229265
-0.0351928
-0.0004588
-0.0320742
0.00172823
-0.0271684
0.00403375
-0.0202599
0.00642473
-0.0110711
0.00868388
0.000351136
0.0110196
0.014712
0.012077
0.0308314
0.0143644
0.0117698
0.0515871
-0.00111648
-0.00390351
-0.0033955
-0.00804458
-0.00620271
-0.00962718
-0.00918342
-0.00963754
-0.0121718
-0.0089037
-0.0151026
-0.00797984
-0.017939
-0.00715499
-0.020627
-0.00652745
-0.0230778
-0.00608989
-0.0251678
-0.00579238
-0.0267445
-0.00557715
-0.0276338
-0.00539119
-0.0276429
-0.00519373
-0.0265675
-0.00495097
-0.0242152
-0.00464489
-0.0203984
-0.00427561
-0.0148164
-0.00385376
-0.00734343
-0.00343923
0.00217329
-0.00309198
0.0140292
-0.00317201
0.0278751
-0.00282638
0.044885
-0.00493283
0.0632498
-0.0040004
-0.0105832
0.0856028
-0.00113737
-0.00276614
-0.00342154
-0.00576041
-0.00618878
-0.00685994
-0.00905857
-0.00676775
-0.0118366
-0.00612563
-0.0144293
-0.00538716
-0.0167752
-0.00480914
-0.0188009
-0.00450176
-0.0204011
-0.00448963
-0.0214356
-0.00475788
-0.021735
-0.00527781
-0.0211088
-0.00601733
-0.0193583
-0.0069443
-0.0162822
-0.00802699
-0.0116832
-0.00924396
-0.00538432
-0.0105745
0.00277912
-0.0120172
0.0129545
-0.0136146
0.0252284
-0.0153659
0.0397696
-0.0177133
0.0563796
-0.0194364
0.0755902
-0.0241434
0.0964418
-0.024852
-0.0341128
0.119971
-0.00111438
-0.00165177
-0.00333213
-0.00354265
-0.00598812
-0.00420396
-0.00868728
-0.00406859
-0.0112077
-0.00360523
-0.0134188
-0.00317603
-0.0152178
-0.00301016
-0.0164886
-0.00323093
-0.017083
-0.00389523
-0.0168187
-0.00502218
-0.0154893
-0.00660719
-0.0128797
-0.00862694
-0.00877583
-0.0110482
-0.00299745
-0.0138054
0.00459759
-0.016839
0.0141345
-0.0201114
0.0256726
-0.0235553
0.0392472
-0.0271892
0.0548621
-0.0309808
0.0722965
-0.0351476
0.091874
-0.0390139
0.112556
-0.044825
0.135418
-0.0477144
-0.0571674
0.158473
-0.00101727
-0.000634502
-0.0030367
-0.00152322
-0.00542182
-0.00181883
-0.0077669
-0.00172352
-0.00981452
-0.0015576
-0.0113775
-0.00161307
-0.0122854
-0.00210228
-0.0123519
-0.00316442
-0.0113639
-0.00488319
-0.0090904
-0.00729569
-0.00530254
-0.0103951
0.000198866
-0.0141283
0.00754556
-0.0183949
0.0168259
-0.0230857
0.0280455
-0.0280585
0.0411425
-0.0332084
0.0559728
-0.0383856
0.0723938
-0.0436102
0.0901535
-0.0487405
0.10888
-0.0538745
0.128772
-0.0589053
0.148205
-0.0642575
0.169145
-0.0686545
-0.0755879
0.187565
-0.000829105
0.000194603
-0.00247603
0.000123702
-0.00436313
6.82697e-05
-0.00607105
-1.5597e-05
-0.00730401
-0.00032465
-0.00780248
-0.0011146
-0.00731884
-0.00258591
-0.00559891
-0.00488436
-0.00238871
-0.00809339
0.00253806
-0.0122225
0.0093442
-0.0172012
0.018101
-0.0228852
0.0287782
-0.0290721
0.0412276
-0.0355351
0.0552159
-0.0420469
0.0704352
-0.0484276
0.0865379
-0.0544883
0.103169
-0.0602417
0.119891
-0.0654618
0.136448
-0.0704315
0.152427
-0.0748845
0.167295
-0.0791257
0.181742
-0.0831016
-0.0869477
0.193102
-0.000566062
-0.00169231
-0.00287901
-0.00371114
-0.00381285
-0.00288904
-0.000625728
0.00325845
0.00898852
0.0166905
0.0263522
0.0378072
0.0507496
0.0647675
0.0793952
0.0941458
0.108603
0.12234
0.135115
0.146719
0.15694
0.16609
0.173911
0.181076
0.0189292
0.118609
-0.125973
0.0236013
0.132738
-0.137411
0.026515
0.143231
-0.146145
0.0291404
0.150574
-0.1532
0.0347996
0.152107
-0.157766
0.0464529
0.14369
-0.155344
0.0643584
0.122268
-0.140174
0.0852531
0.0890901
-0.109985
0.104818
0.0478935
-0.0674581
0.121232
-0.000747152
-0.0156669
0.135106
-0.0562948
0.0424201
0.146312
-0.110913
0.0997081
0.153929
-0.15276
0.145143
0.157713
-0.175656
0.171872
0.15805
-0.18237
0.182033
0.155967
-0.181552
0.183635
0.153264
-0.179009
0.181712
0.150358
-0.176169
0.179075
0.145445
-0.178982
0.183896
0.13743
-0.193433
0.201447
0.128216
-0.209189
0.218403
0.121396
-0.199495
0.206316
0.119519
-0.145044
0.146921
0.123521
-0.0530859
0.049084
0.131319
0.0491928
-0.0569903
0.14014
0.135254
-0.144075
0.14818
0.190067
-0.198107
0.154927
0.212159
-0.218906
0.158841
0.219067
-0.22298
0.158103
0.234678
-0.233941
0.15223
0.261528
-0.255654
0.142521
0.277147
-0.267439
0.132126
0.254271
-0.243875
0.124856
0.177955
-0.170686
0.123127
0.0581592
-0.0564303
0.126647
-0.0708257
0.0673061
0.133676
-0.173043
0.166013
0.139461
-0.230007
0.224222
0.13809
-0.256258
0.257629
0.129359
-0.273502
0.282233
0.118752
-0.27386
0.284468
0.11227
-0.22894
0.235422
0.113446
-0.127459
0.126283
0.120516
-0.00288049
-0.00418855
0.126088
0.117141
-0.122714
0.126187
0.217113
-0.217212
0.122944
0.289596
-0.286353
0.120061
0.309076
-0.306193
0.1192
0.238513
-0.237652
0.120188
0.112467
-0.113455
0.119359
-0.0645346
0.0653636
0.116979
-0.223598
0.225979
0.114338
-0.315552
0.318193
0.11328
-0.322077
0.323134
0.110777
-0.139144
0.141648
0.107697
0.0601104
-0.0570305
0.104137
0.263116
-0.259557
0.101654
0.378034
-0.37555
0.094963
0.105968
-0.0992767
-0.0765196
0.0802083
-0.000189993
0.108179
0.00974359
0.122805
0.0197191
0.133256
0.0312551
0.139038
0.0463198
0.137042
0.0657543
0.124256
0.0881727
0.0998501
0.109925
0.067338
0.127781
0.0300377
0.141458
-0.0144249
0.152075
-0.066912
0.15946
-0.118298
0.1627
-0.156
0.162113
-0.175069
0.158895
-0.179152
0.154048
-0.176705
0.149056
-0.174017
0.144329
-0.171442
0.137657
-0.17231
0.127536
-0.183312
0.116389
-0.198042
0.108839
-0.191946
0.107876
-0.144081
0.113871
-0.0590801
0.124576
0.0384875
0.136314
0.123516
0.147175
0.179206
0.156478
0.202856
0.162825
0.21272
0.164763
0.23274
0.161502
0.264788
0.153579
0.285071
0.143651
0.264199
0.135425
0.186181
0.131191
0.0623923
0.131249
-0.0708836
0.134863
-0.176657
0.138773
-0.233916
0.136588
-0.254073
0.127151
-0.264064
0.116393
-0.263103
0.11093
-0.223477
0.113385
-0.129915
0.120992
-0.0104875
0.126905
0.111228
0.127541
0.216477
0.124946
0.292191
0.122029
0.311993
0.120715
0.239827
0.121403
0.111779
0.11991
-0.0630422
0.116735
-0.220423
0.11316
-0.311977
0.112315
-0.321231
0.110772
-0.137602
0.108493
0.0623897
0.106619
0.26499
0.103465
0.381188
0.095146
0.114287
-0.0724734
-0.00559159
0.0938628
0.00995168
0.107262
0.0266256
0.116582
0.0452538
0.12041
0.0661454
0.116151
0.0889607
0.101441
0.111965
0.0768454
0.132156
0.0471471
0.147534
0.0146598
0.158681
-0.0255712
0.166544
-0.0747756
0.170531
-0.122284
0.169768
-0.155237
0.165226
-0.170527
0.158999
-0.172925
0.152045
-0.169751
0.14519
-0.167162
0.13912
-0.165373
0.131609
-0.164798
0.120156
-0.171859
0.107104
-0.18499
0.0983773
-0.183219
0.0979135
-0.143618
0.105529
-0.0666961
0.118449
0.0255681
0.132661
0.109303
0.146136
0.165731
0.157907
0.191086
0.166854
0.203772
0.171833
0.227762
0.171644
0.264977
0.165938
0.290777
0.15663
0.273508
0.147273
0.195538
0.140383
0.0692824
0.13691
-0.0674105
0.136825
-0.176572
0.13863
-0.235722
0.135938
-0.251382
0.126059
-0.254186
0.114899
-0.251942
0.109985
-0.218562
0.113514
-0.133444
0.121717
-0.0186902
0.128236
0.104708
0.129584
0.21513
0.127538
0.294236
0.124445
0.315086
0.122578
0.241694
0.122997
0.111359
0.121034
-0.0610792
0.117092
-0.216481
0.112523
-0.307408
0.111785
-0.320494
0.111336
-0.137154
0.10988
0.0638464
0.109574
0.265295
0.105972
0.384791
0.0961737
0.124085
-0.0679383
0.0059931
0.0765098
0.0254547
0.0877999
0.0461564
0.0958803
0.0681504
0.0984159
0.090862
0.0934389
0.113439
0.0788639
0.13429
0.0559938
0.151357
0.0300806
0.164157
0.00185966
0.17361
-0.0350237
0.179314
-0.08048
0.179923
-0.122893
0.175361
-0.150676
0.167422
-0.162588
0.158667
-0.16417
0.150183
-0.161267
0.14197
-0.158949
0.134615
-0.158018
0.126738
-0.156921
0.115107
-0.160229
0.100819
-0.170701
0.0904789
-0.172879
0.0895452
-0.142684
0.0978864
-0.0750372
0.11242
0.0110346
0.128753
0.0929702
0.144585
0.149899
0.158667
0.177004
0.17026
0.19218
0.178654
0.219367
0.18208
0.261551
0.179003
0.293854
0.170392
0.282118
0.159839
0.206092
0.150363
0.0787584
0.143563
-0.0606108
0.139676
-0.172685
0.13896
-0.235006
0.135876
-0.248298
0.12594
-0.24425
0.114251
-0.240253
0.109356
-0.213667
0.113679
-0.137767
0.122619
-0.0276296
0.129997
0.0973298
0.132204
0.212923
0.130636
0.295805
0.127254
0.318468
0.124729
0.24422
0.124936
0.111151
0.122689
-0.0588317
0.11806
-0.211852
0.112436
-0.301784
0.111689
-0.319746
0.112368
-0.137833
0.111781
0.0644332
0.112993
0.264083
0.109163
0.388621
0.0980373
0.135211
-0.0628338
0.0335865
0.058665
0.0531425
0.068244
0.0742609
0.0747618
0.0961814
0.0764954
0.117738
0.0718826
0.13773
0.0588711
0.154759
0.0389648
0.167857
0.0169827
0.178183
-0.00846557
0.185953
-0.0427939
0.18944
-0.0839672
0.186709
-0.120162
0.178726
-0.142693
0.168131
-0.151993
0.157537
-0.153576
0.148073
-0.151802
0.139204
-0.15008
0.131041
-0.149855
0.123015
-0.148895
0.111957
-0.149171
0.0972591
-0.156003
0.0851439
-0.160764
0.082788
-0.140328
0.0910056
-0.0832548
0.106503
-0.00446318
0.124443
0.0750303
0.142166
0.132176
0.158201
0.160969
0.172341
0.17804
0.184233
0.207475
0.191643
0.254142
0.19202
0.293476
0.18488
0.289258
0.173039
0.217933
0.160871
0.0909271
0.150916
-0.0506558
0.143312
-0.165081
0.139714
-0.231408
0.136214
-0.244798
0.126619
-0.234655
0.114389
-0.228023
0.108981
-0.208259
0.11375
-0.142536
0.123537
-0.0374165
0.132068
0.0887996
0.135389
0.209602
0.134303
0.296891
0.130488
0.322283
0.12717
0.247537
0.12718
0.111141
0.124828
-0.056479
0.119622
-0.206646
0.112896
-0.295058
0.112003
-0.318854
0.113826
-0.139656
0.114111
0.0641486
0.116819
0.261375
0.112999
0.392441
0.100723
0.147487
-0.0571041
0.067888
0.0423641
0.0854855
0.0506464
0.104463
0.0557844
0.123946
0.057012
0.14254
0.0532892
0.158851
0.0425593
0.171809
0.0260073
0.181637
0.00715443
0.189951
-0.0167799
0.196023
-0.0488656
0.19679
-0.0847338
0.190734
-0.114106
0.179888
-0.131847
0.167435
-0.13954
0.155675
-0.141815
0.145622
-0.141749
0.136509
-0.140966
0.127873
-0.14122
0.119947
-0.140969
0.110176
-0.1394
0.096203
-0.14203
0.0825592
-0.14712
0.0778561
-0.135625
0.0850896
-0.0904884
0.100453
-0.0198267
0.119554
0.055929
0.138646
0.113084
0.156211
0.143403
0.172536
0.161715
0.187802
0.192209
0.199459
0.242485
0.203578
0.289358
0.198502
0.294334
0.18622
0.230215
0.171457
0.10569
0.158645
-0.0378431
0.147577
-0.154014
0.140788
-0.224618
0.136662
-0.240673
0.127804
-0.225797
0.115206
-0.215425
0.108805
-0.201859
0.113596
-0.147326
0.124322
-0.0481434
0.134279
0.0788431
0.138909
0.204972
0.138379
0.29742
0.134113
0.326549
0.129906
0.251745
0.129705
0.111342
0.127397
-0.0541707
0.121742
-0.200991
0.113894
-0.287211
0.112681
-0.31764
0.115649
-0.142624
0.116771
0.0630271
0.120967
0.257178
0.117418
0.395991
0.104199
0.160706
-0.0507198
0.0991201
0.0288467
0.113758
0.0360091
0.129597
0.0399447
0.145819
0.0407899
0.161192
0.0379165
0.1744
0.0293515
0.184624
0.0157833
0.193116
-0.001338
0.200145
-0.0238083
0.203919
-0.0526398
0.20121
-0.0820244
0.191845
-0.104741
0.178804
-0.118806
0.165343
-0.12608
0.153116
-0.129588
0.142796
-0.131429
0.133804
-0.131975
0.125068
-0.132484
0.117045
-0.132946
0.10873
-0.131085
0.0967299
-0.13003
0.0826542
-0.133045
0.0751332
-0.128104
0.0800552
-0.0954104
0.094604
-0.0343755
0.114103
0.0364302
0.134008
0.0931793
0.15258
0.124831
0.170549
0.143747
0.188773
0.173985
0.204603
0.226655
0.213131
0.280829
0.211115
0.29635
0.199372
0.241957
0.182479
0.122583
0.166579
-0.021943
0.152212
-0.139647
0.142123
-0.214529
0.137021
-0.235571
0.12918
-0.217955
0.11657
-0.202815
0.108832
-0.194121
0.113127
-0.151621
0.124768
-0.0597846
0.136449
0.0671621
0.14274
0.198681
0.142974
0.297186
0.138226
0.331297
0.132984
0.256987
0.132504
0.111822
0.130339
-0.0520063
0.124364
-0.195016
0.115404
-0.278251
0.113667
-0.315902
0.117761
-0.146719
0.119686
0.0611026
0.125346
0.251517
0.122342
0.398995
0.108414
0.174634
-0.0436871
0.128923
0.0198956
0.139654
0.0252776
0.15184
0.027759
0.164575
0.0280547
0.17699
0.025501
0.18795
0.0183917
0.19654
0.00719311
0.203798
-0.00859566
0.208662
-0.0286719
0.208598
-0.0525759
0.201755
-0.0751818
0.189662
-0.0926481
0.175528
-0.104672
0.161974
-0.112526
0.149957
-0.117571
0.139633
-0.121104
0.130807
-0.123149
0.122396
-0.124073
0.114348
-0.124898
0.107011
-0.123748
0.0976454
-0.120664
0.0848387
-0.120238
0.0749999
-0.118265
0.0764525
-0.096863
0.0891542
-0.0470772
0.108198
0.0173863
0.128211
0.0731667
0.147213
0.105828
0.166315
0.124645
0.186899
0.153401
0.206443
0.207111
0.219125
0.268147
0.220125
0.29535
0.209407
0.252675
0.191703
0.140287
0.17371
-0.00394965
0.156762
-0.122699
0.143575
-0.201342
0.137121
-0.229117
0.130423
-0.211256
0.118289
-0.190682
0.109081
-0.184913
0.112292
-0.154832
0.124701
-0.0721937
0.138315
0.0535488
0.146504
0.190492
0.1478
0.295891
0.142806
0.336291
0.136466
0.263326
0.135578
0.11271
0.133601
-0.0500295
0.127421
-0.188836
0.117384
-0.268214
0.114901
-0.313418
0.120086
-0.151904
0.12277
0.0584185
0.12984
0.244447
0.127661
0.401174
0.113294
0.189001
-0.0360543
0.162742
0.015626
0.169313
0.0187072
0.177318
0.0197535
0.185939
0.0194341
0.19469
0.0167503
0.202495
0.0105867
0.20838
0.00130778
0.212408
-0.0126241
0.212998
-0.0292615
0.208133
-0.047711
0.197865
-0.0649142
0.184506
-0.0792884
0.170533
-0.0906994
0.157551
-0.0995446
0.146118
-0.106138
0.136098
-0.111084
0.127446
-0.114497
0.119518
-0.116144
0.111721
-0.117101
0.10482
-0.116848
0.0977613
-0.113605
0.0876748
-0.110151
0.0772079
-0.107798
0.0749311
-0.0945862
0.0845337
-0.0566798
0.102209
-0.000288697
0.121707
0.0536683
0.140555
0.08698
0.159874
0.105326
0.181869
0.131407
0.204931
0.184049
0.222456
0.250622
0.227753
0.290054
0.218882
0.261545
0.20032
0.15885
0.179807
0.0165635
0.160947
-0.103839
0.145044
-0.185438
0.136877
-0.22095
0.131261
-0.20564
0.120118
-0.179539
0.109559
-0.174354
0.111087
-0.15636
0.1239
-0.085007
0.139685
0.0377645
0.150215
0.179961
0.152974
0.293132
0.147903
0.341361
0.140364
0.270866
0.138903
0.114171
0.137111
-0.0482379
0.130823
-0.182547
0.119768
-0.257159
0.116328
-0.309979
0.12255
-0.158125
0.125958
0.0550104
0.134358
0.236047
0.133266
0.402267
0.11875
0.203517
-0.0279117
0.189542
0.0136487
0.193362
0.014888
0.197902
0.0152134
0.202781
0.0145552
0.207636
0.0118953
0.211469
0.00675316
0.213926
-0.00114944
0.213439
-0.012137
0.209441
-0.0252629
0.201202
-0.039472
0.189768
-0.0534805
0.176951
-0.0664715
0.164163
-0.0779112
0.152224
-0.0876056
0.141532
-0.0954462
0.131998
-0.10155
0.123575
-0.106074
0.116115
-0.108684
0.10892
-0.109905
0.10226
-0.110188
0.0965319
-0.107877
0.0894898
-0.103109
0.0804883
-0.0987965
0.0756838
-0.0897818
0.0815222
-0.0625181
0.0962976
-0.0150641
0.114586
0.0353798
0.132662
0.0689037
0.151642
0.0863471
0.174238
0.10881
0.199213
0.159074
0.220261
0.229574
0.229808
0.280507
0.223826
0.267527
0.205696
0.17698
0.184614
0.0376457
0.164525
-0.0837497
0.146347
-0.167261
0.136149
-0.210752
0.131423
-0.200914
0.121777
-0.169893
0.110207
-0.162785
0.109578
-0.15573
0.122226
-0.0976549
0.140099
0.0198914
0.153197
0.166863
0.158
0.288329
0.153533
0.345828
0.144797
0.279603
0.142506
0.116462
0.140824
-0.0465562
0.134471
-0.176193
0.12247
-0.245159
0.117904
-0.305413
0.125073
-0.165294
0.12917
0.0509129
0.138761
0.226456
0.138998
0.40203
0.124669
0.217846
-0.0193961
0.194866
0.0118849
0.197554
0.0121999
0.200357
0.0124097
0.20326
0.0116528
0.205791
0.00936417
0.207118
0.00542588
0.206594
-0.000625729
0.203749
-0.00929151
0.19795
-0.0194644
0.189469
-0.030991
0.179188
-0.043199
0.168039
-0.055323
0.156789
-0.0666608
0.146006
-0.076823
0.13607
-0.0855096
0.127083
-0.0925634
0.118999
-0.0979905
0.111873
-0.101558
0.105382
-0.103414
0.0992253
-0.104032
0.0940555
-0.102707
0.0892246
-0.0982783
0.0828671
-0.092439
0.0776378
-0.0845525
0.0801645
-0.0650448
0.091845
-0.0267447
0.108135
0.0190894
0.124673
0.0523662
0.142242
0.0687779
0.164352
0.0866999
0.191449
0.131977
0.21698
0.204043
0.230951
0.266535
0.227819
0.270658
0.210341
0.194458
0.187542
0.0604448
0.166705
-0.0629127
0.147197
-0.147753
0.134928
-0.198483
0.130744
-0.19673
0.123058
-0.162207
0.111015
-0.150742
0.107831
-0.152546
0.119553
-0.109376
0.139597
-0.000153596
0.155775
0.150685
0.162928
0.281175
0.159339
0.349417
0.149457
0.289485
0.146237
0.119681
0.144637
-0.0449557
0.138277
-0.169833
0.125468
-0.23235
0.119611
-0.299556
0.127591
-0.173274
0.132375
0.0461291
0.143005
0.215826
0.144763
0.400272
0.130943
0.231665
-0.0106731
0.183213
0.00974835
0.185275
0.0101376
0.187474
0.0102111
0.189579
0.00954766
0.191185
0.00775827
0.191969
0.00464115
0.191453
-0.000109361
0.188699
-0.00653734
0.183925
-0.0146907
0.177215
-0.0242811
0.168931
-0.0349148
0.159579
-0.045971
0.149767
-0.0568486
0.140082
-0.0671378
0.130899
-0.0763273
0.122435
-0.0840993
0.114785
-0.0903407
0.107952
-0.0947252
0.101936
-0.0973985
0.0964284
-0.0985237
0.0915753
-0.0978539
0.0877389
-0.0944419
0.0837158
-0.0884159
0.0797307
-0.0805674
0.0803046
-0.0656187
0.0884306
-0.0348706
0.101894
0.0056261
0.1165
0.0377596
0.131989
0.0532899
0.151817
0.0668713
0.177687
0.106108
0.205155
0.176575
0.22494
0.24675
0.227878
0.26772
0.212693
0.209643
0.190363
0.0827752
0.16912
-0.0416693
0.148555
-0.127188
0.134064
-0.183992
0.129703
-0.192368
0.124103
-0.156607
0.112142
-0.13878
0.106419
-0.146824
0.116297
-0.119254
0.137217
-0.0210733
0.156527
0.131375
0.167148
0.270555
0.165671
0.350894
0.154908
0.300248
0.150491
0.124098
0.14872
-0.0431842
0.142277
-0.16339
0.128786
-0.218859
0.121576
-0.292346
0.130072
-0.18177
0.135476
0.0407255
0.146926
0.204375
0.150379
0.396819
0.137433
0.244612
-0.0019649
0.194839
0.00870137
-0.193792
0.196435
0.0085413
0.198495
0.00815185
0.200934
0.00710799
0.20348
0.00521245
0.205859
0.00226192
0.207891
-0.00214107
0.209276
-0.00792268
0.209704
-0.0151182
0.208931
-0.023508
0.206839
-0.0328232
0.20348
-0.0426116
0.198994
-0.0523628
0.19358
-0.0617242
0.187385
-0.0701319
0.180527
-0.0772415
0.173262
-0.0830761
0.16565
-0.0871123
0.157919
-0.089668
0.150186
-0.0907909
0.142118
-0.0897853
0.134081
-0.0864048
0.126123
-0.0804581
0.116958
-0.0714031
0.107746
-0.0564067
0.102624
-0.0297485
0.103757
0.00449335
0.110557
0.0309596
0.121256
0.0425906
0.133888
0.0542395
0.147076
0.0929199
0.160782
0.162869
0.174073
0.233459
0.18447
0.257323
0.190147
0.203967
0.191777
0.0811443
0.189574
-0.0394661
0.18023
-0.117844
0.167646
-0.171408
0.158637
-0.18336
0.148861
-0.146831
0.134002
-0.123921
0.122895
-0.135717
0.122523
-0.118883
0.131336
-0.0298856
0.13932
0.123391
0.143809
0.266065
0.144577
0.350126
0.143343
0.301482
0.148384
0.119058
0.152944
-0.0477439
0.149199
-0.159646
0.135868
-0.205528
0.125037
-0.281514
0.126778
-0.183512
0.127029
0.040475
0.134942
0.196462
0.139763
0.391998
0.130437
0.253938
0.00626772
0.205705
0.00797423
-0.204978
0.206856
0.00739098
0.208449
0.00655821
0.210325
0.00523221
0.212336
0.00320171
0.214352
0.000245186
0.215978
-0.00376672
0.217006
-0.0089508
0.217171
-0.0152829
0.216273
-0.02261
0.214179
-0.030729
0.210882
-0.0393147
0.206433
-0.0479136
0.200938
-0.0562297
0.194614
-0.0638079
0.187629
-0.0702566
0.180314
-0.0757606
0.17285
-0.0796485
0.165235
-0.0820532
0.157717
-0.0832729
0.150098
-0.0821661
0.142223
-0.0785299
0.134765
-0.0729998
0.127474
-0.0641124
0.120174
-0.0491062
0.114897
-0.0244718
0.114916
0.00447462
0.120468
0.0254074
0.129908
0.0331501
0.141652
0.0424955
0.154853
0.0797199
0.169753
0.147969
0.184997
0.218215
0.197327
0.244993
0.203859
0.197435
0.205984
0.0790196
0.203396
-0.0368781
0.193271
-0.107719
0.179142
-0.157279
0.169016
-0.173234
0.159647
-0.137462
0.145098
-0.109372
0.132792
-0.12341
0.131159
-0.11725
0.140751
-0.0394782
0.151065
0.113077
0.157831
0.259299
0.160465
0.347491
0.15936
0.302588
0.163893
0.114525
0.168135
-0.0519867
0.163445
-0.154955
0.148192
-0.190276
0.135649
-0.268972
0.137794
-0.185657
0.138192
0.0400774
0.146512
0.188142
0.152873
0.385637
0.144077
0.262734
0.0148667
0.216564
0.00741946
-0.216009
0.217492
0.00646328
0.218759
0.00529057
0.220278
0.00371345
0.221894
0.00158557
0.223391
-0.00125179
0.224574
-0.00494934
0.22522
-0.00959672
0.225131
-0.0151943
0.224141
-0.0216199
0.222121