/*--------------------------------*- C++ -*----------------------------------*\
| =========                 |                                                 |
| \\      /  F ield         | OpenFOAM: The Open Source CFD Toolbox           |
|  \\    /   O peration     | Version:  2512                                  |
|   \\  /    A nd           | Website:  www.openfoam.com                      |
|    \\/     M anipulation  |                                                 |
\*---------------------------------------------------------------------------*/
FoamFile
{
    version     2.0;
    format      ascii;
    arch        "LSB;label=32;scalar=64";
    class       volVectorField;
    location    "11.5";
    object      U;
}
// * * * * * * * * * * * * * * * * * * * * * * * * * * * * * * * * * * * * * //

dimensions      [0 1 -1 0 0 0 0];

internalField   nonuniform List<vector> 
9200
(
(-0.0232367 0.0141952 5.61487e-20)
(-0.050438 0.0278332 -1.02157e-19)
(-0.056938 0.0335628 4.62749e-20)
(-0.0350374 0.037731 8.1602e-20)
(0.0217919 0.0415146 -7.43491e-20)
(0.117918 0.0450027 0)
(0.253617 0.0490239 0)
(0.422374 0.054638 1.08487e-19)
(0.611176 0.0618039 1.97119e-21)
(0.803822 0.0692828 -9.25508e-20)
(0.984094 0.075024 -4.37518e-20)
(1.13855 0.0769909 8.5028e-20)
(1.25737 0.0731755 1.69784e-21)
(1.33659 0.0633044 -7.31125e-20)
(1.37726 0.0471865 0)
(1.38556 0.025885 1.52627e-19)
(1.37521 0.00654382 -2.24127e-19)
(1.35511 -0.0260961 5.06449e-20)
(1.33774 -0.029448 4.90205e-20)
(1.32718 -0.0896912 3.66132e-20)
(-0.0309485 0.0192595 1.50944e-21)
(-0.0527138 0.031374 5.22696e-20)
(-0.0381341 0.0313158 9.41281e-20)
(0.0188993 0.0287687 0)
(0.124352 0.0279037 0)
(0.278164 0.0311109 0)
(0.469212 0.0395707 0)
(0.67708 0.0523967 -8.22721e-20)
(0.878604 0.0669716 1.00575e-19)
(1.05408 0.079834 4.72756e-20)
(1.19073 0.0878772 -4.19596e-20)
(1.28345 0.0889482 3.89375e-20)
(1.33495 0.0828183 -3.56162e-20)
(1.35394 0.0703373 -3.46883e-20)
(1.35237 0.0536572 2.12771e-19)
(1.34381 0.0358719 -1.41259e-19)
(1.33432 0.0155519 -2.36584e-20)
(1.32836 -0.00101799 -2.48858e-21)
(1.32046 -0.0198284 -3.81812e-20)
(1.30917 -0.0402092 -3.65253e-20)
(-0.034644 0.020564 -5.74354e-20)
(-0.0428391 0.0305612 -5.4482e-20)
(0.00460638 0.0284528 4.80828e-20)
(0.111412 0.0249133 -8.7017e-20)
(0.277847 0.026508 0)
(0.489161 0.0361399 0)
(0.715844 0.0525988 0)
(0.926038 0.0717682 -2.76951e-20)
(1.09655 0.0887698 0)
(1.21694 0.0998012 4.61722e-20)
(1.2886 0.103033 -4.10925e-20)
(1.3217 0.0988834 -1.51456e-19)
(1.33053 0.0892108 1.38231e-19)
(1.32842 0.0761251 2.92733e-20)
(1.32448 0.0622958 -5.90326e-20)
(1.32011 0.0461288 -1.23081e-19)
(1.31469 0.0335333 2.66733e-20)
(1.30494 0.0144099 2.00652e-19)
(1.29064 0.00685673 -1.04817e-19)
(1.27609 -0.015005 0)
(-0.0332419 0.0179371 6.05822e-20)
(-0.0179178 0.0233361 1.10935e-19)
(0.0746931 0.0213317 9.98538e-20)
(0.243134 0.0226967 -1.32999e-19)
(0.471246 0.0341641 1.53023e-21)
(0.719474 0.0549851 1.42119e-19)
(0.943869 0.0791234 -6.41504e-20)
(1.116 0.0999435 2.83375e-20)
(1.22803 0.113176 0)
(1.28814 0.117712 -2.23314e-20)
(1.31279 0.114974 1.20977e-19)
(1.31876 0.107462 -1.431e-19)
(1.31757 0.0972322 -6.32635e-20)
(1.31426 0.0859683 5.87189e-20)
(1.3086 0.0730765 -7.77852e-20)
(1.30047 0.0610323 7.07741e-20)
(1.28975 0.0465616 0)
(1.27872 0.0342475 0)
(1.26848 0.0229442 1.81789e-20)
(1.26036 0.00461014 0)
(-0.0260105 0.012867 6.28734e-20)
(0.0255916 0.0125327 -8.69509e-20)
(0.176831 0.0143876 -1.02519e-19)
(0.411852 0.028 0)
(0.683349 0.0546095 -4.17172e-20)
(0.930471 0.0856945 -3.48982e-20)
(1.11474 0.111869 9.64111e-20)
(1.22883 0.128153 -8.61601e-20)
(1.28642 0.134298 4.91879e-20)
(1.30852 0.132847 -2.26943e-20)
(1.31296 0.126842 0)
(1.31005 0.118343 5.22458e-20)
(1.30388 0.108539 3.14915e-20)
(1.29555 0.0974278 5.3197e-20)
(1.28643 0.0862082 -4.88506e-20)
(1.27737 0.0737193 -4.1467e-20)
(1.26912 0.0623348 3.81192e-20)
(1.26084 0.0501703 -1.56897e-20)
(1.25104 0.0395653 1.50852e-20)
(1.24006 0.0265954 4.9099e-20)
(-0.0117124 0.00700982 1.32938e-19)
(0.091315 0.00284615 -5.33868e-22)
(0.311927 0.0153185 0)
(0.602525 0.0473974 7.17364e-20)
(0.881876 0.0877912 -2.28584e-20)
(1.09195 0.122229 -3.6825e-20)
(1.22024 0.143859 1.37092e-21)
(1.28362 0.152965 2.98695e-20)
(1.30701 0.153196 2.44464e-20)
(1.31032 0.148294 -2.12198e-20)
(1.30501 0.140644 -3.684e-20)
(1.2965 0.131496 -4.76684e-20)
(1.28723 0.121278 7.32607e-20)
(1.2785 0.110702 6.1958e-20)
(1.27021 0.0994339 -6.77017e-20)
(1.26185 0.0885881 4.00353e-20)
(1.25255 0.077146 0)
(1.24237 0.0663535 7.84827e-22)
(1.23206 0.0557724 -3.67116e-20)
(1.22308 0.0436422 4.701e-20)
(0.0114503 0.0016166 -3.65882e-20)
(0.181106 -0.000882186 1.80444e-21)
(0.471621 0.0304849 -2.90965e-20)
(0.789097 0.0815068 -7.35549e-20)
(1.04136 0.128412 6.62297e-20)
(1.19877 0.15916 3.68658e-20)
(1.27723 0.173567 -6.62544e-20)
(1.30604 0.176377 -2.64129e-20)
(1.30956 0.172487 4.94268e-20)
(1.30258 0.165149 6.19457e-20)
(1.29247 0.156118 -9.02599e-20)
(1.28217 0.146179 3.23266e-20)
(1.27237 0.135834 -4.06842e-20)
(1.26267 0.125027 1.21407e-20)
(1.25288 0.114241 -2.14999e-20)
(1.24309 0.103064 3.51852e-20)
(1.23377 0.0922153 -1.69557e-21)
(1.22497 0.0815489 -4.25368e-20)
(1.21616 0.0706769 1.25188e-20)
(1.20688 0.0612424 0)
(0.0447653 -0.00161112 3.66147e-20)
(0.292474 0.0064792 -8.37239e-20)
(0.637949 0.0621125 5.94607e-20)
(0.948964 0.126227 1.21271e-20)
(1.15544 0.171916 -6.66487e-20)
(1.26247 0.195383 3.96866e-20)
(1.3035 0.202467 0)
(1.31011 0.199998 0)
(1.30256 0.192807 -2.3936e-20)
(1.29087 0.183523 0)
(1.27879 0.173297 5.13007e-20)
(1.26716 0.162606 -5.96773e-20)
(1.25608 0.151542 5.14221e-20)
(1.24572 0.140386 -2.28695e-20)
(1.23613 0.129073 0)
(1.22712 0.11804 0)
(1.21814 0.107116 0)
(1.20886 0.0964296 -2.42139e-20)
(1.19949 0.0859569 2.73913e-20)
(1.19062 0.0769709 0)
(0.0881246 -0.000728828 1.97577e-20)
(0.417213 0.0286576 -8.13388e-22)
(0.791568 0.108079 0)
(1.07257 0.177338 -5.97164e-21)
(1.22972 0.21668 1.23199e-20)
(1.29521 0.231504 1.84335e-20)
(1.3102 0.231688 -1.68301e-20)
(1.30363 0.224738 -6.38486e-21)
(1.29034 0.214804 6.34437e-21)
(1.27608 0.203669 0)
(1.26259 0.192016 1.58274e-20)
(1.25022 0.180116 -1.78595e-20)
(1.23896 0.168189 -1.15407e-20)
(1.22849 0.156279 1.30232e-20)
(1.21853 0.144599 4.33766e-21)
(1.20892 0.133049 -7.80636e-21)
(1.19978 0.121802 0)
(1.1912 0.110881 0)
(1.18298 0.100283 -1.44816e-20)
(1.17464 0.0917307 8.61644e-21)
(0.140019 0.00637798 0)
(0.54311 0.0670027 0)
(0.920047 0.164907 0)
(1.15979 0.232355 -2.27171e-22)
(1.27185 0.262339 -3.25291e-23)
(1.30587 0.268149 4.68754e-22)
(1.30393 0.262004 4.12902e-21)
(1.28978 0.251004 -6.64301e-21)
(1.27339 0.238309 1.07704e-20)
(1.25789 0.225073 -4.75992e-21)
(1.24389 0.211727 0)
(1.23121 0.198468 3.35826e-21)
(1.21962 0.185345 0)
(1.20902 0.172481 -2.43632e-21)
(1.19937 0.1599 4.16655e-21)
(1.19049 0.14775 0)
(1.18205 0.136011 0)
(1.17378 0.124677 0)
(1.16571 0.113996 0)
(1.15809 0.104994 -1.76685e-21)
(-0.0137957 0.0868231 -3.3174e-21)
(-0.0546976 0.188022 0)
(-0.115676 0.247118 0)
(-0.175859 0.288808 -1.11917e-20)
(-0.230397 0.325268 2.11915e-20)
(-0.279016 0.358503 3.27396e-22)
(-0.320898 0.386936 -4.82215e-21)
(-0.355243 0.408797 -9.88827e-21)
(-0.381364 0.422708 -2.57998e-22)
(-0.398732 0.427704 9.16509e-21)
(-0.407032 0.423218 0)
(-0.406182 0.409049 9.30101e-21)
(-0.396333 0.385325 0)
(-0.377853 0.352494 -8.77941e-21)
(-0.351279 0.311289 1.68566e-20)
(-0.31733 0.262687 0)
(-0.276868 0.20774 0)
(-0.230879 0.147389 0)
(-0.180756 0.0835569 0)
(-0.12482 0.0156073 1.13883e-20)
(-0.0165548 0.110743 -1.38169e-20)
(-0.0513389 0.239587 2.581e-20)
(-0.0981608 0.310061 0)
(-0.144374 0.352571 3.97041e-20)
(-0.185035 0.384692 -3.14572e-20)
(-0.218805 0.411398 -2.13882e-20)
(-0.244615 0.431985 -1.4494e-21)
(-0.261703 0.444878 4.97221e-20)
(-0.269588 0.44888 -2.86522e-20)
(-0.268065 0.443272 0)
(-0.257183 0.427767 0)
(-0.237229 0.402404 -9.28104e-21)
(-0.208717 0.367615 3.79093e-20)
(-0.172269 0.324099 -2.60258e-20)
(-0.128639 0.272731 -5.18446e-20)
(-0.078861 0.214576 3.21751e-20)
(-0.0246565 0.151498 0)
(0.0362976 0.0837025 0)
(0.0919387 0.0151393 2.61224e-20)
(0.16715 -0.0558887 -4.86924e-20)
(-0.0196124 0.116047 2.88937e-20)
(-0.0482297 0.263844 -1.30991e-20)
(-0.0778248 0.349142 2.84265e-22)
(-0.106202 0.396662 -3.44563e-20)
(-0.129773 0.426607 6.55424e-20)
(-0.14614 0.447815 -4.05047e-20)
(-0.153897 0.461501 0)
(-0.152343 0.466685 0)
(-0.141214 0.462465 -3.90968e-20)
(-0.120568 0.448408 0)
(-0.0908412 0.424491 -4.18475e-20)
(-0.0526171 0.39102 1.51833e-19)
(-0.00649151 0.348642 -1.48517e-19)
(0.0465592 0.298071 7.02167e-20)
(0.105136 0.240578 0)
(0.170696 0.176913 0)
(0.232427 0.109207 0)
(0.311123 0.0394017 1.16908e-19)
(0.362119 -0.0306223 -8.0813e-20)
(0.456273 -0.100594 0)
(-0.0210152 0.10381 -2.88716e-20)
(-0.0447158 0.257354 -2.75088e-22)
(-0.0577051 0.358476 -2.44014e-20)
(-0.0673937 0.416276 2.37503e-20)
(-0.072544 0.448249 -2.09813e-20)
(-0.0707335 0.466253 0)
(-0.0602384 0.474637 -3.93334e-20)
(-0.0402286 0.473935 3.83762e-20)
(-0.0105574 0.463777 1.35986e-21)
(0.02848 0.443966 -4.20788e-20)
(0.0762507 0.414639 1.12448e-19)
(0.131882 0.376276 -7.1499e-20)
(0.194135 0.329686 3.94076e-20)
(0.263155 0.275946 -1.02547e-19)
(0.332134 0.214819 -6.57153e-20)
(0.413258 0.150179 -1.30925e-19)
(0.474772 0.081086 -2.40333e-21)
(0.569578 0.0135291 5.77911e-20)
(0.610688 -0.0562079 5.08169e-20)
(0.719041 -0.123502 0)
(-0.019509 0.0798409 -1.17752e-19)
(-0.0402745 0.222539 1.07908e-19)
(-0.0410548 0.33409 0)
(-0.0341968 0.405615 -2.30093e-20)
(-0.0214737 0.445545 6.17202e-20)
(-0.00173757 0.464887 -3.90699e-20)
(0.0263828 0.470603 1.56154e-19)
(0.0637276 0.46572 -1.88504e-19)
(0.11043 0.451261 1.08546e-19)
(0.166023 0.427623 -3.70999e-20)
(0.229532 0.395079 7.34198e-20)
(0.299911 0.354535 4.32565e-20)
(0.374523 0.305625 -9.67093e-20)
(0.454886 0.251708 -1.01076e-19)
(0.528842 0.189491 3.19169e-19)
(0.617899 0.129711 -1.18874e-19)
(0.677369 0.0619736 0)
(0.780035 0.000353421 2.12818e-19)
(0.813597 -0.0693881 4.64263e-20)
(0.938573 -0.13436 -1.79396e-19)
(-0.0153609 0.0523674 -5.82873e-20)
(-0.0344878 0.169507 -2.59564e-20)
(-0.0300902 0.278882 -4.77674e-20)
(-0.0129129 0.359849 0)
(0.0136644 0.410268 -4.14084e-20)
(0.0489431 0.436119 1.16675e-19)
(0.0929442 0.443928 -1.82325e-19)
(0.145705 0.438249 3.45737e-20)
(0.206879 0.421721 -6.96702e-20)
(0.275517 0.395948 9.49125e-20)
(0.350141 0.361564 0)
(0.429073 0.320366 9.28605e-20)
(0.509708 0.271017 5.83047e-20)
(0.592091 0.220832 -1.22701e-19)
(0.671508 0.161888 1.12659e-19)
(0.759021 0.109538 1.11938e-19)
(0.827624 0.0417841 -1.02888e-19)
(0.936998 -0.0125834 -5.10144e-20)
(0.985424 -0.0862709 4.26305e-20)
(1.13485 -0.146677 -1.5901e-19)
(-0.0102913 0.0288058 -5.79169e-20)
(-0.0284435 0.113551 1.05341e-19)
(-0.0257063 0.206214 6.31695e-22)
(-0.00683156 0.284209 1.28306e-19)
(0.0255644 0.338781 2.44606e-22)
(0.0696844 0.370155 -1.43421e-19)
(0.123996 0.382013 -1.91421e-21)
(0.187109 0.37841 9.51737e-20)
(0.257517 0.362602 0)
(0.333578 0.337214 -3.11639e-20)
(0.413398 0.303662 -6.41363e-20)
(0.495718 0.264844 2.18002e-19)
(0.582012 0.220974 -1.0357e-19)
(0.670627 0.175975 -1.03899e-19)
(0.766445 0.122455 5.66354e-20)
(0.866352 0.0742821 -5.01522e-20)
(0.973673 0.00874678 0)
(1.09475 -0.0369988 0)
(1.18417 -0.112216 1.92319e-19)
(1.32667 -0.156139 -1.4622e-19)
(-0.00692548 0.0133173 -5.6344e-20)
(-0.0254931 0.0678895 -5.23358e-20)
(-0.0289458 0.134806 -1.38733e-19)
(-0.015475 0.196649 8.4131e-20)
(0.0143365 0.243647 0)
(0.0587125 0.272644 6.76338e-20)
(0.115289 0.284606 -6.17395e-20)
(0.181905 0.282317 -2.7917e-20)
(0.256923 0.268966 0)
(0.339776 0.247391 5.07394e-20)
(0.431288 0.220337 -5.43494e-20)
(0.532767 0.188601 2.53243e-21)
(0.644783 0.15378 4.09135e-21)
(0.76842 0.114004 -1.45466e-19)
(0.902174 0.0723643 -9.48144e-20)
(1.03707 0.0293348 3.08987e-19)
(1.17496 -0.0207785 4.21461e-20)
(1.28908 -0.0578468 -2.37528e-19)
(1.3865 -0.120453 6.67868e-20)
(1.45315 -0.14331 0)
(-0.00791584 0.00697827 6.35136e-22)
(-0.0295133 0.0391432 -5.15183e-20)
(-0.0405611 0.0793099 9.229e-20)
(-0.0347574 0.118266 0)
(-0.0106005 0.14924 0)
(0.0316149 0.168751 0)
(0.0910131 0.17685 0)
(0.167702 0.17541 1.37846e-19)
(0.262541 0.16688 -1.00481e-19)
(0.376243 0.153273 -5.08048e-20)
(0.508228 0.136448 4.65885e-20)
(0.65612 0.115837 4.85351e-20)
(0.813381 0.094076 -4.75411e-20)
(0.973487 0.0669099 1.36359e-19)
(1.12384 0.0419941 -2.09384e-19)
(1.25799 0.0077024 1.19781e-19)
(1.36204 -0.021738 1.08059e-19)
(1.42913 -0.0568655 -4.05458e-19)
(1.46435 -0.0976918 1.79831e-19)
(1.44449 -0.113095 -5.00191e-20)
(-0.0141838 0.00849617 3.58849e-22)
(-0.0401357 0.027474 1.52728e-19)
(-0.0545895 0.046131 -1.38367e-19)
(-0.0494526 0.0640598 -8.07141e-20)
(-0.0205147 0.0788086 7.35428e-20)
(0.0352491 0.0885378 0)
(0.120259 0.0932029 0)
(0.235236 0.0939405 -1.07681e-19)
(0.378129 0.0923733 -3.07753e-21)
(0.542901 0.0894408 9.28983e-20)
(0.719895 0.085181 -4.66522e-20)
(0.897415 0.0788093 -9.02219e-20)
(1.0634 0.0697788 -3.62454e-21)
(1.20593 0.0557313 7.9235e-20)
(1.31671 0.0397185 0)
(1.38933 0.0131631 -1.02797e-19)
(1.42203 -0.00620346 2.56446e-19)
(1.42426 -0.0440996 6.02849e-20)
(1.39807 -0.0625695 -1.62021e-19)
(1.36787 -0.0893796 5.01707e-20)
(-0.070092 -0.0592538 -7.77449e-21)
(-0.00521607 -0.155728 2.33571e-22)
(0.0598753 -0.253615 -2.07384e-22)
(0.127952 -0.354764 1.76837e-22)
(0.198107 -0.454665 0)
(0.272448 -0.536045 -2.58933e-21)
(0.346644 -0.579593 2.49909e-21)
(0.412186 -0.571507 -5.83492e-22)
(0.467705 -0.518851 5.96493e-22)
(0.515294 -0.440744 6.5903e-24)
(0.555595 -0.355097 0)
(0.590325 -0.274369 -5.91031e-22)
(0.621716 -0.205252 1.16472e-21)
(0.652247 -0.149681 -1.16713e-21)
(0.683854 -0.106537 1.04928e-21)
(0.716783 -0.0738421 -4.90844e-22)
(0.74955 -0.0502494 0)
(0.780161 -0.0352963 3.56918e-22)
(0.807538 -0.0285957 -3.23757e-22)
(0.831903 -0.0282592 -2.41587e-22)
(0.85413 -0.0299893 2.33284e-22)
(0.874818 -0.0284439 -1.48588e-22)
(0.893841 -0.0200139 1.46242e-22)
(0.910684 -0.00447551 0)
(0.92508 0.0152888 0)
(0.937219 0.0352593 0)
(0.947429 0.0526427 0)
(0.955967 0.0660717 -2.85922e-23)
(0.96305 0.0755045 1.48379e-23)
(0.968857 0.0816475 0)
(0.973586 0.0853896 8.66214e-24)
(0.977418 0.0875354 0)
(0.980559 0.0886115 5.05658e-24)
(0.98314 0.0891094 -1.55167e-23)
(0.985336 0.089058 -7.63191e-24)
(0.987174 0.0890776 1.08109e-23)
(0.988816 0.0883998 5.41237e-24)
(0.9902 0.0887606 -3.37335e-25)
(0.991485 0.0873029 2.21586e-24)
(0.992582 0.0889939 1.12799e-26)
(0.99359 0.0861612 -1.81271e-25)
(0.994503 0.0901788 -4.02451e-24)
(0.995305 0.0857972 0)
(0.996028 0.0919683 0)
(0.996755 0.0875457 0)
(0.99726 0.0942643 1.64726e-24)
(0.997889 0.0914561 -6.33373e-26)
(0.998407 0.0987826 1.31505e-24)
(0.998702 0.0969847 9.27872e-25)
(0.999363 0.105765 1.95014e-26)
(0.218625 -0.131511 3.25747e-20)
(0.277883 -0.229045 -3.19526e-20)
(0.336938 -0.326804 2.66606e-20)
(0.396254 -0.42646 -3.2382e-21)
(0.457252 -0.526125 -3.77263e-20)
(0.517532 -0.608112 1.59959e-20)
(0.568543 -0.64564 0)
(0.602676 -0.626249 -3.46579e-23)
(0.622246 -0.561057 0)
(0.635378 -0.473639 -2.09003e-23)
(0.648434 -0.383148 1.44414e-21)
(0.66511 -0.299745 -1.3508e-21)
(0.685875 -0.228218 0)
(0.709313 -0.170885 8.91681e-23)
(0.73451 -0.126985 5.44745e-23)
(0.761088 -0.0934955 0)
(0.787891 -0.0680795 -1.42504e-21)
(0.812706 -0.0504596 2.67541e-21)
(0.833898 -0.0412461 -1.23285e-21)
(0.851872 -0.0393063 0)
(0.86851 -0.0403175 0)
(0.885325 -0.0383368 -2.27754e-23)
(0.902255 -0.0291956 6.35971e-22)
(0.918073 -0.0125903 -7.56444e-23)
(0.931621 0.00857182 -4.6657e-22)
(0.942738 0.0298918 0)
(0.951828 0.0484237 -1.41081e-22)
(0.959237 0.0627852 1.20512e-22)
(0.965308 0.0729624 1.28248e-23)
(0.970302 0.0796886 -2.1291e-23)
(0.974432 0.0838783 8.82288e-24)
(0.977857 0.0863606 1.44357e-23)
(0.980736 0.0876851 6.22009e-23)
(0.983159 0.0883667 -2.80004e-23)
(0.985264 0.0884486 0)
(0.987062 0.0885737 -3.62562e-23)
(0.988691 0.087967 9.00874e-24)
(0.990088 0.0884004 1.62225e-23)
(0.991401 0.0869757 4.23902e-24)
(0.992534 0.088729 -3.62394e-24)
(0.993604 0.0859069 0)
(0.994561 0.0899749 7.62905e-24)
(0.995445 0.0856065 -4.83329e-24)
(0.996242 0.0917976 3.62378e-24)
(0.997028 0.0874075 -2.37833e-25)
(0.997669 0.0941272 -1.34519e-24)
(0.998322 0.0913402 -2.11915e-24)
(0.999014 0.098684 1.55528e-24)
(0.999332 0.0968893 -1.02912e-24)
(1.00019 0.105688 7.83139e-26)
(0.491247 -0.178096 0)
(0.537555 -0.275877 -6.12524e-20)
(0.590092 -0.372109 5.91097e-20)
(0.643536 -0.471541 -4.53808e-20)
(0.697249 -0.572246 4.3796e-20)
(0.743009 -0.651016 2.28575e-22)
(0.767628 -0.67925 0)
(0.767228 -0.64773 -9.41802e-21)
(0.750955 -0.574314 8.89325e-21)
(0.732615 -0.484302 5.81946e-23)
(0.720114 -0.395995 0)
(0.717216 -0.317059 -6.63767e-23)
(0.724591 -0.24865 -3.15605e-21)
(0.739468 -0.191852 2.95414e-21)
(0.758954 -0.14773 -3.17858e-21)
(0.781703 -0.113874 6.01925e-21)
(0.806372 -0.0867805 -5.6684e-21)
(0.830167 -0.0658322 2.70211e-21)
(0.850141 -0.0528974 0)
(0.865841 -0.0484979 -5.784e-23)
(0.879633 -0.048892 5.01422e-23)
(0.89428 -0.0473088 -4.34893e-23)
(0.910406 -0.038289 -3.84565e-23)
(0.926343 -0.0209588 0)
(0.939821 0.00148971 4.02916e-22)
(0.950094 0.0244925 -3.89067e-22)
(0.95778 0.0443658 0)
(0.963606 0.0597409 -1.61e-23)
(0.968248 0.0706617 2.62725e-23)
(0.972127 0.0779274 4.29966e-23)
(0.975472 0.08251 -1.76237e-23)
(0.978387 0.0852817 9.37918e-23)
(0.98095 0.08682 -2.69365e-23)
(0.983191 0.0876625 -9.6647e-23)
(0.985193 0.0878619 -1.67181e-23)
(0.986947 0.0880822 6.96322e-24)
(0.98856 0.0875388 2.65335e-23)
(0.98997 0.0880389 -3.2725e-23)
(0.991313 0.086643 5.19903e-26)
(0.99248 0.0884533 7.21875e-24)
(0.993615 0.0856391 6.25006e-24)
(0.994614 0.0897535 -5.3605e-24)
(0.995583 0.0853951 -1.78794e-23)
(0.996453 0.0916071 1.04028e-24)
(0.997299 0.087242 3.80964e-24)
(0.998078 0.0939695 0)
(0.998753 0.0911957 6.41414e-24)
(0.999621 0.0985637 -2.45355e-24)
(0.999962 0.0967683 -6.18998e-25)
(1.00102 0.105593 -6.34745e-25)
(0.738958 -0.204737 -5.10827e-22)
(0.777116 -0.30457 4.7372e-22)
(0.825383 -0.400652 -4.47568e-22)
(0.870748 -0.499217 -3.87337e-22)
(0.913588 -0.595313 0)
(0.93946 -0.664272 4.7909e-22)
(0.932793 -0.680546 0)
(0.89685 -0.639487 2.06678e-22)
(0.847507 -0.563934 -6.01836e-21)
(0.804095 -0.479038 8.18953e-21)
(0.774971 -0.398364 -2.31364e-21)
(0.75989 -0.327087 1.9087e-23)
(0.75753 -0.264775 3.76255e-23)
(0.764568 -0.210849 6.28579e-23)
(0.777272 -0.167068 -2.81287e-21)
(0.79427 -0.133295 1.3575e-22)
(0.814926 -0.10564 2.56269e-21)
(0.836884 -0.0820479 2.16523e-21)
(0.856448 -0.0649751 -2.16331e-21)
(0.871699 -0.0572206 5.8641e-23)
(0.884333 -0.0566587 -5.08231e-23)
(0.897784 -0.0560314 4.40675e-23)
(0.913754 -0.0480076 7.40994e-23)
(0.930739 -0.0303556 9.52354e-22)
(0.945612 -0.00642601 -9.8193e-22)
(0.956444 0.0187123 -7.04113e-22)
(0.963546 0.0403429 6.79719e-22)
(0.968176 0.0569357 -3.69402e-26)
(0.971463 0.0686316 3.67899e-22)
(0.974167 0.0763841 -7.48303e-22)
(0.976645 0.0812892 3.12655e-22)
(0.978985 0.0842926 2.19739e-22)
(0.981194 0.0860055 -2.12187e-22)
(0.983234 0.0869852 0)
(0.985122 0.0872879 -4.6338e-23)
(0.986828 0.0875948 6.10357e-23)
(0.988424 0.0871083 2.38343e-23)
(0.989846 0.0876703 -1.00601e-23)
(0.991219 0.0862997 -8.56189e-24)
(0.992419 0.0881629 0)
(0.993622 0.0853547 -3.01024e-23)
(0.994663 0.089512 2.84004e-23)
(0.995717 0.0851605 9.26599e-24)
(0.99666 0.0913944 0)
(0.997565 0.0870473 -6.17887e-24)
(0.998485 0.0937891 5.97236e-24)
(0.999181 0.0910211 -2.40272e-24)
(1.00023 0.0984203 -1.83217e-24)
(1.00059 0.0966206 0)
(1.00184 0.105477 6.33777e-25)
(0.952225 -0.219052 1.27095e-19)
(0.989073 -0.319154 -1.22982e-19)
(1.03721 -0.413579 -8.19142e-22)
(1.07602 -0.507692 0)
(1.09991 -0.592471 0)
(1.0937 -0.643173 -4.90074e-22)
(1.05138 -0.643829 0)
(0.987622 -0.600696 2.58772e-20)
(0.918614 -0.533594 -2.52078e-20)
(0.861497 -0.46245 0)
(0.823605 -0.394702 -2.83332e-23)
(0.801451 -0.333186 -3.09336e-22)
(0.791879 -0.277804 2.65972e-22)
(0.792436 -0.22768 -2.74505e-23)
(0.799123 -0.184678 -2.18365e-21)
(0.809867 -0.150703 4.30249e-21)
(0.824978 -0.123176 -2.19315e-21)
(0.843321 -0.098295 0)
(0.861336 -0.0776781 1.86246e-21)
(0.875965 -0.066058 -1.69362e-21)
(0.887599 -0.06384 0)
(0.89949 -0.0642686 1.28706e-21)
(0.914334 -0.0581757 -1.2448e-21)
(0.931559 -0.0411141 1.98388e-24)
(0.947884 -0.0157503 0)
(0.960143 0.0118466 0)
(0.967753 0.0359032 -6.30088e-22)
(0.97203 0.0541988 6.02826e-22)
(0.974454 0.0668758 0)
(0.976196 0.0751284 2.21689e-23)
(0.977866 0.0802881 0)
(0.979631 0.0834456 0)
(0.981469 0.0852738 -1.84886e-22)
(0.983291 0.0863531 1.99047e-22)
(0.985057 0.0867366 0)
(0.986709 0.0871173 -1.22156e-22)
(0.988285 0.0866795 9.19381e-23)
(0.989717 0.0872975 1.02684e-23)
(0.991121 0.0859479 3.28834e-23)
(0.992353 0.0878592 -3.17428e-23)
(0.993624 0.0850548 0)
(0.994705 0.0892513 0)
(0.995846 0.0849039 0)
(0.996862 0.0911602 -7.00637e-24)
(0.997826 0.0868244 2.1329e-23)
(0.998888 0.0935861 -5.55091e-24)
(0.999605 0.0908172 -5.80552e-25)
(1.00083 0.0982534 -5.01783e-24)
(1.00122 0.0964463 1.26407e-24)
(1.00267 0.105341 0)
(1.14701 -0.232226 5.42929e-21)
(1.18218 -0.326969 2.23115e-19)
(1.2238 -0.412654 -1.04571e-19)
(1.2451 -0.495483 -8.57249e-20)
(1.23923 -0.561693 8.20317e-20)
(1.19704 -0.592061 0)
(1.12222 -0.581846 4.07052e-20)
(1.04234 -0.545675 -3.90029e-20)
(0.971669 -0.49602 -1.97756e-20)
(0.913919 -0.442843 1.88874e-20)
(0.873214 -0.388788 0)
(0.846351 -0.33641 3.88338e-23)
(0.830148 -0.28762 0)
(0.823723 -0.241552 -2.23398e-21)
(0.824542 -0.199996 5.31317e-21)
(0.8296 -0.166138 -3.08128e-21)
(0.838894 -0.138926 0)
(0.852693 -0.113801 -5.35795e-23)
(0.868165 -0.0905724 0)
(0.881649 -0.0749252 -9.84415e-24)
(0.89224 -0.0701841 0)
(0.902376 -0.0712333 0)
(0.915159 -0.0676792 2.08203e-21)
(0.931201 -0.0523745 -3.06515e-21)
(0.94789 -0.0264654 1.79402e-21)
(0.961381 0.00330996 -8.1522e-22)
(0.970021 0.0302798 4.02382e-23)
(0.974665 0.0508562 -5.26898e-22)
(0.976825 0.0649317 4.76224e-22)
(0.977972 0.0738946 3.34532e-22)
(0.979012 0.0793749 -4.71544e-23)
(0.980271 0.0826844 -2.65608e-22)
(0.981755 0.0846047 1.8821e-22)
(0.98336 0.0857614 -2.02428e-22)
(0.984999 0.0862086 0)
(0.986592 0.086652 -9.50344e-23)
(0.988145 0.0862548 2.55362e-23)
(0.989585 0.086923 8.92455e-23)
(0.991017 0.08559 0)
(0.992282 0.0875447 1.51826e-23)
(0.993619 0.0847415 -2.45343e-23)
(0.994742 0.0889734 2.36599e-23)
(0.995967 0.0846269 0)
(0.99706 0.0909057 -8.06646e-24)
(0.99808 0.0865752 -1.95498e-23)
(0.999287 0.0933613 1.27023e-23)
(1.00002 0.0905859 9.36258e-24)
(1.00143 0.0980635 0)
(1.00184 0.0962464 0)
(1.00351 0.105185 1.26263e-24)
(1.32739 -0.238336 -1.06896e-19)
(1.34555 -0.318511 1.03406e-19)
(1.36279 -0.386987 0)
(1.35241 -0.451533 7.6227e-23)
(1.30959 -0.497026 -5.37437e-22)
(1.23776 -0.514119 0)
(1.15165 -0.506899 0)
(1.07487 -0.485789 2.83368e-22)
(1.01401 -0.457197 -1.50805e-23)
(0.961838 -0.421898 1.54217e-20)
(0.919749 -0.380483 -1.46617e-20)
(0.888387 -0.336094 0)
(0.8665 -0.293538 0)
(0.854076 -0.2523 2.06413e-23)
(0.84975 -0.212788 8.97037e-24)
(0.850508 -0.179488 0)
(0.855189 -0.152975 -3.14033e-21)
(0.864506 -0.128445 3.08192e-21)
(0.876957 -0.103701 3.10053e-21)
(0.888877 -0.084265 -3.1309e-21)
(0.898381 -0.0761915 0)
(0.906946 -0.0769482 2.40605e-21)
(0.917522 -0.0759335 -2.31406e-21)
(0.931486 -0.0633986 1.87737e-21)
(0.947213 -0.0380843 -1.0346e-22)
(0.961145 -0.00647341 -1.69578e-21)
(0.970785 0.0237361 -1.20771e-21)
(0.976138 0.0470732 1.19754e-21)
(0.978513 0.0629319 0)
(0.979438 0.0727908 0)
(0.980059 0.0786261 0)
(0.980901 0.0820538 -3.10924e-23)
(0.982058 0.0840204 0)
(0.983445 0.085219 1.5957e-22)
(0.984951 0.085707 -2.69149e-22)
(0.986479 0.0862001 1.4325e-22)
(0.988005 0.0858346 -2.50428e-23)
(0.98945 0.0865478 -1.05874e-23)
(0.990909 0.0852266 -7.70844e-23)
(0.992206 0.0872209 5.0196e-23)
(0.993606 0.0844158 0)
(0.994774 0.0886796 -1.13503e-23)
(0.996079 0.0843313 -9.77538e-24)
(0.997251 0.0906316 0)
(0.998326 0.0863017 0)
(0.999681 0.0931145 0)
(1.00043 0.0903288 -3.95685e-24)
(1.00203 0.0978502 4.37648e-24)
(1.00246 0.0960219 2.59307e-24)
(1.00434 0.105008 -1.25879e-24)
(1.43146 -0.219 9.5971e-20)
(1.42248 -0.278918 -9.27611e-20)
(1.40902 -0.329241 8.38706e-20)
(1.36937 -0.377459 -8.0477e-20)
(1.30752 -0.411854 5.61801e-22)
(1.23558 -0.430125 0)
(1.16545 -0.437676 -3.70497e-22)
(1.10491 -0.434587 -5.95218e-22)
(1.05394 -0.421374 -2.56159e-20)
(1.00585 -0.399279 2.51241e-20)
(0.962132 -0.369058 -1.28965e-20)
(0.926898 -0.332595 4.53218e-21)
(0.90057 -0.296178 7.3695e-21)
(0.883515 -0.260477 -2.14767e-23)
(0.874904 -0.223809 -9.32775e-24)
(0.871994 -0.190674 -1.69334e-21)
(0.87291 -0.164618 4.02093e-21)
(0.878084 -0.141358 4.32295e-22)
(0.887165 -0.11625 -2.57124e-21)
(0.897126 -0.0935514 2.64864e-21)
(0.905382 -0.0817282 -2.58816e-21)
(0.912494 -0.0813794 0)
(0.92107 -0.0826291 -2.03419e-21)
(0.932882 -0.0734721 3.93106e-21)
(0.947106 -0.0498824 -1.88695e-21)
(0.960725 -0.0176046 1.49454e-21)
(0.970785 0.0150838 -1.39119e-21)
(0.976688 0.0415776 1.01234e-21)
(0.979467 0.0598877 -9.46395e-22)
(0.980455 0.0711965 -6.93973e-22)
(0.980888 0.0777226 6.48701e-22)
(0.981449 0.0814223 -1.89161e-22)
(0.982343 0.0834823 2.0169e-22)
(0.983534 0.0847247 0)
(0.98491 0.0852401 -1.81725e-23)
(0.986371 0.0857706 -1.52074e-23)
(0.987866 0.0854253 1.09008e-22)
(0.989313 0.0861769 -1.03409e-22)
(0.990795 0.0848605 -6.0269e-23)
(0.992124 0.0868904 7.464e-23)
(0.993584 0.0840795 0)
(0.9948 0.0883716 5.51538e-23)
(0.99618 0.0840189 -5.07448e-23)
(0.997437 0.0903386 2.12383e-24)
(0.998562 0.0860065 1.5163e-23)
(1.00007 0.0928459 0)
(1.00084 0.0900483 -4.02192e-24)
(1.00263 0.0976136 3.91589e-24)
(1.00307 0.0957746 2.10104e-24)
(1.00517 0.10481 0)
(1.41253 -0.178245 8.823e-20)
(1.39275 -0.219552 -8.50114e-20)
(1.36879 -0.259101 -7.84924e-20)
(1.32906 -0.300765 1.47875e-19)
(1.28145 -0.336389 -1.32591e-19)
(1.23309 -0.363946 6.14404e-20)
(1.18476 -0.383024 3.90101e-22)
(1.13573 -0.389493 3.15072e-22)
(1.08781 -0.383702 -2.46524e-22)
(1.04104 -0.371054 1.01601e-22)
(0.998305 -0.35184 1.33098e-22)
(0.962654 -0.324184 -8.8586e-23)
(0.934184 -0.293802 6.22257e-21)
(0.913513 -0.263775 -6.01628e-21)
(0.900821 -0.231192 0)
(0.894132 -0.198755 1.65591e-23)
(0.891141 -0.173254 -2.22183e-23)
(0.892077 -0.152542 0)
(0.89755 -0.129015 2.35277e-21)
(0.905189 -0.103838 -2.22312e-21)
(0.911968 -0.0871701 -3.31348e-23)
(0.917664 -0.084235 -2.1915e-21)
(0.924552 -0.0871414 2.10802e-21)
(0.934576 -0.0819701 3.32186e-23)
(0.947222 -0.0612304 1.68871e-21)
(0.960144 -0.0285155 -1.59882e-21)
(0.97054 0.00683469 0)
(0.977043 0.0363755 0)
(0.980222 0.0570481 8.29811e-22)
(0.981343 0.0697591 -8.37284e-22)
(0.981665 0.0769314 2.06606e-25)
(0.981994 0.0808587 -1.63179e-23)
(0.982643 0.0829779 -3.61636e-22)
(0.98364 0.0842432 3.97458e-22)
(0.984882 0.0847756 1.39382e-22)
(0.986268 0.0853389 -1.33891e-22)
(0.987727 0.0850115 0)
(0.989173 0.0858005 -7.22932e-23)
(0.990675 0.0844871 8.00271e-23)
(0.992038 0.0865515 3.22836e-26)
(0.99355 0.0837316 -5.1882e-23)
(0.994821 0.0880502 4.39103e-23)
(0.996267 0.0836906 0)
(0.997617 0.0900271 0)
(0.998786 0.0856921 1.33499e-23)
(1.00045 0.0925549 -1.28061e-23)
(1.00123 0.0897474 -4.09109e-24)
(1.00323 0.0973538 6.09346e-25)
(1.00367 0.0955081 -1.03168e-24)
(1.00601 0.10459 0)
(1.35246 -0.139918 -1.74938e-22)
(1.34368 -0.168631 0)
(1.32883 -0.203332 7.58106e-20)
(1.30532 -0.242433 -1.43343e-19)
(1.27708 -0.280121 6.74335e-20)
(1.24439 -0.312812 -2.35641e-22)
(1.2055 -0.337637 0)
(1.16075 -0.35256 0)
(1.11464 -0.357579 0)
(1.07025 -0.354875 -1.07739e-22)
(1.03045 -0.344713 -1.95859e-20)
(0.996486 -0.325897 1.8841e-20)
(0.966894 -0.301746 9.59013e-21)
(0.942574 -0.2767 -9.19573e-21)
(0.925307 -0.248272 0)
(0.914391 -0.216424 -7.58674e-24)
(0.907422 -0.189132 3.14764e-22)
(0.904346 -0.168206 -1.53302e-21)
(0.906608 -0.145606 -5.76743e-22)
(0.912526 -0.118594 3.67527e-21)
(0.918116 -0.09673 -1.87511e-21)
(0.922175 -0.0892507 -2.00433e-21)
(0.92711 -0.0918014 1.92566e-21)
(0.9355 -0.0900335 2.99887e-23)
(0.947321 -0.0730904 -2.73027e-23)
(0.960013 -0.0419201 1.42024e-21)
(0.970316 -0.00594313 -1.36377e-21)
(0.976922 0.0273681 0)
(0.980442 0.0517875 8.65052e-22)
(0.981837 0.0670924 -1.54042e-21)
(0.982241 0.0757048 7.13446e-22)
(0.982488 0.0802732 0)
(0.982973 0.0826073 -1.38515e-23)
(0.983803 0.0839258 -1.14872e-23)
(0.984909 0.0844499 -2.86288e-22)
(0.986209 0.0850198 2.74529e-22)
(0.987621 0.0846716 0)
(0.989056 0.085485 8.53747e-23)
(0.990569 0.0841409 -8.18243e-23)
(0.991963 0.0862391 -7.01772e-23)
(0.99352 0.0833833 5.93995e-23)
(0.99485 0.0877289 5.97196e-24)
(0.996351 0.0833474 0)
(0.9978 0.0896953 0)
(0.999007 0.0853523 1.35961e-23)
(1.00083 0.0922346 -1.30127e-23)
(1.00162 0.0894133 0)
(1.00382 0.0970619 0)
(1.00427 0.0952114 -1.79058e-24)
(1.00685 0.104346 6.92091e-25)
(1.32825 -0.103916 0)
(1.33132 -0.132964 0)
(1.31872 -0.161398 0)
(1.29766 -0.189634 0)
(1.27184 -0.218058 0)
(1.24221 -0.244254 0)
(1.20887 -0.265409 0)
(1.17221 -0.28096 0)
(1.13477 -0.289299 0)
(1.09775 -0.290549 0)
(1.06136 -0.287273 0)
(1.02775 -0.278508 0)
(0.997698 -0.26312 0)
(0.971113 -0.246581 0)
(0.949916 -0.227828 0)
(0.935287 -0.203085 0)
(0.925094 -0.17939 0)
(0.918022 -0.162917 0)
(0.915938 -0.146465 0)
(0.919125 -0.123106 0)
(0.923813 -0.100465 0)
(0.927002 -0.0909812 0)
(0.930004 -0.0944055 0)
(0.936044 -0.096371 0)
(0.946291 -0.0828961 0)
(0.958688 -0.0524359 0)
(0.97018 -0.0142772 0)
(0.977916 0.0211205 0)
(0.98149 0.047674 0)
(0.982765 0.0645654 0)
(0.983032 0.0740743 0)
(0.983126 0.0790737 0)
(0.983457 0.0816029 0)
(0.984146 0.083026 0)
(0.985136 0.0836288 0)
(0.98635 0.0842731 0)
(0.987705 0.0839976 0)
(0.989112 0.084875 0)
(0.990615 0.0835933 0)
(0.992024 0.0857354 0)
(0.993599 0.0829265 0)
(0.99498 0.0872998 0)
(0.996512 0.0829449 0)
(0.99805 0.0893201 0)
(0.999281 0.0849816 0)
(1.00124 0.0918969 0)
(1.00204 0.0890749 0)
(1.00442 0.0967571 0)
(1.00486 0.0949117 0)
(1.00766 0.104095 0)
(1.29371 -0.0929149 0)
(1.30004 -0.125345 0)
(1.28959 -0.155822 0)
(1.26876 -0.184631 0)
(1.2437 -0.212783 0)
(1.21654 -0.238489 0)