/*--------------------------------*- C++ -*----------------------------------*\
| =========                 |                                                 |
| \\      /  F ield         | OpenFOAM: The Open Source CFD Toolbox           |
|  \\    /   O peration     | Version:  2512                                  |
|   \\  /    A nd           | Website:  www.openfoam.com                      |
|    \\/     M anipulation  |                                                 |
\*---------------------------------------------------------------------------*/
FoamFile
{
    version     2.0;
    format      ascii;
    arch        "LSB;label=32;scalar=64";
    class       surfaceScalarField;
    location    "91.5";
    object      phi;
}
// * * * * * * * * * * * * * * * * * * * * * * * * * * * * * * * * * * * * * //

dimensions      [0 3 -1 0 0 0 0];

oriented        oriented;

internalField   nonuniform List<scalar> 
19380
(
0.874555
-5.24355e-05
0.874698
-0.000143441
0.874918
-0.000219623
0.875203
-0.000284554
0.875544
-0.000341098
0.875935
-0.000391372
0.876373
-0.000437402
0.876853
-0.000480195
0.877373
-0.000520382
0.877931
-0.000558177
0.878525
-0.000593421
0.87915
-0.000625685
0.879805
-0.000654412
0.880484
-0.000679042
0.881183
-0.000699118
0.881897
-0.000714344
0.882622
-0.000724613
0.883352
-0.000729992
0.884083
-0.000730703
0.88481
-0.000727079
0.885529
-0.00071953
0.886238
-0.00070851
0.886932
-0.000694489
0.88761
-0.000677933
0.888269
-0.000659289
0.888908
-0.000638978
0.889526
-0.000617384
0.890121
-0.000594861
0.890692
-0.000571719
0.891241
-0.000548244
0.891765
-0.000524667
0.892266
-0.000501174
0.892744
-0.000477909
0.893199
-0.000455023
0.893632
-0.000432646
0.894043
-0.000410876
0.894433
-0.000389788
0.894802
-0.000369439
0.895152
-0.000349867
-0.00033114
0.895483
0.844014
-0.000102927
0.844152
-0.000281484
0.844363
-0.000430848
0.844637
-0.000558094
0.844965
-0.000668916
0.845341
-0.000767523
0.845761
-0.000857982
0.846223
-0.000942248
0.846725
-0.00102157
0.847263
-0.00109636
0.847836
-0.00116628
0.84844
-0.00123045
0.849074
-0.00128776
0.849732
-0.00133705
0.85041
-0.00137741
0.851104
-0.00140821
0.851809
-0.00142923
0.852519
-0.00144059
0.853231
-0.00144269
0.85394
-0.0014362
0.854643
-0.0014219
0.855335
-0.00140068
0.856014
-0.00137347
0.856677
-0.00134119
0.857322
-0.00130472
0.857948
-0.00126489
0.858553
-0.00122246
0.859137
-0.00117813
0.859698
-0.00113253
0.860235
-0.00108622
0.86075
-0.00103966
0.861243
-0.000993235
0.861712
-0.000947227
0.862159
-0.000901944
0.862584
-0.000857639
0.862987
-0.000814515
0.86337
-0.000772722
0.863733
-0.000732376
0.864077
-0.000693557
-0.000656401
0.864402
0.814539
-0.00015133
0.814671
-0.000413626
0.814873
-0.000632898
0.815135
-0.00081968
0.815449
-0.00098253
0.815809
-0.00112763
0.816212
-0.00126104
0.816655
-0.00138573
0.817137
-0.00150353
0.817656
-0.00161499
0.818209
-0.00171956
0.818795
-0.0018159
0.819409
-0.00190227
0.820049
-0.00197694
0.82071
-0.00203846
0.821388
-0.00208588
0.822077
-0.0021188
0.822774
-0.00213736
0.823474
-0.00214213
0.824171
-0.00213403
0.824864
-0.00211422
0.825547
-0.00208401
0.826218
-0.00204475
0.826875
-0.0019978
0.827515
-0.00194446
0.828136
-0.00188598
0.828737
-0.00182349
0.829317
-0.00175803
0.829875
-0.00169055
0.83041
-0.00162188
0.830923
-0.00155275
0.831414
-0.00148373
0.831882
-0.00141527
0.832328
-0.0013478
0.832752
-0.00128173
0.833155
-0.00121737
0.833537
-0.00115494
0.833899
-0.00109464
0.834242
-0.00103658
-0.000980983
0.834567
0.786094
-0.00019755
0.78622
-0.000539557
0.786412
-0.000825232
0.786661
-0.00106855
0.786959
-0.00128103
0.787303
-0.00147084
0.787687
-0.00164566
0.788111
-0.00180987
0.788574
-0.00196573
0.789072
-0.00211389
0.789606
-0.00225353
0.790173
-0.0023828
0.79077
-0.00249931
0.791394
-0.00260065
0.79204
-0.00268485
0.792705
-0.00275054
0.793383
-0.00279712
0.794071
-0.00282467
0.794763
-0.0028339
0.795454
-0.00282595
0.796143
-0.00280232
0.796823
-0.00276467
0.797493
-0.0027148
0.79815
-0.00265447
0.798791
-0.00258541
0.799414
-0.00250926
0.800018
-0.00242752
0.800602
-0.00234161
0.801164
-0.00225276
0.801704
-0.00216213
0.802222
-0.00207068
0.802718
-0.00197923
0.803191
-0.0018884
0.803642
-0.00179876
0.804071
-0.00171086
0.804479
-0.00162511
0.804866
-0.00154187
0.805232
-0.00146138
0.80558
-0.00138383
-0.0013095
0.805908
0.758641
-0.000241481
0.758761
-0.000658929
0.758943
-0.00100727
0.759178
-0.00130392
0.75946
-0.00156339
0.759786
-0.00179619
0.760151
-0.0020108
0.760555
-0.00221369
0.760996
-0.00240736
0.761475
-0.00259249
0.761989
-0.00276795
0.762538
-0.0029313
0.763118
-0.00307947
0.763727
-0.0032093
0.76436
-0.00331819
0.765014
-0.00340434
0.765684
-0.00346686
0.766365
-0.00350574
0.767053
-0.00352173
0.767743
-0.00351615
0.768431
-0.00349078
0.769114
-0.00344766
0.769788
-0.00338893
0.770451
-0.00331679
0.771099
-0.00323335
0.77173
-0.00314066
0.772343
-0.0030406
0.772936
-0.00293495
0.773509
-0.00282527
0.77406
-0.00271302
0.774589
-0.00259943
0.775095
-0.00248559
0.775579
-0.00237233
0.77604
-0.00226036
0.77648
-0.00215035
0.776898
-0.0020429
0.777294
-0.00193843
0.77767
-0.00183729
0.778026
-0.00173975
-0.00164617
0.778363
0.732147
-0.000282997
0.73226
-0.000771363
0.732431
-0.00117838
0.732652
-0.00152495
0.732917
-0.00182857
0.733223
-0.00210236
0.733568
-0.00235536
0.73395
-0.00259599
0.73437
-0.00282727
0.734827
-0.00304979
0.735321
-0.00326203
0.735851
-0.00346093
0.736414
-0.00364261
0.737008
-0.00380312
0.737629
-0.00393918
0.738273
-0.00404845
0.738936
-0.0041297
0.739613
-0.00418273
0.7403
-0.00420825
0.740991
-0.00420773
0.741683
-0.00418317
0.742373
-0.00413692
0.743055
-0.00407147
0.743728
-0.0039894
0.744388
-0.00389319
0.745032
-0.0037853
0.74566
-0.00366801
0.746268
-0.00354345
0.746857
-0.00341353
0.747424
-0.00328002
0.747969
-0.00314444
0.748491
-0.00300817
0.748991
-0.0028723
0.749468
-0.00273772
0.749923
-0.00260521
0.750356
-0.00247552
0.750767
-0.00234922
0.751156
-0.00222679
0.751525
-0.00210855
-0.00199498
0.751874
0.706579
-0.000321953
0.706684
-0.000876458
0.706843
-0.0013379
0.707049
-0.00173075
0.707296
-0.0020755
0.707581
-0.00238778
0.707904
-0.00267814
0.708263
-0.00295534
0.70866
-0.00322399
0.709095
-0.00348436
0.709567
-0.00373449
0.710077
-0.00397058
0.710622
-0.00418789
0.711201
-0.00438158
0.711809
-0.00454765
0.712444
-0.00468312
0.7131
-0.00478633
0.713774
-0.00485678
0.714461
-0.00489509
0.715156
-0.00490278
0.715855
-0.00488205
0.716554
-0.00483548
0.717248
-0.00476585
0.717935
-0.00467609
0.718611
-0.00456905
0.719273
-0.00444761
0.719919
-0.00431439
0.720548
-0.00417193
0.721157
-0.00402248
0.721745
-0.00386815
0.722311
-0.00371076
0.722855
-0.00355202
0.723376
-0.00339328
0.723874
-0.0032357
0.724349
-0.00308015
0.724801
-0.00292758
0.725231
-0.0027787
0.725638
-0.00263413
0.726024
-0.00249431
-0.00235983
0.726388
0.681902
-0.000358202
0.682
-0.000973791
0.682147
-0.00148516
0.682337
-0.00192042
0.682564
-0.00230302
0.682827
-0.00265112
0.683127
-0.00297749
0.683462
-0.00329027
0.683834
-0.00359584
0.684244
-0.00389445
0.684693
-0.0041836
0.685181
-0.00445862
0.685707
-0.0047138
0.686268
-0.00494338
0.686863
-0.00514259
0.687488
-0.00530772
0.688138
-0.00543652
0.68881
-0.0055281
0.689497
-0.00558291
0.690197
-0.00560249
0.690904
-0.0055891
0.691614
-0.0055455
0.692323
-0.0054747
0.693027
-0.00537994
0.693722
-0.00526442
0.694406
-0.0051314
0.695075
-0.00498388
0.695728
-0.00482478
0.696363
-0.0046567
0.696977
-0.00448211
0.697569
-0.00430319
0.698139
-0.00412195
0.698686
-0.00394007
0.699209
-0.00375901
0.699709
-0.00357983
0.700185
-0.00340359
0.700637
-0.00323124
0.701067
-0.00306353
0.701473
-0.00290105
-0.00274453
0.701858
0.658088
-0.000391602
0.658177
-0.00106293
0.658311
-0.00161952
0.658484
-0.00209306
0.658691
-0.00251003
0.658931
-0.00289117
0.659205
-0.00325134
0.659514
-0.00359929
0.659859
-0.00394093
0.660242
-0.00427803
0.660666
-0.00460727
0.66113
-0.00492292
0.661635
-0.00521823
0.662178
-0.00548656
0.662758
-0.00572227
0.663371
-0.00592078
0.664013
-0.00607915
0.664681
-0.00619597
0.66537
-0.00627148
0.666074
-0.00630712
0.66679
-0.00630512
0.667513
-0.00626832
0.668238
-0.00619987
0.668962
-0.0061033
0.669679
-0.00598213
0.670388
-0.00583996
0.671084
-0.00568015
0.671765
-0.00550599
0.672429
-0.00532044
0.673073
-0.00512639
0.673697
-0.00492633
0.674297
-0.00472267
0.674875
-0.00451742
0.675428
-0.00431236
0.675957
-0.00410885
0.676462
-0.00390809
0.676942
-0.00371123
0.677397
-0.00351921
0.677829
-0.00333282
-0.00315295
0.678237
0.635104
-0.000422017
0.635185
-0.00114347
0.635306
-0.00174039
0.63546
-0.00224786
0.635646
-0.00269545
0.635861
-0.00310669
0.636108
-0.00349821
0.636389
-0.00388016
0.636706
-0.00425747
0.637061
-0.00463297
0.637456
-0.00500312
0.637894
-0.0053609
0.638375
-0.00569856
0.638897
-0.00600855
0.639459
-0.00628426
0.640058
-0.00652007
0.640691
-0.00671221
0.641354
-0.00685877
0.642042
-0.00695965
0.642751
-0.00701605
0.643476
-0.00703004
0.644212
-0.00700443
0.644955
-0.00694246
0.645699
-0.00684788
0.646441
-0.00672445
0.647178
-0.00657611
0.647904
-0.00640648
0.648617
-0.00621927
0.649315
-0.00601776
0.649993
-0.00580529
0.650652
-0.00558473
0.651288
-0.00535888
0.651901
-0.00513007
0.652489
-0.00490052
0.653052
-0.00467193
0.65359
-0.0044457
0.654101
-0.00422317
0.654588
-0.00400553
0.655049
-0.0037938
-0.00358904
0.655485
0.612923
-0.000449307
0.612995
-0.00121511
0.613102
-0.00184724
0.613238
-0.00238406
0.613401
-0.00285833
0.613591
-0.00329661
0.613809
-0.00371688
0.61406
-0.00413047
0.614346
-0.00454347
0.61467
-0.00495711
0.615035
-0.00536856
0.615444
-0.00576965
0.615897
-0.00615173
0.616395
-0.00650627
0.616936
-0.0068255
0.617519
-0.00710258
0.618139
-0.00733293
0.618795
-0.00751403
0.61948
-0.00764539
0.620192
-0.00772776
0.620925
-0.0077629
0.621674
-0.0077535
0.622434
-0.00770278
0.623201
-0.00761468
0.62397
-0.00749305
0.624736
-0.00734214
0.625495
-0.00716575
0.626244
-0.006968
0.626979
-0.0067525
0.627696
-0.00652307
0.628394
-0.00628291
0.629071
-0.0060353
0.629724
-0.00578293
0.630352
-0.00552844
0.630954
-0.00527395
0.631529
-0.00502122
0.632078
-0.00477176
0.632599
-0.00452701
0.633094
-0.0042883
-0.00405691
0.633562
0.591517
-0.000473353
0.591579
-0.00127758
0.591672
-0.00193968
0.591788
-0.00250098
0.591928
-0.00299798
0.592092
-0.00346003
0.592281
-0.00390602
0.592499
-0.00434877
0.592752
-0.00479619
0.593043
-0.00524844
0.593375
-0.00570094
0.593752
-0.00614606
0.594174
-0.00657439
0.594644
-0.00697622
0.595161
-0.00734233
0.595723
-0.00766463
0.596328
-0.00793772
0.596973
-0.00815848
0.597653
-0.00832579
0.598365
-0.00843981
0.599104
-0.00850182
0.599865
-0.0085143
0.600642
-0.00848035
0.601432
-0.00840397
0.602228
-0.00828898
0.603025
-0.00813983
0.60382
-0.00796044
0.604607
-0.00775532
0.605383
-0.00752838
0.606144
-0.00728391
0.606887
-0.00702547
0.607608
-0.00675682
0.608306
-0.00648106
0.608979
-0.00620129
0.609625
-0.00592012
0.610244
-0.00563977
0.610834
-0.005362
0.611395
-0.00508849
0.611928
-0.00482094
-0.00456091
0.612432
0.570857
-0.000494047
0.570911
-0.00133076
0.570988
-0.00201734
0.571085
-0.00259811
0.571201
-0.00311401
0.571338
-0.00359625
0.571496
-0.00406443
0.571681
-0.00453379
0.571899
-0.00501381
0.572154
-0.00550409
0.572451
-0.00599766
0.572792
-0.00648703
0.573181
-0.00696308
0.573619
-0.00741455
0.574107
-0.00783061
0.574645
-0.00820189
0.575229
-0.00852233
0.575859
-0.00878804
0.57653
-0.00899708
0.577239
-0.00914883
0.577981
-0.00924398
0.578752
-0.00928472
0.579545
-0.00927384
0.580356
-0.00921526
0.58118
-0.00911259
0.582011
-0.00897039
0.582843
-0.00879258
0.583671
-0.00858408
0.584492
-0.00834895
0.5853
-0.00809199
0.586092
-0.00781708
0.586863
-0.00752851
0.587612
-0.00722982
0.588335
-0.00692463
0.589031
-0.00661606
0.589699
-0.00630688
0.590336
-0.00599932
0.590943
-0.0056952
0.591518
-0.00539671
-0.00510572
0.592063
0.550919
-0.000511317
0.550963
-0.00137465
0.551026
-0.00207982
0.551103
-0.00267521
0.551195
-0.00320637
0.551304
-0.0037047
0.55143
-0.0041911
0.551581
-0.00468452
0.551762
-0.00519518
0.55198
-0.00572126
0.552238
-0.00625572
0.55254
-0.00678962
0.552892
-0.00731435
0.553294
-0.00781721
0.553749
-0.00828575
0.554257
-0.00870954
0.554817
-0.00908188
0.555426
-0.00939787
0.556084
-0.00965459
0.556786
-0.00985046
0.557527
-0.00998556
0.558304
-0.0100616
0.559111
-0.0100809
0.559943
-0.0100472
0.560794
-0.00996343
0.561658
-0.00983438
0.562529
-0.00966373
0.563402
-0.00945676
0.56427
-0.00921758
0.56513
-0.00895147
0.565975
-0.00866257
0.566802
-0.00835573
0.567608
-0.00803496
0.568387
-0.00770446
0.569139
-0.00736793
0.569861
-0.0070287
0.570552
-0.00668971
0.571209
-0.00635293
0.571834
-0.00602113
-0.0056965
0.572424
0.531678
-0.000525172
0.531712
-0.00140926
0.531759
-0.00212676
0.531816
-0.00273252
0.531885
-0.00327533
0.531965
-0.00378482
0.53206
-0.0042855
0.532176
-0.00480044
0.53232
-0.00533913
0.532497
-0.00589826
0.532713
-0.00647172
0.532974
-0.00705088
0.533285
-0.00762486
0.533647
-0.00818005
0.534065
-0.00870297
0.534537
-0.00918241
0.535067
-0.00961095
0.535651
-0.0099824
0.536289
-0.0102927
0.536978
-0.0105394
0.537714
-0.0107217
0.538494
-0.0108409
0.539311
-0.0108983
0.540161
-0.0108972
0.541038
-0.0108401
0.541935
-0.0107316
0.542846
-0.0105748
0.543765
-0.0103755
0.544685
-0.0101374
0.5456
-0.00986649
0.546504
-0.00956691
0.547392
-0.00924418
0.54826
-0.00890272
0.549103
-0.00854741
0.549918
-0.00818256
0.550701
-0.00781213
0.551451
-0.00743994
0.552167
-0.00706825
0.552846
-0.00670044
-0.00633908
0.553489
0.513108
-0.000535747
0.513133
-0.00143447
0.513164
-0.00215783
0.513202
-0.00277087
0.513248
-0.00332116
0.5133
-0.00383622
0.513362
-0.0043477
0.513443
-0.00488141
0.513548
-0.00544458
0.513683
-0.00603351
0.513856
-0.00664385
0.514072
-0.00726731
0.514338
-0.00789119
0.514657
-0.00849898
0.515032
-0.00907747
0.515464
-0.00961512
0.515957
-0.0101037
0.51651
-0.0105354
0.517123
-0.0109052
0.517793
-0.0112094
0.518517
-0.0114466
0.519294
-0.0116171
0.520117
-0.0117214
0.520982
-0.0117619
0.521882
-0.0117403
0.522811
-0.0116608
0.523762
-0.011526
0.524728
-0.0113417
0.525702
-0.0111113
0.526677
-0.0108411
0.527645
-0.0105352
0.528601
-0.0101999
0.529538
-0.00983992
0.530451
-0.00946082
0.531337
-0.00906766
0.532189
-0.00866502
0.533007
-0.00825778
0.533788
-0.00784871
0.534529
-0.00744184
-0.00704018
0.53523
0.495186
-0.000543299
0.495202
-0.00144974
0.495217
-0.00217314
0.495238
-0.00279163
0.495261
-0.0033439
0.495283
-0.00385899
0.495314
-0.00437851
0.49536
-0.00492742
0.495426
-0.00551064
0.495519
-0.00612592
0.495646
-0.00677089
0.495815
-0.00743676
0.496033
-0.00810918
0.496304
-0.00876989
0.496631
-0.0094046
0.497018
-0.0100023
0.497468
-0.0105538
0.497983
-0.01105
0.498563
-0.0114848
0.499207
-0.0118533
0.499913
-0.0121533
0.50068
-0.0123839
0.501503
-0.0125444
0.502377
-0.0126364
0.503297
-0.0126602
0.504256
-0.0126197
0.505247
-0.0125165
0.506261
-0.0123562
0.507292
-0.0121416
0.50833
-0.0118791
0.509367
-0.0115728
0.510397
-0.0112294
0.511411
-0.010854
0.512403
-0.0104529
0.513367
-0.010032
0.514299
-0.00959642
0.515193
-0.00915229
0.516047
-0.00870315
0.516859
-0.00825384
-0.00780776
0.517627
0.477891
-0.000548107
0.477896
-0.00145406
0.477896
-0.00217356
0.477901
-0.00279641
0.4779
-0.0033433
0.477895
-0.0038541
0.477896
-0.00437917
0.477907
-0.00493838
0.477933
-0.00553692
0.477982
-0.00617512
0.478064
-0.00685206
0.478184
-0.00755768
0.478351
-0.00827594
0.478569
-0.00898807
0.478845
-0.00967979
0.479181
-0.0103386
0.479582
-0.0109552
0.480051
-0.0115191
0.48059
-0.0120237
0.4812
-0.0124629
0.48188
-0.0128336
0.48263
-0.0131333
0.483445
-0.01336
0.484323
-0.0135143
0.485258
-0.0135947
0.486243
-0.0136048
0.487271
-0.0135443
0.488333
-0.0134189
0.489422
-0.0132299
0.490527
-0.0129841
0.491639
-0.0126848
0.492749
-0.0123394
0.493848
-0.0119531
0.494928
-0.011533
0.495981
-0.0110855
0.497002
-0.0106168
0.497984
-0.0101341
0.498922
-0.00964207
0.499815
-0.00914654
-0.00865134
0.500659
0.4612
-0.000550179
0.461192
-0.00144602
0.461179
-0.00216115
0.461169
-0.00278644
0.461145
-0.00331915
0.461115
-0.00382372
0.461087
-0.00435074
0.461062
-0.00491428
0.461049
-0.00552382
0.461056
-0.00618139
0.461091
-0.00688705
0.461162
-0.00762875
0.461275
-0.00838935
0.461437
-0.0091502
0.461655
-0.0098978
0.461935
-0.0106186
0.462281
-0.0113013
0.462698
-0.0119354
0.463188
-0.012514
0.463755
-0.0130297
0.4644
-0.0134785
0.465122
-0.0138562
0.465922
-0.0141596
0.466795
-0.0143875
0.467738
-0.0145371
0.468744
-0.0146107
0.469805
-0.014606
0.470915
-0.0145283
0.472062
-0.0143769
0.473236
-0.0141589
0.474428
-0.0138763
0.475626
-0.0135371
0.476819
-0.0131461
0.477997
-0.0127113
0.479151
-0.0122396
0.480273
-0.0117384
0.481354
-0.0112159
0.48239
-0.010678
0.483376
-0.0101321
-0.00958251
0.484307
0.445091
-0.000548777
0.445069
-0.00142451
0.445047
-0.00213917
0.445023
-0.002762
0.444975
-0.00327193
0.444923
-0.00377081
0.444865
-0.00429342
0.444807
-0.00485582
0.444756
-0.00547261
0.44472
-0.00614558
0.444709
-0.00687604
0.444729
-0.00764906
0.444788
-0.00844777
0.444891
-0.00925394
0.445048
-0.0100548
0.445266
-0.0108363
0.445551
-0.0115859
0.445907
-0.0122917
0.44634
-0.0129472
0.446854
-0.0135441
0.447454
-0.0140778
0.44814
-0.0145422
0.448913
-0.0149328
0.449772
-0.0152465
0.450714
-0.0154787
0.451733
-0.0156301
0.452823
-0.0156962
0.453976
-0.0156811
0.455181
-0.0155819
0.456428
-0.0154054
0.457703
-0.0151519
0.458996
-0.0148295
0.460292
-0.0144424
0.46158
-0.0139993
0.462848
-0.0135075
0.464085
-0.0129754
0.465281
-0.0124124
0.466429
-0.011826
0.467523
-0.0112254
-0.0106155
0.468556
0.429542
-0.000541778
0.429507
-0.00138989
0.429479
-0.00211135
0.42944
-0.00272229
0.429371
-0.00320353
0.429299
-0.00369821
0.429212
-0.00420663
0.429121
-0.00476524
0.429033
-0.00538489
0.428957
-0.00606904
0.428901
-0.00681966
0.42887
-0.00761819
0.428872
-0.00845034
0.428916
-0.00929742
0.429009
-0.0101481
0.42916
-0.0109871
0.429376
-0.011802
0.429665
-0.0125806
0.430032
-0.0133149
0.430485
-0.0139966
0.431028
-0.014621
0.431666
-0.0151798
0.432401
-0.0156679
0.433234
-0.0160796
0.434164
-0.0164088
0.435188
-0.0166536
0.436299
-0.0168073
0.43749
-0.0168722
0.43875
-0.0168426
0.440069
-0.0167243
0.441432
-0.0165152
0.442827
-0.0162236
0.444236
-0.0158517
0.445646
-0.0154095
0.447042
-0.0149036
0.448411
-0.0143442
0.44974
-0.0137412
0.451018
-0.0131042
0.452237
-0.0124444
-0.0117676
0.453389
0.414531
-0.000525036
0.414487
-0.00134584
0.414456
-0.00208022
0.4144
-0.00266618
0.414314
-0.00311702
0.414223
-0.00360755
0.414106
-0.0040898
0.413988
-0.00464669
0.413864
-0.00526165
0.413749
-0.0059541
0.413648
-0.00671859
0.413567
-0.00753642
0.413513
-0.00839699
0.413495
-0.00927942
0.413523
-0.0101755
0.413603
-0.0110675
0.413745
-0.0119444
0.413959
-0.0127942
0.414253
-0.0136087
0.414634
-0.0143776
0.41511
-0.0150967
0.415687
-0.0157568
0.41637
-0.0163517
0.417164
-0.0168734
0.41807
-0.0173141
0.419085
-0.0176691
0.420207
-0.0179291
0.421428
-0.0180936
0.422739
-0.0181539
0.424129
-0.0181139
0.425582
-0.0179685
0.427084
-0.0177252
0.428616
-0.0173841
0.430162
-0.0169553
0.431703
-0.0164445
0.433223
-0.0158636
0.434704
-0.0152229
0.436134
-0.0145342
0.437501
-0.0138108
-0.0130605
0.438794
0.400038
-0.000492054
0.399994
-0.00130141
0.399958
-0.00204425
0.399886
-0.00259415
0.399784
-0.00301519
0.399676
-0.00349932
0.39953
-0.00394352
0.399389
-0.00450578
0.39923
-0.00510248
0.39908
-0.00580496
0.398935
-0.0065727
0.398804
-0.00740562
0.398695
-0.0082881
0.398615
-0.00919962
0.398575
-0.0101359
0.398583
-0.0110749
0.398648
-0.0120094
0.39878
-0.0129266
0.398991
-0.0138192
0.39929
-0.0146771
0.399687
-0.0154939
0.400191
-0.0162602
0.400809
-0.0169699
0.401548
-0.0176128
0.402414
-0.0181794
0.403406
-0.0186618
0.404525
-0.019048
0.405766
-0.0193341
0.40712
-0.0195078
0.408576
-0.0195701
0.410119
-0.019512
0.411733
-0.0193393
0.413398
-0.0190488
0.415093
-0.0186505
0.416797
-0.0181483
0.418489
-0.0175552
0.420147
-0.0168815
0.421755
-0.0161419
0.423295
-0.0153512
-0.0145205
0.424755
0.386043
-0.000434484
0.386013
-0.00127169
0.385964
-0.00199535
0.385881
-0.00251106
0.385763
-0.0028974
0.385639
-0.00337539
0.385465
-0.00376893
0.385308
-0.00434915
0.385111
-0.00490501
0.384934
-0.00562873
0.384741
-0.00637949
0.384566
-0.00723091
0.384401
-0.008123
0.384262
-0.00905985
0.384154
-0.0100286
0.384087
-0.0110076
0.384072
-0.0119943
0.384118
-0.0129733
0.384239
-0.01394
0.384447
-0.0148845
0.384753
-0.0158007
0.38517
-0.0166769
0.385708
-0.0175074
0.386376
-0.0182809
0.387183
-0.0189868
0.388135
-0.0196138
0.389234
-0.0201471
0.390479
-0.0205786
0.391863
-0.0208922
0.393378
-0.0210847
0.395008
-0.0211425
0.396737
-0.021068
0.398542
-0.0208542
0.400401
-0.0205092
0.402287
-0.0200344
0.404175
-0.0194432
0.406039
-0.0187452
0.407855
-0.0179578
0.409601
-0.0170974
-0.0161798
0.41126
0.372526
-0.00034387
0.37253
-0.00127553
0.372453
-0.00191834
0.372371
-0.0024285
0.372229
-0.00275626
0.372098
-0.0032437
0.371894
-0.00356468
0.37173
-0.00418537
0.371489
-0.00466419
0.371297
-0.00543667
0.37105
-0.00613221
0.370842
-0.00702328
0.370616
-0.007897
0.370423
-0.00886686
0.370245
-0.00985102
0.370105
-0.0108675
0.370007
-0.0118963
0.369965
-0.0129312
0.369991
-0.0139655
0.370098
-0.0149923
0.370302
-0.0160044
0.370618
-0.0169931
0.371059
-0.0179485
0.371639
-0.01886
0.372368
-0.0197164
0.373259
-0.020504
0.374317
-0.0212053
0.375546
-0.0218075
0.376944
-0.0222903
0.378504
-0.022645
0.380214
-0.0228526
0.382056
-0.0229105
0.384008
-0.0228061
0.386044
-0.0225447
0.388133
-0.0221231
0.390244
-0.0215543
0.392345
-0.0208462
0.394405
-0.0200184
0.396396
-0.0190883
-0.0180781
0.398294
0.359475
-0.000214196
0.35953
-0.00133059
0.359405
-0.00179339
0.359342
-0.00236503
0.359163
-0.00257726
0.359039
-0.00312061
0.358798
-0.00332325
0.35864
-0.00402728
0.358346
-0.00437061
0.358155
-0.00524552
0.357841
-0.00581815
0.357621
-0.00680264
0.357321
-0.00759714
0.357091
-0.00863718
0.356834
-0.00959357
0.35663
-0.0106641
0.356443
-0.0117092
0.356314
-0.0128026
0.356238
-0.013889
0.356241
-0.0149958
0.356332
-0.0160947
0.356534
-0.0171951
0.356861
-0.0182753
0.357332
-0.0193317
0.357963
-0.0203468
0.358768
-0.0213092
0.35976
-0.0221975
0.360949
-0.0229961
0.362337
-0.0236791
0.363924
-0.0242318
0.365701
-0.0246288
0.36765
-0.0248603
0.369751
-0.0249069
0.371975
-0.0247681
0.374286
-0.0244349
0.37665
-0.0239176
0.379025
-0.0232211
0.381372
-0.022366
0.383655
-0.0213707
-0.0202637
0.38584
0.346877
-4.50734e-05
0.346993
-0.00144608
0.346804
-0.00160402
0.346779
-0.00234019
0.346547
-0.00234544
0.346452
-0.00302581
0.34616
-0.00303133
0.346025
-0.00389226
0.345665
-0.00401033
0.345497
-0.00507753
0.345097
-0.00541838
0.344893
-0.00659848
0.344496
-0.00719973
0.344261
-0.00840236
0.3439
-0.00923277
0.343659
-0.010423
0.343364
-0.0114142
0.343164
-0.0126023
0.342971
-0.0136963
0.342875
-0.0148993
0.342837
-0.016057
0.342919
-0.0172772
0.34311
-0.0184659
0.343456
-0.0196783
0.343962
-0.0208523
0.344657
-0.0220045
0.345554
-0.0230944
0.346673
-0.0241153
0.348023
-0.0250288
0.34961
-0.0258188
0.351431
-0.0264499
0.353474
-0.0269038
0.35572
-0.0271529
0.358139
-0.027187
0.360694
-0.0269892
0.36334
-0.0265641
0.36603
-0.0259111
0.368714
-0.0250503
0.371344
-0.0240003
-0.0227958
0.373876
0.334726
0.000155721
0.334897
-0.00161669
0.334641
-0.00134789
0.334664
-0.00236297
0.334372
-0.00205381
0.334319
-0.00297322
0.333965
-0.00267733
0.333869
-0.00379626
0.333429
-0.00357044
0.333307
-0.00495465
0.332802
-0.00491339
0.332647
-0.00644359
0.332122
-0.00667452
0.331925
-0.00820567
0.331423
-0.00873101
0.331192
-0.0101916
0.33075
-0.0109726
0.330518
-0.0123707
0.330175
-0.0133527
0.330003
-0.0147276
0.329808
-0.0158619
0.32978
-0.0172488
0.329804
-0.0184906
0.330018
-0.0198924
0.33036
-0.0211945
0.330926
-0.0225698
0.331689
-0.0238574
0.332708
-0.0251344
0.333979
-0.0263002
0.335534
-0.0273731
0.337368
-0.028284
0.339482
-0.0290179
0.34186
-0.0295316
0.344475
-0.0298019
0.347288
-0.0298021
0.350249
-0.0295253
0.3533
-0.0289621
0.35638
-0.0281295
0.359423
-0.0270437
-0.0257464
0.362374
0.323015
0.000371724
0.32322
-0.00182135
0.322912
-0.00104044
0.322975
-0.00242559
0.32263
-0.00170892
0.322619
-0.0029621
0.322204
-0.00226266
0.32215
-0.00374239
0.321631
-0.003051
0.321562
-0.00488572
0.320945
-0.0042969
0.32086
-0.00635839
0.320187
-0.00600141
0.320066
-0.0080847
0.319386
-0.00805136
0.319218
-0.0100237
0.31858
-0.0103338
0.31838
-0.012171
0.317828
-0.0128002
0.317641
-0.0145415
0.317228
-0.0154487
0.317133
-0.0171534
0.316933
-0.018291
0.317037
-0.0199956
0.317153
-0.021311
0.317587
-0.0230035
0.31815
-0.0244208
0.319049
-0.0260336
0.320183
-0.0274334
0.321672
-0.0288627
0.32347
-0.0300818
0.325624
-0.031172
0.32811
-0.0320171
0.330911
-0.032603
0.333992
-0.0328833
0.337297
-0.0328301
0.340759
-0.0324245
0.344301
-0.0316718
0.347839
-0.0305817
-0.0292046
0.351298
0.311732
0.00058253
0.311941
-0.00203035
0.31161
-0.000708749
0.31169
-0.00250594
0.311313
-0.00133158
0.311325
-0.00297445
0.310868
-0.00180574
0.310841
-0.00371512
0.310263
-0.00247271
0.310233
-0.00485587
0.309525
-0.00358952
0.3095
-0.0063333
0.308691
-0.00519248
0.308651
-0.0080446
0.307788
-0.00718817
0.307711
-0.00994631
0.306845
-0.00946865
0.306728
-0.0120534
0.305913
-0.0119858
0.305782
-0.0144104
0.305078
-0.0147443
0.304996
-0.0170713
0.304479
-0.0177747
0.304546
-0.0200618
0.304329
-0.0210948
0.304681
-0.0233552
0.30492
-0.0246593
0.305721
-0.0268354
0.306596
-0.0283083
0.308017
-0.0302833
0.309682
-0.0317466
0.311857
-0.0333474
0.314394
-0.0345537
0.317365
-0.0355747
0.320713
-0.0362307
0.324382
-0.0364995
0.328311
-0.0363529
0.332394
-0.0357551
0.336526
-0.034714
-0.0332855
0.340607
0.300864
0.000768491
0.301046
-0.00221267
0.30072
-0.00038304
0.30079
-0.002576
0.300408
-0.000949334
0.300417
-0.00298295
0.299946
-0.00133551
0.299917
-0.00368578
0.299317
-0.00187232
0.29929
-0.0048293
0.298539
-0.00283833
0.298531
-0.00632555
0.297639
-0.00430016
0.297638
-0.0080439
0.296638
-0.0061884
0.296622
-0.00993019
0.29556
-0.00840696
0.295517
-0.0120104
0.294443
-0.0109117
0.294387
-0.0143545
0.293359
-0.0137161
0.29334
-0.0170518
0.292435
-0.0168702
0.292543
-0.0201696
0.291877
-0.0204292
0.29225
-0.0237275
0.291989
-0.0243986
0.292804
-0.0276507
0.293181
-0.0286851
0.294623
-0.0317252
0.29592
-0.0330435
0.298169
-0.0355962
0.300599
-0.0369842
0.303768
-0.0387434
0.307337
-0.0398003
0.311392
-0.0405536
0.315845
-0.040806
0.320548
-0.0404587
0.325405
-0.0395706
-0.0381421
0.330261
0.29039
0.000915352
0.290521
-0.00234373
0.290226
-8.79606e-05
0.290262
-0.00261291
0.289899
-0.000585547
0.289879
-0.00296356
0.289423
-0.000879051
0.289363
-0.00362552
0.28878
-0.00128965
0.288714
-0.00476312
0.287978
-0.00210288
0.287926
-0.00627349
0.28703
-0.00340379
0.286992
-0.00800596
0.285947
-0.00514381
0.28591
-0.00989249
0.284745
-0.00724252
0.284697
-0.0119623
0.283448
-0.00966244
0.283401
-0.0143073
0.282111
-0.0124261
0.282109
-0.0170501
0.28084
-0.0156017
0.280975
-0.0203047
0.279827
-0.0192811
0.280247
-0.0241467
0.279378
-0.0235303
0.280289
-0.0285613
0.279941
-0.0283374
0.281582
-0.0333659
0.282117
-0.033578
0.28467
-0.0381496
0.286545
-0.0388592
0.29012
-0.0423181
0.293663
-0.0433439
0.298231
-0.045121
0.303232
-0.0458072
0.308633
-0.0458598
0.314406
-0.0453439
-0.0439553
0.32022
0.28029
0.00101571
0.280354
-0.00240809
0.280106
0.000160102
0.280098
-0.00260445
0.279767
-0.000254358
0.279707
-0.0029039
0.279281
-0.000452528
0.279172
-0.00351742
0.278636
-0.000753732
0.278498
-0.00462432
0.277831
-0.00143612
0.277676
-0.0061188
0.276858
-0.00258587
0.276698
-0.00784523
0.275718
-0.00416451
0.275551
-0.00972481
0.274415
-0.0061067
0.274237
-0.0117842
0.272958
-0.00838368
0.272782
-0.0141318
0.271383
-0.0110266
0.271254
-0.0169207
0.26977
-0.014118
0.269783
-0.0203177
0.268279
-0.0177776
0.268602
-0.0244695
0.267196
-0.0221245
0.268089
-0.0294542
0.266988
-0.0272359
0.268797
-0.0351748
0.268333
-0.033114
0.271389
-0.0412056
0.272118
-0.0395887
0.276552
-0.0467519
0.279294
-0.0460862
0.284957
-0.0507835
0.290197
-0.0510479
0.296547
-0.0522092
0.3035
-0.0522971
-0.0508579
0.310403
0.270546
0.00106794
0.270537
-0.00239887
0.270347
0.000350782
0.27029
-0.00254772
0.269999
3.66174e-05
0.269895
-0.00280034
0.269507
-6.40624e-05
0.269346
-0.00335638
0.268872
-0.000279423
0.268645
-0.00439807
0.268081
-0.000871429
0.267787
-0.00582478
0.267111
-0.00191076
0.266759
-0.00749308
0.265947
-0.00335259
0.265546
-0.00932367
0.264578
-0.00513803
0.264135
-0.0113414
0.262997
-0.0072454
0.26253
-0.0136654
0.261219
-0.00971543
0.26077
-0.0164716
0.259296
-0.0126442
0.258955
-0.0199764
0.257351
-0.0161738
0.257289
-0.0244075
0.255622
-0.0204576
0.256136
-0.0299688
0.254548
-0.0256475
0.256133
-0.0367599
0.254845
-0.031826
0.258123
-0.0444836
0.257553
-0.0390183
0.262989
-0.0521877
0.264055
-0.0471524
0.271658
-0.0583863
0.275903
-0.0552938
0.284503
-0.0608083
0.292512
-0.0603063
-0.0589828
0.300637
0.261143
0.00107428
0.261065
-0.00232131
0.260934
0.000481485
0.260831
-0.00244466
0.260582
0.000285463
0.260438
-0.00265635
0.260088
0.000286468
0.259883
-0.00315123
0.259463
0.000139979
0.259166
-0.00410072
0.258691
-0.000396654
0.258278
-0.00541171
0.25774
-0.00137268
0.257206
-0.00695913
0.256582
-0.00272827
0.255928
-0.0086703
0.255192
-0.00440113
0.254422
-0.0105717
0.253547
-0.00637101
0.252671
-0.0127885
0.25164
-0.00868506
0.250681
-0.0155121
0.249485
-0.0114482
0.248506
-0.0189981
0.247146
-0.0148137
0.246306
-0.0235672
0.244814
-0.0189656
0.244433
-0.0295874
0.242866
-0.0240809
0.243519
-0.0374129
0.242014
-0.0303206
0.244621
-0.0470908
0.243341
-0.0377387
0.249032
-0.0578784
0.248516
-0.0466361
0.258011
-0.0678817
0.259916
-0.0571987
0.272657
-0.0735492
0.279985
-0.0676349
-0.0702127
0.291215
0.252066
0.00103727
0.251934
-0.00218901
0.251858
0.000557522
0.251712
-0.00229888
0.251507
0.000490564
0.251325
-0.00247401
0.251016
0.000594714
0.25077
-0.00290529
0.250403
0.000507025
0.250051
-0.00374801
0.249646
8.17836e-06
0.249154
-0.00492017
0.248707
-0.000925431
0.248063
-0.00631537
0.247552
-0.002217
0.24675
-0.0078678
0.246146
-0.00379782