/*--------------------------------*- C++ -*----------------------------------*\
| =========                 |                                                 |
| \\      /  F ield         | OpenFOAM: The Open Source CFD Toolbox           |
|  \\    /   O peration     | Version:  2512                                  |
|   \\  /    A nd           | Website:  www.openfoam.com                      |
|    \\/     M anipulation  |                                                 |
\*---------------------------------------------------------------------------*/
FoamFile
{
    version     2.0;
    format      ascii;
    arch        "LSB;label=32;scalar=64";
    class       volVectorField;
    location    "91.5";
    object      U;
}
// * * * * * * * * * * * * * * * * * * * * * * * * * * * * * * * * * * * * * //

dimensions      [0 1 -1 0 0 0 0];

internalField   nonuniform List<vector> 
9800
(
(1 -2.99342e-05 0)
(1.00012 -8.48446e-05 0)
(1.00033 -0.000134702 0)
(1.00062 -0.000180939 0)
(1.00098 -0.000224902 0)
(1.0014 -0.000267679 0)
(1.00188 -0.000310119 0)
(1.0024 -0.000352843 0)
(1.00297 -0.000396227 0)
(1.00359 -0.000440365 0)
(1.00424 -0.000485054 0)
(1.00494 -0.000529839 0)
(1.00567 -0.000574092 0)
(1.00643 -0.000617098 0)
(1.00721 -0.00065815 0)
(1.00802 -0.000696614 0)
(1.00885 -0.000731972 0)
(1.00968 -0.00076385 0)
(1.01051 -0.000792009 0)
(1.01135 -0.000816337 0)
(1.01218 -0.000836827 0)
(1.013 -0.000853554 0)
(1.0138 -0.000866658 0)
(1.01459 -0.000876328 0)
(1.01535 -0.000882781 0)
(1.0161 -0.000886254 0)
(1.01682 -0.000886996 0)
(1.01751 -0.000885259 0)
(1.01818 -0.000881294 0)
(1.01882 -0.00087535 0)
(1.01944 -0.000867661 0)
(1.02002 -0.000858457 0)
(1.02058 -0.000847948 0)
(1.02112 -0.000836336 0)
(1.02163 -0.000823801 0)
(1.02211 -0.000810512 0)
(1.02257 -0.00079662 0)
(1.023 -0.000782261 0)
(1.02341 -0.000767558 0)
(1.0238 -0.000752617 0)
(1 -8.86806e-05 0)
(1.00012 -0.000251329 0)
(1.00033 -0.000398971 0)
(1.00062 -0.000535868 0)
(1.00098 -0.000666028 0)
(1.0014 -0.000792736 0)
(1.00187 -0.00091853 0)
(1.00239 -0.00104528 0)
(1.00296 -0.00117412 0)
(1.00358 -0.00130533 0)
(1.00423 -0.00143833 0)
(1.00493 -0.00157175 0)
(1.00566 -0.00170371 0)
(1.00642 -0.00183209 0)
(1.00721 -0.00195476 0)
(1.00803 -0.00206981 0)
(1.00885 -0.0021757 0)
(1.00969 -0.00227127 0)
(1.01054 -0.00235582 0)
(1.01138 -0.00242897 0)
(1.01222 -0.0024907 0)
(1.01305 -0.00254121 0)
(1.01386 -0.00258092 0)
(1.01466 -0.00261036 0)
(1.01543 -0.00263017 0)
(1.01619 -0.00264106 0)
(1.01692 -0.00264377 0)
(1.01763 -0.00263904 0)
(1.0183 -0.00262761 0)
(1.01896 -0.00261023 0)
(1.01958 -0.00258759 0)
(1.02018 -0.00256039 0)
(1.02075 -0.00252925 0)
(1.02129 -0.00249478 0)
(1.02181 -0.00245751 0)
(1.0223 -0.00241794 0)
(1.02277 -0.00237654 0)
(1.02321 -0.00233372 0)
(1.02363 -0.00228983 0)
(1.02403 -0.0022452 0)
(1 -0.000145121 0)
(1.00012 -0.000411135 0)
(1.00033 -0.000652478 0)
(1.00062 -0.000876213 0)
(1.00097 -0.00108901 0)
(1.00139 -0.00129637 0)
(1.00186 -0.00150257 0)
(1.00238 -0.00171071 0)
(1.00294 -0.0019227 0)
(1.00356 -0.00213903 0)
(1.00421 -0.00235872 0)
(1.00491 -0.00257952 0)
(1.00564 -0.0027983 0)
(1.00641 -0.00301151 0)
(1.00721 -0.0032156 0)
(1.00803 -0.00340738 0)
(1.00887 -0.00358423 0)
(1.00972 -0.00374422 0)
(1.01058 -0.0038861 0)
(1.01144 -0.00400921 0)
(1.01229 -0.00411345 0)
(1.01314 -0.00419912 0)
(1.01397 -0.00426685 0)
(1.01479 -0.00431752 0)
(1.01558 -0.00435215 0)
(1.01636 -0.00437188 0)
(1.01711 -0.0043779 0)
(1.01784 -0.00437145 0)
(1.01854 -0.00435374 0)
(1.01921 -0.00432602 0)
(1.01986 -0.00428942 0)
(1.02047 -0.0042451 0)
(1.02106 -0.00419409 0)
(1.02162 -0.00413741 0)
(1.02216 -0.00407595 0)
(1.02267 -0.00401056 0)
(1.02315 -0.00394199 0)
(1.02361 -0.00387095 0)
(1.02404 -0.00379804 0)
(1.02445 -0.0037238 0)
(1 -0.00019913 0)
(1.00012 -0.000563795 0)
(1.00033 -0.000894393 0)
(1.00061 -0.00120082 0)
(1.00096 -0.00149248 0)
(1.00137 -0.00177716 0)
(1.00184 -0.0020609 0)
(1.00235 -0.00234811 0)
(1.00291 -0.00264147 0)
(1.00352 -0.00294167 0)
(1.00418 -0.00324734 0)
(1.00487 -0.00355531 0)
(1.00561 -0.0038612 0)
(1.00639 -0.00416 0)
(1.00719 -0.00444672 0)
(1.00803 -0.00471684 0)
(1.00888 -0.00496663 0)
(1.00975 -0.0051933 0)
(1.01063 -0.005395 0)
(1.01151 -0.00557073 0)
(1.01239 -0.00572022 0)
(1.01326 -0.00584383 0)
(1.01412 -0.00594234 0)
(1.01496 -0.0060169 0)
(1.01579 -0.00606887 0)
(1.0166 -0.0060998 0)
(1.01738 -0.00611131 0)
(1.01814 -0.00610511 0)
(1.01887 -0.00608287 0)
(1.01957 -0.00604631 0)
(1.02024 -0.00599702 0)
(1.02089 -0.00593662 0)
(1.02151 -0.00586655 0)
(1.02209 -0.00578825 0)
(1.02265 -0.00570297 0)
(1.02319 -0.00561194 0)
(1.02369 -0.00551623 0)
(1.02417 -0.00541681 0)
(1.02463 -0.00531457 0)
(1.02506 -0.00521029 0)
(1 -0.000250582 0)
(1.00012 -0.0007089 0)
(1.00032 -0.00112403 0)
(1.0006 -0.00150873 0)
(1.00095 -0.00187528 0)
(1.00135 -0.00223378 0)
(1.00181 -0.00259217 0)
(1.00231 -0.00295626 0)
(1.00287 -0.0033295 0)
(1.00347 -0.00371275 0)
(1.00412 -0.00410425 0)
(1.00482 -0.00449993 0)
(1.00556 -0.00489413 0)
(1.00634 -0.00528034 0)
(1.00716 -0.00565205 0)
(1.00801 -0.00600336 0)
(1.00888 -0.00632938 0)
(1.00977 -0.00662637 0)
(1.01067 -0.0068918 0)
(1.01158 -0.0071242 0)
(1.01249 -0.00732307 0)
(1.01339 -0.00748871 0)
(1.01429 -0.00762201 0)
(1.01517 -0.00772431 0)
(1.01604 -0.00779724 0)
(1.01688 -0.00784272 0)
(1.0177 -0.00786276 0)
(1.0185 -0.00785951 0)
(1.01927 -0.00783509 0)
(1.02001 -0.0077917 0)
(1.02072 -0.00773137 0)
(1.02141 -0.00765617 0)
(1.02206 -0.00756799 0)
(1.02269 -0.0074687 0)
(1.02328 -0.00735994 0)
(1.02385 -0.00724332 0)
(1.02438 -0.00712023 0)
(1.02489 -0.00699199 0)
(1.02538 -0.00685977 0)
(1.02583 -0.00672459 0)
(1 -0.000299348 0)
(1.00011 -0.000846023 0)
(1.00032 -0.00134066 0)
(1.00059 -0.00179893 0)
(1.00093 -0.00223611 0)
(1.00132 -0.00266473 0)
(1.00177 -0.00309478 0)
(1.00226 -0.00353354 0)
(1.00281 -0.00398526 0)
(1.00341 -0.004451 0)
(1.00405 -0.0049286 0)
(1.00475 -0.00541307 0)
(1.00549 -0.00589746 0)
(1.00628 -0.00637369 0)
(1.0071 -0.00683371 0)
(1.00797 -0.00727015 0)
(1.00886 -0.00767686 0)
(1.00977 -0.00804906 0)
(1.0107 -0.00838339 0)
(1.01164 -0.00867781 0)
(1.01259 -0.00893149 0)
(1.01353 -0.00914458 0)
(1.01447 -0.00931793 0)
(1.0154 -0.00945301 0)
(1.01631 -0.00955164 0)
(1.0172 -0.00961604 0)
(1.01807 -0.00964856 0)
(1.01892 -0.00965179 0)
(1.01974 -0.00962825 0)
(1.02053 -0.0095806 0)
(1.02129 -0.00951133 0)
(1.02202 -0.00942299 0)
(1.02272 -0.00931789 0)
(1.02339 -0.00919837 0)
(1.02402 -0.00906649 0)
(1.02463 -0.00892427 0)
(1.02521 -0.00877346 0)
(1.02575 -0.00861575 0)
(1.02627 -0.0084526 0)
(1.02676 -0.00828535 0)
(1 -0.000345274 0)
(1.00011 -0.000974702 0)
(1.00031 -0.00154348 0)
(1.00057 -0.00207034 0)
(1.0009 -0.00257355 0)
(1.00128 -0.00306839 0)
(1.00171 -0.00356689 0)
(1.00219 -0.00407795 0)
(1.00273 -0.00460675 0)
(1.00331 -0.00515449 0)
(1.00395 -0.00571866 0)
(1.00464 -0.00629337 0)
(1.00539 -0.0068703 0)
(1.00618 -0.0074398 0)
(1.00701 -0.00799219 0)
(1.00789 -0.00851858 0)
(1.0088 -0.00901146 0)
(1.00974 -0.00946484 0)
(1.0107 -0.0098744 0)
(1.01168 -0.0102374 0)
(1.01267 -0.0105526 0)
(1.01366 -0.0108199 0)
(1.01464 -0.0110398 0)
(1.01562 -0.011214 0)
(1.01659 -0.0113442 0)
(1.01754 -0.011433 0)
(1.01846 -0.011483 0)
(1.01937 -0.0114972 0)
(1.02024 -0.0114784 0)
(1.02109 -0.0114298 0)
(1.02191 -0.0113543 0)
(1.0227 -0.0112549 0)
(1.02345 -0.0111344 0)
(1.02418 -0.0109957 0)
(1.02487 -0.0108412 0)
(1.02552 -0.0106734 0)
(1.02615 -0.0104944 0)
(1.02674 -0.0103064 0)
(1.0273 -0.0101112 0)
(1.02783 -0.0099104 0)
(1 -0.000388188 0)
(1.00011 -0.00109446 0)
(1.0003 -0.00173167 0)
(1.00055 -0.00232181 0)
(1.00087 -0.00288618 0)
(1.00123 -0.00344299 0)
(1.00164 -0.00400643 0)
(1.00211 -0.00458721 0)
(1.00262 -0.00519146 0)
(1.0032 -0.00582065 0)
(1.00382 -0.00647193 0)
(1.0045 -0.00713846 0)
(1.00524 -0.00781056 0)
(1.00604 -0.00847694 0)
(1.00688 -0.00912634 0)
(1.00777 -0.00974824 0)
(1.00871 -0.0103336 0)
(1.00967 -0.0108751 0)
(1.01067 -0.0113673 0)
(1.01168 -0.0118068 0)
(1.01271 -0.0121914 0)
(1.01375 -0.0125208 0)
(1.01479 -0.0127952 0)
(1.01583 -0.013016 0)
(1.01686 -0.0131851 0)
(1.01787 -0.0133051 0)
(1.01886 -0.0133787 0)
(1.01983 -0.0134094 0)
(1.02078 -0.0134002 0)
(1.0217 -0.0133548 0)
(1.02258 -0.0132764 0)
(1.02344 -0.0131687 0)
(1.02426 -0.0130349 0)
(1.02504 -0.0128783 0)
(1.0258 -0.0127019 0)
(1.02651 -0.0125086 0)
(1.02719 -0.0123011 0)
(1.02784 -0.0120819 0)
(1.02846 -0.0118533 0)
(1.02904 -0.0116172 0)
(1 -0.000427926 0)
(1.0001 -0.0012048 0)
(1.00028 -0.00190444 0)
(1.00053 -0.00255218 0)
(1.00082 -0.00317255 0)
(1.00117 -0.00378664 0)
(1.00156 -0.0044113 0)
(1.002 -0.00505884 0)
(1.0025 -0.00573655 0)
(1.00305 -0.00644639 0)
(1.00366 -0.0071852 0)
(1.00433 -0.00794511 0)
(1.00506 -0.00871503 0)
(1.00585 -0.00948211 0)
(1.0067 -0.0102335 0)
(1.0076 -0.010957 0)
(1.00855 -0.0116419 0)
(1.00955 -0.0122793 0)
(1.01058 -0.0128626 0)
(1.01163 -0.0133873 0)
(1.01271 -0.0138508 0)
(1.0138 -0.0142517 0)
(1.0149 -0.0145898 0)
(1.016 -0.0148663 0)
(1.0171 -0.0150829 0)
(1.01818 -0.0152422 0)
(1.01925 -0.015347 0)
(1.0203 -0.0154009 0)
(1.02132 -0.0154074 0)
(1.02232 -0.0153703 0)
(1.02328 -0.0152934 0)
(1.02422 -0.0151809 0)
(1.02511 -0.0150363 0)
(1.02597 -0.0148636 0)
(1.0268 -0.0146663 0)
(1.02758 -0.0144479 0)
(1.02833 -0.0142116 0)
(1.02905 -0.0139602 0)
(1.02972 -0.0136967 0)
(1.03036 -0.0134234 0)
(1 -0.000464345 0)
(1.0001 -0.0013052 0)
(1.00027 -0.00206102 0)
(1.00049 -0.00276039 0)
(1.00077 -0.00343119 0)
(1.00109 -0.00409763 0)
(1.00146 -0.00477935 0)
(1.00187 -0.00549024 0)
(1.00234 -0.00623896 0)
(1.00287 -0.00702823 0)
(1.00346 -0.00785471 0)
(1.00411 -0.00870929 0)
(1.00483 -0.0095795 0)
(1.00561 -0.0104511 0)
(1.00646 -0.0113097 0)
(1.00737 -0.0121413 0)
(1.00834 -0.0129332 0)
(1.00935 -0.0136749 0)
(1.01041 -0.0143586 0)
(1.01151 -0.0149788 0)
(1.01264 -0.0155315 0)
(1.01379 -0.0160147 0)
(1.01495 -0.0164273 0)
(1.01612 -0.0167701 0)
(1.01729 -0.0170444 0)
(1.01845 -0.0172528 0)
(1.01961 -0.0173979 0)
(1.02074 -0.0174834 0)
(1.02185 -0.0175128 0)
(1.02294 -0.0174905 0)
(1.02399 -0.0174205 0)
(1.02502 -0.0173075 0)
(1.026 -0.0171555 0)
(1.02695 -0.0169691 0)
(1.02786 -0.0167524 0)
(1.02873 -0.0165094 0)
(1.02955 -0.0162439 0)
(1.03034 -0.0159594 0)
(1.03109 -0.0156594 0)
(1.03179 -0.0153465 0)
(1 -0.000497283 0)
(1.00009 -0.00139524 0)
(1.00025 -0.00220073 0)
(1.00046 -0.00294548 0)
(1.00071 -0.00366072 0)
(1.001 -0.00437439 0)
(1.00134 -0.00510849 0)
(1.00172 -0.00587883 0)
(1.00216 -0.00669553 0)
(1.00265 -0.00756254 0)
(1.00321 -0.00847625 0)
(1.00384 -0.00942626 0)
(1.00454 -0.0103989 0)
(1.00531 -0.0113787 0)
(1.00616 -0.0123497 0)
(1.00707 -0.0132958 0)
(1.00804 -0.0142025 0)
(1.00908 -0.0150576 0)
(1.01017 -0.015852 0)
(1.01131 -0.0165786 0)
(1.01248 -0.0172324 0)
(1.01369 -0.01781 0)
(1.01492 -0.0183095 0)
(1.01616 -0.0187309 0)
(1.01741 -0.019075 0)
(1.01867 -0.019344 0)
(1.01991 -0.0195403 0)
(1.02114 -0.0196674 0)
(1.02235 -0.0197288 0)
(1.02354 -0.0197292 0)
(1.0247 -0.0196727 0)
(1.02582 -0.0195647 0)
(1.02691 -0.0194097 0)
(1.02796 -0.0192128 0)
(1.02896 -0.0189786 0)
(1.02992 -0.0187119 0)
(1.03084 -0.0184171 0)
(1.03172 -0.0180984 0)
(1.03255 -0.01776 0)
(1.03333 -0.0174051 0)
(1 -0.000526587 0)
(1.00008 -0.0014746 0)
(1.00023 -0.002323 0)
(1.00041 -0.00310653 0)
(1.00064 -0.00386006 0)
(1.0009 -0.0046155 0)
(1.0012 -0.0053969 0)
(1.00155 -0.00622198 0)
(1.00195 -0.00710327 0)
(1.0024 -0.00804571 0)
(1.00293 -0.00904536 0)
(1.00352 -0.0100907 0)
(1.0042 -0.0111674 0)
(1.00495 -0.0122588 0)
(1.00578 -0.0133471 0)
(1.00668 -0.0144141 0)
(1.00766 -0.0154434 0)
(1.00872 -0.0164213 0)
(1.00983 -0.0173372 0)
(1.011 -0.0181824 0)
(1.01222 -0.0189501 0)
(1.01349 -0.0196357 0)
(1.01479 -0.020236 0)
(1.01611 -0.0207503 0)
(1.01745 -0.0211783 0)
(1.01879 -0.0215218 0)
(1.02014 -0.0217821 0)
(1.02148 -0.0219628 0)
(1.0228 -0.0220671 0)
(1.0241 -0.0220998 0)
(1.02537 -0.0220653 0)
(1.02661 -0.0219693 0)
(1.02782 -0.0218167 0)
(1.02898 -0.0216132 0)
(1.0301 -0.0213641 0)
(1.03117 -0.0210749 0)
(1.03219 -0.020751 0)
(1.03317 -0.020397 0)
(1.03409 -0.0200181 0)
(1.03497 -0.0196181 0)
(1 -0.000552141 0)
(1.00008 -0.00154301 0)
(1.0002 -0.00242742 0)
(1.00037 -0.00324276 0)
(1.00056 -0.00402845 0)
(1.00079 -0.00481993 0)
(1.00105 -0.00564279 0)
(1.00135 -0.00651737 0)
(1.00171 -0.00745942 0)
(1.00212 -0.00847435 0)
(1.0026 -0.00955755 0)
(1.00315 -0.0106972 0)
(1.00379 -0.0118788 0)
(1.00451 -0.0130846 0)
(1.00532 -0.0142946 0)
(1.00621 -0.0154882 0)
(1.00719 -0.0166477 0)
(1.00825 -0.0177581 0)
(1.00938 -0.0188069 0)
(1.01058 -0.0197835 0)
(1.01185 -0.0206792 0)
(1.01317 -0.0214879 0)
(1.01454 -0.0222048 0)
(1.01594 -0.0228282 0)
(1.01737 -0.0233563 0)
(1.01881 -0.0237901 0)
(1.02027 -0.0241298 0)
(1.02172 -0.0243786 0)
(1.02317 -0.0245389 0)
(1.0246 -0.024616 0)
(1.026 -0.0246137 0)
(1.02737 -0.0245384 0)
(1.02871 -0.024395 0)
(1.03 -0.0241902 0)
(1.03125 -0.0239297 0)
(1.03244 -0.0236198 0)
(1.03359 -0.023267 0)
(1.03468 -0.0228765 0)
(1.03572 -0.0224549 0)
(1.0367 -0.0220062 0)
(1 -0.000573822 0)
(1.00007 -0.00160042 0)
(1.00017 -0.00251356 0)
(1.00031 -0.00335366 0)
(1.00048 -0.00416554 0)
(1.00066 -0.00498692 0)
(1.00088 -0.00584453 0)
(1.00114 -0.00676316 0)
(1.00144 -0.00776164 0)
(1.00179 -0.00884511 0)
(1.00222 -0.0100083 0)
(1.00273 -0.01124 0)
(1.00332 -0.0125266 0)
(1.004 -0.0138486 0)
(1.00478 -0.0151836 0)
(1.00565 -0.016509 0)
(1.00661 -0.0178062 0)
(1.00767 -0.0190586 0)
(1.00881 -0.0202519 0)
(1.01004 -0.0213733 0)
(1.01134 -0.0224119 0)
(1.01271 -0.02336 0)
(1.01415 -0.0242111 0)
(1.01563 -0.024962 0)
(1.01715 -0.025609 0)
(1.0187 -0.0261517 0)
(1.02028 -0.0265887 0)
(1.02186 -0.0269228 0)
(1.02344 -0.0271552 0)
(1.02501 -0.0272911 0)
(1.02656 -0.0273339 0)
(1.02808 -0.02729 0)
(1.02956 -0.0271647 0)
(1.03101 -0.0269651 0)
(1.0324 -0.0266977 0)
(1.03374 -0.0263697 0)
(1.03503 -0.0259886 0)
(1.03625 -0.0255604 0)
(1.03742 -0.0250932 0)
(1.03852 -0.0245916 0)
(1 -0.000591567 0)
(1.00006 -0.0016469 0)
(1.00014 -0.002581 0)
(1.00025 -0.00343912 0)
(1.00038 -0.00427155 0)
(1.00052 -0.00511578 0)
(1.00069 -0.00600095 0)
(1.0009 -0.00695806 0)
(1.00114 -0.00800811 0)
(1.00144 -0.00915472 0)
(1.00181 -0.0103932 0)
(1.00226 -0.0117141 0)
(1.00279 -0.0131046 0)
(1.00342 -0.0145432 0)
(1.00415 -0.0160052 0)
(1.00499 -0.0174667 0)
(1.00593 -0.0189083 0)
(1.00697 -0.0203118 0)
(1.00811 -0.021661 0)
(1.00935 -0.0229406 0)
(1.01068 -0.0241379 0)
(1.0121 -0.0252432 0)
(1.01359 -0.0262479 0)
(1.01516 -0.027147 0)
(1.01677 -0.0279339 0)
(1.01844 -0.028607 0)
(1.02013 -0.0291624 0)
(1.02185 -0.0296024 0)
(1.02358 -0.0299262 0)
(1.02531 -0.0301387 0)
(1.02702 -0.0302422 0)
(1.02871 -0.0302434 0)
(1.03036 -0.0301472 0)
(1.03198 -0.0299613 0)
(1.03354 -0.0296931 0)
(1.03505 -0.0293504 0)
(1.03649 -0.0289421 0)
(1.03787 -0.0284749 0)
(1.03919 -0.0279589 0)
(1.04044 -0.0273992 0)
(1 -0.000605441 0)
(1.00004 -0.00168245 0)
(1.00011 -0.00262928 0)
(1.00019 -0.00349969 0)
(1.00028 -0.00434699 0)
(1.00038 -0.00520586 0)
(1.0005 -0.00611149 0)
(1.00064 -0.00710169 0)
(1.00081 -0.0081972 0)
(1.00105 -0.00940022 0)
(1.00136 -0.0107085 0)
(1.00174 -0.0121151 0)
(1.0022 -0.013607 0)
(1.00277 -0.0151604 0)
(1.00344 -0.0167496 0)
(1.00423 -0.0183502 0)
(1.00513 -0.0199423 0)
(1.00614 -0.0215053 0)
(1.00726 -0.0230212 0)
(1.00851 -0.0244724 0)
(1.00986 -0.0258446 0)
(1.01131 -0.027126 0)
(1.01286 -0.0283054 0)
(1.0145 -0.0293753 0)
(1.01621 -0.030326 0)
(1.01799 -0.0311541 0)
(1.01981 -0.0318527 0)
(1.02168 -0.0324229 0)
(1.02357 -0.0328612 0)
(1.02547 -0.0331721 0)
(1.02736 -0.0333557 0)
(1.02924 -0.0334188 0)
(1.03109 -0.0333658 0)
(1.03289 -0.0332048 0)
(1.03465 -0.0329438 0)
(1.03635 -0.032591 0)
(1.03798 -0.0321573 0)
(1.03954 -0.0316499 0)
(1.04103 -0.0310815 0)
(1.04244 -0.0304574 0)
(1 -0.000615654 0)
(1.00003 -0.00170683 0)
(1.00008 -0.00265813 0)
(1.00012 -0.00353678 0)
(1.00016 -0.00439227 0)
(1.00022 -0.00525677 0)
(1.00029 -0.00617661 0)
(1.00036 -0.00719416 0)
(1.00047 -0.00832749 0)
(1.00063 -0.00957918 0)
(1.00086 -0.0109514 0)
(1.00117 -0.0124392 0)
(1.00155 -0.0140283 0)
(1.00204 -0.0156929 0)
(1.00264 -0.0174076 0)
(1.00337 -0.0191487 0)
(1.00421 -0.0208955 0)
(1.00518 -0.0226251 0)
(1.00627 -0.0243175 0)
(1.0075 -0.0259535 0)
(1.00886 -0.0275169 0)
(1.01034 -0.028994 0)
(1.01193 -0.0303704 0)
(1.01363 -0.031636 0)
(1.01543 -0.0327771 0)
(1.01732 -0.0337884 0)
(1.01929 -0.0346588 0)
(1.02131 -0.0353879 0)
(1.02337 -0.0359686 0)
(1.02545 -0.036404 0)
(1.02755 -0.0366918 0)
(1.02964 -0.0368381 0)
(1.0317 -0.0368463 0)
(1.03373 -0.0367245 0)
(1.03571 -0.0364812 0)
(1.03763 -0.0361251 0)
(1.03948 -0.0356689 0)
(1.04125 -0.0351203 0)
(1.04294 -0.0344952 0)
(1.04454 -0.0337992 0)
(1 -0.000622562 0)
(1.00002 -0.00171919 0)
(1.00004 -0.0026679 0)
(1.00005 -0.00355244 0)
(1.00005 -0.00440737 0)
(1.00006 -0.00526883 0)
(1.00006 -0.00619792 0)
(1.00007 -0.00723575 0)
(1.0001 -0.00839784 0)
(1.00019 -0.00969019 0)
(1.00034 -0.0111201 0)
(1.00055 -0.0126832 0)
(1.00085 -0.0143633 0)
(1.00125 -0.0161335 0)
(1.00177 -0.0179704 0)
(1.00241 -0.0198513 0)
(1.00318 -0.0217549 0)
(1.00408 -0.023656 0)
(1.00513 -0.0255335 0)
(1.00632 -0.0273663 0)
(1.00766 -0.0291372 0)
(1.00915 -0.0308297 0)
(1.01078 -0.0324265 0)
(1.01254 -0.0339144 0)
(1.01442 -0.0352753 0)
(1.01642 -0.0365016 0)
(1.01852 -0.0375767 0)
(1.02069 -0.0384987 0)
(1.02294 -0.0392546 0)
(1.02523 -0.0398466 0)
(1.02755 -0.040268 0)
(1.02987 -0.0405244 0)
(1.03219 -0.0406167 0)
(1.03447 -0.0405529 0)
(1.03671 -0.0403415 0)
(1.03888 -0.0399914 0)
(1.04099 -0.0395172 0)
(1.043 -0.0389272 0)
(1.04492 -0.0382408 0)
(1.04675 -0.0374642 0)
(1 -0.000626445 0)
(1.00001 -0.00171806 0)
(1 -0.00266017 0)
(0.999963 -0.00354879 0)
(0.99993 -0.00439176 0)
(0.999891 -0.0052439 0)
(0.999829 -0.0061775 0)
(0.999763 -0.00722651 0)
(0.999727 -0.00840791 0)
(0.999733 -0.00973313 0)
(0.999787 -0.0112137 0)
(0.999898 -0.0128444 0)
(1.00009 -0.0146073 0)
(1.0004 -0.0164761 0)
(1.00081 -0.0184302 0)
(1.00135 -0.0204477 0)
(1.00203 -0.0225072 0)
(1.00285 -0.0245821 0)
(1.00383 -0.0266512 0)
(1.00497 -0.0286917 0)
(1.00627 -0.0306853 0)
(1.00775 -0.0326126 0)
(1.00938 -0.0344535 0)
(1.01118 -0.0361918 0)
(1.01314 -0.0378046 0)
(1.01524 -0.0392811 0)
(1.01747 -0.0405988 0)
(1.01981 -0.0417527 0)
(1.02225 -0.0427232 0)
(1.02476 -0.0435104 0)
(1.02732 -0.0441018 0)
(1.02991 -0.0445018 0)
(1.0325 -0.0447076 0)
(1.03507 -0.0447266 0)
(1.03761 -0.044566 0)
(1.04008 -0.0442351 0)
(1.04248 -0.04375 0)
(1.04478 -0.0431197 0)
(1.04698 -0.0423674 0)
(1.04907 -0.0415001 0)
(0.999999 -0.000627084 0)
(0.999997 -0.00170173 0)
(0.999952 -0.00263813 0)
(0.999876 -0.00352709 0)
(0.999809 -0.00434513 0)
(0.999718 -0.00518554 0)
(0.999588 -0.0061169 0)
(0.999451 -0.00716661 0)
(0.999338 -0.0083587 0)
(0.999256 -0.00970904 0)
(0.999209 -0.0112323 0)
(0.999214 -0.0129209 0)
(0.9993 -0.0147567 0)
(0.999489 -0.0167155 0)
(0.99979 -0.0187798 0)
(1.00021 -0.0209285 0)
(1.00077 -0.0231397 0)
(1.00149 -0.0253875 0)
(1.00237 -0.0276518 0)
(1.00343 -0.0299082 0)
(1.00468 -0.0321381 0)
(1.00611 -0.0343186 0)
(1.00774 -0.0364277 0)
(1.00956 -0.038445 0)
(1.01156 -0.040344 0)
(1.01375 -0.0421096 0)
(1.0161 -0.0437124 0)
(1.01861 -0.0451434 0)
(1.02125 -0.0463747 0)
(1.02399 -0.0474036 0)
(1.02682 -0.0482096 0)
(1.0297 -0.0487953 0)
(1.0326 -0.0491518 0)
(1.03551 -0.0492859 0)
(1.03839 -0.0492017 0)
(1.0412 -0.0489087 0)
(1.04395 -0.0484235 0)
(1.04659 -0.0477565 0)
(1.04912 -0.0469341 0)
(1.05151 -0.0459653 0)
(0.999998 -0.000623109 0)
(0.999982 -0.0016693 0)
(0.999894 -0.00260629 0)
(0.999784 -0.00348709 0)
(0.999688 -0.0042685 0)
(0.999539 -0.00509841 0)
(0.999342 -0.00601613 0)
(0.999135 -0.00705746 0)
(0.998941 -0.0082525 0)
(0.998765 -0.00961979 0)
(0.998612 -0.0111765 0)
(0.998504 -0.0129114 0)
(0.998472 -0.014809 0)
(0.998535 -0.0168475 0)
(0.998704 -0.0190131 0)
(0.99899 -0.0212844 0)
(0.999416 -0.0236405 0)
(1 -0.0260571 0)
(1.00076 -0.0285165 0)
(1.00172 -0.0309938 0)
(1.00287 -0.0334705 0)
(1.00423 -0.0359207 0)
(1.00582 -0.0383208 0)
(1.00763 -0.0406464 0)
(1.00966 -0.0428673 0)
(1.01192 -0.0449636 0)
(1.01439 -0.0468986 0)
(1.01705 -0.048658 0)
(1.01988 -0.0502044 0)
(1.02287 -0.0515304 0)
(1.02598 -0.0526057 0)
(1.02919 -0.0534294 0)
(1.03245 -0.0539844 0)
(1.03573 -0.0542756 0)
(1.039 -0.054302 0)
(1.04222 -0.0540732 0)
(1.04537 -0.0536044 0)
(1.04842 -0.0529081 0)
(1.05134 -0.0520129 0)
(1.0541 -0.0509313 0)
(0.999999 -0.000611204 0)
(0.999961 -0.00162229 0)
(0.999822 -0.00256908 0)
(0.999692 -0.00342719 0)
(0.999565 -0.00416524 0)
(0.999354 -0.00498654 0)
(0.999095 -0.00587402 0)
(0.998817 -0.00690311 0)
(0.99854 -0.00809185 0)
(0.998265 -0.0094681 0)
(0.998002 -0.0110475 0)
(0.997775 -0.0128157 0)
(0.997618 -0.0147634 0)
(0.997544 -0.0168694 0)
(0.997565 -0.0191248 0)
(0.997698 -0.0215074 0)
(0.997968 -0.0239986 0)
(0.998399 -0.0265771 0)
(0.99901 -0.0292274 0)
(0.999822 -0.031926 0)
(1.00085 -0.034656 0)
(1.00211 -0.0373888 0)
(1.00362 -0.0401008 0)
(1.00539 -0.042763 0)
(1.00742 -0.0453425 0)
(1.00972 -0.0478132 0)
(1.01227 -0.0501318 0)
(1.01508 -0.0522771 0)
(1.01811 -0.0542011 0)
(1.02135 -0.0558898 0)
(1.02476 -0.0573005 0)
(1.02831 -0.0584272 0)
(1.03196 -0.0592412 0)
(1.03567 -0.0597443 0)
(1.0394 -0.0599271 0)
(1.04309 -0.0597991 0)
(1.04673 -0.0593712 0)
(1.05025 -0.058659 0)
(1.05364 -0.0576911 0)
(1.05685 -0.0564858 0)
(1 -0.000585512 0)
(0.999928 -0.00156695 0)
(0.999738 -0.002528 0)
(0.999601 -0.003346 0)
(0.999437 -0.00404011 0)
(0.999167 -0.00485197 0)
(0.998851 -0.00568955 0)
(0.998497 -0.00671076 0)
(0.998137 -0.0078779 0)
(0.99776 -0.00925858 0)
(0.997386 -0.0108462 0)
(0.997036 -0.0126354 0)
(0.996744 -0.0146203 0)
(0.996523 -0.0167797 0)
(0.996383 -0.0191117 0)
(0.996347 -0.0215911 0)
(0.996442 -0.024205 0)
(0.996692 -0.0269348 0)
(0.997124 -0.0297677 0)
(0.997762 -0.0326832 0)
(0.998628 -0.0356673 0)
(0.999748 -0.0386912 0)
(1.00114 -0.0417319 0)
(1.00282 -0.0447567 0)
(1.00481 -0.0477304 0)
(1.00711 -0.0506206 0)
(1.00973 -0.0533776 0)
(1.01265 -0.055972 0)
(1.01586 -0.0583448 0)
(1.01935 -0.0604727 0)
(1.02308 -0.0622986 0)
(1.027 -0.063808 0)
(1.03109 -0.0649577 0)
(1.03528 -0.0657435 0)
(1.03952 -0.0661442 0)
(1.04377 -0.0661673 0)
(1.04797 -0.0658165 0)
(1.05206 -0.0651103 0)
(1.05602 -0.0640753 0)
(1.05978 -0.0627372 0)
(1.00001 -0.000537717 0)
(0.999877 -0.00151669 0)
(0.999644 -0.0024782 0)
(0.999512 -0.0032457 0)
(0.999304 -0.00389602 0)
(0.998981 -0.0046956 0)
(0.99861 -0.00546325 0)
(0.998177 -0.00648994 0)
(0.997736 -0.00760888 0)
(0.997253 -0.00899954 0)
(0.996769 -0.0105714 0)
(0.996292 -0.0123752 0)
(0.995861 -0.0143803 0)
(0.995482 -0.0165792 0)
(0.99517 -0.0189722 0)
(0.99495 -0.021531 0)
(0.99485 -0.0242526 0)
(0.994898 -0.027119 0)
(0.995121 -0.030122 0)
(0.99555 -0.0332454 0)
(0.996214 -0.0364783 0)
(0.997146 -0.0397954 0)
(0.998373 -0.0431757 0)
(0.999925 -0.0465845 0)
(1.00182 -0.0499854 0)
(1.00408 -0.0533395 0)
(1.00671 -0.056592 0)
(1.00972 -0.0597036 0)
(1.01308 -0.0626046 0)
(1.01681 -0.0652595 0)
(1.02085 -0.0675953 0)
(1.02517 -0.0695846 0)
(1.02973 -0.0711661 0)
(1.03445 -0.0723259 0)
(1.0393 -0.0730262 0)
(1.04418 -0.0732695 0)
(1.04905 -0.0730485 0)
(1.05383 -0.0723829 0)
(1.05847 -0.0712951 0)
(1.06289 -0.0698192 0)
(1.00002 -0.000457409 0)
(0.999807 -0.00149274 0)
(0.999547 -0.00240618 0)
(0.999426 -0.00313606 0)
(0.999166 -0.00372931 0)
(0.998801 -0.00452134 0)
(0.998371 -0.00519588 0)
(0.997859 -0.00625184 0)
(0.997342 -0.00727924 0)
(0.996748 -0.00870499 0)
(0.996161 -0.0102168 0)
(0.995548 -0.0120472 0)
(0.994978 -0.0140404 0)
(0.994433 -0.0162739 0)
(0.99394 -0.0187044 0)
(0.993525 -0.0213267 0)
(0.993212 -0.0241365 0)
(0.993035 -0.0271212 0)
(0.993022 -0.0302766 0)
(0.993208 -0.0335941 0)
(0.99363 -0.0370641 0)
(0.994326 -0.0406699 0)
(0.995335 -0.0443921 0)
(0.996696 -0.0481997 0)
(0.998438 -0.0520549 0)
(1.0006 -0.0559146 0)
(1.00318 -0.0597194 0)
(1.00622 -0.0634199 0)
(1.00971 -0.066936 0)
(1.01364 -0.0702174 0)
(1.01799 -0.0731736 0)
(1.02272 -0.0757598 0)
(1.02777 -0.0778928 0)
(1.0331 -0.0795427 0)
(1.03862 -0.0806504 0)
(1.04424 -0.0812078 0)
(1.0499 -0.0811915 0)
(1.0555 -0.0806194 0)
(1.06096 -0.0795065 0)
(1.0662 -0.0778946 0)
(1.00004 -0.00033409 0)
(0.999713 -0.00151942 0)
(0.999461 -0.00228967 0)
(0.999339 -0.0030367 0)
(0.99903 -0.00352644 0)
(0.99863 -0.00434213 0)
(0.998136 -0.00488337 0)
(0.997549 -0.00601094 0)
(0.996961 -0.00687839 0)
(0.996251 -0.0083963 0)
(0.995573 -0.00976711 0)
(0.994812 -0.0116757 0)
(0.994113 -0.0135878 0)
(0.993386 -0.0158816 0)
(0.992715 -0.0183002 0)
(0.992088 -0.0209858 0)
(0.99155 -0.0238497 0)
(0.991127 -0.0269382 0)
(0.990852 -0.0302191 0)
(0.990763 -0.0337142 0)
(0.990901 -0.0374006 0)
(0.991312 -0.0412854 0)
(0.992046 -0.0453405 0)
(0.993149 -0.0495536 0)
(0.99467 -0.0538802 0)
(0.99665 -0.058282 0)
(0.999125 -0.0626922 0)
(1.00213 -0.0670546 0)
(1.00567 -0.0712782 0)
(1.00976 -0.0752964 0)
(1.01439 -0.0790002 0)
(1.01952 -0.0823222 0)
(1.0251 -0.0851534 0)
(1.03107 -0.0874404 0)
(1.03735 -0.089096 0)
(1.04383 -0.0900938 0)
(1.05042 -0.0903876 0)
(1.05699 -0.0899871 0)
(1.06346 -0.0888958 0)
(1.06969 -0.0871612 0)
(1.00008 -0.000161607 0)
(0.999596 -0.00161634 0)
(0.999404 -0.00210399 0)
(0.999246 -0.00297403 0)
(0.99891 -0.0032658 0)
(0.998464 -0.00418358 0)
(0.997913 -0.00451235 0)
(0.99725 -0.00578875 0)
(0.996602 -0.0063892 0)
(0.995765 -0.00810387 0)
(0.99502 -0.00919624 0)
(0.994084 -0.0113013 0)
(0.993284 -0.012992 0)
(0.992345 -0.0154423 0)
(0.991518 -0.0177332 0)
(0.990652 -0.0205369 0)
(0.989893 -0.0233725 0)
(0.989196 -0.0265821 0)
(0.988644 -0.029931 0)
(0.988242 -0.0336002 0)
(0.988061 -0.0374603 0)
(0.988135 -0.0416176 0)
(0.988535 -0.0459779 0)
(0.989307 -0.0505994 0)
(0.990527 -0.0553953 0)
(0.992242 -0.0603695 0)
(0.994515 -0.0654277 0)
(0.997391 -0.070525 0)
(1.00091 -0.0755499 0)
(1.00509 -0.0804258 0)
(1.00994 -0.0850206 0)
(1.01545 -0.0892411 0)
(1.02156 -0.0929484 0)
(1.02822 -0.0960562 0)
(1.03534 -0.0984413 0)
(1.04279 -0.100048 0)
(1.05047 -0.100798 0)
(1.05822 -0.100682 0)
(1.0659 -0.0996867 0)
(1.07336 -0.0978594 0)
(1.00016 5.28891e-05 0)
(0.999445 -0.00178812 0)
(0.999409 -0.00183377 0)
(0.999129 -0.0029703 0)
(0.998832 -0.00292671 0)
(0.998287 -0.00407502 0)
(0.997724 -0.00406299 0)
(0.996954 -0.00561264 0)
(0.996283 -0.00579029 0)
(0.995284 -0.00786516 0)
(0.994521 -0.0084708 0)
(0.993358 -0.0109806 0)
(0.992521 -0.0122037 0)
(0.991305 -0.0150253 0)
(0.990386 -0.0169475 0)
(0.989214 -0.0200465 0)
(0.988282 -0.0226542 0)
(0.987251 -0.0261014 0)
(0.986438 -0.0293689 0)
(0.985669 -0.0332744 0)
(0.985153 -0.0371997 0)
(0.984825 -0.0416609 0)
(0.984843 -0.0462483 0)
(0.985199 -0.0513017 0)
(0.986036 -0.0565217 0)
(0.987377 -0.0621058 0)
(0.989343 -0.0678216 0)
(0.991975 -0.0737314 0)
(0.995358 -0.0796407 0)
(0.999525 -0.0855083 0)
(1.00452 -0.0911506 0)
(1.01034 -0.0964595 0)
(1.01696 -0.101256 0)
(1.02433 -0.105412 0)
(1.03236 -0.108759 0)
(1.04092 -0.111198 0)
(1.04986 -0.112603 0)
(1.059 -0.112936 0)
(1.06816 -0.112149 0)
(1.07714 -0.110285 0)
(1.00035 0.000295554 0)
(0.999226 -0.00201849 0)
(0.999529 -0.00148406 0)
(0.998945 -0.00302838 0)
(0.998846 -0.00250402 0)
(0.998052 -0.00403092 0)
(0.997617 -0.003522 0)
(0.996617 -0.00550177 0)
(0.996048 -0.0050666 0)
(0.99477 -0.00771078 0)
(0.994119 -0.00756393 0)
(0.992598 -0.0107678 0)
(0.991873 -0.0111706 0)
(0.99023 -0.0147155 0)
(0.989378 -0.0158646 0)
(0.987742 -0.0196224 0)
(0.986783 -0.0216013 0)
(0.98527 -0.0256049 0)
(0.984306 -0.0284394 0)
(0.983036 -0.0328236 0)
(0.982244 -0.0365291 0)
(0.981392 -0.0414638 0)
(0.98103 -0.0460567 0)
(0.980844 -0.0516652 0)
(0.981245 -0.0571468 0)
(0.982064 -0.0634465 0)
(0.98362 -0.0697294 0)
(0.985844 -0.0765731 0)
(0.988962 -0.0833881 0)
(0.992962 -0.0904172 0)
(0.997981 -0.0972534 0)
(1.00401 -0.103882 0)
(1.01108 -0.110018 0)
(1.01916 -0.115505 0)
(1.02815 -0.12011 0)
(1.03792 -0.123673 0)
(1.04833 -0.126005 0)
(1.05912 -0.127015 0)
(1.07009 -0.126607 0)
(1.08094 -0.124799 0)
(1.00072 0.000546994 0)
(0.998861 -0.00227545 0)
(0.999852 -0.00108211 0)
(0.998605 -0.00312789 0)
(0.999039 -0.00201805 0)
(0.997664 -0.00403977 0)
(0.997687 -0.0028986 0)
(0.996135 -0.00544996 0)
(0.995994 -0.00422613 0)
(0.994118 -0.00764119 0)
(0.993911 -0.00647755 0)
(0.991705 -0.0106816 0)
(0.991435 -0.00987109 0)
(0.989023 -0.0145687 0)
(0.988596 -0.0144239 0)
(0.986142 -0.0193676 0)
(0.98551 -0.0201098 0)
(0.983161 -0.0252374 0)
(0.98237 -0.0270029 0)
(0.980268 -0.0324111 0)
(0.97946 -0.0352885 0)
(0.977784 -0.0411767 0)
(0.977214 -0.0452285 0)
(0.976211 -0.0517981 0)
(0.976252 -0.0570761 0)
(0.976284 -0.0644387 0)
(0.977406 -0.0709251 0)
(0.978951 -0.0790204 0)
(0.9817 -0.086531 0)
(0.985277 -0.0950383 0)
(0.990186 -0.103084 0)
(0.996237 -0.111377 0)
(1.00366 -0.119098 0)
(1.01237 -0.126289 0)
(1.02235 -0.132533 0)
(1.03345 -0.1376 0)
(1.04551 -0.141231 0)
(1.05827 -0.143237 0)
(1.07142 -0.143452 0)
(1.0846 -0.141849 0)
(1.0014 0.000781419 0)
(0.99824 -0.00252154 0)
(1.00049 -0.00066861 0)
(0.997983 -0.00323475 0)
(0.999541 -0.0015061 0)
(0.996972 -0.00406664 0)
(0.998086 -0.00222934 0)
(0.995331 -0.0054227 0)
(0.996295 -0.00331202 0)
(0.993132 -0.00761617 0)
(0.994083 -0.0052629 0)
(0.990475 -0.0106798 0)
(0.991401 -0.00835197 0)
(0.987485 -0.0145603 0)
(0.988237 -0.012645 0)
(0.984214 -0.0193001 0)
(0.984669 -0.0181484 0)
(0.980729 -0.0250785 0)
(0.980851 -0.0249598 0)
(0.977172 -0.0321858 0)
(0.977035 -0.0333041 0)
(0.973819 -0.0410056 0)
(0.973636 -0.043519 0)
(0.971146 -0.0519336 0)
(0.971284 -0.0559945 0)
(0.969908 -0.0653046 0)
(0.970888 -0.0710258 0)
(0.971174 -0.0812418 0)
(0.973674 -0.0886133 0)
(0.976292 -0.099433 0)
(0.981069 -0.108162 0)
(0.986716 -0.118876 0)
(0.994427 -0.128136 0)
(1.00356 -0.137689 0)
(1.01453 -0.145972 0)
(1.02703 -0.153092 0)
(1.04096 -0.158548 0)
(1.05602 -0.16198 0)
(1.07182 -0.163181 0)
(1.08792 -0.162003 0)
(1.00244 0.00097747 0)
(0.997275 -0.00272046 0)
(1.00153 -0.000280468 0)
(0.996964 -0.0033129 0)
(1.00048 -0.00100584 0)
(0.99582 -0.00407138 0)