/*--------------------------------*- C++ -*----------------------------------*\
| =========                 |                                                 |
| \\      /  F ield         | OpenFOAM: The Open Source CFD Toolbox           |
|  \\    /   O peration     | Version:  2312                                  |
|   \\  /    A nd           | Website:  www.openfoam.com                      |
|    \\/     M anipulation  |                                                 |
\*---------------------------------------------------------------------------*/
FoamFile
{
    version     2.0;
    format      ascii;
    arch        "LSB;label=32;scalar=64";
    class       surfaceScalarField;
    location    "149.15";
    object      phi;
}
// * * * * * * * * * * * * * * * * * * * * * * * * * * * * * * * * * * * * * //

dimensions      [0 3 -1 0 0 0 0];

oriented        oriented;

internalField   nonuniform List<scalar> 
10785
(
-0.00136758
0.00340028
-0.0020327
-0.00247864
0.00497182
-0.00386075
-0.000661442
0.00212039
-0.0039376
0.00677911
-0.00645709
-0.000983464
0.0220575
-0.0215601
0.00628165
0.0455318
-0.0419249
0.0184506
0.0755374
-0.0647426
0.034737
0.109198
-0.0872086
0.0535479
0.143203
-0.107252
0.0732468
0.175191
-0.124077
0.0920896
0.202096
-0.137274
0.110369
0.22387
-0.147263
0.125489
0.239609
-0.155961
0.140222
0.249388
-0.161445
0.151666
-0.170756
0.161954
0.25819
-0.000354726
0.00375501
0.00107144
0.00354565
0.00747661
-0.00428477
0.0219506
-0.0209311
0.0451025
-0.044712
0.0743101
-0.0711324
0.105399
-0.0958311
0.134392
-0.116202
0.158691
-0.131551
0.177081
-0.142468
0.190138
-0.150331
0.200052
-0.157177
0.208061
-0.163969
0.218546
-0.17193
-0.18233
0.230121
0.000461975
0.00329303
0.00472397
-0.000716346
0.0167789
-0.0163397
0.0382402
-0.0423924
0.0658125
-0.0722843
0.094006
-0.099326
0.118333
-0.120158
0.136719
-0.134588
0.149455
-0.144287
0.158527
-0.151539
0.166576
-0.158381
0.175051
-0.165652
0.184849
-0.173767
0.194955
-0.182036
-0.190564
0.203189
0.00127551
0.00201753
0.00909826
-0.0085391
0.0271579
-0.0343993
0.0525426
-0.0677771
0.0783142
-0.098056
0.0993477
-0.120359
0.114134
-0.134944
0.124013
-0.144467
0.131465
-0.151739
0.138531
-0.158605
0.145758
-0.165607
0.153046
-0.172941
0.1597
-0.180422
0.165987
-0.188323
-0.19733
0.172753
0.00242238
-0.000404853
0.0145596
-0.0206763
0.0366234
-0.0564631
0.0604845
-0.0916382
0.0796963
-0.117268
0.0926853
-0.133348
0.101113
-0.143372
0.107339
-0.150693
0.112847
-0.157247
0.11798
-0.163738
0.12289
-0.170518
0.127698
-0.177748
0.132803
-0.185527
0.138503
-0.194024
-0.202698
0.143872
0.00406022
-0.00446507
0.0200476
-0.0366637
0.0418649
-0.0782803
0.0603984
-0.110172
0.072827
-0.129696
0.0804836
-0.141005
0.0855583
-0.148447
0.0894928
-0.154627
0.09293
-0.160684
0.0962902
-0.167099
0.099769
-0.173996
0.103395
-0.181373
0.107077
-0.189209
0.110471
-0.197418
-0.205984
0.113756
0.00610256
-0.0105676
0.0237324
-0.0542936
0.0418616
-0.0964095
0.0545841
-0.122894
0.0620269
-0.137139
0.0662339
-0.145212
0.0689096
-0.151123
0.071007
-0.156725
0.0729748
-0.162652
0.0748855
-0.169009
0.0767127
-0.175824
0.0784774
-0.183138
0.0801788
-0.19091
0.0819374
-0.199177
-0.207726
0.0836799
0.00792561
-0.0184932
0.0243887
-0.0707566
0.0378851
-0.109906
0.045757
-0.130766
0.0495524
-0.140935
0.0512778
-0.146937
0.0521781
-0.152023
0.0527649
-0.157311
0.0531426
-0.163029
0.0533637
-0.16923
0.0534833
-0.175943
0.0535247
-0.183179
0.0535879
-0.190973
0.0535769
-0.199166
0.0535099
-0.207659
-0.00218335
-0.0158554
0.0180387
-0.00705516
-0.025317
0.0301888
-0.0136387
-0.0258554
0.0324389
-0.021352
-0.0238895
0.0316028
-0.0297823
-0.0212029
0.0296332
-0.0385811
-0.0173317
0.0261305
-0.0474137
-0.0114714
0.0203041
-0.0559917
-0.00288547
0.0114635
-0.0631813
0.00801046
-0.000820879
-0.0693062
0.0218188
-0.0156939
-0.0734531
0.0382306
-0.0340836
-0.0746931
0.0563862
-0.0551463
-0.0722956
0.0752681
-0.0776655
-0.0663039
0.0935541
-0.0995458
0.108182
-0.054769
-0.119717
-0.00290511
-0.0129503
-0.00845045
-0.0197717
-0.0155452
-0.0187606
-0.0238156
-0.0156191
-0.032899
-0.0121195
-0.0423201
-0.0079106
-0.0515267
-0.00226488
-0.0595604
0.00514818
-0.0660534
0.0145035
-0.069991
0.0257564
-0.0704134
0.0386529
-0.0663173
0.0522901
-0.0553049
0.0642557
-0.0395435
0.0777927
0.0819067
-0.013268
-0.00289143
-0.0100588
-0.00800621
-0.0146569
-0.0142205
-0.0125463
-0.021241
-0.00859862
-0.0286955
-0.00466498
-0.0359335
-0.000672619
-0.0422969
0.00409851
-0.0468547
0.00970598
-0.0486523
0.0163011
-0.0466111
0.0237152
-0.0392193
0.0312612
-0.0266661
0.0397369
-0.00586656
0.0434562
0.0204998
0.0514264
0.0412568
0.0611497
-0.00253903
-0.00751982
-0.00678363
-0.0104123
-0.0115107
-0.00781924
-0.016363
-0.00374632
-0.0209798
-4.82148e-05
-0.0248384
0.00318599
-0.0269003
0.00616039
-0.0263092
0.00911487
-0.0220499
0.0120418
-0.0130779
0.0147433
0.00143687
0.0167464
0.0220497
0.019124
0.0529055
0.0126004
0.0848479
0.0194839
-0.00532148
0.131426
-0.00230198
-0.00521784
-0.00596501
-0.00674926
-0.00957929
-0.00420495
-0.0126357
-0.000689956
-0.0148086
0.0021247
-0.0154166
0.003794
-0.0136562
0.00440002
-0.0085859
0.00404456
0.000748208
0.0027077
0.0155133
-2.18397e-05
0.036371
-0.00411126
0.0636321
-0.0081371
0.0994713
-0.0232388
0.141061
-0.0221055
-0.054744
0.190483
-0.00239524
-0.0028226
-0.00608076
-0.00306374
-0.00944479
-0.000840921
-0.0117093
0.0015746
-0.0123387
0.00275403
-0.0105639
0.00201926
-0.00528629
-0.000877617
0.00464952
-0.00589124
0.0205384
-0.0131812
0.0428289
-0.0223123
0.0721651
-0.0334475
0.109887
-0.0458592
0.150432
-0.0637841
0.202727
-0.0743997
-0.104817
0.2528
-0.00257913
-0.000243468
-0.00642278
0.000779904
-0.00960922
0.00234553
-0.0109316
0.00289695
-0.00915384
0.0009763
-0.0028879
-0.00424668
0.00919185
-0.0129574
0.0280826
-0.024782
0.0542059
-0.0393045
0.086662
-0.0547684
0.125229
-0.0720147
0.168573
-0.0892032
0.211637
-0.106847
0.261357
-0.12412
-0.142977
0.299517
-0.00227617
-0.00535702
-0.00694909
-0.00503561
0.00222234
0.0164263
0.038206
0.0669719
0.100914
0.138235
0.17659
0.212875
0.24625
0.273795
0.292772
-0.0202091
0.264821
-0.299381
0.0440142
0.265327
-0.32955
0.125082
0.125564
-0.206631
0.188685
-0.0984496
0.0348463
0.223399
-0.258203
0.22349
0.231502
-0.343698
0.335594
0.223248
-0.316816
0.32507
0.189795
-0.332796
0.36625
0.164619
-0.363729
0.388905
0.189108
-0.195969
0.171479
0.242672
-0.00859193
-0.0449721
0.263536
0.200574
-0.221438
0.264646
0.29389
-0.295
0.268817
0.415964
-0.420135
0.270846
0.441953
-0.443983
0.275596
0.217455
-0.222205
0.288349
0.0534316
-0.0661844
0.29251
-0.333327
0.329166
0.29755
-0.517254
0.512214
0.296324
-0.438407
0.439633
0.307868
-0.333668
0.322124
0.307868
0.325305
-0.325305
0.309697
0.596668
-0.598497
0.319164
0.44489
-0.454358
0.325309
0.306307
-0.312451
0.30594
-0.585806
0.605175
0.31671
-0.948598
0.937827
0.309963
0.283366
-0.276619
0.297224
0.805196
-0.792456
0.28269
0.0378458
-0.0233124
0.279016
-0.346093
0.349767
0.275636
-0.0484075
0.0517875
0.269761
0.110754
-0.104879
0.266322
0.035562
-0.032123
0.263387
-0.0165707
0.0195057
0.259875
-0.00473904
0.00825113
0.256412
0.00722231
-0.00375923
0.00481688
-0.00183952
0.0438888
0.207664
0.114656
0.19456
0.18073
0.0594897
0.222104
-0.139824
0.236399
-0.272498
0.230296
-0.337595
0.220555
-0.307076
0.190383
-0.302624
0.163869
-0.337215
0.18466
-0.21676
0.238066
-0.0619978
0.264855
0.173785
0.265195
0.29355
0.267228
0.413931
0.269069
0.440112
0.275469
0.211055
0.288812
0.0400882
0.285433
-0.329947
0.288796
-0.520617
0.289076
-0.438687
0.301313
-0.345905
0.31049
0.316128
0.313102
0.594056
0.320582
0.437411
0.326576
0.300312
0.299541
-0.55877
0.306157
-0.955214
0.310218
0.279305
0.302928
0.812486
0.285394
0.0553802
0.278979
-0.339678
0.276061
-0.0454892
0.271593
0.115222
0.268469
0.0386862
0.265209
-0.0133115
0.26164
-0.00116962
0.258294
0.0105686
0.00773563
0.125094
0.14372
0.187362
0.132291
0.233224
0.0136274
0.255633
-0.162233
0.253896
-0.270761
0.234958
-0.318657
0.221008
-0.293126
0.192398
-0.274014
0.168721
-0.313538
0.185892
-0.233931
0.233254
-0.10936
0.261928
0.145111
0.263046
0.292432
0.264198
0.412779
0.266062
0.438248
0.273352
0.203766
0.286321
0.0271194
0.275228
-0.318854
0.275874
-0.521264
0.277944
-0.440757
0.290483
-0.358445
0.309772
0.29684
0.313882
0.589945
0.318947
0.432347
0.323603
0.295656
0.290629
-0.525796
0.291693
-0.956278
0.307869
0.263128
0.305868
0.814487
0.285958
0.0752902
0.276846
-0.330567
0.274561
-0.0432038
0.271687
0.118096
0.269126
0.0412471
0.265777
-0.00996302
0.262378
0.00222922
0.259405
0.0135423
0.0103733
0.186676
0.0884705
0.238331
0.0806355
0.274433
-0.0224744
0.281419
-0.169219
0.263446
-0.252788
0.234221
-0.289432
0.218188
-0.277093
0.190315
-0.246141
0.167895
-0.291118
0.187613
-0.253649
0.234093
-0.15584
0.265124
0.11408
0.262469
0.295087
0.257195
0.418053
0.258982
0.436461
0.267466
0.195281
0.279582
0.0150034
0.263549
-0.302821
0.26067
-0.518385
0.263547
-0.443634
0.276373
-0.37127
0.304115
0.269098
0.309642
0.584418
0.313163
0.428825
0.316038
0.292781
0.277118
-0.486877
0.274218
-0.953378
0.301662
0.235685
0.304847
0.811302
0.284078
0.0960598
0.272653
-0.319142
0.27119
-0.0417408
0.270031
0.119255
0.268259
0.043019
0.265073
-0.0067762
0.262095
0.00520727
0.259745
0.0158914
0.0125131
0.232051
0.0469031
0.274919
0.0377672
0.30105
-0.0486058
0.292075
-0.160243
0.260727
-0.22144
0.224633
-0.253337
0.208891
-0.261351
0.187393
-0.224643
0.159913
-0.263638
0.179349
-0.273085
0.231403
-0.207893
0.265445
0.0800379
0.262384
0.298148
0.254176
0.426261
0.254567
0.43607
0.26153
0.188319
0.270145
0.0063892
0.250485
-0.283162
0.242841
-0.510741
0.244926
-0.445719
0.258021
-0.384366
0.295176
0.231943
0.304286
0.575307
0.306041
0.427071
0.30541
0.293413
0.260663
-0.44213
0.254745
-0.947461
0.29326
0.19717
0.301693
0.802869
0.280235
0.117518
0.266714
-0.30562
0.266201
-0.041228
0.266756
0.1187
0.265932
0.0438431
0.263149
-0.00399356
0.260838
0.00751821
0.259348
0.0173817
0.0139518
0.278717
0.0209855
0.30785
0.00863431
0.315942
-0.0566977
0.291213
-0.135514
0.253459
-0.183686
0.214685
-0.214563
0.195365
-0.242031
0.183527
-0.212804
0.152794
-0.232905
0.155209
-0.2755
0.210793
-0.263477
0.257726
0.0331046
0.259023
0.296851
0.249002
0.436282
0.247837
0.437235
0.254071
0.182084
0.259116
0.00134472
0.235186
-0.259232
0.223134
-0.498689
0.22308
-0.445665
0.236964
-0.398249
0.280058
0.188849
0.292952
0.562414
0.295322
0.4247
0.291922
0.296812
0.243327
-0.393534
0.234602
-0.938736
0.280927
0.150845
0.294321
0.789474
0.273521
0.138318
0.259267
-0.291366
0.259716
-0.0416771
0.261961
0.116455
0.26223
0.0435739
0.260098
-0.00186169
0.258693
0.00892322
0.258268
0.0178067
0.0145044
0.31033
0.0101724
0.320906
-0.0019419
0.308612
-0.0444035
0.274074
-0.100977
0.237313
-0.146925
0.202677
-0.179927
0.179243
-0.218598
0.172926
-0.206487
0.149749
-0.209728
0.130018
-0.255769
0.17449
-0.307948
0.247269
-0.0396751
0.263626
0.280494
0.254979
0.444928
0.247146
0.445069
0.246101
0.183129
0.245527
0.00191914
0.218718
-0.232423
0.202313
-0.482284
0.198758
-0.44211
0.213369
-0.412861
0.263802
0.138416
0.281987
0.544229
0.284715
0.421972
0.277832
0.303696
0.226539
-0.342241
0.214629
-0.926826
0.267889
0.0975854
0.286197
0.771167
0.265346
0.159169
0.250935
-0.276956
0.252177
-0.0429185
0.255934
0.112698
0.257342
0.0421653
0.25608
-0.000598882
0.255782
0.00922124
0.256584
0.0170039
0.0140086
0.294928
0.00801726
0.295117
-0.00213127
0.278871
-0.0281578
0.249749
-0.0718542
0.21943
-0.116606
0.189903
-0.1504
0.16468
-0.193375
0.156424
-0.198231
0.14457
-0.197874
0.114135
-0.225335
0.131505
-0.325319
0.207986
-0.116156
0.249417
0.239064
0.253288
0.441058
0.241512
0.456845
0.237563
0.187078
0.23399
0.00549183
0.203422
-0.201855
0.180396
-0.459258
0.174932
-0.436646
0.188703
-0.426632
0.239807
0.0873115
0.264179
0.519857
0.271032
0.415119
0.26316
0.311568
0.211246
-0.290327
0.194776
-0.910357
0.251319
0.0410421
0.273744
0.748742
0.25517
0.177743
0.241572
-0.263357
0.243655
-0.0450014
0.248804
0.107548
0.251453
0.0395166
0.251269
-0.000414662
0.252242
0.00824774
0.254386
0.0148607
0.0123232
0.493374
0.00404392
-0.489401
0.498843
-0.00760071
0.502237
-0.0315511
0.493398
-0.0630151
0.474935
-0.098143
0.455309
-0.130774
0.424295
-0.162361
0.394949
-0.168885
0.382733
-0.185658
0.345693
-0.188295
0.297889
-0.277514
0.303531
-0.121798
0.28403
0.258565
0.273696
0.451392
0.317176
0.413366
0.385465
0.118789
0.429492
-0.0385354
0.437675
-0.210038
0.408734
-0.430317
0.378186
-0.406098
0.333358
-0.381804
0.324204
0.0964647
0.334724
0.509338
0.379276
0.370566
0.428602
0.262242
0.412562
-0.274287
0.345392
-0.843187
0.35016
0.036275
0.383879
0.715023
0.397779
0.163843
0.381727
-0.247305
0.370491
-0.0337654
0.374178
0.10386
0.377717
0.0359781
0.37496
0.00234274
0.373275
0.00993261
0.373284
0.0148511
0.0134022
0.523594
0.00194824
-0.521498
0.525496
-0.00950319
0.524463
-0.0305182
0.516112
-0.0546643
0.497475
-0.0795059
0.473855
-0.107153
0.446248
-0.134754
0.40746
-0.130096
0.385291
-0.163489
0.356348
-0.159352
0.307187
-0.228353
0.280439
-0.0950507
0.265894
0.27311
0.299477
0.417808
0.380266
0.332576
0.449022
0.0500329
0.482535
-0.0720476
0.475585
-0.203088
0.431134
-0.385867
0.379544
-0.354507
0.333411
-0.33567
0.32169
0.108185
0.338075
0.492953
0.403304
0.305338
0.466051
0.199495
0.435943
-0.24418
0.358452
-0.765695
0.36294
0.0317869
0.405245
0.672717
0.42567
0.143418
0.408497
-0.230132
0.39531
-0.0205778
0.400541
0.0986286
0.405501
0.0310188
0.40336
0.00448296
0.402383
0.0109101
0.403194
0.0140401
0.0140406
0.555248
0.000504791
-0.553805
0.556872
-0.0111272
0.553628
-0.0272733
0.545973
-0.0470095
0.53449
-0.0680229
0.511161
-0.0838244
0.49047
-0.114064
0.465475
-0.105101
0.433875
-0.131889
0.391588
-0.117065
0.323915
-0.16068
0.275741
-0.0468765
0.278708
0.270143
0.368598
0.327918
0.472516
0.228658
0.521682
0.000866691
0.533863
-0.0842285
0.520537
-0.189762
0.461409
-0.326739
0.381891
-0.274989
0.321468
-0.275247
0.309292
0.120362
0.345642
0.456603
0.433628
0.217352
0.508332
0.124791
0.470582
-0.20643
0.369762
-0.664875
0.369567
0.0319816
0.42646
0.615824
0.455611
0.114267
0.435959
-0.21048
0.421369
-0.00598705
0.428259
0.0917385
0.434259
0.0250185
0.432706
0.00603609
0.432504
0.0111125
0.434231
0.0123124
0.014
0.59059
-0.00066124
-0.589424
0.589644
-0.0101807
0.586617
-0.0242471
0.577156
-0.0375477
0.563832
-0.0546988
0.546066
-0.0660592
0.520968
-0.0889653
0.495572
-0.0797049
0.471767
-0.108084
0.43777
-0.0830684
0.378676
-0.101586
0.331727
7.27515e-05
0.372075
0.229795
0.480728
0.219265
0.56983
0.139556
0.592285
-0.0215886
0.57645
-0.0683932
0.549559
-0.162871
0.480482
-0.257661
0.387619
-0.182126
0.305174
-0.192803
0.296193
0.129343
0.370278
0.382517
0.46864
0.11899
0.546799
0.0466318
0.504097
-0.163729
0.373849
-0.534626
0.364324
0.0415064
0.45106
0.529088
0.490897
0.0744291
0.463846
-0.183429
0.44685
0.0110097
0.456662
0.0819264
0.463934
0.0177465
0.463066
0.00690373
0.463756
0.0104224
0.466546
0.00952286
0.0129582
0.628822
-0.00102826
-0.628455
0.627611
-0.00896984
0.622895
-0.019531
0.61535
-0.0300031
0.604138
-0.043487
0.5891
-0.051021
0.569425
-0.0692899
0.547947
-0.0582269
0.521891
-0.0820286
0.488361
-0.049538
0.447578
-0.060803
0.432993
0.0146569
0.50118
0.161608
0.58604
0.134405
0.636669
0.0889279
0.639118
-0.0240377
0.619951
-0.0492261
0.594437
-0.137357
0.5268
-0.190025
0.44284
-0.0981663
0.349371
-0.0993332
0.341315
0.137399
0.441301
0.282531
0.5214
0.0388919
0.590858
-0.0228267
0.550816
-0.123686
0.391118
-0.374928
0.375531
0.0570928
0.497129
0.407491
0.537791
0.033767
0.495667
-0.141305
0.476465
0.0302119
0.49125
0.0671415
0.499114
0.00988169
0.497908
0.00811072
0.499101
0.00922936
0.502604
0.00601938
0.0109559
0.671264
-0.000788592
-0.671504
0.669849
-0.00755527
0.665581
-0.0152631
0.658715
-0.0231368
0.648338
-0.0331097
0.634596
-0.0372791
0.616595
-0.0512894
0.598989
-0.0406208
0.577577
-0.0606168
0.556992
-0.0289531
0.533214
-0.0370245
0.531492
0.0163788
0.594638
0.0984618
0.652007
0.0770367
0.682053
0.0588819
0.674795
-0.0167804
0.652396
-0.0268267
0.626752
-0.111713
0.568803
-0.132076
0.517226
-0.0465889
0.451793
-0.0339002
0.461883
0.127309
0.560716
0.183699
0.595991
0.00361652
0.634136
-0.0609716
0.603105
-0.0926554
0.439781
-0.211604
0.425424
0.0714492
0.563668
0.269247
0.594527
0.00290875
0.538844
-0.0856228
0.521849
0.0472075
0.541674
0.047316
0.547521
0.0040353
0.54457
0.0110611
0.545692
0.00810786
0.548711
0.00300011
0.00890816
0.719107
-0.000337478
-0.719558
0.717664
-0.00611315
0.713452
-0.0110504
0.70731
-0.0169955
0.698479
-0.0242786
0.687393
-0.0261928
0.673634
-0.0375306
0.659904
-0.026891
0.642956
-0.0436684
0.629241
-0.0152385
0.616051
-0.023834
0.618842
0.0135875
0.664846
0.052458
0.69733
0.0445524
0.716453
0.0397588
0.718959
-0.0192861
0.703799
-0.0116667
0.675558
-0.0834724
0.622
-0.0785174
0.599132
-0.0237205
0.574722
-0.00949055
0.599328
0.102702
0.681549
0.101477
0.682521
0.00264483
0.68066
-0.0591109
0.663935
-0.0759297
0.54084
-0.0885098
0.52944
0.0828496
0.645819
0.152868
0.663003
-0.0142754
0.607161
-0.0297801
0.596077
0.0582911
0.615552
0.0278413
0.616822
0.00276537
0.611844
0.0160385
0.611929
0.00802358
0.612657
0.0022721
0.00838246
0.773091
0.000224041
-0.773652
0.771311
-0.0043339
0.767828
-0.0075672
0.762568
-0.0117357
0.755575
-0.0172849
0.746772
-0.0173897
0.735876
-0.026635
0.72572
-0.0167355
0.71266
-0.0306077
0.704716
-0.00729454
0.698579
-0.0176974
0.701275
0.0108914
0.728675
0.0250579
0.750515
0.0227128
0.763655
0.0266193
0.761792
-0.017424
0.752008
-0.00188181
0.731629
-0.0630937
0.694592
-0.0414809
0.686727
-0.0158551
0.681549
-0.00431277
0.706712
0.07754
0.759027
0.0491625
0.749833
0.0118382
0.733258
-0.0425352
0.721212
-0.0638835
0.652532
-0.0198303
0.656755
0.0786271
0.730685
0.0789377
0.731231
-0.0148216
0.690256
0.0111944
0.689121
0.0594259
0.703048
0.0139143
0.700128
0.00568603
0.695253
0.0209134
0.694445
0.00883091
0.692768
0.00394982
0.00969795
0.833401
0.00075601
-0.833933
0.831693
-0.00262594
0.828973
-0.00484751
0.824684
-0.00744649
0.819247
-0.0118484
0.81256
-0.0107021
0.804424
-0.0184992
0.797323
-0.00963423
0.788157
-0.021442
0.783796
-0.00293335
0.779571
-0.0134722
0.783044
0.00741808
0.797763
0.0103388
0.810222
0.0102536
0.819691
0.0171502
0.819596
-0.0173284
0.814036
0.00367777
0.796476
-0.0455332
0.773319
-0.018324
0.769219
-0.0117549
0.768825
-0.00391936
0.790612
0.0557532
0.82206
0.0177142
0.81629
0.0176081
0.79844
-0.0246853
0.780422
-0.0458649
0.752768
0.00782386
0.773718
0.0576762
0.809885
0.042771
0.798236
-0.00317203
0.778587
0.030843
0.78657
0.0514432
0.793025
0.00745935
0.788051
0.0106593
0.785299
0.0236662
0.784185
0.0099444
0.781428
0.00670703
0.0117928
0.901038
0.00117091
-0.901453
0.899531
-0.0011191
0.897454
-0.00277027
0.894174
-0.00416711
0.890024
-0.00769838
0.885376
-0.0060535
0.879259
-0.0123823
0.874787
-0.00516267
0.867926
-0.0145806
0.865903
-0.000910206
0.862611
-0.0101806
0.865655
0.00437439
0.872744
0.00324997
0.879998
0.00299875
0.886738
0.0104106
0.883895
-0.0144857
0.882254
0.0053191
0.86853
-0.0318091
0.856582
-0.00637623
0.853822
-0.00899445
0.853243
-0.00334072
0.87019
0.0388065
0.884472
0.00343159
0.883587
0.0184928
0.872612
-0.0137096
0.856125
-0.029378
0.84749
0.0164586
0.86673
0.0384362
0.881457
0.0280445
0.871465
0.0068191
0.868324
0.0339844
0.878003
0.0417638
0.877871
0.00759126
0.874238
0.0142928
0.874589
0.0233154
0.87336
0.0111727
0.870788
0.00927949
0.013397
0.976476
0.00150601
-0.976811
0.975285
7.18166e-05
0.973714
-0.00119916
0.971391
-0.00184396
0.968266
-0.00457385
0.965232
-0.00301951
0.96063
-0.00777947
0.958005
-0.00253827
0.952831
-0.00940634
0.952222
-0.000301041
0.949136
-0.00709467
0.95157
0.00193984
0.954558
0.000262713
0.957816
-0.000259447
0.962521
0.00570548
0.959205
-0.0111694
0.959989
0.00453448
0.949114
-0.0209337
0.943873
-0.00113493
0.940811
-0.00593238
0.939567
-0.0020967
0.953218
0.0251554
0.958014
-0.00136457
0.96094
0.0155669
0.95356
-0.00632967
0.938879
-0.0146975
0.938806
0.0165323
0.952842
0.0243994
0.959144
0.0217432
0.952656
0.0133066
0.956024
0.030617
0.964558
0.0332295
0.962057
0.0100917
0.960598
0.0157523
0.962748
0.0211651
0.961467
0.0124535
0.959642
0.0111049
0.0140687
1.06008
0.00173881
-1.06031
1.05923
0.000926256
1.05808
-5.433e-05
1.05658
-0.000347308
1.05427
-0.002257
1.05243
-0.00118413
1.04901
-0.00435904
1.0476
-0.00112624
1.04373
-0.00553287
1.04361
-0.000186755
1.04102
-0.00450825
1.04243
0.000532024
1.04345
-0.000752331
1.04459
-0.00140347
1.04764
0.00265544
1.04403
-0.00756075
1.04571
0.00285712
1.03728
-0.0125029
1.03586
0.000285144
1.03317
-0.0032473
1.03219
-0.00111213
1.04179
0.015555
1.04156
-0.00113627
1.0454
0.0117318
1.04058
-0.00151111
1.03146
-0.00558036
1.03387
0.0141289
1.04096
0.0173046
1.04489
0.0178109
1.04238
0.0158197
1.04721
0.0257904
1.05383
0.0266097
1.05107
0.0128441
1.0511
0.0157277
1.0538
0.0184668
1.05273
0.0135223
1.05159
0.0122382
0.0141265
1.15241
0.00187223
-1.15254
1.1519
0.00142958
1.15109
0.000757902
1.15018
0.000568132
1.14856
-0.000635993
1.14748
-0.000108287
1.14507
-0.00195026
1.14427
-0.000329765
1.1415
-0.00275984
1.14146
-0.000147766
1.13939
-0.00244011
1.14003
-0.000108647
1.14005
-0.000770188
1.14004
-0.00138895
1.14173
0.000965084
1.13868
-0.00451023
1.14025
0.00128471
1.13438
-0.00662851
1.13442
0.000245318
1.13226
-0.00109217
1.13139
-0.00023679
1.13764
0.00930402
1.13607
0.000434978
1.1399
0.00789517
1.13631
0.00207821
1.13093
-0.000199586
1.13339
0.0116729
1.13712
0.0135695
1.14082
0.0141114
1.14002
0.0166252
1.14429
0.0215144
1.14954
0.0213586
1.14765
0.0147419
1.1484
0.0149707
1.15087
0.0160015
1.15019
0.0142053
1.14962
0.0128031
0.0138718
1.25406
0.00191638
-1.25411
1.25381
0.00168588
1.25331
0.00125902
1.25278
0.00109011
1.25172
0.000429911
1.25108
0.000531107
1.24948
-0.000350869
1.24899
0.00015978
1.24711
-0.000874282
1.24698
-2.52329e-05
1.24544
-0.000894111
1.24557
-0.000239468
1.24514
-0.000341211
1.24469
-0.000938643
1.24541
0.000239242
1.24313
-0.00223051
1.24417
0.000244393
1.24026
-0.00271756
1.24068
-0.000167829
1.23907
0.00051279
1.23859
0.000240396
1.2422
0.00570053
1.24059
0.00204116
1.24337
0.00511928
1.24098
0.00446734
1.23874
0.00203671
1.24074
0.00967372
1.24237
0.0119375
1.24553
0.010952
1.24602
0.0161376
1.24984
0.0176973
1.25393
0.0172628
1.2529
0.0157768
1.25404
0.0138316
1.25609
0.0139462
1.25588
0.0144169
1.25584
0.0128457
0.0134003
1.36574
0.00186905
-1.36569
1.36566
0.00177083
1.3654
0.00151284
1.36513
0.00135975
1.3645
0.00106455
1.36413
0.000900443
1.36313
0.000646896
1.36281
0.000486623
1.36158
0.000350063
1.36141
0.000146376
1.36029
0.0002254
1.36017
-0.000121795
1.3596
0.000227321
1.35906
-0.000397976
1.3592
9.84024e-05
1.35759
-0.000620316
1.35815
-0.000307863
1.35566
-0.000232084
1.35606
-0.000565615
1.35493
0.00164467
1.35468
0.000490917
1.3566
0.00378073
1.35546
0.00317242
1.35746
0.0031195
1.35602
0.00591424
1.35521
0.00283994
1.35667
0.00821659
1.3578
0.0108085
1.36046
0.00828716
1.36146
0.0151402
1.36468
0.0144773
1.36806
0.0138861
1.36794
0.0158947
1.36917
0.0126051
1.37078
0.0123307
1.37106
0.0141355
1.37151
0.0124004
0.0127552
1.48826
0.00175118
-1.48814
1.48828
0.00174114
1.48821
0.00158676
1.48811
0.00146409
1.48779
0.00138246
1.48759
0.00110063
1.48703
0.00121032
1.4868
0.000709245
1.48606
0.00109288
1.48587
0.000337796
1.48512
0.000974157
1.48491
9.05092e-05
1.48438
0.000750498
1.48391
8.08796e-05
1.48376
0.000242797
1.48271
0.000429651
1.48289
-0.000483234
1.48141
0.00124355
1.48163
-0.000784691
1.4809
0.00237881
1.48083
0.000560529
1.48177
0.00283611
1.48119
0.0037536
1.48243
0.00187676
1.4817
0.00664962
1.48178
0.00276114
1.48284
0.00714891
1.48383
0.00982
1.48593
0.0061889
1.48723
0.013843
1.4901
0.0116069
1.49289
0.0110887
1.4935
0.0152871
1.49469
0.0114225
1.49606
0.010955
1.49684
0.013361
1.49764
0.0115934
0.0119057
1.6225
0.0015806
-1.62233
1.62262
0.00162762
1.62267
0.00153229
1.62268
0.00145228
1.62259
0.0014791
1.62251
0.00118113
1.62225
0.00146329
1.62211
0.000848621
1.62173
0.00147612
1.62156
0.000512287
1.62111
0.00141584
1.6209
0.000309024
1.62051
0.00113755
1.62015
0.000439301
1.61992
0.000478
1.61931
0.0010369
1.61924
-0.000418653
1.61849
0.00199401
1.61852
-0.000807516
1.61817
0.00272173
1.61817
0.000567888
1.61864
0.00235924
1.61852
0.00387197
1.61922
0.00117832
1.61915
0.0067182
1.61945
0.00246908
1.62026
0.00633577
1.62139
0.00869091
1.62301
0.00456577
1.62459
0.0122671
1.62709
0.00910535
1.62942
0.00876136
1.63057
0.014132
1.63167
0.0103277
1.63298
0.00964117
1.63429
0.0120504
1.63535
0.0105374
0.0109354
1.76952
0.00137153
-1.76931
1.7697
0.00144749
1.76985
0.00138745
1.76995
0.00135188
1.77001
0.00141692
1.77002
0.00117119
1.76999
0.00148764
1.76992
0.00092423
1.76981
0.00158047
1.76967
0.000660005
1.76949
0.00158786
1.76929
0.0005085
1.76909
0.00134514
1.76885
0.000673538
1.76863
0.000700713
1.76839
0.00128042
1.76817
-0.00020183
1.768
0.00216476
1.76784
-0.000648945
1.7679
0.00266581
1.76792
0.000542338
1.76822
0.00206409
1.76852
0.00356597
1.76874
0.000962713
1.76922
0.00623711
1.76945
0.00223733
1.77016
0.00562537
1.77146
0.00739668
1.77259
0.00343081
1.77457
0.0102917
1.77683
0.00683835
1.77877
0.00682239
1.78028
0.0126248
1.78114
0.00946357
1.78256
0.00822874
1.7845
0.0101034
1.78573
0.00931334
0.00986624
1.93037
0.00114556
-1.93015
1.93061
0.00121188
1.93081
0.00118066
1.93099
0.00117848
1.93118
0.00122805
1.93126
0.00109055
1.93144
0.00130616
1.93141
0.000956762
1.93158
0.00140128
1.93144
0.00080342
1.93159
0.00143643
1.93139
0.000711238
1.93145
0.00128789
1.93131
0.000810314
1.93117
0.000844244
1.93125
0.00119393
1.93085
0.000203845
1.93125
0.00176416
1.93073
-0.000126797
1.93129
0.00210371
1.93115
0.00068125
1.93143
0.00178763
1.93216
0.00283211
1.93183
0.00129633
1.93317
0.00488904
1.93302
0.0023942
1.93393
0.0047149
1.93556
0.00576919
1.93588
0.0031031
1.93856
0.00761227
1.94026
0.00514394
1.94156
0.00552338
1.94392
0.0102606
1.94469
0.00869307
1.94609
0.00683009
1.94857
0.00762099
1.94991
0.00797774
0.00870131
2.10643
0.00090493
-2.10619
2.10669
0.00094865
2.10694
0.000933273
2.10716
0.000950922
2.10743
0.000962368
2.10759
0.000926661
2.1079
0.00100371
2.10797
0.000879873
2.10832
0.00105475
2.10831
0.000817186
2.10866
0.00108163
2.1086
0.000768886
2.10886
0.00103075
2.10888
0.00079077
2.10888
0.000844711
2.10914
0.000937946
2.10877
0.000572415
2.10933
0.0012039
2.10876
0.000443371
2.10941
0.00144845
2.10923
0.000858454
2.10952
0.00150575
2.11038
0.00196973
2.1101
0.0015747
2.1118
0.00318827
2.11184
0.00235228
2.11306
0.00349585
2.11477
0.00406083
2.11483
0.00304321
2.11736
0.00508713
2.11837
0.00413097
2.11922
0.00466873
2.12235
0.00713898
2.12411
0.00693249
2.12539
0.00554553
2.12733
0.00567743
2.12889
0.00642209
0.00705497
2.29932
0.000633779
-2.29905
2.2996
0.000664975
2.29988
0.000654325
2.30015
0.000677606
2.30045
0.000671139
2.3007
0.00067596
2.30101
0.00069083
2.30123
0.00066163
2.30157
0.000715262
2.30175
0.00063532
2.3021
0.000733365
2.30226
0.000608993
2.30256
0.000728241
2.30274
0.000609137
2.30291
0.00067542
2.30318
0.000669285
2.30316
0.000593295
2.30355
0.000810439
2.30343
0.000566313
2.30389
0.000991297
2.30398
0.000764824
2.30435
0.00113697
2.30503
0.00128606
2.30532
0.00129131
2.30657
0.00193504
2.30719
0.00173318
2.30839
0.002295
2.30983
0.00261507
2.31049
0.00238258
2.31227
0.00331197
2.31336
0.00303706
2.31454
0.00348939
2.31728
0.00440082
2.31973
0.00448757
2.32123
0.00403844
2.32276
0.00415512
2.32465
0.00453275
0.00493164
2.51054
0.000331688
-2.51024
2.51086
0.000347355
2.51117
0.000343415
2.51149
0.000358252
2.51181
0.000351786
2.51212
0.000363408
2.51245
0.000359569
2.51275
0.000363239
2.5131
0.000368629
2.51338
0.000356633
2.51373
0.000376972
2.51399
0.000346324
2.51434
0.000382365
2.51461
0.000341473
2.51491
0.000378693
2.51522
0.000356016
2.51544
0.000370177
2.51584
0.000409408
2.51603
0.000379838
2.51652
0.000501829
2.51683
0.000458407
2.51735
0.000615028
2.51799
0.000647849
2.51853
0.000746609
2.51955
0.000919504
2.52032
0.000956327
2.52146
0.001158
2.52277
0.00130041
2.52383
0.00132286
2.5255
0.00164202
2.52692
0.00162416
2.52853
0.00187609
2.53079
0.00214405
2.53299
0.00228314
2.53489
0.00214394
2.53685
0.00218689
2.53899
0.00239426
0.00260068
2.74189
-2.74155
2.74223
2.74258
2.74294
2.74329
2.74365
2.74401
2.74437
2.74474
2.7451
2.74548
2.74582
2.7462
2.74655
2.74692
2.74728
2.74765
2.74806
2.74844
2.74894
2.7494
2.75001
2.75066
2.75141
2.75233
2.75329
2.75444
2.75574
2.75707
2.75871
2.76033
2.76221
2.76435
2.76664
2.76878
2.77097
2.77336
0.426826
0.0463804
-0.419696
0.434871
0.0756345
0.44241
0.106218
0.450914
0.135368
0.459055
0.164611
0.469059
0.193185
0.479315
0.219865
0.248104
0.459799
0.0401235
-0.453542
0.467154
0.0682791
0.474451
0.0989212
0.482624
0.127195
0.491662
0.155573
0.500775
0.184072
0.51149
0.20915
0.238097
0.496626
0.0347285
-0.491231
0.502842
0.062063
0.509523
0.0922402
0.516464
0.120253
0.524507
0.14753
0.532689
0.17589
0.542356
0.199483
0.226648
0.536187
0.0298556
-0.531314
0.541475
0.0567752
0.547366
0.0863495
0.553905
0.113714
0.561046
0.140389
0.56968
0.167257
0.578784
0.190378
0.216008
0.579546
0.0257877
-0.575479
0.584131
0.0521903
0.589503
0.0809782
0.59579
0.107426
0.602663
0.133516
0.610633
0.159287
0.618919
0.182092
0.206472
0.626919
0.0222718
-0.623403
0.630998
0.0481112
0.635862
0.076114
0.641558
0.101731
0.64766
0.127414
0.654774
0.152173
0.662378
0.174488
0.197346
0.678809
0.0193011
-0.675838
0.682259
0.044661
0.68644
0.0719335
0.691367
0.0968026
0.696803
0.121979
0.703632
0.145345
0.710945
0.167175
0.188733
0.735376
0.0169509
-0.733025
0.738247
0.0417894
0.74197
0.0682112
0.746639
0.0921328
0.752154
0.116464
0.758726
0.138773
0.765623
0.160278
0.180704
0.797536
0.0150212
-0.795606
0.800164
0.0391615
0.803837
0.064538
0.80832
0.0876496
0.813497
0.111287
0.819473
0.132796
0.82619
0.153561
0.172962
0.865858
0.0133951
-0.864232
0.868233
0.0367862
0.871672
0.0610997
0.875784
0.0835374
0.880866
0.106204
0.886865
0.126797
0.893773
0.146653
0.165282
0.940701
0.0120539
-0.93936
0.942873
0.0346146
0.946257
0.0577152
0.950456
0.0793389
0.955828
0.100832
0.961961