/*--------------------------------*- C++ -*----------------------------------*\
| =========                 |                                                 |
| \\      /  F ield         | OpenFOAM: The Open Source CFD Toolbox           |
|  \\    /   O peration     | Version:  2512                                  |
|   \\  /    A nd           | Website:  www.openfoam.com                      |
|    \\/     M anipulation  |                                                 |
\*---------------------------------------------------------------------------*/
FoamFile
{
    version     2.0;
    format      ascii;
    arch        "LSB;label=32;scalar=64";
    class       surfaceScalarField;
    location    "62";
    object      phi;
}
// * * * * * * * * * * * * * * * * * * * * * * * * * * * * * * * * * * * * * //

dimensions      [0 3 -1 0 0 0 0];

oriented        oriented;

internalField   nonuniform List<scalar> 
19380
(
0.874544
-4.18402e-05
0.874666
-0.000121583
0.874863
-0.000196657
0.875132
-0.000268851
0.87547
-0.000338802
0.875877
-0.000406236
0.876347
-0.000470353
0.876877
-0.000529616
0.877459
-0.00058269
0.878088
-0.00062862
0.878755
-0.000666918
0.879452
-0.000697542
0.880173
-0.000720785
0.88091
-0.000737159
0.881658
-0.000747286
0.882409
-0.00075183
0.883161
-0.000751446
0.883908
-0.000746761
0.884646
-0.00073836
0.885373
-0.000726784
0.886085
-0.000712534
0.886781
-0.000696063
0.887459
-0.000677784
0.888117
-0.000658061
0.888754
-0.000637222
0.88937
-0.00061555
0.889963
-0.000593299
0.890534
-0.000570687
0.891082
-0.000547906
0.891607
-0.000525127
0.892109
-0.000502462
0.892589
-0.000479985
0.893047
-0.000457806
0.893483
-0.000436028
0.893898
-0.000414734
0.894292
-0.000393988
0.894666
-0.000373843
0.89502
-0.000354343
0.895356
-0.000335519
-0.000317444
0.895673
0.844004
-8.18545e-05
0.84412
-0.000237923
0.844308
-0.00038495
0.844566
-0.000526504
0.844891
-0.00066386
0.845281
-0.000796441
0.845733
-0.000922732
0.846243
-0.00103966
0.846805
-0.00114457
0.847412
-0.00123556
0.848057
-0.00131165
0.848732
-0.00137271
0.849431
-0.0014193
0.850146
-0.0014524
0.850872
-0.0014732
0.851603
-0.00148298
0.852335
-0.00148303
0.853062
-0.00147456
0.853783
-0.00145871
0.854493
-0.00143654
0.855189
-0.00140904
0.85587
-0.00137708
0.856534
-0.00134147
0.857179
-0.00130294
0.857804
-0.00126212
0.858408
-0.00121959
0.85899
-0.00117583
0.859551
-0.00113129
0.860089
-0.00108635
0.860605
-0.00104135
0.861099
-0.000996524
0.861571
-0.000952029
0.862022
-0.000908083
0.862451
-0.000864898
0.862858
-0.000822636
0.863246
-0.000781436
0.863613
-0.000741406
0.863962
-0.00070264
0.864291
-0.000665203
-0.000629238
0.864603
0.814529
-0.000119704
0.814639
-0.000348056
0.814817
-0.000563522
0.815062
-0.000771467
0.815372
-0.000973849
0.815745
-0.00116953
0.816179
-0.00135644
0.816669
-0.00152993
0.817211
-0.00168604
0.817797
-0.00182187
0.818422
-0.00193592
0.819077
-0.00202795
0.819756
-0.00209869
0.820453
-0.00214955
0.821162
-0.00218225
0.821878
-0.00219864
0.822596
-0.00220057
0.823311
-0.00218981
0.82402
-0.00216801
0.82472
-0.00213672
0.825409
-0.00209738
0.826083
-0.00205126
0.826741
-0.00199957
0.827381
-0.00194335
0.828003
-0.00188356
0.828604
-0.00182102
0.829185
-0.0017565
0.829744
-0.00169064
0.830282
-0.00162402
0.830798
-0.00155716
0.831292
-0.00149045
0.831764
-0.00142414
0.832214
-0.00135854
0.832643
-0.00129398
0.833051
-0.00123073
0.833439
-0.00116899
0.833806
-0.00110895
0.834155
-0.00105076
0.834484
-0.000994525
-0.000940466
0.834795
0.786083
-0.000155142
0.786186
-0.0004513
0.786354
-0.000731355
0.786585
-0.00100254
0.786879
-0.00126751
0.787234
-0.00152447
0.787648
-0.00177056
0.788118
-0.00199984
0.788639
-0.0022069
0.789205
-0.00238784
0.789809
-0.00254056
0.790446
-0.00266465
0.791108
-0.00276096
0.79179
-0.00283124
0.792485
-0.00287768
0.793189
-0.00290265
0.793897
-0.00290851
0.794605
-0.00289751
0.795309
-0.00287179
0.796005
-0.00283333
0.796692
-0.00278399
0.797366
-0.00272544
0.798026
-0.00265921
0.798669
-0.00258667
0.799295
-0.00250908
0.799901
-0.00242754
0.800488
-0.00234305
0.801053
-0.00225647
0.801598
-0.00216859
0.802121
-0.00208011
0.802622
-0.00199162
0.803101
-0.00190349
0.803559
-0.00181611
0.803995
-0.00172995
0.80441
-0.00164537
0.804803
-0.00156271
0.805177
-0.0014822
0.80553
-0.00140409
0.805864
-0.00132852
-0.00125582
0.806179
0.75863
-0.000187958
0.758726
-0.000547041
0.758882
-0.000887541
0.759098
-0.00121858
0.759374
-0.00154354
0.75971
-0.00186016
0.760103
-0.00216398
0.760552
-0.00244845
0.761052
-0.00270649
0.761597
-0.00293314
0.762182
-0.00312564
0.762801
-0.00328332
0.763447
-0.00340709
0.764114
-0.00349897
0.764798
-0.00356153
0.765493
-0.0035976
0.766195
-0.00360998
0.766899
-0.00360134
0.767601
-0.00357424
0.768299
-0.00353107
0.768989
-0.00347404
0.769669
-0.00340518
0.770336
-0.00332632
0.770988
-0.00323915
0.771624
-0.00314519
0.772243
-0.00304583
0.772842
-0.00294229
0.773421
-0.00283567
0.773979
-0.00272697
0.774516
-0.00261707
0.775031
-0.00250679
0.775525
-0.0023967
0.775996
-0.00228727
0.776445
-0.00217906
0.776872
-0.0020726
0.777278
-0.00196834
0.777662
-0.00186663
0.778026
-0.0017678
0.778369
-0.00167206
-0.00157985
0.778694
0.732136
-0.000217958
0.732224
-0.000634727
0.732367
-0.00103124
0.732567
-0.00141851
0.732824
-0.00180065
0.733139
-0.00217524
0.733511
-0.00253547
0.733937
-0.00287454
0.734414
-0.0031837
0.734938
-0.00345684
0.735503
-0.00369048
0.736103
-0.00388361
0.736733
-0.0040371
0.737387
-0.00415317
0.73806
-0.00423471
0.738748
-0.0042849
0.739445
-0.00430689
0.740147
-0.00430372
0.740851
-0.00427833
0.741553
-0.00423341
0.742251
-0.00417152
0.742941
-0.00409493
0.74362
-0.0040058
0.744287
-0.00390606
0.744939
-0.00379752
0.745575
-0.00368179
0.746193
-0.00356036
0.746792
-0.00343455
0.747371
-0.00330557
0.747928
-0.00317452
0.748464
-0.00304241
0.748977
-0.00291013
0.749468
-0.00277824
0.749937
-0.00264741
0.750382
-0.00251832
0.750806
-0.00239159
0.751207
-0.00226769
0.751586
-0.00214707
0.751944
-0.00203005
-0.00191718
0.752281
0.706567
-0.000244971
0.706646
-0.000713872
0.706776
-0.00116168
0.706959
-0.00160132
0.707196
-0.00203767
0.707489
-0.002468
0.707837
-0.0028838
0.708239
-0.00327659
0.708692
-0.00363698
0.709193
-0.00395748
0.709736
-0.00423375
0.710317
-0.00446435
0.71093
-0.00465007
0.71157
-0.00479326
0.712232
-0.00489704
0.712912
-0.00496481
0.713605
-0.00499999
0.714308
-0.00500593
0.715015
-0.00498585
0.715724
-0.00494273
0.716432
-0.00487933
0.717136
-0.00479816
0.717831
-0.00470161
0.718517
-0.00459184
0.719191
-0.00447093
0.719849
-0.00434069
0.720492
-0.00420284
0.721116
-0.00405892
0.721721
-0.0039104
0.722305
-0.00375859
0.722868
-0.00360475
0.723407
-0.00345001
0.723924
-0.00329521
0.724418
-0.0031411
0.724888
-0.00298851
0.725335
-0.00283826
0.725758
-0.00269098
0.726158
-0.00254729
0.726536
-0.00240761
-0.00227265
0.726891
0.68189
-0.000268846
0.68196
-0.000784052
0.682077
-0.00127815
0.682241
-0.00176608
0.682457
-0.00225335
0.682726
-0.00273694
0.683049
-0.00320731
0.683426
-0.00365289
0.683853
-0.00406448
0.684329
-0.00443311
0.684849
-0.00475348
0.685408
-0.00502364
0.686002
-0.00524426
0.686627
-0.00541776
0.687277
-0.00554733
0.687949
-0.00563649
0.688637
-0.00568888
0.68934
-0.00570807
0.690051
-0.00569751
0.690769
-0.00566029
0.691489
-0.00559934
0.692208
-0.00551731
0.692923
-0.00541678
0.693631
-0.00530012
0.69433
-0.00516957
0.695017
-0.00502715
0.695688
-0.00487478
0.696344
-0.00471423
0.696981
-0.0045472
0.697597
-0.00437528
0.698192
-0.00419995
0.698765
-0.0040226
0.699314
-0.00384443
0.69984
-0.00366636
0.70034
-0.00348932
0.700816
-0.00331439
0.701268
-0.00314238
0.701695
-0.00297413
0.702097
-0.00281017
-0.00265145
0.702476
0.658075
-0.000289461
0.658136
-0.0008449
0.658238
-0.00138008
0.658383
-0.00191191
0.658577
-0.00244663
0.65882
-0.0029808
0.659117
-0.00350376
0.659466
-0.00400182
0.659865
-0.00446408
0.660314
-0.00488144
0.660808
-0.0052472
0.661343
-0.00555895
0.661916
-0.00581719
0.662522
-0.00602431
0.663158
-0.00618343
0.66382
-0.0062981
0.664503
-0.00637211
0.665204
-0.00640919
0.66592
-0.00641287
0.666646
-0.00638627
0.667379
-0.00633235
0.668115
-0.00625384
0.668852
-0.00615347
0.669586
-0.00603369
0.670313
-0.00589689
0.671031
-0.0057452
0.671737
-0.00558075
0.672428
-0.00540552
0.673102
-0.00522145
0.673758
-0.00503039
0.674392
-0.00483409
0.675003
-0.00463421
0.675591
-0.00443229
0.676154
-0.00422959
0.676692
-0.00402718
0.677204
-0.00382634
0.67769
-0.00362813
0.678149
-0.00343366
0.678583
-0.00324362
-0.00305923
0.678991
0.635091
-0.000306717
0.635142
-0.00089615
0.635229
-0.00146698
0.635355
-0.00203808
0.635525
-0.00261655
0.635743
-0.00319828
0.63601
-0.00377134
0.63633
-0.00432115
0.636699
-0.00483372
0.637118
-0.0052999
0.637583
-0.00571203
0.638091
-0.00606722
0.638639
-0.00636578
0.639225
-0.00660985
0.639844
-0.00680236
0.640493
-0.00694684
0.641168
-0.00704723
0.641866
-0.00710727
0.642583
-0.00713046
0.643317
-0.00711975
0.644063
-0.0070781
0.644817
-0.00700821
0.645576
-0.00691286
0.646337
-0.0067945
0.647096
-0.00665556
0.647849
-0.00649823
0.648593
-0.00632481
0.649325
-0.00613745
0.650042
-0.00593835
0.650741
-0.00572961
0.65142
-0.00551323
0.652077
-0.00529121
0.65271
-0.00506538
0.653318
-0.00483751
0.6539
-0.00460882
0.654454
-0.00438087
0.654981
-0.00415492
0.65548
-0.00393246
0.655951
-0.00371434
-0.00350215
0.656394
0.61291
-0.000320546
0.612951
-0.00093764
0.613023
-0.00153846
0.613129
-0.00214402
0.613274
-0.00276232
0.613464
-0.00338824
0.613702
-0.00400864
0.613989
-0.00460827
0.614326
-0.00517133
0.614712
-0.00568581
0.615145
-0.00614483
0.615623
-0.00654506
0.616144
-0.00688644
0.616704
-0.00717062
0.617302
-0.00740031
0.617935
-0.00757904
0.618598
-0.00771083
0.61929
-0.00779929
0.620007
-0.00784768
0.620746
-0.00785871
0.621504
-0.00783522
0.622275
-0.0077798
0.623057
-0.00769516
0.623846
-0.00758357
0.624638
-0.00744743
0.625429
-0.0072889
0.626215
-0.00711041
0.626991
-0.00691423
0.627756
-0.00670279
0.628505
-0.0064784
0.629235
-0.00624337
0.629944
-0.00600002
0.630629
-0.0057505
0.631288
-0.00549708
0.631921
-0.00524137
0.632525
-0.00498516
0.6331
-0.00472994
0.633645
-0.00447763
0.63416
-0.00422931
-0.003987
0.634645
0.591503
-0.00033093
0.591535
-0.000969285
0.59159
-0.00159427
0.591676
-0.00222944
0.591797
-0.00288339
0.591958
-0.00354962
0.592164
-0.00421431
0.592417
-0.00486158
0.59272
-0.00547389
0.593071
-0.00603661
0.593468
-0.00654238
0.593912
-0.00698889
0.594401
-0.00737522
0.594933
-0.00770236
0.595505
-0.00797285
0.596116
-0.00819028
0.596764
-0.00835865
0.597446
-0.00848121
0.598159
-0.00856087
0.598901
-0.00859998
0.599667
-0.00860122
0.600454
-0.0085669
0.601258
-0.00849948
0.602075
-0.0084009
0.602901
-0.00827342
0.603731
-0.00811906
0.604561
-0.00794032
0.605387
-0.00773952
0.606203
-0.00751925
0.607007
-0.00728201
0.607794
-0.00703041
0.608561
-0.00676709
0.609305
-0.00649458
0.610023
-0.0062156
0.610714
-0.0059323
0.611376
-0.00564686
0.612007
-0.00536091
0.612606
-0.0050769
0.613173
-0.00479613
-0.00452124
0.613707
0.570844
-0.000337901
0.570865
-0.000991053
0.570905
-0.00163428
0.57097
-0.00229431
0.571066
-0.00297939
0.571198
-0.00368155
0.571371
-0.00438733
0.571589
-0.00507981
0.571854
-0.00573888
0.572167
-0.00634911
0.572526
-0.00690169
0.572933
-0.00739512
0.573385
-0.00782792
0.573883
-0.00820037
0.574425
-0.00851502
0.575011
-0.00877549
0.575638
-0.00898561
0.576304
-0.00914805
0.577009
-0.00926529
0.577748
-0.00933928
0.578519
-0.00937244
0.579319
-0.0093666
0.580143
-0.00932375
0.580988
-0.00924535
0.581848
-0.00913339
0.582718
-0.00898964
0.583595
-0.00881654
0.584471
-0.00861634
0.585344
-0.00839173
0.586207
-0.00814533
0.587057
-0.00788004
0.587889
-0.00759885
0.588699
-0.00730465
0.589484
-0.00700066
0.590241
-0.00668951
0.590968
-0.00637407
0.591663
-0.00605608
0.592325
-0.00573857
0.592952
-0.0054231
-0.00511304
0.593544
0.550906
-0.00034155
0.550918
-0.00100291
0.550942
-0.00165862
0.550987
-0.00233892
0.551057
-0.00305001
0.551159
-0.00378346
0.551299
-0.00452712
0.551481
-0.00526185
0.551707
-0.00596453
0.551977
-0.00661996
0.552295
-0.00721974
0.552661
-0.00776029
0.553073
-0.00824027
0.553532
-0.00865974
0.554039
-0.00902152
0.554592
-0.0093291
0.555193
-0.00958592
0.555839
-0.00979392
0.556529
-0.0099552
0.557261
-0.0100712
0.558032
-0.0101441
0.55884
-0.0101747
0.559681
-0.0101646
0.56055
-0.0101146
0.561443
-0.010026
0.562354
-0.00990048
0.563277
-0.0097401
0.564208
-0.0095469
0.56514
-0.00932358
0.566067
-0.00907281
0.566985
-0.00879772
0.567888
-0.00850164
0.568771
-0.00818783
0.56963
-0.00786003
0.570462
-0.00752128
0.571263
-0.00717539
0.572032
-0.00682429
0.572765
-0.00647164
0.573461
-0.0061192
-0.00577132
0.574119
0.531664
-0.000341999
0.531666
-0.00100475
0.531675
-0.00166777
0.5317
-0.00236374
0.531745
-0.00309505
0.531817
-0.00385535
0.531923
-0.00463365
0.532068
-0.00540671
0.532253
-0.00614916
0.53248
-0.00684723
0.532753
-0.00749287
0.533074
-0.00808099
0.533442
-0.00860808
0.533858
-0.00907562
0.534323
-0.00948693
0.534839
-0.00984513
0.535406
-0.0101531
0.536025
-0.0104122
0.536693
-0.0106239
0.537411
-0.0107894
0.538177
-0.01091
0.538989
-0.0109858
0.539841
-0.0110175
0.540732
-0.0110048
0.541654
-0.0109488
0.542604
-0.0108502
0.543575
-0.0107109
0.54456
-0.0105324
0.545554
-0.0103174
0.54655
-0.0100683
0.54754
-0.00978849
0.54852
-0.00948159
0.549484
-0.0091512
0.550425
-0.00880161
0.55134
-0.00843626
0.552225
-0.00805991
0.553075
-0.00767495
0.55389
-0.00728576
0.554665
-0.00689419
-0.00650582
0.555399
0.513094
-0.00033931
0.513086
-0.000996485
0.513081
-0.00166266
0.513087
-0.00236924
0.513106
-0.00311452
0.513149
-0.00389793
0.513222
-0.00470714
0.513329
-0.0055135
0.513471
-0.00629148
0.513653
-0.00702952
0.513879
-0.00771883
0.514152
-0.00835308
0.514471
-0.00892737
0.514839
-0.00944339
0.515257
-0.00990585
0.51573
-0.0103174
0.516257
-0.0106804
0.51684
-0.0109954
0.51748
-0.011264
0.518177
-0.0114863
0.51893
-0.011663
0.519737
-0.0117931
0.520596
-0.011876
0.521502
-0.0119108
0.522451
-0.0118975
0.523437
-0.0118361
0.524453
-0.0117277
0.525494
-0.0115731
0.526551
-0.0113747
0.527618
-0.0111348
0.528686
-0.0108569
0.529749
-0.0105445
0.5308
-0.0102018
0.531832
-0.00983343
0.532839
-0.00944335
0.533816
-0.00903722
0.534759
-0.00861806
0.535665
-0.00819127
0.536529
-0.00775858
-0.00732709
0.53735
0.495173
-0.000333345
0.495155
-0.000978187
0.495137
-0.00164467
0.495123
-0.0023556
0.495117
-0.00310899
0.495132
-0.00391266
0.495173
-0.00474784
0.495241
-0.0055816
0.49534
-0.00639087
0.495477
-0.00716587
0.495654
-0.00789596
0.495874
-0.00857346
0.49614
-0.00919361
0.496456
-0.00975873
0.496823
-0.0102731
0.497245
-0.0107395
0.497725
-0.0111605
0.498266
-0.011536
0.498869
-0.0118672
0.499536
-0.0121536
0.500268
-0.0123947
0.501063
-0.0125883
0.50192
-0.0127328
0.502835
-0.0128258
0.503804
-0.0128666
0.504822
-0.0128537
0.505881
-0.0127874
0.506976
-0.0126675
0.508097
-0.0124961
0.509237
-0.0122746
0.510387
-0.0120067
0.511538
-0.0116959
0.512683
-0.0113464
0.513813
-0.0109636
0.514921
-0.0105517
0.516002
-0.0101174
0.517048
-0.00966428
0.518056
-0.00919924
0.519021
-0.00872372
-0.00824657
0.51994
0.477877
-0.000323596
0.477849
-0.000950383
0.477819
-0.00161528
0.477787
-0.00232276
0.477758
-0.00308013
0.477746
-0.00390134
0.477754
-0.00475569
0.477784
-0.00561091
0.47784
-0.00644743
0.47793
-0.0072558
0.478057
-0.0080229
0.478224
-0.00874005
0.478433
-0.00940342
0.478692
-0.0100168
0.479002
-0.0105835
0.479368
-0.0111056
0.479794
-0.0115864
0.480284
-0.0120259
0.480842
-0.0124249
0.48147
-0.0127819
0.482171
-0.0130955
0.482944
-0.0133619
0.48379
-0.0135785
0.484706
-0.0137415
0.485688
-0.0138487
0.486731
-0.013897
0.487829
-0.0138856
0.488975
-0.013813
0.490159
-0.0136805
0.491373
-0.0134886
0.492607
-0.0132409
0.493852
-0.0129403
0.495097
-0.0125916
0.496333
-0.0122
0.497552
-0.0117707
0.498746
-0.0113109
0.499907
-0.0108249
0.501029
-0.0103215
0.502107
-0.00980185
-0.00927666
0.503137
0.461183
-0.000309017
0.461147
-0.000914371
0.461108
-0.00157571
0.461056
-0.00227079
0.461006
-0.00303084
0.46097
-0.00386533
0.460945
-0.00473053
0.460937
-0.00560227
0.460951
-0.00646178
0.460994
-0.00729929
0.46107
-0.00809876
0.461182
-0.00885129
0.461333
-0.00955469
0.46153
-0.0102138
0.461778
-0.0108317
0.462082
-0.0114098
0.462447
-0.0119515
0.462879
-0.0124572
0.463382
-0.012928
0.463961
-0.0133614
0.464621
-0.0137549
0.465362
-0.0141033
0.466186
-0.0144027
0.467092
-0.0146476
0.468078
-0.0148343
0.469139
-0.0149577
0.470269
-0.0150157
0.471461
-0.0150047
0.472705
-0.0149253
0.473993
-0.0147764
0.475313
-0.0145612
0.476655
-0.0142819
0.478007
-0.0139433
0.479357
-0.0135507
0.480697
-0.0131098
0.482014
-0.0126286
0.483301
-0.0121121
0.484551
-0.0115707
0.485755
-0.0110062
-0.0104308
0.486909
0.445071
-0.000287895
0.445029
-0.00087248
0.44498
-0.00152639
0.44491
-0.00220067
0.444844
-0.00296492
0.444783
-0.0038047
0.444725
-0.00467271
0.44468
-0.00555737
0.444653
-0.0064348
0.444651
-0.0072969
0.444675
-0.00812322
0.44473
-0.00890635
0.444822
-0.00964592
0.444955
-0.0103472
0.445137
-0.0110132
0.445373
-0.0116461
0.445671
-0.0122491
0.446036
-0.0128224
0.446475
-0.0133677
0.446996
-0.0138819
0.447603
-0.0143617
0.4483
-0.0148005
0.44909
-0.0151932
0.449975
-0.0155322
0.450953
-0.0158122
0.452021
-0.0160257
0.453174
-0.0161689
0.454405
-0.0162359
0.455706
-0.0162258
0.457065
-0.0161357
0.458472
-0.015968
0.459913
-0.0157234
0.461377
-0.015407
0.46285
-0.0150234
0.464319
-0.0145789
0.465772
-0.014082
0.467199
-0.0135387
0.468589
-0.0129608
0.469934
-0.0123512
-0.0117236
0.471227
0.429519
-0.000257729
0.429474
-0.00082834
0.429415
-0.00146661
0.429329
-0.00211513
0.42925
-0.00288565
0.429163
-0.00371813
0.429075
-0.00458405
0.428995
-0.00547828
0.428928
-0.00636761
0.428881
-0.00724995
0.428855
-0.00809643
0.428854
-0.00890532
0.428884
-0.00967629
0.428952
-0.0104152
0.429064
-0.0111252
0.429227
-0.0118097
0.429451
-0.0124727
0.429743
-0.0131141
0.43011
-0.0137352
0.430561
-0.0143332
0.431104
-0.0149042
0.431744
-0.0154408
0.432488
-0.0159364
0.433337
-0.0163815
0.434293
-0.0167688
0.435356
-0.0170883
0.436521
-0.0173338
0.437782
-0.017497
0.439131
-0.017575
0.440558
-0.0175621
0.442049
-0.0174598
0.443593
-0.0172665
0.445173
-0.0169873
0.446775
-0.0166253
0.448384
-0.0161879
0.449985
-0.0156831
0.451565
-0.0151185
0.45311
-0.0145066
0.454612
-0.0138528
-0.0131713
0.45606
0.414505
-0.000215055
0.414465
-0.000787501
0.414392
-0.00139403
0.414296
-0.00201932
0.414204
-0.00279378
0.41409
-0.00360429
0.413975
-0.00446807
0.413863
-0.00536668
0.413757
-0.00626196
0.413668
-0.00716044
0.41359
-0.00801889
0.413534
-0.00884947
0.413504
-0.00964548
0.413505
-0.0104169
0.413546
-0.0111658
0.413634
-0.0118975
0.413778
-0.0126169
0.413989
-0.0133246
0.414275
-0.0140221
0.414647
-0.0147051
0.415114
-0.0153707
0.415684
-0.0160108
0.416365
-0.0166177
0.417164
-0.0171802
0.418083
-0.0176885
0.419125
-0.0181302
0.420288
-0.0184965
0.421567
-0.0187758
0.422955
-0.0189629
0.424441
-0.0190487
0.426014
-0.0190329
0.427659
-0.018911
0.429359
-0.0186875
0.431097
-0.0183633
0.432856
-0.0179468
0.434618
-0.0174446
0.436366
-0.0168665
0.438084
-0.0162251
0.43976
-0.0155286
-0.0147921
0.441381
0.400012
-0.000155165
0.399983
-0.000758668
0.399892
-0.00130353
0.399794
-0.00192134
0.399686
-0.00268528
0.399546
-0.00346457
0.399407
-0.00432863
0.399264
-0.00522394
0.399122
-0.0061206
0.398993
-0.00703064
0.398865
-0.00789152
0.398757
-0.00874145
0.398665
-0.00955339
0.398602
-0.0103534
0.398569
-0.0111336
0.39858
-0.0119079
0.398641
-0.0126782
0.398765
-0.013448
0.398962
-0.0142196
0.399245
-0.0149878
0.399624
-0.0157495
0.400109
-0.0164968
0.400713
-0.0172215
0.401444
-0.0179111
0.402309
-0.0185534
0.403312
-0.0191336
0.404456
-0.0196397
0.405737
-0.0200568
0.40715
-0.0203763
0.408687
-0.0205854
0.410335
-0.020681
0.412079
-0.0206547
0.413901
-0.0205096
0.415781
-0.0202438
0.4177
-0.0198657
0.419636
-0.0193804
0.421569
-0.0187993
0.423479
-0.018135
0.425349
-0.017399
-0.016607
0.427164
0.386017
-7.21682e-05
0.386013
-0.000754313
0.385895
-0.00118612
0.385807
-0.00183236
0.385671
-0.00255003
0.385514
-0.00330694
0.385352
-0.00416651
0.385181
-0.00505314
0.385006
-0.00594627
0.384839
-0.00686317
0.384663
-0.00771571
0.384507
-0.0085853
0.384353
-0.00939969
0.384228
-0.0102277
0.384121
-0.0110274
0.384055
-0.0118413
0.38403
-0.0126533
0.384063
-0.0134809
0.384164
-0.0143204
0.384347
-0.0151709
0.384627
-0.0160294
0.385015
-0.016885
0.385525
-0.0177321
0.38617
-0.018556
0.386961
-0.0193438
0.387905
-0.0200778
0.389008
-0.020743
0.390272
-0.0213208
0.391694
-0.0217983
0.393267
-0.0221585
0.39498
-0.0223941
0.396818
-0.0224925
0.398762
-0.0224537
0.400791
-0.0222721
0.40288
-0.0219549
0.405005
-0.0215052
0.407141
-0.0209354
0.409263
-0.0202576
0.411351
-0.019487
-0.0186403
0.413385
0.372505
3.99418e-05
0.37254
-0.000789431
0.372383
-0.00102879
0.372317
-0.00176668
0.372139
-0.00237168
0.371981
-0.00314911
0.371789
-0.00397481
0.371599
-0.00486326
0.371391
-0.00573821
0.371191
-0.00666311
0.370968
-0.00749216
0.370769
-0.00838713
0.370553
-0.0091831
0.370372
-0.0100465
0.370188
-0.0108441
0.370049
-0.011702
0.369933
-0.0125378
0.369876
-0.013423
0.369873
-0.0143181
0.36995
-0.015248
0.370118
-0.0161973
0.370395
-0.017162
0.370797
-0.0181335
0.371337
-0.0190961
0.372032
-0.0200387
0.372894
-0.02094
0.373933
-0.0217826
0.375157
-0.0225442
0.376566
-0.0232071
0.378157
-0.0237494
0.379921
-0.0241583
0.381844
-0.0244157
0.383907
-0.0245171
0.386087
-0.0244519
0.388357
-0.0242246
0.390687
-0.0238352
0.393048
-0.023296
0.395408
-0.0226183
0.397742
-0.0218202
-0.0209207
0.400022
0.359459
0.000185423
0.359548
-0.000877967
0.359335
-0.000816276
0.359309
-0.00174093
0.359069
-0.00213121
0.358937
-0.00301678
0.358698
-0.00373667
0.358508
-0.00467321
0.358257
-0.00548689
0.358037
-0.00644298
0.357762
-0.00721689
0.357532
-0.00815773
0.357248
-0.00889918
0.357023
-0.00982159
0.356756
-0.0105767
0.356555
-0.0115012
0.35634
-0.0123229
0.356199
-0.0132814
0.356083
-0.0142024
0.356054
-0.0152188
0.356097
-0.0162401
0.356251
-0.0173161
0.356525
-0.0184075
0.356942
-0.0195129
0.357519
-0.020616
0.358274
-0.0216949
0.359223
-0.0227318
0.360378
-0.0236995
0.361747
-0.0245759
0.363332
-0.025334
0.365127
-0.0259536
0.367122
-0.0264106
0.369298
-0.0266932
0.371631
-0.0267848
0.374091
-0.0266844
0.376643
-0.0263879
0.379253
-0.0259053
0.381881
-0.0252467
0.384493
-0.0244323
-0.0234838
0.387056
0.346868
0.000363725
0.347017
-0.00102648
0.346737
-0.000536926
0.346766
-0.00176925
0.346449
-0.00181444
0.346368
-0.00293533
0.346061
-0.00342988
0.345897
-0.00450993
0.345583
-0.00517283
0.345367
-0.00622608
0.345027
-0.00687698
0.344786
-0.00791705
0.344423
-0.00853636
0.344175
-0.00957357
0.343809
-0.0102107
0.343569
-0.0112608
0.343236
-0.0119904
0.34303
-0.0130757
0.342781
-0.0139532
0.342658
-0.0150957
0.342555
-0.0161369
0.342587
-0.0173482
0.342707
-0.0185278
0.342987
-0.0197925
0.34342
-0.0210488
0.344043
-0.0223177
0.344871
-0.0235604
0.345927
-0.0247551
0.347223
-0.0258725
0.348771
-0.0268814
0.35057
-0.0277531
0.352616
-0.0284564
0.354893
-0.0289697
0.357376
-0.029268
0.360034
-0.0293421
0.362827
-0.0291814
0.365713
-0.0287908
0.368644
-0.0281786
0.371577
-0.027365
-0.0263741
0.374467
0.334724
0.000567335
0.334925
-0.00122827
0.33458
-0.000191848
0.334666
-0.00185491
0.334271
-0.00141936
0.334254
-0.00291886
0.333863
-0.00303886
0.333751
-0.0043977
0.333354
-0.00477527
0.333168
-0.00604076
0.332744
-0.00645276
0.33252
-0.0076929
0.332059
-0.00807542
0.331818
-0.00933264
0.331329
-0.00972225
0.331086
-0.0110168
0.330603
-0.0115082
0.330373
-0.0128457
0.329951
-0.0135314
0.329771
-0.0149152
0.32948
-0.015846
0.329415
-0.0172828
0.329339
-0.0184521
0.329486
-0.0199394
0.329728
-0.0212913
0.330205
-0.0227938
0.330871
-0.0242273
0.331796
-0.0256802
0.332981
-0.0270571
0.334455
-0.0283554
0.336224
-0.0295217
0.338291
-0.0305236
0.340647
-0.0313259
0.343271
-0.0318924
0.346131
-0.0322018
0.349183
-0.0322337
0.352376
-0.0319836
0.355653
-0.0314559
0.358957
-0.0306686
-0.0296478
0.362231
0.323016
0.000782415
0.32325
-0.00146218
0.322858
0.00020035
0.322987
-0.00198456
0.322529
-0.000960694
0.322571
-0.00296182
0.3221
-0.00256728
0.322046
-0.00434335
0.321559
-0.00428831
0.321422
-0.0059044
0.320901
-0.00593192
0.320717
-0.00750844
0.320141
-0.00749958
0.319937
-0.00912817
0.319301
-0.00908671
0.319094
-0.0108098
0.318424
-0.0108378
0.318225
-0.0126473
0.317574
-0.0128804
0.317404
-0.0147449
0.316852
-0.0152941
0.316756
-0.0171864
0.316403
-0.0180995
0.316467
-0.0200029
0.316433
-0.0212579
0.316783
-0.0231437
0.317208
-0.024652
0.317992
-0.0264641
0.318999
-0.0280643
0.320367
-0.0297235
0.322055
-0.0312093
0.324107
-0.0325763
0.326512
-0.0337306
0.329258
-0.0346389
0.332318
-0.0352619
0.335646
-0.0355608
0.339181
-0.0355188
0.342854
-0.0351296
0.346591
-0.0344049
-0.0333756
0.350319
0.311733
0.000992485
0.311969
-0.00169768
0.31156
0.000608654
0.311706
-0.00213031
0.311215
-0.000469697
0.311292
-0.00303856
0.310766
-0.00204116
0.310752
-0.00433016
0.310195
-0.00373036
0.3101
-0.00581018
0.309494
-0.00532549
0.30935
-0.00736414
0.308664
-0.00681404
0.308504
-0.00896786
0.307718
-0.00830109
0.307568
-0.0106593
0.30669
-0.0099602
0.306563
-0.0125202
0.305638
-0.0119557
0.305546
-0.0146525
0.304655
-0.0144035
0.304624
-0.0171553
0.30388
-0.0173558
0.303972
-0.0200943
0.303519
-0.0208051
0.30384
-0.0234645
0.303856
-0.0246678
0.304557
-0.0271657
0.305239
-0.0287461
0.30651
-0.0309944
0.308012
-0.0327115
0.310029
-0.0345927
0.312425
-0.0361272
0.315269
-0.0374824
0.318518
-0.0385108
0.322128
-0.0391713
0.326044
-0.0394348
0.330175
-0.0392609
0.334424
-0.0386531
-0.0376514
0.338699
0.300858
0.00118375
0.301063
-0.00190257
0.300674
0.000997546
0.300801
-0.00225735
0.300319
1.31426e-05
0.300391
-0.0031113
0.299852
-0.00150189
0.299845
-0.00432367
0.299255
-0.0031402
0.299174
-0.00572846
0.298517
-0.00466933
0.298386
-0.00723279
0.297627
-0.00605506
0.297484
-0.00882426
0.296585
-0.00740254
0.296465
-0.0105396
0.295413
-0.00890765
0.295341
-0.0124488
0.294157
-0.0107717
0.294151
-0.0146459
0.2929
-0.013153
0.29298
-0.0172353
0.291772
-0.0161473
0.291986
-0.0203081
0.290975
-0.019794
0.291411
-0.0239004
0.290803
-0.0240597
0.291599
-0.0279617
0.291657
-0.0288042
0.292978
-0.0323157
0.294008
-0.0337411
0.296057
-0.0366424
0.298275
-0.0383453
0.301232
-0.0404387
0.304624
-0.0419027
0.30852
-0.0430673
0.312857
-0.0437724
0.317508
-0.0439123
0.32238
-0.0435243
-0.0426065
0.327335
0.290371
0.00134898
0.29052
-0.00205096
0.290181
0.00133615
0.290258
-0.00233438
0.289823
0.000448574
0.289854
-0.00314223
0.289345
-0.000993253
0.289306
-0.00428516
0.28873
-0.00256364
0.288622
-0.00562025
0.287964
-0.00401144
0.287803
-0.00707202
0.287027
-0.00527869
0.286847
-0.00864447
0.285907
-0.00646236
0.285749
-0.0103816
0.28461
-0.00776889
0.28451
-0.0123495
0.283166
-0.0094273
0.283157
-0.0146371
0.281638
-0.0116336
0.281754
-0.0173514
0.280137
-0.0145309
0.280433
-0.020604
0.278853
-0.0182135
0.279423
-0.0244702
0.278081
-0.0227185
0.279071
-0.028951
0.278259
-0.0279924
0.279854
-0.0339108
0.279969
-0.0338559
0.282345
-0.0390187
0.283867
-0.0398675
0.287162
-0.0437331
0.29043
-0.0451714
0.294713
-0.04735
0.299484
-0.0485433
0.304706
-0.0491344
0.310369
-0.0491877
-0.048406
0.316169
0.280253
0.00148688
0.280328
-0.00212691
0.280062
0.00160285
0.280067
-0.00233998
0.279711
0.000805427
0.279671
-0.00310234
0.279228
-0.000550886
0.279127
-0.00418408
0.278602
-0.00203888
0.278436
-0.00545366
0.277818
-0.00339402
0.277591
-0.00684459
0.276851
-0.00453905
0.276582
-0.00837518
0.27568
-0.00555986
0.2754
-0.0101022
0.274292
-0.00666062
0.274042
-0.0120995
0.272695
-0.00808078
0.272521
-0.0144628
0.270926
-0.0100387
0.270882
-0.0173074
0.269068
-0.0127168
0.269232
-0.0207674
0.267278
-0.0162598
0.267773
-0.0249653
0.26583
-0.0207755
0.266852
-0.0299731
0.265178
-0.0263185
0.26699
-0.035723
0.265988
-0.0328531
0.26886
-0.041891
0.269114
-0.0401212
0.273209
-0.047828
0.275527
-0.0474896
0.280777
-0.0526003
0.285659
-0.053425
0.291661
-0.0551372
0.298345
-0.0558708
-0.0551735
0.305112
0.270488
0.0015977
0.270485
-0.00212407
0.270302
0.00178576
0.270228
-0.00226568
0.269967
0.00106603
0.26984
-0.0029753
0.269487
-0.000197935
0.269305
-0.00400202
0.268858
-0.00159144
0.268615
-0.00521048
0.268065
-0.00284473
0.267751
-0.00653035
0.267085
-0.00387292
0.266694
-0.00798383
0.265891
-0.00475682
0.265426
-0.00963755
0.264457
-0.00569128
0.263939
-0.0115821
0.262764
-0.00690538
0.262239
-0.0139378
0.260813
-0.00861311
0.260352
-0.0168464
0.258648
-0.0110129
0.258357
-0.0204762
0.256385
-0.0142877
0.25642
-0.0250008
0.254257
-0.0186122
0.254852
-0.0305677
0.252682
-0.024149
0.254241
-0.0372819
0.252362
-0.0309744
0.25539
-0.0449187
0.254319
-0.0390501
0.259233
-0.0527418
0.25989
-0.0481465
0.266816
-0.0595262
0.270607
-0.0572167
0.27867
-0.0631995
0.286203
-0.0634042
-0.0630373
0.294067
0.261068
0.00167843
0.260996
-0.0020517
0.260891
0.00189107
0.260742
-0.00211739
0.260574
0.00123428
0.260363
-0.00276446
0.260102
6.35528e-05
0.259839
-0.00373964
0.259474
-0.0012263
0.259156
-0.0048922
0.258679
-0.0023675
0.258285
-0.00613662
0.257693
-0.00328072
0.257195
-0.00748593
0.256491
-0.00405307
0.255858
-0.00900452
0.255044
-0.00487703
0.254254
-0.010792
0.253319
-0.0059709
0.252371
-0.0129897
0.251291
-0.00753263
0.250216
-0.0157714
0.248951
-0.0097486
0.247829
-0.0193539
0.246331
-0.0127902
0.245343
-0.0240123
0.243577
-0.0168462
0.243084
-0.0300746
0.241069
-0.0221343
0.241593
-0.0378054
0.239521
-0.0289023
0.241784
-0.0471823
0.240011
-0.0372771
0.244981
-0.0577119
0.244186
-0.0473516
0.252564
-0.0679039
0.254296
-0.0589481
0.265901
-0.0748049
0.272716
-0.0702197
-0.0738706
0.28355
0.25199
0.00171769
0.251857
-0.00191829
0.251818
0.00192931
0.251607
-0.00190659
0.251514
0.00132791
0.251237
-0.00248761
0.25105
0.000250811
0.250726
-0.00341628
0.250426
-0.000925915
0.250054
-0.00452067
0.249631
-0.00194432
0.249187
-0.00569242
0.248644
-0.00273769
0.248086
-0.00692816
0.247437
-0.00340387
0.246717
-0.00828426
0.245975
-0.00413536
0.245046