/*--------------------------------*- C++ -*----------------------------------*\
| =========                 |                                                 |
| \\      /  F ield         | OpenFOAM: The Open Source CFD Toolbox           |
|  \\    /   O peration     | Version:  2512                                  |
|   \\  /    A nd           | Website:  www.openfoam.com                      |
|    \\/     M anipulation  |                                                 |
\*---------------------------------------------------------------------------*/
FoamFile
{
    version     2.0;
    format      ascii;
    arch        "LSB;label=32;scalar=64";
    class       volVectorField;
    location    "29";
    object      U;
}
// * * * * * * * * * * * * * * * * * * * * * * * * * * * * * * * * * * * * * //

dimensions      [0 1 -1 0 0 0 0];

internalField   nonuniform List<vector> 
9200
(
(-0.0189394 0.0200823 1.01549e-19)
(-0.0225104 0.0369971 -1.85825e-19)
(0.0080423 0.0379538 8.4297e-20)
(0.0701301 0.0267104 1.53687e-19)
(0.165524 0.00801444 -1.40024e-19)
(0.295719 -0.0145962 0)
(0.456686 -0.0380893 0)
(0.636037 -0.0600194 2.10884e-19)
(0.815361 -0.0788443 -4.3756e-21)
(0.975797 -0.09406 -1.72431e-19)
(1.10308 -0.105819 -7.22449e-20)
(1.19011 -0.114461 1.2304e-19)
(1.23756 -0.120164 -9.19995e-21)
(1.25113 -0.123176 -9.51178e-20)
(1.24117 -0.123048 0)
(1.21675 -0.121002 1.4585e-19)
(1.18696 -0.114282 -1.99748e-19)
(1.15702 -0.109167 5.12423e-20)
(1.13154 -0.0957784 3.66279e-20)
(1.10437 -0.0913477 2.5359e-20)
(-0.0163023 0.0135273 1.46782e-21)
(-0.00906789 0.0202986 9.39796e-20)
(0.0409833 0.0155017 1.69738e-19)
(0.134582 0.0023079 0)
(0.273637 -0.0144205 0)
(0.452927 -0.0302351 0)
(0.65505 -0.0425057 0)
(0.854632 -0.0507907 -1.53057e-19)
(1.02754 -0.0563177 1.86556e-19)
(1.15786 -0.0608111 7.85744e-20)
(1.24025 -0.0654701 -7.21878e-20)
(1.279 -0.070502 5.8557e-20)
(1.28423 -0.0754251 -4.97126e-20)
(1.26879 -0.0792191 -4.00358e-20)
(1.24355 -0.0812009 2.46423e-19)
(1.2163 -0.0807397 -1.55218e-19)
(1.19147 -0.0774128 -2.41053e-20)
(1.16953 -0.0731993 -4.52945e-21)
(1.15154 -0.0629708 -3.70401e-20)
(1.13245 -0.0609792 -2.53001e-20)
(-0.0131731 0.00867861 -1.02486e-19)
(0.0122305 0.00592481 -9.54885e-20)
(0.0938716 -0.00405382 8.53598e-20)
(0.233623 -0.0168923 -1.5514e-19)
(0.426551 -0.0266988 0)
(0.650245 -0.030279 0)
(0.870141 -0.0284863 0)
(1.05508 -0.0246288 -5.09072e-20)
(1.18758 -0.0220932 0)
(1.26535 -0.0227294 7.88928e-20)
(1.29754 -0.0264809 -6.49151e-20)
(1.29864 -0.0320318 -2.23774e-19)
(1.28322 -0.0376345 1.97551e-19)
(1.26169 -0.0419796 3.6451e-20)
(1.23965 -0.0442826 -7.32512e-20)
(1.2192 -0.0445591 -1.37516e-19)
(1.19988 -0.0426699 3.38843e-20)
(1.1817 -0.0399865 1.97844e-19)
(1.16373 -0.0346077 -1.01259e-19)
(1.14644 -0.033673 0)
(-0.00741589 0.00446532 1.04931e-19)
(0.046538 -0.0063485 1.92566e-19)
(0.174321 -0.0181979 1.73585e-19)
(0.372211 -0.0249593 -2.33321e-19)
(0.61564 -0.0220192 2.43206e-21)
(0.859019 -0.0113359 2.4979e-19)
(1.0607 0.00121089 -1.12593e-19)
(1.2002 0.0103368 4.80856e-20)
(1.27836 0.0136659 0)
(1.30932 0.0117219 -3.60536e-20)
(1.31105 0.00661318 1.87346e-19)
(1.29855 0.000606868 -2.14187e-19)
(1.2808 -0.00477941 -8.51883e-20)
(1.26163 -0.00886204 8.14367e-20)
(1.24217 -0.0115566 -9.68467e-20)
(1.22241 -0.0129756 8.62727e-20)
(1.20311 -0.0130757 0)
(1.1844 -0.012948 0)
(1.16795 -0.00957766 1.63488e-20)
(1.15125 -0.0118963 0)
(0.00337442 9.14653e-05 1.06721e-19)
(0.0986864 -0.01643 -1.47869e-19)
(0.285939 -0.0241838 -1.76015e-19)
(0.543118 -0.0176953 0)
(0.814569 0.000801205 -7.04416e-20)
(1.0421 0.0220993 -5.99626e-20)
(1.19753 0.0382881 1.63668e-19)
(1.28313 0.0462655 -1.45281e-19)
(1.31742 0.0469989 7.96254e-20)
(1.3214 0.0432569 -3.6836e-20)
(1.31069 0.0376579 0)
(1.29393 0.0318176 7.82494e-20)
(1.27481 0.0264526 4.50728e-20)
(1.25497 0.0218286 7.20431e-20)
(1.23526 0.0180525 -6.61559e-20)
(1.21667 0.0153249 -5.13838e-20)
(1.1995 0.0133979 4.72344e-20)
(1.18437 0.0127707 -1.86728e-20)
(1.17017 0.0130398 1.60166e-20)
(1.15744 0.010585 5.03701e-20)
(0.0213507 -0.00437408 2.19685e-19)
(0.172056 -0.0226444 -6.30436e-22)
(0.426219 -0.018307 0)
(0.726958 0.00646357 1.1908e-19)
(0.992802 0.0376422 -3.66614e-20)
(1.17771 0.0625727 -6.18859e-20)
(1.28061 0.076574 2.89426e-21)
(1.32347 0.0808532 4.95555e-20)
(1.33111 0.0788582 3.8944e-20)
(1.32154 0.0737279 -3.33056e-20)
(1.30482 0.0674274 -5.61147e-20)
(1.28574 0.0609733 -6.95607e-20)
(1.26651 0.0548979 1.08399e-19)
(1.24805 0.0494919 8.66758e-20)
(1.23083 0.0449467 -9.22495e-20)
(1.21467 0.0412018 5.38221e-20)
(1.19954 0.0383448 0)
(1.18494 0.0361165 1.46262e-21)
(1.17117 0.0343323 -4.20746e-20)
(1.15789 0.0315604 5.45459e-20)
(0.0481103 -0.00797096 -5.77069e-20)
(0.26724 -0.0214376 1.40684e-21)
(0.584246 0.00297785 -4.64763e-20)
(0.89962 0.0454608 -1.19757e-19)
(1.13226 0.0826401 1.07718e-19)
(1.26663 0.105394 5.92934e-20)
(1.32567 0.114698 -1.07077e-19)
(1.33966 0.114965 -4.13218e-20)
(1.33157 0.110378 7.80499e-20)
(1.31472 0.103688 9.64985e-20)
(1.29547 0.0963842 -1.38964e-19)
(1.27637 0.0892133 4.9336e-20)
(1.25808 0.0825003 -5.96254e-20)
(1.24065 0.0763679 1.81927e-20)
(1.22392 0.07081 -2.98192e-20)
(1.20801 0.0658805 4.75748e-20)
(1.19295 0.0615041 -3.48517e-21)
(1.17904 0.0578257 -5.50691e-20)
(1.16611 0.0542797 1.52213e-20)
(1.15407 0.0513728 0)
(0.0843958 -0.00908103 5.77488e-20)
(0.380457 -0.00849333 -1.31711e-19)
(0.742763 0.0404039 9.41661e-20)
(1.04414 0.0950534 1.93767e-20)
(1.2311 0.131797 -1.04859e-19)
(1.31945 0.149129 6.2443e-20)
(1.34587 0.152867 0)
(1.34138 0.149086 0)
(1.32476 0.141944 -3.76659e-20)
(1.30491 0.133652 0)
(1.28508 0.125187 7.88197e-20)
(1.26608 0.116939 -9.09837e-20)
(1.24804 0.10907 7.73028e-20)
(1.23102 0.101678 -3.41075e-20)
(1.21518 0.0948786 0)
(1.20057 0.0887248 0)
(1.18715 0.0832933 0)
(1.17455 0.0783985 -3.25051e-20)
(1.16257 0.0737919 3.6862e-20)
(1.15111 0.070783 0)
(0.129764 -0.00568686 2.98836e-20)
(0.50307 0.0194478 -6.92393e-22)
(0.88567 0.0916929 0)
(1.15447 0.15152 -9.04414e-21)
(1.29472 0.18329 1.90061e-20)
(1.34566 0.193502 2.85035e-20)
(1.34955 0.191451 -2.60243e-20)
(1.33423 0.183821 -9.97056e-21)
(1.31336 0.17418 9.86685e-21)
(1.29208 0.164033 0)
(1.27186 0.153954 2.45017e-20)
(1.25303 0.144222 -2.76761e-20)
(1.23559 0.134991 -1.75887e-20)
(1.21949 0.126353 1.9881e-20)
(1.20457 0.118348 6.30236e-21)
(1.19068 0.111004 -1.16104e-20)
(1.17762 0.104247 0)
(1.16533 0.0979968 0)
(1.15373 0.0923475 -1.99476e-20)
(1.14264 0.0884669 1.19491e-20)
(0.182384 0.0042068 0)
(0.623596 0.0631656 0)
(1.00338 0.15366 0)
(1.23119 0.212412 -4.24516e-22)
(1.32946 0.23621 1.29518e-22)
(1.3522 0.23853 6.40353e-22)
(1.34151 0.230777 6.30458e-21)
(1.32009 0.219318 -1.03085e-20)
(1.29712 0.2069 1.68019e-20)
(1.2754 0.194507 -7.43491e-21)
(1.25548 0.182498 0)
(1.23722 0.171043 5.2275e-21)
(1.22042 0.1602 0)
(1.20493 0.149997 -3.746e-21)
(1.1907 0.140486 6.34626e-21)
(1.17769 0.131698 0)
(1.16581 0.123617 0)
(1.15486 0.116188 0)
(1.1446 0.109645 0)
(1.13497 0.104825 -2.56031e-21)
(-0.00310781 -0.039083 -4.69074e-21)
(-0.0167151 -0.123675 0)
(-0.0447046 -0.187589 0)
(-0.0790989 -0.230037 -1.46821e-20)
(-0.115118 -0.263026 2.69269e-20)
(-0.150208 -0.296751 6.89023e-23)
(-0.18306 -0.334768 -5.64041e-21)
(-0.212822 -0.376276 -1.07763e-20)
(-0.238547 -0.419003 1.11294e-22)
(-0.259048 -0.460243 9.07718e-21)
(-0.272987 -0.496942 0)
(-0.279005 -0.52576 8.126e-21)
(-0.275876 -0.543258 0)
(-0.26267 -0.546191 -7.04325e-21)
(-0.238897 -0.531837 1.30871e-20)
(-0.204642 -0.498216 0)
(-0.160712 -0.4441 0)
(-0.108754 -0.369616 0)
(-0.0515685 -0.275952 0)
(0.0132048 -0.163471 9.48411e-21)
(-0.00416368 -0.0217772 -1.93108e-20)
(-0.0196359 -0.0879756 3.61181e-20)
(-0.0519131 -0.142053 0)
(-0.090341 -0.179875 5.2925e-20)
(-0.129843 -0.211566 -4.10865e-20)
(-0.168309 -0.245925 -2.57366e-20)
(-0.204849 -0.28582 -3.67725e-22)
(-0.238922 -0.330505 5.47434e-20)
(-0.269841 -0.378112 -3.02923e-20)
(-0.296708 -0.426351 0)
(-0.318507 -0.472488 0)
(-0.334191 -0.513365 -8.11477e-21)
(-0.342751 -0.545557 3.0209e-20)
(-0.343279 -0.56558 -2.06878e-20)
(-0.335032 -0.570112 -3.84274e-20)
(-0.317576 -0.556243 2.32947e-20)
(-0.29091 -0.521809 0)
(-0.255296 -0.465593 0)
(-0.211205 -0.38701 1.8749e-20)
(-0.161464 -0.286465 -3.14856e-20)
(-0.0073833 -0.000752172 4.06011e-20)
(-0.0243883 -0.0460466 -1.88875e-20)
(-0.057303 -0.0906964 8.91986e-22)
(-0.0952862 -0.124651 -4.68362e-20)
(-0.133479 -0.154962 8.69862e-20)
(-0.170038 -0.188943 -5.31585e-20)
(-0.204255 -0.229203 0)
(-0.235722 -0.275328 0)
(-0.263939 -0.325874 -4.43404e-20)
(-0.288315 -0.378893 0)
(-0.308301 -0.431895 -3.57071e-20)
(-0.32347 -0.481908 1.34047e-19)
(-0.333522 -0.525668 -1.21406e-19)
(-0.338224 -0.559843 5.52096e-20)
(-0.337316 -0.581144 0)
(-0.330512 -0.586371 0)
(-0.317439 -0.57246 0)
(-0.296881 -0.536687 6.1143e-20)
(-0.268329 -0.477031 -4.08586e-20)
(-0.233133 -0.395029 0)
(-0.0124832 0.0199897 -4.05709e-20)
(-0.0305822 -0.00384134 -1.63984e-21)
(-0.060431 -0.0390753 -3.47705e-20)
(-0.0935124 -0.0695074 3.25112e-20)
(-0.125688 -0.0981616 -2.90877e-20)
(-0.155021 -0.130783 0)
(-0.180693 -0.169918 -5.40234e-20)
(-0.202185 -0.215543 5.03908e-20)
(-0.219012 -0.26654 -2.54965e-21)
(-0.230775 -0.321154 -4.1008e-20)
(-0.237357 -0.376976 1.1625e-19)
(-0.239069 -0.431056 -7.03108e-20)
(-0.236677 -0.480234 2.93159e-20)
(-0.231212 -0.521512 -8.32423e-20)
(-0.223755 -0.552075 -4.64395e-20)
(-0.21508 -0.569376 -7.47218e-20)
(-0.205611 -0.57083 7.94131e-21)
(-0.192619 -0.553624 3.18913e-20)
(-0.179773 -0.515216 1.80297e-20)
(-0.146006 -0.456249 0)
(-0.0182167 0.0367709 -1.73422e-19)
(-0.0367162 0.0330752 1.61085e-19)
(-0.0607405 0.0073946 0)
(-0.0853947 -0.0191196 -3.56889e-20)
(-0.107229 -0.0456538 9.69926e-20)
(-0.124469 -0.0764993 -6.06077e-20)
(-0.136067 -0.113937 2.22571e-19)
(-0.141187 -0.158242 -2.56949e-19)
(-0.139213 -0.208485 1.42179e-19)
(-0.129836 -0.262918 -4.32358e-20)
(-0.113285 -0.318904 8.01007e-20)
(-0.0905652 -0.373132 3.219e-20)
(-0.0634982 -0.422183 -9.90628e-20)
(-0.0341173 -0.46308 -7.78483e-20)
(-0.0049291 -0.492804 2.29811e-19)
(0.0222126 -0.509684 -7.97508e-20)
(0.0432326 -0.513644 0)
(0.0675904 -0.50217 8.39892e-20)
(0.0657652 -0.478873 -8.69536e-22)
(0.11867 -0.429799 -4.89849e-20)
(-0.0232984 0.0469554 -9.05734e-20)
(-0.0415757 0.0601303 -4.29792e-20)
(-0.057237 0.0441823 -7.85297e-20)
(-0.0703154 0.0221955 0)
(-0.0786377 -0.00205499 -6.50001e-20)
(-0.0799359 -0.0308498 1.85738e-19)
(-0.0726273 -0.0661762 -2.87631e-19)
(-0.0558496 -0.108444 5.21068e-20)
(-0.0290377 -0.156858 -1.00415e-19)
(0.00794574 -0.209785 1.38376e-19)
(0.0542844 -0.264261 0)
(0.107897 -0.316675 1.11491e-19)
(0.165217 -0.363397 6.48125e-20)
(0.223323 -0.400502 -1.04575e-19)
(0.279039 -0.425185 9.60141e-20)
(0.33042 -0.434969 6.6034e-20)
(0.367777 -0.433412 -6.06934e-20)
(0.41679 -0.412918 -2.08738e-20)
(0.414354 -0.390869 1.34213e-20)
(0.488838 -0.337453 -2.56075e-20)
(-0.0264117 0.0497245 -9.36126e-20)
(-0.0438891 0.0749679 1.73644e-19)
(-0.0504135 0.0681812 -1.81992e-21)
(-0.0501653 0.0506845 2.21854e-19)
(-0.0423442 0.0285612 2.64982e-21)
(-0.0248926 0.00142738 -2.54664e-19)
(0.00424924 -0.0320786 -2.38059e-21)
(0.0465187 -0.072248 1.64114e-19)
(0.102044 -0.118549 0)
(0.170162 -0.16901 -4.64773e-20)
(0.248954 -0.220334 -8.22237e-20)
(0.334493 -0.268826 2.97568e-19)
(0.421624 -0.310499 -1.381e-19)
(0.504856 -0.341646 -1.13865e-19)
(0.580333 -0.360376 3.88722e-20)
(0.645406 -0.364068 -4.13275e-20)
(0.692215 -0.35714 0)
(0.745378 -0.331569 0)
(0.749035 -0.305459 5.94276e-20)
(0.817108 -0.253869 -4.16913e-20)
(-0.0269436 0.0459823 -9.73714e-20)
(-0.0429729 0.0773242 -8.81701e-20)
(-0.0406906 0.0779233 -2.46787e-19)
(-0.0268808 0.0645767 1.49675e-19)
(-0.00186019 0.0441328 0)
(0.0362771 0.0178296 1.30394e-19)
(0.0896967 -0.0145848 -1.19038e-19)
(0.159906 -0.0532101 -5.54467e-20)
(0.246893 -0.0971193 0)
(0.348324 -0.143773 9.24412e-20)
(0.459283 -0.189806 -8.4211e-20)
(0.572667 -0.231566 -3.93637e-21)
(0.680529 -0.265338 -4.96059e-21)
(0.775671 -0.288775 -1.51534e-19)
(0.854847 -0.299844 -6.72526e-20)
(0.912673 -0.298986 2.3827e-19)
(0.954937 -0.287431 6.02767e-21)
(0.980788 -0.263976 -1.18232e-19)
(0.985994 -0.23787 3.70467e-20)
(1.0115 -0.197332 0)
(-0.0251378 0.0380108 -1.70058e-21)
(-0.038822 0.0692348 -9.10086e-20)
(-0.0284269 0.0739914 1.6585e-19)
(-0.00125159 0.0634432 0)
(0.0419835 0.0439861 0)
(0.103258 0.0181053 0)
(0.184985 -0.0134957 0)
(0.288045 -0.0500571 2.76704e-19)
(0.410125 -0.0897711 -2.02264e-19)
(0.544775 -0.12979 -9.25188e-20)
(0.682165 -0.166913 7.97444e-20)
(0.811313 -0.198224 7.2372e-20)
(0.92231 -0.221309 -6.19454e-20)
(1.00907 -0.235204 1.47558e-19)
(1.0691 -0.239105 -2.00725e-19)
(1.10239 -0.234568 1.09895e-19)
(1.11712 -0.222245 6.944e-20)
(1.11035 -0.202991 -2.40357e-19)
(1.09968 -0.183333 9.78355e-20)
(1.08132 -0.15221 -2.31458e-20)
(-0.0220709 0.0285981 -5.55122e-22)
(-0.0320067 0.0543819 2.76769e-19)
(-0.0132179 0.0591653 -2.51231e-19)
(0.0286337 0.0492668 -1.53738e-19)
(0.0936317 0.0302701 1.40077e-19)
(0.184199 0.00517165 0)
(0.301774 -0.0242831 0)
(0.443602 -0.056061 -2.1677e-19)
(0.600919 -0.0877001 2.60321e-21)
(0.760252 -0.116743 1.78981e-19)
(0.906929 -0.141249 -7.98464e-20)
(1.02863 -0.15998 -1.30534e-19)
(1.11786 -0.172256 9.72646e-21)
(1.17321 -0.178272 1.00928e-19)
(1.19678 -0.177962 0)
(1.19681 -0.173212 -8.69195e-20)
(1.17909 -0.163201 2.04555e-19)
(1.15183 -0.150587 2.7218e-20)
(1.1244 -0.137135 -9.91477e-20)
(1.09418 -0.113453 2.32044e-20)
(0.0819234 -0.0244791 -6.50179e-21)
(0.178973 0.181265 1.73688e-22)
(0.275508 0.38553 -1.51227e-22)
(0.372433 0.568887 1.25327e-22)
(0.45846 0.697217 0)
(0.525044 0.764812 -2.45262e-21)
(0.578626 0.772248 2.36719e-21)
(0.629375 0.730222 -1.7865e-21)
(0.661446 0.693715 1.77604e-21)
(0.657622 0.715457 -1.08541e-22)
(0.641623 0.748768 0)
(0.664777 0.6618 2.60211e-21)
(0.736083 0.385205 -5.41867e-21)
(0.817983 -0.0119355 5.87425e-21)
(0.87927 -0.382002 -5.29773e-21)
(0.90381 -0.618102 2.4227e-21)
(0.888603 -0.719416 0)
(0.85562 -0.727389 -1.22024e-21)
(0.824674 -0.703509 1.10594e-21)
(0.771016 -0.713837 9.34049e-22)
(0.680017 -0.746593 -9.01986e-22)
(0.582981 -0.699695 1.12529e-21)
(0.513598 -0.506013 -1.05439e-21)
(0.47879 -0.200846 0)
(0.474068 0.120916 0)
(0.499929 0.36936 0)
(0.549511 0.501652 0)
(0.587994 0.556627 3.72492e-22)
(0.573352 0.57724 -1.91409e-22)
(0.522891 0.551832 0)
(0.486533 0.432521 -1.61721e-22)
(0.490277 0.231306 0)
(0.536903 0.0109738 -8.91876e-23)
(0.607276 -0.153563 3.26365e-22)
(0.680993 -0.241692 1.2934e-22)
(0.739824 -0.266784 -1.81781e-22)
(0.774998 -0.26628 -6.94823e-23)
(0.792576 -0.250435 8.12178e-24)
(0.804045 -0.220421 -2.36938e-23)
(0.812713 -0.174513 -8.22836e-25)
(0.819824 -0.128362 3.37463e-24)
(0.832105 -0.0936372 2.00309e-23)
(0.852382 -0.0771328 0)
(0.879365 -0.0711485 0)
(0.904846 -0.063254 0)
(0.927306 -0.0455325 -2.59749e-24)
(0.942187 -0.0173389 4.83206e-26)
(0.956105 0.0156333 -2.58656e-24)
(0.962447 0.0419261 -1.92103e-24)
(0.97317 0.0698212 -4.32585e-26)
(-0.116099 -0.154354 2.07588e-20)
(-0.00690931 0.0485011 -2.03853e-20)
(0.0874915 0.243287 1.62979e-20)
(0.202076 0.435683 -2.42323e-21)
(0.311252 0.581669 -2.24656e-20)
(0.413557 0.67295 9.56999e-21)
(0.507677 0.701344 0)
(0.585891 0.685637 -5.37759e-23)
(0.627595 0.681319 0)
(0.633184 0.719627 -7.94897e-23)
(0.64618 0.738047 -8.25397e-21)
(0.707563 0.627064 7.71035e-21)
(0.804445 0.343723 0)
(0.902983 -0.0497841 -5.16434e-22)
(0.967243 -0.408869 -3.13535e-22)
(0.980532 -0.624021 0)
(0.94854 -0.706126 5.36972e-21)
(0.893596 -0.706648 -9.47126e-21)
(0.842971 -0.673833 4.0363e-21)
(0.778028 -0.668255 0)
(0.678465 -0.691361 0)
(0.567797 -0.652423 1.23771e-22)
(0.484199 -0.479068 -5.04881e-21)
(0.442754 -0.196198 -3.57258e-22)
(0.441063 0.105163 4.69345e-21)
(0.478202 0.341182 0)
(0.539963 0.474313 1.60999e-21)
(0.578227 0.546869 -1.37952e-21)
(0.559346 0.590689 -1.68987e-22)
(0.513125 0.572463 3.47213e-22)
(0.483952 0.44253 -2.07409e-22)
(0.493467 0.224514 -3.71855e-22)
(0.545748 -0.00983737 -1.5537e-21)
(0.619294 -0.180212 6.92733e-22)
(0.693239 -0.265733 0)
(0.751923 -0.283257 6.00859e-22)
(0.787017 -0.275299 -1.95145e-22)
(0.803664 -0.255492 -2.28688e-22)
(0.814434 -0.224155 -4.37071e-23)
(0.824218 -0.177447 2.82433e-23)
(0.832225 -0.131228 0)
(0.843127 -0.0976622 -3.31323e-23)
(0.860159 -0.082652 2.00147e-23)
(0.884208 -0.0771075 -7.3746e-24)
(0.907733 -0.0685164 1.74672e-24)
(0.928911 -0.0494945 2.06677e-24)
(0.942642 -0.0202934 3.21654e-24)
(0.955868 0.0135686 -2.03273e-24)
(0.961951 0.0402558 2.11763e-24)
(0.972852 0.0687766 -1.46725e-25)
(-0.227464 -0.279444 0)
(-0.128914 -0.100395 -2.62456e-20)
(-0.0442616 0.084014 2.52451e-20)
(0.0724486 0.278367 -1.8259e-20)
(0.189807 0.433498 1.75524e-20)
(0.314528 0.546175 1.16346e-22)
(0.428364 0.60432 0)
(0.514581 0.628037 -1.03853e-20)
(0.559923 0.65785 9.89946e-21)
(0.584688 0.7007 3.37104e-22)
(0.639322 0.696976 0)
(0.738268 0.573887 4.76166e-22)
(0.857262 0.302478 2.0351e-20)
(0.974378 -0.0702925 -1.90392e-20)
(1.04581 -0.409669 1.76003e-20)
(1.0503 -0.60552 -3.06614e-20)
(1.00595 -0.672554 2.3774e-20)
(0.93437 -0.672473 -1.00681e-20)
(0.867437 -0.63882 0)
(0.796174 -0.617312 1.41875e-22)
(0.691238 -0.628778 -1.24636e-22)
(0.567619 -0.600904 1.36053e-22)
(0.470758 -0.454063 2.36673e-22)
(0.422438 -0.197432 0)
(0.424429 0.0812059 -3.54089e-21)
(0.472387 0.30498 3.41925e-21)
(0.539658 0.449038 0)
(0.5755 0.548559 1.44045e-22)
(0.559785 0.608019 -3.35295e-22)
(0.518607 0.589673 -7.22953e-22)
(0.492027 0.452044 3.72012e-22)
(0.505195 0.219852 -2.70454e-21)
(0.561725 -0.0278679 7.56146e-22)
(0.636988 -0.204358 2.71377e-21)
(0.709442 -0.288539 4.08618e-22)
(0.76636 -0.299456 -1.26693e-22)
(0.800498 -0.284221 -3.57161e-22)
(0.815823 -0.260481 4.84864e-22)
(0.825118 -0.228224 -3.24966e-24)
(0.835053 -0.181023 -5.58594e-23)
(0.843613 -0.134372 -3.7487e-23)
(0.853441 -0.1013 2.53223e-23)
(0.867578 -0.087498 5.95714e-23)
(0.88894 -0.0825729 -1.02066e-23)
(0.910954 -0.0735445 -9.38801e-24)
(0.931458 -0.0533315 0)
(0.944421 -0.0231408 -8.76513e-24)
(0.956827 0.0115783 4.10617e-24)
(0.962356 0.0386121 9.34316e-25)
(0.97295 0.067731 8.95801e-25)
(-0.1822 -0.367669 -1.15891e-22)
(-0.146211 -0.227345 9.12686e-23)
(-0.0979655 -0.057854 -1.47199e-22)
(-0.00783786 0.118667 -1.22729e-22)
(0.0899164 0.277848 0)
(0.208781 0.408487 6.6116e-23)
(0.317702 0.49801 0)
(0.401622 0.560251 1.29602e-22)
(0.45942 0.612909 -7.63494e-21)
(0.524392 0.646982 1.61805e-20)
(0.630186 0.625345 -8.52064e-21)
(0.760527 0.506803 1.29145e-22)
(0.89972 0.256734 -2.75549e-22)
(1.03821 -0.089284 -5.26138e-22)
(1.11888 -0.401691 1.65904e-20)
(1.11403 -0.577516 -3.86782e-21)
(1.05696 -0.631038 -1.20265e-20)
(0.973659 -0.629506 -6.27407e-21)
(0.892709 -0.602384 6.29567e-21)
(0.817476 -0.57208 -1.43834e-22)
(0.716674 -0.567879 1.26323e-22)
(0.587179 -0.547439 -1.37856e-22)
(0.477238 -0.431642 -2.26449e-22)
(0.421236 -0.207703 -5.22501e-21)
(0.425328 0.0482475 5.30916e-21)
(0.478772 0.266513 5.03486e-21)
(0.54787 0.421178 -4.86048e-21)
(0.583447 0.537372 -3.7366e-23)
(0.566263 0.619105 -5.56246e-21)
(0.526335 0.616079 1.32543e-20)
(0.506093 0.471136 -6.54857e-21)
(0.525148 0.221666 -7.1039e-21)
(0.585437 -0.0419282 6.85917e-21)
(0.661069 -0.226115 0)
(0.730201 -0.31015 1.07188e-21)
(0.783498 -0.315431 -1.43316e-21)
(0.815495 -0.293119 -4.00002e-22)
(0.829 -0.265326 1.32953e-22)
(0.836198 -0.232365 8.87578e-23)
(0.845397 -0.185005 0)
(0.854048 -0.137732 1.67162e-22)
(0.862988 -0.104591 -1.50547e-22)
(0.874529 -0.0917018 -3.33368e-23)
(0.893294 -0.0875802 0)
(0.913945 -0.0784293 9.23349e-24)
(0.934216 -0.0571556 -8.92488e-24)
(0.946926 -0.0259333 3.28036e-24)
(0.958659 0.00967693 2.19617e-24)
(0.963558 0.0370549 0)
(0.973457 0.066727 -8.94436e-25)
(0.048619 -0.3748 1.81654e-20)
(-0.00100784 -0.287637 -1.75109e-20)
(-0.0167078 -0.155629 -2.08677e-23)
(0.0137157 -0.0147705 0)
(0.0678079 0.137692 0)
(0.151182 0.277019 -6.76463e-23)
(0.237231 0.39125 0)
(0.314516 0.47798 6.0668e-21)
(0.392247 0.534651 -5.86039e-21)
(0.500671 0.553724 0)
(0.641548 0.529433 -1.29984e-22)
(0.786523 0.431709 2.33213e-20)
(0.942774 0.20813 -2.31004e-20)
(1.09951 -0.10557 9.00192e-23)
(1.184 -0.380563 1.40005e-20)
(1.16846 -0.532734 -2.40187e-20)
(1.10016 -0.578595 1.05451e-20)
(1.01122 -0.577877 0)
(0.922115 -0.558898 -3.95935e-21)
(0.843532 -0.529026 3.64252e-21)
(0.749945 -0.512308 0)
(0.62264 -0.493111 -2.5774e-21)
(0.50252 -0.406807 2.58433e-21)
(0.436795 -0.220332 -1.0874e-22)
(0.439814 0.0100589 0)
(0.495586 0.219963 0)
(0.565209 0.387758 4.36813e-21)
(0.597525 0.535659 -4.3084e-21)
(0.583671 0.63737 0)
(0.552338 0.63099 -4.0237e-22)
(0.534623 0.482235 0)
(0.554964 0.223115 0)
(0.616496 -0.0532324 6.70879e-21)
(0.690899 -0.244749 -7.22307e-21)
(0.755153 -0.329644 0)
(0.803147 -0.3306 2.53105e-21)
(0.831817 -0.301762 -1.90914e-21)
(0.843001 -0.269908 -1.4864e-22)
(0.847669 -0.236408 -3.17006e-22)
(0.855415 -0.189236 3.06015e-22)
(0.86366 -0.141287 0)
(0.871818 -0.107607 0)
(0.881085 -0.0952987 0)
(0.897324 -0.0921184 1.17778e-23)
(0.916545 -0.0831932 -4.48592e-23)
(0.936754 -0.0610493 6.74093e-24)
(0.949651 -0.0287492 4.76261e-25)
(0.960995 0.00783651 5.09591e-24)
(0.965368 0.0356118 -1.26553e-24)
(0.974319 0.0657955 0)
(0.408649 -0.303355 1.12018e-20)
(0.308169 -0.251662 8.12995e-21)
(0.227515 -0.1751 1.87808e-22)
(0.184547 -0.0842313 7.80527e-21)
(0.175827 0.0323165 -7.45929e-21)
(0.205625 0.160939 0)
(0.256728 0.284997 -4.43601e-21)
(0.322216 0.382912 4.28664e-21)
(0.41368 0.433847 -2.08234e-21)
(0.541428 0.441268 2.02489e-21)
(0.682187 0.425561 0)
(0.82448 0.352537 2.78505e-22)
(0.995653 0.15605 0)
(1.16242 -0.120529 2.70517e-20)
(1.24165 -0.353799 -4.94962e-20)
(1.21422 -0.481665 2.3004e-20)
(1.13615 -0.522931 0)
(1.04518 -0.525032 1.5654e-22)
(0.951184 -0.514212 0)
(0.869721 -0.488886 4.60471e-23)
(0.786821 -0.463942 0)
(0.670512 -0.441749 0)
(0.545882 -0.379901 -3.36812e-21)
(0.468712 -0.233362 5.44506e-21)
(0.4669 -0.0331185 -4.47654e-21)
(0.520923 0.168149 2.28807e-21)
(0.586589 0.348302 -2.09822e-22)
(0.618828 0.512774 4.62447e-21)
(0.610185 0.635166 -4.26297e-21)
(0.578147 0.659669 -7.84868e-21)
(0.56446 0.517234 -1.58871e-21)
(0.59114 0.239792 8.82877e-21)
(0.654785 -0.0557422 -7.54077e-21)
(0.726659 -0.258542 8.03156e-21)
(0.784307 -0.346432 0)
(0.825323 -0.34466 2.04956e-21)
(0.849431 -0.310032 -9.70798e-22)
(0.857721 -0.274142 -1.52546e-21)
(0.859506 -0.240177 0)
(0.865253 -0.193532 -1.29345e-22)
(0.872629 -0.144982 1.38576e-22)
(0.880022 -0.110405 -1.33639e-22)
(0.887321 -0.0983334 0)
(0.901154 -0.0961586 2.22168e-23)
(0.918792 -0.087805 3.186e-23)
(0.938881 -0.065049 -2.01273e-23)
(0.95223 -0.0316595 -9.79504e-24)
(0.963488 0.00600738 0)
(0.967553 0.0342818 0)
(0.975446 0.0649536 -1.05766e-24)
(0.761343 -0.217567 -1.07684e-20)
(0.678017 -0.170025 1.04057e-20)
(0.580884 -0.11908 0)
(0.49555 -0.0618598 -3.49732e-24)
(0.432248 0.00811107 1.03048e-22)
(0.396966 0.0958358 0)
(0.393748 0.201668 0)
(0.430949 0.293376 -8.18727e-23)
(0.515729 0.337258 2.99308e-23)
(0.632217 0.341874 2.16172e-21)
(0.749831 0.335533 -2.03357e-21)
(0.88705 0.276212 0)
(1.06972 0.10307 0)
(1.22905 -0.13007 2.93882e-22)
(1.28805 -0.316932 -2.90902e-22)
(1.24744 -0.42057 0)
(1.16261 -0.462002 1.15326e-20)
(1.07484 -0.469649 -1.1277e-20)
(0.982771 -0.466509 -4.98705e-21)
(0.896837 -0.450476 5.02908e-21)
(0.821139 -0.423208 0)
(0.72193 -0.394851 -9.70525e-22)
(0.602304 -0.348635 8.80086e-22)
(0.514001 -0.24077 -1.95132e-21)
(0.500932 -0.075651 -5.52294e-22)
(0.547478 0.112366 2.38125e-21)
(0.612035 0.302811 4.85618e-21)
(0.64859 0.496835 -4.88843e-21)
(0.641805 0.648621 0)
(0.618847 0.671916 0)
(0.612043 0.523402 0)
(0.636884 0.246301 1.32348e-21)
(0.698359 -0.0583892 0)
(0.766511 -0.269164 -6.08575e-21)
(0.816884 -0.360176 9.27128e-21)
(0.84975 -0.356966 -4.28654e-21)
(0.868193 -0.3175 4.99864e-22)
(0.873033 -0.277786 1.60132e-22)
(0.871647 -0.243448 8.12157e-22)
(0.874988 -0.197681 -5.46992e-22)
(0.881116 -0.148708 0)
(0.887722 -0.113009 5.79432e-23)
(0.893314 -0.100856 3.96655e-23)
(0.904897 -0.0996911 0)
(0.920801 -0.0922036 0)
(0.940572 -0.069135 0)
(0.954451 -0.0347054 3.21203e-24)
(0.965865 0.00413677 -3.36182e-24)
(0.96987 0.0330438 -1.83236e-24)
(0.976725 0.0642048 1.05444e-24)
(0.973284 -0.166571 1.84308e-20)
(0.923093 -0.126139 -1.78033e-20)
(0.86334 -0.0788496 -2.59863e-21)
(0.80072 -0.0238859 2.44344e-21)
(0.741748 0.0280204 -1.07699e-22)
(0.69154 0.0829349 0)
(0.650168 0.154287 1.06913e-22)
(0.644856 0.222759 1.79865e-22)
(0.698189 0.253866 5.38609e-21)
(0.780997 0.255873 -5.30107e-21)
(0.867539 0.250855 -4.91255e-21)
(0.993596 0.197527 -5.96649e-21)
(1.16467 0.0559677 1.02966e-20)
(1.2903 -0.126068 -3.0578e-22)
(1.31661 -0.270174 3.02499e-22)
(1.26674 -0.355278 1.31109e-20)
(1.18134 -0.400667 -2.2203e-20)
(1.0977 -0.417453 2.71209e-21)
(1.01298 -0.419598 6.21374e-21)
(0.925683 -0.412782 -1.95189e-21)
(0.852972 -0.389498 1.91637e-21)
(0.770076 -0.35559 0)
(0.663035 -0.31577 -2.70436e-22)
(0.568257 -0.239643 1.00947e-23)
(0.540118 -0.112628 2.31009e-22)
(0.577826 0.0545698 -1.43906e-21)
(0.640644 0.245847 1.33435e-21)
(0.676802 0.453397 -6.40655e-21)
(0.677407 0.628535 5.935e-21)
(0.659754 0.696839 1.67815e-20)
(0.651913 0.579712 -1.55486e-20)
(0.682366 0.287018 8.82288e-21)
(0.746788 -0.0429901 -9.14371e-21)
(0.811383 -0.271023 0)
(0.852947 -0.369055 6.38352e-22)
(0.876358 -0.366869 4.08333e-22)
(0.887983 -0.324006 -2.06653e-21)
(0.888795 -0.280857 1.91501e-21)
(0.884014 -0.246245 6.34931e-22)
(0.884642 -0.201665 -7.88563e-22)
(0.889221 -0.152456 0)
(0.895011 -0.115454 -2.63171e-22)
(0.899128 -0.102921 2.24789e-22)
(0.908641 -0.10274 -2.42746e-23)
(0.922704 -0.0963807 -3.96154e-23)
(0.941899 -0.0732842 0)
(0.956229 -0.0378891 3.0838e-24)
(0.967942 0.00218889 -2.80168e-24)
(0.972112 0.03187 -1.28167e-24)
(0.978041 0.0635426 0)
(1.05108 -0.134471 2.61879e-20)
(1.01935 -0.107181 -2.52104e-20)
(0.984726 -0.0669749 -4.91691e-21)
(0.949193 -0.0157059 1.19475e-21)
(0.923747 0.0388952 1.27755e-20)
(0.907381 0.091568 -9.00829e-21)
(0.88675 0.145319 -1.12559e-22)
(0.878881 0.196407 -9.93345e-23)
(0.90838 0.218128 6.93119e-23)
(0.95917 0.215396 -2.28733e-23)
(1.0226 0.201227 3.54939e-24)
(1.12667 0.143796 -4.72907e-23)
(1.2529 0.0268411 1.08507e-20)
(1.32652 -0.106936 -1.04182e-20)
(1.32168 -0.219454 0)
(1.2705 -0.293869 -1.31357e-22)
(1.19317 -0.343027 9.99091e-23)
(1.11486 -0.370246 0)
(1.04056 -0.377108 -3.25523e-21)
(0.955175 -0.377513 3.09253e-21)
(0.882113 -0.363523 3.31564e-24)
(0.812443 -0.327851 -1.18339e-21)
(0.72096 -0.287329 1.1384e-21)
(0.627437 -0.232012 -6.50782e-24)
(0.584149 -0.141616 7.51615e-22)
(0.606048 0.000687958 -7.03352e-22)
(0.664609 0.192662 0)
(0.709576 0.42159 0)
(0.720285 0.624364 -9.95289e-21)
(0.705994 0.701914 9.99219e-21)
(0.7089 0.575528 -1.04839e-23)
(0.737207 0.290506 7.27594e-22)
(0.797832 -0.0380686 1.81813e-20)
(0.857392 -0.272139 -2.00088e-20)
(0.890644 -0.37643 -4.83182e-21)
(0.904415 -0.376689 4.64152e-21)
(0.908542 -0.331191 0)
(0.904857 -0.284446 1.0686e-21)
(0.896547 -0.249226 -1.20115e-21)
(0.894252 -0.20591 -3.0534e-24)
(0.89703 -0.156562 3.19137e-22)
(0.901954 -0.118006 -2.74593e-22)
(0.904794 -0.10468 0)
(0.912426 -0.10533 0)
(0.924603 -0.100321 -2.39817e-23)
(0.942978 -0.0775312 2.30052e-23)
(0.957584 -0.0412407 3.09764e-24)
(0.969636 0.000149245 -9.58186e-25)
(0.974125 0.0307305 6.49435e-25)
(0.979292 0.0629589 0)
(1.06985 -0.116181 -6.93673e-23)
(1.05037 -0.100967 0)
(1.0297 -0.0776114 1.59582e-20)
(1.00458 -0.047082 -2.22834e-20)
(0.987341 -0.00779623 6.6048e-21)
(0.983818 0.0352915 2.96127e-23)
(0.987526 0.083922 0)
(1.00295 0.131766 0)
(1.03376 0.160839 0)
(1.07156 0.16965 2.42291e-23)
(1.1233 0.162656 1.62772e-21)
(1.19878 0.120454 -1.56579e-21)
(1.27822 0.04134 6.04835e-21)
(1.31799 -0.0522412 -5.8438e-21)
(1.30225 -0.148174 0)
(1.26228 -0.223509 -7.99335e-23)
(1.20183 -0.27977 -6.30186e-21)
(1.12836 -0.320896 1.05902e-20)
(1.06456 -0.335663 -1.78232e-21)
(0.986266 -0.339913 -3.16881e-21)
(0.909366 -0.337941 7.2064e-22)
(0.849366 -0.307187 -1.84026e-21)
(0.772965 -0.262306 1.76804e-21)
(0.683022 -0.216212 2.80045e-23)
(0.630677 -0.15625 -2.11799e-23)
(0.636888 -0.0538585 1.03833e-21)
(0.685277 0.113435 -9.9702e-22)
(0.734391 0.344838 0)
(0.753605 0.579089 -8.91422e-21)
(0.752834 0.716097 2.4637e-20)
(0.751882 0.652084 -1.62544e-20)
(0.780237 0.366146 0)
(0.851153 0.00205746 7.34328e-22)
(0.90734 -0.262703 5.62406e-22)
(0.930209 -0.37893 1.04958e-20)
(0.934051 -0.383139 -1.00644e-20)
(0.930207 -0.336391 0)
(0.921444 -0.286608 -1.32715e-21)
(0.909364 -0.250809 1.27195e-21)
(0.90395 -0.209163 6.02022e-22)
(0.904683 -0.160299 -5.02354e-22)
(0.908635 -0.120413 -3.21845e-23)
(0.910349 -0.10606 0)
(0.91628 -0.107325 0)
(0.926559 -0.103744 -2.56785e-23)
(0.943905 -0.0816105 2.45766e-23)
(0.958595 -0.0447567 0)
(0.970943 -0.00212837 0)
(0.975822 0.0295337 1.0523e-24)
(0.980404 0.062409 -4.03309e-25)
(1.08121 -0.0782983 0)
(1.06762 -0.062639 0)
(1.0476 -0.0447664 0)
(1.02737 -0.0219308 0)
(1.01291 0.00787136 0)
(1.01148 0.0420526 0)
(1.0227 0.0774424 0)
(1.04673 0.10718 0)
(1.08257 0.125126 0)
(1.12241 0.12784 0)
(1.17315 0.1176 0)
(1.22885 0.0839426 0)
(1.27076 0.0242849 0)
(1.29028 -0.0437674 0)
(1.27499 -0.115437 0)
(1.24305 -0.178291 0)
(1.20189 -0.223983 0)
(1.13589 -0.26638 0)
(1.07951 -0.287395 0)
(1.01654 -0.290656 0)
(0.935413 -0.298762 0)
(0.878666 -0.281086 0)
(0.821103 -0.236002 0)
(0.73286 -0.194438 0)
(0.664057 -0.156034 0)
(0.660498 -0.0800203 0)
(0.710707 0.0709074 0)
(0.764045 0.301022 0)
(0.793399 0.542337 0)
(0.803817 0.688589 0)
(0.804388 0.627315 0)
(0.844624 0.352976 0)
(0.909057 0.012377 0)
(0.954145 -0.239075 0)
(0.969784 -0.357334 0)
(0.964484 -0.369169 0)
(0.952316 -0.327775 0)
(0.938028 -0.279921 0)
(0.922019 -0.246336 0)
(0.913389 -0.208087 0)
(0.911893 -0.161138 0)
(0.914803 -0.121018 0)
(0.915591 -0.106225 0)
(0.920097 -0.108334 0)
(0.928585 -0.10631 0)
(0.944686 -0.0850027 0)
(0.959245 -0.0477152 0)
(0.971847 -0.00399881 0)
(0.977141 0.0286188 0)
(0.981299 0.0619924 0)