/*--------------------------------*- C++ -*----------------------------------*\
| =========                 |                                                 |
| \\      /  F ield         | OpenFOAM: The Open Source CFD Toolbox           |
|  \\    /   O peration     | Version:  2512                                  |
|   \\  /    A nd           | Website:  www.openfoam.com                      |
|    \\/     M anipulation  |                                                 |
\*---------------------------------------------------------------------------*/
FoamFile
{
    version     2.0;
    format      ascii;
    arch        "LSB;label=32;scalar=64";
    class       volScalarField;
    location    "17";
    object      p;
}
// * * * * * * * * * * * * * * * * * * * * * * * * * * * * * * * * * * * * * //

dimensions      [0 2 -2 0 0 0 0];

internalField   nonuniform List<scalar> 
9800
(
0.0498463
0.0497203
0.0494805
0.0491394
0.0487078
0.0481961
0.047614
0.0469697
0.0462709
0.0455259
0.0447422
0.0439269
0.0430869
0.0422287
0.0413583
0.0404817
0.0396041
0.0387306
0.0378657
0.0370135
0.0361775
0.0353607
0.0345659
0.0337955
0.0330512
0.0323344
0.0316461
0.0309872
0.030358
0.0297587
0.0291889
0.0286484
0.0281368
0.0276535
0.0271976
0.0267683
0.0263646
0.0259854
0.0256299
0.0252968
0.0499726
0.0498468
0.0496073
0.0492663
0.048835
0.0483235
0.0477407
0.0470952
0.046395
0.0456476
0.0448603
0.0440406
0.0431954
0.042331
0.0414532
0.0405683
0.0396816
0.0387982
0.0379226
0.037059
0.0362112
0.0353823
0.0345751
0.0337921
0.0330352
0.0323058
0.0316053
0.0309344
0.0302935
0.0296828
0.0291022
0.0285516
0.0280303
0.0275378
0.0270734
0.0266361
0.0262251
0.0258392
0.0254774
0.0251387
0.0502119
0.0500864
0.0498476
0.0495073
0.0490765
0.0485651
0.0479818
0.0473346
0.0466315
0.0458798
0.0450864
0.0442589
0.043404
0.0425276
0.0416361
0.0407358
0.039832
0.0389296
0.0380337
0.0371486
0.0362782
0.035426
0.0345949
0.0337878
0.0330066
0.0322531
0.0315288
0.0308345
0.0301709
0.0295383
0.0289367
0.0283662
0.027826
0.0273157
0.0268345
0.0263817
0.0259562
0.0255571
0.0251832
0.0248334
0.0505517
0.0504269
0.0501892
0.0498503
0.0494208
0.04891
0.0483265
0.0476779
0.0469713
0.0462138
0.0454127
0.0445748
0.0437064
0.0428138
0.0419036
0.0409816
0.0400533
0.0391241
0.0381994
0.0372835
0.0363805
0.0354945
0.0346289
0.0337865
0.0329698
0.0321809
0.0314216
0.030693
0.0299959
0.0293309
0.0286984
0.0280982
0.0275299
0.0269931
0.0264871
0.0260111
0.0255642
0.0251453
0.0247533
0.024387
0.0509804
0.0508567
0.0506208
0.0502842
0.0498572
0.0493483
0.0487656
0.0481161
0.0474063
0.0466431
0.0458333
0.0449832
0.0440991
0.0431871
0.0422537
0.0413049
0.0403462
0.0393833
0.0384219
0.0374666
0.0365219
0.0355923
0.0346818
0.0337936
0.0329304
0.0320951
0.0312896
0.0305156
0.0297741
0.0290661
0.0283922
0.0277524
0.0271465
0.0265741
0.0260348
0.0255277
0.0250519
0.0246063
0.0241898
0.0238013
0.0514868
0.0513647
0.0511317
0.0507988
0.0503757
0.0498706
0.0492904
0.0486415
0.0479299
0.0471618
0.0463433
0.0454805
0.0445794
0.0436461
0.0426866
0.0417069
0.0407129
0.0397106
0.0387055
0.037703
0.0367081
0.0357256
0.0347602
0.0338155
0.0328951
0.032002
0.031139
0.0303082
0.029511
0.0287488
0.0280225
0.0273324
0.0266788
0.0260612
0.0254793
0.0249324
0.0244197
0.02394
0.0234922
0.0230752
0.0520605
0.0519407
0.0517118
0.0513843
0.0509673
0.0504682
0.049893
0.0492471
0.0485357
0.0477644
0.0469388
0.0460641
0.0451461
0.0441906
0.0432034
0.0421902
0.0411572
0.0401104
0.0390559
0.0379993
0.0369462
0.035902
0.0348719
0.0338605
0.0328718
0.0319096
0.0309772
0.0300775
0.0292126
0.0283842
0.0275936
0.0268419
0.0261292
0.0254558
0.0248211
0.0242249
0.0236661
0.023144
0.0226572
0.0222046
0.0526916
0.0525749
0.0523515
0.0520315
0.0516232
0.0511329
0.0505658
0.0499263
0.0492183
0.0484466
0.0476163
0.0467319
0.0457985
0.0448214
0.043806
0.0427581
0.0416837
0.0405889
0.0394801
0.0383634
0.037245
0.0361308
0.0350266
0.033938
0.0328699
0.0318267
0.0308127
0.0298313
0.0288856
0.027978
0.0271103
0.026284
0.0255
0.0247586
0.0240599
0.0234033
0.0227884
0.0222142
0.0216795
0.0211831
0.0533707
0.0532579
0.0530418
0.0527317
0.0523348
0.0518568
0.0513017
0.0506725
0.0499719
0.0492039
0.0483727
0.047482
0.0465359
0.0455393
0.0444971
0.0434148
0.0422981
0.0411531
0.0399863
0.0388046
0.0376145
0.0364226
0.0352354
0.0340594
0.0329005
0.0317641
0.0306553
0.0295788
0.0285383
0.0275371
0.0265779
0.0256629
0.0247934
0.0239705
0.0231944
0.0224651
0.0217822
0.0211449
0.0205521
0.0200026
0.0540889
0.053981
0.053774
0.0534763
0.0530942
0.0526323
0.0520935
0.0514792
0.0507911
0.050032
0.0492048
0.0483124
0.047358
0.0463456
0.0452796
0.0441647
0.0430064
0.0418104
0.0405836
0.0393332
0.0380662
0.0367897
0.035511
0.0342376
0.0329766
0.0317344
0.0305172
0.0293308
0.0281802
0.0270698
0.0260031
0.0249832
0.0240124
0.0230924
0.0222239
0.0214074
0.0206426
0.0199293
0.0192663
0.0186525
0.0548377
0.0547358
0.0545398
0.0542573
0.0538935
0.0534519
0.052934
0.05234
0.0516702
0.0509261
0.0501092
0.049221
0.0482639
0.0472411
0.046156
0.0450124
0.0438148
0.0425689
0.0412817
0.0399605
0.0386127
0.0372458
0.0358679
0.0344876
0.0331131
0.0317521
0.0304122
0.0291004
0.0278232
0.026586
0.025394
0.0242512
0.023161
0.0221259
0.0211475
0.0202268
0.0193642
0.0185596
0.0178121
0.0171208
0.0556093
0.0555144
0.0553314
0.0550668
0.054725
0.0543083
0.0538164
0.0532482
0.0526032
0.0518813
0.0510818
0.0502051
0.0492527
0.0482266
0.0471289
0.0459619
0.0447294
0.0434369
0.042091
0.0406988
0.0392677
0.0378059
0.0363223
0.0348263
0.0333273
0.0318346
0.0303571
0.0289034
0.0274814
0.0260985
0.0247612
0.023475
0.0222447
0.0210739
0.0199653
0.0189207
0.0179413
0.0170272
0.0161783
0.0153937
0.0563961
0.0563092
0.0561412
0.0558974
0.0555815
0.0551943
0.0547335
0.054197
0.0535839
0.052892
0.0521182
0.0512614
0.0503224
0.0493019
0.0481997
0.0470168
0.0457562
0.0444226
0.0430218
0.0415604
0.0400459
0.0384864
0.0368919
0.0352725
0.0336389
0.0320017
0.0303713
0.0287582
0.0271723
0.0256227
0.0241179
0.0226654
0.0212713
0.019941
0.0186785
0.0174869
0.0163682
0.0153233
0.0143527
0.0134558
0.0571913
0.0571135
0.0569624
0.0567421
0.056456
0.0561028
0.0556781
0.0551795
0.0546058
0.053952
0.0532127
0.0523856
0.0514706
0.0504661
0.0493693
0.04818
0.0469001
0.0455333
0.0440842
0.0425582
0.0409622
0.0393048
0.0375961
0.0358472
0.0340698
0.0322758
0.0304774
0.028687
0.0269166
0.0251777
0.023481
0.0218361
0.0202514
0.0187342
0.0172904
0.0159245
0.01464
0.0134389
0.0123222
0.0112903
0.0579885
0.0579208
0.0577882
0.0575943
0.057342
0.0570268
0.0566429
0.0561889
0.0556622
0.0550548
0.0543592
0.0535727
0.0526935
0.0517167
0.0506372
0.0494529
0.0481652
0.046776
0.0452879
0.0437046
0.0420322
0.0402791
0.0384556
0.0365733
0.0346446
0.0326826
0.0307015
0.0287155
0.0267392
0.0247866
0.022871
0.0210049
0.0191991
0.0174636
0.0158065
0.0142346
0.012753
0.0113652
0.0100735
0.00887906
0.0587819
0.0587252
0.0586126
0.0584481
0.0582332
0.0579594
0.0576208
0.0572182
0.0567462
0.0561932
0.0555509
0.0548167
0.053986
0.0530502
0.0520013
0.050836
0.0495543
0.0481561
0.0466411
0.0450111
0.0432707
0.0414278
0.0394922
0.0374753
0.0353901
0.0332508
0.0310731
0.0288736
0.0266694
0.0244773
0.0223138
0.0201943
0.0181331
0.0161432
0.0142359
0.0124207
0.010705
0.00909436
0.00759282
0.0062028
0.0595663
0.0595212
0.05943
0.0592981
0.0591238
0.0588936
0.0586052
0.0582607
0.0578503
0.0573594
0.0567807
0.0561109
0.055342
0.054461
0.0534577
0.0523276
0.0510686
0.0496775
0.048151
0.0464883
0.0446923
0.0427694
0.040728
0.0385791
0.0363353
0.0340119
0.0316259
0.029196
0.0267419
0.0242834
0.0218405
0.0194324
0.0170774
0.0147922
0.0125921
0.0104899
0.00849645
0.00662004
0.00486689
0.00324139
0.0603369
0.0603038
0.0602356
0.0601399
0.0600079
0.0598229
0.0595897
0.0593095
0.0589666
0.0585457
0.058041
0.0574478
0.0567536
0.055942
0.0550009
0.0539243
0.0527071
0.0513422
0.0498226
0.0481449
0.0463099
0.0443213
0.0421854
0.0399112
0.0375111
0.0350003
0.032397
0.0297216
0.0269964
0.0242443
0.021489
0.0187541
0.0160624
0.0134358
0.0108937
0.00845395
0.00613131
0.00393794
0.00188318
-2.59482e-05
0.0610894
0.0610688
0.0610258
0.0609695
0.0608795
0.0607414
0.0605685
0.0603573
0.0600874
0.0597445
0.0593241
0.0588189
0.0582121
0.0574845
0.0566232
0.0556203
0.0544662
0.0531491
0.0516584
0.0499878
0.0481348
0.0460998
0.0438855
0.0414986
0.0389496
0.0362531
0.0334275
0.0304947
0.0274789
0.0244063
0.0213045
0.0182018
0.0151267
0.0121065
0.00916654
0.00633026
0.00361801
0.00104693
-0.00136938
-0.00362023
0.0618197
0.0618125
0.0617979
0.061783
0.061733
0.0616439
0.0615358
0.0613972
0.0612053
0.0609481
0.0606216
0.0602151
0.0597077
0.0590789
0.0583156
0.0574073
0.0563393
0.0550943
0.0536581
0.0520207
0.0501757
0.0481187
0.0458482
0.0433672
0.0406833
0.0378089
0.0347617
0.0315639
0.0282413
0.0248229
0.0213404
0.0178272
0.0143178
0.0108459
0.00744443
0.00414364
0.00097094
-0.00204998
-0.00489958
-0.00756224
0.0625239
0.0625324
0.0625503
0.0625765
0.0625631
0.062526
0.0624861
0.0624223
0.0623137
0.0621492
0.0619249
0.0616263
0.0612299
0.0607148
0.0600678
0.0592751
0.0583166
0.0571704
0.0558177
0.0542439
0.0524376
0.050389
0.0480911
0.0455418
0.0427444
0.0397076
0.0364466
0.0329826
0.029342
0.0255557
0.0216594
0.0176918
0.0136936
0.00970643
0.00577142
0.00192782
-0.00178817
-0.00534429
-0.00871304
-0.0118721
0.0631981
0.0632273
0.063282
0.0633459
0.0633653
0.0633843
0.0634136
0.0634271
0.0634064
0.0633402
0.0632249
0.0630423
0.0627677
0.0623808
0.0618678
0.0612112
0.060386
0.0593665
0.0581289
0.0566531
0.0549216
0.0529176
0.050628
0.0480443
0.0451635
0.0419887
0.0385309
0.034808
0.0308452
0.0266744
0.0223344
0.0178687
0.0133247
0.00875274
0.00420372
-0.000272369
-0.00462822
-0.00882052
-0.0128112
-0.0165688
0.0638388
0.0638977
0.0639917
0.0640865
0.0641362
0.0642155
0.064313
0.0644071
0.0644777
0.0645137
0.064513
0.0644526
0.06431
0.0640648
0.0637025
0.0632016
0.0625333
0.0616688
0.0605793
0.0592391
0.057623
0.0557061
0.0534681
0.0508927
0.0479683
0.0446907
0.0410639
0.0371001
0.0328208
0.028257
0.0234488
0.0184438
0.013296
0.0080647
0.0028123
-0.00239853
-0.00750666
-0.0124546
-0.0171905
-0.0216702
0.0644434
0.0645445
0.0646771
0.0647945
0.0648737
0.0650167
0.0651802
0.0653592
0.0655214
0.0656628
0.0657803
0.0658472
0.065846
0.065754
0.0655575
0.0652305
0.0647422
0.0640608
0.0631526
0.0619875
0.0605311
0.0587499
0.0566145
0.0540991
0.0511819
0.0478488
0.044094
0.0399207
0.0353434
0.0303894
0.0250974
0.019517
0.0137082
0.00773961
0.00168574
-0.00437573
-0.0103666
-0.0162114
-0.0218402
-0.0271918
0.0650113
0.0651689
0.0653339
0.0654667
0.0655764
0.0657858
0.0660119
0.0662809
0.0665309
0.0667818
0.0670181
0.0672171
0.0673648
0.0674356
0.0674181
0.0672812
0.0669946
0.0665233
0.0658295
0.0648793
0.0636288
0.0620368
0.0600626
0.0576685
0.0548207
0.0514931
0.0476664
0.0433311
0.038491
0.0331648
0.0273861
0.0212036
0.014681
0.00789528
0.000933789
-0.00610874
-0.0131335
-0.0200422
-0.0267416
-0.0331476
0.0655448
0.0657708
0.0659561
0.066102
0.0662435
0.0665215
0.0668062
0.0671697
0.0675
0.0678666
0.0682175
0.0685551
0.0688555
0.0690969
0.0692689
0.0693362
0.0692711
0.0690349
0.0685872
0.0678914
0.0668932
0.0655471
0.0637983
0.0615966
0.0588925
0.055646
0.0518204
0.0473898
0.0423422
0.0366821
0.030432
0.0236348
0.0163543
0.00867346
0.000691652
-0.00747755
-0.0157109
-0.0238817
-0.0318664
-0.0395498
0.0660482
0.0663473
0.0665382
0.0667003
0.0668746
0.0672233
0.0675614
0.0680228
0.0684231
0.0689141
0.0693696
0.0698558
0.0703057
0.0707274
0.0710941
0.0713785
0.0715511
0.0715725
0.0714004
0.070997
0.0702963
0.0692543
0.067797
0.0658676
0.0633933
0.0603199
0.0565866
0.0521496
0.0469737
0.0410429
0.0343611
0.026958
0.0188909
0.0102437
0.00112549
-0.00833102
-0.0179747
-0.0276438
-0.0371749
-0.0464109
0.0665278
0.0668929
0.0670771
0.0672625
0.0674705
0.0678906
0.0682764
0.0688369
0.0692969
0.0699209
0.0704672
0.0711153
0.0717029
0.0723184
0.0728761
0.073393
0.0738119
0.0741132
0.0742406
0.0741657
0.0738047
0.0731259
0.0720248
0.0704545
0.0683033
0.0655139
0.0619833
0.0576555
0.0524571
0.04635
0.039307
0.0313355
0.0224764
0.012806
0.00243785
-0.00847936
-0.0197649
-0.0312144
-0.0426127
-0.0537453
0.0669892
0.0673999
0.0675736
0.0677888
0.0680332
0.0685215
0.0689519
0.0696077
0.0701214
0.0708823
0.0715062
0.0723283
0.0730363
0.0738624
0.0745971
0.0753669
0.0760283
0.0766353
0.0770751
0.0773659
0.077379
0.0771235
0.0764382
0.0753194
0.0735836
0.0712096
0.0680071
0.0639404
0.0588542
0.0527081
0.0454097
0.0369465
0.0273215
0.0165936
0.00487145
-0.00768839
-0.0208772
-0.034443
-0.0481049
-0.0615694
0.067437
0.0678619
0.0680302
0.0682787
0.0685659
0.0691129
0.0695903
0.0703295
0.0708999
0.0717905
0.0724885
0.0734858
0.0743021
0.0753492
0.0762446
0.0772866
0.0781771
0.0791184
0.0798684
0.0805661
0.0809727
0.0812033
0.0809822
0.0804145
0.079178
0.0773672
0.0746201
0.0710146
0.0661991
0.0602202
0.0528117
0.0439987
0.0336708
0.0218852
0.00871792
-0.00567484
-0.0210595
-0.0371407
-0.0535573
-0.0699094
0.067873
0.0682758
0.068451
0.0687317
0.0690718
0.0696609
0.0701943
0.0709968
0.0716374
0.0726364
0.073419
0.0745746
0.0755027
0.0767628
0.0778153
0.0791328
0.0802447
0.0815374
0.0825924
0.0837317
0.0845398
0.0853177
0.0855932
0.0856799
0.085011
0.0839276
0.081752
0.0788512
0.0744683
0.0689641
0.0616224
0.0527339
0.0418085
0.0290504
0.0143545
-0.00207467
-0.019995
-0.0390797
-0.0588645
-0.0788245
0.0682971
0.0686425
0.0688395
0.069148
0.0695524
0.070164
0.0707664
0.0716064
0.0723377
0.0734126
0.0743032
0.075582
0.0766433
0.0780845
0.0793118
0.0808798
0.0822276
0.0838577
0.085232
0.0868166
0.0880485
0.0894045
0.0902181
0.0910371
0.0910071
0.090806
0.0893114
0.0873782
0.0835797
0.0789533
0.0718473
0.0633751
0.0519816
0.0385989
0.0222899
0.0036767
-0.0172224
-0.0399481
-0.0638931
-0.08844
0.068707
0.0689657
0.0691986
0.0695296
0.0700075
0.0706232
0.0713069
0.0721597
0.0730022
0.0741179
0.0751438
0.0765022
0.0777277
0.0793017
0.0807369
0.0825056
0.0841251
0.0860439
0.0877799
0.0897664
0.0914794
0.093384
0.0948216
0.0963742
0.0971132
0.0978617
0.0972318
0.0964562
0.0934619
0.0900903
0.0834166
0.0760145
0.0642209
0.0510669
0.0329794
0.0125438
-0.0120308
-0.0391713
-0.0684028
-0.0989769
0.0690982
0.069251
0.0695308
0.0698795
0.0704351
0.0710419
0.0718133
0.0726617
0.073628
0.0747574
0.0759377
0.0773386
0.0787537
0.0804149
0.0820877
0.0840042
0.0859312
0.0880783
0.090224
0.092544
0.0948109
0.0971877
0.0993691
0.101576
0.103283
0.104914
0.105467
0.10584
0.104118
0.102128
0.0963984
0.0904636
0.078537
0.0666028
0.0464373
0.0257441
-0.00379064
-0.0354549
-0.0720753
-0.110772
0.0694659
0.0695056
0.0698383
0.070201
0.0708327
0.0714241
0.0722824
0.0731187
0.0742103
0.0753388
0.0766783
0.0780997
0.0797124
0.0814325
0.0833521
0.0853824
0.0876282
0.0899627
0.0925368
0.0951406
0.097999
0.100787
0.103794
0.106577
0.10943
0.111839
0.113933
0.115308
0.115522
0.114746
0.111053
0.106371
0.0955406
0.0848218
0.0628655
0.0432893
0.00736301
-0.0259971
-0.075031
-0.123869
0.0698063
0.0697356
0.0701238
0.0704967
0.0711988
0.0717736
0.0727121
0.0735373
0.0747443
0.0758706
0.0773579
0.0787957
0.0805937
0.0823642
0.0845181
0.0866479
0.0892004
0.0917016
0.0946937
0.097554
0.101002
0.104165
0.108023
0.111333
0.115428
0.118548
0.122445
0.124734
0.127472
0.127772
0.127333
0.123543
0.116213
0.105502
0.0844543
0.0642045
0.0220178
-0.0105307
-0.0783372
-0.135248
0.0701179
0.0699466
0.0703887
0.0707687
0.0715329
0.0720941
0.0731029
0.0739224
0.0752284
0.0763591
0.0779725
0.0794345
0.0813898
0.0832194
0.0855718
0.0878108
0.0906247
0.0933046
0.0966561
0.0997928
0.103753
0.107328
0.111943
0.115848
0.12109
0.125034
0.130716
0.134045
0.139593
0.140968
0.144862
0.14181
0.140519
0.129291
0.114405
0.0886632
0.0458899
0.00690731
-0.0811078
-0.138228
0.070401
0.0701421
0.0706339
0.0710187
0.0718361
0.0723885
0.0734562
0.0742773
0.0756642
0.076808
0.0785242
0.0800194
0.0821025
0.0840009
0.0865142
0.0888731
0.0918984
0.0947721
0.0984135
0.101853
0.106226
0.110268
0.115485
0.120106
0.126255
0.131279
0.138366
0.143261
0.151081
0.154512
0.162383
0.161364
0.167327
0.155654
0.153307
0.120746
0.0891626
0.0247154
-0.0727554
-0.139984
0.0706563
0.0703245
0.0708598
0.0712485
0.0721097
0.072659
0.0737737
0.074604
0.0760556
0.0772195
0.079015
0.0805522
0.0827353
0.0847087
0.0873494
0.089832
0.0930268
0.0960957
0.0999716
0.103716
0.108423
0.112941
0.11865
0.124022
0.130904
0.137132
0.145322
0.152169
0.16166
0.168243
0.17873
0.18245
0.193087
0.186983
0.195788
0.161871
0.156884
0.0527177
-0.0366559
-0.223652
0.0708854
0.0704948
0.0710673
0.0714591
0.0723557
0.0729066
0.0740569
0.0749032
0.0764002
0.0775944
0.0794471
0.0810338
0.0832908
0.0853434
0.088081
0.0906867
0.0940141
0.0972707
0.101335
0.105366
0.11035
0.115312
0.121438
0.12751
0.135035
0.142396
0.151582
0.160321
0.171345
0.181223
0.193951
0.203728
0.217322
0.222646
0.23516
0.220265
0.229939
0.132451
0.0943451
-0.406774
0.024993
0.0247113
0.0244385
0.0241747
0.0239203
0.0236753
0.0234399
0.0232143
0.0229985
0.0227927
0.0248299
0.0245438
0.0242668
0.0239993
0.0237414
0.0234934
0.0232553
0.0230273
0.0228095
0.0226022
0.0245149
0.0242201
0.023935
0.0236601
0.0233955
0.0231415
0.0228981
0.0226656
0.0224441
0.0222338
0.024054
0.0237461
0.023449
0.023163
0.0228884
0.0226254
0.0223742
0.0221349
0.0219078
0.021693
0.0234486
0.0231232
0.0228099
0.022509
0.0222209
0.0219458
0.021684
0.0214358
0.0212012
0.0209805
0.0226973
0.0223494
0.0220151
0.0216952
0.0213898
0.0210993
0.020824
0.0205642
0.0203202
0.0200921
0.0217952
0.0214192
0.0210589
0.0207151
0.0203881
0.0200784
0.0197864
0.0195124
0.0192567
0.0190196
0.0207352
0.0203245
0.0199322
0.0195591
0.0192057
0.0188725
0.0185601
0.0182687
0.0179989
0.017751
0.0195076
0.0190548
0.0186235
0.0182147
0.0178291
0.0174674
0.0171301
0.0168179
0.0165311
0.0162703
0.0181005
0.0175968
0.0171182
0.0166661
0.0162415
0.0158452
0.0154781
0.0151407
0.0148337
0.0145577
0.0165001
0.0159346
0.0153989
0.0148945
0.0144228
0.0139848
0.0135816
0.0132141
0.012883
0.0125892
0.01469
0.0140501
0.0134453
0.0128776
0.012349
0.0118607
0.0114141
0.0110104
0.0106506
0.0103357
0.0126522
0.0119224
0.011234
0.0105899
0.00999227
0.00944316
0.00894418
0.00849699
0.00810288
0.00776307
0.0103661
0.00952764
0.00873816
0.00800143
0.00732037
0.00669755
0.00613522
0.00563555
0.00520026
0.00483095
0.00780934
0.00683944
0.00592749
0.00507838
0.00429598
0.0035837
0.00294451
0.00238132
0.00189642
0.00149192
0.00495733
0.00382829
0.0027677
0.001782
0.000876291
5.50978e-05
-0.000677589
-0.00131794
-0.00186288
-0.00230961
0.0017835
0.000461497
-0.00077975
-0.00193178
-0.00298783
-0.00394192
-0.0047887
-0.00552313
-0.00614103
-0.00663876
-0.00174076
-0.00329692
-0.00475801
-0.00611291
-0.00735265
-0.00846927
-0.00945566
-0.0103051
-0.0110121
-0.0115717
-0.00564596
-0.00748654
-0.0092155
-0.0108182
-0.0122826
-0.0135984
-0.014756
-0.0157465
-0.0165625
-0.0171977
-0.0099645
-0.0121509
-0.0142065
-0.0161121
-0.0178519
-0.019412
-0.0207797
-0.0219434
-0.0228932
-0.0236208
-0.0147306
-0.0173377
-0.0197922
-0.0220686
-0.024146
-0.0260059
-0.0276318
-0.0290082
-0.0301221
-0.0309628
-0.0199805
-0.0230999
-0.0260416
-0.0287722
-0.0312638
-0.033492
-0.035435
-0.0370726
-0.0383877
-0.0393664
-0.0257529
-0.0294965
-0.033034
-0.036321
-0.0393208
-0.0420013
-0.0443335
-0.0462912
-0.0478522
-0.048999
-0.0320898
-0.036595
-0.0408614
-0.0448305
-0.0484537
-0.0516887
-0.0544974
-0.0568464
-0.0587074
-0.0600581
-0.0390377
-0.0444737
-0.0496331
-0.0544387
-0.0588258
-0.0627389
-0.066129
-0.0689537
-0.0711781
-0.0727751
-0.0466502
-0.0532262
-0.0594814
-0.065313
-0.0706349
-0.0753744
-0.0794693
-0.0828669
-0.0855259
-0.0874155
-0.0549926
-0.0629691
-0.0705719
-0.0776621
-0.0841251
-0.0898661
-0.0948068
-0.098885
-0.102054
-0.104283
-0.0641498
-0.0738554
-0.0831202
-0.0917551
-0.099606
-0.10655
-0.112491
-0.117359
-0.12111
-0.123718
-0.0742353
-0.0860916
-0.0974166
-0.107949
-0.117479
-0.12585
-0.132947
-0.138704
-0.143087
-0.146096
-0.0854077
-0.0999651
-0.113861
-0.126727
-0.138276
-0.148305
-0.156693
-0.163392
-0.168415
-0.171809
-0.0979133
-0.1159
-0.133032
-0.148772
-0.162716
-0.174607
-0.184339
-0.191941
-0.197525
-0.20123
-0.112149
-0.134554
-0.155815
-0.175102
-0.191811
-0.205645
-0.216597
-0.224875
-0.230793
-0.234647
-0.128692
-0.156928
-0.183619
-0.207292
-0.227028
-0.242602
-0.254309
-0.262739
-0.26852
-0.272206
-0.148344
-0.184615
-0.218632
-0.247579
-0.270268
-0.286874
-0.298398
-0.306063
-0.31092
-0.313873
-0.172745
-0.220979
-0.264258
-0.298596
-0.323345
-0.339578
-0.349301
-0.354704
-0.357587
-0.359143
-0.208039
-0.275272
-0.327311
-0.364471
-0.388688
-0.402
-0.407055
-0.407497
-0.406578
-0.406107
-0.269483
-0.362642
-0.421189
-0.455812
-0.473131
-0.477021
-0.472263
-0.463431
-0.454072
-0.446928
-0.358264
-0.476819
-0.550429
-0.580244
-0.577507
-0.561989
-0.542553
-0.522237
-0.501949
-0.485031
-0.472605
-0.557682
-0.690361
-0.728589
-0.681274
-0.623396
-0.575784
-0.538313
-0.50968
-0.488084
-1.04679
-0.673679
-0.745924
-0.750144
-0.716599
-0.659178
-0.601574
-0.552828
-0.517457
-0.493572
0.0225859
0.0223782
0.0221789
0.0219891
0.0218094
0.021641
0.0214846
0.0213412
0.0212116
0.0210968
0.0209975
0.0209144
0.0208481
0.0207995
0.0207686
0.0207562
0.0207621
0.0207868
0.0208297
0.020891
0.0209697
0.0210655
0.0211771
0.0213037
0.0214433
0.0215947
0.0217553
0.0219233
0.0220957
0.0222701
0.0224425
0.0226101
0.0227678
0.0229128
0.0230389
0.0231424
0.0232167
0.0232578
0.0232574
0.023211
0.0231094
0.0229475
0.022715
0.0224066
0.0220115
0.0215236
0.0209324
0.020232
0.0194121
0.0184675
0.0173894
0.0161735
0.0148121
0.0133052
0.0116455
0.00983903
0.00788273
0.00578866
0.00355905
0.00121112
0.0223942
0.0221857
0.0219861
0.0217965
0.0216177
0.0214507
0.0212964
0.0211557
0.0210296
0.0209189
0.0208244
0.020747
0.020687
0.0206454
0.0206223
0.0206183
0.0206333
0.0206676
0.0207207
0.0207927
0.0208826
0.02099
0.0211135
0.0212522
0.0214041
0.0215678
0.0217407
0.0219211
0.0221058
0.0222924
0.0224767
0.0226559
0.022825
0.0229811
0.0231177
0.0232318
0.023316
0.0233666
0.0233752
0.0233372
0.0232435
0.0230888
0.0228626
0.0225596
0.0221689
0.0216844
0.0210954
0.0203957
0.0195753
0.0186289
0.0175472
0.0163262
0.0149576
0.0134415
0.0117698
0.00994855
0.00797357
0.00585774
0.00360253
0.00122635
0.0220234
0.0218134
0.0216133
0.0214242
0.0212471
0.021083
0.0209328
0.0207976
0.0206782
0.0205757
0.0204908
0.0204243
0.0203767
0.0203489
0.0203409
0.0203533
0.020386
0.0204392
0.0205122
0.0206051
0.0207166
0.0208464
0.0209928
0.0211549
0.0213303
0.0215176
0.0217143
0.0219185
0.0221266
0.0223363
0.0225432
0.0227446
0.0229353
0.0231124
0.0232695
0.0234032
0.023506
0.0235745
0.0236002
0.0235785
0.0234996
0.0233585
0.0231444
0.0228518
0.0224695
0.0219914
0.0214064
0.0207082
0.019887
0.0189369
0.0178488
0.0166183
0.0152365
0.0137029
0.0120087
0.0101595
0.00814926
0.00599157
0.00368717
0.00125604
0.0214792
0.021267
0.0210662
0.0208781
0.0207036
0.0205439
0.0204
0.0202731
0.020164
0.0200739
0.0200034
0.0199535
0.0199246
0.0199174
0.0199321
0.0199691
0.0200282
0.0201093
0.0202119
0.0203355
0.020479
0.0206416
0.0208217
0.0210177
0.0212272
0.0214489
0.0216801
0.0219184
0.0221602
0.0224028
0.022642
0.022875
0.0230964
0.0233034
0.0234893
0.0236507
0.0237802
0.0238744
0.0239244
0.0239257
0.023868
0.0237464
0.0235497
0.023272
0.0229018
0.0224327
0.0218535
0.0211574
0.0203351
0.0193797
0.0182829
0.0170393
0.0156393
0.0140816
0.0123558
0.0104672
0.0084065
0.00618821
0.00381195
0.00129995
0.0207622
0.0205472
0.0203457
0.020159
0.0199883
0.0198349
0.0196998
0.0195843
0.0194895
0.0194164
0.0193657
0.0193384
0.0193348
0.0193557
0.0194011
0.0194712
0.0195657
0.0196843
0.0198262
0.0199908
0.0201765
0.0203826
0.0206067
0.0208467
0.0211007
0.0213671
0.0216426
0.0219246
0.0222092
0.0224939
0.022774
0.0230469
0.023307
0.0235516
0.0237737
0.0239705
0.0241336
0.0242601
0.0243406
0.0243711
0.0243406
0.024244
0.0240694
0.0238109
0.0234561
0.0229985
0.0224265
0.0217329
0.0209092
0.0199474
0.0188401
0.0175808
0.0161588
0.0145722
0.0128076
0.0108695
0.00874442
0.00644796
0.00397762
0.00135855
0.0198682
0.0196498
0.0194477
0.0192632
0.0190977
0.0189527
0.0188293
0.0187291
0.0186529
0.0186021
0.0185773
0.0185794
0.0186088
0.018666
0.0187509
0.0188635
0.0190031
0.0191695
0.0193612
0.0195772
0.0198161
0.0200761
0.0203541
0.0206486
0.0209575
0.0212784
0.0216074
0.0219418
0.0222777
0.0226124
0.022941
0.0232611
0.0235669
0.0238558
0.0241204
0.0243587
0.0245614
0.0247263
0.024843
0.0249085
0.0249105
0.0248439
0.0246963
0.0244606
0.0241244
0.0236802
0.0231168
0.0224259
0.0216006
0.020631
0.0195122
0.0182358
0.0167895
0.015171
0.0133626
0.0113671
0.00916474
0.00677304
0.00418628
0.00143289
0.0187889
0.0185667
0.0183641
0.0181829
0.0180244
0.0178905
0.0177825
0.0177019
0.0176499
0.0176276
0.0176357
0.0176752
0.0177462
0.0178491
0.0179835
0.018149
0.0183448
0.01857
0.0188227
0.0191018
0.0194051
0.0197293
0.020072
0.0204316
0.0208054
0.0211897
0.0215807
0.0219755
0.0223702
0.0227618
0.0231455
0.0235189
0.0238761
0.0242147
0.024527
0.0248119
0.0250588
0.025268
0.0254259
0.0255318
0.0255714
0.0255398
0.0254236
0.0252147
0.0249002
0.0244711
0.0239168
0.0232282
0.0224009
0.0214223
0.0202917
0.0189983
0.0175269
0.0158758
0.014021
0.0119625
0.00967122
0.00716807
0.00444204
0.00152471
0.0175123
0.0172858
0.0170833
0.0169066
0.0167576
0.0166382
0.0165499
0.0164944
0.0164728
0.0164866
0.0165362
0.0166224
0.0167452
0.0169048
0.0171001
0.0173306
0.017595
0.0178914
0.0182178
0.0185724
0.0189512
0.0193508
0.0197697
0.020205
0.0206528
0.0211088
0.0215697
0.0220321
0.0224919
0.0229463
0.0233902
0.0238218
0.0242348
0.0246274
0.0249915
0.0253275
0.0256237
0.0258809
0.0260842
0.0262355
0.0263171
0.0263258
0.0262456
0.0260671
0.0257778
0.025365
0.0248202
0.0241324
0.023302
0.0223128
0.0211711
0.0198617
0.0183667
0.0166858
0.0147849
0.0126601
0.0102697
0.00764059
0.00475085
0.00163636
0.0160224
0.0157913
0.0155895
0.0154192
0.0152827
0.0151819
0.0151188
0.0150951
0.015112
0.0151709
0.0152722
0.0154165
0.0156032
0.0158323
0.0161021
0.0164117
0.0167586
0.0171404
0.0175548
0.0179976
0.0184641
0.0189516
0.0194583
0.0199791
0.0205095
0.021045
0.0215827
0.0221185
0.0226485
0.0231699
0.0236779
0.0241711
0.0246429
0.0250924
0.0255116
0.0259017
0.0262499
0.0265587
0.0268117
0.0270136
0.0271415
0.0271962
0.0271566
0.027013
0.0267519
0.0263564
0.0258207
0.0251316
0.024296
0.0232933
0.0221422
0.0208195
0.0193047
0.0176007
0.015658
0.0134662
0.0109684
0.00820125
0.00512019
0.00177092
0.0142992
0.0140632
0.0138632
0.0137018
0.0135815
0.0135048
0.0134736
0.0134901
0.0135552
0.0136705
0.0138358
0.0140517
0.0143171
0.0146311
0.0149914
0.0153963
0.015842
0.0163257
0.0168433
0.0173877
0.0179559
0.0185446
0.0191504
0.0197655
0.0203866
0.0210085
0.0216286
0.0222421
0.0228458
0.0234369
0.0240112
0.0245678
0.0250999
0.0256082
0.0260842
0.02653
0.0269325
0.0272966
0.0276026
0.0278596
0.0280378
0.0281454
0.0281512
0.028048
0.0278189
0.0274404
0.0269121
0.0262176
0.0253732
0.0243534
0.0231961
0.0218638
0.0203358
0.0186207
0.0166456
0.0143888
0.0117795
0.00886414
0.00555833
0.00193247
0.0123184
0.0120774
0.0118806
0.0117312
0.0116321
0.0115861
0.0115955
0.0116624
0.0117879
0.0119733
0.012218
0.0125221
0.0128837
0.013301
0.0137709
0.01429
0.0148537
0.0154583
0.0160974
0.0167575
0.0174422
0.0181451
0.0188601
0.0195782
0.0202972
0.0210107
0.0217171
0.0224106
0.0230894
0.0237511
0.0243918
0.025012
0.0256042
0.0261717
0.0267049
0.0272071
0.0276655
0.0280864
0.0284484
0.0287647
0.028998
0.0291669
0.0292237
0.029169
0.0289758
0.0286141
0.0280898
0.027382
0.0265214
0.0254792
0.0243207
0.0229848
0.0214546
0.019746
0.0177527
0.0154371
0.012721
0.00964865
0.00607451
0.00212662
0.0100509
0.00980493
0.00961323
0.00947989
0.00940812
0.00940142
0.00946201
0.00959234
0.00979323
0.0100657
0.0104085
0.0108213
0.0113004
0.0118434
0.0124453
0.0131006
0.0138035
0.0145464
0.0153191
0.01612
0.01694
0.0177704
0.0186047
0.0194334
0.020256
0.0210644
0.0218583
0.0226316
0.0233847
0.0241152
0.0248206
0.0255026
0.0261531
0.0267788
0.0273677
0.027926
0.0284407
0.0289185
0.0293397
0.0297186
0.0300127
0.030253
0.0303671
0.0303735
0.0302209
0.0298753
0.0293498
0.0286166
0.0277263
0.0266537
0.0254998
0.0241687
0.0226528
0.0209761
0.018983
0.0166218
0.0138173
0.0105787
0.00668073
0.00236304
0.0074622
0.00721129
0.00702734
0.00691521
0.00687868
0.00692187
0.00704708
0.00725697
0.00755196
0.00793258
0.00839683
0.008943
0.00956584
0.0102617
0.0110227
0.0118417
0.0127101
0.0136165
0.0145507
0.0155056
0.0164743
0.017443
0.0184049
0.0193501
0.0202792
0.0211825
0.0220624
0.0229122
0.0237356
0.0245306
0.0252964
0.0260365
0.0267422
0.0274241
0.0280657
0.0286786
0.0292483
0.0297819
0.0302646
0.0307076
0.0310701
0.0313931
0.0315732
0.0316593
0.0315527
0.0312236
0.0306882
0.0299108
0.028971
0.027856
0.0267133
0.0253978
0.0239192
0.0223058
0.0203356
0.0179544
0.015099
0.0116809
0.0073924
0.00265815
0.00451149
0.00425593
0.00408304
0.00399866
0.0040073
0.00411373
0.0043203
0.00462994
0.00504219
0.00555718
0.00617141
0.00688146
0.00768018
0.00856152
0.00951401
0.0105284
0.0115915
0.0126875
0.0138064
0.0149375
0.0160707
0.0171882
0.0182848
0.0193497
0.0203845
0.0213788
0.0223385
0.0232578
0.0241442
0.0249964
0.0258163
0.026609
0.0273649
0.0280997
0.0287899
0.0294558
0.0300765
0.0306632
0.0312077
0.0317134
0.032155
0.0325717
0.0328308
0.0330238
0.0329694
0.0326601
0.0321017
0.0312512
0.0302312
0.0290596
0.0279359
0.0266531
0.0252413
0.023725
0.0218036
0.0194459
0.0165974
0.0129826
0.00823079
0.00303683
0.00115086
0.000891059
0.000733417
0.000685024
0.000751273
0.000937613
0.00124651
0.00168094
0.00223933
0.00292115
0.0037205
0.00463206
0.00564567
0.00675177
0.0079348
0.00918147
0.0104729
0.0117899
0.0131205
0.0144489
0.0157611
0.0170367
0.0182723
0.0194555
0.0205902
0.0216665
0.0226949
0.0236717
0.0246097
0.0255081
0.0263736
0.0272119
0.0280128
0.0287964
0.0295299
0.0302464
0.0309111
0.031547
0.0321489
0.0327123
0.0332459
0.0337663
0.0341248
0.0344621
0.0344689
0.0341867
0.0335868
0.0326207
0.0314724
0.0302265
0.0291356
0.0279148
0.0266041
0.0252157
0.0233763
0.0211072
0.0183391
0.014505
0.00922666
0.00353332
-0.00267601
-0.0029395
-0.00307664
-0.00307875
-0.00293941
-0.00265236