/*--------------------------------*- C++ -*----------------------------------*\
| =========                 |                                                 |
| \\      /  F ield         | OpenFOAM: The Open Source CFD Toolbox           |
|  \\    /   O peration     | Version:  2512                                  |
|   \\  /    A nd           | Website:  www.openfoam.com                      |
|    \\/     M anipulation  |                                                 |
\*---------------------------------------------------------------------------*/
FoamFile
{
    version     2.0;
    format      ascii;
    arch        "LSB;label=32;scalar=64";
    class       surfaceScalarField;
    location    "80";
    object      phi;
}
// * * * * * * * * * * * * * * * * * * * * * * * * * * * * * * * * * * * * * //

dimensions      [0 3 -1 0 0 0 0];

oriented        oriented;

internalField   nonuniform List<scalar> 
19380
(
0.874559
-5.60063e-05
0.874714
-0.000155316
0.874952
-0.000238458
0.87526
-0.000307838
0.875626
-0.000366129
0.876042
-0.000415713
0.876501
-0.000459003
0.876998
-0.000497374
0.87753
-0.000531884
0.878094
-0.000563258
0.878685
-0.000591896
0.879303
-0.000617903
0.879945
-0.000641149
0.880606
-0.000661354
0.881284
-0.000678178
0.881975
-0.000691303
0.882676
-0.000700494
0.883381
-0.000705637
0.884088
-0.00070675
0.884792
-0.000703973
0.88549
-0.000697548
0.886178
-0.000687794
0.886853
-0.000675083
0.887512
-0.000659814
0.888155
-0.000642391
0.888778
-0.000623211
0.889381
-0.000602649
0.889962
-0.000581055
0.89052
-0.000558745
0.891057
-0.000536008
0.89157
-0.000513091
0.89206
-0.000490177
0.892527
-0.000467423
0.892972
-0.000444994
0.893395
-0.000423029
0.893797
-0.000401633
0.894178
-0.000380892
0.894539
-0.000360864
0.89488
-0.000341598
-0.000323165
0.895203
0.844017
-0.000109983
0.844167
-0.000304981
0.844397
-0.000468163
0.844693
-0.000604285
0.845046
-0.000718643
0.845446
-0.000815956
0.845888
-0.000901049
0.846367
-0.000976606
0.84688
-0.00104473
0.847424
-0.00110683
0.847996
-0.00116369
0.848593
-0.00121549
0.849214
-0.00126195
0.849855
-0.00130247
0.850513
-0.00133636
0.851185
-0.00136297
0.851866
-0.00138182
0.852553
-0.00139265
0.853242
-0.00139549
0.853929
-0.00139061
0.85461
-0.00137847
0.855281
-0.0013597
0.855941
-0.00133502
0.856587
-0.00130522
0.857216
-0.00127111
0.857826
-0.00123346
0.858416
-0.00119302
0.858986
-0.00115048
0.859533
-0.00110648
0.860059
-0.00106159
0.860562
-0.00101631
0.861043
-0.000971
0.861501
-0.000925982
0.861938
-0.000881584
0.862353
-0.000838082
0.862747
-0.000795691
0.863121
-0.00075458
0.863475
-0.000714872
0.86381
-0.000676664
-0.000640099
0.864127
0.814543
-0.000161823
0.814686
-0.000448635
0.814907
-0.000688605
0.815191
-0.00088878
0.81553
-0.00105708
0.815914
-0.00120042
0.816339
-0.00132595
0.8168
-0.00143776
0.817294
-0.00153893
0.817819
-0.00163155
0.818372
-0.00171671
0.818951
-0.00179463
0.819554
-0.00186484
0.820178
-0.00192641
0.82082
-0.00197825
0.821476
-0.00201933
0.822143
-0.0020489
0.822817
-0.00206656
0.823494
-0.00207228
0.82417
-0.00206645
0.824841
-0.00204971
0.825505
-0.00202299
0.826157
-0.00198735
0.826796
-0.00194396
0.827419
-0.001894
0.828024
-0.00183864
0.82861
-0.00177899
0.829175
-0.00171608
0.82972
-0.00165088
0.830242
-0.00158424
0.830743
-0.00151691
0.831221
-0.00144949
0.831678
-0.00138244
0.832113
-0.00131625
0.832526
-0.00125134
0.832918
-0.00118804
0.83329
-0.00112662
0.833643
-0.00106727
0.833976
-0.00101013
-0.000955429
0.834291
0.786097
-0.000211456
0.786235
-0.000586071
0.786445
-0.000899437
0.786717
-0.00116084
0.787041
-0.00138088
0.787409
-0.00156863
0.787817
-0.0017332
0.788259
-0.00188045
0.788735
-0.00201434
0.789241
-0.00213756
0.789776
-0.00225149
0.790337
-0.00235633
0.790924
-0.00245137
0.791533
-0.00253528
0.792161
-0.00260653
0.792805
-0.00266366
0.793462
-0.0027056
0.794127
-0.00273174
0.794797
-0.00274201
0.795467
-0.00273682
0.796135
-0.002717
0.796795
-0.00268373
0.797446
-0.00263841
0.798085
-0.00258256
0.798709
-0.00251773
0.799316
-0.00244549
0.799904
-0.00236729
0.800472
-0.00228455
0.80102
-0.00219854
0.801546
-0.00211041
0.802051
-0.0020212
0.802533
-0.00193174
0.802993
-0.00184267
0.803431
-0.00175463
0.803848
-0.00166819
0.804244
-0.00158382
0.804619
-0.00150188
0.804975
-0.00142265
0.805311
-0.00134633
-0.00127322
0.805629
0.758645
-0.000258792
0.758776
-0.000717016
0.758976
-0.00110022
0.759236
-0.00141988
0.759544
-0.00168925
0.759895
-0.00191991
0.760284
-0.00212204
0.760708
-0.00230399
0.761164
-0.00247043
0.761651
-0.00262458
0.762167
-0.00276805
0.762712
-0.00290098
0.763283
-0.00302236
0.763878
-0.00313038
0.764494
-0.00322298
0.765129
-0.00329824
0.765778
-0.00335472
0.766438
-0.00339153
0.767104
-0.00340847
0.767773
-0.00340597
0.768441
-0.00338497
0.769105
-0.00334692
0.76976
-0.00329347
0.770404
-0.00322652
0.771034
-0.00314798
0.771648
-0.00305979
0.772245
-0.00296379
0.772822
-0.00286175
0.773379
-0.00275528
0.773914
-0.00264587
0.774428
-0.0025348
0.774919
-0.00242321
0.775388
-0.00231197
0.775836
-0.00220182
0.776261
-0.00209352
0.776665
-0.00198767
0.777048
-0.00188476
0.77741
-0.00178516
0.777753
-0.00168916
-0.00159713
0.778077
0.732151
-0.000303713
0.732275
-0.000841138
0.732465
-0.00129039
0.73271
-0.00166518
0.733003
-0.00198132
0.733336
-0.00225311
0.733705
-0.00249157
0.734109
-0.00270738
0.734544
-0.00290624
0.735012
-0.00309179
0.735509
-0.00326581
0.736037
-0.0034283
0.736592
-0.00357787
0.737174
-0.00371215
0.73778
-0.00382851
0.738406
-0.00392446
0.739049
-0.00399812
0.739706
-0.00404826
0.740372
-0.00407448
0.741043
-0.00407714
0.741715
-0.00405731
0.742385
-0.00401659
0.743049
-0.00395693
0.743703
-0.00388053
0.744344
-0.00378965
0.744971
-0.00368661
0.745581
-0.00357366
0.746172
-0.00345292
0.746743
-0.00332637
0.747293
-0.00319582
0.747821
-0.00306286
0.748327
-0.00292894
0.74881
-0.00279518
0.749271
-0.00266251
0.749709
-0.00253181
0.750125
-0.00240388
0.75052
-0.00227935
0.750893
-0.00215868
0.751247
-0.00204226
-0.00193057
0.75158
0.706582
-0.000346077
0.706699
-0.000958051
0.706878
-0.00146934
0.707109
-0.00189592
0.707383
-0.00225611
0.707697
-0.00256677
0.708046
-0.00284072
0.708428
-0.00308936
0.708842
-0.00332049
0.709289
-0.00353795
0.709766
-0.00374366
0.710275
-0.00393738
0.710815
-0.00411727
0.711383
-0.00428029
0.711978
-0.00442317
0.712596
-0.00454281
0.713235
-0.00463676
0.71389
-0.00470336
0.714557
-0.00474192
0.715233
-0.00475271
0.715912
-0.00473681
0.716592
-0.00469599
0.717267
-0.0046324
0.717935
-0.00454853
0.718592
-0.00444697
0.719236
-0.00433044
0.719864
-0.00420155
0.720474
-0.00406286
0.721064
-0.00391666
0.721634
-0.00376514
0.722181
-0.00361022
0.722706
-0.00345367
0.723208
-0.00329694
0.723686
-0.00314118
0.724142
-0.00298741
0.724575
-0.0028366
0.724985
-0.00268957
0.725373
-0.0025469
0.72574
-0.00240912
-0.00227681
0.726086
0.681906
-0.000385739
0.682015
-0.00106733
0.682182
-0.00163639
0.682397
-0.00211118
0.682654
-0.00251247
0.682946
-0.00285958
0.683274
-0.00316785
0.683633
-0.00344851
0.684024
-0.00371157
0.684447
-0.00396141
0.684904
-0.0042
0.685393
-0.00442678
0.685915
-0.00463927
0.686468
-0.00483376
0.687052
-0.00500624
0.687662
-0.00515294
0.688296
-0.00527071
0.68895
-0.00535735
0.68962
-0.0054118
0.690301
-0.00543416
0.69099
-0.00542549
0.691681
-0.00538761
0.692372
-0.00532281
0.693057
-0.00523386
0.693734
-0.00512364
0.694399
-0.00499528
0.695049
-0.00485175
0.695682
-0.004696
0.696296
-0.00453072
0.696889
-0.00435848
0.697461
-0.00418155
0.698009
-0.00400205
0.698534
-0.0038218
0.699035
-0.00364223
0.699512
-0.00346456
0.699965
-0.0032899
0.700395
-0.0031193
0.700802
-0.00295351
0.701186
-0.00279318
-0.00263905
0.701548
0.658091
-0.000422551
0.658192
-0.00116851
0.658347
-0.00179086
0.658545
-0.00231003
0.658782
-0.00274926
0.659053
-0.00313029
0.659356
-0.00347088
0.659691
-0.00378335
0.660057
-0.00407764
0.660456
-0.0043602
0.660889
-0.00463285
0.661356
-0.00489451
0.661859
-0.00514198
0.662396
-0.0053708
0.662966
-0.00557625
0.663567
-0.00575372
0.664195
-0.00589923
0.664848
-0.00600991
0.66552
-0.00608427
0.666208
-0.0061222
0.666907
-0.00612456
0.667613
-0.0060932
0.668321
-0.00603044
0.669026
-0.00593927
0.669725
-0.00582288
0.670415
-0.00568474
0.671091
-0.00552819
0.671752
-0.00535657
0.672394
-0.00517298
0.673016
-0.00498039
0.673616
-0.00478148
0.674193
-0.00457873
0.674745
-0.00437434
0.675273
-0.00417015
0.675776
-0.00396759
0.676254
-0.00376794
0.676707
-0.00357251
0.677136
-0.00338221
0.677541
-0.00319794
-0.00302053
0.677922
0.635108
-0.000456366
0.6352
-0.00126118
0.635341
-0.00193209
0.635523
-0.00249161
0.635739
-0.00296529
0.635986
-0.00337753
0.636264
-0.00374829
0.636572
-0.00409161
0.636911
-0.00441686
0.637283
-0.00473219
0.63769
-0.00503991
0.638134
-0.00533815
0.638615
-0.00562293
0.639133
-0.00588907
0.639688
-0.00613105
0.640277
-0.00634324
0.640899
-0.0065207
0.641549
-0.00665984
0.642223
-0.00675864
0.642918
-0.00681666
0.643628
-0.00683447
0.644348
-0.00681377
0.645075
-0.00675688
0.645802
-0.00666696
0.646527
-0.00654742
0.647244
-0.00640207
0.647951
-0.00623455
0.648643
-0.00604863
0.649317
-0.00584777
0.649972
-0.00563542
0.650606
-0.00541468
0.651215
-0.00518846
0.6518
-0.00495934
0.65236
-0.00472958
0.652893
-0.00450101
0.6534
-0.00427508
0.653881
-0.00405333
0.654336
-0.00383693
0.654765
-0.00362701
-0.0034246
0.655169
0.612927
-0.00048704
0.61301
-0.00134494
0.613138
-0.00205949
0.613301
-0.00265505
0.613495
-0.00315945
0.613718
-0.00360008
0.613968
-0.00399874
0.614248
-0.00437077
0.614558
-0.00472715
0.614901
-0.00507519
0.61528
-0.00541867
0.615696
-0.00575489
0.616153
-0.00607919
0.616649
-0.00638566
0.617186
-0.00666784
0.617762
-0.00691885
0.618374
-0.00713272
0.619019
-0.00730509
0.619694
-0.00743335
0.620393
-0.00751656
0.621114
-0.00755482
0.62185
-0.00754959
0.622596
-0.00750306
0.623347
-0.00741853
0.624099
-0.00729952
0.624848
-0.00715014
0.625587
-0.00697427
0.626315
-0.00677607
0.627026
-0.00655942
0.627719
-0.00632821
0.62839
-0.00608602
0.629038
-0.00583621
0.629661
-0.00558181
0.630257
-0.00532552
0.630825
-0.00506968
0.631366
-0.00481598
0.631879
-0.00456623
0.632364
-0.00432185
0.632821
-0.00408432
-0.00385486
0.633252
0.59152
-0.000514444
0.591595
-0.00141948
0.591708
-0.00217258
0.591852
-0.00279952
0.592023
-0.00333082
0.59222
-0.00379689
0.592442
-0.00422081
0.592691
-0.00461925
0.592969
-0.00500559
0.593281
-0.00538714
0.593629
-0.00576648
0.594016
-0.00614167
0.594444
-0.00650747
0.594916
-0.00685722
0.595431
-0.00718322
0.595989
-0.00747718
0.596589
-0.00773208
0.597226
-0.0079428
0.597899
-0.00810599
0.598603
-0.00822003
0.599332
-0.00828434
0.600083
-0.00830008
0.600849
-0.00826916
0.601625
-0.00819497
0.602406
-0.00808096
0.603188
-0.00793146
0.603964
-0.00775053
0.604731
-0.00754271
0.605484
-0.00731224
0.606219
-0.00706352
0.606933
-0.00680059
0.607624
-0.00652729
0.60829
-0.00624719
0.608928
-0.00596341
0.609537
-0.00567893
0.610117
-0.00539579
0.610667
-0.00511613
0.611186
-0.00484162
0.611676
-0.00457416
-0.00431523
0.612137
0.570861
-0.000538449
0.570926
-0.0014846
0.571024
-0.00227096
0.571149
-0.00292431
0.571297
-0.00347874
0.571467
-0.00396714
0.571659
-0.00441313
0.571876
-0.00483547
0.57212
-0.00525017
0.572398
-0.00566512
0.572713
-0.00608075
0.573066
-0.00649533
0.573463
-0.00690433
0.573906
-0.00730005
0.574396
-0.00767326
0.574933
-0.00801417
0.575516
-0.00831482
0.576142
-0.00856927
0.576809
-0.00877325
0.577514
-0.00892424
0.57825
-0.00902082
0.579014
-0.00906377
0.579799
-0.00905456
0.580601
-0.00899653
0.581413
-0.00889288
0.582229
-0.00874808
0.583045
-0.00856622
0.583854
-0.0083522
0.584653
-0.0081106
0.585436
-0.00784629
0.586199
-0.00756379
0.586939
-0.00726744
0.587653
-0.0069614
0.588339
-0.00664928
0.588995
-0.00633471
0.589619
-0.00602031
0.590212
-0.00570861
0.590772
-0.00540149
0.591299
-0.00510141
-0.00481016
0.591794
0.550923
-0.000558939
0.550978
-0.00154026
0.551062
-0.00235421
0.551166
-0.00302888
0.55129
-0.00360298
0.551433
-0.0041102
0.551595
-0.00457445
0.551777
-0.0050181
0.551987
-0.00545958
0.552228
-0.00590626
0.552505
-0.00635834
0.552823
-0.00681281
0.553185
-0.00726632
0.553595
-0.00771019
0.554055
-0.00813354
0.554566
-0.00852518
0.555128
-0.00887631
0.555739
-0.00918003
0.556396
-0.00943091
0.557097
-0.00962539
0.557838
-0.00976106
0.558612
-0.00983824
0.559415
-0.00985773
0.560241
-0.00982265
0.561084
-0.00973574
0.561938
-0.00960148
0.562795
-0.00942384
0.563651
-0.00920804
0.564499
-0.00895888
0.565335
-0.00868166
0.566152
-0.00838138
0.566948
-0.00806289
0.567717
-0.00773101
0.568458
-0.00738987
0.569167
-0.00704385
0.569843
-0.00669618
0.570485
-0.00635006
0.571091
-0.00600754
0.571661
-0.00567174
-0.00534482
0.572196
0.531681
-0.000575847
0.531727
-0.00158656
0.531795
-0.00242184
0.531879
-0.00311306
0.531979
-0.00370371
0.532095
-0.00422544
0.532224
-0.00470381
0.532372
-0.00516629
0.532545
-0.00563257
0.532748
-0.00610875
0.532985
-0.00659562
0.533263
-0.007091
0.533587
-0.00759005
0.53396
-0.00808357
0.534386
-0.00855936
0.534866
-0.00900512
0.535401
-0.00941131
0.535991
-0.00976982
0.536634
-0.0100738
0.537327
-0.0103186
0.538067
-0.0105008
0.538848
-0.01062
0.539667
-0.010676
0.540516
-0.0106718
0.541389
-0.0106091
0.54228
-0.0104924
0.543182
-0.0103254
0.544087
-0.0101134
0.54499
-0.00986136
0.545883
-0.00957492
0.546761
-0.00925952
0.547619
-0.00892047
0.548451
-0.00856334
0.549254
-0.0081928
0.550024
-0.00781412
0.550759
-0.0074311
0.551457
-0.00704797
0.552116
-0.00666692
0.552736
-0.00629183
-0.00592533
0.553317
0.51311
-0.000589215
0.513147
-0.00162356
0.513199
-0.00247328
0.513263
-0.00317729
0.513341
-0.00378134
0.513428
-0.00431222
0.513524
-0.00480075
0.513638
-0.00527968
0.513773
-0.00576797
0.513935
-0.00627078
0.51413
-0.0067905
0.514365
-0.00732619
0.514647
-0.00787208
0.51498
-0.00841606
0.515366
-0.00894587
0.51581
-0.00944864
0.516313
-0.0099141
0.516876
-0.0103326
0.517498
-0.0106959
0.518177
-0.0109981
0.518911
-0.0112345
0.519695
-0.0114042
0.520525
-0.0115057
0.521394
-0.0115412
0.522297
-0.0115115
0.523225
-0.0114208
0.524172
-0.0112721
0.525129
-0.011071
0.52609
-0.0108221
0.527047
-0.0105314
0.527992
-0.0102047
0.528919
-0.00984759
0.529822
-0.00946654
0.530696
-0.00906674
0.531536
-0.00865445
0.532339
-0.00823406
0.533103
-0.00781113
0.533824
-0.00738812
0.534502
-0.0069697
-0.00655907
0.535135
0.495189
-0.000599245
0.495216
-0.00165102
0.495251
-0.00250807
0.495297
-0.0032228
0.495352
-0.00383616
0.495409
-0.00437008
0.495474
-0.00486559
0.495553
-0.00535821
0.49565
-0.00586475
0.49577
-0.0063909
0.495921
-0.00694145
0.496111
-0.0075161
0.496347
-0.00810813
0.496634
-0.00870348
0.496976
-0.00928831
0.497378
-0.0098503
0.497843
-0.0103786
0.498372
-0.0108618
0.498966
-0.0112903
0.499625
-0.0116569
0.500346
-0.0119558
0.501127
-0.012185
0.501963
-0.0123415
0.502848
-0.0124268
0.503777
-0.0124401
0.504742
-0.0123854
0.505734
-0.0122645
0.506746
-0.0120829
0.507769
-0.011845
0.508794
-0.0115565
0.509813
-0.0112236
0.510817
-0.0108523
0.5118
-0.0104497
0.512755
-0.0100215
0.513676
-0.00957516
0.514557
-0.00911565
0.515396
-0.00865
0.51619
-0.00818129
0.516935
-0.00771503
-0.00725504
0.517631
0.477893
-0.000606284
0.477911
-0.00166816
0.477929
-0.0025263
0.477957
-0.00325147
0.477989
-0.00386802
0.478018
-0.00439915
0.478052
-0.00489937
0.478096
-0.00540185
0.478153
-0.00592219
0.478231
-0.00646834
0.478337
-0.00704741
0.47848
-0.00765903
0.478667
-0.00829518
0.478904
-0.00894086
0.479198
-0.00958192
0.479552
-0.0102047
0.479972
-0.0107984
0.48046
-0.0113501
0.481019
-0.0118492
0.481649
-0.0122872
0.48235
-0.0126568
0.48312
-0.012955
0.483956
-0.0131768
0.484852
-0.0133229
0.485802
-0.0133906
0.4868
-0.0133834
0.487837
-0.0133016
0.488905
-0.0131503
0.489993
-0.0129329
0.491091
-0.0126552
0.492191
-0.0123232
0.493282
-0.0119431
0.494355
-0.0115227
0.495401
-0.0110681
0.496414
-0.0105881
0.497387
-0.0100882
0.498314
-0.00957699
0.499191
-0.00905864
0.500016
-0.00853959
-0.00802429
0.500785
0.461202
-0.000610628
0.461208
-0.00167349
0.46121
-0.00252918
0.461224
-0.0032653
0.461232
-0.00387622
0.461234
-0.00440069
0.461238
-0.00490334
0.461247
-0.00541043
0.461265
-0.00594027
0.461299
-0.00650304
0.46136
-0.00710788
0.461454
-0.00775355
0.46159
-0.00843089
0.461774
-0.00912463
0.462013
-0.00982121
0.462315
-0.0105063
0.462683
-0.0111672
0.463124
-0.0117903
0.463639
-0.0123645
0.464232
-0.0128801
0.464904
-0.0133285
0.465654
-0.0137052
0.46648
-0.0140032
0.467379
-0.0142221
0.468346
-0.014357
0.469373
-0.0144105
0.470452
-0.014381
0.471575
-0.0142728
0.47273
-0.0140879
0.473907
-0.0138319
0.475094
-0.0135102
0.476279
-0.0131289
0.477453
-0.0126964
0.478604
-0.0122191
0.479723
-0.0117068
0.480801
-0.011166
0.481831
-0.0106069
0.482807
-0.0100348
0.483725
-0.00945763
-0.00888039
0.484581
0.445093
-0.000612089
0.445085
-0.0016653
0.445076
-0.00251942
0.445076
-0.00326569
0.44506
-0.00386002
0.445036
-0.00437725
0.445011
-0.0048782
0.444985
-0.00538416
0.444965
-0.00591994
0.444957
-0.00649558
0.444972
-0.00712292
0.445017
-0.00779857
0.4451
-0.00851333
0.445227
-0.00925214
0.445408
-0.0100021
0.445651
-0.0107489
0.445962
-0.0114784
0.446346
-0.0121747
0.446809
-0.0128277
0.447356
-0.0134262
0.447988
-0.0139609
0.448708
-0.0144253
0.449515
-0.0148107
0.450408
-0.015115
0.451382
-0.015331
0.452432
-0.0154602
0.453549
-0.0154982
0.454725
-0.0154485
0.455948
-0.0153109
0.457206
-0.0150903
0.458487
-0.0147909
0.459777
-0.0144189
0.461063
-0.0139823
0.462332
-0.013488
0.463572
-0.0129468
0.464772
-0.0123659
0.465922
-0.011757
0.467014
-0.0111273
0.468043
-0.0104865
-0.00983999
0.469003
0.429546
-0.000609309
0.429523
-0.00164274
0.429505
-0.00250098
0.429492
-0.00325264
0.429451
-0.00381937
0.429406
-0.00433224
0.429351
-0.00482351
0.429292
-0.00532455
0.429235
-0.00586281
0.429186
-0.00644699
0.429156
-0.00709312
0.429151
-0.00779342
0.429179
-0.0085413
0.429248
-0.00932124
0.429368
-0.0101215
0.429546
-0.0109275
0.429792
-0.0117245
0.430114
-0.0124959
0.430516
-0.0132302
0.431006
-0.0139157
0.431588
-0.014543
0.432266
-0.0151037
0.433043
-0.0155874
0.433918
-0.0159902
0.434889
-0.0163023
0.435953
-0.0165236
0.437101
-0.0166465
0.438326
-0.0166732
0.439615
-0.0166005
0.440957
-0.0164323
0.442337
-0.0161709
0.44374
-0.0158218
0.44515
-0.0153924
0.446552
-0.0148898
0.44793
-0.0143251
0.449271
-0.0137067
0.450562
-0.0130478
0.451792
-0.012357
0.452952
-0.011647
-0.0109234
0.454036
0.414538
-0.000598942
0.414503
-0.00160783
0.414479
-0.00247749
0.414452
-0.00322498
0.414388
-0.00375538
0.414324
-0.00426896
0.414239
-0.00473795
0.41415
-0.00523536
0.414057
-0.00577011
0.413969
-0.0063591
0.413895
-0.0070194
0.41384
-0.00773791
0.413813
-0.0085145
0.413822
-0.00933035
0.413878
-0.010177
0.413989
-0.0110385
0.414164
-0.0118999
0.414413
-0.0127453
0.414746
-0.0135628
0.415169
-0.0143385
0.415689
-0.0150634
0.416313
-0.0157277
0.417046
-0.01632
0.41789
-0.0168342
0.418845
-0.017258
0.419911
-0.0175889
0.42108
-0.0178161
0.422347
-0.0179397
0.423699
-0.0179528
0.425125
-0.0178579
0.426608
-0.0176539
0.428132
-0.0173458
0.429678
-0.0169387
0.431229
-0.0164403
0.432764
-0.0158609
0.434268
-0.0152104
0.435723
-0.0145026
0.437115
-0.0137488
0.438432
-0.012964
-0.0121554
0.439664
0.400048
-0.000575106
0.400008
-0.00156792
0.39998
-0.00244936
0.399936
-0.00318189
0.399851
-0.0036697
0.399772
-0.0041901
0.399654
-0.00462014
0.399542
-0.00512291
0.399413
-0.00564129
0.399289
-0.00623564
0.399172
-0.00690208
0.399067
-0.00763303
0.398986
-0.0084334
0.398934
-0.00927858
0.398924
-0.010167
0.398964
-0.0110786
0.399065
-0.0120001
0.399236
-0.0129166
0.399489
-0.0138159
0.399835
-0.0146841
0.400281
-0.0155102
0.400838
-0.016284
0.401512
-0.0169938
0.402309
-0.0176315
0.403233
-0.0181824
0.404286
-0.0186414
0.405463
-0.0189939
0.406761
-0.0192375
0.408169
-0.0193608
0.409675
-0.0193639
0.411263
-0.0192416
0.412914
-0.0189972
0.414609
-0.0186329
0.416324
-0.0181558
0.418038
-0.0175749
0.419729
-0.0169011
0.421375
-0.0161489
0.422958
-0.0153317
0.424461
-0.0144674
-0.0135657
0.425872
0.386055
-0.00052974
0.386024
-0.00153685
0.385985
-0.00241065
0.385929
-0.00312574
0.385821
-0.0035622
0.38573
-0.0040991
0.385579
-0.00446867
0.385452
-0.00499589
0.385283
-0.00547272
0.385132
-0.00608391
0.384969
-0.00673895
0.384818
-0.00748269
0.384683
-0.00829793
0.384571
-0.00916659
0.384495
-0.010091
0.384462
-0.0110456
0.384483
-0.0120219
0.384572
-0.0130047
0.384737
-0.0139818
0.384995
-0.0149413
0.385355
-0.0158709
0.38583
-0.0167589
0.38643
-0.0175932
0.387163
-0.0183648
0.388038
-0.0190574
0.38906
-0.0196628
0.390229
-0.020163
0.391543
-0.0205517
0.392995
-0.020813
0.394575
-0.0209432
0.396265
-0.0209322
0.398048
-0.0207801
0.3999
-0.0204851
0.401797
-0.0200525
0.403711
-0.0194891
0.405616
-0.0188061
0.407485
-0.0180176
0.409293
-0.0171398
0.411018
-0.0161925
-0.0151903
0.412643
0.372542
-0.000454314
0.372538
-0.00153309
0.372475
-0.00234777
0.372414
-0.0030652
0.37228
-0.0034276
0.372185
-0.00400391
0.371996
-0.00428011
0.371866
-0.00486574
0.37165
-0.00525661
0.371483
-0.00591682
0.371266
-0.00652247
0.371081
-0.00729699
0.370887
-0.00810431
0.37072
-0.00899924
0.370576
-0.00994716
0.37047
-0.0109395
0.37041
-0.0119626
0.370412
-0.0130059
0.370484
-0.0140544
0.370645
-0.015102
0.370906
-0.0161321
0.371285
-0.0171379
0.371793
-0.0181017
0.372444
-0.0190157
0.37325
-0.0198627
0.374219
-0.020632
0.375358
-0.0213021
0.376669
-0.0218629
0.378149
-0.022293
0.37979
-0.0225838
0.381577
-0.0227192
0.383491
-0.0226949
0.385509
-0.022503
0.387603
-0.0221459
0.38974
-0.0216264
0.391889
-0.0209548
0.394015
-0.0201441
0.396088
-0.0192125
0.398077
-0.0181815
-0.0170723
0.399959
0.359493
-0.000342455
0.359534
-0.0015747
0.359428
-0.00224176
0.359379
-0.0030163
0.359206
-0.00325437
0.359121
-0.00391921
0.358888
-0.00404634
0.35877
-0.00474764
0.358493
-0.00498015
0.358331
-0.00575432
0.358045
-0.0062373
0.357845
-0.00709645
0.35758
-0.00783981
0.357372
-0.00879094
0.357153
-0.00972784
0.356981
-0.0107673
0.356835
-0.011817
0.356749
-0.0129204
0.356722
-0.0140267
0.356781
-0.0151608
0.35693
-0.016282
0.357199
-0.0174068
0.357598
-0.0185002
0.358148
-0.0195653
0.35886
-0.0205757
0.359753
-0.0215249
0.360837
-0.0223857
0.36212
-0.023146
0.363605
-0.0237777
0.365288
-0.0242668
0.367159
-0.0245901
0.3692
-0.0247364
0.371387
-0.0246904
0.373691
-0.0244492
0.376074
-0.0240094
0.378498
-0.0233788
0.380921
-0.0225677
0.383304
-0.0215953
0.385607
-0.0204845
-0.0192633
0.387798
0.346897
-0.000193251
0.346995
-0.00167183
0.346828
-0.00207563
0.34681
-0.00299769
0.346585
-0.00303008
0.346528
-0.00386215
0.346237
-0.00375527
0.346149
-0.0046596
0.345796
-0.0046267
0.345664
-0.00562211
0.345287
-0.00586052
0.345104
-0.00691309
0.344743
-0.00747916
0.344524
-0.00857233
0.344208
-0.00941114
0.343991
-0.0105506
0.343744
-0.0115697
0.343582
-0.012759
0.343442
-0.0138865
0.343401
-0.0151192
0.343425
-0.016306
0.343577
-0.0175588
0.343842
-0.0187655
0.344272
-0.0199958
0.344866
-0.0211693
0.345657
-0.0223163
0.346655
-0.0233829
0.34788
-0.0243714
0.349339
-0.0252368
0.351038
-0.0259657
0.352972
-0.0265238
0.355127
-0.0268918
0.357482
-0.027045
0.360004
-0.0269715
0.362654
-0.0266597
0.365387
-0.0261117
0.368152
-0.0253325
0.370898
-0.0243411
0.373574
-0.0231603
-0.0218256
0.376136
0.334748
-1.38231e-05
0.334896
-0.00182047
0.334666
-0.00184566
0.334688
-0.00301914
0.334407
-0.00274923
0.334389
-0.00384422
0.334031
-0.00339765
0.333988
-0.00461613
0.333544
-0.00418269
0.333466
-0.00554414
0.332974
-0.00536883
0.332844
-0.00678322
0.332354
-0.00698877
0.33217
-0.00838794
0.331718
-0.00895943
0.331501
-0.0103339
0.331117
-0.0111852
0.330914
-0.0125561
0.330631
-0.0136039
0.330509
-0.0149969
0.33038
-0.0161775
0.330422
-0.0176002
0.330524
-0.0188675
0.330826
-0.0202985
0.331261
-0.0216036
0.331931
-0.0229862
0.332801
-0.0242531
0.333938
-0.0255084
0.33533
-0.0266295
0.337012
-0.0276475
0.338977
-0.0284884
0.341223
-0.0291379
0.343733
-0.0295551
0.346476
-0.0297148
0.349412
-0.0295954
0.352488
-0.0291875
0.355643
-0.0284874
0.358813
-0.0275111
0.361931
-0.0262789
-0.0248344
0.36494
0.323036
0.000180977
0.323218
-0.00200208
0.322938
-0.00156597
0.322993
-0.00307454
0.322663
-0.00241846
0.322682
-0.00386311
0.322261
-0.00297718
0.322262
-0.00461752
0.321729
-0.00364963
0.321714
-0.0055286
0.321099
-0.00475428
0.321046
-0.00672973
0.320402
-0.00634484
0.320292
-0.00827806
0.319666
-0.00833347
0.319503
-0.0101705
0.318932
-0.0106149
0.318746
-0.0123701
0.318269
-0.013126
0.318118
-0.0148463
0.317783
-0.015842
0.31775
-0.0175673
0.317634
-0.0187518
0.317827
-0.0204917
0.318038
-0.0218149
0.318586
-0.0235335
0.31926
-0.0249271
0.32029
-0.0265391
0.321552
-0.0278914
0.323186
-0.0292815
0.32513
-0.0304323
0.327437
-0.0314446
0.330077
-0.0321954
0.333032
-0.0326698
0.336265
-0.0328282
0.339715
-0.0326374
0.343313
-0.0320854
0.346979
-0.0311769
0.350624
-0.0299246
-0.0283826
0.354173
0.311753
0.000371526
0.31194
-0.00218904
0.311635
-0.00126182
0.311705
-0.0031446
0.311345
-0.00205751
0.311382
-0.00390036
0.310919
-0.00251407
0.310946
-0.00464447
0.310347
-0.00305145
0.310376
-0.00555708
0.30966
-0.00403863
0.309674
-0.00674299
0.308886
-0.00555723
0.308858
-0.00825053
0.308049
-0.00752396
0.307969
-0.0100902
0.307181
-0.00982741
0.307062
-0.0122509
0.306338
-0.012402
0.306223
-0.0147317
0.305613
-0.0152321
0.305578
-0.0175318
0.305158
-0.0183319
0.305307
-0.0206405
0.305191
-0.0216993
0.305662
-0.0240043
0.306012
-0.0252769
0.306962
-0.0274895
0.307966
-0.0288948
0.309554
-0.0308695
0.311372
-0.0322506
0.313725
-0.0337974
0.316437
-0.0349077
0.31959
-0.0358225
0.32312
-0.0363583
0.326966
-0.0364841
0.331066
-0.0361849
0.335309
-0.0354199
0.339585
-0.0342005
-0.03259
0.343792
0.300881
0.000539943
0.301046
-0.00235403
0.300745
-0.000960802
0.300806
-0.00320543
0.30044
-0.0016916
0.300469
-0.00392924
0.299993
-0.00203861
0.300013
-0.00466391
0.299391
-0.00242946
0.299422
-0.00558786
0.298656
-0.00327279
0.29869
-0.00677753
0.297811
-0.004678
0.297826
-0.00826575
0.296876
-0.00657367
0.296854
-0.0100684
0.295874
-0.00884687
0.295818
-0.0121955
0.294847
-0.0114301
0.29479
-0.0146749
0.293873
-0.0143153
0.293881
-0.0175401
0.293089
-0.0175399
0.293267
-0.0208182
0.29271
-0.0211428
0.293202
-0.0244964
0.29305
-0.0251244
0.294032
-0.0284719
0.294528
-0.0293905
0.296171
-0.0325124
0.297612
-0.0336915
0.300077
-0.0362631
0.302691
-0.0375212
0.306077
-0.0392084
0.30986
-0.0401412
0.314125
-0.0407496
0.318791
-0.0408508
0.323694
-0.040323
0.328735
-0.0392407
-0.0376146
0.333759
0.290402
0.000674191
0.290525
-0.00247712
0.290248
-0.000683918
0.290282
-0.00323941
0.289932
-0.00134078
0.289929
-0.00392714
0.28947
-0.00157897
0.289448
-0.00464213
0.288848
-0.00182946
0.28883
-0.00557002
0.28808
-0.00252269
0.288069
-0.00676642
0.287179
-0.00378823
0.287161
-0.00824786
0.286158
-0.00557029
0.286118
-0.0100283
0.28503
-0.0077589
0.284968
-0.0121337
0.283823
-0.0102851
0.283766
-0.0146179
0.282596
-0.0131458
0.282609
-0.0175523
0.281465
-0.0163962
0.281657
-0.0210101
0.280627
-0.0201126
0.281164
-0.0250334
0.280399
-0.0243593
0.281498
-0.0295714
0.281244
-0.0291361
0.283136
-0.0344044
0.283776
-0.0343314
0.286614
-0.0391018
0.288641
-0.0395477
0.292502
-0.0430696
0.296268
-0.0439069
0.301096
-0.0455777
0.306358
-0.0461126
0.311999
-0.0459645
0.318008
-0.0452494
-0.0436428
0.324036
0.280296
0.00076908
0.280366
-0.00254747
0.280125
-0.000443207
0.280126
-0.00323989
0.2798
-0.0010153
0.279757
-0.00388357
0.27933
-0.0011523
0.279245
-0.0045577
0.278703
-0.00128729
0.278595
-0.00546148
0.277922
-0.00184992
0.277799
-0.00664358
0.276986
-0.002975
0.276848
-0.0081099
0.275899
-0.00462126
0.275738
-0.00986746
0.274665
-0.00668562
0.274483
-0.0119513
0.273297
-0.00909967
0.273116
-0.0144367
0.271833
-0.0118628
0.271714
-0.0174337
0.270358
-0.01504
0.27042
-0.0210715
0.26904
-0.0187327
0.269475
-0.0254684
0.26817
-0.0230552
0.269267
-0.0306677
0.268232
-0.0281016
0.270346
-0.0365187
0.269925
-0.0339102
0.273368
-0.0425447
0.274157
-0.0403364
0.279007
-0.0479192
0.2819
-0.0468005
0.287938
-0.0516156
0.293462
-0.0516361
0.300098
-0.0526003
0.307366
-0.0525178
-0.0508053
0.314528
0.270544
0.000824136
0.270557
-0.00256055
0.270359
-0.000245849
0.270327
-0.00320732
0.270032
-0.000720074
0.269945
-0.00379714
0.269559
-0.000766641
0.269405
-0.00440358
0.268941
-0.000822963
0.26872
-0.00524044
0.268167
-0.00129697
0.267886
-0.00636295
0.267222
-0.0023107
0.26689
-0.00777804
0.266098
-0.00382915
0.265717
-0.00948654
0.264788
-0.00575601
0.264363
-0.0115269
0.26329
-0.00802642
0.26284
-0.0139868
0.261622
-0.0106444
0.261196
-0.0170085
0.259837
-0.013681
0.259543
-0.0207777
0.258064
-0.0172532
0.258101
-0.0255056
0.256545
-0.0214987
0.257252
-0.0313752
0.255729
-0.0265787
0.257639
-0.0384289
0.256355
-0.0326255
0.260102
-0.0462917
0.259488
-0.0397226
0.265498
-0.0539298
0.266551
-0.0478527
0.274739
-0.0598044
0.279157
-0.056054
0.288196
-0.0616396
0.296594
-0.0609157
-0.0592168
0.305006
0.261132
0.000840773
0.26109
-0.00251841
0.26094
-9.58143e-05
0.260875
-0.0031425
0.260612
-0.000456995
0.260488
-0.00367314
0.260142
-0.000419889
0.259931
-0.00419305
0.259535
-0.000427361
0.25922
-0.00492504
0.258777
-0.000854101
0.258353
-0.00593916
0.257843
-0.00180021
0.257314
-0.00724946
0.256712
-0.00322733
0.256081
-0.00885519
0.255367
-0.00504159
0.254634
-0.0107947
0.253791
-0.00718262
0.252963
-0.0131593
0.25198
-0.00966166
0.251081
-0.016109
0.249957
-0.0125572
0.249051
-0.019871
0.247793
-0.0159953
0.247043
-0.0247559
0.245675
-0.0201312
0.245436
-0.0311362
0.243983
-0.0251257
0.244902
-0.0393472
0.243441
-0.0311647
0.246504
-0.0493544
0.245157
-0.038376
0.251516
-0.0602883
0.250849
-0.0471866
0.26114
-0.0700946
0.262988
-0.0579026
0.276477
-0.0751278
0.284105
-0.0685443
-0.0708591
0.295747
0.252051
0.000819396
0.251961
-0.00242849
0.251858
6.98992e-06
0.251757
-0.00304189
0.251534
-0.000233795
0.251371
-0.00351007
0.25107
-0.000118994
0.250809
-0.00393208
0.250476
-9.39175e-05
0.25009
-0.00453971
0.249729
-0.000492702
0.249211
-0.00542131
0.248802
-0.00139125
0.248151
-0.00659832
0.247667
-0.002743
0.246881