/*--------------------------------*- C++ -*----------------------------------*\
| =========                 |                                                 |
| \\      /  F ield         | OpenFOAM: The Open Source CFD Toolbox           |
|  \\    /   O peration     | Version:  2312                                  |
|   \\  /    A nd           | Website:  www.openfoam.com                      |
|    \\/     M anipulation  |                                                 |
\*---------------------------------------------------------------------------*/
FoamFile
{
    version     2.0;
    format      ascii;
    arch        "LSB;label=32;scalar=64";
    class       volScalarField;
    location    "128.8";
    object      p;
}
// * * * * * * * * * * * * * * * * * * * * * * * * * * * * * * * * * * * * * //

dimensions      [0 2 -2 0 0 0 0];

internalField   nonuniform List<scalar> 
5478
(
-0.33994
-0.341209
-0.339807
-0.335912
-0.327898
-0.315173
-0.297983
-0.277851
-0.256893
-0.237015
-0.219499
-0.204173
-0.191111
-0.178741
-0.167245
-0.347316
-0.346655
-0.344259
-0.339501
-0.330841
-0.317151
-0.298803
-0.277663
-0.255864
-0.234992
-0.21581
-0.198585
-0.183275
-0.169246
-0.156435
-0.356839
-0.353564
-0.34907
-0.342471
-0.331747
-0.315754
-0.295428
-0.272917
-0.250235
-0.228736
-0.209086
-0.191402
-0.175386
-0.160409
-0.146441
-0.369187
-0.362957
-0.355789
-0.346226
-0.331686
-0.312012
-0.289108
-0.265237
-0.242068
-0.220485
-0.200698
-0.182628
-0.165992
-0.150742
-0.137017
-0.385998
-0.376219
-0.365942
-0.35153
-0.331159
-0.306791
-0.281124
-0.255997
-0.232369
-0.210584
-0.190698
-0.172623
-0.15612
-0.141076
-0.127048
-0.408451
-0.393382
-0.378914
-0.357166
-0.329433
-0.300041
-0.271584
-0.245094
-0.220869
-0.198923
-0.179098
-0.161138
-0.144807
-0.130013
-0.116268
-0.434321
-0.413554
-0.391373
-0.360023
-0.324636
-0.290472
-0.259346
-0.231488
-0.206666
-0.184548
-0.164828
-0.147262
-0.1316
-0.117549
-0.104462
-0.457876
-0.432825
-0.399076
-0.356843
-0.314431
-0.276165
-0.242771
-0.213791
-0.188571
-0.166548
-0.147263
-0.130342
-0.115526
-0.102481
-0.0907637
-0.482875
-0.484956
-0.488115
-0.495698
-0.507314
-0.521609
-0.536566
-0.549623
-0.55608
-0.55585
-0.545826
-0.52509
-0.495395
-0.460416
-0.423335
-0.44394
-0.445452
-0.445668
-0.447795
-0.451519
-0.455405
-0.457643
-0.456059
-0.450261
-0.438503
-0.420627
-0.397576
-0.372915
-0.352369
-0.326275
-0.410469
-0.411406
-0.409537
-0.407545
-0.405118
-0.400979
-0.393987
-0.382903
-0.367368
-0.347639
-0.325443
-0.303075
-0.279909
-0.278612
-0.263174
-0.383608
-0.384379
-0.381605
-0.377243
-0.370991
-0.362009
-0.349142
-0.332103
-0.311305
-0.287821
-0.26342
-0.246882
-0.225016
-0.228572
-0.228358
-0.362903
-0.364022
-0.361263
-0.355876
-0.347461
-0.335237
-0.31888
-0.298547
-0.2752
-0.251081
-0.22694
-0.212854
-0.197393
-0.200087
-0.209221
-0.347777
-0.349517
-0.347079
-0.341259
-0.331524
-0.317533
-0.299402
-0.277813
-0.254291
-0.231311
-0.210708
-0.198058
-0.189659
-0.190914
-0.201822
-0.338516
-0.340751
-0.338697
-0.333052
-0.323292
-0.309278
-0.291329
-0.270576
-0.248636
-0.227775
-0.210707
-0.198908
-0.192987
-0.192093
-0.196643
-0.33606
-0.338253
-0.336695
-0.331934
-0.323449
-0.31047
-0.293391
-0.273523
-0.252765
-0.233189
-0.217023
-0.204233
-0.195539
-0.189267
-0.184556
-0.391837
-0.411683
-0.458717
-0.44121
-0.32239
-0.221503
-0.168861
-0.154702
-0.15863
-0.164069
-0.151737
-0.152296
-0.14853
-0.131973
-0.104303
-0.112417
-0.136413
-0.150611
-0.124477
-0.110862
-0.119113
-0.162585
-0.121834
-0.118519
-0.156322
-0.176795
-0.141438
-0.14333
-0.106545
-0.0802266
-0.0411281
-0.0163874
-0.0137458
-0.0104973
-0.0060573
-0.00328174
-0.00204227
-0.00082074
-0.346107
-0.429503
-0.49655
-0.472502
-0.348622
-0.2347
-0.168276
-0.146087
-0.132054
-0.12425
-0.123277
-0.141049
-0.144398
-0.128219
-0.100673
-0.108198
-0.131676
-0.143757
-0.126771
-0.117295
-0.134037
-0.176838
-0.118505
-0.109489
-0.137774
-0.154024
-0.154679
-0.161554
-0.105318
-0.0751376
-0.0411332
-0.0176614
-0.0138971
-0.0101406
-0.00604003
-0.00336201
-0.00201359
-0.000797869
-0.289136
-0.412857
-0.493713
-0.473065
-0.355488
-0.237687
-0.16546
-0.139988
-0.118207
-0.0995192
-0.101149
-0.130651
-0.139299
-0.124106
-0.0983963
-0.104584
-0.1244
-0.135141
-0.127499
-0.121675
-0.148282
-0.187603
-0.113863
-0.0997533
-0.120082
-0.130103
-0.163884
-0.174703
-0.102249
-0.0674156
-0.0403227
-0.0187553
-0.0139772
-0.00971569
-0.00600824
-0.00343746
-0.00198036
-0.00077561
-0.24957
-0.364037
-0.451848
-0.433066
-0.333346
-0.231139
-0.161664
-0.13414
-0.114245
-0.0910131
-0.0908825
-0.123624
-0.134835
-0.119573
-0.0972144
-0.102129
-0.119197
-0.126139
-0.126349
-0.123339
-0.160784
-0.195263
-0.110039
-0.0899209
-0.104426
-0.106558
-0.1688
-0.18226
-0.0984901
-0.0589815
-0.0387094
-0.0196115
-0.0139968
-0.0092559
-0.00595794
-0.00350093
-0.00194441
-0.000754492
-0.227594
-0.313425
-0.39347
-0.380474
-0.302467
-0.22072
-0.159405
-0.129581
-0.112143
-0.0935665
-0.0951846
-0.126268
-0.132432
-0.117019
-0.0987854
-0.102578
-0.116066
-0.117597
-0.123101
-0.121702
-0.170662
-0.199567
-0.107336
-0.0800617
-0.0915002
-0.0851578
-0.169599
-0.183798
-0.0944473
-0.0503031
-0.036365
-0.020148
-0.0139468
-0.00879305
-0.00589017
-0.0035468
-0.00190757
-0.000734806
-0.215138
-0.267257
-0.326605
-0.319132
-0.265593
-0.204684
-0.154622
-0.12477
-0.108193
-0.0966473
-0.106353
-0.134436
-0.13348
-0.116199
-0.10147
-0.103202
-0.1112
-0.109079
-0.117545
-0.116812
-0.176282
-0.201127
-0.106929
-0.070324
-0.0815033
-0.0667154
-0.166516
-0.179865
-0.0906863
-0.0418981
-0.0335499
-0.0203777
-0.0138401
-0.00836433
-0.00580841
-0.00357137
-0.00187145
-0.000716852
-0.200187
-0.219445
-0.259205
-0.263062
-0.234917
-0.192027
-0.151075
-0.121437
-0.104981
-0.0934884
-0.119792
-0.142379
-0.135335
-0.112944
-0.103627
-0.104338
-0.110381
-0.101899
-0.110035
-0.107494
-0.177959
-0.198495
-0.105656
-0.0614025
-0.0749409
-0.0507834
-0.159989
-0.171703
-0.0863255
-0.0345398
-0.0304385
-0.0203153
-0.0136379
-0.0079874
-0.00572251
-0.00356859
-0.0018349
-0.000700404
-0.180214
-0.185952
-0.205072
-0.211075
-0.200835
-0.176084
-0.144805
-0.119308
-0.104712
-0.083386
-0.122146
-0.160083
-0.142948
-0.113922
-0.106686
-0.100688
-0.103971
-0.093565
-0.100064
-0.0949107
-0.1743
-0.197219
-0.107436
-0.052641
-0.0711988
-0.0370739
-0.149482
-0.162162
-0.0832272
-0.0276138
-0.026743
-0.0199472
-0.0134248
-0.00768476
-0.00563697
-0.00356008
-0.00180416
-0.00068726
-0.169048
-0.180542
-0.18291
-0.18028
-0.170037
-0.148254
-0.120972
-0.100202
-0.0885876
-0.0726315
-0.102072
-0.135773
-0.130143
-0.107253
-0.105319
-0.103995
-0.105021
-0.0856402
-0.0866629
-0.0884891
-0.160697
-0.184617
-0.105465
-0.0436806
-0.0657458
-0.0311607
-0.133122
-0.144231
-0.0777756
-0.0230062
-0.0227393
-0.0189274
-0.0128328
-0.0073865
-0.00550098
-0.00345695
-0.00174581
-0.000667774
-0.136581
-0.147665
-0.14755
-0.138838
-0.126578
-0.110139
-0.0905605
-0.0773825
-0.0667873
-0.055094
-0.0783257
-0.11136
-0.111065
-0.0896601
-0.0941392
-0.0990628
-0.0879841
-0.0671352
-0.0642433
-0.0713114
-0.142775
-0.180104
-0.0978594
-0.0323971
-0.0481439
-0.0191114
-0.108921
-0.137783
-0.0663584
-0.0151807
-0.0179818
-0.0174665
-0.0119915
-0.00689758
-0.00527965
-0.00327931
-0.00166336
-0.000644145
-0.111683
-0.123352
-0.122352
-0.114372
-0.104135
-0.0915019
-0.0761722
-0.0632808
-0.0490348
-0.0295226
-0.0249181
-0.0324301
-0.0424104
-0.0504477
-0.0724601
-0.0833354
-0.0709266
-0.0512487
-0.0418647
-0.0464651
-0.110772
-0.141485
-0.0793268
-0.0235942
-0.0327908
-0.00867296
-0.0807963
-0.107218
-0.048376
-0.00856286
-0.0135613
-0.015351
-0.0107527
-0.00645441
-0.00507879
-0.00303805
-0.00156744
-0.000628153
-0.0882255
-0.0979087
-0.0974509
-0.089686
-0.0788401
-0.065434
-0.0520034
-0.0401959
-0.0264012
-0.0087356
0.0045793
0.0232888
0.0184043
-0.0114577
-0.0443502
-0.0525278
-0.0445374
-0.0293603
-0.0167296
-0.022278
-0.0711562
-0.0833981
-0.0555242
-0.0235504
-0.0194511
0.00250758
-0.0460868
-0.0751438
-0.029882
-0.00460358
-0.00924102
-0.0127762
-0.00926912
-0.00608989
-0.00487672
-0.00271427
-0.00145332
-0.00062029
-0.0663351
-0.0748656
-0.0754535
-0.0695128
-0.0607175
-0.0509867
-0.0402482
-0.0298386
-0.0162925
0.0034644
0.0238341
0.0487618
0.046892
0.012367
-0.0169284
-0.0272096
-0.023021
-0.018201
-0.00207923
-0.00216731
-0.0246707
-0.0214265
-0.0299935
-0.0286179
-0.00936924
0.0088446
-0.00724783
-0.0348367
-0.0109452
-0.00230847
-0.00511364
-0.00968629
-0.00734888
-0.005723
-0.00468197
-0.00230058
-0.00131313
-0.000624368
-0.0487067
-0.0561876
-0.0571981
-0.0528488
-0.0456545
-0.0370148
-0.0270956
-0.0167481
-0.00476611
0.011242
0.0264348
0.0415942
0.0470764
0.0239569
0.00186172
-0.00905295
-0.00561148
-0.00238507
0.00993985
0.00465771
-0.00102882
0.0101145
-0.0116316
-0.026587
-0.00163555
0.0147428
0.0256572
-0.00265571
0.003421
0.00114069
-0.00123672
-0.00643403
-0.00508763
-0.00532714
-0.00446444
-0.00168813
-0.00113353
-0.000641989
-0.0349511
-0.0405613
-0.0415243
-0.0383872
-0.0326548
-0.0258162
-0.0181881
-0.0100649
-0.00103264
0.0110481
0.0230956
0.033406
0.0383133
0.0261082
0.0113858
0.00170673
0.00391246
0.00388262
0.0148217
0.0165031
0.0110586
0.0200145
0.00227573
-0.0126173
0.00460547
0.0174821
0.0446026
0.0161272
0.00800098
0.00213578
0.000754384
-0.00373573
-0.0029493
-0.00478623
-0.004138
-0.00101713
-0.000928231
-0.000655929
-0.0231345
-0.0275653
-0.0287671
-0.0267473
-0.022491
-0.0172467
-0.0113782
-0.00489733
0.00219791
0.0109281
0.0191899
0.0258546
0.0292361
0.0236572
0.0155073
0.00838649
0.0106327
0.0114438
0.017547
0.0183808
0.012548
0.0191734
0.011571
0.00149236
0.0105744
0.0185281
0.0447872
0.0199311
0.00560677
0.00384339
0.000551151
-0.00336681
-0.00144056
-0.00405222
-0.00363313
-0.000544992
-0.000740855
-0.000653871
-0.0138648
-0.0174989
-0.018601
-0.0172442
-0.0141564
-0.0102518
-0.00588966
-0.00107643
0.00398248
0.00982426
0.0153311
0.0197006
0.0222598
0.0203015
0.0166762
0.0120279
0.0130439
0.0132652
0.0166787
0.018853
0.0148784
0.0186427
0.0154304
0.00939498
0.0132444
0.0181941
0.0386118
0.0224094
0.00576118
0.00567607
0.000865646
-0.00243939
-0.0004336
-0.00310244
-0.00291538
-0.000182862
-0.000560501
-0.000591064
-0.00694155
-0.00954209
-0.0104161
-0.00961102
-0.00751147
-0.00474672
-0.00165662
0.00173565
0.00526216
0.00925526
0.0130467
0.0164402
0.0179766
0.0175071
0.0162829
0.0138687
0.0145107
0.0154297
0.0167882
0.0185719
0.0160554
0.0177275
0.0163962
0.014038
0.0162408
0.0184117
0.0308405
0.0230749
0.00903944
0.00729975
0.0020452
-0.001216
0.000291427
-0.00198089
-0.00201705
4.06249e-05
-0.000379839
-0.000470261
-0.00116418
-0.00318014
-0.00399191
-0.00359443
-0.00223558
-0.000337969
0.00178778
0.00410595
0.00647345
0.00910049
0.011608
0.0137887
0.0151943
0.0154565
0.0155031
0.0145751
0.0148233
0.0154373
0.0162854
0.0174855
0.0163098
0.0171694
0.0165819
0.0157244
0.0173655
0.018039
0.0249035
0.0221472
0.0117222
0.00857711
0.00385814
0.000626892
0.00106158
-0.000781445
-0.0010301
0.000274168
-0.000157688
-0.000309826
0.00328283
0.0017274
0.0010204
0.00117114
0.00200538
0.0032481
0.00464618
0.00615373
0.00769399
0.00938249
0.0110333
0.0125047
0.0136519
0.0141848
0.0146117
0.0144987
0.01482
0.0155064
0.0160346
0.0167402
0.0162216
0.0166691
0.0164578
0.0164095
0.0177356
0.0177107
0.0207931
0.0199837
0.0131191
0.00986687
0.00557178
0.00228661
0.00181928
0.000286605
-0.000131773
0.000523927
6.96576e-05
-0.000161096
0.00668724
0.00550931
0.00491394
0.00490923
0.00537646
0.00613792
0.00702556
0.00797281
0.00893697
0.00998317
0.0110608
0.0120709
0.0129304
0.0135061
0.014027
0.0143446
0.0146818
0.015152
0.0155727
0.0160074
0.0158148
0.0161754
0.0161747
0.0161738
0.0169994
0.016677
0.0178955
0.0174234
0.0129086
0.0102249
0.00673068
0.00364945
0.00256118
0.00115044
0.000601051
0.000793902
0.000291149
-3.49307e-05
0.00935525
0.00845487
0.00794152
0.0078248
0.00804414
0.00848604
0.00902624
0.00958352
0.0101425
0.0107602
0.0114393
0.0121055
0.0127064
0.0132029
0.0136678
0.0140637
0.0144063
0.0147704
0.0151126
0.0154252
0.0154022
0.0156295
0.0156823
0.0156557
0.0160755
0.0156965
0.0158566
0.015246
0.0124547
0.0103296
0.00748748
0.00475708
0.00331174
0.00189672
0.00120303
0.00106295
0.000506722
7.99668e-05
0.0114017
0.0107063
0.0102693
0.0100961
0.0101541
0.0103733
0.0106676
0.0109656
0.0112656
0.0116088
0.0120026
0.012419
0.0128006
0.0131579
0.0135152
0.0138595
0.0141559
0.0144228
0.0146715
0.0149007
0.0149201
0.0150457
0.0150663
0.0149348
0.0150338
0.0146215
0.0143306
0.0136127
0.0117145
0.0100227
0.00782848
0.00553383
0.00398402
0.00255356
0.00169561
0.00130403
0.000693931
0.000174009
0.0129638
0.0124303
0.0120608
0.0118595
0.0118128
0.0118821
0.0120096
0.0121387
0.012261
0.012411
0.0126094
0.0128393
0.013057
0.0132737
0.0135076
0.0137482
0.0139527
0.0141237
0.0142831
0.0144307
0.0144404
0.0144574
0.0144135
0.0142202
0.0141186
0.0136893
0.0132002
0.0124408
0.0110469
0.00968177
0.00795539
0.0060747
0.00455976
0.00315414
0.00216049
0.00155468
0.000870749
0.000258709
0.014147
0.0137329
0.0134178
0.0132091
0.0131015
0.0130751
0.0130885
0.0130999
0.0131059
0.0131299
0.0131943
0.0132831
0.0133712
0.0134627
0.0135771
0.0137051
0.0138104
0.0138918
0.0139605
0.0140161
0.0139819
0.0139121
0.0138063
0.0135582
0.0133121
0.0128692
0.0123078
0.0115719
0.010463
0.00930911
0.00790827
0.00636262
0.00497417
0.00365078
0.00257496
0.00178924
0.00102043
0.000321677
0.0150256
0.0147022
0.0144336
0.0142289
0.0140857
0.0139972
0.0139347
0.0138697
0.0137998
0.0137404
0.0137111
0.0136952
0.0136858
0.0136775
0.0136917
0.0137149
0.0137263
0.0137195
0.0137012
0.013669
0.0135758
0.0134376
0.0132615
0.0129795
0.012657
0.0122052
0.0116285
0.0109245
0.0099946
0.00898847
0.00781327
0.00652585
0.00527393
0.00403537
0.00293883
0.00202408
0.00116943
0.000380441
0.0156672
0.0154099
0.0151776
0.0149815
0.014819
0.0146923
0.0145796
0.0144649
0.0143452
0.0142307
0.0141374
0.0140486
0.0139678
0.0138817
0.0138169
0.0137532
0.013684
0.0135979
0.0135028
0.0133955
0.013238
0.0130465
0.0128109
0.0125018
0.0121313
0.0116702
0.0111096
0.0104426
0.00962572
0.00872086
0.00769566
0.00659054
0.00544157
0.00430084
0.00322931
0.00223179
0.00130526
0.000433707
0.0161178
0.0159063
0.0157034
0.0155169
0.0153469
0.0151964
0.0150526
0.0149062
0.0147551
0.0146061
0.0144684
0.0143312
0.0141968
0.0140571
0.0139305
0.0138024
0.0136682
0.0135213
0.0133606
0.0131891
0.0129768
0.0127383
0.0124576
0.0121205
0.0117279
0.0112557
0.0107094
0.0100735
0.0093308
0.00851004
0.00758404
0.00660005
0.00555671
0.0044808
0.00343867
0.00241022
0.00142648
0.00047977
0.0164216
0.0162402
0.0160586
0.0158806
0.0157089
0.0155443
0.015382
0.0152159
0.0150457
0.014875
0.0147074
0.0145389
0.0143676
0.0141928
0.0140201
0.0138449
0.0136616
0.0134663
0.013259
0.0130365
0.0127846
0.0125065
0.0121908
0.0118316
0.0114189
0.0109457
0.0104088
0.0097957
0.00910419
0.00833514
0.00748288
0.00657549
0.00560103
0.00458466
0.00356995
0.00253288
0.00151009
0.00050781
0.0166068
0.0164445
0.0162764
0.016106
0.0159342
0.0157631
0.0155899
0.015413
0.0152321
0.0150483
0.0148636
0.0146746
0.0144822
0.0142834
0.0140827
0.0138756
0.0136606
0.0134339
0.013193
0.0129379
0.0126563
0.0123516
0.0120118
0.011635
0.0112112
0.0107352
0.0102035
0.00960747
0.00894308
0.00821051
0.00740599
0.00654112
0.00561757
0.00464131
0.00364416
0.002617
0.00157068
0.000526499
0.0166907
0.0165379
0.0163775
0.0162118
0.0160414
0.0158679
0.0156905
0.0155092
0.0153237
0.0151341
0.014941
0.0147426
0.0145396
0.0143297
0.0141145
0.0138915
0.0136601
0.0134169
0.0131592
0.012886
0.0125896
0.0122701
0.011918
0.0115322
0.011102
0.010625
0.0100954
0.00950759
0.00885791
0.0081418
0.00736144
0.00651996
0.00562053
0.00466579
0.0036782
0.00265715
0.00160218
0.000536301
-0.0766908
-0.0875496
-0.0980962
-0.108121
-0.118629
-0.128124
-0.138917
-0.152551
-0.0618803
-0.0699489
-0.0779802
-0.0859659
-0.0943251
-0.102531
-0.11022
-0.120844
-0.0478569
-0.053582
-0.0591526
-0.0648777
-0.0710578
-0.0773061
-0.0842102
-0.0945314
-0.0368166
-0.0409011
-0.0449109
-0.0491073
-0.0541812
-0.0597744
-0.0666022
-0.0753
-0.027204
-0.0302521
-0.0332948
-0.036667
-0.0408908
-0.0453225
-0.0501213
-0.0561643
-0.0193807
-0.0215624
-0.0237716
-0.0261707
-0.0290336
-0.0318684
-0.0352383
-0.040215
-0.0126999
-0.0141391
-0.0155408
-0.0170478
-0.018961
-0.0211423
-0.0241988
-0.0284513
-0.00697005
-0.00784667
-0.00870262
-0.00977013
-0.0113767
-0.0133411
-0.0156628
-0.0185522
-0.00213335
-0.00271915
-0.00334361
-0.00419413
-0.00534934
-0.006547
-0.00797647
-0.0101731
0.00185279
0.00146074
0.00108577
0.000610457
-5.60384e-05
-0.000912026
-0.00218446
-0.00409545
0.00527885
0.00503594
0.00482225
0.0045015
0.00395768
0.00321073
0.00222878
0.000864664
0.00809818
0.00789997
0.00772727
0.00748276
0.00709859
0.00659241
0.00590155
0.00485772
0.0104056
0.0102278
0.0100893
0.00992091
0.00965701
0.00927504
0.00871837
0.00788861
0.0122775
0.0121044
0.0119687
0.011822
0.0116092
0.0113067
0.0108774
0.0102529
0.0137485
0.0135731
0.0134298
0.0132917
0.013119
0.0128868
0.0125591
0.0120837
0.0148869
0.014714
0.0145664
0.0144314
0.0142807
0.0140923
0.0138361
0.0134764
0.0157453
0.0155782
0.0154297
0.0152967
0.0151606
0.0150046
0.0148036
0.0145329
0.0163797
0.016222
0.0160778
0.0159488
0.0158229
0.0156881
0.0155251
0.0153185
0.0168372
0.0166899
0.0165523
0.016428
0.0163094
0.0161893
0.0160533
0.0158927
0.0171537
0.0170164
0.0168868
0.016768
0.0166554
0.0165447
0.0164267
0.0162963
0.0173595
0.0172324
0.0171112
0.0169981
0.0168909
0.0167868
0.0166807
0.0165695
0.0174773
0.0173602
0.0172471
0.0171397
0.0170366
0.0169368
0.0168375
0.0167374
0.0175219
0.017414
0.0173077
0.0172043
0.0171036
0.0170056
0.016909
0.0168132
0.0738844
0.0776063
0.0810682
0.0839453
0.085466
0.0853678
0.0834816
0.079312
0.0719427
0.0600354
0.0417374
0.0144676
-0.0259722
-0.0828193
-0.133743
0.0527963
0.0542863
0.0542076
0.0529552
0.0504014
0.0461816
0.0398096
0.0305505
0.0173516
-0.00122596
-0.0271502
-0.0629828
-0.112777
-0.180632
-0.235667
0.0310233
0.0303134
0.0268966
0.0220083
0.0158718
0.00795219
-0.0024861
-0.0163104
-0.0346331
-0.0589582
-0.0913842
-0.134539
-0.191471
-0.267668
-0.321162
0.00856297
0.00543115
-0.000798943
-0.00843988
-0.0174064
-0.028437
-0.0423696
-0.0600875
-0.082689
-0.11164
-0.1492
-0.198097
-0.260626
-0.337636
-0.388389
-0.0137396
-0.0195195
-0.0278898
-0.0374986
-0.0486858
-0.0622945
-0.079078
-0.0998794
-0.125782
-0.15811
-0.199191
-0.25174
-0.316384
-0.390321
-0.436268
-0.0352042
-0.0434461
-0.0533325
-0.0644445
-0.0774516
-0.0931517
-0.112118
-0.135147
-0.16326
-0.197835
-0.240811
-0.29415
-0.357721
-0.425538
-0.465085
-0.0555329
-0.065425
-0.0763615
-0.0888012
-0.103412
-0.120732
-0.141284
-0.165744
-0.195048
-0.230421
-0.273378
-0.325136
-0.384595
-0.443232
-0.476573
-0.07452
-0.0850665
-0.0969963
-0.110671
-0.126563
-0.145081
-0.16663
-0.191782
-0.221317
-0.256212
-0.29753
-0.345636
-0.397903
-0.444747
-0.473326
0.186774
0.201729
0.218349
0.237094
0.258059
0.281164
0.306314
0.333454
0.362505
0.393215
0.425003
0.45669
0.486277
0.509733
0.529039
0.186266
0.200639
0.216676
0.234884
0.25531
0.277782
0.302149
0.328341
0.356282
0.385706
0.415989
0.445897
0.473351
0.49437
0.511287
0.181625
0.19458
0.209382
0.226504
0.245797
0.266899
0.289561
0.313666
0.339096
0.365529
0.392258
0.417945
0.440343
0.455644
0.467086
0.172872
0.183777
0.196863
0.21238
0.229852
0.248744
0.268756
0.289741
0.311493
0.333552
0.355038
0.374433
0.389202
0.39571
0.399234
0.160008
0.168475
0.179649
0.19334
0.208549
0.224519
0.240957
0.257754
0.274665
0.291084
0.30591
0.317377
0.322595
0.317827
0.3116
0.143392
0.14905
0.158114
0.169734
0.182339
0.194993
0.207384
0.219381
0.230652
0.240446
0.247462
0.2497
0.243928
0.226245
0.208131
0.123318
0.126755
0.13395
0.143015
0.152233
0.160883
0.168739
0.175568
0.180822
0.183529
0.182171
0.174515
0.15702
0.125765
0.0950686
0.0997185
0.101899
0.108006
0.114462
0.11993
0.124128
0.127033
0.128326
0.127244
0.122598
0.112662
0.0949638
0.0656227
0.0209669
-0.0213365
0.0252887
0.0296967
0.026036
0.0299652
0.0275303
0.0318383
0.0300804
0.0345051
0.0338723
0.0383729
0.0391864
0.0440174
0.0465611
0.0522652
0.056983
0.0643014
0.0718113
0.0818424
0.092994
0.107061
0.123221
0.143002
0.165865
0.0253676
0.0297433
0.0261325
0.0300241
0.0276534
0.0319132
0.0302441
0.0346316
0.0340941
0.0385545
0.0395034
0.0443071
0.0469492
0.0527349
0.0575099
0.0648994
0.07257
0.0825536
0.0938641
0.108055
0.124012
0.143712
0.166076
0.0254564
0.0297642
0.0262473
0.0300531
0.0278009
0.0319535
0.0304396
0.0347246
0.0343389
0.0386958
0.0398506
0.0445457
0.0473321
0.0530876
0.0579113
0.0651461
0.0729422
0.0829437
0.0939631
0.107962
0.12334
0.142484
0.163357
0.0255538
0.0297614
0.0263759
0.0300558
0.0279606
0.0319641
0.0306576
0.0347897
0.0346062
0.0388188
0.0402154
0.0448054
0.0477758
0.0535998
0.0584703
0.0659072
0.0734677
0.0835258
0.0940654
0.107737
0.12189
0.139742
0.157764
0.0256587
0.0297382
0.0265164
0.0300356
0.0281628
0.0319517
0.0308932
0.034826
0.0349028
0.0389086
0.0405701
0.0449428
0.0481195
0.0537269
0.0586658
0.0658626
0.0733215
0.0830054
0.0930108
0.105912
0.118593
0.134682
0.148933
0.0257681
0.029697
0.0266681
0.0299969
0.0283588
0.0319288
0.0311393
0.0348532
0.03525
0.0390469
0.0409932
0.0452567
0.0486668
0.054448
0.0592841
0.0667867
0.0738183
0.0835749
0.0926451
0.104728
0.115004
0.128306
0.137326
0.0258824
0.0296405
0.026823
0.0299468
0.0285577
0.0318892
0.0313814
0.0348512
0.0355006
0.0391027
0.0412697
0.0453015
0.0488808
0.0542445
0.0592007
0.0662545
0.0730857
0.0819349
0.0903533
0.100732
0.109097
0.119141
0.122569
0.0260002
0.0295757
0.0269747
0.0298931
0.0287714
0.0318815
0.0316381
0.0349205
0.0359214
0.0393612
0.0418136
0.0458179
0.0496383
0.0553976
0.0600255
0.067605
0.073857
0.0828969
0.089755
0.098896
0.10334
0.108684
0.104712
0.0261366
0.0294766
0.027171
0.0297839
0.0289967
0.0317617
0.0318954
0.034796
0.0361151
0.0392795
0.0419152
0.0457168
0.0495601
0.0546151
0.0592644
0.0658129
0.0715695
0.0783095
0.0841756
0.0890017
0.0911807
0.0892506
0.0803056
0.0263141
0.029322
0.0274192
0.0296139
0.0292551
0.0315515
0.0321325
0.0344668
0.0361858
0.0388636
0.0416671
0.0448851
0.0486928
0.0529493
0.0572731
0.0623378
0.0671642
0.0715158
0.0753867
0.0766927
0.0763722
0.0712521
0.0637347
0.0265267
0.0291056
0.0277026
0.0293865
0.0295458
0.0312567
0.0323777
0.0341399
0.0362111
0.0384405
0.0413083
0.0440838
0.0476843
0.0511359
0.0549983
0.0587202
0.0623876
0.0648428
0.0665701
0.0658897
0.063315
0.0577967
0.0505755
0.0267752
0.0288188
0.0280244
0.0291169
0.0298221
0.0310093
0.0325105
0.0338734
0.0361133
0.0379584
0.0407473
0.0431433
0.0463529
0.0490751
0.0522948
0.0548144
0.0571738
0.0582195
0.0581306
0.0561531
0.0523417
0.0465866
0.0397653
0.0270641
0.028455
0.0283401
0.0289079
0.0299998
0.0308139
0.0325375
0.033627
0.0358548
0.0374431
0.0399465
0.0420637
0.0446894
0.0467654
0.0492196
0.0507121
0.051829
0.0517944
0.0504431
0.0476866
0.043433
0.0377096
0.0311611
0.0273893
0.0280831
0.0285641
0.0287668
0.030104
0.0306502
0.0324432
0.033358
0.0354367
0.0368351
0.0389355
0.0408029
0.0427784
0.0442088
0.0459231
0.0465431
0.0466347
0.0457826
0.043752
0.0406067
0.0363248
0.0309191
0.0247913
0.0277029
0.0277518
0.028692
0.0286795
0.0301145
0.0305109
0.0322142
0.0330525
0.0348644
0.0361055
0.0377687
0.0393367
0.0406872
0.0414967
0.0425306
0.0424687
0.0417992
0.0403807
0.0380635
0.034827
0.0307147
0.0257788
0.0201952
0.0279821
0.0274784
0.0287304
0.028629
0.0300197
0.030377
0.0318612
0.0326749
0.034169
0.0352324
0.036471
0.037679
0.0384792
0.0387619
0.0391861
0.0386237
0.0374729
0.0357065
0.0333127
0.0302027
0.0264074
0.0220071
0.0170687
0.0281993
0.0272836
0.0286667
0.0285996
0.0298253
0.0302225
0.0314127
0.0321969
0.0333715
0.0342113
0.0350679
0.0358932
0.0362292
0.0360961
0.0360176
0.0351237
0.0337094
0.0317898
0.0294539
0.0266069
0.0232359
0.0194093
0.0151541
0.028336
0.0271769
0.0285012
0.0285698
0.0295462
0.0300061
0.0309045
0.0316031
0.0324838
0.0330725
0.0335943
0.0340529
0.034015
0.0335781
0.0331321
0.0320426
0.0305242
0.0286127
0.0264326
0.0239119
0.0210107
0.0177656
0.0141793
0.0283786
0.0271547
0.0282522
0.0285043
0.029223
0.0297013
0.030351
0.0309023
0.0315182
0.0318548
0.0320886
0.0322319
0.0319149
0.0312753
0.030587
0.0294115
0.0279059
0.0261138
0.0241529
0.0219761
0.0195402
0.0168533
0.0138938
0.028322
0.0271987
0.0279521
0.0283446
0.0288774
0.0293072
0.0297552
0.0301234
0.0304981
0.0306067
0.0306018
0.0304953
0.0299888
0.0292275
0.0284068
0.0272304
0.0258139
0.0242031
0.0224925
0.0206516
0.0186425
0.0164578
0.0140611
0.028172
0.0272723
0.0276589
0.0280587
0.0284948
0.0288402
0.0291183
0.0293026
0.0294584
0.0293787
0.0291856
0.0288929
0.0282694
0.0274554
0.0265906
0.0254725
0.024188
0.0227826
0.0213261
0.0197942
0.0181555
0.0163966
0.0144742
0.0279464
0.0273132
0.0274145
0.0276906
0.0280518
0.0282977
0.028439
0.0284698
0.0284394
0.0282115
0.0278788
0.0274565
0.026777
0.0259638
0.025115
0.0240919
0.0229595
0.021759
0.0205392
0.0192786
0.0179513
0.0165424
0.0150102
0.0276692
0.0272532
0.0272027
0.0273374
0.0275657
0.0276963
0.0277252
0.0276394
0.0274691
0.027133
0.0267057
0.0262054
0.0255156
0.0247381
0.0239423
0.0230325
0.0220551
0.0210444
0.0200344
0.0190064
0.017939
0.0168179
0.0156052
0.0273664
0.0271004
0.0269912
0.0269917
0.0270631
0.0270746
0.0270016
0.0268258
0.0265605
0.026159
0.0256815
0.0251481
0.0244801
0.023759
0.0230334
0.0222369
0.0214019
0.0205563
0.019724
0.0188893
0.0180341
0.0171456
0.0161907
0.0270544
0.0268738
0.0267392
0.0266407
0.0265733
0.0264705
0.0263034
0.0260554
0.0257296
0.025298
0.0248084
0.0242789
0.0236563
0.0230021
0.0223501
0.021655
0.0209405
0.0202302
0.0195418
0.018863
0.0181789
0.0174769
0.0167294
0.0267411
0.0266009
0.0264458
0.0262803
0.0261101
0.0259095
0.0256604
0.0253544
0.0249908
0.0245526
0.0240748
0.0235725
0.023009
0.0224257
0.0218454
0.0212391
0.0206247
0.0200217
0.0194453
0.0188882
0.0183384
0.0177834
0.0172013
0.0264321
0.0263064
0.026132
0.0259196
0.0256803
0.0254085
0.0250965
0.0247466
0.0243609
0.0239293
0.023474
0.0230056
0.0224996
0.0219813
0.0214658
0.0209373
0.0204087
0.0198939
0.0194057
0.0189417
0.0184937
0.0180517
0.0175983
0.0261375
0.0260141
0.0258229
0.0255776
0.0252928
0.0249749
0.0246225
0.0242442
0.0238475
0.023428
0.0229967
0.0225595
0.0221031
0.0216424
0.0211864
0.0207264
0.0202708
0.0198289
0.0194104
0.0190161
0.0186415
0.0182801
0.0179204
0.0258768
0.0257522
0.0255477
0.0252801
0.0249663
0.0246204
0.024246
0.0238512
0.023447
0.0230365
0.0226234
0.0222103
0.0217934
0.0213815
0.0209791
0.0205807
0.0201903
0.0198128
0.0194528
0.0191109
0.018787
0.0184802
0.018186
0.0256698
0.0255417
0.0253297
0.025051
0.0247206
0.0243596
0.0239764
0.0235766
0.0231717
0.0227708
0.0223741
0.0219814
0.0215932
0.0212146
0.0208472
0.0204878
0.0201376
0.0198001
0.0194793
0.0191769
0.0188934
0.0186283
0.0183798
0.0255593
0.0254306
0.0252109
0.0249208
0.0245779
0.0242053
0.023815
0.0234111
0.0230045
0.0226072
0.022222
0.0218465
0.0214796
0.0211233
0.0207792
0.0204457
0.0201227
0.0198132
0.0195212
0.0192489
0.0189968
0.0187642
0.0185511
0.0676792
0.0497481
0.0275503
0.00670844
-0.0123673
-0.0304896
-0.0479585
-0.0635231
0.0551903
0.0385155
0.0166762
-0.00229651
-0.0173463
-0.0301073
-0.0420831
-0.0525579
0.0441492
0.0313774
0.0128489
-0.00366413
-0.0150253
-0.023765
-0.0323642
-0.0406655
0.0344304
0.0245222
0.00911145
-0.00507407
-0.0141698
-0.0203118
-0.02612
-0.0317315
0.0263879
0.0190469
0.00723542
-0.00392284
-0.0109148
-0.0152818
-0.0193285
-0.0233984
0.0200183
0.0142782
0.00589606
-0.00202698
-0.00736513
-0.0108052
-0.0138239
-0.0166995
0.0156096
0.0109858
0.00541412
0.000182453
-0.0037156
-0.00645242
-0.00876966
-0.0108404
0.0129011
0.00925937
0.00567806
0.00237826
-0.000336806
-0.00245326
-0.00424333
-0.00573328
0.0115246
0.00872587
0.00651174
0.00453079
0.00272454
0.00115412
-0.000203637
-0.00128954
0.0111102
0.00899858
0.00770002
0.00658807
0.00543363
0.00429962
0.0032722
0.00245571
0.0113627
0.00979352
0.00908949
0.00853124
0.00782909
0.00704006
0.0062896
0.00569529
0.0120273
0.0108851
0.0105577
0.0103421
0.00994323
0.00940953
0.00886482
0.00841791
0.0128639
0.0120411
0.0119395
0.0119446
0.0117704
0.0114312
0.0110324
0.0106765
0.0137488
0.0131613
0.013187
0.0133169
0.0132913
0.0130925
0.0128036
0.0125164
0.014623
0.0142035
0.0142892
0.0144666
0.0145158
0.0144073
0.0141992
0.013965
0.0154328
0.0151334
0.0152354
0.0154121
0.0154868
0.0154287
0.0152756
0.0150825
0.01615
0.0159351
0.0160278
0.0161771
0.0162466
0.0162088
0.0160875
0.015923
0.0167612
0.0166038
0.0166731
0.0167818
0.0168292
0.0167923
0.0166868
0.0165415
0.0172643
0.0171439
0.0171835
0.0172482
0.0172659
0.0172195
0.0171192
0.0169858
0.0176617
0.0175616
0.0175698
0.0175924
0.0175797
0.017519
0.017418
0.0172916
0.0179759
0.0178792
0.0178507
0.017831
0.0177876
0.0177119
0.0176084
0.0174877
0.0181988
0.0180968
0.0180333
0.0179753
0.0179043
0.0178151
0.0177102
0.0175957
0.0183841
0.01826
0.018148
0.0180438
0.0179426
0.0178408
0.0177366
0.01763
-0.616715
-0.629824
-0.648793
-0.673259
-0.703656
-0.737616
-0.768531
-0.790454
-0.611575
-0.624284
-0.641879
-0.662995
-0.68733
-0.714471
-0.740145
-0.757155
-0.604532
-0.617025
-0.632514
-0.650147
-0.668797
-0.685288
-0.695777
-0.695627
-0.598315
-0.608634
-0.61965
-0.629654
-0.637461
-0.640742
-0.637063
-0.623999
-0.594432
-0.598534
-0.600697
-0.600016
-0.596485
-0.589254
-0.576563
-0.556208
-0.591332
-0.584825
-0.5758
-0.564965
-0.552914
-0.538876
-0.520854
-0.496488
-0.585159
-0.566063
-0.546544
-0.528064
-0.510456
-0.492307
-0.471218
-0.44483
-0.5721
-0.541461
-0.514354
-0.491062
-0.470225
-0.449804
-0.427116
-0.3999
-0.549703
-0.511294
-0.480227
-0.454574
-0.432308
-0.410886
-0.387681
-0.360499
-0.518044
-0.476759
-0.444818
-0.41884
-0.396444
-0.375058
-0.352123
-0.32566
-0.479291
-0.439165
-0.408778
-0.383885
-0.362466
-0.341849
-0.319814
-0.29458
-0.435781
-0.399976
-0.37249
-0.349945
-0.330172
-0.310937
-0.290299
-0.266687
-0.390477
-0.359822
-0.336563
-0.317087
-0.299477
-0.282121
-0.26324
-0.2416
-0.341859
-0.319411
-0.301283
-0.285536
-0.270551
-0.255167
-0.238338
-0.218793
-0.292956
-0.28142
-0.266769
-0.255942
-0.242704
-0.229536