/*--------------------------------*- C++ -*----------------------------------*\
| =========                 |                                                 |
| \\      /  F ield         | OpenFOAM: The Open Source CFD Toolbox           |
|  \\    /   O peration     | Version:  2312                                  |
|   \\  /    A nd           | Website:  www.openfoam.com                      |
|    \\/     M anipulation  |                                                 |
\*---------------------------------------------------------------------------*/
FoamFile
{
    version     2.0;
    format      ascii;
    arch        "LSB;label=32;scalar=64";
    class       surfaceScalarField;
    location    "15";
    object      phi;
}
// * * * * * * * * * * * * * * * * * * * * * * * * * * * * * * * * * * * * * //

dimensions      [0 3 -1 0 0 0 0];

oriented        oriented;

internalField   nonuniform List<scalar> 
26232
(
-0.000208377
0.00107573
-0.000867357
-0.000241523
0.0022077
-0.00217455
0.000276395
0.00241101
-0.00292893
0.00164767
0.00161815
-0.00298942
0.00418158
-0.000310942
-0.00222297
0.00819513
-0.00352324
-0.000490301
0.014016
-0.00813888
0.00231799
0.0218961
-0.0141711
0.006291
0.0319314
-0.0214934
0.0114581
0.0439943
-0.0298352
0.0177723
0.0577149
-0.0388192
0.0250986
0.0725162
-0.0480208
0.0332196
0.0876881
-0.0570281
0.0418562
0.10248
-0.0654898
0.0506976
0.116198
-0.0731478
0.0594299
0.128287
-0.0798584
0.0677696
0.138417
-0.0855977
0.075468
0.146482
-0.0904625
0.0823973
0.152739
-0.0946325
0.0883752
0.157452
-0.0984095
0.0936967
0.161402
-0.101868
0.0979174
0.164677
-0.105703
0.102428
0.167532
-0.108626
0.105771
-0.113156
0.111096
0.169592
-0.000177874
0.00125361
-8.92255e-05
0.00211905
0.000733558
0.00158823
0.00273116
-0.000379457
0.00633361
-0.00391339
0.0119414
-0.00913099
0.0198192
-0.0160167
0.0299905
-0.0243424
0.0421678
-0.0336707
0.0557703
-0.0434377
0.0700183
-0.0530673
0.0840668
-0.0620693
0.0971407
-0.0701019
0.108649
-0.0769979
0.118262
-0.0827612
0.125946
-0.0875426
0.131938
-0.0915889
0.136672
-0.0951964
0.140654
-0.0986151
0.144301
-0.102056
0.147979
-0.105546
0.151485
-0.109208
0.155456
-0.112597
-0.116768
0.159068
-5.29662e-05
0.00130657
0.000391643
0.00167444
0.00187608
0.000103793
0.00493173
-0.00343511
0.0100459
-0.00902754
0.0175373
-0.0166224
0.0274023
-0.0258817
0.0392312
-0.0361713
0.0522643
-0.0467038
0.0655602
-0.0567336
0.0781994
-0.0657064
0.089459
-0.0733289
0.0989245
-0.0795674
0.106524
-0.0845976
0.112489
-0.0887264
0.117246
-0.0922996
0.121279
-0.0956215
0.124985
-0.098903
0.128603
-0.102232
0.132205
-0.105658
0.135719
-0.109061
0.139124
-0.112613
0.142383
-0.115856
-0.119694
0.145309
0.000119251
0.00118732
0.00106265
0.000731044
0.00343381
-0.00226737
0.00780708
-0.00780838
0.0145947
-0.0158152
0.0238314
-0.0258591
0.0350404
-0.0370907
0.0473175
-0.0484484
0.0595882
-0.0589745
0.0708949
-0.0680403
0.0806032
-0.0754147
0.0884845
-0.0812103
0.0946802
-0.0857631
0.099576
-0.0894934
0.103636
-0.0927863
0.107255
-0.0959184
0.110677
-0.0990441
0.113991
-0.102216
0.117208
-0.10545
0.120276
-0.108727
0.123271
-0.112055
0.126147
-0.115488
0.129114
-0.118823
-0.122717
0.132137
0.000307343
0.000879981
0.00183948
-0.000801094
0.00523942
-0.0056673
0.0110349
-0.0136038
0.0193723
-0.0241527
0.0297854
-0.0362721
0.0412637
-0.0485691
0.0526076
-0.0597923
0.0628177
-0.0691847
0.071332
-0.0765546
0.0780637
-0.0821464
0.0832855
-0.0864321
0.0874379
-0.0899154
0.0909462
-0.0930017
0.094111
-0.0959511
0.0970904
-0.0988978
0.099942
-0.101896
0.102694
-0.104969
0.105367
-0.108122
0.108011
-0.111371
0.110658
-0.114702
0.113297
-0.118128
0.116015
-0.121541
-0.12527
0.118568
0.000518017
0.000361964
0.002711
-0.00299407
0.00721482
-0.0101711
0.0143538
-0.0207428
0.0237824
-0.0335813
0.0344481
-0.0469378
0.0450206
-0.0591415
0.0544165
-0.0691882
0.0620884
-0.0768565
0.0680226
-0.0824888
0.0725537
-0.0866775
0.0761305
-0.090009
0.0791411
-0.092926
0.0818411
-0.0957017
0.0843681
-0.0984781
0.0867896
-0.101319
0.089147
-0.104253
0.0914646
-0.107286
0.0937617
-0.11042
0.0960323
-0.113641
0.0982729
-0.116943
0.100465
-0.120319
0.102655
-0.123731
-0.127372
0.104757
0.000762655
-0.000400691
0.00367418
-0.00590559
0.00925647
-0.0157534
0.0174185
-0.0289049
0.0271889
-0.0433517
0.0371147
-0.0568636
0.0459576
-0.0679843
0.0530939
-0.0763245
0.0585051
-0.0822678
0.0625395
-0.0865231
0.065646
-0.089784
0.0682024
-0.0925654
0.0704582
-0.0951818
0.0725538
-0.0977974
0.0745607
-0.100485
0.0765129
-0.103272
0.0784216
-0.106162
0.0802893
-0.109154
0.0821127
-0.112243
0.0838976
-0.115426
0.0856552
-0.1187
0.087393
-0.122057
0.0891503
-0.125489
-0.129073
0.0908516
0.00104176
-0.00144245
0.00468569
-0.00954952
0.0111717
-0.0222395
0.01981
-0.0375431
0.029103
-0.0526448
0.0375845
-0.065345
0.0444381
-0.074838
0.0495516
-0.081438
0.0532468
-0.085963
0.0559768
-0.0892531
0.0581331
-0.0919403
0.0599798
-0.094412
0.0616659
-0.0968679
0.0632628
-0.0993943
0.0647989
-0.102021
0.0662828
-0.104755
0.0677191
-0.107598
0.0691135
-0.110548
0.0704757
-0.113605
0.0718121
-0.116762
0.0731228
-0.120011
0.074407
-0.123341
0.0756744
-0.126756
-0.130273
0.0768743
0.00134196
-0.00278442
0.00565646
-0.013864
0.012713
-0.029296
0.0211899
-0.04602
0.0293801
-0.060835
0.0361429
-0.0721078
0.0411573
-0.0798524
0.0446655
-0.0849461
0.0471185
-0.088416
0.0489359
-0.0910705
0.0504094
-0.0934139
0.0517041
-0.0957068
0.0528976
-0.0980614
0.0540207
-0.100517
0.0550854
-0.103086
0.0560991
-0.105769
0.0570678
-0.108567
0.0579962
-0.111477
0.0588854
-0.114494
0.0597346
-0.117612
0.0605449
-0.120821
0.0613233
-0.12412
0.0620793
-0.127512
-0.130997
0.062803
0.00163755
-0.00442197
0.00647204
-0.0186985
0.0136646
-0.0364886
0.0214309
-0.0537862
0.0282006
-0.0676048
0.033291
-0.0771982
0.0367705
-0.083332
0.0390581
-0.0872336
0.0406047
-0.0899626
0.0417435
-0.0922093
0.0426687
-0.0943391
0.0434738
-0.0965118
0.0441976
-0.0987852
0.0448557
-0.101176
0.0454555
-0.103686
0.046001
-0.106315
0.0464955
-0.109061
0.0469417
-0.111923
0.0473429
-0.114895
0.047702
-0.117971
0.048022
-0.121141
0.0483062
-0.124404
0.0485564
-0.127762
-0.13121
0.0487693
0.00189831
-0.00632028
0.00702574
-0.0238259
0.0139172
-0.0433801
0.0206172
-0.0604862
0.0259049
-0.0728925
0.0295197
-0.0808129
0.031773
-0.0855853
0.0331327
-0.0885933
0.0339849
-0.0908149
0.0345694
-0.0927938
0.0350066
-0.0947762
0.0353478
-0.0968531
0.0356127
-0.0990502
0.0358092
-0.101372
0.0359412
-0.103818
0.0360125
-0.106386
0.0360272
-0.109076
0.0359891
-0.111885
0.0359003
-0.114807
0.035762
-0.117832
0.0355753
-0.120955
0.0353423
-0.124171
0.035061
-0.127481
-0.130886
0.0347374
0.00209875
-0.00841903
0.00725248
-0.0289797
0.0134905
-0.0496181
0.0189623
-0.0659581
0.0228563
-0.0767865
0.0252293
-0.0831858
0.0265102
-0.0868663
0.0271389
-0.0892219
0.0274177
-0.0910937
0.0275089
-0.0928849
0.0274839
-0.0947512
0.02737
-0.0967392
0.0271773
-0.0988575
0.0269107
-0.101105
0.026574
-0.103481
0.0261706
-0.105983
0.0257034
-0.108609
0.0251745
-0.111356
0.0245855
-0.114218
0.0239384
-0.117185
0.0232374
-0.120254
0.0224871
-0.123421
0.0216908
-0.126685
0.0208515
-0.130047
-0.0013235
0.00346969
-0.00214619
-0.00418097
0.00725088
-0.00439341
-0.00792415
0.00928711
-0.00554393
-0.012173
0.010388
-0.00613912
-0.0167389
0.0110678
-0.00650189
-0.0215458
0.0115857
-0.00677885
-0.0265629
0.0120262
-0.00700904
-0.0317688
0.0123952
-0.00718933
-0.0371385
0.0126773
-0.00730758
-0.042642
0.0128556
-0.00735215
-0.0482443
0.0129156
-0.00731329
-0.0539065
0.0128452
-0.00718303
-0.0595863
0.0126345
-0.00695468
-0.0652424
0.012276
-0.00661992
-0.0708281
0.0117653
-0.0061796
-0.0762952
0.0110998
-0.00563275
-0.0815944
0.0102788
-0.00497957
-0.0866757
0.00930351
-0.00422213
-0.0914893
0.00817718
-0.00336364
-0.0959878
0.00690374
-0.00240527
-0.100128
0.00548431
-0.00134379
-0.103905
0.0039217
-0.000144988
-0.107133
0.00224739
0.000980936
0.000461257
-0.109777
0.00218258
-0.000917625
0.00438731
-0.00309352
0.00942677
-0.00609442
0.012288
-0.00958854
0.0138821
-0.0133632
0.0148425
-0.0173042
0.0155267
-0.021352
0.016074
-0.0254662
0.0165094
-0.029608
0.0168192
-0.0337359
0.0169835
-0.0378045
0.0169842
-0.0417656
0.0168063
-0.045569
0.0164379
-0.0491627
0.0158697
-0.052493
0.0150957
-0.0555051
0.0141119
-0.0581431
0.0129168
-0.0603503
0.0115107
-0.062069
0.00989594
-0.0632451
0.00807986
-0.0638315
0.00607065
-0.0637777
0.00386789
-0.0630096
0.00147932
-0.00109733
-0.061451
-0.000415875
0.00480319
-0.00169486
0.0107058
-0.00368593
0.0142791
-0.00615087
0.016347
-0.00886811
0.0175597
-0.0116826
0.0183411
-0.0144988
0.0188902
-0.0172538
0.0192644
-0.0198963
0.0194616
-0.0223762
0.0194634
-0.0246428
0.0192509
-0.0266444
0.0188079
-0.0283284
0.0181219
-0.0296418
0.0171831
-0.030531
0.0159849
-0.0309424
0.0145233
-0.0308228
0.0127971
-0.0301195
0.0108074
-0.0287771
0.00855362
-0.02674
0.00604268
-0.0239636
0.00329433
-0.020313
0.000217242
-0.0159407
-0.00289293
-0.00652223
-0.0105159
8.57933e-05
0.0047174
-0.000208738
0.0110003
-0.00103642
0.0151068
-0.00229025
0.0176009
-0.00377772
0.0190472
-0.00531671
0.0198801
-0.0067738
0.0203473
-0.00805864
0.0205493
-0.00910502
0.020508
-0.00985674
0.0202151
-0.0102611
0.0196552
-0.010267
0.0188138
-0.00982418
0.017679
-0.00888369
0.0162426
-0.0073978
0.014499
-0.00532018
0.0124457
-0.00260646
0.0100834
0.000788007
0.00741289
0.00488282
0.0044588
0.00975661
0.00116889
0.0153598
-0.00230889
0.0218571
-0.00628006
0.0291117
-0.0101475
-0.0149622
0.0375516
0.000496212
0.00422118
0.00111482
0.0103817
0.00147551
0.0147461
0.00151079
0.0175656
0.00133877
0.0192192
0.00113707
0.0200818
0.00106642
0.0204179
0.00124705
0.0203686
0.001765
0.01999
0.00268547
0.0192947
0.00406264
0.0182781
0.00594471
0.0169317
0.00837567
0.0152481
0.011396
0.0132223
0.0150417
0.0108533
0.0193447
0.00814269
0.0243309
0.00509726
0.0300271
0.00171663
0.0364323
-0.00194641
0.0436585
-0.00605729
0.0515649
-0.0102153
0.0605201
-0.0152353
0.0700779
-0.0197053
-0.0261354
0.0812512
0.000756108
0.00346508
0.00208654
0.00905125
0.00348505
0.0133476
0.00474344
0.0163072
0.00587013
0.0180925
0.00699105
0.0189609
0.00826251
0.0191465
0.00982249
0.0188087
0.0117768
0.0180357
0.014203
0.0168684
0.0171583
0.0153228
0.0206858
0.0134041
0.0248183
0.0111156
0.0295805
0.00846011
0.0349907
0.00544302
0.0410498
0.00208359
0.0477691
-0.00162198
0.0552178
-0.00573207
0.0633569
-0.0100855
0.0723331
-0.0150336
0.0819943
-0.0198764
0.0928993
-0.0261403
0.104385
-0.0311908
-0.0395381
0.117787
0.000843861
0.00262121
0.00257355
0.00732156
0.00469721
0.0112239
0.00693086
0.0140735
0.0091806
0.0158428
0.0114905
0.016651
0.0139725
0.0166645
0.0167513
0.0160299
0.0199343
0.0148526
0.0236029
0.0131998
0.0278124
0.0111133
0.0325974
0.00861916
0.0379767
0.00573631
0.0439566
0.00248019
0.0505345
-0.00113484
0.0577967
-0.00517867
0.0657497
-0.00957497
0.0744137
-0.0143961
0.0839242
-0.019596
0.0943952
-0.0255046
0.105935
-0.0314161
0.118874
-0.0390797
0.132856
-0.045172
-0.0554592
0.148777
0.000779077
0.00184214
0.00256396
0.00553668
0.00498229
0.00880559
0.00776219
0.0112936
0.0107546
0.0128504
0.0139266
0.013479
0.0173234
0.0132676
0.0210243
0.012329
0.0251103
0.0107667
0.0296475
0.00866262
0.0346835
0.0060773
0.0402515
0.00305117
0.0463382
-0.000350323
0.0531011
-0.00428274
0.0605652
-0.00859899
0.0687778
-0.0133912
0.0779125
-0.0187097
0.0880874
-0.024571
0.0995741
-0.0310827
0.112299
-0.0382291
0.126711
-0.0458284
0.142238
-0.0546066
0.159362
-0.0622964
-0.0733435
0.177246
0.000604101
0.00123804
0.00214398
0.0039968
0.00441503
0.00653454
0.00722419
0.00848448
0.0104265
0.00964808
0.0139474
0.00995809
0.0177754
0.00943961
0.0219398
0.00816462
0.02649
0.00621649
0.0314836
0.00366899
0.0369663
0.000594634
0.0430833
-0.00306577
0.0499797
-0.00724672
0.0577165
-0.0120196
0.0665193
-0.0174018
0.0765835
-0.0234554
0.0880537
-0.0301798
0.101058
-0.0375749
0.115608
-0.0456331
0.131423
-0.0540437
0.14861
-0.0630162
0.165859
-0.0718555
0.184127
-0.080564
-0.0898698
0.200653
0.000364603
0.000873434
0.00145704
0.00290436
0.00324243
0.00474915
0.00563593
0.00609098
0.008544
0.00674001
0.0119015
0.00660061
0.0156882
0.00565292
0.0199324
0.00392041
0.024709
0.0014399
0.0301483
-0.00177033
0.0364478
-0.0057049
0.0437748
-0.0103928
0.052373
-0.0158449
0.0624291
-0.0220757
0.074073
-0.0290458
0.0873452
-0.0367275
0.102083
-0.0449179
0.118103
-0.0535943
0.134835
-0.0623654
0.15195
-0.0711584
0.168663
-0.0797294
0.184223
-0.0874155
0.198708
-0.0950495
-0.100794
0.209632
0.00010852
0.000764914
0.000683758
0.00232912
0.00184434
0.00358857
0.00362041
0.00431491
0.00601071
0.00434971
0.00902881
0.00358251
0.0127344
0.00194735
0.0172547
-0.000599927
0.0227822
-0.0040876
0.0295527
-0.0085408
0.0378078
-0.01396
0.047726
-0.020311
0.0593884
-0.0275073
0.0727225
-0.0354098
0.0874945
-0.0438177
0.103295
-0.0525285
0.119601
-0.0612235
0.135797
-0.0697904
0.151154
-0.0777222
0.16528
-0.0852851
0.177251
-0.0917004
0.187526
-0.0976902
0.195177
-0.102701
-0.106083
0.200467
-0.000102443
5.21283e-05
0.000711769
0.00203725
0.004164
0.00725621
0.0115215
0.0172126
0.0245831
0.0338146
0.0449533
0.0578618
0.0722108
0.0874986
0.103111
0.118352
0.132596
0.145203
0.155856
0.164268
0.170485
0.175222
0.178293
0.183306
-0.108144
-0.00658054
0.00494767
-0.105114
-0.0105733
0.00754332
-0.100969
-0.0142872
0.0101419
-0.0955667
-0.0184134
0.013011
-0.0889447
-0.0224707
0.0158488
-0.0810647
-0.0266612
0.0187811
-0.0718028
-0.0309482
0.0216863
-0.0610452
-0.0352182
0.0244606
-0.0486752
-0.0393933
0.0270232
-0.0346013
-0.0431768
0.029103
-0.018931
-0.046183
0.0305127
-0.0018598
-0.0482367
0.0311655
0.0160865
-0.0489597
0.0310134
0.0345887
-0.0484542
0.0299521
0.0528478
-0.0466649
0.0284057
0.0702037
-0.0438616
0.0265057
0.0861797
-0.0404303
0.0244543
0.100463
-0.0367769
0.0224935
0.1129
-0.0332277
0.0207913
0.123504
-0.0299983
0.0193934
0.132421
-0.0271983
0.0182817
0.139854
-0.0248484
0.0174158
0.146019
-0.022893
0.0167274
0.151119
-0.021269
0.0161694
0.155342
-0.0199173
0.0156943
0.158859
-0.0187719
0.0152544
0.161814
-0.0177752
0.0148204
0.164324
-0.0168905
0.0143801
0.166491
-0.016095
0.0139282
0.1684
-0.0153605
0.0134519
0.17012
-0.014661
0.0129409
0.171706
-0.0139828
0.0123964
0.173199
-0.0133233
0.0118308
0.174616
-0.0126266
0.0112095
0.175947
-0.0118348
0.0105033
0.177156
-0.0108329
0.00962439
0.178197
-0.00970325
0.00866197
0.179038
-0.00835694
0.00751647
0.179676
-0.00713862
0.00650032
0.180125
-0.00563577
0.0051867
0.180424
-0.00458444
0.00428581
0.180588
-0.00276146
0.00259681
0.18066
-0.00194487
0.00187355
0.180634
0.000562694
-0.00053724
0.180548
0.00100161
-0.000915679
0.180392
0.004439
-0.00428285
0.180187
0.00444094
-0.00423626
0.179932
0.00881141
-0.00855651
0.179631
0.00867096
-0.00836974
0.179299
0.0137034
-0.0133708
0.178924
0.0138448
-0.0134704
0.17852
0.0195494
-0.0191452
0.178089
0.0198563
-0.019425
0.177623
0.0268814
-0.0264161
0.177134
0.0270361
-0.0265463
0.176621
0.0356602
-0.0351475
0.176078
0.0361614
-0.0356186
0.175514
0.0462639
-0.0456995
0.174928
0.0473488
-0.0467629
0.0595208
-0.0589098
-0.0594081
-0.00862346
-0.0563308
-0.0136505
-0.0520863
-0.0185317
-0.0468559
-0.0236438
-0.0405397
-0.0287869
-0.0331479
-0.034053
-0.0245651
-0.039531
-0.0146995
-0.0450838
-0.00344422
-0.0506486
0.0090366
-0.0556576
0.0228004
-0.0599468
0.0375939
-0.0630301
0.0530893
-0.0644551
0.0687144
-0.0640793
0.0838871
-0.0618376
0.0980331
-0.0580076
0.110767
-0.0531647
0.121958
-0.0479674
0.131564
-0.0428335
0.139631
-0.0380655
0.146309
-0.0338762
0.151777
-0.0303168
0.156226
-0.0273421
0.159833
-0.0248753
0.162756
-0.0228404
0.165138
-0.021154
0.167098
-0.019735
0.168734
-0.0185265
0.17013
-0.0174917
0.171359
-0.0165893
0.172476
-0.0157775
0.173522
-0.0150288
0.17453
-0.0143319
0.175523
-0.0136193
0.176499
-0.0128112
0.17743
-0.0117636
0.17827
-0.0105435
0.178977
-0.00906385
0.179535
-0.00769652
0.179943
-0.00604333
0.180227
-0.00486878
0.180396
-0.00293007
0.180483
-0.00203224
0.18048
0.000566072
0.18042
0.00106088
0.180292
0.0045672
0.180117
0.00461616
0.179889
0.0090391
0.179617
0.00894283
0.17931
0.0140112
0.178963
0.0141913
0.178582
0.0199309
0.178176
0.0202623
0.17773
0.027327
0.177263
0.0275036
0.176765
0.0361576
0.17624
0.0366861
0.175686
0.0468184
0.175111
0.0479234
0.0601299
-0.00821229
-0.010927
-0.00550553
-0.0163573
-0.00182179
-0.0222155
0.00258379
-0.0280493
0.00785261
-0.0340557
0.0141254
-0.0403258
0.0214343
-0.0468399
0.0298839
-0.0535334
0.0394523
-0.060217
0.0501776
-0.0663829
0.0618856
-0.0716548
0.0742603
-0.0754049
0.0868928
-0.0770875
0.0992676
-0.0764541
0.110929
-0.073499
0.121513
-0.0685916
0.130824
-0.0624758
0.138842
-0.0559849
0.145657
-0.0496487
0.15133
-0.0437391
0.156007
-0.0385531
0.159835
-0.0341445
0.162951
-0.0304581
0.165477
-0.0274016
0.167522
-0.0248852
0.16918
-0.0228123
0.17053
-0.0210852
0.171638
-0.0196344
0.172565
-0.0184181
0.173365
-0.0173895
0.174081
-0.0164934
0.174741
-0.0156892
0.175373
-0.0149635
0.176004
-0.01425
0.176651
-0.0134583
0.177304
-0.0124172
0.177932
-0.0111709
0.17849
-0.00962257
0.178957
-0.0081628
0.179318
-0.00640414
0.179588
-0.00513949
0.179768
-0.00310943
0.179882
-0.00214711
0.179916
0.000532593
0.179901
0.00107615
0.179819
0.00464849
0.179694
0.00474124
0.179516
0.00921784
0.179296
0.00916245
0.179037
0.0142705
0.178743
0.0144854
0.178409
0.0202645
0.178054
0.0206169
0.177656
0.0277259
0.177238
0.0279209
0.176785
0.036611
0.176308
0.0371631
0.175794
0.0473324
0.175262
0.0484551
0.0607042
0.0388182
-0.0121936
0.0409753
-0.0185143
0.0436888
-0.024929
0.0470574
-0.0314179
0.0512147
-0.0382131
0.0562739
-0.045385
0.0622965
-0.0528625
0.0693111
-0.060548
0.0772514
-0.0681572
0.086046
-0.0751776
0.0954033
-0.0810121
0.104911
-0.0849124
0.114136
-0.0863129
0.122715
-0.0850325
0.130406
-0.0811905
0.137123
-0.0753086
0.142887
-0.0682398
0.147805
-0.0609024
0.152071
-0.0539148
0.155765
-0.0474334
0.158955
-0.041743
0.161715
-0.0369046
0.164097
-0.0328399
0.166142
-0.0294466
0.16789
-0.0266334
0.169379
-0.0243013
0.17064
-0.0223456
0.171698
-0.0206925
0.172586
-0.0193062
0.173342
-0.0181451
0.173995
-0.0171466
0.174564
-0.0162582
0.175069
-0.0154686
0.175543
-0.0147236
0.176019
-0.0139351
0.176512
-0.0129099
0.177007
-0.0116661
0.177472
-0.0100869
0.177882
-0.00857309
0.17822
-0.00674249
0.178496
-0.00541495
0.178701
-0.00331497
0.178859
-0.00230449
0.178945
0.000445972
0.178991
0.00102991
0.178976
0.00466391
0.178921
0.00479588
0.178813
0.00932616
0.178668
0.00930736
0.178481
0.0144578
0.178263
0.0147029
0.178003
0.0205249
0.177726
0.0208942
0.1774
0.0280511
0.177061
0.0282604
0.17668
0.0369918
0.17628
0.0375631
0.175837
0.0477753
0.17538
0.0489125
0.0612111
0.0819268
-0.0128693
0.0832974
-0.0198849
0.0851196
-0.0267512
0.0874069
-0.0337052
0.0903588
-0.0411649
0.0940745
-0.0491007
0.0986173
-0.0574053
0.103947
-0.0658774
0.109926
-0.0741366
0.116312
-0.0815635
0.122736
-0.087436
0.128757
-0.0909337
0.134024
-0.0915798
0.138411
-0.0894197
0.141983
-0.0847626
0.144946
-0.0782713
0.147538
-0.0708317
0.149925
-0.0632895
0.152247
-0.0562367
0.154615
-0.0498011
0.156943
-0.0440715
0.159195
-0.0391562
0.161328
-0.0349736
0.163307
-0.0314251
0.16511
-0.0284367
0.166733
-0.0259237
0.168172
-0.0237851
0.169428
-0.0219488
0.170511
-0.0203893
0.171444
-0.0190774
0.172246
-0.0179487
0.172928
-0.0169404
0.173504
-0.0160442
0.174004
-0.0152238
0.174473
-0.0144038
0.17494
-0.0133773
0.17541
-0.0121359
0.17586
-0.0105374
0.176273
-0.00898589
0.176631
-0.00709995
0.176941
-0.00572493
0.177195
-0.00356919
0.177414
-0.00252334
0.177571
0.000288433
0.177697
0.000904292
0.177766
0.00459468
0.177802
0.00476024
0.177785
0.00934292
0.177737
0.00935556
0.177645
0.01455
0.177527
0.01482
0.177365
0.0206872
0.17719
0.0210689
0.176966
0.0282761
0.176731
0.0284948
0.176451
0.0372714
0.176158
0.0378568
0.175817
0.0481164
0.175465
0.0492643
0.0616178
0.118493
-0.0135743
0.119589
-0.0209815
0.120948
-0.0281096
0.122617
-0.0353749
0.124767
-0.0433146
0.127403
-0.0517367
0.130401
-0.0604038
0.133594
-0.06907
0.136855
-0.0773979
0.140029
-0.084737
0.142758
-0.090165
0.144714
-0.0928902
0.145755
-0.0926207
0.146063
-0.0897271
0.146023
-0.084723
0.146044
-0.0782918
0.146446
-0.0712346
0.147342
-0.0641853
0.148683
-0.057578
0.150469
-0.0515863
0.152547
-0.0461499
0.154734
-0.0413435
0.156921
-0.0371601
0.159026
-0.0335298
0.160998
-0.0304091
0.162813
-0.0277392
0.164461
-0.0254326
0.165933
-0.0234213
0.167232
-0.0216881
0.168371
-0.0202159
0.169364
-0.018942
0.170218
-0.0177941
0.170939
-0.0167652
0.171553
-0.015838
0.172105
-0.0149564
0.172635
-0.0139068
0.173157
-0.0126582
0.17366
-0.0110398
0.174128
-0.00945452
0.174547
-0.00751828
0.174923
-0.00610173
0.175251
-0.00389705
0.175552
-0.00282417
0.1758
4.08781e-05
0.176023
0.000681158
0.176195
0.00442224
0.17634
0.00461489
0.176436
0.00924741
0.176506
0.00928563
0.176532
0.0145243
0.176538
0.0148135
0.176499
0.0207268
0.176452
0.0211159
0.176353
0.0283744
0.176251
0.0285974
0.176101
0.0374217
0.175942
0.0380157
0.175733
0.0483256
0.175517
0.0494798
0.0618918
0.149681
-0.014479
0.150719
-0.0220197
0.151706
-0.0290966
0.152705
-0.0363731
0.15386
-0.0444695
0.155099
-0.0529761
0.156236
-0.061541
0.157041
-0.069875
0.157205
-0.0775616
0.15646
-0.0839925
0.154876
-0.0885805
0.152606
-0.0906206
0.149803
-0.0898175
0.146911
-0.086835
0.144474
-0.0822857
0.142887
-0.0767047
0.142326
-0.070674
0.142737
-0.0645964
0.143898
-0.0587392
0.145583
-0.0532712
0.147677
-0.0482435
0.149953
-0.0436196
0.152247
-0.0394546
0.154472
-0.0357543
0.156572
-0.0325097
0.158521
-0.0296879
0.160307
-0.0272186
0.161926
-0.0250398
0.163376
-0.023139
0.164668
-0.021508
0.165814
-0.0200873
0.166816
-0.0187966
0.167679
-0.0176282
0.168422
-0.0165805
0.169085
-0.0156198
0.169711
-0.0145322
0.170321
-0.0132691
0.170912
-0.0116299
0.171471
-0.0100135
0.171981
-0.00802905
0.172453
-0.00657317
0.172878
-0.00432229
0.173281
-0.0032271
0.173638
-0.000316601
0.173977
0.000342602
0.174271
0.0041283
0.174545
0.00434084
0.174773
0.00901945
0.174982
0.00907683
0.175148
0.0143583
0.1753
0.0146609
0.175408
0.0206194
0.175513
0.0210108
0.175567
0.02832
0.175622
0.028542
0.175629
0.0374146
0.175633
0.0380117
0.175586
0.0483728
0.175537
0.0495287
0.0620009
0.177732
-0.0149648
0.178095
-0.0223823
0.178031
-0.0290325
0.177646
-0.0359889
0.177004
-0.0438266
0.175948
-0.0519206
0.174294
-0.0598868
0.171891
-0.067472
0.168537
-0.0742079
0.164169
-0.0796248
0.158826
-0.0832374
0.153155
-0.0849488
0.147801
-0.0844636
0.143282
-0.0823166
0.139988
-0.0789917
0.138065
-0.0747813
0.137436
-0.0700456
0.137885
-0.0650453
0.139117
-0.0599707
0.140855
-0.0550095
0.142913
-0.0503013
0.145203
-0.0459102
0.147535
-0.0417865
0.149806
-0.0380253
0.151966
-0.034669
0.153986
-0.0317085
0.155856
-0.0290886
0.157571
-0.0267541
0.159127
-0.024695
0.160529
-0.0229105
0.161788
-0.0213463
0.162909
-0.0199177
0.163895
-0.0186136
0.164757
-0.0174432
0.165532
-0.0163948
0.16626
-0.0152601
0.166971
-0.0139794
0.167663
-0.0123223
0.168331
-0.0106811
0.168954
-0.00865297
0.169542
-0.00716111
0.170086
-0.00486576
0.17061
-0.00375077
0.171098
-0.000805059
0.171569
-0.000128671
0.172003
0.00369476
0.172424
0.00391964
0.172804
0.00863952
0.173172
0.00870925
0.173499
0.0140306
0.17382
0.0143403
0.174097
0.0203417
0.174378
0.0207302
0.17461
0.0280877
0.174849
0.0283034
0.175041
0.037223
0.175235
0.0378176
0.175379
0.0482288
0.175526
0.0493816
0.0619134
0.199925
-0.0142364
0.198645
-0.0211021
0.196586
-0.0269739
0.193978
-0.0333809
0.19078
-0.040628
0.186843
-0.0479837
0.182096
-0.0551398
0.176495
-0.0618713
0.170074
-0.0677871
0.163015
-0.0725654
0.155723
-0.0759451
0.148632
-0.0778578
0.142546
-0.078378
0.137907
-0.0776774
0.134809
-0.0758941
0.133126
-0.0730976
0.132646
-0.069566
0.133123
-0.065522
0.134315
-0.0611628
0.135989
-0.0566837
0.13797
-0.0522818
0.140162
-0.048103
0.14247
-0.0440946
0.144753
-0.0403076
0.146943
-0.0368596
0.149012
-0.0337768
0.150946
-0.0310233
0.152742
-0.0285498
0.154392
-0.0263455
0.155897
-0.0244148
0.157263
-0.0227122
0.158497
-0.0211523
0.159603
-0.0197196
0.160588
-0.0184284
0.161481
-0.0172875
0.162319
-0.0160983
0.163138
-0.0147977
0.163942
-0.0131269
0.164731
-0.0114698
0.165483
-0.00940552
0.166206
-0.00788386
0.166887
-0.00554659
0.167552
-0.00441548
0.168185
-0.00143793
0.168813
-0.000757487
0.169402
0.003106
0.169989
0.00333292
0.17054
0.00808861
0.171085
0.00816375
0.171595
0.0135204
0.172105
0.0138312
0.172575
0.0198712
0.173054
0.0202514
0.173489
0.027653
0.173935
0.0278572
0.174338
0.0368202
0.174748
0.0374071
0.175112
0.0478649
0.175484
0.04901
0.0615982
0.207931
-0.012535
0.20505
-0.018221
0.201192
-0.0231161
0.196703
-0.0288919
0.191464
-0.0353889
0.18545
-0.04197
0.178749
-0.0484388
0.171466
-0.0545882
0.163829
-0.0601503
0.156135
-0.0648709
0.148842
-0.0686526
0.142206
-0.0712219
0.13665
-0.0728218
0.132517
-0.0735442
0.12977
-0.0731474
0.128226
-0.0715534
0.127708
-0.0690484
0.128043
-0.0658565
0.129059
-0.0621794
0.13059
-0.0582144
0.132464
-0.0541557
0.134543
-0.0501821
0.136771
-0.0463225
0.139048
-0.0425842
0.141283
-0.0390946
0.143417
-0.0359105
0.145426
-0.0330327
0.147307
-0.0304313
0.149056
-0.0280939
0.150668
-0.0260271
0.15215
-0.0241945
0.153511
-0.0225128
0.154752
-0.0209611
0.155878
-0.0195537
0.156907
-0.0183172
0.157876
-0.0170665
0.158821
-0.0157426
0.159754
-0.0140603
0.16068
-0.0123957
0.161578
-0.0103032
0.162453
-0.00875955
0.163291
-0.00638398
0.164117
-0.00524164
0.164914
-0.00223516
0.165717
-0.00156006
0.166481
0.00234203
0.167251
0.00256218
0.167992
0.00734804
0.168734
0.00742185
0.169446
0.0128077
0.170164
0.0131136
0.170849
0.0191862
0.171547
0.019553
0.172208
0.0269924
0.172885
0.0271801
0.173525
0.0361806
0.174177
0.036755
0.174788
0.0472534
0.175412
0.0483866
0.0610251
0.198841
-0.0109098
0.195653
-0.0150323
0.191539
-0.0190024
0.186732
-0.0240846
0.181154
-0.0298111
0.174939
-0.0357554
0.168255
-0.041754
0.161269
-0.0476025
0.154219
-0.0531
0.147365
-0.058017
0.140955
-0.0622427
0.13525
-0.065517
0.130527
-0.0680995
0.126858
-0.0698745
0.124233
-0.0705224
0.122607
-0.0699273
0.12192
-0.0683614
0.122065
-0.0660022
0.122904
-0.0630178
0.124289
-0.0595996
0.126057
-0.0559241
0.128062
-0.0521866
0.130209
-0.0484702
0.132451
-0.0448259
0.134729
-0.0413724
0.13697
-0.0381517
0.139109
-0.0351711
0.141126
-0.0324486
0.143013
-0.0299809
0.144766
-0.0277805
0.146393
-0.0258217
0.147906
-0.024025
0.149307
-0.0223628
0.150597
-0.0208438
0.151791
-0.0195103
0.152916
-0.0181919
0.154014
-0.0168403
0.1551
-0.0151463
0.156184
-0.01348
0.157246
-0.0113649
0.158294
-0.00980758
0.159306
-0.00739675
0.160315
-0.00624966
0.161295
-0.00321548
0.162289
-0.00255427
0.163249
0.00138207
0.164223
0.00158848
0.165172
0.00639886
0.166128
0.00646529
0.167063
0.011873
0.168008
0.0121684
0.168928
0.0182661
0.169867
0.0186143
0.170776
0.0260834
0.171706
0.0262502
0.172607
0.0352796
0.173524
0.0358376
0.17441
0.0463674
0.175311
0.0474857
0.0601644
0.182017
-0.00962053
0.179503
-0.0125182
0.176437
-0.0159364
0.172615
-0.0202631
0.168045
-0.0252406
0.162919
-0.0306291
0.157382
-0.0362177
0.151587
-0.0418072
0.145727
-0.0472401
0.140022
-0.0523119
0.134662
-0.0568825
0.129862
-0.0607176
0.125581
-0.0638182
0.121817
-0.0661107
0.118678
-0.0673829
0.116568
-0.067818
0.115493
-0.0672861
0.115315
-0.0658238
0.115898
-0.0636006
0.117094
-0.0607956
0.118744
-0.0575749
0.120694
-0.0541366
0.122854
-0.0506297
0.125159
-0.0471311
0.1275
-0.0437136
0.129803
-0.0404541
0.132038
-0.0374065
0.134183
-0.0345933
0.13622
-0.0320182
0.138138
-0.0296981
0.139938
-0.0276218
0.14163
-0.0257175
0.14322
-0.0239527
0.144704
-0.0223276
0.146091
-0.0208978
0.147407
-0.0195074
0.14869
-0.0181239
0.14996
-0.0164156
0.15123
-0.0147504
0.152481
-0.012616
0.153725
-0.011051
0.154936
-0.00860831
0.156148
-0.0074619
0.157337
-0.00440362
0.158539
-0.00375638
0.159715
0.000205555
0.160911
0.000392963
0.162088
0.00522162
0.163278
0.00527503
0.164455
0.0106965
0.165646
0.0109769
0.166822
0.0170902
0.168021
0.0174156
0.1692
0.024904
0.170404
0.0250465
0.17159
0.0340934
0.172795
0.0346322
0.173981
0.0451814
0.175184
0.046283
0.0589877
0.208199
-0.00833443
-0.209485
0.207786
-0.0121048
0.207406
-0.015557
0.206637
-0.0194936
0.205352
-0.0239563
0.203551
-0.0288277
0.20126
-0.0339265
0.198504
-0.0390518
0.195317
-0.0440529
0.191766
-0.0487603
0.18793
-0.0530465
0.183962
-0.0567501
0.17991
-0.0597658
0.175859
-0.0620603
0.171957
-0.0634808
0.168222
-0.0640831
0.1648
-0.0638634
0.161777
-0.0628009
0.159192
-0.0610162
0.15707
-0.0586735
0.15541
-0.0559151
0.154176
-0.0529019
0.153316
-0.04977
0.152773
-0.0465883
0.152497
-0.0434369
0.152442
-0.0403992
0.152558
-0.0375225
0.152796
-0.0348312
0.153115
-0.0323374
0.153478
-0.0300613
0.153855
-0.0279993
0.154229
-0.026091
0.154587
-0.0243108
0.154918
-0.0226587
0.155209
-0.0211892
0.155457
-0.0197546
0.155667
-0.0183339
0.155858
-0.0166067
0.156043
-0.0149353
0.156233
-0.0128063
0.156422
-0.0112403
0.156615
-0.00880144
0.156798
-0.0076446
0.156985
-0.00459056
0.15716
-0.00393121
0.157332
3.3082e-05
0.157504
0.000221433
0.157655
0.00507016
0.157819
0.00511131
0.157962
0.0105533
0.158116
0.0108228
0.158256
0.0169508
0.158403
0.017268
0.15854
0.0247669
0.158692
0.0248952
0.158832
0.0339534
0.158991
0.0344732
0.159144
0.0450279
0.159319
0.0461081
0.0588121
0.2176
-0.00750641
-0.218428
0.216762
-0.0112668
0.216157
-0.0149516
0.215331
-0.0186678
0.214087
-0.0227127
0.212359
-0.0270991
0.210143
-0.0317107
0.207474
-0.0363828
0.204388
-0.0409665
0.200945
-0.0453175
0.19721
-0.0493114
0.19329
-0.0528307
0.189281
-0.0557567
0.185265
-0.058044
0.181392
-0.0596075
0.177727
-0.0604181
0.174357
-0.0604936
0.171381
-0.0598254
0.168844
-0.0584789
0.166757
-0.0565864
0.165113
-0.0542711
0.163871
-0.0516596
0.162977
-0.0488761
0.162388
-0.0459998
0.162059
-0.0431081
0.161941
-0.0402809
0.161988
-0.0375692
0.162156
-0.035
0.162411
-0.0325917
0.162717
-0.0303678
0.163048
-0.0283303
0.163386
-0.0264284
0.163718
-0.0246431
0.164033
-0.0229736
0.164316
-0.0214724
0.16456
-0.0199985
0.164769
-0.0185423
0.164958
-0.0167961
0.165141
-0.0151183
0.16533
-0.0129953
0.165521
-0.0114309
0.165716
-0.00899731