/*--------------------------------*- C++ -*----------------------------------*\
| =========                 |                                                 |
| \\      /  F ield         | OpenFOAM: The Open Source CFD Toolbox           |
|  \\    /   O peration     | Version:  2312                                  |
|   \\  /    A nd           | Website:  www.openfoam.com                      |
|    \\/     M anipulation  |                                                 |
\*---------------------------------------------------------------------------*/
FoamFile
{
    version     2.0;
    format      ascii;
    arch        "LSB;label=32;scalar=64";
    class       volVectorField;
    location    "62.5";
    object      U;
}
// * * * * * * * * * * * * * * * * * * * * * * * * * * * * * * * * * * * * * //

dimensions      [0 1 -1 0 0 0 0];

internalField   nonuniform List<vector> 
5478
(
(-0.0243092 0.0128628 -6.9776e-20)
(-0.0464412 0.0142674 0)
(-0.0464007 0.00569801 1.07379e-19)
(-0.00854885 -0.00244099 -1.87961e-19)
(0.0786489 -0.00751735 1.21801e-19)
(0.217048 -0.00656005 -3.78184e-20)
(0.393707 0.00285206 -6.04223e-20)
(0.586411 0.0201228 0)
(0.774701 0.0438495 0)
(0.938023 0.0693627 6.18006e-20)
(1.07508 0.0923373 -3.09836e-20)
(1.17139 0.115798 -4.45888e-20)
(1.23529 0.119577 -1.71777e-20)
(1.26795 0.135316 0)
(1.27455 0.11056 4.59065e-20)
(-0.0321412 0.0190063 1.40025e-19)
(-0.0439322 0.0242781 0)
(-0.00809718 0.0171 0)
(0.0898449 0.0113575 -9.40928e-20)
(0.255871 0.0147115 1.23914e-19)
(0.470374 0.0299169 3.49297e-20)
(0.696349 0.0542158 -5.67484e-20)
(0.900865 0.0823539 5.03131e-20)
(1.06107 0.108785 1.14623e-19)
(1.17221 0.1282 -9.87587e-20)
(1.23286 0.141525 5.3403e-22)
(1.25361 0.142147 0)
(1.24957 0.139542 1.71465e-20)
(1.22862 0.129311 0)
(1.20968 0.114682 0)
(-0.0345119 0.0184356 -2.39813e-22)
(-0.0245248 0.0223554 -6.47733e-20)
(0.065665 0.0189522 1.77064e-22)
(0.247138 0.0255901 0)
(0.496611 0.0493322 -4.10419e-20)
(0.755917 0.0839286 3.45044e-20)
(0.974705 0.118857 2.85474e-20)
(1.12735 0.14605 0)
(1.2133 0.160994 -3.89595e-20)
(1.24395 0.165867 3.14961e-20)
(1.2406 0.159883 2.5399e-20)
(1.22464 0.153675 0)
(1.20942 0.141491 0)
(1.2038 0.138598 -5.00321e-20)
(1.20793 0.12647 4.4699e-20)
(-0.0306322 0.0135767 -7.51835e-20)
(0.0197264 0.0128861 6.41857e-20)
(0.191671 0.0209296 -5.56299e-20)
(0.468284 0.0542013 4.85482e-20)
(0.764695 0.103027 8.1909e-20)
(1.00329 0.1483 -6.83914e-20)
(1.15395 0.178393 -2.85247e-20)
(1.2249 0.190634 2.13636e-20)
(1.24164 0.190334 -2.08354e-20)
(1.2341 0.181769 0)
(1.22367 0.174637 0)
(1.21743 0.165124 -3.6531e-20)
(1.21624 0.160469 4.69488e-20)
(1.21239 0.152642 -2.61291e-20)
(1.20724 0.140898 0)
(-0.0179262 0.00703851 3.79804e-20)
(0.100603 0.00478533 3.20335e-20)
(0.379251 0.0410953 -1.14803e-19)
(0.718066 0.107321 1.23849e-21)
(0.990561 0.168222 -1.42005e-21)
(1.15335 0.205579 -9.81728e-22)
(1.22396 0.21901 2.68208e-20)
(1.24043 0.217571 2.24801e-20)
(1.23658 0.209287 1.55901e-20)
(1.22952 0.201476 -3.01302e-21)
(1.22171 0.192092 -3.4953e-20)
(1.21252 0.18395 0)
(1.19962 0.173988 1.49065e-20)
(1.18756 0.162826 -1.0737e-20)
(1.17716 0.153944 1.9389e-20)
(0.00806193 0.00067162 -8.1099e-20)
(0.227867 0.0105244 8.78784e-20)
(0.602725 0.0901818 -3.02395e-20)
(0.932738 0.174922 2.29672e-20)
(1.13093 0.227215 -4.22892e-20)
(1.21758 0.247226 -3.13587e-20)
(1.24151 0.248081 9.28215e-22)
(1.24031 0.24068 0)
(1.23087 0.231382 3.18368e-20)
(1.21791 0.220074 -2.83117e-20)
(1.20445 0.209391 1.09689e-20)
(1.19233 0.197836 0)
(1.18475 0.188114 6.31047e-21)
(1.1801 0.177781 -1.09843e-20)
(1.1776 0.170092 0)
(0.053177 -0.0023005 -1.00804e-20)
(0.396645 0.0436111 8.81578e-22)
(0.808511 0.159734 1.46854e-20)
(1.07785 0.241164 2.4991e-20)
(1.20187 0.276052 -1.90959e-20)
(1.24002 0.282321 3.19873e-20)
(1.24056 0.275664 -7.28286e-21)
(1.22802 0.264494 0)
(1.21292 0.251327 -1.85471e-20)
(1.2 0.238903 1.51241e-21)
(1.18978 0.226559 1.49579e-20)
(1.18165 0.215426 0)
(1.17285 0.204135 -9.10794e-21)
(1.16344 0.19202 0)
(1.15238 0.184379 5.09914e-21)
(0.120168 0.00486389 -1.12214e-20)
(0.575871 0.10746 0)
(0.963888 0.236552 1.56184e-20)
(1.16237 0.302679 0)
(1.23049 0.320592 0)
(1.2377 0.315515 0)
(1.22464 0.302537 -6.10676e-21)
(1.20879 0.287534 0)
(1.19502 0.272953 3.74802e-21)
(1.18259 0.258442 0)
(1.17086 0.24465 -4.59146e-21)
(1.15983 0.230907 0)
(1.15151 0.217962 2.794e-21)
(1.14622 0.206199 0)
(1.14292 0.19783 1.67151e-21)
(0.00379295 -0.154819 -1.10993e-20)
(-0.0110355 -0.256856 0)
(-0.0464102 -0.271166 1.74117e-20)
(-0.0851695 -0.259276 0)
(-0.123411 -0.242656 0)
(-0.16003 -0.221881 0)
(-0.194125 -0.192591 -1.13779e-20)
(-0.224826 -0.150839 0)
(-0.251215 -0.0936946 9.37685e-21)
(-0.271853 -0.019513 0)
(-0.286079 0.0715881 -1.50509e-20)
(-0.293333 0.176128 0)
(-0.292574 0.288542 1.14514e-20)
(-0.285992 0.401221 0)
(-0.264407 0.508935 8.13021e-21)
(0.0117842 -0.134368 5.39063e-20)
(-0.00334561 -0.216299 -3.74126e-20)
(-0.044947 -0.222567 1.50079e-20)
(-0.0907818 -0.20789 5.84608e-20)
(-0.136177 -0.191184 3.13389e-22)
(-0.180233 -0.172333 -4.74753e-20)
(-0.222077 -0.146943 3.25234e-20)
(-0.260471 -0.111246 0)
(-0.293545 -0.0624304 2.47738e-20)
(-0.319343 0.000961378 -2.84098e-22)
(-0.336693 0.0779868 -1.17423e-20)
(-0.343995 0.166035 0)
(-0.33938 0.261095 -2.84673e-20)
(-0.319951 0.356603 0)
(-0.282517 0.443436 -3.50751e-20)
(0.0171248 -0.108536 8.00593e-20)
(0.00357555 -0.171151 1.74763e-20)
(-0.0382858 -0.171491 -3.2347e-20)
(-0.0837077 -0.154739 -8.35341e-20)
(-0.127132 -0.137844 4.85129e-20)
(-0.167466 -0.120778 4.26715e-20)
(-0.203757 -0.0993572 -7.35931e-20)
(-0.234773 -0.070431 0)
(-0.258935 -0.0318267 -5.61895e-20)
(-0.274133 0.0171428 4.99612e-20)
(-0.278458 0.0761282 1.87677e-20)
(-0.269837 0.144707 0)
(-0.243082 0.213424 1.70115e-20)
(-0.207222 0.289514 -2.10867e-20)
(-0.126621 0.351807 0)
(0.019227 -0.0824938 3.6849e-20)
(0.00753733 -0.128199 -1.01561e-19)
(-0.0311869 -0.124802 1.17529e-19)
(-0.0714673 -0.107215 -1.01881e-19)
(-0.106952 -0.090677 -4.37999e-20)
(-0.136229 -0.0758669 3.79772e-20)
(-0.158496 -0.0591752 3.57736e-20)
(-0.172699 -0.037639 2.77269e-20)
(-0.177696 -0.00946217 -7.0775e-20)
(-0.171838 0.0262521 3.02284e-21)
(-0.148435 0.0671279 1.62059e-20)
(-0.1238 0.119131 0)
(-0.0578061 0.16423 1.96112e-20)
(-0.0115314 0.223618 5.56519e-20)
(0.114109 0.256041 -3.08926e-20)
(0.0176379 -0.0588307 -8.62729e-22)
(0.00600179 -0.0910038 6.30539e-20)
(-0.0292835 -0.0870645 -5.5211e-20)
(-0.0631762 -0.0715185 5.02315e-20)
(-0.0888981 -0.0574893 8.5565e-20)
(-0.105054 -0.0466464 -7.38962e-20)
(-0.110897 -0.0359676 -3.05435e-20)
(-0.105339 -0.0223618 -7.88179e-20)
(-0.0870097 -0.00405113 6.85755e-20)
(-0.0610631 0.0183258 0)
(-0.00270068 0.0471286 0)
(0.0318587 0.0850812 4.29312e-20)
(0.155853 0.109756 -9.22367e-20)
(0.183025 0.160449 3.06578e-20)
(0.377405 0.165485 0)
(0.011718 -0.0376492 -2.0933e-22)
(-0.00302833 -0.0595581 -6.31792e-20)
(-0.0363256 -0.0586381 1.63757e-19)
(-0.0646919 -0.0490078 -4.76251e-20)
(-0.081192 -0.0407368 -4.17938e-20)
(-0.0838155 -0.0356998 3.5944e-20)
(-0.0715164 -0.0315457 3.05599e-20)
(-0.0432067 -0.025737 4.76328e-20)
(0.00413572 -0.0155459 -8.21884e-20)
(0.0628745 -0.00351782 3.21862e-20)
(0.163198 0.0184615 2.53669e-20)
(0.216298 0.0432925 0)
(0.41119 0.0612584 0)
(0.424159 0.0973889 5.40419e-20)
(0.691109 0.104046 -4.82489e-20)
(0.00122925 -0.0180604 -1.13431e-22)
(-0.018997 -0.0317038 0)
(-0.0498789 -0.0357599 0)
(-0.0704617 -0.034255 9.21964e-20)
(-0.072906 -0.0333255 -4.1112e-20)
(-0.0527842 -0.0342255 3.44563e-20)
(-0.00696576 -0.0350631 5.62975e-20)
(0.0652296 -0.0331978 -4.99208e-20)
(0.163692 -0.0264716 3.99314e-20)
(0.277898 -0.0137189 -3.22156e-20)
(0.420163 0.0043353 4.69704e-23)
(0.535165 0.0277759 0)
(0.730544 0.0516155 1.68616e-20)
(0.796953 0.0742477 0)
(1.0401 0.0947363 0)
(-0.0121079 -0.00035887 -6.83414e-20)
(-0.036341 -0.0061923 0)
(-0.0580961 -0.014105 -1.0628e-19)
(-0.0590712 -0.0193079 1.85949e-19)
(-0.0289475 -0.0237924 -2.0128e-19)
(0.038735 -0.0273961 -3.17962e-20)
(0.144889 -0.0274191 5.97935e-20)
(0.282121 -0.0211609 0)
(0.440913 -0.00907689 0)
(0.604852 0.0132946 -6.10144e-20)
(0.763652 0.0325296 -2.0419e-20)
(0.9159 0.0649147 4.38808e-20)
(1.04563 0.0810503 -1.68866e-20)
(1.14648 0.105311 0)
(1.2604 0.114117 -5.09456e-20)
(-0.249216 0.610521 0)
(-0.199138 0.695827 4.89042e-21)
(-0.150538 0.732996 -4.6649e-21)
(-0.055481 0.696528 0)
(0.0726739 0.558136 -1.39052e-22)
(0.231206 0.313668 0)
(0.389081 -0.0137794 2.95089e-22)
(0.548481 -0.355523 0)
(0.660526 -0.606924 -1.8024e-22)
(0.683167 -0.701167 1.55311e-21)
(0.710148 -0.665334 -1.48212e-21)
(0.697781 -0.658489 -6.67692e-23)
(0.591406 -0.695659 0)
(0.522022 -0.567247 1.77824e-22)
(0.5733 -0.232546 2.10105e-22)
(0.680494 0.139919 0)
(0.747415 0.412427 0)
(0.808652 0.498853 0)
(0.85248 0.452573 -6.09214e-23)
(0.773873 0.456109 0)
(0.625283 0.494192 0)
(0.582784 0.382745 -8.41794e-23)
(0.689532 0.114074 2.12667e-22)
(0.819673 -0.110526 1.01759e-22)
(0.843593 -0.285478 0)
(0.798417 -0.435523 0)
(0.774532 -0.486327 0)
(0.811699 -0.320781 0)
(0.846738 0.00529851 -1.1442e-22)
(0.859758 0.353949 -1.12773e-22)
(0.842762 0.486713 7.90786e-23)
(0.798944 0.326594 3.1709e-23)
(0.729216 0.00955164 -4.75355e-23)
(0.712899 -0.314157 0)
(0.689305 -0.318916 -8.2142e-24)
(0.722409 -0.265481 7.86885e-24)
(0.743861 0.042319 -4.02819e-25)
(0.750572 0.176549 3.85215e-25)
(-0.246763 0.536085 9.06895e-22)
(-0.155116 0.60636 1.77735e-20)
(-0.0559422 0.628283 0)
(0.0934546 0.567788 2.68336e-22)
(0.266741 0.422495 -1.53423e-22)
(0.435602 0.194632 0)
(0.58751 -0.12722 -2.97246e-22)
(0.721873 -0.457234 1.45092e-20)
(0.804192 -0.66189 -1.4181e-20)
(0.786645 -0.717204 2.5071e-22)
(0.752091 -0.663024 0)
(0.716936 -0.614552 6.72237e-23)
(0.6007 -0.630199 0)
(0.483407 -0.548991 -3.11316e-22)
(0.487474 -0.276377 -2.1146e-22)
(0.575468 0.0785862 -2.93021e-22)
(0.667849 0.363043 3.22267e-21)
(0.782478 0.462347 -3.07653e-21)
(0.835353 0.452036 -1.87547e-21)
(0.731226 0.502915 1.9704e-21)
(0.588872 0.537094 1.53984e-22)
(0.574206 0.371998 -1.34683e-21)
(0.692988 0.067688 1.4668e-21)
(0.830193 -0.141142 1.01982e-21)
(0.863333 -0.283513 -1.62004e-21)
(0.819633 -0.425945 7.49004e-22)
(0.799602 -0.490847 1.37372e-22)
(0.821903 -0.333344 0)
(0.841274 -0.00430966 3.08874e-22)
(0.850714 0.351429 1.13099e-22)
(0.833712 0.494168 -7.92798e-23)
(0.790118 0.342179 -3.85595e-22)
(0.728754 0.022278 4.26986e-22)
(0.719665 -0.310347 -4.39677e-23)
(0.702087 -0.321905 -3.01058e-23)
(0.741515 -0.27069 -5.6955e-23)
(0.749549 0.0400674 1.09854e-23)
(0.750001 0.176233 -9.61753e-26)
(-0.0718264 0.428923 2.92249e-20)
(0.0260368 0.484314 -2.81248e-20)
(0.145725 0.490701 0)
(0.30851 0.417953 3.74258e-20)
(0.480682 0.289898 -3.51565e-20)
(0.632488 0.110354 6.29827e-22)
(0.783467 -0.175096 0)
(0.897986 -0.490535 5.54517e-22)
(0.933512 -0.668909 0)
(0.880949 -0.69546 -5.0877e-22)
(0.802627 -0.642417 -9.30406e-21)
(0.752584 -0.573026 8.87625e-21)
(0.641117 -0.557678 6.87604e-21)
(0.481328 -0.512657 -1.45095e-20)
(0.425843 -0.310874 7.4729e-21)
(0.493646 0.00505704 2.9712e-22)
(0.617789 0.27773 0)
(0.766004 0.411541 -2.03864e-21)
(0.8229 0.479046 1.63332e-21)
(0.726112 0.569027 -1.22504e-22)
(0.605316 0.577336 2.06127e-22)
(0.603879 0.363859 3.13378e-21)
(0.717075 0.0270855 -2.91293e-21)
(0.853454 -0.168787 -1.97219e-21)
(0.891592 -0.275087 2.15145e-21)
(0.841141 -0.411013 0)
(0.820704 -0.494935 -1.38531e-22)
(0.837089 -0.34518 -1.66152e-22)
(0.842626 -0.0101695 5.65159e-22)
(0.845821 0.350243 -3.52018e-22)
(0.827631 0.499223 -7.15238e-22)
(0.785739 0.356415 1.01711e-22)
(0.733893 0.0345745 5.93974e-22)
(0.729395 -0.307057 -2.17386e-22)
(0.715475 -0.326605 -1.51059e-22)
(0.760937 -0.275923 1.22211e-22)
(0.756122 0.0392632 1.13794e-23)
(0.750171 0.176555 -2.96598e-24)
(0.169086 0.312366 1.64256e-22)
(0.263762 0.357758 2.73399e-20)
(0.377275 0.360719 -5.78675e-20)
(0.528674 0.288775 2.98708e-20)
(0.675267 0.178442 5.43227e-22)
(0.796414 0.0339155 -6.46469e-22)
(0.945944 -0.210581 0)
(1.06061 -0.490098 0)
(1.06502 -0.641421 0)
(0.988802 -0.644967 -1.3484e-20)
(0.87119 -0.601473 1.27875e-20)
(0.798169 -0.536792 2.07007e-22)
(0.710036 -0.488162 -3.05376e-22)
(0.53686 -0.455283 1.82797e-22)
(0.417958 -0.335721 3.6471e-22)
(0.450608 -0.0821068 0)
(0.590614 0.187748 3.11972e-21)
(0.754309 0.358784 -2.86849e-21)
(0.817919 0.467823 2.167e-22)
(0.721185 0.600875 0)
(0.622479 0.620738 -3.6869e-22)
(0.647355 0.373836 0)
(0.752985 0.00221238 -4.01939e-22)
(0.882762 -0.197645 3.79967e-22)
(0.930013 -0.269189 -2.31817e-22)
(0.872346 -0.392673 0)
(0.84075 -0.497421 0)
(0.855099 -0.36058 7.97892e-22)
(0.852399 -0.0246589 -1.13065e-21)
(0.846173 0.34402 -9.74178e-23)
(0.823819 0.508971 7.00462e-22)
(0.785485 0.374775 9.54513e-22)
(0.744541 0.0486123 -1.93204e-21)
(0.742708 -0.30281 5.81538e-22)
(0.729578 -0.332004 2.99401e-22)
(0.78003 -0.280976 0)
(0.76306 0.0397911 -2.6551e-23)
(0.750964 0.177484 0)
(0.41436 0.21103 -1.70593e-22)
(0.488977 0.24876 0)
(0.585627 0.249974 4.37904e-22)
(0.717054 0.188855 -5.05289e-22)
(0.836011 0.107515 -1.0657e-21)
(0.944762 -0.017421 5.43334e-22)
(1.09823 -0.241409 3.56659e-20)
(1.20273 -0.472907 -6.38821e-20)
(1.16517 -0.591674 2.76339e-20)
(1.0703 -0.580682 0)
(0.950292 -0.541213 6.45145e-22)
(0.846326 -0.501378 -2.13889e-22)
(0.781323 -0.436582 -3.33892e-21)
(0.63642 -0.385604 3.38748e-21)
(0.479597 -0.325242 -1.41978e-22)
(0.456887 -0.162934 1.93006e-21)
(0.588 0.0700339 -4.69499e-22)
(0.761438 0.280393 -3.56925e-21)
(0.82604 0.474813 2.07069e-21)
(0.746072 0.649028 -5.93188e-21)
(0.692754 0.641664 -3.30666e-21)
(0.724232 0.375949 -1.54817e-21)
(0.805048 -0.0180985 8.99636e-21)
(0.915182 -0.226327 -1.45346e-21)
(0.970391 -0.26263 0)
(0.910075 -0.36706 0)
(0.860444 -0.495525 0)
(0.871195 -0.376709 0)
(0.864889 -0.034667 -7.24533e-22)
(0.84899 0.34287 5.57803e-22)
(0.823916 0.513972 1.2825e-21)
(0.79024 0.387732 -8.53203e-22)
(0.760077 0.061502 1.63544e-21)
(0.759485 -0.297897 -9.85021e-22)
(0.744651 -0.337888 -2.13528e-22)
(0.798341 -0.285792 -3.03623e-23)
(0.769914 0.0415822 3.98464e-24)
(0.752335 0.178971 0)
(0.705474 0.134395 0)
(0.740756 0.160329 4.76924e-20)
(0.808193 0.163891 -4.52407e-20)
(0.911172 0.112078 -6.16641e-20)
(1.00518 0.0468278 5.92501e-20)
(1.1162 -0.0601235 -8.18123e-23)
(1.25232 -0.249906 5.74106e-22)
(1.31538 -0.420862 0)
(1.24132 -0.509824 -3.89001e-20)
(1.11623 -0.513464 3.74005e-20)
(1.01685 -0.477978 -3.29396e-22)
(0.901297 -0.461338 1.0281e-20)
(0.83501 -0.405468 -1.57241e-20)
(0.742823 -0.324733 1.34469e-21)
(0.589092 -0.288316 3.8503e-21)
(0.516887 -0.217333 6.32918e-23)
(0.613591 -0.0420163 4.63319e-23)
(0.770456 0.189687 0)
(0.835487 0.421459 0)
(0.780974 0.633439 3.69157e-23)
(0.737613 0.682305 1.62196e-23)
(0.779864 0.429307 -6.31214e-22)
(0.862519 0.00567833 6.31903e-22)
(0.954295 -0.242292 3.59167e-22)
(1.00933 -0.257837 -3.89397e-21)
(0.951353 -0.336871 3.70398e-21)
(0.883082 -0.487589 2.97205e-22)
(0.884261 -0.395214 0)
(0.879918 -0.0571139 -1.01045e-22)
(0.855714 0.329857 0)
(0.825903 0.52284 -1.36756e-21)
(0.797781 0.40795 1.21555e-21)
(0.779488 0.078097 0)
(0.779561 -0.291072 2.6327e-22)
(0.761129 -0.343764 -6.33167e-22)
(0.815685 -0.290274 1.23964e-22)
(0.776328 0.0442953 0)
(0.754228 0.18085 1.84833e-23)
(1.04386 0.106107 -8.71401e-23)
(1.04925 0.109701 0)
(1.08192 0.106909 -5.1838e-20)
(1.14948 0.06526 4.93132e-20)
(1.20745 0.000776419 6.06213e-20)
(1.29469 -0.0935383 -5.81939e-20)
(1.38086 -0.241785 0)
(1.3713 -0.361185 -4.9643e-20)
(1.27925 -0.417529 4.72247e-20)
(1.14585 -0.443391 0)
(1.05688 -0.423725 1.64925e-22)
(0.962814 -0.412115 3.24417e-22)
(0.870681 -0.392986 -6.37722e-23)
(0.822725 -0.292139 -3.02479e-21)
(0.710465 -0.231296 2.84953e-21)
(0.60389 -0.229712 4.01421e-22)
(0.645124 -0.143353 -3.77984e-22)
(0.780201 0.0967456 -8.75332e-22)
(0.852344 0.39625 8.31912e-22)
(0.811038 0.649685 3.23495e-22)
(0.802552 0.683683 9.19773e-21)
(0.867802 0.428917 -1.87978e-20)
(0.932316 0.00448097 1.03989e-20)
(0.99592 -0.264248 -5.66377e-21)
(1.04279 -0.258854 2.01028e-21)
(0.987991 -0.304929 3.86591e-21)
(0.908977 -0.473326 1.57416e-21)
(0.894713 -0.416651 -1.85943e-21)
(0.89228 -0.0735035 1.03384e-22)
(0.86259 0.327168 -1.15494e-22)
(0.831489 0.525491 -1.24136e-21)
(0.810113 0.416209 -1.00237e-21)
(0.802115 0.0907415 9.30161e-22)
(0.802037 -0.283739 2.9312e-22)
(0.779172 -0.349791 0)
(0.832079 -0.294824 3.61625e-23)
(0.781804 0.0481748 -4.40226e-23)
(0.756547 0.183159 2.33018e-23)
(1.2636 0.106536 4.79686e-20)
(1.26718 0.100573 0)
(1.28074 0.0900319 4.77933e-20)
(1.30968 0.0600541 -9.54257e-20)
(1.33984 0.0122485 4.73463e-20)
(1.38227 -0.0603846 0)
(1.40603 -0.161089 0)
(1.35442 -0.255177 0)
(1.27925 -0.31535 0)
(1.18393 -0.367239 0)
(1.09352 -0.385563 -1.76268e-22)
(1.02725 -0.370919 -1.26459e-20)
(0.916508 -0.381915 1.19639e-20)
(0.865719 -0.308709 2.94632e-23)
(0.813101 -0.201336 0)
(0.700934 -0.204446 0)
(0.685038 -0.209505 -1.19573e-23)
(0.787464 -0.0327825 0)
(0.85764 0.283141 -3.66869e-21)
(0.841463 0.586532 3.38227e-21)
(0.849858 0.707679 -8.19193e-21)
(0.899627 0.527937 -2.71629e-21)
(0.981494 0.081469 9.43483e-21)
(1.04413 -0.250814 0)
(1.0791 -0.259024 -4.57704e-21)
(1.02028 -0.275609 7.07336e-21)
(0.935455 -0.446175 -2.86236e-21)
(0.906553 -0.430486 7.81127e-23)
(0.902806 -0.110611 0)
(0.870207 0.302928 1.18276e-22)
(0.839481 0.530186 2.04201e-22)
(0.822327 0.439477 1.81272e-21)
(0.826925 0.112248 -1.02512e-21)
(0.827166 -0.271539 -2.96214e-22)
(0.798488 -0.352785 0)
(0.847455 -0.297919 8.64003e-24)
(0.786487 0.0523221 0)
(0.759368 0.185534 -2.10297e-23)
(1.26502 0.0985643 0)
(1.28305 0.0872567 0)
(1.30246 0.0717571 0)
(1.32264 0.0464859 0)
(1.34141 0.00663257 0)
(1.34819 -0.0512143 0)
(1.3469 -0.114935 0)
(1.3065 -0.182472 0)
(1.25434 -0.234194 0)
(1.20119 -0.2737 0)
(1.11591 -0.3074 0)
(1.06822 -0.292987 0)
(0.977783 -0.308265 0)
(0.890607 -0.294568 0)
(0.88562 -0.17525 0)
(0.794635 -0.152493 0)
(0.712572 -0.221593 0)
(0.775149 -0.0968982 0)
(0.851116 0.230281 0)
(0.864342 0.550648 0)
(0.886571 0.665378 0)
(0.966711 0.494413 0)
(1.05485 0.0859758 0)
(1.08428 -0.238059 0)
(1.10948 -0.241152 0)
(1.05081 -0.232646 0)
(0.961307 -0.413764 0)
(0.919928 -0.429959 0)
(0.909599 -0.12206 0)
(0.878355 0.29721 0)
(0.847955 0.528118 0)
(0.838224 0.437264 0)
(0.856232 0.120338 0)
(0.854716 -0.258592 0)
(0.817787 -0.351173 0)
(0.860776 -0.296186 0)
(0.790117 0.0584501 0)
(0.762655 0.18801 0)
(1.24379 0.0949749 0)
(1.2636 0.0776113 0)
(1.28121 0.0603865 0)
(1.29061 0.0307454 0)
(1.30276 -0.00789614 0)
(1.30438 -0.0537779 0)
(1.29551 -0.112799 0)
(1.27311 -0.169016 0)
(1.22737 -0.223921 0)
(1.17815 -0.265543 0)
(1.10254 -0.292052 0)
(1.03555 -0.284426 0)
(0.970217 -0.28272 0)
(0.875558 -0.267395 0)
(0.866996 -0.156253 0)
(0.838836 -0.11983 0)
(0.760403 -0.204909 0)
(0.784339 -0.0996373 0)
(0.848285 0.223683 0)
(0.873802 0.530939 0)
(0.922279 0.633514 0)
(1.03822 0.471648 0)
(1.12887 0.0575253 0)
(1.13786 -0.261915 0)
(1.13678 -0.243767 0)
(1.06245 -0.221359 0)
(0.971819 -0.404148 0)
(0.936458 -0.420696 0)
(0.920296 -0.10791 0)
(0.88515 0.30435 0)
(0.857081 0.529162 0)
(0.857857 0.435921 0)
(0.890733 0.115284 0)
(0.886308 -0.260128 0)
(0.83829 -0.354186 0)
(0.874153 -0.293153 0)
(0.793091 0.0676154 0)
(0.766471 0.191032 0)
(1.22629 0.0849404 0)
(1.24318 0.0656026 0)
(1.25721 0.0452152 0)
(1.26529 0.0197939 0)
(1.26924 -0.0129853 0)
(1.2689 -0.0496857 0)
(1.25844 -0.0955154 0)
(1.23936 -0.139483 0)
(1.2043 -0.179403 0)
(1.1618 -0.205855 0)
(1.10267 -0.227868 0)
(1.04581 -0.221396 0)
(1.00603 -0.217685 0)
(0.92526 -0.228383 0)
(0.887496 -0.144166 0)
(0.88276 -0.0924202 0)
(0.811471 -0.193801 0)
(0.800269 -0.133369 0)
(0.873763 0.192985 0)
(0.906592 0.508004 0)
(0.963252 0.601013 0)
(1.10462 0.436638 0)
(1.19449 0.0532097 0)
(1.17544 -0.255248 0)
(1.16159 -0.225355 0)
(1.08881 -0.18106 0)
(0.991981 -0.374284 0)
(0.951466 -0.416733 0)
(0.934352 -0.105649 0)
(0.89409 0.312444 0)
(0.868542 0.531852 0)
(0.882661 0.430997 0)
(0.930293 0.116203 0)
(0.921921 -0.249225 0)
(0.861448 -0.351888 0)
(0.887181 -0.28827 0)
(0.795119 0.0786715 0)
(0.77111 0.194262 0)
(1.20903 0.0763369 0)
(1.22477 0.0568687 0)
(1.23564 0.0382574 0)
(1.2406 0.0141911 0)
(1.23992 -0.015503 0)
(1.23728 -0.0444642 0)
(1.22622 -0.0844563 0)
(1.21043 -0.116459 0)
(1.17969 -0.153355 0)
(1.14275 -0.181613 0)
(1.09674 -0.200249 0)
(1.04201 -0.207424 0)
(1.00348 -0.203831 0)
(0.941691 -0.203894 0)
(0.898353 -0.134555 0)
(0.903922 -0.0782719 0)
(0.862628 -0.16859 0)
(0.814158 -0.138536 0)
(0.85962 0.175562 0)
(0.88259 0.491035 0)
(0.955662 0.554073 0)
(1.14182 0.388358 0)
(1.24677 0.037571 0)
(1.21069 -0.254463 0)
(1.17696 -0.213552 0)
(1.09791 -0.156724 0)
(1.00251 -0.356303 0)
(0.966328 -0.40711 0)
(0.949333 -0.0955418 0)
(0.905587 0.321223 0)
(0.884187 0.533339 0)
(0.910866 0.423456 0)
(0.973585 0.111147 0)
(0.962124 -0.243978 0)
(0.887291 -0.349332 0)
(0.899558 -0.280659 0)
(0.795749 0.0917669 0)
(0.776934 0.19737 0)
(1.19134 0.0686337 0)
(1.20567 0.0508714 0)
(1.21274 0.0322674 0)
(1.21684 0.0111772 0)
(1.21299 -0.0150673 0)
(1.20969 -0.0383121 0)
(1.19867 -0.0709266 0)
(1.18244 -0.096985 0)
(1.16069 -0.126077 0)
(1.12839 -0.148053 0)
(1.09349 -0.160289 0)
(1.04935 -0.16525 0)
(1.01573 -0.156193 0)
(0.963056 -0.159174 0)
(0.919755 -0.114379 0)
(0.921689 -0.0634558 0)
(0.890902 -0.142518 0)
(0.816822 -0.124137 0)
(0.797506 0.180606 0)
(0.809372 0.466762 0)
(0.945861 0.470518 0)
(1.18374 0.313657 0)
(1.28601 0.0276041 0)
(1.22505 -0.23608 0)
(1.1851 -0.19002 0)
(1.1178 -0.11647 0)
(1.01778 -0.326397 0)
(0.978891 -0.40157 0)
(0.964748 -0.0853208 0)
(0.913546 0.334418 0)
(0.898988 0.532213 0)
(0.940576 0.409581 0)
(1.01954 0.106536 0)
(1.00584 -0.229922 0)
(0.91556 -0.33982 0)
(0.91002 -0.268807 0)
(0.795118 0.106445 0)
(0.785005 0.199906 0)
(1.17325 0.0610404 0)
(1.186 0.0450993 0)
(1.19136 0.0282604 0)
(1.19422 0.0101598 0)
(1.18987 -0.0122326 0)
(1.18459 -0.0312086 0)
(1.17555 -0.0580808 0)
(1.15978 -0.0779688 0)
(1.14424 -0.100739 0)
(1.11588 -0.119971 0)
(1.08846 -0.128787 0)
(1.05023 -0.139402 0)
(1.01909 -0.133047 0)
(0.980531 -0.131786 0)
(0.938376 -0.104261 0)
(0.940049 -0.0539171 0)
(0.913228 -0.107215 0)
(0.825205 -0.0861791 0)
(0.775457 0.189281 0)
(0.819234 0.407089 0)
(1.00549 0.349677 0)
(1.22887 0.230249 0)
(1.30376 0.0227549 0)
(1.22592 -0.211931 0)
(1.17525 -0.169171 0)
(1.12363 -0.0879063 0)
(1.03073 -0.299756 0)
(0.982807 -0.392727 0)
(0.980654 -0.0769398 0)
(0.932145 0.340724 0)
(0.922858 0.525126 0)
(0.972289 0.391257 0)
(1.06571 0.0978467 0)
(1.05206 -0.216768 0)
(0.945917 -0.327053 0)
(0.918578 -0.252266 0)
(0.790216 0.123459 0)
(0.794804 0.201508 0)
(1.15685 0.0544921 0)
(1.16757 0.0408829 0)
(1.17218 0.0262524 0)
(1.17334 0.0105822 0)
(1.16957 -0.00797548 0)
(1.16304 -0.0240251 0)
(1.15606 -0.0450935 0)
(1.14127 -0.0613137 0)
(1.12922 -0.0791372 0)
(1.10574 -0.0953044 0)
(1.08274 -0.102153 0)
(1.05515 -0.110806 0)
(1.02459 -0.105142 0)
(0.998581 -0.0981689 0)
(0.959431 -0.0858199 0)
(0.953551 -0.0417152 0)
(0.937369 -0.0647814 0)
(0.851416 -0.0464534 0)
(0.819434 0.17411 0)
(0.915274 0.322198 0)
(1.08124 0.235481 0)
(1.23688 0.160005 0)
(1.28829 0.0281334 0)
(1.20737 -0.178328 0)
(1.15621 -0.145131 0)
(1.1311 -0.0544409 0)
(1.05071 -0.265994 0)
(0.983707 -0.383565 0)
(0.98583 -0.0687529 0)
(0.942011 0.349258 0)
(0.938225 0.515387 0)
(1.00152 0.364266 0)
(1.10897 0.0853936 0)
(1.09826 -0.196485 0)
(0.977503 -0.304043 0)
(0.92346 -0.229341 0)
(0.783956 0.141183 0)
(0.809613 0.200773 0)
(1.14223 0.0493247 0)
(1.15061 0.0376702 0)
(1.15476 0.0253033 0)
(1.15482 0.0118608 0)
(1.15166 -0.00316446 0)
(1.1453 -0.0165024 0)
(1.13903 -0.0331753 0)
(1.12694 -0.0459968 0)
(1.11618 -0.0603301 0)
(1.09867 -0.0722951 0)
(1.07885 -0.078282 0)
(1.05907 -0.0841993 0)
(1.03135 -0.0817856 0)
(1.01138 -0.0730344 0)
(0.982706 -0.0666392 0)
(0.966511 -0.032458 0)
(0.963105 -0.029713 0)
(0.899796 -0.0138274 0)
(0.885942 0.137696 0)
(0.99809 0.236621 0)
(1.11297 0.155143 0)
(1.20231 0.111504 0)
(1.25212 0.0348222 0)
(1.18414 -0.140672 0)
(1.12684 -0.127238 0)
(1.12911 -0.0372025 0)
(1.06619 -0.228793 0)
(0.972174 -0.365623 0)
(0.971345 -0.0587527 0)
(0.936245 0.359688 0)
(0.962855 0.502426 0)
(1.0496 0.333196 0)
(1.15162 0.0690036 0)
(1.13853 -0.176815 0)
(1.01195 -0.272835 0)
(0.920177 -0.198691 0)
(0.775059 0.158479 0)
(0.830518 0.1967 0)
(1.12907 0.0449366 0)
(1.13579 0.0352477 0)
(1.1393 0.024963 0)
(1.13917 0.013882 0)
(1.13618 0.00174961 0)
(1.13095 -0.00901159 0)
(1.12486 -0.0222237 0)
(1.11576 -0.0321433 0)
(1.10611 -0.0436547 0)
(1.09305 -0.0522097 0)
(1.07718 -0.0578078 0)
(1.06122 -0.0617129 0)
(1.04028 -0.0605641 0)
(1.02258 -0.0525644 0)
(1.0046 -0.0465461 0)
(0.985239 -0.0224388 0)
(0.985559 -0.00754771 0)
(0.951913 0.00762956 0)
(0.944662 0.0970925 0)
(1.03556 0.164763 0)
(1.11267 0.10585 0)
(1.15739 0.0760067 0)
(1.20726 0.0324295 0)
(1.16487 -0.105686 0)
(1.10029 -0.110039 0)
(1.11719 -0.0287166 0)
(1.08411 -0.186083 0)
(0.955734 -0.331424 0)
(0.934118 -0.054754 0)
(0.934761 0.349927 0)
(1.01552 0.473359 0)
(1.11421 0.300227 0)
(1.19014 0.0578524 0)
(1.1629 -0.15159 0)
(1.04577 -0.229561 0)
(0.915887 -0.154797 0)
(0.755853 0.17542 0)
(0.856196 0.186904 0)
(1.11788 0.0413607 0)
(1.12342 0.0335517 0)
(1.1262 0.0250557 0)
(1.12618 0.0161756 0)
(1.12346 0.00638839 0)
(1.11928 -0.00219619 0)
(1.11377 -0.012544 0)
(1.10683 -0.020248 0)
(1.09901 -0.0292882 0)
(1.08878 -0.0354873 0)
(1.07713 -0.0403289 0)
(1.06387 -0.0427679 0)
(1.0494 -0.0419658 0)
(1.03436 -0.0357694 0)
(1.02243 -0.0299553 0)
(1.00726 -0.0130009 0)
(1.00568 0.00246612 0)
(0.993684 0.0178792 0)
(0.990842 0.0663425 0)
(1.04947 0.109509 0)
(1.10414 0.0731417 0)
(1.12577 0.0502752 0)
(1.1669 0.0235029 0)
(1.14595 -0.0739353 0)
(1.08265 -0.0903421 0)
(1.09522 -0.0322114 0)
(1.08975 -0.146797 0)
(0.945562 -0.273473 0)
(0.874296 -0.0442769 0)
(0.900067 0.316403 0)
(1.03474 0.421482 0)
(1.15119 0.265778 0)
(1.21635 0.0540283 0)
(1.17055 -0.126126 0)
(1.06836 -0.182754 0)
(0.923765 -0.0998441 0)
(0.757651 0.1852 0)
(0.904035 0.166668 0)
(1.10884 0.038635 0)
(1.11337 0.0324428 0)
(1.11567 0.0255195 0)
(1.11571 0.0185028 0)
(1.11344 0.0107252 0)
(1.11011 0.00391775 0)
(1.10562 -0.00398973 0)
(1.10027 -0.00994944 0)
(1.0943 -0.0169012 0)
(1.08642 -0.0214298 0)
(1.07815 -0.0254977 0)
(1.06777 -0.0268571 0)
(1.05758 -0.0266515 0)
(1.0463 -0.021903 0)
(1.03756 -0.0170859 0)
(1.02794 -0.00500321 0)
(1.02549 0.00696147 0)
(1.02309 0.0207363 0)
(1.02449 0.0454501 0)
(1.05793 0.0706184 0)
(1.09551 0.0502653 0)
(1.10727 0.0331956 0)
(1.13481 0.0136633 0)
(1.12657 -0.0502916 0)
(1.07689 -0.0685925 0)
(1.07625 -0.0357198 0)
(1.08072 -0.109151 0)
(0.947505 -0.199173 0)
(0.838108 -0.0206343 0)
(0.86253 0.261496 0)
(1.02817 0.343022 0)
(1.15728 0.217472 0)
(1.22672 0.0518926 0)
(1.17187 -0.093784 0)
(1.08107 -0.132905 0)
(0.951386 -0.0432518 0)
(0.829838 0.185402 0)
(0.988112 0.140812 0)
(1.10209 0.03623 0)
(1.10583 0.031354 0)
(1.10779 0.0257906 0)
(1.10791 0.0202765 0)
(1.10624 0.0141661 0)
(1.10369 0.00884691 0)
(1.10028 0.00275541 0)
(1.09617 -0.00183016 0)
(1.09171 -0.00725794 0)
(1.08593 -0.0105293 0)
(1.08011 -0.0140421 0)
(1.07255 -0.0147994 0)
(1.06551 -0.0152065 0)
(1.05764 -0.0117047 0)
(1.05139 -0.00838449 0)
(1.04557 5.10604e-05 0)
(1.04347 0.00808714 0)
(1.04403 0.0185296 0)
(1.04752 0.0306397 0)
(1.06576 0.0443978 0)
(1.08989 0.0329278 0)
(1.09747 0.0209307 0)
(1.11384 0.00620171 0)
(1.10889 -0.0339718 0)
(1.07586 -0.0480597 0)
(1.06533 -0.0348223 0)
(1.06803 -0.0758836 0)
(0.964771 -0.125124 0)
(0.864622 0.00995958 0)
(0.885281 0.197532 0)
(1.04591 0.254513 0)
(1.15655 0.166005 0)
(1.21913 0.048758 0)
(1.16651 -0.0607899 0)
(1.08542 -0.0875974 0)
(0.98423 -0.00398493 0)
(0.942741 0.171073 0)
(1.07807 0.114642 0)
(1.09756 0.0347275 0)
(1.10063 0.0309403 0)
(1.10238 0.0265319 0)
(1.10262 0.0223049 0)
(1.10154 0.0175308 0)
(1.09963 0.0134901 0)
(1.09716 0.00876065 0)
(1.09414 0.0053686 0)
(1.09105 0.00115554 0)
(1.08698 -0.00108563 0)
(1.08306 -0.00405513 0)
(1.07781 -0.00441445 0)
(1.07311 -0.00524719 0)
(1.0678 -0.00278368 0)
(1.06373 -0.000962057 0)
(1.06031 0.0046227 0)
(1.05904 0.00922843 0)
(1.06001 0.0164309 0)
(1.06365 0.0219064 0)
(1.07298 0.0290105 0)
(1.0874 0.0225876 0)
(1.09167 0.0142719 0)
(1.10152 0.0040741 0)
(1.09688 -0.0207966 0)
(1.07697 -0.0293128 0)
(1.06324 -0.0269019 0)
(1.06179 -0.0432408 0)
(0.988509 -0.0657696 0)
(0.92745 0.0316208 0)
(0.949073 0.143815 0)
(1.07373 0.18297 0)
(1.14834 0.12525 0)
(1.19687 0.0476465 0)
(1.15726 -0.026898 0)
(1.09231 -0.0464647 0)
(1.02143 0.015712 0)
(1.03312 0.145488 0)
(1.13438 0.0933637 0)
(1.09555 0.031974 0)
(1.09816 0.0290439 0)
(1.09983 0.0255346 0)
(1.10022 0.0222869 0)
(1.09968 0.0184742 0)
(1.09838 0.0153747 0)
(1.09682 0.0115816 0)
(1.09476 0.00900515 0)
(1.09281 0.00553935 0)
(1.09004 0.00382532 0)
(1.08755 0.00115522 0)
(1.08402 0.000795046 0)
(1.08105 -0.000433608 0)
(1.0775 0.00112579 0)
(1.07491 0.0016949 0)
(1.07268 0.00523724 0)
(1.07218 0.00731262 0)
(1.07274 0.0118387 0)
(1.07588 0.0137729 0)
(1.08039 0.0170424 0)
(1.08916 0.0133476 0)
(1.09098 0.00746235 0)
(1.09629 0.00147192 0)
(1.09115 -0.0142897 0)
(1.08053 -0.0173653 0)
(1.06652 -0.020155 0)
(1.06418 -0.0209222 0)
(1.01584 -0.0295494 0)
(0.987652 0.0377856 0)
(1.00471 0.0997455 0)
(1.09 0.12857 0)
(1.13642 0.0943556 0)
(1.17248 0.0434669 0)
(1.14776 -0.00347032 0)
(1.10323 -0.018266 0)
(1.05841 0.0216406 0)
(1.08299 0.116211 0)
(1.15624 0.074804 0)
(1.09554 0.0320566 0)
(1.09771 0.0298582 0)
(1.09923 0.0271061 0)
(1.09969 0.024699 0)
(1.09953 0.0217046 0)
(1.09868 0.0194397 0)
(1.09779 0.0164404 0)
(1.0964 0.0145759 0)
(1.0953 0.0117622 0)
(1.09355 0.0105352 0)
(1.09221 0.00821893 0)
(1.09004 0.00795222 0)
(1.08847 0.00653292 0)
(1.08627 0.00753312 0)
(1.08503 0.00721996 0)
(1.08354 0.00950118 0)
(1.0836 0.0100534 0)
(1.0835 0.0127768 0)
(1.08588 0.0131887 0)
(1.08738 0.0144001 0)
(1.09252 0.0125102 0)
(1.09241 0.00785058 0)
(1.09602 0.00546315 0)
(1.09104 -0.00504582 0)
(1.08642 -0.00368833 0)
(1.07396 -0.00891969 0)