/*--------------------------------*- C++ -*----------------------------------*\
| =========                 |                                                 |
| \\      /  F ield         | OpenFOAM: The Open Source CFD Toolbox           |
|  \\    /   O peration     | Version:  2312                                  |
|   \\  /    A nd           | Website:  www.openfoam.com                      |
|    \\/     M anipulation  |                                                 |
\*---------------------------------------------------------------------------*/
FoamFile
{
    version     2.0;
    format      ascii;
    arch        "LSB;label=32;scalar=64";
    class       volVectorField;
    location    "37";
    object      U;
}
// * * * * * * * * * * * * * * * * * * * * * * * * * * * * * * * * * * * * * //

dimensions      [0 1 -1 0 0 0 0];

internalField   nonuniform List<vector> 
32230
(
(-0.00683448 0.00571868 4.1823e-20)
(-0.0194413 0.0156277 -8.43789e-20)
(-0.030342 0.023801 0)
(-0.0383041 0.0308242 -1.15066e-19)
(-0.0426247 0.0369958 3.66663e-20)
(-0.0428605 0.0424443 -3.47964e-20)
(-0.0386902 0.0472427 6.58186e-20)
(-0.0298639 0.0514467 -4.56354e-22)
(-0.0161678 0.0551249 2.93347e-20)
(0.00260328 0.058379 -1.13213e-19)
(0.0266666 0.0613519 -5.36665e-20)
(0.0562592 0.0642246 0)
(0.0916275 0.0672004 9.67847e-20)
(0.133018 0.0704988 -1.84884e-19)
(0.180621 0.0743394 1.32399e-19)
(0.234515 0.0789001 -1.68886e-19)
(0.29462 0.0843147 -4.07112e-20)
(0.360632 0.090653 7.75839e-20)
(0.43199 0.0979061 7.51641e-20)
(0.507849 0.10598 -7.19226e-20)
(0.58709 0.114698 0)
(0.668354 0.123801 -6.79016e-20)
(0.750101 0.132971 3.24951e-20)
(0.830683 0.141842 0)
(0.908439 0.150029 0)
(0.981781 0.157152 -2.93959e-20)
(1.04929 0.162859 -1.15694e-19)
(1.10979 0.166869 1.10784e-19)
(1.16245 0.168931 5.28461e-20)
(1.20676 0.168997 5.08727e-20)
(1.24267 0.166826 0)
(1.27043 0.162964 0)
(1.29082 0.156307 9.22984e-20)
(1.3045 0.149856 -1.3144e-19)
(1.31311 0.137223 8.43955e-20)
(1.31632 0.132158 -1.61187e-19)
(1.318 0.106898 7.71993e-20)
(-0.0083207 0.00641778 8.80133e-23)
(-0.0222066 0.0161664 4.21868e-20)
(-0.0332263 0.0230948 -4.0135e-20)
(-0.040348 0.0282829 1.43025e-22)
(-0.0429787 0.0323628 7.32422e-20)
(-0.0407119 0.0357073 1.39033e-19)
(-0.0331917 0.0385788 -1.65366e-19)
(-0.0200787 0.0411802 6.3002e-20)
(-0.00103376 0.043695 9.18328e-23)
(0.0242887 0.0463125 5.64781e-20)
(0.0562322 0.0492373 -1.666e-22)
(0.0951136 0.0526869 5.11041e-20)
(0.141178 0.0568777 -1.45437e-19)
(0.194538 0.0620129 4.65892e-20)
(0.255116 0.0682478 1.7656e-19)
(0.322565 0.075673 0)
(0.396223 0.0842961 4.04072e-20)
(0.475094 0.0940278 0)
(0.557853 0.104677 0)
(0.642895 0.115955 0)
(0.728415 0.127494 -3.50223e-20)
(0.812503 0.138865 1.33668e-19)
(0.893268 0.149615 -1.28663e-19)
(0.968948 0.159294 -5.43118e-22)
(1.03802 0.167493 2.10515e-19)
(1.0993 0.173872 -1.14987e-19)
(1.152 0.178183 -1.12282e-19)
(1.19578 0.1803 2.15586e-19)
(1.23075 0.180177 -2.0723e-19)
(1.25742 0.177949 9.77281e-20)
(1.27667 0.173696 -9.55052e-20)
(1.2896 0.167813 -4.47317e-20)
(1.29747 0.160274 0)
(1.30136 0.151869 1.26264e-19)
(1.30266 0.141724 -1.59017e-19)
(1.30141 0.133102 1.12648e-19)
(1.30066 0.119812 -3.49429e-20)
(-0.00994582 0.00714637 -8.4067e-20)
(-0.0250101 0.0169206 0)
(-0.035656 0.0229668 -1.21193e-19)
(-0.0411337 0.0267828 1.15743e-19)
(-0.0409836 0.0293019 1.46718e-19)
(-0.0348325 0.031129 -6.98513e-20)
(-0.0222825 0.0327085 -1.63493e-22)
(-0.00290587 0.034388 3.11698e-20)
(0.0237414 0.0364642 -2.89102e-22)
(0.0580875 0.0392094 -5.69477e-20)
(0.100495 0.0428801 5.50843e-23)
(0.15119 0.0477109 5.13134e-20)
(0.210186 0.053897 -4.90553e-20)
(0.277193 0.0615712 4.63111e-20)
(0.351556 0.0707764 -1.76993e-19)
(0.432208 0.0814467 0)
(0.517676 0.0933956 1.21378e-19)
(0.606133 0.106316 -7.74059e-20)
(0.695493 0.119795 -3.73713e-20)
(0.783544 0.13334 3.56544e-20)
(0.868094 0.146415 -2.37312e-22)
(0.947126 0.158488 0)
(1.01894 0.169067 4.33412e-22)
(1.08224 0.177748 6.13865e-20)
(1.13626 0.184239 -1.17656e-19)
(1.18073 0.188385 7.10589e-22)
(1.21592 0.190163 0)
(1.24254 0.189691 0)
(1.26164 0.187155 5.09004e-20)
(1.27451 0.182903 -4.88096e-20)
(1.2825 0.177088 -9.1314e-20)
(1.2869 0.170391 1.32172e-19)
(1.28878 0.162303 0)
(1.28893 0.15471 3.86682e-20)
(1.28814 0.144701 3.81677e-20)
(1.28613 0.138568 -2.67535e-21)
(1.28506 0.126106 -6.6254e-20)
(-0.0115443 0.00775995 4.21261e-20)
(-0.0274574 0.0175773 4.28037e-20)
(-0.037053 0.0230211 0)
(-0.0399091 0.0258993 -7.73895e-20)
(-0.0357084 0.0273978 3.71757e-20)
(-0.0241108 0.0283274 2.32915e-22)
(-0.00468627 0.0292993 3.32479e-20)
(0.0230477 0.0307949 3.1567e-20)
(0.0595656 0.0332113 6.00979e-20)
(0.105251 0.0368855 -5.72629e-20)
(0.160297 0.0420991 -5.43766e-20)
(0.224593 0.0490641 0)
(0.297626 0.0578993 -3.26258e-22)
(0.378401 0.0686034 4.67289e-20)
(0.465414 0.0810339 4.4281e-20)
(0.556693 0.0948982 8.46854e-20)
(0.649899 0.109762 -1.21443e-19)
(0.742482 0.125077 -3.87348e-20)
(0.831876 0.140224 -3.71226e-20)
(0.915699 0.154567 3.56258e-20)
(0.991935 0.167509 -3.42118e-20)
(1.05908 0.178548 -3.2488e-20)
(1.11624 0.187315 3.1573e-20)
(1.16313 0.193603 6.01203e-20)
(1.2001 0.19737 -2.84457e-20)
(1.22799 0.198725 1.10948e-19)
(1.24802 0.197899 -1.31545e-19)
(1.26161 0.195203 -1.00747e-19)
(1.27024 0.190982 4.76477e-20)
(1.27525 0.185578 1.3726e-19)
(1.27779 0.179276 0)
(1.27869 0.172394 4.08827e-20)
(1.27851 0.164906 0)
(1.27756 0.157585 -3.86438e-20)
(1.27614 0.149014 3.66859e-20)
(1.27389 0.143115 -6.78339e-20)
(1.27261 0.132176 -6.23869e-20)
(-0.0129453 0.00814034 4.26325e-20)
(-0.0291461 0.0178589 -8.57445e-20)
(-0.0368481 0.022873 8.18543e-20)
(-0.0359662 0.0251824 -7.8244e-20)
(-0.0263242 0.0261635 0)
(-0.00762346 0.0268029 -3.52097e-20)
(0.0205604 0.0278578 0)
(0.0586868 0.0299227 3.2024e-20)
(0.107128 0.0334722 -6.055e-20)
(0.166025 0.0388772 2.88554e-20)
(0.235141 0.0463985 5.43412e-20)
(0.313727 0.0561635 0)
(0.400435 0.0681377 9.85111e-20)
(0.493304 0.0821037 -4.66953e-20)
(0.589837 0.0976566 0)
(0.687169 0.114225 4.25897e-20)
(0.782299 0.131117 0)
(0.872355 0.147583 1.1606e-19)
(0.954843 0.162891 -1.10911e-19)
(1.02785 0.176402 3.52029e-20)
(1.0902 0.187623 0)
(1.14144 0.196254 1.28989e-19)
(1.18187 0.20219 -6.17173e-20)
(1.21241 0.205515 -8.79748e-20)
(1.23438 0.20646 8.41085e-20)
(1.24938 0.205358 2.71948e-20)
(1.259 0.202582 2.59813e-20)
(1.26472 0.198506 7.33352e-20)
(1.26778 0.193449 -2.33275e-19)
(1.2691 0.187702 1.31901e-19)
(1.2693 0.181409 -4.19414e-20)
(1.26877 0.174849 -1.21195e-19)
(1.2677 0.167826 0)
(1.26616 0.161103 3.52376e-20)
(1.26433 0.153294 0)
(1.26193 0.147787 3.30542e-20)
(1.26039 0.138091 6.11694e-20)
(-0.0139971 0.00821178 4.30832e-20)
(-0.0297052 0.0175635 -8.67606e-20)
(-0.0345207 0.0222179 -1.90964e-22)
(-0.0286688 0.02425 7.86364e-20)
(-0.0121155 0.0251692 -3.74768e-20)
(0.0153723 0.0261076 0)
(0.0541434 0.0279396 0)
(0.104504 0.0313446 -3.2008e-20)
(0.166525 0.0368378 3.03836e-20)
(0.239839 0.044771 2.63581e-22)
(0.323462 0.0553105 5.48021e-20)
(0.415686 0.068407 -5.24018e-20)
(0.51407 0.0837734 -9.88548e-20)
(0.615565 0.100888 -9.40029e-20)
(0.716762 0.119031 1.79312e-19)
(0.814205 0.137356 -1.2808e-19)
(0.904747 0.154978 -4.0587e-20)
(0.985841 0.171078 0)
(1.05576 0.184987 1.47022e-19)
(1.11369 0.196249 -1.40365e-19)
(1.15973 0.204646 0)
(1.19471 0.210194 3.14246e-20)
(1.22004 0.213101 -3.18395e-22)
(1.23746 0.213706 -5.72416e-20)
(1.24875 0.212415 -2.7781e-20)
(1.25557 0.209639 0)
(1.25932 0.205747 0)
(1.26107 0.20104 2.40122e-20)
(1.26155 0.195747 -1.11557e-19)
(1.26125 0.190032 8.56895e-20)
(1.26043 0.183995 1.6164e-19)
(1.25923 0.177761 -7.72045e-20)
(1.25772 0.171246 0)
(1.25592 0.16492 -3.5223e-20)
(1.25393 0.157793 0)
(1.25152 0.152566 3.01476e-20)
(1.24988 0.143706 -2.98273e-20)
(-0.0145832 0.00794877 -4.36634e-20)
(-0.0288164 0.0165994 0)
(-0.0296025 0.0208897 -5.21113e-22)
(-0.0174411 0.0228809 4.00844e-20)
(0.00755806 0.0241737 -2.50336e-22)
(0.0455095 0.026008 -4.49072e-22)
(0.0965714 0.0293416 -1.36723e-19)
(0.160704 0.0348957 3.25056e-20)
(0.237404 0.0431641 0)
(0.32546 0.0543911 5.85216e-20)
(0.422801 0.0685375 -4.21032e-22)
(0.52649 0.0852568 -2.64097e-20)
(0.632895 0.103907 -4.97671e-20)
(0.738022 0.123609 2.38487e-20)
(0.837943 0.143347 4.51787e-20)
(0.929233 0.162096 0)
(1.00932 0.178951 4.05681e-20)
(1.07671 0.193226 0)
(1.13099 0.204514 -2.44436e-22)
(1.17276 0.212697 3.48887e-20)
(1.20338 0.217913 -6.57034e-20)
(1.22468 0.220485 6.28871e-20)
(1.23866 0.220844 0)
(1.24722 0.219446 6.01674e-22)
(1.25201 0.216718 0)
(1.25431 0.213016 0)
(1.25507 0.208613 0)
(1.25487 0.203706 0)
(1.25411 0.198427 -6.43446e-20)
(1.25298 0.192872 8.27815e-20)
(1.25159 0.187091 3.78241e-20)
(1.24999 0.18117 -7.43069e-20)
(1.24819 0.175047 0)
(1.2462 0.16906 0)
(1.24406 0.162477 0)
(1.24162 0.157412 -8.86933e-20)
(1.23985 0.149296 5.60532e-20)
(-0.0146157 0.00736863 3.81874e-22)
(-0.0262097 0.0149808 -4.44503e-20)
(-0.0216632 0.0188884 4.23136e-20)
(-0.00173169 0.0210812 7.57613e-22)
(0.0333083 0.0232098 1.3e-22)
(0.0833605 0.0265873 7.30293e-20)
(0.148213 0.032207 0)
(0.227207 0.0407606 6.56019e-20)
(0.318913 0.0526171 0)
(0.420908 0.067781 -2.93634e-20)
(0.529749 0.0858641 0)
(0.641181 0.106104 -2.64193e-20)
(0.750573 0.127449 0)
(0.853471 0.148698 2.37619e-20)
(0.946144 0.168672 0)
(1.02598 0.186375 4.27379e-20)
(1.0917 0.201106 -4.04133e-20)
(1.1433 0.212517 -3.82099e-20)
(1.18186 0.220591 -3.64301e-20)
(1.20919 0.225584 -6.83576e-20)
(1.22746 0.227926 6.54223e-20)
(1.23888 0.228122 -3.05419e-20)
(1.24542 0.226669 5.80298e-20)
(1.24869 0.224002 -1.09904e-19)
(1.24988 0.220462 7.8458e-20)
(1.24983 0.216303 0)
(1.24905 0.211698 2.31275e-20)
(1.24787 0.206762 0)
(1.24644 0.201574 0)
(1.24485 0.196185 0)
(1.24312 0.190635 7.47373e-20)
(1.24127 0.184971 -7.15935e-20)
(1.23928 0.179169 0)
(1.23716 0.173449 0)
(1.23494 0.167297 2.9338e-20)
(1.23251 0.162347 5.60608e-20)
(1.23064 0.154849 -2.75917e-20)
(-0.0140199 0.00652212 -9.01281e-20)
(-0.0216289 0.0128227 -3.14218e-22)
(-0.0102842 0.0163848 8.63053e-20)
(0.019003 0.0190887 -1.2238e-19)
(0.0657207 0.022598 -1.63843e-22)
(0.129404 0.0282515 -3.71228e-20)
(0.209206 0.037003 -3.52131e-20)
(0.303485 0.0493993 -2.86675e-22)
(0.409493 0.0655324 -1.25822e-19)
(0.523281 0.0849996 1.49239e-19)
(0.639939 0.106925 -5.67573e-20)
(0.754127 0.130072 0)
(0.860778 0.153032 -7.56943e-20)
(0.955772 0.174448 9.56934e-20)
(1.0364 0.193213 -6.81085e-20)
(1.10155 0.208607 -4.27295e-20)
(1.15158 0.220329 4.04064e-20)
(1.18799 0.228466 7.61344e-20)
(1.21301 0.233383 0)
(1.22911 0.235611 3.37246e-20)
(1.23864 0.235722 3.1808e-20)
(1.24366 0.234251 5.32651e-22)
(1.24574 0.231641 -5.68323e-20)
(1.24603 0.228229 2.80341e-20)
(1.2453 0.224255 2.55624e-20)
(1.244 0.219879 7.17474e-20)
(1.24242 0.215204 -6.90293e-20)
(1.24067 0.210299 2.15733e-20)
(1.23884 0.205208 -4.09807e-20)
(1.23693 0.199966 0)
(1.23495 0.194598 -5.42293e-20)
(1.23289 0.189138 6.90281e-20)
(1.23074 0.183581 -1.58566e-20)
(1.22851 0.178066 0)
(1.22622 0.172257 -2.93354e-20)
(1.22379 0.167374 0)
(1.22184 0.160398 -7.66608e-20)
(-0.0127207 0.00547515 4.55126e-20)
(-0.0148145 0.0103093 -2.69253e-22)
(0.00495848 0.0136851 4.96159e-22)
(0.0452877 0.0173344 0)
(0.105294 0.0228887 7.83867e-20)
(0.183897 0.0316403 -4.13614e-22)
(0.279251 0.044383 -5.14093e-22)
(0.388318 0.0613515 1.00298e-19)
(0.506674 0.0821706 -6.39659e-20)
(0.628731 0.10587 -2.9977e-20)
(0.748357 0.131018 -2.86478e-20)
(0.859745 0.155967 8.05912e-20)
(0.958251 0.179145 -7.63725e-20)
(1.04095 0.199302 4.8327e-20)
(1.10679 0.215667 4.52096e-20)
(1.15645 0.227977 0)
(1.19179 0.236405 0)
(1.2154 0.241426 -5.67296e-20)
(1.23003 0.243665 7.05892e-20)
(1.23822 0.243765 -1.01279e-19)
(1.24209 0.242303 -9.44443e-20)
(1.24324 0.23974 8.99603e-20)
(1.24277 0.236419 2.77369e-20)
(1.24143 0.232573 0)
(1.23965 0.228358 -2.46051e-20)
(1.23766 0.223868 4.60073e-20)
(1.23559 0.219166 -6.77447e-22)
(1.23348 0.214292 -2.08996e-20)
(1.23135 0.209274 0)
(1.2292 0.204136 0)
(1.22702 0.1989 5.1671e-20)
(1.2248 0.193589 -5.03703e-20)
(1.22254 0.188214 1.5857e-20)
(1.22023 0.182856 0)
(1.21791 0.177315 0)
(1.21551 0.172462 0)
(1.21349 0.165942 0)
(-0.0106249 0.00430018 -4.67684e-20)
(-0.00549207 0.00767071 3.17247e-22)
(0.0244772 0.011187 8.91471e-20)
(0.0775705 0.0163761 -4.24475e-20)
(0.152325 0.0247656 -8.03814e-20)
(0.246696 0.0374852 3.81548e-20)
(0.357409 0.0549954 -3.64065e-20)
(0.479629 0.0770093 6.86005e-20)
(0.607095 0.102497 0)
(0.732805 0.129834 0)
(0.85005 0.1571 2.86466e-20)
(0.953465 0.182447 2.68172e-20)
(1.03972 0.204428 -8.21953e-22)
(1.1077 0.222175 -2.44404e-20)
(1.15826 0.23543 4.47233e-20)
(1.19361 0.244437 -2.16713e-20)
(1.21667 0.249774 1.96451e-20)
(1.23047 0.252164 -3.74557e-20)
(1.23777 0.252333 5.29518e-20)
(1.24079 0.250909 8.18631e-20)
(1.24117 0.248386 -7.80509e-20)
(1.24006 0.245121 0)
(1.23816 0.241353 -2.77409e-20)
(1.2359 0.237237 -2.56918e-20)
(1.23351 0.232865 7.36388e-20)
(1.23109 0.228295 -3.83701e-22)
(1.22868 0.223564 -7.37306e-22)
(1.2263 0.218698 -6.08424e-20)
(1.22394 0.213719 3.78348e-20)
(1.22159 0.208646 -3.62376e-20)
(1.21925 0.203497 0)
(1.2169 0.198291 -4.77507e-20)
(1.21455 0.193045 1.553e-20)
(1.21219 0.187803 -5.58226e-20)
(1.20984 0.182466 5.34859e-20)
(1.20746 0.177616 0)
(1.20539 0.171486 -1.14505e-20)
(-0.00761938 0.00307489 0)
(0.00661965 0.0051669 0)
(0.0486338 0.00934077 2.3011e-20)
(0.116139 0.0168278 -2.17966e-20)
(0.206774 0.0289358 8.11267e-20)
(0.317102 0.0464607 -5.83931e-20)
(0.441978 0.0693074 1.83586e-20)
(0.574533 0.0964517 3.48712e-20)
(0.706836 0.126092 3.13114e-23)
(0.8311 0.156 0)
(0.94098 0.183986 0)
(1.03248 0.208317 2.73705e-20)
(1.10422 0.227956 0)
(1.1571 0.2426 -7.16301e-20)
(1.19359 0.252539 2.29678e-20)
(1.21696 0.258447 -4.21888e-20)
(1.23055 0.261156 1.9848e-20)
(1.23735 0.261486 1.80385e-20)
(1.23977 0.260137 -5.25436e-20)
(1.23954 0.257652 1.58167e-20)
(1.23785 0.254414 1.47737e-20)
(1.23543 0.250679 -1.47528e-20)
(1.2327 0.246605 5.32175e-20)
(1.22989 0.242287 -7.64727e-20)
(1.2271 0.237783 1.16874e-20)
(1.22437 0.233129 2.25643e-20)
(1.2217 0.228349 -6.20256e-20)
(1.2191 0.223462 5.9635e-20)
(1.21655 0.218486 -1.81593e-20)
(1.21404 0.213438 0)
(1.21157 0.208335 -1.60168e-20)
(1.20912 0.203192 0)
(1.20671 0.198028 5.73524e-20)
(1.20433 0.192865 -2.73399e-20)
(1.20197 0.187675 1.2454e-20)
(1.19963 0.182803 0)
(1.1975 0.177012 1.14541e-20)
(-0.00357903 0.00188532 2.45017e-20)
(0.0217827 0.00308192 -4.95751e-20)
(0.077686 0.00862129 2.33163e-20)
(0.161032 0.0193023 -9.22712e-22)
(0.268167 0.0360401 -4.19183e-20)
(0.39379 0.0590691 1.95334e-20)
(0.530562 0.087495 -3.72979e-20)
(0.66964 0.119394 0)
(0.80199 0.152211 -3.29374e-20)
(0.919985 0.183327 -1.56823e-20)
(1.01862 0.210613 0)
(1.09596 0.232758 -2.73771e-20)
(1.15275 0.249334 0)
(1.19165 0.26064 7.1451e-20)
(1.21625 0.267434 -4.54123e-20)
(1.23025 0.270667 2.10344e-20)
(1.23697 0.271275 3.87164e-20)
(1.23903 0.270053 -8.5752e-22)
(1.23832 0.267611 -1.76523e-20)
(1.23611 0.264378 0)
(1.23318 0.260633 -1.48277e-20)
(1.22997 0.256549 -1.4169e-20)
(1.22673 0.252227 0)
(1.22354 0.247728 0)
(1.22046 0.243087 -1.16916e-20)
(1.21749 0.238329 -3.21701e-20)
(1.21461 0.233473 6.16121e-20)
(1.21183 0.228534 0)
(1.20912 0.223528 3.57187e-20)
(1.20648 0.21847 0)
(1.20391 0.213375 1.60225e-20)
(1.2014 0.208259 0)
(1.19894 0.203137 1.32929e-20)
(1.19655 0.198024 -3.90067e-20)
(1.19421 0.192928 -1.24584e-20)
(1.19188 0.188018 0)
(1.18972 0.182517 0)
(0.00161931 0.000830504 2.5641e-20)
(0.0402035 0.00172378 2.48947e-20)
(0.11173 0.00951097 0)
(0.211978 0.0243701 2.23028e-20)
(0.335545 0.0465893 -2.08284e-20)
(0.474861 0.0755745 4.05414e-20)
(0.620309 0.109417 -1.89131e-20)
(0.761516 0.145253 5.35267e-20)
(0.889256 0.179957 -6.18412e-22)
(0.997091 0.210858 -1.61712e-20)
(1.08211 0.236227 1.47961e-20)
(1.14467 0.255398 0)
(1.18746 0.26861 2.53758e-20)
(1.21436 0.276686 -5.99537e-20)
(1.22951 0.280704 2.26183e-20)
(1.23658 0.281742 4.10516e-20)
(1.23853 0.280718 -2.00209e-20)
(1.23746 0.278338 3.56814e-20)
(1.23478 0.275092 -6.78364e-20)
(1.23135 0.2713 -3.10768e-20)
(1.22767 0.267157 8.81329e-20)
(1.22396 0.262776 -1.42219e-20)
(1.22036 0.258222 0)
(1.2169 0.253534 0)
(1.21359 0.248737 2.21954e-20)
(1.21042 0.24385 -1.11376e-20)
(1.20737 0.238888 -1.02206e-20)
(1.20444 0.233866 -9.05248e-21)
(1.2016 0.228797 -1.75612e-20)
(1.19886 0.223695 -2.40548e-20)
(1.19622 0.218575 2.32112e-20)
(1.19366 0.213451 0)
(1.19119 0.208337 -6.5161e-21)
(1.1888 0.203243 5.31476e-22)
(1.18648 0.198192 0)
(1.18418 0.193235 0)
(1.18199 0.187976 1.00229e-20)
(0.00808045 2.67547e-05 -1.28374e-20)
(0.0619956 0.00142441 2.57624e-20)
(0.150652 0.0124852 -2.46235e-20)
(0.268348 0.0325268 0)
(0.407492 0.0609235 -2.15955e-20)
(0.558005 0.0959837 2.04521e-20)
(0.708255 0.134663 1.89048e-20)
(0.847153 0.17328 -1.86981e-20)
(0.966341 0.208469 0)
(1.06142 0.237879 0)
(1.13195 0.260445 -1.48029e-20)
(1.1804 0.276238 0)
(1.21093 0.286103 0)
(1.2281 0.291249 -2.38485e-20)
(1.23607 0.292921 -1.10327e-20)
(1.23821 0.292199 3.05453e-20)
(1.23692 0.289913 -4.82012e-20)
(1.23383 0.286645 0)
(1.22992 0.282772 4.12134e-20)
(1.22573 0.278521 -8.35117e-22)
(1.22155 0.274024 -4.3695e-20)
(1.2175 0.269357 2.61521e-20)
(1.21363 0.264561 -6.39912e-22)
(1.20995 0.259664 -3.51599e-20)
(1.20645 0.254686 -2.15437e-20)
(1.20312 0.249642 4.97473e-22)
(1.19993 0.244545 1.89533e-20)
(1.19688 0.239409 -8.53717e-21)
(1.19395 0.234247 3.937e-22)
(1.19114 0.229072 -1.52075e-20)
(1.18844 0.223896 5.0995e-20)
(1.18587 0.218734 -6.35e-22)
(1.1834 0.213595 -1.93149e-20)
(1.18103 0.208494 -1.14132e-20)
(1.17872 0.203446 2.2638e-20)
(1.17646 0.198435 0)
(1.17426 0.193369 -1.0031e-20)
(0.0158751 -0.00039339 2.65973e-20)
(0.0871483 0.00253078 0)
(0.1941 0.0179921 0)
(0.329173 0.0441635 0)
(0.482234 0.079191 0)
(0.640741 0.12007 0)
(0.791684 0.162646 0)
(0.924303 0.202712 0)
(1.03207 0.237055 0)
(1.11316 0.263968 -1.61195e-20)
(1.1695 0.283191 -1.49336e-20)
(1.20532 0.295507 0)
(1.22565 0.30224 0)
(1.23524 0.304829 1.19004e-20)
(1.23797 0.304556 3.26814e-20)
(1.23667 0.302423 -4.08928e-20)
(1.23325 0.299134 2.87057e-20)
(1.22886 0.295148 0)
(1.22415 0.29074 8.21454e-21)
(1.21946 0.286071 0)
(1.21493 0.281228 1.38666e-20)
(1.21063 0.276262 -3.29751e-20)
(1.20655 0.271204 -1.80334e-20)
(1.20269 0.266073 3.45235e-20)
(1.19904 0.260885 1.56768e-20)
(1.19557 0.255655 -2.48359e-20)
(1.19227 0.250395 -9.36312e-21)
(1.18912 0.245117 0)
(1.18613 0.239833 1.58408e-20)
(1.18327 0.234555 -6.99164e-23)
(1.18056 0.229296 -1.41739e-20)
(1.17798 0.224067 0)
(1.17554 0.218877 0)
(1.17319 0.213739 0)
(1.17092 0.208656 -5.21629e-21)
(1.16868 0.203591 1.47485e-20)
(1.16649 0.198661 -9.45615e-21)
(0.0250252 -0.000285438 0)
(0.115499 0.00539042 0)
(0.241464 0.0264299 0)
(0.393163 0.0595445 -1.21193e-20)
(0.557768 0.10135 1.91884e-22)
(0.720661 0.147428 -1.04593e-20)
(0.868393 0.192716 5.05151e-20)
(0.991594 0.232877 -9.97459e-21)
(1.08627 0.265239 -2.64996e-20)
(1.15324 0.288953 1.61303e-20)
(1.19653 0.30459 1.49439e-20)
(1.22157 0.313536 0)
(1.23376 0.317444 1.25398e-20)
(1.23764 0.317843 -1.19946e-20)
(1.23661 0.31596 0)
(1.23298 0.312669 -2.32684e-22)
(1.22814 0.308544 -1.40736e-20)
(1.2229 0.30393 0)
(1.21766 0.299028 1.57074e-20)
(1.21262 0.293945 -1.50323e-20)
(1.20784 0.288743 1.35189e-20)
(1.20333 0.283456 6.07334e-21)
(1.19908 0.278107 -2.38498e-20)
(1.19508 0.272713 0)
(1.19131 0.267288 5.20503e-21)
(1.18773 0.261845 4.84949e-21)
(1.18435 0.256394 0)
(1.18115 0.250947 -8.16063e-21)
(1.17811 0.245515 7.81553e-21)
(1.17523 0.240109 7.34208e-21)
(1.17252 0.234741 0)
(1.16997 0.22942 1.23592e-20)
(1.16755 0.224155 2.54827e-21)
(1.16525 0.218955 -1.10538e-20)
(1.16301 0.213807 -2.35736e-21)
(1.16082 0.208688 -2.31722e-21)
(1.15863 0.203838 1.11628e-20)
(0.0354928 0.000503047 3.66158e-21)
(0.146715 0.0103408 1.41348e-20)
(0.291881 0.0381327 6.51905e-21)
(0.458791 0.0787998 -1.87253e-20)
(0.632038 0.127193 1.18901e-20)
(0.795653 0.177541 -1.08892e-20)
(0.936825 0.224232 5.39911e-21)
(1.04846 0.263243 9.47157e-21)
(1.12941 0.292747 1.31967e-20)
(1.183 0.312846 0)
(1.21482 0.324875 7.34692e-21)
(1.23098 0.330681 -7.02634e-21)
(1.23684 0.332091 0)
(1.23652 0.330622 2.89781e-21)
(1.23286 0.32738 0)
(1.22764 0.323101 0)
(1.22186 0.318233 -4.37037e-21)
(1.21605 0.313032 6.51122e-21)
(1.21045 0.307638 -7.67127e-21)
(1.20515 0.302126 7.34155e-21)
(1.20017 0.296539 0)
(1.1955 0.290903 0)
(1.19112 0.285235 1.42966e-20)
(1.18701 0.27955 -2.79718e-21)
(1.18315 0.27386 -2.42196e-21)
(1.1795 0.268176 0)
(1.17607 0.262508 -4.20768e-21)
(1.17283 0.256867 7.94407e-21)
(1.16977 0.251262 -1.9449e-21)
(1.16691 0.245705 0)
(1.16422 0.240204 0)
(1.1617 0.234769 1.45468e-21)
(1.15934 0.229408 -1.49843e-21)
(1.15709 0.224122 0)
(1.1549 0.218889 -1.3079e-21)
(1.15275 0.213722 -1.22222e-21)
(1.15058 0.208896 -2.16457e-21)
(0.0472066 0.00213483 -3.61189e-21)
(0.180362 0.0177075 0)
(0.344368 0.053355 0)
(0.524503 0.101911 -6.36034e-21)
(0.703207 0.156364 -2.98088e-21)
(0.864123 0.20984 2.84926e-21)
(0.996117 0.256637 -5.18001e-21)
(1.09496 0.293448 0)
(1.16239 0.319484 -4.42307e-21)
(1.20379 0.335789 0)
(1.22586 0.344334 1.82917e-21)
(1.23489 0.347274 -3.42647e-21)
(1.23594 0.346489 3.14239e-21)
(1.23258 0.343401 -2.96003e-21)
(1.22709 0.338974 -1.35081e-21)
(1.2208 0.333804 0)
(1.21439 0.328234 0)
(1.20819 0.322448 2.08646e-21)
(1.20233 0.316545 0)
(1.19684 0.310578 8.61348e-22)
(1.19172 0.304576 -2.85887e-23)
(1.18693 0.298559 -2.58482e-23)
(1.18246 0.292542 -2.84344e-21)
(1.17828 0.286538 -3.26577e-21)
(1.17436 0.280555 2.4244e-21)
(1.17068 0.274605 0)
(1.16722 0.268696 0)
(1.16398 0.262837 0)
(1.16094 0.257037 -1.80602e-21)
(1.15811 0.251305 0)
(1.15547 0.245651 0)
(1.15302 0.240081 -7.57137e-22)
(1.15073 0.234602 -2.02605e-21)
(1.14854 0.229209 -6.05967e-22)
(1.14642 0.223878 -5.97337e-22)
(1.14433 0.218669 -1.09806e-21)
(1.14222 0.213817 0)
(-0.000846766 0.0357948 -2.66121e-21)
(-0.0029425 0.0953727 0)
(-0.00634988 0.14363 0)
(-0.0111111 0.180881 -4.90332e-21)
(-0.0171586 0.20819 2.33691e-21)
(-0.0243193 0.227188 -2.23413e-21)
(-0.0323382 0.23976 -4.28641e-21)
(-0.040937 0.24776 0)
(-0.0498572 0.252804 -3.93245e-21)
(-0.0588836 0.256168 0)
(-0.0678525 0.258763 -1.8089e-21)
(-0.076649 0.26117 1.73002e-21)
(-0.085199 0.263712 -1.67157e-21)
(-0.0934581 0.266527 -3.22839e-21)
(-0.101401 0.269636 1.53901e-21)
(-0.109015 0.272989 0)
(-0.116292 0.276502 0)
(-0.123225 0.280075 2.78565e-21)
(-0.129809 0.283598 0)
(-0.136036 0.286959 -1.30175e-21)
(-0.141899 0.29004 -1.47892e-23)
(-0.14739 0.292723 -1.54533e-23)
(-0.152499 0.294883 -4.77194e-21)
(-0.157217 0.296395 -3.48749e-21)
(-0.161537 0.297127 4.49874e-21)
(-0.165452 0.296949 0)
(-0.168957 0.295725 0)
(-0.172052 0.293323 0)
(-0.174738 0.289608 -4.08156e-21)
(-0.177026 0.284452 0)
(-0.17893 0.277726 0)
(-0.180479 0.269315 -5.73624e-21)
(-0.181712 0.259114 -1.94665e-21)
(-0.182675 0.247034 1.82616e-21)
(-0.183455 0.232972 -5.38427e-21)
(-0.184227 0.216778 -3.57351e-21)
(-0.185067 0.198419 0)
(-0.00213579 0.0359713 7.99794e-21)
(-0.00587211 0.0965599 -1.07611e-20)
(-0.00974703 0.146329 -5.13934e-21)
(-0.0142175 0.185334 2.45535e-20)
(-0.0194743 0.214391 -9.39235e-21)
(-0.0255235 0.234946 8.97995e-21)
(-0.0322506 0.248772 -1.29096e-20)
(-0.0394751 0.257681 8.24013e-21)
(-0.0469967 0.263306 1.18252e-20)
(-0.0546278 0.266969 7.57096e-21)
(-0.0622104 0.269643 -1.45114e-20)
(-0.0696229 0.271968 6.95403e-21)
(-0.0767771 0.27432 0)
(-0.0836126 0.276873 9.69236e-21)
(-0.0900884 0.279672 -6.19571e-21)
(-0.0961762 0.282683 0)
(-0.101855 0.285831 1.74514e-20)
(-0.107106 0.289015 -1.39184e-20)
(-0.111912 0.292127 0)
(-0.116257 0.295055 0)
(-0.120123 0.29768 0)
(-0.123493 0.299883 0)
(-0.12635 0.301542 4.74994e-21)
(-0.128678 0.30253 1.38757e-20)
(-0.130465 0.302722 -4.49426e-21)
(-0.1317 0.301989 0)
(-0.132376 0.300204 8.75399e-21)
(-0.132496 0.297242 -1.69474e-20)
(-0.132064 0.292978 1.22795e-20)
(-0.131096 0.287297 0)
(-0.129616 0.280089 0)
(-0.127659 0.271259 3.83323e-21)
(-0.12527 0.260726 -4.0718e-21)
(-0.122518 0.248429 0)
(-0.119533 0.234325 -3.96433e-21)
(-0.116481 0.218411 -3.91378e-21)
(-0.113164 0.200835 -7.40078e-21)
(-0.00337771 0.0354415 0)
(-0.00875871 0.0960732 0)
(-0.0131566 0.146765 0)
(-0.0173867 0.187232 9.86579e-21)
(-0.0218688 0.217967 -3.76462e-24)
(-0.0267739 0.240156 9.01517e-21)
(-0.032127 0.255392 -2.58853e-20)
(-0.0378511 0.265395 -8.2626e-21)
(-0.0438122 0.271772 7.90763e-21)
(-0.0498578 0.275873 1.51959e-20)
(-0.0558424 0.278721 1.45918e-20)
(-0.0616408 0.28102 0)
(-0.0671533 0.283199 0)
(-0.0723034 0.285479 0)
(-0.0770344 0.287938 0)
(-0.0813031 0.290563 -2.42363e-20)
(-0.085075 0.293288 5.79774e-21)
(-0.088321 0.296022 0)
(-0.0910146 0.298659 -2.19998e-20)
(-0.093131 0.301086 2.10535e-20)
(-0.0946467 0.303189 -2.07372e-20)
(-0.0955394 0.304848 9.73305e-21)
(-0.0957893 0.305944 -1.47167e-22)
(-0.0953793 0.306356 0)
(-0.0942964 0.305962 9.33269e-21)
(-0.0925318 0.30464 9.12759e-21)
(-0.0900819 0.302273 0)
(-0.0869611 0.298762 1.75709e-20)
(-0.083181 0.293968 -1.68273e-20)
(-0.0787597 0.287801 1.69107e-20)
(-0.0737312 0.280172 0)
(-0.0681382 0.271003 -3.28008e-20)
(-0.06203 0.260232 6.94202e-21)
(-0.0554698 0.247821 3.09507e-20)
(-0.0485516 0.233759 5.46631e-20)
(-0.04133 0.218128 -7.12123e-21)
(-0.033636 0.201217 -2.23529e-20)
(-0.0045085 0.0342441 2.29946e-23)
(-0.0114604 0.0939486 0)
(-0.0164123 0.144925 0)
(-0.0204633 0.186488 0)
(-0.0242188 0.21876 0)
(-0.027992 0.242602 0)
(-0.031936 0.259371 0)
(-0.0360779 0.270635 0)
(-0.040357 0.277936 0)
(-0.0446644 0.282621 -1.51856e-20)
(-0.0488745 0.285752 -1.45818e-20)
(-0.0528652 0.288089 2.81716e-20)
(-0.0565285 0.290121 -2.69444e-20)
(-0.0597753 0.292123 1.30371e-20)
(-0.0625341 0.294212 -1.26589e-20)
(-0.0647481 0.296403 4.84746e-20)
(-0.0663714 0.29865 -1.1581e-20)
(-0.0673655 0.300872 0)
(-0.0676971 0.302969 1.10307e-20)
(-0.0673367 0.304835 0)
(-0.0662582 0.306356 -2.09349e-20)
(-0.0644386 0.307421 -1.02908e-20)
(-0.0618595 0.307913 4.95586e-20)
(-0.058507 0.307719 -1.87638e-20)
(-0.0543741 0.306725 -4.73118e-20)
(-0.0494589 0.30482 -9.95024e-21)
(-0.0437406 0.301899 1.74953e-20)
(-0.0372771 0.297854 0)
(-0.0301025 0.292586 -3.51965e-20)
(-0.0222057 0.286013 -6.11915e-22)
(-0.0136436 0.278052 3.31669e-20)
(-0.00446706 0.268639 -3.36016e-20)
(0.00526857 0.257721 3.21891e-20)
(0.0154966 0.245263 0)
(0.0261417 0.231261 -1.56741e-20)
(0.0372606 0.215808 -1.636e-20)
(0.0490724 0.199244 3.05478e-20)
(-0.00546833 0.0324512 -3.25198e-20)
(-0.0138422 0.0903027 -2.17704e-20)
(-0.0193569 0.140892 2.08096e-20)
(-0.0233044 0.183117 0)
(-0.026417 0.216698 -1.89628e-20)
(-0.0291171 0.24214 -1.81086e-20)
(-0.0316687 0.260508 -1.73344e-20)
(-0.0341982 0.27317 4.97017e-20)
(-0.0367218 0.281556 0)
(-0.0391824 0.286978 0)
(-0.0414835 0.290515 -1.46285e-20)
(-0.043514 0.292975 0)
(-0.0451649 0.294907 0)
(-0.0463384 0.296641 -2.60762e-20)
(-0.046952 0.298345 -1.25693e-20)
(-0.0469375 0.300069 -1.23114e-20)
(-0.0462396 0.301794 -1.18823e-20)
(-0.0448128 0.303454 0)
(-0.0426194 0.304964 -3.34307e-20)
(-0.0396282 0.306223 -6.656e-22)
(-0.0358134 0.307128 2.05117e-20)
(-0.0311549 0.307571 -1.02437e-22)
(-0.0256384 0.307445 -4.00763e-20)
(-0.019256 0.306646 1.907e-20)
(-0.0120072 0.305069 0)
(-0.00389952 0.302615 0)
(0.0050551 0.299187 -1.57383e-22)
(0.014828 0.294679 5.4198e-20)
(0.0253766 0.289029 9.42831e-22)
(0.0366663 0.282153 -6.87167e-20)
(0.0486472 0.27398 -5.20813e-20)
(0.0612612 0.26445 -1.95007e-21)
(0.0744468 0.253515 8.20135e-20)
(0.088133 0.241135 9.92912e-20)
(0.102239 0.227297 -6.36504e-20)
(0.116878 0.212089 0)
(0.132738 0.195871 -3.16153e-20)
(-0.00621099 0.0301588 -3.07641e-23)
(-0.0157928 0.0853108 2.1837e-20)
(-0.0218559 0.134832 0)
(-0.0257838 0.177217 1.98692e-20)
(-0.0283698 0.211793 5.68715e-20)
(-0.0301035 0.238691 -3.62472e-20)
(-0.031335 0.258652 5.19664e-20)
(-0.0322792 0.272799 -8.28779e-20)
(-0.0330284 0.282409 -7.86843e-23)
(-0.0335842 0.288718 4.56254e-20)
(-0.0338888 0.292796 1.46212e-20)
(-0.0338523 0.295484 0)
(-0.0333731 0.297385 -2.71665e-20)
(-0.0323522 0.298887 3.91649e-20)
(-0.0307007 0.300212 -2.50604e-20)
(-0.028343 0.301455 0)
(-0.0252169 0.30263 2.35228e-20)
(-0.0212724 0.303698 -4.59183e-20)
(-0.0164697 0.304587 -2.73019e-22)
(-0.010778 0.305214 4.33506e-20)
(-0.00417421 0.305482 -4.19037e-20)
(0.00335708 0.305295 6.076e-20)
(0.0118238 0.304557 0)
(0.0212263 0.30317 0)
(0.0315565 0.301043 -3.85158e-20)
(0.0427979 0.298086 -1.9553e-20)
(0.0549252 0.294214 5.44261e-20)
(0.0679041 0.289346 -1.79353e-20)
(0.0816906 0.283412 -3.53972e-20)
(0.0962348 0.276347 8.80459e-20)
(0.11148 0.268089 -8.48074e-20)
(0.127363 0.258586 0)
(0.14382 0.247789 -1.66373e-20)
(0.160784 0.235656 1.2136e-22)
(0.178173 0.22215 0)
(0.195952 0.207329 0)
(0.216023 0.191558 3.15708e-20)
(-0.00670797 0.0274831 -2.17138e-20)
(-0.0172338 0.0792043 4.93182e-23)
(-0.0238075 0.126992 -6.24195e-20)
(-0.0278019 0.168985 6.35282e-23)
(-0.0300032 0.204153 3.79464e-20)
(-0.0309214 0.232263 1.80878e-20)
(-0.0309608 0.253717 -3.45903e-20)
(-0.0304066 0.269366 0)
(-0.0294225 0.280292 -3.16579e-20)
(-0.028072 0.287619 -1.52106e-20)
(-0.0263447 0.292378 2.92579e-20)
(-0.0241828 0.295417 -1.1226e-19)
(-0.0215027 0.297382 5.38286e-20)
(-0.0182129 0.298715 -2.622e-20)
(-0.0142255 0.299696 4.99973e-20)
(-0.00946262 0.30047 2.42054e-20)
(-0.00385894 0.301091 0)
(0.00263762 0.301552 -4.58178e-20)
(0.0100669 0.301807 6.59379e-20)
(0.0184579 0.301788 0)
(0.0278294 0.301414 -2.08965e-20)
(0.0381911 0.300602 -2.0305e-20)
(0.049544 0.299266 0)
(0.0618805 0.29732 0)
(0.0751842 0.294683 -1.89716e-20)
(0.0894304 0.291276 9.4153e-20)
(0.104586 0.287028 -3.57899e-20)
(0.12061 0.281869 0)
(0.137455 0.275738 7.0664e-20)
(0.155064 0.268579 0)
(0.173381 0.26034 3.42213e-20)
(0.192342 0.250973 0)
(0.211885 0.240434 -1.01009e-19)
(0.231941 0.228681 3.1961e-20)
(0.252539 0.215656 -3.23611e-20)
(0.273028 0.201342 0)
(0.297663 0.186189 0)
(-0.00695 0.0245526 0)
(-0.0181256 0.0722592 0)
(-0.0251514 0.117696 2.081e-20)
(-0.0292943 0.158718 -1.98493e-20)
(-0.031269 0.193994 -1.97572e-23)