/*--------------------------------*- C++ -*----------------------------------*\
| =========                 |                                                 |
| \\      /  F ield         | OpenFOAM: The Open Source CFD Toolbox           |
|  \\    /   O peration     | Version:  2512                                  |
|   \\  /    A nd           | Website:  www.openfoam.com                      |
|    \\/     M anipulation  |                                                 |
\*---------------------------------------------------------------------------*/
FoamFile
{
    version     2.0;
    format      ascii;
    arch        "LSB;label=32;scalar=64";
    class       surfaceScalarField;
    location    "24.5";
    object      phi;
}
// * * * * * * * * * * * * * * * * * * * * * * * * * * * * * * * * * * * * * //

dimensions      [0 3 -1 0 0 0 0];

oriented        oriented;

internalField   nonuniform List<scalar> 
18180
(
-0.000720511
0.00268567
-0.00196516
-0.00151366
0.00523761
-0.00444447
-0.00133325
0.00556899
-0.0057494
0.00081877
0.00355912
-0.00571114
0.00596824
-0.00121854
-0.00393093
0.0149928
-0.00915789
0.000133294
0.0285045
-0.0202236
0.00671191
0.0462546
-0.0337977
0.0160476
0.0672706
-0.0487588
0.0277428
0.0899807
-0.0638391
0.041129
0.112552
-0.0779166
0.0553455
0.133226
-0.0901838
0.0695098
0.150673
-0.10025
0.0828021
0.164166
-0.10813
0.0946368
0.173923
-0.114228
0.104471
0.18065
-0.119289
0.112562
0.186004
-0.123781
0.118428
0.190567
-0.128888
0.124325
0.194843
-0.132739
0.128463
-0.138799
0.135875
0.197768
-0.00033529
0.00302096
-0.000193818
0.00509614
0.00154083
0.00383434
0.0060722
-0.000972253
0.0145263
-0.00967261
0.0275314
-0.022163
0.0447654
-0.0374576
0.0648681
-0.0539004
0.0858686
-0.0697593
0.105738
-0.083709
0.122876
-0.0950543
0.136441
-0.103749
0.146456
-0.110265
0.153701
-0.115375
0.159348
-0.119875
0.164356
-0.124297
0.16941
-0.128835
0.174026
-0.133504
0.179034
-0.137747
-0.143142
0.183376
3.51248e-05
0.00298583
0.00123113
0.00390013
0.00484728
0.000218194
0.0122228
-0.00834779
0.0242121
-0.0216619
0.0404855
-0.0384364
0.0593857
-0.0563578
0.0785876
-0.0731023
0.0959515
-0.0871232
0.110131
-0.0978886
0.12081
-0.105733
0.128564
-0.111504
0.134454
-0.116154
0.139501
-0.120422
0.144279
-0.124654
0.148958
-0.128976
0.153383
-0.13326
0.157586
-0.137706
0.161734
-0.141895
-0.146806
0.165398
0.000356955
0.00262888
0.00269766
0.00155942
0.00848664
-0.00557078
0.0189014
-0.0187625
0.0338495
-0.03661
0.0514871
-0.056074
0.0691471
-0.0740178
0.0845807
-0.088536
0.0966715
-0.099214
0.1055
-0.106717
0.111929
-0.112162
0.117004
-0.116578
0.121484
-0.120635
0.125685
-0.124622
0.129691
-0.12866
0.133474
-0.132759
0.137204
-0.13699
0.140876
-0.141377
0.144715
-0.145734
-0.150748
0.148657
0.000720167
0.00190871
0.00438788
-0.00210829
0.012547
-0.0137299
0.0256375
-0.031853
0.0419033
-0.0528759
0.0583351
-0.0725058
0.0724561
-0.0881389
0.0832189
-0.0992987
0.090894
-0.106889
0.0964259
-0.112249
0.100766
-0.116502
0.104529
-0.120341
0.107992
-0.124097
0.111295
-0.127925
0.114514
-0.131879
0.117743
-0.135988
0.120989
-0.140236
0.124196
-0.144584
0.127487
-0.149025
-0.153732
0.130471
0.00119277
0.000715941
0.00638973
-0.00730525
0.0168135
-0.0241537
0.0313419
-0.0463814
0.046732
-0.068266
0.0600695
-0.0858432
0.0701137
-0.0981831
0.0771156
-0.106301
0.0820059
-0.111779
0.085695
-0.115938
0.0887848
-0.119592
0.0915971
-0.123154
0.0943009
-0.126801
0.0969632
-0.130588
0.0996058
-0.134521
0.102205
-0.138587
0.10475
-0.142781
0.107288
-0.147123
0.109869
-0.151606
-0.15633
0.112466
0.00178122
-0.00106528
0.00857952
-0.0141035
0.0205686
-0.0361428
0.0347933
-0.0606061
0.0476958
-0.0811685
0.0574935
-0.0956409
0.0641925
-0.104882
0.0686543
-0.110762
0.071806
-0.114931
0.074303
-0.118435
0.0765117
-0.121801
0.0786016
-0.125243
0.0806241
-0.128824
0.0825907
-0.132554
0.0845055
-0.136436
0.0863932
-0.140475
0.0882904
-0.144678
0.0901971
-0.149029
0.0921319
-0.153541
-0.158175
0.0939764
0.00243683
-0.00350212
0.0106211
-0.0222878
0.0229975
-0.0485192
0.0354998
-0.0731084
0.0453901
-0.0910587
0.0521193
-0.10237
0.0563799
-0.109143
0.0591318
-0.113514
0.0611146
-0.116914
0.0627502
-0.12007
0.064226
-0.123277
0.0656067
-0.126624
0.0669194
-0.130136
0.0681827
-0.133818
0.0694153
-0.137669
0.0706273
-0.141687
0.0718134
-0.145864
0.0729936
-0.15021
0.0741715
-0.154719
-0.159353
0.0753495
0.00308932
-0.00659143
0.0121101
-0.0313086
0.0236826
-0.0600917
0.0337957
-0.0832215
0.0408685
-0.0981316
0.0451927
-0.106694
0.0477099
-0.11166
0.0492627
-0.115067
0.0503629
-0.118014
0.0512481
-0.120956
0.0520096
-0.124038
0.0526853
-0.1273
0.0532925
-0.130743
0.053841
-0.134366
0.0543382
-0.138166
0.0547956
-0.142144
0.055239
-0.146308
0.0556776
-0.150648
0.0561022
-0.155143
-0.159746
0.0564957
0.00365259
-0.010244
0.0127773
-0.0404334
0.022752
-0.0700663
0.0303787
-0.0908482
0.0350693
-0.102822
0.0375637
-0.109189
0.0387961
-0.112892
0.0394113
-0.115682
0.0397356
-0.118338
0.0399001
-0.12112
0.0399519
-0.12409
0.0399084
-0.127256
0.03978
-0.130615
0.0395778
-0.134164
0.0393157
-0.137904
0.0390094
-0.141838
0.0386672
-0.145966
0.0383007
-0.150282
0.0379166
-0.154759
0.0375488
-0.159378
-0.00071918
0.000128413
0.000590767
-0.00224359
0.00442768
-0.00290327
-0.00451401
0.00978135
-0.00751093
-0.00743558
0.0146185
-0.0116969
-0.0107458
0.0187631
-0.0154528
-0.0141171
0.0227165
-0.0193452
-0.0172634
0.0269441
-0.0237979
-0.0199435
0.0316259
-0.0289457
-0.0219183
0.036723
-0.0347482
-0.0229227
0.042077
-0.0410726
-0.0226645
0.0474483
-0.0477066
-0.0208296
0.0525187
-0.0543536
-0.0171186
0.0569222
-0.0606332
-0.0112431
0.0602056
-0.0660811
-0.00295266
0.0618804
-0.0701708
0.00793927
0.0614674
-0.0723593
0.0214215
0.058596
-0.0720782
0.0375041
0.0527954
-0.0688779
0.0556002
0.0443608
-0.062457
0.032204
0.0758262
-0.0524299
-0.000256719
0.000385133
-0.000754761
0.00492572
-0.0016803
0.0107069
-0.00313918
0.0160774
-0.00494575
0.0205697
-0.00672527
0.024496
-0.00808651
0.0283054
-0.00870185
0.0322412
-0.00828975
0.0363109
-0.00657944
0.0403667
-0.00329926
0.0441682
0.0018066
0.0474128
0.00900735
0.0497215
0.0185074
0.0507055
0.0303815
0.0500063
0.0447037
0.0471452
0.0611504
0.0421493
0.0798236
0.0341221
0.0996685
0.0245159
0.0110131
0.120859
0.000126951
0.000258182
0.000552294
0.00450037
0.000992879
0.0102663
0.00117042
0.0158998
0.00110077
0.0206393
0.00109713
0.0244997
0.0015928
0.0278097
0.00299463
0.0308394
0.00563828
0.0336672
0.00980318
0.0362017
0.0157311
0.0382403
0.0236315
0.0395124
0.0336383
0.0397147
0.0458259
0.0385179
0.0601274
0.0357048
0.0765215
0.0307511
0.0943723
0.0242985
0.113936
0.0145585
0.133693
0.00475933
-0.0101098
0.154816
0.000331909
-7.37269e-05
0.00135525
0.00347703
0.00284762
0.00877394
0.00448418
0.0142633
0.00611934
0.0190042
0.00790376
0.0227153
0.0101935
0.0255199
0.0134001
0.0276328
0.0178905
0.0291768
0.0239541
0.0301382
0.0318031
0.0303912
0.0415591
0.0297564
0.0533045
0.0279693
0.0669108
0.0249116
0.0823323
0.0202833
0.0992451
0.0138383
0.11718
0.00636349
0.136531
-0.00479278
0.156126
-0.0148352
-0.0316556
0.177672
0.000337619
-0.000411346
0.00149907
0.00231558
0.00345133
0.00682168
0.0059746
0.01174
0.00887018
0.0161086
0.0121321
0.0194533
0.0159564
0.0216956
0.0206496
0.0229396
0.0265274
0.023299
0.0338476
0.022818
0.0427878
0.021451
0.0533996
0.0191446
0.0657386
0.0156303
0.079562
0.0110882
0.0950726
0.00477268
0.111763
-0.00285224
0.130461
-0.0123347
0.150628
-0.0249593
0.172962
-0.0371691
-0.0573408
0.198647
0.000164045
-0.000575391
0.00101187
0.00146775
0.00274403
0.00508952
0.0053356
0.00914843
0.00865794
0.0127863
0.0126382
0.0154731
0.01733
0.0170037
0.022891
0.0173786
0.0295199
0.0166701
0.0373999
0.0149379
0.0466821
0.0121688
0.0575017
0.00832496
0.0700166
0.00311546
0.0844524
-0.00334756
0.101321
-0.0120956
0.120379
-0.0219103
0.143184
-0.0351397
0.167854
-0.0496292
0.196676
-0.0659918
-0.0867171
0.226053
-0.000158658
-0.000416733
3.10055e-05
0.00127809
0.000995912
0.00412461
0.0028971
0.00724724
0.00574308
0.00994028
0.00948627
0.0117299
0.0141303
0.0123597
0.0197662
0.0117428
0.0265856
0.00985073
0.0348721
0.0066514
0.0450104
0.00203055
0.0575112
-0.00417587
0.0727753
-0.0121486
0.0914093
-0.0219816
0.113319
-0.0340049
0.138672
-0.0472637
0.166902
-0.0633695
0.195774
-0.0785019
0.226083
-0.0963003
-0.111595
0.250961
-0.000554812
0.000138079
-0.00116239
0.00188567
-0.0012144
0.00417662
-0.000365786
0.00639863
0.00152363
0.00805087
0.00458381
0.00866975
0.00897559
0.00796789
0.0150025
0.00571592
0.0231645
0.0016887
0.0340133
-0.00419743
0.048087
-0.0120432
0.0657998
-0.0218887
0.0871197
-0.0334685
0.111894
-0.0467561
0.138851
-0.060962
0.16754
-0.0759527
0.195024
-0.0908537
0.220578
-0.104055
0.241618
-0.117341
-0.124644
0.254667
-0.000878448
0.00101653
-0.0021162
0.00312342
-0.00292468
0.00498509
-0.00278464
0.00625859
-0.00126911
0.00653533
0.00205857
0.00534208
0.00773276
0.00229369
0.0163959
-0.00294724
0.0285777
-0.0104931
0.0446609
-0.0202807
0.0645951
-0.0319774
0.0878394
-0.045133
0.11342
-0.0590494
0.13993
-0.0732659
0.165656
-0.0866877
0.189087
-0.0993838
0.20791
-0.109677
0.222686
-0.118831
0.230874
-0.125529
-0.129541
0.235771
-0.00094863
-0.00226967
-0.00303398
-0.00248652
0.000117871
0.00559324
0.0145988
0.0276992
0.044949
0.0657973
0.0891654
0.113542
0.137295
0.158666
0.17645
0.189628
0.198379
0.203873
0.206806
0.21314
0.0982276
0.0290642
-0.0514656
0.116976
1.15721e-05
-0.0187603
0.133083
-0.035722
0.0196158
0.146412
-0.0800243
0.0666949
0.156768
-0.133245
0.122888
0.163193
-0.182577
0.176153
0.16402
-0.212349
0.211521
0.157979
-0.222685
0.228727
0.1496
-0.223484
0.231863
0.141514
-0.216098
0.224185
0.129454
-0.211939
0.223999
0.113241
-0.226009
0.242222
0.101203
-0.239272
0.251309
0.0989266
-0.209435
0.211711
0.102371
-0.124489
0.121044
0.109528
-0.00903185
0.00187457
0.119273
0.106903
-0.116648
0.129889
0.196681
-0.207297
0.138182
0.249757
-0.258051
0.143818
0.269044
-0.274679
0.14262
0.273828
-0.27263
0.130747
0.288783
-0.27691
0.114287
0.300479
-0.284019
0.104052
0.264837
-0.254602
0.105886
0.161621
-0.163455
0.119266
0.0247076
-0.0380874
0.137791
-0.0920746
0.0735493
0.154977
-0.161123
0.143937
0.167324
-0.191017
0.17867
0.175214
-0.194309
0.186419
0.179481
-0.185094
0.180827
0.180687
-0.16902
0.167814
0.180306
-0.155826
0.156206
0.180101
-0.139435
0.13964
0.180754
-0.118412
0.11776
0.182396
-0.0893329
0.0876909
0.18535
-0.0647735
0.0618198
0.189689
-0.0477646
0.0434248
0.194811
-0.0450192
0.0398976
0.199716
-0.0442487
0.0393439
0.203676
-0.0415887
0.0376281
0.206491
-0.0264792
0.0236648
0.208388
-0.00444282
0.00254569
0.209614
0.0235639
-0.0247901
0.210387
0.0481232
-0.0488959
0.210774
0.0689873
-0.069374
0.210872
0.0829754
-0.0830742
0.210665
0.0925201
-0.0923132
0.210286
0.0990437
-0.0986647
0.103173
-0.10253
0.137707
0.0122166
0.152302
-0.0145834
0.163145
-0.0465647
0.172149
-0.089029
0.177686
-0.138782
0.176831
-0.181722
0.169882
-0.2054
0.157831
-0.210634
0.144146
-0.2098
0.132843
-0.204795
0.119239
-0.198336
0.0998605
-0.20663
0.0827011
-0.222112
0.0774123
-0.204146
0.0829517
-0.130028
0.0948755
-0.0209556
0.110216
0.0915627
0.125211
0.181686
0.137906
0.237062
0.14711
0.25984
0.147108
0.27383
0.136101
0.29979
0.121862
0.314718
0.113187
0.273512
0.113972
0.160836
0.125006
0.013673
0.141143
-0.108211
0.156754
-0.176734
0.168004
-0.202267
0.175143
-0.201448
0.179226
-0.189177
0.180662
-0.170456
0.180579
-0.155743
0.180786
-0.139643
0.182056
-0.119682
0.184114
-0.0913908
0.18687
-0.0675299
0.190531
-0.0514252
0.194968
-0.0494567
0.199496
-0.0487759
0.203366
-0.0454593
0.206218
-0.029331
0.208192
-0.00641651
0.209504
0.0222513
0.210354
0.0472733
0.210786
0.068555
0.210897
0.0828651
0.21068
0.0927371
0.210279
0.0994442
0.103832
0.167379
-0.000346774
0.178172
-0.0253769
0.187212
-0.0556047
0.19417
-0.0959865
0.195842
-0.140454
0.188877
-0.174757
0.175492
-0.192014
0.159127
-0.19427
0.141792
-0.192464
0.127497
-0.190501
0.113297
-0.184135
0.0922039
-0.185537
0.0700455
-0.199954
0.060575
-0.194675
0.0666119
-0.136065
0.081957
-0.0363006
0.10174
0.0717796
0.121575
0.16185
0.139453
0.219185
0.151873
0.247419
0.154281
0.271423
0.146853
0.307218
0.135253
0.326317
0.126413
0.282352
0.124681
0.162568
0.132059
0.00629487
0.144965
-0.121117
0.15833
-0.190099
0.168164
-0.212101
0.174446
-0.20773
0.178273
-0.193004
0.179899
-0.172082
0.180069
-0.155912
0.180558
-0.140132
0.182308
-0.121432
0.184812
-0.0938952
0.187551
-0.0702686
0.190699
-0.0545729
0.19455
-0.0533076
0.198802
-0.0530286
0.202736
-0.0493926
0.205769
-0.0323644
0.207885
-0.00853266
0.209276
0.0208601
0.210173
0.0463764
0.210638
0.0680903
0.210775
0.0827283
0.210586
0.092926
0.210216
0.0998136
0.104444
0.188705
-0.0113799
0.198647
-0.0353195
0.207454
-0.0644117
0.212128
-0.10066
0.208878
-0.137204
0.196354
-0.162232
0.178285
-0.173946
0.159758
-0.175743
0.141004
-0.173709
0.124488
-0.173985
0.110651
-0.170299
0.0909979
-0.165884
0.0655439
-0.1745
0.0498182
-0.17895
0.0536909
-0.139938
0.0709782
-0.053588
0.0941468
0.0486111
0.118311
0.137686
0.141186
0.19631
0.158137
0.230468
0.164131
0.265429
0.159113
0.312236
0.149198
0.336233
0.140829
0.290721
0.137004
0.166393
0.140411
0.00288804
0.149351
-0.130056
0.159902
-0.200651
0.167974
-0.220173
0.173185
-0.212941
0.176631
-0.19645
0.178394
-0.173846
0.178777
-0.156295
0.179436
-0.140791
0.181521
-0.123517
0.184452
-0.0968262
0.187309
-0.0731252
0.190103
-0.0573672
0.19345
-0.0566546
0.197473
-0.0570519
0.201568
-0.0534878
0.204936
-0.0357321
0.207326
-0.0109223
0.20886
0.0193259
0.20982
0.0454161
0.210324
0.0675862
0.210508
0.0825448
0.210385
0.0930486
0.210098
0.100101
0.104947
0.209816
-0.0225485
0.21962
-0.0451241
0.226472
-0.071263
0.226427
-0.100616
0.216461
-0.127239
0.198554
-0.144325
0.177441
-0.152832
0.158331
-0.156632
0.14096
-0.156339
0.123739
-0.156764
0.109892
-0.156451
0.0939927
-0.149985
0.0691415
-0.149649
0.0470765
-0.156885
0.0447674
-0.137629
0.061426
-0.0702466
0.0872792
0.0227579
0.115552
0.109414
0.142748
0.169113
0.163899
0.209317
0.17472
0.254608
0.175505
0.311451
0.169135
0.342602
0.159524
0.300333
0.15161
0.174307
0.149493
0.00500552
0.153997
-0.13456
0.161275
-0.207929
0.167317
-0.226215
0.171302
-0.216927
0.17425
-0.199398
0.176115
-0.175711
0.176709
-0.156889
0.177459
-0.141541
0.179742
-0.1258
0.183052
-0.100136
0.186138
-0.0762113
0.188752
-0.0599817
0.191693
-0.0595951
0.1955
-0.0608588
0.199781
-0.0577694
0.203584
-0.0395349
0.206385
-0.0137226
0.208169
0.017541
0.209253
0.0443325
0.209831
0.0670086
0.210093
0.0822827
0.210078
0.0930632
0.209925
0.100254
0.105279
0.23475
-0.0312463
0.240422
-0.0507961
0.240658
-0.0714988
0.232923
-0.0928798
0.216705
-0.111021
0.196036
-0.123656
0.174921
-0.131718
0.155988
-0.137699
0.140246
-0.140598
0.124371
-0.140889
0.109985
-0.142065
0.098055
-0.138055
0.0789356
-0.130529
0.0540648
-0.132014
0.0429653
-0.126529
0.0546031
-0.0818845
0.0805891
-0.00322811
0.111762
0.0782412
0.142585
0.13829
0.167501
0.184401
0.183536
0.238573
0.189719
0.305268
0.185948
0.346373
0.175824
0.310456
0.165357
0.184774
0.159261
0.0111016
0.158849
-0.134148
0.162443
-0.211523
0.166211
-0.229983
0.16884
-0.219556
0.17116
-0.201718
0.173063
-0.177614
0.173876
-0.157702
0.174686
-0.142351
0.177055
-0.12817
0.180675
-0.103755
0.184059
-0.0795957
0.186651
-0.0625738
0.189302
-0.0622455
0.192911
-0.0644676
0.197365
-0.0622236
0.201648
-0.043818
0.204969
-0.0170434
0.207125
0.0153846
0.208422
0.043036
0.209132
0.0662979
0.20952
0.0818952
0.209662
0.0929214
0.209697
0.100218
0.105379
0.253021
-0.0333064
0.250871
-0.0486462
0.242814
-0.0634418
0.22842
-0.0784863
0.209389
-0.0919892
0.189337
-0.103605
0.170765
-0.113146
0.153481
-0.120415
0.138633
-0.125749
0.125049
-0.127305
0.110867
-0.127882
0.100163
-0.127351
0.0887114
-0.119077
0.0681751
-0.111478
0.050537
-0.108891
0.0540514
-0.0853989
0.076534
-0.0257107
0.107219
0.0475563
0.139133
0.106376
0.168586
0.154948
0.191987
0.215172
0.205271
0.291985
0.207242
0.344403
0.197605
0.320093
0.181351
0.201027
0.168071
0.0243817
0.163208
-0.129286
0.163259
-0.211573
0.16462
-0.231344
0.165795
-0.22073
0.167379
-0.203302
0.169242
-0.179477
0.170284
-0.158745
0.171158
-0.143224
0.173545
-0.130557
0.177411
-0.107622
0.181131
-0.0833152
0.183825
-0.0652676
0.186296
-0.0647171
0.189741
-0.0679121
0.194346
-0.0668289
0.199116
-0.0485877
0.20303
-0.0209579
0.20567
0.0127451
0.207282
0.041424
0.208204
0.0653755
0.208777
0.0813219
0.209131
0.0925678
0.209411
0.0999389
0.105186
0.250542
-0.0291814
0.242221
-0.0403252
0.229833
-0.0510535
0.214281
-0.0629342
0.197368
-0.0750757
0.180505
-0.086742
0.164702
-0.0973438
0.149712
-0.105424
0.135646
-0.111683
0.123935
-0.115595
0.112166
-0.116113
0.101144
-0.116329
0.0940393
-0.111973
0.0826558
-0.100094
0.0649822
-0.0912174
0.058963
-0.0793797
0.0746122
-0.0413599
0.103438
0.0187306
0.13498
0.0748332
0.165289
0.124639
0.191687
0.188774
0.211373
0.272298
0.219302
0.336474
0.211995
0.327401
0.194138
0.218884
0.177891
0.0406286
0.168039
-0.119433
0.163825
-0.20736
0.162425
-0.229944
0.162044
-0.220349
0.162822
-0.20408
0.164596
-0.181252
0.165899
-0.160047
0.166877
-0.144202
0.169251
-0.13293
0.17333
-0.111701
0.177425
-0.08741
0.180329
-0.0681719
0.182721
-0.0671094
0.186037
-0.0712277
0.19077
-0.0715622
0.196014
-0.0538319
0.200562
-0.0255058
0.203775
0.00953263
0.205803
0.0393953
0.207026
0.0641534
0.207855
0.0804925
0.208482
0.0919406
0.209065
0.0993558
0.104638
0.230118
-0.0235285
0.221464
-0.0316709
0.210729
-0.0403185
0.198496
-0.0507015
0.185401
-0.0619808
0.171697
-0.0730372
0.157656
-0.0833032
0.144265
-0.0920327
0.131461
-0.0988793
0.120257
-0.104391
0.11104
-0.106896
0.101397
-0.106686
0.0942592
-0.104836
0.0901133
-0.0959482
0.0806292
-0.0817333
0.0702664
-0.0690169
0.0755797
-0.0466732
0.0988346
-0.0045243
0.128766
0.0449014
0.160137
0.0932682
0.192279
0.156632
0.219546
0.245031
0.23202
0.324
0.226022
0.333399
0.207346
0.23756
0.185599
0.0623754
0.171097
-0.10493
0.162891
-0.199154
0.159078
-0.226131
0.157391
-0.218662
0.157445
-0.204134
0.159127
-0.182934
0.160737
-0.161657
0.16189
-0.145355
0.164244
-0.135284
0.168496
-0.115953
0.172999
-0.0919138
0.176222
-0.071394
0.178635
-0.0695231
0.181857
-0.0744498
0.186693
-0.0763975
0.192384
-0.0595237
0.19759
-0.0307111
0.201442
0.00567997
0.203977
0.036861
0.205586
0.0625438
0.206746
0.0793324
0.207712
0.0909744
0.20866
0.0984087
0.103676
0.208667
-0.0190556
0.202165
-0.0251691
0.194312
-0.0324652
0.184855
-0.0412443
0.173922
-0.0510475
0.162075
-0.0611905
0.149795
-0.0710235
0.137873
-0.080111
0.126867
-0.087873
0.116487
-0.0940108
0.107746
-0.098155
0.100209
-0.0991486
0.092886
-0.0975126
0.0892256
-0.0922878
0.0871404
-0.0796481
0.0810891
-0.0629657
0.079123
-0.0447071
0.0915734
-0.0169748
0.116466
0.0200092
0.146771
0.062963
0.180007
0.123397
0.21259
0.212448
0.235738
0.300852
0.236233
0.332904
0.217146
0.256646
0.195364
0.0841574
0.176736
-0.0863023
0.163671
-0.186089
0.156853
-0.219313
0.153623
-0.215432
0.152648
-0.203158
0.153811
-0.184098
0.155438
-0.163284
0.156638
-0.146555
0.158873
-0.137519
0.163169
-0.120249
0.16802
-0.0967642
0.171605
-0.0749792
0.174125
-0.0720427
0.177297
-0.0776226
0.182223
-0.0813229
0.188333
-0.0656335
0.194164
-0.036543
0.198699
0.00114507
0.201809
0.0337517
0.203887
0.060466
0.205451
0.0777685
0.206822
0.089603
0.208194
0.097037
0.102242
0.246631
-0.0161219
-0.249565
0.244457
-0.0229949
0.241906
-0.0299146
0.238306
-0.0376441
0.233384
-0.0461258
0.227173
-0.0549787
0.219992
-0.0638432
0.211831
-0.0719499
0.20296
-0.0790015
0.193397
-0.0844483
0.182722
-0.0874795
0.172021
-0.0884478
0.160723
-0.0862142
0.148652
-0.0802173
0.138517
-0.0695133
0.127052
-0.0515006
0.111726
-0.0293808
0.101962
-0.00721087
0.104921
0.0170505
0.116857
0.0510273
0.129649
0.110604
0.142606
0.199491
0.155894
0.287564
0.168543
0.320255
0.18933
0.235859
0.211228
0.0622594
0.221284
-0.0963577
0.218885
-0.18369
0.21028
-0.210708
0.200466
-0.205618
0.192084
-0.194776
0.186036
-0.17805
0.181596
-0.158844
0.178085
-0.143044
0.175808
-0.135243
0.175162
-0.119603
0.175509
-0.0971108
0.176011
-0.0754819
0.176631
-0.0726627
0.17794
-0.0789315
0.180239
-0.0836215
0.183063
-0.0684576
0.185587
-0.0390672
0.187252
-0.00051916
0.188086
0.0329173
0.188395
0.0601567
0.188528
0.077636
0.188642
0.089489
0.188817
0.0968621
0.101997
0.258686
-0.0137507
-0.261057
0.255903
-0.0202118
0.252871
-0.0268828
0.249049
-0.0338226
0.244172
-0.0412482
0.238041
-0.0488476
0.230712
-0.0565144
0.22234
-0.0635779
0.212872
-0.0695334
0.20282
-0.0743967
0.192168
-0.0768276
0.181136
-0.077416
0.170709
-0.0757863
0.159953
-0.069462
0.150576
-0.0601357
0.144134
-0.0450593
0.134846
-0.0200922
0.121554
0.00608133
0.114959
0.0236455
0.121879
0.0441068
0.13914
0.0933427
0.159803
0.178829
0.176443
0.270923
0.192565
0.304134
0.218173
0.210251
0.241471
0.0389616
0.248187
-0.103075
0.241043
-0.176546
0.228625
-0.19829
0.216719
-0.193712
0.207345
-0.185401
0.200721
-0.171426
0.195892
-0.154015
0.192095
-0.139247
0.189573
-0.132721
0.188686
-0.118716
0.188851
-0.0972751
0.189231
-0.0758627
0.189739
-0.0731707
0.190913
-0.0801048
0.193102
-0.0858104
0.195917
-0.0712732
0.198542
-0.0416923
0.200334
-0.00231064
0.201257
0.0319945
0.201582
0.0598307
0.20169
0.0775282
0.201777
0.089402
0.201933
0.0967059
0.101745
0.27062
-0.0120036
-0.272368
0.268146
-0.0177377
0.265145
-0.0238814
0.261438
-0.030116
0.256803
-0.0366127
0.25112
-0.0431652
0.244304
-0.0496984
0.236556
-0.0558297
0.227979
-0.0609563
0.218756
-0.0651732
0.209252
-0.067324
0.199259
-0.0674235
0.18929
-0.0658174
0.179076
-0.0592477
0.168687
-0.0497463
0.161708
-0.0380803
0.157344
-0.0157282
0.148495
0.0149297
0.136624
0.035517
0.134399
0.0463312
0.150097
0.0776448
0.173965
0.154961
0.193197
0.251691
0.216783
0.280548
0.250361
0.176673
0.273222
0.0161008
0.275312
-0.105164
0.264045
-0.16528
0.24925
-0.183495
0.235786
-0.180248
0.225134
-0.17475
0.21747
-0.163762
0.211887
-0.148432
0.207527
-0.134888
0.204551
-0.129745
0.203308
-0.117473
0.203238
-0.0972055
0.203476
-0.0761005
0.203864
-0.073559
0.204898
-0.0811384
0.206957
-0.0878699
0.209717
-0.0740329
0.212394
-0.0443696
0.214292
-0.00420845
0.215297
0.0309901
0.215651
0.0594764
0.215746
0.077433
0.215814
0.089334
0.215956
0.0965645
0.101481
0.283546
-0.0106626
-0.284887
0.281306
-0.0154976
0.278304
-0.0208795
0.274606
-0.0264179
0.270049
-0.032055
0.264544
-0.0376605
0.258028
-0.0431824
0.250605
-0.0484069
0.242442
-0.0527927
0.233628
-0.0563597
0.22452
-0.0582158
0.215044
-0.0579476
0.205612
-0.0563855
0.196908
-0.050544
0.188193
-0.0410309
0.181031
-0.0309187
0.177948
-0.0126445
0.175476
0.0174013
0.168874
0.042119
0.162826
0.0523789
0.168248
0.0722235
0.184152
0.139057
0.206835
0.229008
0.244826
0.242557
0.286363
0.135136
0.306259
-0.00379437
0.302089
-0.100995
0.286188
-0.149378
0.268834
-0.166141
0.25412
-0.165534
0.242793
-0.163423
0.234626
-0.155596
0.228633
-0.142438
0.223917
-0.130172
0.220598
-0.126426
0.219031
-0.115906
0.218717
-0.0968909
0.21879
-0.0761732
0.219045
-0.0738149
0.219936
-0.0820288
0.221852
-0.089786
0.224523
-0.0767037
0.227206
-0.0470531
0.229179
-0.00618108
0.230259
0.0299094
0.230653
0.0590823
0.23075
0.0773362
0.23081
0.0892739
0.230944
0.0964312
0.101202
0.2974
-0.00920112
-0.298861
0.295201
-0.0132991
0.292273
-0.0179514
0.28865
-0.0227943
0.284263
-0.0276687
0.279097
-0.0324944
0.273089
-0.0371742
0.266279
-0.041597
0.258811
-0.0453243
0.250688
-0.0482369
0.242257
-0.0497843
0.233626
-0.0493166
0.224794
-0.0475542
0.216694
-0.0424436
0.209305
-0.0336422
0.202615
-0.0242287
0.199153
-0.00918225
0.19973
0.0168243
0.200896
0.0409528
0.199534
0.0537405
0.198547
0.0732111
0.206592
0.131012
0.235645
0.199954
0.285052
0.19315
0.325625
0.0945626
0.337171
-0.0153408
0.326412
-0.0902357
0.307655
-0.130621
0.289456
-0.147942
0.274273
-0.150351
0.262332
-0.151482
0.253466
-0.14673
0.246861
-0.135833
0.241655
-0.124967
0.237915
-0.122685
0.235975
-0.113966
0.235373
-0.0962891
0.23525
-0.0760498
0.235359
-0.0739241
0.236101
-0.0827711
0.237858
-0.0915428
0.240401
-0.0792471
0.243041
-0.0496923
0.245053
-0.00819299
0.2462
0.0287619
0.246644
0.0586379
0.246759
0.0772215
0.246826
0.0892073
0.24696
0.0962964
0.100902
0.312068
-0.0076317
-0.313637
0.309998
-0.0112296
0.307283
-0.015236
0.303887
-0.0193989
0.299793
-0.023574
0.294994
-0.0276957
0.289453
-0.0316336
0.283174
-0.0353176
0.27627
-0.03842
0.268781
-0.0407483
0.260995
-0.0419986
0.253154
-0.0414756
0.245228
-0.0396276
0.237952
-0.0351682
0.231738
-0.0274279
0.226148
-0.0186391
0.222724
-0.00575776
0.223968
0.0155803
0.228854
0.0360664
0.232545
0.0500499
0.234233
0.0715235
0.245877
0.119367
0.28207
0.163761
0.330561
0.14466
0.36018
0.0649427
0.361885
-0.0170452
0.346935
-0.0752862
0.327435
-0.11112
0.309386
-0.129893
0.294273
-0.135238
0.282191
-0.139399
0.273029
-0.137568
0.266087
-0.128891
0.260551
-0.11943
0.256467
-0.118601
0.254177
-0.111676
0.253275
-0.0953869
0.252933
-0.0757077
0.25288
-0.0738719
0.253468
-0.0833588
0.255051
-0.0931255
0.257431
-0.081627
0.259974
-0.0522353
0.261982
-0.0102012
0.263179
0.0275652
0.26368
0.0581364
0.26383
0.0770719
0.26392
0.0891168
0.26407
0.0961467
0.10057
0.32798
-0.00629327
-0.329318
0.326111
-0.0093607
0.323606
-0.0127312
0.320455
-0.0162477
0.316655
-0.0197742
0.312214
-0.023255
0.307123
-0.0265424
0.301391
-0.029585
0.295121
-0.0321499
0.288373
-0.034001
0.281363
-0.0349885
0.274335
-0.0344478
0.267334
-0.0326261
0.260922
-0.0287559
0.255598
-0.0221047
0.251104
-0.0141443
0.24846
-0.00311408
0.250028
0.0140121
0.255443
0.0306516
0.261117
0.0443757
0.267878
0.0647624
0.287198
0.100047
0.325587
0.125372
0.36458
0.105667
0.382666
0.0468568
0.379211
-0.0135905
0.364418
-0.0604928
0.346678
-0.0933803
0.330002
-0.113216
0.315527
-0.120764
0.303523
-0.127395
0.294098
-0.128143
0.286779
-0.121572
0.280869
-0.113519
0.276415
-0.114148
0.273749
-0.10901
0.272516
-0.0941537
0.271926
-0.0751171
0.271693
-0.0736391
0.272117
-0.0837831
0.273512
-0.0945205
0.275696
-0.0838108
0.278091
-0.0546301
0.280046
-0.012156
0.281265
0.0263459
0.281823
0.0575777
0.282024
0.0768719
0.282157
0.0889831
0.282339
0.0959648
0.100196
0.345433
-0.00508487
-0.346641
0.343657
-0.00758473
0.341311
-0.0103857
0.338404
-0.0133403
0.334925
-0.0162955
0.330879
-0.0192087
0.32627
-0.0219343
0.321119
-0.0244338
0.315507
-0.0265382
0.309501
-0.0279944
0.303273
-0.0287608
0.297061
-0.0282357
0.29098
-0.0265455
0.28547
-0.0232456
0.280998
-0.0176326
0.277514
-0.0106601
0.275815
-0.00141511
0.277692
0.0121349
0.282811
0.025533
0.289083
0.0381029
0.299003
0.0548433
0.321006
0.0780435
0.354808
0.0915709
0.384045
0.0764297
0.396206
0.0346959
0.392846
-0.0102303
0.380814
-0.0484612
0.365747
-0.0783133
0.350803
-0.0982721
0.337228
-0.107189
0.325567
-0.115735
0.316121
-0.118697
0.308607
-0.114059
0.30245
-0.107362
0.297709
-0.109407
0.294709
-0.106009
0.293149
-0.0925944
0.2923
-0.0742672
0.291875
-0.0732145
0.292129
-0.0840373
0.293325
-0.095716
0.295285
-0.0857708
0.297484
-0.0568294
0.299334
-0.0140061
0.300542
0.0251382
0.30115
0.0569698
0.301411
0.0766102
0.301607
0.0887874
0.30184
0.0957312
0.099764
0.364314
-0.00382053
-0.365579
0.362643
-0.00591313
0.360511
-0.00825368
0.357889
-0.0107188
0.354761
-0.0131675
0.351133
-0.0155806
0.347022
-0.0178225
0.342451
-0.0198631
0.337492
-0.0215796
0.332223
-0.0227249
0.326788
-0.0233258
0.321399
-0.0228468
0.316216
-0.0213628
0.311589
-0.0186183
0.307932
-0.0139759
0.305361
-0.00808883
0.304474
-0.000528528
0.30654
0.0100691
0.311415
0.0206578
0.318129
0.0313892
0.32899
0.0439823
0.34888
0.0581531
0.375493
0.0649582
0.397667
0.054256
0.40777
0.0245922
0.406297
-0.00875666
0.397481
-0.039646
0.385279
-0.066111
0.372325
-0.0853183
0.359918
-0.0947811
0.348816
-0.104633
0.339493
-0.109375
0.331865
-0.10643
0.325507
-0.101004
0.320507
-0.104407
0.317179
-0.102681
0.315279
-0.0906947
0.31415
-0.0731378
0.313519
-0.0725841
0.313594
-0.0841126
0.314578
-0.0966995
0.316289
-0.0874818
0.318251
-0.0587913
0.319948
-0.0157029
0.321107
0.0239793
0.321749
0.0563274
0.322078
0.0762815
0.322351
0.088514
0.322655
0.0954269
0.0992582
0.384776
-0.00268967
-0.385907
0.383294
-0.00443051
0.3814
-0.00635951
0.379064
-0.00838346
0.376287
-0.0103908
0.373082
-0.0123755
0.369468
-0.0142086
0.365475
-0.0158698
0.361165
-0.0172697
0.356619
-0.0181787
0.351963
-0.0186694
0.347384
-0.0182674
0.343059
-0.0170387
0.339264
-0.0148232
0.336364
-0.0110751
0.334577
-0.00630195
0.334334
-0.000286273
0.336512
0.0078916
0.341201
0.0159688
0.348043
0.0245467
0.358472
0.0335541
0.374828
0.0417964
0.39502
0.0447664
0.41217
0.0371055
0.421121
0.015642
0.421334
-0.00896985
0.415276
-0.0335883
0.405657
-0.0564921
0.394607
-0.0742682
0.38343
-0.0836043
0.373042
-0.0942444
0.364018
-0.100351
0.356422
-0.098834
0.349975
-0.0945564
0.344799
-0.0992314
0.341192
-0.0990738
0.338965
-0.0884678
0.337552
-0.071725
0.336711
-0.0717435
0.336604
-0.084005
0.337365
-0.0974601
0.338804
-0.0889214
0.340492
-0.0604793
0.341992
-0.0172031
0.343066
0.0229059
0.343724
0.0556693
0.34412
0.0758855
0.344483
0.0881508
0.344875
0.0950345
0.0986624
0.407095
-0.00171362
-0.408072
0.405782
-0.00311695
0.404099
-0.00467682
0.402044
-0.00632797
0.39962
-0.00796749
0.39684
-0.0095945
0.39372
-0.0110888
0.390294
-0.0124444
0.386617
-0.0135926
0.382769
-0.0143303
0.37886
-0.0147604
0.37505
-0.0144577
0.371521
-0.0135095
0.368495
-0.0117973
0.366284
-0.00886413
0.36513
-0.00514764
0.365366
-0.0005222
0.367596
0.00566082
0.372017
0.0115487
0.378533
0.0180299
0.387879
0.0242086
0.400967
0.0287087
0.416229
0.0295045
0.429535
0.0237995
0.437318
0.00785893
0.438542
-0.0101941
0.434533
-0.0295792
0.427079
-0.0490386
0.417832
-0.065021
0.407981
-0.0737528
0.398463
-0.0847266
0.389883
-0.0917709
0.382425
-0.0913761
0.375968
-0.0880999
0.370681
-0.0939443
0.366835
-0.0952276
0.364292
-0.085925
0.362594
-0.0700269
0.361543
-0.0706923
0.361252
-0.0837148
0.361782
-0.0979901
0.362929
-0.0900683
0.36431
-0.0618604
0.365575
-0.0184677
0.366529
0.0219518
0.367183
0.0550155
0.367642
0.0754261
0.368103
0.0876897
0.368599
0.0945391
0.0979597
0.431361
-0.000819333
-0.432255
0.430193
-0.00194939
0.428731
-0.00321506