/*--------------------------------*- C++ -*----------------------------------*\
| =========                 |                                                 |
| \\      /  F ield         | OpenFOAM: The Open Source CFD Toolbox           |
|  \\    /   O peration     | Version:  2512                                  |
|   \\  /    A nd           | Website:  www.openfoam.com                      |
|    \\/     M anipulation  |                                                 |
\*---------------------------------------------------------------------------*/
FoamFile
{
    version     2.0;
    format      ascii;
    arch        "LSB;label=32;scalar=64";
    class       volScalarField;
    location    "41.75";
    object      p;
}
// * * * * * * * * * * * * * * * * * * * * * * * * * * * * * * * * * * * * * //

dimensions      [0 2 -2 0 0 0 0];

internalField   nonuniform List<scalar> 
13248
(
-0.482699
-0.481101
-0.479037
-0.476774
-0.474826
-0.473646
-0.473489
-0.474372
-0.476034
-0.477951
-0.479378
-0.479453
-0.477327
-0.472306
-0.463967
-0.452222
-0.4373
-0.41966
-0.399818
-0.378407
-0.355494
-0.331862
-0.305808
-0.278067
-0.486894
-0.4852
-0.482807
-0.480049
-0.477462
-0.475461
-0.474215
-0.473599
-0.473193
-0.47236
-0.470365
-0.466516
-0.46029
-0.451415
-0.439893
-0.425963
-0.409995
-0.392393
-0.373519
-0.353626
-0.332909
-0.31153
-0.289214
-0.267085
-0.492847
-0.490827
-0.488054
-0.484847
-0.48166
-0.478781
-0.476208
-0.473639
-0.470564
-0.466402
-0.460637
-0.452926
-0.443141
-0.431372
-0.417853
-0.402885
-0.386746
-0.369684
-0.351859
-0.333491
-0.314612
-0.295508
-0.275961
-0.256148
-0.500857
-0.49822
-0.494941
-0.491211
-0.487299
-0.483272
-0.478911
-0.473804
-0.467517
-0.459727
-0.450286
-0.439224
-0.426713
-0.412995
-0.398313
-0.382868
-0.36682
-0.35029
-0.333401
-0.316255
-0.298938
-0.281678
-0.26424
-0.24723
-0.511026
-0.507473
-0.503509
-0.499074
-0.494139
-0.488495
-0.48175
-0.473548
-0.463739
-0.452389
-0.439715
-0.426001
-0.41152
-0.396494
-0.381079
-0.365382
-0.349475
-0.333424
-0.317288
-0.301137
-0.285046
-0.269113
-0.253251
-0.237782
-0.523372
-0.518652
-0.513812
-0.508395
-0.50197
-0.494061
-0.48427
-0.472541
-0.459153
-0.444554
-0.42919
-0.413418
-0.397475
-0.381498
-0.365554
-0.349676
-0.333884
-0.318198
-0.302647
-0.287269
-0.272103
-0.257212
-0.242534
-0.228362
-0.537885
-0.531818
-0.525906
-0.519114
-0.510537
-0.499566
-0.486103
-0.470601
-0.453786
-0.436343
-0.418775
-0.401379
-0.384296
-0.36757
-0.3512
-0.335168
-0.319459
-0.304064
-0.288983
-0.274221
-0.259795
-0.245706
-0.231949
-0.218683
-0.554448
-0.546932
-0.539704
-0.53098
-0.519392
-0.504525
-0.486917
-0.467618
-0.447657
-0.427769
-0.408372
-0.389642
-0.371613
-0.354256
-0.337518
-0.321348
-0.3057
-0.290539
-0.275839
-0.261583
-0.247757
-0.234348
-0.221373
-0.208857
-0.572702
-0.563696
-0.554815
-0.543399
-0.527836
-0.508371
-0.486409
-0.463483
-0.440712
-0.418721
-0.397769
-0.3779
-0.35906
-0.341159
-0.324109
-0.307825
-0.292239
-0.277292
-0.262934
-0.249125
-0.23583
-0.223022
-0.210705
-0.198801
-0.59194
-0.581437
-0.57043
-0.555386
-0.534937
-0.510452
-0.484186
-0.457921
-0.432666
-0.408845
-0.386542
-0.365683
-0.34614
-0.327778
-0.310472
-0.294114
-0.278609
-0.263878
-0.249851
-0.236465
-0.223669
-0.211425
-0.199703
-0.188367
-0.611069
-0.599062
-0.585283
-0.565594
-0.539543
-0.509896
-0.479546
-0.450263
-0.422817
-0.397396
-0.373923
-0.35222
-0.332096
-0.313374
-0.295896
-0.279528
-0.264153
-0.249673
-0.236001
-0.22306
-0.210784
-0.199119
-0.187992
-0.177268
-0.628667
-0.615144
-0.597785
-0.572473
-0.540357
-0.505624
-0.471502
-0.439541
-0.410198
-0.383426
-0.358992
-0.336629
-0.316087
-0.297146
-0.279619
-0.263345
-0.248188
-0.234029
-0.220768
-0.208317
-0.196604
-0.185577
-0.175146
-0.165212
-0.384086
-0.385361
-0.386042
-0.38679
-0.387904
-0.38944
-0.391392
-0.393739
-0.396437
-0.399417
-0.402538
-0.40572
-0.408834
-0.411723
-0.414185
-0.416002
-0.416949
-0.416827
-0.415498
-0.412915
-0.409115
-0.404232
-0.398622
-0.392903
-0.398241
-0.399425
-0.400305
-0.401512
-0.403325
-0.405796
-0.408923
-0.412693
-0.417074
-0.422005
-0.427375
-0.433019
-0.43871
-0.444389
-0.449661
-0.454154
-0.457456
-0.459144
-0.458835
-0.456232
-0.451133
-0.443472
-0.43348
-0.421807
-0.412437
-0.413393
-0.414405
-0.416021
-0.418483
-0.421839
-0.426093
-0.431241
-0.437263
-0.44411
-0.451687
-0.459838
-0.468322
-0.476647
-0.484728
-0.491891
-0.497494
-0.500855
-0.501311
-0.498276
-0.491316
-0.480231
-0.465189
-0.446429
-0.426111
-0.426712
-0.42776
-0.429684
-0.432672
-0.436769
-0.441984
-0.448323
-0.455774
-0.464297
-0.473793
-0.484085
-0.494858
-0.505597
-0.516238
-0.525655
-0.533052
-0.537498
-0.538065
-0.533892
-0.524378
-0.509194
-0.488766
-0.460962
-0.438685
-0.438826
-0.439801
-0.441874
-0.445189
-0.449787
-0.455679
-0.462874
-0.471368
-0.481122
-0.492034
-0.503911
-0.516458
-0.529271
-0.54113
-0.551692
-0.559856
-0.564312
-0.563936
-0.55765
-0.544784
-0.524641
-0.498462
-0.463511
-0.449669
-0.449285
-0.450063
-0.452086
-0.455461
-0.460238
-0.466422
-0.474018
-0.483017
-0.49337
-0.504953
-0.517534
-0.530733
-0.543979
-0.556362
-0.56697
-0.574585
-0.577842
-0.575457
-0.566192
-0.549661
-0.524712
-0.493951
-0.453806
-0.458729
-0.457837
-0.458287
-0.460038
-0.463171
-0.467751
-0.473785
-0.481268
-0.490177
-0.500445
-0.511923
-0.52433
-0.537213
-0.549921
-0.56155
-0.570975
-0.576875
-0.577818
-0.572552
-0.559815
-0.539649
-0.510974
-0.476916
-0.434896
-0.465767
-0.464446
-0.464475
-0.465738
-0.468323
-0.472328
-0.477777
-0.484658
-0.492934
-0.502519
-0.513232
-0.524697
-0.536483
-0.547828
-0.557735
-0.564988
-0.568221
-0.566033
-0.557335
-0.541171
-0.517872
-0.48704
-0.451556
-0.409784
-0.470929
-0.469313
-0.468872
-0.469473
-0.471248
-0.474357
-0.478859
-0.48475
-0.49198
-0.500423
-0.509856
-0.519977
-0.53012
-0.539446
-0.546869
-0.551118
-0.550865
-0.544926
-0.532548
-0.513306
-0.487947
-0.456618
-0.421833
-0.382328
-0.474584
-0.472837
-0.471923
-0.471758
-0.472555
-0.474555
-0.47788
-0.482551
-0.488486
-0.495588
-0.503573
-0.511941
-0.519958
-0.52665
-0.530845
-0.53132
-0.526951
-0.516975
-0.50113
-0.479625
-0.453587
-0.423473
-0.391455
-0.355761
-0.47729
-0.475554
-0.474202
-0.473249
-0.473016
-0.473839
-0.475907
-0.479244
-0.483863
-0.48951
-0.495773
-0.502009
-0.507331
-0.510676
-0.510922
-0.507082
-0.49843
-0.484758
-0.466232
-0.44361
-0.417983
-0.390152
-0.362096
-0.331241
-0.479741
-0.478089
-0.47635
-0.474667
-0.473475
-0.473185
-0.474047
-0.476169
-0.479396
-0.483381
-0.48754
-0.491058
-0.492969
-0.49228
-0.488136
-0.479973
-0.467583
-0.451223
-0.431321
-0.408797
-0.384131
-0.358397
-0.332516
-0.306008
-0.387148
-0.383855
-0.386509
-0.396728
-0.415774
-0.443213
-0.478608
-0.516387
-0.553305
-0.583563
-0.602304
-0.605042
-0.585058
-0.536795
-0.46645
-0.392632
-0.332852
-0.296507
-0.282705
-0.284967
-0.303839
-0.342033
-0.393432
-0.443236
-0.473194
-0.4686
-0.423995
-0.351774
-0.276186
-0.213733
-0.169184
-0.1397
-0.121539
-0.111864
-0.111626
-0.114884
-0.111581
-0.0979818
-0.0800111
-0.0629831
-0.0495606
-0.0396671
-0.0323262
-0.0266089
-0.022392
-0.0198958
-0.0180672
-0.0155463
-0.0120614
-0.00813816
-0.00479415
-0.002262
-0.000497526
0.000562698
0.000860215
0.000563299
0.000124884
-0.000176611
-0.000256354
-6.22282e-05
-0.408454
-0.394616
-0.385394
-0.383288
-0.390419
-0.407783
-0.434865
-0.467545
-0.50394
-0.533753
-0.554147
-0.559559
-0.543254
-0.501425
-0.440944
-0.377804
-0.328663
-0.301545
-0.293757
-0.300137
-0.32262
-0.362725
-0.414284
-0.462865
-0.492034
-0.487241
-0.441285
-0.365479
-0.284848
-0.216878
-0.167691
-0.133859
-0.111515
-0.0975368
-0.0924846
-0.0926981
-0.0897638
-0.079536
-0.066291
-0.0535917
-0.0436346
-0.0364032
-0.0310503
-0.0267531
-0.0237851
-0.0223097
-0.0207707
-0.0178059
-0.0136382
-0.00911854
-0.00537374
-0.00260342
-0.000710671
0.000465692
0.000895202
0.000734555
0.00034815
2.35185e-05
-0.000124869
-1.36405e-05
-0.425141
-0.400122
-0.378503
-0.36345
-0.356733
-0.361039
-0.377064
-0.402679
-0.433909
-0.463479
-0.485937
-0.494825
-0.484699
-0.452563
-0.404029
-0.354209
-0.317648
-0.299894
-0.297372
-0.307178
-0.332006
-0.373005
-0.424073
-0.47146
-0.500849
-0.497792
-0.452201
-0.374575
-0.290442
-0.218281
-0.165318
-0.128112
-0.102316
-0.0848983
-0.0757276
-0.073066
-0.0701352
-0.063504
-0.0533727
-0.0444242
-0.0377098
-0.0331475
-0.0298379
-0.0270314
-0.0254398
-0.0249365
-0.0235254
-0.0199089
-0.0150529
-0.00999187
-0.00591106
-0.00293707
-0.000931702
0.000343804
0.000889048
0.000865818
0.000547969
0.000225382
2.00874e-05
4.22772e-05
-0.433466
-0.397512
-0.363644
-0.338048
-0.31801
-0.308089
-0.310899
-0.326232
-0.350695
-0.378306
-0.400247
-0.416101
-0.412745
-0.392455
-0.357854
-0.322827
-0.299223
-0.290405
-0.29254
-0.305057
-0.331658
-0.373571
-0.424228
-0.470977
-0.501447
-0.500917
-0.457143
-0.379391
-0.293143
-0.2183
-0.162441
-0.122662
-0.0941536
-0.0740236
-0.0614936
-0.0561321
-0.0527609
-0.0478705
-0.0411077
-0.0354313
-0.031799
-0.0299225
-0.0286638
-0.0274213
-0.0272953
-0.027677
-0.0262447
-0.0217994
-0.0163065
-0.0107648
-0.00640663
-0.00326245
-0.00115903
0.000201091
0.000844834
0.000950479
0.000710238
0.000411472
0.00016529
0.000100488
-0.428549
-0.384441
-0.337336
-0.31192
-0.276524
-0.252756
-0.243571
-0.246028
-0.261254
-0.284361
-0.307752
-0.325029
-0.332924
-0.325515
-0.304994
-0.284884
-0.27344
-0.272578
-0.279334
-0.295047
-0.324214
-0.367802
-0.418235
-0.464396
-0.496106
-0.497971
-0.457115
-0.380589
-0.293509
-0.217374
-0.159477
-0.117736
-0.0872251
-0.0649016
-0.0497517
-0.0418449
-0.0376536
-0.0336822
-0.0294101
-0.0265449
-0.0259085
-0.0267184
-0.0274755
-0.0278827
-0.0292568
-0.0304162
-0.0288202
-0.0239462
-0.017418
-0.011446
-0.00686113
-0.00357759
-0.00138922
4.32513e-05
0.000769518
0.000988781
0.000827577
0.000567973
0.000297615
0.000155135
-0.411761
-0.364772
-0.317144
-0.274477
-0.233031
-0.197753
-0.180804
-0.170165
-0.175659
-0.189906
-0.211201
-0.232105
-0.244968
-0.253974
-0.246331
-0.240577
-0.239954
-0.245942
-0.257581
-0.277707
-0.310943
-0.357064
-0.407582
-0.453192
-0.485897
-0.489936
-0.451818
-0.377702
-0.291734
-0.215684
-0.156731
-0.113524
-0.0816241
-0.0575831
-0.0404433
-0.0302009
-0.024822
-0.0210065
-0.0182529
-0.0178336
-0.0200872
-0.0235041
-0.0261973
-0.0283383
-0.0312015
-0.0330307
-0.0311156
-0.02552
-0.0183641
-0.0120393
-0.00727532
-0.00388033
-0.00161864
-0.000124047
0.00067139
0.000986278
0.000899942
0.000687251
0.00040708
0.000201261
-0.388375
-0.340519
-0.293164
-0.244446
-0.197439
-0.157151
-0.126573
-0.103213
-0.101847
-0.104549
-0.120051
-0.139821
-0.155062
-0.175954
-0.18004
-0.187973
-0.196844
-0.209595
-0.227264
-0.253852
-0.293418
-0.343536
-0.394795
-0.439826
-0.472705
-0.47837
-0.442783
-0.371708
-0.288328
-0.213487
-0.154426
-0.110199
-0.0772859
-0.0520134
-0.0333291
-0.0211289
-0.0143356
-0.0100829
-0.00798849
-0.00947472
-0.0143613
-0.0202036
-0.0247467
-0.0286968
-0.0330109
-0.0354114
-0.0330254
-0.0267782
-0.0191344
-0.0125466
-0.00764933
-0.00416849
-0.00184415
-0.000296115
0.000558069
0.000951124
0.000932558
0.000767859
0.000488667
0.000236068
-0.362575
-0.316786
-0.273876
-0.226609
-0.17788
-0.132492
-0.0931837
-0.0622814
-0.0443993
-0.0343291
-0.0435272
-0.0565155
-0.0713083
-0.093637
-0.108848
-0.126946
-0.144206
-0.164086
-0.188806
-0.223361
-0.270563
-0.325329
-0.377817
-0.422607
-0.455801
-0.462467
-0.430019
-0.363059
-0.283545
-0.21092
-0.152554
-0.107826
-0.0741188
-0.0480646
-0.028159
-0.0144308
-0.00618003
-0.00118198
0.000973811
-0.00178241
-0.0088585
-0.016799
-0.0230509
-0.0288293
-0.0345599
-0.0374577
-0.0344437
-0.0277135
-0.0197277
-0.0129684
-0.00798212
-0.00443944
-0.00206278
-0.000469079
0.00043591
0.000891976
0.000933107
0.000813159
0.000542303
0.000259125
-0.337314
-0.296056
-0.259118
-0.21675
-0.17147
-0.12675
-0.0838717
-0.0449918
-0.0144318
0.00596835
0.0132906
0.00929911
-6.0896e-05
-0.0194156
-0.0384162
-0.0616007
-0.0860626
-0.113012
-0.145316
-0.188555
-0.244268
-0.30504
-0.360081
-0.40489
-0.437647
-0.445629
-0.415453
-0.352654
-0.277557
-0.207852
-0.150751
-0.106113
-0.0718409
-0.0453041
-0.0245804
-0.00970965
-0.000162244
0.00568487
0.00825137
0.00499474
-0.0036172
-0.0132076
-0.0210678
-0.0286856
-0.0357709
-0.0390808
-0.0353373
-0.0283546
-0.0201488
-0.0133034
-0.00827125
-0.00469007
-0.00227194
-0.000639922
0.000309659
0.000816653
0.000909683
0.000829218
0.000571518
0.000271753
-0.315009
-0.280088
-0.249362
-0.212711
-0.172682
-0.131956
-0.0912311
-0.0515598
-0.0150271
0.0155379
0.0358765
0.0449226
0.043667
0.0352828
0.0197018
-0.00255942
-0.0304244
-0.0622263
-0.100103
-0.149727
-0.21178
-0.277067
-0.334216
-0.380299
-0.4141
-0.42239
-0.396341
-0.339537
-0.270224
-0.204439
-0.149219
-0.105213
-0.0706594
-0.0436779
-0.0224301
-0.00659962
0.00402265
0.0107939
0.0139882
0.0108568
0.00136052
-0.00943331
-0.018719
-0.0280747
-0.0365055
-0.0401763
-0.0366915
-0.0287226
-0.0204047
-0.0135562
-0.00852085
-0.00492282
-0.00247334
-0.000809065
0.000180697
0.000730111
0.000868903
0.000822739
0.000581612
0.000276165
-0.297054
-0.26874
-0.241748
-0.208617
-0.172602
-0.135737
-0.0983677
-0.060094
-0.0228295
0.0112959
0.0397647
0.0643044
0.076091
0.0720415
0.0620454
0.0444495
0.0169779
-0.0175579
-0.0589769
-0.112882
-0.180354
-0.250759
-0.311755
-0.359065
-0.392017
-0.402814
-0.379526
-0.328299
-0.264997
-0.203407
-0.150129
-0.106645
-0.0717574
-0.0440333
-0.0221349
-0.00532165
0.00640128
0.0142463
0.0183481
0.0163755
0.00664036
-0.00499214
-0.0158441
-0.0271511
-0.0368354
-0.0406634
-0.0371651
-0.0288508
-0.0205427
-0.0137592
-0.00875058
-0.00514842
-0.00267274
-0.000979049
4.84486e-05
0.000634718
0.000814498
0.000798676
0.000577546
0.000274682
-0.283636
-0.265403
-0.243077
-0.214268
-0.183221
-0.151106
-0.117585
-0.082869
-0.0479474
-0.0136059
0.0180798
0.0436272
0.0657999
0.0787398
0.0805953
0.0716295
0.0501902
0.0178673
-0.022694
-0.0752992
-0.141894
-0.212466
-0.274508
-0.323956
-0.358921
-0.370455
-0.352901
-0.31052
-0.255285
-0.199025
-0.14857
-0.106303
-0.0718461
-0.043982
-0.0217949
-0.00463547
0.00769108
0.0164495
0.0217731
0.0203303
0.0115365
-0.000298838
-0.0124516
-0.0254231
-0.0363513
-0.0402969
-0.036586
-0.028553
-0.0204607
-0.0138296
-0.00889514
-0.00531892
-0.00283782
-0.00112831
-7.34885e-05
0.000540848
0.000754482
0.000763221
0.000563299
0.000268852
-0.256258
-0.251758
-0.230225
-0.201514
-0.171591
-0.141505
-0.110631
-0.0784902
-0.0457102
-0.0130878
0.017835
0.0444806
0.0667993
0.0818045
0.0886137
0.0869727
0.0722322
0.0434986
0.0049781
-0.0466631
-0.115721
-0.189968
-0.254237
-0.304482
-0.339729
-0.347903
-0.326272
-0.283068
-0.231043
-0.179937
-0.134471
-0.0960694
-0.0644174
-0.038422
-0.0174088
-0.00110636
0.0108689
0.0196201
0.0255767
0.0260987
0.0187241
0.00657759
-0.00790763
-0.0237383
-0.0364078
-0.0403515
-0.0360972
-0.0278249
-0.0199222
-0.0135423
-0.00879179
-0.00532653
-0.0029008
-0.0012141
-0.000157251
0.000469784
0.000706125
0.00072926
0.00055061
0.000260308
-0.230121
-0.228885
-0.209232
-0.181816
-0.153825
-0.126606
-0.0991786
-0.0706831
-0.041476
-0.0120897
0.0154671
0.0401787
0.0613529
0.0766872
0.0847128
0.0847733
0.0724171
0.0461948
0.00999866
-0.0394354
-0.106038
-0.177675
-0.238796
-0.28443
-0.310348
-0.315173
-0.292227
-0.252091
-0.206216
-0.161698
-0.121713
-0.0872131
-0.0581919
-0.0339779
-0.0140637
0.00141368
0.0129593
0.0218156
0.0284169
0.0292894
0.0243733
0.0122875
-0.00427123
-0.0223277
-0.0358293
-0.0391103
-0.0343509
-0.0264584
-0.0190659
-0.013106
-0.00861929
-0.00530418
-0.00295197
-0.00129844
-0.000246384
0.000388604
0.000643639
0.000682929
0.000486139
0.000246113
-0.207875
-0.206963
-0.190361
-0.166134
-0.140966
-0.116513
-0.0920916
-0.0667839
-0.0406857
-0.0148016
0.0105494
0.0331188
0.052415
0.0666328
0.0741588
0.0742368
0.0628391
0.0382341
0.00365731
-0.0429729
-0.103656
-0.167327
-0.220565
-0.25847
-0.278463
-0.278672
-0.257399
-0.223117
-0.184095
-0.14555
-0.110201
-0.0791169
-0.052489
-0.0299896
-0.0111843
0.00366574
0.0148478
0.0236589
0.030815
0.0346638
0.0300616
0.0174356
-0.00134967
-0.0209581
-0.0343267
-0.0369053
-0.0321185
-0.0248556
-0.0181036
-0.0126111
-0.00840922
-0.00525832
-0.00299017
-0.00137819
-0.000336374
0.000302859
0.000574725
0.000631264
0.00045705
0.00023005
-0.186782
-0.186369
-0.172815
-0.15182
-0.129304
-0.107246
-0.0854022
-0.0630364
-0.0399755
-0.016898
0.00535482
0.0253148
0.0423146
0.0549422
0.061606
0.061394
0.051182
0.0291443
-0.00247866
-0.0442782
-0.0964863
-0.150189
-0.194929
-0.226353
-0.242018
-0.240676
-0.222729
-0.194351
-0.161838
-0.129245
-0.0986919
-0.0711823
-0.0470486
-0.0262939
-0.00870693
0.00546135
0.0163179
0.0250503
0.0326027
0.0375571
0.0347239
0.0217658
0.00132908
-0.0190809
-0.0318045
-0.0337532
-0.0294003
-0.0230146
-0.0170171
-0.0120426
-0.00815387
-0.00518537
-0.0030136
-0.0014511
-0.000424413
0.000216152
0.000503282
0.000576608
0.000424454
0.000212973
-0.167172
-0.167715
-0.15669
-0.138562
-0.118621
-0.0990039
-0.0797656
-0.060221
-0.0401964
-0.0200016
-0.00058837
0.0169425
0.0318157
0.0429142
0.0487933
0.0485164
0.0399997
0.0215615
-0.00550907
-0.0407109
-0.0834867
-0.127564
-0.164885
-0.191167
-0.204212
-0.203234
-0.189565
-0.167638
-0.141657
-0.114539
-0.0881767
-0.0638016
-0.0419713
-0.0228809
-0.00652432
0.00690518
0.0174352
0.0260131
0.0336494
0.0391651
0.0375333
0.0246974
0.00385178
-0.0162923
-0.0280366
-0.0298491
-0.0263203
-0.0210031
-0.0158362
-0.0114118
-0.00785643
-0.00508506
-0.00302096
-0.00151571
-0.000509675
0.000128792
0.000428885
0.000518406
0.000388714
0.000195015
-0.15004
-0.150999
-0.141838
-0.126308
-0.108968
-0.0917759
-0.0750378
-0.0580903
-0.0407587
-0.0233428
-0.00654819
0.00870489
0.0216179
0.0312901
0.0365439
0.0365059
0.0298345
0.0151832
-0.00684819
-0.0353843
-0.0694758
-0.104739
-0.135182
-0.156679
-0.168657
-0.169392
-0.160229
-0.14376
-0.122966
-0.100406
-0.0778993
-0.0566187
-0.0371547
-0.0197873
-0.00469299
0.00792558
0.018083
0.0264887
0.0339677
0.0394664
0.0383319
0.0262441
0.00646435
-0.0123436
-0.0231973
-0.0254555
-0.0230615
-0.0189035
-0.0145906
-0.0107278
-0.00751869
-0.00495679
-0.00301105
-0.00157091
-0.000591434
4.12061e-05
0.000351934
0.000457303
0.000350619
0.000176379
-0.134656
-0.135708
-0.128252
-0.115165
-0.100304
-0.0855437
-0.0709541
-0.0563593
-0.0415091
-0.0266029
-0.0122108
0.000901478
0.0120021
0.0203665
0.0250841
0.0253785
0.020365
0.00908697
-0.00824701
-0.030731
-0.0572401
-0.0848437
-0.109383
-0.127653
-0.138315
-0.140478
-0.134543
-0.122272
-0.105965
-0.0875898
-0.0685991
-0.0500932
-0.0327789
-0.017039
-0.00316563
0.0086003
0.0182836
0.0264267
0.0335687
0.0386625
0.0376268
0.0268472
0.00917391
-0.00775892
-0.0179751
-0.0209991
-0.0198202
-0.0167936
-0.0133088
-0.0100009
-0.00714394
-0.00480094
-0.00298312
-0.00161556
-0.000668472
-4.54315e-05
0.000273525
0.000394032
0.000310701
0.000157295
-0.120401
-0.121821
-0.115952
-0.105028
-0.0923659
-0.0796798
-0.0672412
-0.0548174
-0.0422178
-0.0295973
-0.0174111
-0.00627212
0.00319413
0.0103863
0.0146026
0.0151902
0.0115399
0.00305044
-0.0102034
-0.0274791
-0.0477848
-0.069173
-0.0887594
-0.104111
-0.1133
-0.116076
-0.112494
-0.103613
-0.0909285
-0.075929
-0.0599074
-0.0439238
-0.0286879
-0.0145981
-0.00197511
0.00890317
0.0180257
0.0257839
0.0324412
0.0369239
0.0359124
0.0266741
0.0114465
-0.00347198
-0.0131067
-0.0168338
-0.016746
-0.0147342
-0.0120165
-0.0092421
-0.00673639
-0.00461847
-0.00293659
-0.00164849
-0.000739474
-0.000129951
0.000194625
0.000329212
0.000269438
0.000137989
-0.10765
-0.109346
-0.10476
-0.0957222
-0.0850604
-0.0743109
-0.0637943
-0.0533312
-0.0427621
-0.0321918
-0.0219735
-0.0125956
-0.00458129
0.00156735
0.00531434
0.00614672
0.00363789
-0.0025728
-0.0124777
-0.0255664
-0.0410084
-0.0573976
-0.0727378
-0.0851278
-0.09295
-0.0959348
-0.0939297
-0.0874504
-0.0775363
-0.0653821
-0.052042
-0.0383868
-0.0250709
-0.0125275
-0.00111193
0.00887129
0.0173553
0.0245889
0.030634
0.034435
0.0334508
0.0256942
0.012878
-2.5316e-05
-0.00896614
-0.0131434
-0.0139205
-0.0127661
-0.0107357
-0.0084629
-0.00630125
-0.00441108
-0.00287136
-0.0016688
-0.000803271
-0.000211218
0.000116287
0.000263638
0.000227343
0.000118656
-0.0962935
-0.0980393
-0.094525
-0.0871662
-0.0783067
-0.0693103
-0.060517
-0.0518014
-0.0430237
-0.0342502
-0.0257556
-0.0179306
-0.0111982
-0.00596351
-0.00263344
-0.00159747
-0.00317445
-0.0076034
-0.0148876
-0.0246505
-0.0362211
-0.0485896
-0.0603607
-0.0701518
-0.076612
-0.0794153
-0.0783066
-0.0735587
-0.065873
-0.0560882
-0.0450078
-0.0333752
-0.0218083
-0.010743
-0.000528551
0.00853145
0.0163122
0.0229209
0.0282764
0.031417
0.0304718
0.0240399
0.0134366
0.00246792
-0.00563745
-0.00998353
-0.0113783
-0.0109176
-0.00948645
-0.00767546
-0.00584472
-0.0041813
-0.00278784
-0.00167586
-0.000858743
-0.000288023
3.96496e-05
0.00019821
0.000184948
9.94942e-05
-0.0859977
-0.0877832
-0.0852149
-0.079324
-0.07205
-0.0646025
-0.0573259
-0.0501378
-0.0429184
-0.0357067
-0.0287125
-0.0222405
-0.0166223
-0.0121783
-0.00922179
-0.00805366
-0.00891878
-0.0119675
-0.0171787
-0.0242839
-0.0327925
-0.0419702
-0.0508329
-0.0583623
-0.0635071
-0.0659092
-0.0653138
-0.0618157
-0.0558234
-0.0479227
-0.0387494
-0.0289186
-0.0189621
-0.00928498
-0.000225366
0.00791346
0.0149575
0.0208935
0.0255468
0.0281054
0.0272334
0.0219711
0.0133221
0.00413612
-0.00305397
-0.00734126
-0.0091323
-0.00920967
-0.00828717
-0.00689235
-0.00537389
-0.00393238
-0.00268695
-0.00166934
-0.000904921
-0.000359204
-3.41638e-05
0.000133868
0.000142835
8.07246e-05
-0.0766432
-0.0785439
-0.0767826
-0.0721345
-0.0662261
-0.0601253
-0.0541664
-0.0483006
-0.0424252
-0.0365572
-0.0308501
-0.0255379
-0.0208785
-0.0171234
-0.0145154
-0.0132802
-0.0135932
-0.0155517
-0.0191408
-0.0241766
-0.0302967
-0.0369633
-0.0434798
-0.0491026
-0.0530453
-0.0549678
-0.0546096
-0.0519505
-0.0472281
-0.0408504
-0.0332898
-0.0250255
-0.0165064
-0.00810625
-0.000146115
0.00708268
0.0133759
0.0186302
0.0226219
0.0246974
0.0239432
0.019698
0.0127306
0.00513906
-0.00111214
-0.00517725
-0.00718296
-0.00765781
-0.00715439
-0.00612609
-0.00489656
-0.00366835
-0.00257014
-0.00164927
-0.000941071
-0.000423706
-0.000104068
7.15499e-05
0.000101608
6.25811e-05
-0.0683179
-0.0702897
-0.0691521
-0.0655279
-0.0607808
-0.0558374
-0.0510108
-0.0462755
-0.0415437
-0.0368147
-0.0321985
-0.0278724
-0.0240344
-0.0208775
-0.0185839
-0.0173189
-0.0172148
-0.0183472
-0.020704
-0.0241486
-0.0284193
-0.0331256
-0.0377689
-0.0418251
-0.044722
-0.0461408
-0.0458343
-0.0437372
-0.0399753
-0.0348109
-0.0285819
-0.0216606
-0.0144187
-0.00718729
-0.000259887
0.00609135
0.0116461
0.016245
0.0196485
0.0213682
0.0207402
0.0173655
0.0118189
0.00562271
0.000293001
-0.00344492
-0.00552341
-0.00627252
-0.00610235
-0.00538868
-0.00442087
-0.00339394
-0.00243955
-0.00161606
-0.000966668
-0.000480597
-0.000169034
1.21562e-05
6.1842e-05
4.52721e-05
-0.0610115
-0.0628844
-0.0622006
-0.0594269
-0.0556677
-0.0517108
-0.0478449
-0.0440634
-0.0402924
-0.0365196
-0.0328202
-0.029325
-0.0261824
-0.0235369
-0.0215254
-0.0202736
-0.0198829
-0.0204079
-0.0218369
-0.0240702
-0.026922
-0.0301162
-0.033296
-0.036104
-0.0381105
-0.0390456
-0.0386939
-0.0369685
-0.0339194
-0.0297079
-0.0245732
-0.0187973
-0.0126782
-0.00649939
-0.000523684
0.00499945
0.00984834
0.0138389
0.0167382
0.0181808
0.0177031
0.0150703
0.0107096
0.00571449
0.00123493
-0.00210156
-0.00414203
-0.0050593
-0.00514256
-0.00469131
-0.00395503
-0.00311422
-0.0022979
-0.00157078
-0.00098159
-0.000529117
-0.000228102
-4.34452e-05
2.40599e-05
2.89608e-05
-0.0543732
-0.0561578
-0.0558631
-0.0538037
-0.050872
-0.0477412
-0.0446776
-0.0416898
-0.0387163
-0.0357367
-0.0327985
-0.0299953
-0.0274365
-0.0252302
-0.0234797
-0.0222785
-0.0217013
-0.0217876
-0.0225301
-0.0238623
-0.0256507
-0.0276941
-0.0297415
-0.0315763
-0.0328572
-0.0333646
-0.0329202
-0.0314331
-0.0289105
-0.0254473
-0.0212068
-0.0163972
-0.0112523
-0.00600893
-0.000896932
0.00386033
0.00805271
0.0114927
0.0139673
0.0152002
0.0148788
0.0128722
0.00949442
0.0055252
0.00180635
-0.00110033
-0.00302149
-0.00401871
-0.00428339
-0.00404375
-0.00350718
-0.00283462
-0.00214807
-0.00151477
-0.000986228
-0.000568941
-0.000280547
-9.44746e-05
-1.12239e-05
1.38043e-05
-0.0483666
-0.0501168
-0.0501318
-0.0486391
-0.0463775
-0.0439247
-0.0415218
-0.0391866
-0.0368674
-0.0345382
-0.032226
-0.0299957
-0.0279264
-0.0260977
-0.0245854
-0.023458
-0.0227716
-0.0225576
-0.0228136
-0.0234929
-0.0245013
-0.025688
-0.0268497
-0.0279693
-0.0286766
-0.0288236
-0.028271
-0.0269369
-0.0248064
-0.0219299
-0.0184155
-0.0144139
-0.0101052
-0.00568255
-0.00134189
0.0027217
0.00631792
0.00926924
0.0113883
0.0124661
0.0122944
0.0108068
0.00823999
0.00513333
0.00209618
-0.000390453
-0.00213936
-0.00314715
-0.00353018
-0.00345392
-0.00308477
-0.00256101
-0.0019937
-0.00144953
-0.000980862
-0.000599958
-0.000326104
-0.000140452
-4.35535e-05
-3.41174e-08
-0.0430601
-0.044707
-0.0449221
-0.0438708
-0.0421534
-0.0402562
-0.038394
-0.0365902
-0.0348025
-0.0330022
-0.0312012
-0.0294421
-0.0277806
-0.0262737
-0.0249767
-0.0239406
-0.0232083
-0.0228044
-0.0227286
-0.0229512
-0.0234097
-0.0240086
-0.0246487
-0.025109
-0.025342
-0.0251911
-0.0245368
-0.0233051
-0.0214703
-0.0190549
-0.0161283
-0.0127975
-0.00919931
-0.00548709
-0.00182425
0.00162295
0.00468802
0.00721203
0.00903477
0.00999806
0.00996214
0.00889735
0.00696924
0.00457937
0.00215596
7.54754e-05
-0.00146978
-0.00243652
-0.00288499
-0.00292815
-0.00269427
-0.00229865
-0.00183896
-0.00137782
-0.000966435
-0.000621832
-0.000364218
-0.000181029
-7.27105e-05
-1.24795e-05
-0.0382823
-0.0398051
-0.0401663
-0.0394683
-0.0381913
-0.0367444
-0.0353188
-0.033943
-0.0325828
-0.0312084
-0.0298208
-0.0284459
-0.0271217
-0.0258886
-0.0247868
-0.0238538
-0.0231219
-0.0226099
-0.0223198
-0.0222323
-0.0223057
-0.0224739
-0.0226596
-0.0227356
-0.0226386
-0.0222679
-0.0215355
-0.0203803
-0.0187743
-0.0167242
-0.0142734
-0.0114968
-0.00849627
-0.00539156
-0.00231567
0.0005929
0.00319263
0.00534742
0.00692366
0.00780072
0.0078834
0.00716209
0.00575802
0.00394505
0.00204367
0.000341824
-0.000986589
-0.00187577
-0.00234645
-0.00247028
-0.00234154
-0.0020525
-0.00168701
-0.00130213
-0.000945308
-0.000635891
-0.000394701
-0.000215298
-9.82515e-05
-2.3588e-05
-0.0339608
-0.035377
-0.0358417
-0.0354145
-0.0344843
-0.033396
-0.0323192
-0.0312847
-0.0302647
-0.0292299
-0.0281739
-0.0271105
-0.0260647
-0.0250643
-0.024138
-0.0233131
-0.0226138
-0.0220546
-0.0216392
-0.0213553
-0.0211738
-0.0210484
-0.0209278
-0.0207349
-0.0204136
-0.0198939
-0.0191132
-0.0180245
-0.0166023
-0.0148458
-0.0127815
-0.0104608
-0.00795906
-0.00536812
-0.00279391
-0.000349073
0.00184922
0.00368784
0.00505796
0.00586693
0.0060479
0.00560028
0.00461112
0.00327033
0.0018096
0.000448552
-0.000663134
-0.00145137
-0.00191087
-0.00208178
-0.00203039
-0.0018276
-0.00154202
-0.00122418
-0.000917825
-0.000643089
-0.000419285
-0.000244493
-0.000119753
-3.26763e-05
-0.0300842
-0.0313826
-0.0319039
-0.0316789
-0.0310201
-0.0302161
-0.0294159
-0.0286513
-0.0278999
-0.027134
-0.0263423
-0.0255303
-0.0247133
-0.0239098
-0.0231401
-0.0224237
-0.0217791
-0.0212175
-0.0207418
-0.0203449
-0.0200078
-0.0196987
-0.0193841
-0.0190157
-0.0185513
-0.0179415
-0.0171425
-0.0161193
-0.0148517
-0.0133354
-0.0115867
-0.00964095
-0.00755303
-0.0053925
-0.00324206
-0.00119137
0.000664766
0.00223454
0.00343095
0.0041829
0.00444154
0.00420872
0.00354596
0.00258524
0.00149176
0.000430705
-0.000473691
-0.00114805
-0.00157194
-0.0017628
-0.00176349
-0.00162693
-0.00140789
-0.00114822
-0.000885992
-0.000642465
-0.000436228
-0.000268215
-0.000139136
-4.11298e-05
-0.0265903
-0.0277673
-0.0283149
-0.0282401
-0.0277922
-0.027212
-0.0266294
-0.0260762
-0.0255351
-0.0249804
-0.024398
-0.0237877
-0.0231579
-0.0225205
-0.0218895
-0.0212788
-0.020702
-0.0201676
-0.0196785
-0.0192312
-0.0188124
-0.0184008
-0.0179757
-0.017506
-0.0169623
-0.0163103
-0.0155197
-0.0145657
-0.0134333
-0.0121178
-0.0106295
-0.00899239
-0.00724659
-0.00544398
-0.00364814
-0.00192904
-0.000361777
0.000980812
0.00202993
0.00273112
0.0030476
0.00298021
0.00257157
0.00191319
0.00112156
0.000319573
-0.000393474
-0.000949888
-0.00132151
-0.00151058
-0.00154258
-0.00145394
-0.00128669
-0.00107611
-0.00085387
-0.000638619
-0.00044712
-0.000284938
-0.000152988
-4.80593e-05
-0.0234377
-0.0244977
-0.0250487
-0.0250817
-0.0247951
-0.0243891
-0.0239765
-0.0235878
-0.02321
-0.0228197
-0.0224019
-0.0219527
-0.0214756
-0.0209779
-0.0204689
-0.0199581
-0.0194559
-0.0189685
-0.0184983
-0.0180434
-0.0175964
-0.0171424
-0.0166677
-0.0161524
-0.0155781
-0.0149214
-0.0141617
-0.013282
-0.012272
-0.0111279
-0.00985672
-0.00847493
-0.00701167
-0.00550536
-0.00400428
-0.00256195
-0.00123676
-8.55474e-05
0.000837957
0.00149183
0.0018479
0.00190522
0.00169201
0.00127112
0.000724463
0.000141603
-0.000399528
-0.000840097
-0.00114986
-0.00132126
-0.00136625
-0.00130993
-0.00118228
-0.00101006
-0.000820164
-0.000631208
-0.000456952
-0.000301025
-0.000164902
-5.12875e-05
-0.0205972
-0.021543
-0.0220793
-0.0221868
-0.0220224
-0.0217514
-0.0214709
-0.0212094
-0.0209574
-0.0206944
-0.0204053
-0.020084
-0.019731
-0.0193502
-0.0189476
-0.0185297
-0.0181038
-0.0176749
-0.0172445
-0.0168117
-0.0163726
-0.0159171
-0.0154358
-0.0149163
-0.0143476
-0.0137144
-0.0130032
-0.0122024
-0.0113058
-0.0103109
-0.00922315
-0.00805381
-0.00682428
-0.00556279
-0.00430564
-0.00309318
-0.00197009
-0.000979951
-0.000164459
0.000444298
0.000824129
0.000972526
0.000907381
0.000670636
0.000319543
-8.0709e-05
-0.000471502
-0.000803144
-0.00104626
-0.0011887
-0.00123348
-0.00119478
-0.00109416
-0.000952686
-0.000789592
-0.000619941
-0.000456662
-0.000309016
-0.000177152
-6.06879e-05
-0.0180389
-0.0188755
-0.019385
-0.0195417
-0.0194687
-0.0193016
-0.0191231
-0.0189597
-0.0188042
-0.018639
-0.0184499
-0.0182298
-0.0179773
-0.0176938
-0.0173833
-0.0170498
-0.0166986
-0.0163332
-0.0159549
-0.015563
-0.0151556
-0.0147254
-0.0142666
-0.0137716
-0.0132341
-0.0126444
-0.0119939
-0.0112752
-0.0104849
-0.00962206
-0.00869111
-0.00770015
-0.00666489
-0.00560585
-0.00455029
-0.00352828
-0.00257354
-0.00171915
-0.000997009
-0.000431972
-4.15215e-05