/*--------------------------------*- C++ -*----------------------------------*\
| =========                 |                                                 |
| \\      /  F ield         | OpenFOAM: The Open Source CFD Toolbox           |
|  \\    /   O peration     | Version:  2512                                  |
|   \\  /    A nd           | Website:  www.openfoam.com                      |
|    \\/     M anipulation  |                                                 |
\*---------------------------------------------------------------------------*/
FoamFile
{
    version     2.0;
    format      ascii;
    arch        "LSB;label=32;scalar=64";
    class       volScalarField;
    location    "197.15";
    object      p;
}
// * * * * * * * * * * * * * * * * * * * * * * * * * * * * * * * * * * * * * //

dimensions      [0 2 -2 0 0 0 0];

internalField   nonuniform List<scalar> 
13248
(
-0.317396
-0.318132
-0.316788
-0.313922
-0.309725
-0.30437
-0.298277
-0.291878
-0.285969
-0.281051
-0.277395
-0.274972
-0.273452
-0.272291
-0.270869
-0.268653
-0.265312
-0.260732
-0.254885
-0.247918
-0.23939
-0.229855
-0.217436
-0.203123
-0.323487
-0.323445
-0.32181
-0.319061
-0.315357
-0.310777
-0.30551
-0.29984
-0.294104
-0.288552
-0.283303
-0.278322
-0.273438
-0.268414
-0.263035
-0.257167
-0.250733
-0.243678
-0.235928
-0.227357
-0.217891
-0.207439
-0.195651
-0.183742
-0.331782
-0.330667
-0.328415
-0.325422
-0.321831
-0.317637
-0.312778
-0.307199
-0.300903
-0.293981
-0.286577
-0.278837
-0.270881
-0.262793
-0.254618
-0.24635
-0.237925
-0.229266
-0.220243
-0.210857
-0.200891
-0.190494
-0.179405
-0.168042
-0.341895
-0.339519
-0.336416
-0.332889
-0.329101
-0.324871
-0.319802
-0.3135
-0.305812
-0.296892
-0.287098
-0.276842
-0.266472
-0.256209
-0.246138
-0.236243
-0.226463
-0.216703
-0.2069
-0.196959
-0.186823
-0.176599
-0.166012
-0.155902
-0.353965
-0.350249
-0.346187
-0.342007
-0.337723
-0.332876
-0.326723
-0.318732
-0.308883
-0.29761
-0.285531
-0.273215
-0.261051
-0.249239
-0.237831
-0.226799
-0.216071
-0.205573
-0.195221
-0.184975
-0.174796
-0.164695
-0.154587
-0.144886
-0.368455
-0.363339
-0.35832
-0.353358
-0.348134
-0.341817
-0.333513
-0.322913
-0.310393
-0.2967
-0.282582
-0.268592
-0.255042
-0.242058
-0.229648
-0.217761
-0.206329
-0.195276
-0.184547
-0.174091
-0.163869
-0.153892
-0.14408
-0.134776
-0.385755
-0.379179
-0.373176
-0.367174
-0.360291
-0.35142
-0.33993
-0.326073
-0.310677
-0.294665
-0.278744
-0.26334
-0.248644
-0.234702
-0.22148
-0.208917
-0.196942
-0.185488
-0.174493
-0.163905
-0.153692
-0.143809
-0.134243
-0.125154
-0.405959
-0.397886
-0.390771
-0.383217
-0.373666
-0.36111
-0.345644
-0.328216
-0.309964
-0.291788
-0.274238
-0.25757
-0.241857
-0.227077
-0.213167
-0.200051
-0.187651
-0.175892
-0.16471
-0.154048
-0.143851
-0.134081
-0.124732
-0.115814
-0.428792
-0.419201
-0.410685
-0.40076
-0.387359
-0.370163
-0.350293
-0.329269
-0.308302
-0.288119
-0.269058
-0.251217
-0.23457
-0.219041
-0.204537
-0.190964
-0.178232
-0.16626
-0.154969
-0.144292
-0.134167
-0.124544
-0.115399
-0.106634
-0.453455
-0.442392
-0.431996
-0.418593
-0.400201
-0.377753
-0.353393
-0.328929
-0.30543
-0.283376
-0.262899
-0.243961
-0.226455
-0.210258
-0.195246
-0.181305
-0.16833
-0.156221
-0.144893
-0.134263
-0.124259
-0.11483
-0.105911
-0.0973536
-0.478747
-0.466235
-0.453235
-0.435111
-0.410811
-0.382857
-0.354144
-0.326472
-0.300639
-0.276859
-0.255079
-0.235146
-0.216885
-0.200126
-0.184714
-0.170511
-0.157391
-0.145244
-0.133968
-0.123471
-0.113677
-0.10452
-0.0958927
-0.0876627
-0.503054
-0.489105
-0.472543
-0.448521
-0.417719
-0.38428
-0.351485
-0.320897
-0.292972
-0.267666
-0.244759
-0.223999
-0.205144
-0.187979
-0.172316
-0.157991
-0.144859
-0.132793
-0.121678
-0.111416
-0.101932
-0.0931507
-0.0849462
-0.0772414
-0.399347
-0.400792
-0.401036
-0.401188
-0.401929
-0.403525
-0.406106
-0.409786
-0.414696
-0.420988
-0.428827
-0.438378
-0.449781
-0.463127
-0.47844
-0.49564
-0.5145
-0.534618
-0.555406
-0.576117
-0.59574
-0.613124
-0.627252
-0.636535
-0.387454
-0.387618
-0.38693
-0.386105
-0.385743
-0.386166
-0.387582
-0.390199
-0.39428
-0.400134
-0.408091
-0.418474
-0.431545
-0.44745
-0.466179
-0.48753
-0.511072
-0.536094
-0.56166
-0.586667
-0.609934
-0.629792
-0.64521
-0.654849
-0.377095
-0.37606
-0.374595
-0.372975
-0.3717
-0.371135
-0.371532
-0.373168
-0.376386
-0.381594
-0.38921
-0.399637
-0.413204
-0.430062
-0.450151
-0.473159
-0.49849
-0.525269
-0.552431
-0.578606
-0.603049
-0.624414
-0.638233
-0.646576
-0.367496
-0.365554
-0.363469
-0.361205
-0.359092
-0.357526
-0.356828
-0.357318
-0.359373
-0.363444
-0.370006
-0.379491
-0.392242
-0.408423
-0.427943
-0.450427
-0.475204
-0.501255
-0.527516
-0.552214
-0.574656
-0.591599
-0.607965
-0.616317
-0.358234
-0.355794
-0.353306
-0.350486
-0.347513
-0.344806
-0.342766
-0.341775
-0.342245
-0.344639
-0.349449
-0.357127
-0.368026
-0.382313
-0.399904
-0.420426
-0.443247
-0.467332
-0.49176
-0.514965
-0.536473
-0.554165
-0.56825
-0.574531
-0.34918
-0.346709
-0.344064
-0.340792
-0.336935
-0.332905
-0.329205
-0.326335
-0.324789
-0.325069
-0.32768
-0.333085
-0.341644
-0.353539
-0.368725
-0.386875
-0.407408
-0.429484
-0.452332
-0.474455
-0.495145
-0.511605
-0.523895
-0.526951
-0.34042
-0.33835
-0.335795
-0.332218
-0.327532
-0.322107
-0.316546
-0.311516
-0.307664
-0.305595
-0.305871
-0.308979
-0.315299
-0.325033
-0.338172
-0.354473
-0.373344
-0.394125
-0.415827
-0.436622
-0.455316
-0.469145
-0.477252
-0.47454
-0.332093
-0.330793
-0.328526
-0.324806
-0.319468
-0.312814
-0.305513
-0.298398
-0.292312
-0.288025
-0.286214
-0.287439
-0.292117
-0.300481
-0.312446
-0.327759
-0.345916
-0.365497
-0.385239
-0.403096
-0.417504
-0.425866
-0.426988
-0.417192
-0.324658
-0.324214
-0.322292
-0.318547
-0.312817
-0.305333
-0.296795
-0.288162
-0.280448
-0.27461
-0.271478
-0.2717
-0.275699
-0.283589
-0.295204
-0.309738
-0.326175
-0.342903
-0.358511
-0.370822
-0.378788
-0.380247
-0.374889
-0.360492
-0.318429
-0.318944
-0.317326
-0.31364
-0.30782
-0.300049
-0.291063
-0.281887
-0.273639
-0.267384
-0.264037
-0.264201
-0.268091
-0.275521
-0.285869
-0.298089
-0.310818
-0.322519
-0.331836
-0.337253
-0.338633
-0.334767
-0.326773
-0.312458
-0.314752
-0.315767
-0.314331
-0.31079
-0.305224
-0.297857
-0.28927
-0.280623
-0.272932
-0.267227
-0.264226
-0.264342
-0.26756
-0.273389
-0.280924
-0.289009
-0.296284
-0.301666
-0.304147
-0.303464
-0.299915
-0.293564
-0.286171
-0.274483
-0.314319
-0.315424
-0.31409
-0.310851
-0.305886
-0.299393
-0.291892
-0.284456
-0.277788
-0.272699
-0.269762
-0.269137
-0.270559
-0.273377
-0.276678
-0.279485
-0.280895
-0.280412
-0.277657
-0.273042
-0.266415
-0.258489
-0.249736
-0.239368
-0.642278
-0.638634
-0.61884
-0.577042
-0.510728
-0.428755
-0.348001
-0.281918
-0.236071
-0.209952
-0.201411
-0.207002
-0.225729
-0.260786
-0.310578
-0.359241
-0.382579
-0.363642
-0.310717
-0.247961
-0.194238
-0.156281
-0.134572
-0.127218
-0.132192
-0.152643
-0.193527
-0.248185
-0.291987
-0.296119
-0.258866
-0.202528
-0.151944
-0.118079
-0.100609
-0.0995702
-0.116901
-0.143397
-0.157462
-0.145565
-0.119289
-0.0955395
-0.08142
-0.0794019
-0.0867551
-0.0952877
-0.0945774
-0.0857073
-0.0711744
-0.0593514
-0.0525272
-0.0506072
-0.045993
-0.0404275
-0.0346649
-0.0368236
-0.0354224
-0.0323678
-0.0158354
-0.00632833
-0.659859
-0.654415
-0.634529
-0.593316
-0.526355
-0.442679
-0.359338
-0.28993
-0.240115
-0.208475
-0.193097
-0.192181
-0.204072
-0.230779
-0.272103
-0.315799
-0.338564
-0.324113
-0.27987
-0.226416
-0.180119
-0.147185
-0.12959
-0.126075
-0.135037
-0.160373
-0.20728
-0.26767
-0.315829
-0.321112
-0.280703
-0.218292
-0.160803
-0.120447
-0.0969001
-0.0894569
-0.09966
-0.11977
-0.130358
-0.120538
-0.100609
-0.0841143
-0.0770085
-0.08211
-0.096475
-0.110096
-0.109935
-0.0984164
-0.0789619
-0.0613805
-0.0484633
-0.0414284
-0.035104
-0.0307512
-0.0315198
-0.040405
-0.0448644
-0.0445022
-0.021663
-0.00584301
-0.64973
-0.642841
-0.624309
-0.584118
-0.518724
-0.43691
-0.355175
-0.286588
-0.235938
-0.201726
-0.181362
-0.173491
-0.177557
-0.194727
-0.225776
-0.262215
-0.284713
-0.276309
-0.242548
-0.199512
-0.160904
-0.133359
-0.120178
-0.120401
-0.13299
-0.162511
-0.213958
-0.278465
-0.330409
-0.33884
-0.297019
-0.230065
-0.166806
-0.120951
-0.0921214
-0.0788754
-0.0826398
-0.0970251
-0.104731
-0.0966773
-0.0821907
-0.0720896
-0.071781
-0.0843018
-0.106114
-0.125124
-0.125352
-0.11072
-0.086215
-0.0631061
-0.0445122
-0.0324353
-0.024367
-0.0211209
-0.0283885
-0.0436355
-0.0538507
-0.0562998
-0.0276917
-0.00536683
-0.617212
-0.609691
-0.593086
-0.554175
-0.490871
-0.414214
-0.338973
-0.275002
-0.225768
-0.1907
-0.167545
-0.154607
-0.151155
-0.158559
-0.178538
-0.20607
-0.226728
-0.224617
-0.201357
-0.168543
-0.137584
-0.11544
-0.106353
-0.109812
-0.125151
-0.1571
-0.211019
-0.278788
-0.334369
-0.34766
-0.306516
-0.237083
-0.169598
-0.119567
-0.0865132
-0.0684549
-0.0666299
-0.0760468
-0.0813036
-0.0745326
-0.0643141
-0.0595324
-0.065588
-0.0855677
-0.115218
-0.140005
-0.140604
-0.122409
-0.0927799
-0.0644504
-0.0407571
-0.0238096
-0.0140032
-0.0116416
-0.0252039
-0.046418
-0.0621562
-0.0675834
-0.0338743
-0.00491445
-0.571468
-0.562084
-0.546912
-0.509975
-0.451156
-0.382578
-0.316191
-0.258804
-0.212596
-0.177559
-0.152631
-0.136302
-0.12764
-0.126712
-0.135905
-0.153795
-0.170541
-0.17439
-0.158548
-0.135162
-0.111464
-0.0943055
-0.0887139
-0.0948654
-0.111983
-0.144615
-0.198644
-0.26772
-0.326579
-0.347543
-0.308217
-0.239099
-0.169366
-0.116525
-0.0803792
-0.0585407
-0.0520522
-0.0572398
-0.0605244
-0.0544741
-0.0472517
-0.0465268
-0.0581536
-0.0854436
-0.123307
-0.154239
-0.155371
-0.13332
-0.0985764
-0.0653819
-0.0372653
-0.0157145
-0.00420419
-0.00240148
-0.0219023
-0.0486609
-0.0695709
-0.0781873
-0.0401472
-0.00451291
-0.517478
-0.50388
-0.489575
-0.455879
-0.404279
-0.346526
-0.29069
-0.240758
-0.198567
-0.164506
-0.138409
-0.119557
-0.106922
-0.100201
-0.100689
-0.109014
-0.11977
-0.12485
-0.116314
-0.101426
-0.0841274
-0.0713554
-0.0686803
-0.0769495
-0.0950708
-0.126871
-0.178289
-0.245631
-0.306492
-0.331439
-0.300481
-0.235689
-0.166284
-0.11209
-0.0740019
-0.0493576
-0.0391059
-0.0408295
-0.0426227
-0.0375881
-0.0312748
-0.0332703
-0.0495666
-0.0837089
-0.129678
-0.167168
-0.16922
-0.143247
-0.10351
-0.0658701
-0.0340998
-0.00829904
0.0048714
0.00648656
-0.0184422
-0.0502788
-0.0759176
-0.0879571
-0.0464236
-0.00418753
-0.456531
-0.43861
-0.426502
-0.398615
-0.356918
-0.311149
-0.265933
-0.223436
-0.185497
-0.15307
-0.126462
-0.105626
-0.0899322
-0.0787687
-0.0726555
-0.0728749
-0.0775223
-0.0815926
-0.0776755
-0.0692229
-0.057197
-0.0481751
-0.0477342
-0.0574574
-0.0760199
-0.105846
-0.152437
-0.214935
-0.275016
-0.30483
-0.284209
-0.227169
-0.160685
-0.106664
-0.0677406
-0.0411651
-0.0279404
-0.0268207
-0.0274969
-0.0220787
-0.0166598
-0.0202561
-0.039871
-0.0799376
-0.133881
-0.178125
-0.181736
-0.152049
-0.107526
-0.0658932
-0.031281
-0.0016887
0.0130883
0.0149229
-0.0148095
-0.051236
-0.0810706
-0.096767
-0.0525962
-0.00395155
-0.391709
-0.372802
-0.364914
-0.344445
-0.313384
-0.278857
-0.243066
-0.207456
-0.173921
-0.143757
-0.117487
-0.095426
-0.0775061
-0.0631568
-0.0523126
-0.0460986
-0.0448258
-0.0463951
-0.0477688
-0.0400993
-0.0321133
-0.0261462
-0.0273456
-0.0378484
-0.0561732
-0.0833035
-0.124166
-0.179622
-0.236767
-0.271183
-0.261345
-0.214309
-0.152935
-0.100483
-0.0617869
-0.0341203
-0.0186185
-0.0150912
-0.0150109
-0.00920874
-0.00385294
-0.00786739
-0.029443
-0.0742092
-0.135106
-0.186204
-0.192085
-0.159426
-0.110556
-0.0654267
-0.0287697
0.00403564
0.0203478
0.0227758
-0.0110129
-0.0514985
-0.0849467
-0.104522
-0.0585372
-0.00381485
-0.332432
-0.316634
-0.313056
-0.299095
-0.276928
-0.25135
-0.223161
-0.193522
-0.164159
-0.136482
-0.111203
-0.0886966
-0.0693163
-0.0528893
-0.0390222
-0.0282513
-0.0216134
-0.0188383
-0.0179736
-0.0138035
-0.00942183
-0.00613105
-0.00845275
-0.0191202
-0.0370218
-0.0614244
-0.0955824
-0.142871
-0.195405
-0.232553
-0.234077
-0.198086
-0.143356
-0.0936306
-0.0560743
-0.0281628
-0.0110518
-0.00545503
-0.00488084
0.000979729
0.00682907
0.00346157
-0.0184206
-0.0659058
-0.133455
-0.191106
-0.199908
-0.165331
-0.112558
-0.0644528
-0.0265355
0.00883086
0.026571
0.029993
-0.00705841
-0.0511323
-0.087548
-0.111213
-0.0641215
-0.00379491
-0.287827
-0.276299
-0.274355
-0.263842
-0.24743
-0.228094
-0.205774
-0.181269
-0.155882
-0.130786
-0.106878
-0.0846326
-0.0644949
-0.0467381
-0.0311112
-0.0176326
-0.00707508
2.73294e-05
0.00407492
0.00651367
0.00993376
0.0110808
0.00778658
-0.00244949
-0.019298
-0.0409775
-0.0695363
-0.108429
-0.153415
-0.191966
-0.199989
-0.177527
-0.131816
-0.0863028
-0.0507585
-0.0234288
-0.00525931
0.00217229
0.00316751
0.008698
0.015259
0.0132363
-0.00763796
-0.0559942
-0.127888
-0.191588
-0.204071
-0.169105
-0.113501
-0.0630607
-0.0247099
0.0125563
0.0317433
0.0364117
-0.00300107
-0.0501112
-0.0888366
-0.116124
-0.0692246
-0.00392374
-0.25624
-0.248874
-0.246596
-0.237406
-0.224599
-0.209664
-0.191974
-0.171799
-0.149977
-0.127433
-0.105085
-0.0835815
-0.0633604
-0.0448017
-0.0279759
-0.0128218
0.000287998
0.0108674
0.0183733
0.0230109
0.0264707
0.0252036
0.0214587
0.0120229
-0.0035247
-0.0227129
-0.0455636
-0.0763406
-0.116028
-0.154624
-0.178905
-0.159898
-0.121507
-0.0801994
-0.0466941
-0.0203455
-0.00140357
0.0078855
0.00940569
0.0140572
0.0219206
0.0217918
0.00328568
-0.0440653
-0.119051
-0.189289
-0.205237
-0.171522
-0.113895
-0.0615888
-0.0232656
0.015041
0.0357007
0.0421232
0.00120507
-0.0486488
-0.0889737
-0.119619
-0.0736547
-0.00421404
-0.230837
-0.22883
-0.225097
-0.2159
-0.205189
-0.19341
-0.179669
-0.163612
-0.145439
-0.125754
-0.105388
-0.0850567
-0.065319
-0.0466476
-0.0292335
-0.0131305
0.00125173
0.0135992
0.0241133
0.0319397
0.0350367
0.0350087
0.0310206
0.0233273
0.00971785
-0.00783197
-0.026919
-0.0508908
-0.0822575
-0.115181
-0.135772
-0.130894
-0.105096
-0.0712161
-0.040876
-0.0164042
0.0022035
0.0128188
0.0149829
0.0182996
0.0257138
0.0273929
0.0122104
-0.031668
-0.106285
-0.181069
-0.201027
-0.17035
-0.112637
-0.0591695
-0.020891
0.0173607
0.0385292
0.0466387
0.00545461
-0.0465596
-0.0878144
-0.121707
-0.0770086
-0.00456241
-0.20665
-0.215563
-0.210388
-0.198901
-0.186346
-0.173846
-0.160679
-0.145917
-0.129254
-0.111085
-0.0922103
-0.073334
-0.054942
-0.0374051
-0.0208464
-0.00524222
0.00902993
0.0216102
0.032694
0.0415967
0.0465875
0.0448512
0.039666
0.0323108
0.0218485
0.00848346
-0.00711756
-0.0273326
-0.0558293
-0.0898198
-0.114622
-0.112008
-0.087886
-0.0575104
-0.0304
-0.00886317
0.00783533
0.0179532
0.0200869
0.0224903
0.0301718
0.0347629
0.0228566
-0.0176554
-0.0913943
-0.171428
-0.196686
-0.166885
-0.107557
-0.0538275
-0.0168131
0.020471
0.041454
0.0509831
0.00991624
-0.0441908
-0.0859148
-0.122654
-0.0792441
-0.00490926
-0.180248
-0.191965
-0.188607
-0.176936
-0.163879
-0.151669
-0.139789
-0.126929
-0.112384
-0.0963125
-0.0794057
-0.0623384
-0.0455836
-0.0294503
-0.0140088
0.000648525
0.0140444
0.0259123
0.0365465
0.0452581
0.0495289
0.0488806
0.0440926
0.0376211
0.0293471
0.01867
0.00603813
-0.0102445
-0.0357926
-0.068317
-0.0915954
-0.0895591
-0.0690861
-0.043471
-0.0203789
-0.00202113
0.0123465
0.0217358
0.0238821
0.0256546
0.0331315
0.0383162
0.0290755
-0.00777568
-0.0789114
-0.16084
-0.188864
-0.159277
-0.100749
-0.0478009
-0.0127476
0.0229383
0.0434795
0.0534994
0.0131474
-0.0422912
-0.0836287
-0.122191
-0.0806359
-0.00538395
-0.157056
-0.169148
-0.167604
-0.157465
-0.145372
-0.134006
-0.123243
-0.111872
-0.0990364
-0.0846849
-0.0693672
-0.0537214
-0.0382133
-0.023145
-0.00865107
0.00522057
0.0180944
0.0294796
0.0394868
0.0478224
0.0525216
0.052027
0.0475087
0.0418052
0.0351481
0.0257607
0.0147205
0.00189073
-0.0184391
-0.0464999
-0.0682896
-0.0680069
-0.0519015
-0.0310442
-0.0116546
0.00405713
0.0164037
0.0250453
0.0269568
0.0281391
0.0354259
0.0409373
0.0325943
-0.00188074
-0.069287
-0.147898
-0.176275
-0.148713
-0.0928329
-0.0415683
-0.00878276
0.0248145
0.0447966
0.0548454
0.0152262
-0.0408963
-0.0806844
-0.120196
-0.0811838
-0.00601301
-0.137321
-0.148114
-0.147723
-0.139253
-0.128285
-0.117653
-0.107626
-0.0972943
-0.0858329
-0.0730507
-0.0593153
-0.0451634
-0.0310522
-0.017254
-0.00389094
0.00893812
0.0209332
0.0316427
0.0410332
0.0488733
0.0536743
0.0537971
0.0501293
0.045608
0.0409714
0.0340401
0.0256845
0.0158988
-0.000955393
-0.0270567
-0.0467124
-0.0473096
-0.0350466
-0.0188377
-0.00320032
0.00988232
0.019996
0.0276724
0.0291947
0.0299774
0.0368019
0.0426711
0.0350303
0.00265245
-0.0586975
-0.131037
-0.159467
-0.13488
-0.0834053
-0.0348979
-0.0046813
0.0261824
0.045275
0.0551615
0.016676
-0.0393048
-0.0768392
-0.116602
-0.0806373
-0.00673801
-0.118949
-0.128726
-0.129025
-0.121972
-0.112215
-0.102479
-0.0932968
-0.0840615
-0.0740092
-0.0628138
-0.0506587
-0.0379681
-0.0251596
-0.0125248
-0.00021546
0.0116424
0.0227929
0.0328223
0.0416039
0.0489456
0.0537669
0.0545943
0.0521832
0.0491928
0.0470419
0.0442454
0.0396975
0.0309175
0.0137241
-0.0104018
-0.0267254
-0.0279225
-0.0196227
-0.0078914
0.00422576
0.0150638
0.0232321
0.0298445
0.0307915
0.0312363
0.0373581
0.0432248
0.0365178
0.00747871
-0.0456429
-0.110749
-0.138539
-0.117906
-0.0726891
-0.0281446
-0.000766737
0.0269853
0.0448975
0.0543947
0.0179138
-0.0371692
-0.0720956
-0.111237
-0.0788195
-0.00750444
-0.101962
-0.111003
-0.111694
-0.105832
-0.0973301
-0.0886397
-0.0803886
-0.0721719
-0.0633181
-0.0534608
-0.0426747
-0.0313012
-0.0197309
-0.00826505
0.00294465
0.0137734
0.0240005
0.0332779
0.0414512
0.0483006
0.0530885
0.0546811
0.0536941
0.0523174
0.0521794
0.0525029
0.0505838
0.0420999
0.0251991
0.00479853
-0.00836706
-0.0107209
-0.00595179
0.00201304
0.010987
0.0197177
0.0261382
0.0315584
0.0319004
0.0320305
0.0372753
0.0426357
0.0372936
0.0126741
-0.0316132
-0.0883597
-0.114558
-0.098392
-0.0608464
-0.0214158
0.00283083
0.0272586
0.0437051
0.0524982
0.0189704
-0.0344972
-0.0665069
-0.104048
-0.0755519
-0.00821573
-0.086901
-0.0949202
-0.0958181
-0.0909804
-0.0836513
-0.0759908
-0.0686439
-0.0613477
-0.0535487
-0.0448972
-0.0354026
-0.0253277
-0.0150001
-0.0046922
0.00543842
0.015258
0.0245791
0.0331139
0.0406985
0.0471259
0.0518553
0.0541163
0.0543754
0.0543018
0.055269
0.0567012
0.055879
0.0488585
0.0346289
0.0183647
0.00747168
0.00379551
0.00562396
0.010527
0.0168122
0.0236548
0.0287212
0.0329409
0.032815
0.0325839
0.0368614
0.0411411
0.0371651
0.0170317
-0.0181994
-0.065254
-0.0888344
-0.077294
-0.048203
-0.0149083
0.00585843
0.0271088
0.0417803
0.0494727
0.0196206
-0.0312785
-0.0601349
-0.095055
-0.0706895
-0.00876122
-0.0732204
-0.0802564
-0.0813301
-0.0773716
-0.071087
-0.0643924
-0.0579184
-0.0514986
-0.0446788
-0.0371382
-0.0288405
-0.0199749
-0.0108129
-0.00160537
0.0074829
0.01632
0.0247532
0.0325514
0.0395548
0.04557
0.0501759
0.0529314
0.0541517
0.0550122
0.056494
0.0580367
0.0577123
0.0526214
0.0417018
0.0289675
0.0196917
0.0151905
0.0149651
0.0176704
0.0218349
0.0269661
0.0309536
0.034036
0.0337265
0.0331503
0.0364099
0.0392175
0.0360936
0.0201819
-0.00603449
-0.0427768
-0.0630803
-0.0560195
-0.0352291
-0.00871869
0.00822446
0.0267721
0.0392334
0.0453887
0.0197479
-0.0273462
-0.0530373
-0.0843948
-0.0641513
-0.00900888
-0.0605794
-0.0669629
-0.0681815
-0.0649562
-0.059601
-0.0538043
-0.0481593
-0.0425632
-0.0366418
-0.0301054
-0.0228921
-0.0151403
-0.00707701
0.00107544
0.0091613
0.0170594
0.0246363
0.0317042
0.0381269
0.0437868
0.0481844
0.0512561
0.0531624
0.0546437
0.0563339
0.0577493
0.0576091
0.0539357
0.045876
0.0361087
0.0284524
0.0237518
0.0222731
0.0234621
0.0260272
0.0296566
0.0327676
0.0349225
0.0346306
0.0338667
0.0362008
0.0374513
0.0345854
0.0226269
0.00461408
-0.0222804
-0.0389991
-0.0359763
-0.0225341
-0.00294489
0.0100078
0.0265751
0.0363036
0.0406064
0.0195154
-0.0224417
-0.0452946
-0.0723706
-0.0559779
-0.00883251
-0.0493164
-0.0550289
-0.0562819
-0.0536758
-0.0491507
-0.0441697
-0.0392854
-0.0344454
-0.0293411
-0.0237128
-0.0174867
-0.0107619
-0.00372465
0.0034367
0.0105764
0.017583
0.0243393
0.0306956
0.0365109
0.0415986
0.0459525
0.0492109
0.0515443
0.0533758
0.0550933
0.0563232
0.0561933
0.0534941
0.0477064
0.0404257
0.0343996
0.0298885
0.0277723
0.0279862
0.0294403
0.0318294
0.0341624
0.0356856
0.0354537
0.0346585
0.0363076
0.0365355
0.0334517
0.0247441
0.0132978
-0.00494839
-0.0181121
-0.0188651
-0.0108802
0.00231987
0.0115691
0.0268376
0.0335221
0.0359303
0.0194325
-0.0162805
-0.0369921
-0.0595056
-0.0464176
-0.00813882
-0.0393177
-0.0442627
-0.045513
-0.0434553
-0.0396658
-0.0354141
-0.0312199
-0.0270689
-0.022706
-0.017899
-0.0125681
-0.00677908
-0.000684641
0.00555693
0.011811
0.0179799
0.0239636
0.0296442
0.0348942
0.0395703
0.0436571
0.0469242
0.049451
0.0514361
0.0530939
0.0541587
0.0540489
0.0520698
0.0479746
0.0426632
0.0382617
0.0340511
0.031752
0.0313868
0.0321041
0.0335432
0.0351929
0.0363365
0.0361243
0.0354352
0.0366233
0.0365572
0.0333189
0.0267908
0.0199102
0.00838257
-0.00174332
-0.00537195
-0.000963486
0.00701455
0.0133251
0.0275152
0.031638
0.032317
0.0203403
-0.00868756
-0.0282304
-0.0465857
-0.0360386
-0.00691607
-0.0301776
-0.0345549
-0.0358304
-0.0342344
-0.0310796
-0.0274762
-0.0239044
-0.0203746
-0.0166774
-0.0126064
-0.00807819
-0.00313281
0.00210377
0.00749903
0.0129332
0.0183239
0.0235851
0.0286254
0.0333363
0.0376009
0.0413768
0.0445261
0.047074
0.0490841
0.0506566
0.0516071
0.0515661
0.0501316
0.0472317
0.0433341
0.0398466
0.0365429
0.0344566
0.0338111
0.0340742
0.034855
0.0359404
0.0368394
0.0366084
0.0360853
0.0369716
0.0370933
0.0344793
0.0295667
0.0252083
0.0176415
0.00964395
0.00456687
0.00690657
0.0111939
0.0155643
0.0282825
0.0311275
0.0318407
0.0230282
7.63624e-05
-0.0192124
-0.0345568
-0.0257835
-0.00527945
-0.0220039
-0.0259126
-0.0271621
-0.0259316
-0.0233246
-0.0202963
-0.0172802
-0.0143035
-0.0111974
-0.00777828
-0.00396352
0.000226072
0.00468777
0.00931258
0.0139963
0.0186702
0.0232603
0.0276944
0.0318845
0.0357329
0.0391796
0.0421331
0.0445897
0.0465447
0.0480296
0.048912
0.0489742
0.0479683
0.0458969
0.0429418
0.0397464
0.0377598
0.0361457
0.0354355
0.0354384
0.0358046
0.0364563
0.0371556
0.0369165
0.0365549
0.0372353
0.0377031
0.0362668
0.0326942
0.029538
0.0238108
0.0170989
0.0118103
0.0128601
0.0149622
0.0182303
0.0287996
0.0315993
0.0318549
0.027112
0.00888301
-0.0104082
-0.0241478
-0.016787
-0.00349979
-0.0148189
-0.0182076
-0.0193842
-0.0184629
-0.0163368
-0.0138152
-0.0112895
-0.00880059
-0.00621326
-0.00336666
-0.000181643
0.00333559
0.0071036
0.0110345
0.0150383
0.0190569
0.0230277
0.0268932
0.0305814
0.0340103
0.0371225
0.0398397
0.0421418
0.0439935
0.0453953
0.0462448
0.0464263
0.0457722
0.0443083
0.0420652
0.0391415
0.0382245
0.0370907
0.0364317
0.0362967
0.0364282
0.0367634
0.0372837
0.0370646
0.0368464
0.0373676
0.0380581
0.0375166
0.0349933
0.0323945
0.0277318
0.0219865
0.0171215
0.0172154
0.0183156
0.0207272
0.0288163
0.0320599
0.032445
0.030565
0.0157274
-0.00275241
-0.0157244
-0.00989473
-0.00193382
-0.00836477
-0.0113073
-0.0124309
-0.0117743
-0.0100594
-0.00797614
-0.00587784
-0.00381523
-0.00168076
0.000665734
0.00329925
0.0062247
0.00937925
0.012691
0.0160835
0.0195084
0.0229135
0.0262531
0.0294653
0.0324851
0.0352581
0.0377177
0.0398334
0.0415591
0.0428824
0.0437202
0.0440192
0.0436659
0.0427056
0.0411826
0.0393269
0.0384068
0.0375331
0.0369545
0.0367483
0.0367631
0.0368733
0.0372412
0.0370566
0.036938
0.0373182
0.0380002
0.0378398
0.035965
0.0336993
0.0299814
0.0252186
0.0209531
0.0203196
0.0211149
0.022762
0.0285053
0.031858
0.0325763
0.0317794
0.0194389
0.00291267
-0.00915412
-0.00542473
-0.00080694
-0.00259808
-0.00518482
-0.00625039
-0.00580019
-0.00442863
-0.00272263
-0.000996574
0.000694746
0.00243698
0.00435142
0.0065078
0.00891792
0.011534
0.0142982
0.0171464
0.0200382
0.0229307
0.0257875
0.0285576
0.0311877
0.033628
0.0358227
0.0377383
0.0393255
0.04057
0.0414055
0.0418091
0.0417086
0.0411557
0.0402034
0.0390454
0.0382752
0.0375992
0.037117
0.0368777
0.0368418
0.0368049
0.0370424
0.0368944
0.0368186
0.0370675
0.0375748
0.0375057
0.0360201
0.0339915
0.031076
0.0272703
0.0236136
0.0224295
0.0232178
0.0241938
0.027968
0.0309351
0.031913
0.0308646
0.020422
0.00650992
-0.00405064
-0.00247342
-8.59243e-05
0.00247338
0.000229441
-0.000754753
-0.000466784
0.000612799
0.00199279
0.0033974
0.0047697
0.00617632
0.00772075
0.00946717
0.0114316
0.0135789
0.0158627
0.0182305
0.0206485
0.0230816
0.0255011
0.0278659
0.0301321
0.0322544
0.0341875
0.0358991
0.0373439
0.0385071
0.039335
0.0398207
0.0399191
0.0396774
0.0391412
0.0384464
0.0378811
0.0373774
0.0369996
0.0367552
0.036698
0.0365814
0.0367051
0.0365859
0.036508
0.0366331
0.03684
0.0367698
0.0355586
0.0337576
0.0314263
0.0284342
0.0253916
0.0239925
0.0245927
0.0250575
0.0273291
0.02961
0.0306229
0.0290703
0.0201514
0.00865349
-0.000173996
-0.000505215
0.000335938
0.00696293
0.00503069
0.00412514
0.00428043
0.00511397
0.0062163
0.00734633
0.00844632
0.00956718
0.0107966
0.0121933
0.0137757
0.0155191
0.0173859
0.0193337
0.0213346
0.0233604
0.0253877
0.0273844
0.029315
0.0311407
0.0328234
0.0343351
0.0356364
0.0367118
0.0375202
0.0380601
0.0383035
0.0382884
0.0380439
0.0376635
0.0372953
0.0369419
0.0366659
0.0364397
0.0363704
0.0362231
0.036252
0.0361451
0.0360405
0.0360551
0.0360397
0.0358539
0.0348313
0.0332633
0.031327
0.0289576
0.0264975
0.025033
0.0253109
0.0253804
0.0266265
0.0281027
0.0289168
0.0269907
0.0194317
0.00991191
0.00263502
0.000923981
0.000613618
0.0109431
0.00927334
0.00844074
0.00849266
0.00912282
0.00999012
0.0108861
0.0117551
0.0126353
0.0135996
0.0147008
0.0159588
0.0173566
0.0188646
0.0204487
0.0220854
0.0237527
0.0254325
0.0270999
0.0287259
0.0302784
0.0317263
0.0330451
0.0342025
0.0351842
0.035959
0.0365244
0.0368616
0.0369999
0.0369555
0.0367899
0.0365859
0.0363575
0.0361703
0.035978
0.0359001
0.0357497
0.035706
0.0355918
0.0354508
0.0353449
0.0351845
0.0348813
0.0339807
0.032631
0.0309733
0.0290493
0.0270837
0.0256449
0.0255574
0.0254227
0.0258851
0.0265552
0.0267252
0.0248718
0.0185462
0.0106185
0.00457189
0.00204809
0.000824472
0.0144396
0.0130039
0.0122488
0.0122242
0.0126863
0.0133551
0.0140533
0.0147279
0.0154063
0.0161487
0.0170021
0.0179865
0.0190913
0.0202931
0.0215643
0.0228856
0.0242408
0.0256155
0.02699
0.0283429
0.0296473
0.0308781
0.0320144
0.0330304
0.0339124
0.0346374
0.0352017
0.0355902
0.0358227
0.0359093
0.0358881
0.0358078
0.0356781
0.0355615
0.0354093
0.0353261
0.0351818
0.0350868
0.034951
0.0347751
0.0345808
0.0343063
0.0339114
0.0330883
0.0319198
0.0304828
0.0288647
0.0272733
0.0259149
0.0254848
0.0251832
0.0251078
0.0250487
0.0247858
0.022887
0.0176039
0.0109588
0.00584463
0.00293217
0.00100865
0.0175035
0.0162813
0.0156047
0.0155228
0.0158472
0.01635
0.0168813
0.0173919
0.0179015
0.0184596
0.0191069
0.0198627
0.0207208
0.021663
0.0226677
0.0237193
0.0248048
0.0259126
0.0270274
0.0281403
0.029223
0.0302553
0.03122
0.0320976
0.032876
0.0335373
0.0340766
0.0344817
0.0347641
0.0349285
0.0349971
0.0350026
0.0349467
0.0348815
0.0347667
0.0346807
0.0345424
0.0344132
0.0342493
0.0340325
0.033778
0.0334267
0.0329682
0.0321987
0.0311659
0.0299143
0.0285098
0.0271691
0.0259131
0.0252201
0.0247383
0.0243064
0.0237133
0.0229928
0.0210971
0.0166652
0.0110518
0.00663295
0.00359368
0.00117401
0.020188
0.0191427
0.0185345
0.0184168
0.0186359
0.0190031
0.0193962
0.0197714
0.0201425
0.020549
0.0210255
0.0215908
0.0222425
0.0229671
0.0237466
0.0245686
0.0254233
0.0263013
0.0271995
0.0280958
0.0289782
0.029829
0.0306337
0.0313777
0.0320503
0.0326371
0.0331323
0.0335265
0.0338244
0.0340274
0.0341462
0.0342038
0.0341971
0.034165
0.0340789
0.0339912
0.0338556
0.0337024
0.0335109
0.0332629
0.0329597
0.0325596
0.0320589
0.031332
0.0303953
0.0292929
0.028048
0.0268573
0.0256991
0.0248212
0.0241447
0.0234642
0.0225021
0.0214007
0.0195163
0.0157648
0.0109778
0.00707527
0.00404643
0.00131026
0.0225337
0.0216438
0.0210977
0.0209455
0.0210734
0.0213339
0.0216182
0.0218862
0.0221467
0.0224311
0.0227654
0.0231733
0.0236539
0.0241965
0.0247862
0.0254162
0.0260763
0.0267632
0.0274651
0.0281747
0.0288799
0.0295673
0.0302248
0.0308415
0.0314084
0.0319141
0.032352
0.032714
0.0330006
0.0332122
0.0333515
0.0334346
0.033455
0.0334399
0.0333712
0.0332801
0.0331422
0.0329708
0.0327545
0.0324804
0.0321421
0.0317134
0.0311856
0.0304926
0.0296263
0.0286335
0.0275127
0.0264069
0.0253171
0.0243287
0.0234658
0.0225959
0.0214122
0.0200221
0.0181347
0.0149185
0.010791
0.00727253
0.004315
0.00140836
0.0245749
0.0238191
0.0233314
0.023159
0.0232148
0.0233797
0.0235662
0.0237393
0.0239043
0.0240877
0.0243189
0.0246059
0.0249504
0.025346
0.0257829
0.0262493
0.026743
0.0272612
0.0277981
0.0283463
0.0288962
0.029438
0.0299622
0.0304598
0.0309235
0.0313445
0.0317163
0.0320317
0.0322884
0.0324864
0.0326257
0.0327106
0.0327396
0.0327276
0.0326642
0.0325663
0.0324211
0.0322341
0.0319966
0.0317015
0.0313377
0.0308915
0.0303486
0.0296804
0.0288681
0.0279499
0.026922
0.0258682
0.0248115
0.0237661
0.0227549
0.0217277
0.0204212
0.0188421
0.0169352
0.0141303
0.0105292
0.00729856
0.00443355
0.00146642
0.0263408
0.0257017
0.0252689
0.0250848
0.0250839
0.025173
0.0252819
0.0253809
0.0254724
0.0255767
0.0257143
0.0258976
0.0261282
0.0264009
0.0267076
0.0270416
0.0273989
0.0277777
0.0281744
0.0285841
0.0289992
0.0294123
0.0298162
0.0302041
0.0305695
0.0309059
0.0312067
0.0314661
0.0316801
0.0318475
0.0319664
0.0320398
0.0320627
0.0320432
0.0319745
0.0318655
0.0317084
0.0315066
0.0312507
0.0309383
0.0305555
0.0300972
0.0295477
0.0288959
0.0281237
0.0272559
0.0262914
0.0252749
0.0242276
0.0231508
0.0220401
0.0208824
0.0195076
0.0178311
0.0159008
0.0133991
0.0102188
0.00720901
0.00443907
0.00148823
0.0278647
0.0273253
0.0269414
0.0267508
0.0267058
0.0267344
0.0267805
0.0268188
0.0268499
0.0268892
0.0269533
0.0270534
0.0271916
0.0273641
0.0275646
0.0277883
0.0280317
0.028294
0.0285727
0.0288643
0.0291633
0.029464
0.0297605
0.0300483
0.030322
0.0305762
0.0308049
0.0310034
0.0311672
0.0312942
0.0313813
0.0314292
0.0314334
0.0313972
0.0313147
0.0311902
0.0310183
0.0308009
0.030528
0.0301993
0.0298023
0.0293346
0.0287821
0.0281407
0.0273958
0.026563
0.0256385
0.0246494
0.023603
0.022503
0.0213348
0.0200789
0.01866
0.0169553