/*--------------------------------*- C++ -*----------------------------------*\
| =========                 |                                                 |
| \\      /  F ield         | OpenFOAM: The Open Source CFD Toolbox           |
|  \\    /   O peration     | Version:  2512                                  |
|   \\  /    A nd           | Website:  www.openfoam.com                      |
|    \\/     M anipulation  |                                                 |
\*---------------------------------------------------------------------------*/
FoamFile
{
    version     2.0;
    format      ascii;
    arch        "LSB;label=32;scalar=64";
    class       volScalarField;
    location    "65";
    object      p;
}
// * * * * * * * * * * * * * * * * * * * * * * * * * * * * * * * * * * * * * //

dimensions      [0 2 -2 0 0 0 0];

internalField   nonuniform List<scalar> 
13248
(
-0.364868
-0.36501
-0.36312
-0.35974
-0.355242
-0.350076
-0.344816
-0.340078
-0.336363
-0.333893
-0.332545
-0.331877
-0.331237
-0.329909
-0.327276
-0.322943
-0.316791
-0.308903
-0.299407
-0.288537
-0.275953
-0.262278
-0.245458
-0.226646
-0.371508
-0.371046
-0.368954
-0.365746
-0.361727
-0.357171
-0.352411
-0.347749
-0.343358
-0.339229
-0.33518
-0.330898
-0.32603
-0.320285
-0.313503
-0.305661
-0.296797
-0.286962
-0.276171
-0.264375
-0.251569
-0.237683
-0.222407
-0.207029
-0.380519
-0.379114
-0.37653
-0.373183
-0.369303
-0.364987
-0.360243
-0.355002
-0.349171
-0.342683
-0.335508
-0.327643
-0.319126
-0.310021
-0.300404
-0.290315
-0.279753
-0.268703
-0.257099
-0.244992
-0.232209
-0.218964
-0.20497
-0.190638
-0.391589
-0.38898
-0.385654
-0.381878
-0.37779
-0.373226
-0.367805
-0.361153
-0.353113
-0.3438
-0.333502
-0.322558
-0.311256
-0.29979
-0.288246
-0.276629
-0.264914
-0.253043
-0.240993
-0.228708
-0.216177
-0.203534
-0.190509
-0.177997
-0.404759
-0.400821
-0.396596
-0.392194
-0.387508
-0.382018
-0.375003
-0.366027
-0.355169
-0.3429
-0.329815
-0.316427
-0.303074
-0.289921
-0.277013
-0.264325
-0.251801
-0.239391
-0.227037
-0.214728
-0.202449
-0.190235
-0.17801
-0.166187
-0.420373
-0.415017
-0.409836
-0.404587
-0.398739
-0.391381
-0.381712
-0.369609
-0.355605
-0.340507
-0.325046
-0.309723
-0.294802
-0.280376
-0.266437
-0.252932
-0.239799
-0.226977
-0.214427
-0.202113
-0.190018
-0.178164
-0.166479
-0.155322
-0.438729
-0.431894
-0.425675
-0.419212
-0.411366
-0.401003
-0.387698
-0.371953
-0.354758
-0.337075
-0.319588
-0.302674
-0.28648
-0.271021
-0.25625
-0.242099
-0.228497
-0.215383
-0.202701
-0.190413
-0.178494
-0.166907
-0.15565
-0.144877
-0.459865
-0.451512
-0.444067
-0.435771
-0.424824
-0.410329
-0.392689
-0.373113
-0.352861
-0.332847
-0.313585
-0.295287
-0.277991
-0.261649
-0.246182
-0.231504
-0.217535
-0.2042
-0.191438
-0.179197
-0.167427
-0.156096
-0.145203
-0.134752
-0.483419
-0.473541
-0.46452
-0.453473
-0.43821
-0.418686
-0.396389
-0.373055
-0.349967
-0.32784
-0.306975
-0.287431
-0.269151
-0.252036
-0.235978
-0.220874
-0.206626
-0.19315
-0.180368
-0.168211
-0.15662
-0.145549
-0.134973
-0.124785
-0.508552
-0.497172
-0.48603
-0.471065
-0.450372
-0.425304
-0.398356
-0.371489
-0.345799
-0.321741
-0.299408
-0.278726
-0.259564
-0.241777
-0.225227
-0.209787
-0.195345
-0.181797
-0.169053
-0.15703
-0.145655
-0.134876
-0.124628
-0.11475
-0.533984
-0.521107
-0.507055
-0.486923
-0.459958
-0.429185
-0.397792
-0.367671
-0.339613
-0.313801
-0.290142
-0.268453
-0.248534
-0.230197
-0.213271
-0.197606
-0.183069
-0.169542
-0.156919
-0.145107
-0.134024
-0.123605
-0.113738
-0.104283
-0.558053
-0.543663
-0.525695
-0.499252
-0.465513
-0.429135
-0.39362
-0.360569
-0.330414
-0.303073
-0.27829
-0.255781
-0.235284
-0.216565
-0.19942
-0.183674
-0.169173
-0.155784
-0.143387
-0.131879
-0.121182
-0.11122
-0.101865
-0.0930348
-0.395668
-0.395277
-0.394707
-0.394642
-0.395652
-0.398031
-0.401941
-0.407546
-0.415071
-0.424789
-0.436971
-0.451832
-0.469479
-0.489846
-0.512649
-0.537348
-0.563158
-0.589088
-0.614185
-0.636844
-0.656061
-0.670603
-0.679533
-0.681093
-0.396347
-0.394812
-0.393705
-0.393239
-0.393897
-0.396004
-0.39978
-0.405404
-0.413145
-0.423331
-0.43629
-0.452281
-0.471428
-0.493645
-0.518589
-0.545632
-0.573866
-0.602172
-0.629301
-0.653876
-0.674767
-0.690543
-0.700353
-0.702527
-0.39563
-0.393127
-0.391476
-0.390557
-0.390727
-0.392368
-0.39571
-0.400957
-0.408385
-0.418328
-0.431123
-0.447031
-0.466161
-0.488402
-0.513373
-0.5404
-0.568532
-0.596592
-0.623325
-0.6473
-0.667785
-0.682635
-0.692171
-0.693693
-0.393214
-0.390031
-0.387874
-0.386388
-0.385839
-0.38666
-0.389134
-0.393488
-0.399982
-0.40893
-0.420646
-0.435373
-0.453203
-0.474012
-0.497413
-0.522742
-0.549092
-0.575297
-0.600259
-0.622598
-0.641657
-0.655368
-0.663769
-0.663567
-0.389209
-0.385723
-0.383153
-0.380998
-0.379469
-0.379067
-0.38018
-0.38309
-0.388068
-0.395402
-0.405371
-0.418191
-0.433942
-0.452503
-0.473517
-0.496371
-0.520262
-0.544184
-0.567142
-0.587732
-0.605392
-0.617489
-0.624256
-0.621188
-0.384024
-0.380646
-0.377813
-0.374967
-0.372277
-0.370319
-0.369627
-0.370612
-0.373609
-0.378917
-0.386797
-0.39744
-0.410913
-0.427109
-0.445709
-0.466149
-0.487747
-0.509568
-0.530868
-0.54975
-0.565438
-0.575172
-0.578661
-0.570635
-0.378208
-0.375309
-0.372407
-0.368959
-0.365099
-0.361456
-0.358723
-0.357496
-0.35825
-0.361358
-0.367104
-0.375674
-0.387128
-0.401349
-0.418055
-0.436764
-0.456787
-0.476963
-0.496102
-0.512433
-0.524654
-0.529929
-0.527491
-0.512718
-0.372333
-0.370183
-0.367397
-0.363524
-0.358681
-0.353513
-0.348849
-0.345478
-0.344062
-0.345104
-0.348963
-0.355853
-0.365834
-0.378739
-0.39427
-0.411706
-0.430042
-0.447837
-0.463703
-0.475517
-0.481957
-0.480607
-0.470962
-0.449952
-0.366974
-0.365692
-0.363139
-0.359042
-0.353541
-0.347273
-0.34115
-0.336121
-0.333024
-0.332519
-0.335061
-0.340883
-0.349965
-0.362018
-0.376307
-0.391791
-0.407167
-0.420762
-0.431194
-0.436494
-0.4361
-0.428307
-0.413711
-0.390359
-0.36278
-0.362322
-0.360023
-0.355875
-0.350095
-0.343309
-0.336455
-0.330577
-0.32664
-0.325386
-0.327296
-0.332479
-0.34067
-0.351216
-0.363078
-0.374974
-0.385415
-0.392981
-0.39654
-0.3951
-0.389027
-0.377606
-0.362512
-0.341277
-0.360578
-0.360701
-0.358611
-0.354593
-0.348932
-0.342256
-0.335471
-0.329597
-0.325641
-0.324223
-0.325658
-0.329855
-0.336274
-0.343997
-0.351826
-0.358494
-0.36273
-0.363724
-0.360864
-0.354368
-0.34482
-0.332583
-0.319538
-0.302139
-0.361152
-0.361495
-0.359554
-0.355815
-0.350641
-0.344584
-0.33847
-0.3332
-0.329457
-0.327786
-0.328274
-0.330581
-0.333994
-0.337541
-0.340175
-0.340968
-0.33925
-0.334825
-0.327635
-0.318305
-0.306772
-0.293922
-0.280252
-0.265195
-0.673897
-0.649206
-0.603182
-0.53572
-0.454163
-0.371984
-0.301546
-0.250112
-0.220384
-0.209816
-0.2149
-0.236383
-0.274096
-0.318419
-0.349718
-0.348998
-0.312629
-0.254796
-0.197375
-0.153765
-0.126739
-0.115036
-0.115912
-0.128972
-0.159603
-0.208964
-0.260321
-0.28604
-0.267612
-0.217482
-0.160487
-0.11621
-0.0897659
-0.0768416
-0.0779358
-0.0961572
-0.123089
-0.137747
-0.125345
-0.0957409
-0.0664461
-0.0485516
-0.042448
-0.0492288
-0.0610624
-0.0651691
-0.0595412
-0.0501355
-0.0374771
-0.0304525
-0.0349286
-0.0418082
-0.0393311
-0.0263005
-0.0148596
-0.00764619
-0.00836483
-0.0106211
-0.0111167
-0.00245148
-0.696208
-0.67192
-0.626537
-0.557536
-0.471947
-0.384777
-0.308996
-0.251608
-0.214323
-0.196033
-0.194266
-0.208558
-0.239064
-0.278528
-0.308824
-0.309061
-0.280331
-0.230945
-0.181488
-0.143713
-0.120995
-0.113308
-0.118169
-0.13582
-0.172308
-0.227881
-0.284028
-0.311684
-0.29093
-0.235804
-0.172777
-0.122343
-0.0904277
-0.0722115
-0.0672972
-0.0788766
-0.100467
-0.112348
-0.101137
-0.0760522
-0.0532092
-0.0413896
-0.0406365
-0.0531361
-0.0705692
-0.0775755
-0.0707975
-0.0586456
-0.0412951
-0.0282678
-0.0276631
-0.0316806
-0.0300127
-0.0211118
-0.014755
-0.0131291
-0.0175096
-0.0217144
-0.0206814
-0.00437963
-0.686022
-0.661803
-0.61878
-0.552146
-0.467707
-0.380007
-0.303425
-0.244593
-0.203659
-0.179077
-0.169182
-0.174333
-0.195369
-0.227251
-0.255278
-0.255429
-0.238918
-0.200084
-0.15956
-0.127994
-0.110113
-0.106707
-0.115433
-0.137204
-0.178331
-0.238307
-0.297908
-0.32824
-0.307622
-0.249447
-0.181651
-0.126145
-0.0895879
-0.0667521
-0.0562914
-0.0616524
-0.0781853
-0.0877831
-0.0778897
-0.0568119
-0.0397127
-0.0334806
-0.0382654
-0.056942
-0.0802649
-0.0901233
-0.0834966
-0.0664888
-0.0445235
-0.0258061
-0.0202261
-0.0214343
-0.0206225
-0.0157881
-0.0145706
-0.0187983
-0.0271483
-0.0336884
-0.0310023
-0.0064775
-0.65242
-0.627861
-0.588524
-0.525479
-0.445021
-0.361844
-0.288396
-0.230692
-0.188967
-0.160926
-0.144976
-0.14067
-0.150535
-0.172919
-0.198448
-0.215042
-0.193479
-0.163878
-0.132322
-0.10713
-0.0941763
-0.0948304
-0.106856
-0.131344
-0.174836
-0.237453
-0.300067
-0.333716
-0.316048
-0.257547
-0.186619
-0.127393
-0.0872926
-0.0608295
-0.0456496
-0.0453775
-0.0572783
-0.0649344
-0.0563812
-0.0384616
-0.0261744
-0.024839
-0.0350745
-0.0601903
-0.0896262
-0.102253
-0.0941045
-0.0733164
-0.0469941
-0.0230926
-0.0128318
-0.0112999
-0.0113364
-0.0103876
-0.0142814
-0.0245718
-0.0371484
-0.0464002
-0.0419512
-0.00876487
-0.604606
-0.578043
-0.542146
-0.484152
-0.410577
-0.335493
-0.268548
-0.213825
-0.172277
-0.142444
-0.122401
-0.111611
-0.110949
-0.122113
-0.139763
-0.151904
-0.141305
-0.123742
-0.101177
-0.0822334
-0.0738577
-0.0781351
-0.0928655
-0.118703
-0.162166
-0.224813
-0.289612
-0.326918
-0.315308
-0.259705
-0.187801
-0.126314
-0.0837494
-0.0547121
-0.0358939
-0.0306942
-0.0383721
-0.0444694
-0.0372328
-0.0213417
-0.0128492
-0.0155361
-0.0307517
-0.0623817
-0.0980124
-0.113357
-0.103383
-0.0789455
-0.0486321
-0.0201722
-0.00563732
-0.00147613
-0.00226188
-0.00492401
-0.0138298
-0.0303382
-0.0473645
-0.0596625
-0.0533712
-0.011257
-0.54624
-0.516441
-0.484518
-0.433736
-0.370223
-0.305988
-0.247609
-0.197614
-0.15706
-0.125907
-0.102934
-0.0871502
-0.0788933
-0.0797911
-0.0881016
-0.0962688
-0.0882207
-0.0833836
-0.0684811
-0.0550666
-0.0507439
-0.0581223
-0.0749743
-0.101088
-0.142428
-0.202016
-0.266835
-0.308712
-0.304436
-0.254991
-0.185201
-0.123188
-0.0792148
-0.0486119
-0.0271699
-0.0179714
-0.0218796
-0.0267489
-0.0199615
-0.00593194
-0.000119821
-0.00582741
-0.0253633
-0.0630822
-0.104676
-0.122781
-0.11101
-0.0831877
-0.0493591
-0.0170683
0.00121796
0.00787242
0.00653489
0.000576015
-0.0131381
-0.0359641
-0.0576468
-0.0732798
-0.0650982
-0.0139569
-0.480394
-0.449226
-0.423313
-0.382006
-0.330361
-0.277825
-0.228303
-0.183615
-0.144957
-0.113089
-0.0878623
-0.0684596
-0.0545241
-0.0471598
-0.047219
-0.0524771
-0.0613332
-0.047335
-0.0365181
-0.0275857
-0.0266421
-0.0364053
-0.0546926
-0.080248
-0.117934
-0.172161
-0.234188
-0.280189
-0.285175
-0.244191
-0.179152
-0.118426
-0.0741167
-0.0428117
-0.0196948
-0.00732341
-0.00799676
-0.0119253
-0.00575585
0.00729176
0.0114961
0.0038263
-0.0187736
-0.0618502
-0.108984
-0.129887
-0.116772
-0.0859295
-0.0491733
-0.013791
0.00763731
0.0166106
0.0149955
0.00611563
-0.0121363
-0.0413929
-0.0678713
-0.0870775
-0.0769874
-0.0168541
-0.412673
-0.384039
-0.365454
-0.334223
-0.294397
-0.252834
-0.211543
-0.17218
-0.136194
-0.104531
-0.0778184
-0.0559064
-0.0381772
-0.0248481
-0.0174208
-0.016133
-0.018392
-0.0126742
-0.00631043
-0.00130104
-0.00322525
-0.0146116
-0.0336053
-0.0580323
-0.0915102
-0.139121
-0.196255
-0.244938
-0.259114
-0.22804
-0.169965
-0.112282
-0.0686807
-0.0374507
-0.0135497
0.0012057
0.00328121
8.34578e-05
0.00532099
0.0180734
0.0216152
0.0130844
-0.0114485
-0.0584352
-0.110282
-0.134021
-0.120153
-0.0870597
-0.0480949
-0.0103546
0.013568
0.0246432
0.0230523
0.0116417
-0.0107956
-0.046514
-0.0778971
-0.100908
-0.0889316
-0.019932
-0.353774
-0.330674
-0.31824
-0.295147
-0.264878
-0.232125
-0.197805
-0.163324
-0.130388
-0.0999337
-0.0726181
-0.0489998
-0.0288595
-0.0117994
0.00134842
0.0091785
0.0122328
0.0157113
0.0206828
0.0223422
0.0183658
0.00620522
-0.0127406
-0.0357683
-0.0649094
-0.105439
-0.156718
-0.205704
-0.230799
-0.208378
-0.158277
-0.104979
-0.0629726
-0.0324585
-0.00859318
0.00776164
0.0121363
0.00955455
0.013475
0.0236805
0.0298865
0.021484
-0.00318596
-0.0523884
-0.108694
-0.134947
-0.12153
-0.0866447
-0.0461901
-0.00687608
0.0189487
0.0318957
0.0306708
0.0171813
-0.00905155
-0.0513483
-0.0876765
-0.114666
-0.100871
-0.0231818
-0.310276
-0.292722
-0.283249
-0.264918
-0.241181
-0.21491
-0.186323
-0.156387
-0.126568
-0.0979409
-0.0710558
-0.0465461
-0.0248399
-0.00565601
0.0107966
0.0233841
0.0314992
0.0370732
0.0418936
0.0413514
0.0362006
0.024328
0.0065818
-0.014596
-0.0401273
-0.0743842
-0.117849
-0.165045
-0.194657
-0.182816
-0.14346
-0.0965396
-0.0571868
-0.0279437
-0.00484177
0.0123866
0.018748
0.0168473
0.019479
0.0294706
0.0362936
0.0285997
0.00490202
-0.0444303
-0.10327
-0.132131
-0.119326
-0.0845552
-0.0435662
-0.00357304
0.0235587
0.0383236
0.0377753
0.022624
-0.00694224
-0.0557207
-0.0970327
-0.128243
-0.11276
-0.0265941
-0.278836
-0.266654
-0.258156
-0.242296
-0.222904
-0.201422
-0.177468
-0.151539
-0.124643
-0.0978445
-0.0718945
-0.0473506
-0.0247489
-0.00418366
0.0143557
0.0301409
0.042472
0.0517297
0.0586865
0.0559434
0.0506602
0.0396884
0.0235859
0.00449879
-0.0171548
-0.045423
-0.0835778
-0.128204
-0.160674
-0.160601
-0.130102
-0.0892781
-0.0527372
-0.0246914
-0.00254959
0.0150583
0.023322
0.0223177
0.0236994
0.032667
0.0409112
0.0346892
0.0135251
-0.034337
-0.0954329
-0.126653
-0.116991
-0.0815375
-0.0405488
-0.00029129
0.0273782
0.0437043
0.0444529
0.0280931
-0.00433548
-0.0597467
-0.106076
-0.141595
-0.124492
-0.0300865
-0.253154
-0.247684
-0.239211
-0.22471
-0.208497
-0.191053
-0.171611
-0.149973
-0.126533
-0.102142
-0.0776473
-0.0537035
-0.0309494
-0.00974122
0.00994542
0.0274465
0.0419034
0.0532664
0.0596584
0.0645236
0.0602985
0.0512786
0.0379122
0.0210852
0.00167825
-0.0216269
-0.051987
-0.0889782
-0.118797
-0.127605
-0.109332
-0.077826
-0.0462687
-0.0202224
0.000638349
0.0176993
0.0270889
0.02685
0.0270877
0.0343805
0.0395517
0.0377596
0.0204741
-0.0236944
-0.0841157
-0.117323
-0.107795
-0.0764581
-0.0362442
0.00425532
0.031644
0.0483726
0.0503068
0.033271
-0.00128781
-0.0630939
-0.114334
-0.154582
-0.135813
-0.0334405
-0.225189
-0.232112
-0.222746
-0.206258
-0.188614
-0.171032
-0.152781
-0.13298
-0.111482
-0.0889396
-0.066169
-0.0438433
-0.0225184
-0.00237837
0.016641
0.0340085
0.0486441
0.060407
0.0697713
0.0737787
0.0706888
0.0625426
0.0517952
0.0385993
0.0223246
0.00238652
-0.0269734
-0.0659487
-0.100158
-0.109106
-0.0901206
-0.0617573
-0.0341515
-0.0112205
0.00714295
0.0222472
0.0311452
0.0309613
0.0301367
0.0363345
0.042263
0.0432179
0.0293965
-0.0115363
-0.0721689
-0.108694
-0.111094
-0.0698606
-0.0297307
0.0100045
0.0366289
0.0533515
0.0563471
0.0388005
0.00260121
-0.0654039
-0.121907
-0.166762
-0.146327
-0.0364732
-0.195874
-0.205968
-0.198709
-0.182421
-0.164867
-0.1483
-0.132055
-0.114782
-0.0958938
-0.0757853
-0.0552161
-0.034869
-0.0152872
0.0033701
0.0210212
0.0370862
0.0509059
0.0624621
0.0708007
0.0765874
0.0751368
0.0687727
0.0607183
0.0507741
0.0377372
0.0204078
-0.00874849
-0.0484783
-0.0808959
-0.0854651
-0.0685409
-0.0450022
-0.0224007
-0.00293362
0.0130034
0.0259013
0.0337165
0.0335694
0.0324599
0.0378467
0.0438423
0.0450023
0.0339852
-0.00271425
-0.0613919
-0.0984931
-0.0950111
-0.0607108
-0.0221125
0.015901
0.0412417
0.0575186
0.0607223
0.0433208
0.00604014
-0.0677012
-0.12949
-0.17816
-0.156224
-0.0393977
-0.170524
-0.180993
-0.176037
-0.161855
-0.145822
-0.130635
-0.11601
-0.100669
-0.0838565
-0.0657274
-0.0469465
-0.0281578
-0.00991467
0.00752266
0.0241095
0.0394035
0.0526606
0.0637679
0.0726756
0.0784317
0.0780775
0.0733286
0.0677484
0.0611242
0.0509781
0.0341591
0.00554325
-0.0311571
-0.0594053
-0.06192
-0.0487378
-0.0301766
-0.0119281
0.00440225
0.0181343
0.0292025
0.0361487
0.0359433
0.0344755
0.0389788
0.0449946
0.0457644
0.035609
0.00246123
-0.051173
-0.0851835
-0.0830591
-0.0505236
-0.0142136
0.0217237
0.0455971
0.061262
0.0644804
0.0471316
0.00871655
-0.0708535
-0.137508
-0.189399
-0.16608
-0.0424288
-0.148627
-0.157946
-0.1546
-0.14256
-0.128084
-0.114052
-0.100596
-0.0867462
-0.0717454
-0.0555459
-0.0386325
-0.0215892
-0.00491309
0.0111366
0.0264659
0.0406913
0.0531961
0.063825
0.072597
0.0785781
0.0794829
0.0765786
0.0734433
0.0702063
0.0629043
0.0466508
0.0193843
-0.0133326
-0.034185
-0.0388862
-0.0295913
-0.0157184
-0.00173682
0.0114518
0.0230503
0.0322555
0.0381344
0.0378455
0.0362368
0.0399829
0.0455221
0.0459026
0.0361366
0.00711805
-0.0388741
-0.0691369
-0.0690188
-0.0391611
-0.00569298
0.0279039
0.049762
0.0644126
0.0677258
0.0504671
0.0109649
-0.0741544
-0.145367
-0.20026
-0.175556
-0.0454644
-0.128095
-0.136662
-0.134451
-0.1243
-0.111457
-0.0987318
-0.0865588
-0.0742464
-0.0610494
-0.0467598
-0.031681
-0.0162989
-0.00108601
0.0136511
0.0277677
0.0409564
0.0527265
0.0628848
0.0714192
0.0775042
0.0795524
0.0784366
0.0772037
0.0761967
0.0708918
0.0562824
0.0318412
0.00441671
-0.0127035
-0.0175238
-0.012393
-0.0029448
0.00738456
0.0177654
0.0274395
0.03511
0.039966
0.0395961
0.0379221
0.0409334
0.0455941
0.0453467
0.0362734
0.0130735
-0.024473
-0.0508551
-0.0478126
-0.0268128
0.0030039
0.0340397
0.0536545
0.0669549
0.0704007
0.0535274
0.0134259
-0.0767624
-0.152645
-0.210225
-0.184192
-0.0484101
-0.109263
-0.117321
-0.115891
-0.107342
-0.0961196
-0.084794
-0.0739149
-0.0629858
-0.0513418
-0.0387155
-0.0252897
-0.0114764
0.00228359
0.0156816
0.0285617
0.0406761
0.0516361
0.0612283
0.069367
0.075469
0.0784344
0.0787899
0.0787351
0.0784927
0.0743114
0.0623675
0.0426115
0.0210284
0.00651046
0.000604312
0.00235199
0.00833981
0.0157038
0.0235894
0.0314421
0.0377527
0.0416246
0.0412724
0.0396578
0.04197
0.0454751
0.0445002
0.0364003
0.0197018
-0.00925992
-0.0315004
-0.0314957
-0.0142931
0.0116333
0.040076
0.0572529
0.0688479
0.0724398
0.0564136
0.0164434
-0.0783233
-0.158923
-0.218633
-0.191364
-0.05111
-0.0927173
-0.0998476
-0.0989153
-0.0917355
-0.0820153
-0.07204
-0.0623915
-0.0527256
-0.0424832
-0.031387
-0.0195355
-0.00725656
0.00507371
0.0171615
0.0288318
0.0398732
0.0499909
0.0589998
0.0666667
0.0726592
0.0762326
0.0776401
0.07827
0.0782064
0.074992
0.0659898
0.0509795
0.0342221
0.0217031
0.0152147
0.0146256
0.0179202
0.0229393
0.0287326
0.0349445
0.0401377
0.0431715
0.0429259
0.0415156
0.0432609
0.045527
0.0440461
0.0364827
0.0260611
0.00583965
-0.0120177
-0.0147075
-0.001946
0.0198433
0.0457007
0.060509
0.0701088
0.0738532
0.0591561
0.0199677
-0.0786451
-0.163605
-0.224645
-0.196292
-0.0533663
-0.0775962
-0.0838887
-0.0833999
-0.0774188
-0.0690563
-0.060345
-0.0518678
-0.0433877
-0.0344372
-0.0247465
-0.0143534
-0.0035124
0.00745545
0.0182747
0.0287655
0.0387529
0.0480041
0.0563262
0.0635033
0.0692836
0.0731856
0.0752872
0.076379
0.0764862
0.0741171
0.0674071
0.0561528
0.0432829
0.0327111
0.0263641
0.0244454
0.0258705
0.0291511
0.0332862
0.0380445
0.0422502
0.0446201
0.0445252
0.0434362
0.0448355
0.0460104
0.0407938
0.0368578
0.0321839
0.0202603
0.00654896
0.00164041
0.00975858
0.0273558
0.0506955
0.063397
0.0707899
0.0746786
0.0616497
0.0237898
-0.0773868
-0.165901
-0.227281
-0.198103
-0.0549226
-0.0636472
-0.0694247
-0.0693191
-0.064362
-0.0572097
-0.0496599
-0.0422744
-0.0348917
-0.0271192
-0.0187037
-0.00964585
-0.000146117
0.00952687
0.0191312
0.0284927
0.0374564
0.0458283
0.0533942
0.0600828
0.0655797
0.0695971
0.0721104
0.0735139
0.0737835
0.0720195
0.0670034
0.0586767
0.0489495
0.0403221
0.0346146
0.0321441
0.032344
0.0343303
0.0372038
0.040742
0.0440773
0.0459802
0.0460363
0.0453569
0.0466475
0.0475225
0.0428593
0.038828
0.0385351
0.0334164
0.0229702
0.016396
0.0203668
0.0339445
0.0547861
0.0658374
0.0709489
0.0749179
0.0637503
0.0278046
-0.0740976
-0.164912
-0.22552
-0.195909
-0.0554879
-0.0512589
-0.0564416
-0.0565733
-0.0524881
-0.0464103
-0.0399098
-0.0335208
-0.0271397
-0.0204363
-0.0131782
-0.00534279
0.00291742
0.011381
0.0198382
0.0281266
0.036111
0.0436306
0.0505031
0.0566166
0.0617578
0.0657181
0.0684148
0.0700025
0.0704239
0.0691668
0.0654979
0.0594251
0.0521913
0.0453703
0.0405204
0.0379809
0.03747
0.0385419
0.0405056
0.04308
0.0456501
0.0472325
0.0474487
0.0472001
0.048586
0.0498434
0.0465186
0.0432198
0.0457348
0.044748
0.0360603
0.028539
0.0294824
0.0394646
0.0577573
0.0676699
0.0706032
0.074592
0.0654221
0.0320038
-0.068349
-0.159729
-0.218417
-0.188931
-0.0547456
-0.0401841
-0.0447083
-0.0450252
-0.0417057
-0.0365792
-0.0310189
-0.0255313
-0.0200569
-0.0143196
-0.00810776
-0.00138117
0.00574757
0.0130953
0.0204816
0.027761
0.0348147
0.0415114
0.0476957
0.0532381
0.0579807
0.0617653
0.0644926
0.0661875
0.066777
0.0659875
0.0634009
0.0590545
0.0537789
0.0485577
0.0446
0.0422748
0.0414325
0.0418893
0.0432031
0.0450556
0.0469976
0.0483428
0.048757
0.0489134
0.0504477
0.0524815
0.0513954
0.0497867
0.0533338
0.0536194
0.0454589
0.0378647
0.0370352
0.0438878
0.059455
0.0685969
0.0697464
0.0737259
0.066615
0.0362293
-0.0599399
-0.149632
-0.205254
-0.176624
-0.0523934
-0.0300665
-0.0341224
-0.0346182
-0.0319485
-0.0276484
-0.0229223
-0.0182432
-0.0135837
-0.00871221
-0.00343569
0.00229701
0.00840252
0.0147306
0.0211283
0.0274693
0.0336482
0.0395569
0.0450649
0.0500511
0.0543823
0.0579292
0.0605936
0.0623453
0.0631069
0.0627404
0.0610261
0.0580102
0.0542621
0.0504086
0.0472873
0.0453056
0.0443852
0.0444673
0.0453369
0.0466766
0.048138
0.0493083
0.0499298
0.0504448
0.052096
0.0547818
0.0559339
0.0559073
0.0592237
0.0593584
0.0518007
0.0448258
0.0431331
0.0472571
0.0599352
0.0681989
0.0682676
0.0721851
0.0670526
0.0400786
-0.0489385
-0.13416
-0.185556
-0.158763
-0.0481936
-0.0210298
-0.0246707
-0.025267
-0.0231289
-0.0195456
-0.0155586
-0.0116
-0.00766457
-0.0035584
0.000891111
0.00573914
0.0109258
0.0163313
0.0218275
0.0273061
0.0326755
0.0378428
0.0427036
0.0471485
0.051066
0.0543449
0.0568929
0.0586654
0.0595857
0.0595878
0.0585763
0.0565905
0.0540185
0.0512772
0.0489151
0.0473263
0.0464902
0.0463829
0.0469627
0.0479559
0.0490708
0.0501159
0.0509198
0.0517285
0.0534275
0.0564102
0.0588558
0.0596336
0.0619286
0.0618265
0.0556678
0.0497434
0.0478059
0.0496067
0.0593975
0.0662161
0.0659224
0.0696038
0.0661351
0.0428482
-0.0357724
-0.113228
-0.159352
-0.135669
-0.0420771
-0.0130279
-0.0162067
-0.0168478
-0.0151649
-0.0122098
-0.00887229
-0.0055455
-0.00224422
0.0011905
0.00491141
0.00897683
0.0133471
0.0179273
0.0226114
0.0273062
0.0319332
0.0364161
0.0406697
0.0445987
0.0481083
0.0511057
0.0535088
0.0552694
0.0563222
0.0566349
0.056179
0.0549847
0.0533132
0.0514585
0.0497615
0.0485626
0.0478955
0.0477321
0.0481341
0.0489092
0.0497902
0.0507376
0.0516758
0.0526846
0.0543333
0.0572568
0.0600865
0.0610986
0.0622958
0.0619131
0.0574952
0.0527926
0.0510206
0.0510171
0.0575556
0.0627888
0.062442
0.0652152
0.0630679
0.0438814
-0.0211248
-0.087445
-0.127565
-0.108404
-0.0342454
-0.00581504
-0.0086044
-0.00929146
-0.007997
-0.00557959
-0.00280415
-2.86595e-05
0.00271829
0.00556693
0.00865242
0.0120339
0.0156871
0.0195369
0.0234957
0.0274862
0.0314429
0.0353018
0.0389939
0.0424383
0.0455559
0.0482707
0.0505101
0.0522306
0.0533816
0.0539413
0.0539108
0.0533185
0.0523351
0.0511707
0.0500367
0.0491976
0.0487317
0.0486034
0.0489091
0.0495544
0.0502885
0.0511508
0.0521601
0.0532688
0.0547983
0.0574377
0.0601127
0.0611858
0.0615755
0.0608517
0.0578503
0.0543099
0.0528488
0.0518677
0.0558056
0.0587571
0.0578154
0.0596474
0.0578345
0.0427297
-0.00621864
-0.0586352
-0.0924388
-0.0791223
-0.025324
0.000644602
-0.00182744
-0.0025382
-0.00155762
0.000404696
0.00269412
0.00499109
0.00725902
0.00960289
0.0121405
0.0149297
0.0179576
0.0211664
0.0244852
0.02785
0.0312064
0.034502
0.0376814
0.040678
0.043426
0.0458632
0.0479299
0.0495862
0.0507935
0.0515343
0.051819
0.051676
0.0512174
0.0505772
0.0499031
0.0493836
0.049117
0.0490755
0.0493445
0.0499114
0.0505618
0.0513474
0.0523571
0.0534797
0.054856
0.0571475
0.0593544
0.0604236
0.0603724
0.0594211
0.0573262
0.0547865
0.0535999
0.0523038
0.0540789
0.0552483
0.0537025
0.0542641
0.0504839
0.0399641
0.00736871
-0.0304183
-0.0580846
-0.0511851
-0.0163718
0.00635225
0.00419081
0.00349401
0.00422411
0.00580131
0.00767341
0.00955865
0.0114147
0.0133254
0.015393
0.0176731
0.0201615
0.0228136
0.0255725
0.0283865
0.0312111
0.0340034
0.0367205
0.0393081
0.0417125
0.0438827
0.0457704
0.0473403
0.0485632
0.0494241
0.0499324
0.050115
0.0500457
0.0497944
0.0494848
0.0492401
0.0491539
0.0492188
0.0494921
0.050008
0.0506114
0.0513306
0.0522778
0.0533451
0.0545255
0.0561103
0.0581057
0.0591194
0.0589171
0.0579105
0.0563486
0.0545771
0.0535267
0.0522963
0.0525607
0.0526438
0.0506382
0.0501373
0.0456868
0.0377151
0.0185608
-0.0072037
-0.0291823
-0.027403
-0.00852393
0.0114288
0.00955759
0.00888868
0.00941233
0.0106623
0.0121764
0.0137073
0.0152106
0.0167532
0.0184224
0.0202694
0.0222959
0.0244688
0.0267431
0.0290767
0.0314335
0.0337805
0.036085
0.0383032
0.0403913
0.0423072
0.0440132
0.0454795
0.0466825
0.0476085
0.0482631
0.0486647
0.048847
0.0489029
0.0488777
0.0488603
0.0489292
0.0490969
0.0493972
0.049879
0.050449
0.0511105
0.0519599
0.0529312
0.0539558
0.0552091
0.0566756
0.0575158
0.05731
0.0563758
0.0551392
0.053864
0.0528671
0.0518037
0.0513066
0.0507647
0.048581
0.0474676
0.0431178
0.0364506
0.0256604
0.00810275
-0.00882818
-0.0109737
-0.00282069
0.0159394
0.0143264
0.0136956
0.0140499
0.0150259
0.0162365
0.0174674
0.0186735
0.0199064
0.0212399
0.0227206
0.0243548
0.0261186
0.027977
0.0298961
0.0318455
0.0337951
0.03574
0.037628
0.0394268
0.0411033
0.0426279
0.0439765
0.0451297
0.0460755
0.0468142
0.047359
0.0477279
0.0479831
0.0481616
0.0483196
0.0485136
0.0487675
0.0491016
0.0495602
0.050097
0.0507046
0.0514457
0.0522924
0.0531471
0.0541188
0.0551628
0.0557914
0.0556154
0.0548115
0.0537915
0.0527769
0.0518002
0.0507738
0.0499185
0.0490253
0.0469143
0.0453323
0.0413117
0.034609
0.0273625
0.0150811
0.0024212
-0.00160811
0.00034023
0.0199291
0.0185247
0.0179253
0.0181653
0.0189288
0.0198899
0.0208709
0.021828
0.0228014
0.0238533
0.0250264
0.0263304
0.0277485
0.029253
0.0308176
0.0324202
0.0340426
0.0356552
0.0372432
0.038777
0.040229
0.0415754
0.0427964
0.043876
0.0448037
0.0455754
0.0461974
0.0466868
0.0470752
0.0473925
0.0476761
0.047964
0.0482826
0.0486444
0.0490849
0.049585
0.0501372
0.0507718
0.051483
0.0521835
0.0529122
0.0536289
0.0540543
0.0538895
0.0532164
0.0523427
0.0514395
0.0504711
0.0494287
0.0483717
0.0471827
0.0451703
0.0430733
0.0394239
0.0333174
0.0272238
0.0180037
0.00818657
0.00317175
0.00181754
0.0234554
0.0222454
0.0216885
0.0218192
0.0223959
0.0231565
0.0239346
0.0246888
0.0254501
0.0262674
0.0271841
0.0282119
0.0293393
0.0305437
0.0318036
0.0331061
0.0344359
0.0357716
0.037098
0.038394
0.0396381
0.040812
0.0419003
0.0428893
0.0437695
0.0445344
0.0451897
0.0457403
0.046207
0.0466101
0.0469751
0.0473257
0.0476854
0.0480632
0.0484847
0.0489436
0.0494363
0.0499706
0.0505499
0.0511049
0.0516355
0.0521039
0.0523531
0.0521762
0.0515989
0.0508173
0.0499559
0.0489821
0.0478872
0.0466973
0.0452729
0.0432777
0.0409108
0.0374859
0.0322862
0.0268406
0.019425
0.0112384
0.0056609
0.00244563
0.0265605
0.0255283
0.0250201
0.0250735
0.0254978
0.0260761
0.0266737
0.0272523
0.0278359
0.0284709
0.0291846
0.0299879
0.0308749
0.0318306
0.0328393
0.0338851
0.03496
0.0360514
0.0371466
0.0382296
0.0392837
0.0402934
0.0412474
0.042135
0.0429472
0.0436758
0.0443245
0.0448945
0.0453965
0.0458425
0.0462505
0.0466347
0.047013
0.047392
0.0477893
0.0482029
0.0486324
0.0490736
0.0495284
0.0499513
0.0503211
0.0506015
0.0507058
0.0504968
0.0499727
0.0492438
0.0483927
0.0474011
0.0462503
0.0449472
0.0433641
0.0413323
0.0388426
0.0355734
0.0311165
0.0261402
0.0198689
0.0127765
0.00701178
0.00270554
0.0292999
0.0284214
0.027958
0.0279508
0.0282516
0.0286844
0.0291369
0.0295745
0.0300141
0.0304907
0.0310317
0.031648
0.0323357
0.0330832
0.0338778
0.0347093
0.0355703
0.0364522
0.0373454
0.0382387
0.0391198
0.0399762
0.0407981
0.0415771
0.0423062
0.0429797
0.043594
0.04415
0.0446529
0.0451083
0.0455278
0.0459193
0.046296
0.0466613
0.0470268
0.0473911
0.0477555
0.0481104
0.0484556
0.0487572
0.0489939
0.0491298
0.049115
0.0488606
0.0483542
0.0476482
0.0467919
0.0457752
0.0445738
0.043181
0.0414958
0.0394197
0.0368824
0.0337173
0.0297218
0.0251387
0.0196474
0.0133861
0.00768846
0.00280258
0.0316994
0.0309531
0.0305352
0.0304856
0.0306889
0.0310033
0.0313361
0.0316566
0.0319771
0.0323258
0.0327262
0.0331888
0.0337117
0.0342864
0.0349031
0.0355537
0.0362331
0.0369356
0.0376539
0.0383796
0.0391044
0.0398185
0.0405139
0.0411837
0.0418226
0.0424241
0.0429848
0.0435027
0.0439801
0.0444186
0.0448249
0.0452022
0.0455591
0.0458968
0.0462229
0.0465344
0.0468324
0.0471061
0.0473535
0.0475485
0.0476726
0.0476933
0.0475795
0.0472734
0.0467589
0.0460536
0.045183
0.044138
0.0428935
0.0414349
0.0396847
0.0375766
0.0350338
0.0319599
0.0282596
0.0239986
0.019052
0.0134278
0.00793017
0.00280613
0.0337919
0.0331639
0.0327914
0.0327116
0.0328365
0.033054
0.0332885
0.0335134
0.0337373
0.0339827
0.0342693
0.0346065
0.0349939
0.0354254
0.0358938
0.036393
0.0369191
0.0374685
0.0380363
0.0386156
0.0392003
0.0397837
0.0403597
0.0409219
0.0414661
0.0419868
0.0424818
0.0429455
0.0433785
0.0437803
0.0441541
0.0445001
0.0448227
0.0451215
0.0454007
0.0456555
0.0458868
0.0460844
0.046244
0.0463447
0.0463718
0.0462972
0.0460998
0.0457394
0.0451998
0.0444798
0.0435885
0.0425148
0.0412353
0.0397304
0.037941
0.0358186
0.0332958
0.0303118
0.0268207
0.0228216
0.0182709
0.0131385
0.00789575
0.00275019
0.035615
0.0350881
0.0347567
0.0346556
0.0347185
0.0348578
0.0350123
0.0351596
0.0353055
0.0354677
0.0356624
0.0358979
0.0361747
0.0364883
0.0368336
0.0372062
0.0376036
0.038023
0.0384612
0.0389135
0.0393745
0.0398393
0.0403043
0.0407642
0.0412155
0.0416548
0.0420721
0.0424706
0.0428464
0.0431971
0.0435241
0.0438254
0.0441027
0.0443538
0.0445799
0.0447754
0.0449406
0.0450658
0.0451455
0.0451622
0.0451044
0.0449483
0.0446777
0.0442624
0.0436882
0.0429437
0.0420279
0.040927
0.0396194
0.0380836
0.0362738
0.0341527
0.0316657
0.0287713
0.0254439
0.0216619
0.0174147
0.0126697
0.00769555
0.0026573
0.0371935
0.0367525
0.0364592
0.0363442
0.0363587
0.036435
0.0365247
0.0366092
0.0366923
0.0367876
0.0369085