/*--------------------------------*- C++ -*----------------------------------*\
| =========                 |                                                 |
| \\      /  F ield         | OpenFOAM: The Open Source CFD Toolbox           |
|  \\    /   O peration     | Version:  2512                                  |
|   \\  /    A nd           | Website:  www.openfoam.com                      |
|    \\/     M anipulation  |                                                 |
\*---------------------------------------------------------------------------*/
FoamFile
{
    version     2.0;
    format      ascii;
    arch        "LSB;label=32;scalar=64";
    class       volScalarField;
    location    "101.55";
    object      p;
}
// * * * * * * * * * * * * * * * * * * * * * * * * * * * * * * * * * * * * * //

dimensions      [0 2 -2 0 0 0 0];

internalField   nonuniform List<scalar> 
13248
(
-0.620715
-0.618136
-0.615676
-0.613596
-0.612419
-0.612357
-0.613066
-0.613592
-0.612442
-0.607853
-0.598214
-0.58247
-0.560376
-0.532525
-0.500116
-0.464612
-0.427427
-0.389731
-0.352374
-0.315993
-0.280797
-0.247231
-0.214362
-0.182158
-0.625506
-0.62286
-0.619876
-0.616888
-0.614352
-0.612359
-0.610366
-0.607231
-0.601475
-0.591697
-0.576958
-0.557006
-0.532277
-0.503708
-0.472439
-0.439572
-0.406019
-0.372478
-0.339462
-0.307335
-0.276341
-0.246718
-0.218213
-0.191433
-0.632312
-0.62934
-0.625846
-0.622033
-0.618133
-0.613957
-0.608721
-0.601267
-0.590462
-0.575569
-0.556424
-0.533417
-0.507306
-0.478987
-0.449299
-0.418941
-0.388455
-0.358264
-0.328689
-0.300007
-0.27238
-0.246007
-0.220736
-0.196402
-0.641448
-0.637809
-0.633663
-0.628901
-0.623346
-0.616456
-0.607326
-0.595079
-0.579226
-0.559792
-0.537231
-0.51224
-0.485564
-0.457864
-0.429672
-0.401397
-0.37336
-0.345817
-0.318983
-0.293039
-0.268111
-0.244381
-0.221648
-0.200025
-0.652924
-0.648273
-0.643242
-0.637209
-0.62947
-0.619186
-0.605597
-0.588423
-0.567945
-0.54481
-0.519786
-0.493581
-0.466757
-0.439727
-0.412788
-0.386161
-0.360027
-0.33454
-0.309838
-0.286036
-0.263238
-0.241513
-0.220737
-0.20093
-0.66663
-0.660689
-0.654488
-0.646702
-0.636059
-0.621632
-0.603179
-0.581225
-0.556732
-0.53069
-0.503898
-0.476911
-0.450073
-0.423599
-0.397626
-0.372262
-0.347597
-0.323715
-0.30069
-0.278592
-0.257472
-0.237367
-0.218205
-0.200024
-0.682363
-0.674964
-0.667261
-0.657077
-0.642643
-0.623349
-0.599834
-0.57345
-0.545583
-0.517277
-0.489181
-0.461639
-0.43481
-0.408764
-0.383535
-0.359152
-0.335637
-0.313018
-0.291321
-0.270569
-0.250783
-0.23196
-0.214079
-0.19713
-0.699786
-0.69083
-0.681208
-0.667794
-0.648608
-0.623886
-0.595363
-0.565019
-0.534352
-0.50425
-0.47513
-0.447139
-0.420292
-0.394558
-0.3699
-0.346283
-0.323685
-0.302085
-0.281471
-0.261829
-0.243144
-0.225396
-0.208579
-0.192595
-0.718257
-0.707688
-0.695616
-0.677994
-0.65319
-0.622783
-0.589546
-0.555758
-0.522771
-0.491204
-0.461242
-0.432867
-0.405986
-0.380496
-0.356301
-0.333322
-0.311493
-0.290755
-0.271061
-0.252364
-0.234621
-0.217802
-0.201875
-0.186673
-0.736755
-0.724528
-0.709339
-0.686514
-0.65549
-0.61947
-0.581965
-0.545224
-0.510299
-0.477511
-0.446841
-0.418139
-0.391231
-0.365954
-0.342166
-0.319747
-0.298596
-0.278623
-0.259752
-0.241913
-0.225042
-0.209094
-0.193997
-0.179562
-0.75389
-0.739948
-0.720839
-0.691914
-0.654387
-0.613046
-0.571759
-0.5325
-0.49595
-0.462154
-0.430915
-0.401978
-0.375098
-0.350062
-0.326687
-0.304817
-0.28432
-0.265082
-0.247003
-0.229994
-0.213981
-0.198901
-0.184643
-0.171053
-0.768019
-0.752278
-0.72838
-0.692627
-0.648582
-0.602338
-0.55776
-0.516396
-0.47854
-0.443978
-0.41236
-0.38334
-0.356609
-0.331906
-0.309013
-0.287742
-0.267934
-0.249456
-0.23219
-0.216031
-0.200902
-0.186737
-0.173411
-0.160837
-0.427748
-0.43088
-0.432743
-0.434808
-0.437709
-0.441569
-0.446296
-0.451733
-0.457646
-0.46375
-0.469729
-0.475272
-0.480122
-0.484129
-0.487302
-0.489843
-0.49214
-0.494707
-0.49809
-0.50276
-0.508989
-0.51668
-0.52484
-0.532714
-0.452474
-0.456108
-0.459005
-0.462629
-0.467502
-0.473822
-0.481252
-0.489552
-0.49831
-0.506987
-0.514947
-0.521506
-0.525997
-0.527871
-0.526795
-0.522746
-0.516053
-0.507387
-0.497713
-0.488162
-0.479725
-0.472744
-0.466997
-0.463663
-0.479321
-0.483039
-0.486807
-0.491974
-0.49898
-0.507541
-0.517593
-0.528795
-0.540494
-0.551899
-0.562062
-0.569913
-0.574355
-0.574387
-0.569261
-0.558635
-0.542671
-0.52207
-0.498055
-0.472249
-0.446221
-0.420869
-0.397012
-0.378299
-0.506837
-0.510185
-0.514486
-0.520807
-0.52939
-0.540044
-0.552464
-0.566044
-0.580233
-0.593947
-0.605956
-0.614842
-0.619104
-0.617312
-0.608316
-0.591458
-0.566726
-0.534788
-0.497023
-0.455373
-0.411966
-0.368516
-0.326857
-0.29061
-0.533254
-0.535831
-0.540228
-0.547224
-0.556816
-0.568764
-0.582693
-0.597993
-0.613698
-0.628762
-0.641696
-0.650795
-0.654219
-0.65019
-0.637258
-0.614513
-0.581989
-0.540341
-0.491106
-0.436447
-0.379043
-0.321198
-0.265851
-0.212204
-0.556896
-0.55847
-0.562385
-0.569532
-0.579424
-0.591781
-0.60618
-0.621961
-0.638142
-0.653431
-0.666219
-0.674594
-0.676477
-0.669859
-0.653155
-0.624701
-0.585789
-0.53676
-0.479588
-0.416788
-0.351362
-0.2854
-0.222382
-0.160834
-0.576467
-0.576773
-0.580193
-0.586742
-0.596126
-0.607985
-0.621841
-0.637005
-0.652447
-0.666828
-0.678424
-0.685198
-0.684923
-0.675459
-0.655098
-0.622877
-0.579198
-0.525485
-0.464209
-0.398243
-0.330945
-0.264334
-0.201781
-0.141647
-0.591511
-0.590672
-0.59312
-0.598579
-0.606757
-0.617313
-0.629755
-0.643355
-0.657101
-0.669639
-0.679193
-0.68365
-0.680724
-0.668277
-0.644742
-0.609524
-0.563338
-0.508126
-0.446704
-0.382162
-0.317619
-0.255223
-0.197429
-0.144145
-0.602191
-0.600433
-0.601708
-0.605666
-0.61209
-0.620728
-0.631121
-0.64247
-0.653916
-0.664003
-0.670911
-0.672474
-0.666418
-0.650766
-0.624308
-0.586985
-0.540052
-0.485857
-0.427336
-0.367424
-0.308718
-0.252871
-0.201446
-0.154101
-0.609246
-0.606895
-0.606984
-0.609233
-0.613599
-0.619964
-0.627846
-0.636773
-0.645586
-0.652821
-0.656584
-0.654682
-0.644983
-0.625905
-0.596839
-0.55839
-0.512307
-0.461069
-0.407374
-0.353574
-0.301652
-0.252534
-0.207491
-0.165783
-0.613806
-0.611195
-0.610221
-0.610782
-0.613045
-0.617005
-0.622509
-0.628787
-0.634708
-0.638676
-0.638691
-0.632653
-0.618822
-0.596272
-0.565143
-0.526647
-0.482749
-0.435728
-0.387675
-0.340299
-0.294824
-0.251791
-0.212187
-0.174595
-0.617187
-0.614552
-0.612719
-0.611786
-0.612117
-0.613973
-0.617056
-0.620593
-0.623282
-0.623361
-0.618862
-0.608052
-0.589869
-0.564195
-0.531854
-0.494376
-0.453591
-0.411272
-0.368812
-0.327308
-0.287304
-0.249335
-0.213941
-0.180477
-0.543452
-0.555692
-0.555192
-0.540196
-0.503527
-0.443885
-0.370905
-0.300572
-0.245551
-0.210343
-0.193841
-0.193085
-0.204988
-0.230089
-0.272608
-0.330209
-0.384689
-0.409976
-0.388547
-0.330107
-0.261073
-0.201863
-0.15985
-0.135039
-0.124789
-0.126727
-0.144033
-0.180406
-0.226972
-0.259492
-0.254374
-0.216984
-0.169698
-0.131625
-0.10955
-0.102967
-0.114551
-0.143593
-0.172965
-0.179306
-0.155359
-0.122675
-0.096237
-0.0805996
-0.0766537
-0.0780771
-0.0792733
-0.0755842
-0.0672203
-0.0595229
-0.0574291
-0.0590689
-0.0596046
-0.0559316
-0.0473184
-0.0352323
-0.0320744
-0.0228779
-0.0170891
-0.00615534
-0.466142
-0.474914
-0.474716
-0.462794
-0.430409
-0.379559
-0.318069
-0.260037
-0.216028
-0.189768
-0.180703
-0.185957
-0.202961
-0.233013
-0.280061
-0.340658
-0.396509
-0.421747
-0.401071
-0.340883
-0.268519
-0.205919
-0.160794
-0.132528
-0.118678
-0.116503
-0.128133
-0.15716
-0.196729
-0.224989
-0.220857
-0.189616
-0.150421
-0.120147
-0.104812
-0.10489
-0.124052
-0.160949
-0.196676
-0.205147
-0.176741
-0.136637
-0.102875
-0.0808765
-0.0713514
-0.0672521
-0.0659485
-0.0618673
-0.0567011
-0.0540778
-0.0577474
-0.0659662
-0.0686202
-0.0663114
-0.0540441
-0.0341487
-0.0263708
-0.0112643
-0.00830656
-0.00521152
-0.369879
-0.370942
-0.367192
-0.357845
-0.333133
-0.296399
-0.25041
-0.207199
-0.175344
-0.158907
-0.157656
-0.168879
-0.190092
-0.222917
-0.271334
-0.332731
-0.390145
-0.419305
-0.400678
-0.341621
-0.26847
-0.204793
-0.158248
-0.127557
-0.110364
-0.104275
-0.110337
-0.131912
-0.164236
-0.188986
-0.186513
-0.161423
-0.12989
-0.106718
-0.0977655
-0.104534
-0.131217
-0.175528
-0.217214
-0.228455
-0.196669
-0.149449
-0.108451
-0.0805722
-0.0662096
-0.0571605
-0.0533832
-0.0485322
-0.0462317
-0.0484251
-0.0578347
-0.0725416
-0.0772133
-0.0761569
-0.0605199
-0.0330165
-0.0207496
8.70773e-05
0.000134871
-0.00424253
-0.268852
-0.257321
-0.249599
-0.240355
-0.222299
-0.201281
-0.171636
-0.14388
-0.124974
-0.118799
-0.125425
-0.141976
-0.165904
-0.199291
-0.246931
-0.307868
-0.367111
-0.399879
-0.386332
-0.331546
-0.260921
-0.198556
-0.15231
-0.120586
-0.100946
-0.0911493
-0.0919223
-0.106434
-0.131732
-0.153192
-0.152872
-0.133569
-0.108713
-0.091681
-0.0883249
-0.10108
-0.134482
-0.185749
-0.233214
-0.247759
-0.214137
-0.160756
-0.112856
-0.0796424
-0.0612424
-0.0479398
-0.0417137
-0.0357428
-0.0358839
-0.042552
-0.0575564
-0.0786897
-0.0852752
-0.0852939
-0.066646
-0.0318804
-0.0153355
0.0109879
0.0082129
-0.00320928
-0.178294
-0.152036
-0.137712
-0.128791
-0.117323
-0.109392
-0.0919718
-0.0779542
-0.0709486
-0.0741232
-0.0875693
-0.108154
-0.133428
-0.166086
-0.211861
-0.271136
-0.331302
-0.368382
-0.361015
-0.312612
-0.247378
-0.188345
-0.143611
-0.112006
-0.0910143
-0.0785318
-0.0744403
-0.0822082
-0.100797
-0.119134
-0.121001
-0.106838
-0.0875274
-0.0754014
-0.0765556
-0.0942109
-0.133117
-0.190612
-0.243349
-0.261706
-0.228294
-0.170345
-0.116171
-0.0781646
-0.0564557
-0.0396537
-0.031052
-0.0236175
-0.0256547
-0.0364141
-0.0568205
-0.0843392
-0.0927067
-0.093572
-0.0723521
-0.0307937
-0.0102292
0.0212485
0.0159263
-0.00209128
-0.112389
-0.0692521
-0.0473949
-0.0340802
-0.0223495
-0.0260169
-0.0188634
-0.0162439
-0.0191566
-0.02964
-0.0479154
-0.0708635
-0.0963867
-0.12792
-0.171802
-0.22898
-0.288983
-0.329275
-0.327979
-0.287011
-0.229031
-0.17512
-0.133001
-0.102282
-0.0808358
-0.0667206
-0.0591387
-0.060845
-0.0729708
-0.0881218
-0.0948707
-0.0821094
-0.0670985
-0.0585852
-0.0629391
-0.0842421
-0.127359
-0.189836
-0.24698
-0.269535
-0.238386
-0.177896
-0.118453
-0.0762284
-0.0518741
-0.0323551
-0.0214958
-0.0114365
-0.0156219
-0.0300529
-0.0555266
-0.0893955
-0.0994296
-0.100855
-0.0775595
-0.0298105
-0.00551423
0.0307009
0.0232506
-0.000884364
-0.0882038
-0.0322997
0.0084968
0.0330095
0.0461882
0.046915
0.0454773
0.0394194
0.0298299
0.0146445
-0.00647094
-0.0307069
-0.0565633
-0.0880116
-0.130976
-0.186104
-0.2448
-0.286653
-0.290404
-0.25723
-0.20759
-0.159998
-0.121454
-0.0922014
-0.0708576
-0.0558221
-0.045962
-0.0429958
-0.0491048
-0.0604273
-0.0673497
-0.0595868
-0.0482016
-0.0420751
-0.0483478
-0.0719293
-0.117181
-0.183204
-0.244068
-0.270807
-0.24398
-0.183131
-0.119826
-0.0739607
-0.0475067
-0.026044
-0.0131881
-0.00154735
-0.0059342
-0.0234616
-0.0536511
-0.0938521
-0.105416
-0.107054
-0.0821884
-0.0289645
-0.00125263
0.0391964
0.0301432
0.000404934
-0.0944581
-0.0396986
0.0112021
0.0522174
0.0797391
0.0918833
0.0930262
0.085733
0.0739511
0.0574263
0.0354827
0.0101652
-0.0173072
-0.0501927
-0.092894
-0.145681
-0.201576
-0.242779
-0.250266
-0.224901
-0.184286
-0.143781
-0.109543
-0.0823379
-0.0614999
-0.046057
-0.0347917
-0.0283837
-0.0294273
-0.036853
-0.0437064
-0.040128
-0.0314679
-0.0268071
-0.0336391
-0.0578738
-0.103864
-0.171022
-0.234473
-0.265573
-0.244296
-0.185573
-0.12031
-0.0714659
-0.043363
-0.0206393
-0.00614937
0.00710396
0.00325109
-0.016777
-0.051102
-0.0976122
-0.110632
-0.11206
-0.0861581
-0.0282596
0.00252699
0.0466151
0.0365562
0.00176227
-0.109499
-0.0603383
-0.0110873
0.0329881
0.0693339
0.0961069
0.113272
0.11441
0.107269
0.0939577
0.0738992
0.0483876
0.0189024
-0.0158916
-0.0584496
-0.108634
-0.161113
-0.200382
-0.210202
-0.192091
-0.160404
-0.127144
-0.0975764
-0.0728891
-0.0529991
-0.0375183
-0.0255542
-0.0169092
-0.0139347
-0.0176363
-0.023991
-0.0239121
-0.017248
-0.013406
-0.0196423
-0.043157
-0.0876871
-0.154127
-0.219582
-0.254873
-0.240109
-0.18491
-0.119814
-0.0687716
-0.0394491
-0.0160105
-0.000351603
0.0143981
0.0118989
-0.00989003
-0.0479353
-0.100809
-0.115091
-0.115919
-0.0894291
-0.0277201
0.0058057
0.0528688
0.0424493
0.00316595
-0.127145
-0.08444
-0.0397536
0.00353359
0.0417035
0.0736258
0.0973635
0.110782
0.114273
0.110994
0.0981673
0.0757486
0.0462587
0.0115291
-0.0286136
-0.0744995
-0.121621
-0.157291
-0.168851
-0.158341
-0.135973
-0.110337
-0.0858443
-0.0641138
-0.045636
-0.0305082
-0.0183335
-0.00852259
-0.00264242
-0.00283346
-0.00791462
-0.0108854
-0.00563806
-0.00235598
-0.00730714
-0.0287993
-0.0708583
-0.134788
-0.199112
-0.238367
-0.229405
-0.180566
-0.118295
-0.0660662
-0.0359125
-0.0121994
0.00419029
0.0203194
0.0197267
-0.00314241
-0.0440796
-0.103128
-0.118719
-0.11843
-0.0919808
-0.0274454
0.00849062
0.0578897
0.0477773
0.00458661
-0.139979
-0.103332
-0.0645038
-0.0230449
0.0164732
0.0510436
0.0796963
0.0970955
0.107142
0.110902
0.106818
0.0927445
0.0671184
0.0338735
-0.00437163
-0.0463336
-0.0879148
-0.121407
-0.133701
-0.129911
-0.11533
-0.0961274
-0.0761269
-0.0572127
-0.0402624
-0.0256542
-0.0134477
-0.00307758
0.00471607
0.0076228
0.00459555
0.000918562
0.00383915
0.00623335
0.00310797
-0.0149914
-0.0531158
-0.113382
-0.177555
-0.219346
-0.221143
-0.17485
-0.116608
-0.0640813
-0.0331306
-0.00914921
0.0073638
0.0246134
0.0269165
0.00382136
-0.0395471
-0.105078
-0.121616
-0.120059
-0.0937203
-0.0273693
0.0105502
0.0615729
0.0525151
0.0059891
-0.152698
-0.124033
-0.0934792
-0.0586761
-0.0226723
0.01151
0.0431617
0.0668595
0.0843121
0.0948782
0.0979734
0.0924049
0.0773378
0.0529842
0.02242
-0.0117443
-0.046681
-0.0716538
-0.090297
-0.0943112
-0.0890945
-0.0779089
-0.063699
-0.0484944
-0.033755
-0.0202582
-0.00853323
0.00183931
0.0107095
0.0157867
0.0145269
0.0104605
0.0102941
0.0126105
0.0101639
-0.00463485
-0.037223
-0.092012
-0.152645
-0.195157
-0.199359
-0.163033
-0.111717
-0.0610629
-0.0300689
-0.0056247
0.0104004
0.0274471
0.0325804
0.0102029
-0.0342961
-0.105622
-0.123455
-0.120054
-0.0940287
-0.0266204
0.0125566
0.0640676
0.0565905
0.00734553
-0.140634
-0.123066
-0.0940719
-0.0606354
-0.0277529
0.00262359
0.0277343
0.0537076
0.0715058
0.0832979
0.0898651
0.0888148
0.0778026
0.0578322
0.0315531
0.00125138
-0.0291238
-0.0543841
-0.0674399
-0.0718759
-0.0687746
-0.0603272
-0.0489136
-0.0362317
-0.0235716
-0.0116012
-0.000956134
0.00847828
0.0169851
0.022938
0.0233282
0.019091
0.0171575
0.0181802
0.0180893
0.00799657
-0.0197173
-0.0708713
-0.130001
-0.174279
-0.182757
-0.150357
-0.101882
-0.053778
-0.0243667
-0.00112643
0.0143421
0.0311755
0.0388195
0.0173501
-0.0279249
-0.105704
-0.125444
-0.128727
-0.0929756
-0.0247733
0.0148004
0.0659169
0.0598744
0.00855958
-0.130998
-0.115796
-0.0886078
-0.0579008
-0.0287605
-0.00258162
0.0208469
0.0420545
0.0588651
0.0708638
0.0775426
0.0774842
0.0695151
0.0542095
0.0334761
0.00947672
-0.014489
-0.0340142
-0.045894
-0.0505886
-0.049266
-0.0435286
-0.0350257
-0.0249375
-0.0144349
-0.00415457
0.00538624
0.0140376
0.0217653
0.0273389
0.027831
0.0234621
0.0201666
0.0212417
0.021725
0.0141634
-0.00906205
-0.0548735
-0.110782
-0.153955
-0.162367
-0.134014
-0.0905083
-0.0463572
-0.0189268
0.00303037
0.0177238
0.0339637
0.0424002
0.0223059
-0.0230831
-0.105752
-0.126649
-0.12205
-0.0904545
-0.0227333
0.0167391
0.0669065
0.0620725
0.00959999
-0.12109
-0.107582
-0.0841254
-0.0572451
-0.0316194
-0.00840799
0.0124881
0.0312053
0.0465621
0.057687
0.0640886
0.065065
0.059965
0.04909
0.0338668
0.0160509
-0.00211523
-0.0176243
-0.0282374
-0.0334337
-0.0337739
-0.0301777
-0.0238415
-0.0156891
-0.00679629
0.00216747
0.0106754
0.0184713
0.025488
0.0308994
0.0317009
0.0273988
0.0236174
0.0235369
0.0236354
0.0167799
-0.00370895
-0.0446084
-0.0936853
-0.130838
-0.140386
-0.116692
-0.0788357
-0.0390239
-0.0138206
0.00672199
0.0206751
0.0360107
0.0450011
0.0256139
-0.0200419
-0.105713
-0.126643
-0.117229
-0.0866203
-0.0205182
0.0184408
0.0669424
0.063358
0.0105378
-0.109632
-0.0992772
-0.0798515
-0.0565772
-0.0339283
-0.0133901
0.00504366
0.0213936
0.0350521
0.045326
0.051785
0.0539432
0.0513687
0.0442262
0.0334456
0.0202727
0.00644266
-0.00599811
-0.0149727
-0.0199375
-0.0209335
-0.0185277
-0.0137193
-0.00718215
0.000218276
0.00784578
0.0152915
0.0222432
0.02838
0.0332129
0.0341792
0.0300729
0.0259728
0.0249331
0.0250009
0.0185438
-2.43402e-05
-0.0350279
-0.0744442
-0.105952
-0.116898
-0.0978822
-0.0659742
-0.0313344
-0.00883782
0.0101387
0.023249
0.0371122
0.0468018
0.0280342
-0.0172621
-0.104315
-0.125268
-0.110978
-0.0811793
-0.0178647
0.0199572
0.0659136
0.0637503
0.0114027
-0.0990168
-0.0914992
-0.0754875
-0.0554345
-0.0355726
-0.0175678
-0.00152881
0.0127263
0.024911
0.0344899
0.0409929
0.0440182
0.0432837
0.0388835
0.0314709
0.0220337
0.0119084
0.00240574
-0.00479622
-0.00907506
-0.0103361
-0.00885318
-0.00529979
-0.000121118
0.00604844
0.0125829
0.0190584
0.025224
0.0306094
0.0347502
0.0357437
0.0319481
0.0277129
0.0261053
0.0257738
0.0195715
0.00358346
-0.0236125
-0.0535914
-0.0805443
-0.0926605
-0.0785895
-0.0527914
-0.0236642
-0.00413862
0.013109
0.0254005
0.0372879
0.047595
0.0299525
-0.0137494
-0.100847
-0.122032
-0.103082
-0.0741589
-0.0147825
0.0212578
0.0637726
0.0632145
0.0121786
-0.089392
-0.0838103
-0.0706769
-0.0536539
-0.0365562
-0.0208935
-0.0069332
0.00551953
0.0163442
0.0251365
0.0314698
0.0350188
0.0356114
0.0333374
0.0286511
0.0222863
0.0153812
0.00821553
0.0026622
-0.000832546
-0.0020567
-0.00104905
0.00173172
0.00593598
0.0110965
0.0166526
0.0221717
0.027518
0.0322052
0.0356318
0.0365688
0.0331743
0.0290307
0.0270299
0.0262232
0.0202668
0.00765076
-0.0117067
-0.0332294
-0.0557734
-0.0688731
-0.0595478
-0.0395281
-0.015999
0.000326342
0.0156598
0.0270857
0.0366665
0.0472594
0.031418
-0.00947758
-0.094797
-0.116292
-0.0935419
-0.0656784
-0.0111991
0.02236
0.0605537
0.061674
0.0128064
-0.0799216
-0.0760053
-0.0655254
-0.0513642
-0.0366672
-0.0231999
-0.0111105
-0.000280949
0.00925096
0.0172101
0.0232584
0.0271391
0.0287355
0.0280952
0.0255036
0.0214325
0.0164252
0.0118689
0.00793226
0.00536367
0.00445266
0.00524926
0.00747204
0.0108708
0.0151446
0.0198757
0.0245849
0.029168
0.0332463
0.0360913
0.0369281
0.0340168
0.0302076
0.0280849
0.0269735
0.0208907
0.0110326
-0.0011797
-0.0143748
-0.0325032
-0.0463816
-0.0415463
-0.0268232
-0.00861292
0.00450036
0.0178049
0.028295
0.0356028
0.0457318
0.0321901
-0.00466849
-0.0855472
-0.107241
-0.0823775
-0.05605
-0.00716157
0.0232675
0.0563693
0.059044
0.0132153
-0.0708416
-0.0684128
-0.0601595
-0.0483552
-0.0360182
-0.024494
-0.0140932
-0.0047288
0.00361348
0.0107607
0.0164603
0.0205042
0.0227917
0.0233393
0.0223386
0.0201346
0.0171381
0.0141753
0.0115875
0.00989126
0.00935008
0.0100793
0.0119555
0.0148046
0.0183983
0.0224338
0.0264434
0.0303144
0.0338142
0.0362054
0.0369594
0.0346172
0.0313376
0.0293205
0.0282028
0.0219404
0.0140751
0.0082823
0.00247525
-0.0121619
-0.0266242
-0.0254641
-0.0151501
-0.0016268
0.00842474
0.0196249
0.0290815
0.0345484
0.0431588
0.0322003
0.000749463
-0.0725309
-0.0941096
-0.0698034
-0.0457822
-0.00277218
0.0240102
0.0514051
0.0552923
0.0133563
-0.062461
-0.0610729
-0.0546332
-0.0449986
-0.0346372
-0.0248512
-0.0159608
-0.00790332
-0.000637428
0.00573329
0.0110263
0.0150764
0.017794
0.0191752
0.0193569
0.0186197
0.0170955
0.015439
0.0139582
0.0130408
0.0129243
0.0137318
0.0154179
0.0178597
0.0208879
0.0243161
0.0277412
0.031019
0.0340116
0.0360367
0.0367584
0.0350156
0.0324146
0.0307341
0.029828
0.0249532
0.0195329
0.0184154
0.0164101
0.00357226
-0.0105721
-0.0117278
-0.00487385
0.00475808
0.0121092
0.0212124
0.0295596
0.0338759
0.0401421
0.0318055
0.00692565
-0.055757
-0.0765808
-0.05614
-0.0354924
0.00175905
0.0246177
0.0459233
0.0505055
0.0132158
-0.0545181
-0.0539114
-0.0489966
-0.0412098
-0.032609
-0.024369
-0.0168175
-0.00991945
-0.00362537
0.00200724
0.00685372
0.0107873
0.0137317
0.0156679
0.0166697
0.0168589
0.0165508
0.0159604
0.0153978
0.0151618
0.0154527
0.0163778
0.0179475
0.0200974
0.0227
0.02564
0.028583
0.0313737
0.0339364
0.0356658
0.0363859
0.0352354
0.0333592
0.0322211
0.0319713
0.0296552
0.0274674
0.0286512
0.0266349
0.0147557
0.00201636
-0.00036881
0.00382537
0.0104131
0.0155376
0.0226808
0.0298707
0.0336625
0.0376165
0.0314694
0.0135499
-0.0364502
-0.0554504
-0.0419501
-0.0257655
0.00618275
0.025147
0.0403145
0.0449402
0.0128123
-0.0469692
-0.046995
-0.0433538
-0.0371326
-0.0300517
-0.0231593
-0.016784
-0.0109147
-0.00549881
-0.000558832
0.00382467
0.00755663
0.0105708
0.0128398
0.0144024
0.015328
0.015807
0.0160178
0.0161726
0.0164839
0.0171237
0.0181879
0.0197122
0.0216662
0.0239436
0.0264838
0.0290282
0.0314258
0.0336351
0.0351553
0.0358923
0.035303
0.0341382
0.033603
0.0341604
0.0338427
0.0342997
0.036241
0.0332165
0.0226205
0.0118085
0.00875105
0.0108883
0.015237
0.0186283
0.024067
0.0300948
0.0337268
0.0361764
0.0314191
0.0196672
-0.0170584
-0.0329642
-0.0280389
-0.0170307
0.0102335
0.0256691
0.0351681
0.0390824
0.0122242
-0.0398572
-0.0403995
-0.0378049
-0.0328847
-0.0270861
-0.0213515
-0.0160036
-0.0110433
-0.00641373
-0.00211406
0.0018055
0.00527398
0.00823714
0.0106587
0.0125527
0.0139689
0.0150068
0.015792
0.0164776
0.0172166
0.0181484
0.0193506
0.0208587
0.0226701
0.0246996
0.0269232
0.0291476
0.0312396
0.0331606
0.0345495
0.0353252
0.0352244
0.0347021
0.0346418
0.0357509
0.0365044
0.0379284
0.0398799
0.0367411
0.0279577
0.0191148
0.0157508
0.0163816
0.0191935
0.0213097
0.0253522
0.030254
0.0337939
0.0357097
0.0315136
0.0238792
-0.000540142
-0.0121548
-0.0153751
-0.00950465
0.0136382
0.0261972
0.0312594
0.0337375
0.0116469
-0.0333833
-0.0342385
-0.032411
-0.0285317
-0.0238125
-0.0190768
-0.0146224
-0.0104577
-0.00652678
-0.00281512
0.000649888
0.00381617
0.00664051
0.00908555
0.0111472
0.0128477
0.0142476
0.0154245
0.0164887
0.0175446
0.0186969
0.0200089
0.021511
0.0232189
0.0250637
0.0270409
0.0290062
0.0308643
0.0325566
0.03387
0.0347001
0.0349781
0.0349929
0.0352652
0.0365665
0.0377011
0.039116
0.0406555
0.0380547
0.0311968
0.0241565
0.0208686
0.020503
0.0222901
0.0235239
0.0264668
0.0303437
0.0336068
0.035414
0.0311126
0.0254288
0.0112566
0.00398766
-0.00485934
-0.00312976
0.016232
0.0266149
0.02911
0.0297908
0.0113615
-0.0274506
-0.0284232
-0.0271739
-0.0241571
-0.0203554
-0.0164732
-0.0127846
-0.00930809
-0.00599254
-0.00281482
0.000215299
0.00306008
0.00567951
0.00805084
0.0101561
0.0119955
0.0136038
0.0150255
0.0163351
0.0176031
0.0189056
0.020295
0.0217917
0.0234189
0.0251202
0.0269061
0.0286621
0.0303416
0.0318571
0.0331207
0.0340084
0.0345491
0.0349792
0.0354391
0.0366931
0.0378588
0.0389658
0.0399555
0.0379785
0.0328435
0.0273662
0.0244432
0.0235092
0.0245916
0.0252591
0.0273375
0.0303354
0.0331184
0.0347368
0.0306512
0.0256674
0.0184089
0.0139941
0.00318687
0.00224646
0.017979
0.0267896
0.0285489
0.0276649
0.0114237
-0.0218639
-0.0229576
-0.0221906
-0.0198759
-0.0168262
-0.0136553
-0.0106154
-0.00773033
-0.00495331
-0.00225522
0.000366658
0.00288444
0.00527741
0.00750155
0.00955455
0.0114212
0.0131174
0.0146644
0.0161099
0.0175024
0.0188931
0.0203238
0.021804
0.0233604
0.0249452
0.0265802
0.0281673
0.029707
0.0310866
0.0323041
0.03324
0.033931
0.0345678
0.0351837
0.036294
0.0373351
0.0381226
0.038632
0.0371588
0.0334269
0.0292501
0.0268142
0.0256387
0.0262002
0.0265335
0.0279528
0.0301913
0.0324103
0.0337586
0.0304347
0.02628
0.0228936
0.0190423
0.00901184
0.00673954
0.0189248
0.0264507
0.0282092
0.0259618
0.0113093
-0.0167863
-0.0179384
-0.0175066
-0.0157316
-0.0132927
-0.0107165
-0.00822709
-0.00584957
-0.00353985
-0.00126679
0.000977984
0.00317193
0.0053156
0.00736116
0.00929951
0.0111133
0.0128068
0.0143882
0.0158846
0.017329
0.018752
0.0201873
0.0216349
0.0231229
0.0246064
0.0261181
0.0275686
0.0289897
0.0302647
0.0314297
0.0323955
0.0331652
0.0339144
0.0345897
0.0355307
0.0363934
0.0369338
0.037112
0.0360052
0.0333495
0.030218
0.0282624
0.0270628
0.0272316
0.0273911
0.0283192
0.0298972
0.031586
0.0327088
0.0301581
0.0270037
0.0255665
0.0213875
0.0130718
0.0103389
0.0191903
0.0254962
0.0269444
0.0235391
0.0105073
-0.0121916
-0.0133024
-0.013102
-0.011759
-0.00982492
-0.00774589
-0.00571963
-0.00377195
-0.00186258
3.87794e-05
0.00194568
0.00384991
0.00572732
0.00756405
0.0093442
0.0110502
0.0126771
0.0142259
0.0157071
0.0171448
0.0185526
0.0199601
0.0213573
0.0227728
0.0241632
0.0255667
0.0269039
0.0282179
0.0294099
0.0305123
0.0314809
0.0322815
0.0330667
0.0337483
0.0345326
0.0352204
0.0355913
0.0355837
0.0347425
0.032874
0.0305634
0.0290218
0.0278892
0.0278133
0.0278748
0.0284509
0.0294757
0.0306771
0.0313398
0.0296019
0.0272415
0.0265765
0.0224217
0.0157712
0.0130226
0.0189936
0.0239586
0.024599
0.0202706
0.00914502
-0.00797451
-0.00903475
-0.00900882
-0.00800678
-0.00648033
-0.00481009
-0.00316978
-0.00158428
-1.75953e-05
0.00155849
0.00315973
0.00478307
0.00641496
0.00803827
0.00963901
0.0112036
0.0127207
0.014189
0.0156062
0.0169925
0.0183479
0.0196992
0.0210287
0.022364
0.0236649
0.0249659
0.0262053
0.0274176
0.0285367
0.0295712
0.0305166
0.0313141
0.032087
0.0327445
0.0333988
0.0339427
0.0342065
0.0341185
0.0334787
0.0321693
0.0304881
0.0292778
0.0283255
0.0280674
0.0280364
0.0283659
0.0289629
0.0297375
0.0301872
0.0288454
0.02694
0.0263614
0.0227202
0.017448
0.0148593
0.0185674
0.022066
0.0218366
0.0171
0.00766099
-0.00415496
-0.00514453
-0.00523121
-0.00448998
-0.0032917
-0.00195792
-0.000638873
0.000641912
0.00191658
0.00321194
0.00454442
0.00591368
0.00731149
0.00872365
0.0101365
0.0115409
0.0129215
0.0142775
0.0155975
0.0168998
0.0181746
0.0194464
0.0206936
0.0219395
0.0231505
0.0243503
0.0254998
0.0266136
0.0276608
0.0286249
0.0295262
0.0302989
0.0310306
0.0316495
0.0322035
0.0326405
0.032841
0.0327383
0.0322591
0.0313422
0.0301281
0.0291703
0.0284054
0.0280619
0.0279392
0.0280859
0.028376
0.0287736
0.0290081
0.0279495
0.0262824
0.0255088
0.0225414
0.0183674
0.015969
0.0179002
0.0200844
0.0191243
0.0143334
0.00628566
-0.000700111
-0.00159969
-0.00175761
-0.00121961
-0.000286987
0.000770495
0.00182332
0.00284928
0.00387765
0.00493417
0.0060325
0.00717392
0.00835468
0.0095654
0.0107919
0.0120288
0.0132592
0.0144838
0.0156859
0.0168816
0.0180563
0.0192309
0.0203841
0.0215317
0.02265
0.0237486
0.0248098
0.0258281
0.0267995
0.0276918
0.0285341
0.0292679
0.0299448
0.0305187
0.0309985
0.031361
0.0315285
0.0314463
0.0310961
0.030454
0.0295832
0.0288604
0.0282213
0.0278453
0.0276448
0.0276429
0.0277201
0.0278076
0.02782
0.0269597
0.0254297
0.0244285
0.0220591
0.0187305
0.0165
0.0171996
0.01818
0.0166341
0.0120149
0.00510852
0.00242414
0.00161611
0.00141513
0.00179675
0.00251611
0.00334755
0.00418071
0.00499599
0.00581803
0.00667135
0.00756794
0.00850894
0.00949252
0.0105152
0.0115638
0.0126344
0.0137106
0.0147944
0.0158676
0.016943
0.0180057
0.0190709
0.0201214
0.0211643
0.0221859
0.0231832
0.0241537
0.0250795
0.0259705
0.0267904
0.0275643
0.028249
0.0288665
0.029394
0.029819
0.0301316
0.0302842
0.0302371
0.0299879
0.0295407
0.0289157
0.0283642
0.0278356
0.0274559
0.0272025
0.0270738
0.0269965
0.0268583
0.02665
0.0259107
0.0244954
0.0233196
0.0213888
0.0186928
0.0165902
0.0164005
0.016434
0.0144799
0.0101301
0.00415351
0.00523498
0.00451983
0.00429875
0.00456133
0.00510975
0.00575695
0.00640946
0.0070507
0.00770034
0.00838097
0.00910496
0.0098729
0.0106814
0.0115315
0.0124142
0.0133261
0.0142517
0.0151927
0.0161335
0.0170823
0.0180269
0.0189761
0.0199182
0.0208529
0.0217735
0.02267
0.0235469
0.0243826
0.0251897
0.0259366
0.0266379
0.0272664
0.0278258
0.0283069
0.0286887
0.028968
0.0291132
0.0291028
0.0289312
0.0286214
0.0281707
0.0277375
0.0273014
0.0269283
0.0266416
0.0264095
0.0262102
0.0259286
0.0255256
0.0248339
0.0235381
0.0222565
0.0206042
0.0183723
0.0163629
0.0155372
0.014877
0.0126676
0.00861981
0.00340699
0.00775825
0.00713393
0.00690815
0.00708035
0.00749164
0.00798858
0.00849233
0.00898932
0.00949617
0.0100319
0.0106082
0.0112276
0.0118845
0.0125799
0.0133102
0.0140741
0.0148577
0.0156604
0.0164704
0.0172922
0.0181173
0.0189488
0.0197797
0.0206053
0.0214227
0.0222196
0.0230011
0.0237482
0.0244697
0.0251423
0.0257708
0.0263388
0.0268424
0.0272777
0.0276222
0.0278773
0.028017
0.0280367
0.0279235
0.0277069
0.0273791
0.0270258
0.0266629
0.0262967
0.025989
0.0256878
0.0253796
0.0250085
0.0244623
0.0237581
0.0225795
0.0212579
0.0197575
0.0178532
0.0159221
0.0146515
0.0135184
0.0111799
0.00741732
0.00283388
0.0100184
0.00947896
0.00925797
0.00936144
0.00966265
0.0100369
0.010419
0.0107975
0.0111863
0.0116017
0.0120525
0.0125431
0.0130702
0.0136318
0.0142252
0.0148526
0.0155047
0.0161778
0.016863
0.017562
0.0182697
0.0189858
0.019706
0.0204241
0.0211383
0.0218369
0.0225233
0.0231829
0.0238191
0.0244173
0.0249745
0.0254822
0.0259291
0.0263191
0.026628
0.0268619
0.0269952
0.0270343
0.0269644
0.0268066
0.0265639
0.026265
0.0259536
0.0256018
0.0252719
0.0249268
0.0245293
0.0240927
0.0234586
0.0227108
0.0216262
0.0203188
0.0188868
0.0171977
0.0153505
0.0137839
0.0123364
0.00996502
0.0064652
0.00239652
0.0120345
0.0115724
0.0113625
0.0114142
0.0116276
0.0119023
0.012185
0.0124665
0.0127578
0.0130729
0.0134191
0.0137994
0.0142132
0.0146601
0.015136
0.0156413
0.0161721
0.0167258
0.0172949
0.0178787
0.0184742
0.0190799
0.0196929
0.020307
0.0209202
0.0215232
0.0221164
0.02269
0.023243
0.0237667
0.0242531
0.0246999
0.0250923
0.0254372
0.0257108
0.0259217
0.0260469
0.0260938
0.0260531
0.0259296
0.0257424
0.0254806
0.0252013
0.024864
0.0245128
0.0241387
0.0236772
0.023185
0.0225051
0.021712
0.0206849
0.0194241
0.0180239
0.0164608
0.0147054
0.0129604
0.011303
0.00896841
0.00571695
0.00206352
0.0138248
0.0134328
0.0132378
0.0132509
0.0133942
0.013588
0.0137895
0.0139913
0.0142027
0.0144347
0.0146935
0.0149817
0.0152984
0.0156445
0.0160187
0.0164198
0.0168433
0.0172882
0.0177504
0.0182282
0.0187192
0.0192216
0.0197331
0.0202485
0.0207651
0.0212761
0.0217797
0.0222697
0.0227422
0.0231923
0.0236088
0.0239955
0.024335
0.0246342
0.0248726
0.0250568
0.0251705
0.0252145
0.0251897
0.0250847
0.0249289
0.0246935
0.0244291
0.0241041
0.0237341
0.0233375
0.022836
0.022296
0.0215933
0.0207688
0.0197678
0.0185611