/*--------------------------------*- C++ -*----------------------------------*\
| =========                 |                                                 |
| \\      /  F ield         | OpenFOAM: The Open Source CFD Toolbox           |
|  \\    /   O peration     | Version:  2512                                  |
|   \\  /    A nd           | Website:  www.openfoam.com                      |
|    \\/     M anipulation  |                                                 |
\*---------------------------------------------------------------------------*/
FoamFile
{
    version     2.0;
    format      ascii;
    arch        "LSB;label=32;scalar=64";
    class       volVectorField;
    location    "84.65";
    object      U;
}
// * * * * * * * * * * * * * * * * * * * * * * * * * * * * * * * * * * * * * //

dimensions      [0 1 -1 0 0 0 0];

internalField   nonuniform List<vector> 
13248
(
(-0.0272898 0.0213462 5.65341e-20)
(-0.0559604 0.0412774 0)
(-0.0618858 0.0472929 -9.73399e-20)
(-0.0416085 0.0464001 9.01308e-20)
(0.00879345 0.0414707 8.29758e-20)
(0.0932206 0.0335364 0)
(0.213801 0.0235099 0)
(0.3682 0.01252 1.90332e-19)
(0.547884 0.00149578 -6.76043e-22)
(0.738793 -0.00900431 -1.62573e-19)
(0.924269 -0.018971 1.49891e-19)
(1.08872 -0.0288725 -9.2873e-20)
(1.22068 -0.0393626 0)
(1.31461 -0.0509472 -1.55889e-19)
(1.37135 -0.0637409 2.87206e-19)
(1.39712 -0.0774882 -6.88339e-20)
(1.40122 -0.0917197 -1.15816e-19)
(1.39288 -0.105943 1.07987e-19)
(1.37851 -0.119698 0)
(1.36121 -0.133191 0)
(1.34183 -0.143443 0)
(1.31875 -0.159699 0)
(1.29679 -0.157573 2.70109e-20)
(1.26432 -0.192939 9.04818e-20)
(-0.0317316 0.0233348 -1.70433e-19)
(-0.0562776 0.0419176 1.07567e-19)
(-0.046963 0.0445154 -6.75051e-22)
(-0.00176582 0.0390639 -1.37577e-19)
(0.0828693 0.0296158 -8.28548e-20)
(0.209287 0.0186447 -7.75092e-20)
(0.374628 0.00810353 -1.39935e-19)
(0.56787 -0.000642626 1.31055e-19)
(0.770775 -0.00711332 0)
(0.962737 -0.0118156 5.58572e-22)
(1.12629 -0.0159423 1.28541e-21)
(1.25085 -0.020815 9.20715e-20)
(1.33389 -0.0273728 0)
(1.38005 -0.0359177 0)
(1.39841 -0.0461746 1.01099e-19)
(1.39914 -0.0575761 -1.8877e-19)
(1.39043 -0.069436 1.08261e-19)
(1.37703 -0.0813098 -1.00943e-19)
(1.36103 -0.0926489 -4.25831e-20)
(1.34312 -0.103267 -7.55717e-20)
(1.32353 -0.113282 -2.89284e-20)
(1.30387 -0.121807 -5.36635e-20)
(1.28227 -0.127689 8.09639e-20)
(1.26202 -0.139532 2.1794e-20)
(-0.0337137 0.0227733 0)
(-0.0493413 0.0382556 0)
(-0.0186096 0.0379727 4.95846e-20)
(0.0591742 0.0298024 4.51865e-20)
(0.18589 0.0189521 -8.31261e-22)
(0.358681 0.00906728 -8.02946e-20)
(0.564521 0.00243453 0)
(0.780589 -0.000401353 -6.5035e-20)
(0.981379 -0.000542853 6.00692e-20)
(1.14693 1.98249e-05 1.45062e-23)
(1.26739 -0.000630504 -9.88779e-20)
(1.34327 -0.00366024 -8.82807e-20)
(1.3826 -0.00930007 2.59128e-21)
(1.39661 -0.0170809 -6.89383e-20)
(1.39572 -0.0262546 1.66589e-19)
(1.38716 -0.0360995 0)
(1.37475 -0.046112 -1.02117e-19)
(1.36018 -0.0560021 4.9937e-20)
(1.34432 -0.0653186 4.25404e-20)
(1.32743 -0.0747569 0)
(1.31055 -0.0816995 3.31036e-20)
(1.29208 -0.0913122 -1.08456e-19)
(1.27449 -0.0930053 1.01282e-19)
(1.25416 -0.106116 5.90564e-20)
(-0.0328518 0.0200495 -5.98457e-20)
(-0.0337052 0.0304221 -5.71796e-20)
(0.0254346 0.0274628 5.11351e-20)
(0.143459 0.0187717 0)
(0.317596 0.0104219 0)
(0.534 0.00634347 -1.69675e-21)
(0.765242 0.00746278 0)
(0.979499 0.0120048 -1.97996e-19)
(1.15282 0.017039 1.80591e-19)
(1.27518 0.0200655 -2.18843e-19)
(1.34949 0.0198408 4.91685e-20)
(1.38648 0.0163723 0)
(1.39892 0.0104089 7.70305e-20)
(1.39737 0.00286258 -1.40508e-19)
(1.38861 -0.00553522 3.33108e-20)
(1.37625 -0.0143176 8.18225e-20)
(1.36205 -0.0232187 -4.80955e-21)
(1.34693 -0.0319343 -8.81663e-20)
(1.33121 -0.040523 0)
(1.31528 -0.0481972 0)
(1.29862 -0.0556914 -2.94616e-20)
(1.28207 -0.0624023 2.58246e-20)
(1.26517 -0.0657939 8.93955e-20)
(1.24803 -0.077219 -8.34676e-20)
(-0.0287831 0.0158692 -6.28278e-20)
(-0.00758821 0.0198976 -5.82452e-20)
(0.0879806 0.0152838 1.60725e-19)
(0.253073 0.00929855 -9.6842e-20)
(0.474519 0.00807951 8.97002e-20)
(0.721533 0.0136731 1.61324e-19)
(0.954385 0.0236639 -1.12149e-19)
(1.14243 0.0338619 -1.32408e-19)
(1.27342 0.0409767 4.14783e-21)
(1.35145 0.0436695 1.6406e-19)
(1.38939 0.0422475 0)
(1.40154 0.0378039 4.24396e-20)
(1.39922 0.0314708 0)
(1.38963 0.0240747 -6.63936e-20)
(1.37675 0.0161279 9.25839e-20)
(1.36256 0.00794241 1.08511e-21)
(1.34794 -0.000216398 -2.32299e-20)
(1.33309 -0.00825299 4.2999e-20)
(1.31815 -0.0158058 3.61971e-20)
(1.30291 -0.0231687 -3.18619e-20)
(1.28779 -0.0295873 2.94481e-20)
(1.27249 -0.0360344 -2.58125e-20)
(1.25732 -0.0402461 0)
(1.24206 -0.0491376 -1.86926e-20)
(-0.0208451 0.010919 6.2812e-20)
(0.0309789 0.00872818 6.10209e-20)
(0.171223 0.00490835 -5.39439e-20)
(0.386737 0.00597982 9.95555e-20)
(0.646445 0.0158908 -9.22104e-20)
(0.902285 0.0321095 8.21128e-20)
(1.11302 0.0487184 -3.88599e-20)
(1.26065 0.0610638 9.94918e-20)
(1.34853 0.0674232 -6.13382e-20)
(1.39122 0.0683519 1.04396e-19)
(1.40501 0.0653677 -2.36535e-19)
(1.40279 0.0599631 8.5131e-20)
(1.39287 0.0532065 -7.25495e-20)
(1.37977 0.0457522 6.75393e-20)
(1.36562 0.0379796 5.67679e-20)
(1.35119 0.0301309 4.87766e-20)
(1.33664 0.0223268 -1.34337e-19)
(1.32202 0.0147494 8.25522e-20)
(1.30732 0.00735767 -3.61914e-20)
(1.29271 0.000486232 9.22115e-20)
(1.27809 -0.0060694 -2.96931e-20)
(1.26362 -0.0121088 -6.96573e-20)
(1.24931 -0.0166733 6.36548e-20)
(1.23509 -0.0246582 1.86868e-20)
(-0.00822849 0.00582858 0)
(0.0836215 -0.000930144 7.41739e-22)
(0.275152 3.04133e-06 1.1346e-19)
(0.5377 0.0126599 -1.04341e-19)
(0.817785 0.0352483 -9.28731e-20)
(1.05947 0.0597881 1.69509e-19)
(1.23324 0.0792052 -7.73797e-20)
(1.3385 0.0906953 9.97119e-20)
(1.39063 0.0948368 -2.95943e-21)
(1.40845 0.0936465 -5.41916e-20)
(1.40732 0.0891692 1.14627e-19)
(1.39722 0.0828934 -1.66462e-19)
(1.38358 0.0757166 0)
(1.36884 0.0681202 -3.1405e-20)
(1.35389 0.060358 -8.23785e-20)
(1.33902 0.0525678 2.57465e-20)
(1.32434 0.0448838 1.21642e-21)
(1.30987 0.0373623 -5.38566e-20)
(1.29565 0.0301813 4.04867e-21)
(1.28161 0.0232956 6.11707e-20)
(1.26784 0.0168752 -2.66383e-20)
(1.25431 0.0109651 -9.65e-21)
(1.24094 0.00554495 3.04578e-20)
(1.22785 -0.00121167 0)
(0.0100428 0.00111476 0)
(0.151006 -0.00693524 3.11918e-20)
(0.396425 0.00382169 -1.47451e-19)
(0.69449 0.0311684 5.29402e-20)
(0.97365 0.064896 -4.90354e-20)
(1.18481 0.093815 -4.35647e-20)
(1.31738 0.112659 -7.47645e-20)
(1.38556 0.121489 3.73418e-20)
(1.411 0.122826 3.15517e-20)
(1.41254 0.119493 0)
(1.40277 0.113624 6.75158e-20)
(1.38857 0.106509 -9.85724e-20)
(1.3731 0.0988152 7.25888e-20)
(1.35757 0.0908676 3.14189e-20)
(1.34236 0.0828396 -2.51514e-20)
(1.32756 0.074859 -2.05531e-20)
(1.31313 0.0670078 -1.88675e-20)
(1.29901 0.0593908 5.67273e-20)
(1.28516 0.0520281 0)
(1.27161 0.0450318 2.74025e-20)
(1.25835 0.0384274 2.23731e-20)
(1.24536 0.0322464 -5.58599e-20)
(1.23263 0.0264863 -3.70567e-20)
(1.22023 0.0205473 3.41247e-20)
(0.0345663 -0.00225997 -3.63229e-20)
(0.232195 -0.00669902 -1.45364e-21)
(0.528218 0.018761 3.01199e-20)
(0.844623 0.0611997 8.28001e-20)
(1.10496 0.102456 2.30717e-20)
(1.27814 0.131899 -4.41768e-20)
(1.37218 0.147823 3.96743e-20)
(1.41092 0.153056 -3.37561e-20)
(1.41776 0.151442 5.87953e-20)
(1.40919 0.146078 2.43745e-20)
(1.39452 0.13889 -6.84618e-20)
(1.37812 0.13088 1.98244e-20)
(1.36169 0.12252 3.32217e-20)
(1.34573 0.114037 -1.62206e-20)
(1.33034 0.105566 0)
(1.31545 0.097196 2.34046e-20)
(1.30105 0.0890117 3.89641e-20)
(1.2871 0.0810628 6.34844e-21)
(1.27362 0.0734347 -3.18014e-20)
(1.26056 0.06616 1.31044e-20)
(1.24791 0.059296 0)
(1.23563 0.0528488 -9.98477e-21)
(1.22365 0.0466438 -9.20508e-21)
(1.21191 0.041094 0)
(0.0651865 -0.00336333 0)
(0.324174 0.00190947 1.76503e-20)
(0.661556 0.0456774 3.23377e-20)
(0.978517 0.101074 -8.43518e-20)
(1.20879 0.145686 2.68689e-20)
(1.34328 0.172607 0)
(1.40462 0.184164 3.7416e-20)
(1.42145 0.185414 -5.13967e-20)
(1.41591 0.18089 -2.92626e-20)
(1.40123 0.173557 1.29965e-20)
(1.38382 0.164993 -2.02641e-20)
(1.36624 0.155933 4.88442e-20)
(1.34929 0.146703 2.40025e-20)
(1.33311 0.137463 -1.66333e-20)
(1.31768 0.128316 -1.66074e-21)
(1.30294 0.119343 -4.40664e-20)
(1.28882 0.11061 1.98612e-20)
(1.27528 0.102177 -4.38107e-22)
(1.26225 0.0940866 0)
(1.2497 0.0863936 -1.31173e-20)
(1.23759 0.0791225 0)
(1.22586 0.0722147 2.87769e-20)
(1.21444 0.065748 -3.38819e-20)
(1.20328 0.0604194 1.52607e-20)
(0.101317 -0.00119094 -1.01119e-20)
(0.422268 0.0205359 -4.50306e-20)
(0.787674 0.0840382 5.04689e-20)
(1.09078 0.148749 2.8689e-20)
(1.286 0.19291 -1.36323e-20)
(1.38501 0.215148 2.15762e-20)
(1.42027 0.221553 -1.04431e-20)
(1.42148 0.218725 1.66877e-20)
(1.40798 0.211346 0)
(1.38968 0.202015 3.63025e-20)
(1.37074 0.191939 -1.55009e-21)
(1.3525 0.181637 -2.8539e-20)
(1.33526 0.171329 1.20554e-20)
(1.319 0.161135 -1.34184e-20)
(1.30361 0.151138 -5.02172e-21)
(1.28901 0.141403 5.77575e-21)
(1.27512 0.131984 -4.41575e-21)
(1.26188 0.122915 -2.35086e-20)
(1.24927 0.114253 1.43148e-20)
(1.23724 0.106035 2.90007e-21)
(1.22574 0.0982552 2.52185e-21)
(1.2147 0.0908868 2.1929e-21)
(1.20402 0.0841002 0)
(1.19353 0.0784764 0)
(0.141731 0.00521586 1.01242e-20)
(0.520831 0.0499633 -9.3856e-21)
(0.899848 0.132435 -1.68576e-20)
(1.17938 0.202346 0)
(1.33901 0.24298 -6.6999e-21)
(1.40754 0.259102 -5.80738e-21)
(1.42288 0.259965 -9.58714e-21)
(1.41336 0.253044 0)
(1.39489 0.242788 0)
(1.37453 0.231324 0)
(1.35478 0.219527 0)
(1.33625 0.207756 0)
(1.31896 0.196154 -7.59423e-21)
(1.30279 0.184803 3.42893e-21)
(1.28762 0.173767 5.87006e-21)
(1.27335 0.163093 2.70789e-21)
(1.25989 0.152822 6.64583e-21)
(1.24718 0.142979 0)
(1.23515 0.133608 -1.55678e-21)
(1.22374 0.124733 -1.45218e-21)
(1.2129 0.116322 -2.52581e-21)
(1.20254 0.108375 -2.19633e-21)
(1.19255 0.101208 0)
(1.18284 0.0951396 1.53757e-21)
(-0.000541984 0.114788 7.31589e-21)
(0.00138367 0.280437 -6.90061e-21)
(-4.32604e-05 0.38569 -1.27323e-20)
(-0.00836954 0.442549 0)
(-0.0214185 0.470162 -1.64951e-20)
(-0.036076 0.484796 5.10009e-21)
(-0.0499075 0.495461 -9.74055e-21)
(-0.0612544 0.504685 0)
(-0.069017 0.511263 0)
(-0.072374 0.512637 0)
(-0.0706499 0.50619 0)
(-0.0633276 0.489756 0)
(-0.0501094 0.461851 1.07541e-22)
(-0.0309684 0.421792 -7.37843e-21)
(-0.00650904 0.369757 1.48272e-20)
(0.0224606 0.306614 2.16076e-20)
(0.0551335 0.233847 7.12979e-21)
(0.0901769 0.15314 0)
(0.126085 0.0659388 6.28182e-21)
(0.161795 -0.026462 -1.78056e-20)
(0.196513 -0.123562 -1.11686e-20)
(0.232829 -0.225809 -1.03282e-20)
(0.263152 -0.335792 0)
(0.305034 -0.450528 0)
(-0.00548089 0.104504 -2.19798e-20)
(-0.00720438 0.268158 3.45901e-20)
(-0.00410413 0.381263 -1.29011e-20)
(-0.00432477 0.447459 -2.37492e-20)
(-0.00799661 0.481319 3.29833e-20)
(-0.012863 0.497995 -2.08849e-20)
(-0.0165586 0.507266 2.90999e-20)
(-0.017179 0.512838 1.85753e-20)
(-0.0133996 0.514377 0)
(-0.00435737 0.509806 -1.78811e-20)
(0.0104637 0.496803 -1.42574e-21)
(0.0312668 0.473502 1.54736e-20)
(0.0579374 0.438786 2.3501e-20)
(0.0900576 0.392374 3.1393e-20)
(0.126799 0.334722 -1.35288e-20)
(0.167086 0.267138 -4.27683e-20)
(0.209747 0.191281 1.45551e-20)
(0.253263 0.108895 -5.32198e-20)
(0.296612 0.0216491 0)
(0.33956 -0.0686806 1.19242e-20)
(0.378708 -0.16443 1.1149e-20)
(0.422618 -0.26395 1.03101e-20)
(0.454594 -0.373942 0)
(0.509003 -0.488337 0)
(-0.00903573 0.0893217 0)
(-0.0147452 0.243626 6.94524e-20)
(-0.00867799 0.361124 -2.56928e-20)
(-0.00165575 0.43642 2.38796e-20)
(0.00398749 0.477835 -6.60292e-20)
(0.00928612 0.497973 0)
(0.0161426 0.506706 -3.94663e-20)
(0.0264429 0.508959 1.80803e-20)
(0.0416247 0.505645 -3.51316e-20)
(0.0625655 0.495563 1.6676e-20)
(0.0896319 0.476932 1.00107e-19)
(0.122748 0.448272 -4.66666e-20)
(0.161447 0.408786 -7.96007e-20)
(0.204931 0.358478 -3.27309e-20)
(0.252103 0.298062 -2.48728e-21)
(0.301643 0.22895 1.1476e-19)
(0.351925 0.152726 -5.44753e-20)
(0.401907 0.0718827 5.73157e-22)
(0.450113 -0.0127784 0)
(0.497768 -0.0987068 -4.69923e-20)
(0.5397 -0.192189 0)
(0.591991 -0.287514 -4.13021e-20)
(0.627418 -0.397839 1.50702e-19)
(0.697702 -0.508902 -3.50344e-21)
(-0.0108273 0.0714019 0)
(-0.0203299 0.209587 -1.33261e-22)
(-0.0134828 0.326376 2.54112e-20)
(-0.00129066 0.408757 -2.35604e-20)
(0.0124325 0.45818 2.17499e-20)
(0.0273394 0.483314 1.22454e-19)
(0.0444393 0.49303 -3.82082e-20)
(0.065214 0.493041 -3.59698e-20)
(0.0909926 0.485612 6.93318e-20)
(0.122607 0.470733 -1.01742e-19)
(0.160307 0.447453 3.06222e-20)
(0.203806 0.414823 3.05744e-20)
(0.252358 0.372384 0)
(0.304843 0.320345 2.99655e-20)
(0.359893 0.259563 0)
(0.4158 0.191417 5.41369e-20)
(0.471096 0.117539 -1.08518e-19)
(0.525245 0.0409982 2.36335e-20)
(0.576519 -0.0403168 9.66524e-20)
(0.628761 -0.121959 4.69413e-20)
(0.677297 -0.215605 0)
(0.742142 -0.308848 -1.19388e-19)
(0.788237 -0.422325 3.83908e-20)
(0.875461 -0.527225 0)
(-0.0109064 0.0531933 0)
(-0.023511 0.170377 -8.24956e-20)
(-0.018212 0.280375 -2.49153e-20)
(-0.00385465 0.365684 -4.65719e-20)
(0.015468 0.42178 4.31466e-20)
(0.0382977 0.452689 -4.05005e-20)
(0.0645256 0.465114 7.57695e-20)
(0.0948356 0.464674 3.73157e-20)
(0.130106 0.454627 -1.00788e-19)
(0.170935 0.436191 6.54607e-20)
(0.21741 0.409442 -9.37381e-20)
(0.269063 0.374145 2.08331e-19)
(0.324919 0.330279 -1.13522e-19)
(0.383655 0.278333 5.45872e-20)
(0.443585 0.218998 1.63923e-19)
(0.503311 0.154199 -5.03702e-20)
(0.562075 0.0847991 -4.61935e-20)
(0.619923 0.0131229 -4.8758e-20)
(0.67751 -0.0657464 0)
(0.740592 -0.145277 -8.74426e-20)
(0.8061 -0.241571 -8.05324e-20)
(0.889147 -0.332675 1.15201e-19)
(0.952012 -0.446351 1.34817e-19)
(1.04773 -0.535263 -1.2307e-19)
(-0.00974443 0.0368606 0)
(-0.0245262 0.130974 -1.08356e-19)
(-0.0226973 0.228485 8.57346e-22)
(-0.0094505 0.310962 9.22049e-20)
(0.0120677 0.37009 0)
(0.0399508 0.405672 0)
(0.0731264 0.421591 0)
(0.111296 0.422433 -3.54143e-20)
(0.154571 0.411723 -1.30388e-21)
(0.203031 0.391548 6.07009e-20)
(0.256424 0.362946 -9.25825e-20)
(0.314046 0.326468 -1.91738e-21)
(0.374819 0.282628 0)
(0.437291 0.232064 -5.45659e-20)
(0.50045 0.175897 5.15582e-20)
(0.564384 0.115603 -1.45341e-19)
(0.629512 0.0500044 1.92345e-19)
(0.698468 -0.0192129 4.73172e-20)
(0.774108 -0.0982042 2.45995e-21)
(0.859874 -0.178368 -1.63031e-19)
(0.950863 -0.275859 -7.29428e-20)
(1.049 -0.360396 2.38363e-19)
(1.12148 -0.4651 -1.53378e-19)
(1.20115 -0.527526 0)
(-0.00813105 0.0239159 5.68232e-20)
(-0.0243799 0.0958461 5.41212e-20)
(-0.0272113 0.176946 -4.90616e-20)
(-0.0177917 0.250676 -9.00853e-20)
(0.00242764 0.307495 8.34576e-20)
(0.0318118 0.344372 -7.62867e-20)
(0.0687752 0.362558 1.05586e-19)
(0.112168 0.365095 -3.5022e-20)
(0.161235 0.355077 6.13882e-20)
(0.215354 0.334905 0)
(0.273815 0.306253 5.57404e-20)
(0.335823 0.270301 -1.02006e-19)
(0.400584 0.227973 1.04835e-19)
(0.468181 0.180325 -9.75807e-20)
(0.539474 0.12777 0)
(0.61631 0.0701231 9.32714e-20)
(0.701346 0.0058423 1.78707e-19)
(0.797154 -0.0633912 -1.69229e-19)
(0.902626 -0.142057 -7.81455e-20)
(1.01427 -0.219765 -7.80682e-20)
(1.12063 -0.308687 2.13554e-19)
(1.21412 -0.377239 5.63569e-20)
(1.27164 -0.459846 -5.5566e-20)
(1.30908 -0.49068 4.4716e-20)
(-0.00703192 0.0151398 -5.68376e-20)
(-0.0246762 0.0680838 1.58794e-19)
(-0.0326318 0.131273 -4.89129e-20)
(-0.0285745 0.191739 8.87714e-20)
(-0.0121988 0.2408 -8.22415e-20)
(0.0155558 0.274279 -2.58815e-22)
(0.0530782 0.291644 3.41805e-20)
(0.098746 0.294493 1.25265e-19)
(0.151217 0.285172 9.46951e-22)
(0.209497 0.265951 -5.59542e-20)
(0.273017 0.238712 0)
(0.341932 0.204862 -5.08292e-20)
(0.417441 0.165354 9.56289e-20)
(0.501526 0.120519 9.58316e-20)
(0.596583 0.0699189 -4.48379e-20)
(0.704257 0.0134761 -2.51858e-21)
(0.82372 -0.0489072 -4.34655e-20)
(0.951019 -0.115194 7.7095e-20)
(1.07731 -0.186029 7.81519e-20)
(1.19324 -0.25217 -7.26354e-20)
(1.28371 -0.321147 5.96023e-20)
(1.34391 -0.367268 -5.28498e-20)
(1.3609 -0.423098 0)
(1.35044 -0.429315 -4.47563e-20)
(-0.00742684 0.0107106 5.57441e-20)
(-0.0271575 0.0491277 -5.29196e-20)
(-0.0400806 0.0950961 4.81853e-20)
(-0.0414548 0.140044 0)
(-0.0296681 0.177409 0)
(-0.00488447 0.203266 7.21538e-20)
(0.0317265 0.216347 -6.77885e-20)
(0.0787981 0.217325 6.09853e-20)
(0.135412 0.207831 -2.87054e-19)
(0.201533 0.189713 -9.26007e-22)
(0.278197 0.164494 5.03311e-20)
(0.367301 0.133166 0)
(0.470935 0.0962494 -9.4933e-20)
(0.590061 0.0538569 1.79823e-19)
(0.723217 0.00651706 -1.29578e-19)
(0.86559 -0.0452617 -2.10513e-19)
(1.0093 -0.0997261 -2.19828e-21)
(1.14376 -0.155323 1.41845e-19)
(1.25748 -0.209695 0)
(1.34135 -0.257844 0)
(1.38678 -0.303388 -5.96321e-20)
(1.39895 -0.329439 5.28797e-20)
(1.37578 -0.365248 -1.66023e-19)
(1.34071 -0.360423 1.54815e-19)
(-0.0100471 0.0103218 0)
(-0.0328982 0.0389399 0)
(-0.0497847 0.0699348 -1.43805e-19)
(-0.0548408 0.0994641 4.51842e-20)
(-0.0456417 0.123614 1.36206e-21)
(-0.0214737 0.139587 7.33838e-20)
(0.0177011 0.14619 0)
(0.0720138 0.143691 -6.11404e-20)
(0.142362 0.13309 5.69895e-20)
(0.230343 0.115552 -1.05884e-19)
(0.337543 0.0921052 -1.16281e-21)
(0.464285 0.0635477 9.61595e-20)
(0.608265 0.0305618 2.54542e-21)
(0.763937 -0.00617292 9.02318e-20)
(0.922708 -0.0455809 -1.23205e-19)
(1.07378 -0.0868726 0)
(1.20611 -0.127934 1.4681e-19)
(1.30932 -0.168366 -2.08079e-19)
(1.37761 -0.204573 5.93074e-20)
(1.40899 -0.236796 0)
(1.40846 -0.263909 4.74379e-20)
(1.38783 -0.280409 1.71185e-19)
(1.35227 -0.306279 -1.59871e-19)
(1.32016 -0.300357 -1.5839e-19)
(-0.0149537 0.0130772 1.65184e-19)
(-0.0413624 0.0361663 -2.08648e-19)
(-0.0596219 0.0554247 8.32046e-22)
(-0.0639773 0.0715667 4.44714e-20)
(-0.0513515 0.0834044 -8.05588e-20)
(-0.0196746 0.0895625 -7.31132e-20)
(0.0329957 0.0893393 1.32747e-19)
(0.108755 0.0828206 -1.42575e-21)
(0.209337 0.0706509 -1.13461e-19)
(0.335051 0.0537549 2.11994e-19)
(0.483312 0.0330692 1.46839e-21)
(0.647885 0.00939175 -9.30435e-20)
(0.819178 -0.016555 0)
(0.985499 -0.0441289 0)
(1.13479 -0.0726591 -4.05602e-20)
(1.25659 -0.101565 -7.16936e-20)
(1.34394 -0.129593 -1.35287e-19)
(1.39451 -0.15674 1.26132e-19)
(1.41253 -0.18002 -5.93772e-20)
(1.40514 -0.202845 9.8614e-20)
(1.3849 -0.219605 -5.22203e-20)
(1.35887 -0.236228 7.23119e-20)
(1.33141 -0.254846 -1.76651e-19)
(1.30698 -0.251628 3.17662e-20)
(-0.0212189 0.0173946 5.5269e-20)
(-0.0501237 0.0381502 0)
(-0.0651855 0.0492691 9.61836e-20)
(-0.0615772 0.0552489 -8.90621e-20)
(-0.0356558 0.0573121 8.06651e-20)
(0.0161692 0.0553635 0)
(0.0970727 0.0492501 0)
(0.20891 0.0394053 -6.2203e-20)
(0.350533 0.0266972 2.62951e-22)
(0.516234 0.0119948 5.35418e-20)
(0.695812 -0.00400236 -5.02859e-20)
(0.876033 -0.0208669 9.30167e-20)
(1.04297 -0.0384491 0)
(1.18443 -0.0567388 1.62752e-19)
(1.29202 -0.0756806 -3.01772e-19)
(1.36256 -0.0949814 2.11738e-19)
(1.3985 -0.114118 1.24843e-19)
(1.40712 -0.132775 -1.16402e-19)
(1.39836 -0.149678 0)
(1.38049 -0.16742 0)
(1.36065 -0.179415 0)
(1.33719 -0.198233 0)
(1.31481 -0.205248 3.3037e-20)
(1.29037 -0.213012 -1.0555e-19)
(0.340563 -0.584068 -5.0255e-21)
(0.379971 -0.723659 5.06023e-21)
(0.416432 -0.824014 -1.25538e-22)
(0.442651 -0.875222 0)
(0.460227 -0.878914 -2.40369e-21)
(0.473853 -0.844908 4.37957e-21)
(0.473424 -0.804618 -1.41643e-22)
(0.444031 -0.791178 -1.79137e-21)
(0.397428 -0.793043 0)
(0.370469 -0.751041 0)
(0.391966 -0.612326 -1.19007e-22)
(0.45573 -0.379562 -1.30896e-22)
(0.535601 -0.0917727 -2.44688e-21)
(0.614345 0.205924 2.24318e-21)
(0.683268 0.459696 0)
(0.736574 0.623595 0)
(0.774953 0.693333 1.08058e-21)
(0.795519 0.703985 -1.83797e-22)
(0.802005 0.687203 -7.9381e-22)
(0.806857 0.656416 -4.23871e-23)
(0.807374 0.644109 0)
(0.790141 0.680307 0)
(0.752786 0.73313 0)
(0.71418 0.710054 0)
(0.692165 0.543676 0)
(0.694657 0.25147 0)
(0.715382 -0.0815248 4.52012e-22)
(0.744819 -0.357736 -7.52036e-22)
(0.771846 -0.521241 0)
(0.79913 -0.574358 0)
(0.821001 -0.581613 -2.26061e-22)
(0.819817 -0.591813 2.19659e-22)
(0.784074 -0.615704 8.93733e-23)
(0.721234 -0.603553 0)
(0.652717 -0.51488 0)
(0.613898 -0.317032 2.85766e-22)
(0.604338 -0.0606958 -2.77744e-22)
(0.636317 0.187368 0)
(0.685336 0.349979 1.72919e-22)
(0.733918 0.438749 -2.38837e-22)
(0.726275 0.499667 6.09242e-23)
(0.683966 0.523307 0)
(0.631844 0.475484 -1.37402e-22)
(0.616866 0.305409 1.33603e-22)
(0.632805 0.0986294 0)
(0.680661 -0.126069 0)
(0.696892 -0.284758 -4.80597e-23)
(0.687049 -0.410805 1.35572e-22)
(0.674377 -0.449105 0)
(0.657103 -0.360883 0)
(0.663748 -0.195564 -3.26686e-23)
(0.653123 0.0684902 4.46366e-24)
(0.665372 0.225044 -2.45644e-24)
(0.657998 0.353681 2.20334e-23)
(0.669304 0.40645 0)
(0.671999 0.277688 0)
(0.687852 0.144894 0)
(0.671307 -0.267137 0)
(0.661129 -0.472121 0)
(0.635221 -0.157119 0)
(0.539427 -0.623326 -5.28585e-22)
(0.570111 -0.763764 -1.83212e-20)
(0.592193 -0.857006 2.89943e-21)
(0.595431 -0.896418 1.43791e-20)
(0.580595 -0.892816 1.62962e-22)
(0.56002 -0.852422 0)
(0.539758 -0.79033 -6.90327e-21)
(0.504103 -0.746868 1.33348e-20)
(0.443951 -0.739898 -6.42751e-21)
(0.382494 -0.724642 6.9224e-21)
(0.356264 -0.631115 -6.60316e-21)
(0.378725 -0.432417 8.07522e-21)
(0.43629 -0.159823 -7.79333e-21)
(0.509928 0.133978 -2.28773e-22)
(0.585165 0.393091 -6.39104e-21)
(0.653961 0.570634 6.20662e-21)
(0.7113 0.659861 -4.01391e-21)
(0.749859 0.688116 3.79467e-21)
(0.773724 0.680192 -2.89772e-21)
(0.794093 0.653456 5.52651e-21)
(0.807093 0.648283 -2.63738e-21)
(0.802088 0.694777 -1.7842e-22)
(0.778474 0.75529 -3.84009e-21)
(0.755607 0.732894 8.48409e-21)
(0.747825 0.558989 -4.61788e-21)
(0.7591 0.254087 3.68567e-22)
(0.781594 -0.0907474 5.51375e-21)
(0.806369 -0.373509 -6.99237e-22)
(0.822916 -0.538217 -7.46808e-21)
(0.834316 -0.587717 5.53366e-21)
(0.840988 -0.585304 -2.31006e-21)
(0.827777 -0.581554 1.93867e-22)
(0.78426 -0.592099 -8.95587e-23)
(0.712436 -0.573423 1.6251e-22)
(0.636229 -0.490291 0)
(0.589329 -0.306633 0)
(0.58025 -0.068516 -9.14661e-22)
(0.617999 0.166187 6.97874e-22)
(0.676001 0.32809 4.56831e-22)
(0.72733 0.430102 -6.96388e-24)
(0.72326 0.507293 -5.6181e-22)
(0.686038 0.539178 1.25434e-22)
(0.637093 0.488801 0)
(0.622847 0.307624 0)
(0.638716 0.089456 0)
(0.691345 -0.136012 0)
(0.709709 -0.287113 2.39216e-22)
(0.697633 -0.407311 -8.89181e-23)
(0.679952 -0.4458 0)
(0.658958 -0.359138 0)
(0.664365 -0.195927 0)
(0.651758 0.0680496 -4.23661e-23)
(0.666213 0.223425 1.10085e-23)
(0.65814 0.353199 -4.75242e-23)
(0.670902 0.404896 0)
(0.678764 0.275474 0)
(0.698067 0.14503 5.30957e-23)
(0.67885 -0.262423 1.63463e-22)
(0.662689 -0.47062 0)
(0.640372 -0.154615 0)
(0.721828 -0.641276 -4.18906e-21)
(0.74249 -0.775593 -4.15204e-20)
(0.750411 -0.857729 3.01946e-20)
(0.734947 -0.882111 -2.82394e-20)
(0.698618 -0.866672 -1.64118e-22)
(0.6506 -0.828994 0)
(0.605536 -0.768554 -1.32146e-20)
(0.560366 -0.705831 1.29025e-20)
(0.495493 -0.679164 9.28667e-23)
(0.414324 -0.675238 1.5603e-22)
(0.350178 -0.624262 1.63214e-22)
(0.331509 -0.471675 2.24222e-22)
(0.358835 -0.227635 -1.38237e-20)
(0.419041 0.0533844 1.36543e-20)
(0.4965 0.312585 0)
(0.577827 0.502309 2.79737e-22)
(0.650898 0.611777 -7.16096e-21)
(0.706059 0.659304 7.05833e-21)
(0.746961 0.662799 0)
(0.782911 0.642149 0)
(0.809214 0.64362 -5.6608e-21)
(0.817699 0.699216 1.20527e-20)
(0.809011 0.768257 -1.40112e-20)
(0.80192 0.750508 -1.91733e-21)
(0.808645 0.575398 2.07155e-20)
(0.828931 0.265146 -2.36987e-20)
(0.852311 -0.0861557 2.22113e-20)
(0.871163 -0.374641 -2.40624e-21)
(0.877212 -0.542505 -8.82589e-21)
(0.87326 -0.591775 0)
(0.865079 -0.583588 0)
(0.840781 -0.568271 1.03493e-21)
(0.791781 -0.566515 -1.37607e-21)
(0.712799 -0.543062 -2.4716e-23)
(0.629832 -0.467374 1.48655e-21)
(0.575345 -0.299658 -1.4445e-21)
(0.566432 -0.0807594 0)
(0.608016 0.140828 1.91917e-22)
(0.672529 0.303596 1.20665e-21)
(0.725839 0.419999 -2.18678e-21)
(0.726836 0.514201 9.1695e-22)
(0.69554 0.555169 1.31332e-22)
(0.649845 0.503605 -1.71531e-21)
(0.636455 0.312404 1.34902e-21)
(0.650731 0.0822603 3.91044e-22)
(0.70611 -0.144877 3.36985e-22)
(0.727076 -0.288345 -2.3985e-22)
(0.712386 -0.402165 0)
(0.688855 -0.441996 0)
(0.663425 -0.357934 -4.19645e-22)
(0.668254 -0.197386 2.01415e-22)
(0.654099 0.0667745 -1.4184e-22)
(0.670479 0.22163 2.2702e-22)
(0.661011 0.352282 3.45351e-22)
(0.67495 0.40323 -8.78909e-23)
(0.687236 0.27245 2.27182e-22)
(0.710246 0.145542 -2.39651e-22)
(0.689177 -0.256161 1.48656e-22)
(0.667269 -0.469108 0)
(0.64804 -0.152914 0)
(0.891375 -0.653023 -8.128e-20)
(0.900164 -0.771756 1.07015e-20)
(0.890324 -0.838196 6.65742e-20)
(0.851201 -0.852118 -4.01888e-22)
(0.795809 -0.825378 0)
(0.731663 -0.783874 0)
(0.66754 -0.733573 -2.43948e-20)
(0.613578 -0.668049 2.46879e-21)
(0.55269 -0.617652 2.98776e-20)
(0.467562 -0.6051 -7.92372e-23)
(0.377487 -0.585919 -9.19026e-21)
(0.320333 -0.487891 -1.0248e-20)
(0.313793 -0.288935 1.02116e-20)
(0.35355 -0.0317572 0)
(0.425397 0.220733 -9.08362e-21)
(0.5115 0.419906 8.31277e-21)
(0.594567 0.549056 0)
(0.66363 0.616516 0)
(0.720174 0.633173 4.64171e-21)
(0.770913 0.619855 1.78238e-22)
(0.810839 0.626593 -4.39423e-21)
(0.833796 0.688741 -6.25185e-21)
(0.840198 0.766817 6.29448e-21)
(0.847983 0.759387 -9.93396e-21)
(0.86856 0.592766 -1.77862e-21)
(0.897963 0.284662 1.11663e-20)
(0.923941 -0.071544 1.49326e-21)
(0.938072 -0.366676 -1.36359e-25)
(0.934523 -0.53856 0)
(0.915966 -0.58854 4.88439e-21)
(0.893235 -0.577088 -4.98995e-21)
(0.857878 -0.553557 1.88055e-22)
(0.804791 -0.540294 0)
(0.72139 -0.511145 -1.39618e-22)
(0.633064 -0.443562 2.39792e-21)
(0.571219 -0.29462 -4.63164e-21)
(0.561864 -0.0965488 -2.12568e-22)
(0.604983 0.111991 2.97205e-22)
(0.674055 0.2769 1.80449e-21)
(0.729683 0.406881 2.21555e-22)
(0.736457 0.517357 -1.9199e-21)
(0.711001 0.5693 1.60694e-21)
(0.669673 0.519432 -2.2123e-23)
(0.658527 0.320239 1.67655e-21)
(0.669806 0.0776438 -2.02225e-21)
(0.725161 -0.15309 -2.35024e-21)
(0.748734 -0.289206 6.75931e-22)
(0.731233 -0.395372 6.85824e-22)
(0.701117 -0.436996 -1.15056e-21)
(0.670412 -0.356852 6.83638e-22)
(0.675217 -0.199967 -1.43486e-22)
(0.659959 0.0644019 1.5199e-22)
(0.677973 0.219711 1.03025e-22)
(0.666573 0.351119 -4.85264e-22)
(0.681246 0.401568 -2.57888e-23)
(0.69705 0.268801 -2.5735e-22)
(0.724127 0.146238 0)
(0.702241 -0.24868 -1.54543e-22)
(0.674807 -0.467489 1.19367e-22)
(0.658041 -0.151865 0)
(1.04942 -0.645012 7.53872e-20)
(1.03946 -0.73766 -1.37712e-19)
(1.01009 -0.781718 6.18636e-20)
(0.949213 -0.788842 4.28754e-20)
(0.874916 -0.765204 -7.60502e-20)
(0.801495 -0.724578 6.06763e-21)
(0.726643 -0.684015 2.67059e-20)
(0.660168 -0.632709 1.84928e-20)
(0.603721 -0.572313 -1.80962e-20)
(0.530878 -0.537748 0)
(0.43446 -0.526676 -1.46387e-20)
(0.347575 -0.476464 2.94697e-20)
(0.305886 -0.334311 -1.48905e-20)
(0.318622 -0.114661 0)
(0.376089 0.122369 0)
(0.458789 0.327014 2.27876e-22)
(0.545132 0.473998 -9.5986e-21)
(0.623616 0.561288 9.31865e-21)
(0.692938 0.592743 0)
(0.756812 0.587963 8.22629e-21)
(0.809227 0.598838 -1.69277e-20)
(0.845143 0.665438 1.99554e-20)
(0.866396 0.752361 -2.53072e-20)
(0.890393 0.758626 -4.46739e-21)
(0.924221 0.608625 4.03051e-20)
(0.961221 0.312531 -2.20889e-20)
(0.99122 -0.0435384 -7.51655e-22)
(1.00341 -0.345202 -8.65207e-21)
(0.992194 -0.523271 2.13913e-21)
(0.960596 -0.576578 6.69578e-21)
(0.924292 -0.564496 2.48455e-22)
(0.878777 -0.536478 -2.45871e-21)
(0.823091 -0.515044 4.2919e-21)
(0.737881 -0.480305 -2.0407e-21)
(0.64559 -0.419895 0)
(0.575969 -0.29062 -2.29104e-21)
(0.564726 -0.114665 2.2394e-21)
(0.607269 0.0798462 -1.42721e-21)
(0.679579 0.246426 1.7747e-21)
(0.737786 0.39001 -1.49489e-22)
(0.751408 0.518243 0)
(0.733705 0.581865 -2.56722e-22)
(0.698138 0.53557 1.09472e-21)
(0.689995 0.331237 0)
(0.696788 0.0763813 4.39774e-21)
(0.748465 -0.159822 -1.78958e-21)
(0.774186 -0.289372 5.60889e-22)
(0.754005 -0.3867 4.17349e-22)
(0.716676 -0.430584 0)
(0.679695 -0.355785 0)
(0.684941 -0.203712 -3.17255e-22)
(0.669057 0.0607843 4.29621e-22)
(0.688526 0.217553 -2.60951e-22)
(0.674803 0.34957 5.13062e-23)
(0.689578 0.399902 3.41416e-22)
(0.707837 0.264578 2.57628e-22)
(0.739443 0.146819 -6.23188e-22)
(0.717965 -0.240025 0)
(0.685203 -0.465655 -2.21956e-22)
(0.670171 -0.151398 1.06271e-23)
(1.17867 -0.617158 6.83257e-20)
(1.14403 -0.68517 -6.75903e-20)
(1.0956 -0.71135 4.37187e-22)
(1.02346 -0.711093 -3.26485e-22)
(0.940166 -0.694243 2.86868e-22)
(0.862088 -0.661861 -2.28519e-22)
(0.787826 -0.625818 3.37339e-22)
(0.713404 -0.588779 0)
(0.650457 -0.535855 -2.14426e-22)
(0.590976 -0.482975 1.74306e-22)
(0.508624 -0.458421 1.46905e-22)
(0.409896 -0.435928 -1.96384e-22)
(0.335541 -0.352142 0)
(0.314865 -0.184279 0)
(0.349214 0.0277571 1.26635e-22)
(0.420061 0.228673 0)
(0.503319 0.388512 -9.20248e-23)
(0.587216 0.493922 0)
(0.666842 0.541027 -5.62289e-21)
(0.741983 0.54619 1.17829e-20)
(0.804687 0.560799 -1.37166e-20)
(0.851287 0.62925 7.46356e-21)
(0.885635 0.723401 1.25336e-20)
(0.92284 0.74683 -1.21658e-20)
(0.967848 0.620025 -2.08387e-20)
(1.01354 0.343397 2.03476e-20)
(1.05042 -0.0056303 0)
(1.06436 -0.31326 6.07226e-22)
(1.04846 -0.499217 0)
(1.00637 -0.557864 0)
(0.957777 -0.547137 6.05569e-21)
(0.902144 -0.517256 -6.32625e-21)
(0.844437 -0.490438 2.15994e-22)
(0.760555 -0.450281 1.9398e-22)
(0.666594 -0.395234 -1.41078e-22)
(0.588634 -0.28578 -1.50757e-21)
(0.573195 -0.13381 1.46366e-21)
(0.613134 0.0452117 -1.38421e-21)
(0.687763 0.212843 1.16055e-21)
(0.749609 0.368202 2.6359e-22)
(0.770585 0.512008 -1.73026e-21)
(0.760582 0.589974 -1.13564e-21)
(0.732184 0.552366 1.75687e-21)
(0.729419 0.345897 0)
(0.731823 0.0797671 -1.9927e-21)
(0.776127 -0.164417 2.13898e-21)
(0.802815 -0.289093 -2.86769e-21)
(0.780402 -0.376237 -4.20139e-22)
(0.735495 -0.422306 0)
(0.690996 -0.354411 8.73345e-23)
(0.697022 -0.208638 -2.27592e-22)
(0.681035 0.0557613 -3.75308e-23)
(0.701905 0.215163 -2.87957e-23)
(0.685619 0.348009 3.08015e-22)
(0.699728 0.398634 -3.30329e-22)
(0.71931 0.259892 0)
(0.75596 0.147185 6.23557e-22)
(0.736241 -0.230393 0)
(0.698335 -0.463465 0)
(0.684218 -0.151425 3.18943e-24)
(1.26023 -0.559995 -6.14642e-20)
(1.20456 -0.60637 6.03816e-20)
(1.14293 -0.625129 -3.61217e-22)
(1.06778 -0.627045 3.3472e-22)
(0.988303 -0.618199 0)
(0.91182 -0.599181 0)