/*--------------------------------*- C++ -*----------------------------------*\
| =========                 |                                                 |
| \\      /  F ield         | OpenFOAM: The Open Source CFD Toolbox           |
|  \\    /   O peration     | Version:  2312                                  |
|   \\  /    A nd           | Website:  www.openfoam.com                      |
|    \\/     M anipulation  |                                                 |
\*---------------------------------------------------------------------------*/
FoamFile
{
    version     2.0;
    format      ascii;
    arch        "LSB;label=32;scalar=64";
    class       surfaceScalarField;
    location    "114";
    object      phi;
}
// * * * * * * * * * * * * * * * * * * * * * * * * * * * * * * * * * * * * * //

dimensions      [0 3 -1 0 0 0 0];

oriented        oriented;

internalField   nonuniform List<scalar> 
10785
(
-0.000560489
0.00467243
-0.00411195
0.00190718
0.00469103
-0.00715869
0.0106315
-0.00460969
-0.00411467
0.0287682
-0.0247871
0.00665051
0.056422
-0.0534429
0.0257891
0.0895691
-0.0848993
0.0517522
0.12229
-0.1138
0.0810783
0.149305
-0.136872
0.109857
0.167868
-0.153246
0.134683
0.17829
-0.164027
0.153606
0.183418
-0.1715
0.166371
0.186847
-0.177574
0.174145
0.190468
-0.18368
0.18006
0.194049
-0.187858
0.184276
-0.193019
0.190825
0.196244
7.67576e-05
0.00459568
0.00482374
-5.59555e-05
0.0190413
-0.0188272
0.0441224
-0.0498683
0.0751672
-0.0844877
0.105072
-0.114804
0.128613
-0.137341
0.144088
-0.152346
0.152999
-0.162158
0.158486
-0.169514
0.163028
-0.176042
0.167886
-0.182431
0.172459
-0.188253
0.178243
-0.193642
-0.199904
0.185128
0.00116059
0.00343508
0.0097468
-0.00864217
0.030269
-0.0393494
0.0584432
-0.0780425
0.0857958
-0.11184
0.106784
-0.135793
0.120384
-0.150941
0.128683
-0.160644
0.134475
-0.167951
0.139397
-0.174435
0.143973
-0.180618
0.148053
-0.186511
0.1521
-0.1923
0.156593
-0.198136
-0.203792
0.160481
0.00251764
0.000917444
0.0159477
-0.0220722
0.0403366
-0.0637383
0.0658642
-0.10357
0.0856539
-0.13163
0.0985325
-0.148671
0.106541
-0.158949
0.112036
-0.166139
0.116308
-0.172223
0.119896
-0.178023
0.123113
-0.183836
0.126477
-0.189875
0.130311
-0.196134
0.13475
-0.202574
-0.209488
0.140446
0.00430732
-0.00338988
0.021984
-0.0397489
0.045742
-0.0874963
0.0654417
-0.12327
0.0783871
-0.144575
0.0861394
-0.156423
0.0909414
-0.163751
0.0942832
-0.169481
0.0970143
-0.174954
0.099613
-0.180622
0.102359
-0.186582
0.105244
-0.192761
0.108164
-0.199054
0.111264
-0.205674
-0.212229
0.114005
0.00654714
-0.00993702
0.0261076
-0.0593093
0.0459116
-0.1073
0.0596578
-0.137016
0.0675746
-0.152492
0.0718776
-0.160726
0.0744523
-0.166326
0.0763912
-0.17142
0.0781413
-0.176704
0.0798059
-0.182286
0.0813674
-0.188144
0.0828827
-0.194276
0.0845953
-0.200766
0.0864933
-0.207572
-0.214747
0.0890111
0.00864597
-0.018583
0.0270477
-0.0777111
0.0421107
-0.122363
0.0508938
-0.145799
0.0551379
-0.156736
0.0570937
-0.162682
0.0581271
-0.167359
0.0587859
-0.172079
0.0592329
-0.177151
0.0595573
-0.182611
0.0598775
-0.188464
0.0603171
-0.194716
0.0608481
-0.201297
0.0615187
-0.208242
-0.215389
0.0621604
0.0099251
-0.0285081
0.0253675
-0.0931535
0.0358511
-0.132847
0.0407377
-0.150686
0.0423307
-0.158329
0.0424672
-0.162819
0.0420311
-0.166923
0.0413302
-0.171378
0.0404816
-0.176302
0.0395463
-0.181675
0.0385457
-0.187463
0.0374702
-0.19364
0.036434
-0.200261
0.0355105
-0.207319
0.0350654
-0.214944
-0.000281621
0.0192586
-0.018977
-0.00271437
0.0353166
-0.0328839
-0.00668923
0.0402946
-0.0363198
-0.0112745
0.0409208
-0.0363355
-0.0157765
0.0397297
-0.0352278
-0.0197822
0.0366762
-0.0326705
-0.0230334
0.0310622
-0.0278109
-0.0253571
0.0222317
-0.019908
-0.0267628
0.00974708
-0.00834137
-0.0269316
-0.00634425
0.00651306
-0.0254476
-0.0261693
0.0246853
-0.021877
-0.0497724
0.0462019
-0.0164718
-0.0752336
0.0698284
-0.0083466
-0.101979
0.0938534
-0.125629
0.00089274
0.11639
0.00172726
0.0175314
0.00243536
0.0346085
0.00194583
0.0407842
0.00129641
0.0415702
0.00135317
0.039673
0.00254353
0.0354858
0.00504501
0.0285607
0.00882809
0.0184486
0.0136529
0.00492228
0.0200392
-0.0127305
0.0281045
-0.0342347
0.0389005
-0.0605683
0.0515837
-0.0879169
0.0665655
-0.11696
-0.139805
0.0807416
0.0033068
0.0142246
0.00713422
0.0307811
0.0103867
0.0375317
0.0137894
0.0381675
0.0182384
0.035224
0.0241876
0.0295366
0.0316548
0.0210934
0.0404104
0.00969307
0.0505454
-0.00521281
0.062501
-0.0246861
0.0764867
-0.0482204
0.0934814
-0.0775631
0.112091
-0.106527
0.132
-0.136869
-0.158342
0.150537
0.00390858
0.010316
0.0098921
0.0247976
0.0161257
0.0312981
0.0228026
0.0314906
0.0305881
0.0274385
0.0398844
0.0202403
0.0507606
0.0102172
0.0633717
-0.00291804
0.078433
-0.0202741
0.0964702
-0.0427233
0.117673
-0.069423
0.141564
-0.101454
0.164969
-0.129932
0.186995
-0.158895
-0.173463
0.202115
0.00343194
0.00688404
0.00994403
0.0182855
0.0176558
0.0235863
0.0262213
0.0229251
0.0359463
0.0177135
0.0472348
0.00895171
0.0607593
-0.00330724
0.0777029
-0.0198617
0.0988666
-0.0414378
0.124436
-0.0682923
0.153389
-0.0983768
0.181923
-0.129988
0.207098
-0.155107
0.225655
-0.177452
-0.184058
0.23625
0.00223251
0.00465153
0.00768206
0.0128359
0.0150963
0.0161721
0.0239864
0.014035
0.0346766
0.00702337
0.048339
-0.00471073
0.0665594
-0.0215277
0.0904039
-0.0437061
0.119832
-0.0708662
0.152118
-0.100578
0.183883
-0.130142
0.209117
-0.155222
0.227193
-0.173184
0.234651
-0.18491
-0.186538
0.237131
0.000817229
0.0038343
0.00435835
0.00929483
0.0104953
0.0100351
0.0194893
0.00504096
0.0327459
-0.00623322
0.0521032
-0.024068
0.0784724
-0.0478969
0.110647
-0.0758805
0.145
-0.105219
0.176722
-0.1323
0.201259
-0.154679
0.215966
-0.169929
0.222424
-0.179642
0.222007
-0.184492
-0.186007
0.221475
-0.000277643
0.00185849
0.00777893
0.0194704
0.0390263
0.0667104
0.0998919
0.133869
0.163333
0.184639
0.196331
0.200547
0.200965
0.200748
0.205566
-0.00188021
-0.299238
0.302011
-0.00476069
-0.34544
0.348321
0.0458274
-0.310826
0.260237
0.12488
-0.119853
0.0408
0.186513
0.118879
-0.180512
0.222102
0.278776
-0.314366
0.231106
0.317001
-0.326005
0.204257
0.379705
-0.352855
0.172867
0.421341
-0.38995
0.187141
0.257598
-0.271873
0.236076
-0.0255614
-0.0233737
0.264965
-0.199822
0.170934
0.265675
-0.257553
0.256844
0.264698
-0.394493
0.39547
0.270838
-0.447822
0.441682
0.273256
-0.302837
0.300419
0.284022
-0.137226
0.126461
0.292837
0.264487
-0.273303
0.299811
0.467642
-0.474615
0.306079
0.483554
-0.489822
0.309732
0.415471
-0.419123
0.299271
-0.197802
0.208262
0.302962
-0.525444
0.521752
0.306148
-0.510993
0.507807
0.321607
-0.3765
0.361041
0.327363
0.564099
-0.569855
0.318252
1.01691
-1.0078
0.283914
-0.0900172
0.124356
0.286329
-0.763553
0.761138
0.283407
-0.0473984
0.0503199
0.269989
0.261762
-0.248344
0.270824
0.104635
-0.105469
0.264593
-0.033019
0.03925
0.258337
-0.0748256
0.0810818
0.260053
0.0166356
-0.0183522
0.250846
0.0472965
-0.0380893
0.243324
0.0166564
-0.00913498
0.0152128
-0.0140379
0.0608513
-0.279348
0.0135193
-0.298108
0.00808399
-0.30539
0.0777465
-0.189516
0.156198
0.0404283
0.212075
0.222898
0.230075
0.299001
0.211038
0.398741
0.191322
0.441057
0.203443
0.245477
0.240127
-0.0622454
0.268504
-0.228199
0.267779
-0.256828
0.258976
-0.38569
0.265674
-0.45452
0.269285
-0.306448
0.279103
-0.147044
0.293882
0.249708
0.300675
0.460849
0.307113
0.477116
0.311293
0.411291
0.293694
-0.180202
0.295362
-0.527112
0.298154
-0.513785
0.314029
-0.392374
0.331991
0.546137
0.327659
1.02124
0.284649
-0.0470075
0.282095
-0.760999
0.281754
-0.0470575
0.270795
0.272722
0.272489
0.10294
0.265238
-0.0257686
0.257725
-0.0673123
0.260525
0.013836
0.252716
0.0551051
0.244859
0.0245131
0.0168028
0.136105
-0.264915
0.0881864
-0.25019
0.0308406
-0.248044
0.0558848
-0.21456
0.14429
-0.0479765
0.214256
0.152932
0.238234
0.275024
0.229108
0.407867
0.220557
0.449608
0.226747
0.239287
0.245933
-0.081431
0.267594
-0.249861
0.263736
-0.25297
0.245128
-0.367082
0.252255
-0.461647
0.261414
-0.315607
0.271157
-0.156786
0.291966
0.228898
0.299669
0.453147
0.306014
0.47077
0.309841
0.407464
0.285918
-0.156279
0.284657
-0.525851
0.286566
-0.515695
0.301666
-0.407474
0.333457
0.514345
0.333889
1.02081
0.283648
0.00323344
0.275522
-0.752872
0.278202
-0.0497377
0.269687
0.281237
0.272398
0.100229
0.264538
-0.0179086
0.255831
-0.0586048
0.259806
0.00986113
0.253791
0.0611202
0.245862
0.0324421
0.0186716
0.179028
-0.241828
0.156314
-0.227475
0.0971916
-0.188922
0.0689878
-0.186356
0.139441
-0.11843
0.222477
0.0698962
0.248389
0.249111
0.246258
0.409998
0.248983
0.446883
0.24983
0.238441
0.251367
-0.0829688
0.263374
-0.261868
0.260074
-0.24967
0.233185
-0.340193
0.235617
-0.46408
0.251032
-0.331022
0.261946
-0.167701
0.28614
0.204705
0.293354
0.445933
0.299968
0.464157
0.304038
0.403394
0.276405
-0.128646
0.271224
-0.520669
0.271905
-0.516377
0.28518
-0.420749
0.329483
0.470042
0.3347
1.0156
0.281269
0.056665
0.267124
-0.738728
0.272839
-0.0554522
0.266604
0.287472
0.270482
0.0963506
0.262504
-0.00993088
0.252775
-0.0488757
0.257967
0.00466941
0.254061
0.0650259
0.246351
0.0401524
0.0206491
0.195647
-0.201224
0.175189
-0.207018
0.151378
-0.165111
0.1051
-0.140078
0.127473
-0.140803
0.211308
-0.013939
0.254545
0.205875
0.26515
0.399393
0.272504
0.439529
0.269518
0.241427
0.256342
-0.0697934
0.255103
-0.260628
0.250453
-0.24502
0.219658
-0.309398
0.214608
-0.45903
0.235352
-0.351765
0.248809
-0.181158
0.277646
0.175868
0.287322
0.436257
0.293709
0.45777
0.296257
0.400846
0.264868
-0.0972568
0.255122
-0.510924
0.253278
-0.514532
0.264818
-0.432289
0.322234
0.412627
0.333173
1.00466
0.275914
0.113924
0.257396
-0.72021
0.266133
-0.0641895
0.261913
0.291693
0.266966
0.0912969
0.259266
-0.00223074
0.248751
-0.0383608
0.255144
-0.00172352
0.25356
0.0666102
0.246368
0.0473445
0.0225356
0.199238
-0.163331
0.165622
-0.173402
0.156781
-0.15627
0.138108
-0.121405
0.126126
-0.12882
0.177567
-0.0653806
0.228557
0.154885
0.251639
0.376311
0.271987
0.419181
0.276902
0.236512
0.259437
-0.0523278
0.246618
-0.24781
0.239784
-0.238186
0.208061
-0.277674
0.193813
-0.444782
0.215501
-0.373454
0.233114
-0.198771
0.264243
0.144739
0.275314
0.425185
0.28267
0.450414
0.285305
0.398211
0.251839
-0.0637907
0.237172
-0.496258
0.23193
-0.509289
0.242672
-0.443032
0.309267
0.346033
0.325009
0.988913
0.266857
0.172076
0.246653
-0.700005
0.258049
-0.075586
0.255594
0.294148
0.261897
0.0849944
0.254913
0.00475302
0.243952
-0.0273993
0.2515
-0.00927178
0.252349
0.0657615
0.245966
0.0537274
0.0241089
0.189608
-0.131464
0.158071
-0.141865
0.141445
-0.139644
0.140017
-0.119978
0.133293
-0.122096
0.160754
-0.0928419
0.214233
0.101406
0.251093
0.339451
0.274428
0.395847
0.27727
0.23367
0.253594
-0.0286525
0.232158
-0.226374
0.223606
-0.229634
0.193341
-0.247409
0.172675
-0.424115
0.190559
-0.391338
0.213111
-0.221324
0.250113
0.107737
0.264937
0.410362
0.27266
0.442691
0.274168
0.396703
0.238693
-0.0283163
0.218732
-0.476297
0.209226
-0.499783
0.21907
-0.452876
0.295158
0.269944
0.317143
0.966929
0.257429
0.231789
0.235687
-0.678263
0.249276
-0.0891744
0.248227
0.295196
0.255588
0.0776331
0.249645
0.010696
0.238599
-0.0163531
0.247238
-0.0179106
0.250518
0.0624821
0.245207
0.0590375
0.0251352
0.180011
-0.105909
0.156383
-0.118237
0.137746
-0.121007
0.127904
-0.110136
0.120767
-0.114959
0.134771
-0.106845
0.178717
0.0574594
0.222213
0.295955
0.259305
0.358754
0.274069
0.218905
0.251281
-0.00586377
0.221922
-0.197015
0.209541
-0.217253
0.179148
-0.217016
0.151604
-0.396572
0.163383
-0.403116
0.188429
-0.24637
0.227693
0.068473
0.247728
0.390327
0.258208
0.432211
0.260682
0.394229
0.226246
0.00611955
0.199946
-0.449996
0.187876
-0.487714
0.195559
-0.460558
0.274493
0.19101
0.300789
0.940632
0.246205
0.286374
0.223985
-0.656043
0.239459
-0.104649
0.239665
0.29499
0.248215
0.069083
0.243658
0.015253
0.232925
-0.00561974
0.242528
-0.027514
0.248152
0.0568576
0.244153
0.0630365
0.0253737
0.433333
-0.0762
-0.463042
0.406104
-0.0910081
0.376032
-0.0909351
0.343015
-0.0771186
0.301529
-0.0734729
0.253264
-0.0585806
0.220396
0.0903278
0.250552
0.265799
0.364722
0.244584
0.468181
0.115447
0.500636
-0.0383188
0.479986
-0.176365
0.453807
-0.191074
0.43186
-0.195069
0.395221
-0.359933
0.368652
-0.376547
0.332197
-0.209914
0.310126
0.0905436
0.294378
0.406076
0.328316
0.398273
0.393774
0.32877
0.419498
-0.0196042
0.403258
-0.433756
0.368439
-0.452894
0.320174
-0.412293
0.358928
0.152256
0.402349
0.897211
0.406303
0.28242
0.384624
-0.634363
0.365307
-0.0853316
0.35788
0.302417
0.378408
0.0485551
0.371447
0.0222133
0.351947
0.0138805
0.362283
-0.0378503
0.368546
0.0505951
0.360266
0.0713169
0.0292987
0.460714
-0.0518131
-0.485101
0.43395
-0.0642438
0.407349
-0.0643348
0.384974
-0.0547432
0.357633
-0.0461323
0.326295
-0.0272428
0.326593
0.0900307
0.397939
0.194453
0.49255
0.149973
0.544289
0.0637083
0.545016
-0.0390463
0.508777
-0.140126
0.47513
-0.157427
0.449952
-0.169891
0.415556
-0.325537
0.376754
-0.337745
0.329329
-0.16249
0.301796
0.118077
0.289138
0.418733
0.349094
0.338317
0.436506
0.241359
0.460368
-0.0434659
0.43171
-0.405098
0.375021
-0.396206
0.319288
-0.35656
0.361382
0.110162
0.420743
0.83785
0.441965
0.261198
0.419423
-0.611822
0.390367
-0.0562758
0.382966
0.309819
0.408812
0.0227096
0.402641
0.0283842
0.381213
0.0353082
0.392483
-0.0491201
0.40109
0.0419877
0.393244
0.079163
0.0333753
0.498785
-0.0348567
-0.515741
0.477531
-0.0429908
0.45676
-0.0435631
0.439113
-0.0370961
0.41553
-0.0225498
0.39783
-0.00954248
0.422785
0.0650757
0.494097
0.123141
0.554089
0.0899805
0.580698
0.0370998
0.574515
-0.0328638
0.539762
-0.105373
0.516784
-0.134449
0.498478
-0.151585
0.447042
-0.2741
0.376436
-0.267139
0.311911
-0.0979649
0.284511
0.145476
0.297721
0.405524
0.383868
0.25217
0.482409
0.142818
0.509609
-0.0706664
0.466361
-0.36185
0.379517
-0.309362
0.305674
-0.282717
0.356666
0.05917
0.450814
0.743701
0.488192
0.223821
0.456018
-0.579648
0.418747
-0.0190051
0.412493
0.316073
0.443544
-0.00834063
0.437397
0.0345311
0.41419
0.0585145
0.426662
-0.0615917
0.437121
0.0315284
0.429678
0.0866067
0.0373448
0.538506
-0.0219969
-0.551366
0.522686
-0.0271709
0.505812
-0.0266891
0.492488
-0.0237715
0.480191
-0.0102528
0.472372
-0.00172396
0.496044
0.0414035
0.549372
0.0698136
0.587035
0.0523176
0.600227
0.023907
0.59821
-0.0308463
0.571257
-0.0784203
0.539203
-0.102395
0.512389
-0.124771
0.459109
-0.220821
0.375133
-0.183163
0.301822
-0.0246537
0.296719
0.150579
0.355548
0.346694
0.449347
0.158371
0.534058
0.058107
0.554481
-0.0910893
0.497575
-0.304944
0.385873
-0.19766
0.293797
-0.190642
0.356441
-0.00347408
0.492139
0.608004
0.541782
0.174178
0.494818
-0.532684
0.446643
0.0291692
0.445528
0.317188
0.482966
-0.045779
0.476561
0.0409368
0.452083
0.0829923
0.465975
-0.0754838
0.477251
0.0202524
0.469915
0.0939422
0.0408147
0.583383
-0.0128368
-0.592543
0.572221
-0.0160092
0.56087
-0.0153383
0.552226
-0.0151274
0.544949
-0.00297566
0.543308
-8.23729e-05
0.560094
0.0246173
0.591998
0.0379099
0.618629
0.0256865
0.628749
0.0137867
0.625427
-0.0275241
0.609842
-0.062836
0.588108
-0.0806605
0.556276
-0.0929389
0.498389
-0.162934
0.422145
-0.106919
0.367326
0.0301662
0.387205
0.1307
0.471369
0.26253
0.54571
0.0840304
0.595233
0.00858436
0.601297
-0.0971534
0.541492
-0.245139
0.431701
-0.0878688
0.324368
-0.0833087
0.375165
-0.0542718
0.541926
0.441244
0.600971
0.115132
0.534285
-0.465998
0.471875
0.0915791
0.482243
0.30682
0.529489
-0.0930242
0.522271
0.0481545
0.496686
0.108577
0.51202
-0.0908172
0.52334
0.00893246
0.515693
0.101589
0.0436682
0.633635
-0.00641842
-0.640054
0.62646
-0.00883351
0.618826
-0.0077049
0.612734
-0.00903472
0.609922
-0.000163841
0.610087
-0.000247632
0.621444
0.0132601
0.64083
0.0185241
0.656142
0.0103749
0.664989
0.00493919
0.662699
-0.0252336
0.642661
-0.0427985
0.622931
-0.0609306
0.600923
-0.0709307
0.553624
-0.115635
0.501586
-0.0548813
0.47897
0.0527821
0.520752
0.0889182
0.602439
0.180843
0.642281
0.044188
0.654787
-0.00392185
0.639602
-0.0819683
0.583398
-0.188934
0.512536
-0.0170075
0.422519
0.00670901
0.433395
-0.0651479
0.593955
0.280683
0.656784
0.0523027
0.569145
-0.378359
0.500517
0.160207
0.534696
0.272642
0.586184
-0.144513
0.574302
0.060037
0.549392
0.133487
0.566785
-0.10821
0.576966
-0.0012486
0.568131
0.110423
0.0460357
0.68949
-0.00222675
-0.693681
0.684834
-0.00417774
0.680259
-0.00313017
0.676312
-0.00508761
0.675621
0.000526803
0.675847
-0.000473246
0.683228
0.00587936
0.69364
0.00811142
0.702784
0.00123074
0.707922
-0.000198554
0.70453
-0.0218418
0.693106
-0.031374
0.678873
-0.0466981
0.655143
-0.0472008
0.612587
-0.0730785
0.588249
-0.030543
0.594425
0.0466057
0.631682
0.0516613
0.693092
0.119433
0.7162
0.0210802
0.713819
-0.00154107
0.690403
-0.0585519
0.632573
-0.131105
0.607376
0.00819016
0.573102
0.0409823
0.554477
-0.0465229
0.664427
0.170734
0.71022
0.00650986
0.613942
-0.282081
0.559364
0.214785
0.614105
0.2179
0.652509
-0.182916
0.632953
0.0795924
0.61452
0.151921
0.632072
-0.125763
0.636679
-0.00585531
0.626887
0.120216
0.0465992
0.750702
0.000269389
-0.753198
0.747756
-0.00123186
0.745338
-0.000712506
0.742606
-0.00235473
0.742782
0.000350458
0.742885
-0.000576535
0.747196
0.00156899
0.752739
0.00256817
0.75726
-0.00329064
0.759964
-0.00290199
0.756361
-0.0182389
0.746178
-0.0211913
0.732665
-0.0331851
0.718202
-0.0327378
0.68863
-0.0435064
0.677013
-0.0189259
0.690072
0.033546
0.715873
0.0258611
0.75692
0.0783858
0.766102
0.0118984
0.762657
0.00190361
0.743902
-0.0397971
0.699153
-0.0863559
0.695874
0.0114693
0.697327
0.0395293
0.67926
-0.0284555
0.740396
0.109598
0.757142
-0.0102364
0.670979
-0.195918
0.653674
0.23209
0.712426
0.159148
0.721317
-0.191806
0.698995
0.101914
0.695761
0.155154
0.706645
-0.136647
0.700962
-0.000172147
0.695367
0.125811
0.0429021
0.817526
0.0016373
-0.818894
0.815772
0.000521585
0.814522
0.000537372
0.812819
-0.000650934
0.813033
0.000136194
0.812885
-0.000429162
0.815095
-0.000640984
0.817568
9.53432e-05
0.819117
-0.00483909
0.820064
-0.00384896
0.815917
-0.014092
0.809591
-0.0148655
0.799411
-0.0230051
0.788658
-0.0219852
0.768796
-0.0236437
0.763892
-0.0140226
0.773884
0.0235545
0.788769
0.0109762
0.816664
0.0504907
0.824351
0.00421154
0.823058
0.0031966
0.805671
-0.0224102
0.773041
-0.0537258
0.776614
0.00789571
0.786826
0.0293177
0.777499
-0.0191284
0.814508
0.0725894
0.807751
-0.00347984
0.742797
-0.130965
0.767875
0.207012
0.814967
0.112056
0.791731
-0.16857
0.778507
0.115138
0.793725
0.139937
0.787859
-0.130781
0.774419
0.0132677
0.780295
0.119934
0.0357609
0.890332
0.00227672
-0.890971
0.889328
0.00152481
0.888672
0.0011942
0.887648
0.000372778
0.887611
0.000172961
0.887386
-0.000203828
0.888036
-0.00129084
0.889005
-0.000873534
0.888799
-0.00463341
0.888725
-0.00377519
0.884984
-0.0103507
0.880405
-0.010287
0.872079
-0.0146785
0.865118
-0.0150241
0.853256
-0.0117817
0.850379
-0.0111465
0.85743
0.0165039
0.866113
0.00229306
0.884089
0.0325146
0.887564
0.000737141
0.887531
0.0032294
0.876939
-0.0118184
0.855686
-0.0324732
0.858888
0.00469446
0.867341
0.0208646
0.857762
-0.00954917
0.884276
0.0460747
0.874406
0.00639
0.827581
-0.0841392
0.875728
0.158865
0.904986
0.0827982
0.862117
-0.125701
0.868984
0.108272
0.895591
0.113329
0.868587
-0.103777
0.856841
0.025014
0.876606
0.100169
0.028829
0.969468
0.00249371
-0.969685
0.96899
0.00200315
0.968631
0.00155262
0.968031
0.000972458
0.967787
0.000417031
0.967489
9.49312e-05
0.967293
-0.00109517
0.96738
-0.00096065
0.966339
-0.0035921
0.965692
-0.00312839
0.962294
-0.00695247
0.959039
-0.00703216
0.953294
-0.00893321
0.948547
-0.0102772
0.941818
-0.00505317
0.939693
-0.00902157
0.944416
0.011781
0.948699
-0.00199016
0.960162
0.0210514
0.96278
-0.00188041
0.962422
0.00358713
0.95629
-0.00568575
0.941958
-0.0181418
0.942537
0.00411565
0.950071
0.013331
0.942213
-0.00169197
0.960758
0.0275299
0.953028
0.0141204
0.916768
-0.0478795
0.967329
0.108304
0.986601
0.0635265
0.939751
-0.0788517
0.96215
0.0858729
0.989005
0.0864736
0.949817
-0.0645885
0.946669
0.0281619
0.973357
0.0734807
0.0247777
1.05569
0.00248386
-1.05568
1.05549
0.00220575
1.0553
0.00174359
1.05493
0.00134085
1.05459
0.000751535
1.05426
0.000424939
1.05368
-0.000513174
1.05335
-0.000632675
1.05203
-0.00226359
1.05114
-0.00224534
1.04844
-0.00424725
1.04612
-0.00471764
1.04211
-0.00492541
1.03879
-0.00695504
1.03528
-0.00154458
1.03325
-0.0069924
1.03664
0.00839954
1.03852
-0.00387602
1.04536
0.014213
1.04664
-0.00316352
1.0458
0.00443078
1.04295
-0.00283333
1.03411
-0.00929948
1.0332
0.00502544
1.03948
0.00704767
1.03236
0.00542604
1.04354
0.0163491
1.0423
0.0153636
1.01512
-0.0207018
1.0548
0.0686296
1.06928
0.0490455
1.02921
-0.0387888
1.05587
0.0592192
1.07655
0.0657902
1.03874
-0.0267769
1.04332
0.0235844
1.0679
0.0488937
0.0236929
1.14972
0.00237116
-1.1496
1.14966
0.00225893
1.14958
0.001821
1.14935
0.0015768
1.14904
0.00106482
1.14868
0.000778354
1.14804
0.000129897
1.14756
-0.000155656
1.14632
-0.00101856
1.14546
-0.00138734
1.14335
-0.00213977
1.14165
-0.00301377
1.139
-0.00228121
1.13665
-0.00460044
1.1349
0.000201413
1.13312
-0.00521162
1.13536
0.00616183
1.13574
-0.00426049
1.13971
0.0102438
1.14038
-0.00383531
1.13968
0.00513546
1.13826
-0.00141436
1.13288
-0.00391959
1.13132
0.00658356
1.13603
0.00234433
1.1312
0.010248
1.13789
0.00966196
1.13908
0.0141801
1.11989
-0.00151295
1.14844
0.0400795
1.1595
0.0379805
1.13039
-0.00967406
1.15347
0.0361345
1.16729
0.0519757
1.13838
0.00212632
1.14623
0.0157354
1.16472
0.0304081
0.0241429
1.25242
0.00219979
-1.25224
1.25245
0.00222767
1.25244
0.00182603
1.25229
0.0017281
1.25205
0.00130632
1.25174
0.00108572
1.25118
0.000691451
1.25072
0.000304044
1.2497
6.60545e-06
1.24895
-0.000640876
1.24742
-0.000606505
1.24618
-0.00177386
1.24448
-0.000587572
1.24277
-0.00288823
1.24196
0.0010129
1.24039
-0.00364166
1.24187
0.00468196
1.24148
-0.00386982
1.24386
0.00786191
1.24387
-0.00384445
1.24319
0.00581036
1.24259
-0.000813057
1.23933
-0.000660048
1.23829
0.00762805
1.24134
-0.000704159
1.23798
0.0136065
1.24218
0.005462
1.24428
0.0120741
1.23263
0.0101387
1.25197
0.0207391
1.25918
0.0307747
1.24115
0.00835644
1.25874
0.018547
1.267
0.0437071
1.24777
0.0213608
1.25599
0.00751791
1.2686
0.0177919
0.0249771
1.3647
0.00201689
-1.36452
1.36478
0.00214665
1.36483
0.00178387
1.36475
0.00180219
1.3646
0.00146131
1.36437
0.00131516
1.36395
0.00110771
1.36357
0.000688611
1.36284
0.000733453
1.36226
-5.71556e-05
1.36122
0.000425412
1.36033
-0.000879138
1.35929
0.000450476
1.35807
-0.00166207
1.35768
0.00139425
1.3564
-0.00235451
1.35736
0.00372101
1.35654
-0.00305195
1.358
0.00639969
1.35758
-0.00342105
1.35719
0.00619631
1.35702
-0.000643383
1.35487
0.00149115
1.35463
0.00787455
1.35615
-0.00222412
1.35461
0.0151403
1.35751
0.00256478
1.35924
0.010341
1.35291
0.016467
1.36556
0.00808935
1.37023
0.0261068
1.36077
0.017818
1.37303
0.00628642
1.37788
0.0388609
1.36685
0.0323879
1.37378
0.000588129
1.38183
0.00974493
0.0254507
1.48751
0.00183207
-1.48732
1.48762
0.00203119
1.4877
0.00170196
1.48769
0.00181353
1.48763
0.00152381
1.48749
0.00145791
1.48725
0.00134868
1.48698
0.000958653
1.48653
0.0011808
1.48612
0.000349769
1.48551
0.00103787
1.48491
-0.000277293
1.48432
0.00103338
1.48349
-0.000823684
1.48334
0.00154416
1.48232
-0.00133452
1.48296
0.00307533
1.48199
-0.00207981
1.48296
0.00542537
1.48227
-0.00272321
1.4821
0.00636634
1.48206
-0.000607186
1.48061
0.0029423
1.48117
0.00731182
1.48165
-0.00270053
1.4815
0.015293
1.48347
0.000587544
1.48475
0.00906263
1.48255
0.018669
1.48999
0.00064423
1.49301
0.0230887
1.48963
0.0212006
1.49767
-0.00175475
1.50066
0.0358766
1.49579
0.0372512
1.50101
-0.0046281
1.50582
0.00492957
0.0251769
1.62188
0.00165728
-1.6217
1.62202
0.00188737
1.62213
0.00159543
1.62218
0.00176287
1.6222
0.00150441
1.62215
0.00150655
1.62207
0.00142849
1.62193
0.00110111
1.62174
0.00137046
1.62151
0.000578933
1.62123
0.00131871
1.6209
5.48534e-05
1.62062
0.00130558
1.62013
-0.000331637
1.6201
0.00157433
1.61937
-0.000599297
1.61982
0.002616
1.61883
-0.00108291
1.6196
0.00464935
1.61859
-0.00171114
1.61882
0.00614267
1.6186
-0.000386812
1.61778
0.00376184
1.61896
0.00612433
1.61859
-0.00232385
1.62008
0.0138005
1.62115
-0.000487988
1.62204
0.00817516
1.6226
0.0181151
1.62594
-0.00269618
1.62866
0.0203656
1.62908
0.0207781
1.63319
-0.00586197
1.63635
0.0327197
1.63636
0.0372332
1.63909
-0.00735037
1.64137
0.00264984
0.0238954
1.76887
0.00151701
-1.76873
1.76902
0.00173588
1.76913
0.00148929
1.76922
0.00166769
1.7693
0.00142653
1.76934
0.001471
1.7694
0.00136312
1.76939
0.00111652
1.76945
0.00131241
1.7694
0.000628159
1.76943
0.00128363
1.76936
0.000127506
1.76937
0.00129247
1.76922
-0.000179118
1.76928
0.00150985
1.76887
-0.000184711
1.76918
0.00230921
1.76824
-0.000146908
1.76892
0.0039687
1.76755
-0.000342842
1.76825
0.00545019
1.76756
0.000303475
1.76744
0.00388145
1.76908
0.00448279
1.76816
-0.00140713
1.77129
0.0106702
1.77139
-0.000584523
1.77207
0.0074941
1.77468
0.0155083
1.77461
-0.00263102
1.77758
0.0173939
1.78045
0.0179142
1.7812
-0.00661228
1.7855
0.028413
1.78949
0.0332505
1.78949
-0.0073515
1.78973
0.00240984
0.0215446
1.92985
0.00136311
-1.9297
1.93008
0.00150484
1.93022
0.00135081
1.93043
0.00146087
1.93057
0.00128341
1.93073
0.0013099
1.93092
0.00118047
1.93101
0.00102592
1.93125
0.00107035
1.93126
0.000616713
1.93153
0.00101505
1.93149
0.000163773
1.93169
0.00110039
1.93165
-0.000143884
1.9317
0.00146459
1.93158
-6.47257e-05
1.93166
0.00222474
1.93109
0.000418895
1.93176
0.00330248
1.93041
0.00100686
1.93189
0.0039752
1.93061
0.00157398
1.93161
0.00289041
1.933
0.00308829
1.93156
3.28351e-05
1.93608
0.00615078
1.93451
0.000985993
1.9358
0.00620672
1.94022
0.0110882
1.93649
0.00110064
1.94085
0.0130296
1.94574
0.013028
1.94122
-0.00209533
1.94926
0.0203725
1.95903
0.0234795
1.95312
-0.00143759
1.9501
0.00542709
0.0172625
2.10645
0.00105323
-2.10614
2.10683
0.00112816
2.10712
0.00105715
2.10747
0.00110933
2.10774
0.00101846
2.10802
0.00102963
2.10825
0.000947321
2.1084
0.000876281
2.1086
0.00086895
2.10857
0.000647333
2.10874
0.000849113
2.10853
0.000367321
2.10865
0.000983844
2.10838
0.000124134
2.10848
0.00136515
2.10831
0.000104358
2.10857
0.00196167
2.10853
0.000465072
2.10932
0.00251209
2.10918
0.00114957
2.11058
0.00257082
2.11033
0.00181921
2.11132
0.00190642
2.112
0.00240969
2.11099
0.00104399
2.11356
0.00357674
2.11247
0.00207302
2.114
0.00467449
2.11831
0.00678083
2.1158
0.00361414
2.11994
0.00889049
2.12492
0.00804953
2.11983
0.00299216
2.12782
0.0123851
2.13841
0.0128831
2.13242
0.00455739
2.12987
0.00797258
0.0122451
2.29948
0.000677202
-2.2991
2.29987
0.000730256
2.30024
0.000691658
2.30062
0.000733947
2.30094
0.000691965
2.30126
0.0007097
2.30152
0.000686574
2.30175
0.000651203
2.30193
0.000687607
2.30202
0.000558344
2.30215
0.000721745
2.30207
0.000441561
2.30223
0.000823835
2.30202
0.000331567
2.30236
0.00103164
2.30217
0.000288666
2.30279
0.00134097
2.30288
0.000374316
2.30374
0.00165695
2.30427
0.000616794
2.30507
0.00176872
2.30586
0.00103421
2.30626
0.00150679
2.3069
0.00177038
2.30689
0.00104771
2.30761
0.00285854
2.30821
0.00147676
2.3095
0.00338538
2.3122
0.00407653
2.31311
0.00270449
2.31598
0.00602528
2.31929
0.00473682
2.31872
0.00356385
2.32323
0.00787438
2.32903
0.00708261
2.32893
0.00465486
2.33029
0.00661527
0.00815488
2.51046
0.000344882
-2.51013
2.51083
0.000367828
2.51116
0.0003554
2.51152
0.000373533
2.51185
0.000360722
2.5122
0.00036838
2.51252
0.000365228
2.51282
0.000349427
2.51313
0.000375043
2.51337
0.000315726
2.51369
0.000402541
2.51387
0.000269878
2.51423
0.000461693
2.51434
0.000223377
2.5148
0.00056502
2.51489
0.000203646
2.51553
0.000700051
2.51566
0.000246626
2.51649
0.000823346
2.51673
0.000378941
2.51764
0.000859168
2.51807
0.000598838
2.5188
0.00077911
2.51965
0.000922703
2.52001
0.000682558
2.52149
0.00138229
2.52205
0.000911726
2.52368
0.00176216
2.52585
0.0019079
2.52687
0.00168446
2.52994
0.00295549
2.53247
0.00220042
2.53359
0.00244396
2.5378
0.00366186
2.54181
0.00308057
2.54334
0.00312305
2.54613
0.00382343
0.00407862
2.74177
-2.74142
2.74213
2.74249
2.74286
2.74322
2.74359
2.74396
2.74431
2.74468
2.745
2.7454
2.74567
2.74613
2.74635
2.74692
2.74712
2.74782
2.74807
2.74889
2.74927
2.75013
2.75073
2.75151
2.75243
2.75311
2.7545
2.75541
2.75717
2.75908
2.76076
2.76372
2.76592
2.76836
2.77202
2.7751
2.77823
2.78205
0.436737
0.0296563
-0.431328
0.443681
0.0552167
0.447741
0.0849506
0.454147
0.107599
0.456775
0.137819
0.461601
0.155655
0.46227
0.184459
0.195473
0.464357
0.025531
-0.460232
0.469382
0.0501918
0.472876
0.0814565
0.476506
0.103969
0.479311
0.135014
0.481682
0.153283
0.48443
0.181711
0.194801
0.496939
0.022316
-0.493724
0.499704
0.0474269
0.502736
0.078424
0.505317
0.101389
0.508855
0.131476
0.511161
0.150977
0.514697
0.178176
0.193757
0.533237
0.019637
-0.530558
0.535072
0.0455915
0.538241
0.0752545
0.540533
0.0990968
0.544194
0.127815
0.546212
0.148959
0.549666
0.174722
0.192057
0.57433
0.017571
-0.572264
0.575833
0.0440892
0.578681
0.0724056
0.580564
0.0972144
0.583861
0.124517
0.586116
0.146704
0.589822
0.171017
0.189336
0.620438
0.0160072
-0.618874
0.621745
0.0427822
0.624189
0.0699615
0.626172
0.095231
0.629504
0.121185
0.632402
0.143806
0.63652
0.166899
0.185802
0.671692
0.0148268
-0.670511
0.673058
0.0414159
0.675404
0.0676152
0.67786
0.092775
0.681371
0.117674
0.684971
0.140206
0.689438
0.162432
0.181559
0.72859
0.0138425
-0.727606
0.730171
0.039835
0.732582
0.0652042
0.735516
0.0898414
0.739281
0.113909
0.743378
0.136109
0.748194
0.157616
0.176555
0.79143
0.0129495
-0.790537
0.793161
0.038104
0.795681
0.0626833
0.798907
0.0866163
0.802938
0.109878
0.807559
0.131488
0.813102
0.152073
0.170764
0.860561
0.012101
-0.859713
0.862373
0.0362926
0.865079
0.0599769
0.868639
0.0830566
0.873158
0.105359
0.878408
0.126238
0.884495
0.145986
0.164287
0.93652
0.0112521
-0.935671
0.938428
0.0343847
0.941362
0.0570427
0.945247
0.079172
0.950155
0.10045
0.955852
0.120541
0.962443
0.139395
0.157046
1.01976
0.0104134
-1.01892
1.02174
0.0323967
1.02487
0.0539215
1.02905
0.0749855
1.03434
0.0951649
1.04055
0.114331
1.04771
0.132229
0.14908
1.11088
0.00958013