/*--------------------------------*- C++ -*----------------------------------*\
| =========                 |                                                 |
| \\      /  F ield         | OpenFOAM: The Open Source CFD Toolbox           |
|  \\    /   O peration     | Version:  2512                                  |
|   \\  /    A nd           | Website:  www.openfoam.com                      |
|    \\/     M anipulation  |                                                 |
\*---------------------------------------------------------------------------*/
FoamFile
{
    version     2.0;
    format      ascii;
    arch        "LSB;label=32;scalar=64";
    class       volVectorField;
    location    "74.5";
    object      U;
}
// * * * * * * * * * * * * * * * * * * * * * * * * * * * * * * * * * * * * * //

dimensions      [0 1 -1 0 0 0 0];

internalField   nonuniform List<vector> 
13248
(
(-0.0263648 0.0205767 5.60677e-20)
(-0.0542762 0.0400572 0)
(-0.0601805 0.0462303 -9.65501e-20)
(-0.0407344 0.0457682 8.93995e-20)
(0.007818 0.04137 8.22888e-20)
(0.0892022 0.0340602 0)
(0.20565 0.0247735 0)
(0.355303 0.0146284 1.88982e-19)
(0.530454 0.00453059 -6.12138e-22)
(0.718009 -0.0049897 -1.61539e-19)
(0.902071 -0.0139558 1.49115e-19)
(1.06737 -0.0228769 -9.24081e-20)
(1.20222 -0.0324626 0)
(1.30037 -0.0432903 -1.55617e-19)
(1.36166 -0.0555382 2.86886e-19)
(1.39131 -0.0689787 -6.8767e-20)
(1.398 -0.0831182 -1.16057e-19)
(1.39101 -0.0974033 1.08212e-19)
(1.37732 -0.111338 0)
(1.36067 -0.125148 0)
(1.3421 -0.13571 0)
(1.31983 -0.152555 0)
(1.29831 -0.150588 2.72261e-20)
(1.26609 -0.186792 9.14264e-20)
(-0.0307768 0.022536 -1.68996e-19)
(-0.0547887 0.0405353 1.06652e-19)
(-0.0460493 0.0431723 -6.73422e-22)
(-0.0025438 0.0381421 -1.36395e-19)
(0.0791994 0.0293271 -8.21692e-20)
(0.20161 0.0191454 -7.68389e-20)
(0.362317 0.00950119 -1.38805e-19)
(0.551245 0.00170636 1.2996e-19)
(0.751215 -0.0037907 0)
(0.942346 -0.00751738 5.15262e-22)
(1.10729 -0.0106945 1.17077e-21)
(1.23496 -0.0146928 9.15956e-20)
(1.32194 -0.0205174 0)
(1.37184 -0.0285266 0)
(1.39306 -0.0384647 1.01059e-19)
(1.39556 -0.0497424 -1.88694e-19)
(1.38786 -0.061624 1.08429e-19)
(1.3752 -0.0736324 -1.01099e-19)
(1.35992 -0.0851802 -4.26996e-20)
(1.34269 -0.0960393 -7.59269e-20)
(1.32356 -0.106346 -2.91297e-20)
(1.30417 -0.115136 -5.40788e-20)
(1.28275 -0.121395 8.14665e-20)
(1.26282 -0.133578 2.1953e-20)
(-0.0328443 0.0220927 0)
(-0.048242 0.0370841 0)
(-0.0186744 0.0368585 4.91541e-20)
(0.0566136 0.0291282 4.4792e-20)
(0.179577 0.0189639 -8.24411e-22)
(0.347822 0.00990212 -7.95563e-20)
(0.549356 0.0041539 0)
(0.762579 0.00223593 -6.45092e-20)
(0.962747 0.00303803 5.9608e-20)
(1.12986 0.00454208 8.36568e-24)
(1.25336 0.00476726 -9.8307e-20)
(1.33273 0.00246674 -8.79114e-20)
(1.37509 -0.00264967 2.4957e-21)
(1.39125 -0.0101235 -6.88703e-20)
(1.39171 -0.0191716 1.66264e-19)
(1.38402 -0.0290163 0)
(1.37231 -0.0391042 -1.02203e-19)
(1.35834 -0.0491172 4.99746e-20)
(1.34297 -0.0585656 4.26568e-20)
(1.32643 -0.0682108 0)
(1.30987 -0.0753226 3.32582e-20)
(1.29179 -0.085269 -1.09029e-19)
(1.27459 -0.0871397 1.01818e-19)
(1.25471 -0.100538 5.94735e-20)
(-0.0321168 0.0195411 -5.92853e-20)
(-0.033145 0.0296343 -5.66416e-20)
(0.0242093 0.0268239 5.06752e-20)
(0.138959 0.0186055 0)
(0.308721 0.0109071 0)
(0.520702 0.00755848 -1.65819e-21)
(0.7489 0.00947435 0)
(0.962394 0.0148958 -1.96367e-19)
(1.13713 0.0208596 1.79198e-19)
(1.26225 0.0247732 -2.17296e-19)
(1.33958 0.0252865 4.88821e-20)
(1.37911 0.0223406 0)
(1.39333 0.0166846 7.6763e-20)
(1.39296 0.00927992 -1.40083e-19)
(1.38504 0.00091974 3.32201e-20)
(1.37333 -0.00788302 8.17779e-20)
(1.35964 -0.0168444 -4.72266e-21)
(1.34493 -0.025649 -8.81335e-20)
(1.32959 -0.0343801 0)
(1.31405 -0.0422106 0)
(1.29779 -0.0499034 -2.95311e-20)
(1.28158 -0.0568178 2.59034e-20)
(1.26495 -0.0603797 8.98121e-20)
(1.24806 -0.0720481 -8.38558e-20)
(-0.0282149 0.0155205 -6.22034e-20)
(-0.00771145 0.019495 -5.76797e-20)
(0.0853656 0.0151308 1.59179e-19)
(0.24648 0.00959976 -9.59189e-20)
(0.463409 0.00891826 8.88455e-20)
(0.706976 0.0151372 1.59828e-19)
(0.938642 0.0259004 -1.11115e-19)
(1.12774 0.0369904 -1.31327e-19)
(1.26113 0.0449932 4.01858e-21)
(1.34183 0.048433 1.62881e-19)
(1.382 0.0475419 0)
(1.39577 0.0434197 4.22138e-20)
(1.39455 0.037253 0)
(1.38574 0.0299272 -6.61877e-20)
(1.37341 0.021993 9.23189e-20)
(1.35965 0.0137777 1.1015e-21)
(1.34539 0.00555647 -2.31953e-20)
(1.33091 -0.00257584 4.30029e-20)
(1.31633 -0.0102339 3.61949e-20)
(1.30143 -0.0177293 -3.18815e-20)
(1.2866 -0.0242786 2.95176e-20)
(1.27157 -0.0308995 -2.58912e-20)
(1.25666 -0.0352568 0)
(1.24171 -0.0443278 -1.87489e-20)
(-0.0204905 0.0107031 6.21877e-20)
(0.0300114 0.00864193 6.03966e-20)
(0.167022 0.00511687 -5.34182e-20)
(0.378124 0.00655367 9.8567e-20)
(0.633885 0.0168976 -9.12952e-20)
(0.887861 0.0337389 8.1339e-20)
(1.09909 0.0511688 -3.84828e-20)
(1.24869 0.0643891 9.86675e-20)
(1.33894 0.0715083 -6.0836e-20)
(1.38369 0.0729917 1.03701e-19)
(1.399 0.0703587 -2.35043e-19)
(1.39782 0.0651523 8.46136e-20)
(1.38859 0.0584951 -7.22301e-20)
(1.37599 0.0510783 6.72419e-20)
(1.36223 0.0433026 5.66001e-20)
(1.34818 0.0354241 4.86877e-20)
(1.334 0.0275695 -1.34078e-19)
(1.31974 0.019929 8.24237e-20)
(1.30535 0.0124497 -3.61892e-20)
(1.29105 0.00547599 9.22543e-20)
(1.27673 -0.00120528 -2.97099e-20)
(1.26255 -0.0073834 -6.97444e-20)
(1.24849 -0.0120695 6.37453e-20)
(1.23453 -0.0202046 1.87431e-20)
(-0.00814584 0.00572067 0)
(0.0816653 -0.000790421 7.21658e-22)
(0.26931 0.000402207 1.12268e-19)
(0.527513 0.0133116 -1.03256e-19)
(0.804838 0.0363247 -9.19429e-20)
(1.0462 0.0615666 1.6785e-19)
(1.22143 0.0818253 -7.66408e-20)
(1.32878 0.0940919 9.88773e-20)
(1.38286 0.0988248 -2.89479e-21)
(1.40216 0.0980252 -5.37806e-20)
(1.40204 0.0937789 1.13915e-19)
(1.39262 0.087627 -1.65452e-19)
(1.37946 0.0805089 0)
(1.36512 0.0729335 -3.12525e-20)
(1.35054 0.0651696 -8.20627e-20)
(1.33602 0.057359 2.56355e-20)
(1.32165 0.0496377 1.20156e-21)
(1.30747 0.0420583 -5.37718e-20)
(1.29354 0.0348058 4.00354e-21)
(1.27979 0.0278348 6.10977e-20)
(1.26628 0.0213211 -2.66432e-20)
(1.25298 0.0153089 -9.65383e-21)
(1.23984 0.00978815 3.04486e-20)
(1.22697 0.00291029 0)
(0.00978346 0.00109981 0)
(0.147974 -0.00666416 3.08596e-20)
(0.389109 0.00424374 -1.4586e-19)
(0.683454 0.031781 5.23801e-20)
(0.961204 0.0660162 -4.85166e-20)
(1.1731 0.0957048 -4.31308e-20)
(1.30743 0.115341 -7.40897e-20)
(1.37746 0.124814 3.69723e-20)
(1.40438 0.126595 3.128e-20)
(1.40695 0.123534 0)
(1.39786 0.117818 6.70665e-20)
(1.38415 0.110786 -9.7946e-20)
(1.36906 0.103138 7.21507e-20)
(1.35387 0.0952126 3.12662e-20)
(1.33898 0.0871884 -2.50415e-20)
(1.32448 0.0791947 -2.04893e-20)
(1.31034 0.0713155 -1.88341e-20)
(1.29652 0.0636597 5.65598e-20)
(1.28295 0.0562445 0)
(1.26967 0.0491842 2.7357e-20)
(1.25666 0.0425029 2.23579e-20)
(1.24391 0.0362378 -5.58017e-20)
(1.2314 0.0303838 -3.70543e-20)
(1.21923 0.0243538 3.4112e-20)
(0.0339061 -0.00221356 -3.59158e-20)
(0.228091 -0.0064162 -1.42751e-21)
(0.519805 0.0190689 2.97886e-20)
(0.833463 0.0617262 8.19018e-20)
(1.09349 0.103594 2.28516e-20)
(1.26792 0.133818 -4.37326e-20)
(1.36367 0.150446 3.92887e-20)
(1.40391 0.156194 -3.346e-20)
(1.41184 0.154907 5.83068e-20)
(1.40399 0.149735 2.42009e-20)
(1.38982 0.142658 -6.79474e-20)
(1.37381 0.134714 1.9695e-20)
(1.35771 0.126395 3.30223e-20)
(1.34206 0.117935 -1.61235e-20)
(1.32696 0.109474 0)
(1.31238 0.101101 2.33025e-20)
(1.29825 0.0929014 3.88074e-20)
(1.28457 0.0849239 6.33718e-21)
(1.27133 0.0772548 -3.16882e-20)
(1.25851 0.0699295 1.30602e-20)
(1.24609 0.0630081 0)
(1.23403 0.056496 -9.9583e-21)
(1.22225 0.0502177 -9.19475e-21)
(1.2107 0.0446045 0)
(0.064107 -0.00329455 0)
(0.319116 0.00208784 1.74501e-20)
(0.652533 0.0457879 3.19689e-20)
(0.967742 0.101493 -8.34323e-20)
(1.19842 0.146792 2.65707e-20)
(1.33433 0.174462 0)
(1.39717 0.186623 3.7069e-20)
(1.41516 0.18828 -5.09229e-20)
(1.41042 0.184001 -2.9016e-20)
(1.39627 0.176814 1.28973e-20)
(1.37926 0.16834 -2.01135e-20)
(1.36201 0.159341 4.84805e-20)
(1.34535 0.150156 2.38488e-20)
(1.32946 0.140947 -1.65198e-20)
(1.31431 0.131818 -1.64001e-21)
(1.29983 0.122852 -4.38247e-20)
(1.28597 0.114114 1.97566e-20)
(1.27268 0.105666 -4.43427e-22)
(1.2599 0.0975488 0)
(1.24758 0.0898217 -1.3073e-20)
(1.23569 0.082507 0)
(1.22416 0.0755449 2.86921e-20)
(1.21294 0.0690141 -3.37813e-20)
(1.20197 0.0636404 1.52175e-20)
(0.0998245 -0.00114337 -9.9954e-21)
(0.416468 0.02051 -4.4513e-20)
(0.778497 0.0839132 4.98895e-20)
(1.08067 0.149037 2.83781e-20)
(1.27668 0.19392 -1.34807e-20)
(1.37707 0.216849 2.13636e-20)
(1.41357 0.223766 -1.03384e-20)
(1.41568 0.221262 1.65358e-20)
(1.40277 0.214077 0)
(1.3849 0.204867 3.6003e-20)
(1.36629 0.194875 -1.52958e-21)
(1.34835 0.184637 -2.83184e-20)
(1.33139 0.17438 1.19685e-20)
(1.31539 0.164223 -1.33277e-20)
(1.30028 0.154253 -4.99113e-21)
(1.28593 0.144533 5.73977e-21)
(1.27228 0.13512 -4.38803e-21)
(1.25928 0.126048 -2.33845e-20)
(1.24689 0.11737 1.42377e-20)
(1.23507 0.109129 2.88425e-21)
(1.22377 0.101319 2.50867e-21)
(1.21292 0.0939103 2.18186e-21)
(1.20241 0.0870804 0)
(1.19209 0.0814303 0)
(0.139864 0.00519814 1.00075e-20)
(0.514556 0.0496627 -9.27691e-21)
(0.890856 0.132059 -1.66651e-20)
(1.17003 0.202473 0)
(1.33063 0.24383 -6.62777e-21)
(1.40038 0.260578 -5.74745e-21)
(1.41673 0.261876 -9.49454e-21)
(1.40791 0.255224 0)
(1.38991 0.245132 0)
(1.3699 0.23378 0)
(1.35045 0.222071 0)
(1.33219 0.210368 0)
(1.31516 0.198825 -7.53624e-21)
(1.29925 0.187522 3.40249e-21)
(1.28432 0.176521 5.82954e-21)
(1.27029 0.165873 2.69071e-21)
(1.25705 0.155617 6.60282e-21)
(1.24456 0.145782 0)
(1.23275 0.136407 -1.54724e-21)
(1.22154 0.127523 -1.44525e-21)
(1.21089 0.119095 -2.51261e-21)
(1.20071 0.11112 -2.18528e-21)
(1.19088 0.103924 0)
(1.18134 0.097828 1.52917e-21)
(-0.000772156 0.111688 7.19659e-21)
(0.000392955 0.271367 -6.79116e-21)
(-0.00178406 0.372171 -1.25327e-20)
(-0.0104099 0.426287 0)
(-0.0234942 0.452167 -1.62238e-20)
(-0.0382312 0.46545 5.01299e-21)
(-0.0523545 0.475004 -9.56753e-21)
(-0.0643286 0.483572 0)
(-0.0731126 0.490266 0)
(-0.0779066 0.492767 0)
(-0.07803 0.488551 0)
(-0.072929 0.475408 0)
(-0.0622565 0.451673 9.50438e-23)
(-0.0459291 0.416383 -7.18563e-21)
(-0.0240782 0.369351 1.44688e-20)
(0.00230119 0.311161 2.1111e-20)
(0.0322521 0.242897 6.99705e-21)
(0.0649773 0.166063 0)
(0.0989921 0.0820679 6.17612e-21)
(0.133072 -0.0078317 -1.7544e-20)
(0.166255 -0.103252 -1.10508e-20)
(0.200887 -0.203182 -1.02526e-20)
(0.230374 -0.310656 0)
(0.270539 -0.422737 0)
(-0.0056471 0.102391 -2.16313e-20)
(-0.00813879 0.260621 3.40459e-20)
(-0.00617372 0.368932 -1.27092e-20)
(-0.00721725 0.431865 -2.33842e-20)
(-0.0114306 0.463713 3.24682e-20)
(-0.016811 0.479118 -2.05383e-20)
(-0.0211869 0.487605 2.86058e-20)
(-0.0227903 0.492963 1.82564e-20)
(-0.0203495 0.495082 0)
(-0.012997 0.492082 -1.74631e-20)
(-0.000173357 0.481704 -1.35637e-21)
(0.0183983 0.462008 1.51077e-20)
(0.0426925 0.431668 2.29576e-20)
(0.0723633 0.390118 3.06661e-20)
(0.106799 0.337565 -1.31672e-20)
(0.144972 0.274742 -4.18145e-20)
(0.18568 0.203228 1.43268e-20)
(0.22761 0.124542 -5.23183e-20)
(0.269584 0.040162 0)
(0.31128 -0.0481818 1.17615e-20)
(0.349671 -0.141871 1.10313e-20)
(0.392264 -0.239423 1.02347e-20)
(0.423227 -0.346546 0)
(0.475725 -0.458225 0)
(-0.00921804 0.0883311 0)
(-0.0156292 0.238207 6.8482e-20)
(-0.0108868 0.350837 -2.53323e-20)
(-0.00508275 0.422346 2.35269e-20)
(-0.000423176 0.461323 -6.51258e-20)
(0.00397551 0.480076 0)
(0.00983563 0.488184 -3.88487e-20)
(0.0189056 0.490512 1.78255e-20)
(0.0325654 0.488081 -3.45742e-20)
(0.0517045 0.479811 1.64403e-20)
(0.0767503 0.463961 9.81739e-20)
(0.10772 0.438967 -4.57645e-20)
(0.144256 0.403836 -7.79281e-20)
(0.185659 0.358292 -3.21307e-20)
(0.230949 0.302778 -2.50149e-21)
(0.278898 0.238317 1.12655e-19)
(0.328005 0.16633 -5.35196e-20)
(0.377032 0.0888136 5.03633e-22)
(0.424628 0.00683682 0)
(0.47205 -0.0771063 -4.66083e-20)
(0.513643 -0.168198 0)
(0.565139 -0.261242 -4.1319e-20)
(0.599125 -0.367928 1.50934e-19)
(0.668126 -0.476346 -3.16028e-21)
(-0.0111042 0.0714678 0)
(-0.0212132 0.206546 -9.54086e-23)
(-0.0156478 0.318802 2.51094e-20)
(-0.00484453 0.397054 -2.32879e-20)
(0.00759261 0.443541 2.14668e-20)
(0.0212846 0.466967 1.2096e-19)
(0.0371268 0.475989 -3.77224e-20)
(0.0564889 0.476172 -3.55312e-20)
(0.0806403 0.46976 6.83339e-20)
(0.110418 0.456773 -1.00091e-19)
(0.146133 0.436255 3.02039e-20)
(0.187593 0.407168 3.01073e-20)
(0.234168 0.368873 0)
(0.284856 0.321325 2.93939e-20)
(0.338398 0.265111 0)
(0.393245 0.201332 5.33525e-20)
(0.447817 0.131258 -1.07074e-19)
(0.501656 0.0577125 2.31003e-20)
(0.552999 -0.0208635 9.55691e-20)
(0.605292 -0.100263 4.65574e-20)
(0.652693 -0.190909 0)
(0.716319 -0.281325 -1.19419e-19)
(0.759608 -0.390808 3.83138e-20)
(0.846641 -0.494655 0)
(-0.0113263 0.0540815 0)
(-0.0244527 0.169578 -8.15331e-20)
(-0.0201815 0.275817 -2.46561e-20)
(-0.00710558 0.357038 -4.60717e-20)
(0.0108562 0.409828 4.26835e-20)
(0.0322944 0.438604 -4.00359e-20)
(0.0570724 0.450048 7.49659e-20)
(0.0858189 0.449647 3.68338e-20)
(0.119374 0.440556 -9.96144e-20)
(0.158343 0.423932 6.46536e-20)
(0.202866 0.399788 -9.24914e-20)
(0.252569 0.367781 2.05704e-19)
(0.306596 0.327715 -1.11976e-19)
(0.363753 0.279833 5.39148e-20)
(0.42254 0.224662 1.61775e-19)
(0.481511 0.16368 -4.95465e-20)
(0.5399 0.0976506 -4.55503e-20)
(0.597685 0.0290306 -4.81246e-20)
(0.654849 -0.0468802 0)
(0.716872 -0.12339 -8.70637e-20)
(0.779662 -0.215994 -8.07537e-20)
(0.861094 -0.303943 1.14983e-19)
(0.921222 -0.414562 1.35951e-19)
(1.0207 -0.504942 -1.24217e-19)
(-0.010306 0.0382482 0)
(-0.0255441 0.131926 -1.07262e-19)
(-0.0243523 0.226758 7.89972e-22)
(-0.0120197 0.305665 9.12957e-20)
(0.00834649 0.361476 0)
(0.0348921 0.394637 0)
(0.0665754 0.409229 0)
(0.103107 0.409812 -3.50912e-20)
(0.144608 0.399809 -1.27899e-21)
(0.19119 0.381203 6.02092e-20)
(0.242665 0.354919 -9.1572e-20)
(0.298426 0.321376 -1.84978e-21)
(0.357482 0.280924 0)
(0.418635 0.233932 -5.38936e-20)
(0.480813 0.181295 5.10934e-20)
(0.543926 0.12433 -1.43843e-19)
(0.608308 0.0620459 1.90489e-19)
(0.675966 -0.00382056 4.71852e-20)
(0.749445 -0.07935 2.83363e-21)
(0.832308 -0.155737 -1.62143e-19)
(0.920322 -0.249846 -7.30159e-20)
(1.01839 -0.332086 2.39775e-19)
(1.09186 -0.436387 -1.54663e-19)
(1.18113 -0.502867 0)
(-0.00877558 0.0254718 5.63093e-20)
(-0.0253981 0.0978555 5.35836e-20)
(-0.0284235 0.177412 -4.86277e-20)
(-0.0193873 0.248464 -8.93384e-20)
(0.000136465 0.302419 8.2766e-20)
(0.0285035 0.336946 -7.57934e-20)
(0.0641649 0.35365 1.04944e-19)
(0.106022 0.35567 -3.47494e-20)
(0.153377 0.346059 6.10763e-20)
(0.205684 0.327118 0)
(0.262336 0.300388 5.55371e-20)
(0.322657 0.266903 -1.01602e-19)
(0.385789 0.227334 1.04168e-19)
(0.451743 0.182686 -9.69596e-20)
(0.521441 0.133236 0)
(0.596313 0.0789036 9.24743e-20)
(0.678689 0.0180854 1.77493e-19)
(0.771052 -0.0474744 -1.67993e-19)
(0.87313 -0.122635 -7.78927e-20)
(0.98221 -0.197051 -7.814e-20)
(1.08891 -0.284308 2.137e-19)
(1.18646 -0.352513 5.72447e-20)
(1.25118 -0.437802 -5.60791e-20)
(1.3012 -0.473533 4.55518e-20)
(-0.00764455 0.016574 -5.63236e-20)
(-0.0255018 0.0704272 1.57444e-19)
(-0.033213 0.133034 -4.85063e-20)
(-0.0289755 0.191856 8.80994e-20)
(-0.0127246 0.238855 -8.16192e-20)
(0.0145122 0.270456 -2.86418e-22)
(0.0511266 0.286518 3.40008e-20)
(0.0955498 0.288814 1.24951e-19)
(0.146512 0.279709 9.9823e-22)
(0.203088 0.2614 -5.57727e-20)
(0.26475 0.235643 0)
(0.331599 0.203704 -5.05537e-20)
(0.404836 0.166506 9.51366e-20)
(0.486096 0.124381 9.5223e-20)
(0.577516 0.0767545 -4.45332e-20)
(0.680993 0.0235388 -2.42525e-21)
(0.796176 -0.0355623 -4.31634e-20)
(0.920043 -0.0986836 7.68638e-20)
(1.04501 -0.167094 7.78991e-20)
(1.16262 -0.231635 -7.26415e-20)
(1.25885 -0.300968 6.00376e-20)
(1.32757 -0.348568 -5.34509e-20)
(1.35523 -0.408168 0)
(1.35429 -0.418066 -4.55909e-20)
(-0.00785018 0.0117904 5.53091e-20)
(-0.0275166 0.0511808 -5.24778e-20)
(-0.0398026 0.0972375 4.78107e-20)
(-0.0405245 0.141477 0)
(-0.0283606 0.177688 0)
(-0.00362076 0.202367 7.18254e-20)
(0.0324657 0.214581 -6.74641e-20)
(0.0785249 0.215185 6.08904e-20)
(0.133631 0.205869 -2.86454e-19)
(0.197686 0.188451 -8.99195e-22)
(0.27161 0.164426 5.02178e-20)
(0.357193 0.134752 0)
(0.456494 0.0999362 -9.45034e-20)
(0.57072 0.0599232 1.78962e-19)
(0.698879 0.0151852 -1.28888e-19)
(0.837036 -0.0339574 -2.09552e-19)
(0.978299 -0.0860358 -2.45001e-21)
(1.11306 -0.139761 1.4167e-19)
(1.23036 -0.193192 0)
(1.32108 -0.241372 0)
(1.37549 -0.288326 -6.00665e-20)
(1.39669 -0.316361 5.34801e-20)
(1.38088 -0.354853 -1.68606e-19)
(1.34849 -0.351749 1.57218e-19)
(-0.0101219 0.0108808 0)
(-0.0325554 0.040241 0)
(-0.0485436 0.0716873 -1.4272e-19)
(-0.0527023 0.101186 4.48099e-20)
(-0.0429311 0.124957 1.28324e-21)
(-0.0187051 0.14043 7.29203e-20)
(0.0198401 0.146661 0)
(0.0726911 0.144068 -6.09116e-20)
(0.140596 0.133745 5.68672e-20)
(0.225065 0.116904 -1.05591e-19)
(0.327728 0.094573 -1.12571e-21)
(0.449194 0.0674963 9.58275e-20)
(0.587757 0.0362788 2.48876e-21)
(0.738686 0.00145984 8.98647e-20)
(0.894288 -0.0360286 -1.2268e-19)
(1.04458 -0.0756123 0)
(1.17904 -0.115342 1.46796e-19)
(1.28728 -0.155071 -2.08044e-19)
(1.36281 -0.191291 5.95608e-20)
(1.40225 -0.224206 0)
(1.40858 -0.252613 4.78547e-20)
(1.39229 -0.270263 1.73244e-19)
(1.35799 -0.297281 -1.61794e-19)
(1.32515 -0.292085 -1.60659e-19)
(-0.0145995 0.0130572 1.63989e-19)
(-0.0402824 0.0364833 -2.07104e-19)
(-0.0576538 0.0562582 8.17766e-22)
(-0.0612944 0.072743 4.41373e-20)
(-0.0484551 0.0847137 -7.99909e-20)
(-0.0173497 0.0908731 -7.26919e-20)
(0.0337158 0.0907065 1.32115e-19)
(0.106655 0.0844382 -1.2513e-21)
(0.203204 0.0727963 -1.13001e-19)
(0.323918 0.0567186 2.11239e-19)
(0.466782 0.0371048 1.50731e-21)
(0.626367 0.0146989 -9.2701e-20)
(0.793967 -0.00986292 0)
(0.958674 -0.0360522 0)
(1.10891 -0.0633173 -4.04277e-20)
(1.23427 -0.0912349 -7.16472e-20)
(1.32727 -0.118638 -1.35509e-19)
(1.38448 -0.145679 1.26337e-19)
(1.40867 -0.169205 -5.96299e-20)
(1.40562 -0.192631 9.93508e-20)
(1.38735 -0.209975 -5.25279e-20)
(1.36161 -0.227101 7.32091e-20)
(1.33396 -0.246427 -1.78544e-19)
(1.30987 -0.243924 3.21959e-20)
(-0.0204959 0.0168908 5.48641e-20)
(-0.0485542 0.0375348 0)
(-0.0630546 0.0490247 9.54458e-20)
(-0.0593876 0.0554597 -8.83789e-20)
(-0.0341856 0.0579048 8.00969e-20)
(0.0158426 0.0563105 0)
(0.0937381 0.050645 0)
(0.201392 0.041403 -6.18206e-20)
(0.338048 0.0294587 2.15479e-22)
(0.498745 0.0156736 5.3214e-20)
(0.674189 0.000712361 -5.0038e-20)
(0.851986 -0.0150502 9.25937e-20)
(1.01876 -0.0315317 0)
(1.16246 -0.0488042 1.62393e-19)
(1.27428 -0.0669104 -3.0131e-19)
(1.3502 -0.0856457 2.11571e-19)
(1.39144 -0.104526 1.25123e-19)
(1.40419 -0.123229 -1.16662e-19)
(1.39776 -0.1403 0)
(1.38074 -0.158415 0)
(1.36119 -0.170686 0)
(1.33824 -0.190139 0)
(1.31678 -0.197728 3.33969e-20)
(1.2931 -0.206127 -1.06812e-19)
(0.304767 -0.553564 -5.06365e-21)
(0.344016 -0.693563 5.09767e-21)
(0.382008 -0.799131 -1.28198e-22)
(0.412239 -0.857876 0)
(0.434824 -0.86887 -2.44951e-21)
(0.451675 -0.841227 4.44443e-21)
(0.451556 -0.805909 -1.65397e-22)
(0.421448 -0.794463 -1.78752e-21)
(0.374999 -0.795523 0)
(0.349994 -0.752497 0)
(0.374592 -0.615492 -1.15324e-22)
(0.44138 -0.387604 -1.26959e-22)
(0.523372 -0.106176 -2.39392e-21)
(0.603362 0.188021 2.19518e-21)
(0.673182 0.444064 0)
(0.727529 0.614263 0)
(0.766795 0.689486 1.0714e-21)
(0.788499 0.703238 -1.85851e-22)
(0.79532 0.687492 -7.83913e-22)
(0.80029 0.656434 -4.15868e-23)
(0.801756 0.641487 0)
(0.785093 0.676337 0)
(0.748519 0.730058 0)
(0.710269 0.709861 0)
(0.692067 0.543634 0)
(0.697159 0.249386 0)
(0.720879 -0.0849967 4.44415e-22)
(0.75152 -0.360579 -7.38559e-22)
(0.778229 -0.524018 0)
(0.802461 -0.577848 0)
(0.823199 -0.58128 -2.20779e-22)
(0.820528 -0.594372 2.14526e-22)
(0.781455 -0.616884 8.72621e-23)
(0.715045 -0.607394 0)
(0.649002 -0.510221 0)
(0.611314 -0.311696 2.82118e-22)
(0.608483 -0.0426121 -2.74199e-22)
(0.634265 0.19784 0)
(0.685836 0.360808 1.67819e-22)
(0.727648 0.441534 -2.31848e-22)
(0.716999 0.50385 5.92947e-23)
(0.669851 0.519108 0)
(0.609996 0.457211 -1.33217e-22)
(0.587819 0.288953 1.29534e-22)
(0.599702 0.0748734 0)
(0.659925 -0.105745 0)
(0.698007 -0.250719 -4.36475e-23)
(0.694242 -0.321825 1.24286e-22)
(0.674108 -0.389845 0)
(0.674982 -0.357076 0)
(0.685312 -0.315553 -2.34659e-23)
(0.740776 -0.145649 4.22379e-24)
(0.737652 0.097601 -9.53422e-25)
(0.727078 0.353844 1.59766e-23)
(0.695418 0.494217 0)
(0.709217 0.288926 0)
(0.713535 0.041176 0)
(0.680884 -0.258709 0)
(0.686739 -0.304322 0)
(0.630114 -0.0765864 0)
(0.50488 -0.591249 -5.33817e-22)
(0.536069 -0.734366 -1.86905e-20)
(0.560804 -0.835865 2.88365e-21)
(0.56837 -0.88593 1.47393e-20)
(0.559067 -0.890476 1.67236e-22)
(0.543915 -0.854124 0)
(0.526604 -0.793367 -6.8949e-21)
(0.491279 -0.749555 1.32354e-20)
(0.429962 -0.741765 -6.33637e-21)
(0.367499 -0.72683 6.71148e-21)
(0.341628 -0.636093 -6.40201e-21)
(0.36538 -0.442268 7.84031e-21)
(0.424004 -0.175 -7.56535e-21)
(0.498375 0.115988 -2.22746e-22)
(0.574024 0.377135 -6.3211e-21)
(0.643384 0.560361 6.1387e-21)
(0.701617 0.654816 -3.96953e-21)
(0.741344 0.68663 3.7531e-21)
(0.76588 0.680166 -2.84392e-21)
(0.786635 0.653117 5.42e-21)
(0.800773 0.645193 -2.58474e-21)
(0.795889 0.690455 -1.74744e-22)
(0.773159 0.75161 -3.76203e-21)
(0.750832 0.731321 8.31417e-21)
(0.747153 0.557163 -4.52647e-21)
(0.76128 0.250215 3.60527e-22)
(0.786702 -0.0954039 5.39618e-21)
(0.812569 -0.376702 -6.87139e-22)
(0.82917 -0.540061 -7.29938e-21)
(0.837583 -0.590122 5.40038e-21)
(0.842696 -0.584276 -2.25177e-21)
(0.828627 -0.582951 1.88177e-22)
(0.781251 -0.591849 -8.74431e-23)
(0.70677 -0.576796 1.59116e-22)
(0.631235 -0.486333 0)
(0.587061 -0.302986 0)
(0.583343 -0.0508372 -8.93984e-22)
(0.61744 0.17705 6.83043e-22)
(0.675931 0.340189 4.4473e-22)
(0.722087 0.434399 -5.717e-24)
(0.713149 0.513051 -5.48116e-22)
(0.673117 0.536953 1.24009e-22)
(0.615393 0.47319 0)
(0.593391 0.293385 0)
(0.601686 0.0645063 0)
(0.664473 -0.12136 0)
(0.709825 -0.257473 2.22348e-22)
(0.707198 -0.319205 -8.19172e-23)
(0.689396 -0.38709 0)
(0.687678 -0.359264 0)
(0.697693 -0.323618 0)
(0.743891 -0.151723 -3.1096e-23)
(0.734779 0.0985825 7.78061e-24)
(0.72617 0.358185 -3.49048e-23)
(0.697784 0.495566 0)
(0.71387 0.2883 0)
(0.716123 0.0437158 1.91534e-23)
(0.679015 -0.255391 5.22786e-23)
(0.686125 -0.300286 0)
(0.632923 -0.0713118 0)
(0.692358 -0.607422 -3.8793e-21)
(0.716009 -0.746138 -4.22418e-20)
(0.729228 -0.838106 3.10797e-20)
(0.719214 -0.874529 -2.9066e-20)
(0.687038 -0.868428 -1.68421e-22)
(0.642115 -0.834852 0)
(0.59918 -0.774461 -1.32165e-20)
(0.554963 -0.709225 1.29025e-20)
(0.489298 -0.679716 9.09691e-23)
(0.406014 -0.675714 1.5104e-22)
(0.339824 -0.628492 1.56972e-22)
(0.3202 -0.481603 2.16735e-22)
(0.347119 -0.242814 -1.33851e-20)
(0.406994 0.0360267 1.32223e-20)
(0.484187 0.296588 0)
(0.565636 0.491184 2.75843e-22)
(0.639628 0.605466 -7.05675e-21)
(0.69591 0.656808 6.95558e-21)
(0.737878 0.662126 0)
(0.774442 0.641385 0)
(0.802123 0.640254 -5.53788e-21)
(0.810443 0.694568 1.17905e-20)
(0.802591 0.763856 -1.3699e-20)
(0.795973 0.747096 -1.87161e-21)
(0.806655 0.571411 2.02363e-20)
(0.83001 0.259813 -2.31296e-20)
(0.85632 -0.0918818 2.16552e-20)
(0.876285 -0.378336 -2.34342e-21)
(0.882825 -0.543535 -8.59954e-21)
(0.876335 -0.593094 0)
(0.866104 -0.58196 0)
(0.841763 -0.56854 1.00179e-21)
(0.788507 -0.564867 -1.33226e-21)
(0.707866 -0.545786 -2.52702e-23)
(0.623555 -0.464097 1.46433e-21)
(0.573252 -0.297861 -1.42291e-21)
(0.568296 -0.0634896 0)
(0.60912 0.15211 1.8663e-22)
(0.671754 0.317095 1.17851e-21)
(0.721637 0.426119 -2.14543e-21)
(0.715967 0.521559 9.02841e-22)
(0.684112 0.554873 1.33851e-22)
(0.629674 0.490665 -1.72175e-21)
(0.609013 0.301182 1.35221e-21)
(0.612072 0.0572298 3.89397e-22)
(0.673376 -0.136492 3.25239e-22)
(0.725307 -0.264788 -2.22937e-22)
(0.723941 -0.316509 0)
(0.706966 -0.384209 0)
(0.701129 -0.361393 -4.06291e-22)
(0.710662 -0.331108 1.87068e-22)
(0.748021 -0.157317 -1.06329e-22)
(0.734278 0.0992818 1.59289e-22)
(0.727559 0.361157 2.28674e-22)
(0.702696 0.496758 -6.00246e-23)
(0.720636 0.288306 1.33859e-22)
(0.721653 0.0474311 -1.15774e-22)
(0.679893 -0.251227 7.14506e-23)
(0.687883 -0.297122 0)
(0.637787 -0.0665686 0)
(0.864454 -0.621279 -8.29612e-20)
(0.878914 -0.747381 1.04233e-20)
(0.877075 -0.824726 6.84271e-20)
(0.845415 -0.848996 -4.1459e-22)
(0.794541 -0.829329 0)
(0.731831 -0.79057 0)
(0.667351 -0.740206 -2.44369e-20)
(0.613101 -0.672287 2.77321e-21)
(0.552101 -0.617733 2.93676e-20)
(0.465474 -0.603158 -1.74359e-22)
(0.372441 -0.587064 -8.85018e-21)
(0.312316 -0.495628 -9.87059e-21)
(0.303801 -0.303009 9.83349e-21)
(0.341824 -0.0485446 0)
(0.412431 0.204709 -8.92885e-21)
(0.498234 0.408029 8.17103e-21)
(0.581957 0.541547 0)
(0.651811 0.6129 0)
(0.709654 0.63161 4.51684e-21)
(0.761099 0.618508 1.78808e-22)
(0.802433 0.623051 -4.28065e-21)
(0.824718 0.683964 -6.10421e-21)
(0.831764 0.761834 6.1451e-21)
(0.840261 0.754437 -9.67686e-21)
(0.864628 0.586899 -1.72061e-21)
(0.897099 0.277999 1.08657e-20)
(0.926097 -0.0783634 1.44529e-21)
(0.941644 -0.371124 1.8614e-24)
(0.93895 -0.539125 0)
(0.918712 -0.588789 4.7348e-21)
(0.893365 -0.574958 -4.83655e-21)
(0.858887 -0.55293 1.81772e-22)
(0.801271 -0.537347 0)
(0.717427 -0.513029 -1.35624e-22)
(0.625748 -0.440909 2.3475e-21)
(0.569419 -0.294738 -4.52495e-21)
(0.562531 -0.0801635 -1.88108e-22)
(0.607853 0.123821 2.84194e-22)
(0.672586 0.291905 1.75044e-21)
(0.726462 0.414794 2.18106e-22)
(0.724695 0.526055 -1.93316e-21)
(0.701008 0.570848 1.61874e-21)
(0.652262 0.509145 -2.59898e-23)
(0.635308 0.312471 1.69114e-21)
(0.632596 0.0539893 -2.03478e-21)
(0.687581 -0.150765 -2.28081e-21)
(0.744208 -0.273115 6.54283e-22)
(0.744201 -0.31381 6.91297e-22)
(0.726659 -0.38062 -1.18569e-21)
(0.715406 -0.362965 7.14017e-22)
(0.724152 -0.337898 -1.04816e-22)
(0.753225 -0.162686 1.60162e-22)
(0.736106 0.0994123 7.98362e-23)
(0.731 0.362766 -3.11885e-22)
(0.709982 0.497878 -1.57834e-23)
(0.729482 0.288896 -1.75682e-22)
(0.730125 0.0520332 0)
(0.683584 -0.246296 -6.03696e-23)
(0.691864 -0.294668 2.23668e-23)
(0.644535 -0.0622909 0)
(1.02721 -0.617545 7.72144e-20)
(1.02543 -0.719351 -1.4145e-19)
(1.00455 -0.77477 6.37531e-20)
(0.950067 -0.790865 4.42473e-20)
(0.878839 -0.771797 -7.82924e-20)
(0.806015 -0.731507 6.4848e-21)
(0.730157 -0.689685 2.71579e-20)
(0.661963 -0.636843 1.83093e-20)
(0.605181 -0.572878 -1.79154e-20)
(0.532621 -0.534478 0)
(0.434426 -0.524065 -1.39407e-20)
(0.343741 -0.479987 2.80814e-20)
(0.29832 -0.345446 -1.4199e-20)
(0.307999 -0.130184 0)
(0.363437 0.106721 0)
(0.445109 0.314447 2.23205e-22)
(0.531832 0.465316 -9.31202e-21)
(0.610842 0.556541 9.04044e-21)
(0.681659 0.590257 0)
(0.746312 0.586145 7.97189e-21)
(0.799856 0.595491 -1.64452e-20)
(0.834412 0.660997 1.94367e-20)
(0.855905 0.746902 -2.46412e-20)
(0.880621 0.751995 -4.32186e-21)
(0.917759 0.60051 3.91273e-20)
(0.957764 0.303703 -2.14268e-20)
(0.991185 -0.0519428 -7.24855e-22)
(1.0053 -0.350699 -8.38019e-21)
(0.995022 -0.523804 2.07151e-21)
(0.962845 -0.575922 6.48632e-21)
(0.923372 -0.561942 2.40255e-22)
(0.879739 -0.535225 -2.35667e-21)
(0.819366 -0.511016 4.10854e-21)
(0.735013 -0.481241 -1.94944e-21)
(0.637641 -0.417582 0)
(0.574584 -0.292588 -2.21507e-21)
(0.564307 -0.0998866 2.16162e-21)
(0.612201 0.0921208 -1.37888e-21)
(0.677528 0.262965 1.71324e-21)
(0.73545 0.400158 -1.50374e-22)
(0.738847 0.528261 0)
(0.724807 0.584599 -2.65515e-22)
(0.683911 0.52692 1.12189e-21)
(0.672273 0.326877 0)
(0.664057 0.0557953 4.43716e-21)
(0.707712 -0.162633 -1.81984e-21)
(0.766135 -0.281928 5.38459e-22)
(0.767703 -0.310913 4.13472e-22)
(0.748381 -0.375905 0)
(0.7305 -0.363761 0)
(0.738081 -0.344032 -3.45365e-22)
(0.759433 -0.168067 3.97521e-22)
(0.740134 0.098749 -1.86638e-22)
(0.736396 0.36284 2.05629e-23)
(0.719514 0.498715 2.1045e-22)
(0.740269 0.289941 1.75872e-22)
(0.741454 0.0574962 -3.59502e-22)
(0.69017 -0.240516 0)
(0.697948 -0.292783 -5.72556e-23)
(0.653005 -0.058443 1.31789e-23)
(1.16599 -0.596908 7.01371e-20)
(1.14066 -0.673359 -6.93819e-20)
(1.09981 -0.708096 4.51577e-22)
(1.03142 -0.71403 -3.36546e-22)
(0.948178 -0.700331 2.95271e-22)
(0.868364 -0.668102 -2.33571e-22)
(0.792618 -0.630238 3.4203e-22)
(0.716486 -0.591927 0)
(0.652208 -0.537308 -2.11954e-22)
(0.593455 -0.480495 1.6917e-22)
(0.511805 -0.453547 1.39579e-22)
(0.410673 -0.434529 -1.85692e-22)
(0.331662 -0.358507 0)
(0.306344 -0.196866 0)
(0.33745 0.0131525 1.19017e-22)
(0.406225 0.215921 0)
(0.489423 0.378895 -8.63245e-23)
(0.573606 0.487926 0)
(0.654905 0.537398 -5.35531e-21)
(0.73098 0.543824 1.12764e-20)
(0.794748 0.557869 -1.3252e-20)
(0.839531 0.625558 7.23749e-21)
(0.87336 0.718178 1.21775e-20)
(0.911103 0.739502 -1.18202e-20)
(0.958857 0.610698 -2.0193e-20)
(1.00728 0.333024 1.97158e-20)
(1.04807 -0.0153963 0)
(1.06464 -0.320127 5.90092e-22)
(1.04946 -0.500278 0)
(1.00798 -0.556566 0)
(0.955759 -0.544207 5.81898e-21)
(0.90284 -0.515674 -6.07975e-21)
(0.840524 -0.485675 2.04402e-22)
(0.758819 -0.450236 1.8444e-22)
(0.658501 -0.392964 -1.33678e-22)
(0.587834 -0.289619 -1.43342e-21)
(0.571777 -0.121189 1.39167e-21)
(0.620316 0.0578157 -1.31579e-21)
(0.685487 0.231049 1.10313e-21)
(0.748034 0.380561 2.67006e-22)
(0.757036 0.523009 -1.79353e-21)
(0.752021 0.59376 -1.1794e-21)
(0.720842 0.544689 1.82327e-21)
(0.717132 0.344878 0)
(0.705699 0.0637703 -2.04362e-21)
(0.734461 -0.170646 2.13366e-21)
(0.790692 -0.290945 -2.86285e-21)
(0.79393 -0.307898 -4.16237e-22)
(0.77203 -0.369671 0)
(0.746415 -0.363436 1.27244e-22)
(0.752368 -0.349423 -3.15759e-22)
(0.766537 -0.173701 -2.06696e-23)
(0.7461 0.0970019 -1.15355e-23)
(0.743433 0.361435 1.6829e-22)
(0.730931 0.499436 -1.95687e-22)
(0.752819 0.291463 0)
(0.755473 0.0637791 3.59715e-22)
(0.699632 -0.233822 0)
(0.706027 -0.291285 0)
(0.663045 -0.0549846 -1.00328e-23)
(1.25933 -0.547585 -6.30439e-20)
(1.21063 -0.60065 6.19349e-20)
(1.15341 -0.624652 -3.71224e-22)
(1.07902 -0.629377 3.45034e-22)
(0.997923 -0.621496 0)
(0.918735 -0.602928 0)