/*--------------------------------*- C++ -*----------------------------------*\
| =========                 |                                                 |
| \\      /  F ield         | OpenFOAM: The Open Source CFD Toolbox           |
|  \\    /   O peration     | Version:  2312                                  |
|   \\  /    A nd           | Website:  www.openfoam.com                      |
|    \\/     M anipulation  |                                                 |
\*---------------------------------------------------------------------------*/
FoamFile
{
    version     2.0;
    format      ascii;
    arch        "LSB;label=32;scalar=64";
    class       volScalarField;
    location    "70";
    object      p;
}
// * * * * * * * * * * * * * * * * * * * * * * * * * * * * * * * * * * * * * //

dimensions      [0 2 -2 0 0 0 0];

internalField   nonuniform List<scalar> 
5478
(
-0.489037
-0.488439
-0.488995
-0.490118
-0.489771
-0.484475
-0.470904
-0.447395
-0.414728
-0.375707
-0.333774
-0.291806
-0.25201
-0.214989
-0.180822
-0.497137
-0.494265
-0.491957
-0.489462
-0.48426
-0.473002
-0.453668
-0.42629
-0.39282
-0.356008
-0.318445
-0.281939
-0.247715
-0.215694
-0.186418
-0.506605
-0.50151
-0.496251
-0.48933
-0.477882
-0.459793
-0.434931
-0.40479
-0.371557
-0.337377
-0.303723
-0.271584
-0.24134
-0.213172
-0.187178
-0.519653
-0.512051
-0.503135
-0.490408
-0.471276
-0.446022
-0.416469
-0.384617
-0.352138
-0.320158
-0.289393
-0.260241
-0.232907
-0.207499
-0.184014
-0.537375
-0.525854
-0.512482
-0.492018
-0.464189
-0.432283
-0.399063
-0.366086
-0.334147
-0.303672
-0.274868
-0.24785
-0.22257
-0.199161
-0.177297
-0.559354
-0.542161
-0.522355
-0.492247
-0.455637
-0.417983
-0.381792
-0.347781
-0.316054
-0.28654
-0.259156
-0.233775
-0.210303
-0.188636
-0.168222
-0.58212
-0.55924
-0.529256
-0.48816
-0.443583
-0.401205
-0.362587
-0.327686
-0.29606
-0.267316
-0.241128
-0.21725
-0.195438
-0.17552
-0.156908
-0.599769
-0.572254
-0.529327
-0.476987
-0.425679
-0.37961
-0.339229
-0.303791
-0.272455
-0.244562
-0.219612
-0.197233
-0.177178
-0.15918
-0.142736
-0.430567
-0.432228
-0.433393
-0.437081
-0.443703
-0.453306
-0.46594
-0.481485
-0.499544
-0.51938
-0.539828
-0.559093
-0.574578
-0.583254
-0.581883
-0.427083
-0.430214
-0.43217
-0.435951
-0.441737
-0.44902
-0.457139
-0.465204
-0.472145
-0.476942
-0.47871
-0.476409
-0.468864
-0.455739
-0.436596
-0.427554
-0.431815
-0.434724
-0.438988
-0.444484
-0.45015
-0.454583
-0.456022
-0.452567
-0.442726
-0.425729
-0.401028
-0.368371
-0.329985
-0.283253
-0.432895
-0.437851
-0.441712
-0.44676
-0.452548
-0.457521
-0.459573
-0.456133
-0.444564
-0.422974
-0.390949
-0.349609
-0.295756
-0.243492
-0.17264
-0.442694
-0.447775
-0.452349
-0.458315
-0.46477
-0.469713
-0.470364
-0.463443
-0.445922
-0.415796
-0.3721
-0.323782
-0.255081
-0.201536
-0.125979
-0.455404
-0.460187
-0.4654
-0.471807
-0.47851
-0.483138
-0.482323
-0.472259
-0.449787
-0.41381
-0.365431
-0.310717
-0.24647
-0.190228
-0.133083
-0.468439
-0.471962
-0.476587
-0.482585
-0.488553
-0.49151
-0.487726
-0.473645
-0.446988
-0.407695
-0.359315
-0.305712
-0.250683
-0.199691
-0.154421
-0.479854
-0.481431
-0.484434
-0.488544
-0.491928
-0.491448
-0.483238
-0.464442
-0.434139
-0.394113
-0.348282
-0.300185
-0.253829
-0.210895
-0.173176
-0.560886
-0.475981
-0.359082
-0.28248
-0.263703
-0.288347
-0.295925
-0.227943
-0.164981
-0.141546
-0.125176
-0.113898
-0.116611
-0.142749
-0.156865
-0.137312
-0.103055
-0.0985346
-0.121402
-0.123848
-0.0940869
-0.074329
-0.0848523
-0.0912381
-0.0921697
-0.114182
-0.108648
-0.0456982
-0.00267104
7.88689e-05
-0.013958
-0.0378214
-0.0574355
-0.056828
-0.0381982
-0.0169043
-0.00412319
0.00129088
-0.408361
-0.361445
-0.290196
-0.262045
-0.28399
-0.337187
-0.341825
-0.25828
-0.176367
-0.141931
-0.123155
-0.107026
-0.106963
-0.139023
-0.153957
-0.132592
-0.0982987
-0.0923802
-0.117838
-0.12044
-0.0930391
-0.079863
-0.092545
-0.0995608
-0.0951501
-0.11341
-0.109041
-0.0483515
-0.0035075
-0.000420115
-0.0159128
-0.0416099
-0.0614375
-0.0594674
-0.0395863
-0.0173445
-0.00428976
0.00108955
-0.237522
-0.204892
-0.172733
-0.202324
-0.278155
-0.361347
-0.362057
-0.273418
-0.182357
-0.140547
-0.121509
-0.106017
-0.102634
-0.135246
-0.150319
-0.128153
-0.093317
-0.0859741
-0.113812
-0.116279
-0.0910459
-0.0831113
-0.0984042
-0.105593
-0.0963498
-0.110754
-0.107751
-0.0511159
-0.00483281
-0.000930829
-0.017695
-0.0451664
-0.0652524
-0.0620675
-0.0410193
-0.0179267
-0.00454462
0.000847842
-0.113085
-0.0697086
-0.047228
-0.118272
-0.248453
-0.353476
-0.356186
-0.272332
-0.18354
-0.137682
-0.118583
-0.107747
-0.103396
-0.127664
-0.147537
-0.123786
-0.0876381
-0.0784822
-0.0961987
-0.110982
-0.0884055
-0.0839149
-0.102147
-0.109008
-0.096064
-0.106716
-0.105023
-0.0537822
-0.00658464
-0.00145341
-0.019237
-0.048413
-0.0688179
-0.06458
-0.0424617
-0.0186248
-0.00487393
0.000594496
-0.0547808
0.0010295
0.0318258
-0.0400238
-0.193068
-0.313163
-0.326495
-0.256138
-0.179011
-0.133443
-0.113836
-0.107161
-0.107788
-0.135502
-0.147603
-0.119289
-0.0811571
-0.071699
-0.0907868
-0.105403
-0.0854645
-0.0824988
-0.10406
-0.109853
-0.0945788
-0.101912
-0.101347
-0.0561664
-0.00870774
-0.00184903
-0.0205744
-0.051429
-0.0721632
-0.0669708
-0.0438886
-0.0194004
-0.0052644
0.000353076
-0.0677904
-0.0142759
0.0512514
0.00859181
-0.136512
-0.249169
-0.278551
-0.228351
-0.167054
-0.127235
-0.10807
-0.10116
-0.112018
-0.141732
-0.149919
-0.117795
-0.0753351
-0.0654851
-0.0839172
-0.0989697
-0.0819291
-0.0794051
-0.104145
-0.108764
-0.0925279
-0.0970387
-0.0964643
-0.0581148
-0.0111577
-0.00233277
-0.0216156
-0.0539236
-0.0751202
-0.0691692
-0.0452917
-0.0202337
-0.00571221
0.000138319
-0.101885
-0.0464692
0.0305829
0.0246773
-0.0774847
-0.201518
-0.232756
-0.204617
-0.156584
-0.123291
-0.103498
-0.0902729
-0.112896
-0.144522
-0.1502
-0.113268
-0.0696598
-0.0604891
-0.0785468
-0.0922973
-0.0772542
-0.0747227
-0.103099
-0.105799
-0.0897166
-0.0927889
-0.0967322
-0.0602092
-0.0142498
-0.00250817
-0.0223797
-0.0562556
-0.0777937
-0.0712083
-0.0467075
-0.0211309
-0.00621503
-4.42523e-05
-0.13058
-0.0907993
-0.0322321
-0.000494844
-0.0397945
-0.123195
-0.168338
-0.163595
-0.13634
-0.113789
-0.0990595
-0.0785485
-0.103183
-0.141569
-0.15104
-0.114929
-0.0670995
-0.0558722
-0.0721144
-0.0831659
-0.0718486
-0.0685053
-0.100382
-0.103294
-0.0872649
-0.0894132
-0.0896323
-0.0600095
-0.0177637
-0.00315763
-0.0227902
-0.0576603
-0.0797922
-0.0729302
-0.0479187
-0.0219269
-0.00669428
-0.000184694
-0.131709
-0.104381
-0.0591755
-0.0241885
-0.0403604
-0.0963409
-0.125917
-0.128994
-0.110421
-0.0913236
-0.0809557
-0.0669153
-0.0871688
-0.122661
-0.133195
-0.108178
-0.0620126
-0.0514019
-0.0709119
-0.0782014
-0.0664655
-0.0625931
-0.0920635
-0.0968435
-0.0827986
-0.0860594
-0.0879739
-0.0593955
-0.0192214
-0.00232463
-0.0229505
-0.0597257
-0.082407
-0.0745593
-0.0486802
-0.0224856
-0.00714301
-0.000309232
-0.122463
-0.100479
-0.0687799
-0.0455708
-0.0468141
-0.0714201
-0.0897576
-0.0912392
-0.0787161
-0.0668221
-0.0587931
-0.0468353
-0.0642229
-0.101396
-0.117643
-0.0973803
-0.0544577
-0.0414122
-0.0578918
-0.0673842
-0.0562098
-0.0527029
-0.085572
-0.096464
-0.07862
-0.0791987
-0.0823486
-0.0595448
-0.0209057
-0.00622239
-0.0254754
-0.0622967
-0.0847161
-0.0754915
-0.0490793
-0.0229769
-0.0076345
-0.000462772
-0.104492
-0.0932843
-0.0742159
-0.0570546
-0.0505871
-0.0582552
-0.0668307
-0.0686522
-0.0616814
-0.0521184
-0.0435129
-0.0281715
-0.0238853
-0.0395945
-0.0585574
-0.0722951
-0.0518726
-0.0351939
-0.0462062
-0.0521653
-0.0450012
-0.0407203
-0.0732732
-0.0895022
-0.07011
-0.0697816
-0.0790337
-0.0604982
-0.0239714
-0.010603
-0.0287446
-0.0640717
-0.0855122
-0.075315
-0.0488926
-0.0232728
-0.00808506
-0.000626315
-0.0863951
-0.0831087
-0.0716125
-0.0590048
-0.0507073
-0.0496557
-0.0512544
-0.0490922
-0.0414175
-0.031661
-0.0216398
-0.00750626
0.00123307
0.00862906
-0.00141106
-0.0429213
-0.0516339
-0.0304445
-0.0286668
-0.0318933
-0.0293281
-0.0278022
-0.0594674
-0.0744224
-0.0540828
-0.0592349
-0.0754737
-0.0602899
-0.0280438
-0.0168222
-0.0320993
-0.0643143
-0.0842983
-0.0735142
-0.047744
-0.0232018
-0.00842156
-0.000800276
-0.0703764
-0.0704406
-0.0637737
-0.05449
-0.0472574
-0.042697
-0.0399926
-0.0371107
-0.0313496
-0.0232948
-0.0133835
0.00353662
0.0205203
0.0389303
0.0341931
-0.0127897
-0.0367061
-0.0229058
-0.0170958
-0.0146851
-0.0132941
-0.0114678
-0.0368268
-0.0454119
-0.0272513
-0.0447003
-0.0703951
-0.0582315
-0.0329124
-0.0243927
-0.0350629
-0.0623494
-0.0803784
-0.0697248
-0.0454755
-0.0226792
-0.00859872
-0.000979969
-0.0559803
-0.0578632
-0.0546574
-0.0483844
-0.0418142
-0.0364013
-0.032234
-0.0275966
-0.020798
-0.0120878
-0.00151352
0.0119743
0.0255772
0.0410684
0.0424295
0.00907022
-0.0146925
-0.0117615
-0.00319316
-4.64332e-05
0.00164515
-0.000686784
-0.0251822
-0.0234401
0.000186252
-0.0272965
-0.0595605
-0.0512699
-0.0371905
-0.0333797
-0.0373039
-0.0575585
-0.0732396
-0.0636358
-0.0419501
-0.0215979
-0.00854962
-0.00114037
-0.0435911
-0.0461919
-0.0448698
-0.0405182
-0.0353046
-0.0301052
-0.0252459
-0.0203854
-0.014591
-0.00783046
0.000226278
0.0112454
0.0232764
0.033839
0.0365131
0.0192616
0.00135683
-0.00266995
0.0017771
0.0069591
0.0111261
0.00584333
-0.0174704
-0.0124132
0.0141462
-0.0119562
-0.0429206
-0.0390663
-0.0383748
-0.0392224
-0.0369848
-0.0498184
-0.0632047
-0.0554963
-0.0372764
-0.0199534
-0.00824654
-0.00125804
-0.0331137
-0.0357095
-0.0353745
-0.032532
-0.0285987
-0.0241835
-0.0197284
-0.015342
-0.0101866
-0.00421409
0.0030842
0.0115311
0.0196865
0.0259747
0.0280254
0.0202847
0.00960652
0.00450892
0.0075641
0.0132603
0.0174776
0.0114064
-0.0100384
-0.007332
0.012543
-0.00132111
-0.0182687
-0.0224229
-0.0344151
-0.040049
-0.0328926
-0.0389438
-0.0502378
-0.0456137
-0.0317053
-0.0177967
-0.00769342
-0.00133189
-0.0243365
-0.0267062
-0.0268922
-0.0250889
-0.0221396
-0.0186042
-0.0148066
-0.0110089
-0.00670963
-0.00198323
0.00323847
0.00924436
0.0149772
0.0194886
0.021256
0.0181952
0.0127977
0.00935209
0.00975849
0.013888
0.0184673
0.0147345
-0.00068161
-0.00125966
0.00919714
0.00447828
-0.00497864
-0.0070586
-0.0246704
-0.0339079
-0.0248112
-0.0270046
-0.0371334
-0.0355297
-0.0257082
-0.0152028
-0.00690276
-0.00135408
-0.0171026
-0.0191434
-0.0195213
-0.0183454
-0.0162133
-0.0135733
-0.0106213
-0.00759626
-0.00428089
-0.000671063
0.00326911
0.00774157
0.0117203
0.0149268
0.0164754
0.0154578
0.01318
0.0117643
0.0123663
0.0143458
0.0179163
0.0156487
0.00556326
0.00278488
0.00758617
0.0070197
0.00340018
0.00346819
-0.0104379
-0.0179358
-0.0135203
-0.0167776
-0.0262914
-0.0265273
-0.0200068
-0.0125184
-0.00599043
-0.00133157
-0.0112364
-0.0128725
-0.0132828
-0.0126009
-0.01115
-0.00923697
-0.00701428
-0.00468359
-0.00220331
0.000492118
0.00332706
0.00645212
0.00926385
0.0115047
0.0130296
0.0130744
0.0123818
0.0119294
0.0115339
0.0126674
0.0151886
0.0139663
0.00808717
0.00519174
0.00723018
0.00803398
0.00726835
0.00733333
-0.000587373
-0.00607883
-0.00443166
-0.00981245
-0.0181221
-0.0192296
-0.014923
-0.00986651
-0.00493952
-0.00119843
-0.00639404
-0.00770645
-0.0081481
-0.00778527
-0.00682255
-0.00546815
-0.0038691
-0.00216414
-0.000394913
0.00150505
0.00351158
0.00567617
0.00774287
0.00941236
0.0106999
0.011212
0.0111877
0.0112505
0.0112512
0.0117174
0.0130521
0.0125554
0.00904572
0.00660628
0.00719474
0.0079607
0.00821003
0.00830041
0.00406791
-7.75723e-05
-0.000267034
-0.00562465
-0.0119674
-0.0127104
-0.0103883
-0.00728419
-0.00383617
-0.00103294
-0.00252301
-0.00358157
-0.00398978
-0.00380764
-0.0031943
-0.00229854
-0.00120932
-3.13207e-05
0.00120428
0.00251268
0.00390734
0.00538535
0.00685323
0.00808313
0.00910389
0.00976501
0.0100724
0.0103895
0.0104938
0.0106442
0.0111873
0.0109596
0.00899364
0.00720627
0.00712011
0.00754174
0.00779182
0.00733466
0.00453782
0.00175513
0.000764361
-0.00343633
-0.00777559
-0.00853636
-0.00705117
-0.0051873
-0.00287241
-0.000856211
0.000559477
-0.000251864
-0.000608758
-0.00056596
-0.000227352
0.000326677
0.00103676
0.00182651
0.0026498
0.00350568
0.00443621
0.0054344
0.00644945
0.00734368
0.00811445
0.00873941
0.00913168
0.00944979
0.00961828
0.00972422
0.00987575
0.00972517
0.00863515
0.00736518
0.00699714
0.00700692
0.00702518
0.006455
0.00445419
0.0025498
0.00110059
-0.00211988
-0.00485228
-0.00521868
-0.00432836
-0.00325198
-0.00186331
-0.000639853
0.00305177
0.00241712
0.00208947
0.00203726
0.00219329
0.00250625
0.00293638
0.00342413
0.00393659
0.00446081
0.00505237
0.00569809
0.00637303
0.00698889
0.00753571
0.00802904
0.00838618
0.0086822
0.00883119
0.00891539
0.00889051
0.00873217
0.00812266
0.00724009
0.00679385
0.0065162
0.00630398
0.00559113
0.00399375
0.00255609
0.000985801
-0.00115677
-0.00276446
-0.00294862
-0.00243099
-0.0017902
-0.001046
-0.000413948
0.00500966
0.00451048
0.00421998
0.0041135
0.00414587
0.00428454
0.00451041
0.00477755
0.00506538
0.00535725
0.00570143
0.0060894
0.00650674
0.00689941
0.00725255
0.00759802
0.00786055
0.00808615
0.00817298
0.00822853
0.00815477
0.00797362
0.00759127
0.00694521
0.00651236
0.00607514
0.00570833
0.00501156
0.00375258
0.00266609
0.00130279
-0.000244754
-0.00115694
-0.00123732
-0.00088677
-0.00054192
-0.000349293
-0.000273669
0.00655341
0.00616362
0.00590503
0.00576227
0.00570944
0.00572883
0.00581156
0.00592239
0.00605011
0.00617571
0.00634132
0.00653954
0.00676485
0.00697841
0.00717281
0.00737599
0.00752967
0.00766755
0.00769181
0.00770465
0.00759583
0.00740765
0.0071097
0.00662368
0.00623911
0.00577078
0.0053501
0.00469326
0.00367594
0.00281021
0.0016895
0.000594528
3.69122e-05
-6.47431e-05
0.000181759
0.000441399
0.000352422
-2.51773e-06
0.00774507
0.00743286
0.00720091
0.00703921
0.00693462
0.00687507
0.00686023
0.00686228
0.00687842
0.00689041
0.00693167
0.00699446
0.0070764
0.00715679
0.00722176
0.00730806
0.0073551
0.00740915
0.00737242
0.00733338
0.00720678
0.00700172
0.00674544
0.00632707
0.00599946
0.00555058
0.00511425
0.00453981
0.00370464
0.0030417
0.00215927
0.00134899
0.00101906
0.000901215
0.00100134
0.00108616
0.000745939
0.000111761
0.00867073
0.00841479
0.0082058
0.00803349
0.00789824
0.00778633
0.00770623
0.0076336
0.00757305
0.00750891
0.00746177
0.00743075
0.00740575
0.00738819
0.00735031
0.00734632
0.00730342
0.00727557
0.0071895
0.00709592
0.00695641
0.00673476
0.00650578
0.00615027
0.00585968
0.00548387
0.00506264
0.00458102
0.00389317
0.0033255
0.00268147
0.00203273
0.00172778
0.00158495
0.00159846
0.00157504
0.00119338
0.000366983
0.00935038
0.00913406
0.00894435
0.00876909
0.00861765
0.0084735
0.00835037
0.00822881
0.00811415
0.0080016
0.00789304
0.00780751
0.007709
0.0076349
0.00752905
0.00746
0.00735918
0.00726593
0.00715286
0.00699294
0.00685546
0.0066092
0.00640841
0.00610141
0.00580148
0.00550365
0.00506084
0.0046827
0.00413084
0.00361083
0.00317173
0.00252777
0.00217845
0.00198957
0.00176799
0.0015585
0.00127223
0.000504405
0.00982876
0.00964448
0.00946625
0.00929217
0.00912849
0.00897006
0.00882181
0.00867404
0.00852658
0.00837962
0.00823217
0.00809713
0.00795542
0.00782395
0.00767867
0.00754413
0.00739743
0.00724592
0.00708988
0.00690026
0.00671569
0.00648608
0.00626441
0.0059948
0.00569024
0.00538913
0.00498758
0.0045965
0.00410734
0.00360921
0.00314468
0.00271708
0.00237491
0.0020929
0.00178868
0.00146484
0.00109353
0.000399197
0.010145
0.00997927
0.00980914
0.00963717
0.00946688
0.00929901
0.00913424
0.00896956
0.00880299
0.00863561
0.00846766
0.00830449
0.00813953
0.00797722
0.00780974
0.00764198
0.00747112
0.00729078
0.00711129
0.00691072
0.00671363
0.00646604
0.00621739
0.00594659
0.00563927
0.00533568
0.00496131
0.00459754
0.00419122
0.00375463
0.00334663
0.00291155
0.0025367
0.00221572
0.00188973
0.00152701
0.00106875
0.000381365
0.0102993
0.0101447
0.00998046
0.00981037
0.00963721
0.00946509
0.00929372
0.00912258
0.00894859
0.00877215
0.00859349
0.0084152
0.00823718
0.00805781
0.00787678
0.00768949
0.007502
0.00730401
0.00710651
0.00689259
0.00667338
0.00643283
0.00617437
0.00590921
0.00560093
0.00529747
0.00493807
0.00457579
0.00418952
0.00377294
0.00338182
0.00296739
0.00259044
0.00222391
0.00186076
0.0014593
0.000991344
0.000350578
-0.122028
-0.132087
-0.14058
-0.147056
-0.151658
-0.151107
-0.147326
-0.139237
-0.0993346
-0.105516
-0.1103
-0.113828
-0.115574
-0.115861
-0.116303
-0.121331
-0.0789054
-0.0828641
-0.0855148
-0.0883829
-0.0903012
-0.0941245
-0.0974188
-0.10295
-0.0630463
-0.0657024
-0.067749
-0.0706082
-0.0730383
-0.0764379
-0.0781863
-0.0816771
-0.049746
-0.0517845
-0.0534044
-0.0554158
-0.056948
-0.0588863
-0.0605661
-0.0645652
-0.0389538
-0.0403041
-0.0413607
-0.0426042
-0.0437715
-0.0454647
-0.0474446
-0.0509557
-0.0298892
-0.030742
-0.0314268
-0.032284
-0.03326
-0.0346409
-0.0363272
-0.039201
-0.0223899
-0.0228924
-0.0233057
-0.0238727
-0.0246257
-0.0257005
-0.0271003
-0.0294448
-0.0161103
-0.0163936
-0.0166213
-0.0169884
-0.017549
-0.0183495
-0.0194548
-0.0213382
-0.010832
-0.0109934
-0.0111212
-0.0113506
-0.011731
-0.0123014
-0.0131756
-0.0146982
-0.00641018
-0.00651549
-0.00657785
-0.00669613
-0.00694758
-0.00739494
-0.00812715
-0.00935417
-0.00268325
-0.00276526
-0.00281069
-0.00290861
-0.0031302
-0.00349297
-0.00404725
-0.00496516
0.000390289
0.00029369
0.000227347
0.000139338
-1.33098e-05
-0.000259318
-0.000672224
-0.0013944
0.00293379
0.00282085
0.0027435
0.0026655
0.00254067
0.00233153
0.00198514
0.00141743
0.00501326
0.00487792
0.00477341
0.00467576
0.00455207
0.0043775
0.00411286
0.00369327
0.00667416
0.00652144
0.00639801
0.00629206
0.00617878
0.00603457
0.00582422
0.00550141
0.00799366
0.00783324
0.00769837
0.00758417
0.00747165
0.00734223
0.00716965
0.00692387
0.00902679
0.00886339
0.00872095
0.00859985
0.00848661
0.00836728
0.00822187
0.00803025
0.00981445
0.0096547
0.0095117
0.00938876
0.00927766
0.00916728
0.00904371
0.00889196
0.010408
0.0102533
0.0101105
0.00998498
0.0098732
0.00976644
0.00965543
0.00952871
0.010819
0.0106744
0.0105338
0.0104061
0.0102917
0.010187
0.0100843
0.00997675
0.0110712
0.0109464
0.0108182
0.010695
0.0105804
0.0104752
0.0103753
0.0102767
0.0111832
0.0110762
0.0109606
0.0108426
0.0107274
0.0106197
0.0105186
0.0104227
0.0423723
0.0449679
0.0469113
0.0480026
0.0476605
0.045696
0.0419304
0.0358359
0.0264773
0.0125042
-0.00796105
-0.0375579
-0.0806123
-0.140326
-0.194912
0.0179918
0.0179194
0.0158392
0.0124457
0.007786
0.00146521
-0.00707708
-0.0186076
-0.0341839
-0.0552563
-0.0838408
-0.122545
-0.175651
-0.247265
-0.307177
-0.00668153
-0.00943188
-0.0153009
-0.0226872
-0.0312759
-0.0416729
-0.0546787
-0.0711948
-0.0923556
-0.11968
-0.155331
-0.202078
-0.262968
-0.344776
-0.403192
-0.0323643
-0.0378946
-0.0468138
-0.0571823
-0.0689325
-0.0828661
-0.0998312
-0.120721
-0.146712
-0.179321
-0.220596
-0.274098
-0.341466
-0.425371
-0.481366
-0.0578959
-0.0663554
-0.0776401
-0.0902662
-0.1046
-0.121538
-0.141835
-0.166303
-0.196151
-0.233053
-0.278158
-0.336321
-0.407245
-0.488804
-0.540411
-0.0820141
-0.0934732
-0.106652
-0.121131
-0.137707
-0.157188
-0.180187
-0.207373
-0.239975
-0.279535
-0.327988
-0.387736
-0.458673
-0.535015
-0.580116
-0.104268
-0.118178
-0.132838
-0.149142
-0.167834
-0.189452
-0.214539
-0.243803
-0.278243
-0.319264
-0.368626
-0.427713
-0.495626
-0.563579
-0.6017
-0.125236
-0.139903
-0.156104
-0.17433
-0.194969
-0.218405
-0.245107
-0.275715
-0.311065
-0.352311
-0.400776
-0.4571
-0.518855
-0.575345
-0.607475
0.186921
0.201697
0.218195
0.236808
0.2576
0.280488
0.305391
0.33226
0.361017
0.391409
0.42286
0.454205
0.483456
0.506619
0.525714
0.182601
0.196456
0.212163
0.230092
0.250186
0.272269
0.296226
0.322004
0.349516
0.378488
0.408298
0.437723
0.464696
0.485251
0.501778
0.174131
0.186276
0.200548
0.21723
0.236009
0.256526
0.27859
0.30212
0.326988
0.352849
0.37899
0.404076
0.425863
0.440544
0.45144
0.161504
0.171355
0.183739
0.198665
0.21547
0.233609
0.252844
0.273067
0.294077
0.315399
0.336144
0.354789
0.368795
0.374504
0.377315
0.144818
0.152027
0.162307
0.175184
0.189509
0.204546
0.220054
0.235938
0.25194
0.267443
0.28134
0.291862
0.296108
0.290303
0.283085
0.12433
0.128584
0.136599
0.147178
0.158642
0.170122
0.181368
0.192257
0.202431
0.211116
0.217001
0.218073
0.211074
0.192048
0.172539
0.100642
0.102323
0.108265
0.116084
0.123942
0.131179
0.137648
0.143119
0.147017
0.148348
0.145584
0.13646
0.117398
0.0844037
0.0517741
0.073043
0.0734739
0.0782028
0.0831458
0.0869665
0.0895025
0.0907785
0.0904482
0.0877173
0.0813746
0.0696834
0.0501301
0.0187629
-0.0281539
-0.0731301
0.0259302
0.0303642
0.026811
0.0306646
0.0282313
0.0325927
0.0308422
0.0352678
0.0346863
0.0391842
0.0399962
0.0448463
0.0473923
0.0530732
0.0578649
0.0652038
0.0727353
0.082795
0.0939419
0.108018
0.12406
0.143734
0.166337
0.0259263
0.030336
0.0268149
0.0306177
0.0282447
0.0325453
0.0308458
0.0352113
0.034695
0.039108
0.0399963
0.0447858
0.04735
0.0529933
0.0577661
0.0649989
0.0724563
0.0823997
0.0932698
0.107132
0.122569
0.141745
0.163278
0.0259319
0.0302825
0.0268368
0.0305417
0.0282841
0.0324672
0.03089
0.0351256
0.0347328
0.0389932
0.0400215
0.0446866
0.0472797
0.0527835
0.0575629
0.0646032
0.0718904
0.0816118
0.0919326
0.105363
0.119714
0.137906
0.157277
0.0259461
0.0302054
0.0268743
0.0304407
0.0283448
0.0323578
0.030953
0.0350131
0.034795
0.0388655
0.0400792
0.0446003
0.0472769
0.0527505
0.0574622
0.0644164
0.0714383
0.0810169
0.0905334
0.103357
0.11599
0.132474
0.148311
0.0259695
0.030108
0.026925
0.0303193
0.0284231
0.0322246
0.0310384
0.0348796
0.0348793
0.0387099
0.0401282
0.0444265
0.0471667
0.0523807
0.057098
0.063714
0.0704354
0.0794585
0.0880984
0.0998979
0.110544
0.124799
0.136164
0.0259927
0.0299935
0.0269793
0.0301821
0.0285126
0.0320783
0.0311404
0.0347524
0.0349953
0.0385988
0.0402557
0.0443925
0.047269
0.0525259
0.0570784
0.0637159
0.0699726
0.0786887
0.0861456
0.0967348
0.104507
0.115606
0.121035
0.0260256
0.0298654
0.0270613
0.0300351
0.0286075
0.0319185
0.0312334
0.0345955
0.0350658
0.0384229
0.0402659
0.0441393
0.0470881
0.0519742
0.056462
0.0625288
0.0684859
0.076095
0.0826528
0.0913132
0.0966894
0.104007
0.103317
0.0260547
0.0297292
0.027126
0.0298901
0.0287092
0.0317865
0.0313692
0.0345218
0.0352374
0.0384423
0.0405064
0.0443169
0.0473911
0.0524633
0.0566386
0.0628645
0.0682048
0.0753865
0.0802387
0.0869432
0.0881372
0.090531
0.0817911
0.0260933
0.0295419
0.0272163
0.0296684
0.0288135
0.0315175
0.0314395
0.0342411
0.0352343
0.0380877
0.0403318
0.0437404
0.0467765
0.0512527
0.0552249
0.0602256
0.065034
0.0697145
0.0734752
0.0758126
0.0744015
0.0689003
0.0546392
0.0261476
0.0292736
0.0273352
0.0293634
0.02891
0.0311137
0.031464
0.0336816
0.0350422
0.0373564
0.0397118
0.0424965
0.0454682
0.0490478
0.0525447
0.0560371
0.0596785
0.0619915
0.0637296
0.0624793
0.0589995
0.0505881
0.0390548
0.0262252
0.0289353
0.0274786
0.0289868
0.0290261
0.0306206
0.0314787
0.0331052
0.0347779
0.0366033
0.039007
0.0412123
0.0439813
0.0466812
0.0495234
0.0517731
0.0540061
0.054584
0.0541874
0.0510897
0.0458802
0.0374851
0.0268935
0.0263274
0.0285186
0.0276444
0.0285447
0.0291219
0.0301622
0.0313808
0.032577
0.0343532
0.0357947
0.0380945
0.0397492
0.042208
0.0440858
0.0461202
0.0473496
0.0480777
0.0473487
0.0452886
0.0410604
0.0350762
0.0270579
0.0176258
0.0264568
0.0280182
0.0278152
0.0281338
0.0291047
0.029756
0.0311613
0.0320318
0.0337563
0.0349285
0.036923
0.0381845
0.0401329
0.0412981
0.0424285
0.0427917
0.0422351
0.0404944
0.0373979
0.0326874
0.0266474
0.0192315
0.0109283
0.0266148
0.0274568
0.0278867
0.0277955
0.029
0.029361
0.030812
0.0314599
0.0329967
0.0339765
0.035552
0.0364589
0.0378121
0.0383261
0.0386305
0.0382248
0.0367642
0.0343155
0.0307794
0.026027
0.0202898
0.0135752
0.00618744
0.0267736
0.0269249
0.0278201
0.0275074
0.0287918
0.0289747
0.0303238
0.0308536
0.0320952
0.0329061
0.0340141
0.0345681
0.0353358
0.0352548
0.034878
0.033857
0.031841
0.0290147
0.0253757
0.0208709
0.0156475
0.00972244
0.00316187
0.0268918
0.0264344
0.0276482
0.0272492
0.0284703
0.0285801
0.0297095
0.0301685
0.0310785
0.0316995
0.0323527
0.0325521
0.032787
0.032201
0.0313126
0.029852
0.0275739
0.0246323
0.021086
0.01698
0.0123564
0.00722283
0.00152971
0.0269393
0.0260097
0.0273612
0.0270032
0.0280382
0.0281619
0.0289957
0.0293835
0.0299738
0.0303676
0.030613
0.0304713
0.0302484
0.0292814
0.0280467
0.0263337
0.0239871
0.0211185
0.0178083
0.0141675
0.0101868
0.00585201
0.00104523
0.0268957
0.0256637
0.0269584
0.0267469
0.0275144
0.0276723
0.0282159
0.0284902
0.028797
0.028944
0.0288425
0.0283969
0.0278084
0.0265919
0.0251681
0.0233609
0.0210712
0.0183971
0.0154229
0.0122764
0.00893178
0.00535023
0.00137857
0.0267466
0.0253933
0.0264581
0.026448
0.0269387
0.0270972
0.0273883
0.0275039
0.027564
0.0274693
0.0270887
0.0264043
0.025547
0.0242053
0.0227164
0.0209354
0.0187908
0.0163786
0.0137874
0.011132
0.00837643
0.00546504
0.00223424
0.0264868
0.0251839
0.0258927
0.0260552
0.0263405
0.0264349
0.0265179
0.0264601
0.0263076
0.025993
0.0253975
0.0245467
0.0235304
0.0221611
0.0206981
0.0190266
0.0170813
0.0149559
0.0127481
0.0105537
0.00832376
0.00598844
0.00339123
0.0261214
0.025005
0.0253177
0.0255382
0.0257188
0.0257101
0.0256105
0.0253969
0.0250729
0.0245762
0.0238165
0.0228656
0.0217836
0.0204632
0.0190958
0.0175838
0.0158573
0.014011
0.0121575
0.0103764
0.00860277
0.0067518
0.00468366
0.0256673
0.0248064
0.0247798
0.0249125
0.0250506
0.0249384
0.0246765
0.0243375
0.0238958
0.0232668
0.0223891
0.0213811
0.0203046
0.0190955
0.0178731
0.0165404
0.0150264
0.0134323
0.0118886
0.0104626
0.00907366
0.00762169
0.00598434
0.0251504
0.0245222
0.0242852
0.0242941
0.0243423
0.0241231
0.0237287
0.0233018
0.0228048
0.0221021
0.0211444
0.0201052
0.0190795
0.0180205
0.0169684
0.0158149
0.0144998
0.0131287
0.0118449
0.0107093
0.00963369
0.00850529
0.00721384
0.0245956
0.0241393
0.0238185
0.0237007
0.0236215
0.023295
0.0227953
0.0223099
0.021803
0.0210838
0.0200974
0.0190521
0.0180925
0.0171871
0.0163072
0.0153278
0.0141991
0.0130253
0.0119531
0.0110446
0.0102157
0.00934797
0.00833852
0.0240281
0.0236823
0.0233427
0.0231272
0.0229188
0.0224959
0.0219194
0.021396
0.0208934
0.0201945
0.0192384
0.0182241
0.01733
0.0165533
0.0158271
0.0150119
0.0140559
0.0130552
0.0121535
0.0114178
0.010775
0.0101104
0.00932714
0.0234709
0.0231914
0.0228531
0.0225637
0.0222522
0.0217603
0.021128
0.0205793
0.0200866
0.019425
0.0185421
0.0175987
0.0167669
0.0160842
0.0154797
0.0148105
0.0140105
0.0131592
0.0123931
0.0117858
0.0112812
0.0107722
0.0101692
0.0229328
0.0226907
0.022364
0.0220256
0.0216418
0.0211065
0.0204459
0.0198772
0.0193891
0.0187761
0.0179903
0.0171432
0.0163702
0.0157464
0.0152302
0.0146853
0.0140234
0.0132979
0.0126371
0.0121229
0.0117167
0.0113223
0.0108589
0.0224414
0.0222186
0.0219038
0.0215306
0.0210976
0.0205522
0.0198853
0.0192948
0.0188073
0.0182446
0.0175599
0.0168157
0.0160974
0.0155098
0.0150552
0.0146105
0.0140668
0.0134478
0.0128703
0.0124235
0.0120905
0.0117865
0.0114335
0.0220273
0.0218097
0.0214926
0.0211071
0.0206465
0.0200979
0.0194461
0.0188421
0.0183425
0.017822
0.017223
0.016565
0.0159062
0.0153555
0.0149429
0.0145656
0.0141118
0.0135843
0.0130765
0.0126777
0.0123953
0.0121661
0.0119165
0.0217099
0.0214936
0.0211697
0.0207843
0.020313
0.0197602
0.0191388
0.018536
0.0180172
0.0175293
0.0169974
0.0164047
0.0158036
0.0152897
0.0148979
0.0145522
0.0141545
0.0136885
0.0132226
0.0128419
0.0125741
0.0123804
0.0121963
0.0215368
0.0213226
0.0209932
0.0205983
0.0201122
0.0195574
0.0189603
0.0183667
0.0178344
0.017352
0.0168589
0.0163169
0.0157532
0.0152497
0.0148592
0.014536
0.014186
0.013771
0.0133353
0.0129587
0.0126929
0.012525
0.0123995
0.0375111
0.0164351
-0.00837464
-0.0318061
-0.0535205
-0.0739644
-0.092689
-0.10886
0.0260363
0.00628901
-0.0175644
-0.0382099
-0.0545203
-0.0685243
-0.0808219
-0.0911566
0.0164024
0.00109342
-0.0187485
-0.0357716
-0.0476078
-0.0570327
-0.0656465
-0.0733266
0.00863184
-0.00362677
-0.0197665
-0.0337767
-0.0429632
-0.0493729
-0.054893
-0.0596637
0.00328781
-0.00630125
-0.018799
-0.0295994
-0.0364375
-0.0406631
-0.0441738
-0.0473242
-0.000418757
-0.0077835
-0.0169229
-0.0249277
-0.030134
-0.0331292
-0.0354053
-0.0373742
-0.0028029
-0.00852629
-0.0145808
-0.0199253
-0.0237272
-0.0260002
-0.0275917
-0.0288626
-0.00367539
-0.00804552
-0.0118523
-0.015182
-0.0178416
-0.0196345
-0.0208625
-0.0217379
-0.00335035
-0.00663731
-0.00894238
-0.0109087
-0.0126875
-0.0140634
-0.0150351
-0.015679
-0.00224598
-0.00469774
-0.00603374
-0.00711282
-0.00824651
-0.0092635
-0.0100325
-0.0105312
-0.000703111
-0.00252076
-0.00324522
-0.0037642
-0.00444693
-0.00517501
-0.00577798
-0.00617884
0.00104202
-0.000299938
-0.000651206
-0.000832445
-0.00121118
-0.00171385
-0.00217473
-0.00249563
0.00282753
0.00184158
0.00170822
0.00171597
0.00152824
0.00118576
0.000831394
0.00056342
0.00452784
0.00380269
0.00378807
0.00389724
0.0038332
0.00360909
0.00333707
0.00310513
0.0060723
0.0055315
0.00557054
0.00572838
0.00574795
0.0056115
0.00539973
0.0051903
0.00744486
0.00703227
0.00708121
0.0072408
0.00729809
0.00721669
0.00704801
0.0068558
0.00863172
0.00831106
0.00834457
0.00847512
0.00853569
0.00848378
0.00834685
0.00817264
0.00963283
0.00938006
0.00938786
0.00947566
0.00951898
0.00947701
0.00935994
0.00920057
0.0104456
0.0102402
0.0102182
0.0102595
0.0102756
0.010231
0.010125
0.00997881
0.0111101
0.0109289
0.0108679
0.0108579
0.0108422
0.0107907
0.0106941
0.0105614
0.0116728
0.0114993
0.0113796
0.0112978
0.0112319
0.0111615
0.0110709
0.0109555
0.0120213
0.0118748
0.0117318
0.0116007
0.0114863
0.0113859
0.0112892
0.0111863
0.0122788
0.0121419
0.0119644
0.0117809
0.0116176
0.0114852
0.0113776
0.0112815
-0.419122
-0.429668
-0.445257
-0.465515
-0.49138
-0.523913
-0.558402
-0.58793
-0.417091
-0.426646
-0.440172
-0.457622
-0.479232
-0.50525
-0.534263
-0.559882
-0.410753
-0.420772
-0.43342
-0.448749
-0.467498
-0.487929
-0.505742
-0.516572
-0.402417
-0.41324
-0.425031
-0.437254
-0.449644
-0.460275
-0.465825
-0.463538
-0.394633
-0.404874
-0.413772
-0.420333
-0.424541
-0.425699
-0.422081
-0.411655
-0.388904
-0.395824
-0.399248
-0.399008
-0.396066
-0.390425
-0.380866
-0.365493
-0.385629
-0.386174
-0.382502
-0.375866
-0.367553
-0.35736
-0.343989
-0.325611
-0.383741
-0.375704
-0.364634