/*--------------------------------*- C++ -*----------------------------------*\
| =========                 |                                                 |
| \\      /  F ield         | OpenFOAM: The Open Source CFD Toolbox           |
|  \\    /   O peration     | Version:  2312                                  |
|   \\  /    A nd           | Website:  www.openfoam.com                      |
|    \\/     M anipulation  |                                                 |
\*---------------------------------------------------------------------------*/
FoamFile
{
    version     2.0;
    format      ascii;
    arch        "LSB;label=32;scalar=64";
    class       surfaceScalarField;
    location    "30.5";
    object      phi;
}
// * * * * * * * * * * * * * * * * * * * * * * * * * * * * * * * * * * * * * //

dimensions      [0 3 -1 0 0 0 0];

oriented        oriented;

internalField   nonuniform List<scalar> 
26232
(
-4.92393e-05
0.00119153
-0.00114229
-5.5643e-05
0.00255883
-0.00255243
0.000114353
0.00311646
-0.00328645
0.000604939
0.0029565
-0.00344708
0.0015817
0.0021164
-0.00309316
0.00324058
0.000582637
-0.00224151
0.00580683
-0.00169703
-0.00086923
0.00952347
-0.00478807
0.00107144
0.0146253
-0.0087385
0.00363668
0.0212997
-0.0135502
0.0068757
0.0296493
-0.0191594
0.0108098
0.0396622
-0.0254338
0.0154209
0.0512023
-0.0321849
0.0206448
0.0640176
-0.0391909
0.0263756
0.0777668
-0.0462203
0.0324712
0.0920505
-0.0530657
0.038782
0.106453
-0.0595346
0.045132
0.120582
-0.0655297
0.051401
0.134076
-0.0709139
0.0574197
0.146682
-0.0757714
0.0631652
0.158218
-0.0799701
0.0684338
0.168456
-0.0838303
0.0735933
0.177638
-0.0869756
0.0777932
-0.0903183
0.0834001
0.184556
-4.13708e-05
0.0012329
3.58812e-05
0.00248158
0.000419214
0.00273312
0.00131711
0.00205861
0.00296707
0.000466437
0.00563907
-0.00208936
0.00961717
-0.00567512
0.0151601
-0.010331
0.0224464
-0.0160247
0.031521
-0.0226248
0.0422651
-0.0299034
0.0543968
-0.0375655
0.0675034
-0.0452916
0.0810925
-0.05278
0.0946534
-0.0597812
0.107707
-0.0661193
0.119872
-0.0716998
0.130861
-0.0765186
0.140565
-0.0806176
0.148957
-0.0841631
0.156193
-0.0872062
0.162455
-0.0900928
0.168145
-0.0926659
-0.0956014
0.173429
-1.11608e-05
0.00124406
0.000217991
0.00225243
0.000942701
0.00200841
0.00244342
0.000557887
0.00503559
-0.00212573
0.00904707
-0.00610085
0.0147655
-0.0113935
0.0223603
-0.0179259
0.0318119
-0.0254763
0.0428793
-0.0336922
0.0551232
-0.0421473
0.0679722
-0.0504146
0.0808116
-0.058131
0.0930717
-0.0650401
0.1043
-0.0710098
0.114213
-0.0760324
0.122714
-0.0802004
0.129886
-0.0836904
0.135966
-0.0866975
0.141267
-0.0894649
0.146167
-0.0921063
0.150976
-0.0949014
0.15598
-0.0976696
-0.100883
0.161261
4.3075e-05
0.00120099
0.000500096
0.00179541
0.00170361
0.000804896
0.00401427
-0.00175277
0.00780861
-0.00592007
0.0134151
-0.0117074
0.0210088
-0.0189871
0.0305122
-0.0274293
0.0415623
-0.0365265
0.0535635
-0.0456933
0.0658029
-0.0543867
0.0775852
-0.0621969
0.0883489
-0.0688947
0.0977431
-0.0744343
0.105659
-0.0789257
0.11221
-0.0825838
0.117683
-0.0856733
0.122445
-0.0884522
0.126874
-0.0911267
0.131263
-0.0938537
0.13582
-0.0966634
0.140611
-0.0996919
0.145617
-0.102676
-0.106119
0.150853
0.000121164
0.00107982
0.000889404
0.00102717
0.00271964
-0.00102534
0.00604209
-0.00507522
0.0112423
-0.0111203
0.0185288
-0.0189938
0.0277929
-0.0282513
0.0385641
-0.0382005
0.0501
-0.0480624
0.0615666
-0.05716
0.0722257
-0.0650458
0.0815727
-0.0715439
0.0893991
-0.0767211
0.0957796
-0.0808148
0.100998
-0.0841439
0.10544
-0.0870258
0.109484
-0.0897174
0.11342
-0.0923882
0.117422
-0.095129
0.121538
-0.0979694
0.125783
-0.100908
0.130061
-0.10397
0.13444
-0.107055
-0.110471
0.138792
0.000230652
0.000849172
0.0014029
-0.000145079
0.00400922
-0.00363167
0.00850701
-0.009573
0.0151772
-0.0177905
0.02393
-0.0277466
0.034222
-0.0385434
0.0451811
-0.0491595
0.0558637
-0.058745
0.0655061
-0.0668024
0.0736758
-0.0732154
0.0803004
-0.0781686
0.0855962
-0.0820168
0.0899365
-0.0851551
0.0937149
-0.0879224
0.0972449
-0.0905558
0.100718
-0.0931906
0.104219
-0.0958893
0.107764
-0.0986736
0.111351
-0.101556
0.114983
-0.10454
0.118675
-0.107662
0.122493
-0.110873
-0.114362
0.126384
0.000378931
0.00047024
0.00205403
-0.00182018
0.00556347
-0.0071411
0.0112983
-0.0153078
0.0192602
-0.0257524
0.0288983
-0.0373847
0.0392361
-0.0488812
0.0492183
-0.0591418
0.0580418
-0.0675686
0.0653226
-0.0740831
0.0710833
-0.0789761
0.0756213
-0.0827066
0.0793366
-0.0857321
0.082591
-0.0884096
0.0856368
-0.0909682
0.0886132
-0.0935321
0.0915832
-0.0961605
0.0945737
-0.0988799
0.0976071
-0.101707
0.100701
-0.10465
0.103883
-0.107722
0.107148
-0.110928
0.110518
-0.114243
-0.117787
0.113943
0.000570021
-9.97804e-05
0.00283547
-0.00408563
0.00731127
-0.0116169
0.0141687
-0.0221652
0.022953
-0.0345367
0.0326339
-0.0470656
0.0420307
-0.058278
0.0502557
-0.0673667
0.0569179
-0.0742308
0.0620784
-0.0792437
0.0660678
-0.0829655
0.0692873
-0.085926
0.072074
-0.0885189
0.0746531
-0.0909887
0.0771514
-0.0934665
0.0796349
-0.0960156
0.0821385
-0.0986642
0.0846834
-0.101425
0.0872785
-0.104302
0.0899273
-0.107299
0.0926271
-0.110422
0.0953664
-0.113667
0.0981735
-0.11705
-0.120592
0.100979
0.00079988
-0.00089966
0.00371
-0.00699575
0.00910455
-0.0170115
0.0167563
-0.0298169
0.0256849
-0.0434654
0.0345817
-0.0559624
0.0424057
-0.0661019
0.0486803
-0.0736414
0.0534444
-0.0789948
0.0570299
-0.0828292
0.0598389
-0.0857745
0.0622057
-0.0882929
0.0643543
-0.0906675
0.0664137
-0.093048
0.0684506
-0.0955034
0.0704961
-0.0980612
0.0725627
-0.100731
0.0746525
-0.103515
0.0767664
-0.106416
0.0789079
-0.109441
0.0810826
-0.112596
0.0833027
-0.115887
0.0855743
-0.119321
-0.122888
0.0878702
0.00105843
-0.00195809
0.00460917
-0.0105465
0.0107355
-0.0231377
0.0186831
-0.0377646
0.0270713
-0.0518536
0.0346362
-0.0635273
0.0407161
-0.0721818
0.0452558
-0.0781811
0.0485606
-0.0822996
0.0510374
-0.085306
0.053035
-0.0877721
0.0547904
-0.0900483
0.0564393
-0.0923164
0.0580488
-0.0946575
0.0596474
-0.097102
0.0612458
-0.0996596
0.0628488
-0.102334
0.0644615
-0.105127
0.0660902
-0.108045
0.0677413
-0.111092
0.0694193
-0.114274
0.0711228
-0.117591
0.0728487
-0.121047
-0.12461
0.0745705
0.00132703
-0.00328513
0.00544183
-0.0146613
0.0119856
-0.0296815
0.0196855
-0.0454644
0.0270339
-0.059202
0.0330682
-0.0695616
0.0375431
-0.0766567
0.0406915
-0.0813295
0.042919
-0.0845271
0.0445999
-0.0869868
0.0459955
-0.0891677
0.047256
-0.0913088
0.0484549
-0.0935153
0.0496239
-0.0958265
0.0507766
-0.0982546
0.05192
-0.100803
0.0530596
-0.103473
0.0541991
-0.106267
0.0553415
-0.109187
0.0564894
-0.11224
0.0576435
-0.115428
0.0588064
-0.118754
0.0599706
-0.122211
-0.125764
0.0611243
0.00158511
-0.00487024
0.0061141
-0.0191903
0.0126917
-0.0362591
0.0196913
-0.0524641
0.0257537
-0.0652644
0.0303089
-0.0741168
0.0334349
-0.0797827
0.0355083
-0.0834029
0.0369309
-0.0859498
0.0380013
-0.0880572
0.0388965
-0.0900629
0.0397047
-0.0921169
0.0404645
-0.0942751
0.0411924
-0.0965544
0.0418958
-0.0989581
0.0425789
-0.101486
0.0432444
-0.104139
0.0438953
-0.106918
0.0445359
-0.109828
0.0451708
-0.112875
0.0458042
-0.116062
0.0464357
-0.119385
0.047056
-0.122832
0.0476671
-0.126375
-0.000444787
-0.000757571
0.00120236
-0.00149463
-0.00222123
0.00327107
-0.00298673
-0.00345434
0.00494644
-0.00480894
-0.00441431
0.00623651
-0.00688793
-0.00517518
0.00725418
-0.00918333
-0.00584977
0.00814516
-0.0116795
-0.00653273
0.00902894
-0.014377
-0.00727855
0.00997597
-0.0172846
-0.00810643
0.0110141
-0.020415
-0.00901497
0.0121454
-0.0237816
-0.00999377
0.0133604
-0.0273969
-0.0110288
0.0146441
-0.0312716
-0.0121035
0.0159782
-0.0354133
-0.0131985
0.0173402
-0.039826
-0.014291
0.0187037
-0.0445086
-0.0153547
0.0200373
-0.0494544
-0.016359
0.0213048
-0.0546508
-0.0172691
0.0224655
-0.0600803
-0.0180472
0.0234768
-0.0657193
-0.018656
0.0242949
-0.0715369
-0.0190543
0.0248719
-0.0775033
-0.0191818
0.0251482
-0.0836108
-0.018957
0.0250645
-0.0183742
-0.0898654
0.0246288
-0.000465974
-0.000291597
-0.00155646
-0.00113074
-0.00309036
-0.00192044
-0.00494698
-0.00255769
-0.00705305
-0.00306911
-0.00937286
-0.00352995
-0.0118964
-0.00400916
-0.0146287
-0.00454626
-0.0175821
-0.00515303
-0.0207723
-0.00582473
-0.0242164
-0.00654975
-0.0279314
-0.00731373
-0.0319344
-0.00810051
-0.0362412
-0.00889173
-0.0408658
-0.00966646
-0.0458193
-0.0104012
-0.0511088
-0.0110696
-0.0567358
-0.011642
-0.0626981
-0.012085
-0.0689896
-0.0123644
-0.0755941
-0.0124498
-0.0824698
-0.0123061
-0.0895614
-0.0118654
-0.0110536
-0.096882
-0.000437842
0.000146245
-0.00147013
-9.84469e-05
-0.00292234
-0.00046823
-0.00467537
-0.000804668
-0.00665728
-0.0010872
-0.00883311
-0.00135413
-0.0111921
-0.00165013
-0.0137368
-0.00200158
-0.0164763
-0.00241354
-0.0194223
-0.00287874
-0.0225872
-0.00338484
-0.025984
-0.00391692
-0.0296257
-0.00445882
-0.0335248
-0.00499267
-0.0376928
-0.0054984
-0.0421395
-0.00595451
-0.0468714
-0.00633767
-0.0518908
-0.00662265
-0.0571951
-0.00678069
-0.0627802
-0.00677932
-0.0686361
-0.00659388
-0.0747213
-0.00622086
-0.0809369
-0.00564983
-0.00472256
-0.087268
-0.00037037
0.000516615
-0.00126395
0.000795134
-0.00253182
0.000799638
-0.004066
0.00072951
-0.00579718
0.00064399
-0.00768828
0.000536967
-0.00972346
0.000385045
-0.0118968
0.000171709
-0.0142105
-9.97928e-05
-0.0166674
-0.000421874
-0.0192685
-0.000783702
-0.022016
-0.0011694
-0.0249113
-0.00156353
-0.0279541
-0.00194991
-0.0311443
-0.00230819
-0.0344782
-0.00262059
-0.0379498
-0.00286609
-0.0415492
-0.00302319
-0.0452608
-0.00306909
-0.0490638
-0.0029764
-0.0529401
-0.0027175
-0.0568671
-0.00229391
-0.0607599
-0.00175703
-0.00107839
-0.0644041
-0.000278265
0.00079488
-0.000980499
0.00149737
-0.0019955
0.00181464
-0.00323142
0.00196543
-0.00462325
0.00203582
-0.00613093
0.00204465
-0.00773181
0.00198592
-0.00941367
0.00185357
-0.011164
0.00165058
-0.0129722
0.00138631
-0.0148289
0.00107302
-0.0167226
0.000724283
-0.0186397
0.000353503
-0.0205565
-3.30788e-05
-0.0224649
-0.000399812
-0.0243375
-0.000747995
-0.0261474
-0.00105615
-0.0278639
-0.00130675
-0.0294506
-0.00148231
-0.0308637
-0.00156331
-0.0320587
-0.00152255
-0.0330116
-0.00134102
-0.0337376
-0.00103094
-0.000877854
-0.0339382
-0.000180777
0.000975658
-0.000674189
0.00199078
-0.00140866
0.00254911
-0.00231106
0.00286783
-0.00332222
0.00304697
-0.0043998
0.00312223
-0.00551437
0.00310049
-0.00664331
0.00298251
-0.00776541
0.00277267
-0.00885888
0.00247978
-0.00990066
0.00211479
-0.0108653
0.00168897
-0.0117247
0.00121286
-0.012454
0.000696192
-0.0130056
0.000151813
-0.0133408
-0.000412767
-0.0134164
-0.000980532
-0.0131786
-0.00154464
-0.0125739
-0.00208702
-0.0115384
-0.00259875
-0.0100159
-0.00304505
-0.00786048
-0.00349646
-0.00512313
-0.00376829
-0.0040279
-0.00197308
-9.47323e-05
0.00107039
-0.000395166
0.00229121
-0.000862761
0.0030167
-0.00144164
0.00344671
-0.00207907
0.0036844
-0.00273184
0.00377501
-0.00336531
0.00373395
-0.00394937
0.00356658
-0.00445465
0.00327795
-0.00484995
0.00287508
-0.00510118
0.00236602
-0.00517067
0.00175846
-0.00501757
0.00105975
-0.00459406
0.000272681
-0.00384706
-0.000595186
-0.00271996
-0.00153987
-0.00114619
-0.0025543
0.000941246
-0.00363208
0.00361219
-0.00475796
0.00697061
-0.00595718
0.0110222
-0.00709663
0.0160527
-0.00852699
0.0217199
-0.00943542
-0.0113779
0.0290698
-3.24745e-05
0.00110286
-0.000182456
0.0024412
-0.000431671
0.00326592
-0.000736614
0.00375165
-0.00104984
0.00399763
-0.00132792
0.00405309
-0.00153224
0.00393827
-0.00162648
0.00366082
-0.00157345
0.00322491
-0.00133201
0.00263365
-0.000855866
0.00188988
-9.19671e-05
0.000994566
0.00101656
-4.87732e-05
0.00254428
-0.00125504
0.00456322
-0.00261413
0.00715509
-0.00413173
0.0104069
-0.0058061
0.0144146
-0.0076398
0.0192395
-0.00958281
0.0250661
-0.0117838
0.0317351
-0.0137656
0.0398289
-0.0166208
0.048477
-0.0180836
-0.0223965
0.0594956
-5.65905e-07
0.00110343
-5.64711e-05
0.0024971
-0.000156025
0.00336547
-0.000260083
0.00385571
-0.000322727
0.00406028
-0.000298342
0.0040287
-0.000142319
0.00378225
0.00019134
0.00332716
0.000753876
0.00266238
0.00160419
0.00178333
0.00281217
0.000681898
0.00445988
-0.000653141
0.00664596
-0.00223485
0.00946737
-0.00407645
0.0130394
-0.00618618
0.017476
-0.00856829
0.0228839
-0.011214
0.0293796
-0.0141356
0.036997
-0.0172002
0.04595
-0.0207368
0.0559627
-0.0237782
0.0676945
-0.0283526
0.08001
-0.0303991
-0.0370857
0.0946992
4.2644e-06
0.00109917
-1.3601e-05
0.00251497
-3.11908e-05
0.00338306
-3.85475e-06
0.00382838
0.000119382
0.00393704
0.000394079
0.003754
0.000880427
0.0032959
0.00164691
0.00256068
0.0027748
0.00153449
0.00436219
0.000195942
0.00652502
-0.00148093
0.00939468
-0.0035228
0.0131123
-0.00595249
0.0178193
-0.0087834
0.0236473
-0.0120142
0.0307087
-0.0156296
0.0390829
-0.0195882
0.0488218
-0.0238745
0.0599253
-0.0283036
0.0723969
-0.0332084
0.0861081
-0.0374895
0.10114
-0.043384
0.117016
-0.0462753
-0.0543098
0.13424
-1.11229e-05
0.00111029
-2.78164e-05
0.00253166
-3.84614e-06
0.00335909
0.000121589
0.00370294
0.000418332
0.0036403
0.000966754
0.00320558
0.0018612
0.00240146
0.00321502
0.00120686
0.00516381
-0.000414304
0.00786463
-0.00250487
0.0114886
-0.00510486
0.0162075
-0.00824174
0.0221764
-0.0119214
0.0295158
-0.0161227
0.0382953
-0.0207938
0.0485275
-0.0258618
0.060165
-0.0312257
0.0730883
-0.0367977
0.0871997
-0.0424151
0.102171
-0.0481794
0.118131
-0.0534502
0.134274
-0.0595266
0.151406
-0.0634069
-0.0706826
0.167778
-3.2002e-05
-5.27689e-05
1.98715e-05
0.00027573
0.000822865
0.00178693
0.00331916
0.00559746
0.00881983
0.0131907
0.0188956
0.0260748
0.0347982
0.0450511
0.0567285
0.0696486
0.0835549
0.0981582
0.113163
0.128149
0.143132
0.157199
0.171585
0.184303
-0.0929409
-0.028856
0.0319314
-0.0951032
-0.0272201
0.0293824
-0.0966671
-0.0240534
0.0256173
-0.09734
-0.0201736
0.0208465
-0.097352
-0.0149933
0.0150053
-0.0966487
-0.00897632
0.00827302
-0.0954685
-0.00182471
0.000644531
-0.093809
0.00564163
-0.00730109
-0.0918416
0.0140208
-0.0159882
-0.0897214
0.0231258
-0.0252461
-0.0875824
0.0329056
-0.0350446
-0.0854887
0.0432667
-0.0453604
-0.0834529
0.05412
-0.0561558
-0.0814383
0.0653369
-0.0673515
-0.0793222
0.0766848
-0.0788009
-0.0768666
0.087788
-0.0902435
-0.0736767
0.0980241
-0.101214
-0.0690839
0.106359
-0.110952
-0.0620891
0.111268
-0.118263
-0.0514551
0.11087
-0.121504
-0.0358034
0.103001
-0.118652
-0.0142959
0.0861658
-0.107673
0.0123971
0.0605429
-0.0872359
0.0419895
0.0292364
-0.0588288
0.0712551
-0.00294693
-0.0263187
0.097162
-0.031397
0.00549018
0.117848
-0.0537977
0.0331113
0.132923
-0.0690178
0.0539429
0.143
-0.0785034
0.0684267
0.149308
-0.0833576
0.0770494
0.153083
-0.0856961
0.0819217
0.155343
-0.0859832
0.083723
0.156789
-0.0856736
0.0842274
0.157844
-0.0841519
0.0830967
0.158741
-0.0825706
0.0816734
0.159592
-0.0797185
0.0788674
0.160467
-0.0769961
0.0761215
0.161422
-0.0729043
0.0719494
0.162513
-0.069191
0.0681003
0.163758
-0.064067
0.0628215
0.165143
-0.0598467
0.0584621
0.1666
-0.0543533
0.052896
0.168051
-0.0505483
0.0490977
0.169426
-0.0457349
0.04436
0.170691
-0.0435325
0.0422668
0.171818
-0.0402275
0.0391008
0.172761
-0.0399178
0.0389743
0.173488
-0.0380139
0.0372876
0.173983
-0.0392486
0.0387535
0.174247
-0.0377216
0.0374579
0.174279
-0.0391525
0.0391204
0.174092
-0.0367721
0.0369589
0.173755
-0.0382417
0.0385787
0.17336
-0.0352876
0.0356825
0.173026
-0.0369298
0.0372634
0.172777
-0.0324964
0.0327454
0.172659
-0.0334012
0.0335193
0.172553
-0.0264635
0.0265701
0.172504
-0.0267743
0.0268228
-0.0174353
0.0176052
-0.101943
-0.0237946
-0.106205
-0.022958
-0.109913
-0.0203453
-0.112757
-0.0173306
-0.114846
-0.0129034
-0.116092
-0.00773102
-0.116562
-0.00135437
-0.116312
0.00539143
-0.115488
0.0131974
-0.114161
0.0217986
-0.11238
0.0311238
-0.1101
0.0409876
-0.107246
0.0512655
-0.103674
0.0617648
-0.0991351
0.072146
-0.093253
0.0819059
-0.0854658
0.0902368
-0.0750555
0.0959489
-0.0612622
0.0974747
-0.0434582
0.0930665
-0.0211901
0.0807326
0.00529153
0.0596841
0.034333
0.0315015
0.0636797
-0.000110357
0.0902541
-0.0295213
0.112194
-0.0533365
0.128512
-0.0701157
0.139602
-0.0801082
0.146566
-0.0854676
0.150736
-0.0875276
0.153238
-0.0881981
0.154851
-0.087596
0.15604
-0.0868628
0.157053
-0.0851645
0.158012
-0.08353
0.15897
-0.0806766
0.159962
-0.0779877
0.161013
-0.0739556
0.162162
-0.0703396
0.163435
-0.0653397
0.164853
-0.0612648
0.166389
-0.0558896
0.167982
-0.0521416
0.169542
-0.0472944
0.171
-0.0449905
0.172291
-0.041519
0.173358
-0.0409841
0.174159
-0.0388151
0.174699
-0.0397885
0.174996
-0.0380188
0.175071
-0.0392279
0.17493
-0.0366308
0.174624
-0.0379358
0.174219
-0.0348824
0.173826
-0.0365371
0.173477
-0.0321467
0.173235
-0.0331598
0.173016
-0.0262437
0.172864
-0.0266228
-0.0172137
-0.0935865
-0.0174761
-0.0993051
-0.0172394
-0.104529
-0.015121
-0.109036
-0.0128235
-0.112754
-0.00918595
-0.115623
-0.00486196
-0.11743
0.000452755
-0.118408
0.00636979
-0.118555
0.0133436
-0.117779
0.0210227
-0.115984
0.029329
-0.113113
0.0381164
-0.109038
0.0471912
-0.103563
0.0562895
-0.0964102
0.0649931
-0.0872148
0.0727105
-0.0754754
0.0784975
-0.060752
0.0812255
-0.0427428
0.0794655
-0.0214085
0.0717322
0.00309468
0.0562294
0.029674
0.0331048
0.0576696
0.00350585
0.0837083
-0.0261491
0.106211
-0.0520243
0.123527
-0.0706522
0.135555
-0.0821433
0.143229
-0.0877821
0.147839
-0.0900783
0.150587
-0.0902751
0.152346
-0.0899576
0.153647
-0.0888963
0.154755
-0.0879708
0.155799
-0.0862088
0.156844
-0.0845748
0.157913
-0.081746
0.159026
-0.0791004
0.160193
-0.0751228
0.161435
-0.0715818
0.162765
-0.0666699
0.164208
-0.0627075
0.165757
-0.0574384
0.167379
-0.0537637
0.168996
-0.0489111
0.170539
-0.0465334
0.171929
-0.0429092
0.173099
-0.0421548
0.173998
-0.039714
0.174633
-0.0404228
0.175026
-0.0384122
0.175214
-0.0394159
0.175195
-0.0366116
0.175006
-0.0377474
0.174685
-0.0345612
0.174329
-0.0361812
0.173968
-0.0317859
0.17368
-0.0328716
0.173408
-0.0259719
0.173201
-0.0264156
-0.0169758
-0.0710477
-0.0108325
-0.0773002
-0.0109869
-0.0831201
-0.00930111
-0.0884168
-0.0075268
-0.0929543
-0.00464848
-0.0966728
-0.00114343
-0.0993204
0.00310035
-0.101046
0.00809522
-0.101668
0.013966
-0.101072
0.0204268
-0.0991579
0.0274147
-0.0958057
0.0347641
-0.0908583
0.0422439
-0.0841321
0.0495633
-0.0754001
0.0562611
-0.0643462
0.0616565
-0.0506365
0.0647878
-0.0342506
0.0648396
-0.0150427
0.0602576
0.00622505
0.0504645
0.0292533
0.0332012
0.0541735
0.00818461
0.0784737
-0.0207943
0.100617
-0.0482929
0.118466
-0.0698733
0.131297
-0.0834826
0.139624
-0.0904705
0.144655
-0.0928134
0.147621
-0.0930441
0.149469
-0.0921231
0.150788
-0.0912765
0.151909
-0.0900178
0.15298
-0.0890414
0.154056
-0.0872846
0.15517
-0.085689
0.156335
-0.082911
0.15756
-0.0803255
0.158847
-0.0764096
0.160205
-0.0729396
0.161632
-0.0680974
0.163142
-0.0642173
0.164727
-0.0590237
0.16637
-0.0554062
0.168007
-0.0505483
0.169584
-0.0481107
0.171027
-0.044352
0.172274
-0.0434016
0.173265
-0.0407048
0.174006
-0.0411637
0.174517
-0.0389234
0.174844
-0.0397428
0.17498
-0.0367478
0.174954
-0.037721
0.174775
-0.0343824
0.174526
-0.0359318
0.174229
-0.0314891
0.173966
-0.032609
0.173706
-0.025712
0.173498
-0.0262071
-0.0167626
-0.0400012
-0.0047695
-0.0459787
-0.00500929
-0.0515779
-0.00370195
-0.056869
-0.00223564
-0.0615189
1.35591e-06
-0.065397
0.00273471
-0.068424
0.0061273
-0.0704431
0.0101143
-0.0712579
0.0147808
-0.0707994
0.0199682
-0.0689052
0.0255205
-0.0654296
0.0312885
-0.0602518
0.0370661
-0.0532332
0.0425447
-0.0442059
0.0472337
-0.0329151
0.0503658
-0.0191584
0.051031
-0.00306773
0.048749
0.014296
0.0428939
0.0334094
0.0313511
0.0542449
0.0123656
0.0756684
-0.0132389
0.0962936
-0.0414195
0.113952
-0.0659511
0.127211
-0.0831323
0.136041
-0.0923124
0.141382
-0.0958116
0.144472
-0.0959036
0.146323
-0.0948953
0.147595
-0.093395
0.148641
-0.0923221
0.149637
-0.0910145
0.150674
-0.0900775
0.151775
-0.0883857
0.152948
-0.0868629
0.154199
-0.0841618
0.155529
-0.0816555
0.156932
-0.0778128
0.158411
-0.0744182
0.159955
-0.0696415
0.161566
-0.0658282
0.163229
-0.0606862
0.164927
-0.0571049
0.166608
-0.0522289
0.168228
-0.0497305
0.169721
-0.0458458
0.17104
-0.0447202
0.172124
-0.0417884
0.172977
-0.042017
0.173614
-0.0395609
0.174088
-0.0402163
0.17439
-0.0370494
0.174543
-0.0378741
0.174537
-0.0343772
0.17444
-0.0358341
0.174263
-0.0313128
0.174087
-0.032433
0.173898
-0.0255227
0.173743
-0.0260524
-0.0166174
-0.00623133
-0.000511244
-0.0112597
1.90724e-05
-0.015953
0.000991326
-0.0205921
0.00240347
-0.0248172
0.00422649
-0.028535
0.00645253
-0.0315219
0.00911416
-0.0336133
0.0122057
-0.0345728
0.0157404
-0.034261
0.0196564
-0.0325996
0.0238592
-0.029439
0.0281278
-0.0246314
0.0322586
-0.0180398
0.035953
-0.00961198
0.038806
0.000702017
0.0400518
0.012646
0.0390869
0.0262829
0.0351122
0.0415621
0.0276147
0.0582718
0.0146414
0.0760712
-0.00543383
0.0941503
-0.031318
0.110721
-0.0579903
0.123878
-0.0791079
0.132911
-0.0921651
0.13839
-0.0977913
0.141445
-0.0988667
0.143155
-0.0976142
0.144246
-0.0959856
0.145117
-0.0942661
0.145956
-0.0931617
0.146851
-0.091909
0.147843
-0.0910692
0.148955
-0.0894984
0.150183
-0.0880911
0.151516
-0.0854941
0.152946
-0.083086
0.154463
-0.0793291
0.156061
-0.0760166
0.157726
-0.0713065
0.159452
-0.0675542
0.161217
-0.0624516
0.163006
-0.0588931
0.164765
-0.0539882
0.166459
-0.0514243
0.168029
-0.0474161
0.169439
-0.04613
0.170632
-0.0429814
0.171613
-0.0429977
0.17239
-0.0403381
0.173019
-0.0408452
0.173493
-0.0375234
0.173834
-0.0382157
0.174021
-0.0345635
0.174104
-0.0359175
0.174089
-0.0312981
0.174049
-0.0323932
0.173982
-0.0254556
0.173933
-0.0260032
-0.0165834
0.0262521
0.00230646
0.0229359
0.00333532
0.0194631
0.00446408
0.0159045
0.00596206
0.0124073
0.00772367
0.00913706
0.00972281
0.00631297
0.0119383
0.0041662
0.0143525
0.00294564
0.0169609
0.00287857
0.0197235
0.00416343
0.0225743
0.00688613
0.0254051
0.0109719
0.0281729
0.0163986
0.0305263
0.0233366
0.031868
0.0317388
0.0316496
0.0416847
0.0291411
0.0530474
0.0237494
0.065722
0.0149401
0.0799539
0.000409553
0.0947248
-0.0202048
0.109417
-0.0460099
0.121862
-0.0704359
0.130733
-0.087979
0.136086
-0.0975178
0.138891
-0.100596
0.140248
-0.100224
0.140974
-0.0983402
0.141515
-0.0965264
0.142076
-0.0948269
0.142739
-0.0938249
0.14354
-0.0927102
0.144494
-0.0920229
0.145609
-0.0906139
0.146886
-0.0893679
0.148299
-0.0869074
0.14983
-0.0846169
0.15146
-0.080959
0.15318
-0.0777365
0.15497
-0.0730961
0.156818
-0.0694025
0.1587
-0.0643335
0.160598
-0.0607918
0.162464
-0.0558535
0.164262
-0.0532221
0.165939
-0.0490933
0.167467
-0.0476581
0.168794
-0.0443089
0.169925
-0.0441283
0.170862
-0.0412757
0.171663
-0.0416456
0.172322
-0.0381825
0.172863
-0.0387567
0.173257
-0.0349572
0.173544
-0.036205
0.173724
-0.0314781
0.173861
-0.0325305
0.173961
-0.0255556
0.174065
-0.026107
-0.0167028
0.0564294
0.00537268
0.0536231
0.00614165
0.050982
0.00710514
0.0485272
0.00841684
0.0462138
0.0100371
0.044037
0.0118996
0.042054
0.0139213
0.0403972
0.0160093
0.0392629
0.0180952
0.0388524
0.020134
0.0393604
0.0220662
0.0409401
0.0238255
0.0437291
0.0253838
0.0477011
0.0265542
0.0529745
0.0265946
0.0594935
0.0251307
0.0673195
0.0213151
0.0764262
0.0146426
0.087021
0.00434539
0.0983085
-0.010878
0.110486
-0.0323825
0.121629
-0.0571531
0.129952
-0.0787585
0.134911
-0.0929384
0.137206
-0.0998121
0.137961
-0.101351
0.138081
-0.100345
0.13809
-0.0983494
0.138209
-0.0966449
0.13851
-0.0951284
0.139014
-0.0943279
0.139724
-0.0934211
0.140642
-0.0929406
0.141761
-0.0917328
0.143077
-0.0906833
0.144567
-0.0883978
0.1462
-0.08625
0.147948
-0.0827064
0.149794
-0.0795829
0.151715
-0.075017
0.153694
-0.071382
0.155705
-0.0663438
0.157729
-0.0628163
0.15972
-0.0578444
0.161645
-0.0551468
0.163454
-0.0509025
0.165125
-0.0493295
0.166612
-0.0457954
0.167916
-0.0454323
0.169037
-0.042397
0.170029
-0.0426378
0.170892
-0.0390446
0.171647
-0.0395125
0.172266
-0.0355754
0.172779
-0.0367184
0.173182
-0.0318817
0.173532
-0.0328803
0.173839
-0.0258623
0.174139
-0.0264072
-0.017016
0.0896102
0.0104617
0.0851287
0.0106231
0.0812555
0.0109784
0.0780076
0.0116648
0.075391
0.0126537
0.0733288
0.0139618
0.0717121
0.015538
0.0704681
0.0172532
0.0695959
0.0189674
0.0691631
0.0205668
0.0692939
0.0219354
0.070157
0.0229624
0.0719602
0.0235806
0.074884
0.0236305
0.0787605
0.022718
0.0835588
0.0203324
0.0894872
0.0153866
0.0966971
0.00743278
0.104923
-0.00388056
0.114177
-0.0201322
0.123468
-0.0416728
0.130875
-0.0645605
0.135209
-0.0830927
0.13677
-0.0944998
0.136658
-0.0997
0.135909
-0.100601
0.135137
-0.0995732
0.134606
-0.0978182
0.134379
-0.0964186
0.134452
-0.0952008
0.134805
-0.0946812
0.135425
-0.0940412
0.136303
-0.0938187
0.137423
-0.0928529
0.138772
-0.0920316
0.14033
-0.0899561
0.142066
-0.0879859
0.143939
-0.0845794
0.145923
-0.081567
0.147987
-0.0770811
0.150111
-0.0735057
0.152264
-0.0684971
0.15443
-0.0649825
0.156564
-0.0599785
0.158635
-0.0572177
0.160598
-0.0528651
0.162434
-0.0511653
0.1641
-0.0474622
0.165598
-0.0469303
0.166925
-0.0437233
0.168129
-0.0438425
0.169214
-0.0401291
0.170202
-0.0405003
0.171063
-0.0364367
0.171823
-0.0374786
0.172476
-0.0325351
0.17307
-0.0334742
0.173619
-0.0264113
0.174155
-0.0269429
-0.0175617
0.127741
0.0169604
0.121588
0.0167762
0.11574
0.0168266
0.110413
0.0169916
0.105828
0.017239
0.102065
0.0177247
0.0991368
0.0184659
0.0970025
0.0193876
0.0955812
0.0203887
0.094798
0.02135
0.0946041
0.0221294
0.0950146
0.0225519
0.0961554
0.0224397
0.0980968
0.0216891
0.100822
0.0199931
0.104478
0.0166763
0.109096
0.0107682
0.114943
0.00158574
0.121507
-0.010444
0.128474
-0.0270993
0.134407
-0.0476062
0.137657
-0.0678103
0.138116
-0.0835515
0.13679
-0.0931741
0.134828
-0.0977373
0.132974
-0.0987479
0.131534
-0.0981326
0.130566
-0.0968505
0.130037
-0.09589
0.129896
-0.095059
0.130102
-0.0948873
0.130628
-0.0945678
0.131461
-0.0946514
0.13258
-0.0939719
0.133965
-0.0934168
0.135593
-0.0915836
0.137431
-0.0898245
0.139438
-0.0865861
0.141575
-0.0837037
0.1438
-0.0793066
0.146087
-0.0757923
0.148402
-0.0708126
0.15073
-0.0673097
0.153026
-0.0622751
0.155263
-0.0594541
0.157398
-0.0550008
0.159418
-0.0531848
0.161283
-0.0493278
0.162994
-0.0486405
0.164544
-0.0452739
0.16598
-0.0452785
0.167306
-0.0414547
0.168543
-0.0417374
0.169665
-0.037559
0.170692
-0.0385056
0.171619
-0.0334621
0.172485
-0.0343402
0.173308
-0.027234
0.174114
-0.0277491
-0.0183761
0.162247
0.0224919
0.156598
0.0224252
0.150669
0.022756
0.144745
0.0229151
0.139028
0.0229564
0.133666
0.0230863
0.128841
0.0232912
0.124717
0.0235117
0.1214
0.0237053
0.118944
0.0238058
0.117355
0.023719
0.11659
0.0233164
0.116654
0.0223756
0.117666
0.0206773
0.119699
0.0179604
0.122671
0.0137041
0.126314
0.00712542
0.13037
-0.00247102
0.135077
-0.0151508
0.139363
-0.0313846
0.141692
-0.0499356
0.141144
-0.0672627
0.138431
-0.0808379
0.134986
-0.089729
0.131734
-0.0944855
0.129092
-0.0961064
0.127143
-0.0961827
0.125828
-0.0955358
0.125056
-0.095118
0.124744
-0.0947473
0.124838
-0.094981
0.125299
-0.095029
0.126109
-0.0954611
0.127245
-0.0951082
0.128684
-0.0948562
0.130398
-0.0932976
0.13235
-0.0917764
0.134493
-0.0887286
0.136785
-0.0859958
0.13918
-0.0817022
0.141644
-0.0782556
0.144139
-0.0733077
0.146646
-0.0698169
0.149126
-0.0647549
0.151548
-0.0618764
0.153878
-0.0573305
0.156101
-0.0554076
0.158184
-0.0514114
0.160124
-0.0505806
0.161917
-0.0470668
0.163602
-0.0469636
0.165187
-0.0430394
0.16669
-0.0432405
0.168091
-0.0389599
0.169403
-0.0398178
0.170626
-0.0346843
0.171788
-0.0355028
0.172913
-0.0283586
0.17402
-0.0288561
-0.0194928
0.181661
0.0251339
0.178257
0.0258292
0.174675
0.0263374
0.170855
0.026735
0.166796
0.0270162
0.16261
0.0272723
0.158412
0.0274886
0.154332
0.0275916
0.150517
0.0275208
0.147124
0.0271981
0.144307
0.026536
0.14217
0.0254536
0.1408
0.0237454
0.140238
0.0212393
0.140441
0.0177572
0.141456
0.0126897
0.143228
0.0053538
0.145245
-0.00448861
0.14704
-0.016946
0.147702
-0.0320468
0.146271
-0.0485045
0.142814
-0.0638053
0.138173
-0.0761968
0.133314
-0.0848705
0.128866
-0.0900366
0.125284
-0.0925251
0.12274
-0.0936387
0.12103
-0.0938254
0.119987
-0.0940749
0.119484
-0.0942445
0.119444
-0.0949416
0.119814
-0.095399
0.120573
-0.0962196
0.121695
-0.0962301
0.123159
-0.0963208
0.124933
-0.0950714
0.126976
-0.0938196
0.129236
-0.0909884
0.131668
-0.0884274
0.134221
-0.0842554
0.136856
-0.0808905
0.139532
-0.0759841
0.142227
-0.0725114
0.144901
-0.0674292
0.147524
-0.064499
0.150064
-0.0598709
0.152507
-0.0578505
0.154826
-0.0537301
0.157012
-0.0527672
0.159065
-0.0491196
0.161017
-0.0489151
0.162878
-0.0449009
0.164664
-0.0450262
0.16636
-0.0406562
0.167975
-0.0414324
0.169512
-0.036221
0.170992
-0.0369836
0.172443
-0.0298093
0.173877
-0.0302898
-0.0209419
0.189559
0.0264793
-0.190904
0.188528
0.0268595
0.187149
0.0277173
0.185425
0.0284582
0.183355
0.0290867
0.180998
0.0296291
0.178447
0.0300391
0.175809
0.03023
0.17322
0.0301094
0.170862
0.0295567
0.168942
0.0284559
0.167675
0.0267209
0.167254
0.0241665
0.167843
0.0206503
0.169672
0.0159276
0.172704
0.00965842
0.176415
0.00164195
0.180736
-0.00880912
0.184918
-0.0211278
0.187931
-0.0350603
0.188847
-0.04942
0.187476
-0.0624351
0.184176
-0.0728964
0.179549
-0.0802438
0.174357
-0.0848447
0.169144
-0.0873119
0.164332
-0.0888269
0.160183
-0.0896754
0.156743
-0.0906349
0.153974
-0.091476
0.151799
-0.0927662
0.150137
-0.0937371
0.148906
-0.0949886
0.148047
-0.0953712
0.147497
-0.0957708
0.14722
-0.0947941
0.147168
-0.0937684
0.14732
-0.09114
0.14764
-0.0887471
0.148116
-0.0847313
0.148719
-0.0814939
0.149438
-0.0767027
0.150246
-0.0733196
0.151127
-0.0683104
0.152044
-0.0654159
0.152966
-0.060793
0.153859
-0.0587435
0.154697
-0.0545685
0.15545
-0.0535204
0.156106
-0.0497749
0.156665
-0.0494741
0.157144
-0.0453798
0.157548
-0.0454304
0.157874
-0.0409825
0.158113
-0.0416711
0.158274
-0.0363822
0.158367
-0.037077
0.158433
-0.0298746
0.158478
-0.0303353
-0.0210102
0.201154
0.0264006
-0.201075
0.201265
0.0267489
0.201581
0.0274014
0.201848
0.0281903
0.201973
0.0289621
0.201943
0.029659
0.201766
0.0302165
0.201451
0.0305452
0.20103
0.0305298
0.200569
0.0300177
0.200176
0.0288491
0.199987
0.0269099
0.200165
0.0239883
0.200855
0.0199611
0.202083
0.0146989
0.203769
0.00797255
0.205916