/*--------------------------------*- C++ -*----------------------------------*\
| =========                 |                                                 |
| \\      /  F ield         | OpenFOAM: The Open Source CFD Toolbox           |
|  \\    /   O peration     | Version:  2512                                  |
|   \\  /    A nd           | Website:  www.openfoam.com                      |
|    \\/     M anipulation  |                                                 |
\*---------------------------------------------------------------------------*/
FoamFile
{
    version     2.0;
    format      ascii;
    arch        "LSB;label=32;scalar=64";
    class       volScalarField;
    location    "50";
    object      p;
}
// * * * * * * * * * * * * * * * * * * * * * * * * * * * * * * * * * * * * * //

dimensions      [0 2 -2 0 0 0 0];

internalField   nonuniform List<scalar> 
9200
(
-0.600711
-0.597441
-0.594785
-0.593127
-0.59293
-0.593752
-0.593922
-0.590842
-0.58177
-0.564724
-0.539068
-0.505666
-0.466476
-0.423847
-0.379887
-0.336285
-0.293838
-0.253487
-0.214299
-0.176325
-0.606638
-0.603044
-0.599369
-0.596005
-0.59317
-0.590048
-0.584711
-0.574887
-0.558874
-0.536054
-0.507
-0.473154
-0.436281
-0.397981
-0.359508
-0.321701
-0.28514
-0.250283
-0.216962
-0.186066
-0.615409
-0.611169
-0.606536
-0.601431
-0.595486
-0.58745
-0.575633
-0.558804
-0.536621
-0.509628
-0.47896
-0.445925
-0.411679
-0.37713
-0.342938
-0.309619
-0.277522
-0.246953
-0.217832
-0.190063
-0.627472
-0.622111
-0.616209
-0.608826
-0.598796
-0.584792
-0.566089
-0.542847
-0.515876
-0.486257
-0.455041
-0.423081
-0.391015
-0.359311
-0.328338
-0.298384
-0.269675
-0.242437
-0.216532
-0.192201
-0.642808
-0.635801
-0.628048
-0.617438
-0.602104
-0.581386
-0.556043
-0.527481
-0.497063
-0.465829
-0.434478
-0.403452
-0.373036
-0.343442
-0.314844
-0.287392
-0.261236
-0.236431
-0.212972
-0.190872
-0.661086
-0.652032
-0.641657
-0.626527
-0.604636
-0.576859
-0.545527
-0.512729
-0.47981
-0.447482
-0.416072
-0.385722
-0.3565
-0.328456
-0.30164
-0.276103
-0.251873
-0.228971
-0.207411
-0.18713
-0.681722
-0.670227
-0.656289
-0.635069
-0.605576
-0.570862
-0.534372
-0.498239
-0.463433
-0.430274
-0.398792
-0.368926
-0.340599
-0.313745
-0.288314
-0.264257
-0.241537
-0.220116
-0.199982
-0.180914
-0.703481
-0.689168
-0.670399
-0.641515
-0.603888
-0.562757
-0.521934
-0.483125
-0.446812
-0.412965
-0.381394
-0.351889
-0.324266
-0.298371
-0.274078
-0.251278
-0.229872
-0.209785
-0.190923
-0.172979
-0.724272
-0.706873
-0.681615
-0.643782
-0.598102
-0.551289
-0.506854
-0.465873
-0.428361
-0.393993
-0.362401
-0.333259
-0.306298
-0.281293
-0.258056
-0.23642
-0.216254
-0.197445
-0.179834
-0.163146
-0.741223
-0.72053
-0.687197
-0.63966
-0.586454
-0.5348
-0.487448
-0.444806
-0.406455
-0.371825
-0.340402
-0.311758
-0.285546
-0.261477
-0.239309
-0.218845
-0.199936
-0.182465
-0.166264
-0.151124
-0.413744
-0.417122
-0.419245
-0.422024
-0.426396
-0.43199
-0.438544
-0.445703
-0.453024
-0.460042
-0.466344
-0.471695
-0.476135
-0.48004
-0.484065
-0.48898
-0.495452
-0.503628
-0.51261
-0.520865
-0.441044
-0.445318
-0.448971
-0.453457
-0.461449
-0.470547
-0.480661
-0.491123
-0.500967
-0.509055
-0.514226
-0.515506
-0.512353
-0.504856
-0.493799
-0.480616
-0.467023
-0.454082
-0.442172
-0.432854
-0.47141
-0.476106
-0.481703
-0.490149
-0.499432
-0.511242
-0.524817
-0.538687
-0.5513
-0.560811
-0.565242
-0.562785
-0.552197
-0.533111
-0.506175
-0.473097
-0.436635
-0.39884
-0.361868
-0.329385
-0.502215
-0.50647
-0.512781
-0.52223
-0.53448
-0.54933
-0.565494
-0.581978
-0.596673
-0.60712
-0.61061
-0.604603
-0.587245
-0.557689
-0.516328
-0.464236
-0.407306
-0.347209
-0.288455
-0.231236
-0.530624
-0.533799
-0.54012
-0.550112
-0.563456
-0.579536
-0.597224
-0.614751
-0.629973
-0.639984
-0.641554
-0.631727
-0.608424
-0.570943
-0.520763
-0.44804
-0.380215
-0.306237
-0.23453
-0.16086
-0.554331
-0.555996
-0.561609
-0.571127
-0.584092
-0.599786
-0.616992
-0.633822
-0.647887
-0.655957
-0.654473
-0.640204
-0.610894
-0.566006
-0.506846
-0.435794
-0.360599
-0.283078
-0.209258
-0.136492
-0.572142
-0.572178
-0.57639
-0.584402
-0.595693
-0.609522
-0.624607
-0.639192
-0.650611
-0.655501
-0.650204
-0.631587
-0.597786
-0.549072
-0.487817
-0.418098
-0.345111
-0.272629
-0.204885
-0.142583
-0.584156
-0.582752
-0.585111
-0.590797
-0.59942
-0.61029
-0.622285
-0.633542
-0.641268
-0.64201
-0.63224
-0.60932
-0.572277
-0.522424
-0.46297
-0.398246
-0.332496
-0.268907
-0.210137
-0.156557
-0.591575
-0.589152
-0.589552
-0.592538
-0.598002
-0.605499
-0.613957
-0.621258
-0.624447
-0.620092
-0.605173
-0.578023
-0.538873
-0.489936
-0.434686
-0.376818
-0.319599
-0.264964
-0.214946
-0.168361
-0.596348
-0.593358
-0.592012
-0.5924
-0.594813
-0.599007
-0.60361
-0.606252
-0.603842
-0.593363
-0.57283
-0.541897
-0.501915
-0.455528
-0.405686
-0.355174
-0.305804
-0.258902
-0.215637
-0.175176
-0.533233
-0.545718
-0.536125
-0.501365
-0.434673
-0.350256
-0.27143
-0.214386
-0.185905
-0.182238
-0.196161
-0.230016
-0.28948
-0.353094
-0.380355
-0.34888
-0.278185
-0.202848
-0.146189
-0.115623
-0.104259
-0.110196
-0.141869
-0.190345
-0.221062
-0.205448
-0.160006
-0.115429
-0.0884453
-0.0794882
-0.0907612
-0.11329
-0.1217
-0.102935
-0.0817565
-0.0702679
-0.0602195
-0.0420713
-0.023935
-0.0147583
-0.0137069
-0.0161778
-0.0216874
-0.0216631
-0.0115803
0.00010801
0.00386127
0.00450584
-0.000106414
-0.00228145
-0.432409
-0.435814
-0.430841
-0.401865
-0.348114
-0.282524
-0.222028
-0.181291
-0.166667
-0.172869
-0.194362
-0.235968
-0.302057
-0.37001
-0.400037
-0.364566
-0.288922
-0.209061
-0.147978
-0.111609
-0.0939469
-0.0922276
-0.113721
-0.153459
-0.179601
-0.166805
-0.130863
-0.0986524
-0.0823719
-0.0835655
-0.106091
-0.14002
-0.154116
-0.128991
-0.0973183
-0.0780236
-0.0634573
-0.0410526
-0.0176361
-0.00565502
-0.0067288
-0.014898
-0.02651
-0.0298547
-0.0184889
-0.00109147
0.00834568
0.0142112
0.00869059
-0.00118651
-0.312326
-0.305706
-0.295896
-0.273681
-0.240447
-0.197085
-0.15724
-0.134944
-0.134153
-0.148835
-0.175248
-0.219763
-0.288397
-0.360593
-0.395186
-0.363541
-0.287794
-0.206824
-0.144528
-0.104869
-0.0820815
-0.073095
-0.0845765
-0.115087
-0.13753
-0.127982
-0.101218
-0.0803056
-0.0741903
-0.0859247
-0.120186
-0.165221
-0.185906
-0.155909
-0.112871
-0.0849868
-0.0661319
-0.0404388
-0.0126284
0.00209945
-0.000481109
-0.0136205
-0.0307233
-0.0373682
-0.0249815
-0.0022574
0.0124508
0.0232212
0.0168054
-0.000309515
-0.195348
-0.174025
-0.161693
-0.14549
-0.1327
-0.106791
-0.0867071
-0.0811204
-0.0911938
-0.111438
-0.139373
-0.183255
-0.251648
-0.327676
-0.367923
-0.344128
-0.274042
-0.196798
-0.136227
-0.0957951
-0.0702298
-0.0553561
-0.0574468
-0.0790089
-0.0978389
-0.0915531
-0.0721594
-0.0605983
-0.0631421
-0.0847956
-0.130017
-0.185844
-0.213701
-0.181672
-0.127889
-0.0909855
-0.0681318
-0.0401061
-0.00899866
0.00835681
0.00505512
-0.0121555
-0.0341171
-0.0439434
-0.0309228
-0.00338014
0.0161235
0.0315412
0.0242822
0.000400015
-0.105561
-0.068574
-0.0466767
-0.0312968
-0.0241133
-0.0179764
-0.0161442
-0.0238426
-0.0413145
-0.0639304
-0.0916474
-0.134414
-0.201324
-0.27863
-0.325508
-0.311258
-0.250884
-0.181309
-0.124687
-0.0853577
-0.0588348
-0.0406537
-0.034833
-0.0478136
-0.0631246
-0.0609067
-0.04482
-0.039926
-0.0495372
-0.078835
-0.133461
-0.199468
-0.234719
-0.204445
-0.141949
-0.0959897
-0.0694239
-0.0398588
-0.00668192
0.0131102
0.00994616
-0.0103315
-0.0365009
-0.0493543
-0.0361941
-0.00446667
0.0193157
0.0391774
0.0311531
0.000981001
-0.0732241
-0.0110976
0.0310134
0.0528184
0.0606281
0.059305
0.0515231
0.0355486
0.0131404
-0.0113234
-0.0399666
-0.08312
-0.148404
-0.224291
-0.274898
-0.269872
-0.221218
-0.162119
-0.111496
-0.0743687
-0.0483623
-0.0285801
-0.017552
-0.0227318
-0.0344807
-0.0331081
-0.0205215
-0.0196683
-0.0339643
-0.0692389
-0.130643
-0.203531
-0.246721
-0.221371
-0.154254
-0.0999623
-0.0700049
-0.0394697
-0.00545465
0.0165114
0.0140872
-0.00809627
-0.0376878
-0.0534017
-0.0406574
-0.0055145
0.0219822
0.0461243
0.037436
0.00146228
-0.0853369
-0.0229432
0.0356525
0.0820534
0.107414
0.117234
0.109631
0.0922395
0.0666993
0.0394253
0.00847302
-0.0354427
-0.0981866
-0.170895
-0.222416
-0.22509
-0.188574
-0.141012
-0.0978428
-0.0639349
-0.0390952
-0.0192688
-0.00486485
-0.00390955
-0.012395
-0.0118788
-0.000913386
-0.00127757
-0.0179292
-0.0558889
-0.120452
-0.200611
-0.25039
-0.233711
-0.164614
-0.102992
-0.069878
-0.0387938
-0.0050087
0.0187029
0.0177103
-0.0052931
-0.0376694
-0.0559991
-0.0442343
-0.006498
0.0241008
0.052362
0.0431365
0.00186259
-0.107082
-0.0531385
0.00133073
0.0505415
0.0895562
0.115098
0.12823
0.124776
0.102962
0.0740872
0.0424062
0.0013894
-0.0553789
-0.120556
-0.168705
-0.176703
-0.152916
-0.117948
-0.0835328
-0.0540709
-0.0311346
-0.0124013
0.00341859
0.00892056
0.00361687
0.00281442
0.0121185
0.0137242
-0.00274262
-0.0411364
-0.106158
-0.188204
-0.244793
-0.23559
-0.171093
-0.104811
-0.0689207
-0.037897
-0.00537696
0.0199437
0.0206623
-0.00213791
-0.0362604
-0.0570212
-0.0467422
-0.00740048
0.0256649
0.0578635
0.0482454
0.00220245
-0.125895
-0.0803809
-0.0311553
0.0192489
0.0627639
0.0950781
0.116898
0.126352
0.119501
0.097746
0.0674397
0.028778
-0.0220591
-0.0791915
-0.124223
-0.135992
-0.123736
-0.0992749
-0.0722645
-0.0469174
-0.0256992
-0.00824891
0.0076108
0.0164463
0.0143066
0.0122233
0.0199069
0.0249514
0.0118024
-0.0245056
-0.0873667
-0.171079
-0.234243
-0.238733
-0.176077
-0.106815
-0.0679439
-0.0367753
-0.00629645
0.0200109
0.0235787
0.00173994
-0.0337941
-0.0566559
-0.0484201
-0.0083378
0.0265699
0.0625454
0.0527751
0.00249011
-0.142171
-0.107956
-0.0718311
-0.0289954
0.0138354
0.0503588
0.0790967
0.100256
0.106088
0.0978782
0.0803377
0.0531191
0.0157951
-0.0288011
-0.0628714
-0.0833231
-0.0846662
-0.0740053
-0.0569375
-0.0381601
-0.0201111
-0.00421552
0.0105526
0.0212197
0.0218549
0.0190395
0.0239517
0.0292656
0.0202314
-0.010184
-0.067808
-0.148029
-0.214378
-0.223376
-0.171934
-0.106879
-0.0665129
-0.0342918
-0.0049233
0.0197314
0.0255973
0.0056595
-0.0298587
-0.0546519
-0.0485168
-0.00885069
0.0270232
0.0663166
0.0566746
0.00275743
-0.128797
-0.107219
-0.0728336
-0.0336644
0.00443608
0.0367893
0.063964
0.0838187
0.094582
0.0928192
0.0800383
0.0581346
0.0267975
-0.00977385
-0.0406004
-0.0560026
-0.0591201
-0.0524833
-0.0394564
-0.0246081
-0.00966368
0.00404346
0.0164886
0.0262616
0.02791
0.024655
0.0272865
0.0337811
0.0329396
0.00751321
-0.0464117
-0.124581
-0.194783
-0.211294
-0.163304
-0.0998036
-0.0597999
-0.0293182
-0.00112248
0.021778
0.0294012
0.0104999
-0.0251087
-0.0520831
-0.0483786
-0.00828972
0.0278957
0.0696023
0.0598684
0.00295773
-0.117348
-0.0993762
-0.0680935
-0.033338
-0.00106998
0.0271075
0.0503177
0.0684341
0.0789862
0.079267
0.07045
0.0543123
0.0313181
0.00431376
-0.0189094
-0.0321241
-0.0360383
-0.0323913
-0.0232549
-0.0123803
-0.000609114
0.0110625
0.0213446
0.0293091
0.0308595
0.0278404
0.0294231
0.0356035
0.0360105
0.0153436
-0.0323297
-0.105824
-0.174989
-0.192783
-0.150188
-0.0907399
-0.0521782
-0.0235743
0.00269059
0.0234031
0.0300986
0.0136309
-0.0204565
-0.0484531
-0.046049
-0.0072054
0.0286506
0.0722592
0.0621333
0.00306315
-0.10581
-0.0907886
-0.0648091
-0.0352827
-0.00742729
0.0169079
0.0373226
0.0531706
0.0629771
0.0652301
0.0603489
0.0496192
0.0339004
0.0149313
-0.00244378
-0.0136776
-0.0183639
-0.0172816
-0.0110869
-0.0027076
0.00669246
0.0164228
0.0251303
0.0319904
0.0335323
0.0302959
0.0308849
0.0368649
0.0377857
0.0178446
-0.0253367
-0.090402
-0.150968
-0.169931
-0.133909
-0.0804521
-0.044142
-0.0176202
0.00637709
0.0250024
0.0304236
0.0157094
-0.015457
-0.0430697
-0.0425755
-0.00575749
0.0291416
0.0742
0.0635429
0.00312008
-0.0928055
-0.0819244
-0.0612842
-0.0364901
-0.012588
0.00839755
0.0259367
0.0397798
0.049149
0.0530245
0.0513063
0.044744
0.0342451
0.0211213
0.00824865
-0.000598899
-0.00490971
-0.00471046
-0.000237112
0.00608936
0.0133633
0.0213671
0.0285246
0.0338013
0.0351002
0.0319034
0.0318428
0.0364417
0.0378643
0.0185814
-0.0191819
-0.0715871
-0.122482
-0.142185
-0.1136
-0.0682708
-0.0353524
-0.0108468
0.0105883
0.0264948
0.0307336
0.0179852
-0.00918093
-0.0360645
-0.0370477
-0.003733
0.0294126
0.0751949
0.0640611
0.00322583
-0.0808315
-0.0735134
-0.0572298
-0.0366267
-0.0164019
0.00146945
0.0165722
0.0287874
0.0376255
0.0423679
0.0427634
0.0392612
0.0327459
0.0242393
0.0154848
0.00901806
0.00556224
0.00521337
0.00816128
0.0129312
0.0185507
0.0249771
0.0310707
0.0354338
0.0365408
0.0335188
0.0328598
0.0352945
0.0356165
0.0185614
-0.0102307
-0.0488573
-0.0914554
-0.111611
-0.090753
-0.0547833
-0.0263124
-0.00391758
0.0150435
0.0282702
0.0314241
0.0211738
-0.00166639
-0.0275574
-0.0307544
-0.00114986
0.0294061
0.0749963
0.0636034
0.00341874
-0.0699266
-0.0649576
-0.0523052
-0.0355288
-0.0187079
-0.00361605
0.00932491
0.0200044
0.02812
0.0332134
0.0350676
0.033916
0.0304505
0.0254866
0.0198616
0.0154389
0.0128834
0.0125492
0.0147886
0.018587
0.0230896
0.028247
0.0331727
0.036672
0.0375877
0.0350242
0.0341637
0.0347831
0.0301705
0.0184329
0.000292177
-0.0251055
-0.0597583
-0.0799983
-0.0663299
-0.0402388
-0.0171203
0.00318531
0.0199121
0.0305431
0.0328695
0.025137
0.00657356
-0.0179036
-0.0232669
0.00200638
0.0291469
0.0733877
0.0619896
0.00370276
-0.0592072
-0.0561686
-0.0466332
-0.0333707
-0.0195923
-0.00696185
0.00404667
0.0133108
0.0206514
0.0257954
0.0285858
0.0291244
0.0278674
0.0252995
0.0222062
0.0196258
0.018185
0.0181657
0.0199358
0.022881
0.0264558
0.0305992
0.0345982
0.0376231
0.0385443
0.0365962
0.0358247
0.0360251
0.0291603
0.019031
0.0104585
-0.00205666
-0.0292155
-0.0497323
-0.0425429
-0.0254765
-0.00805825
0.00984975
0.0249014
0.0336042
0.0351249
0.0294756
0.0148919
-0.00773578
-0.0150251
0.00564829
0.0286672
0.0701795
0.0590193
0.00408618
-0.0489604
-0.0475556
-0.0406903
-0.0303128
-0.019131
-0.00865788
0.000616942
0.00857891
0.0151282
0.0201007
0.0233869
0.025039
0.0253864
0.0245798
0.0233304
0.022222
0.0216988
0.0219901
0.0235595
0.0260417
0.0290253
0.0325203
0.0357707
0.0383444
0.0394355
0.0381727
0.0379392
0.0386319
0.0323137
0.0244208
0.0232294
0.0189961
-0.00355994
-0.0238298
-0.0211483
-0.0112337
0.000755933
0.0160642
0.0296389
0.0372588
0.0382768
0.0339604
0.0224185
0.00201302
-0.00671591
0.00958573
0.0280452
0.0652605
0.0546177
0.0046113
-0.039511
-0.0393095
-0.0345
-0.0264904
-0.0175143
-0.00892778
-0.00119812
0.00557627
0.0113374
0.0159813
0.0194378
0.0217227
0.022961
0.023545
0.0236166
0.0235998
0.0238764
0.0246085
0.0261726
0.02838
0.0308825
0.0338465
0.0365747
0.0387782
0.0401987
0.0396985
0.0402147
0.0421981
0.0394655
0.0371805
0.0391887
0.0356594
0.0151997
-0.00318741
-0.00308154
0.00178175
0.00896977
0.0216705
0.0339693
0.0408541
0.0417917
0.0380797
0.0283181
0.0104099
0.00090574
0.0135087
0.027394
0.0586991
0.0489543
0.00533215
-0.0311064
-0.0315025
-0.0281514
-0.0220576
-0.0149725
-0.00802946
-0.00165366
0.00405247
0.00904666
0.0132666
0.016676
0.019296
0.0211807
0.0225253
0.0234842
0.0242892
0.0251971
0.0262969
0.0278652
0.0299018
0.0321086
0.0346967
0.0371428
0.0390938
0.0408048
0.0411124
0.0422395
0.0454065
0.0468867
0.0484061
0.0519694
0.0465491
0.0282325
0.0125174
0.0112603
0.0130847
0.0164222
0.0265459
0.0379223
0.043896
0.0445456
0.0409632
0.0320814
0.0168328
0.00731458
0.0170242
0.026866
0.0509157
0.0425571
0.00630049
-0.0231772
-0.0239816
-0.0218256
-0.0173186
-0.0118016
-0.00623331
-0.00101564
0.00373914
0.00800696
0.0117511
0.0149319
0.0176665
0.0198776
0.0216905
0.0232109
0.0245518
0.0258725
0.0272567
0.0288844
0.0308428
0.0328902
0.0351883
0.0374626
0.0392831
0.0411713
0.0422207
0.043756
0.0474754
0.0507232
0.0536226
0.0572426
0.0520422
0.036905
0.0238539
0.0218351
0.0222074
0.0229632
0.0306262
0.04112
0.0463195
0.0463655
0.0422487
0.033685
0.0212309
0.0125422
0.0202323
0.0268521
0.0428483
0.0363928
0.00755826
-0.0158107
-0.0170407
-0.0157996
-0.0124923
-0.0082069
-0.00376997
0.00045679
0.00437459
0.00798033
0.0112679
0.0142514
0.0168117
0.0190895
0.0211131
0.0229232
0.0245789
0.0261669
0.0277582
0.0294487
0.0313408
0.0332938
0.0353771
0.0375253
0.0393172
0.0412466
0.0428388
0.0445933
0.0482294
0.05169
0.0543548
0.0570998
0.0535068
0.0420291
0.0315045
0.02917
0.029054
0.028487
0.0340072
0.0433277
0.0482072
0.048091
0.042618
0.033849
0.0241724
0.0171789
0.0232716
0.0277624
0.0362183
0.0318217
0.00903645
-0.00940669
-0.0107503
-0.0100713
-0.00766172
-0.00437161
-0.000878286
0.0025093
0.00570446
0.00870231
0.0114906
0.0141219
0.0165306
0.018752
0.0208145
0.0227356
0.0245448
0.026272
0.0279677
0.0296888
0.031515
0.0333988
0.0353333
0.0373531
0.0391502
0.0410229
0.0428934
0.0447366
0.0477271
0.050934
0.0530361
0.0546818
0.0525467
0.0444896
0.0364015
0.0340645
0.0338492
0.0328789
0.0367
0.0446076
0.0493421
0.049391
0.0429326
0.0339467
0.0262865
0.0215222
0.026099
0.0293122
0.0324306
0.0302196
0.0106663
-0.00362439
-0.00494819
-0.00467946
-0.0029736
-0.000478934
0.00225043
0.00494683
0.0075319
0.0100021
0.0123707
0.0146145
0.0167672
0.0188269
0.0208094
0.022712
0.024542
0.0262993
0.0280133
0.0297255
0.0314797
0.0332852
0.0351044
0.0369827
0.0387619
0.0405376
0.042444
0.0442781
0.0466212
0.0492769
0.0508915
0.0517064
0.0504844
0.045185
0.0392986
0.0371628
0.0369284
0.0360834
0.0386248
0.0449861
0.0494145
0.0496267
0.0431998
0.0345096
0.0280542
0.025219
0.0282282
0.0305861
0.0311614
0.0303865
0.0118295
0.00158286
0.00029004
0.000281267
0.00147384
0.00335547
0.00547212
0.00759769
0.00966173
0.0116611
0.0136138
0.0155249
0.0174041
0.0192496
0.0210736
0.0228666
0.0246233
0.0263306
0.0279966
0.0296531
0.0313195
0.0330243
0.034733
0.0364647
0.0381736
0.0398354
0.0416169
0.0433528
0.0451976
0.0472422
0.0484949
0.0488524
0.0481062
0.0448043
0.0407476
0.0390103
0.0386638
0.0381164
0.0397269
0.0444603
0.048326
0.0485419
0.0429381
0.0351058
0.0294918
0.0277049
0.0291711
0.0305568
0.0303267
0.0292957
0.0117156
0.00618566
0.00499263
0.00482381
0.00563982
0.00704406
0.00866847
0.0103228
0.0119503
0.0135522
0.0151454
0.0167391
0.01834
0.0199465
0.0215683
0.0231965
0.0248188
0.0264164
0.0279827
0.0295408
0.0310978
0.0326791
0.0342662
0.0358495
0.0374356
0.0389678
0.0405546
0.0421191
0.0436061
0.045134
0.0461182
0.0462955
0.0457964
0.0438177
0.041144
0.0399857
0.0394005
0.0391039
0.0400854
0.0433078
0.0463118
0.0463092
0.0418756
0.0352218
0.0303663
0.0288411
0.0290215
0.0294168
0.0287009
0.0258875
0.0105296
0.0102767
0.00920608
0.00894235
0.0094808
0.0105156
0.0117488
0.0130226
0.0142949
0.015566
0.0168459
0.0181467
0.0194803
0.0208457
0.0222486
0.0236823
0.0251326
0.0265799
0.0280101
0.0294365
0.030862
0.032302
0.0337492
0.0351807
0.0366124
0.0379972
0.0393761
0.0407335
0.0419537
0.0431038
0.043889
0.044035
0.0436917
0.0425139
0.0406854
0.0391626
0.0393109
0.0392656
0.0398421
0.0418471
0.0438418
0.0435968
0.040173
0.0347806
0.0306458
0.0289801
0.0282237
0.0276733
0.0262613
0.0219017
0.00901673
0.0138915
0.0129483
0.0126394
0.0129792
0.0137312
0.0146584
0.0156297
0.0166094
0.017602
0.0186157
0.0196602
0.0207476
0.0218816
0.0230654
0.0242934
0.0255535
0.0268269
0.0280974
0.0293696
0.0306451
0.0319312
0.0332242
0.0344999
0.035764
0.0369882
0.0381718
0.0393193
0.0403384
0.0412303
0.0418628
0.042034
0.0418191
0.0411421
0.0400067
0.0391121
0.0389455
0.0388856
0.0391571
0.0402408
0.0413324
0.0408793
0.0381917
0.0339266
0.0303759
0.0284898
0.0270472
0.02563
0.0233917
0.0182079
0.00747575
0.0170643
0.0162532
0.0159355
0.0161364
0.0166736
0.0173591
0.0180869
0.0188271
0.0195887
0.0203825
0.0212098
0.022076
0.0229936
0.0239684
0.0249946
0.0260611
0.0271515
0.0282504
0.0293568
0.0304709
0.0315953
0.0327256
0.0338422
0.034939
0.0359991
0.0370043
0.0379469
0.0388167
0.0395353
0.0400502
0.0402514
0.0401453
0.0397722
0.0390933
0.0385105
0.0382428
0.0381363
0.0381653
0.0385835
0.0389769
0.0383396
0.0361636
0.0327746
0.0296698
0.0275981
0.0256513
0.023534
0.0205554
0.0151078
0.00609629
0.0198464
0.0191624
0.0188562
0.0189578
0.0193291
0.0198227
0.020356
0.0209058
0.0214775
0.0220833
0.0227246
0.0234057
0.0241309
0.0249131
0.0257494
0.02663
0.0275394
0.028465
0.029403
0.0303517
0.0313125
0.0322787
0.0332362
0.0341732
0.0350783
0.0359367
0.0367553
0.0374422
0.0380207
0.0384398
0.0386526
0.0386259
0.0384274
0.0380209
0.0376129
0.0373306
0.0371331
0.0369728
0.0369362
0.0368231
0.0360335
0.0341934
0.0314211
0.0286565
0.026449
0.0241342
0.0215175
0.0180352
0.0126375
0.00496669
0.0222737
0.0217032
0.0214184
0.0214504
0.0216957
0.0220409
0.0224207
0.0228178
0.0232367
0.0236866
0.0241718
0.024694
0.025255
0.0258645
0.026526
0.0272333
0.0279718
0.0287303
0.0295042
0.0302907
0.0310913
0.0318977
0.0326991
0.0334827
0.0342366
0.0349488
0.035611
0.0361854
0.0366637
0.0370065
0.0372102
0.0372284
0.0371217
0.0368626
0.0365515
0.0362489
0.0359835
0.0356682
0.0353353
0.0349088
0.0339594
0.0323196
0.0299558
0.0274434
0.0251403
0.0225732
0.019656
0.0159259
0.0107472
0.00409871
0.0243721
0.023904
0.0236482
0.0236336
0.0237834
0.024012
0.02427
0.0245445
0.0248399
0.0251633
0.0255165
0.0259031
0.0263251
0.0267895
0.0272965
0.0278461
0.0284274
0.0290306
0.0296507
0.0302843
0.0309326
0.0315873
0.03224
0.0328779
0.0334903
0.0340684
0.0346018
0.0350659
0.0354541
0.035729
0.0359053
0.0359357
0.0358669
0.0356734
0.0354062
0.0350798
0.0347447
0.0343105
0.0337826
0.0331329
0.0320803
0.0305538
0.028451
0.0261134
0.0237601
0.0210555
0.0179961
0.0142111
0.00931154
0.00344854
0.0261766
0.0257974
0.0255716
0.0255245
0.0256012
0.0257387
0.0259004
0.0260776
0.0262738
0.0264944
0.0267405
0.0270138
0.0273165
0.027656
0.028033
0.0284461
0.028887
0.0293497
0.0298296
0.030323
0.030831
0.031346
0.031861
0.0323624
0.0328441
0.0332998
0.0337188
0.034081
0.0343845
0.0345916
0.0347244
0.034742
0.0346754
0.0344961
0.0342364
0.0338816
0.0334824
0.0329564
0.0322994
0.031503
0.0303746
0.0289058
0.0269582
0.0247505
0.0223845
0.0196309
0.0165382
0.0128033
0.00821225
0.00296898
0.0277126
0.0274075
0.0272099
0.0271408
0.027162
0.0272288
0.0273153
0.0274156
0.0275327
0.0276704
0.0278288
0.0280095
0.0282139
0.0284485
0.028714
0.0290111
0.0293315
0.0296713
0.0300266
0.0303952
0.0307773
0.031165
0.0315547
0.0319354
0.0323005
0.0326431
0.0329568
0.0332245
0.033446
0.0335872
0.0336734
0.0336522
0.0335625
0.0333664
0.0330909
0.0327026
0.0322463
0.0316487
0.0309045
0.0300125
0.0288278
0.0273844
0.0255322
0.023418
0.0210714
0.018318
0.0152663
0.0116556
0.00735828
0.00261088
0.0290021
0.0287573
0.0285846
0.0285007
0.02848
0.0284925
0.0285206
0.0285608
0.0286151
0.0286864
0.0287743
0.02888
0.0290042
0.0291526
0.0293255
0.0295245
0.029743
0.0299786
0.0302268
0.0304865
0.0307575
0.0310344
0.0313139
0.0315866
0.0318475
0.0320895
0.032308
0.0324878
0.0326306
0.0327033
0.0327311
0.032666
0.0325418
0.0323138
0.032009
0.0315844
0.0310773
0.0304229
0.0296196
0.0286604
0.0274392
0.0260043
0.024209
0.0221695
0.0198521
0.0171481
0.0141715
0.0107084
0.00669385
0.00234259
0.0300641
0.029867
0.0297151
0.0296212
0.0295692
0.0295404
0.0295236
0.0295172
0.0295225
0.0295415
0.0295735
0.0296194
0.0296796
0.0297587
0.0298563
0.029975
0.0301088
0.0302575
0.0304162
0.0305851
0.0307635
0.0309459
0.0311311
0.0313091
0.0314786
0.0316318
0.0317652
0.0318658
0.0319347
0.0319428
0.031913
0.031798
0.0316326
0.0313645
0.0310249
0.0305629
0.0300117
0.0293125
0.0284659
0.0274633
0.0262141
0.0247842
0.0230248
0.0210408
0.0187669
0.0161252
0.0132506
0.00993465
0.00616312
0.00213799
0.0309136
0.0307524
0.0306169
0.0305161
0.030441
0.0303815
0.0303312
0.0302896
0.0302575
0.030236
0.0302247
0.0302242
0.0302345
0.0302595
0.0302979
0.030353
0.030419
0.0304978
0.0305838
0.0306788
0.0307805
0.0308856
0.0309926
0.0310925
0.0311858
0.0312635
0.0313244
0.0313561
0.0313598
0.0313095
0.031226
0.0310613
0.0308545
0.0305443
0.0301695
0.0296719
0.0290839
0.0283476
0.0274722
0.0264361
0.0251741
0.0237414
0.0220073
0.0200736
0.0178344
0.015274
0.0124901
0.00930793
0.00575537
0.00198534
0.0315594
0.0314238
0.0313003
0.0311949
0.0311035
0.0310222
0.0309477
0.0308806
0.0308209
0.0307697
0.0307262
0.0306914
0.0306647
0.0306493
0.0306435
0.0306505
0.0306652
0.0306909
0.030721
0.0307596
0.0308013
0.0308464
0.0308916
0.0309306
0.0309634
0.030981
0.0309836
0.0309589
0.030909
0.0308099
0.0306798
0.0304724
0.0302277
0.029879
0.0294748
0.0289438
0.0283276
0.0275632
0.0266647
0.0256112
0.0243394
0.0229084
0.0211894
0.0192945
0.017092
0.0145947
0.0119018
0.00882616
0.0054374
0.00186986
0.0320045
0.0318853
0.0317697
0.0316613
0.0315592
0.0314636
0.0313731
0.0312891
0.0312108
0.0311396
0.0310743
0.0310162
0.0309647
0.0309218
0.0308861
0.0308602
0.0308397
0.0308289
0.0308203
0.0308199
0.0308196
0.0308231
0.0308245
0.0308206
0.0308106
0.0307848
0.0307459
0.0306802
0.0305904
0.0304562
0.0302902
0.0300514
0.0297784
0.0293989
0.0289725
0.0284143
0.0277798
0.0269932
0.0260825
0.0250123
0.0237428
0.0223148
0.0206057
0.0187395
0.0165554
0.0141226
0.0114834
0.00848114
0.00522606
0.00179714
0.0322403
0.0321293
0.0320176
0.0319075
0.0317998
0.0316967
0.0315979
0.0315052
0.0314171
0.0313356
0.0312586
0.0311887
0.0311239
0.0310668
0.0310155
0.0309719
0.0309336
0.0309027
0.0308743
0.0308531
0.0308301
0.0308124
0.0307884
0.0307634
0.0307284
0.0306807
0.030619
0.0305301
0.0304194
0.0302654
0.0300788
0.0298256
0.0295339
0.0291385
0.0287014
0.0281225
0.027484
0.0266807
0.0257673
0.0246862
0.0234196
0.0219965
0.0203004
0.0184498
0.0162808
0.0138872
0.0112662
0.00829859
0.00511505
0.00176082
-0.135766
-0.145701
-0.153799
-0.160125
-0.164787
-0.166169
-0.165331
-0.159383
-0.152636
-0.13834
-0.119722
-0.127401
-0.133379
-0.13756
-0.140107
-0.13952
-0.137887
-0.132439
-0.127152
-0.121805
-0.104323
-0.109955
-0.114128
-0.116736
-0.118309
-0.118472
-0.118449
-0.116677
-0.113662
-0.11117
-0.0900747
-0.0941153
-0.0969484
-0.0988993
-0.100607
-0.101943
-0.102249
-0.101493
-0.0978634
-0.0957998
-0.0768309
-0.0797971
-0.0817887
-0.0835922
-0.0850622
-0.086349
-0.0856524
-0.0846527
-0.0815181
-0.0810893
-0.0647472
-0.066987
-0.0683763
-0.0698642
-0.0706268
-0.0712988
-0.0702336
-0.069905
-0.0685191
-0.0691604
-0.0536863
-0.0553786
-0.0562693
-0.0572632
-0.0574666
-0.0579207
-0.0574738
-0.0578999
-0.0573146
-0.0579516
-0.043575
-0.0448049
-0.0453087
-0.0458991
-0.0459821
-0.0465655
-0.046587
-0.0469842
-0.0464376
-0.0470937
-0.034344
-0.0352173
-0.0355062
-0.0358967
-0.0360539
-0.0365973
-0.0365768
-0.0366059
-0.0361882
-0.0371862
-0.0259819
-0.0266178
-0.0268222
-0.0270983
-0.0272134
-0.027461
-0.0272447
-0.0272243
-0.0273715
-0.0287743
-0.0184592
-0.0189312
-0.01907
-0.0191914
-0.0191639
-0.0192333
-0.0192017
-0.0195483
-0.0200334
-0.0211976
-0.0116989
-0.0120329
-0.0121021
-0.0121277
-0.0121113
-0.0122692
-0.012443
-0.0127585
-0.0130077
-0.0138575
-0.00564006
-0.00587958
-0.00592971
-0.00595126
-0.00597309
-0.00609241
-0.00615904
-0.00628538
-0.00653807
-0.00749858
-0.000236554
-0.000417151
-0.00045618
-0.000453806
-0.00043881
-0.000481517
-0.000536674
-0.000725362
-0.00109278
-0.00197472
0.00458365
0.00444579
0.00441862
0.00443176
0.00444234
0.00438897
0.0042943
0.00410578
0.0037911
0.00304654
0.00887558
0.00875853
0.00872599
0.00872826
0.00872646
0.00867939
0.00859739
0.00843769
0.00814345
0.00747114
0.0126889
0.0125781
0.0125355
0.0125272
0.012518
0.0124725
0.0123868
0.0122298
0.0119547
0.0113746
0.0160723
0.0159587
0.0159006
0.0158742
0.0158487
0.0157957
0.0157086
0.0155656
0.0153217
0.0148248
0.0190643
0.0189411
0.0188635
0.0188161
0.0187749
0.0187171
0.0186316
0.0184977
0.018275
0.0178476
0.0217003
0.0215656
0.0214688
0.0214009
0.021343
0.0212753
0.0211844
0.0210537
0.0208521
0.0204923
0.0240118
0.0238655
0.0237498
0.0236604
0.0235835
0.0235034
0.0234076
0.0232831
0.0231041
0.0228029
0.0260236
0.0258678
0.0257355
0.0256272
0.0255335
0.025442
0.0253414
0.0252202
0.0250572
0.0248024
0.0277631
0.0275997
0.0274552
0.0273307
0.0272206
0.0271164
0.0270089
0.0268883
0.0267382
0.0265228
0.0292502
0.0290812
0.0289264
0.0287885
0.0286648
0.0285496
0.0284354
0.0283147
0.028175
0.027991
0.0305032
0.0303305
0.0301688
0.0300214
0.0298871
0.0297624
0.0296419
0.0295199
0.0293873
0.0292269
0.0315391
0.0313641
0.0311983
0.0310444
0.0309022
0.0307698
0.0306435
0.0305195
0.0303913
0.0302479
0.0323705
0.0321942
0.032026
0.0318679
0.0317202
0.031582
0.031451
0.0313247
0.031199
0.0310672
0.0330053
0.0328281
0.0326587
0.0324983
0.0323472
0.032205
0.0320703
0.0319419
0.0318171
0.0316923
0.0334431
0.0332659
0.0330965
0.0329355
0.0327828
0.0326383
0.0325012
0.0323709
0.032246
0.0321247
0.0336708
0.0334943
0.0333257
0.0331653
0.0330127
0.0328679
0.0327302
0.0325993
0.0324743
0.0323542
0.0464784
0.0491772
0.0507719
0.0511529
0.0503088
0.0484813
0.0458666
0.042395
0.0377878
0.0316762
0.0236299
0.0131152
-0.000565476
-0.0183327
-0.0414008
-0.0713827
-0.110367
-0.159912
-0.217529
-0.251409
0.0262588
0.0272487
0.0253297
0.0221058
0.0182868
0.0138625
0.00859261
0.00217942
-0.00571401
-0.0154686
-0.0275398
-0.0425075
-0.0611282
-0.0843932
-0.113601
-0.150438
-0.196924
-0.254155
-0.31974
-0.356743
0.00618739
0.004677
-0.000431129
-0.00660773
-0.0130465
-0.0200031
-0.0279578
-0.0372964
-0.0483683
-0.0615726
-0.0774067
-0.0965045
-0.119679
-0.147977
-0.182777
-0.225866
-0.279166
-0.342893
-0.414982
-0.452841
-0.0161441
-0.0199559
-0.0271714
-0.0353
-0.0437607
-0.0529665
-0.0634368
-0.0755292
-0.0895707
-0.105971
-0.125262
-0.148118
-0.175397
-0.208188
-0.247921
-0.296485
-0.355769
-0.425242
-0.499173
-0.53762
-0.0394656
-0.0452292
-0.0539945
-0.0635854
-0.0737275
-0.0849231
-0.0976477
-0.112207
-0.12891
-0.148172
-0.170541
-0.196711
-0.227561
-0.264205
-0.308066
-0.361087
-0.42499
-0.498447
-0.571036
-0.609401
-0.061963
-0.0696264
-0.0798225
-0.0907699
-0.102494
-0.115528
-0.130277
-0.14701
-0.166033
-0.187775
-0.212789
-0.24175
-0.275514
-0.315273
-0.362333
-0.418665
-0.485421
-0.560149
-0.63005
-0.666976
-0.0828922
-0.0924654
-0.104014
-0.116287
-0.12956
-0.144331
-0.160919
-0.179566
-0.200586
-0.224409
-0.251589
-0.282796
-0.318719
-0.360752
-0.410095
-0.468319
-0.536002
-0.609704
-0.67518
-0.709556
-0.102127
-0.113618
-0.126396
-0.139925
-0.154686
-0.171078
-0.189323
-0.20964
-0.232344
-0.257859
-0.28671
-0.319548
-0.357162
-0.400576
-0.451008
-0.509652
-0.57651
-0.646901
-0.705975
-0.737121
-0.119823
-0.133047
-0.146799