/*--------------------------------*- C++ -*----------------------------------*\
| =========                 |                                                 |
| \\      /  F ield         | OpenFOAM: The Open Source CFD Toolbox           |
|  \\    /   O peration     | Version:  2512                                  |
|   \\  /    A nd           | Website:  www.openfoam.com                      |
|    \\/     M anipulation  |                                                 |
\*---------------------------------------------------------------------------*/
FoamFile
{
    version     2.0;
    format      ascii;
    arch        "LSB;label=32;scalar=64";
    class       volVectorField;
    location    "192";
    object      U;
}
// * * * * * * * * * * * * * * * * * * * * * * * * * * * * * * * * * * * * * //

dimensions      [0 1 -1 0 0 0 0];

internalField   nonuniform List<vector> 
13248
(
(-0.013816 0.0147483 7.29316e-20)
(-0.019073 0.0304416 0)
(0.000379504 0.0353232 -1.26593e-19)
(0.0422299 0.0300261 1.17213e-19)
(0.106255 0.0171779 1.08577e-19)
(0.193436 -0.000782921 0)
(0.304262 -0.0218406 0)
(0.436739 -0.0442611 2.60345e-19)
(0.584801 -0.0665157 -9.52843e-22)
(0.738371 -0.0873366 -2.2223e-19)
(0.885254 -0.105842 1.99778e-19)
(1.0139 -0.121563 -1.23989e-19)
(1.11584 -0.134334 0)
(1.18708 -0.144137 -1.84957e-19)
(1.22822 -0.151013 3.32049e-19)
(1.24355 -0.155006 -7.92892e-20)
(1.23943 -0.156162 -1.1565e-19)
(1.22271 -0.154665 1.0783e-19)
(1.19949 -0.150336 0)
(1.17388 -0.144178 0)
(1.14947 -0.134566 0)
(1.12574 -0.125536 0)
(1.10707 -0.111535 1.92438e-20)
(1.0849 -0.102424 5.33685e-20)
(-0.0117168 0.0101802 -2.19072e-19)
(-0.00991289 0.0176752 1.378e-19)
(0.0202985 0.0167344 -4.87339e-22)
(0.0786429 0.00821299 -1.76478e-19)
(0.166185 -0.00546338 -1.08427e-19)
(0.283467 -0.0217236 -1.00338e-19)
(0.427776 -0.0383275 -1.85327e-19)
(0.591019 -0.053589 1.70875e-19)
(0.760012 -0.066586 0)
(0.919432 -0.0772001 1.88235e-21)
(1.05571 -0.0858889 1.81126e-21)
(1.16001 -0.0932744 1.18911e-19)
(1.22943 -0.0997851 0)
(1.26651 -0.105505 0)
(1.2776 -0.11021 1.13078e-19)
(1.2706 -0.113508 -2.10623e-19)
(1.25299 -0.115044 1.10794e-19)
(1.23064 -0.11452 -1.03302e-19)
(1.20718 -0.111886 -4.09961e-20)
(1.18472 -0.107261 -6.5894e-20)
(1.16391 -0.100364 -2.20854e-20)
(1.14472 -0.0931031 -3.89518e-20)
(1.12847 -0.0813862 6.48198e-20)
(1.10913 -0.0763339 1.62759e-20)
(-0.00968755 0.00690336 0)
(0.00259161 0.00709589 0)
(0.0496524 0.000763034 6.33772e-20)
(0.132431 -0.0103152 5.81773e-20)
(0.251876 -0.0232703 -5.94324e-22)
(0.405087 -0.0353067 -1.00533e-19)
(0.582019 -0.0445082 0)
(0.765813 -0.0503093 -8.51351e-20)
(0.937276 -0.0534447 7.63378e-20)
(1.08049 -0.0553678 -2.05972e-21)
(1.18646 -0.057479 -1.25389e-19)
(1.25391 -0.0605687 -1.08637e-19)
(1.28778 -0.0646693 5.62355e-21)
(1.29647 -0.0692429 -7.77071e-20)
(1.28901 -0.0735088 1.93483e-19)
(1.27288 -0.0767702 0)
(1.25316 -0.0785286 -1.06704e-19)
(1.2326 -0.0786225 5.26682e-20)
(1.21246 -0.0769577 4.09528e-20)
(1.19314 -0.0738388 0)
(1.1748 -0.0690784 2.88813e-20)
(1.15765 -0.0637728 -9.1542e-20)
(1.14159 -0.0564964 8.5485e-20)
(1.12568 -0.052724 4.55191e-20)
(-0.00665552 0.00418836 -7.46297e-20)
(0.0209949 -0.00188259 -7.08752e-20)
(0.0924031 -0.0120847 6.43402e-20)
(0.208112 -0.0236092 0)
(0.365819 -0.0330118 0)
(0.55451 -0.0378018 -1.90096e-22)
(0.753548 -0.0376146 0)
(0.938883 -0.0341077 -2.47651e-19)
(1.09135 -0.0298506 2.25121e-19)
(1.20146 -0.0270564 -2.73393e-19)
(1.26957 -0.0268267 6.1483e-20)
(1.30291 -0.0290849 0)
(1.31161 -0.0329828 9.12262e-20)
(1.30532 -0.037436 -1.64544e-19)
(1.29119 -0.0415363 3.90443e-20)
(1.27358 -0.0446968 8.91867e-20)
(1.25471 -0.0466605 -8.45295e-21)
(1.23562 -0.0473478 -9.46832e-20)
(1.21683 -0.0467818 0)
(1.19871 -0.0451604 0)
(1.18175 -0.0421316 -2.84057e-20)
(1.16578 -0.0391947 2.41418e-20)
(1.15186 -0.0333663 7.7505e-20)
(1.13738 -0.0325116 -7.23664e-20)
(-0.00136272 0.00140178 -7.65435e-20)
(0.047936 -0.00990288 -7.13383e-20)
(0.151593 -0.0216071 1.97576e-19)
(0.30712 -0.0303042 -1.19497e-19)
(0.504061 -0.0326028 1.10689e-19)
(0.718856 -0.0277774 1.99672e-19)
(0.921428 -0.0183332 -1.37632e-19)
(1.08753 -0.00816062 -1.60716e-19)
(1.20595 -0.00045712 5.6272e-21)
(1.27807 0.00330181 2.01114e-19)
(1.31313 0.00328022 0)
(1.32289 0.00059212 5.04814e-20)
(1.31763 -0.00344378 0)
(1.30455 -0.00777402 -7.64516e-20)
(1.28789 -0.0117344 1.06292e-19)
(1.26983 -0.0149813 1.09841e-21)
(1.25151 -0.0173533 -2.5442e-20)
(1.23357 -0.0187725 4.53511e-20)
(1.21639 -0.0192631 3.79133e-20)
(1.20027 -0.018756 -3.25942e-20)
(1.1852 -0.0174608 2.83919e-20)
(1.17143 -0.0155979 -2.41299e-20)
(1.15853 -0.012285 0)
(1.14598 -0.0125789 -1.73047e-20)
(0.00734968 -0.00169666 7.65242e-20)
(0.0856412 -0.0169737 7.33397e-20)
(0.228809 -0.0270493 -6.60116e-20)
(0.427246 -0.028891 1.2079e-19)
(0.656725 -0.0209424 -1.11884e-19)
(0.880654 -0.00612591 9.92052e-20)
(1.06686 0.0100726 -4.65599e-20)
(1.19984 0.0230664 1.20912e-19)
(1.28074 0.0307651 -7.38055e-20)
(1.32048 0.0333265 1.24666e-19)
(1.3326 0.0321129 -2.81178e-19)
(1.32861 0.0287026 1.00359e-19)
(1.31636 0.0243457 -8.4322e-20)
(1.30041 0.0198499 7.8498e-20)
(1.28317 0.0156787 6.41096e-20)
(1.2658 0.0120875 5.36217e-20)
(1.24883 0.00921572 -1.47575e-19)
(1.23249 0.00710414 8.99947e-20)
(1.21692 0.00578663 -3.79063e-20)
(1.2021 0.00515567 9.45134e-20)
(1.18817 0.0052405 -3.04413e-20)
(1.175 0.00570348 -6.90294e-20)
(1.16278 0.0072618 6.26581e-20)
(1.15101 0.00609325 1.7299e-20)
(0.0204258 -0.00488245 0)
(0.135622 -0.0221595 3.2392e-22)
(0.323665 -0.0266938 1.34761e-19)
(0.562318 -0.0176869 -1.24496e-19)
(0.810311 0.00185879 -1.10387e-19)
(1.02433 0.0246253 2.01278e-19)
(1.18024 0.0438946 -9.17881e-20)
(1.27637 0.0564343 1.18328e-19)
(1.32468 0.0621953 -3.63413e-21)
(1.34091 0.0628038 -6.39782e-20)
(1.33857 0.0602138 1.34878e-19)
(1.32691 0.0559971 -1.94739e-19)
(1.31125 0.0511849 0)
(1.29431 0.0463761 -3.59857e-20)
(1.27729 0.0418931 -9.32148e-20)
(1.26063 0.0379002 2.93029e-20)
(1.24451 0.0344648 1.64374e-21)
(1.22901 0.0316231 -5.79346e-20)
(1.2142 0.0293509 5.49811e-21)
(1.20023 0.0276722 6.52315e-20)
(1.18709 0.0264841 -2.73547e-20)
(1.1749 0.0258362 -9.72116e-21)
(1.1635 0.0257016 3.14595e-20)
(1.15267 0.0239597 0)
(0.0385531 -0.00757737 0)
(0.198331 -0.0237445 3.69141e-20)
(0.43319 -0.0182774 -1.72942e-19)
(0.702827 0.00432404 6.1869e-20)
(0.951831 0.034304 -5.73076e-20)
(1.14115 0.0614937 -5.03455e-20)
(1.26151 0.0804597 -8.71083e-20)
(1.32422 0.0904969 4.3235e-20)
(1.34756 0.0934793 3.6989e-20)
(1.34805 0.0919152 0)
(1.33718 0.0878895 7.84259e-20)
(1.32161 0.0827766 -1.13517e-19)
(1.30461 0.0773555 8.37314e-20)
(1.28755 0.0720268 3.60008e-20)
(1.2709 0.0669899 -2.82464e-20)
(1.25484 0.0623478 -2.26052e-20)
(1.23946 0.0581665 -2.04464e-20)
(1.22482 0.0544767 6.25908e-20)
(1.211 0.0513101 0)
(1.19798 0.0486345 2.92567e-20)
(1.18577 0.046459 2.32163e-20)
(1.17425 0.0447311 -5.86388e-20)
(1.16334 0.0432059 -3.77502e-20)
(1.15305 0.0412571 3.49755e-20)
(0.0621032 -0.00898235 -4.15403e-20)
(0.272807 -0.0196429 -9.00338e-22)
(0.551697 0.000109352 3.49213e-20)
(0.838275 0.0368087 9.46038e-20)
(1.07263 0.074127 2.61384e-20)
(1.22955 0.102102 -5.01948e-20)
(1.31561 0.118345 4.54711e-20)
(1.35117 0.124795 -3.90381e-20)
(1.35678 0.124716 6.75738e-20)
(1.34738 0.120989 2.81481e-20)
(1.33178 0.115539 -7.85033e-20)
(1.31431 0.10944 2.28217e-20)
(1.29674 0.103228 3.78854e-20)
(1.27971 0.0971607 -1.85684e-20)
(1.2634 0.0913786 0)
(1.24786 0.0859676 2.63187e-20)
(1.2331 0.080978 4.33522e-20)
(1.21913 0.0764419 6.72809e-21)
(1.20593 0.0723562 -3.5085e-20)
(1.19351 0.0687245 1.43248e-20)
(1.18178 0.0655273 0)
(1.17071 0.062704 -1.07181e-20)
(1.16025 0.0600523 -9.59829e-21)
(1.15032 0.0578031 0)
(0.0909956 -0.00818596 0)
(0.356447 -0.00788196 2.00264e-20)
(0.671685 0.029283 3.6377e-20)
(0.960084 0.0783096 -9.51776e-20)
(1.16922 0.119154 2.99597e-20)
(1.2921 0.144926 0)
(1.34843 0.156919 4.2308e-20)
(1.36344 0.159304 -5.80212e-20)
(1.35715 0.156156 -3.34104e-20)
(1.34183 0.150308 1.50028e-20)
(1.32368 0.143359 -2.291e-20)
(1.3053 0.136085 5.54893e-20)
(1.28758 0.128848 2.72433e-20)
(1.27075 0.121824 -1.89653e-20)
(1.25483 0.115111 -1.97411e-21)
(1.23978 0.108769 -4.95843e-20)
(1.22558 0.102839 2.22979e-20)
(1.21222 0.0973434 -4.43483e-22)
(1.19968 0.0922978 0)
(1.18793 0.0877053 -1.43388e-20)
(1.17688 0.0835598 0)
(1.16643 0.0797623 3.0965e-20)
(1.15651 0.0762479 -3.63543e-20)
(1.14706 0.0736561 1.6301e-20)
(0.124594 -0.00426391 -1.10169e-20)
(0.445162 0.0129791 -4.99562e-20)
(0.785546 0.0688261 5.54942e-20)
(1.06294 0.126938 3.16954e-20)
(1.24161 0.167702 -1.51583e-20)
(1.33262 0.189094 2.39816e-20)
(1.36487 0.195992 -1.16546e-20)
(1.36512 0.19419 1.87739e-20)
(1.35117 0.18803 0)
(1.33242 0.18004 4.09248e-20)
(1.31297 0.171453 -1.70434e-21)
(1.29423 0.162811 -3.22289e-20)
(1.27657 0.154347 1.36273e-20)
(1.25998 0.146177 -1.51387e-20)
(1.24442 0.13837 -5.63735e-21)
(1.22983 0.130974 6.51156e-21)
(1.21616 0.124021 -4.96104e-21)
(1.20339 0.117533 -2.62384e-20)
(1.19147 0.111515 1.59783e-20)
(1.1803 0.105973 3.22629e-21)
(1.16978 0.100871 2.79266e-21)
(1.15981 0.0961144 2.41582e-21)
(1.15034 0.0918291 0)
(1.14128 0.0886071 0)
(0.161772 0.00361993 1.10303e-20)
(0.53404 0.0436064 -1.02503e-20)
(0.887149 0.117495 -1.84227e-20)
(1.14444 0.180903 0)
(1.29149 0.218599 -7.39049e-21)
(1.35471 0.23415 -6.33633e-21)
(1.36839 0.235537 -1.06085e-20)
(1.35846 0.229542 0)
(1.33979 0.220376 0)
(1.31919 0.210136 0)
(1.29917 0.199721 0)
(1.28041 0.18949 0)
(1.26296 0.179585 -8.54617e-21)
(1.24674 0.170084 3.85502e-21)
(1.23165 0.161033 6.61378e-21)
(1.21761 0.152463 3.0485e-21)
(1.20454 0.144389 7.47031e-21)
(1.1924 0.136825 0)
(1.18112 0.12977 -1.74161e-21)
(1.17061 0.123226 -1.60646e-21)
(1.16076 0.117148 -2.79703e-21)
(1.15149 0.111479 -2.4196e-21)
(1.1427 0.106468 0)
(1.13437 0.102455 1.68199e-21)
(-0.00330234 -0.016279 6.46079e-21)
(-0.015325 -0.078378 -6.17087e-21)
(-0.0382851 -0.139258 -1.14658e-20)
(-0.0670675 -0.187822 0)
(-0.0985858 -0.226633 -1.4819e-20)
(-0.130709 -0.262624 4.52085e-21)
(-0.162005 -0.300743 -8.72499e-21)
(-0.191633 -0.342515 0)
(-0.218974 -0.387306 0)
(-0.243338 -0.433621 0)
(-0.263888 -0.479634 0)
(-0.279673 -0.523272 0)
(-0.289688 -0.56224 -5.75245e-23)
(-0.292951 -0.594095 -5.72622e-21)
(-0.288584 -0.616378 1.11536e-20)
(-0.27591 -0.626771 1.59186e-20)
(-0.254552 -0.623295 5.02354e-21)
(-0.224513 -0.604488 0)
(-0.186245 -0.569554 4.67971e-21)
(-0.140682 -0.518422 -1.28599e-20)
(-0.0891593 -0.451804 -8.03113e-21)
(-0.0334613 -0.371099 -7.57853e-21)
(0.0253762 -0.278203 0)
(0.086725 -0.174509 0)
(-0.0046308 -0.00294198 -1.96379e-20)
(-0.0179588 -0.0501315 3.10158e-20)
(-0.0435648 -0.102161 -1.18459e-20)
(-0.074982 -0.14557 -2.18336e-20)
(-0.108787 -0.181878 3.01634e-20)
(-0.143018 -0.217187 -1.91465e-20)
(-0.176528 -0.255785 2.64776e-20)
(-0.208746 -0.298921 1.73469e-20)
(-0.239258 -0.346036 0)
(-0.267541 -0.395881 -1.47806e-20)
(-0.292924 -0.446891 -4.61475e-22)
(-0.314619 -0.497201 1.28021e-20)
(-0.331771 -0.544657 1.9184e-20)
(-0.343504 -0.586859 2.39969e-20)
(-0.348976 -0.621268 -1.09239e-20)
(-0.347442 -0.645336 -3.15764e-20)
(-0.338322 -0.656661 9.86168e-21)
(-0.321292 -0.65316 -3.67061e-20)
(-0.296394 -0.633243 0)
(-0.264134 -0.596013 8.48539e-21)
(-0.225445 -0.541443 8.0226e-21)
(-0.181475 -0.470361 7.57048e-21)
(-0.133325 -0.383808 0)
(-0.0837137 -0.283809 0)
(-0.00731248 0.0124476 0)
(-0.0219675 -0.0176479 6.58306e-20)
(-0.04807 -0.0605183 -2.42946e-20)
(-0.0792811 -0.0991572 2.24398e-20)
(-0.112295 -0.133119 -6.43065e-20)
(-0.145353 -0.167273 0)
(-0.177505 -0.205328 -3.80982e-20)
(-0.208348 -0.248475 1.8037e-20)
(-0.237623 -0.296384 -3.48042e-20)
(-0.264986 -0.348113 1.7451e-20)
(-0.289992 -0.402386 9.16341e-20)
(-0.312132 -0.457587 -4.25487e-20)
(-0.330871 -0.511754 -6.62043e-20)
(-0.345673 -0.562623 -2.53867e-20)
(-0.356015 -0.607711 2.94045e-22)
(-0.361388 -0.644425 8.48846e-20)
(-0.361289 -0.670174 -3.93064e-20)
(-0.355264 -0.682478 6.72624e-22)
(-0.343033 -0.679122 0)
(-0.324635 -0.658364 -2.7836e-20)
(-0.300298 -0.619157 0)
(-0.269892 -0.561146 -2.55464e-20)
(-0.233629 -0.484398 8.68969e-20)
(-0.197671 -0.390802 -1.06981e-21)
(-0.0111385 0.0275388 0)
(-0.0270906 0.0151231 1.24126e-21)
(-0.0515496 -0.0183462 2.61279e-20)
(-0.0797224 -0.0523845 -2.47695e-20)
(-0.108951 -0.0839901 2.12012e-20)
(-0.137631 -0.116522 1.28022e-19)
(-0.164855 -0.153157 -3.95911e-20)
(-0.190222 -0.195089 -3.89325e-20)
(-0.213503 -0.242198 7.16841e-20)
(-0.234448 -0.293775 -1.01234e-19)
(-0.252789 -0.348756 3.24959e-20)
(-0.268303 -0.405719 3.09317e-20)
(-0.280868 -0.462892 0)
(-0.29049 -0.518205 2.53774e-20)
(-0.297298 -0.56939 0)
(-0.301477 -0.614093 4.36276e-20)
(-0.303143 -0.649949 -7.56536e-20)
(-0.302255 -0.674627 2.12256e-20)
(-0.298637 -0.685874 6.22886e-20)
(-0.292057 -0.681517 2.78128e-20)
(-0.281955 -0.659531 0)
(-0.266487 -0.618277 -5.90031e-20)
(-0.244471 -0.557256 2.04877e-20)
(-0.221764 -0.479489 0)
(-0.0155594 0.0401084 0)
(-0.0325828 0.0444856 -8.5444e-20)
(-0.053597 0.0205854 -2.75325e-20)
(-0.0764727 -0.00859285 -5.04614e-20)
(-0.0992793 -0.0375361 4.67593e-20)
(-0.120708 -0.068135 -4.33843e-20)
(-0.139887 -0.102871 8.52233e-20)
(-0.156268 -0.142935 4.06327e-20)
(-0.169531 -0.188431 -1.11958e-19)
(-0.179413 -0.238812 7.23856e-20)
(-0.185702 -0.293091 -1.00628e-19)
(-0.188322 -0.349854 2.24426e-19)
(-0.187423 -0.407274 -1.1819e-19)
(-0.183445 -0.463213 5.52702e-20)
(-0.177147 -0.515398 1.46502e-19)
(-0.169531 -0.561632 -4.79124e-20)
(-0.161683 -0.599908 -4.38408e-20)
(-0.154612 -0.628521 -3.65354e-20)
(-0.148991 -0.646103 0)
(-0.145007 -0.651278 -4.43426e-20)
(-0.142383 -0.64238 -3.02649e-20)
(-0.138186 -0.617434 5.29947e-20)
(-0.131394 -0.575473 4.76492e-20)
(-0.114317 -0.517843 -4.09433e-20)
(-0.0197998 0.048506 0)
(-0.0376779 0.0674284 -1.20832e-19)
(-0.0537816 0.0530732 -2.12489e-21)
(-0.0694223 0.0291841 1.03912e-19)
(-0.0839192 0.00317343 0)
(-0.0959726 -0.0251611 0)
(-0.104493 -0.0576088 0)
(-0.108973 -0.0953613 -4.20697e-20)
(-0.109019 -0.13867 -1.62789e-21)
(-0.104286 -0.187134 7.46623e-20)
(-0.0945923 -0.239847 -1.04974e-19)
(-0.0799608 -0.29537 8.58457e-23)
(-0.060737 -0.35173 0)
(-0.0376933 -0.406525 -5.52364e-20)
(-0.0120698 -0.457182 4.86869e-20)
(0.0146243 -0.501295 -1.3658e-19)
(0.040675 -0.536541 1.50976e-19)
(0.0642193 -0.561313 2.14744e-20)
(0.0836436 -0.575018 -1.47266e-20)
(0.0981565 -0.577533 -9.35839e-20)
(0.105942 -0.569349 -3.17958e-20)
(0.111593 -0.549584 8.04533e-20)
(0.104405 -0.520161 -4.59854e-20)
(0.130132 -0.470016 0)
(-0.0230381 0.051931 6.61724e-20)
(-0.0414322 0.0820043 6.08561e-20)
(-0.052004 0.0767791 -5.87284e-20)
(-0.0593097 0.058412 -1.09367e-19)
(-0.0639008 0.0355767 1.01338e-19)
(-0.064873 0.00965627 -9.76388e-20)
(-0.0610492 -0.0204581 1.36929e-19)
(-0.0516043 -0.0557932 -4.26169e-20)
(-0.036121 -0.0966153 8.15665e-20)
(-0.0142868 -0.142712 0)
(0.0140281 -0.193282 7.4736e-20)
(0.0486316 -0.246882 -1.38057e-19)
(0.0888703 -0.301429 1.24732e-19)
(0.13347 -0.354362 -1.16103e-19)
(0.180376 -0.402945 0)
(0.227484 -0.444266 8.92519e-20)
(0.272799 -0.475643 1.44587e-19)
(0.314012 -0.495397 -1.35305e-19)
(0.349098 -0.502859 -5.06295e-20)
(0.378085 -0.497661 -3.34014e-20)
(0.396533 -0.4821 9.9717e-20)
(0.416891 -0.454213 1.33641e-20)
(0.408529 -0.424379 -1.83021e-20)
(0.446867 -0.369531 7.54755e-21)
(-0.024653 0.0504922 -6.61882e-20)
(-0.0430554 0.087464 1.93117e-19)
(-0.0481288 0.0902942 -6.00564e-20)
(-0.0468498 0.0774829 1.12475e-19)
(-0.0409384 0.0579395 -1.04215e-19)
(-0.0298743 0.0342448 -2.13675e-22)
(-0.0126083 0.00617927 4.65246e-20)
(0.0118919 -0.0269002 1.80961e-19)
(0.0442339 -0.0653373 2.9538e-21)
(0.0846031 -0.109022 -7.8067e-20)
(0.133022 -0.15713 0)
(0.189018 -0.208147 -6.87716e-20)
(0.251354 -0.259899 1.2803e-19)
(0.317887 -0.309729 1.12293e-19)
(0.385704 -0.354709 -5.40809e-20)
(0.451547 -0.391819 -8.0495e-22)
(0.512342 -0.418698 -3.79044e-20)
(0.565547 -0.433857 6.09999e-20)
(0.609399 -0.436881 5.062e-20)
(0.644802 -0.427303 -3.93932e-20)
(0.666713 -0.407974 2.85751e-20)
(0.692421 -0.375599 -2.04886e-20)
(0.686856 -0.341737 0)
(0.729305 -0.288082 -7.53976e-21)
(-0.0244169 0.0451404 6.90821e-20)
(-0.0421072 0.0844284 -6.47699e-20)
(-0.0421841 0.0933606 6.14094e-20)
(-0.0328097 0.0855319 0)
(-0.0165071 0.0691145 0)
(0.00678974 0.0473691 1.02669e-19)
(0.0380395 0.020889 -9.42343e-20)
(0.0782455 -0.0104893 9.1718e-20)
(0.128182 -0.0470413 -4.23341e-19)
(0.188163 -0.088496 -5.03526e-22)
(0.257934 -0.133927 7.40215e-20)
(0.336311 -0.18169 0)
(0.420876 -0.229473 -1.23923e-19)
(0.507962 -0.274521 2.25743e-19)
(0.593082 -0.313929 -1.5329e-19)
(0.671714 -0.345067 -2.0846e-19)
(0.740102 -0.365995 1.60477e-20)
(0.795598 -0.375744 1.26114e-19)
(0.837633 -0.374308 0)
(0.866545 -0.362208 0)
(0.882859 -0.341472 -2.85815e-20)
(0.895315 -0.311894 2.04938e-20)
(0.888794 -0.279405 -4.86517e-20)
(0.908261 -0.236389 4.53985e-20)
(-0.0225419 0.0373839 0)
(-0.0386867 0.0746526 0)
(-0.0344018 0.0869334 -1.85689e-19)
(-0.0176986 0.0827922 5.6937e-20)
(0.00856692 0.0688884 -1.22088e-21)
(0.0441637 0.0486131 1.01058e-19)
(0.0899569 0.0232785 0)
(0.147114 -0.0068755 -8.94485e-20)
(0.216476 -0.0417487 8.46416e-20)
(0.298202 -0.0807874 -1.57221e-19)
(0.391192 -0.122804 2.79588e-22)
(0.492626 -0.165924 1.33984e-19)
(0.597876 -0.207733 -3.85512e-21)
(0.701022 -0.245614 1.01681e-19)
(0.795863 -0.2771 -1.52088e-19)
(0.877115 -0.300282 0)
(0.941239 -0.314021 1.32492e-19)
(0.986803 -0.318126 -1.82523e-19)
(1.01501 -0.313139 4.6182e-20)
(1.02703 -0.299979 0)
(1.02836 -0.280755 2.88694e-20)
(1.02048 -0.255212 7.76122e-20)
(1.0061 -0.228413 -7.24757e-20)
(0.999622 -0.193929 -5.06979e-20)
(-0.0196413 0.02887 2.13762e-19)
(-0.0333128 0.0606509 -2.70436e-19)
(-0.0250233 0.0731423 -2.9744e-22)
(-0.00145169 0.0706924 5.81095e-20)
(0.0347991 0.0582123 -1.08468e-19)
(0.0835952 0.0390076 -1.01492e-19)
(0.145947 0.0146446 1.91142e-19)
(0.223048 -0.0142483 2.54474e-21)
(0.315487 -0.0469836 -1.66242e-19)
(0.422195 -0.0825399 3.1065e-19)
(0.539714 -0.119377 4.4365e-22)
(0.662108 -0.155501 -1.32863e-19)
(0.781718 -0.188743 0)
(0.890563 -0.21711 0)
(0.981912 -0.23903 -4.73244e-20)
(1.05147 -0.253599 -7.73957e-20)
(1.09781 -0.260535 -1.27024e-19)
(1.12246 -0.260268 1.18426e-19)
(1.12853 -0.253589 -4.62273e-20)
(1.12089 -0.241432 6.78892e-20)
(1.10417 -0.225649 -3.89163e-20)
(1.08214 -0.205096 3.25166e-20)
(1.05883 -0.186001 -9.45916e-20)
(1.03914 -0.158219 1.20019e-20)
(-0.0165177 0.0210298 7.18274e-20)
(-0.0266915 0.045164 0)
(-0.0138989 0.0549246 1.26112e-19)
(0.0172568 0.051963 -1.1677e-19)
(0.0651826 0.0398344 1.08608e-19)
(0.130208 0.02133 0)
(0.213508 -0.00193013 0)
(0.315782 -0.0286529 -8.79199e-20)
(0.435703 -0.0575874 -7.34966e-23)
(0.568774 -0.0872981 7.54386e-20)
(0.707269 -0.116177 -6.74055e-20)
(0.841444 -0.142649 1.28724e-19)
(0.961516 -0.165395 0)
(1.05965 -0.183485 1.95394e-19)
(1.13135 -0.196386 -3.5092e-19)
(1.17582 -0.20403 2.34905e-19)
(1.19575 -0.206542 1.21266e-19)
(1.19581 -0.204609 -1.13063e-19)
(1.18204 -0.198432 0)
(1.15979 -0.18929 0)
(1.13407 -0.17705 0)
(1.10773 -0.162324 0)
(1.08375 -0.148431 1.77468e-20)
(1.0649 -0.12465 -5.12701e-20)
(0.151348 -0.0512384 -4.91859e-21)
(0.230246 0.121865 4.92457e-21)
(0.300918 0.302531 -1.31859e-22)
(0.369367 0.490609 0)
(0.433602 0.659373 -3.15791e-21)
(0.489462 0.778021 5.59386e-21)
(0.53411 0.83412 -4.43745e-22)
(0.56266 0.843366 -1.95236e-21)
(0.579062 0.821567 0)
(0.593231 0.780459 0)
(0.597616 0.751304 -8.10777e-23)
(0.580816 0.759527 -8.50946e-23)
(0.55382 0.774466 -1.72624e-21)
(0.547988 0.718154 1.58498e-21)
(0.582679 0.538764 0)
(0.643621 0.253217 0)
(0.711551 -0.078869 2.09701e-21)
(0.772665 -0.378204 -2.49616e-22)
(0.816591 -0.577502 -1.63587e-21)
(0.844027 -0.664058 -7.56501e-23)
(0.853797 -0.680627 0)
(0.84953 -0.664754 0)
(0.845822 -0.632057 0)
(0.836848 -0.617702 0)
(0.80717 -0.650573 0)
(0.757676 -0.69224 0)
(0.704199 -0.653484 3.295e-22)
(0.661511 -0.479071 -5.09068e-22)
(0.641914 -0.195019 0)
(0.647069 0.111037 0)
(0.676728 0.346492 -3.5186e-22)
(0.720949 0.479274 3.41889e-22)
(0.767016 0.538741 1.0699e-22)
(0.791067 0.571146 0)
(0.777851 0.601394 0)
(0.72757 0.609911 1.92847e-22)
(0.66948 0.541289 -1.87434e-22)
(0.627614 0.361541 0)
(0.619578 0.100241 2.50431e-22)
(0.641148 -0.156347 -3.66626e-22)
(0.691516 -0.326197 9.4314e-23)
(0.723035 -0.418491 0)
(0.707708 -0.474551 -1.00312e-22)
(0.660797 -0.48886 9.75392e-23)
(0.631012 -0.417342 0)
(0.624494 -0.245209 0)
(0.649474 -0.0373035 -4.24848e-23)
(0.6673 0.179847 1.12996e-22)
(0.670073 0.346589 0)
(0.652197 0.438308 0)
(0.649216 0.414099 -2.95329e-23)
(0.645571 0.232261 -6.29203e-24)
(0.653194 0.0148988 -2.59741e-24)
(0.629699 -0.250893 2.53207e-23)
(0.616634 -0.403899 0)
(0.602316 -0.345571 0)
(0.606407 -0.211835 0)
(0.558878 0.145311 0)
(0.554295 0.315131 0)
(0.526321 0.102711 0)
(-0.0330753 -0.160005 -3.90278e-22)
(0.0544966 0.0217394 -1.65254e-20)
(0.122483 0.203876 1.19683e-21)
(0.201815 0.396922 1.4355e-20)
(0.279836 0.569648 1.63842e-22)
(0.356371 0.700351 0)
(0.424276 0.778205 -6.94481e-21)
(0.478571 0.808662 1.27655e-20)
(0.524217 0.79956 -5.8244e-21)
(0.562232 0.769776 5.17965e-21)
(0.580723 0.756588 -4.94862e-21)
(0.576031 0.775957 5.77134e-21)
(0.569658 0.784268 -5.58734e-21)
(0.593654 0.707066 -2.17197e-22)
(0.653945 0.51016 -8.72028e-21)
(0.729662 0.215575 8.46832e-21)
(0.805536 -0.11936 -8.63966e-21)
(0.866432 -0.415301 8.14012e-21)
(0.899081 -0.605541 -5.88038e-21)
(0.908551 -0.679199 1.00411e-20)
(0.901369 -0.682503 -4.22607e-21)
(0.880353 -0.659974 -1.73927e-22)
(0.860945 -0.624801 -2.19338e-21)
(0.841234 -0.602881 4.16188e-21)
(0.802656 -0.624282 -1.9732e-21)
(0.742922 -0.659406 1.24258e-22)
(0.679291 -0.623494 2.98107e-21)
(0.626627 -0.45978 6.49169e-22)
(0.599379 -0.192386 -6.71382e-21)
(0.603497 0.0950385 6.44706e-21)
(0.639208 0.319445 -3.004e-21)
(0.694728 0.451815 2.47385e-22)
(0.752969 0.520106 -1.07219e-22)
(0.787774 0.567684 1.64838e-22)
(0.784153 0.613446 0)
(0.743749 0.631578 0)
(0.696279 0.56367 -1.05161e-21)
(0.662253 0.375718 7.22902e-22)
(0.655656 0.101582 8.26114e-22)
(0.669409 -0.168509 -4.94392e-23)
(0.710798 -0.342573 -1.00653e-21)
(0.739778 -0.423004 1.48946e-22)
(0.722492 -0.465263 0)
(0.670193 -0.476622 0)
(0.637029 -0.412075 0)
(0.628984 -0.248369 0)
(0.650021 -0.0443541 1.29351e-22)
(0.664166 0.176258 -7.1749e-23)
(0.667619 0.347405 0)
(0.653375 0.440739 0)
(0.6536 0.415577 0)
(0.652012 0.232934 -7.03637e-23)
(0.661993 0.0165594 -7.01051e-24)
(0.636463 -0.245708 -4.99248e-23)
(0.618324 -0.401931 0)
(0.600219 -0.343469 0)
(0.6035 -0.20909 9.69554e-24)
(0.563318 0.15003 -4.42541e-24)
(0.564621 0.317697 0)
(0.527235 0.107081 0)
(-0.176024 -0.271671 -2.4164e-22)
(-0.0834645 -0.0938825 -2.66394e-20)
(-0.0163212 0.0844832 2.364e-20)
(0.067352 0.282327 -2.21663e-20)
(0.150698 0.458099 -1.65048e-22)
(0.240638 0.601031 0)
(0.326973 0.69765 -1.15186e-20)
(0.406215 0.746427 1.12171e-20)
(0.477811 0.753342 7.85755e-23)
(0.533536 0.742602 1.27293e-22)
(0.562462 0.748892 1.3553e-22)
(0.570174 0.776068 1.65886e-22)
(0.586365 0.773898 -1.29062e-20)
(0.638919 0.680119 1.2751e-20)
(0.720628 0.477556 0)
(0.809085 0.186631 5.38501e-22)
(0.893077 -0.143569 -1.72293e-20)
(0.954993 -0.43166 1.69826e-20)
(0.978278 -0.611896 0)
(0.970819 -0.676685 0)
(0.947952 -0.672455 -6.73468e-21)
(0.912827 -0.64728 1.17105e-20)
(0.878645 -0.612393 -9.04353e-21)
(0.849125 -0.583684 4.38236e-22)
(0.805086 -0.593085 7.15286e-21)
(0.737177 -0.623776 -7.75235e-21)
(0.663204 -0.595504 8.57545e-21)
(0.60178 -0.445724 6.28496e-22)
(0.56732 -0.195271 -5.48886e-21)
(0.569649 0.0738971 0)
(0.610134 0.286947 0)
(0.67471 0.418773 1.21351e-21)
(0.743638 0.495819 -1.62597e-21)
(0.78886 0.558484 -1.46884e-23)
(0.795887 0.621277 1.44755e-21)
(0.767112 0.65183 -1.40656e-21)
(0.730866 0.586673 0)
(0.705497 0.392881 3.00444e-22)
(0.701213 0.109527 2.86499e-21)
(0.706553 -0.172552 -5.17091e-21)
(0.736106 -0.354107 2.02595e-21)
(0.760876 -0.425797 1.668e-22)
(0.742714 -0.454802 -9.94729e-22)
(0.684593 -0.463874 7.55734e-22)
(0.646504 -0.40773 1.3112e-22)
(0.636362 -0.252532 1.13216e-22)
(0.653897 -0.0517158 -1.29695e-22)
(0.665061 0.172014 0)
(0.669531 0.347476 0)
(0.658167 0.442379 -4.61989e-22)
(0.660885 0.417173 2.39915e-22)
(0.661113 0.234072 -3.25732e-22)
(0.674121 0.0192594 4.49773e-22)
(0.647154 -0.238676 4.65622e-22)
(0.624174 -0.399269 -1.00631e-22)
(0.601702 -0.341211 8.37682e-23)
(0.604305 -0.207478 -2.59629e-23)
(0.571867 0.152623 -3.81865e-23)
(0.578764 0.32119 0)
(0.532154 0.112636 0)
(-0.229731 -0.377836 -3.85199e-20)
(-0.159837 -0.216527 1.86483e-21)
(-0.102041 -0.0393344 3.43747e-20)
(-0.0160265 0.148021 -2.87909e-22)
(0.0641185 0.328162 0)
(0.160515 0.478859 0)
(0.259107 0.590516 -1.64685e-20)
(0.355092 0.658152 9.54284e-22)
(0.440395 0.687343 2.1793e-20)
(0.503218 0.701812 5.55633e-22)
(0.537656 0.727592 -7.7192e-21)
(0.558205 0.75764 -9.66854e-21)
(0.599201 0.742389 9.63389e-21)
(0.679152 0.638508 0)
(0.77806 0.442384 -1.62038e-20)
(0.877463 0.163954 1.46846e-20)
(0.972149 -0.158405 0)
(1.03845 -0.437777 0)
(1.05488 -0.606927 1.12785e-20)
(1.03162 -0.663948 -2.49162e-21)
(0.99319 -0.654429 -7.98966e-21)
(0.94644 -0.627679 -4.99769e-21)
(0.899797 -0.595738 4.93769e-21)
(0.860229 -0.563463 -3.42351e-21)
(0.812163 -0.560094 1.93602e-22)
(0.740012 -0.583231 3.03485e-21)
(0.65715 -0.563378 4.40276e-22)
(0.587182 -0.432424 6.47125e-23)
(0.546255 -0.202288 0)
(0.545835 0.0485413 4.37534e-21)
(0.588884 0.249649 -4.47194e-21)
(0.659916 0.379909 2.13151e-22)
(0.737586 0.465623 0)
(0.793546 0.543733 -1.521e-22)
(0.812818 0.622672 2.87901e-21)
(0.795428 0.665322 -6.19712e-21)
(0.770149 0.605555 -1.77712e-21)
(0.754322 0.410742 -9.04062e-22)
(0.753978 0.122223 4.77947e-21)
(0.752259 -0.169577 6.15212e-22)
(0.76789 -0.361388 -3.26678e-21)
(0.785733 -0.428 2.8563e-21)
(0.767386 -0.443631 5.8639e-25)
(0.7036 -0.449555 5.63325e-22)
(0.659034 -0.403109 -6.79244e-22)
(0.646173 -0.257568 -6.61645e-22)
(0.660906 -0.0600054 2.22237e-22)
(0.669833 0.166393 3.20396e-22)
(0.675406 0.346674 -6.92018e-22)
(0.666244 0.443671 5.85966e-22)
(0.670805 0.419282 -3.45292e-22)
(0.672561 0.235781 2.60218e-22)
(0.689293 0.0223777 3.51575e-22)
(0.661653 -0.230206 -7.77017e-22)
(0.634198 -0.395704 5.98089e-23)
(0.606804 -0.338661 -6.00736e-23)
(0.60861 -0.206993 0)
(0.584054 0.153193 1.71518e-23)
(0.59648 0.325405 -2.3864e-23)
(0.541182 0.119275 0)
(-0.158857 -0.441852 2.26679e-20)
(-0.148523 -0.317739 -4.21634e-20)
(-0.126565 -0.154676 1.93704e-20)
(-0.0588122 0.0124652 1.52651e-20)
(0.0141644 0.189199 -2.81033e-20)
(0.102523 0.342145 2.03747e-21)
(0.204665 0.467371 1.06367e-20)
(0.305588 0.555379 9.31034e-21)
(0.393688 0.611039 -9.13112e-21)
(0.458491 0.652487 0)
(0.499502 0.694836 -1.37406e-20)
(0.537542 0.722849 2.97553e-20)
(0.606315 0.6943 -1.59954e-20)
(0.710734 0.587233 0)
(0.824198 0.404011 0)
(0.937648 0.14143 5.10485e-22)
(1.04578 -0.166983 -3.12455e-20)
(1.11534 -0.430963 3.03315e-20)
(1.12443 -0.586034 0)
(1.08737 -0.637298 1.67122e-20)
(1.03516 -0.627181 -2.77238e-20)
(0.979194 -0.601169 2.07758e-20)
(0.923421 -0.573896 -1.61938e-20)
(0.875567 -0.541963 1.04778e-21)
(0.824667 -0.52782 1.10653e-20)
(0.751129 -0.542342 -5.21496e-21)
(0.661814 -0.530318 -1.96273e-22)
(0.583345 -0.420248 -3.334e-21)
(0.536038 -0.212418 -3.37987e-22)
(0.531988 0.0195513 3.69504e-21)
(0.574779 0.208424 2.24584e-22)
(0.649002 0.336514 -2.3316e-21)
(0.733871 0.428969 4.32548e-21)
(0.800527 0.520158 -2.22658e-21)
(0.832058 0.616477 0)
(0.827704 0.675314 -4.22599e-21)
(0.814613 0.624721 4.26557e-21)
(0.807504 0.431752 -5.27024e-21)
(0.811523 0.140868 6.55571e-21)
(0.804552 -0.158335 -6.97566e-22)
(0.805656 -0.362368 0)
(0.813774 -0.42846 -3.45375e-22)
(0.795605 -0.431779 6.53929e-22)
(0.726834 -0.433618 0)
(0.674361 -0.397753 9.18474e-22)
(0.657956 -0.263433 -4.0306e-22)
(0.670631 -0.069391 1.41707e-22)
(0.678232 0.159337 7.43589e-23)
(0.685142 0.344681 0)
(0.677644 0.44395 0)
(0.683208 0.421503 -9.72353e-22)
(0.686012 0.237806 1.80236e-21)
(0.70722 0.0256329 -1.10748e-21)
(0.679859 -0.220316 4.44934e-22)
(0.648294 -0.391079 4.68174e-22)
(0.615487 -0.335775 6.0138e-23)
(0.616126 -0.20757 1.12477e-22)
(0.599353 0.151672 0)
(0.617489 0.330083 4.01813e-23)
(0.554347 0.126893 -5.5677e-23)
(0.0555563 -0.425238 9.85003e-21)
(-0.012443 -0.352492 -9.70483e-21)
(-0.0454393 -0.234113 9.41585e-23)
(-0.0311519 -0.0915436 1.17914e-23)
(0.00665771 0.0594495 6.77661e-23)
(0.0689116 0.209643 -5.43001e-23)
(0.154434 0.342208 -2.62652e-23)
(0.245578 0.447278 0)
(0.329776 0.527038 -1.59659e-23)
(0.397371 0.59188 5.03761e-23)
(0.450852 0.64621 8.90708e-23)
(0.513503 0.669253 -2.00213e-22)
(0.612232 0.630452 0)
(0.737454 0.527234 0)
(0.86368 0.361539 3.40486e-22)
(0.992677 0.117797 0)
(1.11437 -0.172018 -4.29607e-22)
(1.18541 -0.416541 0)
(1.18661 -0.556263 -1.93738e-20)
(1.13787 -0.602447 3.40539e-20)
(1.07391 -0.594372 -2.56284e-20)
(1.01073 -0.57022 1.09565e-20)
(0.948317 -0.547457 6.45853e-21)
(0.893209 -0.519538 -6.26931e-21)
(0.840847 -0.497908 -4.46715e-21)
(0.769455 -0.501545 4.32709e-21)
(0.677038 -0.494692 0)
(0.590571 -0.406944 1.23746e-22)
(0.536335 -0.223621 0)
(0.527066 -0.0106334 0)
(0.566597 0.165042 4.22463e-21)
(0.641022 0.288737 -4.35788e-21)
(0.731035 0.385762 1.72726e-22)
(0.807878 0.489673 2.27829e-22)
(0.853122 0.601595 -2.34876e-22)
(0.86156 0.675309 -3.74702e-21)
(0.858259 0.637795 3.6376e-21)
(0.85976 0.451904 -6.85108e-21)
(0.870101 0.163207 5.95544e-21)
(0.860946 -0.139935 1.42855e-21)
(0.848609 -0.356915 -3.62783e-21)
(0.844424 -0.42724 8.40612e-22)
(0.826267 -0.4197 1.81212e-21)
(0.753783 -0.415768 0)
(0.692232 -0.390859 -3.5521e-22)
(0.6713 -0.269757 2.16405e-22)
(0.682718 -0.080083 -3.3517e-22)
(0.689926 0.14994 -7.48575e-23)
(0.698228 0.341145 0)
(0.691885 0.444316 3.24639e-22)
(0.697756 0.42471 -4.88613e-22)
(0.701217 0.240351 2.66788e-23)
(0.727606 0.029057 -4.33985e-22)
(0.701556 -0.209229 5.59423e-22)
(0.666242 -0.385263 -5.00496e-22)
(0.627683 -0.332444 0)
(0.62655 -0.209016 -1.12543e-22)
(0.617184 0.148045 0)