/*--------------------------------*- C++ -*----------------------------------*\
| =========                 |                                                 |
| \\      /  F ield         | OpenFOAM: The Open Source CFD Toolbox           |
|  \\    /   O peration     | Version:  2512                                  |
|   \\  /    A nd           | Website:  www.openfoam.com                      |
|    \\/     M anipulation  |                                                 |
\*---------------------------------------------------------------------------*/
FoamFile
{
    version     2.0;
    format      ascii;
    arch        "LSB;label=32;scalar=64";
    class       volScalarField;
    location    "12.4";
    object      p;
}
// * * * * * * * * * * * * * * * * * * * * * * * * * * * * * * * * * * * * * //

dimensions      [0 2 -2 0 0 0 0];

internalField   nonuniform List<scalar> 
13248
(
-0.339978
-0.338866
-0.336372
-0.332791
-0.328756
-0.325161
-0.322954
-0.322921
-0.325432
-0.330586
-0.338007
-0.346984
-0.356592
-0.365815
-0.373677
-0.379357
-0.382245
-0.382079
-0.378718
-0.37266
-0.363689
-0.352983
-0.338879
-0.322512
-0.340842
-0.340178
-0.337833
-0.334265
-0.330157
-0.326338
-0.323635
-0.322746
-0.324038
-0.327478
-0.332633
-0.338765
-0.344976
-0.350362
-0.354145
-0.355785
-0.355017
-0.351837
-0.346447
-0.339083
-0.329939
-0.319247
-0.30662
-0.293731
-0.344445
-0.343707
-0.341352
-0.337906
-0.333973
-0.330128
-0.327095
-0.325403
-0.325289
-0.326639
-0.329018
-0.331768
-0.334167
-0.335571
-0.335531
-0.333834
-0.330457
-0.325538
-0.319153
-0.311501
-0.302504
-0.292432
-0.281222
-0.269638
-0.350719
-0.3494
-0.346799
-0.343326
-0.339365
-0.335407
-0.331907
-0.329189
-0.327362
-0.326284
-0.325605
-0.324865
-0.323622
-0.321557
-0.318504
-0.314413
-0.30931
-0.303212
-0.296162
-0.288208
-0.279348
-0.269891
-0.259626
-0.249694
-0.359304
-0.356994
-0.353831
-0.350012
-0.345796
-0.341445
-0.337159
-0.333061
-0.32918
-0.325441
-0.321681
-0.31771
-0.313372
-0.30857
-0.303247
-0.297375
-0.290924
-0.283895
-0.276292
-0.268145
-0.259494
-0.250457
-0.240999
-0.231839
-0.369971
-0.366424
-0.362449
-0.358034
-0.353238
-0.348076
-0.3425
-0.336513
-0.330201
-0.323673
-0.317009
-0.31025
-0.303406
-0.296455
-0.28936
-0.282074
-0.274561
-0.266789
-0.258743
-0.250425
-0.241844
-0.233086
-0.224117
-0.215497
-0.382789
-0.377853
-0.372924
-0.367679
-0.361879
-0.355271
-0.347683
-0.339209
-0.330152
-0.320855
-0.311581
-0.302481
-0.293604
-0.284934
-0.276419
-0.267997
-0.259609
-0.25121
-0.242772
-0.234278
-0.225744
-0.217178
-0.208598
-0.200359
-0.397902
-0.391492
-0.385501
-0.379114
-0.371675
-0.362761
-0.352359
-0.340889
-0.328941
-0.317019
-0.305447
-0.29437
-0.283811
-0.273723
-0.264031
-0.25466
-0.245541
-0.23662
-0.227857
-0.219223
-0.2107
-0.202276
-0.193995
-0.186
-0.415285
-0.407355
-0.400138
-0.392114
-0.382165
-0.369999
-0.356107
-0.341354
-0.326538
-0.312197
-0.298599
-0.285819
-0.273823
-0.26253
-0.251847
-0.241685
-0.231964
-0.222618
-0.213591
-0.204841
-0.196333
-0.188047
-0.180012
-0.172223
-0.434528
-0.425093
-0.416363
-0.405957
-0.39248
-0.37623
-0.358433
-0.340336
-0.322792
-0.306242
-0.290834
-0.276553
-0.263306
-0.250979
-0.239458
-0.22864
-0.218431
-0.208753
-0.199538
-0.190728
-0.182269
-0.17413
-0.166303
-0.158686
-0.454827
-0.443913
-0.433207
-0.419431
-0.401413
-0.380491
-0.35864
-0.337296
-0.317207
-0.298643
-0.281612
-0.266007
-0.251679
-0.238479
-0.226271
-0.214933
-0.204359
-0.194456
-0.185143
-0.176347
-0.168005
-0.160074
-0.152489
-0.145129
-0.474961
-0.462617
-0.449261
-0.430998
-0.407578
-0.381667
-0.35581
-0.331412
-0.309003
-0.288643
-0.270198
-0.253469
-0.238254
-0.224366
-0.211644
-0.199945
-0.189147
-0.179144
-0.169842
-0.16116
-0.153033
-0.145412
-0.138203
-0.131312
-0.251303
-0.25942
-0.266394
-0.275813
-0.288506
-0.304063
-0.322003
-0.341848
-0.363096
-0.385218
-0.407664
-0.429874
-0.451288
-0.471357
-0.489563
-0.505431
-0.51854
-0.528529
-0.535088
-0.537964
-0.536998
-0.532167
-0.523527
-0.511064
-0.260684
-0.268043
-0.27472
-0.284039
-0.29675
-0.312431
-0.330583
-0.350709
-0.372282
-0.394749
-0.417535
-0.440057
-0.461733
-0.481998
-0.500321
-0.516217
-0.52926
-0.539096
-0.545444
-0.548076
-0.546809
-0.54152
-0.53223
-0.519189
-0.276312
-0.282166
-0.288168
-0.297106
-0.309578
-0.325151
-0.343315
-0.363549
-0.385306
-0.408007
-0.431055
-0.453844
-0.475771
-0.496257
-0.514756
-0.530774
-0.543883
-0.55373
-0.560048
-0.562633
-0.561307
-0.555936
-0.54664
-0.534247
-0.295031
-0.29883
-0.303844
-0.31213
-0.324064
-0.339214
-0.357054
-0.37705
-0.398638
-0.421227
-0.444202
-0.466942
-0.488833
-0.509283
-0.527738
-0.543702
-0.556747
-0.566518
-0.572742
-0.575231
-0.57395
-0.569025
-0.560209
-0.54647
-0.313417
-0.31487
-0.318662
-0.326025
-0.337087
-0.351427
-0.368518
-0.387807
-0.408732
-0.430712
-0.453129
-0.475367
-0.496812
-0.516873
-0.534999
-0.550695
-0.563544
-0.573206
-0.579431
-0.582009
-0.581119
-0.575964
-0.568091
-0.554169
-0.328667
-0.327812
-0.330255
-0.336366
-0.346144
-0.359205
-0.375046
-0.393079
-0.412765
-0.433557
-0.45484
-0.476032
-0.496532
-0.515763
-0.533183
-0.548308
-0.560732
-0.570107
-0.576289
-0.578802
-0.578337
-0.573344
-0.566411
-0.553179
-0.339276
-0.33651
-0.337469
-0.341982
-0.349978
-0.361186
-0.375137
-0.391302
-0.409151
-0.428147
-0.447742
-0.467374
-0.486476
-0.504497
-0.520932
-0.535324
-0.547188
-0.556225
-0.562514
-0.565139
-0.565254
-0.560567
-0.554207
-0.541279
-0.345047
-0.341051
-0.340563
-0.343144
-0.34879
-0.357453
-0.368815
-0.382431
-0.397821
-0.41449
-0.431932
-0.449625
-0.467042
-0.483663
-0.498909
-0.512452
-0.524131
-0.53322
-0.53979
-0.542838
-0.543481
-0.53924
-0.533006
-0.519856
-0.346809
-0.34242
-0.340742
-0.341274
-0.344168
-0.349674
-0.357755
-0.368158
-0.380527
-0.394448
-0.409466
-0.42509
-0.440794
-0.456094
-0.470762
-0.48414
-0.49574
-0.505012
-0.511817
-0.515238
-0.515875
-0.511701
-0.50474
-0.490655
-0.345895
-0.341894
-0.339468
-0.33819
-0.338365
-0.340537
-0.345017
-0.351862
-0.360945
-0.372001
-0.384649
-0.398341
-0.412828
-0.427594
-0.441863
-0.454981
-0.466323
-0.475279
-0.481384
-0.484021
-0.483403
-0.478365
-0.470105
-0.45486
-0.343655
-0.34057
-0.337867
-0.335292
-0.333274
-0.332569
-0.33381
-0.337396
-0.343486
-0.351979
-0.362629
-0.375128
-0.388701
-0.402595
-0.41598
-0.428034
-0.437916
-0.445008
-0.448702
-0.448808
-0.445469
-0.438531
-0.429256
-0.414383
-0.341295
-0.339291
-0.336634
-0.33332
-0.329892
-0.327221
-0.326163
-0.327379
-0.331325
-0.338003
-0.347134
-0.358153
-0.370221
-0.382392
-0.39368
-0.40317
-0.410008
-0.413722
-0.41378
-0.410462
-0.403646
-0.39421
-0.38325
-0.370429
-0.49184
-0.46227
-0.425327
-0.380783
-0.329458
-0.271706
-0.209053
-0.143556
-0.0779515
-0.0156436
0.039172
0.0832109
0.114169
0.131923
0.138261
0.136003
0.128267
0.11771
0.106255
0.0950158
0.0845569
0.0751227
0.0667623
0.0594255
0.0530019
0.0473756
0.0424346
0.0381061
0.0342923
0.0309142
0.0279091
0.0252286
0.0228323
0.0206881
0.0187706
0.017056
0.015523
0.0141501
0.0129199
0.0118128
0.010818
0.00991626
0.00910483
0.00836055
0.00769123
0.00706617
0.00650401
0.00596845
0.00547986
0.00501191
0.00456306
0.00414169
0.00370563
0.00329726
0.00285836
0.00242128
0.00195025
0.00145803
0.000905259
0.0003252
-0.500012
-0.46956
-0.432322
-0.38695
-0.335074
-0.276836
-0.213799
-0.147889
-0.0820735
-0.0195364
0.0356305
0.0799102
0.111078
0.129255
0.136068
0.134349
0.12704
0.116816
0.105562
0.0944689
0.0841551
0.0748432
0.0665631
0.059283
0.0529077
0.0473475
0.0424511
0.0381425
0.0343317
0.0309585
0.0279574
0.0252786
0.022881
0.0207334
0.0188117
0.0170929
0.0155561
0.0141799
0.0129466
0.0118372
0.0108397
0.00993637
0.00912223
0.00837722
0.00770499
0.00707997
0.00651497
0.00597939
0.0054893
0.00501959
0.00457201
0.00414645
0.00371358
0.0033007
0.00286422
0.00242376
0.00195494
0.00145821
0.000908583
0.000322229
-0.517462
-0.486781
-0.450231
-0.405502
-0.354123
-0.296505
-0.233764
-0.167975
-0.101615
-0.0374548
0.0191057
0.0651226
0.0983222
0.118428
0.127086
0.127255
0.121553
0.112642
0.102488
0.0922726
0.0826126
0.0737813
0.0658597
0.0588032
0.0525519
0.047021
0.042171
0.0380028
0.0342538
0.0309118
0.027935
0.0252769
0.0228929
0.0207527
0.0188344
0.0171168
0.0155798
0.0142029
0.0129682
0.0118576
0.0108584
0.00995409
0.00913774
0.0083924
0.00771752
0.00709283
0.00652515
0.00598976
0.00549832
0.00502695
0.00458083
0.0041511
0.00372162
0.00330424
0.00287036
0.00242653
0.00196002
0.00145878
0.000912226
0.000319438
-0.53439
-0.503723
-0.46896
-0.425572
-0.375925
-0.319986
-0.258919
-0.194123
-0.128068
-0.0641418
-0.00640066
0.0414823
0.07712
0.099964
0.111557
0.114618
0.111754
0.10519
0.0969294
0.0881913
0.0796413
0.0716283
0.0642981
0.0576801
0.0517747
0.0465322
0.041884
0.0376788
0.0340121
0.0307622
0.0278335
0.0252158
0.0228619
0.0207413
0.0188357
0.0171257
0.015593
0.0142185
0.0129848
0.0118746
0.0108746
0.00997018
0.00915214
0.00840687
0.00772962
0.00710546
0.00653526
0.00600017
0.00550746
0.00503457
0.00458992
0.00415615
0.00373007
0.00330829
0.00287704
0.00242992
0.00196567
0.00146004
0.000916305
0.000317004
-0.54144
-0.516223
-0.483295
-0.44324
-0.396291
-0.343096
-0.284445
-0.221753
-0.157151
-0.0940132
-0.0361299
0.0128756
0.0505104
0.0761215
0.0909811
0.0975405
0.0983679
0.0949949
0.0892771
0.082544
0.0755375
0.068677
0.0621897
0.056182
0.0506947
0.0457332
0.0412767
0.0372537
0.0336929
0.0305182
0.0276696
0.0251063
0.0227921
0.0207003
0.018815
0.0171186
0.0155945
0.0142256
0.012995
0.0118869
0.0108875
0.00998381
0.0091648
0.00842011
0.00774089
0.00711755
0.00654507
0.00601047
0.00551659
0.00504238
0.00459915
0.00416165
0.00373881
0.00331292
0.0028842
0.00243397
0.00197184
0.00146206
0.000920783
0.000315015
-0.539491
-0.517292
-0.488951
-0.452919
-0.409919
-0.36059
-0.305784
-0.246552
-0.184778
-0.123541
-0.0665338
-0.0173253
0.0216023
0.0496667
0.0678347
0.0781187
0.0827297
0.0831051
0.0803598
0.0758999
0.0706411
0.0651038
0.0595927
0.0542931
0.049323
0.0447388
0.0405566
0.0367372
0.0332597
0.0301864
0.0274157
0.0249448
0.0226852
0.0206305
0.018773
0.0170956
0.0155842
0.0142238
0.0129987
0.0118943
0.0108967
0.00999469
0.00917546
0.00843184
0.00775112
0.00712885
0.00655438
0.00602045
0.00552551
0.00505027
0.00460829
0.00416754
0.00374763
0.00331809
0.00289168
0.00243866
0.00197837
0.00146485
0.000925547
0.000313555
-0.52544
-0.506419
-0.484564
-0.453811
-0.414459
-0.368783
-0.318115
-0.263995
-0.207264
-0.149984
-0.0952527
-0.0466875
-0.00706742
0.0229821
0.0442526
0.0580909
0.0662161
0.0702282
0.0707098
0.0686766
0.0652394
0.0610981
0.0566438
0.0521299
0.0477376
0.0435753
0.0396971
0.036123
0.0328403
0.0298116
0.0270385
0.0247152
0.0225402
0.0205326
0.0187098
0.0170568
0.015562
0.0142132
0.0129957
0.0118967
0.0109021
0.0100027
0.00918401
0.00844193
0.00776021
0.00713924
0.00656311
0.00603004
0.0055341
0.0050582
0.00461721
0.00417382
0.00375638
0.00332379
0.00289931
0.002444
0.00198511
0.00146846
0.000930494
0.000312767
-0.50157
-0.484413
-0.469066
-0.444045
-0.409487
-0.368605
-0.322435
-0.272246
-0.220729
-0.170017
-0.120056
-0.0735013
-0.0338672
-0.0023471
0.021536
0.0385776
0.0499254
0.0568608
0.0604329
0.0609848
0.0594558
0.0567529
0.0534006
0.0497163
0.0459391
0.0422334
0.0386955
0.0353702
0.0322857
0.0294287
0.0269187
0.0244489
0.0223571
0.0204105
0.0186285
0.0170036
0.0155285
0.0141938
0.0129859
0.0118939
0.0109036
0.0100077
0.00919036
0.00845028
0.00776812
0.00714863
0.00657121
0.00603914
0.00554229
0.00506615
0.00462575
0.00418052
0.00376487
0.00333007
0.00290696
0.00245
0.00199192
0.00147298
0.000935516
0.000312861
-0.469426
-0.453349
-0.443809
-0.424165
-0.394737
-0.359555
-0.319345
-0.274844
-0.228256
-0.182808
-0.139248
-0.096593
-0.0580304
-0.0257163
0.000141134
0.0198355
0.0339976
0.0436032
0.0495635
0.0526452
0.0531596
0.0519898
0.0498043
0.0470246
0.0439446
0.0407615
0.0376075
0.034567
0.0316904
0.0290079
0.0264959
0.0242537
0.0221607
0.0202576
0.018524
0.0169331
0.0154822
0.0141648
0.012969
0.0118856
0.0109011
0.0100096
0.00919443
0.00845674
0.00777477
0.00715686
0.00657862
0.00604766
0.00554997
0.0050741
0.00463376
0.00418769
0.00377296
0.00333695
0.00291449
0.00245673
0.00199865
0.00147851
0.000940497
0.000314111
-0.430891
-0.416658
-0.411642
-0.396304
-0.372373
-0.34374
-0.310269
-0.272493
-0.232203
-0.191849
-0.153359
-0.115446
-0.0792481
-0.0470651
-0.0199066
0.00183663
0.0184258
0.0304356
0.0386816
0.0438407
0.0463905
0.0468711
0.0458988
0.0440085
0.0416187
0.0389856
0.0362679
0.0335677
0.0309528
0.0284637
0.0261332
0.0239075
0.0219314
0.0200741
0.0184011
0.0168485
0.0154248
0.0141275
0.0129457
0.0118724
0.0108946
0.0100082
0.0091961
0.00846111
0.00778008
0.00716379
0.00658529
0.00605551
0.00555709
0.00508205
0.00464115
0.00419538
0.00378051
0.00334449
0.00292177
0.00246425
0.00200513
0.0014852
0.000945354
0.000316926
-0.391302
-0.381604
-0.379243
-0.367065
-0.34862
-0.326396
-0.299537
-0.268214
-0.233774
-0.198079
-0.16346
-0.129332
-0.0961889
-0.0651758
-0.0375335
-0.0144294
0.00392343
0.0178049
0.027823
0.034693
0.0390473
0.0412237
0.0417745
0.0410011
0.0393864
0.0372967
0.0349761
0.0325751
0.0301876
0.0278743
0.0256705
0.0235822
0.0216115
0.0197719
0.0182277
0.0167395
0.01535
0.0140763
0.0129121
0.0118517
0.0108833
0.0100035
0.00919591
0.00846413
0.00778482
0.00717011
0.00659177
0.00606312
0.00556388
0.00509015
0.00464786
0.00420361
0.00378728
0.00335268
0.00292846
0.00247256
0.00201104
0.00149308
0.000949916
0.000321947
-0.358076
-0.354475
-0.350916
-0.339956
-0.326021
-0.309705
-0.289787
-0.265904
-0.238499
-0.208307
-0.176922
-0.145506
-0.114971
-0.0860487
-0.0587561
-0.0345345
-0.0141799
0.00217704
0.014745
0.0239631
0.0303269
0.0341923
0.0361015
0.0366718
0.0361791
0.0349475
0.0332677
0.0313401
0.0293012
0.027245
0.0252328
0.0232883
0.0213989
0.0197617
0.0180632
0.0166256
0.0152797
0.0140322
0.0128846
0.0118352
0.0108736
0.00999866
0.00919406
0.0084646
0.00778666
0.00717316
0.00659527
0.00606774
0.00556789
0.0050963
0.00465183
0.00421108
0.0037916
0.00336065
0.00293343
0.00248098
0.00201548
0.00150171
0.000953397
0.000329607
-0.329677
-0.340479
-0.333859
-0.320282
-0.305193
-0.289189
-0.27114
-0.250009
-0.225668
-0.198738
-0.17048
-0.141934
-0.113785
-0.0868776
-0.0617549
-0.0392041
-0.0199011
-0.00408175
0.00836317
0.0177505
0.0245042
0.0290424
0.0317715
0.0330621
0.0332022
0.0325201
0.0313055
0.0297653
0.0280422
0.0262393
0.0244295
0.022653
0.0209577
0.0193451
0.0178656
0.0164054
0.0150957
0.0138843
0.012768
0.0117439
0.0108047
0.00994538
0.00915634
0.00843471
0.00776844
0.00715787
0.00658868
0.00606276
0.00556701
0.0050994
0.0046534
0.00421905
0.00379581
0.00336971
0.00293976
0.00249065
0.00202061
0.00151128
0.000956119
0.000338331
-0.295355
-0.310283
-0.306836
-0.293568
-0.278302
-0.263084
-0.247056
-0.22881
-0.207817
-0.184445
-0.159618
-0.134318
-0.109321
-0.0853693
-0.0629216
-0.0424677
-0.0245881
-0.0096046
0.00249215
0.0119075
0.0189681
0.0239863
0.0272307
0.0290222
0.0296864
0.0295182
0.0287707
0.0276393
0.0262676
0.024762
0.0232015
0.021633
0.0200914
0.0186233
0.0171676
0.0159303
0.0147165
0.0135783
0.0125214
0.0115451
0.0106445
0.00981612
0.00905261
0.0083509
0.00770201
0.00710383
0.00654687
0.00602859
0.00554103
0.00507912
0.00463726
0.00420844
0.00378662
0.00336477
0.00293601
0.00248932
0.0020192
0.0015128
0.000954823
0.000342046
-0.265409
-0.281542
-0.280538
-0.269091
-0.254993
-0.241029
-0.226849
-0.211136
-0.193138
-0.172942
-0.151219
-0.128856
-0.106602
-0.085048
-0.0646563
-0.0458641
-0.029155
-0.0148688
-0.00307458
0.00635196
0.0136322
0.0189926
0.0226679
0.0249533
0.0261395
0.0264774
0.026191
0.0254669
0.0244492
0.0232468
0.0219412
0.0205907
0.0192393
0.0179319
0.016691
0.0154551
0.0143158
0.013245
0.0122446
0.0113153
0.0104543
0.00965835
0.0089224
0.00824273
0.00761322
0.00702975
0.00648656
0.00597809
0.00550014
0.00504524
0.00460949
0.00418631
0.00376818
0.00335056
0.00292465
0.00248067
0.00201222
0.00150884
0.00095029
0.000342867
-0.240247
-0.25453
-0.254961
-0.245687
-0.233208
-0.220562
-0.207906
-0.194235
-0.178716
-0.16123
-0.142255
-0.122542
-0.102772
-0.0834832
-0.06512
-0.0480627
-0.0326809
-0.0192772
-0.00797215
0.00127945
0.00861154
0.0141974
0.0182367
0.0209644
0.0226195
0.0234204
0.0235672
0.0232346
0.0225632
0.0216622
0.020616
0.0194885
0.0183283
0.0171701
0.0160352
0.0149263
0.0138763
0.0128802
0.0119424
0.0110648
0.010247
0.00948631
0.00878027
0.0081244
0.00751588
0.00694831
0.00641999
0.00592233
0.00545451
0.00500765
0.00457817
0.00416146
0.00374724
0.00333429
0.00291145
0.00247068
0.00200397
0.00150401
0.000945588
0.00034319
-0.215871
-0.229226
-0.230787
-0.223456
-0.212679
-0.201441
-0.190213
-0.178309
-0.164964
-0.149937
-0.133523
-0.116309
-0.0988911
-0.0817631
-0.065322
-0.0498952
-0.0357829
-0.0232558
-0.0124731
-0.00345664
0.00386518
0.00961949
0.0139593
0.0170621
0.019126
0.0203444
0.0208948
0.0209355
0.020601
0.0199988
0.0192133
0.0183093
0.0173365
0.0163373
0.0153417
0.0143532
0.0133971
0.0124809
0.0116105
0.0107891
0.0100182
0.00929624
0.00862298
0.00799344
0.00740798
0.00685821
0.00634617
0.00586074
0.00540401
0.00496632
0.00454365
0.00413439
0.00372431
0.00331685
0.00289724
0.00246024
0.00199543
0.00149922
0.00094145
0.000343341
-0.193738
-0.206215
-0.208373
-0.202558
-0.19339
-0.183586
-0.173751
-0.163435
-0.151997
-0.139147
-0.125029
-0.110081
-0.0948085
-0.0796531
-0.0649691
-0.0510512
-0.038162
-0.0265418
-0.0163589
-0.00767397
-0.000461298
0.00536047
0.00990053
0.0132921
0.0156974
0.0172832
0.0182016
0.0185921
0.0185802
0.0182692
0.0177403
0.0170597
0.0162831
0.0154537
0.0145977
0.0137301
0.0128748
0.012044
0.0112458
0.0104848
0.00976475
0.00908486
0.00844736
0.00784691
0.00728672
0.00675691
0.00626275
0.00579123
0.00534675
0.00491946
0.00450449
0.00410362
0.00369829
0.0032971
0.00288112
0.00244845
0.00198604
0.00149378
0.000937362
0.000342955
-0.174086
-0.185261
-0.187617
-0.183024
-0.175329
-0.166916
-0.158419
-0.14955
-0.139785
-0.128831
-0.116739
-0.103823
-0.0904987
-0.0771525
-0.0641043
-0.0516207
-0.0399313
-0.0292424
-0.0197141
-0.0114302
-0.00440507
0.00140089
0.00606068
0.00967075
0.0123586
0.0142634
0.0155123
0.0162254
0.0165175
0.0164861
0.0162092
0.0157535
0.0151739
0.0145125
0.0137999
0.0130587
0.0123093
0.0115687
0.0108471
0.0101506
0.00948512
0.00885079
0.00825205
0.00768347
0.00715085
0.00664321
0.00616859
0.00571274
0.00528172
0.00486616
0.00445986
0.0040683
0.00366853
0.0032743
0.00286256
0.00243472
0.00197535
0.00148719
0.000932907
0.000341915
-0.156043
-0.165989
-0.16851
-0.164963
-0.15856
-0.151411
-0.144146
-0.136579
-0.128282
-0.118978
-0.108663
-0.0975605
-0.0860021
-0.0743196
-0.062796
-0.0516671
-0.0411314
-0.0313668
-0.0225218
-0.0146932
-0.00792612
-0.00221293
0.00249033
0.00624771
0.00915431
0.0113234
0.0128587
0.0138606
0.0144329
0.0146663
0.014633
0.0143954
0.0140088
0.0135169
0.0129524
0.0123412
0.0117009
0.0110546
0.0104137
0.0097856
0.00917839
0.00859302
0.00803606
0.00750216
0.00699945
0.00651625
0.00606294
0.00562457
0.00520831
0.00480589
0.00440927
0.00402803
0.00363467
0.00324808
0.00284132
0.00241876
0.00196319
0.00147929
0.000927972
0.000340337
-0.139463
-0.14845
-0.151084
-0.148376
-0.143062
-0.137022
-0.130862
-0.124458
-0.117451
-0.109585
-0.100828
-0.0913348
-0.0813695
-0.0712077
-0.0610924
-0.0512284
-0.041788
-0.0329275
-0.0247835
-0.0174561
-0.0110086
-0.0054571
-0.000781761
0.00305304
0.00611393
0.00849122
0.0102665
0.011521
0.0123466
0.0128253
0.0130213
0.0129934
0.0127965
0.012474
0.0120583
0.0115792
0.0110501
0.0105018
0.00994532
0.00938926
0.00884371
0.00831059
0.00779837
0.00730195
0.00683155
0.00637513
0.00594496
0.00552596
0.00512586
0.00473805
0.00435222
0.00398237
0.00359636
0.00321814
0.00281721
0.00240037
0.00194947
0.00147004
0.000922517
0.000338388
-0.124528
-0.132564
-0.135194
-0.133145
-0.128757
-0.12369
-0.11851
-0.113134
-0.107258
-0.100649
-0.0932549
-0.0851856
-0.0766457
-0.0678603
-0.0590339
-0.0503429
-0.0419371
-0.0339546
-0.0265185
-0.019725
-0.0136461
-0.0083158
-0.00373329
0.000113291
0.00326632
0.00579631
0.00776453
0.00923263
0.0102802
0.0109806
0.0113897
0.0115611
0.0115471
0.0113895
0.0111203
0.0107631
0.0103583
0.00991137
0.00944225
0.00896136
0.00848058
0.00800276
0.00753812
0.00708192
0.00664622
0.00621894
0.00581382
0.00541613
0.00503366
0.00466198
0.00428817
0.00393079
0.0035532
0.0031841
0.00278996
0.00237933
0.00193403
0.00145936
0.000916463
0.000336187
-0.111103
-0.118264
-0.120723
-0.119196
-0.115607
-0.111386
-0.10706
-0.10258
-0.0976882
-0.0921719
-0.0859679
-0.079149
-0.0718734
-0.0643231
-0.0566684
-0.04906
-0.0416266
-0.0344881
-0.0277539
-0.0215122
-0.0158387
-0.010779
-0.00634647
-0.00254793
0.000638712
0.00326731
0.00538055
0.00702101
0.0082567
0.00915285
0.00975568
0.0101116
0.0102701
0.0102716
0.010147
0.00992268
0.00963063
0.00928539
0.00890549
0.00850224
0.00808887
0.0076691
0.00725468
0.00684135
0.00644269
0.00604688
0.00566872
0.00529429
0.00493103
0.00457702
0.00421653
0.00387276
0.00350478
0.00314554
0.0027593
0.00235537
0.00191667
0.00144718
0.000909693
0.000333764
-0.0987987
-0.10512
-0.107522
-0.106458
-0.103554
-0.100064
-0.096475
-0.0927685
-0.088726
-0.0841545
-0.078983
-0.0732558
-0.0670943
-0.0606455
-0.0540498
-0.0474342
-0.0409068
-0.0345699
-0.0285198
-0.0228358
-0.0175929
-0.0128433
-0.00860944
-0.00491211
-0.00174596
0.000929227
0.00313999
0.00491108
0.0062995
0.00736256
0.0081362
0.00865904
0.00897765
0.00913015
0.00914516
0.00904912
0.00887013
0.0086265
0.00833681
0.00801288
0.007669
0.00730961
0.00694778
0.00657976
0.00622035
0.00585824
0.00550896
0.00515974
0.00481728
0.00448251
0.00413676
0.00380773
0.00345065
0.00310207
0.00272488
0.00232826
0.00189715
0.00143342
0.000902075
0.000331097
-0.0876674
-0.0932852
-0.0955824
-0.0948769
-0.092539
-0.0896673
-0.0867101
-0.083667
-0.0803528
-0.0765927
-0.0723114
-0.0675323
-0.0623479
-0.0568758
-0.0512304
-0.0455174
-0.0398262
-0.0342429
-0.0288512
-0.023721
-0.0189235
-0.0145131
-0.0105173
-0.00696697
-0.0038701
-0.0011968
0.00106606
0.00292637
0.0044308
0.00562999
0.00654972
0.0072199
0.00768351
0.00797598
0.00812306
0.00814956
0.0080815
0.00793837
0.00773879
0.00749499
0.00722199
0.0069248
0.00661753
0.00629693
0.0059788
0.00565248
0.00533396
0.00501183
0.00469184
0.00437785
0.0040483
0.00373519
0.00339035
0.00305329
0.00268635
0.00229776
0.00187522
0.00141798
0.000893489
0.000328153
-0.0776696
-0.082622
-0.0847756
-0.084346
-0.0824841
-0.0801398
-0.077722
-0.0752449
-0.072551
-0.0694825
-0.0659641
-0.0620043
-0.0576721
-0.0530603
-0.0482612
-0.0433622
-0.0384362
-0.0335545
-0.0287891
-0.0241999
-0.019852
-0.0157997
-0.012072
-0.00870662
-0.00572142
-0.00309387
-0.000821594
0.00108779
0.00267168
0.00397549
0.00501519
0.00581103
0.00640199
0.00682103
0.00709049
0.00723241
0.007271
0.00722569
0.00711494
0.00695104
0.00674949
0.00651566
0.00626442
0.00599298
0.00571792
0.00542931
0.00514332
0.00485008
0.00455417
0.0042625
0.00395066
0.00365464
0.00332346
0.00299882
0.00264337
0.00226363
0.00185061
0.00140077
0.000883829
0.000324909
-0.0686629
-0.0730052
-0.074992
-0.0747784
-0.0733187
-0.0714292
-0.0694728
-0.0674746
-0.0653039
-0.062821
-0.0599526
-0.0566963
-0.0531025
-0.0492434
-0.0451927
-0.0410218
-0.0367899
-0.0325551
-0.0283781
-0.0243088
-0.0204057
-0.0167207
-0.0132821
-0.0101313
-0.0072932
-0.0047499
-0.00250714
-0.000586325
0.00104158
0.00241814
0.00355057
0.00444922
0.00514838
0.00567851
0.00605835
0.00630683
0.00644599
0.0064943
0.00646969
0.00638433
0.00625388
0.00608379
0.00588945
0.00566848
0.00543794
0.00518867
0.00493683
0.00467412
0.00440388
0.00413599
0.00384337
0.00356564
0.00324954
0.0029383
0.00259558
0.00222565
0.0018231
0.00138167
0.000873011
0.000321338
-0.0605348
-0.0643376
-0.0661719
-0.066131
-0.065004
-0.0634906
-0.0619199
-0.0603235
-0.0585919
-0.0566021
-0.0542841
-0.0516277
-0.048669
-0.0454637
-0.0420696
-0.0385453
-0.0349375
-0.0312932
-0.0276627
-0.0240863
-0.0206156
-0.0172988
-0.0141617
-0.0112471
-0.00858437
-0.00615782
-0.00397884
-0.00208099
-0.000442764
0.000975028
0.00217245
0.0031503
0.00393793
0.00456273
0.00503916
0.00538296
0.00561454
0.00575078
0.00580838
0.00579901
0.00573824
0.00563145
0.00549423
0.00532446
0.00513949
0.00493084
0.00471452
0.00448381
0.00424072
0.003998
0.00372607
0.00346783
0.0031682
0.00287143
0.00254265
0.0021836
0.00179248
0.00136053
0.000860971
0.000317408
-0.0532365
-0.0565622
-0.0582444
-0.0583318
-0.0574723
-0.0562728
-0.0550234
-0.05376
-0.0523936
-0.0508158
-0.0489605
-0.0468122
-0.0443963
-0.0417551
-0.0389335
-0.0359788
-0.0329276
-0.0298173
-0.026689
-0.0235742
-0.0205172
-0.0175619
-0.0147308
-0.0120661
-0.00959976
-0.00731612
-0.00523013
-0.00338554
-0.00176737
-0.00033783
0.000897078
0.00192908
0.00278346
0.00348582
0.00404578
0.00447319
0.00478641
0.00500273
0.00513707
0.00519992
0.00520642
0.00516157
0.00508095
0.00496248
0.00482361
0.00465647
0.00447675
0.00427926
0.00406463
0.00384835
0.00359849
0.00336094
0.00307911
0.00279793
0.00248427
0.00213726
0.00175854
0.00133722
0.000847659
0.00031309
-0.0466967
-0.0495896
-0.051115
-0.0512912
-0.0506533
-0.0497137
-0.0487316
-0.0477475
-0.0466859
-0.0454509
-0.0439823
-0.042262
-0.040307
-0.0381493
-0.0358232
-0.0333664
-0.0308075
-0.0281753
-0.0255035
-0.0228153
-0.0201484
-0.0175418
-0.015014
-0.0126057
-0.0103496
-0.00822882
-0.00625976
-0.00449433
-0.0029228
-0.00150768
-0.000259873
0.000803123
0.0017013
0.00245924
0.00308564
0.00358633
0.00397298
0.00425979
0.00446334
0.00459312
0.00466322
0.00467793
0.00465248
0.00458467
0.00449186
0.00436662
0.00422422
0.00406087
0.00387578
0.00368708
0.00346051
0.0032448
0.00298204
0.0027176
0.00242022
0.00208645
0.00172114
0.00131161
0.00083302
0.000308359
-0.0408342
-0.0433401
-0.0447149
-0.0449551
-0.0444993
-0.0437762
-0.0430173
-0.0422623
-0.041449
-0.0404955
-0.0393475
-0.0379849
-0.0364186
-0.0346725
-0.0327723
-0.0307477
-0.0286199
-0.0264116
-0.0241501
-0.0218516
-0.0195474
-0.0172718
-0.0150386
-0.0128868
-0.0108484
-0.00890423
-0.00707078
-0.00540655
-0.00390558
-0.00252916
-0.00129118
-0.000216233
0.000709907
0.00150662
0.0021785
0.00273208
0.00317637
0.00352668
0.00379236
0.00398338
0.00411294
0.00418423
0.00421197
0.00419359
0.00414623
0.00406279
0.00395799
0.00382936
0.00367462
0.00351443
0.0033122
0.00311941
0.00287687
0.00263029
0.00235034
0.00203099
0.00168015
0.00128361
0.000817008
0.000303198
-0.035581
-0.0377443
-0.0389765
-0.0392584
-0.038948
-0.0384068
-0.0378315
-0.0372627
-0.0366517
-0.0359296
-0.035047
-0.0339824
-0.0327424
-0.0313446
-0.0298082
-0.0281563
-0.026404
-0.0245685
-0.022672
-0.020725
-0.0187536
-0.0167872
-0.0148353
-0.0129341
-0.0111148
-0.00935461
-0.00766936
-0.00612305
-0.00471322
-0.00339919
-0.00219595
-0.00113358
-0.000199047
0.000629068
0.00134705
0.00194569
0.00243111
0.00282179
0.00313872
0.00338258
0.00356469
0.00368739
0.0037646
0.00379313
0.00378966
0.00374717
0.00367968
0.00358592
0.00346194
0.00333094
0.00315386
0.00298495
0.00276363
0.00253599
0.00227455
0.00197079
0.0016355
0.00125312
0.000799579
0.000297596
-0.0308905
-0.0327538
-0.0338541
-0.0341616
-0.0339673
-0.0335718
-0.0331435
-0.0327232
-0.032276
-0.0317426
-0.0310771
-0.0302581
-0.0292891
-0.0281832
-0.0269545
-0.0256216
-0.0241945
-0.0226852
-0.0211111
-0.0194783
-0.0178084
-0.0161268
-0.0144385
-0.0127774
-0.0111726
-0.0095976
-0.00806637
-0.00664672
-0.00533952
-0.0041038
-0.00295615
-0.00193161
-0.00102229
-0.000207845
0.000521938
0.00117295
0.00168538
0.00212498
0.002488
0.00278163
0.00301431
0.00318637
0.00331108
0.00338479
0.00342389
0.00342145
0.00339077
0.00333175
0.00323867
0.00313734
0.00298597
0.00284173
0.00264249
0.00243476
0.00219287
0.0019058
0.00158716
0.0012201
0.000780688
0.000291523
-0.0266915
-0.0282872
-0.0292618
-0.0295791
-0.0294732
-0.0291948
-0.0288891
-0.028594
-0.0282817
-0.0279001
-0.0274097
-0.0267913
-0.026047
-0.0251858
-0.0242164
-0.0231532
-0.0220032
-0.0207754
-0.0194833
-0.0181286
-0.0167292
-0.0153069
-0.0138628
-0.0124281
-0.0110297
-0.00963717
-0.00826213
-0.00697528
-0.00577857
-0.00462715
-0.00353689
-0.00254701
-0.00165038
-0.000827617
-8.32887e-05
0.000613638
0.00106931
0.0015106
0.00190403
0.00223047
0.00249828
0.00270713
0.00286991
0.00298164
0.00305823
0.0030923
0.00309604
0.00307041
0.00300733
0.00293548
0.00280983
0.00269071
0.00251412
0.00232704
0.00210563
0.00183618
0.00153527
0.00118463
0.000760353
0.000285054
-0.0229775
-0.0243411
-0.0252082
-0.0255408
-0.0255261
-0.0253668
-0.0251791
-0.0249895
-0.0247716
-0.0244911
-0.0241256
-0.0236605
-0.0230948
-0.0224319
-0.0216765
-0.0208391
-0.0199238
-0.0189372
-0.0178902
-0.0167807
-0.0156229
-0.0144358
-0.0132176
-0.0119971
-0.0107993
-0.00958967
-0.00837802
-0.0072371
-0.00617011
-0.00513022
-0.00413328
-0.00322245
-0.00239636
-0.00163582
-0.000944378
-0.000391624
0.000284779
0.000816542
0.00125756
0.0016294
0.00194207
0.00219611
0.00240264
0.0025576
0.00267458
0.00274797
0.00278743
0.00279666
0.0027644
0.00272299
0.0026238
0.00253066
0.00237762
0.00221204
0.00201227
0.00176135
0.00147937
0.00114633
0.000738196
0.000277539
-0.0196111
-0.0207513
-0.0214867
-0.0217779
-0.0217751
-0.0216487
-0.0215041
-0.0213751
-0.0212499
-0.0210979
-0.0208839
-0.0205828
-0.0201868
-0.019697
-0.0191224
-0.0184778
-0.0177647
-0.0169857
-0.0161495
-0.0152515
-0.0143035
-0.0133216
-0.0123014
-0.0112696
-0.0102485
-0.00919973
-0.00813031
-0.00711423
-0.00615505
-0.00520292
-0.00427322
-0.0034124
-0.00262163
-0.00189474
-0.00124473
-0.000628612
-8.75399e-05
0.000407287
0.000845355
0.00122055
0.0015431
0.00180997
0.00203461
0.00220843
0.00234896
0.00244491
0.00251018
0.00254364
0.00253648
0.00251954
0.00244345
0.00237341
0.00224224
0.00209693
0.00191827
0.00168569
0.00142269
0.001108
0.000716031
0.000272139
-0.0167965
-0.0178091
-0.0185042
-0.0188431
-0.0189438
-0.0189414
-0.0189164
-0.0188893
-0.01884
-0.0187368
-0.0185567
-0.0182919
-0.0179605
-0.0175718
-0.017125
-0.0166243
-0.0160677
-0.0154557
-0.0147935
-0.0140744
-0.0133083
-0.0125098
-0.0116719
-0.0108191
-0.00997232
-0.00908976
-0.00817601
-0.00730593
-0.00648351
-0.00565581
-0.00483489
-0.00406683
-0.00334889
-0.00265363
-0.00200049
-0.00138191
-0.000808182
-0.000296652
0.00016289
0.000570029