/*--------------------------------*- C++ -*----------------------------------*\
| =========                 |                                                 |
| \\      /  F ield         | OpenFOAM: The Open Source CFD Toolbox           |
|  \\    /   O peration     | Version:  2312                                  |
|   \\  /    A nd           | Website:  www.openfoam.com                      |
|    \\/     M anipulation  |                                                 |
\*---------------------------------------------------------------------------*/
FoamFile
{
    version     2.0;
    format      ascii;
    arch        "LSB;label=32;scalar=64";
    class       surfaceScalarField;
    location    "31.5";
    object      phi;
}
// * * * * * * * * * * * * * * * * * * * * * * * * * * * * * * * * * * * * * //

dimensions      [0 3 -1 0 0 0 0];

oriented        oriented;

internalField   nonuniform List<scalar> 
64047
(
1.27193e-05
0.000530448
-0.000543167
5.82988e-05
0.00131892
-0.0013645
0.000147633
0.00186533
-0.00195466
0.000294491
0.00218251
-0.00232937
0.000515807
0.00228598
-0.0025073
0.000832077
0.00218981
-0.00250608
0.00126771
0.00190432
-0.00233995
0.00185127
0.0014348
-0.00201837
0.00261558
0.000781173
-0.00154548
0.00359733
-6.14524e-05
-0.0009203
0.004837
-0.00110248
-0.000137187
0.00637728
-0.00235295
0.000812672
0.00826161
-0.00382516
0.00194083
0.0105319
-0.00552973
0.00325946
0.0132255
-0.00747359
0.00478
0.0163718
-0.00965778
0.00651148
0.0199886
-0.0120756
0.00845877
0.0240789
-0.0147113
0.010621
0.0286279
-0.0175392
0.0129902
0.0336017
-0.0205243
0.0155506
0.038947
-0.0236234
0.0182781
0.0445925
-0.0267866
0.0211411
0.0504523
-0.0299608
0.024101
0.0564299
-0.033092
0.0271144
0.0624238
-0.0361288
0.0301349
0.0683337
-0.0390255
0.0331156
0.0740664
-0.0417447
0.0360119
0.079542
-0.044259
0.0387835
0.0846974
-0.046553
0.0413976
0.0894914
-0.0486215
0.0438275
0.093904
-0.0504745
0.0460619
0.0979376
-0.0521213
0.0480877
0.101616
-0.053603
0.0499241
0.104968
-0.0549126
0.0515607
0.108044
-0.0561515
0.0530755
0.110819
-0.0571882
0.0544133
-0.0583223
0.0559114
0.11323
9.90561e-06
0.000520542
5.75493e-05
0.00127127
0.00016183
0.00176105
0.000343274
0.00200107
0.00062515
0.00200411
0.00103439
0.00178057
0.00160225
0.00133646
0.00236466
0.000672396
0.00336202
-0.000216193
0.00463876
-0.00133819
0.00624126
-0.00270498
0.00821646
-0.00432816
0.0106082
-0.00621686
0.0134533
-0.0083749
0.0167778
-0.0107981
0.0205919
-0.0134719
0.0248869
-0.0163705
0.029632
-0.0194564
0.0347741
-0.0226814
0.0402389
-0.0259891
0.0459338
-0.0293183
0.0517536
-0.0326065
0.0575868
-0.035794
0.0633231
-0.0388282
0.0688606
-0.0416663
0.0741132
-0.044278
0.0790154
-0.0466469
0.0835266
-0.0487702
0.0876317
-0.0506582
0.0913415
-0.0523313
0.0946868
-0.0538197
0.0977188
-0.0551533
0.100491
-0.0563751
0.103075
-0.057497
0.105517
-0.0585936
0.107914
-0.0595853
-0.0607142
0.110306
7.83216e-06
0.00051271
6.05435e-05
0.00121856
0.000185977
0.00163561
0.000412555
0.00177449
0.000771178
0.00164548
0.00129658
0.00125518
0.00202812
0.000604914
0.00300995
-0.000309436
0.00429029
-0.00149653
0.00591959
-0.00296749
0.00794774
-0.00473313
0.0104201
-0.00680051
0.0133725
-0.00916929
0.0168261
-0.0118285
0.0207821
-0.014754
0.0252179
-0.0179077
0.0300852
-0.0212379
0.0353104
-0.0246816
0.0407976
-0.0281686
0.0464348
-0.0316263
0.0521012
-0.0349847
0.0576762
-0.0381814
0.0630485
-0.0411663
0.0681242
-0.0439039
0.0728335
-0.0463756
0.0771345
-0.0485791
0.0810149
-0.0505273
0.0844901
-0.0522453
0.0875986
-0.0537667
0.0903964
-0.0551291
0.092949
-0.0563723
0.0953248
-0.0575291
0.0975872
-0.0586375
0.099795
-0.0597049
0.101989
-0.0607879
0.104217
-0.0618127
-0.0629728
0.106475
7.32148e-06
0.000505389
7.02958e-05
0.00115559
0.00022649
0.00147942
0.000513256
0.00148773
0.000970325
0.00118841
0.00164138
0.000584121
0.00257469
-0.000328396
0.00382258
-0.00155732
0.00543944
-0.00311339
0.00747834
-0.00500639
0.00998609
-0.00724088
0.0129972
-0.0098116
0.0165274
-0.0126995
0.0205682
-0.0158692
0.0250823
-0.0192682
0.0300032
-0.0228286
0.0352368
-0.0264715
0.0406676
-0.0301124
0.0461671
-0.0336681
0.0516041
-0.0370633
0.0568556
-0.0402362
0.0618171
-0.0431429
0.0664102
-0.0457594
0.0705877
-0.0480814
0.074335
-0.0501229
0.077668
-0.0519122
0.0806279
-0.0534872
0.0832734
-0.0548908
0.0856726
-0.0561658
0.0878948
-0.0573513
0.0900035
-0.0584811
0.0920534
-0.059579
0.0940855
-0.0606696
0.0961327
-0.061752
0.0982118
-0.0628671
0.100345
-0.0639455
-0.065158
0.10253
9.29448e-06
0.000496094
8.99968e-05
0.00107489
0.000289979
0.00127944
0.000656404
0.0011213
0.00123878
0.000606033
0.00209041
-0.000267502
0.00326825
-0.00150624
0.00483106
-0.00312013
0.00683545
-0.00511778
0.00933012
-0.00750106
0.0123486
-0.0102594
0.0159017
-0.0133647
0.0199709
-0.0167688
0.0245047
-0.020403
0.0294183
-0.0241818
0.0345986
-0.0280089
0.0399123
-0.0317852
0.0452182
-0.0354182
0.0503795
-0.0388294
0.0552767
-0.0419605
0.0598175
-0.044777
0.0639434
-0.0472689
0.067632
-0.049448
0.0708948
-0.0513442
0.0737713
-0.0529993
0.0763203
-0.0544612
0.0786111
-0.0557779
0.0807136
-0.0569933
0.0826921
-0.0581443
0.0846003
-0.0592595
0.0864796
-0.0603603
0.0883601
-0.0614595
0.0902605
-0.0625701
0.0921962
-0.0636877
0.0941709
-0.0648418
0.0961981
-0.0659726
-0.0672284
0.0982685
1.46372e-05
0.000481457
0.000122705
0.000966819
0.000382691
0.00101945
0.000852158
0.000651833
0.00159083
-0.000132639
0.00266131
-0.00133798
0.00412741
-0.00297235
0.00605015
-0.00504287
0.00848109
-0.00754873
0.011454
-0.0104739
0.0149757
-0.0137811
0.0190191
-0.0174081
0.0235192
-0.0212688
0.0283744
-0.0252582
0.0334538
-0.0292612
0.038609
-0.0331641
0.0436893
-0.0368655
0.0485565
-0.0402854
0.0530984
-0.0433713
0.0572383
-0.0461004
0.060939
-0.0484777
0.0642014
-0.0505313
0.0670589
-0.0523055
0.0695678
-0.0538531
0.0717969
-0.0552285
0.0738177
-0.056482
0.0756959
-0.0576562
0.077487
-0.0587845
0.0792341
-0.0598914
0.0809682
-0.0609937
0.0827102
-0.0621023
0.0844741
-0.0632234
0.0862677
-0.0643637
0.0880991
-0.065519
0.0899684
-0.0667111
0.0918871
-0.0678913
-0.0691874
0.093846
2.41061e-05
0.000457351
0.000171003
0.000819922
0.000509769
0.000680686
0.00110845
5.31557e-05
0.00203656
-0.00106075
0.00336411
-0.00266553
0.0051577
-0.00476594
0.00747334
-0.00735851
0.0103468
-0.0104222
0.0137835
-0.0139106
0.0177497
-0.0177472
0.0221688
-0.0218272
0.0269243
-0.0260244
0.0318696
-0.0302035
0.0368432
-0.0342348
0.0416872
-0.0380082
0.0462645
-0.0414428
0.0504723
-0.0444932
0.05425
-0.0471489
0.05758
-0.0494304
0.0604832
-0.0513809
0.063009
-0.0530571
0.0652241
-0.0545206
0.0672009
-0.0558298
0.0690082
-0.0570358
0.0707051
-0.0581789
0.0723385
-0.0592895
0.0739426
-0.0603886
0.075541
-0.0614899
0.0771495
-0.0626022
0.0787781
-0.0637308
0.0804335
-0.0648788
0.0821198
-0.06605
0.0838421
-0.0672413
0.0856
-0.068469
0.0874029
-0.0696942
-0.0710258
0.0892414
3.8238e-05
0.000419113
0.000236684
0.000621476
0.000674539
0.000242831
0.0014297
-0.00070201
0.00257964
-0.00221068
0.00419797
-0.00428386
0.00634711
-0.00691508
0.00906763
-0.010079
0.0123664
-0.013721
0.0162064
-0.0177506
0.0205028
-0.0220436
0.0251264
-0.0264508
0.0299166
-0.0308146
0.0347005
-0.0349874
0.0393142
-0.0388485
0.0436221
-0.0423161
0.0475305
-0.0453513
0.0509933
-0.047956
0.0540096
-0.0501652
0.0566152
-0.0520361
0.0588708
-0.0536364
0.0608483
-0.0550346
0.06262
-0.0562923
0.0642504
-0.0574603
0.0657922
-0.0585776
0.067285
-0.0596717
0.068757
-0.0607614
0.0702268
-0.0618584
0.0717067
-0.0629698
0.0732046
-0.0641001
0.0747256
-0.0652518
0.0762735
-0.0664267
0.0778506
-0.0676271
0.0794607
-0.0688514
0.0811027
-0.070111
0.0827855
-0.0713771
-0.0727394
0.0844991
5.73146e-05
0.000361798
0.000320583
0.000358208
0.000878113
-0.000314699
0.00181591
-0.00163981
0.00321596
-0.00361073
0.00514914
-0.00621704
0.00766386
-0.0094298
0.0107725
-0.0131876
0.0144393
-0.0173877
0.0185749
-0.0218862
0.0230407
-0.0265094
0.027664
-0.0310742
0.032261
-0.0354116
0.0366614
-0.0393878
0.0407302
-0.0429173
0.0443807
-0.0459665
0.0475779
-0.0485485
0.0503337
-0.0507118
0.0526949
-0.0525264
0.054729
-0.0540702
0.0565105
-0.0554179
0.05811
-0.0566341
0.0595878
-0.0577701
0.0609911
-0.0588637
0.0623545
-0.0599409
0.0637015
-0.0610187
0.0650476
-0.0621076
0.0664027
-0.0632135
0.067773
-0.0643401
0.0691626
-0.0654896
0.0705743
-0.0666635
0.0720105
-0.0678629
0.0734731
-0.0690896
0.0749649
-0.0703433
0.0764855
-0.0716316
0.0780426
-0.0729342
-0.0743227
0.0796259
8.13808e-05
0.000280418
0.000422564
1.70254e-05
0.0011192
-0.00101134
0.00226238
-0.00278298
0.00393306
-0.00528142
0.00619051
-0.00847449
0.00905703
-0.0122963
0.0125035
-0.0166341
0.0164413
-0.0213256
0.0207263
-0.0261713
0.0251758
-0.0309589
0.0295949
-0.0354933
0.0338056
-0.0396223
0.0376704
-0.0432527
0.0411061
-0.046353
0.0440851
-0.0489456
0.0466281
-0.0510914
0.0487891
-0.0528728
0.05064
-0.0543773
0.0522563
-0.0556865
0.0537069
-0.0568685
0.0550487
-0.0579759
0.056325
-0.0590464
0.0575665
-0.0601051
0.0587937
-0.0611681
0.0600198
-0.0622448
0.0612529
-0.0633407
0.0624982
-0.0644588
0.063759
-0.0656009
0.0650377
-0.0667683
0.0663363
-0.0679621
0.0676567
-0.0691833
0.0690006
-0.0704335
0.0703705
-0.0717132
0.0717661
-0.0730272
0.0731941
-0.0743621
-0.0757723
0.0746437
0.000110304
0.000170113
0.00054163
-0.0004143
0.00139428
-0.00186398
0.00275978
-0.00414848
0.00471039
-0.00723202
0.00728265
-0.0110468
0.0104599
-0.0154736
0.0141609
-0.020335
0.0182409
-0.0254056
0.0225099
-0.0304402
0.0267617
-0.0352108
0.0308081
-0.0395396
0.0345052
-0.0433194
0.0377685
-0.0465159
0.0405735
-0.049158
0.0429455
-0.0513177
0.0449434
-0.0530893
0.0466416
-0.054571
0.0481164
-0.0558521
0.0494356
-0.0570056
0.0506537
-0.0580866
0.0518113
-0.0591335
0.0529366
-0.0601717
0.054048
-0.0612166
0.0551571
-0.0622772
0.056271
-0.0633587
0.0573939
-0.0644636
0.0585287
-0.0655936
0.0596775
-0.0667497
0.0608421
-0.0679329
0.062024
-0.069144
0.0632251
-0.0703844
0.0644469
-0.0716553
0.0656913
-0.0729576
0.0669583
-0.0742942
0.068253
-0.0756568
-0.0770841
0.0695648
0.000143819
2.62943e-05
0.000676016
-0.000946498
0.00169768
-0.00288564
0.00329439
-0.0057452
0.00551998
-0.00945762
0.00837615
-0.0139029
0.0117961
-0.0188936
0.0156416
-0.0241805
0.0197189
-0.029483
0.0238113
-0.0345326
0.027717
-0.0391164
0.0312808
-0.0431035
0.0344118
-0.0464503
0.0370833
-0.0491875
0.0393218
-0.0513965
0.0411883
-0.0531841
0.0427593
-0.0546603
0.0441118
-0.0559235
0.0453133
-0.0570536
0.0464173
-0.0581096
0.0474628
-0.0591321
0.0484765
-0.0601472
0.0494756
-0.0611707
0.0504706
-0.0622115
0.0514677
-0.0632744
0.0524709
-0.0643619
0.0534826
-0.0654753
0.0545046
-0.0666156
0.0555385
-0.0677836
0.0565858
-0.0689801
0.057648
-0.0702062
0.0587266
-0.071463
0.0598231
-0.0727518
0.060939
-0.0740735
0.0620742
-0.0754295
0.0632323
-0.0768149
-0.0782551
0.0644033
0.000181509
-0.000155215
0.000823169
-0.00158816
0.00202161
-0.00408408
0.00384837
-0.00757196
0.00632781
-0.0119371
0.00941533
-0.0169904
0.0129874
-0.0224656
0.016853
-0.0280461
0.0207862
-0.0334161
0.0245693
-0.0383156
0.0280305
-0.0425776
0.0310659
-0.0461389
0.0336415
-0.0490258
0.0357806
-0.0513266
0.0375443
-0.0531603
0.0390105
-0.0546503
0.0402572
-0.055907
0.0413528
-0.0570191
0.0423507
-0.0580516
0.0432898
-0.0590487
0.0441961
-0.0600384
0.045086
-0.0610372
0.0459696
-0.0620543
0.0468527
-0.0630946
0.0477388
-0.0641605
0.0486302
-0.0652533
0.0495286
-0.0663737
0.0504353
-0.0675223
0.0513516
-0.0687
0.052279
-0.0699075
0.0532187
-0.0711459
0.0541722
-0.0724165
0.0551408
-0.0737204
0.0561256
-0.0750582
0.0571262
-0.0764301
0.0581448
-0.0778335
-0.079283
0.0591727
0.0002228
-0.000378015
0.000979669
-0.00234503
0.00235617
-0.00546058
0.00440029
-0.00961608
0.0070958
-0.0146326
0.0103434
-0.0202381
0.0139636
-0.0260858
0.0177257
-0.0318082
0.021395
-0.0370854
0.0247778
-0.0416985
0.0277504
-0.0455502
0.0302646
-0.0486531
0.0323365
-0.0510977
0.0340243
-0.0530145
0.0354064
-0.0545424
0.0365628
-0.0558066
0.0375632
-0.0569075
0.0384627
-0.0579186
0.0393006
-0.0588895
0.0401033
-0.0598514
0.0408872
-0.0608223
0.0416621
-0.0618121
0.0424338
-0.062826
0.0432056
-0.0638664
0.0439797
-0.0649346
0.0447575
-0.0660311
0.0455404
-0.0671565
0.0463294
-0.0683113
0.0471257
-0.0694963
0.0479307
-0.0707125
0.0487457
-0.0719609
0.0495719
-0.0732427
0.0504102
-0.0745588
0.0512614
-0.0759093
0.0521249
-0.0772937
0.0530018
-0.0787103
-0.0801662
0.0538849
0.000266849
-0.000644864
0.00114113
-0.00321931
0.00268948
-0.00700893
0.00492621
-0.0118528
0.00778498
-0.0174913
0.0111089
-0.023562
0.014671
-0.0296479
0.0182213
-0.0353586
0.0215404
-0.0404044
0.024477
-0.0446351
0.0269618
-0.048035
0.0289972
-0.0506885
0.0306355
-0.052736
0.0319544
-0.0543333
0.0330355
-0.0556235
0.0339515
-0.0567226
0.0347599
-0.0577159
0.0355019
-0.0586606
0.0362049
-0.0595925
0.0368859
-0.0605324
0.0375551
-0.0614914
0.0382181
-0.0624752
0.0388784
-0.0634863
0.039538
-0.064526
0.0401984
-0.0655949
0.0408607
-0.0666934
0.0415259
-0.0678217
0.0421951
-0.0689806
0.0428695
-0.0701707
0.0435502
-0.0713932
0.0442384
-0.0726491
0.0449351
-0.0739395
0.0456412
-0.0752648
0.0463567
-0.0766248
0.0470812
-0.0780182
0.0478147
-0.0794438
-0.0809035
0.048552
0.000312509
-0.000957373
0.00130222
-0.00420902
0.00300816
-0.00871488
0.00540132
-0.014246
0.00835919
-0.0204492
0.011671
-0.0268738
0.0150782
-0.0330551
0.0183339
-0.0386143
0.0212532
-0.0433237
0.0237363
-0.0471182
0.0257648
-0.0500635
0.0273805
-0.0523042
0.0286576
-0.0540132
0.0296795
-0.0553552
0.0305225
-0.0564665
0.0312476
-0.0574477
0.0318991
-0.0583673
0.0325064
-0.0592679
0.0330878
-0.060174
0.0336541
-0.0610987
0.0342114
-0.0620486
0.034763
-0.0630268
0.0353111
-0.0640344
0.0358571
-0.0650721
0.0364021
-0.0661399
0.036947
-0.0672383
0.0374928
-0.0683675
0.0380405
-0.0695282
0.0385911
-0.0707213
0.0391456
-0.0719477
0.0397053
-0.0732087
0.0402709
-0.074505
0.0408428
-0.0758367
0.0414208
-0.0772029
0.0420046
-0.0786019
0.0425934
-0.0800327
-0.081494
0.0431839
0.000358293
-0.00131567
0.00145683
-0.00530756
0.00329824
-0.0105563
0.00580222
-0.0167499
0.00878899
-0.023436
0.0120042
-0.0300889
0.0151774
-0.0362283
0.0180848
-0.0415218
0.0205875
-0.0458263
0.022637
-0.0491677
0.0242573
-0.0516839
0.0255159
-0.0535627
0.0264963
-0.0549936
0.0272789
-0.0561378
0.0279295
-0.057117
0.0284965
-0.0580148
0.0290126
-0.0588834
0.0294979
-0.0597532
0.0299644
-0.0606405
0.0304187
-0.061553
0.0308646
-0.0624945
0.0313042
-0.0634664
0.0317389
-0.0644691
0.0321698
-0.065503
0.0325978
-0.0665679
0.0330238
-0.0676643
0.0334486
-0.0687923
0.0338731
-0.0699528
0.0342984
-0.0711465
0.0347254
-0.0723747
0.035155
-0.0736384
0.0355879
-0.0749379
0.0360243
-0.0762731
0.0364637
-0.0776423
0.0369054
-0.0790437
0.0373487
-0.0804759
-0.0819367
0.0377913
0.000402681
-0.00171835
0.00159906
-0.00650394
0.00354693
-0.0125042
0.0061097
-0.0193127
0.00905469
-0.026381
0.0120994
-0.0331336
0.0149812
-0.0391102
0.0175137
-0.0440543
0.0196078
-0.0479204
0.0212603
-0.0508202
0.0225256
-0.0529492
0.023485
-0.0545221
0.024222
-0.0557307
0.0248084
-0.0567241
0.025298
-0.0576066
0.0257278
-0.0584445
0.0261209
-0.0592765
0.0264908
-0.0601232
0.0268451
-0.0609948
0.0271881
-0.061896
0.0275221
-0.0628285
0.0278486
-0.0637929
0.0281687
-0.0647892
0.0284832
-0.0658175
0.0287929
-0.0668777
0.0290986
-0.06797
0.0294011
-0.0690948
0.0297013
-0.0702529
0.0299999
-0.0714452
0.0302981
-0.0726728
0.0305964
-0.0739367
0.0308955
-0.075237
0.0311952
-0.0765729
0.0314952
-0.0779423
0.0317946
-0.0793431
0.0320923
-0.0807736
-0.0822311
0.0323867
0.00044504
-0.00216339
0.00172457
-0.00778347
0.00374426
-0.0145238
0.00631033
-0.0218788
0.00914726
-0.0292179
0.0119623
-0.0359487
0.0145175
-0.0416654
0.0166715
-0.0462083
0.018382
-0.0496309
0.0196813
-0.0521195
0.0206429
-0.0539108
0.0213522
-0.0552314
0.0218868
-0.0562653
0.0223075
-0.0571448
0.0226567
-0.0579559
0.0229616
-0.0587495
0.0232383
-0.0595532
0.0234958
-0.0603806
0.0237388
-0.0612379
0.0239702
-0.0621274
0.0241915
-0.0630498
0.0244038
-0.0640052
0.0246081
-0.0649935
0.024805
-0.0660144
0.0249953
-0.067068
0.0251797
-0.0681544
0.0253588
-0.069274
0.0255334
-0.0704276
0.0257045
-0.0716162
0.0258727
-0.072841
0.0260387
-0.0741027
0.0262029
-0.0754012
0.0263653
-0.0767352
0.0265253
-0.0781023
0.0266823
-0.0795001
0.0268356
-0.0809268
0.0269852
-0.0823807
-9.78675e-05
-8.26131e-05
0.000180481
-0.000348435
-0.000459309
0.000709876
-0.000724247
-0.000954083
0.0013299
-0.00120473
-0.0014948
0.00197528
-0.00177397
-0.00203453
0.00260376
-0.00241956
-0.00254946
0.00319506
-0.00313198
-0.00303418
0.00374659
-0.00390414
-0.00349572
0.00426788
-0.0047312
-0.00394769
0.00477475
-0.00561029
-0.00440521
0.0052843
-0.00654022
-0.00488158
0.00581151
-0.00752113
-0.0053866
0.00636751
-0.00855412
-0.00592641
0.0069594
-0.00964089
-0.00650405
0.00759082
-0.0107834
-0.00712041
0.00826296
-0.0119839
-0.007775
0.00897543
-0.0132442
-0.00846648
0.0097268
-0.0145662
-0.00919293
0.0105149
-0.0159513
-0.00995197
0.0113371
-0.0174006
-0.0107407
0.01219
-0.0189146
-0.0115555
0.0130694
-0.0204928
-0.0123922
0.0139704
-0.0221344
-0.0132457
0.0148873
-0.0238373
-0.0141102
0.0158131
-0.0255984
-0.0149787
0.0167399
-0.0274137
-0.0158435
0.0176587
-0.0292776
-0.0166958
0.0185598
-0.0311837
-0.017526
0.019432
-0.0331241
-0.0183235
0.0202639
-0.03509
-0.0190772
0.0210431
-0.0370716
-0.0197754
0.021757
-0.0390586
-0.0204061
0.0223931
-0.0410397
-0.0209582
0.0229392
-0.0430037
-0.0214192
0.0233832
-0.0449424
-0.0217727
0.0237115
-0.0468538
-0.0219993
0.0239106
-0.0220948
-0.0487393
0.0239804
-0.000104816
2.22027e-05
-0.000372866
-0.000191259
-0.000773599
-0.00055335
-0.00128361
-0.000984787
-0.00188476
-0.00143337
-0.0025633
-0.00187093
-0.00330915
-0.00228832
-0.00411548
-0.0026894
-0.00497815
-0.00308501
-0.00589533
-0.00348803
-0.00686695
-0.00390996
-0.00789426
-0.00435929
-0.00897937
-0.00484129
-0.010125
-0.00535845
-0.011334
-0.00591136
-0.0126096
-0.0064994
-0.0139549
-0.00712125
-0.0153727
-0.00777509
-0.016866
-0.00845871
-0.0184372
-0.00916947
-0.0200884
-0.00990422
-0.0218214
-0.0106592
-0.023637
-0.01143
-0.0255357
-0.0122115
-0.0275168
-0.0129976
-0.0295788
-0.0137815
-0.0317192
-0.0145554
-0.0339343
-0.0153109
-0.0362193
-0.0160385
-0.0385684
-0.0167281
-0.0409749
-0.0173689
-0.0434312
-0.0179498
-0.0459289
-0.0184604
-0.048459
-0.0188891
-0.051013
-0.0192187
-0.0535846
-0.0194277
-0.0195159
-0.0561635
-0.000107264
0.000129466
-0.00038225
8.37282e-05
-0.000793276
-0.000142325
-0.00131536
-0.000462698
-0.00192904
-0.000819691
-0.00261961
-0.00118036
-0.00337662
-0.00153132
-0.00419327
-0.00187274
-0.00506588
-0.0022124
-0.00599319
-0.00256072
-0.00697577
-0.00292738
-0.00801543
-0.00331963
-0.00911481
-0.00374191
-0.010277
-0.00419625
-0.0115054
-0.00468296
-0.0128035
-0.00520129
-0.0141749
-0.00574986
-0.0156231
-0.00632687
-0.0171517
-0.00693017
-0.0187639
-0.00755724
-0.0204629
-0.00820516
-0.0222517
-0.00887047
-0.0241326
-0.00954916
-0.0261075
-0.0102366
-0.0281778
-0.0109273
-0.0303441
-0.0116152
-0.032606
-0.0122935
-0.0349625
-0.0129545
-0.0374113
-0.0135897
-0.0399493
-0.0141901
-0.0425724
-0.0147458
-0.0452757
-0.0152465
-0.0480539
-0.0156823
-0.0509
-0.016043
-0.0538052
-0.0163136
-0.0567601
-0.0164728
-0.0165142
-0.0597618
-0.000105092
0.000234558
-0.000376536
0.000355172
-0.000783288
0.000264427
-0.00130029
5.43079e-05
-0.00190755
-0.000212432
-0.00258981
-0.000498108
-0.00333629
-0.00078484
-0.00414011
-0.00106891
-0.00499767
-0.00135484
-0.00590787
-0.00165052
-0.00687146
-0.00196379
-0.00789034
-0.00230075
-0.00896716
-0.00266509
-0.0101049
-0.00305846
-0.011307
-0.00348094
-0.0125766
-0.00393168
-0.0139172
-0.00440923
-0.0153323
-0.00491178
-0.0168253
-0.00543719
-0.0183995
-0.00598301
-0.0200582
-0.00654642
-0.0218046
-0.00712413
-0.0236413
-0.00771239
-0.0255711
-0.00830684
-0.0275958
-0.00890254
-0.0297172
-0.00949388
-0.0319361
-0.0100746
-0.0342528
-0.0106377
-0.0366669
-0.0111756
-0.0391769
-0.0116801
-0.0417805
-0.0121422
-0.0444747
-0.0125523
-0.0472562
-0.0129008
-0.0501198
-0.0131794
-0.0530558
-0.0133776
-0.0560528
-0.0134759
-0.0134562
-0.0591107
-9.86939e-05
0.000333252
-0.000356652
0.00061313
-0.000745612
0.000653388
-0.00124161
0.000550307
-0.00182483
0.000370788
-0.0024799
0.000156965
-0.00319584
-6.88997e-05
-0.0039655
-0.000299255
-0.00478503
-0.000535315
-0.00565309
-0.000782462
-0.00657028
-0.0010466
-0.00753815
-0.00133288
-0.00855891
-0.00164433
-0.00963512
-0.00198225
-0.0107695
-0.00234661
-0.0119646
-0.00273651
-0.0132234
-0.0031505
-0.0145484
-0.00358678
-0.0159423
-0.00404328
-0.0174077
-0.00451762
-0.018947
-0.00500709
-0.0205626
-0.00550857
-0.0222565
-0.00601849
-0.0240305
-0.00653276
-0.0258864
-0.00704673
-0.0278251
-0.00755517
-0.0298474
-0.00805223
-0.0319537
-0.00853144
-0.0341435
-0.00898577
-0.0364159
-0.00940769
-0.038769
-0.00978907
-0.0412004
-0.0101209
-0.0437075
-0.0103937
-0.0462865
-0.0106004
-0.0489277
-0.0107364
-0.0516154
-0.0107881
-0.0107236
-0.054348
-8.86882e-05
0.00042194
-0.000324656
0.000849098
-0.000683966
0.0010127
-0.00114487
0.00101122
-0.00168858
0.000914492
-0.00229999
0.000768375
-0.00296784
0.000598952
-0.00368469
0.000417591
-0.00444626
0.000226262
-0.00525035
2.16248e-05
-0.00609764
-0.000199316
-0.00698859
-0.000441927
-0.00792473
-0.000708194
-0.00890788
-0.00099909
-0.00993977
-0.00131471
-0.0110221
-0.00165419
-0.0121565
-0.00201614
-0.0133443
-0.00239891
-0.014587
-0.00280058
-0.0158857
-0.00321895
-0.0172412
-0.00365155
-0.0186543
-0.00409549
-0.0201253
-0.00454749
-0.0216543
-0.00500375
-0.0232411
-0.00545998
-0.0248849
-0.00591128
-0.026585
-0.00635218
-0.0283399
-0.00677658
-0.0301478
-0.00717782
-0.0320067
-0.00754877
-0.0339139
-0.00788186
-0.0358663
-0.00816853
-0.0378608
-0.00839916
-0.0398949
-0.0085663
-0.041961
-0.00867033
-0.04404
-0.00870905
-0.00864189
-0.0461218
-7.59286e-05
0.000497869
-0.000283183
0.00105635
-0.000603298
0.00133281
-0.00101768
0.0014256
-0.00150915
0.00140596
-0.00206316
0.00132239
-0.00266845
0.00120424
-0.00331711
0.00106625
-0.00400423
0.000913375
-0.00472767
0.000745068
-0.00548578
0.000558799
-0.00627916
0.000351446
-0.00710799
0.000120635
-0.0079736
-0.000133471
-0.00887626
-0.000412055
-0.00981643
-0.000714023
-0.0107945
-0.0010381
-0.0118103
-0.00138306
-0.0128636
-0.00174724
-0.0139538
-0.00212878
-0.0150798
-0.0025256
-0.01624
-0.00293525
-0.0174326
-0.00335491
-0.018655
-0.0037813
-0.0199044
-0.00421062
-0.0211772
-0.00463848
-0.0224695
-0.00505992
-0.0237767
-0.0054693
-0.0250942
-0.00586032
-0.0264169
-0.00622609
-0.0277395
-0.00655922
-0.0290567
-0.00685136
-0.0303636
-0.00709224
-0.0316585
-0.00727146
-0.0329399
-0.00738889
-0.0341917
-0.00745723
-0.00743851
-0.0353951
-6.1401e-05
0.00055927
-0.000235305
0.00123026
-0.00050938
0.00160689
-0.000868798
0.00178502
-0.00129848
0.00183564
-0.00178479
0.00180871
-0.0023166
0.00173605
-0.00288561
0.00163526
-0.00348625
0.00151401
-0.00411518
0.001374
-0.00477046
0.00121408
-0.00545126
0.00103225
-0.00615749
0.000826866
-0.00688816
0.000597191
-0.00764311
0.000342896
-0.00842116
6.40261e-05
-0.00922188
-0.000237381
-0.0100432
-0.00056172
-0.0108833
-0.000907132
-0.0117396
-0.00127248
-0.012609
-0.00165622
-0.0134877
-0.00205654
-0.0143713
-0.00247133
-0.0152546
-0.00289804
-0.0161315
-0.00333365
-0.0169954
-0.00377457
-0.0178388
-0.00421661
-0.0186532
-0.0046549
-0.0194296
-0.00508384
-0.0201587
-0.00549706
-0.0208304
-0.00588744
-0.0214349
-0.00624687
-0.0219624
-0.00656482
-0.0224073
-0.00682653
-0.0227753
-0.00702086
-0.0230641
-0.00716846
-0.00725508
-0.0232475
-4.61249e-05
0.000605395
-0.000184256
0.00136839
-0.000408323
0.00183096
-0.00070756
0.00208425
-0.00106931
0.00219739
-0.00148113
0.00222053
-0.00193217
0.00218709
-0.00241384
0.00211693
-0.00291988
0.00202005
-0.00344605
0.00190016
-0.00398954
0.00175757
-0.00454849
0.0015912
-0.00512146
0.00139984
-0.0057069
0.00118263
-0.00630321
0.000939209
-0.00690878
0.000669591
-0.00752041
0.000374249
-0.00813513
5.3008e-05
-0.00875005
-0.000292214
-0.00936045
-0.000662084
-0.00996129
-0.00105537
-0.0105467
-0.00147113
-0.0111099
-0.00190813
-0.0116432
-0.00236478
-0.0121378
-0.00283905
-0.012584
-0.00332837
-0.012971
-0.00382958
-0.0132871
-0.00433884
-0.0135193
-0.00485155
-0.0136541
-0.00536234
-0.0136765
-0.00586495
-0.0135714
-0.00635206
-0.0133217
-0.00681448
-0.0129108
-0.00723743
-0.0123383
-0.00759332
-0.0116488
-0.00785801
-0.00821676
-0.0106871
-3.1068e-05
0.000636463
-0.000133159
0.00147048
-0.000306102
0.0020039
-0.000543156
0.00232131
-0.00083422
0.00248845
-0.00116822
0.00255453
-0.00153478
0.00255365
-0.00192511
0.00250727
-0.00233236
0.0024273
-0.00275143
0.00231923
-0.00317856
0.0021847
-0.00361087
0.00202351
-0.00404586
0.00183482
-0.004481
0.00161778
-0.00491358
0.00137179
-0.00534043
0.00109644
-0.00575768
0.000791497
-0.00616139
0.00045672
-0.00654542
9.18213e-05
-0.00690462
-0.00030289
-0.00723177
-0.000728221
-0.00751895
-0.00118395
-0.00775716
-0.00166993
-0.00793626
-0.00218567
-0.00804504
-0.00273027
-0.00807113
-0.00330229
-0.0080011
-0.00389961
-0.00782052
-0.00451942
-0.00751401
-0.00515807
-0.00706525
-0.0058111
-0.006457
-0.0064732
-0.00567104
-0.00713802
-0.00468786
-0.00779766
-0.00348317
-0.00844212
-0.00201311
-0.00906338
-0.000234963
-0.00963615
-0.00989921
0.00144749
-1.70759e-05
0.000653539
-8.48031e-05
0.00153821
-0.000208123
0.00212722
-0.000383984
0.00249717
-0.000604767
0.00270923
-0.000860844
0.00281061
-0.00114241
0.00283522
-0.00144063
0.00280548
-0.00174811
0.00273478
-0.00205894
0.00263006
-0.00236839
0.00249415
-0.00267252
0.00232764
-0.00296771
0.00213001
-0.00325033
0.0019004
-0.00351641
0.00163786
-0.00376144
0.00134147
-0.00398021
0.00101027
-0.00416669
0.000643207
-0.004314
0.000239124
-0.00441378
-0.000203109
-0.00445708
-0.000684921
-0.00443348
-0.00120755
-0.00433133
-0.00177208
-0.00413771
-0.00237928
-0.00383852
-0.00302947
-0.00341852
-0.00372228
-0.00286149
-0.00445664
-0.00215046
-0.00523045
-0.00126791
-0.00604061
-0.000196045
-0.00688296
0.001083
-0.00775225
0.00258712
-0.00864214
0.0043358
-0.00954634
0.00635009
-0.0104564
0.00865654
-0.0113698
0.0112297
-0.0122093
-0.0130364
0.0143669
-4.84223e-06
0.000658381
-4.14642e-05
0.00157483
-0.000118871
0.00220462
-0.000237078
0.00261538
-0.000390673
0.00286283
-0.0005714
0.00299133
-0.000770075
0.00303389
-0.000977838
0.00301325
-0.0011868
0.00294375
-0.00139021
0.00283347
-0.00158227
0.00268621
-0.00175781
0.00250317
-0.00191185
0.00228406
-0.00203931
0.00202785
-0.00213457
0.00173313
-0.00219132
0.00139822
-0.00220229
0.00102124
-0.00215911
0.00060002
-0.00205211
0.000132127
-0.00187033
-0.000384885
-0.00160131
-0.000953941
-0.00123114
-0.00157772
-0.000744443
-0.00225878
-0.000124465
-0.00299926
0.000646755
-0.00380069
0.00158816
-0.00466369
0.00271922
-0.00558771
0.00405968
-0.00657091
0.00562896
-0.0076099
0.0074457
-0.0086997
0.00952728
-0.00983383
0.0118888
-0.0110037
0.0145456
-0.0122031
0.0175007
-0.0134115
0.0207903
-0.0146594
0.0243707
-0.0157898
-0.0172156
0.02855
5.27926e-06
0.000653102
-4.75826e-06
0.00158486
-4.165e-05
0.00224152
-0.000107679
0.0026814
-0.000199182
0.00295433
-0.000309065
0.00310122
-0.000428649
0.00315348
-0.000549
0.0031336
-0.00066164
0.00305639
-0.000758809
0.00293064
-0.000833372
0.00276078
-0.000878538
0.00254834
-0.000887486
0.00229301
-0.00085297
0.00199334
-0.00076697
0.00164713
-0.000620385
0.00125164
-0.000402784
0.000803634
-0.000102201
0.000299437
0.000294945
-0.000265018
0.00080416
-0.0008941
0.00144253
-0.00159232
0.00222891
-0.0023641
0.00318364
-0.00321351
0.00432828
-0.0041439
0.00568518
-0.00515759
0.00727692
-0.00625543
0.00912574
-0.00743653
0.0112528
-0.00869794
0.0136774
-0.0100345
0.0164162
-0.0114386
0.0194833
-0.0129009
0.0228865
-0.014407
0.0266372
-0.0159538
0.030715
-0.0174893
0.0351697
-0.0191141
0.0398556
-0.0204757
-0.0225068
0.0451468
1.28218e-05
0.00064028
2.42879e-05
0.0015734
2.15831e-05
0.00224422
1.11503e-06
0.00270187
-3.45903e-05
0.00299004
-7.91114e-05
0.00314574
-0.000124027
0.00319839
-0.000160093
0.00316966
-0.000177983
0.00307428
-0.000168567
0.00292122
-0.000122877
0.00271509
-3.185e-05
0.00245731
0.000114043
0.00214712
0.000325197
0.00178218
0.000613254
0.00135907
0.000991437
0.000873454
0.0014748
0.00032027
0.00208039
-0.000306156
0.00282733
-0.00101196
0.00373674
-0.00180351
0.00483155
-0.00268713
0.00613614
-0.00366869
0.0076758
-0.00475317
0.00947609
-0.00594419
0.0115619
-0.00724345
0.0139569
-0.00865033
0.0166818
-0.0101615
0.0197544
-0.0117705
0.0231879
-0.013468
0.0269905
-0.0152411
0.0311657
-0.0170761
0.0357077
-0.0189489
0.0406172
-0.0208633
0.0458512
-0.0227234
0.0514587
-0.0247216
0.0572333
-0.0262503
-0.028755
0.0634814
1.7885e-05
0.000622395
4.54425e-05
0.00154584
7.01481e-05
0.00221952
8.82436e-05
0.00268378
0.000101953
0.00297633
0.000117469
0.00313022
0.000143456
0.00317241
0.0001899
0.00312322
0.00026749
0.00299669
0.000387325
0.00280138
0.000560965
0.00254145
0.000800684
0.00221759
0.00111984
0.00182796
0.00153324
0.00136878
0.00205754
0.000834775
0.00271153
0.000219458
0.00351624
-0.00048444
0.00449495
-0.00128487
0.00567302
-0.00219003
0.00707747
-0.00320796
0.00873637
-0.00434603
0.010678
-0.00561028
0.0129297
-0.00700487
0.0155168
-0.00853134
0.0184615
-0.0101881
0.0217812
-0.01197
0.0254877
-0.013868
0.0295862
-0.0158691
0.0340748
-0.0179566
0.0389439
-0.0201103
0.044177
-0.0223092
0.049749
-0.024521
0.0556362
-0.0267504
0.0617889
-0.0288761
0.068218
-0.0311506
0.0748022
-0.0328345
-0.0356728
0.08172
2.05467e-05
0.000601848
5.90923e-05
0.0015073
0.000104889
0.00217372
0.000155118
0.00263355
0.000212577
0.00291887
0.000284063
0.00305873
0.000379128
0.00307734
0.00050919
0.00299316
0.000687006
0.00281887
0.000926498
0.00256189
0.00124281
0.00222513
0.00165258
0.00180782
0.00217423
0.00130632
0.00282832
0.000714692
0.0036376
2.54939e-05
0.00462763
-0.000770571
0.00582584
-0.00168266
0.00726172
-0.00272074
0.00896588
-0.00389419
0.0109691
-0.00521122
0.0133012
-0.00667813
0.0159894
-0.00829842
0.0190566
-0.0100721
0.0225202
-0.0119949
0.0263903
-0.0140582
0.0306684
-0.0162482
0.035347
-0.0185466
0.0404089
-0.0209309
0.0458274