/*--------------------------------*- C++ -*----------------------------------*\
| =========                 |                                                 |
| \\      /  F ield         | OpenFOAM: The Open Source CFD Toolbox           |
|  \\    /   O peration     | Version:  2312                                  |
|   \\  /    A nd           | Website:  www.openfoam.com                      |
|    \\/     M anipulation  |                                                 |
\*---------------------------------------------------------------------------*/
FoamFile
{
    version     2.0;
    format      ascii;
    arch        "LSB;label=32;scalar=64";
    class       volVectorField;
    location    "31.5";
    object      U;
}
// * * * * * * * * * * * * * * * * * * * * * * * * * * * * * * * * * * * * * //

dimensions      [0 1 -1 0 0 0 0];

internalField   nonuniform List<vector> 
32230
(
(-0.0102959 0.00997022 4.15565e-20)
(-0.0249295 0.024824 -8.39013e-20)
(-0.0340107 0.0355902 0)
(-0.0380056 0.0428261 -1.14637e-19)
(-0.0373265 0.0471883 3.64094e-20)
(-0.0322952 0.0493258 -3.49153e-20)
(-0.023122 0.0498253 6.6561e-20)
(-0.00988953 0.0491965 8.98226e-25)
(0.00744495 0.0478701 3.04916e-20)
(0.0290305 0.0462039 -1.16484e-19)
(0.0550951 0.0444952 -5.5765e-20)
(0.0859108 0.0429906 0)
(0.121748 0.0418959 1.02392e-19)
(0.162827 0.0413831 -1.96059e-19)
(0.209271 0.0415934 1.40988e-19)
(0.261054 0.0426363 -1.80068e-19)
(0.317956 0.0445863 -4.3131e-20)
(0.379531 0.0474786 8.25772e-20)
(0.44509 0.0513045 7.90205e-20)
(0.513706 0.0560091 -7.56139e-20)
(0.584243 0.0614909 0)
(0.655403 0.0676053 -6.8601e-20)
(0.725791 0.0741715 3.31836e-20)
(0.793997 0.0809834 0)
(0.858672 0.0878217 0)
(0.91861 0.0944699 -2.75972e-20)
(0.972819 0.100725 -1.04579e-19)
(1.02056 0.10642 1.00142e-19)
(1.06141 0.111407 4.61364e-20)
(1.09523 0.115635 4.3326e-20)
(1.12219 0.11897 0)
(1.14274 0.121648 0)
(1.15736 0.12314 7.14096e-20)
(1.16736 0.124804 -1.01745e-19)
(1.17221 0.12381 6.2328e-20)
(1.17555 0.126037 -1.1781e-19)
(1.17333 0.119963 5.5823e-20)
(-0.0105018 0.00929167 1.46613e-22)
(-0.0250725 0.0228817 4.19783e-20)
(-0.0335464 0.0325388 -4.00206e-20)
(-0.0362909 0.0388843 -1.12867e-22)
(-0.0336412 0.0425992 7.31269e-20)
(-0.0258475 0.0443373 1.39833e-19)
(-0.0130443 0.0446854 -1.67021e-19)
(0.00476464 0.044156 6.38136e-20)
(0.0276973 0.0431898 7.4895e-23)
(0.0559653 0.0421624 5.82255e-20)
(0.0898285 0.0413918 -4.55732e-23)
(0.129542 0.0411454 5.33348e-20)
(0.175292 0.0416463 -1.53192e-19)
(0.227129 0.043072 4.87321e-20)
(0.284901 0.0455507 1.87147e-19)
(0.348205 0.0491553 0)
(0.416345 0.0538967 4.29812e-20)
(0.488334 0.0597191 0)
(0.562908 0.0664982 0)
(0.638585 0.074046 0)
(0.713746 0.0821209 -3.56537e-20)
(0.78673 0.0904428 1.3549e-19)
(0.855941 0.0987136 -1.28131e-19)
(0.919952 0.106639 6.49885e-22)
(0.977592 0.11395 2.0134e-19)
(1.02801 0.120425 -1.09198e-19)
(1.07074 0.1259 -1.01969e-19)
(1.10565 0.130283 1.93558e-19)
(1.13301 0.133545 -1.82832e-19)
(1.15337 0.135746 8.33687e-20)
(1.16753 0.136946 -8.09627e-20)
(1.17642 0.137363 -3.7006e-20)
(1.18112 0.136976 0)
(1.18249 0.136367 9.81906e-20)
(1.1816 0.134717 -1.22781e-19)
(1.17927 0.134606 8.63701e-20)
(1.17518 0.130819 -2.64883e-20)
(-0.0107223 0.00865992 -8.41962e-20)
(-0.0250152 0.0209514 0)
(-0.0324677 0.0294169 -1.21127e-19)
(-0.0333794 0.0347859 1.1572e-19)
(-0.0280157 0.0377966 1.4716e-19)
(-0.016549 0.0391323 -7.01239e-20)
(0.000971053 0.0393985 -1.41803e-22)
(0.0246236 0.0391254 3.18723e-20)
(0.0545924 0.0387741 1.03771e-23)
(0.0911163 0.038742 -5.83524e-20)
(0.134421 0.0393664 -1.48323e-23)
(0.184637 0.040927 5.32909e-20)
(0.241712 0.0436406 -5.09073e-20)
(0.305334 0.0476524 4.86766e-20)
(0.374862 0.0530259 -1.86429e-19)
(0.449299 0.0597342 0)
(0.527295 0.0676549 1.27476e-19)
(0.607204 0.0765732 -8.13704e-20)
(0.68717 0.0861937 -3.87886e-20)
(0.765252 0.0961616 3.73323e-20)
(0.83956 0.10609 -5.17873e-22)
(0.908386 0.115593 0)
(0.970329 0.124316 6.05124e-22)
(1.02438 0.131967 5.93438e-20)
(1.06996 0.138335 -1.13217e-19)
(1.10698 0.143308 6.52315e-22)
(1.13574 0.146867 0)
(1.15692 0.149086 0)
(1.17148 0.150101 4.48503e-20)
(1.18052 0.150131 -4.20947e-20)
(1.18519 0.149339 -7.70073e-20)
(1.18665 0.148081 1.10746e-19)
(1.1858 0.146279 0)
(1.18359 0.144724 3.15244e-20)
(1.18044 0.14233 2.95355e-20)
(1.17707 0.141761 -2.09389e-21)
(1.17336 0.138027 -5.23034e-20)
(-0.0109358 0.00805785 4.22306e-20)
(-0.0246519 0.0190168 4.28447e-20)
(-0.0305428 0.0262475 0)
(-0.0288789 0.0306173 -7.75253e-20)
(-0.0198664 0.0329482 3.72144e-20)
(-0.00359963 0.0339754 1.94312e-22)
(0.0199548 0.0343414 3.35523e-20)
(0.0509432 0.0346068 3.20098e-20)
(0.0895719 0.0352591 6.12272e-20)
(0.136025 0.0367148 -5.84509e-20)
(0.190362 0.0393166 -5.57992e-20)
(0.252407 0.0433235 0)
(0.321651 0.0488961 4.69567e-23)
(0.397173 0.0560812 4.85347e-20)
(0.47762 0.0648001 4.64855e-20)
(0.561236 0.0748462 8.84461e-20)
(0.645949 0.0858946 -1.26997e-19)
(0.72952 0.0975259 -4.004e-20)
(0.809707 0.109263 -3.85081e-20)
(0.884444 0.120612 3.66314e-20)
(0.952002 0.131112 -3.47928e-20)
(1.01111 0.140375 -3.23793e-20)
(1.06104 0.148116 3.1234e-20)
(1.10159 0.154175 5.79515e-20)
(1.13312 0.158519 -2.76226e-20)
(1.15636 0.161231 1.03433e-19)
(1.17241 0.162488 -1.22467e-19)
(1.18251 0.16253 -9.07401e-20)
(1.18796 0.161626 4.41762e-20)
(1.18997 0.160055 1.21364e-19)
(1.18962 0.158037 0)
(1.18775 0.155847 3.49692e-20)
(1.18501 0.153474 0)
(1.18185 0.151449 -3.15038e-20)
(1.17846 0.14889 2.94749e-20)
(1.17527 0.148004 -5.4418e-20)
(1.17186 0.144224 -4.97289e-20)
(-0.0110983 0.00746023 4.27057e-20)
(-0.0238225 0.0170492 -8.5859e-20)
(-0.0274635 0.023045 8.18874e-20)
(-0.0223044 0.0264665 -7.82748e-20)
(-0.0085072 0.0282385 0)
(0.013901 0.0291674 -3.53555e-20)
(0.0450136 0.0299467 0)
(0.0849917 0.031175 3.22694e-20)
(0.133968 0.0333625 -6.13726e-20)
(0.191919 0.0369262 2.93022e-20)
(0.25853 0.0421739 5.57638e-20)
(0.333066 0.0492828 0)
(0.414293 0.0582775 1.0159e-19)
(0.500456 0.0690159 -4.85008e-20)
(0.589342 0.0811898 0)
(0.678428 0.0943461 4.38599e-20)
(0.765081 0.107927 0)
(0.846781 0.121324 1.19319e-19)
(0.921347 0.133945 -1.13412e-19)
(0.98711 0.145269 3.55324e-20)
(1.04303 0.154898 0)
(1.08874 0.162587 1.27718e-19)
(1.12448 0.168253 -6.09186e-20)
(1.15106 0.171967 -8.4718e-20)
(1.16963 0.173918 8.06456e-20)
(1.18159 0.174384 2.55753e-20)
(1.18839 0.173678 2.4046e-20)
(1.19137 0.17212 6.62626e-20)
(1.19171 0.169995 -2.09718e-19)
(1.19034 0.167549 1.17163e-19)
(1.18794 0.164945 -3.78744e-20)
(1.18501 0.162368 -1.04665e-19)
(1.18181 0.159763 0)
(1.17856 0.157514 2.98323e-20)
(1.17531 0.154867 0)
(1.17221 0.153643 2.68475e-20)
(1.16919 0.149905 4.96357e-20)
(-0.0111402 0.00683599 4.31024e-20)
(-0.0223094 0.0150129 -8.67583e-20)
(-0.0228444 0.0198234 -1.47344e-22)
(-0.0130847 0.0224333 7.86042e-20)
(0.00682838 0.0238796 -3.74848e-20)
(0.0369049 0.0250527 0)
(0.0772382 0.0267036 0)
(0.127896 0.0294633 -3.22538e-20)
(0.188768 0.0338421 3.07296e-20)
(0.25939 0.04021 1.09893e-22)
(0.338792 0.0487676 5.57989e-20)
(0.425394 0.0595161 -5.33558e-20)
(0.517003 0.0722411 -1.01372e-19)
(0.610914 0.086518 -9.62027e-20)
(0.704116 0.101748 1.83816e-19)
(0.793572 0.117221 -1.31495e-19)
(0.87651 0.132194 -4.12849e-20)
(0.95068 0.145977 0)
(1.01455 0.158009 1.48554e-19)
(1.06737 0.167905 -1.41316e-19)
(1.10918 0.175485 0)
(1.1407 0.180764 3.05635e-20)
(1.16314 0.183922 -9.68748e-22)
(1.17802 0.185254 -5.5465e-20)
(1.18694 0.185118 -2.6497e-20)
(1.19144 0.183883 0)
(1.19282 0.181886 0)
(1.19216 0.179411 2.19749e-20)
(1.19024 0.176677 -1.0058e-19)
(1.18761 0.173844 7.71174e-20)
(1.18462 0.171004 1.42295e-19)
(1.18147 0.168253 -6.7783e-20)
(1.17828 0.165532 0)
(1.17515 0.163116 -2.98194e-20)
(1.17209 0.160377 0)
(1.16919 0.158872 2.54399e-20)
(1.16647 0.155133 -2.44778e-20)
(-0.0109681 0.00615368 -4.36239e-20)
(-0.0198416 0.0128764 0)
(-0.0162341 0.016609 -4.50082e-22)
(-0.000585991 0.0186396 3.99543e-20)
(0.0269434 0.0201162 -2.15696e-22)
(0.0663378 0.0220152 -3.66314e-22)
(0.117576 0.0251368 -1.36784e-19)
(0.180452 0.0301172 3.25693e-20)
(0.254355 0.0374127 0)
(0.338079 0.0472633 5.88885e-20)
(0.429689 0.0596544 -2.77931e-22)
(0.526524 0.0742965 -2.67681e-20)
(0.625346 0.0906376 -5.0532e-20)
(0.722622 0.107918 2.45069e-20)
(0.814891 0.125259 4.59021e-20)
(0.899128 0.141777 0)
(0.973047 0.156689 4.12659e-20)
(1.03528 0.169403 0)
(1.08543 0.179566 -5.56581e-22)
(1.12395 0.187077 3.49124e-20)
(1.152 0.192058 -6.47132e-20)
(1.17116 0.194797 6.19394e-20)
(1.18323 0.195681 0)
(1.18993 0.195133 6.49708e-22)
(1.1928 0.193551 0)
(1.19311 0.191279 0)
(1.19179 0.188587 0)
(1.18952 0.185672 0)
(1.18672 0.182668 -5.82518e-20)
(1.18367 0.179663 7.50038e-20)
(1.18053 0.176701 3.35333e-20)
(1.17738 0.173836 -6.59e-20)
(1.17429 0.171018 0)
(1.17129 0.168442 0)
(1.16841 0.165622 0)
(1.16566 0.163847 -7.50493e-20)
(1.16318 0.160103 4.7502e-20)
(-0.0104677 0.00538758 3.28714e-22)
(-0.0161049 0.010625 -4.42752e-20)
(-0.00713515 0.0134539 4.21849e-20)
(0.0158521 0.0152421 6.77068e-22)
(0.0526149 0.0172322 1.40145e-22)
(0.102998 0.0204731 7.27651e-20)
(0.16668 0.0257825 0)
(0.242912 0.0337416 6.55387e-20)
(0.330263 0.0446594 0)
(0.426449 0.058525 -2.95107e-20)
(0.528326 0.0749807 0)
(0.632087 0.0933415 -2.66693e-20)
(0.733625 0.112671 0)
(0.829013 0.131908 2.40443e-20)
(0.914948 0.150013 0)
(0.989102 0.166106 4.2825e-20)
(1.05028 0.179566 -4.03952e-20)
(1.09843 0.190082 -3.80602e-20)
(1.13441 0.197635 -3.63956e-20)
(1.15979 0.202453 -6.74163e-20)
(1.17648 0.204926 6.45214e-20)
(1.18645 0.205522 -2.97372e-20)
(1.19153 0.20471 5.59339e-20)
(1.19325 0.202911 -1.05417e-19)
(1.19279 0.200465 7.48422e-20)
(1.19101 0.197631 0)
(1.18847 0.194588 2.16064e-20)
(1.18555 0.191457 0)
(1.18245 0.188313 0)
(1.17931 0.185203 0)
(1.17619 0.182151 6.68617e-20)
(1.17314 0.179184 -6.40488e-20)
(1.17018 0.176272 0)
(1.16734 0.173549 0)
(1.16462 0.170648 2.56344e-20)
(1.16203 0.168617 4.81967e-20)
(1.15975 0.164877 -2.36638e-20)
(-0.00950962 0.00452399 -8.96258e-20)
(-0.0107566 0.0082743 -2.55234e-22)
(0.00496925 0.0104529 8.57456e-20)
(0.0368704 0.012446 -1.21689e-19)
(0.0845194 0.0155581 -1.26972e-22)
(0.147443 0.0208732 -3.6879e-20)
(0.224752 0.0291608 -3.49962e-20)
(0.314814 0.0408448 -2.53215e-22)
(0.415023 0.0559527 -1.25438e-19)
(0.521752 0.0740797 1.48882e-19)
(0.630587 0.0944103 -5.66775e-20)
(0.736789 0.11582 0)
(0.835884 0.13704 -7.56554e-20)
(0.92423 0.156855 9.57224e-20)
(0.999405 0.174271 -6.80307e-20)
(1.06036 0.188632 -4.28166e-20)
(1.10735 0.19966 4.03883e-20)
(1.14163 0.20742 7.55772e-20)
(1.16512 0.212239 0)
(1.18002 0.214603 3.30764e-20)
(1.18847 0.215048 3.10308e-20)
(1.19236 0.214089 6.33756e-22)
(1.19322 0.212161 -5.46381e-20)
(1.19218 0.209608 2.72671e-20)
(1.19002 0.20668 2.4479e-20)
(1.18725 0.203546 6.74688e-20)
(1.1842 0.200317 -6.47095e-20)
(1.18103 0.197063 1.98193e-20)
(1.17786 0.193826 -3.78503e-20)
(1.17474 0.19063 0)
(1.17168 0.187492 -4.87713e-20)
(1.16873 0.184425 6.22191e-20)
(1.16588 0.181415 -1.41835e-20)
(1.16315 0.178545 0)
(1.16056 0.175559 -2.56319e-20)
(1.15811 0.17328 0)
(1.15598 0.169543 -6.6219e-20)
(-0.00795583 0.00356663 4.52111e-20)
(-0.00344418 0.00588295 -2.18934e-22)
(0.0205822 0.00775854 4.50015e-22)
(0.0630378 0.0105201 0)
(0.123152 0.0154782 7.7817e-20)
(0.199879 0.0236813 -3.6754e-22)
(0.291416 0.0357417 -4.19252e-22)
(0.394873 0.051779 9.96522e-20)
(0.506168 0.0713786 -6.3527e-20)
(0.620255 0.0936103 -2.98548e-20)
(0.731681 0.117152 -2.8416e-20)
(0.83532 0.140503 8.00765e-20)
(0.927071 0.162234 -7.5861e-20)
(1.00432 0.181208 4.80481e-20)
(1.0661 0.19671 4.49034e-20)
(1.11291 0.208478 0)
(1.14636 0.216653 0)
(1.1687 0.221655 -5.60109e-20)
(1.1824 0.22406 6.92037e-20)
(1.18977 0.224473 -9.93042e-20)
(1.19279 0.223452 -9.18349e-20)
(1.19298 0.221457 8.73003e-20)
(1.19146 0.218837 2.66605e-20)
(1.18897 0.21584 0)
(1.18599 0.212632 -2.33645e-20)
(1.18278 0.209319 4.32557e-20)
(1.17952 0.205966 -9.30693e-22)
(1.17628 0.202613 -1.96061e-20)
(1.17311 0.199285 0)
(1.17002 0.195998 0)
(1.16703 0.192761 4.68703e-20)
(1.16416 0.189584 -4.57036e-20)
(1.16141 0.186463 1.41837e-20)
(1.1588 0.183448 0)
(1.15634 0.180373 0)
(1.15402 0.177855 0)
(1.15202 0.174128 0)
(-0.00566612 0.00254057 -4.62955e-20)
(0.00617529 0.00356251 3.13634e-22)
(0.0401575 0.0055938 8.82502e-20)
(0.0947931 0.00980498 -4.20224e-20)
(0.168745 0.0174267 -7.95359e-20)
(0.260063 0.0293585 3.77762e-20)
(0.365638 0.0458986 -3.59424e-20)
(0.480984 0.0666819 6.78544e-20)
(0.600425 0.0906972 0)
(0.717712 0.116424 0)
(0.826919 0.142099 2.8415e-20)
(0.923314 0.166032 2.64548e-20)
(1.00394 0.18689 -8.41521e-22)
(1.06778 0.203856 -2.42326e-20)
(1.11551 0.216662 4.39925e-20)
(1.14905 0.225503 -2.14468e-20)
(1.17098 0.23089 1.93162e-20)
(1.18402 0.233485 -3.67209e-20)
(1.19069 0.233972 5.17849e-20)
(1.19306 0.23296 7.95561e-20)
(1.19273 0.230939 -7.57909e-20)
(1.19079 0.228275 0)
(1.18798 0.225221 -2.66641e-20)
(1.18476 0.221944 -2.44089e-20)
(1.18137 0.218548 7.00509e-20)
(1.17797 0.215099 -4.8855e-22)
(1.17462 0.211634 -9.41333e-22)
(1.17135 0.208178 -5.68473e-20)
(1.16819 0.204748 3.49374e-20)
(1.16515 0.201355 -3.34624e-20)
(1.16222 0.198008 0)
(1.15942 0.194713 -4.32989e-20)
(1.15676 0.191475 1.40851e-20)
(1.15426 0.188318 -5.00669e-20)
(1.1519 0.18515 4.79709e-20)
(1.1497 0.1824 0)
(1.14778 0.178687 -1.0185e-20)
(-0.00250389 0.00149417 0)
(0.0184146 0.00148188 0)
(0.0640612 0.00425492 2.2698e-20)
(0.132387 0.010708 -2.15021e-20)
(0.221193 0.0218669 8.01748e-20)
(0.327232 0.0383196 -5.76415e-20)
(0.445714 0.0598524 1.81536e-20)
(0.570372 0.0854318 3.43546e-20)
(0.694099 0.113356 -3.6758e-23)
(0.81 0.141566 0)
(0.912484 0.168051 0)
(0.998024 0.191207 2.68968e-20)
(1.06537 0.210054 0)
(1.11528 0.22427 -7.0467e-20)
(1.14992 0.234083 2.25277e-20)
(1.17218 0.240084 -4.13761e-20)
(1.18509 0.243033 1.94714e-20)
(1.1914 0.243698 1.75151e-20)
(1.19333 0.242754 -5.12305e-20)
(1.19256 0.240738 1.52552e-20)
(1.19024 0.23804 1.41863e-20)
(1.18711 0.234929 -1.42739e-20)
(1.18362 0.231576 5.08721e-20)
(1.18001 0.22809 -7.30584e-20)
(1.17642 0.224535 1.10865e-20)
(1.17292 0.220951 2.12958e-20)
(1.16952 0.217363 -5.8141e-20)
(1.16625 0.213788 5.57735e-20)
(1.16311 0.210238 -1.68836e-20)
(1.1601 0.206723 0)
(1.15723 0.203252 -1.47414e-20)
(1.1545 0.199831 0)
(1.15193 0.196466 5.20826e-20)
(1.14952 0.193167 -2.48022e-20)
(1.14727 0.189897 1.12506e-20)
(1.14516 0.186921 0)
(1.14331 0.183226 1.01881e-20)
(0.00165862 0.000498816 2.41334e-20)
(0.0335347 -0.00013458 -4.87965e-20)
(0.0925314 0.00410335 2.29436e-20)
(0.175822 0.0136823 -8.51604e-22)
(0.279989 0.0292515 -4.1297e-20)
(0.400084 0.0508777 1.92622e-20)
(0.529371 0.0776204 -3.67031e-20)
(0.659878 0.107642 0)
(0.783574 0.138569 -3.24256e-20)
(0.893732 0.167995 -1.53699e-20)
(0.98595 0.193948 0)
(1.0585 0.215191 -2.69033e-20)
(1.11205 0.231281 0)
(1.14894 0.242441 6.9864e-20)
(1.17237 0.249335 -4.44255e-20)
(1.18571 0.252825 2.05795e-20)
(1.192 0.253782 3.76823e-20)
(1.19368 0.252968 -9.19391e-22)
(1.19256 0.250981 -1.71891e-20)
(1.18988 0.248253 0)
(1.1864 0.245074 -1.42693e-20)
(1.18261 0.241631 -1.36206e-20)
(1.17873 0.238036 0)
(1.17492 0.234359 0)
(1.17121 0.230641 -1.10904e-20)
(1.16764 0.226907 -3.02788e-20)
(1.16422 0.223176 5.79785e-20)
(1.16095 0.219461 0)
(1.15782 0.215774 3.32413e-20)
(1.15484 0.212122 0)
(1.15203 0.208515 1.47465e-20)
(1.14937 0.204958 0)
(1.14688 0.201459 1.21249e-20)
(1.14456 0.198021 -3.55655e-20)
(1.1424 0.194638 -1.12545e-20)
(1.14038 0.191445 0)
(1.13856 0.187769 0)
(0.00693331 -0.000351658 2.51454e-20)
(0.0517216 -0.00101356 2.44871e-20)
(0.125638 0.00554721 0)
(0.224808 0.0191911 2.1942e-20)
(0.344202 0.0399704 -2.04807e-20)
(0.476835 0.0671892 3.98086e-20)
(0.613975 0.0989936 -1.8504e-20)
(0.746352 0.132709 5.24881e-20)
(0.865805 0.165456 -6.35317e-22)
(0.966669 0.194772 -1.58037e-20)
(1.04639 0.219032 1.44345e-20)
(1.1053 0.237572 0)
(1.1458 0.250553 2.47493e-20)
(1.17139 0.258689 -5.8513e-20)
(1.18583 0.262953 2.20357e-20)
(1.19249 0.264342 3.98783e-20)
(1.19413 0.263729 -1.94984e-20)
(1.19276 0.261797 3.45219e-20)
(1.18973 0.259035 -6.5596e-20)
(1.18589 0.255772 -2.99104e-20)
(1.18175 0.252213 8.47005e-20)
(1.17756 0.248485 -1.36815e-20)
(1.17346 0.244659 0)
(1.16951 0.240782 0)
(1.16573 0.236881 2.09944e-20)
(1.16212 0.232976 -1.05932e-20)
(1.15867 0.22908 -9.64701e-21)
(1.1554 0.225205 -8.47853e-21)
(1.15229 0.221361 -1.63593e-20)
(1.14936 0.217557 -2.22688e-20)
(1.14659 0.213801 2.15152e-20)
(1.14401 0.210099 0)
(1.1416 0.206458 -5.98628e-21)
(1.13937 0.202879 4.40089e-22)
(1.13729 0.19937 0)
(1.13533 0.19597 0)
(1.13354 0.192311 9.08705e-21)
(0.0134078 -0.000944138 -1.25868e-20)
(0.0730621 -0.000846205 2.52316e-20)
(0.163248 0.00901366 -2.41162e-20)
(0.278734 0.027664 0)
(0.412505 0.0542983 -2.1176e-20)
(0.555355 0.0872203 1.99993e-20)
(0.696817 0.123559 1.84497e-20)
(0.82704 0.159914 -1.82441e-20)
(0.938653 0.193186 0)
(1.02781 0.221188 0)
(1.09415 0.242889 -1.44411e-20)
(1.13994 0.258293 0)
(1.16892 0.268125 0)
(1.18526 0.27347 -2.31598e-20)
(1.1928 0.275476 -1.06818e-20)
(1.19467 0.275157 2.95542e-20)
(1.19315 0.273312 -4.66478e-20)
(1.18981 0.270514 0)
(1.18559 0.267143 3.9703e-20)
(1.18106 0.263437 -8.74765e-22)
(1.17651 0.259539 -4.19414e-20)
(1.17208 0.255531 2.49365e-20)
(1.16783 0.251462 -6.83098e-22)
(1.16379 0.247364 -3.34347e-20)
(1.15995 0.243255 -2.03667e-20)
(1.1563 0.239153 5.36833e-22)
(1.15285 0.235069 1.78559e-20)
(1.14958 0.231014 -7.9724e-21)
(1.1465 0.226996 4.24579e-22)
(1.14361 0.223025 -1.40886e-20)
(1.14091 0.219108 4.72278e-20)
(1.13839 0.215252 -6.7556e-22)
(1.13607 0.211461 -1.78247e-20)
(1.13392 0.207737 -1.0453e-20)
(1.13191 0.204089 2.07279e-20)
(1.13002 0.200495 0)
(1.12825 0.196843 -9.09429e-21)
(0.0211366 -0.00115014 2.5981e-20)
(0.0975227 0.000695244 0)
(0.205005 0.0149163 0)
(0.336676 0.039452 0)
(0.483251 0.0723569 0)
(0.633373 0.110747 0)
(0.775417 0.150764 0)
(0.899862 0.188532 0)
(1.00099 0.221086 0)
(1.07723 0.246811 -1.56221e-20)
(1.13039 0.265405 -1.44608e-20)
(1.16433 0.277531 0)
(1.18366 0.284373 0)
(1.19275 0.287249 1.15349e-20)
(1.19521 0.287358 3.1591e-20)
(1.19373 0.285652 -3.95034e-20)
(1.19012 0.282819 2.7696e-20)
(1.18551 0.279314 0)
(1.18056 0.275423 7.9013e-21)
(1.17559 0.271311 0)
(1.17078 0.267076 1.32444e-20)
(1.16619 0.262773 -3.14788e-20)
(1.16184 0.258437 -1.71319e-20)
(1.15773 0.254089 3.27943e-20)
(1.15385 0.249747 1.48043e-20)
(1.15019 0.245424 -2.34513e-20)
(1.14673 0.241129 -8.80381e-21)
(1.14348 0.236874 0)
(1.14044 0.232666 1.47745e-20)
(1.13759 0.228513 -1.16396e-22)
(1.13496 0.224424 -1.3177e-20)
(1.13253 0.220403 0)
(1.13029 0.216454 0)
(1.12821 0.21258 0)
(1.12627 0.208777 -4.78801e-21)
(1.12443 0.205006 1.34807e-20)
(1.12269 0.201342 -8.63649e-21)
(0.0301288 -0.000831468 0)
(0.124928 0.003938 0)
(0.250317 0.0236245 0)
(0.397425 0.0547954 -1.17834e-20)
(0.554594 0.0941032 1.95097e-22)
(0.708685 0.137394 -1.01417e-20)
(0.847746 0.179997 4.89866e-20)
(0.963526 0.217923 -9.66709e-21)
(1.05257 0.248684 -2.56493e-20)
(1.11572 0.271441 1.56324e-20)
(1.15668 0.286658 1.44707e-20)
(1.18045 0.295571 0)
(1.19201 0.299684 1.2095e-20)
(1.19559 0.300421 -1.15692e-20)
(1.19441 0.298941 0)
(1.19064 0.296088 -2.46732e-22)
(1.18566 0.292425 -1.35186e-20)
(1.18025 0.288303 0)
(1.17482 0.283925 1.50277e-20)
(1.16958 0.279409 -1.43817e-20)
(1.1646 0.27482 1.28822e-20)
(1.15989 0.270197 5.76047e-21)
(1.15547 0.265565 -2.2662e-20)
(1.15131 0.26094 0)
(1.1474 0.256338 4.92106e-21)
(1.14374 0.251769 4.5718e-21)
(1.14029 0.247243 0)
(1.13707 0.242768 -7.6363e-21)
(1.13407 0.238353 7.31336e-21)
(1.13129 0.234006 6.83837e-21)
(1.12873 0.229732 0)
(1.12638 0.225538 1.14336e-20)
(1.12423 0.221424 2.32563e-21)
(1.12223 0.217392 -1.01979e-20)
(1.12036 0.213426 -2.15924e-21)
(1.11857 0.209494 -2.0964e-21)
(1.11685 0.205791 1.02213e-20)
(0.0403374 0.000155611 3.54198e-21)
(0.154945 0.00919682 1.37011e-20)
(0.29836 0.0354463 6.31618e-21)
(0.459557 0.0738113 -1.81538e-20)
(0.624641 0.119343 1.15166e-20)
(0.779348 0.166678 -1.05283e-20)
(0.912352 0.210659 5.1939e-21)
(1.01746 0.247572 9.16146e-21)
(1.09379 0.275693 1.2737e-20)
(1.14445 0.295057 0)
(1.17463 0.306841 7.07291e-21)
(1.18997 0.312728 -6.76429e-21)
(1.19546 0.314406 0)
(1.19498 0.313301 2.779e-21)
(1.19123 0.310473 0)
(1.18592 0.306635 0)
(1.18004 0.302234 -4.1717e-21)
(1.17411 0.29753 6.2349e-21)
(1.16838 0.292668 -7.31833e-21)
(1.16295 0.28773 7.00377e-21)
(1.15785 0.28276 0)
(1.15307 0.277786 0)
(1.1486 0.272828 1.35457e-20)
(1.14442 0.267899 -2.65333e-21)
(1.1405 0.263011 -2.2829e-21)
(1.13685 0.258173 0)
(1.13343 0.253395 -3.94563e-21)
(1.13025 0.248684 7.43997e-21)
(1.12731 0.244047 -1.82207e-21)
(1.12461 0.239491 0)
(1.12213 0.235022 0)
(1.11987 0.230644 1.34826e-21)
(1.11781 0.226358 -1.3842e-21)
(1.11589 0.22216 0)
(1.11408 0.218026 -1.20166e-21)
(1.11235 0.213953 -1.12013e-21)
(1.11066 0.21018 -1.98159e-21)
(0.0516865 0.00196324 -3.49422e-21)
(0.187153 0.0167728 0)
(0.348206 0.0506136 0)
(0.52163 0.096479 -6.15047e-21)
(0.691697 0.147744 -2.8734e-21)
(0.843881 0.198068 2.74655e-21)
(0.968404 0.242214 -4.99586e-21)
(1.06167 0.277115 0)
(1.12541 0.301995 -4.25835e-21)
(1.16465 0.317763 0)
(1.1856 0.326206 1.75456e-21)
(1.19414 0.329309 -3.2855e-21)
(1.195 0.32883 3.01075e-21)
(1.19158 0.32612 -2.83978e-21)
(1.18605 0.322109 -1.29253e-21)
(1.17972 0.317383 0)
(1.17325 0.312284 0)
(1.16699 0.307002 1.99191e-21)
(1.16106 0.301638 0)
(1.15551 0.296249 8.18001e-22)
(1.15033 0.290866 -2.84135e-23)
(1.14551 0.28551 -2.57553e-23)
(1.14102 0.280196 -2.69282e-21)
(1.13684 0.274936 -3.08493e-21)
(1.13294 0.269737 2.28519e-21)
(1.12932 0.26461 0)
(1.12596 0.25956 0)
(1.12284 0.254595 0)
(1.11998 0.249721 -1.68629e-21)
(1.11736 0.244943 0)
(1.11499 0.240268 0)
(1.11283 0.235697 -7.02511e-22)
(1.11087 0.23123 -1.87408e-21)
(1.10905 0.226858 -5.58495e-22)
(1.10732 0.222555 -5.4908e-22)
(1.10566 0.218358 -1.00855e-21)
(1.10401 0.214487 0)
(-0.000712503 -0.00358101 -2.12095e-21)
(-0.00406976 -0.0155342 0)
(-0.0107381 -0.0297568 0)
(-0.0194182 -0.0443545 -3.94866e-21)
(-0.0294388 -0.0581825 1.88503e-21)
(-0.0404134 -0.0707342 -1.80215e-21)
(-0.0520288 -0.0819729 -3.4784e-21)
(-0.0640415 -0.0921535 0)
(-0.0762787 -0.101661 -3.20381e-21)
(-0.0886256 -0.110884 0)
(-0.101013 -0.120139 -1.47489e-21)
(-0.113404 -0.129638 1.41059e-21)
(-0.125787 -0.139498 -1.36679e-21)
(-0.138163 -0.149755 -2.65033e-21)
(-0.150538 -0.160398 1.26022e-21)
(-0.162921 -0.171384 0)
(-0.175319 -0.182654 0)
(-0.187736 -0.194142 2.2942e-21)
(-0.20017 -0.205775 0)
(-0.212614 -0.217473 -1.07673e-21)
(-0.225056 -0.229151 -1.43042e-23)
(-0.237476 -0.240715 -1.49142e-23)
(-0.249846 -0.252062 -3.94336e-21)
(-0.262132 -0.263082 -2.8737e-21)
(-0.274291 -0.273655 3.71627e-21)
(-0.286273 -0.283654 0)
(-0.298022 -0.292946 0)
(-0.309472 -0.301395 0)
(-0.320554 -0.308862 -3.36579e-21)
(-0.331193 -0.31521 0)
(-0.341321 -0.320305 0)
(-0.350872 -0.324028 -4.76729e-21)
(-0.359767 -0.326273 -1.54448e-21)
(-0.367887 -0.326936 1.55748e-21)
(-0.375156 -0.325877 -4.46299e-21)
(-0.381721 -0.322961 -2.91465e-21)
(-0.387924 -0.318265 0)
(-0.000786533 -0.000886048 6.38768e-21)
(-0.0041496 -0.00886487 -8.62208e-21)
(-0.0108836 -0.0201723 -4.15405e-21)
(-0.0196602 -0.0326289 1.98036e-20)
(-0.0297961 -0.0448981 -7.58991e-21)
(-0.0408983 -0.0563313 7.29737e-21)
(-0.0526459 -0.0667772 -1.05292e-20)
(-0.0647907 -0.0763983 6.74481e-21)
(-0.0771603 -0.0855038 9.6782e-21)
(-0.089644 -0.094423 6.20212e-21)
(-0.10218 -0.103427 -1.18961e-20)
(-0.11474 -0.112698 5.70477e-21)
(-0.127322 -0.122331 0)
(-0.139936 -0.132353 7.96745e-21)
(-0.152596 -0.142748 -5.09806e-21)
(-0.165321 -0.153474 0)
(-0.178127 -0.164475 1.43868e-20)
(-0.191026 -0.175689 -1.14661e-20)
(-0.204029 -0.18705 0)
(-0.21714 -0.198487 0)
(-0.230359 -0.209921 0)
(-0.24368 -0.22127 0)
(-0.257091 -0.232443 3.89236e-21)
(-0.270573 -0.24334 1.14053e-20)
(-0.284101 -0.253855 -3.71313e-21)
(-0.297641 -0.263875 0)
(-0.311155 -0.273279 7.10243e-21)
(-0.324594 -0.281943 -1.37252e-20)
(-0.337905 -0.28974 9.99384e-21)
(-0.351029 -0.296542 0)
(-0.363916 -0.302221 0)
(-0.37652 -0.306664 3.15101e-21)
(-0.388759 -0.309766 -2.925e-21)
(-0.400458 -0.311409 0)
(-0.411482 -0.311426 -2.75472e-21)
(-0.422148 -0.309671 -2.67476e-21)
(-0.433304 -0.306291 -5.50496e-21)
(-0.0010584 0.00191811 0)
(-0.0046239 -0.00190821 0)
(-0.011411 -0.0101801 0)
(-0.0201522 -0.0204303 8.01957e-21)
(-0.0302001 -0.0311187 2.26055e-23)
(-0.0411816 -0.0414364 7.39857e-21)
(-0.0527849 -0.0511005 -2.12317e-20)
(-0.064766 -0.0601657 -6.79616e-21)
(-0.0769556 -0.0688571 6.52057e-21)
(-0.0892472 -0.0774403 1.25949e-20)
(-0.101583 -0.0861418 1.2113e-20)
(-0.113941 -0.095115 0)
(-0.126323 -0.104439 0)
(-0.138743 -0.114132 0)
(-0.151223 -0.124176 0)
(-0.163783 -0.13453 -2.01005e-20)
(-0.176447 -0.145143 4.8103e-21)
(-0.189233 -0.155956 0)
(-0.202158 -0.166908 -1.8117e-20)
(-0.215234 -0.177937 1.73381e-20)
(-0.228472 -0.188972 -1.69674e-20)
(-0.241875 -0.199939 8.00857e-21)
(-0.255446 -0.21076 -9.93422e-23)
(-0.269179 -0.221346 0)
(-0.283064 -0.231604 7.45277e-21)
(-0.297085 -0.241434 7.22372e-21)
(-0.31122 -0.250729 0)
(-0.325439 -0.259377 1.37219e-20)
(-0.339705 -0.267263 -1.31415e-20)
(-0.353976 -0.274268 1.27876e-20)
(-0.368222 -0.280273 0)
(-0.382425 -0.285167 -2.45462e-20)
(-0.396501 -0.288845 5.6371e-21)
(-0.410219 -0.291182 2.28842e-20)
(-0.423386 -0.292005 3.93459e-20)
(-0.436516 -0.291183 -4.72745e-21)
(-0.45107 -0.288908 -1.57789e-20)
(-0.00152275 0.00469847 5.52965e-23)
(-0.0054868 0.00504195 0)
(-0.0123193 -0.000156251 0)
(-0.0208992 -0.00816978 0)
(-0.0306632 -0.0172622 0)
(-0.0412841 -0.0264602 0)
(-0.052475 -0.0353405 0)
(-0.0640055 -0.0438429 0)
(-0.075713 -0.0521028 0)
(-0.0874943 -0.0603201 -1.2587e-20)
(-0.0992943 -0.068677 -1.21053e-20)
(-0.111093 -0.0773001 2.35307e-20)
(-0.122891 -0.0862536 -2.25061e-20)
(-0.134707 -0.0955509 1.09542e-20)
(-0.14656 -0.105171 -1.05051e-20)
(-0.158474 -0.115075 4.03459e-20)
(-0.170473 -0.125212 -9.61703e-21)
(-0.182577 -0.135528 0)
(-0.194806 -0.145966 9.16325e-21)
(-0.207174 -0.156466 0)
(-0.219698 -0.166966 -1.71093e-20)
(-0.232386 -0.177396 -8.35577e-21)
(-0.245248 -0.187685 3.99578e-20)
(-0.258286 -0.197756 -1.52002e-20)
(-0.271502 -0.207524 -3.74432e-20)
(-0.284891 -0.216902 -7.53756e-21)
(-0.298445 -0.225794 1.3834e-20)
(-0.312149 -0.234102 0)
(-0.325981 -0.241722 -2.63635e-20)
(-0.339913 -0.248551 -4.33754e-22)
(-0.353936 -0.254481 2.44534e-20)
(-0.368053 -0.259411 -2.39412e-20)
(-0.382198 -0.263239 2.29354e-20)
(-0.396096 -0.265845 0)
(-0.409465 -0.267075 -1.1003e-20)
(-0.422947 -0.266833 -1.03561e-20)
(-0.438662 -0.265336 2.03002e-20)
(-0.00216033 0.00732754 -2.64641e-20)
(-0.00670548 0.0117047 -1.78486e-20)
(-0.0135812 0.00953954 1.70614e-20)
(-0.021892 0.00376052 0)
(-0.031198 -0.003725 -1.58146e-20)
(-0.0412411 -0.0117891 -1.51008e-20)
(-0.0517757 -0.0198703 -1.45541e-20)
(-0.0625938 -0.0277915 4.17011e-20)
(-0.0735431 -0.0355961 0)
(-0.0845238 -0.043418 0)
(-0.0954822 -0.0513936 -1.24247e-20)
(-0.106397 -0.0596261 0)
(-0.117267 -0.0681658 0)
(-0.128106 -0.0770204 -2.20446e-20)
(-0.138935 -0.0861685 -1.05544e-20)
(-0.149772 -0.0955709 -1.03988e-20)
(-0.16064 -0.10518 -1.00344e-20)
(-0.171557 -0.114943 0)
(-0.182539 -0.124807 -2.76363e-20)
(-0.193602 -0.134714 -3.22297e-22)
(-0.204758 -0.144604 1.69373e-20)
(-0.216017 -0.154415 -1.48362e-22)
(-0.227388 -0.16408 -3.22118e-20)
(-0.238877 -0.173526 1.53914e-20)
(-0.250487 -0.182677 0)
(-0.262219 -0.191453 0)
(-0.274071 -0.199768 1.0264e-23)
(-0.286038 -0.207533 4.04991e-20)
(-0.298108 -0.214655 1.95438e-22)
(-0.310264 -0.221041 -5.0097e-20)
(-0.322505 -0.226597 -3.65283e-20)
(-0.334857 -0.231231 -2.89195e-22)
(-0.347288 -0.234848 5.59443e-20)
(-0.359511 -0.237337 6.4729e-20)
(-0.371116 -0.238573 -4.15544e-20)
(-0.382716 -0.238508 0)
(-0.397126 -0.237404 -1.90503e-20)
(-0.00293684 0.00969571 -1.19757e-22)
(-0.00822252 0.0178339 1.81701e-20)
(-0.0151507 0.0185865 0)
(-0.0231086 0.0150072 1.67014e-20)
(-0.0318143 0.00913203 4.76824e-20)
(-0.0410985 0.00222115 -3.04722e-20)
(-0.0507699 -0.00503559 4.41091e-20)
(-0.060651 -0.012348 -7.02539e-20)
(-0.0706049 -0.019669 -1.3918e-22)
(-0.0805344 -0.027065 3.90054e-20)
(-0.0903866 -0.0346345 1.2419e-20)
(-0.10014 -0.0424501 0)
(-0.109786 -0.0505498 -2.32619e-20)
(-0.119335 -0.0589362 3.32767e-20)
(-0.128803 -0.0675885 -2.14429e-20)
(-0.138203 -0.0764687 0)
(-0.147551 -0.08553 1.98903e-20)
(-0.156862 -0.0947227 -3.8781e-20)
(-0.166145 -0.103994 -1.54498e-22)
(-0.175411 -0.11329 3.61054e-20)
(-0.184666 -0.122553 -3.4694e-20)
(-0.193914 -0.131723 5.00095e-20)
(-0.203159 -0.140735 0)
(-0.212402 -0.149521 0)
(-0.221642 -0.158008 -3.01357e-20)
(-0.230877 -0.166119 -1.46784e-20)
(-0.240106 -0.173775 4.17489e-20)
(-0.249322 -0.18089 -1.34447e-20)
(-0.258519 -0.187379 -2.5775e-20)
(-0.267683 -0.193155 6.22282e-20)
(-0.276815 -0.198134 -5.96637e-20)
(-0.285953 -0.202233 0)
(-0.295113 -0.205367 -1.11112e-20)
(-0.304054 -0.207435 -5.33011e-22)
(-0.312231 -0.208341 0)
(-0.319998 -0.20809 0)
(-0.330811 -0.20706 1.90246e-20)
(-0.00380838 0.0117163 -1.81144e-20)
(-0.00996057 0.023227 8.86052e-23)
(-0.0169617 0.0267144 -5.27632e-20)
(-0.0245162 0.0252658 1.23841e-22)
(-0.0325206 0.0209913 3.21805e-20)
(-0.0409081 0.0152524 1.55621e-20)
(-0.049553 0.0088497 -2.96785e-20)
(-0.0583164 0.00217645 0)
(-0.0670803 -0.00463334 -2.75691e-20)
(-0.0757608 -0.0115827 -1.30795e-20)
(-0.0842993 -0.0187249 2.54142e-20)
(-0.0926651 -0.0261056 -9.77807e-20)
(-0.100851 -0.0337522 4.6801e-20)
(-0.10886 -0.0416658 -2.29353e-20)
(-0.116702 -0.0498224 4.34366e-20)
(-0.124384 -0.0581848 2.11441e-20)
(-0.131916 -0.0667078 0)
(-0.139304 -0.0753453 -3.92258e-20)
(-0.146551 -0.0840466 5.62687e-20)
(-0.153657 -0.0927594 0)
(-0.160622 -0.101429 -1.74295e-20)
(-0.167441 -0.109997 -1.69583e-20)
(-0.174107 -0.118402 0)
(-0.180612 -0.126576 0)
(-0.186945 -0.13445 -1.51208e-20)
(-0.193096 -0.141947 7.26394e-20)
(-0.199053 -0.148987 -2.77679e-20)
(-0.204805 -0.155486 0)
(-0.210337 -0.161359 5.14237e-20)
(-0.215636 -0.166516 0)
(-0.220693 -0.170874 2.34787e-20)
(-0.225539 -0.17435 0)