/*--------------------------------*- C++ -*----------------------------------*\
| =========                 |                                                 |
| \\      /  F ield         | OpenFOAM: The Open Source CFD Toolbox           |
|  \\    /   O peration     | Version:  2512                                  |
|   \\  /    A nd           | Website:  www.openfoam.com                      |
|    \\/     M anipulation  |                                                 |
\*---------------------------------------------------------------------------*/
FoamFile
{
    version     2.0;
    format      ascii;
    arch        "LSB;label=32;scalar=64";
    class       surfaceScalarField;
    location    "156.8";
    object      phi;
}
// * * * * * * * * * * * * * * * * * * * * * * * * * * * * * * * * * * * * * //

dimensions      [0 3 -1 0 0 0 0];

oriented        oriented;

internalField   nonuniform List<scalar> 
26232
(
-0.000474738
0.001911
-0.00143626
-0.00112194
0.00404327
-0.00339607
-0.00136684
0.00486459
-0.00461969
-0.000691892
0.00439384
-0.00506879
0.00141863
0.00248196
-0.00459248
0.00548727
-0.00111256
-0.00295608
0.0119601
-0.00660848
0.00013565
0.0211979
-0.0140549
0.00481713
0.033196
-0.02326
0.0112619
0.047595
-0.0337493
0.0193503
0.0636614
-0.0448641
0.0287977
0.0803964
-0.0558927
0.0391577
0.0967002
-0.0661953
0.0498915
0.111559
-0.0752993
0.0604407
0.124218
-0.082957
0.0702979
0.134314
-0.0891641
0.079068
0.141942
-0.0941391
0.0865114
0.147557
-0.0982477
0.092632
0.1519
-0.101879
0.0975361
0.155493
-0.105391
0.101798
0.158892
-0.108738
0.105339
0.161821
-0.11244
0.10951
0.163898
-0.11493
0.112854
-0.118921
0.118049
0.16477
-0.000273556
0.00218455
-0.0004481
0.00421782
6.60919e-05
0.0043504
0.00186007
0.00259986
0.00553382
-0.00119179
0.0116339
-0.00721263
0.0205116
-0.0154862
0.0321529
-0.0256962
0.046058
-0.0371651
0.0613087
-0.0489999
0.0767553
-0.0603108
0.0912627
-0.0704001
0.103939
-0.0788711
0.114295
-0.0856556
0.122305
-0.0909674
0.128344
-0.0952029
0.133004
-0.0987992
0.136874
-0.102118
0.140353
-0.105358
0.143554
-0.108592
0.146593
-0.111777
0.149146
-0.114993
0.152074
-0.117859
-0.121697
0.154851
-6.55854e-05
0.00225014
0.00031182
0.00384041
0.00174487
0.00291735
0.00488562
-0.000540885
0.0103641
-0.00667029
0.0186142
-0.0154627
0.0296329
-0.0265049
0.0428352
-0.0388985
0.0571472
-0.0514772
0.0712962
-0.0631489
0.0841464
-0.0731611
0.0949565
-0.0812102
0.103494
-0.0874086
0.109992
-0.0921531
0.114973
-0.0959484
0.119015
-0.099245
0.122561
-0.102345
0.125845
-0.105402
0.128936
-0.108449
0.131874
-0.11153
0.134656
-0.114559
0.137395
-0.117732
0.140137
-0.120601
-0.124025
0.142465
0.000115035
0.0021351
0.00105759
0.00289786
0.00349843
0.000476498
0.00813442
-0.00517687
0.0155077
-0.0140436
0.0257036
-0.0256585
0.038109
-0.0389103
0.0515236
-0.0523131
0.0645628
-0.0645163
0.0760939
-0.07468
0.0855095
-0.0825766
0.0927727
-0.0884734
0.098269
-0.0929049
0.102557
-0.0964407
0.106136
-0.0995279
0.109332
-0.102441
0.112302
-0.105316
0.115106
-0.108206
0.117799
-0.111142
0.120385
-0.114116
0.122954
-0.117128
0.125434
-0.120212
0.127971
-0.123138
-0.126638
0.130583
0.000282543
0.00185256
0.00182418
0.00135623
0.00537187
-0.00307119
0.0115878
-0.0113928
0.0207182
-0.023174
0.0322163
-0.0371567
0.0447982
-0.0514921
0.056956
-0.064471
0.0675209
-0.0750813
0.0759573
-0.0831164
0.0823402
-0.0889595
0.087122
-0.0932552
0.0908494
-0.0966323
0.0939649
-0.0995562
0.0967444
-0.102307
0.0993351
-0.105031
0.101811
-0.107792
0.104223
-0.110617
0.106583
-0.113502
0.108913
-0.116446
0.111218
-0.119433
0.11348
-0.122475
0.115837
-0.125494
-0.12881
0.118009
0.000476361
0.0013762
0.00269354
-0.000860953
0.00743442
-0.00781207
0.0151677
-0.0191261
0.025551
-0.0335572
0.0373025
-0.0489082
0.0487767
-0.0629664
0.0586955
-0.0743898
0.0665056
-0.0828913
0.0723122
-0.088923
0.0765861
-0.0932334
0.0798631
-0.0965322
0.0825663
-0.0993355
0.0849645
-0.101954
0.0872067
-0.10455
0.0893658
-0.107191
0.0914734
-0.1099
0.0935336
-0.112677
0.0955525
-0.115521
0.0975333
-0.118426
0.0994938
-0.121393
0.101448
-0.124429
0.103438
-0.127483
-0.130768
0.105396
0.000719541
0.000656659
0.00369668
-0.00383809
0.00963828
-0.0137537
0.018561
-0.0280489
0.0293555
-0.0443517
0.0402569
-0.0598096
0.0497863
-0.0724957
0.0572601
-0.0818637
0.0627326
-0.0883638
0.0666609
-0.0928513
0.0695802
-0.0961527
0.0719205
-0.0988725
0.0739596
-0.101375
0.0758492
-0.103844
0.0776581
-0.106359
0.0794124
-0.108945
0.0811199
-0.111607
0.0827901
-0.114348
0.0844328
-0.117164
0.0860607
-0.120054
0.0876869
-0.123019
0.0893059
-0.126048
0.0909602
-0.129138
-0.132364
0.0925562
0.00101212
-0.000355456
0.00479244
-0.00761842
0.0117818
-0.020743
0.0213011
-0.0375681
0.0315909
-0.0546415
0.0408939
-0.0691126
0.0482639
-0.0798657
0.0536093
-0.0872091
0.0573382
-0.0920927
0.0599906
-0.0955037
0.0620205
-0.0981826
0.0637265
-0.100579
0.0652715
-0.10292
0.0667295
-0.105302
0.0681303
-0.10776
0.0694869
-0.110301
0.0708082
-0.112929
0.0721004
-0.11564
0.073369
-0.118432
0.0746205
-0.121306
0.0758592
-0.124258
0.0770988
-0.127288
0.0783556
-0.130394
-0.133594
0.0795859
0.00133572
-0.00169117
0.00588281
-0.0121655
0.0135825
-0.0284428
0.0229914
-0.046977
0.03209
-0.0637401
0.0395251
-0.0765478
0.0449324
-0.0852729
0.0486102
-0.0908869
0.0510931
-0.0945755
0.052869
-0.0972796
0.0542715
-0.0995851
0.0554861
-0.101793
0.0565996
-0.104033
0.0576485
-0.106351
0.0586478
-0.108759
0.0596053
-0.111259
0.0605257
-0.113849
0.0614149
-0.116529
0.0622807
-0.119298
0.0631314
-0.122157
0.0639765
-0.125103
0.064821
-0.128133
0.0656694
-0.131243
-0.134423
0.0664986
0.00166568
-0.00335685
0.0068423
-0.0173421
0.0147853
-0.0363858
0.0234696
-0.0556613
0.0310355
-0.0713059
0.0366714
-0.0821838
0.040457
-0.0890585
0.0428817
-0.0933116
0.0444691
-0.096163
0.0456031
-0.0984137
0.0465062
-0.100488
0.0472862
-0.102573
0.0479888
-0.104736
0.0486325
-0.106994
0.0492258
-0.109352
0.0497747
-0.111808
0.0502856
-0.11436
0.0507654
-0.117009
0.0512207
-0.119753
0.0516578
-0.122594
0.0520817
-0.125527
0.0524994
-0.12855
0.052915
-0.131659
-0.134832
0.053324
0.00196891
-0.00532576
0.00754754
-0.0229208
0.0152488
-0.044087
0.0228101
-0.0632227
0.0287815
-0.0772773
0.0328414
-0.0862436
0.0353438
-0.0915609
0.0368278
-0.0947956
0.0377398
-0.0970749
0.0383564
-0.0990303
0.0388175
-0.100949
0.0391835
-0.102939
0.0394786
-0.105031
0.0397132
-0.107229
0.0398943
-0.109533
0.0400279
-0.111941
0.0401197
-0.114452
0.0401757
-0.117065
0.0402027
-0.11978
0.0402074
-0.122598
0.0401971
-0.125516
0.0401753
-0.128528
0.040139
-0.131622
-0.134785
0.0400912
0.00221777
-0.00754353
0.00791615
-0.0286191
0.0149758
-0.0511466
0.0212328
-0.0694797
0.0257103
-0.0817548
0.0284529
-0.0889863
0.0299481
-0.0930561
0.0307016
-0.0955491
0.0310631
-0.0974365
0.0312215
-0.0991887
0.0312611
-0.100989
0.0312155
-0.102894
0.0310986
-0.104914
0.0309179
-0.107048
0.0306791
-0.109294
0.0303872
-0.111649
0.030048
-0.114113
0.0296675
-0.116684
0.0292518
-0.119365
0.028807
-0.122154
0.0283391
-0.125049
0.0278537
-0.128043
0.0273535
-0.131122
0.0268512
-0.134282
-0.000540809
0.000797326
-0.000256516
-0.00175642
0.00445572
-0.00324011
-0.00355238
0.00862404
-0.00682808
-0.00586116
0.0124414
-0.0101326
-0.00856533
0.0157885
-0.0130843
-0.0115211
0.0189616
-0.0160059
-0.0145972
0.0222869
-0.0192108
-0.0176821
0.0259276
-0.0228427
-0.0206636
0.0298856
-0.0269041
-0.0234083
0.0340693
-0.0313245
-0.0257539
0.0383386
-0.0359931
-0.0275098
0.0425181
-0.0407622
-0.0284644
0.0463995
-0.045445
-0.0283946
0.0497457
-0.0498154
-0.027082
0.0523019
-0.0536146
-0.0243267
0.0538065
-0.0565618
-0.0199671
0.0540117
-0.0583713
-0.0138975
0.0527027
-0.0587722
-0.00607748
0.0497108
-0.0575309
0.00347233
0.0449285
-0.0544783
0.0145932
0.0383722
-0.049493
0.0271316
0.0300344
-0.0425729
0.0406676
0.0202984
-0.0338345
0.00879228
0.0550864
-0.0232111
-0.000265347
0.00106267
-0.000876063
0.00506644
-0.00188689
0.00963487
-0.00332715
0.0138816
-0.00511433
0.0175756
-0.00707774
0.0209251
-0.00902917
0.0242383
-0.010804
0.0277024
-0.0122573
0.0313389
-0.0132403
0.0350523
-0.0135915
0.0386898
-0.0131322
0.0420588
-0.0116819
0.0449493
-0.00906184
0.0471256
-0.00511047
0.0483506
0.000296786
0.0483992
0.0072356
0.0470728
0.0157254
0.0442128
0.0257085
0.0397278
0.037084
0.033553
0.0496068
0.0258493
0.0631591
0.0164822
0.0771672
0.00629029
-0.00589766
0.0918572
4.93553e-06
0.00105774
2.02122e-05
0.00505116
-0.000112069
0.00976715
-0.000534181
0.0143038
-0.00122752
0.018269
-0.00202921
0.0217268
-0.00271422
0.0249233
-0.00306708
0.0280552
-0.00290587
0.0311777
-0.00207556
0.034222
-0.000424612
0.0370388
0.00219205
0.0394421
0.00592115
0.0412202
0.0108817
0.0421651
0.0171614
0.0420708
0.0248083
0.0407524
0.0338194
0.0380617
0.0441336
0.0338986
0.0556253
0.0282362
0.0681437
0.0210346
0.0813345
0.0126585
0.0950814
0.00273524
0.109005
-0.00763295
-0.0200386
0.123146
0.000208977
0.00084876
0.000753547
0.00450659
0.00143138
0.00908932
0.00203993
0.0136952
0.00250478
0.0178041
0.00292734
0.0213042
0.00352492
0.0243258
0.00454258
0.0270376
0.00619705
0.0295232
0.00866482
0.0317543
0.0120866
0.033617
0.0165792
0.0349495
0.0222301
0.0355693
0.0291003
0.0352949
0.0372137
0.0339574
0.0465404
0.0314257
0.0570203
0.0275818
0.068489
0.0224299
0.080797
0.0159283
0.0936654
0.00816615
0.10679
-0.000465845
0.120386
-0.0108606
0.133586
-0.0208333
-0.0338458
0.147393
0.000320444
0.000528316
0.00120425
0.00362278
0.00248884
0.00780473
0.00396193
0.0122221
0.00548387
0.0162822
0.00706949
0.0197186
0.0088743
0.022521
0.0111243
0.0247876
0.0140463
0.0266011
0.0178294
0.0279712
0.0226137
0.0288327
0.0284931
0.0290701
0.035518
0.0285444
0.0436939
0.027119
0.0529876
0.0246638
0.0632893
0.021124
0.0745052
0.0163659
0.0863576
0.0105775
0.0987133
0.00357255
0.111361
-0.00448182
0.124348
-0.0134528
0.137509
-0.0240215
0.151066
-0.0343899
-0.0490154
0.166235
0.000331154
0.000197162
0.00131508
0.00263886
0.00288367
0.00623614
0.00488563
0.0102202
0.0071718
0.013996
0.00968741
0.017203
0.0125007
0.0197077
0.0157697
0.0215186
0.0196852
0.0226857
0.0244219
0.0232345
0.0301112
0.0231434
0.0368303
0.022351
0.044601
0.0207737
0.0533866
0.0183333
0.0631083
0.0149421
0.0736122
0.0106201
0.0847776
0.00520049
0.0964208
-0.00106576
0.108754
-0.00876052
0.121349
-0.0170771
0.135105
-0.0272085
0.149687
-0.0386037
0.166268
-0.0509704
-0.0671688
0.184421
0.000250582
-5.34204e-05
0.00109783
0.00179161
0.00258986
0.0047441
0.00467996
0.00813005
0.00726817
0.0114078
0.0102795
0.0141916
0.0137137
0.0162735
0.0176462
0.0175861
0.0221968
0.018135
0.0274899
0.0179414
0.033622
0.0170113
0.040645
0.015328
0.048562
0.0128568
0.0573366
0.00955866
0.0669149
0.00536394
0.0772426
0.000292314
0.0884753
-0.00603218
0.100663
-0.0132533
0.114138
-0.0222361
0.129014
-0.0319527
0.146084
-0.044278
0.164261
-0.0567811
0.18459
-0.0712995
-0.0863735
0.203795
9.52494e-05
-0.00014867
0.000605681
0.00128117
0.00170095
0.00364883
0.00344629
0.00638472
0.00582093
0.00903317
0.00877564
0.0112369
0.0122825
0.0127666
0.0163567
0.0135119
0.0210502
0.0134415
0.0264324
0.0125593
0.0325725
0.0108711
0.0395393
0.00836125
0.047408
0.00498802
0.0562947
0.000672012
0.0663837
-0.0047251
0.0779765
-0.0113005
0.0912048
-0.0192605
0.106463
-0.0285113
0.123669
-0.0394427
0.142786
-0.0510698
0.163112
-0.0646035
0.183209
-0.0768777
0.202754
-0.0908448
-0.101263
0.217644
-0.000122317
-2.63523e-05
-8.09004e-05
0.00123976
0.000405504
0.00316243
0.00149544
0.00529478
0.00324979
0.00727883
0.00567301
0.00881366
0.0087557
0.00968394
0.0125104
0.00975727
0.0169919
0.00895997
0.0223093
0.00724184
0.0286231
0.00455735
0.0361801
0.000804304
0.0452492
-0.0040811
0.0561573
-0.0102361
0.0691498
-0.0177176
0.0844075
-0.0265582
0.101787
-0.0366402
0.121071
-0.0477947
0.14131
-0.0596824
0.161855
-0.0716148
0.180819
-0.0835673
0.197386
-0.0934443
0.210048
-0.103507
-0.108553
0.217338
-0.000351057
0.000324704
-0.000806206
0.00169491
-0.000976457
0.00333268
-0.00061922
0.00493754
0.00040647
0.00625314
0.00218533
0.0070348
0.00480924
0.00706004
0.00839868
0.00616783
0.0131493
0.00420933
0.0193555
0.00103563
0.0273278
-0.00341496
0.0373881
-0.00925594
0.0497962
-0.0164892
0.0646114
-0.0250513
0.0816512
-0.0347574
0.10046
-0.0453667
0.120253
-0.0564337
0.140081
-0.0676225
0.15862
-0.0782212
0.174974
-0.0879688
0.187645
-0.0962384
0.196908
-0.102707
0.201858
-0.108457
-0.111054
0.204359
-0.000533335
0.00085804
-0.00134851
0.00251008
-0.00197412
0.00395829
-0.00208665
0.00505007
-0.00143465
0.00560113
0.00021659
0.00538356
0.00311837
0.00415826
0.00759194
0.00169426
0.0139921
-0.00219087
0.0226374
-0.00760968
0.0337926
-0.0145701
0.0474854
-0.0229488
0.0634896
-0.0324934
0.0812819
-0.0428435
0.100078
-0.053553
0.118872
-0.0641616
0.136588
-0.074149
0.152158
-0.0831924
0.164752
-0.090816
0.174062
-0.0972787
0.180029
-0.102205
0.184072
-0.106751
0.186277
-0.110662
-0.11367
0.188892
-0.00057822
-0.00146421
-0.00212561
-0.00214433
-0.00113568
0.0012918
0.00558571
0.0120971
0.0211681
0.0329087
0.0471363
0.0633452
0.0807433
0.0983405
0.115085
0.129992
0.142354
0.151794
0.158514
0.163033
0.166168
0.168927
0.17112
0.175499
0.0705819
-0.00231277
-0.0131827
0.0837816
-0.0260841
0.0128845
0.0953774
-0.0545914
0.0429957
0.105737
-0.0876524
0.0772923
0.114616
-0.121443
0.112564
0.121299
-0.149012
0.14233
0.125334
-0.165058
0.161023
0.126286
-0.169854
0.168903
0.124865
-0.16889
0.170311
0.122873
-0.165518
0.167511
0.120155
-0.160714
0.163432
0.11489
-0.159949
0.165214
0.107492
-0.167299
0.174697
0.102024
-0.173664
0.179131
0.10261
-0.159145
0.158559
0.109353
-0.110928
0.104184
0.120209
-0.0349509
0.0240956
0.132468
0.0501763
-0.0624356
0.144289
0.122113
-0.133934
0.153323
0.16831
-0.177344
0.158392
0.192129
-0.197198
0.161023
0.200939
-0.20357
0.162616
0.199758
-0.201352
0.162127
0.200797
-0.200308
0.158247
0.217884
-0.214004
0.151504
0.245105
-0.238362
0.143593
0.2531
-0.245189
0.136273
0.212725
-0.205405
0.131824
0.118745
-0.114296
0.132172
-0.00478498
0.00443617
0.13666
-0.117154
0.112666
0.143093
-0.192254
0.185821
0.148369
-0.230147
0.224872
0.149251
-0.246855
0.245972
0.143563
-0.258248
0.263936
0.132533
-0.267391
0.278421
0.120569
-0.25478
0.266744
0.112546
-0.194993
0.203015
0.112272
-0.0876319
0.0879064
0.119483
0.0384896
-0.0457007
0.129005
0.141016
-0.150537
0.13274
0.215274
-0.21901
0.128879
0.270866
-0.267004
0.121932
0.300359
-0.293413
0.117189
0.276743
-0.272
0.1173
0.179765
-0.179876
0.121417
0.0488432
-0.05296
0.123576
-0.0956324
0.0934734
0.122425
-0.217695
0.218846
0.119318
-0.299388
0.302495
0.117721
-0.314313
0.31591
0.117023
-0.200481
0.201179
0.116102
-0.0439482
0.0448698
0.113075
0.174271
-0.171244
0.11127
0.329196
-0.327391
0.109615
0.307246
-0.305591
0.106066
0.225613
-0.222064
0.0984182
-0.0782219
0.0858698
0.096293
-0.290211
0.292336
-0.1089
0.111498
0.103037
-0.0134929
0.112718
-0.035765
0.120932
-0.0628052
0.128007
-0.0947275
0.133185
-0.126621
0.135237
-0.151065
0.134158
-0.163979
0.1307
-0.166397
0.125517
-0.163707
0.120209
-0.160211
0.11518
-0.155685
0.108161
-0.15293
0.0983539
-0.157492
0.0893569
-0.164667
0.0866947
-0.156483
0.0924707
-0.116704
0.104774
-0.0472544
0.120673
0.0342773
0.136564
0.106222
0.149195
0.155679
0.157496
0.183828
0.162999
0.195437
0.166956
0.195801
0.168863
0.19889
0.167828
0.218919
0.163764
0.249169
0.157347
0.259517
0.149966
0.220107
0.143746
0.124965
0.141025
-0.00206339
0.141916
-0.118045
0.144962
-0.1953
0.147438
-0.232624
0.14645
-0.245867
0.139514
-0.251311
0.127516
-0.255393
0.115353
-0.242617
0.108396
-0.188036
0.110084
-0.0893198
0.119389
0.0291844
0.129985
0.130419
0.134442
0.210818
0.131337
0.27397
0.12467
0.307027
0.119266
0.282147
0.11842
0.180612
0.122233
0.0450296
0.124114
-0.0975131
0.122322
-0.215903
0.118302
-0.295368
0.116635
-0.312647
0.116444
-0.200289
0.116211
-0.0437157
0.114673
0.175809
0.113261
0.330608
0.111884
0.308623
0.107695
0.229802
0.0983503
-0.0688776
0.0964488
-0.28831
-0.107668
0.13083
-0.021177
0.137794
-0.0427294
0.143802
-0.0688133
0.148131
-0.099056
0.14979
-0.12828
0.147592
-0.148867
0.141952
-0.158339
0.134748
-0.159193
0.126801
-0.15576
0.118873
-0.152283
0.111877
-0.148689
0.103821
-0.144874
0.0923822
-0.146052
0.0802139
-0.152498
0.0738388
-0.150107
0.0776394
-0.120504
0.0905613
-0.0601763
0.1092
0.0156391
0.128508
0.0869138
0.144594
0.139593
0.156161
0.17226
0.164579
0.187019
0.171088
0.189292
0.175725
0.194253
0.177876
0.216768
0.176826
0.25022
0.172194
0.264149
0.164842
0.227458
0.156765
0.133042
0.150678
0.00402331
0.14778
-0.115147
0.147338
-0.194859
0.14698
-0.232266
0.144355
-0.243242
0.136676
-0.243632
0.124027
-0.242744
0.111554
-0.230143
0.10544
-0.181922
0.108795
-0.0926753
0.119774
0.0182057
0.131432
0.118761
0.136927
0.205323
0.134807
0.276091
0.128384
0.31345
0.122156
0.288374
0.120143
0.182625
0.123484
0.0416889
0.125198
-0.0992274
0.122828
-0.213533
0.117788
-0.290327
0.115864
-0.310723
0.116286
-0.200711
0.116834
-0.0442644
0.116765
0.175879
0.115761
0.331612
0.114697
0.309687
0.110053
0.234446
0.0991543
-0.057979
0.0972473
-0.286403
-0.107632
0.153033
-0.0268167
0.158683
-0.0483795
0.163625
-0.0737554
0.165914
-0.101346
0.163715
-0.126081
0.156978
-0.14213
0.147347
-0.148708
0.137234
-0.149079
0.127603
-0.146129
0.118175
-0.142855
0.109679
-0.140194
0.10133
-0.136525
0.0899748
-0.134697
0.0759497
-0.138473
0.0657269
-0.139885
0.0661322
-0.12091
0.07808
-0.0721241
0.0981653
-0.0044463
0.120021
0.0650586
0.139158
0.120456
0.153879
0.15754
0.165129
0.175768
0.174135
0.180286
0.181664
0.186723
0.187451
0.210981
0.1899
0.247771
0.187538
0.266511
0.180431
0.234566
0.170494
0.142979
0.160896
0.0136213
0.154253
-0.108504
0.150326
-0.190932
0.147056
-0.228996
0.142775
-0.238962
0.134755
-0.235612
0.121929
-0.229918
0.109136
-0.21735
0.10339
-0.176176
0.107929
-0.0972143
0.12035
0.00578466
0.133235
0.105876
0.140106
0.198452
0.139133
0.277064
0.132995
0.319587
0.125926
0.295444
0.122565
0.185985
0.125211
0.0390434
0.126802
-0.100819
0.123943
-0.210674
0.1178
-0.284185
0.11544
-0.308363
0.116471
-0.201741
0.117911
-0.0457052
0.119296
0.174494
0.118711
0.332197
0.117992
0.310407
0.113118
0.23932
0.100813
-0.0456747
0.0986821
-0.284271
-0.108652
0.17191
-0.0324917
0.17732
-0.0537891
0.1808
-0.0772354
0.180057
-0.100603
0.173774
-0.119798
0.163116
-0.131471
0.150578
-0.136171
0.138452
-0.136953
0.127851
-0.135527
0.117939
-0.132944
0.108551
-0.130806
0.100038
-0.128012
0.089792
-0.124451
0.0758784
-0.12456
0.0628076
-0.126814
0.058995
-0.117097
0.0684424
-0.0815714
0.0877944
-0.0237983
0.111191
0.0416623
0.132722
0.0989241
0.150227
0.140035
0.164071
0.161924
0.175512
0.168845
0.185909
0.176327
0.195214
0.201676
0.201371
0.241614
0.202065
0.265817
0.196279
0.240352
0.184822
0.154436
0.171599
0.0268447
0.161087
-0.0979923
0.153653
-0.183498
0.147566
-0.222909
0.141646
-0.233041
0.133602
-0.227569
0.121093
-0.217409
0.108002
-0.20426
0.102111
-0.170285
0.107258
-0.102361
0.120844
-0.00780113
0.135109
0.0916107
0.143792
0.18977
0.144413
0.276443
0.138746
0.325255
0.130817
0.303372
0.125867
0.190935
0.127445
0.0374658
0.128876
-0.102249
0.125632
-0.207431
0.118331
-0.276884
0.115348
-0.30538
0.116967
-0.20336
0.119354
-0.048092
0.122198
0.171649
0.122043
0.332352
0.121692
0.310758
0.116834
0.244179
0.103308
-0.0321484
0.100736
-0.2817
-0.110597
0.190193
-0.0382632
0.19431
-0.057907
0.194617
-0.0775417
0.189523
-0.0955088
0.179193
-0.109468
0.165816
-0.118094
0.152009
-0.122364
0.139149
-0.124093
0.127933
-0.124311
0.117948
-0.122959
0.108292
-0.12115
0.0995844
-0.119304
0.0909225
-0.115789
0.078965
-0.112602
0.0648408
-0.11269
0.0566507
-0.108907
0.0616193
-0.08654
0.0785966
-0.0407756
0.102071
0.018188
0.125178
0.0758166
0.144977
0.120236
0.161067
0.145834
0.174575
0.155338
0.187459
0.163443
0.200296
0.188839
0.210494
0.231417
0.214353
0.261958
0.210111
0.244594
0.198481
0.166067
0.182387
0.0429382
0.167954
-0.083559
0.157108
-0.172652
0.148402
-0.214203
0.140768
-0.225407
0.132816
-0.219617
0.121204
-0.205796
0.108019
-0.191075
0.101446
-0.163712
0.106523
-0.107439
0.120926
-0.0222039
0.136776
0.0757608
0.14762
0.178926
0.150162
0.2739
0.145305
0.330111
0.136788
0.311889
0.130144
0.19758
0.130229
0.0373804
0.13135
-0.103371
0.127835
-0.203915
0.119365
-0.268414
0.115552
-0.301567
0.117705
-0.205512
0.121074
-0.0514612
0.125377
0.167345
0.125672
0.332057
0.125698
0.310732
0.121123
0.248754
0.106602
-0.0176274
0.103391
-0.278489
-0.113328
0.20711
-0.0415787
0.207254
-0.0580508
0.202612
-0.0729
0.192913
-0.0858096
0.179556
-0.0961115
0.164906
-0.103443
0.151023
-0.108481
0.138531
-0.111602
0.127381
-0.113161
0.117592
-0.11317
0.108345
-0.111902
0.0995396
-0.110499
0.0918224
-0.108072
0.0828857
-0.103666
0.0704306
-0.100235
0.0592083
-0.0976848
0.0582965
-0.0856282
0.0708116
-0.0532907
0.0928053
-0.0038056
0.116607
0.0520147
0.138206
0.0986373
0.156182
0.127858
0.17136
0.14016
0.186204
0.148599
0.201942
0.173101
0.215897
0.217461
0.22354
0.254315
0.22168
0.246454
0.21016
0.177586
0.192057
0.061041
0.174288
-0.0657899
0.160351
-0.158715
0.149382
-0.203234
0.14007
-0.216095
0.132098
-0.211645
0.121857
-0.195555
0.109004
-0.178222
0.101327
-0.156035
0.105534
-0.111646
0.120352
-0.0370216
0.137883
0.0582296
0.151276
0.165534
0.156394
0.268782
0.15296
0.333546
0.144023
0.320825
0.135516
0.206087
0.133592
0.0393042
0.134147
-0.103925
0.130459
-0.200228
0.120863
-0.258817
0.116007
-0.296712
0.11862
-0.208126
0.122972
-0.0558125
0.128752
0.161565
0.129518
0.331291
0.129907
0.310343
0.125875
0.252785
0.110637
-0.00238924
0.106632
-0.274483
-0.116689
0.216209
-0.0401436
0.211069
-0.052911
0.201816
-0.063647
0.18937
-0.0733634
0.175425
-0.082167
0.161545
-0.0895625
0.148613
-0.0955493
0.136887
-0.0998758
0.126185
-0.102459
0.116678
-0.103663
0.108216
-0.10344
0.0999986
-0.102281
0.0925683
-0.100642
0.0858956
-0.0969928
0.0770047
-0.0913437
0.0658025
-0.0864826
0.0596069
-0.0794326
0.0659078
-0.0595915
0.0836215
-0.0215193
0.107014
0.0286221
0.129756
0.0758957
0.149343
0.108271
0.165926
0.123576
0.182025
0.1325
0.199803
0.155323
0.217163
0.200102
0.228352
0.243125
0.228823
0.245983
0.218154
0.188255
0.199409
0.0797862
0.179468
-0.0458496
0.163037
-0.142284
0.150257
-0.190454
0.139429
-0.205266
0.13117
-0.203386
0.122561
-0.186946
0.110707
-0.166369
0.10182
-0.147147
0.1043
-0.114126
0.118981
-0.0517025
0.138138
0.039072
0.154213
0.149459
0.16217
0.260825
0.160831
0.334884
0.152106
0.329551
0.141854
0.216339
0.137586
0.0435728
0.137186
-0.103526
0.133394
-0.196436
0.122776
-0.248199
0.116667
-0.290603
0.119632
-0.211091
0.124958
-0.0611382
0.132208
0.154315
0.133478
0.330022
0.134206
0.309615
0.130969
0.256022
0.115337
0.0132428
0.110442
-0.269588
-0.120505
0.212078
-0.0348844
0.203838
-0.0446701
0.19318
-0.0529899
0.181232
-0.0614154
0.168935
-0.0698697
0.156893
-0.0775204
0.145301
-0.0839575
0.134395
-0.0889697
0.124349
-0.0924129
0.115242
-0.0945558
0.107361
-0.0955593
0.100208
-0.0951284
0.0932616
-0.0936954
0.0874142
-0.0911454
0.0818538
-0.0857832
0.0738105
-0.0784393
0.0655067
-0.0711288
0.0650658
-0.0591506
0.0767695
-0.0332231
0.0976034
0.00778828
0.120315
0.0531837
0.140828
0.087758
0.158261
0.106144
0.17502
0.11574
0.194273
0.136069
0.214628
0.179747
0.229802
0.227951
0.233896
0.241889
0.224776
0.197376
0.205362
0.0992002
0.18348
-0.0239682
0.164994
-0.123798
0.150828
-0.176287
0.13878
-0.193218
0.129904
-0.194511
0.122833
-0.179874
0.112714
-0.15625
0.102972
-0.137406
0.103014
-0.114167
0.116679
-0.0653683
0.137197
0.0185543
0.156271
0.130386
0.167672
0.249423
0.169098
0.333458
0.161057
0.337592
0.149105
0.22829
0.142065
0.050613
0.140356
-0.101816
0.136502
-0.192582
0.125026
-0.236723
0.117473
-0.283049
0.120665
-0.214283
0.126938
-0.0674108
0.135683
0.145569
0.137501
0.328204
0.13849
0.308626
0.136286
0.258227
0.120604
0.028924
0.114791
-0.263775
-0.124595
0.19855
-0.029075
0.190767
-0.0368871
0.18168
-0.0439032
0.171922
-0.0516578
0.161691
-0.0596385
0.151239
-0.0670685
0.140848
-0.0735665
0.130845
-0.0789668
0.121649
-0.0832164
0.113333
-0.0862402
0.105943
-0.0881688
0.0996039
-0.0887894
0.093674
-0.0877656
0.088136
-0.0856074
0.0839678
-0.0816149
0.0797489
-0.0742205
0.0735023
-0.0648823
0.0691276
-0.0547759
0.0738367
-0.0379322
0.0894513
-0.00782627
0.110577
0.0320582
0.131232
0.0671024
0.149003
0.0883737
0.165681
0.0990616
0.184919
0.116832
0.206677
0.157988
0.225041
0.209588
0.232397
0.234533
0.225532
0.20424
0.207529
0.117203
0.185903
-0.00234206
0.166047
-0.103942
0.150807
-0.161048
0.137906
-0.180317
0.128187
-0.184791
0.122253
-0.17394
0.114435
-0.148431
0.104625
-0.127596
0.10193
-0.111472
0.11362
-0.0770584
0.134883
-0.00270864
0.156575
0.108694
0.171409
0.234589
0.176242
0.328626
0.170181
0.343652
0.15685
0.241622
0.147126
0.0603367
0.143561
-0.098251
0.139631
-0.188653
0.127511
-0.224602
0.118335
-0.273874
0.121648
-0.217596
0.128822
-0.0745844
0.139043
0.135348
0.141469
0.325778
0.142659
0.307436
0.14168
0.259205
0.126355
0.0442485
0.119637
-0.257057
-0.128784
0.184415
-0.0245971
0.178228
-0.030701
0.17094
-0.0366148
0.162813
-0.0435311
0.153933
-0.0507578
0.144604
-0.0577397
0.135239
-0.0642019
0.12619
-0.0699179
0.117775
-0.0748011
0.110208
-0.078673
0.103396
-0.0813571
0.0974587
-0.0828522
0.0924214
-0.0827282
0.0877322
-0.0809182
0.0838672
-0.07775
0.0816069
-0.0719602
0.0792028
-0.0624781
0.0757963
-0.0513694
0.0761052
-0.0382411
0.0853765
-0.0170976
0.102598
0.0148368
0.121944
0.0477562
0.139485
0.0708331
0.155399
0.0831471
0.174085
0.0981464
0.197537
0.134536
0.219323
0.187802
0.230229
0.223627
0.225905
0.208564
0.20904
0.134069
0.18601
0.0206875
0.165561
-0.0834927
0.149792
-0.145278
0.136613
-0.167138
0.126076
-0.174255
0.120691
-0.168555
0.115363
-0.143104
0.106434
-0.118667
0.101217
-0.106255
0.109893
-0.0857351
0.131165
-0.0239804
0.15571
0.0841489
0.174482
0.215817
0.182723
0.320386
0.17883
0.347545
0.164791
0.255661
0.152329
0.0727979
0.146665
-0.0925867
0.142613
-0.184601
0.130199
-0.212188
0.119279
-0.262954
0.122502
-0.22082
0.130555
-0.0826366
0.142279
0.123624
0.145385
0.322671
0.146661
0.30616
0.147049
0.258818
0.132458
0.0588396
0.124936
-0.249535
-0.132913
0.171785
-0.0208832
0.166488
-0.0254046
0.160398
-0.030525
0.153375
-0.0365076
0.145612
-0.0429953
0.137489
-0.0496159
0.129331
-0.0560439
0.121417
-0.0620041
0.113914
-0.0672981
0.106995
-0.0717538
0.100735
-0.0750977
0.0951211
-0.077238
0.0903719
-0.077979
0.0864051
-0.0769515
0.0829427
-0.0742875
0.0808214
-0.0698389
0.0803376
-0.0619943
0.0798457
-0.0508774
0.0797558
-0.0381512
0.0841573
-0.0214991
0.0958993
0.00309468
0.111996
0.0316599
0.128016
0.0548128
0.142937
0.0682263
0.159663
0.0814198
0.181213
0.112987
0.204635
0.16438
0.220619
0.207643
0.220683
0.2085
0.206799
0.147953
0.186737
0.0407499
0.165873
-0.0626293
0.149166
-0.128571
0.135717
-0.153689
0.124351
-0.162889
0.118738
-0.162941
0.11556
-0.139927
0.108144
-0.111251
0.101041
-0.0991518
0.106353
-0.0910475
0.125808
-0.0434348
0.151735
0.0582219
0.174156
0.193395
0.18697
0.307572
0.186622
0.347894
0.173257
0.269026
0.158505
0.0875498
0.150033
-0.0841147
0.145603
-0.180171
0.133148
-0.199732
0.120598
-0.250404
0.123372
-0.223593
0.132044
-0.0913094
0.145168
0.110501
0.1491
0.318739
0.150436
0.304824
0.152271
0.256983
0.138844
0.0722664
0.130657
-0.241348
-0.136802
0.209016
-0.0181121
-0.211787
0.206961
-0.0233494
0.204721
-0.0282855
0.201865
-0.0336508
0.198262
-0.0393923
0.193967
-0.045321
0.189067
-0.0511447
0.183644
-0.0565801
0.177743
-0.0613979
0.171387
-0.0653973
0.16466
-0.0683714
0.157637
-0.0702142
0.150367
-0.070709
0.143095
-0.0696803
0.135799
-0.0669913
0.128402
-0.0624415
0.121469
-0.0550612
0.115005
-0.0444142
0.108229
-0.0313754
0.102432
-0.0157012
0.100515
0.00501141
0.103937
0.028238
0.11184
0.0469094
0.121774
0.0582922
0.13181
0.0713842
0.142413
0.102384
0.154774
0.152019
0.167016
0.195402
0.178517
0.196998
0.190103
0.136368
0.19694
0.0339122
0.195845
-0.0615337
0.188161
-0.120888
0.176789
-0.142317
0.163322
-0.149423
0.152528
-0.152147
0.143944
-0.131342
0.132355
-0.0996625
0.119966
-0.0867627
0.117182
-0.0882631
0.125123
-0.0513763
0.137213
0.0461325
0.147927
0.182681
0.156167
0.299331
0.161513
0.342547
0.162574
0.267965
0.161464
0.0886598
0.160263
-0.0829133
0.158169
-0.178076
0.145778
-0.187342
0.130456
-0.235082
0.126837
-0.219974
0.127424
-0.0918965
0.133525
0.1044
0.135413
0.316851
0.137962
0.302275
0.143198
0.251747
0.134255
0.0812097
0.125298
-0.232391
-0.137902
0.217216
-0.015958
-0.21937
0.214815
-0.0209482
0.212351
-0.0258219
0.209424
-0.0307231
0.205844
-0.0358131
0.201554
-0.041031
0.196591
-0.0461817
0.191022
-0.0510111
0.184936
-0.0553113
0.178427
-0.0588884
0.171591
-0.0615359
0.164604
-0.0632265
0.157566
-0.0636708
0.150572
-0.0626865
0.143818
-0.0602375
0.137309
-0.0559326
0.131187
-0.0489386
0.126027
-0.0392542
0.121611
-0.0269594
0.117243
-0.0113338
0.114298
0.00795681
0.114691
0.0278444
0.119205
0.0423957
0.127046
0.0504515
0.137366
0.0610641
0.149912
0.0898371
0.163319
0.138612
0.175467
0.183253
0.18843
0.184035
0.202402
0.122395
0.211048
0.0252668
0.208864
-0.0593495
0.199455
-0.111479
0.18706
-0.129922
0.173099
-0.135461
0.161762
-0.140809
0.153901
-0.123482
0.143691
-0.0894521
0.130714
-0.0737859
0.12616
-0.083709
0.13351
-0.0587261
0.147042
0.0326009
0.160145
0.169578
0.171143
0.288333
0.178989
0.334702
0.181016
0.265937
0.179155
0.0905213
0.175701
-0.0794596
0.172262
-0.174638
0.158513
-0.173593
0.141058
-0.217627
0.137107
-0.216023
0.138146
-0.0929355
0.145135
0.0974108
0.147434
0.314552
0.149873
0.299836
0.156664
0.244956
0.148425
0.0894483
0.138306
-0.222272
-0.138392
0.225113
-0.0143988
-0.226673
0.223005
-0.0188393
0.220568
-0.0233852
0.217722
-0.0278775
0.214327
-0.0324174
0.210304
-0.0370081
0.20566
-0.041538
0.200464
-0.0458151
0.194797
-0.0496445
0.188766
-0.0528572
0.182455
-0.0552249
0.175938
-0.0567098
0.16932
-0.0570532
0.162661
-0.0560275
0.156021
-0.0535974
0.14959
-0.0495012
0.143509
-0.042858
0.138295
-0.0340395
0.134581
-0.0232454
0.132182
-0.00893526
0.130258
0.00988109
0.129352
0.0287505
0.130612
0.0411352
0.134963
0.0461003
0.143484
0.0525432
0.155802
0.0775194
0.168621
0.125794
0.181103
0.17077
0.197821