/*--------------------------------*- C++ -*----------------------------------*\
| =========                 |                                                 |
| \\      /  F ield         | OpenFOAM: The Open Source CFD Toolbox           |
|  \\    /   O peration     | Version:  2312                                  |
|   \\  /    A nd           | Website:  www.openfoam.com                      |
|    \\/     M anipulation  |                                                 |
\*---------------------------------------------------------------------------*/
FoamFile
{
    version     2.0;
    format      ascii;
    arch        "LSB;label=32;scalar=64";
    class       surfaceScalarField;
    location    "14.5";
    object      phi;
}
// * * * * * * * * * * * * * * * * * * * * * * * * * * * * * * * * * * * * * //

dimensions      [0 3 -1 0 0 0 0];

oriented        oriented;

internalField   nonuniform List<scalar> 
64047
(
-5.53759e-05
0.000401652
-0.000346276
-0.000111019
0.000990692
-0.000935049
-9.06189e-05
0.00137614
-0.00139654
6.49473e-05
0.00154853
-0.0017041
0.000405718
0.00149427
-0.00183504
0.000977983
0.00119441
-0.00176667
0.00182807
0.000625877
-0.00147597
0.00300515
-0.000236637
-0.00094044
0.00456197
-0.00141859
-0.000138237
0.00655496
-0.00294296
0.000949977
0.00903969
-0.00482781
0.00234308
0.0120664
-0.00708271
0.00405604
0.0156726
-0.00970545
0.00609926
0.0198755
-0.0126791
0.00847611
0.0246652
-0.01597
0.0111803
0.0299993
-0.0195279
0.0141938
0.0358012
-0.023287
0.017485
0.0419624
-0.0271701
0.0210089
0.0483479
-0.0310937
0.0247082
0.0548052
-0.0349735
0.0285161
0.0611759
-0.0387306
0.03236
0.0673077
-0.0422977
0.0361659
0.0730671
-0.045623
0.0398636
0.0783497
-0.0486741
0.0433915
0.0830883
-0.051439
0.0467004
0.0872568
-0.0539258
0.0497574
0.0908692
-0.0561599
0.0525475
0.0939745
-0.0581794
0.0550741
0.096646
-0.06003
0.0573585
0.0989711
-0.0617577
0.0594326
0.101033
-0.0634075
0.0613459
0.102912
-0.0650073
0.0631277
0.104649
-0.0666028
0.0648662
0.1063
-0.0681519
0.0665003
0.107796
-0.069806
0.0683102
0.109026
-0.0711358
0.069906
-0.0729903
0.0722563
0.10976
-5.85024e-05
0.000460154
-0.00011734
0.00104953
-9.0765e-05
0.00134957
9.25948e-05
0.00136517
0.000497208
0.00108966
0.00118561
0.000506005
0.00222092
-0.000409431
0.00366762
-0.00168333
0.00558997
-0.00334094
0.00804796
-0.00540096
0.0110907
-0.0078705
0.0147483
-0.0107403
0.019024
-0.0139812
0.0238874
-0.0175425
0.0292708
-0.0213535
0.0350702
-0.0253273
0.0411505
-0.0293673
0.0473552
-0.0333748
0.0535187
-0.0372572
0.0594807
-0.0409355
0.0650998
-0.0443498
0.0702656
-0.0474634
0.0749063
-0.0502638
0.0789935
-0.0527613
0.0825399
-0.0549854
0.0855932
-0.0569791
0.0882255
-0.0587922
0.0905209
-0.0604748
0.0925629
-0.0620719
0.0944242
-0.063619
0.09616
-0.0651433
0.0978089
-0.0666562
0.099381
-0.0681749
0.100902
-0.0696733
0.102308
-0.0712117
0.103781
-0.0726091
-0.0743238
0.105115
-4.77453e-05
0.0005079
-7.59057e-05
0.00107769
7.9759e-06
0.00126568
0.000285122
0.00108803
0.000833691
0.000541091
0.00173002
-0.000390321
0.00304973
-0.00172914
0.00486573
-0.00349933
0.00724313
-0.00571834
0.0102317
-0.00838958
0.013857
-0.0114958
0.0181112
-0.0149945
0.0229468
-0.0188167
0.0282745
-0.0228702
0.0339668
-0.0270458
0.0398669
-0.0312274
0.0458024
-0.0353028
0.0516014
-0.0391738
0.0571089
-0.0427647
0.0622009
-0.0460274
0.0667941
-0.048943
0.070851
-0.0515204
0.0743783
-0.053791
0.0774194
-0.0558024
0.0800439
-0.0576099
0.0823337
-0.059269
0.084371
-0.0608295
0.0862278
-0.0623316
0.0879605
-0.0638046
0.0896082
-0.0652667
0.0911947
-0.0667297
0.0927324
-0.0681939
0.0942281
-0.0696706
0.0956822
-0.0711275
0.0971063
-0.0726357
0.0985035
-0.0740063
-0.0756611
0.0998408
-2.66933e-05
0.000534593
3.14903e-06
0.00104785
0.000185071
0.00108376
0.000610438
0.000662659
0.00136723
-0.000215703
0.00254178
-0.00156487
0.00421611
-0.00340348
0.0064623
-0.00574552
0.00933383
-0.00858987
0.0128552
-0.011911
0.017012
-0.0156526
0.021744
-0.0197265
0.0269447
-0.0240174
0.0324669
-0.0283924
0.0381364
-0.0327153
0.0437697
-0.0368606
0.0491931
-0.0407262
0.054261
-0.0442418
0.0588693
-0.047373
0.0629621
-0.0501201
0.0665314
-0.0525124
0.0696109
-0.0545998
0.0722636
-0.0564438
0.0745685
-0.0581073
0.0766065
-0.0596479
0.0784507
-0.0611131
0.0801596
-0.0625384
0.0817756
-0.0639476
0.0833265
-0.0653555
0.0848296
-0.0667699
0.0862938
-0.068194
0.0877276
-0.0696277
0.0891302
-0.0710732
0.0905184
-0.0725158
0.091877
-0.0739942
0.0932544
-0.0753838
-0.0770234
0.0946167
5.71184e-07
0.000534022
0.000105991
0.000942427
0.0004166
0.000773155
0.00102961
4.96505e-05
0.00204078
-0.00122687
0.00354144
-0.00306553
0.00561226
-0.0054743
0.00831351
-0.00844677
0.011673
-0.0119493
0.0156743
-0.0159123
0.0202494
-0.0202276
0.025278
-0.0247551
0.030597
-0.0293364
0.0360175
-0.0338129
0.0413471
-0.0380449
0.0464125
-0.0419261
0.0510786
-0.0453923
0.0552602
-0.0484233
0.0589249
-0.0510378
0.0620886
-0.0532838
0.0648035
-0.0552273
0.0671438
-0.0569401
0.0691906
-0.0584906
0.0710202
-0.0599369
0.0726963
-0.061324
0.0742672
-0.062684
0.0757664
-0.0640376
0.0772156
-0.0653968
0.0786282
-0.0667682
0.0800124
-0.068154
0.0813737
-0.0695552
0.0827158
-0.0709698
0.0840421
-0.0723995
0.0853589
-0.0738326
0.0866622
-0.0752975
0.0879807
-0.0767023
-0.0783052
0.0892625
3.02445e-05
0.000503777
0.000223288
0.000749384
0.000682465
0.000313977
0.00151069
-0.00077857
0.00280775
-0.00252394
0.00466383
-0.0049216
0.00714856
-0.00795904
0.0102972
-0.0115954
0.0140964
-0.0157486
0.0184749
-0.0202908
0.0233033
-0.0250559
0.028405
-0.0298569
0.0335783
-0.0345097
0.0386229
-0.0388575
0.0433657
-0.0427877
0.0476808
-0.0462411
0.0514989
-0.0492105
0.0548071
-0.0517315
0.0576385
-0.0538692
0.0600581
-0.0557034
0.0621456
-0.0573147
0.0639812
-0.0587757
0.0656356
-0.0601451
0.0671651
-0.0614663
0.0686103
-0.0627692
0.0699987
-0.0640724
0.0713475
-0.0653864
0.0726671
-0.0667165
0.0739637
-0.0680648
0.0752413
-0.0694316
0.0765022
-0.0708162
0.0777496
-0.0722172
0.0789845
-0.0736344
0.0802136
-0.0750617
0.0814318
-0.0765158
0.0826618
-0.0779323
-0.0795134
0.08387
6.13758e-05
0.000442402
0.000349349
0.000461411
0.000971647
-0.00030832
0.00203488
-0.00184181
0.00363846
-0.00412751
0.00586314
-0.00714628
0.00875529
-0.0108512
0.0123098
-0.0151499
0.016458
-0.0198967
0.0210654
-0.0248983
0.0259456
-0.0299361
0.0308848
-0.0347961
0.0356741
-0.039299
0.0401387
-0.0433221
0.0441587
-0.0468076
0.0476765
-0.049759
0.0506931
-0.0522271
0.0532541
-0.0542924
0.0554321
-0.0560472
0.0573095
-0.0575808
0.0589648
-0.0589699
0.0604638
-0.0602747
0.061857
-0.0615383
0.06318
-0.0627893
0.0644559
-0.0640451
0.065699
-0.0653154
0.0669175
-0.0666049
0.0681164
-0.0679154
0.0692987
-0.0692471
0.0704666
-0.0705995
0.0716223
-0.0719718
0.072768
-0.0733629
0.0739056
-0.074772
0.0750394
-0.0761955
0.0761659
-0.0776423
0.0773034
-0.0790698
-0.0806276
0.0784177
9.39314e-05
0.00034847
0.000483606
7.17363e-05
0.00128108
-0.0011058
0.00259392
-0.00315464
0.0045146
-0.00604819
0.00710358
-0.00973527
0.0103693
-0.0141169
0.0142517
-0.0190323
0.0186176
-0.0242626
0.0232738
-0.0295544
0.0279953
-0.0346577
0.032563
-0.0393638
0.0367967
-0.0435326
0.0405774
-0.0471028
0.0438543
-0.0500845
0.0466369
-0.0525416
0.0489789
-0.054569
0.0509579
-0.0562714
0.0526577
-0.0577471
0.0541553
-0.0590784
0.0555134
-0.060328
0.0567787
-0.06154
0.0579832
-0.0627428
0.0591473
-0.0639534
0.0602833
-0.0651811
0.061398
-0.0664302
0.0624955
-0.0677024
0.0635783
-0.0689981
0.064648
-0.0703168
0.0657064
-0.0716579
0.0667552
-0.0730206
0.067796
-0.0744037
0.0688302
-0.0758062
0.0698604
-0.0772257
0.0708844
-0.0786662
0.0719155
-0.0801009
-0.0816376
0.0729255
0.000129023
0.000219447
0.000627842
-0.000427082
0.00161119
-0.00208914
0.00318275
-0.0047262
0.00541895
-0.00828439
0.00834654
-0.0126629
0.0119214
-0.0176917
0.0160186
-0.0231296
0.0204432
-0.0286872
0.0249606
-0.0340718
0.0293386
-0.0390357
0.0333869
-0.043412
0.0369815
-0.0471273
0.040072
-0.0501933
0.0426717
-0.0526842
0.0448386
-0.0547085
0.0466537
-0.0563841
0.0482021
-0.0578198
0.0495601
-0.0591051
0.0507888
-0.0603071
0.0519327
-0.0614719
0.0530217
-0.062629
0.0540745
-0.0637956
0.0551019
-0.0649809
0.05611
-0.0661892
0.0571022
-0.0674224
0.0580805
-0.0686807
0.0590463
-0.069964
0.0600011
-0.0712716
0.0609463
-0.0726031
0.061883
-0.0739574
0.0628128
-0.0753334
0.0637366
-0.07673
0.0646562
-0.0781453
0.0655704
-0.0795804
0.0664893
-0.0810198
-0.0825375
0.0673892
0.000167726
5.17206e-05
0.000783594
-0.00104295
0.00196111
-0.00326666
0.00379274
-0.00655783
0.00632716
-0.0108188
0.00954333
-0.015879
0.0133336
-0.021482
0.0175084
-0.0273043
0.021826
-0.0330048
0.0260396
-0.0382854
0.0299429
-0.042939
0.0333999
-0.046869
0.0363538
-0.0500812
0.0388164
-0.052656
0.040847
-0.0547148
0.0425287
-0.0563902
0.0439479
-0.0578034
0.0451817
-0.0590536
0.0462909
-0.0602143
0.0473192
-0.0613354
0.0482958
-0.0624484
0.0492382
-0.0635715
0.0501568
-0.0647142
0.0510572
-0.0658812
0.0519422
-0.0670743
0.0528138
-0.068294
0.0536732
-0.0695401
0.0545216
-0.0708123
0.0553601
-0.0721101
0.0561898
-0.0734327
0.0570117
-0.0747793
0.0578269
-0.0761487
0.0586361
-0.0775392
0.0594404
-0.0789495
0.0602392
-0.0803792
0.0610398
-0.0818204
-0.083321
0.0618233
0.00021051
-0.00015879
0.000950458
-0.0017829
0.00232584
-0.00464204
0.0044081
-0.00864009
0.0072052
-0.0136159
0.0106364
-0.0193103
0.0145275
-0.0253731
0.0186355
-0.0314124
0.0226985
-0.0370678
0.0264887
-0.0420756
0.0298504
-0.0463007
0.0327128
-0.0497314
0.0350804
-0.0524488
0.0370103
-0.0545858
0.0385862
-0.0562908
0.0398967
-0.0577006
0.0410204
-0.0589271
0.0420194
-0.0600526
0.0429381
-0.061133
0.0438056
-0.0622029
0.0446396
-0.0632824
0.0454502
-0.064382
0.0462427
-0.0655067
0.04702
-0.0666585
0.0477837
-0.067838
0.048535
-0.0690453
0.0492748
-0.0702799
0.0500042
-0.0715417
0.050724
-0.07283
0.0514353
-0.074144
0.0521388
-0.0754828
0.0528352
-0.076845
0.0535249
-0.078229
0.0542087
-0.0796334
0.0548869
-0.0810574
0.0555646
-0.0824981
-0.0839842
0.0562278
0.000257087
-0.000415876
0.00112558
-0.00265139
0.00269561
-0.00621207
0.00500615
-0.0109506
0.00801222
-0.016622
0.011567
-0.0228651
0.0154363
-0.0292423
0.0193459
-0.035322
0.0230429
-0.0407648
0.0263436
-0.0453764
0.0291547
-0.0491118
0.0314664
-0.0520431
0.0333294
-0.0543117
0.0348264
-0.0560828
0.0360478
-0.0575122
0.0370753
-0.0587281
0.0379734
-0.0598252
0.0387885
-0.0608677
0.0395509
-0.0618954
0.0402789
-0.0629309
0.0409829
-0.0639864
0.0416683
-0.0650675
0.0423381
-0.0661765
0.0429938
-0.0673142
0.0436365
-0.0684807
0.0442671
-0.0696758
0.0448864
-0.0708992
0.0454953
-0.0721506
0.0460947
-0.0734294
0.0466853
-0.0747346
0.0472676
-0.0760652
0.0478421
-0.0774195
0.0484092
-0.078796
0.0489693
-0.0801935
0.0495233
-0.0816114
0.0500748
-0.0830496
-0.0845234
0.050614
0.000306493
-0.00072237
0.00130397
-0.00364887
0.00305687
-0.00796497
0.00555997
-0.0134537
0.00870627
-0.0197683
0.0122842
-0.026443
0.0160158
-0.032974
0.0196227
-0.0389288
0.022886
-0.0440281
0.0256801
-0.0481706
0.0279725
-0.0514042
0.0298016
-0.0538722
0.0312465
-0.0557566
0.0323991
-0.0572354
0.0333445
-0.0584577
0.0341515
-0.0595351
0.0348696
-0.0605433
0.0355313
-0.0615294
0.0361564
-0.0625205
0.036756
-0.0635305
0.037336
-0.0645664
0.0378994
-0.0656309
0.0384479
-0.066725
0.0389825
-0.0678488
0.0395039
-0.0690022
0.0400131
-0.070185
0.0405108
-0.071397
0.0409979
-0.0726377
0.041475
-0.0739065
0.0419426
-0.0752023
0.0424012
-0.0765237
0.0428509
-0.0778692
0.0432922
-0.0792373
0.0437255
-0.0806269
0.044152
-0.0820379
0.0445743
-0.0834719
-0.0849353
0.0449862
0.000357272
-0.00107964
0.00147918
-0.00477077
0.00339401
-0.0098798
0.00604202
-0.0161017
0.00925042
-0.0229767
0.0127526
-0.0299451
0.0162497
-0.0364711
0.0194837
-0.0421628
0.0222867
-0.0468312
0.024593
-0.0504769
0.0264211
-0.0532323
0.0278418
-0.0552929
0.028947
-0.0568618
0.0298259
-0.0581143
0.0305524
-0.0591842
0.0311807
-0.0601634
0.0317468
-0.0611094
0.0322725
-0.0620552
0.0327705
-0.0630184
0.0332471
-0.0640072
0.0337058
-0.0650252
0.0341485
-0.0660735
0.034576
-0.0671525
0.0349893
-0.0682621
0.0353891
-0.069402
0.0357762
-0.0705721
0.0361513
-0.071772
0.0365151
-0.0730015
0.0368682
-0.0742595
0.037211
-0.075545
0.0375436
-0.0768564
0.0378664
-0.078192
0.0381796
-0.0795504
0.0384838
-0.0809311
0.0387805
-0.0823346
0.0390714
-0.0837628
-0.085217
0.0393532
0.000407648
-0.00148729
0.001644
-0.00600712
0.00369117
-0.011927
0.00642761
-0.0188382
0.00961766
-0.0261667
0.0129562
-0.0332837
0.0161472
-0.039662
0.0189721
-0.0449877
0.0213202
-0.0491792
0.0231792
-0.052336
0.0246052
-0.0546582
0.0256865
-0.0563743
0.0265163
-0.0576915
0.0271744
-0.0587724
0.0277211
-0.0597309
0.0281971
-0.0606394
0.0286276
-0.0615399
0.0290269
-0.0624546
0.0294028
-0.0633942
0.029759
-0.0643634
0.0300977
-0.0653638
0.03042
-0.0663958
0.0307267
-0.0674592
0.0310185
-0.0685539
0.0312962
-0.0696796
0.0315604
-0.0708363
0.0318119
-0.0720235
0.0320513
-0.0732408
0.032279
-0.0744872
0.0324952
-0.0757613
0.0327002
-0.0770614
0.0328941
-0.0783858
0.0330771
-0.0797335
0.0332502
-0.0811042
0.0334147
-0.0824991
0.0335721
-0.0839202
-0.0853659
0.0337209
0.000455632
-0.00194292
0.00179109
-0.00734258
0.00393383
-0.0140697
0.0066977
-0.0216021
0.00979348
-0.0292625
0.0128978
-0.036388
0.0157379
-0.0425021
0.0181456
-0.0473954
0.0200649
-0.0510986
0.0215267
-0.0537978
0.0226107
-0.0557421
0.0234113
-0.0571749
0.0240151
-0.0582953
0.0244897
-0.059247
0.0248822
-0.0601233
0.025222
-0.0609792
0.0255262
-0.0618441
0.0258041
-0.0627325
0.0260604
-0.0636505
0.0262974
-0.0646005
0.0265165
-0.0655829
0.0267185
-0.0665978
0.0269042
-0.0676449
0.0270742
-0.0687239
0.0272292
-0.0698347
0.0273699
-0.070977
0.0274969
-0.0721506
0.0276108
-0.0733547
0.0277119
-0.0745883
0.0278003
-0.0758497
0.0278762
-0.0771372
0.0279397
-0.0784493
0.027991
-0.0797849
0.0280312
-0.0811444
0.0280615
-0.0825294
0.0280832
-0.0839419
-0.0853792
0.0280966
0.000499116
-0.00244204
0.00191358
-0.00875705
0.00411027
-0.0162664
0.00684059
-0.0243324
0.00977602
-0.0321979
0.0125952
-0.0392071
0.0150633
-0.0449703
0.0170656
-0.0493977
0.0185938
-0.0526268
0.0197096
-0.0549135
0.0205046
-0.0565372
0.0210711
-0.0577414
0.0214853
-0.0587094
0.0218018
-0.0595635
0.0220561
-0.0603777
0.0222691
-0.0611922
0.0224521
-0.0620272
0.0226111
-0.0628914
0.0227489
-0.0637883
0.0228671
-0.0647187
0.0229668
-0.0656826
0.0230485
-0.0666796
0.023113
-0.0677094
0.0231609
-0.0687718
0.0231929
-0.0698666
0.0232095
-0.0709937
0.0232114
-0.0721525
0.023199
-0.0733423
0.0231726
-0.0745619
0.0231322
-0.0758094
0.0230781
-0.0770831
0.0230101
-0.0783813
0.0229288
-0.0797036
0.0228348
-0.0810504
0.0227293
-0.0824239
0.0226133
-0.083826
-0.085254
0.0224882
0.000536327
-0.00297836
0.00200624
-0.010227
0.00421305
-0.0184732
0.00685263
-0.026972
0.00957429
-0.0349196
0.0120761
-0.0417089
0.01417
-0.0470642
0.0157914
-0.0510191
0.0169701
-0.0538055
0.0177872
-0.0557306
0.0183374
-0.0570874
0.0187055
-0.0581095
0.0189556
-0.0589595
0.0191307
-0.0597386
0.0192568
-0.0605038
0.0193483
-0.0612837
0.0194128
-0.0620917
0.0194541
-0.0629326
0.019474
-0.0638082
0.0194737
-0.0647184
0.0194539
-0.0656628
0.0194154
-0.066641
0.0193586
-0.0676526
0.0192842
-0.0686974
0.0191928
-0.0697752
0.019085
-0.0708858
0.0189612
-0.0720287
0.0188219
-0.073203
0.0186673
-0.0744072
0.0184975
-0.0756396
0.0183125
-0.0768981
0.0181126
-0.0781814
0.017898
-0.0794889
0.0176694
-0.0808218
0.0174276
-0.0821821
0.0171731
-0.0835715
-0.0849886
0.0169076
0.000566844
-0.00354521
0.00206668
-0.0117268
0.00423963
-0.0206462
0.00673756
-0.0294699
0.00920559
-0.0373876
0.0113747
-0.043878
0.0131055
-0.048795
0.0143774
-0.0522911
0.0152478
-0.0546759
0.0158074
-0.0562902
0.0161478
-0.0574278
0.0163435
-0.0583053
0.016447
-0.059063
0.0164912
-0.0597828
0.0164948
-0.0605074
0.0164678
-0.0612567
0.0164151
-0.062039
0.0163393
-0.0628568
0.0162416
-0.0637105
0.0161229
-0.0645997
0.0159838
-0.0655238
0.015825
-0.0664822
0.015647
-0.0674746
0.0154503
-0.0685007
0.0152354
-0.0695604
0.0150029
-0.0706533
0.0147532
-0.071779
0.0144866
-0.0729364
0.0142034
-0.074124
0.0139036
-0.0753398
0.0135873
-0.0765818
0.0132547
-0.0778488
0.0129062
-0.0791404
0.0125425
-0.0804581
0.0121646
-0.0818042
0.0117729
-0.0831798
0.0113694
-0.0845851
-0.000374018
0.00132173
-0.000947713
-0.00127182
0.00308916
-0.00219136
-0.00253772
0.00425774
-0.00299184
-0.00405687
0.00500477
-0.00348562
-0.00574966
0.00547544
-0.00378265
-0.00756621
0.00578175
-0.0039652
-0.00947871
0.00599955
-0.00408704
-0.0114735
0.00617286
-0.00417805
-0.0135446
0.00632285
-0.00425177
-0.0156891
0.00645684
-0.00431234
-0.0179049
0.00657532
-0.00435954
-0.0201894
0.00667602
-0.00439151
-0.0225392
0.00675591
-0.00440606
-0.0249501
0.00681193
-0.00440108
-0.0274167
0.00684129
-0.0043747
-0.0299329
0.0068415
-0.00432527
-0.0324919
0.00681038
-0.00425144
-0.0350859
0.00674611
-0.00415209
-0.0377067
0.00664716
-0.00402639
-0.0403453
0.00651241
-0.0038738
-0.0429922
0.00634105
-0.00369408
-0.0456375
0.00613264
-0.00348733
-0.0482707
0.00588701
-0.00325387
-0.0508814
0.00560437
-0.00299371
-0.0534591
0.00528529
-0.00270754
-0.0559928
0.00493074
-0.00239708
-0.0584712
0.00454197
-0.00206352
-0.0608835
0.00412051
-0.00170825
-0.0632187
0.00366805
-0.00133281
-0.0654665
0.00318639
-0.000938642
-0.0676173
0.00267725
-0.000526396
-0.069673
0.00214293
-8.72847e-05
-0.0715987
0.0015903
0.000335387
-0.0733951
0.00101752
0.000778923
-0.0750529
0.000422658
0.00123516
-0.076568
-0.00018339
0.00169847
-0.000794582
-0.0779369
0.00216348
-0.000311656
0.00163339
-0.00108469
0.0038622
-0.00219976
0.00537281
-0.00356054
0.00636555
-0.00509398
0.00700888
-0.00674975
0.00743752
-0.00849653
0.00774633
-0.0103166
0.00799292
-0.0122003
0.00820659
-0.0141422
0.00839867
-0.0161377
0.00857092
-0.0181827
0.00872097
-0.0202719
0.00884511
-0.0223994
0.00893941
-0.0245583
0.0090002
-0.026741
0.00902417
-0.0289389
0.00900837
-0.0311431
0.00895028
-0.0333437
0.00884778
-0.0355305
0.00869915
-0.0376925
0.00850311
-0.0398187
0.00825877
-0.0418973
0.00796564
-0.0439166
0.00762369
-0.0458646
0.00723329
-0.0477291
0.00679522
-0.0494978
0.00631066
-0.0511584
0.00578114
-0.0526989
0.00520856
-0.0541078
0.00459522
-0.0553744
0.00394388
-0.0564896
0.00325818
-0.0574409
0.00254156
-0.0582195
0.00179618
-0.0588207
0.00102378
-0.0592304
0.000226389
-0.000562779
-0.0594622
-0.000233551
0.00186694
-0.000846361
0.00447501
-0.00176394
0.00629038
-0.0029146
0.00751621
-0.00423537
0.00832966
-0.00567683
0.00887898
-0.00720406
0.00927356
-0.00879444
0.0095833
-0.0104339
0.00984609
-0.0121134
0.0100782
-0.013826
0.0102835
-0.0155651
0.0104601
-0.0173238
0.0106039
-0.0190948
0.0107104
-0.0208697
0.0107751
-0.0226395
0.010794
-0.0243947
0.0107636
-0.0261251
0.0106807
-0.02782
0.0105427
-0.0294683
0.0103474
-0.0310585
0.0100934
-0.032579
0.00977921
-0.0340176
0.00940425
-0.0353621
0.00896822
-0.0366001
0.00847129
-0.037719
0.00791406
-0.0387059
0.00729758
-0.039548
0.0066233
-0.0402326
0.00589311
-0.0407468
0.00510941
-0.041078
0.00427515
-0.0412138
0.00339395
-0.0411425
0.00247027
-0.0408559
0.00150952
-0.0403476
0.000515522
-0.039616
-0.000505231
-0.00152275
-0.038656
-0.000146242
0.00201318
-0.000574014
0.00490278
-0.0012579
0.00697427
-0.00215568
0.00841399
-0.00321838
0.00939235
-0.00439984
0.0100604
-0.00566243
0.0105361
-0.00697849
0.0108994
-0.00832894
0.0111965
-0.00970056
0.0114498
-0.0110834
0.0116663
-0.0124688
0.0118454
-0.0138483
0.0119834
-0.0152131
0.0120752
-0.0165541
0.0121161
-0.0178615
0.0121014
-0.0191252
0.0120272
-0.0203347
0.0118901
-0.0214791
0.0116871
-0.0225475
0.0114158
-0.0235286
0.0110745
-0.024411
0.0106616
-0.0251832
0.0101764
-0.0258335
0.00961855
-0.0263502
0.00898797
-0.0267213
0.00828519
-0.0269348
0.00751112
-0.0269787
0.00666711
-0.0268404
0.00575488
-0.0265077
0.00477668
-0.0259677
0.00373514
-0.025207
0.00263324
-0.0242116
0.00147491
-0.022963
0.000260898
-0.0214714
-0.000976076
-0.0197276
-0.00224898
-0.00361424
-0.0176362
-5.67058e-05
0.00206989
-0.000287138
0.00513322
-0.000713871
0.00740101
-0.00132725
0.00902736
-0.002096
0.0101611
-0.00298052
0.010945
-0.00394246
0.0114981
-0.00494984
0.0119067
-0.0059784
0.0122251
-0.00701041
0.0124818
-0.00803251
0.0126884
-0.00903375
0.0128467
-0.0100042
0.0129538
-0.0109342
0.0130052
-0.0118138
0.0129958
-0.0126333
0.0129209
-0.0133824
0.0127763
-0.0140508
0.0125585
-0.0146282
0.0122645
-0.015104
0.0118917
-0.0154679
0.0114383
-0.0157092
0.0109029
-0.0158174
0.0102846
-0.0157818
0.00958303
-0.015592
0.00879813
-0.0152372
0.00793039
-0.0147068
0.00698075
-0.0139903
0.00595059
-0.0130772
0.00484175
-0.0119567
0.0036562
-0.0106184
0.00239683
-0.00905105
0.0010659
-0.00724235
-0.000333788
-0.00518802
-0.00179343
-0.00284523
-0.00331887
-0.000201375
-0.00489283
-0.0064311
0.00261548
2.83223e-05
0.00204156
-4.70179e-06
0.00516624
-0.000166505
0.00756281
-0.000477637
0.00933849
-0.000927936
0.0106114
-0.00148829
0.0115053
-0.00212281
0.0121326
-0.00279686
0.0125808
-0.00348164
0.0129099
-0.00415476
0.0131549
-0.00479912
0.0133327
-0.00540115
0.0134487
-0.00594931
0.013502
-0.00643304
0.0134889
-0.00684223
0.013405
-0.00716692
0.0132456
-0.00739723
0.0130066
-0.00752335
0.0126847
-0.00753552
0.0122766
-0.00742405
0.0117802
-0.00717933
0.0111936
-0.0067918
0.0105154
-0.00625197
0.00974479
-0.00555045
0.00888151
-0.00467795
0.00792563
-0.00362536
0.0068778
-0.00238376
0.00573915
-0.000944546
0.00451138
0.000700362
0.00319684
0.00255787
0.00179869
0.00463779
0.000316903
0.00694002
-0.00123633
0.00947328
-0.00286704
0.0122459
-0.00456608
0.0152701
-0.00634307
0.0185263
-0.008149
-0.0100871
0.0221823
0.000102448
0.00193911
0.000251195
0.00501749
0.000348217
0.00746579
0.000342211
0.0093445
0.000221351
0.0107323
9.21875e-07
0.0117257
-0.000288794
0.0124223
-0.000613941
0.0129059
-0.000942629
0.0132386
-0.00124826
0.0134605
-0.00150979
0.0135943
-0.00171066
0.0136496
-0.00183737
0.0136287
-0.00187829
0.0135298
-0.00182291
0.0133496
-0.0016613
0.013084
-0.00138395
0.0127293
-0.000981615
0.0122823
-0.000445281
0.0117403
0.000233856
0.0111011
0.00106448
0.010363
0.0020549
0.00952495
0.00321326
0.00858643
0.0045474
0.00754737
0.00606474
0.00640828
0.00777232
0.00517023
0.00967654
0.00383493
0.0117829
0.00240499
0.0140965
0.000883239
0.0166213
-0.000726111
0.019358
-0.0024198
0.0223131
-0.00419143
0.0254901
-0.00604396
0.0288845
-0.00796051
0.0325232
-0.00998174
0.0363758
-0.0120017
-0.0143034
0.0405921
0.000161505
0.00177761
0.000467314
0.00471168
0.000798682
0.00713442
0.00108255
0.00906063
0.00128605
0.0105288
0.00140829
0.0116035
0.00146916
0.0123615
0.00149902
0.0128761
0.00153005
0.0132075
0.00159157
0.013399
0.00170813
0.0134777
0.00189946
0.0134583
0.00218141
0.0133467
0.00256706
0.0131442
0.00306759
0.012849
0.003693
0.0124585
0.00445246
0.0119698
0.00535455
0.0113802
0.00640737
0.0106875
0.00761859
0.00988986
0.00899537
0.00898618
0.0105444
0.00797588
0.0122719
0.00685895
0.0141833
0.00563604
0.0162829
0.00430862
0.018574
0.00287914
0.021061
0.00134787
0.0237436
-0.00027757
0.0266248
-0.00199794
0.0297034
-0.00380475
0.0329809
-0.00569731
0.0364569
-0.00766737
0.0401422
-0.00972924
0.0440262
-0.0118445
0.0481614
-0.014117
0.0524835
-0.0163237
-0.0190229
0.057203
0.000202598
0.00157501
0.00063023
0.00428405
0.00115762
0.00660703
0.00169827
0.00851998
0.00220236
0.0100247
0.00265267
0.0111532
0.0030566
0.0119575
0.00343668
0.012496
0.00382203
0.0128222
0.00424225
0.0129788
0.00472398
0.012996
0.00528962
0.0128926
0.00595741
0.012679
0.00674213
0.0123595
0.00765591
0.0119353
0.00870898
0.0114055
0.00991015
0.0107687
0.0112671
0.0100233
0.0127867
0.0091679
0.0144749
0.00820171
0.0163366
0.0071244
0.0183762
0.0059363
0.0205967
0.00463848
0.023
0.00323277
0.0255881
0.00172054
0.0283526
0.000114563
0.0313056
-0.00160514
0.0344398
-0.00341174
0.0377523
-0.0053104
0.0412441
-0.00729653
0.0449196
-0.00937282
0.0487813
-0.0115291
0.0528549
-0.0138028
0.0571303
-0.0161199
0.0617023
-0.018689
0.0664707
-0.0210921
-0.0242819
0.0717297
0.00022493
0.00135008
0.000733562
0.00377542
0.0014065
0.00593409
0.00215374
0.00777274
0.00291495
0.00926347
0.00365917
0.010409
0.00438053
0.0112362
0.00509113
0.0117854
0.00581354
0.0120998
0.0065744
0.0122179
0.00740002
0.0121704
0.0083139
0.0119787
0.0093359
0.011657
0.0104822
0.0112132
0.0117658
0.0106517
0.0131971
0.0099742
0.0147843
0.00918147
0.0165339
0.00827364
0.0184508
0.00725095
0.0205386
0.00611388
0.0227995
0.00486354
0.025234
0.00350177
0.027842
0.00203054
0.030618
0.000456688
0.0335646
-0.00122603
0.036685
-0.00300581
0.0399637
-0.00488384
0.0434081
-0.0068562
0.0470211
-0.00892336
0.0508115
-0.0110869
0.0547966
-0.013358
0.0589959
-0.0157284
0.0634556
-0.0182626
0.068179
-0.0208433
0.0732938
-0.0238038
0.0786746
-0.0264729
-0.030277
0.0846697
0.000229514
0.00112057
0.000776562
0.00322837
0.00153722
0.00517344
0.00242722
0.00688273
0.0033834
0.00830729
0.00436598
0.00942638
0.00535761
0.0102445
0.00635924
0.0107838
0.00738445
0.0110746
0.00845382
0.0111486
0.0095903
0.0110339
0.0108161
0.010753
0.0121508
0.0103222
0.0136108
0.00975315
0.0152093
0.00905322
0.0169561
0.00822742
0.0188584
0.00727915
0.020921
0.00621105
0.0231465
0.00502547
0.0255357
0.00372467
0.0280878
0.00231146
0.0307994
0.000790147
0.0336692
-0.000839232
0.0366997
-0.00257385
0.0398835
-0.00440984
0.0432251
-0.00634746
0.0467297
-0.00838843
0.0504113
-0.0105377
0.0542907
-0.0128028
0.0583987
-0.0151949
0.0627722
-0.0177315
0.0674573
-0.0204135
0.0725058
-0.0233111
0.0779451
-0.0262826
0.0838664
-0.029725
0.0901586
-0.0327652
-0.0371946
0.0970762
0.000218668
0.000901899
0.000763565
0.00268347
0.00155222
0.00438479
0.00251332
0.00592163
0.00358817
0.00723245
0.00473423
0.00828031
0.0059266
0.00905218
0.00715651
0.00955386
0.00842799
0.00980308
0.00975355
0.00982301
0.0111501
0.0096373
0.0126359
0.00926721
0.0142278
0.00873031
0.0159406
0.00804037
0.0177859
0.00720791
0.0197723
0.00624099
0.0219055
0.00514599
0.0241882
0.00392834
0.0266207
0.00259301
0.0292046
0.00114078
0.0319356
-0.000419597
0.0348212
-0.0020954
0.0378587
-0.00387676
0.0410534
-0.00576851
0.0444175
-0.00777396
0.0479703
-0.00990027
0.0517395
-0.0121577
0.055762
-0.0145602
0.060081
-0.0171218
0.064748
-0.0198619
0.0698067
-0.0227901
0.0753112
-0.025918
0.0812703
-0.0292702
0.0877227
-0.032735
0.0946089
-0.0366112
0.101905
-0.0400611
-0.0448269
0.109537
0.000195349
0.00070655
0.000702483
0.00217634
0.001463
0.00362427
0.00242291
0.00496171
0.00353363
0.00612174
0.00475561
0.00705833
0.00606116
0.00774663
0.00743501
0.00818002
0.00887289
0.0083652
0.010379
0.00831689
0.0119629
0.0080534
0.0136367
0.00759344
0.0154127
0.00695427
0.0173022
0.00615083
0.0193145
0.00519563
0.0214566
0.00409894
0.0237336
0.00286895
0.0261503
0.00151165
0.0286993
4.40174e-05
0.0314045
-0.00156448
0.0342658
-0.00328091
0.0372913
-0.00512088
0.0405029
-0.00708834
0.0439268
-0.00919241
0.0475984
-0.0114456
0.0515608
-0.0138626
0.0558622
-0.0164591
0.0605525
-0.0192505
0.0656762
-0.0222454
0.0712693
-0.0254551
0.0773402
-0.028861
0.0838956
-0.0324733
0.090855
-0.0362296
0.0982232
-0.0401032
0.105746
-0.0441341
0.113529
-0.0478444
-0.0523569
0.12106
0.000162551
0.000544
0.000603072
0.00173582
0.00128739
0.00293996
0.00218056
0.00406854
0.00324734
0.00505496
0.00445549
0.00585018
0.00577899
0.00642313
0.00719984
0.00675917
0.00870829
0.00685675
0.0103017
0.00672348
0.0119827
0.00637235
0.0137575
0.00581873
0.0156335
0.00507824
0.017619
0.00416535
0.019722
0.00309257
0.0219509
0.00187008
0.0243133
0.000506494
0.0268221
-0.000997069
0.0295026
-0.00263657
0.0323572
-0.00441904
0.0354237
-0.00634741
0.0387353
-0.00843247
0.0423347
-0.0106877
0.04627
-0.0131277
0.0505909
-0.0157665
0.0553436
-0.0186153
0.0605647
-0.0216802
0.0662735
-0.0249593
0.0724669
-0.0284388
0.0791118
-0.0321
0.0861426
-0.0358918
0.0934705
-0.0398012
0.100942
-0.0437015
0.108483
-0.0476434
0.115761
-0.0514127
0.122949
-0.0550321
-0.0586941
0.129286
0.000123031
0.000420969
0.000475859
0.00138299
0.00104737
0.00236845
0.00182137
0.00329453
0.00277709
0.00409924
0.00389205
0.00473522
0.00514532
0.00516986
0.00651999
0.0053845
0.00800444
0.0053723
0.00959255
0.00513538
0.0112832
0.00468174
0.0130793
0.00402262
0.0149874
0.00317015
0.017017
0.00213566
0.0191815
0.000928102
0.0214977
-0.000446155
0.0239907
-0.00198642
0.0266874
-0.00369377
0.0296254
-0.00557461
0.0328452
-0.00763881
0.0363961
-0.00989834
0.0403288
-0.0123652
0.0446911
-0.01505
0.0495221
-0.0179587
0.054846
-0.0210903
0.0606652
-0.0244346
0.0669559
-0.0279709
0.0736629
-0.0316663
0.0807023
-0.0354783
0.0879558
-0.0393535
0.0952912
-0.0432272
0.102543
-0.047053
0.109557
-0.0507152
0.116188
-0.0542747
0.122225
-0.0574498
0.127789
-0.0605955
-0.0631887
0.132283
7.95669e-05
0.000341402
0.000332324
0.00113023
0.000768573
0.0019322
0.00138952
0.00267359
0.00218858
0.00330018
0.00315421
0.00376959
0.00427318
0.00405088
0.0055334
0.00412428
0.00692602
0.00397968
0.0084468
0.0036146
0.0100968
0.00303173
0.0118829
0.00223649
0.0138184
0.00123471
0.0159224
3.16118e-05
0.0182236
-0.00137304
0.0207565
-0.00297911
0.023563
-0.00479283
0.0266912
-0.00682204
0.0301927
-0.00907609
0.0341174
-0.0115635
0.0385087
-0.0142896
0.0433966
-0.0172531
0.0487917
-0.0204451
0.0546793
-0.0238463
0.0610158
-0.0274269
0.0677274
-0.0311462
0.0747111
-0.0349546
0.0818383
-0.0387934
0.0889639
-0.0426039
0.0959287
-0.0463183
0.102588
-0.049886
0.108782
-0.0532476
0.114429
-0.0563617
0.119401
-0.0592468
0.123703
-0.0617524
0.127368
-0.0642599
-0.0660655
0.130244
3.55615e-05
0.00030584
0.000186025
0.00097977
0.000481356
0.00163687
0.000938531
0.00221641
0.00156454
0.00267418
0.00235964
0.00297449
0.00332083
0.00308969
0.00444514
0.00299997
0.0057324
0.00269241
0.00718749
0.0021595
0.00882206
0.00139717
0.0106557
0.000402807
0.0127168
-0.000826403
0.0150431
-0.00229465
0.0176783
-0.00400822
0.0206732
-0.00597399
0.0240792
-0.00819884
0.0279442
-0.0106871
0.0323061
-0.0134379
0.0371857
-0.0164431
0.0425811
-0.0196849
0.0484629
-0.0231349
0.0547718
-0.026754
0.0614187
-0.0304932
0.0682876
-0.0342958
0.0752413
-0.0380999
0.0821295
-0.0418429
0.088799
-0.045463
0.0951049
-0.0489098
0.100921