/*--------------------------------*- C++ -*----------------------------------*\
| =========                 |                                                 |
| \\      /  F ield         | OpenFOAM: The Open Source CFD Toolbox           |
|  \\    /   O peration     | Version:  2512                                  |
|   \\  /    A nd           | Website:  www.openfoam.com                      |
|    \\/     M anipulation  |                                                 |
\*---------------------------------------------------------------------------*/
FoamFile
{
    version     2.0;
    format      ascii;
    arch        "LSB;label=32;scalar=64";
    class       volScalarField;
    location    "82.5";
    object      p;
}
// * * * * * * * * * * * * * * * * * * * * * * * * * * * * * * * * * * * * * //

dimensions      [0 2 -2 0 0 0 0];

internalField   nonuniform List<scalar> 
9800
(
0.048846
0.0487245
0.0484933
0.0481638
0.0477467
0.0472518
0.046688
0.0460634
0.0453855
0.0446614
0.0438981
0.0431022
0.04228
0.0414374
0.0405805
0.0397149
0.0388458
0.0379784
0.0371169
0.0362657
0.0354284
0.0346082
0.033808
0.0330302
0.0322766
0.031549
0.0308484
0.0301757
0.0295315
0.0289161
0.0283295
0.0277714
0.0272416
0.0267395
0.0262644
0.0258157
0.0253923
0.0249935
0.0246182
0.0242655
0.0489676
0.0488464
0.0486156
0.0482868
0.0478702
0.0473757
0.0468121
0.0461872
0.0455084
0.0447827
0.0440169
0.0432176
0.042391
0.0415431
0.0406798
0.0398069
0.0389296
0.0380531
0.0371819
0.0363201
0.0354717
0.03464
0.033828
0.033038
0.0322723
0.0315324
0.0308197
0.0301352
0.0294794
0.0288527
0.0282552
0.0276868
0.0271471
0.0266356
0.0261518
0.0256948
0.0252638
0.0248579
0.024476
0.0241173
0.0491979
0.0490773
0.0488475
0.0485199
0.0481046
0.0476112
0.0470481
0.0464229
0.0457427
0.0450142
0.044244
0.0434386
0.042604
0.0417463
0.0408713
0.0399847
0.039092
0.0381984
0.0373085
0.0364268
0.0355572
0.0347035
0.0338686
0.0330554
0.0322661
0.0315027
0.0307666
0.030059
0.0293807
0.0287321
0.0281135
0.0275249
0.0269659
0.0264362
0.0259351
0.025462
0.025016
0.0245962
0.0242016
0.0238311
0.0495247
0.049405
0.0491769
0.0488514
0.0484384
0.047947
0.0473853
0.0467604
0.0460789
0.0453471
0.0445715
0.0437581
0.0429129
0.0420418
0.0411506
0.040245
0.0393307
0.0384128
0.0374965
0.0365861
0.0356862
0.0348006
0.0339327
0.0330857
0.0322621
0.0314642
0.0306938
0.0299523
0.0292407
0.0285599
0.0279101
0.0272915
0.0267039
0.0261471
0.0256204
0.0251233
0.0246549
0.0242143
0.0238005
0.0234124
0.0499363
0.0498181
0.0495925
0.0492703
0.0488611
0.0483732
0.0478143
0.0471908
0.0465089
0.0457743
0.0449931
0.0441708
0.0433133
0.0424263
0.0415155
0.0405866
0.0396455
0.0386973
0.0377475
0.0368009
0.0358621
0.0349354
0.0340248
0.0331338
0.0322655
0.0314224
0.0306068
0.0298206
0.029065
0.0283412
0.0276499
0.0269913
0.0263655
0.0257723
0.0252113
0.0246818
0.0241833
0.0237147
0.023275
0.0228632
0.0504218
0.0503057
0.0500838
0.0497664
0.0493627
0.0488805
0.0483264
0.0477064
0.0470257
0.0462896
0.0455035
0.0446726
0.0438023
0.042898
0.0419654
0.0410102
0.0400381
0.0390546
0.0380654
0.0370755
0.03609
0.0351138
0.0341512
0.0332064
0.0322829
0.0313839
0.0305122
0.02967
0.0288593
0.0280816
0.0273378
0.0266285
0.0259542
0.0253147
0.0247098
0.0241392
0.023602
0.0230975
0.0226247
0.0221823
0.0509709
0.0508575
0.0506406
0.05033
0.0499341
0.0494601
0.0489136
0.0482997
0.0476229
0.0468876
0.0460984
0.0452602
0.0443778
0.0434563
0.042501
0.0415175
0.0405115
0.0394889
0.0384552
0.0374161
0.0363769
0.0353431
0.0343197
0.0333114
0.0323224
0.0313566
0.0304174
0.0295078
0.0286302
0.0277866
0.0269786
0.0262072
0.0254731
0.0247765
0.0241174
0.0234955
0.0229104
0.0223612
0.0218469
0.0213664
0.0515736
0.0514639
0.0512534
0.0509518
0.0505665
0.0501037
0.0495682
0.0489639
0.0482944
0.0475632
0.046774
0.0459311
0.0450386
0.0441012
0.0431236
0.0421113
0.0410701
0.0400056
0.0389237
0.0378302
0.036731
0.0356323
0.0345396
0.0334584
0.0323936
0.0313499
0.0303315
0.0293421
0.0283851
0.0274631
0.0265781
0.0257319
0.0249255
0.0241596
0.0234346
0.0227504
0.0221066
0.0215026
0.0209374
0.02041
0.0522208
0.0521155
0.0519133
0.051623
0.0512513
0.0508033
0.0502827
0.0496923
0.0490345
0.0483116
0.0475265
0.0466828
0.0457837
0.044833
0.0438351
0.0427951
0.0417185
0.0406109
0.0394782
0.0383264
0.0371621
0.0359918
0.034822
0.0336587
0.0325077
0.0313747
0.0302649
0.029183
0.0281331
0.0271188
0.0261428
0.0252077
0.0243151
0.0234664
0.0226621
0.0219027
0.021188
0.0205176
0.0198907
0.0193062
0.0529035
0.0528036
0.0526115
0.0523353
0.0519805
0.0515512
0.05105
0.0504784
0.0498372
0.0491278
0.0483523
0.0475128
0.0466118
0.0456521
0.0446374
0.0435724
0.0424622
0.0413118
0.0401271
0.0389145
0.037681
0.0364336
0.0351794
0.0339252
0.0326778
0.031444
0.0302302
0.029042
0.0278849
0.0267631
0.0256807
0.024641
0.0236466
0.0226994
0.0218008
0.0209514
0.0201517
0.0194014
0.0187
0.0180466
0.0536135
0.05352
0.05334
0.0530805
0.0527462
0.0523398
0.0518628
0.0513153
0.0506966
0.0500069
0.0492473
0.0484186
0.0475217
0.0465586
0.0455324
0.0444471
0.0433066
0.0421155
0.0408794
0.039605
0.0382997
0.0369708
0.0356259
0.0342727
0.032919
0.0315729
0.0302419
0.0289333
0.0276532
0.0264077
0.0252017
0.0240399
0.0229259
0.0218626
0.0208522
0.0198959
0.0189947
0.0181487
0.0173579
0.0166215
0.0543429
0.054257
0.0540909
0.053851
0.0535407
0.0531616
0.0527141
0.0521964
0.0516064
0.0509434
0.0502072
0.0493968
0.0485115
0.0475523
0.0465217
0.0454225
0.0442571
0.0430292
0.0417443
0.0404091
0.0390312
0.0376179
0.0361772
0.0347176
0.0332483
0.0317785
0.0303173
0.028873
0.0274536
0.0260663
0.0247179
0.0234144
0.0221608
0.0209614
0.0198191
0.0187362
0.0177143
0.0167542
0.0158563
0.0150203
0.0550846
0.0550071
0.0548571
0.0546396
0.0543566
0.0540094
0.0535967
0.0531144
0.0525598
0.0519315
0.0512272
0.0504436
0.0495785
0.0486323
0.0476062
0.0465013
0.0453182
0.0440597
0.0427309
0.0413384
0.039889
0.0383902
0.0368501
0.0352783
0.033685
0.0320807
0.0304759
0.0288805
0.0273041
0.0257558
0.0242442
0.0227773
0.0213618
0.0200031
0.0187059
0.0174735
0.0163085
0.0152127
0.014187
0.0132316
0.0558318
0.0557637
0.0556317
0.055439
0.0551871
0.0548765
0.0545035
0.0540624
0.0535502
0.0529649
0.0523016
0.0515541
0.0507192
0.0497966
0.0487859
0.0476853
0.0464939
0.0452134
0.0438483
0.0424043
0.0408872
0.0393039
0.037663
0.0359748
0.0342505
0.0325018
0.0307405
0.0289781
0.0272263
0.0254963
0.0237992
0.0221448
0.0205418
0.0189978
0.0175191
0.0161107
0.0147765
0.0135194
0.0123414
0.0112432
0.0565783
0.0565208
0.0564084
0.0562429
0.0560256
0.0557562
0.0554274
0.0550329
0.0545706
0.0540372
0.0534239
0.0527225
0.0519292
0.0510426
0.0500595
0.0489752
0.0477869
0.0464956
0.0451047
0.0436178
0.0420395
0.0403757
0.0386352
0.0368287
0.0349683
0.0330666
0.0311366
0.0291916
0.0272455
0.0253121
0.023405
0.0215364
0.0197176
0.0179586
0.016268
0.0146529
0.013119
0.0116708
0.0103114
0.00904267
0.0573186
0.0572727
0.0571814
0.057045
0.0568662
0.0566419
0.0563611
0.0560187
0.0556143
0.0551411
0.0545869
0.0539422
0.0532031
0.052366
0.0514242
0.0503699
0.0491988
0.0479107
0.0465071
0.0449892
0.0433592
0.0416222
0.0397865
0.037863
0.035864
0.0338025
0.0316928
0.0295503
0.027391
0.0252316
0.0230883
0.0209765
0.0189103
0.0169027
0.0149653
0.013108
0.011339
0.00966451
0.0080894
0.00661707
0.0580477
0.0580144
0.0579452
0.0578401
0.0577036
0.0575272
0.0572974
0.0570131
0.0566742
0.0562691
0.0557826
0.0552058
0.0545343
0.0537612
0.0528755
0.0518666
0.0507291
0.0494612
0.0480612
0.0465271
0.0448587
0.0430596
0.0411373
0.0391017
0.0369645
0.0347393
0.0324413
0.0300876
0.0276967
0.0252881
0.0228811
0.0204944
0.0181458
0.015852
0.0136281
0.0114877
0.009442
0.00749998
0.00566868
0.00395347
0.0587613
0.0587414
0.0586948
0.0586236
0.0585328
0.0584055
0.0582294
0.0580095
0.057743
0.057413
0.057003
0.0565056
0.0559151
0.0552206
0.0544067
0.0534606
0.0523757
0.0511475
0.0497703
0.0482383
0.0465489
0.0447034
0.0427074
0.0405688
0.0382984
0.0359091
0.0334171
0.0308409
0.0282013
0.0255205
0.022821
0.0201255
0.0174561
0.0148339
0.0122786
0.00980795
0.00743725
0.00517918
0.00304377
0.001039
0.0594556
0.0594497
0.059426
0.0593922
0.0593491
0.0592703
0.0591512
0.0590017
0.0588133
0.0585645
0.0582399
0.0578333
0.0573369
0.0567351
0.0560094
0.0551454
0.0541341
0.0529675
0.0516352
0.0501276
0.0484388
0.0465673
0.0445155
0.0422884
0.0398945
0.0373458
0.0346584
0.0318517
0.0289484
0.0259731
0.0229521
0.0199122
0.0168803
0.0138828
0.0109451
0.00809004
0.00533823
0.00270716
0.000210944
-0.00213889
0.060127
0.0601357
0.0601359
0.0601431
0.0601471
0.0601156
0.0600578
0.0599837
0.0598775
0.0597157
0.0594851
0.0591803
0.0587898
0.0582945
0.0576739
0.0569119
0.055997
0.054916
0.0536537
0.0521965
0.0505347
0.0486628
0.0465786
0.0442833
0.0417821
0.0390847
0.0362059
0.0331653
0.0299867
0.026697
0.0233257
0.0199043
0.0164651
0.0130409
0.00966317
0.00636179
0.00316376
9.27846e-05
-0.00283134
-0.00559236
0.0607723
0.0607966
0.0608225
0.060874
0.0609215
0.0609365
0.0609446
0.060949
0.0609285
0.0608591
0.0607304
0.0605369
0.0602631
0.0598878
0.0593889
0.0587494
0.0579542
0.0569847
0.0558203
0.0544433
0.0528394
0.0509979
0.0489111
0.0465748
0.0439895
0.0411612
0.0381022
0.0348307
0.0313704
0.0277497
0.0240011
0.0201608
0.016267
0.0123594
0.00847731
0.00465873
0.000938885
-0.00265047
-0.00608201
-0.0093331
0.0613884
0.0614307
0.0614853
0.0615823
0.0616667
0.0617295
0.0618075
0.0618916
0.06196
0.0619874
0.0619676
0.0618932
0.0617457
0.0615032
0.0611423
0.0606452
0.0599929
0.0591616
0.0581257
0.0568622
0.0553515
0.0535768
0.0515235
0.0491809
0.0465432
0.0436108
0.0403914
0.0368999
0.0331583
0.0291954
0.025046
0.0207503
0.0163527
0.0119006
0.00744234
0.00302579
-0.0013035
-0.00550345
-0.0095369
-0.0133725
0.0619721
0.062038
0.0621243
0.0622645
0.0623778
0.0624926
0.062642
0.0628066
0.0629666
0.0630939
0.0631885
0.0632392
0.0632263
0.0631286
0.0629209
0.0625852
0.0620982
0.0614319
0.0605563
0.0594427
0.0580648
0.0563984
0.0544217
0.0521157
0.0494665
0.0464668
0.0431172
0.039427
0.0354141
0.0311057
0.0265374
0.0217526
0.0168015
0.0117396
0.00662563
0.00151923
-0.00352117
-0.00844035
-0.0131883
-0.0177219
0.0625205
0.0626194
0.0627392
0.0629165
0.0630514
0.0632246
0.0634437
0.0636905
0.0639432
0.0641717
0.0643851
0.0645647
0.0646942
0.0647515
0.0647106
0.0645539
0.0642533
0.0637785
0.0630949
0.0621691
0.060967
0.0594561
0.0576056
0.0553874
0.0527777
0.049759
0.0463221
0.0424672
0.0382053
0.0335589
0.0285619
0.0232594
0.0177063
0.0119664
0.00610937
0.000208997
-0.00566058
-0.0114273
-0.0170246
-0.022393
0.0630323
0.0631764
0.0633277
0.0635344
0.063686
0.0639254
0.0642085
0.0645413
0.064884
0.0652153
0.0655499
0.0658604
0.0661389
0.0663593
0.0664968
0.0665349
0.0664397
0.066182
0.0657212
0.0650212
0.0640396
0.0627359
0.061068
0.0589975
0.0564888
0.053512
0.0500449
0.0460749
0.0416018
0.0366395
0.0312164
0.0253762
0.0191766
0.0126886
0.0059938
-0.000818314
-0.00765433
-0.014421
-0.0210296
-0.0273993
0.0635091
0.0637099
0.0638855
0.0641149
0.0642816
0.0645947
0.0649333
0.0653581
0.0657828
0.0662209
0.0666748
0.0671185
0.0675506
0.0679395
0.0682652
0.068511
0.068638
0.0686215
0.0684117
0.0679755
0.0672581
0.0662163
0.0647928
0.062939
0.0606035
0.0577428
0.0543183
0.0503006
0.0456736
0.0404367
0.0346074
0.0282229
0.0213404
0.0140358
0.00640166
-0.00145487
-0.00941751
-0.0173661
-0.025183
-0.0327583
0.0639549
0.0642187
0.064407
0.0646568
0.0648396
0.0652321
0.0656163
0.06614
0.0666332
0.0671866
0.0677515
0.0683335
0.0689186
0.069481
0.0700014
0.0704653
0.0708279
0.0710746
0.0711406
0.0710054
0.0705933
0.0698697
0.0687532
0.0671942
0.0651143
0.0624595
0.0591671
0.0551897
0.0504883
0.0450418
0.0388492
0.0319341
0.0243465
0.0161627
0.00748403
-0.00156482
-0.0108411
-0.0201911
-0.0294589
-0.0384944
0.0643758
0.0646982
0.064888
0.0651599
0.0653627
0.0658362
0.0662571
0.0668843
0.0674312
0.0681106
0.0687716
0.0695022
0.0702315
0.0709751
0.0716899
0.0723817
0.0729887
0.0735182
0.0738795
0.0740816
0.0740104
0.0736636
0.0729128
0.0717344
0.0699978
0.0676582
0.0646041
0.0607804
0.056109
0.0505467
0.0440625
0.036657
0.0283639
0.0192516
0.00942462
-0.000977472
-0.011784
-0.0228004
-0.0338207
-0.0446393
0.0647781
0.0651414
0.0653282
0.0656249
0.0658543
0.0664044
0.0668575
0.0675867
0.0681768
0.0689899
0.0697303
0.0706213
0.0714782
0.0724151
0.0733144
0.0742468
0.0750979
0.0759297
0.0765979
0.0771729
0.0774697
0.0775604
0.0772253
0.0765212
0.0752105
0.0733189
0.0706202
0.0671016
0.0625897
0.0570474
0.0503756
0.0425551
0.033584
0.0235126
0.0124407
0.000514542
-0.0120692
-0.0250701
-0.0382186
-0.0512325
0.0651676
0.0655415
0.06573
0.066052
0.0663184
0.0669326
0.067421
0.0682409
0.068874
0.0698179
0.0706286
0.0716844
0.0726537
0.0737933
0.074862
0.0760479
0.0771343
0.0782879
0.0792642
0.0802463
0.0809268
0.0815169
0.0816347
0.0815073
0.0806911
0.0794013
0.0771688
0.0741617
0.0699555
0.0646424
0.0579223
0.0498262
0.0402367
0.0292024
0.0167948
0.00315911
-0.0114849
-0.026854
-0.0426008
-0.0583395
0.0655463
0.065895
0.0660967
0.066441
0.0667587
0.067417
0.0679516
0.0688405
0.0695287
0.0705853
0.0714714
0.0726804
0.0737594
0.0750972
0.0763279
0.077769
0.0790841
0.0805687
0.0818527
0.083266
0.0843407
0.0854833
0.0860809
0.0866324
0.0863618
0.0858454
0.0841686
0.0819317
0.0781658
0.0734071
0.0667977
0.0587112
0.0486014
0.0366839
0.0228503
0.0072924
-0.00975481
-0.0279752
-0.0469218
-0.0660852
0.0659145
0.0662026
0.066432
0.0667928
0.0671769
0.0678554
0.0684523
0.069382
0.070146
0.0712847
0.0722646
0.0735978
0.0748001
0.0763108
0.0777138
0.0793881
0.0809427
0.0827409
0.0843496
0.0861859
0.0876844
0.089394
0.0905185
0.0918118
0.0921544
0.0925605
0.0915265
0.0903338
0.0871167
0.0833478
0.0769661
0.0694289
0.0588969
0.0464763
0.0311233
0.0134825
-0.00642239
-0.0281462
-0.0510926
-0.0746606
0.0662697
0.0664679
0.0667384
0.0671101
0.0675727
0.0682493
0.0689242
0.0698668
0.0707287
0.0719147
0.0730121
0.0744305
0.07578
0.0774225
0.0790219
0.0808858
0.0827089
0.0847726
0.0867475
0.0889542
0.0909418
0.0931673
0.0949206
0.096925
0.0980297
0.0993887
0.0991915
0.0992046
0.0967377
0.0943372
0.0883207
0.0820354
0.0710647
0.0590976
0.0419976
0.0227084
-0.000759587
-0.0267827
-0.0548764
-0.0843114
0.0666073
0.0666972
0.067018
0.0673965
0.0679436
0.0686028
0.069365
0.0702999
0.071275
0.0724797
0.0737127
0.0751815
0.076698
0.0784323
0.0802498
0.0822565
0.0843762
0.0866478
0.0890337
0.0915368
0.0940915
0.0967372
0.0992575
0.101854
0.103955
0.106137
0.107142
0.108266
0.107073
0.10607
0.100954
0.0962631
0.0850605
0.0745734
0.0553143
0.0361116
0.00769729
-0.0226341
-0.0580076
-0.0954221
0.0669218
0.0668978
0.0672735
0.0676559
0.0682868
0.0689203
0.0697716
0.070688
0.0717807
0.0729874
0.0743608
0.0758588
0.0775468
0.0793478
0.081387
0.0835063
0.0859277
0.0883692
0.0911797
0.0939277
0.0970879
0.10008
0.103461
0.106544
0.109844
0.112694
0.115308
0.117302
0.118136
0.118213
0.115222
0.111694
0.101616
0.0924103
0.0712358
0.0534992
0.018598
-0.0129832
-0.0607529
-0.108146
0.0672091
0.0670763
0.0675075
0.0678916
0.0685996
0.0692066
0.0701416
0.0710381
0.0722416
0.0734454
0.0749509
0.0764705
0.0783198
0.0801769
0.0824244
0.0846428
0.0873484
0.0899438
0.0931586
0.0961314
0.0998832
0.103192
0.107451
0.110964
0.115571
0.118985
0.123511
0.126229
0.129728
0.130667
0.131101
0.128202
0.121896
0.112401
0.0922835
0.0738039
0.0325905
0.00217494
-0.0644559
-0.119575
0.0674679
0.0672384
0.0677216
0.0681062
0.0688816
0.0694658
0.0704744
0.0713557
0.0726554
0.0738602
0.075479
0.0770241
0.0790104
0.0809279
0.0833513
0.0856755
0.0886193
0.0913825
0.0949347
0.0981624
0.102408
0.106092
0.111096
0.115145
0.120909
0.125049
0.131421
0.135018
0.141473
0.143208
0.148255
0.145714
0.145799
0.135402
0.121956
0.0973886
0.0561418
0.0188598
-0.067889
-0.12311
0.0676988
0.0673874
0.0679171
0.0683015
0.0691335
0.069701
0.0707711
0.071644
0.073023
0.074235
0.0759465
0.0775232
0.0796202
0.0816043
0.0841685
0.0866071
0.0897396
0.0926863
0.0965022
0.100018
0.104644
0.108775
0.114342
0.119083
0.125704
0.130896
0.13862
0.143741
0.152434
0.156143
0.165227
0.164528
0.172172
0.160852
0.160702
0.128603
0.0995167
0.0359818
-0.0590208
-0.126394
0.0679031
0.0675256
0.0680943
0.0684793
0.0693567
0.0699145
0.071033
0.0719054
0.073346
0.0745723
0.0763557
0.0779694
0.0801528
0.082207
0.0848809
0.087436
0.0907158
0.0938481
0.0978702
0.101677
0.106602
0.111195
0.117204
0.122683
0.129968
0.136361
0.145086
0.152182
0.162398
0.169331
0.180823
0.184982
0.197039
0.191464
0.202328
0.168987
0.167037
0.063177
-0.0217984
-0.209901
0.0680829
0.0676536
0.0682542
0.0686404
0.069553
0.0701073
0.0712619
0.0721407
0.0736265
0.0748732
0.0767096
0.0783641
0.0806119
0.0827369
0.0854934
0.0881619
0.0915541
0.0948634
0.0990459
0.103128
0.108291
0.113315
0.119689
0.125854
0.133712
0.141225
0.150851
0.159837
0.171445
0.18171
0.195213
0.205585
0.220196
0.226403
0.240147
0.226647
0.237581
0.142615
0.106304
-0.388209
0.0239426
0.0236422
0.0233502
0.0230669
0.0227924
0.0225271
0.0222709
0.0220241
0.0217868
0.0215592
0.0237891
0.0234839
0.0231874
0.0228999
0.0226217
0.0223528
0.0220936
0.0218441
0.0216045
0.0213749
0.0234924
0.0231778
0.0228726
0.0225769
0.0222912
0.0220156
0.0217503
0.0214955
0.0212513
0.021018
0.0230582
0.0227295
0.022411
0.0221032
0.0218063
0.0215205
0.0212462
0.0209834
0.0207325
0.0204936
0.0224878
0.02214
0.0218038
0.0214794
0.0211674
0.0208679
0.0205812
0.0203077
0.0200476
0.0198012
0.0217797
0.0214074
0.0210482
0.0207026
0.020371
0.0200538
0.0197514
0.019464
0.0191921
0.0189359
0.0209298
0.0205268
0.0201388
0.0197665
0.0194104
0.019071
0.0187487
0.018444
0.0181573
0.017889
0.0199316
0.0194907
0.0190672
0.0186619
0.0182756
0.0179087
0.017562
0.0172359
0.0169309
0.0166476
0.0187768
0.0182897
0.0178228
0.0173772
0.0169538
0.0165534
0.0161767
0.0158243
0.0154971
0.0151955
0.0174553
0.0169122
0.0163926
0.015898
0.0154295
0.0149882
0.0145749
0.0141907
0.0138362
0.0135124
0.0159556
0.0153448
0.0147614
0.0142074
0.0136842
0.0131932
0.0127356
0.0123126
0.0119252
0.0115744
0.0142647
0.0135722
0.0129118
0.0122859
0.0116965
0.0111454
0.0106339
0.0101638
0.00973644
0.00935307
0.0123682
0.0115773
0.010824
0.0101114
0.00944192
0.00881786
0.00824122
0.00771409
0.00723819
0.0068153
0.0102506
0.00934142
0.00847613
0.00765874
0.00689244
0.00618017
0.00552452
0.00492824
0.00439353
0.00392275
0.00789504
0.00684374
0.00584357
0.00489977
0.00401644
0.00319743
0.00244608
0.00176596
0.00115995
0.000631092
0.00528378
0.00406173
0.00289917
0.00180286
0.000778134
-0.000170044
-0.0010373
-0.00181905
-0.00251153
-0.00311079
0.0023979
0.00097083
-0.000387201
-0.00166745
-0.002863
-0.00396743
-0.00497505
-0.00587995
-0.00667723
-0.00736182
-0.000782537
-0.00245571
-0.00404897
-0.00555104
-0.00695291
-0.00824628
-0.00942379
-0.0104778
-0.011402
-0.01219
-0.00427865
-0.00624719
-0.00812349
-0.00989297
-0.0115439
-0.0130656
-0.0144486
-0.015683
-0.0167608
-0.0176736
-0.00811285
-0.0104359
-0.0126527
-0.0147445
-0.016696
-0.0184935
-0.0201245
-0.0215768
-0.0228398
-0.0239032
-0.0123092
-0.0150578
-0.0176844
-0.0201646
-0.0224786
-0.0246086
-0.0265386
-0.0282533
-0.0297391
-0.0309833
-0.0168943
-0.0201541
-0.0232739
-0.026222
-0.0289727
-0.0315031
-0.0337928
-0.0358223
-0.0375747
-0.0390346
-0.0218981
-0.0257727
-0.0294863
-0.0329981
-0.0362745
-0.039286
-0.0420066
-0.0444121
-0.0464815
-0.0481966
-0.0273558
-0.031971
-0.0364008
-0.0405919
-0.0445002
-0.0480882
-0.0513228
-0.0541744
-0.0566178
-0.0586319
-0.0333099
-0.0388201
-0.0441155
-0.0491255
-0.0537928
-0.058069
-0.0619126
-0.0652881
-0.0681661
-0.0705248
-0.0398158
-0.046411
-0.0527551
-0.0587539
-0.0643316
-0.0694257
-0.0739849
-0.0779675
-0.0813418
-0.0840853
-0.0469479
-0.0548656
-0.0624848
-0.0696786
-0.0763458
-0.0824056
-0.0877958
-0.0924689
-0.0963954
-0.0995583
-0.0548076
-0.0643508
-0.0735299
-0.0821709
-0.0901379
-0.0973264
-0.103663
-0.109099
-0.113614
-0.117207
-0.0635296
-0.0750929
-0.0861983
-0.0966007
-0.106114
-0.114603
-0.121985
-0.128222
-0.133318
-0.137309
-0.0733071
-0.0874097
-0.100917
-0.113475
-0.12482
-0.134778
-0.143262
-0.150269
-0.155862
-0.160142
-0.0844519
-0.101788
-0.11832
-0.133523
-0.147011
-0.158557
-0.1681
-0.175717
-0.181593
-0.185953
-0.0974474
-0.118985
-0.139396
-0.157857
-0.173781
-0.18689
-0.19722
-0.205045
-0.210781
-0.214856
-0.112924
-0.140083
-0.165665
-0.188192
-0.206742
-0.221084
-0.231543
-0.238799
-0.243633
-0.246771
-0.131724
-0.166728
-0.199408
-0.226909
-0.247973
-0.26271
-0.272131
-0.277609
-0.280381
-0.281546
-0.155644
-0.202448
-0.244236
-0.276897
-0.299549
-0.313105
-0.319616
-0.321466
-0.320687
-0.31871
-0.191259
-0.257007
-0.307615
-0.343034
-0.364576
-0.374127
-0.374569
-0.369674
-0.362746
-0.356022
-0.253751
-0.345691
-0.403622
-0.436834
-0.450905
-0.449793
-0.438644
-0.422161
-0.404068
-0.387644
-0.342795
-0.462075
-0.536823
-0.564746
-0.558076
-0.537004
-0.509711
-0.478786
-0.446362
-0.416442
-0.455329
-0.546334
-0.688283
-0.718541
-0.662186
-0.598297
-0.542515
-0.493986
-0.45136
-0.413765
-1.0139
-0.644073
-0.734062
-0.735346
-0.699175
-0.634207
-0.56685
-0.506676
-0.457569
-0.419066
0.021329
0.021096
0.0208705
0.0206535
0.0204456
0.0202481
0.0200616
0.0198871
0.0197254
0.0195774
0.0194439
0.0193255
0.0192228
0.0191366
0.0190669
0.0190143
0.0189788
0.0189604
0.0189588
0.0189738
0.0190043
0.01905
0.0191093
0.0191812
0.0192637
0.0193553
0.0194532
0.0195556
0.0196592
0.019762
0.0198599
0.0199505
0.0200288
0.0200924
0.0201358
0.0201565
0.0201483
0.0201085
0.0200303
0.0199106
0.0197423
0.0195215
0.019241
0.0188964
0.0184803
0.0179883
0.0174127
0.01675
0.0159926
0.015139
0.0141821
0.0131233
0.0119568
0.0106872
0.0093102
0.00783364
0.00625458
0.00458215
0.00281436
0.000957202
0.0211431
0.020909
0.0206828
0.0204656
0.0202583
0.0200618
0.0198771
0.0197051
0.0195466
0.0194026
0.0192738
0.019161
0.0190646
0.0189854
0.0189236
0.0188797
0.0188535
0.0188451
0.0188541
0.0188801
0.0189223
0.0189799
0.0190514
0.0191357
0.0192305
0.0193345
0.0194445
0.019559
0.0196741
0.0197881
0.0198967
0.0199975
0.0200854
0.0201582
0.0202103
0.0202388
0.0202377
0.0202044
0.0201321
0.0200179
0.0198544
0.019638
0.0193609
0.0190192
0.018605
0.018114
0.0175383
0.0168741
0.0161138
0.0152559
0.0142933
0.0132274
0.0120523
0.0107733
0.00938553
0.00789761
0.00630584
0.00462007
0.00283775
0.000965304
0.0207831
0.0205466
0.0203191
0.0201017
0.0198954
0.0197011
0.0195199
0.0193528
0.0192007
0.0190645
0.0189451
0.0188431
0.0187592
0.018694
0.0186477
0.0186207
0.0186127
0.0186239
0.0186535
0.0187013
0.018766
0.0188469
0.018942
0.0190503
0.0191691
0.0192967
0.0194299
0.0195672
0.0197047
0.0198403
0.0199692
0.0200893
0.0201954
0.0202852
0.0203531
0.0203968
0.0204091
0.020388
0.0203269
0.020223
0.0200687
0.0198603
0.01959
0.0192537
0.0188434
0.0183542
0.0177783
0.0171113
0.0163456
0.0154796
0.0145057
0.0134262
0.0122348
0.0109376
0.00952933
0.00801973
0.00640404
0.004693
0.00288317
0.000980943
0.020254
0.020014
0.0197846
0.019567
0.0193621
0.0191712
0.0189954
0.0188358
0.0186933
0.018569
0.0184637
0.0183782
0.018313
0.0182688
0.0182458
0.0182441
0.0182635
0.0183039
0.0183644
0.0184445
0.0185427
0.0186579
0.018788
0.0189315
0.0190853
0.0192473
0.0194147
0.0195852
0.0197548
0.0199209
0.0200787
0.0202261
0.0203577
0.0204715
0.0205613
0.0206253
0.020657
0.0206532
0.0206078
0.0205183
0.0203769
0.02018
0.0199195
0.019591
0.0191864
0.0187001
0.0181241
0.0174532
0.0166797
0.0158017
0.0148116
0.0137122
0.0124973
0.0111738
0.0097361
0.00819547
0.00654553
0.00479834
0.00294891
0.00100357
0.0195553
0.0193107
0.0190788
0.0188609
0.0186582
0.018472
0.0183037
0.0181543
0.0180251
0.0179171
0.0178311
0.0177681
0.0177286
0.017713
0.0177216
0.0177543
0.0178108
0.0178906
0.0179926
0.018116
0.018259
0.0184199
0.0185964
0.0187862
0.0189858
0.0191933
0.0194047
0.0196182
0.0198286
0.0200336
0.020228
0.0204098
0.0205732
0.0207167
0.0208338
0.0209229
0.0209774
0.0209952
0.0209692
0.0208972
0.0207721
0.0205896
0.0203417
0.0200236
0.0196266
0.0191443
0.0185688
0.0178931
0.0171095
0.0162162
0.0152044
0.0140792
0.0128338
0.0114763
0.0100012
0.00842107
0.00672748
0.00493398
0.00303363
0.00103287
0.018682
0.0184316
0.0181966
0.0179785
0.0177787
0.0175989
0.0174404
0.0173046
0.0171927
0.017106
0.0170454
0.0170117
0.0170055
0.0170271
0.0170766
0.0171537
0.0172579
0.0173883
0.0175434
0.017722
0.0179218
0.0181405
0.0183751
0.0186225
0.0188791
0.0191419
0.0194078
0.0196731
0.0199325
0.0201838
0.0204213
0.0206434
0.0208437
0.0210213
0.0211694
0.021287
0.0213675
0.0214094
0.0214059
0.0213542
0.021248
0.0210827
0.0208503
0.0205449
0.020158
0.019681
0.0191066
0.0184255
0.0176301
0.0167179
0.0156791
0.0145223
0.0132392
0.0118405
0.0103205
0.00869336
0.00694781
0.00509853
0.00313674
0.00106883
0.0176251
0.0173674
0.0171286
0.0169104
0.0167147
0.0165431
0.0163973
0.0162789
0.0161893
0.0161298
0.0161013
0.0161049
0.0161408
0.0162094
0.0163105
0.0164434
0.0166073
0.0168008
0.017022
0.0172688
0.0175383
0.0178276
0.0181327
0.0184502
0.0187735
0.0191033
0.0194328
0.0197583
0.0200742
0.0203782
0.0206642
0.020931
0.0211717
0.0213864
0.0215677
0.0217161
0.0218243
0.0218925
0.0219131
0.0218835
0.0217986
0.0216528
0.0214388
0.0211488
0.0207748
0.0203055
0.0197338
0.0190466
0.0182374
0.017303
0.0162311
0.015037
0.013709
0.0122623
0.0106905
0.00900978
0.00720479
0.0052911
0.00325871
0.00111188
0.0163714
0.016105
0.0158617
0.0156437
0.0154532
0.0152921
0.0151625
0.0150661
0.0150045
0.0149792
0.0149912
0.0150413
0.0151299
0.0152569
0.0154219
0.0156238
0.0158613
0.0161321
0.016434
0.0167634
0.0171169
0.01749
0.0178772
0.0182748
0.0186809
0.0190884
0.0194906
0.0198841
0.0202629
0.0206248
0.0209632
0.0212774
0.0215603
0.0218136
0.0220286
0.0222085
0.0223446
0.0224397
0.0224852
0.0224793
0.0224178
0.0222932
0.022101
0.0218294
0.0214718
0.021013
0.0204468
0.0197535
0.0189293
0.0179684
0.0168563
0.015619
0.0142382
0.0127377
0.0111081
0.00936872
0.0074969
0.0055113
0.00340126
0.00116289
0.0149043
0.0146273
0.0143787
0.0141614
0.0139776
0.0138299
0.0137206
0.0136518
0.0136251
0.0136424
0.0137046
0.0138123
0.013966
0.014165
0.0144086
0.014695
0.0150221
0.0153869
0.015786
0.0162147
0.0166684
0.0171407
0.0176266
0.0181204
0.0186179
0.0191118
0.0195945
0.0200626
0.0205094
0.0209327
0.0213254
0.0216879
0.022013
0.022304
0.0225515
0.022762
0.0229248
0.0230463
0.0231161
0.0231348
0.0230983
0.0229969
0.02283
0.02258
0.0222438
0.0217996
0.0212425
0.0205438
0.0197047
0.0187119
0.0175515
0.0162639
0.0148218
0.0132624
0.0115702
0.00976948
0.00782282
0.0057599
0.00356734
0.00122283
0.0132032
0.0129134
0.0126587
0.0124424
0.0122672
0.0121364
0.0120525
0.012018
0.0120348
0.0121047
0.0122288
0.0124076
0.0126411
0.0129283
0.0132678
0.0136568
0.0140926
0.0145707
0.0150861
0.0156328
0.0162044
0.0167922
0.0173913
0.0179964
0.018598
0.0191882
0.0197592
0.0203077
0.0208258
0.0213119
0.0217585
0.0221679
0.0225327
0.0228584
0.0231352
0.0233736
0.0235599
0.0237065
0.0237984
0.0238428
0.0238317
0.0237554
0.023618
0.0233936
0.0230852
0.0226612
0.0221186
0.0214159
0.0205625
0.0195309
0.0183128
0.0169669
0.0154547
0.0138321
0.0120742
0.0102112
0.00818124
0.00604055
0.0037611
0.00129215
0.0112433
0.0109382
0.0106763
0.0104616
0.0102975
0.0101878
0.0101354
0.0101434
0.0102138
0.0103486
0.0105489
0.0108148
0.0111459
0.0115406
0.0119966
0.0125098
0.0130766
0.0136902
0.0143443
0.0150303
0.0157395
0.0164631
0.0171936
0.0179234
0.0186402
0.0193359
0.020002
0.0206349
0.0212253
0.021773
0.0222706
0.0227225
0.0231218
0.0234764
0.0237774
0.0240386
0.024244
0.0244131
0.024524
0.024594
0.0246074
0.0245589
0.0244558
0.0242614
0.0239897
0.0235936
0.023073
0.0223701
0.0215032
0.0204219
0.0191342
0.0177199
0.0161299
0.0144421
0.0126185
0.0106925
0.00857072
0.00636045
0.00398751
0.0013709
0.00899553
0.00867203
0.00840172
0.00818939
0.00803923
0.00795575
0.00794243
0.00800281
0.00813929
0.00835382
0.00864737
0.00901974
0.00946989
0.00999517
0.0105921
0.0112551
0.011979
0.0127541
0.013573
0.014423
0.0152927
0.0161716
0.0170532
0.0179227
0.0187667
0.0195767
0.020343
0.0210617
0.0217224
0.0223274
0.0228694
0.023356
0.0237815
0.0241562
0.024474
0.0247508
0.0249699
0.0251571
0.0252826
0.0253781
0.0254136
0.0253963
0.0253316
0.0251724
0.0249497
0.024592
0.0241036
0.0234081
0.0225293
0.0213825
0.0200072
0.0185104
0.0168367
0.0150863
0.0132018
0.0112115
0.0089923
0.00673028
0.00425069
0.00145932
0.00642578
0.00608018
0.00579995
0.00559092
0.00545824
0.00540728
0.00544219
0.00556711
0.00578463
0.00609684
0.00650446
0.00700658
0.00760155
0.00828491
0.00905185
0.00989452
0.0108055
0.0117725
0.0127871
0.0138308
0.0148838
0.0159443
0.0169965
0.0180207
0.0190036
0.0199353
0.0208047
0.0216074
0.0223326
0.0229867
0.023562
0.0240715
0.0245106
0.0248941
0.025219
0.0255018
0.0257285
0.0259277
0.0260631
0.0261826
0.026235
0.0262533
0.0262301
0.0261129
0.0259551
0.0256487
0.0252074
0.0245332
0.0236448
0.0224103
0.0209206
0.0193207
0.0175601
0.0157554
0.0138202
0.0117649
0.00945173
0.00716421
0.00455352
0.00155911
0.00349452
0.00312232
0.00283034
0.00262579
0.00251488
0.0025041
0.0025984
0.00280256
0.00311939
0.00355105
0.00409777
0.00475782
0.00552872
0.00640297
0.00737424
0.00843131
0.00956303
0.0107535
0.0119897
0.0132528
0.014537
0.0158091
0.0170541
0.0182476
0.01938
0.02044
0.0214126
0.0222934
0.0230726
0.023762
0.0243539
0.0248698
0.0253056
0.0256837
0.0260035
0.0262811
0.0265087
0.0267117
0.0268531
0.0269925
0.0270547
0.0271147
0.0271325
0.027065
0.0269922
0.0267518
0.0263787
0.0257506
0.0248552
0.0235008
0.0218561
0.0201259
0.018282
0.0164375
0.0144635
0.0123486
0.00996033
0.00767887
0.00490093
0.00167704
0.000156001
-0.000248292
-0.000554212
-0.000752874
-0.00083677
-0.000798017
-0.000630741
-0.000329419
0.000109001
0.000686598
0.00140297
0.00225429
0.00323935
0.00434327
0.005559
0.00687241
0.00827152
0.00973444
0.0112436
0.0127723
0.0143024
0.0158067
0.0172604
0.0186426
0.0199344
0.021126
0.0221967
0.0231431
0.0239592
0.0246631
0.0252482
0.0257487
0.0261592
0.026515
0.0268139
0.0270757
0.0272974
0.0274944
0.0276394
0.0277909
0.0278553
0.0279625
0.0280139
0.0280026
0.0280409
0.0278819
0.0276071
0.0270671
0.026167
0.0246455
0.0227828
0.0208903
0.0189809
0.0171153
0.0151144
0.0129562
0.0105308
0.0082912
0.00530678
0.00183067
-0.00364264
-0.00408567
-0.0044082