/*--------------------------------*- C++ -*----------------------------------*\
| =========                 |                                                 |
| \\      /  F ield         | OpenFOAM: The Open Source CFD Toolbox           |
|  \\    /   O peration     | Version:  2512                                  |
|   \\  /    A nd           | Website:  www.openfoam.com                      |
|    \\/     M anipulation  |                                                 |
\*---------------------------------------------------------------------------*/
FoamFile
{
    version     2.0;
    format      ascii;
    arch        "LSB;label=32;scalar=64";
    class       volVectorField;
    location    "75";
    object      U;
}
// * * * * * * * * * * * * * * * * * * * * * * * * * * * * * * * * * * * * * //

dimensions      [0 1 -1 0 0 0 0];

internalField   nonuniform List<vector> 
9800
(
(1 -2.38551e-05 0)
(1.0001 -7.1461e-05 0)
(1.00028 -0.000119406 0)
(1.00054 -0.000168719 0)
(1.00089 -0.000220028 0)
(1.00131 -0.000273366 0)
(1.0018 -0.000328178 0)
(1.00236 -0.000383487 0)
(1.00299 -0.000438131 0)
(1.00367 -0.000490991 0)
(1.00441 -0.000541135 0)
(1.00518 -0.000587895 0)
(1.00599 -0.000630859 0)
(1.00682 -0.000669824 0)
(1.00767 -0.000704742 0)
(1.00853 -0.000735666 0)
(1.00939 -0.000762716 0)
(1.01026 -0.000786043 0)
(1.01111 -0.000805824 0)
(1.01196 -0.000822248 0)
(1.01279 -0.000835514 0)
(1.0136 -0.000845828 0)
(1.0144 -0.000853398 0)
(1.01517 -0.000858428 0)
(1.01592 -0.000861118 0)
(1.01664 -0.000861659 0)
(1.01734 -0.000860234 0)
(1.01801 -0.000857014 0)
(1.01866 -0.000852161 0)
(1.01928 -0.000845827 0)
(1.01988 -0.000838151 0)
(1.02044 -0.000829268 0)
(1.02098 -0.000819299 0)
(1.0215 -0.000808366 0)
(1.02199 -0.000796577 0)
(1.02246 -0.000784042 0)
(1.0229 -0.000770857 0)
(1.02332 -0.000757125 0)
(1.02372 -0.00074293 0)
(1.0241 -0.000728369 0)
(1 -7.05236e-05 0)
(1.0001 -0.000211294 0)
(1.00028 -0.00035313 0)
(1.00054 -0.000499103 0)
(1.00088 -0.00065111 0)
(1.0013 -0.000809277 0)
(1.00179 -0.000971948 0)
(1.00235 -0.00113622 0)
(1.00298 -0.00129866 0)
(1.00366 -0.00145593 0)
(1.00439 -0.00160527 0)
(1.00517 -0.00174468 0)
(1.00598 -0.00187293 0)
(1.00682 -0.0019894 0)
(1.00767 -0.00209393 0)
(1.00854 -0.00218666 0)
(1.00941 -0.00226792 0)
(1.01028 -0.00233815 0)
(1.01114 -0.00239785 0)
(1.012 -0.00244756 0)
(1.01284 -0.00248788 0)
(1.01366 -0.00251938 0)
(1.01447 -0.00254268 0)
(1.01525 -0.00255836 0)
(1.01601 -0.00256703 0)
(1.01675 -0.00256924 0)
(1.01746 -0.00256551 0)
(1.01814 -0.00255637 0)
(1.0188 -0.00254229 0)
(1.01943 -0.00252371 0)
(1.02004 -0.00250107 0)
(1.02062 -0.00247475 0)
(1.02117 -0.00244512 0)
(1.0217 -0.00241256 0)
(1.0222 -0.00237738 0)
(1.02267 -0.00233991 0)
(1.02312 -0.00230045 0)
(1.02355 -0.00225931 0)
(1.02396 -0.00221674 0)
(1.02434 -0.00217304 0)
(1 -0.00011493 0)
(1.00009 -0.000344383 0)
(1.00027 -0.000575799 0)
(1.00053 -0.000814328 0)
(1.00087 -0.00106317 0)
(1.00128 -0.00132256 0)
(1.00177 -0.00158979 0)
(1.00233 -0.0018601 0)
(1.00295 -0.00212781 0)
(1.00363 -0.00238745 0)
(1.00437 -0.00263445 0)
(1.00515 -0.00286549 0)
(1.00596 -0.0030785 0)
(1.00681 -0.00327241 0)
(1.00767 -0.00344691 0)
(1.00854 -0.00360218 0)
(1.00943 -0.00373871 0)
(1.01031 -0.00385716 0)
(1.01119 -0.00395831 0)
(1.01207 -0.004043 0)
(1.01293 -0.00411215 0)
(1.01377 -0.00416669 0)
(1.0146 -0.00420758 0)
(1.0154 -0.00423575 0)
(1.01619 -0.00425216 0)
(1.01694 -0.00425768 0)
(1.01768 -0.00425319 0)
(1.01839 -0.0042395 0)
(1.01907 -0.00421741 0)
(1.01972 -0.00418763 0)
(1.02035 -0.00415087 0)
(1.02095 -0.00410779 0)
(1.02152 -0.00405901 0)
(1.02207 -0.00400514 0)
(1.02258 -0.00394672 0)
(1.02308 -0.00388433 0)
(1.02355 -0.00381845 0)
(1.02399 -0.00374963 0)
(1.02441 -0.00367829 0)
(1.02481 -0.00360494 0)
(1 -0.000156749 0)
(1.00009 -0.000469751 0)
(1.00027 -0.0007859 0)
(1.00052 -0.00111256 0)
(1.00085 -0.00145426 0)
(1.00126 -0.00181141 0)
(1.00174 -0.00218026 0)
(1.00229 -0.00255424 0)
(1.00291 -0.00292548 0)
(1.00359 -0.00328639 0)
(1.00433 -0.00363061 0)
(1.00511 -0.00395349 0)
(1.00593 -0.00425205 0)
(1.00678 -0.00452475 0)
(1.00766 -0.00477106 0)
(1.00855 -0.00499113 0)
(1.00945 -0.00518554 0)
(1.01035 -0.00535511 0)
(1.01126 -0.00550081 0)
(1.01216 -0.00562372 0)
(1.01304 -0.00572502 0)
(1.01392 -0.00580591 0)
(1.01477 -0.00586763 0)
(1.01561 -0.00591141 0)
(1.01643 -0.00593847 0)
(1.01722 -0.00595001 0)
(1.01798 -0.00594718 0)
(1.01873 -0.00593108 0)
(1.01944 -0.00590278 0)
(1.02013 -0.00586328 0)
(1.02079 -0.00581354 0)
(1.02142 -0.00575449 0)
(1.02202 -0.00568701 0)
(1.02259 -0.00561198 0)
(1.02314 -0.00553018 0)
(1.02366 -0.00544243 0)
(1.02415 -0.00534944 0)
(1.02462 -0.005252 0)
(1.02506 -0.00515074 0)
(1.02548 -0.00504642 0)
(1 -0.000195716 0)
(1.00009 -0.000586631 0)
(1.00026 -0.00098224 0)
(1.0005 -0.00139231 0)
(1.00082 -0.00182273 0)
(1.00122 -0.00227414 0)
(1.00169 -0.00274185 0)
(1.00224 -0.00321746 0)
(1.00285 -0.00369095 0)
(1.00353 -0.00415264 0)
(1.00426 -0.00459439 0)
(1.00505 -0.00501017 0)
(1.00588 -0.00539609 0)
(1.00674 -0.00575003 0)
(1.00763 -0.00607118 0)
(1.00854 -0.0063596 0)
(1.00946 -0.00661588 0)
(1.01039 -0.00684089 0)
(1.01132 -0.00703572 0)
(1.01225 -0.00720158 0)
(1.01317 -0.00733983 0)
(1.01408 -0.00745183 0)
(1.01498 -0.00753903 0)
(1.01586 -0.00760284 0)
(1.01671 -0.00764473 0)
(1.01755 -0.0076661 0)
(1.01836 -0.00766836 0)
(1.01915 -0.00765286 0)
(1.0199 -0.00762089 0)
(1.02063 -0.00757371 0)
(1.02133 -0.00751255 0)
(1.02201 -0.00743861 0)
(1.02265 -0.00735304 0)
(1.02326 -0.00725698 0)
(1.02385 -0.0071515 0)
(1.0244 -0.00703769 0)
(1.02493 -0.00691652 0)
(1.02543 -0.00678906 0)
(1.0259 -0.00665616 0)
(1.02635 -0.00651887 0)
(1 -0.000231608 0)
(1.00008 -0.000694329 0)
(1.00024 -0.00116375 0)
(1.00048 -0.00165216 0)
(1.00079 -0.00216694 0)
(1.00117 -0.00270898 0)
(1.00163 -0.00327275 0)
(1.00217 -0.00384806 0)
(1.00277 -0.00442275 0)
(1.00344 -0.00498508 0)
(1.00418 -0.00552513 0)
(1.00496 -0.00603551 0)
(1.0058 -0.00651131 0)
(1.00667 -0.00694981 0)
(1.00757 -0.00734986 0)
(1.0085 -0.00771133 0)
(1.00945 -0.0080347 0)
(1.01041 -0.00832078 0)
(1.01137 -0.00857068 0)
(1.01234 -0.00878565 0)
(1.0133 -0.00896711 0)
(1.01425 -0.00911646 0)
(1.0152 -0.00923523 0)
(1.01612 -0.00932491 0)
(1.01703 -0.00938712 0)
(1.01792 -0.00942341 0)
(1.01879 -0.00943535 0)
(1.01963 -0.00942447 0)
(1.02044 -0.00939227 0)
(1.02122 -0.00934023 0)
(1.02198 -0.00926984 0)
(1.0227 -0.00918256 0)
(1.0234 -0.0090798 0)
(1.02406 -0.00896305 0)
(1.02469 -0.00883363 0)
(1.02529 -0.00869297 0)
(1.02586 -0.00854231 0)
(1.0264 -0.00838307 0)
(1.02691 -0.00821635 0)
(1.02739 -0.00804354 0)
(1 -0.000264221 0)
(1.00008 -0.00079223 0)
(1.00023 -0.00132946 0)
(1.00045 -0.00189077 0)
(1.00075 -0.00248527 0)
(1.00112 -0.00311409 0)
(1.00156 -0.00377093 0)
(1.00208 -0.00444392 0)
(1.00267 -0.00511876 0)
(1.00334 -0.00578172 0)
(1.00406 -0.00642109 0)
(1.00485 -0.0070281 0)
(1.00568 -0.00759681 0)
(1.00657 -0.00812385 0)
(1.00748 -0.00860765 0)
(1.00843 -0.0090478 0)
(1.0094 -0.00944454 0)
(1.01039 -0.00979851 0)
(1.01139 -0.0101107 0)
(1.0124 -0.0103824 0)
(1.01341 -0.0106148 0)
(1.01441 -0.0108092 0)
(1.01541 -0.0109671 0)
(1.01639 -0.01109 0)
(1.01736 -0.0111796 0)
(1.01831 -0.0112373 0)
(1.01924 -0.0112649 0)
(1.02015 -0.0112639 0)
(1.02103 -0.011236 0)
(1.02188 -0.0111829 0)
(1.0227 -0.0111063 0)
(1.02349 -0.011008 0)
(1.02424 -0.0108895 0)
(1.02497 -0.0107527 0)
(1.02566 -0.0105994 0)
(1.02631 -0.0104311 0)
(1.02694 -0.0102496 0)
(1.02753 -0.0100566 0)
(1.02809 -0.00985357 0)
(1.02861 -0.00964225 0)
(1 -0.000293363 0)
(1.00007 -0.000879814 0)
(1.00021 -0.00147844 0)
(1.00042 -0.00210693 0)
(1.0007 -0.00277612 0)
(1.00105 -0.00348759 0)
(1.00147 -0.00423417 0)
(1.00197 -0.00500251 0)
(1.00255 -0.00577627 0)
(1.0032 -0.00653975 0)
(1.00391 -0.00727946 0)
(1.00469 -0.00798523 0)
(1.00553 -0.00865013 0)
(1.00642 -0.00927011 0)
(1.00735 -0.00984312 0)
(1.00831 -0.0103683 0)
(1.00931 -0.0108456 0)
(1.01033 -0.0112753 0)
(1.01137 -0.0116584 0)
(1.01242 -0.0119957 0)
(1.01348 -0.0122882 0)
(1.01454 -0.012537 0)
(1.01559 -0.0127433 0)
(1.01664 -0.0129085 0)
(1.01768 -0.013034 0)
(1.01871 -0.0131213 0)
(1.01971 -0.013172 0)
(1.02069 -0.0131877 0)
(1.02165 -0.0131701 0)
(1.02258 -0.013121 0)
(1.02348 -0.0130424 0)
(1.02434 -0.0129361 0)
(1.02517 -0.0128042 0)
(1.02597 -0.0126488 0)
(1.02673 -0.0124719 0)
(1.02746 -0.0122756 0)
(1.02815 -0.012062 0)
(1.0288 -0.0118333 0)
(1.02942 -0.0115912 0)
(1.03 -0.0113381 0)
(1 -0.000318887 0)
(1.00007 -0.000956611 0)
(1.00019 -0.0016099 0)
(1.00038 -0.00229952 0)
(1.00064 -0.00303798 0)
(1.00097 -0.00382755 0)
(1.00137 -0.00466018 0)
(1.00184 -0.00552105 0)
(1.0024 -0.00639211 0)
(1.00303 -0.00725572 0)
(1.00373 -0.00809656 0)
(1.0045 -0.00890307 0)
(1.00533 -0.00966743 0)
(1.00622 -0.010385 0)
(1.00716 -0.011053 0)
(1.00814 -0.0116701 0)
(1.00916 -0.0122358 0)
(1.01021 -0.0127502 0)
(1.01128 -0.0132138 0)
(1.01238 -0.0136269 0)
(1.01349 -0.0139903 0)
(1.01461 -0.0143043 0)
(1.01573 -0.01457 0)
(1.01686 -0.0147882 0)
(1.01797 -0.0149603 0)
(1.01908 -0.0150872 0)
(1.02017 -0.0151704 0)
(1.02124 -0.0152113 0)
(1.02228 -0.0152116 0)
(1.0233 -0.0151731 0)
(1.02429 -0.015098 0)
(1.02525 -0.0149883 0)
(1.02617 -0.0148463 0)
(1.02705 -0.0146745 0)
(1.0279 -0.0144751 0)
(1.02871 -0.014251 0)
(1.02948 -0.0140043 0)
(1.03021 -0.0137381 0)
(1.03089 -0.0134542 0)
(1.03155 -0.0131558 0)
(1 -0.000340671 0)
(1.00006 -0.00102223 0)
(1.00017 -0.00172323 0)
(1.00034 -0.0024675 0)
(1.00057 -0.00326954 0)
(1.00087 -0.00413219 0)
(1.00124 -0.00504664 0)
(1.00169 -0.00599665 0)
(1.00222 -0.00696283 0)
(1.00282 -0.0079257 0)
(1.0035 -0.00886796 0)
(1.00426 -0.00977682 0)
(1.00508 -0.0106437 0)
(1.00596 -0.0114634 0)
(1.0069 -0.0122324 0)
(1.00789 -0.0129486 0)
(1.00893 -0.0136112 0)
(1.01001 -0.0142198 0)
(1.01112 -0.0147746 0)
(1.01226 -0.0152751 0)
(1.01343 -0.0157214 0)
(1.01461 -0.0161132 0)
(1.0158 -0.0164511 0)
(1.01701 -0.0167352 0)
(1.01821 -0.0169664 0)
(1.0194 -0.017145 0)
(1.02059 -0.0172721 0)
(1.02176 -0.0173488 0)
(1.02291 -0.0173766 0)
(1.02403 -0.0173574 0)
(1.02513 -0.0172931 0)
(1.02619 -0.017186 0)
(1.02721 -0.0170387 0)
(1.0282 -0.0168538 0)
(1.02915 -0.0166341 0)
(1.03005 -0.016383 0)
(1.03092 -0.016103 0)
(1.03174 -0.0157977 0)
(1.03251 -0.0154695 0)
(1.03324 -0.0151223 0)
(1 -0.000358607 0)
(1.00005 -0.00107643 0)
(1.00015 -0.00181793 0)
(1.00029 -0.00261004 0)
(1.0005 -0.00346967 0)
(1.00076 -0.00439992 0)
(1.0011 -0.00539124 0)
(1.00152 -0.0064265 0)
(1.00201 -0.00748496 0)
(1.00258 -0.00854541 0)
(1.00324 -0.00958863 0)
(1.00397 -0.0106009 0)
(1.00477 -0.011573 0)
(1.00564 -0.0124991 0)
(1.00657 -0.0133747 0)
(1.00757 -0.0141972 0)
(1.00862 -0.0149654 0)
(1.00972 -0.0156786 0)
(1.01087 -0.0163361 0)
(1.01205 -0.0169367 0)
(1.01327 -0.0174794 0)
(1.01452 -0.0179633 0)
(1.01579 -0.018388 0)
(1.01707 -0.018753 0)
(1.01836 -0.019058 0)
(1.01966 -0.0193028 0)
(1.02095 -0.0194876 0)
(1.02223 -0.0196131 0)
(1.02349 -0.0196804 0)
(1.02474 -0.0196912 0)
(1.02595 -0.0196471 0)
(1.02714 -0.0195508 0)
(1.02828 -0.0194045 0)
(1.02939 -0.0192117 0)
(1.03046 -0.0189751 0)
(1.03148 -0.018699 0)
(1.03245 -0.018386 0)
(1.03338 -0.018041 0)
(1.03426 -0.0176663 0)
(1.03509 -0.0172671 0)
(1 -0.00037264 0)
(1.00004 -0.00111908 0)
(1.00012 -0.00189359 0)
(1.00024 -0.00272664 0)
(1.00041 -0.00363749 0)
(1.00064 -0.00462935 0)
(1.00094 -0.00569189 0)
(1.00132 -0.00680799 0)
(1.00177 -0.00795522 0)
(1.00231 -0.00911048 0)
(1.00292 -0.0102532 0)
(1.00362 -0.0113692 0)
(1.0044 -0.0124487 0)
(1.00524 -0.0134847 0)
(1.00617 -0.0144721 0)
(1.00716 -0.0154079 0)
(1.00822 -0.0162907 0)
(1.00933 -0.017119 0)
(1.0105 -0.0178915 0)
(1.01173 -0.0186056 0)
(1.013 -0.0192596 0)
(1.01431 -0.0198514 0)
(1.01565 -0.0203796 0)
(1.01702 -0.0208425 0)
(1.01841 -0.0212386 0)
(1.01981 -0.0215664 0)
(1.02122 -0.0218255 0)
(1.02262 -0.0220155 0)
(1.02402 -0.022137 0)
(1.0254 -0.0221912 0)
(1.02675 -0.0221794 0)
(1.02807 -0.0221041 0)
(1.02936 -0.0219676 0)
(1.03061 -0.0217738 0)
(1.03181 -0.0215255 0)
(1.03297 -0.0212278 0)
(1.03407 -0.0208837 0)
(1.03513 -0.0204989 0)
(1.03613 -0.0200762 0)
(1.03707 -0.0196221 0)
(1 -0.00038277 0)
(1.00003 -0.00115013 0)
(1.00009 -0.00195 0)
(1.00018 -0.002817 0)
(1.00032 -0.00377255 0)
(1.00051 -0.00481919 0)
(1.00077 -0.00594689 0)
(1.0011 -0.00713881 0)
(1.0015 -0.00837049 0)
(1.00199 -0.00961657 0)
(1.00256 -0.0108562 0)
(1.00322 -0.0120754 0)
(1.00396 -0.0132635 0)
(1.00478 -0.0144121 0)
(1.00568 -0.0155157 0)
(1.00665 -0.0165712 0)
(1.00771 -0.0175773 0)
(1.00883 -0.0185315 0)
(1.01002 -0.0194315 0)
(1.01128 -0.0202733 0)
(1.01259 -0.0210545 0)
(1.01396 -0.0217715 0)
(1.01538 -0.0224219 0)
(1.01684 -0.023002 0)
(1.01833 -0.0235089 0)
(1.01984 -0.0239394 0)
(1.02138 -0.0242922 0)
(1.02291 -0.0245655 0)
(1.02445 -0.0247591 0)
(1.02598 -0.0248732 0)
(1.02748 -0.0249086 0)
(1.02896 -0.0248676 0)
(1.03041 -0.0247522 0)
(1.03182 -0.0245668 0)
(1.03318 -0.0243141 0)
(1.0345 -0.0240002 0)
(1.03576 -0.023628 0)
(1.03696 -0.023205 0)
(1.0381 -0.0227336 0)
(1.03919 -0.0222224 0)
(1 -0.000389047 0)
(1.00002 -0.00116962 0)
(1.00006 -0.0019871 0)
(1.00012 -0.00288133 0)
(1.00022 -0.00387457 0)
(1.00037 -0.00496849 0)
(1.00058 -0.00615499 0)
(1.00085 -0.00741732 0)
(1.00121 -0.00872775 0)
(1.00164 -0.0100596 0)
(1.00216 -0.0113924 0)
(1.00276 -0.0127132 0)
(1.00345 -0.0140098 0)
(1.00423 -0.0152724 0)
(1.0051 -0.0164956 0)
(1.00605 -0.0176766 0)
(1.00708 -0.0188141 0)
(1.0082 -0.0199046 0)
(1.0094 -0.0209444 0)
(1.01068 -0.0219287 0)
(1.01204 -0.0228538 0)
(1.01346 -0.023715 0)
(1.01495 -0.0245079 0)
(1.01649 -0.0252266 0)
(1.01809 -0.0258665 0)
(1.01972 -0.0264225 0)
(1.02138 -0.0268916 0)
(1.02307 -0.0272704 0)
(1.02476 -0.0275574 0)
(1.02645 -0.0277514 0)
(1.02813 -0.0278525 0)
(1.02979 -0.0278624 0)
(1.03141 -0.0277827 0)
(1.03301 -0.027618 0)
(1.03455 -0.0273708 0)
(1.03605 -0.0270484 0)
(1.03749 -0.0266533 0)
(1.03887 -0.026195 0)
(1.04018 -0.0256755 0)
(1.04143 -0.0251059 0)
(1 -0.000391616 0)
(1.00001 -0.00117747 0)
(1.00002 -0.00200513 0)
(1.00005 -0.00292025 0)
(1.00012 -0.00394336 0)
(1.00022 -0.00507671 0)
(1.00037 -0.00631574 0)
(1.00059 -0.00764221 0)
(1.00088 -0.00902426 0)
(1.00126 -0.0104357 0)
(1.00172 -0.0118576 0)
(1.00225 -0.013277 0)
(1.00288 -0.0146801 0)
(1.00361 -0.0160564 0)
(1.00443 -0.0174014 0)
(1.00534 -0.0187127 0)
(1.00634 -0.0199888 0)
(1.00744 -0.0212249 0)
(1.00864 -0.0224166 0)
(1.00993 -0.0235581 0)
(1.01131 -0.0246448 0)
(1.01278 -0.0256701 0)
(1.01433 -0.0266273 0)
(1.01596 -0.0275081 0)
(1.01766 -0.0283059 0)
(1.01941 -0.0290131 0)
(1.02121 -0.0296247 0)
(1.02304 -0.030135 0)
(1.0249 -0.0305407 0)
(1.02677 -0.0308388 0)
(1.02864 -0.031028 0)
(1.0305 -0.0311094 0)
(1.03233 -0.0310836 0)
(1.03414 -0.0309555 0)
(1.03589 -0.0307269 0)
(1.0376 -0.0304064 0)
(1.03924 -0.029996 0)
(1.04082 -0.0295074 0)
(1.04233 -0.0289421 0)
(1.04377 -0.0283141 0)
(1 -0.000390633 0)
(0.999994 -0.00117353 0)
(0.999985 -0.00200487 0)
(0.999982 -0.00293461 0)
(1 -0.00397882 0)
(1.00006 -0.00514405 0)
(1.00016 -0.00642952 0)
(1.00031 -0.00781242 0)
(1.00054 -0.00925768 0)
(1.00085 -0.0107419 0)
(1.00123 -0.012248 0)
(1.00169 -0.0137615 0)
(1.00225 -0.0152669 0)
(1.00291 -0.0167548 0)
(1.00366 -0.0182226 0)
(1.00452 -0.0196676 0)
(1.00548 -0.0210878 0)
(1.00654 -0.0224776 0)
(1.00772 -0.0238324 0)
(1.00901 -0.0251457 0)
(1.0104 -0.0264118 0)
(1.01191 -0.0276215 0)
(1.01351 -0.0287663 0)
(1.01522 -0.0298347 0)
(1.01701 -0.0308178 0)
(1.01888 -0.0317051 0)
(1.02082 -0.0324891 0)
(1.02282 -0.0331609 0)
(1.02485 -0.0337148 0)
(1.02692 -0.0341456 0)
(1.029 -0.0344503 0)
(1.03108 -0.0346283 0)
(1.03314 -0.0346792 0)
(1.03517 -0.0346077 0)
(1.03717 -0.0344146 0)
(1.03911 -0.03411 0)
(1.041 -0.0336948 0)
(1.04281 -0.0331835 0)
(1.04455 -0.0325763 0)
(1.04621 -0.0318915 0)
(1 -0.000386149 0)
(0.999982 -0.00115762 0)
(0.999946 -0.00198771 0)
(0.999908 -0.00292517 0)
(0.99989 -0.00398104 0)
(0.999894 -0.00517187 0)
(0.999927 -0.00649714 0)
(1.00002 -0.00792701 0)
(1.00018 -0.00942633 0)
(1.00041 -0.0109765 0)
(1.0007 -0.0125604 0)
(1.00108 -0.0141617 0)
(1.00156 -0.0157636 0)
(1.00214 -0.0173593 0)
(1.00281 -0.0189486 0)
(1.00359 -0.0205286 0)
(1.00449 -0.0220967 0)
(1.0055 -0.0236468 0)
(1.00664 -0.0251748 0)
(1.00791 -0.0266735 0)
(1.0093 -0.0281361 0)
(1.01082 -0.0295512 0)
(1.01246 -0.0309074 0)
(1.01423 -0.0321905 0)
(1.01612 -0.0333889 0)
(1.0181 -0.0344884 0)
(1.02018 -0.0354784 0)
(1.02234 -0.0363459 0)
(1.02457 -0.0370827 0)
(1.02684 -0.03768 0)
(1.02914 -0.0381325 0)
(1.03147 -0.0384377 0)
(1.03378 -0.0385932 0)
(1.03608 -0.0386032 0)
(1.03835 -0.0384672 0)
(1.04057 -0.0381964 0)
(1.04272 -0.0377904 0)
(1.04481 -0.0372671 0)
(1.04682 -0.0366245 0)
(1.04874 -0.0358863 0)
(1 -0.000377907 0)
(0.999968 -0.0011298 0)
(0.999903 -0.00195567 0)
(0.999833 -0.00289225 0)
(0.999774 -0.00395091 0)
(0.99972 -0.00516265 0)
(0.999689 -0.0065193 0)
(0.999713 -0.00798531 0)
(0.999799 -0.00952971 0)
(0.999942 -0.0111385 0)
(1.00015 -0.0127926 0)
(1.00043 -0.0144731 0)
(1.00081 -0.0161643 0)
(1.00129 -0.0178628 0)
(1.00187 -0.01957 0)
(1.00256 -0.0212833 0)
(1.00337 -0.0230005 0)
(1.00431 -0.0247156 0)
(1.00539 -0.0264251 0)
(1.00662 -0.0281215 0)
(1.00798 -0.0297969 0)
(1.0095 -0.0314374 0)
(1.01117 -0.0330295 0)
(1.01299 -0.0345557 0)
(1.01495 -0.0360015 0)
(1.01704 -0.0373482 0)
(1.01926 -0.0385816 0)
(1.02158 -0.0396838 0)
(1.024 -0.0406432 0)
(1.02649 -0.0414463 0)
(1.02904 -0.0420855 0)
(1.03163 -0.0425544 0)
(1.03422 -0.0428486 0)
(1.03682 -0.042971 0)
(1.03939 -0.0429189 0)
(1.04192 -0.0427049 0)
(1.04439 -0.0423263 0)
(1.04679 -0.0418051 0)
(1.0491 -0.0411366 0)
(1.05132 -0.0403507 0)
(1 -0.000365103 0)
(0.999951 -0.00109082 0)
(0.999856 -0.00191092 0)
(0.999757 -0.00283563 0)
(0.999655 -0.00389089 0)
(0.999541 -0.0051193 0)
(0.999446 -0.00649614 0)
(0.999403 -0.00798748 0)
(0.999408 -0.00956853 0)
(0.999457 -0.0112278 0)
(0.999561 -0.0129425 0)
(0.999745 -0.0146925 0)
(1.00002 -0.0164645 0)
(1.00039 -0.018259 0)
(1.00085 -0.0200783 0)
(1.00143 -0.0219201 0)
(1.00214 -0.0237847 0)
(1.00299 -0.0256668 0)
(1.00398 -0.0275639 0)
(1.00514 -0.0294681 0)
(1.00645 -0.0313706 0)
(1.00794 -0.0332555 0)
(1.00961 -0.0351076 0)
(1.01146 -0.0369059 0)
(1.01348 -0.0386329 0)
(1.01566 -0.0402645 0)
(1.01801 -0.0417826 0)
(1.02049 -0.043163 0)
(1.02311 -0.0443904 0)
(1.02583 -0.0454453 0)
(1.02863 -0.0463166 0)
(1.0315 -0.0469929 0)
(1.03441 -0.0474672 0)
(1.03733 -0.0477394 0)
(1.04024 -0.0478049 0)
(1.04312 -0.0476762 0)
(1.04595 -0.0473488 0)
(1.04871 -0.046848 0)
(1.05137 -0.0461663 0)
(1.05395 -0.0453408 0)
(1 -0.000346179 0)
(0.999931 -0.00104257 0)
(0.999807 -0.00185514 0)
(0.999683 -0.00275516 0)
(0.999534 -0.00380535 0)
(0.999358 -0.00504391 0)
(0.999202 -0.00642739 0)
(0.999089 -0.00793512 0)
(0.999007 -0.0095444 0)
(0.998956 -0.0112449 0)
(0.998953 -0.0130092 0)
(0.999027 -0.0148176 0)
(0.999184 -0.0166609 0)
(0.999426 -0.0185427 0)
(0.999764 -0.0204656 0)
(1.00021 -0.0224288 0)
(1.0008 -0.0244357 0)
(1.00152 -0.0264833 0)
(1.00241 -0.028571 0)
(1.00347 -0.0306903 0)
(1.0047 -0.0328318 0)
(1.00614 -0.0349782 0)
(1.00778 -0.0371131 0)
(1.00962 -0.0392125 0)
(1.01168 -0.0412552 0)
(1.01394 -0.0432118 0)
(1.01639 -0.0450591 0)
(1.01903 -0.0467663 0)
(1.02184 -0.0483132 0)
(1.02479 -0.0496726 0)
(1.02787 -0.0508293 0)
(1.03105 -0.0517648 0)
(1.03428 -0.052469 0)
(1.03757 -0.0529367 0)
(1.04086 -0.0531612 0)
(1.04414 -0.0531535 0)
(1.04737 -0.0529071 0)
(1.05054 -0.05245 0)
(1.05361 -0.0517722 0)
(1.05659 -0.0509177 0)
(1 -0.000318682 0)
(0.999905 -0.000988524 0)
(0.999755 -0.00178868 0)
(0.99961 -0.00265199 0)
(0.999408 -0.0036999 0)
(0.999176 -0.00493645 0)
(0.998961 -0.00631365 0)
(0.998772 -0.00783134 0)
(0.998599 -0.00945913 0)
(0.998443 -0.0111913 0)
(0.99833 -0.0129927 0)
(0.998286 -0.0148479 0)
(0.998313 -0.0167517 0)
(0.998416 -0.0187097 0)
(0.99861 -0.0207253 0)
(0.998913 -0.0228004 0)
(0.999348 -0.0249418 0)
(0.99993 -0.0271497 0)
(1.00068 -0.0294264 0)
(1.00161 -0.031764 0)
(1.00274 -0.0341531 0)
(1.00408 -0.0365755 0)
(1.00565 -0.0390141 0)
(1.00747 -0.0414421 0)
(1.00953 -0.0438351 0)
(1.01183 -0.0461579 0)
(1.01438 -0.0483823 0)
(1.01715 -0.0504695 0)
(1.02014 -0.0523936 0)
(1.02333 -0.0541177 0)
(1.02669 -0.0556218 0)
(1.03019 -0.0568776 0)
(1.03379 -0.0578714 0)
(1.03747 -0.05859 0)
(1.04118 -0.0590247 0)
(1.04491 -0.0591819 0)
(1.04859 -0.0590544 0)
(1.05223 -0.0586703 0)
(1.05577 -0.0580186 0)
(1.05921 -0.0571489 0)
(1.00001 -0.00027905 0)
(0.999869 -0.00093431 0)
(0.999704 -0.00170987 0)
(0.999537 -0.00253014 0)
(0.999279 -0.0035792 0)
(0.998997 -0.00479494 0)
(0.998722 -0.00615786 0)
(0.998455 -0.00767985 0)
(0.998187 -0.00931459 0)
(0.997923 -0.0110693 0)
(0.997696 -0.0128936 0)
(0.997527 -0.0147844 0)
(0.997415 -0.0167361 0)
(0.997368 -0.0187575 0)
(0.997404 -0.0208524 0)
(0.997543 -0.0230276 0)
(0.997809 -0.0252931 0)
(0.998221 -0.0276525 0)
(0.998801 -0.0301118 0)
(0.999569 -0.0326655 0)
(1.00055 -0.035306 0)
(1.00177 -0.0380151 0)
(1.00324 -0.040775 0)
(1.00498 -0.0435569 0)
(1.00701 -0.0463333 0)
(1.00932 -0.0490641 0)
(1.01192 -0.0517156 0)
(1.01481 -0.0542404 0)
(1.01797 -0.0566055 0)
(1.02138 -0.0587631 0)
(1.02502 -0.0606862 0)
(1.02885 -0.0623343 0)
(1.03284 -0.063689 0)
(1.03695 -0.0647257 0)
(1.04113 -0.0654331 0)
(1.04536 -0.06581 0)
(1.04957 -0.0658484 0)
(1.05374 -0.0655742 0)
(1.05782 -0.0649767 0)
(1.0618 -0.0641091 0)
(1.00001 -0.000222427 0)
(0.999823 -0.000888059 0)
(0.999654 -0.00161389 0)
(0.999459 -0.00239745 0)
(0.999147 -0.0034434 0)
(0.998825 -0.00461766 0)
(0.998485 -0.00596551 0)
(0.998138 -0.00748364 0)
(0.997774 -0.00911343 0)
(0.997399 -0.0108831 0)
(0.997057 -0.0127131 0)
(0.996757 -0.0146305 0)
(0.996498 -0.016614 0)
(0.996292 -0.0186856 0)
(0.996158 -0.0208441 0)
(0.996116 -0.0231055 0)
(0.996194 -0.0254811 0)
(0.99641 -0.0279795 0)
(0.996792 -0.0306109 0)
(0.997365 -0.033373 0)
(0.998163 -0.0362624 0)
(0.999209 -0.0392631 0)
(1.00053 -0.0423571 0)
(1.00216 -0.0455145 0)
(1.0041 -0.048705 0)
(1.00638 -0.0518846 0)
(1.009 -0.0550139 0)
(1.01196 -0.0580374 0)
(1.01526 -0.0609135 0)
(1.01888 -0.0635818 0)
(1.02279 -0.0660063 0)
(1.02697 -0.0681318 0)
(1.03136 -0.0699322 0)
(1.03594 -0.0713688 0)
(1.04064 -0.0724256 0)
(1.04543 -0.0730899 0)
(1.05023 -0.0733532 0)
(1.05501 -0.073235 0)
(1.05971 -0.0727272 0)
(1.06431 -0.0718834 0)
(1.00001 -0.000142691 0)
(0.999764 -0.000861425 0)
(0.999608 -0.00149192 0)
(0.999374 -0.00226605 0)
(0.999018 -0.0032849 0)
(0.998661 -0.00440772 0)
(0.998249 -0.00574189 0)
(0.997824 -0.00724524 0)
(0.997361 -0.00885959 0)
(0.996878 -0.0106374 0)
(0.99642 -0.0124527 0)
(0.995982 -0.0143922 0)
(0.995574 -0.0163853 0)
(0.995199 -0.0184972 0)
(0.994886 -0.0206986 0)
(0.994648 -0.0230324 0)
(0.994519 -0.0254991 0)
(0.994516 -0.0281211 0)
(0.994672 -0.0309091 0)
(0.995016 -0.0338667 0)
(0.995587 -0.036996 0)
(0.996417 -0.0402853 0)
(0.997544 -0.0437194 0)
(0.998994 -0.0472682 0)
(1.0008 -0.0508995 0)
(1.00299 -0.054566 0)
(1.00557 -0.0582235 0)
(1.00856 -0.0618088 0)
(1.01196 -0.0652707 0)
(1.01576 -0.0685357 0)
(1.01993 -0.0715557 0)
(1.02445 -0.0742583 0)
(1.02927 -0.0766059 0)
(1.03435 -0.078542 0)
(1.03961 -0.0800425 0)
(1.04502 -0.0810795 0)
(1.05049 -0.0816414 0)
(1.05598 -0.081738 0)
(1.06139 -0.0813641 0)
(1.06672 -0.080571 0)
(1.00002 -3.21467e-05 0)
(0.999691 -0.000871339 0)
(0.999567 -0.0013309 0)
(0.999277 -0.00215328 0)
(0.9989 -0.00308707 0)
(0.998501 -0.00417887 0)
(0.998014 -0.00548613 0)
(0.997517 -0.00697038 0)
(0.996953 -0.00855633 0)
(0.996365 -0.0103383 0)
(0.995792 -0.0121135 0)
(0.995213 -0.0140786 0)
(0.994653 -0.0160485 0)
(0.994103 -0.0182012 0)
(0.993604 -0.0204128 0)
(0.993157 -0.0228119 0)
(0.992806 -0.0253406 0)
(0.992561 -0.0280721 0)
(0.992465 -0.0309929 0)
(0.992545 -0.0341299 0)
(0.992848 -0.037483 0)
(0.993412 -0.04105 0)
(0.994284 -0.0448206 0)
(0.995501 -0.0487681 0)
(0.997106 -0.0528603 0)
(0.999133 -0.0570477 0)
(1.00161 -0.0612815 0)
(1.00457 -0.065492 0)
(1.00801 -0.0696181 0)
(1.01194 -0.0735736 0)
(1.01635 -0.0772949 0)
(1.0212 -0.0806906 0)
(1.02645 -0.0837061 0)
(1.03205 -0.0862637 0)
(1.03794 -0.0883247 0)
(1.04405 -0.0898422 0)
(1.05028 -0.0907964 0)
(1.05657 -0.0911839 0)
(1.06282 -0.0910006 0)
(1.06898 -0.0902923 0)
(1.00002 0.000116114 0)
(0.999606 -0.000938161 0)
(0.999539 -0.0011127 0)
(0.999169 -0.00208043 0)
(0.998803 -0.00282543 0)
(0.998338 -0.00395936 0)
(0.997789 -0.00518442 0)
(0.997218 -0.00667526 0)
(0.996556 -0.00819968 0)
(0.995871 -0.00999645 0)
(0.99518 -0.011694 0)
(0.994459 -0.0137037 0)
(0.99375 -0.015598 0)
(0.993017 -0.0178143 0)
(0.992332 -0.0199781 0)
(0.991659 -0.0224577 0)
(0.99108 -0.0249944 0)
(0.990569 -0.027837 0)
(0.9902 -0.0308464 0)
(0.989981 -0.0341526 0)
(0.989977 -0.0376983 0)
(0.990225 -0.0415299 0)
(0.990782 -0.0456202 0)
(0.991697 -0.0499639 0)
(0.993026 -0.0545259 0)
(0.994816 -0.0592607 0)
(0.997113 -0.0641142 0)
(0.999953 -0.0690125 0)
(1.00337 -0.0738833 0)
(1.00736 -0.0786295 0)
(1.01195 -0.0831691 0)
(1.0171 -0.0873907 0)
(1.02278 -0.0912165 0)
(1.02894 -0.0945433 0)
(1.0355 -0.0973098 0)
(1.04238 -0.0994444 0)
(1.04947 -0.100912 0)
(1.05669 -0.10169 0)
(1.06392 -0.101771 0)
(1.07107 -0.101193 0)
(1.00004 0.00030539 0)
(0.999508 -0.00107759 0)
(0.999537 -0.000817975 0)
(0.999045 -0.00206921 0)
(0.99874 -0.00247321 0)
(0.998164 -0.00378795 0)
(0.99759 -0.00480907 0)
(0.996924 -0.00639261 0)
(0.996184 -0.00777125 0)
(0.995397 -0.00963582 0)
(0.994596 -0.0111836 0)
(0.99373 -0.0132913 0)
(0.99288 -0.0150206 0)
(0.991953 -0.0173655 0)
(0.991092 -0.0193746 0)
(0.990173 -0.0220003 0)
(0.98937 -0.0244358 0)
(0.988561 -0.027439 0)
(0.987912 -0.0304416 0)
(0.987351 -0.0339417 0)
(0.987013 -0.037608 0)
(0.986886 -0.0417084 0)
(0.987074 -0.0460734 0)
(0.987611 -0.0508119 0)
(0.988582 -0.0558293 0)
(0.990043 -0.0611295 0)
(0.99206 -0.066635 0)
(0.994688 -0.0722805 0)
(0.997976 -0.077977 0)
(1.00196 -0.0836207 0)
(1.00665 -0.0891072 0)
(1.01205 -0.0943049 0)
(1.01814 -0.0991072 0)
(1.02485 -0.103381 0)
(1.03212 -0.107031 0)
(1.03986 -0.109956 0)
(1.04793 -0.112091 0)
(1.05623 -0.11339 0)
(1.0646 -0.113834 0)
(1.07293 -0.113448 0)
(1.00009 0.000531938 0)
(0.99938 -0.001291 0)
(0.999593 -0.000437067 0)
(0.998889 -0.00213407 0)
(0.998736 -0.00201328 0)
(0.997959 -0.00369869 0)
(0.997448 -0.00432849 0)
(0.99662 -0.00616516 0)
(0.995865 -0.00723946 0)
(0.994937 -0.00929746 0)
(0.994063 -0.0105581 0)
(0.993027 -0.0128808 0)
(0.992064 -0.0142909 0)
(0.990917 -0.0169018 0)
(0.989911 -0.0185657 0)
(0.988706 -0.0214974 0)
(0.987712 -0.0236153 0)
(0.98655 -0.0269377 0)
(0.985647 -0.0297204 0)
(0.984674 -0.0335425 0)
(0.984004 -0.0371495 0)
(0.983424 -0.0416019 0)
(0.983209 -0.0461112 0)
(0.983272 -0.0512901 0)
(0.983811 -0.0566876 0)
(0.984826 -0.0625863 0)
(0.986455 -0.0687361 0)
(0.988749 -0.0751896 0)
(0.991793 -0.081782 0)
(0.995641 -0.0884394 0)
(1.00034 -0.0950132 0)
(1.00591 -0.10136 0)
(1.01235 -0.107334 0)
(1.01961 -0.112767 0)
(1.02762 -0.117521 0)
(1.03629 -0.121453 0)
(1.04547 -0.124455 0)
(1.05502 -0.126448 0)
(1.06475 -0.127383 0)
(1.07449 -0.12727 0)
(1.00025 0.000782777 0)
(0.999174 -0.00156157 0)
(0.999762 2.03647e-05 0)
(0.998653 -0.00227021 0)
(0.99884 -0.00145087 0)
(0.997675 -0.00370341 0)
(0.997412 -0.0037259 0)
(0.996263 -0.00602347 0)
(0.995649 -0.00657537 0)
(0.99445 -0.00902472 0)
(0.993627 -0.00978704 0)
(0.99232 -0.0125209 0)
(0.991347 -0.0133743 0)
(0.989887 -0.0164835 0)
(0.988834 -0.0175006 0)
(0.98724 -0.0210322 0)
(0.986161 -0.0224555 0)
(0.98452 -0.0264401 0)
(0.983468 -0.0285782 0)
(0.981941 -0.0330703 0)
(0.981025 -0.0361995 0)
(0.979836 -0.041305 0)
(0.979262 -0.0456008 0)
(0.978691 -0.0514447 0)
(0.978778 -0.0569626 0)
(0.979177 -0.0636118 0)
(0.98033 -0.0702609 0)
(0.982111 -0.0776417 0)
(0.984777 -0.0851261 0)
(0.98833 -0.0929439 0)
(0.992904 -0.100737 0)
(0.998521 -0.108442 0)
(1.00522 -0.115818 0)
(1.01298 -0.122675 0)
(1.02175 -0.12881 0)
(1.03142 -0.134028 0)
(1.04186 -0.13816 0)
(1.05285 -0.141076 0)
(1.06419 -0.142678 0)
(1.07564 -0.142948 0)
(1.00062 0.00103874 0)
(0.998785 -0.00185648 0)
(1.00014 0.00052194 0)
(0.998235 -0.00245074 0)
(0.999137 -0.000817351 0)
(0.997222 -0.00378139 0)
(0.99757 -0.00301697 0)
(0.995759 -0.00596469 0)
(0.995626 -0.00577818 0)
(0.993844 -0.00883393 0)
(0.993379 -0.0088578 0)
(0.991519 -0.0122405 0)
(0.990822 -0.0122497 0)
(0.98878 -0.0161562 0)
(0.987957 -0.0161395 0)
(0.985697 -0.0206815 0)
(0.984816 -0.0208779 0)
(0.982396 -0.0260717 0)
(0.98149 -0.0268814 0)
(0.979077 -0.0327036 0)
(0.978207 -0.0345657 0)
(0.976055 -0.0410276 0)
(0.975377 -0.0443028 0)
(0.973813 -0.0514715 0)
(0.973618 -0.056388 0)
(0.973056 -0.0643326 0)
(0.973784 -0.0709339 0)
(0.974724 -0.0796512 0)
(0.976942 -0.0877196 0)
(0.979914 -0.0970173 0)
(0.98422 -0.106009 0)
(0.989676 -0.115383 0)
(0.996521 -0.124392 0)
(1.00469 -0.133021 0)
(1.0142 -0.1409 0)
(1.02493 -0.147771 0)
(1.03674 -0.153391 0)
(1.04942 -0.157546 0)
(1.06269 -0.160064 0)
(1.07623 -0.16088 0)
(1.00134 0.0012798 0)
(0.998065 -0.00213597 0)
(1.00086 0.00102312 0)
(0.997489 -0.00263451 0)
(0.999754 -0.000164104 0)
(0.996455 -0.00388603 0)
(0.998053 -0.00225181 0)
(0.99496 -0.00594967 0)
(0.995939 -0.00489084 0)
(0.992956 -0.00869791 0)
(0.993483 -0.00780316 0)
(0.990447 -0.0120213 0)
(0.99067 -0.0109439 0)
(0.987404 -0.0159091 0)
(0.987477 -0.0144999 0)
(0.983878 -0.0204548 0)
(0.983888 -0.0188701 0)
(0.97998 -0.025889 0)
(0.979938 -0.0245542 0)
(0.975887 -0.0325788 0)
(0.975798 -0.0320732 0)
(0.971888 -0.0410077 0)
(0.971825 -0.0419216 0)
(0.968445 -0.0516996 0)
(0.968619 -0.0545498 0)
(0.966281 -0.0651141 0)
(0.967086 -0.0702595 0)
(0.966425 -0.0815269 0)
(0.968472 -0.0890291 0)
(0.9702 -0.1008 0)
(0.974281 -0.110301 0)
(0.979088 -0.122101 0)
(0.985991 -0.132647 0)
(0.994331 -0.143651 0)
(1.00452 -0.153656 0)
(1.01634 -0.162705 0)
(1.02967 -0.170324 0)
(1.04431 -0.176153 0)
(1.05989 -0.179958 0)
(1.07602 -0.181565 0)
(1.0025 0.00149107 0)
(0.996894 -0.00236093 0)
(1.00203 0.00148034 0)
(0.996285 -0.00277452 0)
(1.00081 0.000452049 0)