/*--------------------------------*- C++ -*----------------------------------*\
| =========                 |                                                 |
| \\      /  F ield         | OpenFOAM: The Open Source CFD Toolbox           |
|  \\    /   O peration     | Version:  2512                                  |
|   \\  /    A nd           | Website:  www.openfoam.com                      |
|    \\/     M anipulation  |                                                 |
\*---------------------------------------------------------------------------*/
FoamFile
{
    version     2.0;
    format      ascii;
    arch        "LSB;label=32;scalar=64";
    class       surfaceScalarField;
    location    "182";
    object      phi;
}
// * * * * * * * * * * * * * * * * * * * * * * * * * * * * * * * * * * * * * //

dimensions      [0 3 -1 0 0 0 0];

oriented        oriented;

internalField   nonuniform List<scalar> 
26232
(
0.000302439
0.000999727
-0.00130217
0.00126105
0.00154156
-0.00250017
0.00296278
0.000499117
-0.00220084
0.0056092
-0.00220856
-0.00043786
0.00950026
-0.00664632
0.00275525
0.0149857
-0.0128895
0.00740404
0.02234
-0.0209281
0.0135738
0.0316064
-0.0305426
0.0212761
0.042488
-0.041243
0.0303615
0.0543511
-0.0523239
0.0404609
0.0663508
-0.0630079
0.0510081
0.0776235
-0.0726091
0.0613364
0.0874751
-0.0806579
0.0708063
0.0955135
-0.0869598
0.0789214
0.101693
-0.0915831
0.0854036
0.106267
-0.0947882
0.0902138
0.109685
-0.0969285
0.0935106
0.112458
-0.0983617
0.0955892
0.115054
-0.0993664
0.0967701
0.117835
-0.100172
0.0973908
0.121013
-0.100834
0.0976558
0.124758
-0.101529
0.097784
0.128773
-0.102063
0.0980473
-0.1025
0.0982635
0.133009
0.000216987
0.00078274
0.00117679
0.000581762
0.00315086
-0.00147495
0.0064722
-0.00552991
0.0115347
-0.0117088
0.0186588
-0.0200137
0.0278932
-0.0301626
0.0388681
-0.0415174
0.0508119
-0.0531868
0.062734
-0.0642461
0.0736813
-0.0739551
0.0829603
-0.0818881
0.0902637
-0.0879612
0.0956749
-0.0923711
0.0995731
-0.0954813
0.102481
-0.0976958
0.104918
-0.0993653
0.107294
-0.100738
0.10989
-0.101962
0.112841
-0.103124
0.116241
-0.104233
0.120112
-0.1054
0.124536
-0.106486
-0.107878
0.129915
0.000205819
0.000576922
0.00132584
-0.000538254
0.00380476
-0.00395388
0.00810543
-0.00983057
0.014621
-0.0182243
0.0234433
-0.028836
0.0341619
-0.0408811
0.0458823
-0.0532379
0.0574791
-0.0647835
0.0679293
-0.0746963
0.0765681
-0.0825939
0.0831926
-0.0885127
0.0880114
-0.0927799
0.0914887
-0.0958485
0.0941595
-0.098152
0.0964844
-0.100021
0.0987815
-0.101662
0.101232
-0.103189
0.103925
-0.104655
0.1069
-0.106098
0.110202
-0.107535
0.113833
-0.109031
0.117866
-0.110519
-0.112212
0.122199
0.000286302
0.00029062
0.0017621
-0.00201405
0.00500801
-0.00719979
0.0105326
-0.0153552
0.0185455
-0.0262372
0.028676
-0.0389665
0.0399521
-0.0521572
0.0511221
-0.0644079
0.0610873
-0.0747487
0.0691987
-0.0828077
0.0753316
-0.0887268
0.0797721
-0.0929532
0.0830112
-0.096019
0.0855468
-0.098384
0.0877641
-0.100369
0.0899072
-0.102164
0.0921117
-0.103867
0.094454
-0.105531
0.0969879
-0.107189
0.0997621
-0.108872
0.102822
-0.110595
0.106207
-0.112416
0.109949
-0.114261
-0.11636
0.114097
0.000447792
-0.000157172
0.00245459
-0.00402085
0.00666463
-0.0114098
0.0134781
-0.0221687
0.0226876
-0.0354466
0.0333298
-0.0496088
0.044037
-0.0628644
0.0535974
-0.0739683
0.0613255
-0.0824769
0.0671197
-0.088602
0.0712948
-0.0929019
0.0743376
-0.0959961
0.0767096
-0.098391
0.0787512
-0.100426
0.0806774
-0.102296
0.0826156
-0.104102
0.0846464
-0.105898
0.0868267
-0.107711
0.0892017
-0.109564
0.0917988
-0.11147
0.0946477
-0.113443
0.0977374
-0.115506
0.101089
-0.117612
-0.119936
0.104666
0.000668443
-0.000825615
0.00332905
-0.00668145
0.00858041
-0.0166612
0.0165039
-0.0300922
0.0262938
-0.0452365
0.0365069
-0.0598219
0.0457658
-0.0721233
0.0532679
-0.0814704
0.0588667
-0.0880756
0.0628656
-0.0926009
0.0657415
-0.0957778
0.0679405
-0.0981951
0.0697908
-0.100241
0.0715015
-0.102136
0.0731974
-0.103991
0.0749526
-0.105857
0.0768123
-0.107757
0.0788055
-0.109705
0.0809505
-0.111709
0.0832633
-0.113782
0.0857568
-0.115937
0.0884338
-0.118183
0.0913336
-0.120512
-0.123021
0.0944185
0.000930477
-0.00175609
0.00430425
-0.0100552
0.0105239
-0.0228808
0.0191379
-0.0387062
0.028751
-0.0548496
0.0377813
-0.0688522
0.0452061
-0.0795481
0.0507477
-0.087012
0.0546568
-0.0919847
0.057399
-0.095343
0.0594255
-0.0978043
0.0610733
-0.0998429
0.0625561
-0.101724
0.063996
-0.103576
0.0654587
-0.105454
0.0669801
-0.107379
0.0685833
-0.109361
0.070287
-0.111408
0.0721099
-0.113532
0.074069
-0.115742
0.0761773
-0.118045
0.0784413
-0.120447
0.0808738
-0.122945
-0.12559
0.0834423
0.00121907
-0.00297517
0.0052946
-0.0141308
0.012249
-0.0298352
0.0209852
-0.0474424
0.0297606
-0.063625
0.0372222
-0.0763138
0.0428457
-0.0851716
0.0467673
-0.0909337
0.0494293
-0.0946468
0.0513012
-0.0972148
0.0527442
-0.0992473
0.0539873
-0.101086
0.0551568
-0.102894
0.0563172
-0.104737
0.0575026
-0.106639
0.0587359
-0.108612
0.060036
-0.110661
0.0614205
-0.112793
0.0629036
-0.115015
0.0644952
-0.117333
0.0661995
-0.11975
0.0680152
-0.122263
0.0699496
-0.124879
-0.127609
0.071969
0.00151666
-0.00449183
0.00620229
-0.0188164
0.0135272
-0.0371601
0.0218238
-0.055739
0.0293503
-0.0711515
0.0351852
-0.0821487
0.0392456
-0.089232
0.0419106
-0.0935987
0.0436675
-0.0964036
0.044916
-0.0984634
0.045915
-0.100246
0.0468063
-0.101977
0.0476605
-0.103748
0.0485137
-0.10559
0.0493878
-0.107513
0.0502989
-0.109523
0.0512608
-0.111623
0.0522847
-0.113817
0.0533798
-0.11611
0.054553
-0.118506
0.0558078
-0.121004
0.0571488
-0.123604
0.0585768
-0.126307
-0.129106
0.0600738
0.0017993
-0.00629113
0.0069228
-0.0239399
0.0141989
-0.0444362
0.0216317
-0.0631719
0.0277521
-0.0772719
0.0320911
-0.0864876
0.0348745
-0.0920155
0.0365833
-0.0953075
0.0376651
-0.0974853
0.0384257
-0.099224
0.0390371
-0.100858
0.0395836
-0.102524
0.0401054
-0.10427
0.0406241
-0.106108
0.0411538
-0.108043
0.0417062
-0.110076
0.0422924
-0.112209
0.0429225
-0.114447
0.0436056
-0.116793
0.0443478
-0.119249
0.0451528
-0.121809
0.0460222
-0.124473
0.0469542
-0.127239
-0.130098
0.0479458
0.00204028
-0.00833141
0.00736845
-0.0292681
0.0142107
-0.0512784
0.0205361
-0.0694972
0.0252696
-0.0820053
0.0283168
-0.0895349
0.0300817
-0.0937803
0.0310516
-0.0962774
0.0315966
-0.0980303
0.0319354
-0.0995629
0.0321771
-0.101099
0.0323709
-0.102718
0.03254
-0.104439
0.0326983
-0.106267
0.0328568
-0.108202
0.0330254
-0.110244
0.0332134
-0.112397
0.0334291
-0.114662
0.0336792
-0.117043
0.0339682
-0.119538
0.0342991
-0.12214
0.0346737
-0.124848
0.0350904
-0.127656
-0.130559
0.035552
0.00221898
-0.0105504
0.00749666
-0.0345457
0.0136178
-0.0573996
0.0187443
-0.0746237
0.0222035
-0.0854645
0.0241679
-0.0914994
0.0251158
-0.0947282
0.0254874
-0.096649
0.0255697
-0.0981126
0.0255118
-0.099505
0.0253808
-0.100968
0.0252056
-0.102542
0.0250009
-0.104234
0.0247768
-0.106043
0.024542
-0.107967
0.0243042
-0.110006
0.0240705
-0.112163
0.0238476
-0.11444
0.0236415
-0.116837
0.0234568
-0.119353
0.023299
-0.121982
0.023172
-0.124721
0.0230756
-0.12756
0.0230183
-0.130502
-0.000732165
0.000135725
0.00059644
-0.00235118
-0.0023446
0.00396362
-0.00464253
-0.00545876
0.00775011
-0.00746804
-0.00831474
0.0111402
-0.0107009
-0.0108876
0.0141205
-0.0142312
-0.0135167
0.0170469
-0.0179748
-0.0165017
0.0202453
-0.0218606
-0.019973
0.0238588
-0.0258072
-0.0239373
0.0278838
-0.0297059
-0.0283431
0.0322417
-0.0334152
-0.0331039
0.0368133
-0.0367613
-0.0380972
0.0414433
-0.0395413
-0.0431583
0.0459382
-0.0415298
-0.0480799
0.0500684
-0.0424895
-0.0526149
0.0535746
-0.0421856
-0.0564846
0.0561807
-0.0404035
-0.0593919
0.0576098
-0.0369716
-0.0610381
0.0576062
-0.0317819
-0.0611449
0.0559551
-0.0248158
-0.0594781
0.052512
-0.0161108
-0.0558684
0.0471635
-0.00581949
-0.0502287
0.0399373
0.0057372
-0.04251
0.0309533
-0.0327941
0.018414
0.0201174
-0.000880375
0.0010161
-0.00282142
-0.000403561
-0.00549196
-0.00278822
-0.00869762
-0.00510908
-0.0123149
-0.0072703
-0.0162722
-0.00955943
-0.0205285
-0.0122454
-0.0250475
-0.015454
-0.0297755
-0.0192093
-0.0346315
-0.0234871
-0.0395029
-0.0282325
-0.0442455
-0.0333546
-0.0486829
-0.0387208
-0.0526092
-0.0441536
-0.0557929
-0.0494312
-0.057985
-0.0542925
-0.0589329
-0.058444
-0.0584013
-0.0615698
-0.0562004
-0.0633458
-0.052215
-0.0634634
-0.0464173
-0.0616662
-0.0388708
-0.0577751
-0.0297346
-0.0516463
-0.0431828
-0.0193459
-0.000902148
0.00191825
-0.00292155
0.00161584
-0.00567416
-3.56101e-05
-0.00892947
-0.00185377
-0.012566
-0.00363377
-0.0165363
-0.00558911
-0.0208265
-0.00795514
-0.0254228
-0.0108578
-0.0302937
-0.0143383
-0.0353852
-0.0183956
-0.0406197
-0.022998
-0.0458961
-0.0280782
-0.0510898
-0.0335271
-0.0560517
-0.0391916
-0.0606064
-0.0448765
-0.0645498
-0.0503491
-0.0676501
-0.0553438
-0.0696553
-0.0595646
-0.0703098
-0.0626913
-0.0693857
-0.0643875
-0.0667232
-0.0643287
-0.0622598
-0.0622386
-0.0560136
-0.0578925
-0.0511626
-0.0480339
-0.000789154
0.0027074
-0.00264745
0.00347415
-0.00520037
0.0025173
-0.00818856
0.00113442
-0.0114992
-0.000323089
-0.0150808
-0.00200753
-0.0189269
-0.00410902
-0.0230258
-0.00675885
-0.0273491
-0.0100151
-0.0318514
-0.0138934
-0.0364733
-0.018376
-0.0411461
-0.0234055
-0.0457955
-0.0288777
-0.0503465
-0.0346406
-0.054722
-0.040501
-0.058837
-0.046234
-0.0625847
-0.0515961
-0.0658124
-0.056337
-0.0683038
-0.0601998
-0.0697859
-0.0629054
-0.0699721
-0.0641425
-0.0686074
-0.0636032
-0.0654261
-0.0610738
-0.0566318
-0.0599569
-0.00056501
0.00327241
-0.0020483
0.00495744
-0.00415287
0.00462186
-0.00663431
0.00361586
-0.00933159
0.00237419
-0.0121812
0.000842039
-0.0151937
-0.00109652
-0.0183335
-0.00361897
-0.0215605
-0.0067881
-0.0248182
-0.0106357
-0.0280381
-0.0151561
-0.0311469
-0.0202966
-0.0340768
-0.0259478
-0.036778
-0.0319395
-0.0392299
-0.0380492
-0.0414505
-0.0440134
-0.0434905
-0.0495561
-0.0454053
-0.0544221
-0.0472015
-0.0584037
-0.0487805
-0.0613263
-0.0499211
-0.0630019
-0.0502579
-0.0632665
-0.0494994
-0.0618323
-0.0596115
-0.0465197
-0.000275884
0.00354829
-0.00124084
0.0059224
-0.00271604
0.00609706
-0.00447119
0.005371
-0.00634261
0.00424561
-0.00826004
0.00275947
-0.0101428
0.000786261
-0.0119917
-0.00177012
-0.0137401
-0.00503968
-0.0153161
-0.00905963
-0.0166354
-0.0138368
-0.0176083
-0.0193238
-0.0181513
-0.0254048
-0.0182049
-0.0318858
-0.017735
-0.0385191
-0.0167678
-0.0449806
-0.015395
-0.0509289
-0.013774
-0.0560431
-0.0121042
-0.0600736
-0.0105638
-0.0628666
-0.0092828
-0.064283
-0.00796095
-0.0645883
-0.00655896
-0.0632343
-0.0607127
-0.00545775
2.35006e-05
0.00352479
-0.000357962
0.00630386
-0.00110798
0.00684708
-0.00203325
0.00629627
-0.0029596
0.00517197
-0.00377514
0.00357501
-0.00441322
0.00142434
-0.00479662
-0.00138672
-0.00486363
-0.00497267
-0.00453067
-0.00939259
-0.00369957
-0.0146679
-0.00227432
-0.0207491
-0.000170294
-0.0275088
0.00267005
-0.0347261
0.00623038
-0.0420794
0.0104522
-0.0492024
0.0152301
-0.0557068
0.0204297
-0.0612427
0.0259042
-0.0655481
0.0314904
-0.0684528
0.0370624
-0.0698549
0.0424697
-0.0699957
0.0476748
-0.0684394
-0.0664811
0.0534432
0.000284196
0.0032406
0.000460481
0.00612758
0.000436374
0.00687119
0.000350805
0.00638184
0.000381677
0.00514109
0.000664972
0.00329171
0.00130152
0.00078779
0.00239401
-0.00247921
0.00403163
-0.00661029
0.00632088
-0.0116818
0.00936049
-0.0177075
0.0132394
-0.024628
0.0180005
-0.0322699
0.0236255
-0.0403511
0.0300295
-0.0484834
0.0370575
-0.0562305
0.0445175
-0.0631667
0.0522124
-0.0689376
0.0600011
-0.0733368
0.0677904
-0.076242
0.0756129
-0.0776775
0.0835823
-0.0779651
0.0918342
-0.0766912
-0.0756976
0.101051
0.000461934
0.00277866
0.00109205
0.00549746
0.00170885
0.00625439
0.00239316
0.00569753
0.00330744
0.00422682
0.00461073
0.00198842
0.00644456
-0.00104604
0.00894145
-0.0049761
0.0122281
-0.00989697
0.0164283
-0.015882
0.0216448
-0.022924
0.0279166
-0.0308998
0.0351929
-0.0395463
0.0433113
-0.0484694
0.052017
-0.0571891
0.0610035
-0.0652169
0.0699683
-0.0721316
0.0786738
-0.0776431
0.0869837
-0.0816467
0.0948565
-0.0841149
0.102473
-0.0852941
0.10984
-0.0853317
0.117542
-0.0843934
-0.0833448
0.125189
0.000538123
0.00224054
0.00146326
0.00457232
0.00256185
0.00515581
0.00387334
0.00438603
0.00554667
0.00255349
0.00775328
-0.000218182
0.0107054
-0.00399818
0.014566
-0.00883669
0.0195114
-0.0148424
0.025672
-0.0220426
0.0330871
-0.0303391
0.0416577
-0.0394704
0.051128
-0.0490166
0.0611106
-0.058452
0.071151
-0.0672296
0.0808137
-0.0748797
0.0897573
-0.0810751
0.097801
-0.0856868
0.104907
-0.0887531
0.111221
-0.090428
0.116996
-0.09107
0.122405
-0.0907399
0.128107
-0.0900953
-0.0889896
0.133751
0.000515812
0.00172473
0.00156067
0.00352746
0.00295841
0.00375807
0.00474281
0.00260163
0.00705727
0.00023903
0.0101597
-0.00332065
0.0142581
-0.00809659
0.0196034
-0.0141819
0.02637
-0.021609
0.0345989
-0.0302715
0.0441347
-0.039875
0.0546091
-0.0499447
0.0654864
-0.0598939
0.0761614
-0.069127
0.0860773
-0.0771455
0.0948273
-0.0836296
0.10222
-0.0884674
0.108285
-0.0917522
0.113229
-0.0936974
0.117422
-0.0946211
0.121194
-0.0948418
0.124975
-0.0945208
0.129062
-0.0941818
-0.0931977
0.13327
0.000422563
0.00144985
0.00300708
0.00517085
0.00816513
0.0122485
0.0177258
0.02482
0.0335725
0.0437619
0.054895
0.0662867
0.0771991
0.0869935
0.0952516
0.101836
0.106879
0.110716
0.113789
0.116558
0.119372
0.122635
0.126501
0.131567
0.0360405
-0.0263738
0.00874726
0.0508666
0.00274393
-0.01757
0.0652804
0.0336482
-0.0480621
0.0785319
0.0691942
-0.0824457
0.0911452
0.104443
-0.117057
0.10249
0.133978
-0.145323
0.111112
0.153673
-0.162296
0.11625
0.163966
-0.169104
0.119096
0.167074
-0.16992
0.120772
0.164938
-0.166614
0.120266
0.163384
-0.162878
0.116864
0.169336
-0.165934
0.113074
0.179411
-0.175621
0.113295
0.176939
-0.177159
0.119015
0.145668
-0.151389
0.128193
0.0833371
-0.0925149
0.138592
0.000197277
-0.0105961
0.1486
-0.0844794
0.0744716
0.156797
-0.150122
0.141925
0.161883
-0.186174
0.181087
0.163256
-0.199678
0.198305
0.162634
-0.202548
0.20317
0.16152
-0.199224
0.200338
0.158492
-0.197455
0.200483
0.151893
-0.209555
0.216154
0.142596
-0.230854
0.240151
0.132983
-0.233073
0.242686
0.125213
-0.188957
0.196727
0.121826
-0.0974302
0.100817
0.124295
0.0159672
-0.0184363
0.131636
0.116033
-0.123375
0.140856
0.182554
-0.191773
0.148269
0.220114
-0.227527
0.150419
0.245312
-0.247463
0.14571
0.27013
-0.26542
0.135885
0.288492
-0.278667
0.125078
0.273715
-0.262908
0.117595
0.201588
-0.194105
0.116553
0.0763991
-0.0753576
0.1223
-0.062757
0.0570107
0.130652
-0.166704
0.158351
0.133323
-0.226561
0.223891
0.128322
-0.265182
0.270183
0.120783
-0.286282
0.29382
0.116448
-0.262446
0.266781
0.117147
-0.171727
0.171029
0.121073
-0.0456836
0.041757
0.123072
0.101479
-0.103478
0.122157
0.226979
-0.226064
0.119874
0.308434
-0.306152
0.118554
0.312401
-0.311081
0.117824
0.193071
-0.192341
0.116471
0.0334268
-0.0320743
0.112223
-0.179609
0.183857
0.110062
-0.327622
0.329784
0.107964
-0.300625
0.302723
0.104792
-0.204588
0.20776
0.0989265
0.110383
-0.104518
0.0964487
0.293813
-0.291335
0.108395
-0.104496
-0.0017196
-0.044
0.0171529
-0.0161285
0.0359745
0.0148266
0.0539699
0.0511987
0.0718483
0.086565
0.0883449
0.117481
0.101914
0.140105
0.112099
0.153781
0.119769
0.159404
0.125073
0.159634
0.127147
0.16131
0.12661
0.169872
0.126785
0.179236
0.130857
0.172867
0.138161
0.138364
0.146283
0.0752146
0.153972
-0.00749129
0.160296
-0.090804
0.164309
-0.154135
0.165585
-0.18745
0.163861
-0.197954
0.160508
-0.199194
0.157199
-0.195915
0.152399
-0.192655
0.143819
-0.200974
0.132592
-0.219627
0.122171
-0.222652
0.1152
-0.181987
0.11347
-0.0957007
0.11862
0.0108172
0.128899
0.105754
0.140852
0.170602
0.150698
0.210267
0.154974
0.241036
0.152219
0.272884
0.143962
0.296749
0.13383
0.283847
0.125665
0.209753
0.122081
0.0799826
0.124595
-0.065271
0.131059
-0.173167
0.133177
-0.22868
0.127594
-0.259599
0.11958
-0.278268
0.115658
-0.258524
0.117041
-0.173111
0.121242
-0.0498841
0.123841
0.0988801
0.123578
0.227242
0.12198
0.310032
0.120549
0.313833
0.119391
0.194229
0.117464
0.0353532
0.111904
-0.174049
0.10922
-0.324938
0.106911
-0.298316
0.104713
-0.202391
0.100936
0.11416
0.0976082
0.297141
0.113503
-0.0312372
-0.0607967
-0.0121464
-0.0352193
0.00846829
-0.00578809
0.0305992
0.0290678
0.0525309
0.0646334
0.073543
0.0964691
0.0921277
0.12152
0.107738
0.138171
0.120254
0.146888
0.129
0.150888
0.133651
0.156659
0.136118
0.167405
0.140154
0.1752
0.147616
0.165405
0.156085
0.129896
0.16277
0.0685297
0.167705
-0.0124264
0.170749
-0.0938477
0.170951
-0.154338
0.168593
-0.185092
0.164114
-0.193475
0.158381
-0.193461
0.153094
-0.190628
0.147086
-0.186648
0.137292
-0.191181
0.124399
-0.206734
0.112915
-0.211168
0.106505
-0.175577
0.106573
-0.0957684
0.113926
0.00346471
0.126575
0.0931048
0.141076
0.156101
0.153405
0.197938
0.160092
0.234349
0.159746
0.273231
0.153453
0.303043
0.144226
0.293073
0.135427
0.218552
0.129195
0.0862148
0.128047
-0.0641224
0.13207
-0.177191
0.133639
-0.230249
0.127637
-0.253596
0.118906
-0.269537
0.114991
-0.254609
0.117007
-0.175127
0.121695
-0.0545723
0.125107
0.0954681
0.125548
0.226802
0.124526
0.311054
0.122931
0.315428
0.121386
0.195774
0.119009
0.03773
0.112297
-0.167337
0.108964
-0.321605
0.106456
-0.295808
0.10524
-0.201174
0.103444
0.115956
0.0994419
0.301144
0.119732
-0.0483056
-0.072448
-0.0309809
-0.0525441
-0.0113646
-0.0254043
0.0124226
0.00528058
0.0368642
0.0401917
0.0614735
0.0718598
0.0842774
0.098716
0.104194
0.118254
0.120143
0.13094
0.131218
0.139813
0.137962
0.149915
0.143334
0.162033
0.151043
0.16749
0.161373
0.155075
0.170749
0.12052
0.17686
0.0624195
0.179963
-0.0155298
0.180147
-0.094032
0.176802
-0.150992
0.171035
-0.179325
0.164073
-0.186514
0.156395
-0.185783
0.149337
-0.18357
0.14233
-0.179641
0.132068
-0.180918
0.118224
-0.19289
0.105662
-0.198607
0.0992937
-0.169209
0.100569
-0.0970435
0.10967
-0.00563692
0.124292
0.0784829
0.141034
0.139359
0.155917
0.183055
0.165502
0.224763
0.168007
0.270727
0.163861
0.307189
0.155614
0.30132
0.146307
0.227859
0.137656
0.0948658
0.132704
-0.0591701
0.133722
-0.178209
0.13457
-0.231097
0.128349
-0.247375
0.118788
-0.259976
0.114508
-0.250329
0.117039
-0.177658
0.122387
-0.0599199
0.126781
0.0910743
0.127986
0.225596
0.127443
0.311597
0.125628
0.317244
0.12372
0.197682
0.121094
0.0403555
0.113384
-0.159626
0.109311
-0.317532
0.106587
-0.293085
0.106315
-0.200902
0.106457
0.115814
0.101935
0.305666
0.126987
-0.0458264
-0.0731413
-0.0371949
-0.0611756
-0.0220098
-0.0405894
-0.00170833
-0.0150209
0.023673
0.0148105
0.0499473
0.0455855
0.0755161
0.0731471
0.0981881
0.095582
0.116351
0.112777
0.129311
0.126853
0.13833
0.140897
0.146897
0.153466
0.158128
0.156259
0.170818
0.142385
0.18108
0.110258
0.187304
0.056195
0.189628
-0.0178536
0.187638
-0.0920417
0.181305
-0.144659
0.172579
-0.1706
0.163505
-0.177439
0.154378
-0.176657
0.145989
-0.17518
0.138304
-0.171956
0.128114
-0.170728
0.113998
-0.178775
0.100518
-0.185126
0.0937776
-0.162469
0.0957953
-0.0990612
0.105811
-0.0156528
0.121789
0.062505
0.140276
0.120872
0.157645
0.165686
0.170384
0.212024
0.17626
0.26485
0.174961
0.308488
0.167976
0.308305
0.15805
0.237786
0.147142
0.105774
0.138431
-0.0504594
0.135977
-0.175755
0.13583
-0.23095
0.129595
-0.241139
0.119189
-0.24957
0.114186
-0.245327
0.11708
-0.180551
0.123228
-0.066068
0.128779
0.0855231
0.130844
0.223531
0.130698
0.311742
0.128575
0.319367
0.126333
0.199923
0.12366
0.0430286
0.115129
-0.151095
0.11026
-0.312662
0.10728
-0.290104
0.107856
-0.201478
0.109939
0.113731
0.105063
0.310542
0.135156
-0.0166133
-0.0619857
-0.0214478
-0.0563411
-0.0170235
-0.0450136
-0.004929
-0.0271155
0.0146038
-0.0047223
0.0383312
0.021858
0.0633124
0.0481659
0.086647
0.0722474
0.106369
0.0930548
0.121692
0.111529
0.133968
0.128621
0.146487
0.140947
0.161304
0.141442
0.176185
0.127503
0.187652
0.0987912
0.194652
0.0491954
0.196725
-0.0199274
0.193079
-0.0883952
0.184367
-0.135947
0.173233
-0.159466
0.162401
-0.166607
0.152252
-0.166507
0.142854
-0.165782
0.134661
-0.163763
0.125069
-0.161136
0.111518
-0.165224
0.0974842
-0.171092
0.0899777
-0.154962
0.0920555
-0.101139
0.10235
-0.0259473
0.118844
0.0460105
0.138445
0.101272
0.158053
0.146078
0.174156
0.195921
0.183762
0.255244
0.185462
0.306788
0.180019
0.313748
0.169714
0.248091
0.157058
0.118429
0.144962
-0.0383632
0.138757
-0.16955
0.137247
-0.22944
0.131195
-0.235087
0.12005
-0.238425
0.113988
-0.239265
0.117056
-0.183619
0.124113
-0.0731247
0.13097
0.0786657
0.133989
0.220513
0.134209
0.311522
0.131707
0.321869
0.129142
0.202488
0.126672
0.0454992
0.117487
-0.14191
0.111785
-0.30696
0.108501
-0.286821
0.109766
-0.202744
0.113816
0.109681
0.108782
0.315576
0.1441
0.0380825
-0.046625
0.023358
-0.0416166
0.0140472
-0.0357027
0.0130688
-0.0261371
0.0205105
-0.012164
0.0354019
0.0069666
0.0548657
0.0287022
0.0759137
0.0511994
0.0958828
0.0730857
0.113338
0.0940738
0.12903
0.112929
0.145394
0.124583
0.163141
0.123695
0.17952
0.111125
0.191994
0.086317
0.199901
0.0412886
0.201838
-0.0218648
0.196633
-0.0831907
0.185879
-0.125192
0.172896
-0.146483
0.160687
-0.154398
0.149902
-0.155723
0.139978
-0.155859
0.131338
-0.155123
0.122469
-0.152268
0.11022
-0.152975
0.0963148
-0.157186
0.0878648
-0.146512
0.0893043
-0.102579
0.0992197
-0.0358627
0.115423
0.0298077
0.135349
0.0813461
0.156682
0.124745
0.176106
0.176496
0.189842
0.241508
0.195303
0.301327
0.192117
0.316934
0.181846
0.258363
0.167296
0.132978
0.152083
-0.0231502
0.141994
-0.159461
0.138682
-0.226128
0.132956
-0.229362
0.121304
-0.226773
0.113892
-0.231853
0.116864
-0.186591
0.124909
-0.0811696
0.133251
0.0703241
0.137373
0.216391
0.137936
0.310959
0.134975
0.32483
0.132096
0.205367
0.130033
0.0475625
0.120393
-0.13227
0.113841
-0.300408
0.11021
-0.28319
0.11196
-0.204494
0.118
0.103641
0.113042
0.320534
0.153663
0.090625
-0.0361993
0.0788957
-0.0298873
0.0665683
-0.0233753
0.0564676
-0.0160365
0.0512202
-0.00691658
0.0527234
0.00546341
0.0615227
0.0199028
0.0758285
0.0368936
0.0930294
0.0558848
0.110857
0.0762458
0.128693
0.0950941
0.147333
0.105943
0.166094
0.104934
0.182505
0.0947138
0.195339
0.0734831
0.203725
0.032903
0.205097
-0.0232375
0.198218
-0.0763114
0.185716
-0.11269
0.171488
-0.132255
0.158372
-0.141282
0.147174
-0.144525
0.1371
-0.145785
0.128204
-0.146226
0.119947
-0.144011
0.109449
-0.142477
0.0965664
-0.144304
0.0873616
-0.137307
0.0875242
-0.102741
0.0963998
-0.0447383
0.111515
0.0146929
0.130913
0.0619478
0.153366
0.102292
0.175868
0.153995
0.193631
0.223745
0.20269
0.292268
0.201733
0.317891
0.192411
0.267685
0.177294
0.148095
0.159521
-0.00537764
0.145558
-0.145498
0.14
-0.220569
0.134673
-0.224035
0.122871
-0.214971
0.113899
-0.222881
0.116416
-0.189108
0.125469
-0.0902224
0.13545
0.0603423
0.140824
0.211017
0.141797
0.309986
0.138361
0.328266
0.135147
0.20858
0.133683
0.0490262
0.12378
-0.122367
0.116372
-0.293
0.112369
-0.279187
0.114366
-0.206491
0.122388
0.0956191
0.117767
0.325155
0.163664
0.11875
-0.02976
0.113116
-0.0242533
0.107176
-0.0174357
0.100657
-0.00951681
0.0948471
-0.00110715
0.0903087
0.0100018
0.088999
0.0212125
0.0933143
0.0325784
0.103306
0.045893
0.117616
0.061936
0.13462
0.07809
0.153024
0.0875383
0.170786
0.0871727
0.186154
0.0793461
0.198697
0.0609398
0.206575
0.0250246
0.206521
-0.0231834
0.197792
-0.0675821
0.183887
-0.0987854
0.168946
-0.117314
0.155403
-0.127739
0.144006
-0.133128
0.134048
-0.135827
0.125142
-0.137321
0.117286
-0.136154
0.108492
-0.133682
0.0973872
-0.133199
0.0880813
-0.128001
0.0866973
-0.101357
0.0940015
-0.0520425
0.107465
0.00122927
0.125476
0.043937
0.147879
0.0798889
0.172802
0.129071
0.19513
0.201417
0.208826
0.278572
0.210621
0.316096
0.201999
0.276307
0.186648
0.163446
0.166795
0.014475
0.149273
-0.127976
0.141092
-0.212388
0.136137
-0.219081
0.124645
-0.203478
0.114041
-0.212277
0.115632
-0.190699
0.125616
-0.100206
0.137458
0.0485001
0.144314
0.204162
0.145744
0.308556
0.1418
0.332211
0.138255
0.212125
0.137533
0.049748
0.127571
-0.112405
0.119299
-0.284728
0.114926
-0.274813
0.116932
-0.208497
0.126886
0.085665
0.122883
0.329159
0.173906
0.129226
-0.0252344
0.126439
-0.0214667
0.124921
-0.0159175
0.124114
-0.00870987
0.12328
-0.000273522
0.122361
0.0109211
0.121877
0.0216967
0.122806
0.0316497
0.127055
0.0416439
0.135444
0.0535461
0.148004
0.0655302
0.162983
0.0725593
0.177746
0.0724096
0.191042
0.0660506
0.202288
0.0496935
0.20851
0.0188029
0.20597
-0.0206436
0.195244
-0.056856
0.180367
-0.0839088
0.165213
-0.10216
0.151672
-0.114197
0.140244
-0.1217
0.130503
-0.126086
0.121859
-0.128676
0.114313
-0.128608
0.106853
-0.126222
0.0978354
-0.124182
0.0893463
-0.119512
0.0867586
-0.0987694
0.0921909
-0.0574748
0.103376
-0.00995542
0.119306
0.0280065
0.140704
0.0584907
0.166996
0.10278
0.192691
0.175722
0.210558
0.260705
0.215788
0.310866
0.208795
0.2833
0.193762
0.178479
0.173351
0.0348862
0.152927
-0.107552
0.141827
-0.201288
0.137094
-0.214347
0.126448
-0.192832
0.114334
-0.200163
0.114492
-0.190857
0.125168
-0.110882
0.13899
0.0346782
0.147594
0.195557
0.149732
0.306418
0.14538
0.336563
0.141432
0.216072
0.141553
0.0496278
0.131699
-0.102551
0.122537
-0.275566
0.117829
-0.270106
0.119621
-0.210289
0.131379
0.0739063
0.12828
0.332258
0.184169
0.129694
-0.0216589
0.127666
-0.0194386
0.127175
-0.0154265
0.128662
-0.0101962
0.131946
-0.00355791
0.136792
0.00607482
0.141427
0.0170619
0.145473
0.0276033
0.150191
0.0369265
0.157226
0.0465107
0.166701
0.0560549
0.177565
0.0616955
0.188139
0.0618355
0.197816
0.0563746
0.205462
0.0420468
0.207313
0.016952
0.201789
-0.0151196
0.189676
-0.0447426
0.17477
-0.0690029
0.160078
-0.0874679
0.147012
-0.101131
0.135831
-0.110519
0.126341
-0.116596
0.118117
-0.120453
0.110942
-0.121433
0.104388
-0.119668
0.0972493
-0.117043
0.0902579
-0.112521
0.0873092
-0.0958208
0.0910763
-0.0612419
0.100057
-0.0189356
0.113261
0.0148023
0.132203
0.0395486
0.158658
0.0763243
0.188404
0.145976
0.211601
0.237509
0.220059
0.302408
0.213994
0.289365
0.199431
0.193042
0.178335
0.055982
0.156086
-0.0853033
0.142124
-0.187326
0.137345
-0.209568
0.128101
-0.183589
0.114879
-0.186941
0.113039
-0.189017
0.123998
-0.121841
0.140059
0.018617
0.150694
0.184922
0.153633
0.303479
0.148914
0.341282
0.144586
0.2204
0.145631
0.0485828
0.136081
-0.0930011
0.126054
-0.26554
0.121045
-0.265096
0.122411
-0.211655
0.135794
0.0605238
0.133877
0.334175
0.194231
0.128767
-0.0188594
0.126213
-0.0168844
0.124958
-0.0141713
0.125302
-0.0105398
0.127265
-0.00552168
0.131807
0.00153328
0.138375
0.0104936
0.146151
0.0198275
0.154124
0.0289533
0.162757
0.0378784
0.172743
0.0460681
0.18284
0.0515984
0.191847
0.0528288
0.199372
0.0488496
0.204169
0.0372502
0.203846
0.0172748
0.196308
-0.00758177
0.183931
-0.0323654
0.169533
-0.0546054
0.155389
-0.0733233
0.142732
-0.0884746
0.131811
-0.0995972
0.122469
-0.107255
0.114596
-0.11258
0.107839
-0.114676
0.101828
-0.113657
0.0959782
-0.111193
0.0906197
-0.107163
0.0881524
-0.0933534
0.0907475
-0.0638371
0.0975287
-0.0257168
0.107956
0.00437517
0.123571
0.0239338
0.147308
0.0525866
0.177631
0.115653
0.205398
0.209742
0.219839
0.287967
0.217492
0.291711
0.203863
0.206671
0.183342
0.0765035
0.159628
-0.0615895
0.142783
-0.17048
0.13733
-0.204115
0.129688
-0.175947
0.115938
-0.173191
0.111795
-0.184874
0.122117
-0.132162
0.140022
0.000711834
0.153176
0.171768
0.157572
0.299082
0.152749
0.346105
0.147904
0.225245
0.149839
0.0466476
0.140706
-0.0838677
0.129887
-0.254721
0.124575
-0.259783
0.125315
-0.212396
0.140016
0.045823
0.139542
0.334649
0.20386
0.168417
-0.0140196
-0.173257
0.164294
-0.0127612
0.160644
-0.0105216
0.157464
-0.0073604
0.154943
-0.00299989
0.15374
0.00273563
0.154383
0.00985106
0.156565
0.0176451
0.159945
0.0255736
0.164678
0.0331454
0.171109
0.0396372
0.179182
0.0435249
0.188517
0.0434942
0.19878
0.0385868
0.208509
0.027521
0.214951
0.0108326
0.216583
-0.00921396
0.214001
-0.0297836
0.208462
-0.0490658
0.201039
-0.0659003
0.19261
-0.0800462
0.183666
-0.090653
0.174455
-0.0980431
0.16546
-0.103585
0.156531
-0.105747
0.147537
-0.104663
0.138581
-0.102237
0.129157
-0.0977387
0.119153
-0.0833492
0.111044
-0.0557284
0.107796
-0.0224685
0.11076
0.00141121
0.11939
0.0153038
0.13272
0.0392566
0.149037
0.0993354
0.164397
0.194383
0.175296
0.277068
0.18219
0.284818
0.187467
0.201394
0.187147
0.0768234
0.179968
-0.0544108
0.16932
-0.159832
0.161715
-0.196511
0.151437
-0.165669
0.135392
-0.157145
0.125266
-0.174749
0.125228
-0.132124
0.13245
-0.00650992
0.136963
0.167255
0.137949
0.298097
0.136881
0.347173
0.139743
0.222383
0.147871
0.0385199
0.143317
-0.0793136
0.132623
-0.244027
0.124473
-0.251633
0.120249
-0.208172
0.130436
0.0356359
0.130756
0.334329
0.211782
0.179064
-0.0103258
-0.182758
0.175673
-0.00937016
0.172588
-0.007437
0.169952
-0.00472381
0.168129
-0.00117721
0.167316
0.00354879
0.167972
0.00919512
0.170179
0.0154379
0.173971
0.0217821
0.179374
0.0277424
0.186345
0.0326662
0.194498
0.0353719
0.20327
0.0347214
0.211862
0.0299947
0.218937
0.0204464
0.22306
0.00671006
0.223481
-0.00963548
0.22066
-0.0269623
0.215345
-0.0437511
0.208149
-0.0587046
0.1998
-0.0716972
0.191023
-0.0818751
0.181996
-0.0890169
0.173121
-0.0947097
0.164501
-0.0971272
0.155658
-0.09582
0.146711
-0.09329
0.13825
-0.0892783
0.130002
-0.0751006
0.12291
-0.0486362
0.119198
-0.0187569
0.121125
-0.000515333
0.128522
0.00790655
0.141017
0.026761
0.158092
0.0822611
0.175627
0.176848
0.188816
0.263878
0.197019
0.276615
0.202547
0.195865
0.202756
0.0766145
0.194975
-0.0466299
0.1825
-0.147357
0.173288
-0.187298
0.162876
-0.155257
0.146417
-0.140687
0.134909
-0.163241
0.134317
-0.131532
0.142984
-0.0151775
0.149276
0.160963
0.151059
0.296313
0.150155
0.348078
0.153109
0.219429
0.16244
0.0291894
0.157565
-0.0744387
0.145125
-0.231588
0.135986
-0.242494
0.13079
-0.202977
0.141895
0.0245308
0.143432
0.332793
0.219632
0.190852
-0.00713241
-0.194045
0.18782
-0.00633789
0.185197
-0.00481411
0.183058
-0.00258532
0.181532
0.000349125
0.181007
0.00407419
0.181708
0.00849358
0.183819
0.0133266
0.187386
0.0182155
0.192416
0.022712
0.198803
0.0262801
0.206124
0.0280502
0.213766
0.0270791
0.220904
0.0228577
0.226494
0.0148557
0.229641
0.00356303
0.229917
-0.00991076
0.227506
-0.0245517
0.222896