/*--------------------------------*- C++ -*----------------------------------*\
| =========                 |                                                 |
| \\      /  F ield         | OpenFOAM: The Open Source CFD Toolbox           |
|  \\    /   O peration     | Version:  2512                                  |
|   \\  /    A nd           | Website:  www.openfoam.com                      |
|    \\/     M anipulation  |                                                 |
\*---------------------------------------------------------------------------*/
FoamFile
{
    version     2.0;
    format      ascii;
    arch        "LSB;label=32;scalar=64";
    class       volScalarField;
    location    "133.85";
    object      p;
}
// * * * * * * * * * * * * * * * * * * * * * * * * * * * * * * * * * * * * * //

dimensions      [0 2 -2 0 0 0 0];

internalField   nonuniform List<scalar> 
13248
(
-0.579702
-0.578451
-0.575118
-0.570702
-0.56591
-0.56155
-0.558207
-0.555896
-0.553975
-0.551296
-0.546524
-0.538508
-0.526569
-0.510618
-0.491069
-0.468607
-0.44396
-0.417763
-0.390524
-0.362669
-0.334296
-0.305934
-0.275958
-0.245337
-0.588975
-0.587201
-0.583909
-0.579703
-0.575081
-0.570427
-0.565783
-0.560744
-0.55456
-0.546383
-0.535538
-0.521699
-0.504932
-0.485611
-0.464241
-0.441324
-0.417282
-0.392458
-0.367119
-0.34148
-0.31572
-0.289966
-0.264095
-0.239117
-0.601034
-0.598316
-0.594663
-0.590316
-0.585413
-0.579807
-0.573011
-0.564385
-0.553411
-0.539858
-0.523807
-0.505578
-0.485602
-0.464313
-0.442071
-0.419156
-0.395785
-0.37214
-0.348366
-0.324649
-0.301033
-0.277794
-0.254648
-0.231712
-0.61551
-0.611583
-0.607233
-0.602333
-0.596518
-0.58907
-0.579135
-0.566208
-0.550342
-0.532018
-0.511885
-0.490551
-0.468487
-0.446009
-0.423317
-0.400541
-0.377781
-0.355123
-0.332668
-0.310495
-0.28871
-0.267466
-0.246559
-0.226535
-0.632381
-0.627071
-0.621787
-0.615877
-0.608337
-0.597958
-0.583913
-0.566259
-0.545782
-0.523503
-0.50031
-0.476814
-0.453366
-0.430137
-0.407201
-0.384592
-0.36234
-0.340484
-0.319063
-0.298141
-0.277774
-0.258019
-0.23878
-0.220208
-0.651759
-0.644975
-0.638541
-0.631032
-0.620713
-0.606202
-0.587248
-0.564769
-0.540164
-0.514685
-0.48918
-0.464104
-0.439651
-0.415868
-0.39275
-0.370275
-0.348429
-0.327208
-0.306624
-0.286692
-0.267436
-0.248886
-0.230984
-0.213905
-0.673673
-0.665344
-0.657451
-0.647528
-0.633173
-0.613424
-0.589102
-0.561987
-0.533796
-0.505719
-0.478395
-0.452085
-0.42684
-0.402621
-0.379364
-0.357007
-0.335498
-0.314801
-0.29489
-0.275751
-0.257374
-0.239737
-0.222832
-0.206667
-0.69776
-0.687873
-0.678053
-0.664638
-0.644965
-0.619186
-0.589421
-0.558045
-0.526766
-0.49652
-0.467688
-0.440346
-0.414434
-0.389844
-0.366468
-0.344211
-0.32299
-0.302738
-0.283399
-0.264928
-0.247282
-0.230435
-0.214371
-0.198998
-0.723273
-0.711793
-0.699403
-0.681246
-0.655173
-0.623023
-0.588066
-0.552888
-0.518944
-0.486841
-0.456714
-0.428485
-0.402003
-0.377109
-0.353656
-0.331513
-0.31057
-0.29073
-0.27191
-0.254036
-0.237044
-0.220884
-0.205509
-0.190744
-0.748984
-0.73586
-0.720061
-0.695942
-0.662773
-0.624324
-0.584613
-0.546095
-0.509838
-0.476122
-0.444869
-0.415877
-0.388923
-0.363797
-0.340315
-0.318316
-0.297661
-0.27823
-0.259917
-0.242626
-0.226275
-0.210798
-0.196103
-0.181993
-0.773264
-0.758412
-0.738191
-0.707068
-0.666518
-0.622102
-0.578136
-0.536703
-0.498448
-0.463352
-0.431157
-0.401556
-0.37426
-0.349013
-0.325594
-0.303812
-0.283502
-0.264523
-0.246746
-0.230062
-0.214379
-0.199616
-0.185643
-0.17229
-0.794222
-0.777505
-0.751815
-0.712891
-0.665002
-0.615101
-0.567406
-0.523493
-0.483585
-0.447389
-0.414492
-0.384494
-0.357043
-0.331838
-0.308622
-0.287176
-0.267313
-0.24887
-0.231701
-0.215684
-0.200731
-0.186761
-0.173638
-0.161249
-0.528868
-0.527752
-0.527615
-0.530395
-0.536827
-0.547018
-0.560804
-0.57791
-0.597894
-0.620055
-0.643407
-0.666703
-0.688521
-0.707369
-0.721767
-0.729886
-0.730654
-0.72289
-0.705714
-0.678749
-0.642625
-0.59874
-0.550056
-0.49867
-0.550755
-0.548273
-0.548073
-0.551245
-0.558468
-0.569828
-0.5851
-0.603957
-0.625915
-0.650191
-0.675774
-0.701367
-0.725495
-0.746607
-0.763099
-0.773403
-0.77602
-0.769472
-0.752434
-0.723965
-0.684113
-0.63408
-0.577568
-0.516654
-0.567072
-0.563258
-0.562598
-0.565579
-0.572775
-0.584276
-0.599821
-0.619016
-0.641325
-0.665977
-0.691949
-0.717978
-0.742643
-0.764467
-0.781707
-0.79299
-0.796672
-0.790982
-0.774101
-0.744471
-0.701717
-0.646693
-0.583713
-0.515147
-0.577432
-0.572504
-0.571076
-0.57323
-0.579493
-0.590046
-0.604644
-0.622858
-0.644121
-0.667675
-0.692533
-0.717492
-0.741202
-0.762206
-0.779183
-0.790414
-0.794156
-0.788376
-0.770889
-0.739763
-0.69457
-0.6362
-0.569475
-0.496905
-0.582321
-0.576689
-0.574335
-0.575115
-0.579618
-0.588225
-0.600806
-0.616952
-0.636098
-0.657513
-0.680268
-0.703255
-0.725253
-0.744881
-0.760719
-0.771018
-0.773818
-0.766747
-0.747398
-0.713833
-0.666132
-0.605834
-0.538343
-0.466227
-0.582903
-0.577099
-0.573851
-0.572943
-0.575107
-0.581013
-0.590763
-0.604071
-0.620428
-0.639153
-0.659381
-0.680089
-0.700093
-0.71809
-0.732393
-0.74109
-0.741889
-0.73215
-0.709598
-0.67281
-0.622898
-0.562286
-0.496636
-0.428461
-0.580674
-0.575239
-0.571312
-0.568721
-0.56836
-0.571211
-0.5777
-0.587775
-0.601065
-0.616963
-0.634654
-0.653151
-0.671276
-0.687386
-0.699587
-0.705581
-0.702798
-0.688724
-0.661826
-0.621828
-0.571152
-0.512727
-0.451832
-0.389966
-0.577138
-0.572497
-0.568221
-0.56425
-0.561612
-0.561552
-0.564839
-0.571725
-0.582042
-0.595279
-0.610677
-0.627137
-0.643091
-0.656618
-0.665405
-0.666895
-0.658697
-0.639104
-0.60788
-0.566125
-0.517131
-0.463624
-0.409814
-0.355998
-0.573612
-0.569995
-0.565693
-0.560815
-0.556481
-0.554099
-0.554723
-0.558898
-0.566663
-0.577602
-0.590785
-0.604762
-0.617609
-0.627005
-0.630441
-0.625658
-0.611113
-0.586449
-0.552735
-0.512008
-0.467365
-0.420605
-0.374694
-0.328538
-0.571211
-0.568627
-0.564524
-0.559233
-0.55393
-0.550075
-0.548885
-0.551088
-0.556808
-0.565501
-0.575953
-0.586346
-0.594425
-0.597805
-0.594384
-0.582809
-0.562748
-0.535065
-0.501444
-0.464011
-0.424945
-0.385202
-0.346816
-0.307314
-0.570934
-0.569195
-0.565379
-0.560113
-0.554548
-0.550075
-0.547908
-0.548715
-0.552498
-0.558455
-0.565057
-0.570277
-0.571949
-0.568202
-0.557857
-0.540663
-0.517257
-0.488965
-0.457244
-0.42366
-0.389297
-0.355047
-0.322394
-0.288647
-0.573626
-0.572356
-0.568842
-0.563914
-0.558606
-0.554128
-0.551408
-0.550894
-0.552277
-0.554481
-0.55587
-0.554631
-0.549196
-0.538606
-0.522676
-0.501915
-0.477266
-0.449798
-0.420411
-0.389988
-0.358827
-0.327916
-0.297596
-0.267935
-0.441374
-0.385132
-0.342637
-0.317514
-0.312248
-0.326333
-0.354573
-0.385946
-0.405957
-0.401416
-0.365946
-0.308485
-0.247177
-0.197293
-0.164568
-0.14775
-0.14444
-0.152523
-0.172539
-0.210282
-0.26839
-0.330642
-0.367786
-0.356143
-0.305033
-0.239235
-0.180431
-0.140281
-0.118632
-0.111073
-0.11905
-0.146093
-0.184201
-0.211064
-0.205373
-0.17298
-0.134045
-0.104978
-0.0905947
-0.0922438
-0.109609
-0.129698
-0.134068
-0.1179
-0.0968895
-0.0784693
-0.0672662
-0.0629234
-0.0628805
-0.060678
-0.0546016
-0.0466766
-0.0443219
-0.045341
-0.0457794
-0.0346831
-0.0267442
-0.0155298
-0.0121428
-0.00298803
-0.449363
-0.382941
-0.329626
-0.292848
-0.275847
-0.279329
-0.299886
-0.328173
-0.34955
-0.348839
-0.320181
-0.271745
-0.219968
-0.178417
-0.151717
-0.139543
-0.140407
-0.15257
-0.17709
-0.220237
-0.283634
-0.349814
-0.389441
-0.377283
-0.322366
-0.251389
-0.187407
-0.142289
-0.115979
-0.103755
-0.105862
-0.125547
-0.156771
-0.17951
-0.174683
-0.148043
-0.117057
-0.0959682
-0.0887846
-0.0980951
-0.123457
-0.150294
-0.156772
-0.136142
-0.108949
-0.08423
-0.0671024
-0.0570654
-0.0525261
-0.0487353
-0.0437272
-0.0410315
-0.0446975
-0.0521119
-0.0569681
-0.0444307
-0.0331098
-0.0138264
-0.00485453
-8.5854e-05
-0.439443
-0.365908
-0.305238
-0.259466
-0.23127
-0.222515
-0.23206
-0.253558
-0.274562
-0.279714
-0.260479
-0.224121
-0.18418
-0.151871
-0.131681
-0.124515
-0.12969
-0.145561
-0.173373
-0.21931
-0.284744
-0.35296
-0.395414
-0.386649
-0.331478
-0.257609
-0.190249
-0.141569
-0.111401
-0.0948518
-0.091464
-0.104103
-0.128609
-0.147889
-0.144321
-0.123011
-0.0992688
-0.0855312
-0.0854218
-0.10267
-0.136243
-0.169988
-0.179086
-0.154042
-0.120234
-0.0892391
-0.0666421
-0.0514672
-0.042584
-0.0370935
-0.0328924
-0.0353639
-0.0448329
-0.0584305
-0.0676265
-0.053873
-0.0392563
-0.0123934
0.00234143
0.00271208
-0.416925
-0.340959
-0.277774
-0.226107
-0.189221
-0.168917
-0.165212
-0.175814
-0.192083
-0.200932
-0.191363
-0.168795
-0.141446
-0.118596
-0.10506
-0.102858
-0.111971
-0.130633
-0.159824
-0.205482
-0.269969
-0.339298
-0.384976
-0.382545
-0.331203
-0.257243
-0.188676
-0.138105
-0.105255
-0.085285
-0.0768953
-0.0831253
-0.101431
-0.117593
-0.115664
-0.0986894
-0.0810505
-0.073728
-0.0801068
-0.104968
-0.146742
-0.187602
-0.199893
-0.171028
-0.130509
-0.0933523
-0.0658318
-0.0462114
-0.0332175
-0.0259558
-0.0222182
-0.029654
-0.0446432
-0.0641595
-0.0775687
-0.0628605
-0.0451049
-0.0113298
0.00936372
0.00539124
-0.386832
-0.31303
-0.251924
-0.199098
-0.156659
-0.126726
-0.111203
-0.109304
-0.116635
-0.12465
-0.120953
-0.111315
-0.0954572
-0.081304
-0.0739006
-0.0761288
-0.088598
-0.109341
-0.13855
-0.181569
-0.241985
-0.309827
-0.35955
-0.365042
-0.321191
-0.250826
-0.183237
-0.132221
-0.0979101
-0.0756533
-0.063283
-0.0636767
-0.0763022
-0.0896791
-0.0899133
-0.0755036
-0.0627981
-0.0606839
-0.0725331
-0.104163
-0.153859
-0.201834
-0.217922
-0.186515
-0.139648
-0.0965548
-0.0646695
-0.0413473
-0.0245652
-0.0155109
-0.011802
-0.0238496
-0.0440634
-0.0691734
-0.0866301
-0.0712571
-0.0505927
-0.0107134
0.0161219
0.00794667
-0.354635
-0.287212
-0.23105
-0.180072
-0.136096
-0.100361
-0.074478
-0.0605521
-0.0574785
-0.0611383
-0.0655932
-0.0581336
-0.0503822
-0.04315
-0.0409213
-0.0469858
-0.0622077
-0.0843688
-0.112672
-0.151504
-0.2054
-0.268915
-0.321747
-0.336335
-0.302496
-0.238852
-0.174514
-0.124425
-0.0896865
-0.0661581
-0.0510702
-0.0466519
-0.0540462
-0.0647347
-0.0655265
-0.0538488
-0.0450765
-0.0467313
-0.0628707
-0.100224
-0.156811
-0.211428
-0.23195
-0.199766
-0.147465
-0.0988403
-0.0631697
-0.0369234
-0.0167551
-0.00591969
-0.00178027
-0.0179495
-0.0430263
-0.0733571
-0.0946805
-0.078934
-0.0556576
-0.0105886
0.0225274
0.0103666
-0.323815
-0.264957
-0.21561
-0.168258
-0.12522
-0.0879684
-0.0564462
-0.0324531
-0.0183713
-0.0135025
-0.0139504
-0.0106287
-0.00943826
-0.00710004
-0.00866781
-0.0176625
-0.0347418
-0.0574633
-0.0842953
-0.118595
-0.165351
-0.222826
-0.276662
-0.300361
-0.277596
-0.222567
-0.163328
-0.115465
-0.0811404
-0.0571504
-0.0402918
-0.0321852
-0.0349742
-0.0431814
-0.0442543
-0.0343307
-0.0285623
-0.0325575
-0.0516137
-0.0928128
-0.155219
-0.215699
-0.241074
-0.210177
-0.153828
-0.100273
-0.0613648
-0.0329411
-0.0098855
0.00267157
0.00772572
-0.0119426
-0.0415234
-0.076661
-0.101637
-0.0857855
-0.0602359
-0.010954
0.0284949
0.0126356
-0.298688
-0.247821
-0.20485
-0.161894
-0.120905
-0.0839115
-0.0511079
-0.022508
0.000427964
0.014892
0.0206259
0.0205682
0.0233923
0.0234515
0.0197426
0.00917278
-0.00863589
-0.0309404
-0.0558144
-0.0857705
-0.125237
-0.175274
-0.228119
-0.258704
-0.247659
-0.202735
-0.150217
-0.105799
-0.0726823
-0.0488622
-0.0311144
-0.0202755
-0.0191827
-0.0251144
-0.0265943
-0.0173585
-0.0139946
-0.0187905
-0.0392529
-0.0827013
-0.148821
-0.214033
-0.244535
-0.216895
-0.158518
-0.10091
-0.0592934
-0.029344
-0.00400559
0.0101618
0.0165545
-0.00589316
-0.0395294
-0.0790029
-0.107442
-0.0917103
-0.0642634
-0.0117665
0.0339566
0.0147348
-0.279694
-0.23619
-0.198459
-0.159439
-0.121189
-0.0854175
-0.0525088
-0.0227928
0.00347963
0.0253791
0.040174
0.0465377
0.0488065
0.0472432
0.0426806
0.0320393
0.0148671
-0.00610328
-0.0288947
-0.0551806
-0.0883324
-0.131059
-0.181177
-0.220172
-0.216643
-0.181244
-0.135949
-0.0957437
-0.0644908
-0.0413563
-0.0234627
-0.0108695
-0.00659415
-0.0103866
-0.0125608
-0.00261178
-0.00186172
-0.00604233
-0.0264146
-0.0698831
-0.137721
-0.207392
-0.242577
-0.22005
-0.161384
-0.100779
-0.0569834
-0.0260708
0.000893272
0.016462
0.024639
0.000265016
-0.0371213
-0.0804693
-0.112088
-0.0966453
-0.0676979
-0.013002
0.0388416
0.0166442
-0.265787
-0.228949
-0.195717
-0.160154
-0.124603
-0.0905496
-0.0583973
-0.0287117
-0.00195321
0.0218647
0.0419454
0.0559779
0.0625452
0.0636262
0.059445
0.0497235
0.0343671
0.0159031
-0.00435282
-0.0276432
-0.0554146
-0.0905109
-0.136128
-0.175857
-0.181051
-0.156805
-0.120242
-0.085429
-0.05681
-0.0348371
-0.0174112
-0.00399679
0.00279177
0.00114229
-0.00217436
-0.00565156
0.00729834
0.00499227
-0.0140436
-0.0561023
-0.123205
-0.194271
-0.234975
-0.217641
-0.161877
-0.0999742
-0.0545908
-0.0232449
0.00470356
0.0215528
0.0317668
0.00634953
-0.0342764
-0.0809092
-0.115536
-0.1005
-0.0705167
-0.0146769
0.0430405
0.0183452
-0.254854
-0.224933
-0.194977
-0.16174
-0.128387
-0.0964461
-0.0654115
-0.0355382
-0.00764555
0.0175306
0.0391816
0.0562035
0.069528
0.0750998
0.0738851
0.0665839
0.0530397
0.0367453
0.018675
-0.00260526
-0.0271141
-0.0578516
-0.0989334
-0.137251
-0.151682
-0.136132
-0.106806
-0.0768858
-0.0509021
-0.0300849
-0.0132335
0.000419815
0.00916674
0.00975401
0.00650484
0.00467227
0.0146964
0.0143104
-0.00185133
-0.0411088
-0.106189
-0.178538
-0.223677
-0.213407
-0.160856
-0.0992224
-0.0525907
-0.0209412
0.00730404
0.0252211
0.0380625
0.012588
-0.0311322
-0.0806866
-0.117862
-0.103347
-0.0726691
-0.0165482
0.0464173
0.0198152
-0.245055
-0.225536
-0.200544
-0.170805
-0.140767
-0.111325
-0.0821005
-0.0531573
-0.0253301
0.000610826
0.0241902
0.0439105
0.05641
0.0708081
0.0775293
0.0757372
0.0672436
0.054654
0.0394969
0.0202361
-0.00188761
-0.0282856
-0.063203
-0.0962159
-0.113369
-0.107706
-0.0883732
-0.0652856
-0.04327
-0.0244094
-0.00854032
0.00471427
0.0144742
0.0167994
0.0139951
0.01201
0.0180833
0.0202476
0.00739395
-0.0270854
-0.0878929
-0.158122
-0.206698
-0.199897
-0.155514
-0.0967499
-0.0498882
-0.0179013
0.00998676
0.0278274
0.0427838
0.0185241
-0.0276033
-0.0792736
-0.118849
-0.104844
-0.0737957
-0.0177734
0.048979
0.0210351
-0.218786
-0.211794
-0.188097
-0.158299
-0.128855
-0.100964
-0.0739135
-0.0471731
-0.0211407
0.00355531
0.0265484
0.0467746
0.0648291
0.073443
0.0807878
0.0830974
0.0782569
0.0684299
0.057119
0.0430922
0.0223861
-0.00844645
-0.0470127
-0.0786764
-0.0928334
-0.0856702
-0.0690034
-0.049641
-0.031115
-0.0148513
-0.000970683
0.0107794
0.0199051
0.022979
0.0206242
0.0181188
0.0227933
0.0276887
0.0189355
-0.0115201
-0.0691858
-0.138632
-0.190863
-0.195011
-0.146943
-0.0895506
-0.043842
-0.013053
0.0136156
0.0310729
0.0481961
0.0248528
-0.023618
-0.0773808
-0.119317
-0.105288
-0.0735815
-0.0181737
0.0506963
0.0219604
-0.19421
-0.190712
-0.169527
-0.141445
-0.114009
-0.0888023
-0.0648482
-0.0411111
-0.0176679
0.00474007
0.0255037
0.0439295
0.0588011
0.0703664
0.0788221
0.0826859
0.0802177
0.0733769
0.0655088
0.0548501
0.0347817
0.00315112
-0.0329858
-0.0565477
-0.0675001
-0.0618824
-0.0492918
-0.034532
-0.0199654
-0.00647727
0.00559109
0.0158361
0.0238372
0.0267842
0.024806
0.022128
0.0257377
0.0309733
0.0249019
-0.00166756
-0.0548381
-0.121721
-0.174021
-0.172887
-0.134867
-0.0811715
-0.0375392
-0.00840274
0.0167451
0.033501
0.0512835
0.0290867
-0.0208342
-0.0757007
-0.118883
-0.10433
-0.072248
-0.018416
0.0514586
0.0225143
-0.1734
-0.17058
-0.152923
-0.128274
-0.103577
-0.0807435
-0.0591363
-0.0377375
-0.0164413
0.00414995
0.0234239
0.0406855
0.055072
0.0663726
0.0748149
0.0793357
0.0785415
0.0738395
0.0677155
0.0582336
0.0398089
0.0124925
-0.0166078
-0.0398288
-0.0444315
-0.041502
-0.0331214
-0.0220802
-0.010472
0.000740222
0.011107
0.020003
0.0271478
0.0300333
0.0283412
0.0253416
0.027913
0.0330009
0.0277585
0.00351304
-0.0455277
-0.106179
-0.153767
-0.160866
-0.121314
-0.0722807
-0.0313203
-0.00414184
0.0194675
0.0352617
0.0534582
0.0318056
-0.0194529
-0.0741221
-0.117145
-0.102163
-0.0699584
-0.0184749
0.0513224
0.0227547
-0.15333
-0.151498
-0.137064
-0.115702
-0.0935697
-0.0728464
-0.0533257
-0.0341669
-0.0150812
0.00355472
0.021136
0.0369939
0.0503815
0.061257
0.0696145
0.0746584
0.0753194
0.0723943
0.0674821
0.0593154
0.0445925
0.0233899
0.000410657
-0.01751
-0.0240347
-0.0237234
-0.0185138
-0.0105173
-0.0016348
0.00734848
0.016099
0.023647
0.0297019
0.0322585
0.0308737
0.0276835
0.0291306
0.033916
0.0295077
0.00703078
-0.036722
-0.0882686
-0.130557
-0.138196
-0.105408
-0.0623184
-0.02489
-4.12581e-05
0.0219002
0.0362285
0.0546767
0.0335895
-0.0183934
-0.0718187
-0.114028
-0.0987322
-0.0665522
-0.018078
0.0502028
0.0226622
-0.134781
-0.134146
-0.122359
-0.103968
-0.0843711
-0.0658105
-0.0483595
-0.0313347
-0.0143682
0.00232389
0.0182082
0.0327006
0.0452128
0.0555884
0.0637531
0.0691412
0.0709876
0.0696775
0.0661667
0.0598272
0.0486442
0.032307
0.0143003
-3.07347e-05
-0.00721484
-0.00885461
-0.0062853
-0.000840542
0.0058832
0.0129904
0.0202708
0.0266787
0.0317634
0.0338549
0.0326683
0.0292962
0.0296772
0.0337242
0.0300795
0.0103031
-0.0260749
-0.0683898
-0.105628
-0.113918
-0.0879167
-0.0517121
-0.0185586
0.00363239
0.0239584
0.0364167
0.0547103
0.0346867
-0.0170092
-0.0685165
-0.109318
-0.0938584
-0.0619704
-0.0171675
0.0480348
0.0221937
-0.118419
-0.11843
-0.10875
-0.0930024
-0.075842
-0.0594073
-0.0439243
-0.0288768
-0.0138933
0.000939829
0.0151985
0.0283616
0.0399338
0.0496974
0.0575308
0.0630591
0.0657584
0.0657327
0.0634578
0.0586357
0.0501435
0.0378537
0.0241259
0.012493
0.00558681
0.0029043
0.00380014
0.00742098
0.0124487
0.0179297
0.023829
0.0291724
0.0333382
0.0348784
0.0338384
0.0303879
0.0298409
0.0327399
0.0297478
0.0136591
-0.014924
-0.0483607
-0.0802287
-0.0890393
-0.0695751
-0.0406231
-0.0123429
0.00690585
0.0256239
0.0358667
0.0533748
0.03502
-0.0153213
-0.0641041
-0.102799
-0.0874539
-0.0562268
-0.0156098
0.0448436
0.0213084
-0.103567
-0.10399
-0.0961213
-0.0827636
-0.067891
-0.0534895
-0.0398778
-0.0266693
-0.0135102
-0.000414552
0.01228
0.0241277
0.0347049
0.0437651
0.0511626
0.0566478
0.0598464
0.0607126
0.0594645
0.0559928
0.049756
0.0407404
0.0304087
0.0211671
0.0150877
0.0121131
0.011979
0.0141874
0.0178564
0.0220162
0.0266862
0.0310937
0.0345348
0.035562
0.0345715
0.0312918
0.0300562
0.0315348
0.0286645
0.0162482
-0.00483775
-0.0292947
-0.0556065
-0.0646355
-0.051295
-0.0294929
-0.00641234
0.00974993
0.0268705
0.0347744
0.0504003
0.0343088
-0.0134013
-0.0583184
-0.0942306
-0.079443
-0.0494358
-0.0133703
0.0407383
0.0199795
-0.0899455
-0.0907998
-0.0845011
-0.0732623
-0.0604803
-0.0479748
-0.0361073
-0.0245853
-0.0130979
-0.0016239
0.00957605
0.0201281
0.0297011
0.0380224
0.0449395
0.0502654
0.0537327
0.0552454
0.0548794
0.0525912
0.0481495
0.0416447
0.0340441
0.0269462
0.021873
0.0189958
0.0183293
0.0195911
0.0222445
0.0253809
0.0289906
0.0325162
0.0353502
0.0360057
0.0350053
0.0321459
0.030573
0.0308396
0.0271296
0.0179136
0.00399532
-0.0117522
-0.0328272
-0.0419401
-0.0340532
-0.0187704
-0.000824665
0.0122765
0.0277138
0.0334868
0.0458328
0.0324827
-0.0109636
-0.0507373
-0.0833987
-0.0698561
-0.0418475
-0.0104778
0.0359345
0.0182176
-0.0776769
-0.0788406
-0.0738507
-0.0644614
-0.053557
-0.0427762
-0.0325018
-0.0225234
-0.0125709
-0.00259503
0.00721045
0.0165412
0.0251051
0.0326773
0.0390907
0.044184
0.0477626
0.0497171
0.0500513
0.0487541
0.0457637
0.0412404
0.0358116
0.0305252
0.0265021
0.0239906
0.0231505
0.0237965
0.0256616
0.0280074
0.0307588
0.0335023
0.0358138
0.0362448
0.0352643
0.0329942
0.0313482
0.0309497
0.0260296
0.019434
0.0118453
0.00356366
-0.01311
-0.0222625
-0.018782
-0.0089539
0.00433254
0.0145775
0.0281977
0.0324592
0.0401604
0.0300977
-0.00738434
-0.0409288
-0.070254
-0.0588997
-0.0338481
-0.00707047
0.0307261
0.0160868
-0.0666242
-0.0679644
-0.0640714
-0.0562928
-0.0470517
-0.0378188
-0.0289933
-0.0204246
-0.0118693
-0.00326012
0.00526064
0.013449
0.0210472
0.0278691
0.033753
0.0385566
0.0421316
0.0443732
0.0452586
0.0447894
0.0429803
0.0400106
0.0362843
0.0325115
0.0294765
0.0274349
0.026615
0.0269114
0.0282156
0.0299725
0.0320668
0.0341483
0.0359949
0.0362991
0.0354236
0.033807
0.032307
0.0317999
0.027201
0.0225244
0.0193057
0.0157558
0.00225365
-0.00668501
-0.00612178
-0.000374625
0.00901335
0.0167131
0.0284007
0.0319723
0.0346199
0.0282503
-0.00192581
-0.0287201
-0.0551215
-0.047041
-0.0259123
-0.00337221
0.0254795
0.0137167
-0.0565863
-0.0580639
-0.0550893
-0.0486947
-0.0409205
-0.0330784
-0.0255604
-0.0182567
-0.010953
-0.00357588
0.00377244
0.0108987
0.0175879
0.0236765
0.0290234
0.0335039
0.0369988
0.0394152
0.0407173
0.0409151
0.0400435
0.0382761
0.0358888
0.0333334
0.0311727
0.0296357
0.0289657
0.0291089
0.0300289
0.0313435
0.0329456
0.0345011
0.0359602
0.0362004
0.0355178
0.0344986
0.0333297
0.0331986
0.0308805
0.0277477
0.0267165
0.024408
0.01311
0.0048918
0.00392339
0.00683923
0.0131484
0.0186843
0.0284244
0.0317992
0.0307761
0.0280372
0.00573903
-0.0147012
-0.0389928
-0.0350355
-0.0184996
0.000310002
0.020624
0.0113212
-0.0475158
-0.0490743
-0.0468497
-0.0416387
-0.0351502
-0.028538
-0.0221757
-0.0159909
-0.00980062
-0.00352783
0.00276014
0.00891521
0.0147597
0.0201513
0.0249692
0.0291054
0.0324604
0.0349571
0.0365538
0.0372647
0.0371234
0.0362793
0.0349274
0.0333386
0.0319248
0.0308784
0.0304126
0.0305204
0.0312
0.0322001
0.0334489
0.0346091
0.0357643
0.0360004
0.0355347
0.0350211
0.0342612
0.0345435
0.0339312
0.0331299
0.0329211
0.0300062
0.0205191
0.0133317
0.0116641
0.0126846
0.0166709
0.0204992
0.0283322
0.0315473
0.0294975
0.0295794
0.0148061
-0.000597729
-0.0234629
-0.0237535
-0.0119384
0.00358512
0.0166225
0.00920417
-0.0393551
-0.040921
-0.0392983
-0.0350859
-0.0297071
-0.0241691
-0.0188222
-0.0136237
-0.00841643
-0.00312286
0.00220939
0.00749516
0.012566
0.0173046
0.0216077
0.0253873
0.0285583
0.0310584
0.0328436
0.0339295
0.0343349
0.0341815
0.0336107
0.0327777
0.0319816
0.0313788
0.0311397
0.0312888
0.0318419
0.0326277
0.0336293
0.0345125
0.0354364
0.0357202
0.0354553
0.0353159
0.0349775
0.0356452
0.0360376
0.0365816
0.0365636
0.0331973
0.0254356
0.0193546
0.0173769
0.0172263
0.0195448
0.0221308
0.0281298
0.031002
0.0302591
0.0310209
0.0227608
0.0109421
-0.0103305
-0.0139911
-0.00634516
0.0060844
0.013781
0.00767813
-0.031973
-0.033504
-0.0323654
-0.0289983
-0.0245773
-0.0199728
-0.0155107
-0.0111714
-0.00682072
-0.00238052
0.00213391
0.00662198
0.0109829
0.0151128
0.0189235
0.0223434
0.0252983
0.0277391
0.0296215
0.0309577
0.031755
0.0321041
0.0320735
0.031844
0.0315505
0.0313338
0.0313195
0.0315485
0.0320518
0.0327017
0.0335351
0.0342451
0.0349994
0.0353465
0.0352612
0.0353516
0.0353281
0.0356691
0.0367611
0.0377538
0.0377677
0.0346483
0.0284907
0.0234471
0.0213358
0.0206143
0.0218005
0.0235128
0.0279047
0.0304163
0.0314352
0.0312104
0.027603
0.0182882
-0.000819959
-0.00637179
-0.00169455
0.00767408
0.0120615
0.00686906
-0.0252929
-0.0267755
-0.0260277
-0.0233661
-0.0197568
-0.0159521
-0.0122529
-0.00865554
-0.00504911
-0.00135745
0.00242899
0.00622899
0.00995636
0.0135297
0.0168766
0.0199403
0.0226566
0.0249885
0.0268903
0.0283703
0.0294322
0.0301532
0.0305201
0.0307114
0.030804
0.0309023
0.0310926
0.0314162
0.0319179
0.0324942
0.0332156
0.0338286
0.0344647
0.0348619
0.0349367
0.03515
0.0353949
0.0357589
0.0366727
0.0376154
0.0375049
0.0349423
0.0301855
0.0260711
0.0241077
0.0230667
0.0235097
0.0245778
0.0277429
0.0299709
0.0317655
0.0304652
0.0292051
0.0215193
0.00521441
-0.000779978
0.00202443
0.00844599
0.0109437
0.00645452
-0.0192947
-0.0206981
-0.0202431
-0.0181564
-0.015231
-0.0121115
-0.0090669
-0.00610709
-0.0031363
-7.83694e-05
0.00306971
0.00626143
0.00942315
0.0124919
0.0154068
0.0181246
0.0205901
0.0227744
0.0246342
0.0261731
0.027381
0.0282967
0.0289864
0.0294892
0.0298713
0.0302134
0.0305776
0.0309957
0.0315205
0.0320678
0.0327157
0.0332785
0.0338394
0.0342621
0.0344678
0.0347316
0.0350638
0.0354446
0.0360995
0.0368132
0.0365457
0.0345359
0.0309474
0.0276519
0.0258969
0.0247614
0.0247409
0.0253215
0.0276471
0.0296281
0.0311667
0.029813
0.0291894
0.0224971
0.00902172
0.00317558
0.00475887
0.00874096
0.00981226
0.00585174
-0.0139179
-0.0152388
-0.0150115
-0.013393
-0.0110326
-0.00847917
-0.00598163
-0.00355704
-0.00112503
0.00138557
0.0039878
0.00664934
0.00931222
0.0119275
0.0144452
0.0168327
0.019043
0.0210536
0.0228263
0.0243609
0.0256412
0.0266998
0.027559
0.0282646
0.0288506
0.0293708
0.0298725
0.0303743
0.0309293
0.0314751
0.0320765
0.0326128
0.0331298
0.0335595
0.0338548
0.0341385
0.034496
0.0348371
0.0352513
0.0357013
0.0353228
0.0337598
0.0310901
0.0284958
0.0269305
0.0258392
0.0255651
0.0257857
0.0275068
0.0291285
0.0300168
0.0288998
0.0282477
0.0224307
0.0115039
0.00595576
0.0065429
0.00869403
0.00854642
0.00493778
-0.00909279
-0.0103057
-0.0102388
-0.00899816
-0.00711301
-0.00504657
-0.00301674
-0.00104502
0.000933756
0.0029825
0.00511917
0.00732365
0.00955067
0.0117625
0.0139189
0.0159952
0.0179527
0.0197741
0.0214258
0.0229034
0.0241923
0.0253112
0.0262683
0.0270958
0.0278141
0.028455
0.0290553
0.0296234
0.0302062
0.0307615
0.0313344
0.0318553
0.0323456
0.0327688
0.0331106
0.0334022
0.0337322
0.0340201
0.0342499
0.0344699
0.0340419
0.0328183
0.0308328
0.0288164
0.0274334
0.0264252
0.026042
0.0260055
0.0271931
0.0283718
0.0286234
0.0276062
0.0267417
0.0218444
0.0131011
0.00791005
0.00757573
0.00795815
0.00729017
0.00394749
-0.00473976
-0.00584679
-0.00590636
-0.00497708
-0.00348605
-0.00182437
-0.000185385
0.00140601
0.00300331
0.00466313
0.00640555
0.00821863
0.0100676
0.0119235
0.0137543
0.0155414
0.0172544
0.0188791
0.020387
0.0217683
0.0230179
0.0241395
0.0251351
0.0260216
0.0268131
0.0275259
0.0281879
0.0288019
0.0294034
0.0299675
0.0305217
0.03103
0.0315001
0.0319091
0.0322635
0.0325568
0.0328353
0.0330642
0.0331693
0.0332202
0.0327883
0.03182
0.0303273
0.0287656
0.0275597
0.0266238
0.0262133
0.0259991
0.0266745
0.027398
0.0272153
0.0261396
0.0250243
0.0209947
0.0140323
0.00925442
0.00819588
0.00778532
0.00627302
0.00309284
-0.000850387
-0.00185674
-0.00200036
-0.00131205
-0.000140074
0.00118644
0.00249892
0.00377199
0.00505031
0.00638413
0.00779393
0.00927377
0.0107972
0.0123412
0.0138811
0.0154036
0.0168847
0.0183122
0.0196627
0.0209329
0.0221044
0.0231838
0.0241686
0.0250656
0.0258832
0.0266276
0.0273181
0.0279555
0.0285632
0.0291292
0.0296675
0.0301607
0.0306114
0.0310028
0.0313455
0.0316128
0.0318539
0.0320295
0.0320582
0.0320014
0.0315917
0.0308159
0.029674
0.0284521
0.0274166
0.0265682
0.0261208
0.0257873
0.0260007
0.026317
0.0258372
0.0246558
0.023325
0.0200205
0.0144667
0.0101257
0.0085545
0.00755251
0.00553132
0.00245452
0.0026071
0.00171602
0.00152598
0.00202495
0.00293409
0.00398142
0.00502228
0.00603136
0.0070447
0.00810669
0.00923767
0.0104354
0.0116799
0.0129531
0.0142358
0.0155183
0.0167832
0.0180182
0.0192022
0.0203473
0.0214228
0.022431
0.0233695
0.0242402
0.0250468
0.0257898
0.0264808
0.0271198
0.0277203
0.0282776
0.0287976
0.0292716
0.0297009
0.0300721
0.0303939
0.0306444
0.0308381
0.0309656
0.0309498
0.0308333
0.0304584
0.0298259
0.0289341
0.0279598
0.0270749
0.0262959
0.0258073
0.0253953
0.0252444
0.0252041
0.0245619
0.0232602
0.0217617
0.0190051
0.0145484
0.0106347
0.00872518
0.00731179
0.00500468
0.0020206
0.00570277
0.0049175
0.00469637
0.00504449
0.00574025
0.00655884
0.00737605
0.00816742
0.00896194
0.00979846
0.0106968
0.0116568
0.0126635
0.0137034
0.0147611
0.0158296
0.0168969
0.0179549
0.0189886
0.01999
0.0209496
0.021865
0.0227321
0.0235494
0.0243166
0.0250321
0.0257004
0.0263214
0.0269014
0.0274388
0.0279351
0.0283848
0.0287882
0.0291358
0.0294311
0.0296595
0.0298172
0.0299056
0.0298654
0.0297207
0.029384
0.0288577
0.0281445
0.0273486
0.0265837
0.0258656
0.0253262
0.0248499
0.0244441
0.0241017
0.0233462
0.0219883
0.0203775
0.0180009
0.0143873
0.0108729
0.00875768
0.00708156
0.00463795
0.00173975
0.00845525
0.00776695
0.00753262
0.00776604
0.00829069
0.00892208
0.00955524
0.0101676
0.0107824
0.0114327
0.0121373
0.0128979
0.0137033
0.0145429
0.0154055
0.0162851
0.0171735
0.0180662
0.0189543
0.0198144
0.0206523
0.0214638
0.022244
0.0229898
0.023698
0.0243659
0.0249932
0.0255797
0.0261268
0.0266338
0.0270994
0.0275194
0.027893
0.0282126
0.0284786
0.0286821
0.0288124
0.0288706
0.0288177
0.0286629
0.0283619
0.0279148
0.0273273
0.0266596
0.0259805
0.0253154
0.0247295
0.024187
0.02362
0.0230431
0.0221918
0.0208355
0.0191724
0.0170411
0.0140626
0.010916
0.00869344
0.00685871
0.00437784
0.00156112
0.010894
0.010299
0.0100647
0.01021
0.0105965
0.0110748
0.0115571
0.0120229
0.0124906
0.0129882
0.0135325
0.0141265
0.0147619
0.0154303
0.0161236
0.0168376
0.0175653
0.0183025
0.0190414
0.0197755
0.0204974
0.0212034
0.0218894
0.022553
0.0231894
0.0237956
0.0243687
0.0249078
0.0254114
0.0258787
0.0263067
0.0266921
0.0270316
0.027317
0.0275561
0.0277331
0.02784
0.0278746
0.0278142
0.0276586
0.027387
0.0269989
0.0264965
0.0259198
0.025302
0.0246746
0.0240578
0.0234515
0.022784
0.022046
0.0211072
0.019782
0.0181239
0.0161476
0.0136326
0.0108213
0.00855913
0.00663491
0.00418277
0.00144647
0.013053
0.0125424
0.012315
0.0123931
0.0126692
0.013023
0.0133822
0.0137284
0.0140763
0.0144491
0.0148616
0.0153169
0.0158093
0.0163325
0.0168802
0.01745
0.0180369
0.0186369
0.0192441
0.019856
0.0204622
0.0210626
0.0216517
0.0222275
0.0227848
0.0233206
0.0238304
0.0243129
0.0247649
0.0251851
0.02557
0.0259163
0.0262208
0.0264789
0.02668
0.0268275
0.0269116
0.0269268
0.0268596
0.0267067
0.0264564
0.0261103
0.0256652
0.0251507
0.024577
0.0239725
0.0233391
0.0226812
0.0219465
0.0211115
0.0201015
0.0188097
0.0172018
0.0153324
0.0131416
0.0106285
0.00837512
0.00640616
0.00402295
0.00136982
0.0149556
0.0145205
0.0143055
0.0143333
0.0145214
0.0147743
0.0150332
0.0152822
0.0155328
0.015804
0.0161084
0.0164492
0.0168222
0.0172228
0.0176467
0.0180919
0.0185556
0.0190351
0.0195245
0.0200205
0.0205199
0.0210181
0.0215125
0.0219998
0.0224753
0.0229362
0.0233774
0.0237974
0.0241922
0.02456
0.0248971
0.0251994
0.0254618
0.0256812
0.0258529
0.0259732
0.0260348
0.0260326
0.0259576
0.0258064
0.02557
0.0252516
0.0248452
0.0243703
0.0238283
0.023238
0.0225952
0.0219026
0.0211207
0.0202332
0.019178
0.0179104
0.0163771
0.0145966