/*--------------------------------*- C++ -*----------------------------------*\
| =========                 |                                                 |
| \\      /  F ield         | OpenFOAM: The Open Source CFD Toolbox           |
|  \\    /   O peration     | Version:  2512                                  |
|   \\  /    A nd           | Website:  www.openfoam.com                      |
|    \\/     M anipulation  |                                                 |
\*---------------------------------------------------------------------------*/
FoamFile
{
    version     2.0;
    format      ascii;
    arch        "LSB;label=32;scalar=64";
    class       surfaceScalarField;
    location    "73";
    object      phi;
}
// * * * * * * * * * * * * * * * * * * * * * * * * * * * * * * * * * * * * * //

dimensions      [0 3 -1 0 0 0 0];

oriented        oriented;

internalField   nonuniform List<scalar> 
26232
(
-0.000155036
0.0016431
-0.00148806
0.000118119
0.00280852
-0.00308168
0.00132539
0.0021503
-0.00335757
0.00392451
-0.000417646
-0.00218148
0.00838363
-0.00510309
0.000643969
0.0151556
-0.0120891
0.00531716
0.0245044
-0.0213425
0.0119937
0.0363118
-0.0324687
0.0206612
0.0499701
-0.0447135
0.0310552
0.064459
-0.0571241
0.0426352
0.0785718
-0.0687733
0.0546606
0.0911967
-0.0789518
0.0663269
0.101563
-0.0872804
0.0769144
0.109382
-0.0937303
0.0859111
0.114849
-0.0985606
0.0930932
0.118503
-0.102189
0.0985348
0.121
-0.105041
0.102544
0.122895
-0.107438
0.105543
0.124565
-0.10956
0.10789
0.126154
-0.111497
0.109908
0.12778
-0.113179
0.111553
0.129349
-0.114839
0.11327
0.130411
-0.115641
0.114579
-0.116914
0.116608
0.130717
-6.94978e-05
0.0017126
0.000473391
0.00226563
0.00224887
0.000374826
0.00585321
-0.00402199
0.0118431
-0.011093
0.0205548
-0.0208008
0.0318577
-0.0326454
0.0450332
-0.0456442
0.0589108
-0.0585912
0.072191
-0.0704043
0.0837905
-0.0803729
0.0930835
-0.0882449
0.0999771
-0.0941739
0.104819
-0.0985725
0.108191
-0.101932
0.110674
-0.104672
0.112702
-0.107069
0.114528
-0.109265
0.116282
-0.111313
0.118017
-0.113232
0.119866
-0.115028
0.121786
-0.116759
0.124404
-0.118259
-0.120369
0.127859
9.6462e-05
0.00161613
0.00110921
0.00125288
0.003749
-0.00226497
0.0086912
-0.00896419
0.0164088
-0.0188106
0.0268604
-0.0312523
0.0392951
-0.0450801
0.0524238
-0.0587728
0.0648549
-0.0710223
0.0755213
-0.0810706
0.0839151
-0.0887667
0.090091
-0.0944208
0.0944882
-0.0985711
0.0976799
-0.101764
0.100166
-0.104418
0.102283
-0.106789
0.104217
-0.109003
0.106073
-0.111121
0.107921
-0.113161
0.109843
-0.115154
0.111883
-0.117068
0.114115
-0.11899
0.116569
-0.120714
-0.12266
0.11886
0.000296974
0.00131916
0.00191449
-0.000364631
0.00561694
-0.00596741
0.0120443
-0.0153916
0.0213521
-0.0281184
0.0328731
-0.0427733
0.0452463
-0.0574533
0.0569715
-0.0704981
0.0669491
-0.0809999
0.0747244
-0.088846
0.0804264
-0.0944686
0.0845224
-0.0985168
0.0875511
-0.1016
0.0899473
-0.10416
0.091994
-0.106465
0.0938569
-0.108651
0.0956385
-0.110785
0.0974086
-0.112891
0.099229
-0.114982
0.10113
-0.117055
0.103173
-0.119112
0.105375
-0.121192
0.107842
-0.123181
-0.125516
0.110699
0.000522599
0.00079656
0.00283359
-0.00267563
0.00770366
-0.0108375
0.0155561
-0.023244
0.0259594
-0.0385217
0.0375651
-0.054379
0.0487371
-0.0686253
0.0582603
-0.0800213
0.0656444
-0.0883839
0.0710236
-0.0942253
0.0748649
-0.0983099
0.0776882
-0.10134
0.0799086
-0.10382
0.0818017
-0.106054
0.0835338
-0.108197
0.0852028
-0.110321
0.0868658
-0.112448
0.0885604
-0.114585
0.0903096
-0.116731
0.0921439
-0.118889
0.0940971
-0.121065
0.0961717
-0.123267
0.0984395
-0.125449
-0.127812
0.100735
0.00077738
1.918e-05
0.00384684
-0.00574508
0.00988247
-0.0168731
0.0188443
-0.0322058
0.0295641
-0.0492415
0.0402761
-0.065091
0.0495515
-0.0779006
0.0567574
-0.0872272
0.0619674
-0.0935939
0.0656316
-0.0978894
0.0682712
-0.10095
0.0703103
-0.103379
0.0720315
-0.105541
0.0735993
-0.107621
0.0751002
-0.109698
0.0765769
-0.111797
0.0780552
-0.113926
0.0795562
-0.116086
0.0811064
-0.118281
0.0827332
-0.120516
0.0844621
-0.122794
0.0863183
-0.125123
0.0883559
-0.127486
-0.130017
0.0905609
0.00106149
-0.00104231
0.0049205
-0.00960409
0.0119714
-0.023924
0.0214889
-0.0417233
0.0316951
-0.0594478
0.0408627
-0.0742586
0.048084
-0.085122
0.0532842
-0.0924273
0.0568667
-0.0971764
0.0593613
-0.100384
0.0612167
-0.102805
0.0627349
-0.104897
0.0640874
-0.106894
0.0653604
-0.108894
0.0665963
-0.110934
0.0678213
-0.113022
0.0690576
-0.115162
0.0703272
-0.117356
0.0716499
-0.119604
0.0730426
-0.121909
0.0745213
-0.124273
0.0760916
-0.126693
0.0777771
-0.129172
-0.131755
0.0795154
0.00137678
-0.0024191
0.00598489
-0.0142122
0.0137326
-0.0316717
0.0231486
-0.0511393
0.0322167
-0.0685159
0.039605
-0.0816469
0.0449608
-0.0904778
0.048581
-0.0960475
0.0509935
-0.099589
0.0526844
-0.102075
0.0539911
-0.104112
0.0551074
-0.106014
0.0561303
-0.107917
0.0571065
-0.109871
0.0580617
-0.111889
0.0590137
-0.113974
0.0599774
-0.116126
0.0609662
-0.118345
0.0619937
-0.120632
0.0630748
-0.12299
0.0642218
-0.12542
0.065451
-0.127922
0.0667823
-0.130503
-0.13317
0.0681976
0.0016987
-0.00411779
0.00693247
-0.019446
0.0149399
-0.0396792
0.0236799
-0.0598793
0.0312903
-0.0761263
0.0369593
-0.0873159
0.040763
-0.0942815
0.0431873
-0.0984719
0.0447575
-0.101159
0.0458637
-0.103181
0.0467378
-0.104986
0.0474969
-0.106773
0.0481954
-0.108615
0.0488593
-0.110535
0.0495043
-0.112534
0.0501431
-0.114613
0.0507884
-0.116771
0.0514538
-0.11901
0.052153
-0.121331
0.0528975
-0.123734
0.0536978
-0.12622
0.0545618
-0.128786
0.0554926
-0.131434
-0.13415
0.0564725
0.00199912
-0.00611691
0.00764932
-0.0250962
0.0154575
-0.0474873
0.0231396
-0.0675614
0.0292231
-0.0822098
0.0333725
-0.0914653
0.035937
-0.0968459
0.0374594
-0.0999943
0.0383954
-0.102095
0.0390332
-0.103819
0.0395228
-0.105475
0.0399328
-0.107183
0.0402937
-0.108976
0.0406217
-0.110863
0.0409291
-0.112841
0.0412274
-0.114911
0.041528
-0.117072
0.0418418
-0.119324
0.0421787
-0.121668
0.0425482
-0.124104
0.0429592
-0.126631
0.0434211
-0.129248
0.0439404
-0.131953
-0.134732
0.0445224
0.00224891
-0.00836582
0.00804917
-0.0308964
0.0152719
-0.05471
0.0217097
-0.0739993
0.0263477
-0.0868478
0.0292148
-0.0943325
0.0308011
-0.0984322
0.0316242
-0.100817
0.0320477
-0.102519
0.0322728
-0.104044
0.0323927
-0.105595
0.0324475
-0.107238
0.0324558
-0.108984
0.0324296
-0.110836
0.032379
-0.112791
0.0323131
-0.114846
0.0322415
-0.117
0.0321735
-0.119256
0.0321189
-0.121613
0.0320872
-0.124072
0.032088
-0.126632
0.0321274
-0.129288
0.0322047
-0.132031
-0.134851
0.0323231
0.00242718
-0.010793
0.00810168
-0.0365709
0.0144753
-0.0610836
0.0196268
-0.0791508
0.0229683
-0.0901893
0.0247736
-0.0961378
0.0255761
-0.0992347
0.0258264
-0.101068
0.0258002
-0.102492
0.0256322
-0.103876
0.0253796
-0.105343
0.0250665
-0.106924
0.0247052
-0.108623
0.024305
-0.110436
0.0238742
-0.11236
0.0234208
-0.114392
0.0229532
-0.116533
0.0224793
-0.118782
0.0220071
-0.121141
0.0215451
-0.12361
0.0211028
-0.126189
0.0206892
-0.128874
0.0203106
-0.131652
0.0199789
-0.134519
4.65198e-05
0.00794146
-0.00798798
-0.00037991
0.0173326
-0.0169062
-0.00139291
0.0222452
-0.0212322
-0.00287704
0.0242992
-0.022815
-0.00467397
0.0248512
-0.0230543
-0.00664168
0.0247152
-0.0227475
-0.00867367
0.024205
-0.022173
-0.0106906
0.0233214
-0.0213045
-0.0126272
0.0219354
-0.0199987
-0.014425
0.0198913
-0.0180936
-0.0160315
0.0170471
-0.0154407
-0.0174039
0.0132861
-0.0119137
-0.0185165
0.00852242
-0.00740983
-0.0193884
0.00269878
-0.00182684
-0.0198805
-0.0040596
0.00455162
-0.0200139
-0.0118755
0.012009
-0.0197653
-0.0206679
0.0204193
-0.0190906
-0.030327
0.0296523
-0.0179442
-0.0406765
0.03953
-0.0163053
-0.0514406
0.0498018
-0.014247
-0.0622067
0.0601484
-0.011948
-0.0725164
0.0702174
-0.00970369
-0.0819852
0.0797409
-0.0902103
-0.00788829
0.0883949
0.000405212
0.00753625
0.000672274
0.0170655
0.00048109
0.0224364
-0.000134733
0.024915
-0.00100173
0.0257182
-0.00194426
0.0256577
-0.00282878
0.0250895
-0.00356673
0.0240594
-0.00409992
0.0224686
-0.00438956
0.020181
-0.00441182
0.0170694
-0.0041594
0.0130337
-0.00364297
0.00800599
-0.00289912
0.00195492
-0.00188094
-0.00507778
-0.000602864
-0.0131536
0.000968443
-0.0222392
0.00291613
-0.0322746
0.00535735
-0.0431177
0.00834857
-0.0544318
0.0119309
-0.065789
0.0158081
-0.0763936
0.0198013
-0.0859784
-0.0932714
0.0228624
0.000727234
0.00680902
0.00169795
0.0160948
0.00240167
0.0217326
0.00276833
0.0245483
0.00294136
0.0255452
0.00311378
0.0254853
0.00344202
0.0247612
0.00402657
0.0234748
0.00492069
0.0215744
0.00614566
0.018956
0.00769675
0.0155183
0.00954682
0.0111836
0.0116454
0.00590741
0.0139324
-0.000332047
0.0164277
-0.00757307
0.0190883
-0.0158143
0.0219516
-0.0251025
0.0251117
-0.0354347
0.0287045
-0.0467105
0.0328161
-0.0585435
0.0375215
-0.0704944
0.0426263
-0.0814984
0.0480106
-0.0913627
-0.0984273
0.0531666
0.000958679
0.00585034
0.00254439
0.0145091
0.00410672
0.0201703
0.00545727
0.0231978
0.00667934
0.0243231
0.0079524
0.0242123
0.0094426
0.023271
0.0112599
0.0216575
0.0134578
0.0193765
0.0160449
0.0163689
0.0189973
0.012566
0.0222657
0.00791518
0.0257666
0.00240654
0.0295144
-0.00407981
0.0334521
-0.0115108
0.0376118
-0.019974
0.0420761
-0.0295667
0.0469407
-0.0402993
0.0523021
-0.0520718
0.0580813
-0.0643227
0.0642066
-0.0766197
0.0702448
-0.0875366
0.0760636
-0.0971815
-0.10366
0.0812962
0.00106671
0.00478363
0.00308212
0.0124937
0.00534888
0.0179035
0.00757372
0.0209729
0.00975255
0.0221443
0.0120195
0.0219453
0.0145281
0.0207624
0.0173909
0.0187947
0.0206634
0.016104
0.0243517
0.0126806
0.0284252
0.00849245
0.0328226
0.00351779
0.0375567
-0.00232759
0.0425794
-0.00910248
0.0479386
-0.01687
0.0537395
-0.0257749
0.0601152
-0.0359425
0.0671306
-0.0473147
0.0747545
-0.0596958
0.0826687
-0.0722369
0.0905446
-0.0844956
0.0976724
-0.0946644
0.103844
-0.103353
-0.10811
0.108294
0.00104724
0.00373639
0.00324948
0.0102914
0.00596515
0.0151879
0.00884086
0.0180972
0.0117833
0.0192019
0.014857
0.0188716
0.0181786
0.0174408
0.0218477
0.0151256
0.0259203
0.0120314
0.030409
0.00819187
0.0352935
0.00360794
0.0405936
-0.00178227
0.0463399
-0.00807392
0.0525825
-0.015345
0.0594799
-0.0237674
0.0671927
-0.0334877
0.0758022
-0.044552
0.0851885
-0.056701
0.0949966
-0.0695039
0.104612
-0.0818523
0.113415
-0.0932988
0.120719
-0.101968
0.12642
-0.109054
-0.111725
0.130035
0.000920998
0.00281539
0.0030592
0.00815324
0.00591074
0.0123363
0.00912509
0.0148829
0.0125455
0.0157815
0.0161636
0.0152534
0.0200435
0.013561
0.0242599
0.0109092
0.0288701
0.00742126
0.0339098
0.00315215
0.0394545
-0.0019368
0.0456056
-0.00793335
0.0524811
-0.0149494
0.0602976
-0.0231615
0.0692432
-0.0327131
0.0793747
-0.0436192
0.0904843
-0.0556616
0.102062
-0.0682784
0.113304
-0.0807464
0.123366
-0.091914
0.131465
-0.101397
0.137223
-0.107727
0.14074
-0.112572
-0.113095
0.14211
0.000721224
0.00209417
0.00258249
0.00629197
0.00526156
0.00965727
0.00846955
0.0116749
0.0120301
0.0122209
0.0158844
0.0113992
0.020053
0.00939237
0.0245982
0.00636398
0.0296043
0.00241511
0.0352233
-0.00246683
0.041634
-0.00834747
0.0490589
-0.0153582
0.0577618
-0.0236522
0.0679227
-0.0333225
0.0795114
-0.0443018
0.092183
-0.0562908
0.105234
-0.0687123
0.117735
-0.0807799
0.128652
-0.0916627
0.137247
-0.10051
0.143034
-0.107184
0.146254
-0.110947
0.14732
-0.113637
-0.112756
0.146981
0.000481567
0.0016126
0.00192138
0.00485216
0.00418716
0.00739148
0.00709162
0.00877043
0.0104892
0.00882332
0.0143194
0.00756904
0.0186097
0.00510202
0.0234676
0.00150612
0.0291078
-0.00322509
0.0357883
-0.0091474
0.0438191
-0.0163782
0.0534708
-0.02501
0.064847
-0.0350285
0.0777606
-0.046236
0.0916632
-0.0582044
0.10568
-0.0703076
0.11874
-0.0817722
0.129832
-0.0918722
0.138184
-0.100015
0.14361
-0.105935
0.146261
-0.109835
0.147038
-0.111724
0.146544
-0.113142
-0.112129
0.145917
0.00023355
0.00137905
0.00119452
0.00389119
0.00292945
0.00565656
0.00537698
0.0063229
0.00847883
0.00572146
0.0122512
0.00379671
0.0168166
0.000536605
0.0224296
-0.00410696
0.0294078
-0.0102033
0.0380885
-0.0178281
0.0486844
-0.0269741
0.0611494
-0.0374749
0.0750829
-0.048962
0.089724
-0.0608771
0.104049
-0.072529
0.116955
-0.0832145
0.127505
-0.0923215
0.135151
-0.0995186
0.139849
-0.104713
0.142143
-0.10823
0.142742
-0.110433
0.142718
-0.1117
0.142423
-0.112848
-0.112426
0.14272
1.66154e-05
0.00136243
0.000547881
0.00335992
0.00180852
0.00439591
0.00388572
0.0042457
0.00687255
0.00273464
0.0109445
-0.0002752
0.016391
-0.00490996
0.0235618
-0.0112778
0.0327629
-0.0194044
0.0440917
-0.0291569
0.0573058
-0.0401882
0.0717775
-0.0519466
0.0865596
-0.0637441
0.100545
-0.0748627
0.112692
-0.084676
0.122245
-0.0927674
0.128917
-0.0989934
0.132928
-0.103529
0.134914
-0.106699
0.135718
-0.109034
0.136027
-0.110743
0.136617
-0.11229
0.137372
-0.113603
-0.113877
0.138824
-0.000125628
0.000152616
0.00119096
0.00325519
0.00663379
0.0116758
0.0187595
0.0281429
0.0397938
0.0532721
0.0677444
0.0821247
0.0952951
0.106344
0.114761
0.120528
0.124079
0.126093
0.127284
0.128158
0.128969
0.129949
0.130925
0.133656
-0.00794473
-0.130663
0.130719
-0.00748671
-0.140521
0.140063
-0.00431276
-0.147513
0.144339
0.00361617
-0.149233
0.141304
0.0176755
-0.141944
0.127884
0.0366199
-0.122766
0.103821
0.0576788
-0.0916466
0.0705878
0.0774368
-0.050718
0.03096
0.0947004
-0.00265742
-0.0146062
0.109958
0.0504539
-0.0657119
0.123328
0.102082
-0.115452
0.134071
0.142741
-0.153483
0.141348
0.166892
-0.174169
0.144913
0.177362
-0.180927
0.145993
0.179978
-0.181059
0.146223
0.177728
-0.177957
0.145298
0.176399
-0.175475
0.141837
0.185951
-0.18249
0.136384
0.205794
-0.200341
0.131974
0.214643
-0.210234
0.130962
0.185004
-0.183993
0.133598
0.1088
-0.111436
0.139371
0.0036522
-0.00942485
0.146804
-0.0970418
0.0896092
0.153336
-0.169605
0.163072
0.15725
-0.208935
0.205021
0.159383
-0.222003
0.219871
0.159665
-0.220019
0.219737
0.155935
-0.224158
0.227888
0.147374
-0.243547
0.252108
0.13598
-0.256685
0.268079
0.12501
-0.230386
0.241355
0.118362
-0.155018
0.161666
0.118639
-0.0457984
0.0455209
0.124464
0.0695307
-0.0753547
0.133348
0.161047
-0.169932
0.140609
0.21785
-0.225111
0.140714
0.251057
-0.251162
0.133061
0.283028
-0.275375
0.121977
0.292663
-0.281579
0.112846
0.254669
-0.245538
0.109585
0.144694
-0.141432
0.115286
0.00954571
-0.015247
0.125643
-0.109758
0.0994006
0.130591
-0.175888
0.17094
0.126995
-0.227472
0.231069
0.120465
-0.259322
0.265851
0.118235
-0.246414
0.248644
0.122926
-0.210823
0.206132
0.131464
-0.115101
0.106563
0.136156
-0.0107056
0.00601387
0.133413
0.190906
-0.188163
0.129996
0.338172
-0.334756
0.129754
0.370478
-0.370236
0.129817
0.195063
-0.195125
0.128656
-0.0977449
0.0989055
0.123833
-0.247057
0.25188
0.119135
-0.332517
0.337214
0.111695
-0.123027
0.130468
0.0556257
-0.0504166
0.0191268
-0.126928
0.0128454
-0.134239
0.00571861
-0.140387
0.00158151
-0.145096
0.00426235
-0.144624
0.0149812
-0.133485
0.0318084
-0.108474
0.0516663
-0.0705758
0.0716997
-0.0226908
0.0909931
0.0311604
0.108967
0.0841082
0.124534
0.127174
0.136352
0.155075
0.1439
0.169814
0.148427
0.175451
0.151481
0.174673
0.153045
0.174836
0.152453
0.186544
0.150417
0.20783
0.148858
0.216202
0.148647
0.185216
0.149508
0.107939
0.151738
0.00142163
0.155054
-0.100357
0.157993
-0.172544
0.158762
-0.209703
0.158032
-0.221274
0.156066
-0.218052
0.150399
-0.218491
0.139861
-0.233009
0.127102
-0.243926
0.11619
-0.219474
0.110816
-0.149644
0.113279
-0.0482617
0.122126
0.0606837
0.133738
0.149435
0.142729
0.208859
0.144058
0.249727
0.137708
0.289378
0.127563
0.302809
0.118274
0.263957
0.113043
0.149926
0.116098
0.00648988
0.125407
-0.119067
0.130974
-0.181454
0.127596
-0.224094
0.121328
-0.253054
0.119626
-0.244712
0.124452
-0.215649
0.132037
-0.122685
0.136302
-0.0149706
0.134083
0.193125
0.131478
0.340777
0.131273
0.370682
0.130294
0.196042
0.128267
-0.0957185
0.122881
-0.241671
0.118702
-0.328337
0.112195
-0.116521
0.0609618
0.0493503
-0.123111
0.0421832
-0.127072
0.0304925
-0.128696
0.0165913
-0.131195
0.00621895
-0.134252
0.00453469
-0.1318
0.0129498
-0.116889
0.0289511
-0.0865771
0.0492511
-0.0429908
0.0715636
0.00884793
0.0938962
0.0617756
0.114247
0.106823
0.130585
0.138737
0.142239
0.15816
0.150387
0.167303
0.15643
0.16863
0.160698
0.170568
0.163197
0.184045
0.164656
0.20637
0.165952
0.214906
0.16643
0.184738
0.165225
0.109144
0.163749
0.00289744
0.163053
-0.0996612
0.162439
-0.17193
0.160192
-0.207456
0.156772
-0.217854
0.152793
-0.214074
0.145825
-0.211523
0.134009
-0.221193
0.120072
-0.22999
0.108956
-0.208358
0.104656
-0.145344
0.109045
-0.0526508
0.12048
0.0492484
0.13457
0.135346
0.145322
0.198106
0.148275
0.246774
0.143646
0.294007
0.134718
0.311736
0.125517
0.273159
0.118437
0.157006
0.118187
0.00673947
0.125649
-0.126529
0.131746
-0.187551
0.128708
-0.221056
0.122365
-0.246712
0.120871
-0.243218
0.12569
-0.220468
0.132559
-0.129555
0.136623
-0.0190341
0.135083
0.194665
0.133245
0.342615
0.133099
0.370829
0.131198
0.197944
0.128305
-0.0928257
0.122367
-0.235733
0.118675
-0.324645
0.113091
-0.110937
0.0664874
0.0759003
-0.117715
0.0696418
-0.120814
0.059989
-0.119043
0.0446463
-0.115852
0.025862
-0.115468
0.010965
-0.116903
0.0067544
-0.112678
0.0146595
-0.0944822
0.0317053
-0.0600366
0.0544289
-0.0138757
0.0794085
0.036796
0.103453
0.0827789
0.123861
0.118329
0.139554
0.142467
0.151345
0.155512
0.160371
0.159605
0.167277
0.163661
0.172699
0.178624
0.177458
0.20161
0.181441
0.210922
0.182748
0.183432
0.180014
0.111878
0.175178
0.00773278
0.170834
-0.0953168
0.166693
-0.167789
0.161587
-0.202351
0.155723
-0.211989
0.149887
-0.208239
0.141972
-0.203607
0.129604
-0.208825
0.114998
-0.215384
0.103543
-0.196902
0.0997322
-0.141533
0.105464
-0.0583831
0.119116
0.0355972
0.13551
0.118952
0.148293
0.185323
0.153252
0.241815
0.150525
0.296734
0.142979
0.319282
0.134141
0.281997
0.125559
0.165587
0.121752
0.0105464
0.126482
-0.131258
0.132793
-0.193862
0.13023
-0.218494
0.123565
-0.240046
0.121924
-0.241577
0.12664
-0.225184
0.133016
-0.135931
0.137097
-0.0231144
0.136342
0.19542
0.135254
0.343703
0.135207
0.370876
0.132496
0.200654
0.128783
-0.0891131
0.122282
-0.229231
0.119011
-0.321374
0.114298
-0.106224
0.0721628
0.0990013
-0.108422
0.0899752
-0.111787
0.0816261
-0.110694
0.0710988
-0.105324
0.0545227
-0.0988916
0.0337707
-0.0961513
0.0172199
-0.0961277
0.0128167
-0.090079
0.0221839
-0.0694038
0.0415169
-0.0332086
0.0663871
0.0119257
0.0920238
0.0571423
0.11527
0.0950827
0.134482
0.123255
0.149751
0.140243
0.161707
0.147649
0.171155
0.154214
0.179334
0.170444
0.187181
0.193764
0.193596
0.204507
0.195709
0.18132
0.192392
0.115195
0.185458
0.014667
0.177846
-0.0877051
0.170404
-0.160346
0.162707
-0.194654
0.154758
-0.20404
0.147364
-0.200844
0.138925
-0.195169
0.126611
-0.196511
0.111841
-0.200614
0.100041
-0.185102
0.0961747
-0.137667
0.102525
-0.0647331
0.11773
0.0203921
0.136137
0.100545
0.151151
0.170309
0.158599
0.234367
0.158312
0.297021
0.152393
0.325202
0.143916
0.290473
0.134087
0.175417
0.126746
0.0178874
0.12797
-0.132483
0.134002
-0.199893
0.132071
-0.216563
0.124926
-0.232901
0.122756
-0.239407
0.127295
-0.229723
0.133381
-0.142017
0.137675
-0.0274085
0.137819
0.195276
0.137464
0.344058
0.137571
0.370769
0.134153
0.204072
0.129701
-0.0846609
0.122613
-0.222144
0.11967
-0.318431
0.115793
-0.102347
0.0779467
0.119048
-0.0974359
0.107305
-0.100044
0.0962932
-0.0996827
0.0874028
-0.0964341
0.0778037
-0.0892925
0.062341
-0.0806886
0.0420328
-0.0758195
0.0261093
-0.0741555
0.0232765
-0.066571
0.0347705
-0.0447025
0.0562155
-0.00951934
0.081349
0.0320088
0.105984
0.0704476
0.127828
0.101411
0.146027
0.122044
0.160431
0.133245
0.171841
0.142804
0.182173
0.160111
0.192662
0.183275
0.201387
0.195782
0.204591
0.178116
0.201168
0.118617
0.193228
0.0226072
0.183505
-0.0779822
0.173406
-0.150247
0.163465
-0.184713
0.153808
-0.194383
0.145045
-0.192081
0.136271
-0.186395
0.124626
-0.184867
0.110326
-0.186314
0.0983256
-0.173102
0.0939467
-0.133288
0.100045
-0.0708318
0.115989
0.00444843
0.136067
0.0804669
0.153483
0.152893
0.163742
0.224108
0.166054
0.294709
0.161904
0.329352
0.153955
0.298422
0.143355
0.186016
0.132941
0.0283019
0.130151
-0.129693
0.135246
-0.204989
0.134092
-0.215409
0.126447
-0.225255
0.123361
-0.236321
0.127637
-0.234
0.133628
-0.148008
0.138286
-0.0320666
0.139419
0.194144
0.139798
0.343678
0.140133
0.370434
0.136128
0.208078
0.131038
-0.0795716
0.123346
-0.214452
0.12061
-0.315695
0.117543
-0.0992794
0.0837934
0.130155
-0.0854805
0.118483
-0.0883718
0.106875
-0.0880745
0.0964484
-0.0860078
0.0889203
-0.0817644
0.0819068
-0.0736751
0.0695975
-0.0635102
0.0519481
-0.0565061
0.038089
-0.0527119
0.0371989
-0.0438124
0.0502578
-0.0225782
0.0723596
0.009907
0.0971962
0.0456109
0.121014
0.0775929
0.141611
0.101447
0.157905
0.116951
0.1706
0.130109
0.182298
0.148413
0.194688
0.170884
0.20527
0.1852
0.209584
0.173803
0.206586
0.121615
0.198371
0.0308218
0.187541
-0.0671519
0.175501
-0.138207
0.163666
-0.172878
0.152699
-0.183417
0.142922
-0.182303
0.133853
-0.177325
0.123173
-0.174187
0.109996
-0.173137
0.0981516
-0.161257
0.0929618
-0.128098
0.0979546
-0.0758247
0.11363
-0.0112273
0.134879
0.0592182
0.154769
0.133003
0.168288
0.21059
0.173804
0.289193
0.171797
0.331359
0.164255
0.305964
0.152989
0.197282
0.139959
0.0413317
0.133017
-0.122751
0.136434
-0.208405
0.136131
-0.215105
0.128128
-0.217252
0.123771
-0.231964
0.127644
-0.237873
0.133699
-0.154062
0.138876
-0.037244
0.141094
0.191926
0.142217
0.342555
0.14284
0.369811
0.138372
0.212546
0.132766
-0.0739661
0.124478
-0.206163
0.121793
-0.31301
0.119514
-0.0970003
0.0896476
0.134635
-0.073134
0.122912
-0.0766485
0.112363
-0.0775258
0.102658
-0.0763032
0.0943171
-0.0734233
0.0890023
-0.0683603
0.085058
-0.0595659
0.0770787
-0.0485269
0.0638155
-0.0394487
0.0526618
-0.0326588
0.052718
-0.0226344
0.0659449
-0.00331985
0.0875915
0.0239643
0.111883
0.0533014
0.134334
0.0789969
0.152275
0.09901
0.16604
0.116344
0.178746
0.135708
0.192457
0.157174
0.204445
0.173211
0.210078
0.16817
0.208354
0.123338
0.201081
0.0380948
0.189961
-0.0560318
0.17663
-0.124876
0.163272
-0.15952
0.151274
-0.171419
0.140822
-0.171851
0.131499
-0.168002
0.121795
-0.164483
0.110262
-0.161604
0.0991344
-0.15013
0.0931343
-0.122098
0.0963343
-0.0790246
0.110498
-0.0253914
0.132391
0.0373255
0.154692
0.110702
0.171476
0.193806
0.180156
0.280513
0.180457
0.331057
0.173853
0.312568
0.162193
0.208942
0.147444
0.056081
0.136512
-0.11182
0.137516
-0.20941
0.137999
-0.215588
0.129941
-0.209194
0.124044
-0.226067
0.1273
-0.241129
0.133575
-0.160337
0.139362
-0.043031
0.142715
0.188573
0.144587
0.340682
0.145607
0.368791
0.140824
0.21733
0.134851
-0.0679927
0.126003
-0.197316
0.123172
-0.310178
0.121671
-0.0954999
0.0954416
0.135103
-0.0623201
0.124381
-0.065926
0.114348
-0.0674937
0.105658
-0.0676127
0.0981072
-0.0658725
0.092059
-0.0623121
0.0889461
-0.056453
0.0879816
-0.0475623
0.084751
-0.0362181
0.0769527
-0.0248605
0.0693443
-0.015026
0.0699255
-0.00390111
0.0812687
0.0126211
0.100727
0.0338427
0.122439
0.0572849
0.141459
0.0799908
0.156673
0.101129
0.170835
0.121546
0.185969
0.14204
0.199344
0.159836
0.206682
0.160832
0.207045
0.122976
0.20122
0.0439192
0.190471
-0.0452824
0.176527
-0.110932
0.162131
-0.145124
0.14939
-0.158677
0.138604
-0.161065
0.129104
-0.158503
0.120136
-0.155515
0.110434
-0.151902
0.100668
-0.140364
0.094284
-0.115714
0.0953012
-0.0800419
0.106941
-0.0370309
0.128317
0.0159489
0.152709
0.0863096
0.173346
0.173169
0.185909
0.26795
0.188705
0.328262
0.183022
0.318251
0.171124
0.22084
0.154865
0.0723403
0.140461
-0.0974159
0.138474
-0.207422
0.139513
-0.216628
0.131802
-0.201483
0.124232
-0.218497
0.126591
-0.243488
0.133178
-0.166925
0.139693
-0.0495457
0.144267
0.183998
0.146915
0.338034
0.148401
0.367305
0.143437
0.222294
0.137252
-0.061808
0.127895
-0.187959
0.124724
-0.307008
0.123989
-0.0947643
0.101103
0.133642
-0.0532421
0.124574
-0.0568582
0.115756
-0.0586756
0.107704
-0.0595613
0.100875
-0.0590433
0.0953559
-0.0567931
0.0915002
-0.0525973
0.090161
-0.0462231
0.091129
-0.0371861
0.0918021
-0.0255336
0.0891093
-0.0123332
0.0848604
0.000347821
0.0853097
0.0121718
0.0940368
0.0251157
0.109172
0.0421498
0.125998
0.0631647
0.141897
0.0852297
0.157901
0.105542
0.174782
0.125159
0.189788
0.144831
0.199554
0.151065
0.203077
0.119453
0.199903
0.0470931
0.189965
-0.0353441
0.175564
-0.0965313
0.160302
-0.129862
0.146884
-0.14526
0.135976
-0.150156
0.12649
-0.149017
0.117964
-0.146989
0.109904
-0.143841
0.102001
-0.132461
0.0960189
-0.109732
0.0950927
-0.0791156
0.103382
-0.0453199
0.123004
-0.00367308
0.148682
0.0606312
0.172513
0.149338
0.188781
0.251682
0.194664
0.322379
0.190536
0.322379
0.179195
0.232181
0.162258
0.0892769
0.144779
-0.0799364
0.139297
-0.201941
0.140492
-0.217822
0.133553
-0.194543
0.124364
-0.209308
0.125506
-0.24463
0.132494
-0.173912
0.139806
-0.0568576
0.145594
0.17821
0.149004
0.334625
0.15109
0.365219
0.146154
0.227229
0.139922
-0.0555751
0.130113
-0.17815
0.126432
-0.303326
0.126437
-0.0947699
0.106552
0.13125
-0.0456683
0.123136
-0.0487442
0.115177
-0.0507165
0.107894
-0.0522789
0.101603
-0.0527516
0.0966559
-0.0518463
0.0932472
-0.0491886
0.0914784
-0.0444544
0.0918885
-0.0375961
0.0948299
-0.0284751
0.098673
-0.0161762
0.101314
-0.00229359
0.101333
0.0121535
0.102181
0.0242672
0.107651
0.0366802
0.117455
0.05336
0.129915
0.0727705
0.145028
0.0904286
0.16244
0.107747
0.178998
0.128273
0.191238
0.138826
0.19765
0.11304
0.196277
0.0484658
0.186901
-0.0259671
0.172551
-0.0821821
0.157168
-0.114478
0.143505
-0.131597
0.132717
-0.139368
0.123528
-0.139828
0.115278
-0.138739
0.108408
-0.136971
0.102477
-0.12653
0.0977018
-0.104957
0.0957776
-0.0771914
0.100609
-0.0501518
0.11674
-0.0198033
0.14261
0.0347611
0.170301
0.121647
0.191182
0.230801
0.199835
0.313726
0.196387
0.325828
0.185497
0.243071
0.168874
0.1059
0.149198
-0.0602604
0.14002
-0.192763
0.140861
-0.218664
0.13505
-0.188732
0.124575
-0.198833
0.124166
-0.244221
0.131402
-0.181149
0.139693
-0.0651484
0.146786
0.171117
0.151001
0.330409
0.153736
0.362484
0.148961
0.232004
0.142821
-0.049435
0.132615
-0.167944
0.128274
-0.298986
0.128994
-0.0954893
0.111709
0.127647
-0.0396595
0.120835
-0.041932
0.114109
-0.0439903
0.107712
-0.0458821
0.102001
-0.0470408
0.0971494
-0.0469947
0.0934209
-0.0454601
0.0911985
-0.042232
0.0907111
-0.0371087
0.0924256
-0.0301897
0.0967838
-0.0205344
0.102115
-0.00762483
0.107175
0.00709402
0.111205
0.0202369
0.114785
0.0331001
0.119745
0.0484005
0.127369
0.0651457
0.13831
0.0794874
0.152229
0.0938277
0.167319
0.113183
0.181568
0.124577
0.192106
0.102503
0.194209
0.0463625
0.185494
-0.0172523
0.170605
-0.0672933
0.154713
-0.0985861
0.140569
-0.117453
0.129705
-0.128505
0.120883
-0.131006
0.112764
-0.13062
0.106476
-0.130683
0.102149
-0.122203
0.0988817
-0.101689
0.0969202
-0.0752299
0.0990982
-0.0523298
0.110749
-0.0314537
0.134238
0.0112718
0.163285
0.0925996
0.188537
0.205549
0.202126
0.300137
0.20143
0.326524
0.191147
0.253354
0.175053
0.121994
0.154161
-0.0393685
0.141237
-0.179838
0.14102
-0.218447
0.136371
-0.184083
0.125045
-0.187507
0.122903
-0.242079
0.130222
-0.188467
0.139147
-0.0740741
0.147542
0.162722
0.15258
0.325372
0.156114
0.358949
0.151792
0.236326
0.145939
-0.043582
0.135353
-0.157357
0.130256
-0.293889
0.131633
-0.0968662
0.116481
0.182751
-0.0333189
-0.189092
0.177377
-0.0365571
0.172003
-0.0386166
0.166259
-0.0401382
0.160167
-0.0409487
0.153906
-0.0407337
0.147684
-0.0392386
0.141645
-0.036193
0.135866
-0.0313299
0.130562
-0.0248857
0.126443
-0.0164148
0.12403
-0.00521222
0.122877
0.00824776
0.121493
0.0216204
0.118974
0.0356195
0.116408
0.0509664
0.116348
0.0652052
0.119744
0.0760913
0.126031
0.0875414
0.137693
0.101521
0.159161
0.103108
0.186185
0.0754788
0.205916
0.026632
0.21248
-0.023816
0.208761
-0.0635741
0.199589
-0.0894149
0.188162
-0.106025
0.176956
-0.117299
0.166249
-0.120299
0.155437
-0.119808
0.145616
-0.120862
0.136501
-0.113089
0.126834
-0.0920217
0.117882
-0.0662783
0.112886
-0.0473334
0.115715
-0.0342826
0.127127
-0.000140011
0.141764
0.0779617
0.154477
0.192836
0.162958
0.291656
0.167927
0.321555
0.172567
0.248713
0.174907
0.119654
0.169874
-0.0343348
0.162701
-0.172666
0.15943
-0.215176
0.152147
-0.1768
0.139819
-0.175179
0.134079
-0.23634
0.133596
-0.187984
0.132353
-0.0728312
0.131793
0.163282
0.133915
0.32325
0.140731
0.352134
0.143247
0.23381
0.141402
-0.0417368
0.131372
-0.147328
0.123499
-0.286016
0.12223
-0.0955969
0.12138
0.191364
-0.0282174
-0.196466
0.186083
-0.0312758
0.180731
-0.0332647
0.175152
-0.0345588
0.169361
-0.0351578
0.163509
-0.0348815
0.157786
-0.0335161
0.15239
-0.0307966
0.14754
-0.0264795
0.143311
-0.0206567
0.139947
-0.0130516
0.137902
-0.00316675
0.137712
0.00843789
0.138486
0.0208459
0.139372
0.0347338
0.140682
0.0496565
0.143387
0.0624999
0.147715
0.071763
0.154804
0.0804528
0.168493
0.0878317
0.189852
0.0817497
0.211309
0.0540213
0.223928
0.0140136
0.225005
-0.0248935
0.218348
-0.056917
0.20799
-0.0790569
0.196216
-0.0942506
0.184958
-0.106041
0.174595
-0.109937
0.163976
-0.109189
0.154135
-0.111021
0.14579
-0.104744
0.13753
-0.0837614
0.129363
-0.0581114
0.123685
-0.0416561
0.124858
-0.0354547
0.135323
-0.0106058
0.151431
0.0618538
0.166686
0.177581
0.177387
0.280955
0.183688
0.315254
0.188632
0.243769
0.191469
0.116818
0.186105
-0.0289706
0.176813
-0.163375
0.171756
-0.210119
0.164009
-0.169053
0.15054
-0.16171
0.143699
-0.229498
0.143031
-0.187316
0.141851
-0.0716512
0.141569
0.163564
0.144141
0.320678
0.152331
0.343944
0.155612
0.230529
0.153651
-0.0397759
0.142303
-0.13598
0.132928
-0.276641
0.131882
-0.0945512
0.126326
0.200764
-0.0239848
-0.204996
0.195863
-0.0263745
0.190847
-0.0282495
0.185713
-0.029424
0.180437
-0.0298827
0.175094
-0.0295385
0.169824
-0.0282454
0.164843
-0.0258163
0.160381
-0.0220169
0.156564
-0.0168396
0.153639
-0.0101266
0.152078
-0.0016062
0.152194
0.00832186
0.153854
0.0191857
0.156959
0.031629
0.161673
0.0449428
0.16777
0.0564023
0.17479
0.0647435
0.184155
0.0710872
0.198546
0.0734411
0.21638
0.0639157
0.230897
0.0395047
0.237087
0.00782285
0.234816
-0.0226226
0.227294
-0.0493948
0.217568
-0.0693303
0.206703
-0.0833858
0.195886
-0.0952249
0.185945
-0.0999956
0.175551