/*--------------------------------*- C++ -*----------------------------------*\
| =========                 |                                                 |
| \\      /  F ield         | OpenFOAM: The Open Source CFD Toolbox           |
|  \\    /   O peration     | Version:  2312                                  |
|   \\  /    A nd           | Website:  www.openfoam.com                      |
|    \\/     M anipulation  |                                                 |
\*---------------------------------------------------------------------------*/
FoamFile
{
    version     2.0;
    format      ascii;
    arch        "LSB;label=32;scalar=64";
    class       volVectorField;
    location    "171.7";
    object      U;
}
// * * * * * * * * * * * * * * * * * * * * * * * * * * * * * * * * * * * * * //

dimensions      [0 1 -1 0 0 0 0];

internalField   nonuniform List<vector> 
5478
(
(-0.0267142 0.0279427 -1.20071e-19)
(-0.0215212 0.0393723 0)
(0.0361657 0.0280197 1.85413e-19)
(0.152303 0.00490322 -3.26888e-19)
(0.331725 -0.0215987 2.16498e-19)
(0.555387 -0.0448336 -6.44891e-20)
(0.783992 -0.0615969 -1.10697e-19)
(0.980754 -0.0723954 0)
(1.1224 -0.0780508 0)
(1.204 -0.0807627 1.15278e-19)
(1.23496 -0.0798376 -5.93314e-20)
(1.22335 -0.0756656 -8.02682e-20)
(1.19693 -0.0726714 -2.80774e-20)
(1.15859 -0.0597336 0)
(1.1141 -0.0572509 5.59413e-20)
(-0.023163 0.018318 2.4052e-19)
(0.0028638 0.0188653 0)
(0.108511 0.00412521 0)
(0.302098 -0.0134264 -1.61813e-19)
(0.560841 -0.0235938 2.14283e-19)
(0.825781 -0.025198 6.22521e-20)
(1.04388 -0.0230486 -1.0127e-19)
(1.18874 -0.021751 8.98017e-20)
(1.2594 -0.0237596 2.04597e-19)
(1.27379 -0.0278009 -1.76145e-19)
(1.25104 -0.0320451 2.45129e-21)
(1.21792 -0.0347586 0)
(1.18376 -0.0346163 2.8027e-20)
(1.15593 -0.0272891 0)
(1.13886 -0.0309778 0)
(-0.017095 0.0101565 -5.98379e-22)
(0.0489815 -0.0019169 -1.0975e-19)
(0.23402 -0.0150025 8.6569e-23)
(0.521226 -0.0137906 0)
(0.825426 0.000571988 -6.92633e-20)
(1.06719 0.016808 5.83741e-20)
(1.2157 0.0262642 4.8557e-20)
(1.27875 0.0263884 0)
(1.28497 0.0202681 -6.8891e-20)
(1.26244 0.0119711 5.54771e-20)
(1.23575 0.00557786 4.41825e-20)
(1.21175 0.00204227 0)
(1.19265 0.00242753 0)
(1.17699 0.00354283 -7.89385e-20)
(1.16197 0.00497577 7.03175e-20)
(-0.00402596 0.00258485 -1.2658e-19)
(0.13085 -0.0185199 1.08532e-19)
(0.42378 -0.0139756 -9.3994e-20)
(0.774421 0.0156842 8.11585e-20)
(1.05397 0.046888 1.37275e-19)
(1.21841 0.0653597 -1.14765e-19)
(1.28532 0.069118 -4.85296e-20)
(1.29448 0.0635096 3.65949e-20)
(1.27927 0.0546709 -3.54034e-20)
(1.25992 0.0467815 0)
(1.23983 0.0410494 0)
(1.21917 0.0367257 -6.19544e-20)
(1.19777 0.03387 7.89599e-20)
(1.17597 0.0320736 -4.38759e-20)
(1.15325 0.0271851 0)
(0.0218851 -0.00536192 6.3798e-20)
(0.259617 -0.0232188 5.40027e-20)
(0.652887 0.0164662 -1.91826e-19)
(0.996261 0.0669326 1.87866e-21)
(1.20022 0.0983117 -2.85079e-21)
(1.28594 0.108648 -1.22019e-21)
(1.30441 0.106044 4.43519e-20)
(1.29449 0.0982986 3.7857e-20)
(1.27569 0.0896194 2.64257e-20)
(1.25283 0.0812739 -4.76725e-21)
(1.22863 0.073368 -5.98884e-20)
(1.20556 0.0663576 0)
(1.18516 0.0614813 2.54524e-20)
(1.16811 0.0553334 -1.81445e-20)
(1.15646 0.0542179 3.34303e-20)
(0.0669639 -0.0117413 -1.33698e-19)
(0.43256 -0.00360181 1.45134e-19)
(0.867897 0.0710092 -4.91566e-20)
(1.15042 0.125497 3.78211e-20)
(1.27765 0.147841 -6.89443e-20)
(1.31262 0.150018 -5.1397e-20)
(1.30645 0.143104 1.12896e-21)
(1.28592 0.13301 0)
(1.2614 0.122118 5.40549e-20)
(1.23809 0.111543 -4.80693e-20)
(1.21785 0.102328 1.8904e-20)
(1.20024 0.0945566 0)
(1.1845 0.0878931 1.14272e-20)
(1.16957 0.0816431 -1.93746e-20)
(1.1522 0.0779963 0)
(0.134724 -0.0103265 -1.66097e-20)
(0.620467 0.0466013 1.01707e-21)
(1.03459 0.13879 2.45362e-20)
(1.24428 0.186113 4.03589e-20)
(1.31301 0.19752 -3.07116e-20)
(1.31506 0.191724 5.17248e-20)
(1.29431 0.179886 -1.17734e-20)
(1.26939 0.166808 0)
(1.24647 0.154093 -3.17371e-20)
(1.22572 0.142427 2.18803e-21)
(1.20601 0.131564 2.63334e-20)
(1.18733 0.121508 0)
(1.1697 0.112517 -1.67287e-20)
(1.15325 0.103462 0)
(1.13983 0.099635 9.98619e-21)
(0.22217 0.00586456 -1.77271e-20)
(0.786443 0.119742 0)
(1.14926 0.2137 2.47304e-20)
(1.29224 0.248037 0)
(1.31818 0.24715 0)
(1.30137 0.233577 0)
(1.27541 0.217374 -1.00088e-20)
(1.25021 0.201361 0)
(1.22679 0.185973 6.40321e-21)
(1.20534 0.171273 0)
(1.18654 0.157808 -8.23169e-21)
(1.1705 0.145666 0)
(1.15701 0.13484 5.29583e-21)
(1.14525 0.125315 0)
(1.13266 0.119487 3.39409e-21)
(-0.00216075 -0.0908154 -1.21427e-20)
(-0.0221811 -0.20919 0)
(-0.0655285 -0.268955 1.91658e-20)
(-0.112719 -0.305019 0)
(-0.157976 -0.341937 0)
(-0.199336 -0.383745 0)
(-0.234414 -0.425365 -1.25665e-20)
(-0.260281 -0.46068 0)
(-0.273929 -0.483567 1.04143e-20)
(-0.272984 -0.48818 0)
(-0.255799 -0.469477 -1.71563e-20)
(-0.221934 -0.423446 0)
(-0.172659 -0.347081 1.38608e-20)
(-0.110905 -0.23891 0)
(-0.0510663 -0.101764 1.08096e-20)
(-0.00186169 -0.0643797 6.10078e-20)
(-0.0241013 -0.157717 -4.38038e-20)
(-0.07283 -0.207871 2.00698e-20)
(-0.124543 -0.241178 6.97319e-20)
(-0.17403 -0.278578 5.72557e-22)
(-0.220598 -0.323565 -5.58024e-20)
(-0.262911 -0.372059 3.75105e-20)
(-0.299001 -0.419092 0)
(-0.32663 -0.459177 3.08487e-20)
(-0.34397 -0.486452 1.1586e-22)
(-0.349069 -0.495267 -1.56215e-20)
(-0.3393 -0.479782 0)
(-0.314103 -0.433542 -3.66787e-20)
(-0.278589 -0.352569 0)
(-0.22357 -0.242581 -4.7243e-20)
(-0.00511474 -0.0320346 1.00021e-19)
(-0.0274974 -0.0995431 2.31093e-20)
(-0.0745428 -0.142071 -3.9152e-20)
(-0.122561 -0.17321 -1.06639e-19)
(-0.166338 -0.20973 6.32728e-20)
(-0.205293 -0.255185 5.80333e-20)
(-0.238437 -0.306482 -1.04253e-19)
(-0.26469 -0.359472 0)
(-0.283415 -0.409385 -8.08463e-20)
(-0.295313 -0.451237 7.18873e-20)
(-0.300972 -0.480342 2.95459e-20)
(-0.298119 -0.490929 0)
(-0.283092 -0.475353 2.28104e-20)
(-0.275771 -0.424778 -2.85133e-20)
(-0.216465 -0.351155 0)
(-0.0117728 -0.00066145 5.25332e-20)
(-0.0331419 -0.0432002 -1.38469e-19)
(-0.0730577 -0.0788904 1.64831e-19)
(-0.111233 -0.108065 -1.48531e-19)
(-0.142059 -0.143085 -6.79482e-20)
(-0.163953 -0.187823 6.12848e-20)
(-0.175214 -0.239855 5.28125e-20)
(-0.17481 -0.294798 4.85335e-20)
(-0.163063 -0.347135 -1.23011e-19)
(-0.143005 -0.391511 4.47959e-21)
(-0.119302 -0.424464 3.06649e-20)
(-0.0981985 -0.44351 0)
(-0.053157 -0.440948 3.21248e-20)
(-0.0719469 -0.412192 7.05632e-20)
(0.0281942 -0.366998 -3.76708e-20)
(-0.0199077 0.0241251 1.01395e-21)
(-0.0395278 0.0045768 9.7721e-20)
(-0.0676684 -0.0238238 -8.70953e-20)
(-0.0896235 -0.0507728 7.53542e-20)
(-0.0993273 -0.0844112 1.3843e-19)
(-0.0937899 -0.128333 -1.24779e-19)
(-0.07041 -0.180541 -5.67434e-20)
(-0.0290224 -0.236311 -1.45597e-19)
(0.0275999 -0.289267 1.28126e-19)
(0.0931122 -0.332355 0)
(0.164095 -0.357884 0)
(0.215816 -0.376671 7.71236e-20)
(0.308107 -0.361884 -1.54456e-19)
(0.2939 -0.341606 4.7819e-20)
(0.443299 -0.284829 0)
(-0.0264246 0.038613 -5.15408e-22)
(-0.0426872 0.0381672 -9.89181e-20)
(-0.0545894 0.0173661 2.64528e-19)
(-0.0539511 -0.0075257 -7.87573e-20)
(-0.0336643 -0.0400572 -7.05224e-20)
(0.0113096 -0.0825485 6.35295e-20)
(0.0830643 -0.132866 5.67565e-20)
(0.178094 -0.185536 9.8417e-20)
(0.288415 -0.233824 -1.72e-19)
(0.403273 -0.27021 6.89939e-20)
(0.509249 -0.287737 5.41299e-20)
(0.599265 -0.296578 0)
(0.698253 -0.271261 0)
(0.711383 -0.253139 6.63581e-20)
(0.844647 -0.200807 -5.90883e-20)
(-0.0296308 0.0421943 1.26069e-21)
(-0.04134 0.0541313 0)
(-0.0340073 0.0399359 0)
(-0.00426841 0.0162539 1.63759e-19)
(0.0548619 -0.0161588 -7.16546e-20)
(0.149433 -0.0572465 6.49036e-20)
(0.278325 -0.103079 1.13978e-19)
(0.429917 -0.147294 -1.01062e-19)
(0.58678 -0.184389 8.46715e-20)
(0.732412 -0.207173 -6.90408e-20)
(0.848101 -0.21816 -2.10936e-21)
(0.947422 -0.211665 0)
(1.00322 -0.193199 2.90912e-20)
(1.0366 -0.166724 0)
(1.08818 -0.129148 0)
(-0.0293111 0.0372446 -1.1617e-19)
(-0.0347029 0.0533388 0)
(-0.00594865 0.0428075 -1.85056e-19)
(0.0593392 0.019282 3.27558e-19)
(0.169355 -0.012666 -3.64366e-19)
(0.325937 -0.0492495 -6.44503e-20)
(0.514572 -0.084625 1.13899e-19)
(0.708576 -0.114203 0)
(0.883089 -0.134915 0)
(1.01668 -0.144998 -1.22349e-19)
(1.1085 -0.146958 -3.79804e-20)
(1.15808 -0.13679 8.44348e-20)
(1.16549 -0.125059 -2.9143e-20)
(1.16914 -0.104738 0)
(1.13482 -0.0830717 -5.37393e-20)
(0.0861978 0.162236 0)
(0.271915 0.530588 3.78895e-21)
(0.459384 0.701956 -3.50154e-21)
(0.492654 0.749432 0)
(0.315919 0.838278 0)
(0.386467 0.585644 -1.31538e-22)
(0.649329 -0.0111812 0)
(0.792289 -0.37394 0)
(0.910624 -0.550789 7.28247e-23)
(0.902176 -0.499026 0)
(0.834361 -0.576776 0)
(0.763574 -0.576611 -7.58377e-23)
(0.793899 -0.267559 0)
(0.889135 -0.0670567 -7.96178e-23)
(0.951776 0.332388 -9.03539e-23)
(0.954383 0.475891 0)
(0.995115 0.547813 -4.82583e-22)
(1.00919 0.488752 5.65396e-22)
(0.996588 0.017848 0)
(1.06411 -0.21581 5.25469e-22)
(1.09278 -0.556926 -6.17321e-22)
(1.08639 -0.554469 1.12502e-22)
(1.08104 -0.0149022 -2.39872e-22)
(1.08338 0.227788 2.29206e-22)
(1.12096 0.563161 -2.19246e-22)
(1.20191 0.485162 0)
(1.13697 -0.410378 -2.35242e-22)
(1.06975 -0.616558 2.24929e-22)
(1.09985 0.143029 -1.50181e-22)
(1.02859 0.355647 0)
(1.01134 -0.0086472 -9.6681e-23)
(0.986711 -0.114203 0)
(0.987097 0.00112159 -3.4082e-23)
(0.98001 0.0278394 -1.40511e-23)
(0.977863 0.0026158 1.32501e-24)
(0.972995 -0.00149959 -8.84689e-24)
(0.974323 0.00326888 0)
(0.971702 0.00368113 2.51145e-24)
(-0.153363 -0.00877853 1.67605e-20)
(0.0964315 0.363373 -1.18525e-22)
(0.293821 0.619526 -9.23993e-21)
(0.301012 0.802041 8.81281e-21)
(0.221774 0.847425 0)
(0.481959 0.476626 1.3257e-22)
(0.788827 -0.106222 -3.00767e-22)
(0.909738 -0.443877 0)
(0.979594 -0.578381 -7.33649e-23)
(0.946752 -0.484504 0)
(0.884842 -0.541962 0)
(0.813548 -0.575615 7.63733e-23)
(0.843966 -0.289793 0)
(0.880674 -0.0999931 2.84548e-21)
(0.927117 0.308129 -2.37081e-21)
(0.936145 0.453987 2.269e-21)
(0.946765 0.535849 -2.16588e-21)
(1.00064 0.488067 -1.05281e-22)
(0.994179 0.0198468 0)
(1.08352 -0.230271 0)
(1.11263 -0.557813 -1.20254e-22)
(1.07606 -0.555481 1.16025e-21)
(1.08409 -0.0142723 -2.03686e-21)
(1.05667 0.212921 9.89803e-22)
(1.0972 0.544799 6.53534e-22)
(1.21222 0.483808 0)
(1.15282 -0.387239 4.26376e-22)
(1.0598 -0.618842 0)
(1.08369 0.144081 1.5071e-22)
(1.02847 0.357596 -2.67777e-22)
(1.02105 -0.00384709 4.46345e-22)
(0.991738 -0.113091 -4.31155e-23)
(0.989413 0.00140624 6.94085e-23)
(0.983366 0.02844 3.0517e-24)
(0.981762 0.00300439 1.60447e-23)
(0.97763 -0.0012876 -7.64993e-24)
(0.978718 0.00330291 -6.66838e-25)
(0.977198 0.00380203 6.42581e-25)
(-0.255266 -0.16329 1.83449e-20)
(-0.0164586 0.18324 -3.24656e-20)
(0.116311 0.544338 5.68278e-22)
(0.16344 0.803383 1.32126e-20)
(0.246256 0.773012 2.34103e-22)
(0.614185 0.353658 -3.06846e-22)
(0.937442 -0.175279 3.05925e-22)
(1.02632 -0.472415 -4.6781e-22)
(1.02636 -0.580102 0)
(0.984 -0.462796 6.68272e-21)
(0.917454 -0.502889 -6.37442e-21)
(0.839589 -0.584708 -1.63568e-22)
(0.90093 -0.318206 0)
(0.882362 -0.121536 -5.48283e-21)
(0.903953 0.294724 5.05142e-21)
(0.920681 0.447449 -2.21838e-21)
(0.903649 0.524399 2.1168e-21)
(0.989079 0.483486 1.82329e-21)
(0.993678 0.0275354 -1.5734e-21)
(1.09712 -0.23556 0)
(1.12213 -0.547051 0)
(1.05484 -0.55734 2.25046e-21)
(1.0796 -0.0173172 -2.14881e-21)
(1.02904 0.201726 -1.861e-21)
(1.06531 0.523886 8.48363e-23)
(1.20969 0.482946 1.60237e-21)
(1.16148 -0.354124 -9.61863e-23)
(1.04192 -0.613723 -7.55091e-22)
(1.06224 0.141615 1.7137e-21)
(1.02539 0.359562 -1.30817e-21)
(1.02673 0.00397239 5.92414e-23)
(0.993515 -0.110276 -1.46352e-22)
(0.988573 0.00166516 5.22165e-23)
(0.983643 0.0289676 -4.99261e-23)
(0.982446 0.00343585 -1.03826e-23)
(0.979229 -0.0010883 -5.40059e-24)
(0.979971 0.00329234 1.61437e-23)
(0.979628 0.00385879 2.52088e-24)
(-0.0990613 -0.25789 0)
(0.0014405 -0.0084743 4.33474e-21)
(0.0771805 0.419289 -4.28754e-21)
(0.184053 0.72068 0)
(0.376252 0.655725 -2.40637e-22)
(0.764296 0.237663 3.1528e-22)
(1.07275 -0.225438 0)
(1.14284 -0.469591 1.77029e-23)
(1.07465 -0.570778 -3.15455e-22)
(1.032 -0.448406 0)
(0.970392 -0.455246 -5.84754e-21)
(0.846667 -0.593481 5.74276e-21)
(0.946849 -0.352626 -2.76638e-22)
(0.911106 -0.142241 -5.57253e-21)
(0.8976 0.259563 5.31479e-21)
(0.892754 0.425962 2.99061e-22)
(0.845196 0.509793 0)
(0.958944 0.480455 -1.78168e-22)
(0.990836 0.0384126 3.44529e-21)
(1.10326 -0.237851 2.71261e-22)
(1.12724 -0.532825 4.93965e-22)
(1.02926 -0.558949 -3.17529e-21)
(1.06912 -0.0299542 -3.97925e-21)
(0.999885 0.184138 4.89863e-21)
(1.02485 0.493298 -4.30243e-22)
(1.19181 0.479233 0)
(1.16374 -0.32061 -3.38818e-22)
(1.02074 -0.605433 7.64995e-22)
(1.03478 0.131015 -1.7414e-21)
(1.01647 0.356318 1.32915e-21)
(1.02728 0.0108431 -1.57012e-22)
(0.992064 -0.107228 0)
(0.984773 0.00137103 -5.42157e-23)
(0.980994 0.0292249 9.87842e-23)
(0.980058 0.00381118 3.17436e-23)
(0.977903 -0.000942269 3.06615e-23)
(0.978227 0.00322816 -1.61551e-23)
(0.979064 0.00384809 2.96609e-27)
(0.292574 -0.225291 8.04947e-23)
(0.220267 -0.117096 -1.1354e-23)
(0.19406 0.249847 0)
(0.316999 0.589929 0)
(0.558109 0.547163 0)
(0.931874 0.156791 0)
(1.19182 -0.24874 1.69823e-20)
(1.24632 -0.433342 -2.90775e-20)
(1.12546 -0.534278 1.28705e-20)
(1.06094 -0.437359 0)
(1.03158 -0.393907 -5.74469e-21)
(0.859091 -0.583798 5.64461e-21)
(0.967885 -0.405565 5.47593e-21)
(0.942824 -0.165989 -4.59202e-21)
(0.894238 0.247269 5.54144e-21)
(0.871349 0.432145 -5.58926e-21)
(0.806839 0.496398 -2.19846e-22)
(0.932721 0.466959 -2.75954e-21)
(0.991345 0.0475864 2.62865e-21)
(1.10328 -0.232642 3.99378e-22)
(1.12716 -0.510968 3.66147e-22)
(0.999178 -0.562287 4.36335e-21)
(1.04837 -0.0440649 -4.68166e-21)
(0.970001 0.174645 -1.02434e-21)
(0.986549 0.466816 -4.01296e-22)
(1.16746 0.478006 -2.65738e-22)
(1.15954 -0.280794 0)
(0.996672 -0.593726 0)
(1.00429 0.118907 0)
(1.00593 0.354238 0)
(1.02443 0.019834 4.19659e-22)
(0.98827 -0.102686 -2.48307e-22)
(0.978611 0.00112461 1.11747e-22)
(0.975823 0.0294473 -3.01123e-22)
(0.974966 0.00422643 3.15698e-23)
(0.973957 -0.000794783 6.03026e-24)
(0.97381 0.00313467 -2.08143e-23)
(0.975731 0.00377893 -6.3296e-24)
(0.732919 -0.141525 -8.46379e-23)
(0.636919 -0.100342 -1.24679e-20)
(0.479245 0.12057 1.19118e-20)
(0.496567 0.427839 -4.17407e-21)
(0.738449 0.421546 3.97435e-21)
(1.10279 0.0997047 3.4365e-20)
(1.29332 -0.247203 -3.19185e-20)
(1.30941 -0.381775 4.0277e-22)
(1.17217 -0.479465 -3.21653e-22)
(1.06615 -0.433429 0)
(1.07455 -0.342857 -1.88201e-22)
(0.894845 -0.546474 1.0645e-20)
(0.951781 -0.455528 -1.01345e-20)
(0.958023 -0.196364 -3.69094e-22)
(0.898345 0.202973 0)
(0.8452 0.40805 -4.73076e-21)
(0.753473 0.484294 7.54041e-21)
(0.886916 0.466095 -2.80439e-21)
(0.986508 0.0655669 0)
(1.10368 -0.220643 2.65382e-21)
(1.1227 -0.484686 4.39153e-22)
(0.973192 -0.562575 -3.55501e-21)
(1.02058 -0.0700677 -5.54124e-21)
(0.938441 0.154534 5.16876e-21)
(0.944141 0.431151 -2.6749e-21)
(1.13168 0.473039 9.73112e-22)
(1.1488 -0.241605 1.65419e-21)
(0.976487 -0.580468 -2.90041e-21)
(0.970459 0.0980286 2.75926e-21)
(0.989482 0.346355 -4.47075e-22)
(1.01663 0.0277588 4.25031e-22)
(0.982229 -0.0982369 0)
(0.970461 0.00032527 1.14792e-22)
(0.968484 0.0293965 -2.77147e-23)
(0.967613 0.00457067 0)
(0.967806 -0.000710122 -3.05991e-23)
(0.967173 0.00300103 1.37008e-23)
(0.969986 0.00365385 -2.39128e-24)
(1.00758 -0.0816042 0)
(0.973583 -0.0500772 0)
(0.846438 0.0835352 3.5655e-23)
(0.749111 0.337519 0)
(0.948597 0.330633 0)
(1.27004 0.0686849 2.76141e-20)
(1.36862 -0.215921 -2.63392e-20)
(1.33487 -0.324394 2.27289e-20)
(1.21223 -0.415136 -2.17199e-20)
(1.07419 -0.428595 0)
(1.08633 -0.311508 -1.78613e-22)
(0.948164 -0.4935 1.50888e-22)
(0.92179 -0.500274 -1.2151e-20)
(0.952601 -0.248142 -2.42997e-21)
(0.895011 0.189647 1.31646e-20)
(0.814896 0.428159 1.64034e-22)
(0.726239 0.475389 -1.11026e-22)
(0.866847 0.445348 4.82761e-21)
(0.985838 0.0674671 -4.73539e-21)
(1.1084 -0.206908 0)
(1.11314 -0.449176 0)
(0.951814 -0.563574 -2.63499e-22)
(0.986792 -0.0925206 0)
(0.90311 0.145799 4.1163e-21)
(0.910884 0.407946 -8.55748e-22)
(1.10349 0.47415 -2.43369e-21)
(1.13752 -0.195686 -1.8964e-21)
(0.962815 -0.565992 1.31746e-21)
(0.937549 0.0794135 -3.27187e-22)
(0.9742 0.341321 0)
(1.00709 0.0363084 -2.17902e-22)
(0.975221 -0.0930522 2.06584e-22)
(0.961215 -6.87071e-05 7.38747e-23)
(0.959658 0.0294835 2.53505e-23)
(0.958638 0.00497412 -4.26956e-23)
(0.959992 -0.00059572 1.18331e-23)
(0.958878 0.00288145 0)
(0.962294 0.00349675 4.99641e-24)
(1.09421 -0.0660163 3.29312e-20)
(1.08527 -0.0491576 6.15668e-21)
(1.03202 0.0252668 -1.16889e-20)
(0.963498 0.217304 1.0749e-20)
(1.10474 0.239079 -4.98072e-21)
(1.33737 0.0927291 -1.55186e-22)
(1.37161 -0.119825 0)
(1.32753 -0.23547 -1.89156e-22)
(1.23903 -0.332199 -1.4811e-22)
(1.09813 -0.402535 0)
(1.0889 -0.293535 -1.08829e-20)
(0.990844 -0.431734 1.03608e-20)
(0.896996 -0.501766 1.61801e-22)
(0.911161 -0.31113 1.50636e-20)
(0.868092 0.113815 -1.42612e-20)
(0.786001 0.390685 1.73249e-22)
(0.683755 0.46444 1.17424e-22)
(0.813676 0.452691 0)
(0.97089 0.0987357 5.14423e-21)
(1.12011 -0.180434 -4.88334e-21)
(1.10434 -0.411562 -3.30466e-21)
(0.938247 -0.557084 -1.46506e-21)
(0.945739 -0.12557 4.6105e-21)
(0.865395 0.116133 -4.20122e-21)
(0.872645 0.365299 1.33742e-21)
(1.05508 0.464591 3.77284e-21)
(1.12588 -0.152616 -9.86468e-22)
(0.956648 -0.54763 2.95262e-21)
(0.905357 0.0525861 -2.13726e-21)
(0.952468 0.328506 0)
(0.993183 0.0463074 0)
(0.967223 -0.0870948 0)
(0.95128 -0.00123862 4.5867e-23)
(0.949769 0.0290783 -7.29215e-23)
(0.948621 0.00523807 3.98151e-23)
(0.951054 -0.00060912 -2.54453e-23)
(0.949491 0.00269788 -1.14393e-23)
(0.953167 0.00328774 0)
(1.09712 -0.0308219 0)
(1.08085 -0.00780522 0)
(1.0558 0.0396676 0)
(1.07295 0.136133 0)
(1.18101 0.126639 0)
(1.32687 0.0529835 0)
(1.31998 -0.100617 0)
(1.28046 -0.177813 0)
(1.24635 -0.239154 0)
(1.11543 -0.347397 0)
(1.0937 -0.243078 0)
(1.03148 -0.352335 0)
(0.899675 -0.511096 0)
(0.853596 -0.370529 0)
(0.834117 0.0934164 0)
(0.732279 0.425033 0)
(0.652812 0.46093 0)
(0.830159 0.414626 0)
(0.989199 0.0712566 0)
(1.14123 -0.160546 0)
(1.10391 -0.377181 0)
(0.916625 -0.561701 0)
(0.898047 -0.150611 0)
(0.822589 0.113764 0)
(0.832953 0.342639 0)
(1.03946 0.474962 0)
(1.13464 -0.127443 0)
(0.948029 -0.528484 0)
(0.874698 0.0326631 0)
(0.930487 0.323975 0)
(0.978537 0.0510793 0)
(0.956725 -0.0814629 0)
(0.938918 -0.00106156 0)
(0.937386 0.0297025 0)
(0.935774 0.005753 0)
(0.939186 -0.000499166 0)
(0.937131 0.0026618 0)
(0.940778 0.00309381 0)
(1.10905 -0.000692571 0)
(1.10149 0.00608643 0)
(1.08508 0.0180421 0)
(1.11525 0.0860039 0)
(1.17098 0.058111 0)
(1.24006 0.0150777 0)
(1.26343 -0.0799764 0)
(1.2162 -0.174682 0)
(1.1781 -0.239053 0)
(1.0937 -0.3039 0)
(1.02118 -0.251798 0)
(0.966056 -0.358117 0)
(0.879841 -0.435326 0)
(0.77599 -0.279645 0)
(0.747259 0.161164 0)
(0.63384 0.468432 0)
(0.642511 0.432603 0)
(0.867236 0.332324 0)
(1.03187 -0.0106588 0)
(1.1573 -0.211981 0)
(1.06508 -0.352886 0)
(0.852546 -0.484538 0)
(0.833442 -0.0955203 0)
(0.730964 0.136654 0)
(0.764088 0.318878 0)
(1.03158 0.407309 0)
(1.13461 -0.142086 0)
(0.916069 -0.47754 0)
(0.837721 0.0586562 0)
(0.897587 0.309285 0)
(0.960599 0.0421994 0)
(0.942449 -0.0760288 0)
(0.920747 0.00206432 0)
(0.920175 0.0298218 0)
(0.919112 0.00530273 0)
(0.923584 -0.000798825 0)
(0.92102 0.00247224 0)
(0.924315 0.0027629 0)
(1.10788 0.0101926 0)
(1.11264 0.0206554 0)
(1.10343 0.0133438 0)
(1.12029 0.0417959 0)
(1.15811 0.0244741 0)
(1.17961 -0.00944489 0)
(1.2078 -0.0815631 0)
(1.17817 -0.124525 0)
(1.15019 -0.171547 0)
(1.08659 -0.245488 0)
(1.03742 -0.168991 0)
(1.01997 -0.263254 0)
(0.872925 -0.375254 0)
(0.691547 -0.252646 0)
(0.627428 0.204902 0)
(0.576016 0.487888 0)
(0.713652 0.345701 0)
(0.938206 0.216191 0)
(1.08048 -0.0525086 0)
(1.14699 -0.175927 0)
(1.06781 -0.283347 0)
(0.819279 -0.450353 0)
(0.750039 -0.0897753 0)
(0.63559 0.135659 0)
(0.697297 0.252801 0)
(1.02195 0.34933 0)
(1.15496 -0.112754 0)
(0.891292 -0.431555 0)
(0.79708 0.0522611 0)
(0.86747 0.282937 0)
(0.948189 0.0385166 0)
(0.927791 -0.0694215 0)
(0.902039 0.00344436 0)
(0.903968 0.0292814 0)
(0.903342 0.00525553 0)
(0.90754 -0.000847118 0)
(0.904385 0.00249109 0)
(0.907027 0.00251566 0)
(1.10177 0.019299 0)
(1.10749 0.0197205 0)
(1.11327 0.0084339 0)
(1.11298 0.0202657 0)
(1.13851 -0.00575544 0)
(1.14665 -0.0199266 0)
(1.15833 -0.0725985 0)
(1.13105 -0.116441 0)
(1.11466 -0.151644 0)
(1.05525 -0.209756 0)
(0.984565 -0.185835 0)
(0.977226 -0.26445 0)
(0.859333 -0.253573 0)
(0.679341 -0.121166 0)
(0.572177 0.231948 0)
(0.653508 0.414061 0)
(0.872334 0.242889 0)
(1.03636 0.141669 0)
(1.13308 -0.0985081 0)
(1.10948 -0.19392 0)
(1.05381 -0.229437 0)
(0.802631 -0.341716 0)
(0.642567 -0.0196446 0)
(0.572126 0.147329 0)
(0.657862 0.177976 0)
(0.996938 0.252797 0)
(1.15491 -0.1139 0)
(0.860651 -0.350404 0)
(0.727174 0.0666163 0)
(0.835237 0.251849 0)
(0.944417 0.0263516 0)
(0.914015 -0.061815 0)
(0.881091 0.00690633 0)
(0.888263 0.0287578 0)
(0.890178 0.00481407 0)
(0.893108 -0.000978035 0)
(0.889616 0.00258404 0)
(0.891863 0.00227876 0)
(1.095 0.0206969 0)
(1.10024 0.0183034 0)
(1.10691 0.0034177 0)
(1.10464 0.00688818 0)
(1.12137 -0.0179329 0)
(1.11346 -0.027028 0)
(1.1281 -0.0673168 0)
(1.10172 -0.0920633 0)
(1.08889 -0.114844 0)
(1.05336 -0.160461 0)
(1.00041 -0.110206 0)
(0.970881 -0.174684 0)
(0.847016 -0.170531 0)
(0.749157 -0.0556294 0)
(0.674856 0.206108 0)
(0.839998 0.305792 0)
(1.02342 0.135416 0)
(1.0963 0.0680786 0)
(1.15668 -0.0922883 0)
(1.07599 -0.140448 0)
(1.06215 -0.157345 0)
(0.848402 -0.251645 0)
(0.621372 0.0237409 0)
(0.632369 0.124462 0)
(0.68161 0.0861294 0)
(0.974193 0.161783 0)
(1.15706 -0.0891359 0)
(0.851917 -0.271433 0)
(0.669758 0.0734212 0)
(0.836154 0.208073 0)
(0.962199 0.01676 0)
(0.909999 -0.0492588 0)
(0.868077 0.0105061 0)
(0.883282 0.0265043 0)
(0.889131 0.00420195 0)
(0.888289 -0.000721518 0)
(0.884651 0.00278794 0)
(0.886128 0.00206239 0)
(1.08463 0.0196406 0)
(1.09021 0.0143137 0)
(1.0967 0.00113937 0)
(1.09323 -0.000118981 0)
(1.10363 -0.0225282 0)
(1.09151 -0.0273338 0)
(1.10337 -0.0579543 0)
(1.07466 -0.0748396 0)
(1.06972 -0.0907913 0)
(1.02969 -0.129338 0)
(0.984262 -0.0971771 0)
(0.981394 -0.141225 0)
(0.88312 -0.10474 0)
(0.837837 -0.00251033 0)
(0.810016 0.155538 0)
(0.97743 0.184954 0)
(1.09117 0.0835115 0)
(1.10428 0.0593484 0)
(1.14256 -0.0852511 0)
(1.02411 -0.135001 0)
(1.02924 -0.120387 0)
(0.891371 -0.143944 0)
(0.693903 0.0805999 0)
(0.800451 0.121964 0)
(0.798989 0.0311739 0)
(0.967696 0.0572846 0)
(1.14135 -0.0812542 0)
(0.861833 -0.165817 0)
(0.670791 0.0783264 0)
(0.874513 0.14604 0)
(0.989911 0.00451702 0)
(0.919893 -0.0319974 0)
(0.877002 0.0148021 0)
(0.899167 0.0223828 0)
(0.907981 0.00342264 0)
(0.90178 0.000156191 0)
(0.89886 0.00314958 0)
(0.898534 0.00196144 0)
(1.07424 0.0167254 0)
(1.07902 0.0113834 0)
(1.0844 -0.000477514 0)
(1.08067 -0.00369956 0)
(1.08692 -0.0219337 0)
(1.07423 -0.0260673 0)
(1.08162 -0.0476592 0)
(1.05651 -0.0604495 0)
(1.05454 -0.068409 0)
(1.02625 -0.0922183 0)
(0.993332 -0.0660965 0)
(0.989573 -0.0847787 0)
(0.910994 -0.0566515 0)
(0.904818 0.00110745 0)
(0.905675 0.100523 0)
(1.01886 0.114251 0)
(1.07585 0.0472013 0)
(1.07832 0.0341434 0)
(1.12806 -0.0542993 0)
(1.01319 -0.077151 0)
(1.00727 -0.0744994 0)
(0.929987 -0.0801305 0)
(0.803003 0.0774247 0)
(0.960603 0.0884967 0)
(0.95453 0.0135243 0)
(0.985747 0.0111735 0)
(1.10966 -0.0595923 0)
(0.90951 -0.0787095 0)
(0.758911 0.0688564 0)
(0.936879 0.0854738 0)
(1.02005 0.000480447 0)
(0.950203 -0.0118635 0)
(0.916915 0.0171147 0)
(0.93836 0.0167372 0)
(0.946693 0.00313704 0)
(0.936031 0.00176683 0)
(0.934413 0.00371274 0)
(0.931323 0.00220251 0)
(1.0639 0.0142089 0)
(1.06818 0.00849231 0)
(1.07164 -0.000474805 0)
(1.0687 -0.00503474 0)
(1.07187 -0.0183969 0)
(1.06095 -0.0221286 0)
(1.06499 -0.0377093 0)
(1.04558 -0.0440746 0)
(1.04293 -0.0513979 0)
(1.02221 -0.0636714 0)
(0.997375 -0.050171 0)
(0.99381 -0.0588186 0)
(0.948603 -0.0324804 0)
(0.951916 0.000198917 0)
(0.950976 0.0602487 0)
(1.02311 0.0624324 0)
(1.0553 0.0347691 0)
(1.0529 0.0264326 0)
(1.08494 -0.0437976 0)
(1.00776 -0.0540808 0)
(1.00455 -0.0584772 0)
(0.961031 -0.0388454 0)
(0.902731 0.061551 0)
(1.022 0.054193 0)
(1.01879 0.0184034 0)
(1.00808 -0.0143096 0)
(1.06184 -0.0559863 0)
(0.94297 -0.0117265 0)
(0.876182 0.0699604 0)
(0.993959 0.0435102 0)
(1.03298 -0.00208287 0)
(0.98013 0.00510687 0)
(0.965955 0.0194987 0)
(0.98166 0.0124556 0)
(0.986264 0.00366208 0)
(0.975217 0.00382335 0)
(0.975274 0.00456659 0)
(0.970869 0.00287924 0)
(1.05443 0.011927 0)
(1.0581 0.00675654 0)
(1.05996 0.000169091 0)
(1.05836 -0.00440817 0)
(1.05855 -0.013872 0)
(1.05131 -0.0174044 0)
(1.05133 -0.0278711 0)
(1.03815 -0.0319148 0)
(1.03502 -0.0373266 0)
(1.01982 -0.0428637 0)
(1.00614 -0.0352863 0)
(1.00007 -0.0361558 0)
(0.975518 -0.0172072 0)
(0.979357 -0.00240602 0)
(0.979025 0.0340885 0)
(1.01901 0.0355469 0)
(1.0348 0.0200907 0)
(1.04212 0.0148247 0)
(1.05769 -0.0268983 0)
(1.0116 -0.0260868 0)
(1.0063 -0.0348027 0)
(0.974007 -0.0191606 0)
(0.959465 0.0383452 0)
(1.02607 0.0274412 0)
(1.02984 0.0196644 0)
(1.02688 -0.00820681 0)
(1.0246 -0.0351894 0)
(0.958717 0.0122713 0)
(0.963193 0.0502053 0)
(1.0271 0.0213742 0)
(1.02996 0.00518101 0)
(1.00027 0.0148049 0)
(1.00391 0.0172804 0)
(1.01289 0.00926456 0)
(1.01299 0.00481808 0)
(1.00483 0.00543262 0)
(1.00616 0.00512534 0)
(1.0022 0.00359389 0)
(1.0461 0.0102173 0)
(1.04911 0.00573627 0)
(1.04994 0.00119836 0)
(1.04901 -0.0030952 0)
(1.04795 -0.00943129 0)
(1.04335 -0.0125524 0)
(1.0416 -0.0195445 0)
(1.03326 -0.0217396 0)
(1.0298 -0.0258502 0)
(1.01999 -0.0276935 0)
(1.01161 -0.0237174 0)
(1.00553 -0.0234283 0)
(0.993526 -0.0106123 0)
(0.995839 -0.0033216 0)
(0.994848 0.0173845 0)
(1.01741 0.0178833 0)
(1.02514 0.0121013 0)
(1.03206 0.00897584 0)
(1.03652 -0.0181924 0)
(1.01214 -0.0153654 0)
(1.01031 -0.0242545 0)
(0.98697 -0.00992494 0)
(0.98927 0.0238039 0)
(1.01899 0.0151266 0)
(1.02097 0.0184831 0)
(1.0279 -0.00713168 0)
(1.01205 -0.0246952 0)
(0.980097 0.0190035 0)
(1.00236 0.0367281 0)
(1.02852 0.0138657 0)
(1.02279 0.00954037 0)
(1.01411 0.0163561 0)
(1.02295 0.0144217 0)
(1.02594 0.00850777 0)
(1.02426 0.00606823 0)
(1.0201 0.00616044 0)
(1.02182 0.00535561 0)
(1.01906 0.00415194 0)
(1.03908 0.00887994 0)
(1.0412 0.00530584 0)
(1.04159 0.00217574 0)
(1.04117 -0.00139767 0)
(1.03969 -0.00542565 0)
(1.03706 -0.00825486 0)
(1.03453 -0.012443 0)
(1.0297 -0.0143303 0)
(1.02634 -0.016754 0)
(1.02031 -0.0176685 0)
(1.01505 -0.0156718 0)
(1.01075 -0.0146474 0)
(1.00439 -0.00712306 0)
(1.00556 -0.00309556 0)
(1.00489 0.00767337 0)
(1.01614 0.00904 0)
(1.01923 0.00578692 0)
(1.02548 0.00432689 0)
(1.02577 -0.010269 0)
(1.01344 -0.00724138 0)
(1.01289 -0.0128046 0)
(0.995893 -0.00402824 0)
(1.00215 0.0142091 0)
(1.01441 0.00810157 0)
(1.01716 0.0140494 0)
(1.02644 -0.00081828 0)
(1.00808 -0.0103793 0)
(0.993409 0.0168392 0)
(1.01397 0.024196 0)
(1.02383 0.0123846 0)
(1.01987 0.013089 0)
(1.02015 0.0154803 0)
(1.0273 0.0121822 0)
(1.02832 0.00854629 0)
(1.0271 0.00691601 0)
(1.02548 0.0064189 0)
(1.02681 0.00552134 0)
(1.02517 0.00462733 0)
(1.03312 0.00789781 0)
(1.03456 0.00521928 0)
(1.03494 0.00308377 0)
(1.03466 0.000298076 0)
(1.03334 -0.00230074 0)
(1.03179 -0.00462829 0)
(1.02943 -0.00721219 0)
(1.02683 -0.00870821 0)
(1.02377 -0.0102448 0)
(1.0207 -0.0107965 0)
(1.01684 -0.00981793 0)
(1.01438 -0.00903392 0)
(1.01061 -0.00502049 0)
(1.01107 -0.00262015 0)
(1.01032 0.00258732 0)
(1.01578 0.00371657 0)
(1.017 0.00265149 0)
(1.02053 0.00203266 0)
(1.01994 -0.00576432 0)
(1.01322 -0.00359691 0)
(1.01346 -0.00707585 0)
(1.0032 -0.00171309 0)
(1.00836 0.0086001 0)
(1.01308 0.00535994 0)
(1.0142 0.0101833 0)
(1.02126 0.00113808 0)
(1.00934 -0.00418532 0)
(1.00412 0.0130875 0)
(1.01646 0.0175425 0)
(1.01939 0.0114863 0)
(1.01921 0.0122625 0)
(1.02235 0.0130969 0)
(1.02683 0.0105666 0)
(1.02762 0.00827466 0)
(1.02728 0.00684348 0)
(1.02676 0.00609409 0)
(1.02759 0.00533444 0)
(1.02668 0.00471729 0)
(1.02824 0.00714854 0)
(1.02921 0.00525764 0)
(1.02955 0.00372716 0)
(1.02934 0.00168495 0)
(1.02839 -6.39505e-05 0)
(1.02749 -0.00181619 0)
(1.02566 -0.00346647 0)
(1.02427 -0.00464028 0)
(1.02191 -0.00568379 0)
(1.02038 -0.00608305 0)
(1.01765 -0.00584519 0)
(1.01639 -0.00526809 0)
(1.01387 -0.00341965 0)
(1.01406 -0.00201571 0)
(1.01324 0.000472507 0)
(1.01565 0.00127695 0)
(1.01576 0.000991788 0)
(1.0175 0.000750756 0)
(1.01712 -0.00283325 0)
(1.01337 -0.00140005 0)
(1.01397 -0.00285684 0)
(1.00788 0.000237901 0)
(1.01096 0.00554707 0)
(1.01297 0.00425074 0)
(1.01379 0.00733045 0)
(1.01861 0.00360797 0)
(1.01105 0.00144072 0)
(1.00922 0.0106592 0)
(1.01661 0.0129445 0)
(1.01814 0.0108804 0)
(1.0193 0.0118835 0)
(1.02217 0.0119439 0)
(1.02522 0.00980674 0)
(1.02648 0.00820651 0)
(1.0267 0.00700377 0)
(1.02662 0.00613713 0)
(1.02711 0.0055063 0)
(1.02671 0.00500951 0)
(1.02422 0.00654231 0)
(1.02488 0.00525536 0)
(1.02522 0.00409522 0)
(1.02508 0.00272637 0)
(1.02452 0.00142314 0)
(1.02396 0.000263283 0)
(1.02271 -0.000991149 0)
(1.02193 -0.00174015 0)
(1.02029 -0.00265932 0)
(1.01957 -0.00289581 0)
(1.01772 -0.00308753 0)
(1.01708 -0.00278061 0)
(1.01534 -0.00200886 0)
(1.01542 -0.00136466 0)
(1.01455 -6.63172e-05 0)
(1.01556 0.000192749 0)
(1.01526 0.00048904 0)
(1.01588 0.000373485 0)
(1.01569 -0.0010268 0)
(1.01343 -9.69657e-05 0)
(1.01388 -0.000728731 0)
(1.01072 0.00116285 0)
(1.01235 0.00380706 0)
(1.01326 0.00379675 0)
(1.01351 0.00546458 0)
(1.0163 0.00393801 0)
(1.0126 0.00315568 0)
(1.01268 0.00836869 0)
(1.01652 0.0102329 0)
(1.01741 0.00953415 0)
(1.01903 0.0101243 0)
(1.02159 0.0102133 0)
(1.0238 0.00875041 0)
(1.02528 0.00757643 0)
(1.02581 0.00652284 0)
(1.0261 0.00569129 0)
(1.02638 0.00521047 0)
(1.02637 0.00487076 0)
(1.02091 0.00598215 0)
(1.02142 0.00515147 0)
(1.02172 0.00423063 0)
(1.02167 0.00338499 0)
(1.02137 0.00232464 0)
(1.02105 0.0016465 0)
(1.02028 0.000577299 0)
(1.01982 0.000195058 0)
(1.0188 -0.000692457 0)
(1.01843 -0.000768683 0)
(1.01726 -0.00122021 0)
(1.01694 -0.00106472 0)