/*--------------------------------*- C++ -*----------------------------------*\
| =========                 |                                                 |
| \\      /  F ield         | OpenFOAM: The Open Source CFD Toolbox           |
|  \\    /   O peration     | Version:  2512                                  |
|   \\  /    A nd           | Website:  www.openfoam.com                      |
|    \\/     M anipulation  |                                                 |
\*---------------------------------------------------------------------------*/
FoamFile
{
    version     2.0;
    format      ascii;
    arch        "LSB;label=32;scalar=64";
    class       volVectorField;
    location    "197.25";
    object      U;
}
// * * * * * * * * * * * * * * * * * * * * * * * * * * * * * * * * * * * * * //

dimensions      [0 1 -1 0 0 0 0];

internalField   nonuniform List<vector> 
13248
(
(-0.0236779 0.0174406 3.85808e-20)
(-0.0541862 0.0347804 0)
(-0.0704781 0.0402991 -6.66867e-20)
(-0.0681889 0.0409689 6.17501e-20)
(-0.0434859 0.0398211 5.66851e-20)
(0.0075721 0.0380838 0)
(0.0883431 0.0363015 0)
(0.200196 0.034934 1.26212e-19)
(0.340663 0.0346732 -1.56695e-21)
(0.502699 0.0357166 -1.05927e-19)
(0.675633 0.0378654 9.59757e-20)
(0.846936 0.0404247 -5.91696e-20)
(1.00442 0.0423312 0)
(1.13813 0.0424111 -1.00496e-19)
(1.2417 0.0397161 1.86558e-19)
(1.31305 0.0337639 -4.4357e-20)
(1.35447 0.0245928 -7.8861e-20)
(1.37201 0.0128684 7.35274e-20)
(1.37362 -0.00059691 0)
(1.36739 -0.0160887 0)
(1.35822 -0.0291203 0)
(1.34807 -0.051809 0)
(1.33542 -0.0543006 2.06168e-20)
(1.31759 -0.096577 7.29463e-20)
(-0.0292332 0.0209645 -1.16325e-19)
(-0.0588213 0.0400917 7.35964e-20)
(-0.0638256 0.0450918 -4.55873e-22)
(-0.041619 0.0436327 -9.41235e-20)
(0.0112926 0.0397733 -5.66025e-20)
(0.0983379 0.0357495 -5.27178e-20)
(0.220778 0.0330197 -9.41577e-20)
(0.37495 0.0326965 8.84742e-20)
(0.551236 0.0351467 0)
(0.735205 0.0399333 5.47118e-22)
(0.910985 0.0458697 1.81724e-21)
(1.06473 0.0513357 6.0162e-20)
(1.18709 0.0547406 0)
(1.27435 0.054946 0)
(1.32833 0.0515364 6.74086e-20)
(1.35522 0.0447191 -1.25817e-19)
(1.36357 0.0353199 7.41428e-20)
(1.36159 0.0239973 -6.91299e-20)
(1.35524 0.0116153 -2.97816e-20)
(1.34715 -0.00119268 -5.43484e-20)
(1.33716 -0.0148361 -2.16478e-20)
(1.32586 -0.0271607 -4.06807e-20)
(1.31039 -0.0386495 5.9702e-20)
(1.29868 -0.0550946 1.63854e-20)
(-0.0323677 0.0215764 0)
(-0.0569182 0.0400316 0)
(-0.0456657 0.0443798 3.38887e-20)
(0.00272267 0.0420225 3.08052e-20)
(0.0909768 0.0377442 -7.12723e-22)
(0.220247 0.0347191 -5.47447e-20)
(0.386113 0.0349948 0)
(0.576073 0.0393434 -4.3719e-20)
(0.771419 0.0470544 4.0546e-20)
(0.952438 0.0562725 5.41266e-22)
(1.10364 0.0647073 -6.58712e-20)
(1.21674 0.0703946 -5.88642e-20)
(1.29121 0.0722119 1.62074e-21)
(1.33274 0.070026 -4.64349e-20)
(1.35053 0.0644421 1.11633e-19)
(1.35415 0.0564422 0)
(1.35087 0.0469405 -7.00644e-20)
(1.34466 0.0364777 3.41474e-20)
(1.33691 0.0260285 2.97523e-20)
(1.32748 0.014303 0)
(1.31712 0.00510095 2.38296e-20)
(1.3053 -0.00857065 -7.87333e-20)
(1.29368 -0.0140226 7.3526e-20)
(1.28132 -0.0306098 4.39914e-20)
(-0.0329976 0.0197806 -4.1031e-20)
(-0.0475708 0.0349245 -3.92447e-20)
(-0.014336 0.0380309 3.50035e-20)
(0.0670015 0.0359736 0)
(0.197153 0.0341285 0)
(0.371323 0.0361393 -1.26058e-21)
(0.57448 0.0434571 0)
(0.78299 0.0550608 -1.34606e-19)
(0.972374 0.0682045 1.22732e-19)
(1.12501 0.079786 -1.48268e-19)
(1.23367 0.0875233 3.30312e-20)
(1.30091 0.0904977 0)
(1.33567 0.0890479 5.20748e-20)
(1.34903 0.0842317 -9.50544e-20)
(1.35055 0.0772333 2.2489e-20)
(1.34639 0.068975 5.58178e-20)
(1.33952 0.0599429 -2.92306e-21)
(1.33112 0.0506243 -6.03116e-20)
(1.32156 0.0406757 0)
(1.31157 0.0311792 0)
(1.30089 0.021017 -2.05381e-20)
(1.29025 0.0111969 1.81026e-20)
(1.27817 0.00446101 6.39044e-20)
(1.26711 -0.00999618 -5.96598e-20)
(-0.0310314 0.0164644 -4.33278e-20)
(-0.0294428 0.0265296 -3.99851e-20)
(0.0329444 0.0285376 1.10346e-19)
(0.154633 0.028936 -6.61988e-20)
(0.330913 0.0333286 6.13195e-20)
(0.545241 0.044445 1.10111e-19)
(0.768766 0.0610762 -7.6712e-20)
(0.970774 0.0793083 -9.09574e-20)
(1.13016 0.0949446 2.83338e-21)
(1.23993 0.105305 1.12084e-19)
(1.30506 0.109735 0)
(1.33701 0.109118 2.90211e-20)
(1.3481 0.104964 0)
(1.3479 0.0986625 -4.51715e-20)
(1.34225 0.0911512 6.29498e-20)
(1.33409 0.0829111 7.37894e-22)
(1.32486 0.0742759 -1.58238e-20)
(1.31522 0.0652293 2.94966e-20)
(1.30555 0.056311 2.47393e-20)
(1.2956 0.0470374 -2.18234e-20)
(1.2855 0.0385303 2.0529e-20)
(1.27489 0.0294379 -1.80944e-20)
(1.26412 0.022504 0)
(1.25399 0.0110939 -1.29124e-20)
(-0.0259775 0.0123598 4.33169e-20)
(-0.000599505 0.0169703 4.22101e-20)
(0.0991786 0.0194802 -3.70467e-20)
(0.267397 0.0258102 6.82856e-20)
(0.48779 0.0404875 -6.32494e-20)
(0.727169 0.0627659 5.64295e-20)
(0.94677 0.0873625 -2.67592e-20)
(1.11947 0.108462 6.83353e-20)
(1.23672 0.12263 -4.22905e-20)
(1.30487 0.129341 7.18563e-20)
(1.3374 0.129992 -1.62678e-19)
(1.34795 0.126574 5.85716e-20)
(1.34677 0.120763 -4.95517e-20)
(1.34007 0.11364 4.61295e-20)
(1.33117 0.105785 3.86374e-20)
(1.32162 0.0975334 3.3134e-20)
(1.31198 0.0890086 -9.12756e-20)
(1.30233 0.0804731 5.61295e-20)
(1.29247 0.0717746 -2.47357e-20)
(1.2825 0.0633396 6.29078e-20)
(1.27232 0.0548288 -2.03523e-20)
(1.26219 0.0464916 -4.73062e-20)
(1.25181 0.0395575 4.32167e-20)
(1.24179 0.0292199 1.29084e-20)
(-0.0169436 0.00797888 0)
(0.0409832 0.00823159 5.64699e-22)
(0.186001 0.0144434 7.84658e-20)
(0.402432 0.0309917 -7.20775e-20)
(0.655613 0.0584596 -6.41691e-20)
(0.897598 0.0904799 1.17251e-19)
(1.09131 0.118846 -5.35851e-20)
(1.22341 0.138596 6.91368e-20)
(1.30007 0.148922 -2.10417e-21)
(1.33645 0.151624 -3.75692e-20)
(1.34806 0.149245 7.89227e-20)
(1.34655 0.143917 -1.1455e-19)
(1.33909 0.137026 0)
(1.32943 0.129339 -2.14111e-20)
(1.31921 0.121251 -5.59327e-20)
(1.30894 0.112934 1.74802e-20)
(1.29872 0.10453 8.4607e-22)
(1.28854 0.0960232 -3.6177e-20)
(1.2785 0.0876216 2.82599e-21)
(1.26855 0.0792341 4.11229e-20)
(1.25873 0.0711048 -1.79967e-20)
(1.24893 0.0632877 -6.32755e-21)
(1.2391 0.0558655 2.01075e-20)
(1.22973 0.0470632 0)
(-0.00294751 0.00383116 0)
(0.0966752 0.00229004 2.16183e-20)
(0.292246 0.0166424 -1.02763e-19)
(0.551168 0.0470895 3.68564e-20)
(0.818124 0.0868409 -3.41376e-20)
(1.04132 0.124473 -3.05684e-20)
(1.19727 0.152138 -5.22715e-20)
(1.28917 0.167931 2.62275e-20)
(1.33345 0.173819 2.20123e-20)
(1.34816 0.173003 0)
(1.34723 0.168294 4.662e-20)
(1.33931 0.161569 -6.78121e-20)
(1.32888 0.153874 4.98445e-20)
(1.31787 0.145716 2.14207e-20)
(1.30693 0.137316 -1.69288e-20)
(1.29626 0.128799 -1.36448e-20)
(1.28588 0.120219 -1.2581e-20)
(1.27579 0.111701 3.80148e-20)
(1.26589 0.103241 0)
(1.25616 0.09497 1.80832e-20)
(1.24655 0.0868901 1.45982e-20)
(1.23705 0.0790508 -3.67264e-20)
(1.22762 0.0715035 -2.41989e-20)
(1.2184 0.0637061 2.21397e-20)
(0.0168166 0.000572366 -2.57525e-20)
(0.166529 0.00127022 -1.27702e-21)
(0.41325 0.0286322 2.10925e-20)
(0.701335 0.0744684 5.83821e-20)
(0.961688 0.123166 1.64001e-20)
(1.15252 0.161723 -3.12789e-20)
(1.26884 0.185591 2.79729e-20)
(1.32685 0.196378 -2.36705e-20)
(1.34768 0.198012 4.11817e-20)
(1.34858 0.194255 1.6873e-20)
(1.34054 0.187724 -4.7526e-20)
(1.3293 0.179891 1.3645e-20)
(1.31733 0.171465 2.2635e-20)
(1.30555 0.162759 -1.11141e-20)
(1.2942 0.153929 0)
(1.28328 0.145059 1.57265e-20)
(1.27274 0.136235 2.58131e-20)
(1.26251 0.127485 3.98175e-21)
(1.25259 0.118894 -2.09163e-20)
(1.24296 0.110483 8.4383e-21)
(1.23361 0.102337 0)
(1.22447 0.0944858 -6.30641e-21)
(1.21547 0.08676 -5.9155e-21)
(1.20665 0.079604 0)
(0.0426744 -0.000896621 0)
(0.248758 0.0074088 1.25755e-20)
(0.541229 0.051837 2.30538e-20)
(0.841063 0.111697 -5.99494e-20)
(1.07919 0.164743 1.92318e-20)
(1.23264 0.200464 0)
(1.31329 0.218835 2.65255e-20)
(1.34516 0.22441 -3.6434e-20)
(1.35005 0.222221 -2.05362e-20)
(1.34256 0.215992 9.05615e-21)
(1.33054 0.207894 -1.39236e-20)
(1.31749 0.198984 3.36645e-20)
(1.30469 0.189731 1.62754e-20)
(1.29248 0.180344 -1.1433e-20)
(1.28087 0.170928 -1.26569e-21)
(1.26981 0.161558 -2.92286e-20)
(1.25926 0.152286 1.31102e-20)
(1.24918 0.143181 -3.74113e-22)
(1.23952 0.134277 0)
(1.23022 0.125635 -8.44668e-21)
(1.22121 0.117289 0)
(1.21243 0.109171 1.79457e-20)
(1.20382 0.101354 -2.08548e-20)
(1.19527 0.0945973 9.32875e-21)
(0.0742894 0.000406072 -7.39414e-21)
(0.339628 0.0225476 -3.23936e-20)
(0.667083 0.0862136 3.65063e-20)
(0.962151 0.156608 2.06833e-20)
(1.1692 0.209601 -9.78129e-21)
(1.28612 0.239933 1.54726e-20)
(1.33732 0.252056 -7.489e-21)
(1.35018 0.252619 1.18281e-20)
(1.34468 0.247017 0)
(1.33219 0.23857 2.52734e-20)
(1.31795 0.228946 -1.21864e-21)
(1.3039 0.21887 -1.96201e-20)
(1.29061 0.208648 8.17028e-21)
(1.27812 0.198418 -8.94146e-21)
(1.26637 0.188261 -3.20613e-21)
(1.25529 0.178241 3.85343e-21)
(1.2448 0.168414 -2.8269e-21)
(1.23483 0.158818 -1.50009e-20)
(1.22534 0.149501 9.08437e-21)
(1.21629 0.140499 1.77501e-21)
(1.20763 0.131823 1.51825e-21)
(1.19926 0.123443 1.29728e-21)
(1.1911 0.115526 0)
(1.18301 0.108685 0)
(0.110761 0.00545424 7.4031e-21)
(0.434034 0.0478095 -6.82776e-21)
(0.782776 0.130591 -1.22395e-20)
(1.06058 0.207166 0)
(1.23336 0.256538 -4.84176e-21)
(1.31771 0.279921 -4.21889e-21)
(1.34594 0.285586 -6.87462e-21)
(1.34554 0.281426 0)
(1.33349 0.272662 0)
(1.31811 0.26205 0)
(1.30264 0.250799 0)
(1.28806 0.239384 0)
(1.27452 0.228005 -5.09449e-21)
(1.26194 0.216757 2.28722e-21)
(1.25022 0.205702 3.86082e-21)
(1.23926 0.194887 1.78269e-21)
(1.22898 0.184352 4.2509e-21)
(1.21933 0.174136 0)
(1.21024 0.164273 -9.458e-22)
(1.20166 0.15479 -8.95399e-22)
(1.19349 0.145677 -1.52064e-21)
(1.18564 0.136913 -1.29933e-21)
(1.178 0.128795 0)
(1.17046 0.121647 8.41517e-22)
(-0.00346183 0.0054337 6.04276e-21)
(-0.0165781 0.0568049 -5.74712e-21)
(-0.0385708 0.115555 -1.06348e-20)
(-0.0653133 0.166554 0)
(-0.0944966 0.208598 -1.37987e-20)
(-0.124238 0.246835 4.33554e-21)
(-0.152979 0.28607 -7.89895e-21)
(-0.179629 0.328249 0)
(-0.203352 0.373052 0)
(-0.223308 0.419118 0)
(-0.238553 0.464681 0)
(-0.248067 0.507728 0)
(-0.250822 0.546041 2.12928e-22)
(-0.24585 0.577244 -5.38365e-21)
(-0.232344 0.598947 1.02713e-20)
(-0.209748 0.608912 1.50321e-20)
(-0.177849 0.605212 4.86093e-21)
(-0.136829 0.586426 0)
(-0.0872985 0.551804 4.60746e-21)
(-0.0305162 0.501387 -1.31214e-20)
(0.0321641 0.43595 -8.54816e-21)
(0.0991907 0.356948 -8.243e-21)
(0.167117 0.267237 0)
(0.239032 0.166528 0)
(-0.00308313 0.0129587 -1.79012e-20)
(-0.0148548 0.072856 2.84258e-20)
(-0.0323086 0.138642 -1.02048e-20)
(-0.0534029 0.195475 -1.92177e-20)
(-0.0766806 0.241094 2.69171e-20)
(-0.100385 0.280172 -1.65301e-20)
(-0.122712 0.317917 2.32222e-20)
(-0.142206 0.356914 1.39788e-20)
(-0.157769 0.397197 0)
(-0.168445 0.437422 -1.31619e-20)
(-0.173287 0.475714 -4.56226e-22)
(-0.171338 0.510014 1.13833e-20)
(-0.161727 0.538218 1.61368e-20)
(-0.143727 0.558113 2.12319e-20)
(-0.11682 0.567647 -9.454e-21)
(-0.0808374 0.56505 -2.90684e-20)
(-0.0360279 0.548944 9.92013e-21)
(0.0170127 0.518549 -3.66256e-20)
(0.0773805 0.473717 0)
(0.143571 0.414783 8.80725e-21)
(0.212936 0.343375 8.53253e-21)
(0.287103 0.260431 8.22804e-21)
(0.35461 0.170825 0)
(0.431868 0.0711178 0)
(-0.00298554 0.0157563 0)
(-0.0136208 0.0789188 5.41581e-20)
(-0.0263292 0.149596 -2.00795e-20)
(-0.0408906 0.212231 1.87257e-20)
(-0.0568016 0.262296 -5.09053e-20)
(-0.0727639 0.3029 0)
(-0.0870002 0.339143 -2.92875e-20)
(-0.0977922 0.374362 1.32239e-20)
(-0.103755 0.409334 -2.48121e-20)
(-0.103845 0.443087 1.09999e-20)
(-0.0971781 0.473867 6.76465e-20)
(-0.0828915 0.499708 -3.14398e-20)
(-0.0604217 0.5186 -5.24972e-20)
(-0.0294402 0.528623 -2.09314e-20)
(0.0102533 0.528107 -1.75306e-21)
(0.0584308 0.515699 7.55955e-20)
(0.114502 0.490545 -3.60934e-20)
(0.177508 0.452268 6.2696e-22)
(0.2456 0.401228 0)
(0.319209 0.338078 -3.41784e-20)
(0.390178 0.264993 0)
(0.469476 0.181897 -3.45316e-20)
(0.531354 0.0967224 1.26047e-19)
(0.611984 0.0032004 7.62666e-22)
(-0.00267383 0.0143679 0)
(-0.012416 0.075305 -6.44744e-22)
(-0.0211987 0.147529 1.90717e-20)
(-0.0296671 0.214741 -1.73824e-20)
(-0.0380114 0.269666 1.69145e-20)
(-0.0455514 0.312837 9.01962e-20)
(-0.0509036 0.348315 -2.80097e-20)
(-0.0523965 0.379845 -2.53408e-20)
(-0.0484933 0.409155 4.83443e-20)
(-0.0380182 0.436071 -6.88473e-20)
(-0.0201177 0.459322 2.04319e-20)
(0.00580777 0.477197 1.96759e-20)
(0.0400725 0.487864 0)
(0.0827042 0.489739 1.93279e-20)
(0.133462 0.48149 0)
(0.19176 0.462132 3.46246e-20)
(0.256447 0.431129 -7.23593e-20)
(0.327001 0.388707 1.40376e-20)
(0.399044 0.334985 6.63646e-20)
(0.477706 0.271534 3.41381e-20)
(0.545153 0.200166 0)
(0.627569 0.12174 -9.59433e-20)
(0.680224 0.0437342 3.03483e-20)
(0.763581 -0.0435346 0)
(-0.00185644 0.0101735 0)
(-0.0108933 0.0641776 -6.14324e-20)
(-0.017383 0.133722 -1.84022e-20)
(-0.0215086 0.202614 -3.43149e-20)
(-0.0234926 0.261455 3.17929e-20)
(-0.0231567 0.307839 -2.96523e-20)
(-0.019756 0.343821 5.3421e-20)
(-0.0120644 0.372699 2.51703e-20)
(0.00127617 0.396839 -6.94431e-20)
(0.0214225 0.417042 4.30179e-20)
(0.0491854 0.432854 -6.1089e-20)
(0.085006 0.443126 1.32035e-19)
(0.128963 0.446482 -7.18085e-20)
(0.180786 0.441652 3.37647e-20)
(0.23984 0.427571 1.02704e-19)
(0.305267 0.40377 -3.11826e-20)
(0.375162 0.369449 -2.79545e-20)
(0.449732 0.326324 -3.18584e-20)
(0.522029 0.272459 0)
(0.601245 0.213015 -6.35712e-20)
(0.664156 0.146432 -6.419e-20)
(0.750044 0.0755979 8.70938e-20)
(0.794291 0.00314422 1.15667e-19)
(0.892188 -0.0816235 -1.05702e-19)
(-0.000579607 0.00487062 0)
(-0.00910183 0.0489558 -7.8765e-20)
(-0.0152415 0.111612 1.00987e-21)
(-0.0176516 0.17793 6.72153e-20)
(-0.0158159 0.237745 0)
(-0.00960058 0.286342 0)
(0.00119382 0.323457 0)
(0.0171211 0.351094 -2.39513e-20)
(0.0389968 0.371507 2.01766e-22)
(0.0676357 0.386123 4.03483e-20)
(0.103631 0.395337 -5.88464e-20)
(0.147232 0.398785 -4.78628e-22)
(0.198296 0.395713 0)
(0.256283 0.385363 -3.3749e-20)
(0.320237 0.366896 3.15574e-20)
(0.38898 0.340622 -8.92894e-20)
(0.460681 0.304945 1.22154e-19)
(0.534803 0.263644 3.30832e-20)
(0.606889 0.212067 6.00226e-21)
(0.685849 0.16 -1.11488e-19)
(0.751503 0.0961866 -5.35961e-20)
(0.846849 0.0320604 1.89674e-19)
(0.901035 -0.0414272 -1.24949e-19)
(1.0311 -0.125032 0)
(0.000755267 6.63544e-05 4.05113e-20)
(-0.00772783 0.0334425 3.92004e-20)
(-0.0154077 0.0860586 -3.51305e-20)
(-0.0188697 0.145248 -6.465e-20)
(-0.0164104 0.201526 5.98965e-20)
(-0.00746042 0.249138 -5.36866e-20)
(0.00799934 0.286021 7.40256e-20)
(0.0299524 0.312651 -2.3667e-20)
(0.0585311 0.33054 4.14719e-20)
(0.09394 0.341128 0)
(0.136293 0.345303 3.41023e-20)
(0.185473 0.343373 -6.31094e-20)
(0.241053 0.335242 6.30915e-20)
(0.302321 0.32078 -5.8724e-20)
(0.368408 0.299537 0)
(0.438258 0.272267 5.63692e-20)
(0.511652 0.237423 1.10859e-19)
(0.588714 0.199413 -1.05498e-19)
(0.670501 0.150643 -5.15106e-20)
(0.759669 0.103529 -5.69481e-20)
(0.851345 0.0383578 1.53887e-19)
(0.967065 -0.019026 4.84167e-20)
(1.05324 -0.0972131 -4.39733e-20)
(1.20183 -0.169628 4.14545e-20)
(0.00141297 -0.00293348 -4.05214e-20)
(-0.0081017 0.0209284 1.12726e-19)
(-0.0189944 0.061973 -3.45657e-20)
(-0.0257565 0.110425 6.30849e-20)
(-0.0255283 0.158492 -5.84471e-20)
(-0.0171219 0.200629 -2.9589e-23)
(-0.000372167 0.23394 2.39637e-20)
(0.0244165 0.25776 8.35166e-20)
(0.0568302 0.272733 -1.58076e-21)
(0.0964747 0.279946 -3.71903e-20)
(0.142977 0.280408 0)
(0.196 0.274839 -2.98183e-20)
(0.255281 0.263697 5.72772e-20)
(0.320822 0.247282 5.60241e-20)
(0.393059 0.225567 -2.63319e-20)
(0.473081 0.19913 -1.78294e-21)
(0.562381 0.16655 -2.65235e-20)
(0.661271 0.130358 4.87661e-20)
(0.772383 0.0840452 5.152e-20)
(0.890652 0.0395175 -5.05408e-20)
(1.01722 -0.0225538 4.49874e-20)
(1.14271 -0.0706437 -4.27319e-20)
(1.24836 -0.14477 0)
(1.36204 -0.192537 -4.14751e-20)
(0.000455048 -0.0032964 3.9075e-20)
(-0.011869 0.0136306 -3.74134e-20)
(-0.0272136 0.0431687 3.37797e-20)
(-0.0384963 0.0789637 0)
(-0.0420994 0.115455 0)
(-0.0363271 0.148129 4.94812e-20)
(-0.0207056 0.174193 -4.69336e-20)
(0.00452605 0.192521 3.96907e-20)
(0.0389163 0.203206 -1.87447e-19)
(0.082152 0.207007 4.57488e-22)
(0.134271 0.204902 3.07451e-20)
(0.195879 0.19772 0)
(0.268115 0.186035 -5.50812e-20)
(0.352431 0.170084 1.04175e-19)
(0.450054 0.149949 -7.51134e-20)
(0.561511 0.125413 -1.25876e-19)
(0.685808 0.0961572 -5.00385e-21)
(0.819913 0.0628295 8.92135e-20)
(0.959131 0.0236374 0)
(1.09494 -0.0153172 0)
(1.22172 -0.0646936 -4.50031e-20)
(1.32358 -0.101102 4.27486e-20)
(1.40073 -0.159036 -1.47094e-19)
(1.43949 -0.182014 1.37075e-19)
(-0.00292068 -0.000534917 0)
(-0.019975 0.0126326 0)
(-0.0400944 0.0320072 -1.00493e-19)
(-0.055415 0.0551543 3.14591e-20)
(-0.0621246 0.0789178 1.23391e-21)
(-0.0581294 0.100286 5.04375e-20)
(-0.0422256 0.11713 0)
(-0.0139258 0.128555 -4.05986e-20)
(0.0274112 0.134461 3.70931e-20)
(0.0828275 0.135403 -6.53261e-20)
(0.153701 0.132107 4.88625e-23)
(0.241388 0.125117 5.65678e-20)
(0.346571 0.114871 9.54885e-22)
(0.468653 0.101499 5.29067e-20)
(0.605107 0.0852325 -7.15128e-20)
(0.751414 0.0654543 0)
(0.901109 0.0431835 9.38145e-20)
(1.04645 0.0168433 -1.33393e-19)
(1.17861 -0.0112517 4.12094e-20)
(1.28971 -0.0419022 0)
(1.37173 -0.0755003 3.62914e-20)
(1.42112 -0.102227 1.41233e-19)
(1.4392 -0.141787 -1.31892e-19)
(1.42258 -0.151723 -1.40118e-19)
(-0.00892384 0.00489346 1.13846e-19)
(-0.0317723 0.0174584 -1.4396e-19)
(-0.0549899 0.0291937 5.11788e-22)
(-0.0711061 0.0415976 3.0621e-20)
(-0.0762647 0.0539448 -5.5406e-20)
(-0.0678202 0.0647613 -5.02855e-20)
(-0.0432101 0.0730154 8.87774e-20)
(-0.000359241 0.0782741 -2.63508e-21)
(0.0626781 0.0803235 -7.42051e-20)
(0.147534 0.0795431 1.32527e-19)
(0.254567 0.0764632 -8.5586e-22)
(0.382338 0.0715231 -5.64327e-20)
(0.526996 0.0649686 0)
(0.68245 0.0566805 0)
(0.840846 0.0465572 -2.41937e-20)
(0.993411 0.033809 -4.53647e-20)
(1.13133 0.0191155 -8.89833e-20)
(1.24648 0.000295915 8.29514e-20)
(1.33338 -0.018758 -4.12504e-20)
(1.38842 -0.0430095 7.35164e-20)
(1.41365 -0.0642741 -3.72364e-20)
(1.41458 -0.0872376 6.06618e-20)
(1.39967 -0.113353 -1.42445e-19)
(1.37818 -0.122422 2.74826e-20)
(-0.0164077 0.0115313 3.79013e-20)
(-0.0443313 0.026004 0)
(-0.0667266 0.0332551 6.61097e-20)
(-0.0774431 0.0381467 -6.12172e-20)
(-0.0725807 0.0420918 5.54791e-20)
(-0.0486133 0.0451178 0)
(-0.00186531 0.0472295 0)
(0.0705745 0.0480931 -4.038e-20)
(0.169862 0.0478588 1.71387e-21)
(0.295038 0.0470295 3.49375e-20)
(0.441877 0.0459682 -3.12636e-20)
(0.603111 0.0446986 5.76556e-20)
(0.769298 0.0428746 0)
(0.930088 0.0398714 1.01457e-19)
(1.07554 0.0349164 -1.90003e-19)
(1.19743 0.027302 1.34412e-19)
(1.29012 0.0168183 8.39348e-20)
(1.35164 0.00283334 -7.82529e-20)
(1.384 -0.0120425 0)
(1.39267 -0.0318414 0)
(1.38695 -0.0459922 0)
(1.37393 -0.070745 0)
(1.36157 -0.0843909 2.68008e-20)
(1.34878 -0.102771 -8.825e-20)
(0.313366 0.0502281 -5.18109e-21)
(0.391939 -0.100123 5.20468e-21)
(0.461461 -0.267243 -1.55876e-22)
(0.525244 -0.451023 0)
(0.582668 -0.632062 -3.64385e-21)
(0.625859 -0.77496 6.48932e-21)
(0.650764 -0.850003 -5.39991e-22)
(0.66192 -0.859397 -2.25837e-21)
(0.658795 -0.834092 0)
(0.647153 -0.793887 0)
(0.637845 -0.747609 -7.72895e-23)
(0.622114 -0.722571 -7.47748e-23)
(0.587367 -0.735386 -1.45841e-21)
(0.543518 -0.744301 1.34151e-21)
(0.520448 -0.666721 0)
(0.53881 -0.458354 0)
(0.588826 -0.151903 1.99433e-21)
(0.6499 0.175491 -1.35965e-22)
(0.708906 0.438917 -1.65234e-21)
(0.760218 0.593031 -7.64919e-23)
(0.796806 0.656706 0)
(0.815258 0.666943 0)
(0.828428 0.643762 0)
(0.837541 0.622005 0)
(0.829161 0.645178 0)
(0.798292 0.701205 0)
(0.756638 0.708771 3.19457e-22)
(0.718345 0.589655 -5.18595e-22)
(0.695321 0.335955 0)
(0.691419 0.015293 0)
(0.708584 -0.26901 -4.26876e-22)
(0.737248 -0.449714 4.14779e-22)
(0.771175 -0.532806 1.38235e-22)
(0.794089 -0.561476 0)
(0.787302 -0.576634 0)
(0.739012 -0.586023 1.59946e-22)
(0.671097 -0.548323 -1.55458e-22)
(0.612842 -0.414866 0)
(0.591669 -0.18875 2.09604e-22)
(0.608626 0.0642323 -2.93709e-22)
(0.661445 0.258276 7.37661e-23)
(0.704384 0.381576 0)
(0.704807 0.462745 -1.00257e-22)
(0.666781 0.500192 9.74861e-23)
(0.636011 0.452935 0)
(0.623226 0.296021 0)
(0.64602 0.0893893 -5.0195e-23)
(0.669746 -0.131049 1.49295e-22)
(0.678109 -0.309278 0)
(0.657334 -0.421572 0)
(0.648399 -0.430979 -2.56799e-23)
(0.640864 -0.274149 3.80535e-24)
(0.647651 -0.064831 -2.2891e-24)
(0.62827 0.208582 1.27622e-23)
(0.618503 0.390899 0)
(0.605779 0.361972 0)
(0.613353 0.255484 0)
(0.561628 -0.0891347 0)
(0.545664 -0.305159 0)
(0.528612 -0.111725 0)
(0.497661 -0.0381356 -5.08387e-22)
(0.562978 -0.176336 -2.10834e-20)
(0.62456 -0.334354 9.1142e-22)
(0.685662 -0.512791 1.88581e-20)
(0.738045 -0.685845 2.52251e-22)
(0.768168 -0.812904 0)
(0.770033 -0.870068 -9.46074e-21)
(0.754061 -0.863165 1.69346e-20)
(0.727984 -0.824578 -7.47034e-21)
(0.69411 -0.77905 5.27502e-21)
(0.663993 -0.729805 -5.04524e-21)
(0.635428 -0.6943 4.68348e-21)
(0.591859 -0.694761 -4.5329e-21)
(0.534022 -0.705829 -1.4766e-22)
(0.486359 -0.652423 -6.33281e-21)
(0.475687 -0.476052 6.15033e-21)
(0.50682 -0.193662 -7.0841e-21)
(0.563704 0.120353 6.6825e-21)
(0.630171 0.383374 -5.45221e-21)
(0.695291 0.549501 9.48299e-21)
(0.746605 0.630318 -4.08434e-21)
(0.781151 0.652057 -1.68411e-22)
(0.810203 0.634787 -2.30653e-21)
(0.832508 0.620654 4.47033e-21)
(0.83643 0.654282 -2.16608e-21)
(0.81833 0.719498 1.56449e-22)
(0.789894 0.732198 3.64551e-21)
(0.763998 0.612825 9.89672e-22)
(0.750736 0.350841 -8.93896e-21)
(0.75125 0.0172207 9.10069e-21)
(0.765057 -0.279908 -4.36809e-21)
(0.783025 -0.466446 4.08097e-22)
(0.801834 -0.546656 -1.38521e-22)
(0.8111 -0.564698 2.07149e-22)
(0.795786 -0.564451 0)
(0.740526 -0.561596 0)
(0.665054 -0.522309 -6.25447e-22)
(0.600482 -0.398786 4.5774e-22)
(0.577177 -0.189793 5.30906e-22)
(0.597948 0.0474839 2.04585e-23)
(0.654628 0.238291 -6.59906e-22)
(0.698091 0.372852 1.01076e-22)
(0.700359 0.467812 0)
(0.666486 0.511324 0)
(0.637926 0.461221 0)
(0.625189 0.296399 0)
(0.651266 0.082866 2.61555e-22)
(0.679865 -0.135552 -1.00578e-22)
(0.689908 -0.308635 0)
(0.664601 -0.417546 0)
(0.650837 -0.429261 0)
(0.64062 -0.273929 -3.0098e-23)
(0.646028 -0.0644693 1.61847e-23)
(0.62878 0.211029 -3.27698e-23)
(0.624009 0.392441 0)
(0.614535 0.363297 0)
(0.624159 0.259541 3.77743e-23)
(0.567444 -0.0801979 1.30646e-22)
(0.543616 -0.303586 0)
(0.534518 -0.110187 0)
(0.661932 -0.0981693 5.06854e-22)
(0.714084 -0.2277 -4.22977e-20)
(0.772337 -0.376047 3.97292e-20)
(0.834349 -0.545407 -3.71289e-20)
(0.881975 -0.707048 -2.54036e-22)
(0.897778 -0.815987 0)
(0.879346 -0.855341 -1.93395e-20)
(0.839722 -0.83885 1.88722e-20)
(0.794263 -0.795723 1.03582e-22)
(0.744957 -0.751601 1.64763e-22)
(0.697912 -0.705829 1.40613e-22)
(0.657333 -0.662952 1.39604e-22)
(0.607267 -0.649612 -8.67207e-21)
(0.538613 -0.660083 8.57019e-21)
(0.470771 -0.630073 0)
(0.433845 -0.490522 3.10125e-22)
(0.442645 -0.239415 -1.20393e-20)
(0.490755 0.0562199 1.18909e-20)
(0.561497 0.316726 0)
(0.636555 0.494833 0)
(0.699838 0.59291 -6.08352e-21)
(0.748928 0.627446 1.08822e-20)
(0.792906 0.618002 -9.03431e-21)
(0.828945 0.611333 1.44026e-23)
(0.846239 0.654262 8.84035e-21)
(0.841803 0.729856 -1.06029e-20)
(0.826956 0.751807 1.26382e-20)
(0.813526 0.636377 1.36669e-21)
(0.811306 0.371291 -8.79957e-21)
(0.816547 0.0300285 0)
(0.826322 -0.277919 0)
(0.833581 -0.471455 2.08532e-21)
(0.8375 -0.55207 -2.84024e-21)
(0.832845 -0.563857 9.31086e-25)
(0.810231 -0.550564 1.11615e-21)
(0.749956 -0.536203 -1.08456e-21)
(0.667668 -0.496882 0)
(0.597393 -0.385388 1.50791e-22)
(0.572091 -0.194204 1.26859e-21)
(0.595029 0.0279407 -2.26974e-21)
(0.653398 0.217033 9.41113e-22)
(0.696976 0.363516 6.74909e-23)
(0.702246 0.47238 -9.26813e-22)
(0.67243 0.522509 7.38069e-22)
(0.645064 0.470717 2.50986e-22)
(0.63179 0.298313 2.97445e-22)
(0.66043 0.0771407 -2.62253e-22)
(0.693575 -0.139225 0)
(0.706102 -0.3067 0)
(0.675941 -0.41209 -5.00134e-22)
(0.656547 -0.427436 2.22283e-22)
(0.64343 -0.274444 -1.12e-22)
(0.647936 -0.0650308 1.29971e-22)
(0.633087 0.211783 1.44328e-22)
(0.633189 0.39352 -5.66879e-23)
(0.626467 0.36418 1.42146e-22)
(0.638606 0.2642 -1.73108e-22)
(0.578216 -0.0693854 1.28779e-22)
(0.545963 -0.302034 0)
(0.543839 -0.109922 0)
(0.80235 -0.140119 -8.35239e-20)
(0.85112 -0.266944 1.59982e-21)
(0.914766 -0.412461 7.74641e-20)
(0.979046 -0.572401 -5.69049e-22)
(1.01733 -0.715669 0)
(1.01354 -0.801657 0)
(0.973233 -0.822732 -3.7383e-20)
(0.91336 -0.800072 6.45452e-21)
(0.852318 -0.75609 4.03828e-20)
(0.793426 -0.712864 -1.85176e-21)
(0.735373 -0.674198 -9.58378e-21)
(0.684504 -0.631349 -7.40317e-21)
(0.631932 -0.602362 7.41133e-21)
(0.560369 -0.602828 0)
(0.478034 -0.591279 -8.46967e-21)
(0.417449 -0.493881 7.66977e-21)
(0.403051 -0.284018 0)
(0.437457 -0.0129856 0)
(0.505811 0.241072 7.89961e-21)
(0.58504 0.429834 -1.27112e-21)
(0.657152 0.544948 -6.02516e-21)
(0.718967 0.592982 -4.40504e-21)
(0.776143 0.592012 4.3536e-21)
(0.824601 0.592032 -4.14155e-21)
(0.856145 0.642799 -5.41954e-22)
(0.867143 0.728642 4.44364e-21)
(0.865716 0.76229 7.83907e-22)
(0.864611 0.65644 1.14731e-23)
(0.873808 0.3949 0)
(0.884462 0.0497641 9.84216e-21)
(0.891125 -0.267727 -1.01287e-20)
(0.888604 -0.468669 4.31389e-22)
(0.878417 -0.550548 0)
(0.858903 -0.559189 -2.10645e-22)
(0.828872 -0.53627 2.07004e-21)
(0.765835 -0.510269 -3.48873e-21)
(0.678294 -0.470481 -2.07222e-22)
(0.602341 -0.37282 -1.64719e-22)
(0.574666 -0.20131 1.53438e-21)
(0.598166 0.00641596 2.26966e-22)
(0.65702 0.194359 -1.31721e-21)
(0.7012 0.351859 1.11009e-21)
(0.709914 0.474454 1.95763e-23)
(0.683587 0.533289 9.34591e-22)
(0.657542 0.481927 -1.1605e-21)
(0.643852 0.302284 -2.24029e-21)
(0.674023 0.0722269 5.78721e-22)
(0.710878 -0.142765 9.63308e-22)
(0.726508 -0.304024 -1.62872e-21)
(0.691324 -0.404981 9.45476e-22)
(0.665497 -0.424892 -1.05903e-22)
(0.649201 -0.275606 2.23665e-22)
(0.653196 -0.0666253 7.445e-23)
(0.640944 0.210773 -1.40455e-22)
(0.645683 0.394121 -2.94727e-23)
(0.641295 0.364669 -1.56622e-22)
(0.656411 0.26929 0)
(0.593979 -0.056854 -1.19157e-22)
(0.552825 -0.300265 1.71704e-22)
(0.556368 -0.110776 0)
(0.9313 -0.176238 7.85101e-20)
(0.987306 -0.302483 -1.52095e-19)
(1.05823 -0.44207 7.27609e-20)
(1.11711 -0.583474 6.30593e-20)
(1.13635 -0.696415 -1.1531e-19)
(1.10802 -0.755187 8.49485e-21)
(1.0475 -0.762809 4.29947e-20)
(0.974061 -0.742011 2.80007e-20)
(0.903015 -0.707224 -2.73827e-20)
(0.83904 -0.668477 0)
(0.775872 -0.635158 -1.54235e-20)
(0.716948 -0.599541 2.84873e-20)
(0.662399 -0.563499 -1.31446e-20)
(0.594326 -0.548877 0)
(0.506891 -0.543384 0)
(0.427168 -0.484222 2.44725e-22)
(0.389459 -0.322413 -1.50076e-20)
(0.405423 -0.0837011 1.45711e-20)
(0.464169 0.159248 0)
(0.541836 0.356259 1.07543e-20)
(0.618877 0.487333 -1.85546e-20)
(0.690409 0.549649 1.52632e-20)
(0.758757 0.558331 -1.37915e-20)
(0.819559 0.563483 -6.2434e-22)
(0.865239 0.618619 1.54923e-20)
(0.889814 0.714641 -8.39893e-21)
(0.902048 0.764977 -3.88778e-22)
(0.914603 0.676112 -8.46226e-21)
(0.934959 0.425188 -1.42375e-21)
(0.951435 0.0797431 9.8404e-21)
(0.956405 -0.24612 5.76125e-22)
(0.945472 -0.455593 -6.16369e-21)
(0.922844 -0.540721 1.02101e-20)
(0.888729 -0.549293 -4.51297e-21)
(0.851067 -0.520998 0)
(0.787526 -0.485176 -1.62195e-21)
(0.696684 -0.444118 1.55298e-21)
(0.614404 -0.360576 -1.21762e-21)
(0.583139 -0.210163 1.51797e-21)
(0.605792 -0.0176662 -1.3825e-22)
(0.664426 0.168938 0)
(0.709866 0.337711 -1.00301e-22)
(0.723273 0.475095 4.05078e-22)
(0.701401 0.543199 0)
(0.676952 0.493991 3.12554e-21)
(0.662623 0.308339 -1.08686e-21)
(0.692749 0.0686408 6.68593e-22)
(0.731678 -0.145897 6.20855e-22)
(0.75081 -0.300435 0)
(0.710647 -0.396046 0)
(0.677552 -0.421444 -3.94869e-22)
(0.657731 -0.277433 3.58867e-22)
(0.661522 -0.0693799 -8.12848e-23)
(0.652032 0.207868 -7.86057e-23)
(0.661167 0.393987 7.12554e-23)
(0.658682 0.364587 1.56792e-22)
(0.677176 0.274482 -4.808e-22)
(0.614599 -0.0427513 0)
(0.564282 -0.29799 -2.75499e-22)
(0.571883 -0.112591 -1.41243e-23)
(1.07489 -0.218115 7.23668e-20)
(1.13456 -0.338615 -7.16407e-20)
(1.20067 -0.460997 5.49023e-22)
(1.23845 -0.574034 -4.44446e-22)
(1.22868 -0.655235 4.36249e-22)
(1.17688 -0.692763 -3.63745e-22)
(1.10355 -0.694831 5.39502e-22)
(1.02567 -0.678482 0)
(0.950373 -0.653837 -3.51924e-22)
(0.882532 -0.622518 2.82369e-22)
(0.817814 -0.592048 2.28074e-22)
(0.753596 -0.562878 -2.10846e-22)
(0.696234 -0.527494 0)
(0.635365 -0.499514 0)
(0.552845 -0.489303 1.27968e-22)
(0.46154 -0.45825 0)
(0.400452 -0.34703 -1.3542e-22)
(0.393512 -0.149956 0)
(0.436742 0.0758777 -9.31412e-21)
(0.507475 0.276597 1.69909e-20)
(0.585199 0.421143 -1.40715e-20)
(0.663206 0.497414 6.2932e-21)
(0.740518 0.515753 5.34499e-21)
(0.811396 0.525319 -5.18801e-21)
(0.869275 0.584163 -7.53036e-21)
(0.908798 0.689203 7.37011e-21)
(0.935841 0.755223 0)
(0.960097 0.686177 4.33139e-22)
(0.990061 0.453777 0)
(1.01293 0.1165 0)
(1.01909 -0.214638 1.54148e-20)
(1.00245 -0.433728 -1.60388e-20)
(0.969712 -0.523995 6.12868e-22)
(0.921842 -0.534826 4.15707e-22)
(0.875221 -0.504857 -2.5212e-22)
(0.81291 -0.460758 -1.17359e-21)
(0.721854 -0.41693 1.13938e-21)
(0.632973 -0.347087 -1.12272e-21)
(0.595862 -0.2193 9.52412e-22)
(0.616168 -0.0438724 2.29463e-22)
(0.674606 0.141007 -6.84757e-22)
(0.722622 0.319238 -1.77475e-22)
(0.741313 0.470431 5.31239e-22)
(0.723628 0.551551 0)
(0.702149 0.508275 -1.17628e-21)
(0.688485 0.31759 2.37832e-21)
(0.717169 0.0672229 -3.02033e-21)
(0.755906 -0.148552 -6.2501e-22)
(0.778568 -0.296211 0)
(0.733756 -0.38518 1.55094e-22)
(0.692546 -0.416694 -4.32928e-22)
(0.668751 -0.27976 -2.63629e-23)
(0.672573 -0.0733194 6.611e-23)
(0.66595 0.203045 -4.23256e-23)
(0.679212 0.393343 -2.34278e-23)
(0.678205 0.364063 0)
(0.700386 0.279521 4.81085e-22)
(0.639755 -0.0272889 0)
(0.580364 -0.294946 0)
(0.590164 -0.1152 3.31985e-23)
(1.23694 -0.25655 -6.52462e-20)
(1.28049 -0.360171 6.41326e-20)
(1.32048 -0.454288 -4.30826e-22)
(1.32338 -0.534207 4.5564e-22)
(1.28296 -0.587785 0)
(1.21523 -0.612904 0)
(1.13815 -0.618329 -5.52816e-22)
(1.06294 -0.611344 0)
(0.990487 -0.596854 3.60465e-22)