/*--------------------------------*- C++ -*----------------------------------*\
| =========                 |                                                 |
| \\      /  F ield         | OpenFOAM: The Open Source CFD Toolbox           |
|  \\    /   O peration     | Version:  2312                                  |
|   \\  /    A nd           | Website:  www.openfoam.com                      |
|    \\/     M anipulation  |                                                 |
\*---------------------------------------------------------------------------*/
FoamFile
{
    version     2.0;
    format      ascii;
    arch        "LSB;label=32;scalar=64";
    class       volVectorField;
    location    "96.55";
    object      U;
}
// * * * * * * * * * * * * * * * * * * * * * * * * * * * * * * * * * * * * * //

dimensions      [0 1 -1 0 0 0 0];

internalField   nonuniform List<vector> 
5478
(
(-0.0411164 0.0244008 -7.76348e-20)
(-0.0767827 0.0396734 0)
(-0.0654521 0.0398244 1.16052e-19)
(0.0137493 0.036644 -2.01762e-19)
(0.17538 0.0335998 1.29233e-19)
(0.406846 0.0335399 -3.96525e-20)
(0.669648 0.0385447 -6.49386e-20)
(0.921734 0.0456673 0)
(1.1315 0.0517243 0)
(1.27925 0.0495728 8.52987e-20)
(1.35868 0.0399802 -3.79701e-20)
(1.38 0.0224415 -6.60563e-20)
(1.35662 -0.0107812 -2.63224e-20)
(1.32262 -0.0151168 0)
(1.30474 -0.0809163 7.30955e-20)
(-0.0515982 0.0308511 1.56016e-19)
(-0.0684495 0.0430768 0)
(-0.00141926 0.0363126 0)
(0.170602 0.0300101 -1.0219e-19)
(0.435918 0.0335921 1.33955e-19)
(0.732365 0.0468804 3.75329e-20)
(0.996533 0.0633584 -6.38764e-20)
(1.19124 0.0759705 5.66371e-20)
(1.30558 0.0789281 1.39995e-19)
(1.34929 0.0714384 -1.22526e-19)
(1.34836 0.0565508 2.64748e-21)
(1.32788 0.0344561 0)
(1.31485 0.0192942 2.62774e-20)
(1.30817 -0.00464136 0)
(1.29626 -0.025493 0)
(-0.054208 0.0293139 -4.58234e-22)
(-0.0346765 0.0348999 -7.37035e-20)
(0.118348 0.0285697 5.65468e-22)
(0.405574 0.0362604 0)
(0.740419 0.0595092 -4.58892e-20)
(1.02491 0.0853408 3.86308e-20)
(1.21348 0.102901 3.22864e-20)
(1.30704 0.107549 0)
(1.33327 0.100844 -4.6621e-20)
(1.3288 0.0881692 3.95003e-20)
(1.31809 0.0718197 3.34064e-20)
(1.31233 0.0590233 0)
(1.30176 0.0390461 0)
(1.28164 0.0297287 -7.12913e-20)
(1.25694 0.00801986 6.34901e-20)
(-0.0470877 0.0217995 -8.65194e-20)
(0.0359592 0.0180898 7.26615e-20)
(0.309353 0.0276477 -6.26643e-20)
(0.685351 0.0644174 5.55021e-20)
(1.00777 0.104292 9.24221e-20)
(1.20983 0.129645 -7.72022e-20)
(1.30238 0.137134 -3.22679e-20)
(1.32804 0.131824 2.52073e-20)
(1.32733 0.121054 -2.41047e-20)
(1.31947 0.107603 0)
(1.3088 0.0953372 0)
(1.29085 0.0785023 -4.79877e-20)
(1.27119 0.0670288 6.25862e-20)
(1.25489 0.0504931 -3.52671e-20)
(1.2439 0.0331643 0)
(-0.0271834 0.0113188 4.38929e-20)
(0.157497 0.00555681 3.67725e-20)
(0.554738 0.0522333 -1.32835e-19)
(0.93828 0.113647 2.03227e-21)
(1.18132 0.153606 -1.28187e-21)
(1.29328 0.167975 -1.43556e-21)
(1.32766 0.165758 3.10838e-20)
(1.32875 0.156357 2.61356e-20)
(1.31692 0.143802 1.89457e-20)
(1.29995 0.1308 -2.85838e-21)
(1.28119 0.115573 -4.31056e-20)
(1.2665 0.102783 0)
(1.25423 0.0881711 1.97248e-20)
(1.24013 0.0741346 -1.47688e-20)
(1.22216 0.0645738 2.63059e-20)
(0.0117962 0.000790527 -9.59723e-20)
(0.334061 0.0156313 1.03451e-19)
(0.794774 0.103269 -3.57021e-20)
(1.11702 0.170209 2.65824e-20)
(1.27355 0.199014 -4.92699e-20)
(1.32583 0.202749 -3.64472e-20)
(1.3295 0.194788 1.16779e-21)
(1.31497 0.18205 0)
(1.29668 0.168086 3.83393e-20)
(1.28005 0.153085 -3.40944e-20)
(1.26617 0.139527 1.36427e-20)
(1.25091 0.124792 0)
(1.23384 0.111815 8.26706e-21)
(1.21784 0.097927 -1.47593e-20)
(1.20535 0.0861781 0)
(0.0757325 -0.00310174 -1.20274e-20)
(0.537392 0.0597042 1.23982e-21)
(0.984187 0.168699 1.72376e-20)
(1.22663 0.227338 2.929e-20)
(1.31589 0.243216 -2.23394e-20)
(1.32914 0.237894 3.74613e-20)
(1.31518 0.224614 -8.49176e-21)
(1.29613 0.209339 0)
(1.27779 0.193463 -2.24628e-20)
(1.26009 0.178187 1.56608e-21)
(1.24217 0.162381 1.85698e-20)
(1.22642 0.147851 0)
(1.21345 0.133471 -1.19829e-20)
(1.20115 0.119361 0)
(1.18715 0.111354 7.27094e-21)
(0.163556 0.0077398 -1.34532e-20)
(0.722773 0.130604 0)
(1.11655 0.241294 1.85445e-20)
(1.2844 0.28497 0)
(1.32442 0.287286 0)
(1.31543 0.273735 0)
(1.29448 0.256242 -7.2082e-21)
(1.27267 0.237991 0)
(1.2525 0.220028 4.52934e-21)
(1.23493 0.202174 0)
(1.2203 0.18564 -5.7707e-21)
(1.2064 0.169527 0)
(1.19222 0.154519 3.71132e-21)
(1.1792 0.140642 0)
(1.16823 0.129685 2.38773e-21)
(-0.00776681 0.0248189 -1.12612e-20)
(-0.0339986 0.111065 0)
(-0.0754338 0.176815 1.75539e-20)
(-0.119367 0.224972 0)
(-0.160272 0.272377 0)
(-0.195369 0.324958 0)
(-0.221834 0.379989 -1.10774e-20)
(-0.236441 0.432664 0)
(-0.235963 0.477327 9.21642e-21)
(-0.217909 0.507609 0)
(-0.180201 0.517646 -1.59153e-20)
(-0.122323 0.50104 0)
(-0.0483971 0.452523 1.4135e-20)
(0.0432813 0.371636 0)
(0.141455 0.263579 1.24678e-20)
(-0.00685308 0.0370098 5.53754e-20)
(-0.0280786 0.138787 -3.87312e-20)
(-0.0568331 0.216153 1.60487e-20)
(-0.0869951 0.267602 5.96535e-20)
(-0.112627 0.310664 1.58414e-22)
(-0.129461 0.354028 -4.76785e-20)
(-0.134202 0.396134 3.22923e-20)
(-0.123996 0.432076 0)
(-0.0963777 0.456744 2.74518e-20)
(-0.0491617 0.465016 1.70886e-21)
(0.0165199 0.451026 -1.46454e-20)
(0.101573 0.412912 0)
(0.204596 0.349837 -4.1848e-20)
(0.304998 0.248934 0)
(0.431667 0.153245 -6.36517e-20)
(-0.00619837 0.0353031 8.54073e-20)
(-0.0233485 0.141886 1.84353e-20)
(-0.0381342 0.23085 -3.35191e-20)
(-0.0512045 0.288356 -8.69001e-20)
(-0.0578778 0.327814 5.07234e-20)
(-0.0535005 0.360726 4.52007e-20)
(-0.0345777 0.388912 -7.89833e-20)
(0.00128548 0.409083 0)
(0.0551794 0.41616 -6.90703e-20)
(0.126597 0.406249 6.1407e-20)
(0.219966 0.37872 2.8607e-20)
(0.311724 0.319838 0)
(0.444193 0.258209 2.76992e-20)
(0.528631 0.142573 -4.93678e-20)
(0.68091 0.0651518 0)
(-0.00464966 0.0238379 4.09026e-20)
(-0.020914 0.121222 -1.09482e-19)
(-0.0266239 0.215368 1.26639e-19)
(-0.0245483 0.279961 -1.09406e-19)
(-0.0126162 0.319226 -4.68423e-20)
(0.0122475 0.343766 4.09421e-20)
(0.0525328 0.358588 3.892e-20)
(0.109571 0.362911 3.249e-20)
(0.184348 0.357236 -9.33586e-20)
(0.270321 0.328729 -3.10236e-21)
(0.380834 0.300284 2.45618e-20)
(0.473743 0.226674 0)
(0.622695 0.176267 4.75052e-20)
(0.707311 0.0667716 1.45827e-19)
(0.889741 -0.0152521 -8.56929e-20)
(-0.00291705 0.0103708 -6.04796e-22)
(-0.0217623 0.0872134 6.9818e-20)
(-0.026996 0.173443 -6.03866e-20)
(-0.0173881 0.238185 5.39575e-20)
(0.00753939 0.276881 9.13455e-20)
(0.0482005 0.295718 -7.93311e-20)
(0.104686 0.300722 -3.35376e-20)
(0.176579 0.292461 -9.53717e-20)
(0.262946 0.278551 8.55296e-20)
(0.364969 0.241061 0)
(0.481221 0.212714 0)
(0.611829 0.139373 9.814e-20)
(0.775276 0.0917977 -2.28028e-19)
(0.905578 -0.0142097 8.30246e-20)
(1.13008 -0.0907562 0)
(-0.00380223 0.00204396 2.52097e-22)
(-0.0286365 0.054945 -6.90509e-20)
(-0.0408859 0.120201 1.79285e-19)
(-0.0326194 0.172419 -5.17446e-20)
(-0.00337668 0.203577 -4.45395e-20)
(0.0456151 0.215737 3.84213e-20)
(0.114147 0.214174 3.35607e-20)
(0.204467 0.201669 5.80027e-20)
(0.319626 0.181351 -1.02612e-19)
(0.464359 0.149046 4.74698e-20)
(0.627985 0.112533 4.4503e-20)
(0.822248 0.0518392 0)
(1.01095 0.00833272 0)
(1.1892 -0.0851481 1.51449e-19)
(1.36523 -0.130124 -1.34384e-19)
(-0.0111951 0.00319284 -4.11712e-22)
(-0.0448995 0.0359401 0)
(-0.0661244 0.0741543 0)
(-0.0611074 0.105372 9.75746e-20)
(-0.0253696 0.122907 -4.39939e-20)
(0.0446241 0.127143 3.59647e-20)
(0.154491 0.121228 6.22263e-20)
(0.305586 0.108936 -5.51715e-20)
(0.493613 0.0883376 5.11669e-20)
(0.702216 0.0682039 -4.75169e-20)
(0.920141 0.0338049 -2.70533e-21)
(1.12293 0.00416997 0)
(1.28728 -0.0375694 3.41887e-20)
(1.41274 -0.0918357 0)
(1.44588 -0.117489 0)
(-0.0256665 0.012722 -7.63079e-20)
(-0.0659277 0.032915 0)
(-0.0836893 0.0476132 -1.14403e-19)
(-0.0610335 0.0581927 1.98201e-19)
(0.0156477 0.0623263 -2.11193e-19)
(0.153921 0.0601205 -3.40924e-20)
(0.347619 0.0547531 6.32479e-20)
(0.577176 0.0493984 0)
(0.81613 0.042623 0)
(1.03843 0.036565 -9.04247e-20)
(1.22175 0.018252 -4.27272e-20)
(1.34763 0.00723277 7.24488e-20)
(1.41371 -0.0343792 -3.42556e-20)
(1.41125 -0.0535706 0)
(1.36452 -0.0883469 -9.12495e-20)
(0.276351 0.0469192 0)
(0.510998 -0.367175 4.90967e-21)
(0.60883 -0.708886 -4.51896e-21)
(0.642103 -0.806257 0)
(0.695211 -0.707735 0)
(0.513378 -0.71228 -8.34512e-23)
(0.408396 -0.562094 0)
(0.572157 -0.0732449 0)
(0.728545 0.326402 6.40202e-23)
(0.865643 0.450248 0)
(0.893292 0.525153 0)
(0.809799 0.597016 -8.54649e-23)
(0.753429 0.52001 0)
(0.83256 0.256352 -7.20862e-23)
(0.928269 -0.0479555 -8.21088e-23)
(0.972255 -0.298776 0)
(1.00003 -0.530693 -5.26097e-22)
(1.0194 -0.5399 6.15674e-22)
(0.993102 -0.326918 0)
(1.01224 0.0202725 5.03648e-22)
(1.07456 0.423463 -5.83395e-22)
(1.0833 0.553078 1.21009e-22)
(1.07131 0.349465 -2.1124e-22)
(1.13335 0.0231709 2.01842e-22)
(1.10254 -0.509027 -2.06395e-22)
(1.09594 -0.588313 0)
(1.15204 0.161886 -1.90501e-22)
(1.08149 0.604817 1.82153e-22)
(0.986 0.121948 -1.26679e-22)
(0.933483 -0.300842 0)
(0.980524 -0.0651892 -5.31401e-23)
(0.992848 0.126224 0)
(0.897982 0.0407571 -3.17056e-23)
(0.914503 -0.0980825 -7.44244e-24)
(1.00324 0.0519838 5.95968e-25)
(0.941694 0.0548884 -9.08515e-24)
(0.863144 -0.0395451 0)
(0.835952 -0.00106112 -3.38782e-25)
(0.546376 -0.070435 2.36768e-20)
(0.764166 -0.454502 -1.72864e-22)
(0.872611 -0.72631 -1.36049e-20)
(0.782717 -0.822116 1.29759e-20)
(0.758124 -0.688638 0)
(0.620812 -0.628197 8.40962e-23)
(0.431735 -0.556936 -1.31968e-22)
(0.497194 -0.160594 0)
(0.671092 0.230231 -6.4504e-23)
(0.831773 0.401155 0)
(0.838776 0.538889 0)
(0.732062 0.62611 8.60843e-23)
(0.68852 0.509053 0)
(0.822249 0.218137 2.67017e-21)
(0.946384 -0.0733225 -2.22805e-21)
(1.00421 -0.312606 2.6158e-21)
(1.02477 -0.541403 -2.49681e-21)
(1.03498 -0.543681 -1.14052e-22)
(1.00634 -0.326081 0)
(0.999136 0.00417634 0)
(1.05559 0.404667 -1.27615e-22)
(1.07017 0.546294 8.48764e-22)
(1.05288 0.347113 -1.46412e-21)
(1.14038 0.0207991 7.14061e-22)
(1.12249 -0.498424 5.75814e-22)
(1.07305 -0.594609 0)
(1.13151 0.159327 4.92577e-22)
(1.08569 0.611494 0)
(1.00495 0.138888 1.27124e-22)
(0.945095 -0.302103 -2.17037e-22)
(0.986038 -0.0714108 3.21045e-22)
(0.998349 0.132023 -3.19763e-23)
(0.898925 0.0480654 5.74676e-23)
(0.909575 -0.10606 4.18729e-24)
(1.0073 0.0490733 7.61451e-24)
(0.949231 0.0641713 -8.3886e-24)
(0.873033 -0.0333605 -9.98293e-25)
(0.846582 0.000186812 1.4819e-24)
(0.785867 -0.148626 4.6209e-20)
(0.959564 -0.517379 -8.25843e-20)
(1.04538 -0.715862 1.02869e-20)
(0.918471 -0.770423 2.55491e-20)
(0.807864 -0.648012 1.95237e-22)
(0.711204 -0.553877 -1.44786e-22)
(0.528778 -0.532154 1.34231e-22)
(0.498582 -0.244968 -1.58789e-22)
(0.647208 0.128072 0)
(0.807044 0.360483 6.3278e-21)
(0.834287 0.566313 -6.03613e-21)
(0.725969 0.666244 -1.85702e-22)
(0.671585 0.505374 0)
(0.82741 0.178174 -5.56232e-21)
(0.966773 -0.092135 5.1355e-21)
(1.03788 -0.30872 -2.63446e-21)
(1.04876 -0.535974 2.51362e-21)
(1.04203 -0.546027 2.26114e-21)
(1.01801 -0.327916 -1.92168e-21)
(0.984262 -0.0105386 0)
(1.03048 0.388582 0)
(1.05374 0.543499 1.39112e-21)
(1.03089 0.347823 -1.328e-21)
(1.13732 0.0222033 -1.39679e-21)
(1.13827 -0.478018 -3.98541e-22)
(1.04046 -0.596966 1.60623e-21)
(1.10137 0.147766 3.43935e-23)
(1.08787 0.617645 -7.37067e-22)
(1.02082 0.162464 1.236e-21)
(0.953787 -0.298515 -1.06347e-21)
(0.988876 -0.0779242 4.4949e-23)
(1.00145 0.137662 -1.0084e-22)
(0.898987 0.0568004 4.27924e-23)
(0.901982 -0.113843 -4.09145e-23)
(1.00828 0.0450371 -6.35076e-24)
(0.955594 0.0729721 -1.08253e-23)
(0.881526 -0.0272976 3.17902e-23)
(0.856577 0.0013653 1.31668e-24)
(1.01292 -0.208043 0)
(1.15819 -0.526285 3.51757e-20)
(1.15463 -0.679937 -3.45717e-20)
(1.01628 -0.70219 0)
(0.846006 -0.60629 -2.00664e-22)
(0.770808 -0.491775 1.48763e-22)
(0.634769 -0.494316 0)
(0.579618 -0.313342 2.13074e-23)
(0.688478 0.0193077 -1.19663e-22)
(0.82684 0.29091 0)
(0.822404 0.551667 -6.54548e-21)
(0.666127 0.695447 6.43185e-21)
(0.651473 0.504375 -4.0635e-22)
(0.840965 0.141348 -6.07303e-21)
(0.989019 -0.114812 5.79007e-21)
(1.06691 -0.307862 3.36032e-22)
(1.07169 -0.527983 0)
(1.04371 -0.550024 -2.53018e-22)
(1.02821 -0.333947 4.59722e-21)
(0.974511 -0.0316461 3.75142e-22)
(1.00182 0.357259 -7.1958e-22)
(1.02636 0.532137 -3.28354e-21)
(1.00264 0.348055 -2.02847e-21)
(1.1236 0.0245215 2.43664e-21)
(1.14937 -0.455559 -3.27258e-22)
(1.0054 -0.595155 0)
(1.06311 0.123617 -5.39051e-22)
(1.08017 0.611659 7.46819e-22)
(1.02971 0.183567 -1.20327e-21)
(0.959303 -0.293317 1.02954e-21)
(0.98936 -0.085952 -1.45383e-22)
(1.00213 0.142355 0)
(0.898372 0.0666196 -4.58915e-23)
(0.892793 -0.121323 9.57894e-23)
(1.00654 0.0397138 2.22491e-23)
(0.960736 0.0811406 3.39162e-23)
(0.888639 -0.0213977 -3.18125e-23)
(0.865911 0.00243331 1.19766e-24)
(1.2328 -0.264332 5.48304e-22)
(1.3309 -0.488801 1.10573e-21)
(1.2339 -0.589142 0)
(1.08527 -0.598981 0)
(0.897998 -0.554043 0)
(0.821388 -0.452178 0)
(0.727468 -0.45797 5.78616e-21)
(0.661221 -0.374287 -9.94011e-21)
(0.764996 -0.0883668 4.41326e-21)
(0.847979 0.23959 0)
(0.793795 0.59961 -6.64064e-21)
(0.682355 0.754783 6.53186e-21)
(0.704577 0.512394 7.51958e-21)
(0.884825 0.110378 -6.32592e-21)
(1.01835 -0.134834 5.9192e-21)
(1.08894 -0.298405 -5.98604e-21)
(1.09063 -0.506503 -2.88121e-22)
(1.04116 -0.55031 -4.42499e-21)
(1.03084 -0.343566 4.21687e-21)
(0.960059 -0.0473133 6.43882e-22)
(0.965973 0.338658 5.94348e-22)
(1.00099 0.529551 2.07645e-21)
(0.978983 0.351487 -2.36792e-21)
(1.10506 0.029231 -5.04495e-22)
(1.15325 -0.426962 -2.32683e-22)
(0.970061 -0.59073 -4.90335e-22)
(1.01728 0.0941802 0)
(1.07364 0.608802 0)
(1.03629 0.210639 0)
(0.962515 -0.283221 0)
(0.988123 -0.0939904 3.97981e-22)
(1.00106 0.14675 -2.38901e-22)
(0.897558 0.0775733 1.00159e-22)
(0.883286 -0.128168 -2.83918e-22)
(1.00271 0.0331662 2.55046e-23)
(0.964728 0.0886175 8.62313e-24)
(0.894415 -0.0156897 -3.95338e-23)
(0.874589 0.00335349 -4.90738e-24)
(1.39513 -0.272355 -5.77226e-22)
(1.39724 -0.413165 5.67262e-20)
(1.26115 -0.486151 -5.45309e-20)
(1.12116 -0.506691 -3.18092e-20)
(0.973676 -0.496022 3.02937e-20)
(0.867929 -0.420337 1.68951e-20)
(0.813004 -0.413985 -1.57263e-20)
(0.708308 -0.418712 1.69105e-22)
(0.800235 -0.184555 -1.33277e-22)
(0.880273 0.154242 0)
(0.826658 0.523008 -2.23443e-22)
(0.68419 0.748858 1.48486e-20)
(0.70251 0.544059 -1.41322e-20)
(0.911088 0.118492 -4.55436e-22)
(1.04759 -0.135136 0)
(1.10962 -0.283872 -5.49832e-21)
(1.10877 -0.481381 9.78217e-21)
(1.04123 -0.548013 -4.08887e-21)
(1.02722 -0.356362 0)
(0.948774 -0.0713625 4.63711e-21)
(0.93109 0.296995 -1.60177e-21)
(0.962072 0.512272 -3.8653e-21)
(0.948866 0.356346 -1.96599e-21)
(1.08359 0.0381163 1.89576e-21)
(1.14789 -0.396526 -2.85723e-21)
(0.942653 -0.581633 -1.61245e-21)
(0.967441 0.0535217 4.7618e-21)
(1.05517 0.589724 -2.35607e-21)
(1.03344 0.233792 2.24018e-21)
(0.962664 -0.272132 -4.56929e-22)
(0.985456 -0.103672 4.34495e-22)
(0.998072 0.149609 0)
(0.896555 0.0894058 1.11107e-22)
(0.874647 -0.134307 -1.8922e-23)
(0.997528 0.0254414 0)
(0.967764 0.0953421 -3.52658e-23)
(0.89895 -0.0102036 2.8702e-23)
(0.882616 0.00409693 -4.03362e-25)
(1.41075 -0.219821 0)
(1.35705 -0.313513 0)
(1.25194 -0.382498 -1.72571e-22)
(1.1314 -0.426848 0)
(1.03159 -0.44536 0)
(0.915399 -0.391123 1.72774e-20)
(0.867729 -0.363875 -1.64386e-20)
(0.760702 -0.42444 1.15411e-20)
(0.756717 -0.300173 -1.09791e-20)
(0.873591 0.0822155 0)
(0.791936 0.547156 -2.43444e-22)
(0.664097 0.796457 2.1003e-22)
(0.763229 0.54429 -1.62754e-20)
(0.961107 0.0952434 2.64767e-22)
(1.08005 -0.150562 1.42345e-20)
(1.12564 -0.273695 1.83227e-22)
(1.11839 -0.45185 -1.35191e-22)
(1.04087 -0.539196 8.91667e-21)
(1.01615 -0.372548 -8.73208e-21)
(0.928977 -0.0870771 0)
(0.891984 0.280348 0)
(0.932333 0.509642 -1.87921e-22)
(0.93164 0.3589 0)
(1.06945 0.0446423 1.59828e-21)
(1.13619 -0.360491 1.34662e-21)
(0.923526 -0.57155 -2.47727e-21)
(0.917788 0.0182106 -5.13979e-21)
(1.04274 0.579262 3.39469e-21)
(1.0317 0.259525 -1.69905e-22)
(0.962136 -0.257065 0)
(0.982457 -0.11281 -2.83846e-22)
(0.994216 0.152396 2.69147e-22)
(0.895954 0.101672 7.37878e-23)
(0.868052 -0.139856 1.16846e-23)
(0.991721 0.0167315 -4.70923e-23)
(0.970112 0.101339 2.0592e-23)
(0.902416 -0.0049937 0)
(0.889986 0.00461778 5.1138e-24)
(1.33354 -0.155793 5.59689e-20)
(1.30043 -0.232598 4.95024e-20)
(1.24698 -0.301914 -4.82788e-21)
(1.15626 -0.357525 -7.34076e-20)
(1.06674 -0.40413 3.17643e-20)
(0.966929 -0.37582 -1.62007e-22)
(0.897864 -0.337298 0)
(0.822869 -0.386655 -9.40622e-23)
(0.712818 -0.362028 -9.44015e-23)
(0.769485 -0.0871196 0)
(0.757977 0.380413 -1.54722e-20)
(0.704776 0.742611 1.46836e-20)
(0.734579 0.617182 2.47732e-22)
(0.954853 0.17121 1.44403e-20)
(1.10478 -0.11445 -1.37234e-20)
(1.14645 -0.244803 1.79506e-22)
(1.13024 -0.415428 1.43761e-22)
(1.04204 -0.524512 0)
(1.00187 -0.383903 1.10053e-20)
(0.906691 -0.120258 -1.0419e-20)
(0.848196 0.223786 -4.43274e-21)
(0.890509 0.482169 2.03159e-21)
(0.897945 0.370905 2.2374e-21)
(1.06078 0.0669485 -1.34553e-21)
(1.12485 -0.321769 -1.09485e-21)
(0.913033 -0.553498 6.93195e-21)
(0.869106 -0.0385166 -3.40011e-21)
(1.01597 0.546187 2.68277e-21)
(1.01905 0.287649 -1.99175e-21)
(0.959575 -0.238269 0)
(0.979304 -0.12356 0)
(0.989338 0.152539 0)
(0.895415 0.115052 6.58316e-23)
(0.86429 -0.143798 -7.78172e-23)
(0.986053 0.0068159 3.17676e-23)
(0.972304 0.106696 -1.07161e-23)
(0.905093 0.000186302 -1.81652e-23)
(0.896682 0.00493505 0)
(1.2979 -0.101012 0)
(1.28655 -0.167749 0)
(1.23873 -0.218043 0)
(1.17604 -0.242042 0)
(1.0967 -0.297552 0)
(1.0161 -0.29979 0)
(0.959938 -0.246081 0)
(0.904481 -0.298262 0)
(0.721562 -0.355725 0)
(0.625592 -0.138921 0)
(0.667513 0.354732 0)
(0.653232 0.731895 0)
(0.776537 0.568225 0)
(1.05765 0.115189 0)
(1.14511 -0.126124 0)
(1.1631 -0.206329 0)
(1.14261 -0.35818 0)
(1.04013 -0.511157 0)
(0.977439 -0.409979 0)
(0.88237 -0.126455 0)
(0.812406 0.215365 0)
(0.841866 0.478402 0)
(0.876396 0.362216 0)
(1.07793 0.0687642 0)
(1.1232 -0.298496 0)
(0.886623 -0.541972 0)
(0.835368 -0.0763126 0)
(0.998099 0.527763 0)
(1.00595 0.309986 0)
(0.958394 -0.224625 0)
(0.975712 -0.131263 0)
(0.982554 0.155794 0)
(0.893734 0.129122 0)
(0.863827 -0.147864 0)
(0.978563 -0.00378131 0)
(0.974091 0.112275 0)
(0.907695 0.0057965 0)
(0.904007 0.00515673 0)
(1.23194 -0.0889454 0)
(1.22819 -0.155411 0)
(1.17457 -0.196288 0)
(1.12372 -0.243455 0)
(1.05374 -0.283345 0)
(0.967518 -0.26258 0)
(0.898618 -0.264272 0)
(0.862904 -0.288377 0)
(0.760035 -0.219197 0)
(0.57457 -0.0318501 0)
(0.537691 0.367233 0)
(0.618933 0.678815 0)
(0.922768 0.424391 0)
(1.17529 0.009819 0)
(1.18712 -0.152865 0)
(1.17011 -0.237887 0)
(1.1178 -0.373335 0)
(0.987919 -0.464088 0)
(0.917595 -0.334413 0)
(0.81023 -0.05989 0)
(0.735112 0.24662 0)
(0.775434 0.474457 0)
(0.868056 0.309413 0)
(1.09626 0.0029772 0)
(1.10315 -0.28231 0)
(0.819579 -0.474221 0)
(0.794753 -0.0670876 0)
(0.966486 0.515649 0)
(0.987828 0.30074 0)
(0.963839 -0.225425 0)
(0.975721 -0.129313 0)
(0.970569 0.168074 0)
(0.892625 0.141092 0)
(0.872688 -0.157497 0)
(0.97481 -0.0154267 0)
(0.978318 0.119686 0)
(0.911473 0.0115502 0)
(0.912215 0.00463277 0)
(1.18605 -0.0706778 0)
(1.18493 -0.115395 0)
(1.14846 -0.151135 0)
(1.11427 -0.165966 0)
(1.05305 -0.19178 0)
(0.99215 -0.184947 0)
(0.954299 -0.153816 0)
(0.867989 -0.196517 0)
(0.77142 -0.140556 0)
(0.655502 0.0422942 0)
(0.615423 0.303473 0)
(0.786286 0.494403 0)
(1.11313 0.270058 0)
(1.25009 -0.031831 0)
(1.196 -0.142362 0)
(1.1676 -0.182081 0)
(1.12072 -0.279933 0)
(0.96579 -0.407682 0)
(0.842321 -0.312319 0)
(0.701888 -0.031378 0)
(0.62791 0.24516 0)
(0.716431 0.421998 0)
(0.877374 0.244749 0)
(1.10424 -0.00869998 0)
(1.1057 -0.23112 0)
(0.775369 -0.428743 0)
(0.732443 -0.104467 0)
(0.913693 0.472773 0)
(0.979841 0.296777 0)
(0.973602 -0.217176 0)
(0.972463 -0.131824 0)
(0.954644 0.174269 0)
(0.894372 0.151681 0)
(0.888257 -0.165347 0)
(0.973984 -0.027967 0)
(0.983633 0.12681 0)
(0.915922 0.0179285 0)
(0.919931 0.00392209 0)
(1.1472 -0.0537377 0)
(1.14694 -0.0906271 0)
(1.11765 -0.113212 0)
(1.08301 -0.138761 0)
(1.04072 -0.156289 0)
(0.981564 -0.156783 0)
(0.952784 -0.135901 0)
(0.904957 -0.147303 0)
(0.824108 -0.0792341 0)
(0.765733 0.0795648 0)
(0.800631 0.230673 0)
(0.977211 0.321974 0)
(1.18335 0.142293 0)
(1.24035 -0.0370553 0)
(1.18135 -0.0971741 0)
(1.12537 -0.187733 0)
(1.06123 -0.27195 0)
(0.921597 -0.324948 0)
(0.754486 -0.210377 0)
(0.586699 0.0473143 0)
(0.549769 0.240284 0)
(0.69424 0.352109 0)
(0.900766 0.153407 0)
(1.09418 -0.0697094 0)
(1.09214 -0.182252 0)
(0.747268 -0.332317 0)
(0.646921 -0.108319 0)
(0.843029 0.426243 0)
(0.985993 0.273495 0)
(0.992227 -0.215756 0)
(0.968755 -0.126507 0)
(0.939146 0.184827 0)
(0.901957 0.159686 0)
(0.910894 -0.174714 0)
(0.978332 -0.0409938 0)
(0.993784 0.134506 0)
(0.923521 0.0248313 0)
(0.928027 0.00262973 0)
(1.11447 -0.0408957 0)
(1.11216 -0.0678761 0)
(1.09435 -0.085243 0)
(1.06893 -0.10183 0)
(1.03656 -0.108045 0)
(0.996778 -0.108347 0)
(0.969461 -0.0833971 0)
(0.935156 -0.0868196 0)
(0.88119 -0.0330356 0)
(0.857336 0.0740757 0)
(0.919435 0.13576 0)
(1.04725 0.204978 0)
(1.1628 0.0980317 0)
(1.17684 -0.0374629 0)
(1.14057 -0.0782991 0)
(1.11111 -0.126165 0)
(1.05374 -0.178518 0)
(0.931213 -0.237212 0)
(0.757477 -0.129358 0)
(0.602041 0.0911768 0)
(0.62094 0.19114 0)
(0.772953 0.24657 0)
(0.958158 0.0740464 0)
(1.07705 -0.0870125 0)
(1.09146 -0.121646 0)
(0.779054 -0.247035 0)
(0.591018 -0.124057 0)
(0.786516 0.357774 0)
(1.01359 0.2449 0)
(1.02173 -0.203766 0)
(0.960473 -0.118695 0)
(0.920066 0.191504 0)
(0.914117 0.162493 0)
(0.938648 -0.183101 0)
(0.985456 -0.0536506 0)
(1.00668 0.141912 0)
(0.933435 0.0329396 0)
(0.936484 0.00151531 0)
(1.08996 -0.0291059 0)
(1.08845 -0.049466 0)
(1.07646 -0.0583591 0)
(1.0559 -0.0735507 0)
(1.03379 -0.0747737 0)
(1.00264 -0.0775522 0)
(0.982977 -0.0595393 0)
(0.961315 -0.0553806 0)
(0.928889 -0.0168535 0)
(0.931247 0.0502922 0)
(0.969993 0.0755665 0)
(1.04262 0.1281 0)
(1.11963 0.0478715 0)
(1.12743 -0.0169266 0)
(1.10057 -0.0394943 0)
(1.06564 -0.128701 0)
(1.02047 -0.156723 0)
(0.932962 -0.158756 0)
(0.809754 -0.0420913 0)
(0.724287 0.123229 0)
(0.792923 0.144763 0)
(0.920032 0.175776 0)
(1.04205 0.0219422 0)
(1.05239 -0.123152 0)
(1.07023 -0.0759678 0)
(0.855896 -0.127015 0)
(0.620034 -0.106979 0)
(0.755653 0.263183 0)
(1.03952 0.187658 0)
(1.05199 -0.191103 0)
(0.938058 -0.0946997 0)
(0.883478 0.199519 0)
(0.932567 0.155071 0)
(0.972419 -0.193871 0)
(0.991183 -0.0645589 0)
(1.01659 0.150696 0)
(0.946883 0.0419874 0)
(0.947264 8.09365e-05 0)
(1.07185 -0.0186798 0)
(1.06888 -0.0346593 0)
(1.06216 -0.0386063 0)
(1.04696 -0.0517109 0)
(1.03143 -0.0488042 0)
(1.01148 -0.0526187 0)
(0.996008 -0.0382388 0)
(0.985399 -0.0300746 0)
(0.964534 -0.0104847 0)
(0.975175 0.0368422 0)
(0.990866 0.0358868 0)
(1.03706 0.0770899 0)
(1.08387 0.0294096 0)
(1.07438 -0.0215771 0)
(1.08418 -0.0269292 0)
(1.05664 -0.0856991 0)
(1.00576 -0.0887778 0)
(0.937789 -0.0948357 0)
(0.866054 -0.0104738 0)
(0.865578 0.119495 0)
(0.936363 0.0871797 0)
(1.0151 0.103697 0)
(1.10885 0.0160585 0)
(1.04355 -0.0993449 0)
(1.02854 -0.0434727 0)
(0.952784 -0.0377762 0)
(0.764839 -0.0741951 0)
(0.796466 0.170788 0)
(1.0702 0.131282 0)
(1.07445 -0.167443 0)
(0.926182 -0.0607713 0)
(0.875973 0.196672 0)
(0.987965 0.135528 0)
(1.01074 -0.200552 0)
(0.994106 -0.0738697 0)
(1.03202 0.157855 0)
(0.968895 0.0522396 0)
(0.962562 -0.000432869 0)
(1.05738 -0.0105585 0)
(1.05502 -0.0229752 0)
(1.05134 -0.0235815 0)
(1.04143 -0.0339182 0)
(1.02943 -0.0307759 0)
(1.01938 -0.0327073 0)
(1.00434 -0.0257113 0)
(1.00358 -0.0152721 0)
(0.9867 -0.00959695 0)
(0.999478 0.0229231 0)
(1.00648 0.016242 0)
(1.02639 0.0418014 0)
(1.06497 0.0133873 0)
(1.04805 -0.0166104 0)
(1.05852 -0.0132712 0)
(1.03546 -0.0695535 0)
(0.998912 -0.0629872 0)
(0.965212 -0.0522699 0)
(0.914492 -0.00743134 0)
(0.951431 0.0882059 0)
(1.00793 0.0564296 0)
(1.03267 0.066481 0)
(1.10164 0.0118676 0)
(1.0378 -0.0793656 0)
(0.99681 -0.0381691 0)
(0.995238 0.00865799 0)
(0.905944 -0.0312527 0)
(0.891131 0.113812 0)
(1.09238 0.0821545 0)
(1.06744 -0.139856 0)
(0.92712 -0.0239494 0)
(0.915006 0.180297 0)
(1.06871 0.11216 0)
(1.05173 -0.191621 0)
(0.979758 -0.078487 0)
(1.02869 0.161438 0)
(0.984678 0.0625253 0)
(0.978574 -0.000149859 0)
(1.04664 -0.00470282 0)
(1.04576 -0.0134741 0)
(1.0426 -0.0134013 0)
(1.0379 -0.0206087 0)
(1.02752 -0.018789 0)
(1.02417 -0.0192606 0)
(1.01146 -0.017098 0)
(1.01382 -0.00722735 0)
(1.00318 -0.00833645 0)
(1.01024 0.0135374 0)
(1.01628 0.00580501 0)
(1.02176 0.0199472 0)
(1.04832 0.00716514 0)
(1.03134 -0.0164769 0)
(1.04276 -0.00926528 0)
(1.0305 -0.0439477 0)
(0.996983 -0.0361339 0)
(0.985727 -0.0219728 0)
(0.952447 -0.0084946 0)
(0.982201 0.0607973 0)
(1.02199 0.0350049 0)
(1.02808 0.0393323 0)
(1.08005 0.014516 0)
(1.03584 -0.0434491 0)
(0.987152 -0.0240972 0)
(1.00117 0.0206346 0)
(0.97614 -0.0196607 0)
(0.95958 0.0722593 0)
(1.09285 0.062051 0)
(1.04925 -0.101954 0)
(0.939252 0.00049268 0)
(0.96547 0.14385 0)
(1.12225 0.0865123 0)
(1.07712 -0.163603 0)
(0.941667 -0.0688127 0)
(0.996409 0.160735 0)
(1.00049 0.0668326 0)
(1.00028 -0.000795292 0)
(1.03856 -0.000621131 0)
(1.03892 -0.00647919 0)
(1.03625 -0.00660041 0)
(1.03452 -0.0111782 0)
(1.02664 -0.0107234 0)
(1.02594 -0.0103747 0)
(1.01691 -0.0107312 0)
(1.01871 -0.00335454 0)
(1.01331 -0.00639438 0)
(1.01513 0.00677901 0)
(1.02138 0.00107326 0)
(1.01921 0.0079268 0)
(1.0368 0.00224389 0)
(1.02581 -0.0123101 0)
(1.02893 -0.00595603 0)
(1.02508 -0.0281498 0)
(0.998557 -0.024106 0)
(0.998655 -0.00881523 0)
(0.979019 -0.00861611 0)
(0.993639 0.0386279 0)
(1.02493 0.0220629 0)
(1.01999 0.0263442 0)
(1.05262 0.0108306 0)
(1.03174 -0.0244758 0)
(0.992617 -0.0187267 0)
(1.00673 0.0220326 0)
(1.00492 -0.00911346 0)
(0.980226 0.0457647 0)
(1.07355 0.0472023 0)
(1.03761 -0.0726213 0)
(0.959021 0.0126606 0)
(0.997121 0.101709 0)
(1.12709 0.066664 0)
(1.07532 -0.122175 0)
(0.909381 -0.0502562 0)
(0.978966 0.146298 0)
(1.03961 0.0608629 0)
(1.03125 -0.00211502 0)
(1.03258 0.00207878 0)
(1.03348 -0.00163382 0)
(1.03173 -0.00200078 0)
(1.03119 -0.0049387 0)
(1.02601 -0.00512525 0)
(1.02563 -0.00497167 0)
(1.02028 -0.00602602 0)
(1.02068 -0.00139891 0)
(1.01854 -0.00450234 0)
(1.01781 0.00331509 0)
(1.02231 -0.00120012 0)
(1.01921 0.00256528 0)
(1.02832 -0.00022083 0)
(1.02235 -0.00899893 0)
(1.02149 -0.00490246 0)
(1.02184 -0.0163199 0)
(1.004 -0.0140495 0)
(1.00548 -0.00191898 0)
(0.996322 -0.00588285 0)
(0.999857 0.0260785 0)
(1.02278 0.0118501 0)
(1.01683 0.0185579 0)
(1.03644 0.00885557 0)
(1.02827 -0.00841585 0)
(1.0003 -0.00863242 0)
(1.00666 0.0203438 0)
(1.01595 -0.00394281 0)
(0.989932 0.0273503 0)
(1.05547 0.0376986 0)
(1.03088 -0.04702 0)
(0.975351 0.0209896 0)
(1.00946 0.064601 0)
(1.10317 0.0518603 0)
(1.06292 -0.075127 0)
(0.910059 -0.0313539 0)
(0.991859 0.113249 0)
(1.07803 0.047416 0)
(1.053 0.000356087 0)
(1.02819 0.00379262 0)
(1.02914 0.00143739 0)
(1.02821 0.000945663 0)
(1.02797 -0.000995322 0)
(1.02488 -0.00150415 0)
(1.02455 -0.00156457 0)
(1.02144 -0.00276621 0)
(1.02135 -0.000127752 0)
(1.02027 -0.00274271 0)
(1.01921 0.00171793 0)
(1.02169 -0.00169791 0)
(1.01911 0.00062595 0)
(1.02339 -0.00140198 0)
(1.0203 -0.00558239 0)
(1.01848 -0.00339521 0)
(1.01893 -0.00892322 0)
(1.00849 -0.00798506 0)
(1.00929 0.00046162 0)
(1.00565 -0.00410419 0)
(1.00532 0.0174224 0)
(1.02097 0.00562865 0)
(1.0147 0.0148893 0)
(1.02662 0.00581134 0)
(1.02256 -0.000654358 0)
(1.00734 -0.00374957 0)
(1.00886 0.0163048 0)
(1.02058 0.00108605 0)
(0.996713 0.0172372 0)
(1.04112 0.0273134 0)
(1.02678 -0.0310926 0)
(0.990772 0.0249164 0)
(1.01635 0.0372236 0)
(1.07493 0.0424146 0)
(1.04947 -0.0352682 0)
(0.934713 -0.0200841 0)
(1.01199 0.0748542 0)
(1.08568 0.0353781 0)
(1.05562 0.00570751 0)
(1.02472 0.00477469 0)
(1.02557 0.00326167 0)
(1.02518 0.0027039 0)
(1.02515 0.00140682 0)
(1.02334 0.000797296 0)
(1.02305 0.000572284 0)
(1.02121 -0.000533893 0)
(1.02103 0.000845809 0)
(1.02034 -0.00123887 0)
(1.0195 0.00135595 0)
(1.02054 -0.00137596 0)
(1.01881 0.000368851 0)
(1.02062 -0.00148433 0)
(1.0187 -0.00291486 0)
(1.01722 -0.0023868 0)
(1.01728 -0.0044415 0)
(1.01164 -0.00413779 0)
(1.01213 0.00151349 0)
(1.01044 -0.00220263 0)
(1.00924 0.0123142 0)
(1.0191 0.00222659 0)
(1.0137 0.0127906 0)
(1.02244 0.00372638 0)
(1.01886 0.0052363 0)
(1.01213 0.00133311 0)
(1.01057 0.0131838 0)
(1.0213 0.00455357 0)
(1.00305 0.0115274 0)
(1.0335 0.0202337 0)
(1.02325 -0.0188145 0)
(1.00196 0.0273556 0)
(1.0204 0.0188225 0)
(1.05412 0.0360328 0)
(1.03954 -0.00518253 0)
(0.964329 -0.0132108 0)
(1.0244 0.0434122 0)
(1.07272 0.0278203 0)
(1.05016 0.0116861 0)
(1.02183 0.00522061 0)
(1.02256 0.00425475 0)
(1.02249 0.00369031 0)
(1.02257 0.00281487 0)
(1.02154 0.00217409 0)
(1.02134 0.0018986 0)
(1.02023 0.000939647 0)
(1.02012 0.00161695 0)
(1.01959 -1.28573e-05 0)
(1.01905 0.00152325 0)
(1.01932 -0.000671135 0)
(1.01825 0.000795157 0)
(1.01885 -0.0010791 0)
(1.0177 -0.000962918 0)
(1.01661 -0.0013924 0)
(1.01647 -0.00170653 0)
(1.01344 -0.00174134 0)
(1.01367 0.00179462 0)
(1.01287 -0.00093508 0)
(1.01166 0.00900572 0)
(1.01795 0.00057156 0)
(1.01326 0.0116915 0)
(1.01999 0.00192677 0)
(1.01611 0.00805016 0)
(1.01487 0.00330476 0)
(1.01242 0.01018 0)
(1.02112 0.0066796 0)
(1.00742 0.00811304 0)
(1.02836 0.0142117 0)
(1.02076 -0.0118992 0)
(1.00986 0.0264586 0)
(1.02335 0.00679166 0)
(1.03998 0.0326888 0)
(1.03222 0.0138897 0)
(0.989015 -0.0119732 0)
(1.03025 0.0206449 0)
(1.05737 0.0233096 0)
(1.04447 0.0151049 0)
(1.01939 0.0052734 0)
(1.02002 0.00466028 0)
(1.02008 0.00412461 0)
(1.02025 0.00353075 0)
(1.01966 0.00293455 0)
(1.0196 0.00266302 0)
(1.0189 0.00187502 0)
(1.0189 0.00217606 0)
(1.01847 0.00091877 0)
(1.01823 0.0018805 0)
(1.01812 0.000110064 0)
(1.01756 0.00138766 0)
(1.01761 -0.000417322 0)
(1.01696 0.000438433 0)
(1.01614 -0.000519582 0)
(1.01603 -4.07807e-05 0)
(1.01429 -0.000287787 0)
(1.0145 0.00192404 0)
(1.01403 6.78427e-05 0)
(1.01301 0.00698549 0)
(1.01704 5.16094e-07 0)