/*--------------------------------*- C++ -*----------------------------------*\
| =========                 |                                                 |
| \\      /  F ield         | OpenFOAM: The Open Source CFD Toolbox           |
|  \\    /   O peration     | Version:  2512                                  |
|   \\  /    A nd           | Website:  www.openfoam.com                      |
|    \\/     M anipulation  |                                                 |
\*---------------------------------------------------------------------------*/
FoamFile
{
    version     2.0;
    format      ascii;
    arch        "LSB;label=32;scalar=64";
    class       volVectorField;
    location    "58.3";
    object      U;
}
// * * * * * * * * * * * * * * * * * * * * * * * * * * * * * * * * * * * * * //

dimensions      [0 1 -1 0 0 0 0];

internalField   nonuniform List<vector> 
13248
(
(-0.0143049 0.0111846 4.20956e-20)
(-0.0288432 0.0180823 0)
(-0.0341076 0.015692 -7.36438e-20)
(-0.0275938 0.00967499 6.81928e-20)
(-0.00646483 0.00251314 6.32963e-20)
(0.0320263 -0.00469088 0)
(0.0901767 -0.0111685 0)
(0.169117 -0.0161763 1.46669e-19)
(0.267983 -0.0190029 -1.98072e-21)
(0.383518 -0.0190205 -1.2274e-19)
(0.510208 -0.0158518 1.07665e-19)
(0.641043 -0.00951337 -6.63234e-20)
(0.768622 -0.000450394 0)
(0.88622 0.0105299 -9.71734e-20)
(0.988646 0.0224331 1.74935e-19)
(1.0725 0.0341983 -4.08356e-20)
(1.13673 0.0449252 -6.32817e-20)
(1.18164 0.0538302 5.89969e-20)
(1.20948 0.0607077 0)
(1.22409 0.0645802 0)
(1.22686 0.0676015 0)
(1.22702 0.0651835 0)
(1.2192 0.0665634 1.42665e-20)
(1.21691 0.0570091 4.88764e-20)
(-0.0167498 0.0127028 -1.26745e-19)
(-0.0299478 0.0219334 8.03272e-20)
(-0.0265245 0.0214903 -9.98764e-23)
(-0.0049893 0.0165246 -1.0321e-19)
(0.0371135 0.0100064 -6.32052e-20)
(0.102236 0.00377486 -5.85808e-20)
(0.191686 -0.000785655 -1.06767e-19)
(0.30434 -0.00258933 9.90989e-20)
(0.43566 -0.000922642 0)
(0.577886 0.00439486 1.32196e-21)
(0.721345 0.0129237 2.68383e-21)
(0.856321 0.0236905 6.5854e-20)
(0.974717 0.0354186 0)
(1.07116 0.0468068 0)
(1.14334 0.0567954 6.23876e-20)
(1.19198 0.0646384 -1.15961e-19)
(1.22002 0.0701543 6.3245e-20)
(1.23208 0.0732362 -5.8966e-20)
(1.23351 0.0745204 -2.45778e-20)
(1.22872 0.0740342 -4.14834e-20)
(1.22263 0.072799 -1.60643e-20)
(1.21701 0.070048 -2.93642e-20)
(1.21244 0.0682839 4.46982e-20)
(1.21238 0.0624142 1.23699e-20)
(-0.0175851 0.0121907 0)
(-0.0265018 0.0209688 0)
(-0.0111781 0.0210458 3.71228e-20)
(0.0295045 0.016966 3.41025e-20)
(0.0977062 0.0120551 -4.16863e-22)
(0.194827 0.00874475 -5.90626e-20)
(0.319415 0.00881157 0)
(0.465462 0.0132096 -4.90876e-20)
(0.622462 0.0218743 4.43229e-20)
(0.777531 0.0337504 -3.85501e-22)
(0.918398 0.0471308 -7.14415e-20)
(1.03586 0.0601569 -6.17581e-20)
(1.12509 0.0712796 3.21263e-21)
(1.1857 0.0795631 -4.43751e-20)
(1.221 0.0847367 1.09856e-19)
(1.2367 0.0871337 0)
(1.23935 0.0874185 -6.25804e-20)
(1.23514 0.0862586 3.04504e-20)
(1.22843 0.084624 2.45529e-20)
(1.22245 0.082021 0)
(1.21737 0.0804773 1.86024e-20)
(1.21409 0.076515 -6.2552e-20)
(1.21015 0.0756981 5.84137e-20)
(1.20806 0.0695168 3.50762e-20)
(-0.0169323 0.0104037 -4.37071e-20)
(-0.0177768 0.0166122 -4.16013e-20)
(0.0140055 0.0162479 3.77008e-20)
(0.0793973 0.0134548 0)
(0.179719 0.0118968 0)
(0.313332 0.0143434 -2.66211e-22)
(0.472758 0.0222016 0)
(0.644308 0.0351548 -1.45128e-19)
(0.811233 0.0513449 1.31914e-19)
(0.95835 0.0681287 -1.59547e-19)
(1.07554 0.0829946 3.54503e-20)
(1.15909 0.0942407 0)
(1.21108 0.10125 5.30643e-20)
(1.23762 0.104374 -9.57937e-20)
(1.24657 0.104572 2.25768e-20)
(1.24544 0.10298 5.25523e-20)
(1.23996 0.100502 -4.32015e-21)
(1.23343 0.0978337 -5.67107e-20)
(1.22736 0.0949787 0)
(1.22164 0.0922206 0)
(1.21611 0.0893209 -1.80248e-20)
(1.21062 0.0854776 1.56948e-20)
(1.20463 0.0834568 5.35002e-20)
(1.19997 0.0766195 -4.99423e-20)
(-0.014623 0.00793198 -4.51383e-20)
(-0.00242769 0.0104638 -4.19538e-20)
(0.0519406 0.00974388 1.1613e-19)
(0.148812 0.00975266 -7.01557e-20)
(0.286654 0.014354 6.49884e-20)
(0.457041 0.025773 1.17396e-19)
(0.642959 0.0435682 -8.11521e-20)
(0.822969 0.0649087 -9.54322e-20)
(0.978225 0.0859664 3.23592e-21)
(1.09747 0.103456 1.18708e-19)
(1.17827 0.115568 0)
(1.22524 0.122114 2.99783e-20)
(1.24697 0.124101 0)
(1.25271 0.123043 -4.52057e-20)
(1.25006 0.120357 6.27236e-20)
(1.24393 0.116994 4.85439e-22)
(1.23674 0.113485 -1.52518e-20)
(1.22943 0.109867 2.72996e-20)
(1.2221 0.106293 2.31333e-20)
(1.21503 0.102446 -2.01343e-20)
(1.20832 0.0987429 1.80167e-20)
(1.20245 0.0943524 -1.56876e-20)
(1.19688 0.0913903 0)
(1.19321 0.0847836 -1.15091e-20)
(-0.0100606 0.00512004 4.5127e-20)
(0.0214375 0.00396505 4.3417e-20)
(0.10566 0.00432366 -3.88277e-20)
(0.240458 0.00992394 7.11427e-20)
(0.417493 0.0240229 -6.58993e-20)
(0.617117 0.0465375 5.87717e-20)
(0.812394 0.073626 -2.76236e-20)
(0.979404 0.0999235 7.17819e-20)
(1.10479 0.121087 -4.40322e-20)
(1.18695 0.135091 7.45181e-20)
(1.23277 0.142161 -1.68123e-19)
(1.25284 0.143906 6.01863e-20)
(1.2574 0.142299 -5.02741e-20)
(1.25402 0.138955 4.68013e-20)
(1.24722 0.134869 3.82968e-20)
(1.2392 0.130539 3.21422e-20)
(1.23096 0.126103 -8.87638e-20)
(1.22295 0.121695 5.4212e-20)
(1.21553 0.117227 -2.31297e-20)
(1.20877 0.112868 5.84394e-20)
(1.20269 0.108484 -1.88588e-20)
(1.19707 0.103952 -4.36153e-20)
(1.19157 0.100236 3.97631e-20)
(1.18675 0.0938426 1.15053e-20)
(-0.00233225 0.00220552 0)
(0.0558536 -0.00158139 2.72851e-22)
(0.177206 0.00259834 7.99364e-20)
(0.353588 0.0174329 -7.37342e-20)
(0.564566 0.043627 -6.56479e-20)
(0.777602 0.0767162 1.19976e-19)
(0.961535 0.109388 -5.48401e-20)
(1.09878 0.135666 7.10874e-20)
(1.18736 0.152948 -2.14086e-21)
(1.23581 0.161701 -3.85466e-20)
(1.25656 0.164063 8.0959e-20)
(1.26096 0.162447 -1.16995e-19)
(1.25703 0.158725 0)
(1.24948 0.154042 -2.15629e-20)
(1.24072 0.14899 -5.58074e-20)
(1.2319 0.143829 1.75534e-20)
(1.2235 0.138709 9.17827e-22)
(1.21568 0.13363 -3.49802e-20)
(1.20839 0.128653 3.10007e-21)
(1.20152 0.123694 3.95585e-20)
(1.19498 0.118741 -1.68957e-20)
(1.18882 0.113825 -6.05596e-21)
(1.1829 0.109167 1.92403e-20)
(1.17783 0.102987 0)
(0.0095438 -0.000494291 0)
(0.1024 -0.00474537 2.19212e-20)
(0.266573 0.00704612 -1.03339e-19)
(0.482823 0.0346042 3.70303e-20)
(0.714795 0.0732651 -3.42997e-20)
(0.921783 0.113508 -3.05186e-20)
(1.07831 0.14677 -5.2775e-20)
(1.17957 0.169118 2.62494e-20)
(1.23489 0.180904 2.23737e-20)
(1.2586 0.184725 0)
(1.26377 0.183537 4.7338e-20)
(1.25957 0.179636 -6.84673e-20)
(1.25142 0.174456 5.04101e-20)
(1.24209 0.168769 2.15723e-20)
(1.23278 0.162936 -1.68742e-20)
(1.2239 0.15712 -1.34313e-20)
(1.21552 0.151352 -1.2244e-20)
(1.20761 0.145664 3.74404e-20)
(1.20018 0.140022 0)
(1.19326 0.13446 1.75694e-20)
(1.1869 0.12897 1.40503e-20)
(1.18101 0.123632 -3.54362e-20)
(1.17543 0.118302 -2.31544e-20)
(1.17031 0.112564 2.12903e-20)
(0.0263663 -0.0024296 -2.52965e-20)
(0.161596 -0.0037725 -8.4879e-22)
(0.370924 0.0198928 2.09893e-20)
(0.61868 0.0621556 5.74652e-20)
(0.854268 0.11085 1.61413e-20)
(1.03912 0.153401 -3.07717e-20)
(1.16127 0.183188 2.77667e-20)
(1.22905 0.199775 -2.3781e-20)
(1.25878 0.20611 4.12562e-20)
(1.26605 0.205865 1.7044e-20)
(1.26206 0.202006 -4.76789e-20)
(1.25342 0.196424 1.3768e-20)
(1.24342 0.190134 2.27235e-20)
(1.2334 0.183609 -1.11833e-20)
(1.22382 0.177045 0)
(1.21479 0.170511 1.5681e-20)
(1.20631 0.164053 2.5645e-20)
(1.19844 0.157687 3.88401e-21)
(1.19114 0.151448 -2.07107e-20)
(1.18439 0.145335 8.34848e-21)
(1.17805 0.139356 0)
(1.17201 0.133523 -6.21943e-21)
(1.16619 0.127608 -5.74191e-21)
(1.16067 0.122032 0)
(0.0485463 -0.002847 0)
(0.232436 0.00325519 1.22666e-20)
(0.484483 0.0426421 2.23362e-20)
(0.750139 0.0991119 -5.83905e-20)
(0.973142 0.153522 1.85341e-20)
(1.12707 0.193986 0)
(1.21542 0.217945 2.6113e-20)
(1.25592 0.228369 -3.58339e-20)
(1.26756 0.229842 -2.04576e-20)
(1.2646 0.22631 9.12846e-21)
(1.25557 0.220363 -1.38298e-20)
(1.24472 0.213401 3.3554e-20)
(1.2338 0.206069 1.62794e-20)
(1.2234 0.198643 -1.14434e-20)
(1.21368 0.19124 -1.27198e-21)
(1.20465 0.183928 -2.91841e-20)
(1.19627 0.17674 1.30843e-20)
(1.1885 0.169704 -3.52873e-22)
(1.18129 0.162825 0)
(1.17459 0.156114 -8.35676e-21)
(1.16835 0.149582 0)
(1.16249 0.143197 1.77711e-20)
(1.15692 0.136834 -2.07076e-20)
(1.15156 0.131357 9.26627e-21)
(0.0759734 -0.000865812 -6.98817e-21)
(0.312188 0.0180908 -3.10318e-20)
(0.599511 0.0756248 3.47392e-20)
(0.867947 0.143463 1.98219e-20)
(1.06722 0.198947 -9.40424e-21)
(1.18808 0.234219 1.49842e-20)
(1.24706 0.25132 -7.26617e-21)
(1.26702 0.255839 1.16108e-20)
(1.26664 0.253124 0)
(1.25759 0.246861 2.49577e-20)
(1.24582 0.239097 -1.15736e-21)
(1.23382 0.230787 -1.9449e-20)
(1.22245 0.222334 8.12564e-21)
(1.2119 0.213911 -8.90555e-21)
(1.20215 0.205597 -3.19964e-21)
(1.19315 0.197433 3.84349e-21)
(1.18483 0.189449 -2.82218e-21)
(1.17717 0.181665 -1.4979e-20)
(1.17015 0.174105 9.07613e-21)
(1.16369 0.166786 1.77843e-21)
(1.15766 0.159699 1.52325e-21)
(1.15193 0.152787 1.30375e-21)
(1.14637 0.146067 0)
(1.14091 0.140343 0)
(0.107997 0.00441279 6.99664e-21)
(0.396698 0.0419344 -6.46129e-21)
(0.70822 0.118008 -1.15968e-20)
(0.966433 0.193085 0)
(1.1364 0.245698 -4.63605e-21)
(1.22621 0.273887 -4.01852e-21)
(1.26151 0.283881 -6.64366e-21)
(1.26685 0.282972 0)
(1.25881 0.276583 0)
(1.24626 0.267858 0)
(1.23305 0.258312 0)
(1.22051 0.248569 0)
(1.20895 0.238871 -5.04363e-21)
(1.19837 0.229321 2.26263e-21)
(1.18868 0.219971 3.84236e-21)
(1.17982 0.210854 1.77695e-21)
(1.17172 0.201997 4.242e-21)
(1.16432 0.193421 0)
(1.15757 0.185139 -9.48848e-22)
(1.15138 0.177156 -8.95981e-22)
(1.14562 0.169452 -1.52565e-21)
(1.1402 0.161988 -1.3058e-21)
(1.13501 0.154877 0)
(1.13 0.148724 8.57012e-22)
(0.00318538 -0.111205 6.63266e-21)
(0.00264315 -0.237885 -6.30259e-21)
(-0.0085375 -0.299767 -1.16608e-20)
(-0.0261839 -0.322129 0)
(-0.04714 -0.324852 -1.52213e-20)
(-0.0695466 -0.320398 4.78807e-21)
(-0.0923664 -0.314482 -8.81087e-21)
(-0.115039 -0.3084 0)
(-0.137223 -0.301346 0)
(-0.158629 -0.291857 0)
(-0.17893 -0.278393 0)
(-0.197748 -0.259489 0)
(-0.214673 -0.233823 4.07795e-22)
(-0.229311 -0.200314 -6.33802e-21)
(-0.241327 -0.158231 1.16206e-20)
(-0.250475 -0.107289 1.69812e-20)
(-0.256691 -0.0476341 4.89739e-21)
(-0.259792 0.0204409 0)
(-0.259483 0.0958622 4.96608e-21)
(-0.256018 0.177085 -1.30965e-20)
(-0.24917 0.262276 -7.75276e-21)
(-0.238838 0.349269 -7.02385e-21)
(-0.225553 0.43563 0)
(-0.208584 0.518501 0)
(0.00848551 -0.105892 -1.96016e-20)
(0.0109974 -0.222389 3.11858e-20)
(-0.00235444 -0.27667 -1.116e-20)
(-0.0239112 -0.294098 -2.11584e-20)
(-0.0491998 -0.293928 2.96509e-20)
(-0.0760356 -0.287883 -1.83985e-20)
(-0.103385 -0.281156 2.58689e-20)
(-0.130815 -0.274779 1.56397e-20)
(-0.15813 -0.267887 0)
(-0.185166 -0.259091 -1.50714e-20)
(-0.211688 -0.246988 -4.87152e-22)
(-0.23736 -0.230254 1.31729e-20)
(-0.261755 -0.207657 1.79344e-20)
(-0.284377 -0.178127 2.3235e-20)
(-0.304728 -0.140859 -1.12969e-20)
(-0.322295 -0.0953824 -3.14699e-20)
(-0.336255 -0.0416737 8.90225e-21)
(-0.34629 0.0200713 -3.44323e-20)
(-0.352377 0.0886795 0)
(-0.354195 0.162878 8.45303e-21)
(-0.351249 0.24092 7.74301e-21)
(-0.342873 0.320662 7.01491e-21)
(-0.329139 0.39997 0)
(-0.312632 0.47674 0)
(0.0128715 -0.0968984 0)
(0.0179187 -0.201099 5.86761e-20)
(0.00323361 -0.248102 -2.18048e-20)
(-0.0207861 -0.261528 2.06345e-20)
(-0.0486182 -0.25918 -5.5726e-20)
(-0.0777668 -0.251858 0)
(-0.107157 -0.244321 -3.25653e-20)
(-0.136418 -0.237482 1.46053e-20)
(-0.165441 -0.230506 -2.74962e-20)
(-0.194138 -0.222103 1.18547e-20)
(-0.222347 -0.211022 7.38623e-20)
(-0.249791 -0.196117 -3.42211e-20)
(-0.276057 -0.176324 -5.52187e-20)
(-0.300612 -0.150694 -1.92268e-20)
(-0.322796 -0.118451 1.16248e-22)
(-0.341941 -0.0790864 7.01254e-20)
(-0.357132 -0.0323422 -3.25302e-20)
(-0.367798 0.0210864 2.99186e-21)
(-0.373569 0.0804632 0)
(-0.373646 0.144725 -2.14502e-20)
(-0.367414 0.212386 0)
(-0.353655 0.281543 -2.0459e-20)
(-0.330921 0.349802 6.70416e-20)
(-0.303667 0.41541 -1.7401e-21)
(0.0159654 -0.0854251 0)
(0.022842 -0.176226 -9.43068e-22)
(0.00756992 -0.216486 2.04588e-20)
(-0.0175888 -0.226811 -1.88618e-20)
(-0.0463378 -0.223011 1.82911e-20)
(-0.0758708 -0.214832 9.8807e-20)
(-0.105008 -0.206667 -3.07862e-20)
(-0.133369 -0.199414 -2.791e-20)
(-0.160866 -0.19233 5.33362e-20)
(-0.187433 -0.184237 -7.49805e-20)
(-0.212927 -0.174017 2.19918e-20)
(-0.237098 -0.160695 2.03395e-20)
(-0.259569 -0.143406 0)
(-0.279819 -0.121382 1.91595e-20)
(-0.297189 -0.0939836 0)
(-0.310781 -0.0608062 2.77001e-20)
(-0.320056 -0.021813 -5.26218e-20)
(-0.324332 0.022486 1.5615e-20)
(-0.322568 0.0716413 4.36759e-20)
(-0.313886 0.124676 2.14287e-20)
(-0.297613 0.180254 0)
(-0.27345 0.236878 -4.359e-20)
(-0.238867 0.293392 1.47831e-20)
(-0.190465 0.346816 0)
(0.0175413 -0.0725772 0)
(0.0252903 -0.149631 -6.53996e-20)
(0.00985159 -0.18382 -1.97648e-20)
(-0.0154878 -0.192005 -3.70337e-20)
(-0.043935 -0.18766 3.43162e-20)
(-0.072405 -0.179364 -3.24452e-20)
(-0.0995735 -0.171146 5.86652e-20)
(-0.125005 -0.163952 2.7659e-20)
(-0.148591 -0.157192 -7.62023e-20)
(-0.170247 -0.149807 4.60277e-20)
(-0.189809 -0.140779 -6.43638e-20)
(-0.207014 -0.129256 1.33504e-19)
(-0.221485 -0.114532 -7.16595e-20)
(-0.232714 -0.0960145 3.05603e-20)
(-0.240145 -0.0732734 8.34527e-20)
(-0.243155 -0.0460548 -3.02719e-20)
(-0.241026 -0.0144732 -2.37202e-20)
(-0.233045 0.0213485 -2.25823e-20)
(-0.218382 0.0608632 0)
(-0.19627 0.103191 -2.7699e-20)
(-0.165905 0.147301 -2.10244e-20)
(-0.125855 0.191617 3.45595e-20)
(-0.0807711 0.235306 3.59754e-20)
(-0.00936354 0.27624 -3.11313e-20)
(0.0174796 -0.0592051 0)
(0.0248843 -0.122695 -8.29693e-20)
(0.00930821 -0.151559 7.24186e-22)
(-0.015678 -0.158586 7.16144e-20)
(-0.0430802 -0.154733 0)
(-0.0696189 -0.147309 0)
(-0.0938259 -0.139931 0)
(-0.115191 -0.13361 -2.61995e-20)
(-0.133575 -0.127951 5.8578e-22)
(-0.148875 -0.122059 4.4144e-20)
(-0.160907 -0.115019 -6.05228e-20)
(-0.1694 -0.106058 6.18101e-22)
(-0.174003 -0.0945601 0)
(-0.174287 -0.0800532 -3.05471e-20)
(-0.169728 -0.0622229 2.26197e-20)
(-0.159818 -0.0409114 -6.77912e-20)
(-0.144092 -0.0161242 7.64934e-20)
(-0.122024 0.0119196 1.03602e-20)
(-0.0930747 0.0427435 -5.90066e-21)
(-0.056219 0.0755428 -4.94228e-20)
(-0.0130853 0.109937 -1.78196e-20)
(0.0436657 0.142593 5.43344e-20)
(0.0951877 0.177151 -3.31252e-20)
(0.187882 0.201191 0)
(0.0157262 -0.0458577 4.19861e-20)
(0.0213879 -0.0962883 4.11748e-20)
(0.0054157 -0.120565 -3.72008e-20)
(-0.0189917 -0.127352 -6.94869e-20)
(-0.0449554 -0.12504 6.43872e-20)
(-0.0691357 -0.119585 -5.91935e-20)
(-0.0899599 -0.114123 8.19735e-20)
(-0.106839 -0.109682 -2.58479e-20)
(-0.119594 -0.106076 4.63957e-20)
(-0.12811 -0.102612 0)
(-0.132199 -0.0984993 3.58448e-20)
(-0.131583 -0.0930285 -6.79206e-20)
(-0.125934 -0.0856113 5.94582e-20)
(-0.114916 -0.0757981 -5.53449e-20)
(-0.0981939 -0.0632742 0)
(-0.0753262 -0.0478644 4.09472e-20)
(-0.0459764 -0.0295177 6.39699e-20)
(-0.00989411 -0.00842546 -6.12467e-20)
(0.0326805 0.0149419 -2.30057e-20)
(0.0850375 0.0396809 -1.83829e-20)
(0.136826 0.0666358 5.25812e-20)
(0.214616 0.0891088 1.08573e-20)
(0.264379 0.119032 -1.13921e-20)
(0.382762 0.128876 9.55222e-21)
(0.0123056 -0.0328725 -4.19964e-20)
(0.0148357 -0.0709042 1.18891e-19)
(-0.00180747 -0.0912057 -3.63353e-20)
(-0.0254122 -0.0984428 6.80637e-20)
(-0.0495315 -0.0984906 -6.30683e-20)
(-0.0709122 -0.0959273 -1.58964e-22)
(-0.0879143 -0.0933138 2.66683e-20)
(-0.0998361 -0.0916127 9.64619e-20)
(-0.106388 -0.090794 -1.76232e-21)
(-0.107354 -0.0903417 -4.20371e-20)
(-0.102461 -0.0895847 0)
(-0.0913665 -0.0878577 -3.06492e-20)
(-0.0737132 -0.0845674 5.97156e-20)
(-0.0491726 -0.0792165 4.92777e-20)
(-0.0175165 -0.0713956 -2.41436e-20)
(0.0214554 -0.0608426 -1.01935e-21)
(0.0678001 -0.0475064 -1.65987e-20)
(0.121654 -0.0314814 2.61338e-20)
(0.180948 -0.0134433 2.30065e-20)
(0.253961 0.00629574 -1.88755e-20)
(0.315705 0.0280672 1.48983e-20)
(0.421289 0.0456175 -1.24754e-20)
(0.46741 0.0709617 0)
(0.619221 0.0778236 -9.54834e-21)
(0.00740466 -0.0205573 4.09522e-20)
(0.00572404 -0.0469371 -3.94385e-20)
(-0.0115061 -0.0636124 3.62235e-20)
(-0.03364 -0.0715631 0)
(-0.0549197 -0.0742956 0)
(-0.0722593 -0.0750184 5.66787e-20)
(-0.0839139 -0.0756375 -5.30575e-20)
(-0.0889249 -0.0769545 4.72487e-20)
(-0.0866923 -0.078992 -2.20584e-19)
(-0.076696 -0.0813343 7.60315e-22)
(-0.0584154 -0.0833733 3.5955e-20)
(-0.0313727 -0.0844467 0)
(0.00474293 -0.0839051 -5.50706e-20)
(0.0500286 -0.0811676 9.90765e-20)
(0.104265 -0.0757744 -6.62751e-20)
(0.166987 -0.0674777 -8.817e-20)
(0.237321 -0.0561841 6.43362e-21)
(0.314882 -0.0420367 5.41935e-20)
(0.396104 -0.0258967 0)
(0.489334 -0.0074637 0)
(0.567249 0.0114474 -1.4901e-20)
(0.686766 0.0293379 1.24777e-20)
(0.73865 0.0495441 -4.40758e-20)
(0.897696 0.0602073 4.11036e-20)
(0.00147983 -0.00935678 0)
(-0.0048509 -0.0249699 0)
(-0.0218988 -0.0380346 -1.08551e-19)
(-0.041054 -0.0464128 3.35504e-20)
(-0.0573607 -0.0514981 1.82449e-22)
(-0.0678428 -0.0551812 5.72549e-20)
(-0.0705057 -0.0587174 0)
(-0.0639829 -0.0626413 -4.83596e-20)
(-0.0471918 -0.0668895 4.41206e-20)
(-0.0192624 -0.0710362 -7.85479e-20)
(0.020393 -0.0744605 1.06141e-21)
(0.0719523 -0.0764511 6.2383e-20)
(0.135022 -0.0763215 -3.27038e-21)
(0.208581 -0.0734936 4.41664e-20)
(0.29104 -0.0675753 -6.71856e-20)
(0.380591 -0.0585251 0)
(0.474823 -0.0462066 5.89028e-20)
(0.571691 -0.0316023 -8.07916e-20)
(0.669203 -0.0146678 2.24971e-20)
(0.76588 0.00306493 0)
(0.85543 0.0209775 1.65498e-20)
(0.953061 0.0377886 5.42434e-20)
(1.01433 0.0534651 -5.06473e-20)
(1.12728 0.0636115 -5.73044e-20)
(-0.00468614 6.58761e-05 1.2273e-19)
(-0.0152241 -0.00600508 -1.55969e-19)
(-0.0304967 -0.0153022 -1.24999e-22)
(-0.044177 -0.0234637 3.35689e-20)
(-0.0521192 -0.030121 -6.23322e-20)
(-0.0513883 -0.0359821 -5.73239e-20)
(-0.0396237 -0.0416387 1.05131e-19)
(-0.0150173 -0.0472436 -1.66589e-21)
(0.0237514 -0.0525594 -8.93024e-20)
(0.0773721 -0.057068 1.5924e-19)
(0.145689 -0.0600947 -2.87892e-21)
(0.227519 -0.060931 -6.57546e-20)
(0.320664 -0.0589861 0)
(0.422093 -0.0538869 0)
(0.528196 -0.0455163 -2.14146e-20)
(0.635522 -0.034288 -3.72891e-20)
(0.740157 -0.0202633 -6.06382e-20)
(0.839609 -0.00534008 5.65251e-20)
(0.931489 0.0115524 -2.25135e-20)
(1.01205 0.0262374 3.82706e-20)
(1.08538 0.0418861 -1.88567e-20)
(1.14179 0.0526892 2.80179e-20)
(1.19068 0.0630251 -6.91044e-20)
(1.23203 0.0663354 1.17869e-20)
(-0.0101864 0.00702408 4.1097e-20)
(-0.023683 0.00866833 0)
(-0.0351138 0.00309796 7.30086e-20)
(-0.0402884 -0.00416828 -6.76066e-20)
(-0.0357864 -0.0114483 6.24094e-20)
(-0.0187148 -0.0184675 0)
(0.0134552 -0.0251524 0)
(0.0626013 -0.0312201 -4.82181e-20)
(0.129583 -0.0361856 1.87706e-21)
(0.213876 -0.0394146 4.15899e-20)
(0.313329 -0.040249 -3.49739e-20)
(0.424231 -0.0381639 6.62117e-20)
(0.54172 -0.0329109 0)
(0.660417 -0.0246024 9.69254e-20)
(0.775062 -0.0136843 -1.74241e-19)
(0.881202 -0.000960341 1.15566e-19)
(0.974966 0.0128178 6.23712e-20)
(1.05498 0.0261309 -5.8144e-20)
(1.11831 0.0392737 0)
(1.16782 0.0488261 0)
(1.20145 0.058676 0)
(1.22212 0.061445 0)
(1.23658 0.0659228 1.38322e-20)
(1.23386 0.0619448 -5.00076e-20)
(-0.190163 0.605137 -3.78372e-21)
(-0.164555 0.694567 3.78499e-21)
(-0.136961 0.763863 -8.94909e-23)
(-0.106535 0.809179 0)
(-0.0649522 0.822328 -2.39142e-21)
(-0.00367007 0.791914 4.62697e-21)
(0.083082 0.707205 9.848e-23)
(0.194671 0.567053 -2.26879e-21)
(0.319907 0.384662 0)
(0.438225 0.181334 0)
(0.536362 -0.0376711 -1.67166e-22)
(0.618607 -0.27398 -1.59113e-22)
(0.687427 -0.498347 -2.14832e-21)
(0.73324 -0.660155 1.95081e-21)
(0.756436 -0.731587 0)
(0.763682 -0.732877 0)
(0.754756 -0.705134 7.61471e-22)
(0.741414 -0.666438 -5.45755e-23)
(0.730144 -0.63221 -6.25416e-22)
(0.704266 -0.635341 -4.01909e-23)
(0.652713 -0.672175 0)
(0.594673 -0.666484 0)
(0.565778 -0.531841 0)
(0.579972 -0.266441 0)
(0.625204 0.0449663 0)
(0.686471 0.302889 0)
(0.744716 0.465218 2.5953e-22)
(0.786102 0.543042 -4.14704e-22)
(0.819578 0.5506 0)
(0.851323 0.527463 0)
(0.862382 0.545136 -1.80777e-22)
(0.840677 0.615844 1.75659e-22)
(0.798692 0.649394 1.15166e-22)
(0.760287 0.547631 0)
(0.739559 0.305857 0)
(0.743113 0.00287005 3.30369e-22)
(0.767781 -0.257031 -3.21087e-22)
(0.814937 -0.408994 0)
(0.865169 -0.476189 1.47452e-22)
(0.87307 -0.541164 -2.08742e-22)
(0.825434 -0.617386 6.14361e-23)
(0.768641 -0.601478 0)
(0.737856 -0.407184 -1.95308e-22)
(0.731033 -0.0924388 1.8991e-22)
(0.726839 0.202802 0)
(0.71026 0.401775 0)
(0.667424 0.490893 -4.72112e-23)
(0.617897 0.493928 1.31971e-22)
(0.56954 0.400758 0)
(0.534904 0.258891 0)
(0.52308 0.066638 -3.88259e-23)
(0.519238 -0.105389 -8.31535e-24)
(0.528852 -0.257694 -2.33285e-24)
(0.551769 -0.34244 3.24896e-23)
(0.559581 -0.324673 0)
(0.599578 -0.286717 0)
(0.587873 -0.120411 0)
(0.636101 -0.0442703 0)
(0.659607 0.0985499 0)
(0.697861 0.155393 0)
(-0.294003 0.557795 -2.95397e-22)
(-0.248429 0.644514 -1.13206e-20)
(-0.195245 0.707762 8.28339e-22)
(-0.128993 0.745118 9.81537e-21)
(-0.0466899 0.742695 1.37328e-22)
(0.0554206 0.694158 0)
(0.177595 0.594238 -9.63699e-21)
(0.313283 0.447538 1.98341e-20)
(0.448118 0.273536 -1.01989e-20)
(0.564101 0.0913993 1.10596e-20)
(0.657656 -0.107891 -1.05715e-20)
(0.737814 -0.333072 9.73268e-21)
(0.802089 -0.546095 -9.47173e-21)
(0.835429 -0.691206 -2.29778e-22)
(0.837538 -0.745943 -4.9747e-21)
(0.823564 -0.732391 4.83132e-21)
(0.797113 -0.694648 -3.05515e-21)
(0.766329 -0.653479 2.88306e-21)
(0.741942 -0.615167 -2.55144e-21)
(0.708989 -0.605793 5.0634e-21)
(0.650757 -0.6319 -2.50965e-21)
(0.580777 -0.632466 -1.74679e-22)
(0.533517 -0.521548 -3.96355e-21)
(0.531539 -0.283746 8.04082e-21)
(0.571233 0.00709236 -4.07084e-21)
(0.634567 0.259181 2.08264e-22)
(0.698254 0.429695 2.63421e-21)
(0.750363 0.517281 -4.6794e-22)
(0.798579 0.530956 -3.4249e-21)
(0.843234 0.5161 2.91505e-21)
(0.864999 0.546083 -1.36749e-21)
(0.855146 0.627918 1.86917e-22)
(0.827007 0.667316 -1.15412e-22)
(0.801668 0.565169 3.18839e-22)
(0.790597 0.315677 0)
(0.797693 0.00117824 0)
(0.815628 -0.270858 -1.13142e-21)
(0.846448 -0.428138 8.57529e-22)
(0.881113 -0.485911 4.37439e-22)
(0.879206 -0.532761 -1.6272e-23)
(0.822661 -0.597875 -5.57143e-22)
(0.75663 -0.584511 1.29028e-22)
(0.719166 -0.399545 0)
(0.710445 -0.0922524 0)
(0.707767 0.20241 0)
(0.693672 0.40747 0)
(0.653994 0.503084 2.04713e-22)
(0.605832 0.508117 -8.61426e-23)
(0.559045 0.412841 0)
(0.522875 0.266054 0)
(0.51419 0.068802 0)
(0.513607 -0.106498 -9.28298e-23)
(0.526765 -0.261596 -5.45394e-24)
(0.550805 -0.347289 -6.58371e-23)
(0.564866 -0.330814 0)
(0.614156 -0.290602 0)
(0.598723 -0.124661 1.82617e-23)
(0.651623 -0.0511545 3.14085e-23)
(0.669682 0.0931155 0)
(0.699177 0.152146 0)
(-0.279121 0.488002 -1.04395e-21)
(-0.217603 0.567283 -1.87659e-20)
(-0.144262 0.621069 1.74111e-20)
(-0.0552315 0.646155 -1.62868e-20)
(0.0496287 0.632459 -1.38315e-22)
(0.172801 0.576181 0)
(0.308028 0.47308 -2.00344e-20)
(0.447518 0.330333 1.96224e-20)
(0.575737 0.173287 1.65572e-22)
(0.679909 0.0176846 3.39734e-22)
(0.767414 -0.159251 3.39605e-22)
(0.848101 -0.370904 3.26998e-22)
(0.908982 -0.569919 -1.68247e-20)
(0.93096 -0.697076 1.65689e-20)
(0.914587 -0.737901 0)
(0.880999 -0.716601 2.61233e-22)
(0.8406 -0.674824 -6.02659e-21)
(0.795878 -0.635173 5.9375e-21)
(0.759102 -0.59567 0)
(0.721614 -0.574058 0)
(0.659921 -0.58873 -5.01438e-21)
(0.579983 -0.596286 1.0713e-20)
(0.517562 -0.511551 -1.2032e-20)
(0.50038 -0.303641 -4.598e-22)
(0.530444 -0.0340285 1.3269e-20)
(0.590798 0.211355 -1.23258e-20)
(0.656976 0.388302 9.6363e-21)
(0.718244 0.484402 -1.11742e-21)
(0.779857 0.504904 -3.30925e-21)
(0.83666 0.498581 0)
(0.869201 0.539547 0)
(0.871773 0.632725 1.3741e-21)
(0.857301 0.681126 -1.69524e-21)
(0.844109 0.582494 4.17276e-24)
(0.842721 0.329009 3.30497e-21)
(0.853579 0.00720032 -3.21121e-21)
(0.865567 -0.274216 0)
(0.880851 -0.438527 2.4311e-22)
(0.899913 -0.49061 1.40931e-21)
(0.889285 -0.520561 -2.44681e-21)
(0.825429 -0.575534 9.58847e-22)
(0.750683 -0.567981 9.89613e-23)
(0.706731 -0.394851 -1.489e-21)
(0.695898 -0.0950413 1.1871e-21)
(0.694069 0.20028 2.70512e-22)
(0.681896 0.412662 2.30886e-22)
(0.645189 0.514695 -2.05264e-22)
(0.598168 0.521993 0)
(0.552422 0.425707 0)
(0.514269 0.274099 -9.26188e-22)
(0.507469 0.0714701 4.39244e-22)
(0.511023 -0.107642 -4.61759e-22)
(0.52842 -0.265467 5.78699e-22)
(0.551645 -0.35277 5.7391e-22)
(0.570371 -0.33884 -1.23223e-22)
(0.629047 -0.295601 1.41955e-22)
(0.612204 -0.129274 -8.35126e-23)
(0.668923 -0.0579608 1.93856e-23)
(0.680106 0.0890399 0)
(0.700552 0.149784 0)
(-0.15462 0.409411 -2.87743e-20)
(-0.0902709 0.473154 1.36712e-23)
(-0.0126937 0.516234 2.70657e-20)
(0.0851169 0.531227 -2.4789e-22)
(0.198659 0.513734 0)
(0.3242 0.458107 0)
(0.456238 0.36069 -3.97401e-20)
(0.586865 0.229481 -3.97289e-21)
(0.699533 0.0922261 6.28327e-20)
(0.78758 -0.0406434 5.42219e-22)
(0.869553 -0.20123 -2.17251e-20)
(0.953183 -0.400905 -1.88683e-20)
(1.0107 -0.584069 1.89237e-20)
(1.01965 -0.69105 0)
(0.985836 -0.717341 -9.84614e-21)
(0.933771 -0.691336 9.04212e-21)
(0.881606 -0.647554 0)
(0.828178 -0.610441 0)
(0.780296 -0.574957 4.18906e-21)
(0.738365 -0.544087 -1.40205e-22)
(0.678427 -0.542686 -3.68293e-21)
(0.593508 -0.55223 -4.66398e-21)
(0.517061 -0.495497 4.65102e-21)
(0.484642 -0.322992 -5.83771e-21)
(0.502365 -0.0775448 2.05955e-22)
(0.555407 0.160359 5.3159e-21)
(0.621154 0.341671 5.2336e-22)
(0.689716 0.444757 3.86286e-23)
(0.762378 0.472274 0)
(0.829879 0.474684 2.39141e-21)
(0.87406 0.525325 -2.46478e-21)
(0.889824 0.628396 1.84361e-22)
(0.887665 0.687012 0)
(0.885292 0.596305 -3.27028e-22)
(0.893179 0.34429 6.67659e-21)
(0.908693 0.018314 -1.19388e-20)
(0.916943 -0.27019 4.43116e-22)
(0.918311 -0.441762 1.2809e-21)
(0.921616 -0.491589 3.08245e-21)
(0.902519 -0.506795 2.59269e-22)
(0.832835 -0.550931 -1.71634e-21)
(0.750289 -0.549766 1.4381e-21)
(0.700217 -0.391484 4.23001e-23)
(0.687104 -0.100052 1.05867e-21)
(0.68556 0.195834 -1.30077e-21)
(0.674815 0.415621 -1.5096e-21)
(0.640889 0.526043 4.36466e-22)
(0.59513 0.53756 8.84087e-22)
(0.550024 0.440614 -1.84492e-21)
(0.509349 0.283662 1.43413e-21)
(0.502903 0.0745223 -4.69635e-22)
(0.510837 -0.109185 5.41797e-22)
(0.533846 -0.269372 5.06687e-22)
(0.555172 -0.358435 -9.29462e-22)
(0.576155 -0.348388 4.92556e-23)
(0.643163 -0.301884 -1.29826e-22)
(0.62761 -0.134391 0)
(0.687321 -0.0644953 -2.74535e-23)
(0.690257 0.0864727 4.54198e-24)
(0.701912 0.148301 0)
(0.0308623 0.328257 2.20048e-20)
(0.0930397 0.376716 -4.4199e-20)
(0.170177 0.410528 2.19406e-20)
(0.264132 0.420057 2.74173e-20)
(0.371852 0.401105 -5.77375e-20)
(0.4875 0.350971 -4.46205e-21)
(0.606372 0.265086 3.39828e-20)
(0.720362 0.150399 4.07767e-20)
(0.813913 0.032621 -3.99126e-20)
(0.889347 -0.084895 0)
(0.971696 -0.237039 -4.11527e-20)
(1.05728 -0.4216 7.72186e-20)
(1.1052 -0.580357 -3.62212e-20)
(1.09619 -0.664631 0)
(1.04603 -0.679244 0)
(0.980001 -0.654688 2.58472e-22)
(0.918653 -0.615052 -1.12484e-20)
(0.861225 -0.58071 1.09211e-20)
(0.806488 -0.551369 0)
(0.759853 -0.518442 6.98508e-21)
(0.703598 -0.501871 -1.31314e-20)
(0.619655 -0.506337 1.33558e-20)
(0.53158 -0.473196 -1.50017e-20)
(0.48227 -0.338827 -1.0047e-21)
(0.485364 -0.120957 1.73501e-20)
(0.528214 0.107179 -8.62459e-21)
(0.591026 0.290601 -2.38849e-22)
(0.664266 0.399616 -2.1856e-21)
(0.745665 0.434191 2.66787e-22)
(0.823131 0.44392 1.9737e-21)
(0.878384 0.501829 1.4363e-22)
(0.906093 0.615231 -3.2222e-21)
(0.916118 0.688149 7.56566e-21)
(0.924515 0.610423 -4.91965e-21)
(0.941048 0.363932 0)
(0.961252 0.0358842 -7.11925e-21)
(0.967433 -0.257922 6.80776e-21)
(0.95728 -0.436708 -3.05511e-21)
(0.945448 -0.487547 3.83093e-21)
(0.918569 -0.490931 -2.41255e-22)
(0.844835 -0.524834 0)
(0.75505 -0.530923 -1.70534e-22)
(0.699005 -0.389691 6.05236e-22)
(0.683619 -0.108085 0)
(0.682055 0.189695 2.09611e-21)
(0.672611 0.418604 -8.48955e-22)
(0.641563 0.536783 3.98942e-22)
(0.597195 0.551473 4.48195e-22)
(0.552142 0.45563 0)
(0.508478 0.294553 0)
(0.500942 0.0782104 -1.77434e-21)
(0.512614 -0.111174 2.82587e-21)
(0.542505 -0.273306 -1.52866e-21)
(0.562078 -0.363848 4.75315e-22)
(0.582678 -0.358954 5.78667e-22)
(0.655653 -0.309544 1.29965e-22)
(0.643839 -0.140206 -1.13588e-22)
(0.70596 -0.0705547 0)
(0.699555 0.0854943 -1.63494e-23)
(0.703231 0.147633 -1.24097e-24)
(0.227354 0.245593 1.80043e-20)
(0.286217 0.287911 -1.78013e-20)
(0.357244 0.315105 1.70327e-22)
(0.441651 0.320941 -1.69962e-22)
(0.536822 0.303204 2.16828e-22)
(0.636847 0.261218 -2.46735e-22)
(0.738735 0.189629 5.08048e-22)
(0.835079 0.0928779 0)
(0.915374 -0.00834918 -5.86683e-22)
(0.989203 -0.119319 6.00285e-22)
(1.07631 -0.266862 5.90269e-22)
(1.15746 -0.432893 -6.01179e-22)
(1.18863 -0.563334 0)
(1.15995 -0.62663 0)
(1.0963 -0.633421 3.05708e-22)
(1.02179 -0.612312 0)
(0.953775 -0.579902 -1.81146e-22)
(0.894256 -0.548719 0)
(0.835688 -0.52413 -6.66581e-21)
(0.784012 -0.494095 1.2322e-20)
(0.732363 -0.466238 -1.08047e-20)
(0.655772 -0.459858 5.12974e-21)
(0.561385 -0.442647 5.77484e-21)
(0.493611 -0.346667 -5.60578e-21)
(0.4789 -0.16104 -6.73325e-21)
(0.50928 0.0536826 6.52992e-21)
(0.566838 0.236351 0)
(0.641919 0.349554 1.05567e-22)
(0.729317 0.390489 0)
(0.814871 0.407265 0)
(0.880823 0.471579 4.09807e-21)
(0.920695 0.59313 -4.17809e-21)
(0.941027 0.679756 3.97928e-22)
(0.958167 0.618545 6.19502e-22)
(0.983029 0.383616 -7.22381e-22)
(1.0091 0.058262 -6.1369e-21)
(1.01576 -0.238613 5.95719e-21)
(0.997033 -0.424372 -4.08428e-21)
(0.971055 -0.479288 3.45313e-21)
(0.936332 -0.474031 4.73458e-22)
(0.860424 -0.497447 -1.34348e-21)
(0.764461 -0.510479 -1.42001e-22)
(0.702097 -0.38866 9.12613e-22)
(0.684638 -0.118523 0)
(0.682999 0.18072 -7.30778e-22)
(0.67457 0.417508 1.11589e-21)
(0.646693 0.545462 -1.45257e-21)
(0.604311 0.567946 -4.51212e-22)
(0.55929 0.474136 0)
(0.512531 0.307981 6.84547e-22)
(0.502625 0.0832124 -1.35448e-21)
(0.516411 -0.113535 7.31387e-23)
(0.55365 -0.277497 -6.04564e-22)
(0.572666 -0.368778 6.90815e-22)
(0.590723 -0.369877 -6.16769e-22)
(0.666129 -0.318462 0)
(0.659669 -0.146887 1.13655e-22)
(0.723917 -0.0760443 0)