/*--------------------------------*- C++ -*----------------------------------*\
| =========                 |                                                 |
| \\      /  F ield         | OpenFOAM: The Open Source CFD Toolbox           |
|  \\    /   O peration     | Version:  2312                                  |
|   \\  /    A nd           | Website:  www.openfoam.com                      |
|    \\/     M anipulation  |                                                 |
\*---------------------------------------------------------------------------*/
FoamFile
{
    version     2.0;
    format      ascii;
    arch        "LSB;label=32;scalar=64";
    class       volVectorField;
    location    "22.75";
    object      U;
}
// * * * * * * * * * * * * * * * * * * * * * * * * * * * * * * * * * * * * * //

dimensions      [0 1 -1 0 0 0 0];

internalField   nonuniform List<vector> 
5478
(
(-0.0179669 0.0123216 -5.59729e-20)
(-0.0320081 0.026221 0)
(-0.018416 0.0331055 8.43269e-20)
(0.0274086 0.0358665 -1.47608e-19)
(0.110187 0.0383729 9.6698e-20)
(0.230968 0.0449304 -2.82826e-20)
(0.382864 0.0580718 -5.01434e-20)
(0.552503 0.0776302 0)
(0.723934 0.101287 0)
(0.888088 0.126864 7.29832e-20)
(1.02589 0.147144 -3.08004e-20)
(1.14832 0.169192 -5.84703e-20)
(1.22904 0.169974 -2.48856e-20)
(1.28802 0.184137 0)
(1.32813 0.154125 7.99071e-20)
(-0.023465 0.0124343 1.1214e-19)
(-0.0280358 0.0176865 0)
(0.0125139 0.0172648 0)
(0.107158 0.0196954 -7.35231e-20)
(0.257849 0.0314101 9.69965e-20)
(0.449055 0.0546866 2.81248e-20)
(0.654036 0.0869244 -4.90062e-20)
(0.84683 0.122112 4.3449e-20)
(1.012 0.155671 1.14044e-19)
(1.13576 0.179933 -1.0104e-19)
(1.22282 0.197403 2.48192e-21)
(1.26833 0.198776 0)
(1.28312 0.19548 2.4839e-20)
(1.28002 0.179491 0)
(1.25484 0.161094 0)
(-0.026199 0.0120188 -3.46612e-22)
(-0.00733559 0.0115364 -5.21281e-20)
(0.0859342 0.0113536 1.59266e-22)
(0.258893 0.0250658 0)
(0.48769 0.0569096 -3.24234e-20)
(0.725366 0.100112 2.7731e-20)
(0.932068 0.144057 2.37781e-20)
(1.08789 0.180433 0)
(1.18636 0.203067 -3.73411e-20)
(1.23673 0.212732 3.28519e-20)
(1.24922 0.208321 2.88769e-20)
(1.23975 0.198148 0)
(1.2254 0.180774 0)
(1.21094 0.169498 -7.1368e-20)
(1.20334 0.151969 6.35124e-20)
(-0.0221392 0.00904157 -6.08416e-20)
(0.0402565 0.00447795 5.13227e-20)
(0.215155 0.0158808 -4.41487e-20)
(0.47751 0.0547379 3.86305e-20)
(0.751537 0.109174 6.49858e-20)
(0.974199 0.161008 -5.51346e-20)
(1.12178 0.198581 -2.3759e-20)
(1.19825 0.217476 1.98004e-20)
(1.22428 0.221096 -1.83502e-20)
(1.22228 0.213191 0)
(1.21242 0.203188 0)
(1.2071 0.190018 -4.27291e-20)
(1.20785 0.183362 5.71645e-20)
(1.20928 0.172162 -3.27804e-20)
(1.21932 0.165327 0)
(-0.00762812 0.00378782 3.08152e-20)
(0.126275 1.76685e-05 2.56471e-20)
(0.403938 0.0400304 -9.23418e-20)
(0.722755 0.108341 1.28191e-21)
(0.974828 0.171442 -7.97305e-22)
(1.12686 0.212533 -6.74169e-22)
(1.19476 0.230007 2.23088e-20)
(1.21266 0.231207 1.95606e-20)
(1.21058 0.22388 1.47663e-20)
(1.20662 0.215603 -1.3587e-21)
(1.20557 0.20616 -3.45697e-20)
(1.20464 0.198017 0)
(1.19906 0.187524 1.76699e-20)
(1.19356 0.174745 -1.44515e-20)
(1.1773 0.164065 2.46922e-20)
(0.0220279 -0.00176958 -6.66696e-20)
(0.258723 0.00945921 7.17904e-20)
(0.623686 0.0902048 -2.45112e-20)
(0.930645 0.172976 1.84601e-20)
(1.11079 0.2245 -3.40082e-20)
(1.18785 0.245283 -2.57351e-20)
(1.20881 0.247362 4.63032e-22)
(1.20888 0.241148 0)
(1.20424 0.232796 2.88948e-20)
(1.19782 0.222374 -2.56953e-20)
(1.1891 0.21135 1.095e-20)
(1.17874 0.198182 0)
(1.17137 0.186285 6.81227e-21)
(1.16345 0.17287 -1.32827e-20)
(1.16383 0.165902 0)
(0.0719638 -0.00317647 -8.26605e-21)
(0.428937 0.0458506 8.58344e-22)
(0.821318 0.157452 1.19007e-20)
(1.06678 0.233278 2.01069e-20)
(1.17512 0.265053 -1.53851e-20)
(1.20676 0.270474 2.58944e-20)
(1.2071 0.264291 -5.93969e-21)
(1.19768 0.253783 0)
(1.18587 0.240921 -1.6226e-20)
(1.1749 0.227698 8.95798e-22)
(1.1667 0.214174 1.37486e-20)
(1.16216 0.20211 0)
(1.1575 0.189941 -9.69469e-21)
(1.1546 0.177506 0)
(1.14611 0.169125 6.59053e-21)
(0.143399 0.0065279 -9.32002e-21)
(0.60327 0.110127 0)
(0.966067 0.229009 1.26633e-20)
(1.14224 0.286946 0)
(1.19881 0.300771 0)
(1.20273 0.294417 0)
(1.19039 0.2811 -4.95712e-21)
(1.17645 0.265691 0)
(1.16529 0.250482 3.19002e-21)
(1.15672 0.235427 0)
(1.14918 0.220912 -4.22926e-21)
(1.14083 0.205766 0)
(1.13346 0.190814 2.87828e-21)
(1.12515 0.176288 0)
(1.12011 0.165212 1.99854e-21)
(-0.0146818 -0.025648 -6.17247e-21)
(-0.0597481 -0.0502065 0)
(-0.123906 -0.0626777 1.01213e-20)
(-0.184449 -0.071073 0)
(-0.240381 -0.0781961 0)
(-0.292831 -0.0840138 0)
(-0.341744 -0.0881454 -7.37224e-21)
(-0.387231 -0.0904128 0)
(-0.429366 -0.0907707 6.44448e-21)
(-0.468175 -0.0892883 0)
(-0.503535 -0.0861372 -1.12519e-20)
(-0.535347 -0.0815712 0)
(-0.563893 -0.075866 9.73946e-21)
(-0.590039 -0.0692725 0)
(-0.614213 -0.0623034 8.42926e-21)
(-0.015106 0.0131797 3.10298e-20)
(-0.0551948 0.0155983 -2.24398e-20)
(-0.111179 0.00922895 1.03292e-20)
(-0.163883 0.000641984 3.74165e-20)
(-0.212049 -0.00793492 7.57486e-22)
(-0.256561 -0.0154801 -3.1485e-20)
(-0.297389 -0.0215736 2.16353e-20)
(-0.334625 -0.0260612 0)
(-0.368341 -0.0288904 1.96572e-20)
(-0.398575 -0.0301062 1.11386e-21)
(-0.425205 -0.0298694 -1.04148e-20)
(-0.447864 -0.0284797 0)
(-0.466216 -0.0264832 -2.86849e-20)
(-0.481278 -0.0239426 0)
(-0.494546 -0.0213435 -4.20035e-20)
(-0.0171812 0.0408178 5.10848e-20)
(-0.0492927 0.0675132 1.18661e-20)
(-0.0899066 0.069806 -2.0402e-20)
(-0.127064 0.0630684 -5.66958e-20)
(-0.159278 0.0540735 3.36572e-20)
(-0.186792 0.0455369 3.23718e-20)
(-0.209421 0.0383053 -5.80065e-20)
(-0.227156 0.0326029 0)
(-0.240011 0.0284872 -5.16787e-20)
(-0.247968 0.0258946 4.59513e-20)
(-0.250896 0.0245917 2.1615e-20)
(-0.249397 0.0251016 0)
(-0.240729 0.0242839 1.89322e-20)
(-0.229162 0.0266567 -3.44331e-20)
(-0.206415 0.0224208 0)
(-0.0190194 0.0526835 2.67017e-20)
(-0.0431566 0.0978776 -7.07046e-20)
(-0.0661624 0.111731 8.43282e-20)
(-0.0845665 0.110051 -7.5673e-20)
(-0.0975433 0.102303 -3.46584e-20)
(-0.10492 0.0933929 3.1691e-20)
(-0.106398 0.0852644 2.93083e-20)
(-0.101903 0.0785053 2.67949e-20)
(-0.0915224 0.0732173 -7.57238e-20)
(-0.0759278 0.0696024 -1.77926e-21)
(-0.0514423 0.066814 2.03722e-20)
(-0.0287467 0.0666462 0)
(0.0136702 0.0642935 3.58476e-20)
(0.0391977 0.0676499 1.03327e-19)
(0.111475 0.0704214 -6.15869e-20)
(-0.0189432 0.0499171 3.69958e-22)
(-0.0372075 0.10417 4.82492e-20)
(-0.0451345 0.129572 -4.2684e-20)
(-0.045738 0.135761 3.81366e-20)
(-0.0396216 0.131764 6.90022e-20)
(-0.0270151 0.123868 -6.28475e-20)
(-0.00793143 0.115401 -2.84238e-20)
(0.0174403 0.107758 -8.07286e-20)
(0.0506147 0.101258 7.25999e-20)
(0.0844149 0.096376 0)
(0.140157 0.0928635 0)
(0.170161 0.0892563 7.7747e-20)
(0.262735 0.0923775 -1.76977e-19)
(0.276786 0.0823798 6.41004e-20)
(0.418564 0.0986491 0)
(-0.0167263 0.0381885 1.2196e-22)
(-0.0318332 0.0901507 -4.82274e-20)
(-0.0304269 0.121662 1.28352e-19)
(-0.0179362 0.134658 -3.7834e-20)
(0.00372321 0.135374 -3.43687e-20)
(0.0334221 0.129718 3.11795e-20)
(0.0706773 0.121661 2.84356e-20)
(0.113616 0.113037 5.18041e-20)
(0.169862 0.107049 -9.14354e-20)
(0.216195 0.0996969 4.1779e-20)
(0.313709 0.100136 3.81967e-20)
(0.34142 0.092463 0)
(0.502697 0.100437 0)
(0.49806 0.0892362 1.25865e-19)
(0.713914 0.103197 -1.12031e-19)
(-0.0141494 0.0248158 -1.02768e-23)
(-0.0285278 0.0655732 0)
(-0.0238988 0.094157 0)
(-0.004404 0.107987 7.51445e-20)
(0.0277713 0.110591 -3.34796e-20)
(0.0713559 0.106679 2.92196e-20)
(0.126699 0.100611 5.40685e-20)
(0.193041 0.0945968 -4.79466e-20)
(0.279352 0.0924083 4.54829e-20)
(0.359151 0.0895899 -4.18226e-20)
(0.494281 0.0938945 -2.18085e-21)
(0.557848 0.0929754 0)
(0.754731 0.104592 3.02267e-20)
(0.77557 0.0996017 0)
(1.02027 0.118727 0)
(-0.0141043 0.0155869 -5.54132e-20)
(-0.029302 0.0419669 0)
(-0.023821 0.0603921 -8.44667e-20)
(0.00173086 0.0690939 1.48258e-19)
(0.0476702 0.0707733 -1.63143e-19)
(0.115561 0.0696579 -2.96243e-20)
(0.206638 0.0695885 5.12383e-20)
(0.319533 0.0729913 0)
(0.450207 0.0795425 0)
(0.590246 0.092258 -7.76837e-20)
(0.738488 0.102519 -3.77356e-20)
(0.867864 0.120513 6.30534e-20)
(1.02183 0.129084 -3.02737e-20)
(1.09572 0.140104 0)
(1.26342 0.148018 -9.79331e-20)
(-0.645217 -0.0523928 0)
(-0.673218 -0.0460451 4.04695e-21)
(-0.669047 -0.0288065 -3.74317e-21)
(-0.648659 -0.016156 0)
(-0.589516 0.00836292 0)
(-0.518974 0.0106605 -1.2594e-22)
(-0.384241 0.0187381 0)
(-0.23043 0.0271184 0)
(-0.0193151 0.0374296 -1.2131e-23)
(0.173794 0.0415156 0)
(0.359616 0.0538662 0)
(0.497036 0.0485896 7.11691e-23)
(0.619115 0.0611373 0)
(0.693724 0.0466445 4.61507e-23)
(0.767996 0.0622993 3.58143e-23)
(0.805812 0.0434782 0)
(0.852252 0.0622568 1.5618e-22)
(0.874771 0.0451189 -1.8316e-22)
(0.90021 0.0563519 0)
(0.916843 0.0533185 -7.72035e-23)
(0.927202 0.0454336 8.76903e-23)
(0.942445 0.0629341 -1.59234e-23)
(0.948943 0.0410449 2.05812e-23)
(0.959928 0.0557846 -1.96658e-23)
(0.969454 0.0534279 1.48805e-23)
(0.972842 0.0363543 0)
(0.981859 0.0579037 9.38838e-24)
(0.984602 0.0483518 -8.97677e-24)
(0.984824 0.0317567 7.19321e-24)
(0.991331 0.0650416 0)
(0.991338 0.0510452 9.91607e-24)
(0.989417 0.0328612 0)
(0.994025 0.0617703 8.79708e-24)
(0.996826 0.0735582 4.25232e-24)
(0.994306 0.0621 -5.5269e-25)
(0.991319 0.0157263 4.67423e-24)
(0.998851 0.100075 0)
(1.00124 0.105094 -2.25651e-24)
(-0.516546 -0.0173521 1.54369e-20)
(-0.568717 -0.0368326 -1.23382e-22)
(-0.568122 -0.0312635 -1.41183e-20)
(-0.56475 -0.0396426 1.34651e-20)
(-0.520383 -0.0306301 0)
(-0.456944 -0.0455033 1.26922e-22)
(-0.3512 -0.0614595 -1.72764e-22)
(-0.205416 -0.0758017 0)
(-0.0230252 -0.0694736 1.2222e-23)
(0.157567 -0.0518444 0)
(0.3192 -0.0201172 0)
(0.454669 -0.00847271 -7.16786e-23)
(0.562062 0.0188397 0)
(0.641128 0.0155981 -1.41429e-21)
(0.709176 0.039494 1.19562e-21)
(0.75433 0.0261442 -8.23892e-22)
(0.800674 0.0489058 7.8644e-22)
(0.830121 0.035366 3.42522e-23)
(0.859745 0.0488753 0)
(0.882315 0.0479379 0)
(0.899566 0.0409679 1.69591e-23)
(0.920661 0.0592905 -1.16183e-22)
(0.934175 0.0380767 1.81857e-22)
(0.950147 0.0529907 -8.01112e-23)
(0.963483 0.0517099 -4.53098e-23)
(0.97014 0.034851 0)
(0.980145 0.0566819 -2.0396e-23)
(0.983886 0.0480912 0)
(0.985047 0.0311118 -7.21848e-24)
(0.991147 0.0644873 2.22888e-23)
(0.991439 0.0512569 -4.13649e-23)
(0.990059 0.0326411 8.14944e-24)
(0.994451 0.0612088 -1.49514e-23)
(0.997028 0.0735141 -4.94377e-25)
(0.994903 0.0625469 -5.12573e-24)
(0.992391 0.0154259 4.16325e-24)
(0.999539 0.0994083 5.91902e-25)
(1.0021 0.104997 -6.23785e-25)
(-0.204702 0.0225401 3.27246e-20)
(-0.260801 -0.0160597 -6.26597e-20)
(-0.262322 -0.0285349 1.45746e-21)
(-0.256851 -0.0494154 2.76739e-20)
(-0.227054 -0.0632993 3.61669e-22)
(-0.167047 -0.0878422 -2.90376e-22)
(-0.083597 -0.12587 1.75718e-22)
(0.0432679 -0.157781 -1.88153e-22)
(0.18995 -0.157823 0)
(0.337719 -0.132385 -4.55982e-21)
(0.451448 -0.0829412 4.34921e-21)
(0.560128 -0.054905 1.40785e-22)
(0.62938 -0.0154729 0)
(0.696031 -0.0101211 2.81812e-21)
(0.735134 0.0205185 -2.61382e-21)
(0.775316 0.0119235 8.52192e-22)
(0.802428 0.0373834 -8.13157e-22)
(0.829539 0.0266254 -5.90245e-22)
(0.850586 0.0411881 4.95375e-22)
(0.870863 0.0420439 0)
(0.888589 0.0352628 0)
(0.908963 0.054325 -2.10641e-22)
(0.926384 0.0339196 2.01093e-22)
(0.94411 0.0490856 1.40008e-22)
(0.959488 0.0493331 -1.86346e-23)
(0.968511 0.0328914 -1.1028e-22)
(0.978825 0.0551545 -2.167e-25)
(0.983313 0.0477435 3.50388e-23)
(0.985367 0.0303737 -8.38615e-23)
(0.990946 0.0638472 7.58494e-23)
(0.991502 0.0514794 -9.41193e-24)
(0.990737 0.0323935 1.87134e-23)
(0.994873 0.0605873 -1.33607e-23)
(0.997164 0.0734473 1.27746e-23)
(0.995478 0.0629921 4.54704e-24)
(0.993509 0.015117 3.99073e-24)
(1.00024 0.0987049 -1.33858e-23)
(1.00293 0.104876 -2.43041e-24)
(0.119203 0.0434867 0)
(0.0864588 0.00854816 3.17548e-20)
(0.0740038 -0.0235431 -3.12247e-20)
(0.0837336 -0.0568166 0)
(0.106289 -0.082479 -3.71693e-22)
(0.156832 -0.119256 2.98324e-22)
(0.236052 -0.171689 0)
(0.34388 -0.218305 -5.41759e-23)
(0.455193 -0.224229 -4.98173e-23)
(0.561646 -0.192952 0)
(0.63621 -0.131747 4.59094e-21)
(0.71134 -0.0882431 -4.52154e-21)
(0.750215 -0.0384023 2.32516e-22)
(0.79832 -0.0266376 2.83111e-21)
(0.814332 0.00723157 -2.69964e-21)
(0.843426 0.000972292 -1.18776e-22)
(0.850801 0.0289406 0)
(0.869457 0.0203234 7.27104e-23)
(0.877183 0.0354254 -8.45326e-22)
(0.888845 0.0376018 1.38119e-22)
(0.900796 0.030302 1.01385e-22)
(0.914057 0.0497395 4.52258e-22)
(0.930095 0.0298319 3.05039e-22)
(0.945115 0.0449928 -3.75254e-22)
(0.959415 0.0468594 3.15996e-23)
(0.968919 0.0307924 0)
(0.9784 0.0534875 2.10953e-23)
(0.983089 0.04738 -3.55004e-23)
(0.985837 0.0295732 8.52033e-23)
(0.990769 0.0631331 -7.69906e-23)
(0.99154 0.0517155 2.11275e-23)
(0.991433 0.0321163 0)
(0.995286 0.0599069 1.34788e-23)
(0.997247 0.0733559 -2.56889e-23)
(0.996031 0.0634311 -1.05434e-23)
(0.994657 0.0147984 -1.67038e-23)
(1.00094 0.0979652 1.33952e-23)
(1.00372 0.104732 -1.1696e-25)
(0.406282 0.0655406 4.83434e-22)
(0.401113 0.0290985 1.01129e-21)
(0.390674 -0.00876731 0)
(0.39583 -0.0566358 0)
(0.415008 -0.0982344 0)
(0.451484 -0.145573 0)
(0.522023 -0.209935 1.24139e-20)
(0.613948 -0.264903 -1.80139e-20)
(0.688307 -0.2732 5.82746e-21)
(0.743462 -0.235149 0)
(0.77702 -0.166078 3.88893e-21)
(0.815355 -0.115163 -3.80004e-21)
(0.834988 -0.0568342 -3.71357e-21)
(0.866245 -0.0382505 3.12476e-21)
(0.874862 0.000507536 -2.28792e-21)
(0.896431 -0.00289892 2.30253e-21)
(0.898449 0.0264271 9.572e-23)
(0.911568 0.0186606 1.10924e-21)
(0.913072 0.0335836 -1.05693e-21)
(0.918145 0.0362646 -9.44253e-23)
(0.924247 0.0277278 -7.52651e-23)
(0.929806 0.0469261 -3.88195e-22)
(0.941541 0.0269259 4.27102e-22)
(0.951638 0.0415676 8.01134e-23)
(0.962686 0.0448174 3.30131e-23)
(0.971115 0.0288645 2.69863e-23)
(0.978869 0.0518453 0)
(0.98324 0.04707 0)
(0.986449 0.0287462 0)
(0.990641 0.0623612 0)
(0.991571 0.0519667 -6.22822e-23)
(0.992126 0.0318143 3.89518e-23)
(0.995686 0.0591782 -2.72962e-23)
(0.997293 0.0732429 8.54344e-23)
(0.996565 0.0638591 -1.07021e-23)
(0.99581 0.0144712 -3.80617e-24)
(1.00163 0.0971933 1.54044e-23)
(1.00446 0.104571 5.93711e-24)
(0.679431 0.0805716 -5.08618e-22)
(0.675075 0.0469306 6.55082e-20)
(0.667173 0.00798426 -6.28815e-20)
(0.669272 -0.038741 -5.85627e-20)
(0.687409 -0.0896572 5.57653e-20)
(0.71709 -0.143509 4.18814e-20)
(0.782171 -0.220883 -3.89947e-20)
(0.854793 -0.287457 3.66046e-22)
(0.883026 -0.296253 -1.1046e-22)
(0.883093 -0.258296 0)
(0.871819 -0.188379 1.03687e-22)
(0.875459 -0.133504 -7.09167e-21)
(0.878357 -0.072881 6.75132e-21)
(0.894459 -0.0507906 1.92562e-22)
(0.900471 -0.0100722 0)
(0.915958 -0.0104105 1.93578e-21)
(0.919114 0.0204235 -3.27288e-21)
(0.930983 0.0151417 1.29919e-21)
(0.933931 0.0310525 0)
(0.938346 0.0354285 -6.25107e-22)
(0.943056 0.0263977 1.85849e-22)
(0.945048 0.0454993 5.51804e-22)
(0.953467 0.0254609 4.29527e-22)
(0.959521 0.0391509 -4.02006e-22)
(0.96716 0.0435183 2.54236e-22)
(0.974068 0.0273913 -3.45425e-23)
(0.979852 0.0503733 -2.19418e-22)
(0.983644 0.0468873 1.42657e-22)
(0.987143 0.0279595 -1.35664e-22)
(0.990569 0.0615506 4.86895e-23)
(0.99161 0.0522264 -4.6295e-23)
(0.992799 0.0315031 0)
(0.996067 0.058416 -2.7749e-23)
(0.997322 0.0730982 1.99724e-24)
(0.997085 0.0642686 0)
(0.996941 0.014144 1.67073e-23)
(1.0023 0.0963925 -1.06471e-23)
(1.00515 0.104397 2.87118e-24)
(0.978484 0.0987477 0)
(0.956145 0.0656568 0)
(0.941507 0.0222389 -2.39157e-22)
(0.939098 -0.0356279 0)
(0.949845 -0.0963736 0)
(0.969196 -0.158153 4.4745e-20)
(1.00883 -0.226132 -4.25717e-20)
(1.04079 -0.288983 1.95749e-20)
(1.02023 -0.294914 -1.86765e-20)
(0.973449 -0.25463 0)
(0.92948 -0.186111 2.96034e-23)
(0.910612 -0.135631 -7.4827e-23)
(0.899891 -0.0773364 6.39308e-21)
(0.906765 -0.0550869 -4.04127e-22)
(0.909744 -0.0126495 -5.3129e-21)
(0.922353 -0.0124916 -6.61078e-23)
(0.926016 0.0177475 5.05345e-23)
(0.936956 0.0130492 -2.32059e-21)
(0.941887 0.0287029 2.28245e-21)
(0.947742 0.0343054 0)
(0.953717 0.0249208 0)
(0.955326 0.0441811 3.32571e-23)
(0.962481 0.024278 0)
(0.966196 0.0371126 -3.4606e-22)
(0.971334 0.0425186 2.55681e-23)
(0.976992 0.0260807 2.51526e-22)
(0.980992 0.0489976 2.24621e-22)
(0.984195 0.0467466 -1.48646e-22)
(0.987869 0.0271427 1.63642e-23)
(0.990551 0.0607149 0)
(0.991682 0.0525007 4.30737e-23)
(0.993443 0.0311522 -4.08379e-23)
(0.99642 0.0576275 -1.52187e-23)
(0.997355 0.0729509 -1.08142e-23)
(0.997601 0.0646524 1.25138e-23)
(0.998022 0.0138024 -7.73438e-24)
(1.00293 0.0955792 0)
(1.0058 0.104216 -5.03345e-24)
(1.23927 0.127075 5.99954e-20)
(1.21902 0.103285 6.42358e-20)
(1.19942 0.0658877 2.55332e-21)
(1.18735 0.00944305 -1.20658e-19)
(1.18385 -0.0548133 5.74218e-20)
(1.18336 -0.12513 -4.01331e-22)
(1.18651 -0.199505 0)
(1.16766 -0.265726 -2.25752e-22)
(1.10783 -0.284476 -1.21381e-22)
(1.03312 -0.263816 0)
(0.968254 -0.210368 2.18441e-21)
(0.937311 -0.164028 -2.0237e-21)
(0.919353 -0.101145 -9.59185e-23)
(0.921553 -0.073355 -5.30075e-21)
(0.920425 -0.025452 5.02915e-21)
(0.930286 -0.0209604 -6.58899e-23)
(0.932139 0.0107334 -5.36007e-23)
(0.941748 0.00887742 0)
(0.946768 0.0249249 -2.0237e-21)
(0.953275 0.0332493 1.91848e-21)
(0.960654 0.023823 6.4597e-22)
(0.962606 0.0436072 -1.27027e-22)
(0.969423 0.0244234 -4.92645e-22)
(0.97178 0.0357809 3.64856e-22)
(0.97513 0.0424677 -6.3441e-23)
(0.979806 0.025473 -5.20811e-22)
(0.982282 0.0477756 1.89679e-22)
(0.984932 0.0470504 -1.74788e-22)
(0.988649 0.0264937 1.29095e-22)
(0.990637 0.0597562 0)
(0.991834 0.0529272 0)
(0.99406 0.0308844 0)
(0.996755 0.0567244 -1.35557e-23)
(0.997422 0.0727263 1.47672e-23)
(0.998124 0.0651432 -1.92682e-23)
(0.999027 0.0134402 1.05289e-23)
(1.00353 0.0947175 7.22092e-24)
(1.00643 0.104022 0)
(1.31178 0.13171 0)
(1.3266 0.105146 0)
(1.3276 0.0700057 0)
(1.3269 0.0264208 0)
(1.32128 -0.0278199 0)
(1.30495 -0.0835705 0)
(1.27656 -0.136259 0)
(1.22732 -0.176971 0)
(1.15467 -0.186674 0)
(1.08149 -0.181689 0)
(1.02048 -0.149835 0)
(0.983518 -0.125154 0)
(0.956482 -0.0819405 0)
(0.947774 -0.0662006 0)
(0.940707 -0.0261664 0)
(0.946534 -0.0234178 0)
(0.946285 0.00715415 0)
(0.953256 0.00540442 0)
(0.956463 0.0199989 0)
(0.962005 0.0290452 0)
(0.968743 0.0201208 0)
(0.970752 0.0404416 0)
(0.976553 0.022275 0)
(0.977514 0.0333203 0)
(0.979556 0.0407989 0)
(0.982842 0.0238805 0)
(0.984025 0.0461164 0)
(0.98623 0.0461874 0)
(0.989553 0.0254649 0)
(0.990959 0.0587252 0)
(0.992308 0.0526033 0)
(0.994779 0.0303258 0)
(0.997127 0.0559502 0)
(0.997673 0.0723505 0)
(0.998848 0.0650775 0)
(1.00015 0.0131678 0)
(1.00422 0.0938482 0)
(1.00718 0.103763 0)
(1.26359 0.117833 0)
(1.29035 0.089893 0)
(1.30165 0.0591232 0)
(1.30241 0.0201318 0)
(1.29417 -0.0277314 0)
(1.27611 -0.0805488 0)
(1.24362 -0.128899 0)
(1.1921 -0.17116 0)
(1.12802 -0.190033 0)
(1.06641 -0.191486 0)
(1.01245 -0.162834 0)
(0.976822 -0.138702 0)
(0.953922 -0.0942772 0)
(0.947163 -0.0741964 0)
(0.942835 -0.0309819 0)
(0.948307 -0.0258313 0)
(0.950126 0.00547525 0)
(0.957093 0.00416106 0)
(0.960778 0.0195965 0)
(0.966488 0.0279348 0)
(0.972691 0.0196033 0)
(0.975012 0.0400459 0)
(0.980196 0.0219674 0)
(0.980722 0.0339266 0)
(0.982342 0.0407184 0)
(0.984773 0.0237751 0)
(0.985376 0.0463427 0)
(0.987351 0.0455583 0)
(0.990272 0.0249753 0)
(0.991443 0.0587177 0)
(0.992908 0.0521271 0)
(0.995473 0.0296939 0)
(0.997589 0.0557392 0)
(0.998197 0.0722466 0)
(0.99971 0.0648193 0)
(1.0013 0.0124981 0)
(1.00504 0.0931023 0)
(1.00808 0.103556 0)
(1.22552 0.0994875 0)
(1.24969 0.0764276 0)
(1.26006 0.0498225 0)
(1.26055 0.0188401 0)
(1.25389 -0.0141573 0)
(1.2389 -0.0502466 0)
(1.21233 -0.0830015 0)
(1.17517 -0.110725 0)
(1.12822 -0.11959 0)
(1.08001 -0.121005 0)
(1.03362 -0.102472 0)
(1.00064 -0.0900634 0)
(0.976326 -0.0596755 0)
(0.96493 -0.0519147 0)
(0.955218 -0.0202704 0)
(0.955814 -0.0219955 0)
(0.954891 0.00528924 0)
(0.960739 0.00263111 0)
(0.963822 0.0175125 0)
(0.968831 0.0257701 0)
(0.973963 0.0178645 0)
(0.976274 0.0385566 0)
(0.981002 0.0207792 0)
(0.98152 0.0332544 0)
(0.983415 0.0398073 0)
(0.985467 0.0231506 0)
(0.986116 0.045933 0)
(0.988141 0.0446952 0)
(0.990714 0.0245021 0)
(0.991955 0.0584648 0)
(0.993556 0.0514626 0)
(0.996081 0.0292261 0)
(0.998101 0.0555834 0)
(0.998923 0.0719505 0)
(1.00062 0.0644658 0)
(1.00243 0.0119888 0)
(1.00589 0.0925502 0)
(1.00907 0.103366 0)
(1.19429 0.0866116 0)
(1.21394 0.0682412 0)
(1.22283 0.046374 0)
(1.22243 0.021441 0)
(1.21479 -0.00500559 0)
(1.2008 -0.0349485 0)
(1.1792 -0.0616477 0)
(1.15 -0.0876946 0)
(1.11226 -0.101457 0)
(1.07363 -0.111782 0)
(1.03653 -0.101537 0)
(1.00909 -0.0948967 0)
(0.987426 -0.0680865 0)
(0.976963 -0.0617137 0)
(0.967253 -0.0289531 0)
(0.966906 -0.0281804 0)
(0.964404 0.00102058 0)
(0.967479 -0.000748961 0)
(0.968306 0.0142109 0)
(0.972218 0.0223538 0)
(0.976166 0.0152589 0)
(0.978171 0.0364218 0)
(0.982166 0.0194051 0)
(0.982418 0.032576 0)
(0.98444 0.0391496 0)
(0.985901 0.0226395 0)
(0.986819 0.0455115 0)
(0.988892 0.0439913 0)
(0.990997 0.0239035 0)
(0.992598 0.0580142 0)
(0.994327 0.0508593 0)
(0.99658 0.0286681 0)
(0.998695 0.0551818 0)
(0.999911 0.0715447 0)
(1.00163 0.0641552 0)
(1.00353 0.0114311 0)
(1.00679 0.0918403 0)
(1.01029 0.103096 0)
(1.16535 0.0727635 0)
(1.18139 0.0590985 0)
(1.18877 0.0424815 0)
(1.18815 0.023014 0)
(1.18143 0.00315359 0)
(1.17043 -0.0188479 0)
(1.15372 -0.0376823 0)
(1.13234 -0.0570806 0)
(1.10517 -0.0659913 0)
(1.07679 -0.0734667 0)
(1.047 -0.0644975 0)
(1.02243 -0.0620249 0)
(1.00104 -0.0408182 0)
(0.989021 -0.0401117 0)
(0.977681 -0.0136039 0)
(0.974544 -0.0178245 0)
(0.970041 0.00668181 0)
(0.971696 0.00202117 0)
(0.971693 0.0157809 0)
(0.974635 0.0231257 0)
(0.977218 0.0156725 0)
(0.97884 0.0365475 0)
(0.982202 0.0192377 0)
(0.982521 0.0324648 0)
(0.984968 0.0386751 0)
(0.986078 0.0220575 0)
(0.987566 0.0450364 0)
(0.989661 0.0432262 0)
(0.991295 0.023177 0)
(0.99345 0.0575367 0)
(0.995199 0.050221 0)
(0.997035 0.027975 0)
(0.999462 0.0546962 0)
(1.00115 0.0711044 0)
(1.00271 0.0637848 0)
(1.00459 0.0107163 0)
(1.00784 0.0909321 0)
(1.01184 0.102764 0)
(1.13973 0.0614055 0)
(1.15252 0.0520906 0)
(1.15851 0.040305 0)
(1.15795 0.0259008 0)
(1.15237 0.0114843 0)
(1.14337 -0.00523468 0)
(1.13024 -0.019402 0)
(1.11407 -0.0355138 0)
(1.09297 -0.0438926 0)
(1.07013 -0.0545196 0)
(1.04558 -0.0509175 0)
(1.02509 -0.0544575 0)
(1.00641 -0.037862 0)
(0.995718 -0.0406253 0)
(0.98504 -0.0166644 0)
(0.981645 -0.0219208 0)
(0.976768 0.00238384 0)
(0.977542 -0.0017611 0)
(0.976461 0.0118369 0)
(0.978598 0.0192028 0)
(0.980131 0.0122906 0)
(0.98143 0.033827 0)
(0.984011 0.0172945 0)
(0.98399 0.0312121 0)
(0.986402 0.0376938 0)
(0.986844 0.0212884 0)
(0.988656 0.0443626 0)
(0.990622 0.042472 0)
(0.991759 0.0224423 0)
(0.994447 0.0569084 0)
(0.996155 0.049556 0)
(0.997565 0.0272836 0)
(1.00039 0.0540849 0)
(1.00256 0.0705238 0)
(1.00389 0.0634063 0)
(1.00567 0.00994108 0)
(1.00916 0.0898998 0)
(1.01378 0.102373 0)
(1.11685 0.0522747 0)
(1.12679 0.046504 0)
(1.13147 0.038726 0)
(1.13109 0.0284419 0)
(1.12655 0.0182581 0)
(1.11958 0.00568963 0)
(1.10939 -0.00435263 0)
(1.09736 -0.0171876 0)
(1.08175 -0.0233906 0)
(1.06515 -0.033158 0)
(1.04671 -0.0295928 0)
(1.0307 -0.0345929 0)
(1.01459 -0.0202364 0)
(1.00427 -0.0255238 0)
(0.993544 -0.0046161 0)
(0.988972 -0.0125086 0)
(0.982821 0.00933814 0)
(0.982001 0.00320741 0)
(0.979778 0.0151966 0)
(0.981062 0.0216458 0)
(0.98143 0.0139617 0)
(0.982366 0.0349517 0)
(0.984446 0.0178623 0)
(0.98445 0.0312968 0)
(0.987217 0.037477 0)
(0.987351 0.0207705 0)
(0.989627 0.0436644 0)
(0.991592 0.0418451 0)
(0.992315 0.0216137 0)
(0.995499 0.0560938 0)
(0.997195 0.0489623 0)
(0.998209 0.0265409 0)
(1.00144 0.0532308 0)
(1.00406 0.0698432 0)
(1.00519 0.0631111 0)
(1.00685 0.00908945 0)
(1.01071 0.0886496 0)
(1.01604 0.101874 0)
(1.09639 0.0447591 0)
(1.10408 0.0419055 0)
(1.10777 0.0374983 0)
(1.10758 0.0306604 0)
(1.10407 0.0239628 0)
(1.09879 0.0147621 0)
(1.09108 0.00786224 0)
(1.08211 -0.00237213 0)
(1.0704 -0.00674202 0)
(1.05795 -0.016434 0)
(1.04337 -0.0142981 0)
(1.03025 -0.0224332 0)
(1.01633 -0.0114937 0)
(1.00718 -0.0200427 0)
(0.997307 -0.00183219 0)
(0.993154 -0.0120335 0)
(0.987271 0.00809486 0)
(0.986219 0.00119029 0)
(0.983683 0.0124563 0)
(0.984575 0.018877 0)
(0.984234 0.011166 0)
(0.984911 0.0326536 0)
(0.986459 0.0160873 0)
(0.986129 0.0298172 0)
(0.988825 0.0364955 0)
(0.988407 0.0198212 0)
(0.990852 0.0426861 0)
(0.992709 0.0411819 0)
(0.993035 0.0206519 0)
(0.996624 0.0551174 0)
(0.998307 0.0483848 0)
(0.998984 0.0256933 0)
(1.0026 0.0521309 0)
(1.00563 0.0690671 0)
(1.00662 0.0628532 0)
(1.0082 0.00807045 0)
(1.01244 0.0870664 0)
(1.01855 0.101208 0)
(1.0783 0.0389818 0)
(1.08415 0.0384963 0)
(1.087 0.0367626 0)
(1.08694 0.0327039 0)
(1.08423 0.0287668 0)
(1.08032 0.0221715 0)
(1.07445 0.0177361 0)
(1.06794 0.00943939 0)
(1.05928 0.0066965 0)
(1.05017 -0.00256627 0)
(1.03926 -0.000459621 0)
(1.02949 -0.00954841 0)
(1.01856 0.000330311 0)
(1.01107 -0.0095931 0)
(1.00208 0.00726102 0)
(0.997909 -0.00425572 0)
(0.991793 0.0142905 0)
(0.990016 0.0063216 0)
(0.986737 0.0160545 0)
(0.987047 0.0217121 0)
(0.985903 0.0130087 0)
(0.986236 0.0339222 0)
(0.987461 0.0167906 0)
(0.987039 0.0297853 0)
(0.989921 0.0363949 0)
(0.989252 0.0193055 0)
(0.99194 0.0418558 0)
(0.993811 0.0406981 0)
(0.99386 0.019737 0)
(0.997776 0.0540686 0)
(0.999486 0.047873 0)
(0.999906 0.0248405 0)
(1.00387 0.0508764 0)
(1.00726 0.0681886 0)
(1.00816 0.0626759 0)
(1.00975 0.0069487 0)
(1.01433 0.0851591 0)
(1.02127 0.100439 0)
(1.06238 0.0343819 0)
(1.06677 0.0356675 0)
(1.06893 0.0359973 0)
(1.06895 0.0340659 0)
(1.0669 0.0323071 0)
(1.06408 0.0277441 0)
(1.05967 0.0252959 0)
(1.05503 0.0186308 0)
(1.04864 0.0172136 0)
(1.04214 0.00852803 0)
(1.03402 0.0107521 0)
(1.02659 0.000724913 0)
(1.01771 0.00923738 0)
(1.01159 -0.00284396 0)
(1.0036 0.0120783 0)
(1 -0.00137449 0)
(0.994413 0.0154837 0)
(0.992657 0.00651128 0)
(0.989386 0.0150237 0)
(0.989687 0.0205413 0)
(0.988207 0.0112759 0)
(0.988338 0.0324165 0)
(0.989304 0.0154845 0)
(0.98862 0.0282611 0)
(0.991483 0.0353744 0)
(0.99045 0.0180741 0)
(0.993164 0.0404201 0)
(0.995034 0.0397974 0)
(0.994816 0.0183468 0)
(0.998945 0.052503 0)
(1.00075 0.0469872 0)
(1.00097 0.0235981 0)
(1.00521 0.0490799 0)
(1.00892 0.0668963 0)
(1.00987 0.0621535 0)
(1.01149 0.00547288 0)
(1.01634 0.0826988 0)
(1.02419 0.0991693 0)
(1.04817 0.0314497 0)
(1.05141 0.0341097 0)
(1.05301 0.0360331 0)
(1.05307 0.035754 0)
(1.05153 0.0356868 0)
(1.04958 0.0326976 0)
(1.04632 0.0318171 0)
(1.04312 0.0263924 0)
(1.03853 0.0260809 0)
(1.03399 0.0179339 0)
(1.02806 0.0204594 0)
(1.02269 0.0100178 0)
(1.01583 0.0180987 0)
(1.01133 0.00510395 0)
(1.00462 0.019238 0)
(1.00178 0.00494012 0)
(0.996745 0.0207041 0)
(0.995013 0.0110792 0)
(0.991657 0.0183726 0)
(0.991792 0.0234149 0)
(0.989997 0.0131165 0)
(0.989884 0.0338574 0)
(0.990635 0.0165834 0)
(0.989876 0.0285504 0)
(0.992747 0.0358901 0)
(0.991565 0.0180906 0)
(0.994392 0.0400009 0)
(0.996234 0.0400043 0)
(0.995918 0.0178383 0)
(1.00022 0.0516935 0)
(1.00209 0.0470815 0)
(1.00219 0.0230927 0)
(1.00675 0.0478062 0)
(1.01071 0.0662293 0)
(1.01163 0.0625769 0)
(1.01361 0.00440895 0)
(1.01851 0.0804515 0)
(1.02734 0.0984594 0)
(1.03567 0.0286262 0)
(1.03803 0.0321889 0)
(1.03919 0.035188 0)
(1.03925 0.0360478 0)
(1.03808 0.0371709 0)
(1.03679 0.0353274 0)
(1.03439 0.0355934 0)
(1.03228 0.0310851 0)
(1.02905 0.0316294 0)
(1.02602 0.0238913 0)
(1.02187 0.0267998 0)
(1.01818 0.0160712 0)
(1.01301 0.0238821 0)
(1.00988 0.0099801 0)
(1.00431 0.0232102 0)
(1.00216 0.0078851 0)
(0.997735 0.0223334 0)
(0.996305 0.0120674 0)
(0.993053 0.0180152 0)
(0.993433 0.0228733 0)
(0.991629 0.011629 0)
(0.991459 0.0321603 0)
(0.992232 0.0148783 0)
(0.991213 0.0261192 0)
(0.994224 0.0338952 0)
(0.992792 0.0157679 0)
(0.995523 0.0372186 0)
(0.997566 0.0378981 0)
(0.996982 0.0152134 0)
(1.00136 0.0486043 0)
(1.00358 0.0448791 0)
(1.00341 0.0206464 0)
(1.00818 0.0443721 0)
(1.01252 0.0633854 0)
(1.01376 0.0607468 0)
(1.01563 0.00174562 0)
(1.02068 0.0759073 0)
(1.03066 0.0954716 0)
(1.024 0.0284412 0)
(1.0257 0.032717 0)
(1.02654 0.0365555 0)
(1.02664 0.0382804 0)
(1.0258 0.0403383 0)
(1.02504 0.039371 0)
(1.02332 0.0405752 0)
(1.02205 0.0367673 0)
(1.01981 0.0381022 0)
(1.01794 0.030733 0)
(1.01508 0.0342145 0)
(1.01276 0.0233244 0)
(1.00895 0.0312853 0)
(1.00706 0.0167436 0)
(1.00267 0.0297127 0)
(1.00134 0.0136508 0)
(0.997836 0.0275052 0)
(0.9968 0.016802 0)
(0.994008 0.0218391 0)
(0.994487 0.026679 0)
(0.992837 0.0144171 0)
(0.992674 0.0348565 0)
(0.993342 0.0173187 0)
(0.992516 0.0277095 0)
(0.995409 0.0360164 0)
(0.994047 0.0171614 0)
(0.996903 0.038166 0)
(0.998786 0.0397 0)
(0.998397 0.0159143 0)
(1.00281 0.0490179 0)
(1.00507 0.046491 0)
(1.00497 0.0212686 0)
(1.0101 0.0440865 0)
(1.01455 0.0639097 0)
(1.01563 0.0627406 0)
(1.01847 0.00145303 0)
(1.02327 0.0744033 0)
(1.03449 0.095765 0)
(1.01369 0.0257009 0)
(1.01487 0.0301777 0)
(1.01547 0.0343168 0)
(1.01557 0.0364056 0)
(1.01499 0.0388814 0)
(1.01466 0.0383543 0)
(1.01352 0.0400199 0)
(1.01294 0.0366033 0)
(1.01157 0.038348 0)
(1.01062 0.0312734 0)
(1.00888 0.0350558 0)
(1.00764 0.0242136 0)
(1.00502 0.03214 0)
(1.00421 0.0174037 0)
(1.0008 0.0298993 0)
(1.00032 0.0135816 0)
(0.997438 0.0265347 0)
(0.997034 0.015662 0)
(0.994436 0.0195858 0)
(0.995346 0.0243155 0)
(0.993866 0.011322 0)
(0.99377 0.031201 0)
(0.994751 0.0138264 0)
(0.993577 0.0231998 0)
(0.996811 0.0317927 0)
(0.995226 0.0128397 0)
(0.99785 0.0329237 0)
(1.00019 0.0352882 0)
(0.99946 0.0111607 0)
(1.0038 0.0432094 0)
(1.00681 0.0417852 0)
(1.00623 0.016652 0)
(1.0115 0.0377255 0)
(1.01645 0.0582122 0)
(1.01827 0.0580882 0)
(1.02066 -0.00304834 0)
(1.02536 0.0661511 0)
(1.03806 0.0892917 0)
(1.00265 0.0288358 0)
(1.00359 0.0335469 0)
(1.00413 0.0380052 0)
(1.00432 0.0404149 0)
(1.00399 0.0433262 0)
(1.00407 0.0431772 0)
(1.00339 0.0453616 0)
(1.00341 0.0422336 0)
(1.00269 0.0445309 0)
(1.00253 0.0375839 0)
(1.00159 0.0419984 0)
(1.0013 0.0309925 0)
(0.999629 0.0394667 0)
(0.999759 0.0242514 0)
(0.997343 0.037075 0)