/*--------------------------------*- C++ -*----------------------------------*\
| =========                 |                                                 |
| \\      /  F ield         | OpenFOAM: The Open Source CFD Toolbox           |
|  \\    /   O peration     | Version:  2512                                  |
|   \\  /    A nd           | Website:  www.openfoam.com                      |
|    \\/     M anipulation  |                                                 |
\*---------------------------------------------------------------------------*/
FoamFile
{
    version     2.0;
    format      ascii;
    arch        "LSB;label=32;scalar=64";
    class       volVectorField;
    location    "176";
    object      U;
}
// * * * * * * * * * * * * * * * * * * * * * * * * * * * * * * * * * * * * * //

dimensions      [0 1 -1 0 0 0 0];

internalField   nonuniform List<vector> 
13248
(
(-0.0275794 0.0213656 5.02259e-20)
(-0.0584092 0.0417288 0)
(-0.0683667 0.0481547 -8.64919e-20)
(-0.0537612 0.0480303 8.0087e-20)
(-0.0105845 0.0444652 7.36728e-20)
(0.0653133 0.0385971 0)
(0.176608 0.0311412 0)
(0.322136 0.0229911 1.67436e-19)
(0.49493 0.0149418 -8.98801e-22)
(0.682474 0.00744155 -1.42513e-19)
(0.86908 0.000411681 1.31188e-19)
(1.03921 -0.00670396 -8.11931e-20)
(1.18048 -0.0146792 0)
(1.28569 -0.0241764 -1.37515e-19)
(1.3537 -0.0354514 2.53968e-19)
(1.389 -0.0483254 -6.08389e-20)
(1.39997 -0.0623041 -1.03747e-19)
(1.39614 -0.0768138 9.67334e-20)
(1.38493 -0.0913438 0)
(1.37044 -0.106117 0)
(1.35374 -0.117796 0)
(1.33332 -0.136239 0)
(1.3129 -0.1355 2.46967e-20)
(1.28329 -0.173834 8.36025e-20)
(-0.0324663 0.0238241 -1.51478e-19)
(-0.060091 0.0438576 9.56636e-20)
(-0.055665 0.0477998 -6.15139e-22)
(-0.0170571 0.0437983 -1.22343e-19)
(0.0593356 0.0360932 -7.3565e-20)
(0.176389 0.0271206 -6.88119e-20)
(0.332571 0.0187181 -1.23776e-19)
(0.518834 0.0121545 1.16138e-19)
(0.718768 0.00787722 0)
(0.912611 0.00538602 4.84834e-22)
(1.08247 0.0034653 1.4059e-21)
(1.21628 0.000695451 8.10791e-20)
(1.30954 -0.00402221 0)
(1.36496 -0.0111484 0)
(1.39049 -0.0205029 8.983e-20)
(1.39614 -0.0315264 -1.67749e-19)
(1.39078 -0.0434809 9.68163e-20)
(1.38003 -0.0558622 -9.02715e-20)
(1.36645 -0.0680405 -3.82059e-20)
(1.35079 -0.0797234 -6.82621e-20)
(1.33312 -0.0911021 -2.62505e-20)
(1.3152 -0.101071 -4.88535e-20)
(1.29492 -0.108884 7.33398e-20)
(1.27682 -0.122319 1.97434e-20)
(-0.03483 0.0234953 0)
(-0.0546158 0.0410641 0)
(-0.0299777 0.0427523 4.40919e-20)
(0.039867 0.0365017 4.01421e-20)
(0.157164 0.0275481 -7.95296e-22)
(0.32038 0.0194826 -7.14853e-20)
(0.518845 0.0145776 0)
(0.731959 0.0134534 -5.75681e-20)
(0.935037 0.0150967 5.33301e-20)
(1.10723 0.0175185 2.46927e-22)
(1.2367 0.0186848 -8.75043e-20)
(1.32173 0.0172459 -7.82047e-20)
(1.36869 0.0128105 2.23328e-21)
(1.38819 0.00577592 -6.12828e-20)
(1.39099 -0.00308701 1.47885e-19)
(1.38507 -0.0129818 0)
(1.37487 -0.0233162 -9.11445e-20)
(1.36232 -0.0337584 4.45814e-20)
(1.34831 -0.0437722 3.81678e-20)
(1.3331 -0.054208 0)
(1.31779 -0.0621614 2.98505e-20)
(1.30086 -0.0732384 -9.76157e-20)
(1.28454 -0.0760919 9.11593e-20)
(1.26576 -0.0904704 5.31768e-20)
(-0.03442 0.0209072 -5.33842e-20)
(-0.0407138 0.0337131 -5.10366e-20)
(0.010808 0.0330297 4.55479e-20)
(0.119393 0.0264107 0)
(0.28342 0.019872 0)
(0.491586 0.0173702 -1.65078e-21)
(0.719238 0.020016 0)
(0.935579 0.0262014 -1.76248e-19)
(1.11545 0.0329875 1.60746e-19)
(1.2464 0.0377049 -1.94596e-19)
(1.32898 0.0388986 4.36185e-20)
(1.37252 0.036438 0)
(1.38954 0.0310571 6.84517e-20)
(1.3911 0.0237425 -1.24876e-19)
(1.38466 0.0153233 2.96023e-20)
(1.37424 0.00633859 7.28364e-20)
(1.36175 -0.00292759 -4.20895e-21)
(1.34822 -0.0121532 -7.84197e-20)
(1.33399 -0.0214542 0)
(1.31949 -0.0299402 0)
(1.30415 -0.0384419 -2.62351e-20)
(1.28884 -0.0462095 2.29914e-20)
(1.27289 -0.0507447 7.98199e-20)
(1.25714 -0.063297 -7.45248e-20)
(-0.0309808 0.0168491 -5.62354e-20)
(-0.0167096 0.0234628 -5.20401e-20)
(0.0696133 0.0211567 1.43566e-19)
(0.224106 0.017112 -8.63799e-20)
(0.436046 0.0174727 8.00102e-20)
(0.678038 0.0245508 1.43833e-19)
(0.911988 0.0361995 -1.00107e-19)
(1.106 0.0482072 -1.18347e-19)
(1.2451 0.0570369 3.73014e-21)
(1.33084 0.0610964 1.46288e-19)
(1.3748 0.060578 0)
(1.39115 0.0566141 3.78238e-20)
(1.3917 0.0504525 0)
(1.38419 0.0430277 -5.90432e-20)
(1.37296 0.0349119 8.23273e-20)
(1.3602 0.026432 9.88041e-22)
(1.34691 0.0178624 -2.06257e-20)
(1.33336 0.00928623 3.82649e-20)
(1.31969 0.0011124 3.21044e-20)
(1.30565 -0.00700858 -2.824e-20)
(1.29167 -0.014228 2.62231e-20)
(1.27741 -0.0216247 -2.29807e-20)
(1.26321 -0.0267684 0)
(1.24903 -0.0365067 -1.64849e-20)
(-0.0238714 0.0120178 5.62213e-20)
(0.0193969 0.012428 5.47186e-20)
(0.148932 0.0107339 -4.82071e-20)
(0.353602 0.0134284 8.90088e-20)
(0.606106 0.0247665 -8.24422e-20)
(0.861128 0.0426531 7.34646e-20)
(1.07665 0.0611919 -3.48064e-20)
(1.23171 0.0753937 8.8915e-20)
(1.32694 0.0832081 -5.48913e-20)
(1.37546 0.0850686 9.32791e-20)
(1.39335 0.0825593 -2.11249e-19)
(1.39389 0.0773136 7.6016e-20)
(1.38589 0.0705217 -6.45862e-20)
(1.37427 0.0629075 6.01259e-20)
(1.3614 0.0548814 5.04275e-20)
(1.3482 0.0467005 4.32591e-20)
(1.33486 0.0384854 -1.19101e-19)
(1.32143 0.0304281 7.31913e-20)
(1.30786 0.0224596 -3.20995e-20)
(1.29432 0.0149486 8.15702e-20)
(1.28069 0.00766019 -2.63177e-20)
(1.26714 0.000827557 -6.13161e-20)
(1.25362 -0.00454075 5.5993e-20)
(1.24027 -0.0133509 1.64799e-20)
(-0.0121865 0.00698724 0)
(0.0693945 0.0027208 7.18038e-22)
(0.24922 0.00543809 1.01836e-19)
(0.502013 0.0194043 -9.35894e-20)
(0.778373 0.0435175 -8.33185e-20)
(1.02283 0.0700374 1.521e-19)
(1.20306 0.0914998 -6.94461e-20)
(1.31534 0.104649 8.94194e-20)
(1.37329 0.109878 -2.70903e-21)
(1.39529 0.109257 -4.8562e-20)
(1.39696 0.104984 1.02387e-19)
(1.38877 0.0986906 -1.4864e-19)
(1.37657 0.0913695 0)
(1.36307 0.0835532 -2.79267e-20)
(1.34929 0.0755158 -7.30997e-20)
(1.33554 0.0673948 2.28474e-20)
(1.32193 0.0593225 1.10632e-21)
(1.30847 0.0513434 -4.74691e-20)
(1.29524 0.04365 3.68254e-21)
(1.28213 0.0361852 5.38982e-20)
(1.26923 0.0291397 -2.34617e-20)
(1.25652 0.0225552 -8.37105e-21)
(1.24391 0.0164424 2.65728e-20)
(1.23163 0.0090119 0)
(0.00500261 0.0023453 0)
(0.134147 -0.0034873 2.80215e-20)
(0.367657 0.00855869 -1.3274e-19)
(0.658298 0.0370808 4.76534e-20)
(0.93717 0.072618 -4.41383e-20)
(1.15317 0.103715 -3.92986e-20)
(1.29226 0.124491 -6.72849e-20)
(1.3663 0.134675 3.36899e-20)
(1.39612 0.136778 2.83623e-20)
(1.40062 0.133768 0)
(1.39284 0.127947 6.03698e-20)
(1.38011 0.120733 -8.79991e-20)
(1.36586 0.112865 6.47511e-20)
(1.35143 0.104694 2.79391e-20)
(1.33727 0.0963988 -2.22422e-20)
(1.32348 0.0881058 -1.80663e-20)
(1.31003 0.079894 -1.65919e-20)
(1.29686 0.0718724 5.00283e-20)
(1.28392 0.0640533 0)
(1.27124 0.0565585 2.39713e-20)
(1.25878 0.0494091 1.94426e-20)
(1.24654 0.0426467 -4.87307e-20)
(1.2345 0.0362834 -3.21519e-20)
(1.22274 0.0297293 2.95502e-20)
(0.0283321 -0.00111009 -3.29056e-20)
(0.212933 -0.00382397 -1.44094e-21)
(0.497834 0.0225288 2.71722e-20)
(0.809696 0.0662764 7.48911e-20)
(1.07221 0.109626 2.0897e-20)
(1.2509 0.141254 -3.99777e-20)
(1.35075 0.158877 3.58367e-20)
(1.39412 0.16517 -3.0399e-20)
(1.40419 0.164078 5.28976e-20)
(1.39778 0.158887 2.18184e-20)
(1.38466 0.15168 -6.13601e-20)
(1.3695 0.143555 1.77034e-20)
(1.35416 0.135026 2.95485e-20)
(1.33924 0.126336 -1.44557e-20)
(1.32483 0.117622 0)
(1.3109 0.108971 2.06885e-20)
(1.29741 0.100469 3.42474e-20)
(1.28432 0.0921601 5.45495e-21)
(1.27165 0.0841336 -2.78614e-20)
(1.25937 0.0764223 1.13882e-20)
(1.24745 0.0690893 0)
(1.23585 0.0621451 -8.60248e-21)
(1.22452 0.0554215 -7.95629e-21)
(1.2134 0.0493449 0)
(0.0578703 -0.00242495 0)
(0.30307 0.00394992 1.60182e-20)
(0.630909 0.0483637 2.93695e-20)
(0.945921 0.105337 -7.65064e-20)
(1.17973 0.152203 2.44345e-20)
(1.31956 0.181183 0)
(1.38575 0.194181 3.38358e-20)
(1.40614 0.196247 -4.64733e-20)
(1.40302 0.192087 -2.63467e-20)
(1.39001 0.184857 1.16647e-20)
(1.3739 0.176263 -1.80955e-20)
(1.35743 0.167105 4.36649e-20)
(1.34149 0.157737 2.13183e-20)
(1.32628 0.148325 -1.48498e-20)
(1.31177 0.138972 -1.54752e-21)
(1.29791 0.12976 -3.88068e-20)
(1.28464 0.120752 1.74572e-20)
(1.2719 0.112012 -4.17144e-22)
(1.25964 0.103578 0)
(1.24782 0.0955127 -1.13995e-20)
(1.23639 0.0878403 0)
(1.2253 0.0805025 2.46896e-20)
(1.21448 0.0735837 -2.89266e-20)
(1.20385 0.0677859 1.29907e-20)
(0.0930386 -0.000579054 -9.26218e-21)
(0.400044 0.0215497 -4.10284e-20)
(0.75788 0.0856375 4.60715e-20)
(1.06093 0.152187 2.6144e-20)
(1.26018 0.19863 -1.24083e-20)
(1.36397 0.222735 1.96e-20)
(1.40313 0.230344 -9.48966e-21)
(1.40709 0.228157 1.50856e-20)
(1.39546 0.221055 0)
(1.37855 0.211809 3.25877e-20)
(1.36075 0.201725 -1.45911e-21)
(1.34353 0.191361 -2.54972e-20)
(1.32726 0.180956 1.07135e-20)
(1.31191 0.170631 -1.18511e-20)
(1.2974 0.16047 -4.36932e-21)
(1.28363 0.150539 5.10017e-21)
(1.27053 0.140893 -3.84574e-21)
(1.25804 0.131568 -2.04221e-20)
(1.24614 0.122619 1.24136e-20)
(1.23478 0.114087 2.48442e-21)
(1.22391 0.105967 2.14727e-21)
(1.21346 0.0982331 1.8551e-21)
(1.20332 0.0910625 0)
(1.19334 0.0850349 0)
(0.132681 0.00539611 9.27341e-21)
(0.498265 0.0498491 -8.58432e-21)
(0.871635 0.132981 -1.54083e-20)
(1.15229 0.204917 0)
(1.31592 0.247758 -6.11e-21)
(1.38852 0.265543 -5.30142e-21)
(1.40698 0.26742 -8.70596e-21)
(1.39961 0.261028 0)
(1.38266 0.251014 0)
(1.3635 0.239653 0)
(1.34479 0.227888 0)
(1.32722 0.216099 0)
(1.31084 0.204445 -6.72885e-21)
(1.29554 0.193011 3.0327e-21)
(1.28119 0.181856 5.16281e-21)
(1.2677 0.171035 2.38083e-21)
(1.25498 0.160584 5.78777e-21)
(1.24297 0.150537 0)
(1.2316 0.140931 -1.33194e-21)
(1.22083 0.131798 -1.24566e-21)
(1.21057 0.123109 -2.15064e-21)
(1.20076 0.114855 -1.85801e-21)
(1.19127 0.107366 0)
(1.18201 0.100939 1.26761e-21)
(-0.00103628 0.0945374 6.76117e-21)
(-0.00167969 0.242371 -6.38293e-21)
(-0.00654004 0.34406 -1.17786e-20)
(-0.0181067 0.404978 0)
(-0.0341111 0.440062 -1.52505e-20)
(-0.0515809 0.463751 4.72984e-21)
(-0.0679286 0.484553 -8.94909e-21)
(-0.081539 0.504925 0)
(-0.091377 0.5237 0)
(-0.0966315 0.538341 0)
(-0.0965586 0.546138 0)
(-0.0904909 0.544668 0)
(-0.0779194 0.53199 1.43361e-22)
(-0.058591 0.506809 -6.76608e-21)
(-0.0325242 0.468604 1.35996e-20)
(-0.000538184 0.41762 1.99669e-20)
(0.0366308 0.354847 6.61496e-21)
(0.0782158 0.281838 0)
(0.122652 0.200331 5.96136e-21)
(0.168355 0.112092 -1.69154e-20)
(0.213288 0.0184927 -1.07246e-20)
(0.259332 -0.0795938 -1.00371e-20)
(0.298602 -0.183621 0)
(0.346045 -0.295489 0)
(-0.00483102 0.0871109 -2.02549e-20)
(-0.00787679 0.234219 3.19139e-20)
(-0.00759121 0.343643 -1.18162e-20)
(-0.0108808 0.413687 -2.18213e-20)
(-0.017696 0.45474 3.03532e-20)
(-0.0257363 0.480159 -1.91003e-20)
(-0.0324684 0.499218 2.66542e-20)
(-0.0359373 0.515594 1.68376e-20)
(-0.034812 0.528981 0)
(-0.0282011 0.53724 -1.62544e-20)
(-0.0154779 0.537852 -1.27435e-21)
(0.00375816 0.528597 1.40663e-20)
(0.0296476 0.50784 2.12855e-20)
(0.0620369 0.474671 2.86124e-20)
(0.100411 0.428946 -1.22722e-20)
(0.143843 0.371211 -3.92655e-20)
(0.19129 0.303001 1.35227e-20)
(0.2415 0.225979 -4.94418e-20)
(0.292625 0.141831 0)
(0.34443 0.053357 1.1334e-20)
(0.392365 -0.0393526 1.07056e-20)
(0.444358 -0.133857 1.00195e-20)
(0.481789 -0.235167 0)
(0.53864 -0.344673 0)
(-0.0075531 0.0745856 0)
(-0.0134601 0.213574 6.34203e-20)
(-0.00961127 0.32718 -2.34686e-20)
(-0.00541402 0.406018 2.18063e-20)
(-0.00294298 0.454519 -6.0091e-20)
(-0.00103864 0.48325 0)
(0.00238817 0.501469 -3.56684e-20)
(0.00936815 0.514103 1.62909e-20)
(0.0214424 0.522126 -3.14987e-20)
(0.0395903 0.524246 1.47927e-20)
(0.0643287 0.518421 8.97065e-20)
(0.0957945 0.502748 -4.18063e-20)
(0.133771 0.475884 -7.17522e-20)
(0.177712 0.437222 -2.96947e-20)
(0.226734 0.386884 -2.56873e-21)
(0.279656 0.325739 1.04827e-19)
(0.335105 0.255228 -4.99265e-20)
(0.391547 0.177496 6.73247e-22)
(0.446675 0.0938368 0)
(0.50235 0.00917636 -4.41714e-20)
(0.549725 -0.0804627 0)
(0.606145 -0.169587 -4.04073e-20)
(0.641641 -0.268795 1.47342e-19)
(0.712193 -0.37534 -2.08283e-21)
(-0.00877921 0.0590795 0)
(-0.0175195 0.183184 -2.53321e-22)
(-0.0123827 0.295723 2.30145e-20)
(-0.00280497 0.381201 -2.12504e-20)
(0.00778925 0.43762 1.98386e-20)
(0.0192042 0.471352 1.10374e-19)
(0.0326351 0.490386 -3.44128e-20)
(0.0497619 0.50035 -3.21413e-20)
(0.0721037 0.503603 6.19568e-20)
(0.10068 0.500085 -9.0762e-20)
(0.135946 0.48859 2.71839e-20)
(0.177848 0.467735 2.71307e-20)
(0.225889 0.436526 0)
(0.279181 0.394602 2.69525e-20)
(0.336507 0.342262 0)
(0.396426 0.280644 4.88947e-20)
(0.457003 0.210673 -9.95549e-20)
(0.517062 0.135924 2.10778e-20)
(0.574136 0.0557998 8.93936e-20)
(0.631416 -0.0230339 4.41233e-20)
(0.679593 -0.110646 0)
(0.74378 -0.195865 -1.15124e-19)
(0.785495 -0.298143 3.68172e-20)
(0.8765 -0.403452 0)
(-0.00850908 0.0430208 0)
(-0.0195844 0.147461 -7.46251e-20)
(-0.0155986 0.252794 -2.24727e-20)
(-0.00377163 0.340484 -4.19844e-20)
(0.0123892 0.403269 3.88966e-20)
(0.0316518 0.442783 -3.64484e-20)
(0.0540913 0.464499 6.76409e-20)
(0.0805923 0.473704 3.31029e-20)
(0.112259 0.473683 -8.968e-20)
(0.149936 0.465647 5.79028e-20)
(0.193975 0.449485 -8.29942e-20)
(0.244181 0.424593 1.83905e-19)
(0.299843 0.390467 -1.00426e-19)
(0.359799 0.347078 4.82824e-20)
(0.422565 0.294843 1.46533e-19)
(0.486333 0.234967 -4.4841e-20)
(0.549413 0.168324 -4.09191e-20)
(0.611454 0.0992877 -4.4355e-20)
(0.670863 0.0234491 0)
(0.732596 -0.0505887 -8.19068e-20)
(0.792059 -0.139394 -7.74392e-20)
(0.872391 -0.223276 1.09075e-19)
(0.932924 -0.331224 1.32582e-19)
(1.04255 -0.429353 -1.21045e-19)
(-0.00716631 0.0285605 0)
(-0.0198827 0.111445 -9.75078e-20)
(-0.0190968 0.204016 9.1201e-22)
(-0.00845543 0.287916 8.29695e-20)
(0.00967915 0.352997 0)
(0.0337831 0.396884 0)
(0.0630247 0.421992 0)
(0.0973072 0.432259 -3.13248e-20)
(0.136961 0.431038 -9.13907e-22)
(0.182322 0.420369 5.34626e-20)
(0.23342 0.401152 -8.14565e-20)
(0.289827 0.373657 -1.64852e-21)
(0.350626 0.338021 0)
(0.414595 0.29464 -4.82632e-20)
(0.479967 0.243893 4.5651e-20)
(0.545851 0.187783 -1.28889e-19)
(0.612249 0.126034 1.73024e-19)
(0.67985 0.0616347 4.39253e-20)
(0.750987 -0.0122133 4.0598e-21)
(0.830463 -0.0852871 -1.50115e-19)
(0.916639 -0.177353 -6.85811e-20)
(1.01794 -0.259 2.29222e-19)
(1.09945 -0.366658 -1.48376e-19)
(1.20539 -0.444034 0)
(-0.00551026 0.0172092 5.09287e-20)
(-0.0194533 0.0796048 4.86693e-20)
(-0.0232292 0.155816 -4.39866e-20)
(-0.0166353 0.229985 -8.07087e-20)
(-0.000223983 0.291605 7.47712e-20)
(0.0249335 0.335945 -6.78542e-20)
(0.0576174 0.362798 9.3788e-20)
(0.0969263 0.374331 -3.09212e-20)
(0.142319 0.373234 5.40019e-20)
(0.193389 0.361727 0)
(0.249628 0.341324 4.81585e-20)
(0.310313 0.313031 -8.81882e-20)
(0.374573 0.277568 9.11479e-20)
(0.441697 0.235726 -8.48402e-20)
(0.511946 0.188209 0)
(0.586336 0.135975 8.23102e-20)
(0.666661 0.0770959 1.59623e-19)
(0.756065 0.0138768 -1.51393e-19)
(0.856159 -0.0596621 -7.11946e-20)
(0.965895 -0.132549 -7.33096e-20)
(1.07838 -0.221348 1.99683e-19)
(1.18656 -0.292627 5.50912e-20)
(1.26636 -0.385244 -5.3155e-20)
(1.33309 -0.430663 4.42559e-20)
(-0.00450935 0.00978672 -5.09416e-20)
(-0.0199839 0.055004 1.42114e-19)
(-0.0290352 0.113728 -4.37364e-20)
(-0.0281585 0.173868 7.9346e-20)
(-0.0161551 0.226407 -7.35099e-20)
(0.0067197 0.26602 -1.26418e-22)
(0.0393508 0.290944 3.03549e-20)
(0.0804307 0.301857 1.09445e-19)
(0.128801 0.300548 1.30169e-22)
(0.183526 0.288996 -4.89255e-20)
(0.243966 0.268912 0)
(0.309914 0.241641 -4.35401e-20)
(0.381926 0.208201 8.2285e-20)
(0.461534 0.169167 8.29551e-20)
(0.550865 0.124557 -3.8742e-20)
(0.652158 0.0740358 -2.35402e-21)
(0.766058 0.0170476 -3.85896e-20)
(0.890911 -0.0444277 6.92328e-20)
(1.02051 -0.112746 7.12014e-20)
(1.14669 -0.178133 -6.7203e-20)
(1.25574 -0.251158 5.60662e-20)
(1.33869 -0.303198 -5.04743e-20)
(1.38139 -0.36955 0)
(1.39047 -0.386275 -4.42957e-20)
(-0.00518983 0.00658859 4.97319e-20)
(-0.0232855 0.0390787 -4.73182e-20)
(-0.037764 0.0812872 4.29879e-20)
(-0.0428059 0.125481 0)
(-0.0360282 0.165121 0)
(-0.0169033 0.195595 6.36915e-20)
(0.0139353 0.214729 -5.99758e-20)
(0.0554278 0.222385 5.28923e-20)
(0.106725 0.219653 -2.49381e-19)
(0.167552 0.208135 -5.43267e-22)
(0.238623 0.189244 4.31552e-20)
(0.321583 0.164047 0)
(0.418462 0.133181 -8.1445e-20)
(0.530768 0.0967846 1.54732e-19)
(0.65829 0.055143 -1.1201e-19)
(0.797943 0.0084221 -1.85154e-19)
(0.943575 -0.0420982 -3.79548e-21)
(1.08601 -0.0952574 1.26641e-19)
(1.21407 -0.149538 0)
(1.31756 -0.199607 0)
(1.38534 -0.250057 -5.60924e-20)
(1.41773 -0.281858 5.05015e-20)
(1.41078 -0.324618 -1.60672e-19)
(1.38198 -0.325802 1.498e-19)
(-0.00834218 0.00737852 0)
(-0.0304205 0.0318183 0)
(-0.0495121 0.059931 -1.28171e-19)
(-0.0588224 0.0886443 4.02998e-20)
(-0.055272 0.114214 1.41509e-21)
(-0.0375772 0.133463 6.50042e-20)
(-0.00527713 0.144655 0)
(0.0419753 0.147441 -5.34444e-20)
(0.105106 0.142488 4.94671e-20)
(0.185617 0.130715 -9.09985e-20)
(0.285087 0.113015 -8.90181e-22)
(0.404355 0.0901749 8.23342e-20)
(0.542176 0.0627832 2.45425e-21)
(0.694348 0.031293 7.85569e-20)
(0.853686 -0.00347068 -1.06325e-19)
(1.01047 -0.0411242 0)
(1.15398 -0.0797518 1.31348e-19)
(1.27319 -0.119466 -1.86511e-19)
(1.3603 -0.156581 5.40553e-20)
(1.41052 -0.191254 0)
(1.42539 -0.222107 4.41505e-20)
(1.41458 -0.24206 1.62243e-19)
(1.38433 -0.272017 -1.51519e-19)
(1.35298 -0.269979 -1.52123e-19)
(-0.0139421 0.0112829 1.46775e-19)
(-0.0406142 0.0318836 -1.85476e-19)
(-0.0617267 0.0492806 7.48704e-22)
(-0.0708292 0.064893 3.95181e-20)
(-0.0643903 0.0777135 -7.14801e-20)
(-0.0398741 0.086279 -6.47011e-20)
(0.004944 0.089599 1.1644e-19)
(0.0723367 0.0873905 -2.02847e-21)
(0.164264 0.0799357 -9.88779e-20)
(0.281517 0.0679385 1.8298e-19)
(0.422474 0.0522496 8.38429e-22)
(0.582049 0.0335043 -8.00311e-20)
(0.751911 0.0122183 0)
(0.921356 -0.0111934 0)
(1.07869 -0.0362771 -3.53394e-20)
(1.21298 -0.0627493 -6.34098e-20)
(1.31581 -0.0894511 -1.21273e-19)
(1.38255 -0.116644 1.13063e-19)
(1.41483 -0.140859 -5.41176e-20)
(1.41782 -0.165607 9.09689e-20)
(1.40354 -0.184433 -4.7879e-20)
(1.38077 -0.203513 6.84423e-20)
(1.35595 -0.225105 -1.65649e-19)
(1.33301 -0.225532 3.03202e-20)
(-0.0209176 0.0166356 4.90667e-20)
(-0.0510759 0.0364746 0)
(-0.0695686 0.0468581 8.54513e-20)
(-0.0711049 0.0528791 -7.91254e-20)
(-0.0517876 0.0559461 7.15743e-20)
(-0.00776726 0.0560644 0)
(0.0644709 0.0529349 0)
(0.16722 0.0466529 -5.43344e-20)
(0.300135 0.0377762 6.93096e-22)
(0.458737 0.0270876 4.6837e-20)
(0.634247 0.0151108 -4.37496e-20)
(0.814546 0.00210195 8.06265e-20)
(0.986217 -0.0119503 0)
(1.13678 -0.0272062 1.42695e-19)
(1.25666 -0.0438004 -2.65518e-19)
(1.34082 -0.0615953 1.87066e-19)
(1.38947 -0.0801006 1.11934e-19)
(1.40809 -0.0989881 -1.04364e-19)
(1.40595 -0.11657 0)
(1.39207 -0.1358 0)
(1.37503 -0.149221 0)
(1.3546 -0.17066 0)
(1.33493 -0.179841 3.09517e-20)
(1.31247 -0.190804 -9.91676e-20)
(0.388348 -0.433078 -5.28964e-21)
(0.435629 -0.600854 5.32376e-21)
(0.481961 -0.746688 -1.37337e-22)
(0.518454 -0.843347 0)
(0.538772 -0.885588 -2.58169e-21)
(0.54349 -0.884284 4.60748e-21)
(0.543652 -0.847634 -2.47415e-22)
(0.543049 -0.794867 -1.74054e-21)
(0.524992 -0.76506 0)
(0.482882 -0.769058 0)
(0.441502 -0.75632 -9.93583e-23)
(0.436779 -0.653943 -1.10475e-22)
(0.479044 -0.438648 -2.32221e-21)
(0.547827 -0.147053 2.13534e-21)
(0.622379 0.164529 0)
(0.689991 0.431888 0)
(0.744058 0.604455 1.3371e-21)
(0.783629 0.678946 -2.71197e-22)
(0.805239 0.69328 -9.44556e-22)
(0.813265 0.677822 -4.36045e-23)
(0.820133 0.647856 0)
(0.82094 0.638757 0)
(0.80253 0.679066 0)
(0.765091 0.72952 0)
(0.725052 0.699527 0)
(0.699297 0.52859 0)
(0.695713 0.23579 4.65815e-22)
(0.709696 -0.0948977 -7.69793e-22)
(0.734038 -0.363568 0)
(0.762061 -0.514006 0)
(0.793323 -0.565774 -2.52889e-22)
(0.812804 -0.579131 2.45725e-22)
(0.805905 -0.594289 8.71245e-23)
(0.7623 -0.608394 0)
(0.696199 -0.580656 0)
(0.63329 -0.462991 2.4319e-22)
(0.601885 -0.24566 -2.36365e-22)
(0.604919 0.0173233 0)
(0.645 0.240404 1.82689e-22)
(0.697672 0.379946 -2.50284e-22)
(0.724906 0.4594 5.79832e-23)
(0.698229 0.513437 0)
(0.653085 0.507469 -1.14409e-22)
(0.616466 0.405199 1.11246e-22)
(0.618499 0.210365 0)
(0.646962 -0.0137232 0)
(0.68212 -0.201893 -4.51828e-23)
(0.679585 -0.363603 1.27784e-22)
(0.664531 -0.438663 0)
(0.646167 -0.418085 0)
(0.649621 -0.269251 -2.62103e-23)
(0.647064 -0.0222888 4.55052e-24)
(0.645648 0.196909 -2.71634e-24)
(0.622976 0.402307 1.50136e-23)
(0.625069 0.397311 0)
(0.614482 0.231051 0)
(0.606563 0.0184105 0)
(0.553418 -0.319124 0)
(0.558887 -0.293912 0)
(0.528358 -0.0335288 0)
(0.575898 -0.481768 -5.42906e-22)
(0.617617 -0.650884 -1.96838e-20)
(0.653983 -0.792405 2.76863e-21)
(0.671657 -0.877077 1.57804e-20)
(0.669043 -0.899995 1.7998e-22)
(0.649208 -0.881696 0)
(0.618151 -0.840286 -6.9735e-21)
(0.589961 -0.780642 1.31328e-20)
(0.559638 -0.73102 -6.15569e-21)
(0.509743 -0.719789 5.95272e-21)
(0.448168 -0.718355 -5.68127e-21)
(0.407209 -0.652794 7.03146e-21)
(0.411104 -0.47497 -6.78034e-21)
(0.455841 -0.205006 -2.25489e-22)
(0.523466 0.0975984 -7.30839e-21)
(0.596358 0.367532 7.09754e-21)
(0.665014 0.552409 -4.89099e-21)
(0.722511 0.645746 4.62624e-21)
(0.761212 0.676871 -3.11132e-21)
(0.786204 0.669656 5.63865e-21)
(0.808003 0.644199 -2.54959e-21)
(0.821415 0.642844 -1.48289e-22)
(0.815523 0.693413 -2.8899e-21)
(0.791627 0.7518 6.35114e-21)
(0.765795 0.723386 -3.44259e-21)
(0.752737 0.545965 3.069e-22)
(0.7577 0.240972 5.5935e-21)
(0.774031 -0.101177 -1.84684e-22)
(0.79355 -0.378169 -8.74174e-21)
(0.809538 -0.531509 6.75015e-21)
(0.825047 -0.578695 -2.82861e-21)
(0.829914 -0.580903 2.19367e-22)
(0.812808 -0.581619 -8.7305e-23)
(0.761309 -0.583345 1.43319e-22)
(0.687394 -0.552009 0)
(0.616624 -0.442222 0)
(0.580122 -0.240748 -8.47975e-22)
(0.585274 0.00456824 6.37487e-22)
(0.632313 0.218231 4.6651e-22)
(0.690037 0.363186 -3.3974e-23)
(0.71948 0.457964 -5.4261e-22)
(0.697224 0.524825 1.02795e-22)
(0.656871 0.521908 0)
(0.621192 0.413113 0)
(0.623343 0.207438 0)
(0.654492 -0.0235022 0)
(0.694364 -0.207548 2.38602e-22)
(0.691756 -0.361481 -8.39236e-23)
(0.672126 -0.434702 0)
(0.64917 -0.415904 0)
(0.649808 -0.269688 0)
(0.645603 -0.022475 -2.78061e-23)
(0.645075 0.198431 1.40673e-23)
(0.627236 0.403905 -3.41672e-23)
(0.633219 0.398826 0)
(0.623649 0.233472 0)
(0.615615 0.0250218 3.63677e-23)
(0.553574 -0.313079 1.0861e-22)
(0.557579 -0.293377 0)
(0.536981 -0.0309089 0)
(0.745216 -0.50995 -2.85125e-21)
(0.78174 -0.672856 -4.31375e-20)
(0.809249 -0.801203 3.30984e-20)
(0.807397 -0.873418 -3.09539e-20)
(0.779159 -0.885338 -1.81257e-22)
(0.738928 -0.85491 0)
(0.689637 -0.811096 -1.38096e-20)
(0.640563 -0.756293 1.34821e-20)
(0.597319 -0.697049 8.84831e-23)
(0.542581 -0.667685 1.47555e-22)
(0.469026 -0.667623 1.44985e-22)
(0.400777 -0.633754 1.89937e-22)
(0.369635 -0.499809 -1.28855e-20)
(0.385049 -0.262564 1.27402e-20)
(0.438365 0.0234811 0)
(0.512842 0.290267 3.27023e-22)
(0.592933 0.48614 -8.60394e-21)
(0.665006 0.599038 8.47998e-21)
(0.719243 0.648452 0)
(0.760502 0.651859 0)
(0.797016 0.632452 -4.83697e-21)
(0.823607 0.638017 9.85732e-21)
(0.831324 0.698066 -1.06766e-20)
(0.82228 0.766111 -1.43294e-21)
(0.811353 0.743457 1.60007e-20)
(0.811666 0.565065 -2.00709e-20)
(0.825556 0.254757 2.12059e-20)
(0.843287 -0.0941665 -1.36777e-21)
(0.857069 -0.378551 -1.00893e-20)
(0.861002 -0.536853 0)
(0.86106 -0.583086 0)
(0.851523 -0.578048 1.12497e-21)
(0.825432 -0.56651 -1.5198e-21)
(0.7682 -0.55694 -1.6561e-23)
(0.687683 -0.523746 1.17231e-21)
(0.609894 -0.423768 -1.13914e-21)
(0.568833 -0.239484 0)
(0.575161 -0.0116804 1.87479e-22)
(0.626787 0.192973 1.18919e-21)
(0.687635 0.344682 -2.07044e-21)
(0.719872 0.455547 8.38164e-22)
(0.703267 0.535676 9.65298e-23)
(0.667596 0.537186 -1.3717e-21)
(0.632769 0.423026 1.08801e-21)
(0.634424 0.206741 3.58999e-22)
(0.666628 -0.0320466 3.30423e-22)
(0.710697 -0.212292 -2.39235e-22)
(0.708349 -0.357772 0)
(0.683848 -0.429719 0)
(0.655177 -0.413627 -3.54287e-22)
(0.652994 -0.271165 1.64739e-22)
(0.647612 -0.0234925 -8.95785e-23)
(0.648389 0.198721 1.32198e-22)
(0.635026 0.404287 2.39615e-22)
(0.64457 0.400542 -5.97286e-23)
(0.6361 0.235987 1.92039e-22)
(0.628909 0.03314 -1.90151e-22)
(0.558509 -0.305443 1.20639e-22)
(0.560025 -0.294286 0)
(0.549111 -0.0293436 0)
(0.907811 -0.535472 -8.42856e-20)
(0.940065 -0.684761 8.97988e-21)
(0.956666 -0.790642 7.10843e-20)
(0.935684 -0.842313 -4.44166e-22)
(0.882694 -0.845484 0)
(0.820187 -0.811646 0)
(0.756063 -0.766389 -2.60759e-20)
(0.692128 -0.720579 3.2409e-21)
(0.63808 -0.663944 3.06975e-20)
(0.583449 -0.616243 -5.81294e-22)
(0.508364 -0.603236 -8.67757e-21)
(0.422199 -0.590675 -9.02296e-21)
(0.359668 -0.5052 8.99473e-21)
(0.344625 -0.314116 0)
(0.377473 -0.055058 -1.009e-20)
(0.44557 0.202465 9.20823e-21)
(0.53021 0.406716 0)
(0.61189 0.538734 0)
(0.679427 0.607288 4.76865e-21)
(0.735711 0.623057 -3.59471e-22)
(0.786145 0.610551 -4.01082e-21)
(0.826135 0.62139 -4.81758e-21)
(0.848509 0.688419 4.83146e-21)
(0.854469 0.766865 -7.31892e-21)
(0.857769 0.755574 -1.95868e-21)
(0.87154 0.584905 8.86529e-21)
(0.894586 0.275744 1.41741e-21)
(0.914437 -0.0782032 1.97786e-24)
(0.923501 -0.370004 0)
(0.916305 -0.533958 6.2358e-21)
(0.901462 -0.580536 -6.37059e-21)
(0.877425 -0.571118 2.20582e-22)
(0.84236 -0.550498 0)
(0.78126 -0.52981 -1.28405e-22)
(0.696356 -0.494096 1.88396e-21)
(0.612245 -0.405397 -3.72363e-21)
(0.566922 -0.240802 -3.87801e-22)
(0.573159 -0.0314183 1.49934e-22)
(0.626967 0.165218 1.73382e-21)
(0.690185 0.323929 2.05987e-22)
(0.726154 0.44975 -1.49635e-21)
(0.7152 0.543654 1.25322e-21)
(0.684221 0.552502 -1.00228e-23)
(0.651689 0.435177 1.4621e-21)
(0.652845 0.208709 -1.78166e-21)
(0.684039 -0.0394072 -2.35188e-21)
(0.731064 -0.216914 6.61e-22)
(0.729168 -0.352949 6.89368e-22)
(0.699674 -0.423263 -1.12359e-21)
(0.664132 -0.410589 6.26331e-22)
(0.659059 -0.273485 -8.77603e-23)
(0.652961 -0.0256332 1.31769e-22)
(0.65531 0.197638 4.94575e-23)
(0.646039 0.403546 -3.19168e-22)
(0.658839 0.40249 -3.68721e-23)
(0.651547 0.238574 -2.42475e-22)
(0.646233 0.042375 0)
(0.568431 -0.296269 -1.18846e-22)
(0.566083 -0.296341 1.54232e-23)
(0.564441 -0.0288472 0)
(1.06603 -0.550819 7.79745e-20)
(1.08365 -0.674672 -1.44219e-19)
(1.07912 -0.75335 6.56858e-20)
(1.03662 -0.783951 4.71492e-20)
(0.966883 -0.778923 -8.38099e-20)
(0.890249 -0.749967 6.81279e-21)
(0.818242 -0.709305 2.93994e-20)
(0.746579 -0.671649 1.98445e-20)
(0.680914 -0.62868 -1.94144e-20)
(0.625218 -0.576662 0)
(0.558222 -0.54446 -1.39268e-20)
(0.468739 -0.534186 2.74919e-20)
(0.382886 -0.488873 -1.36218e-20)
(0.337148 -0.351957 0)
(0.344915 -0.132206 0)
(0.399114 0.108832 2.62548e-22)
(0.479966 0.31764 -1.13602e-20)
(0.564804 0.466844 1.10291e-20)
(0.64147 0.554409 0)
(0.71003 0.584154 7.22319e-21)
(0.773084 0.579425 -1.41109e-20)
(0.82618 0.59378 1.53673e-20)
(0.862411 0.665665 -1.85469e-20)
(0.883034 0.755091 -3.38554e-21)
(0.902326 0.759659 3.06812e-20)
(0.92925 0.605281 -1.74086e-20)
(0.959878 0.305761 -7.10755e-22)
(0.982875 -0.0490426 -9.9382e-21)
(0.989344 -0.348351 1.69595e-21)
(0.972905 -0.520001 8.39308e-21)
(0.944499 -0.569644 3.1733e-22)
(0.906725 -0.558718 -2.93197e-21)
(0.863252 -0.533026 4.89223e-21)
(0.800075 -0.503813 -2.18029e-21)
(0.713126 -0.465125 0)
(0.623077 -0.387354 -1.81234e-21)
(0.572617 -0.243634 1.79226e-21)
(0.577314 -0.0540772 -1.31591e-21)
(0.631725 0.134263 1.63828e-21)
(0.696757 0.299455 -1.18388e-22)
(0.737235 0.441138 0)
(0.733371 0.549887 -1.76107e-22)
(0.708488 0.567113 8.07009e-22)
(0.67939 0.449107 0)
(0.67969 0.213783 4.19711e-21)
(0.707274 -0.0446892 -1.65472e-21)
(0.755208 -0.220961 5.86034e-22)
(0.753895 -0.346792 4.4298e-22)
(0.719471 -0.41511 0)
(0.675878 -0.40662 0)
(0.667771 -0.276614 -1.91644e-22)
(0.661371 -0.0290738 1.64197e-22)
(0.665537 0.195057 -6.15905e-23)
(0.66001 0.401413 -4.66882e-23)
(0.675723 0.404444 2.51707e-22)
(0.669548 0.241084 2.42736e-22)
(0.66722 0.0524567 -5.72454e-22)
(0.583504 -0.285492 0)
(0.575606 -0.299225 -7.44109e-23)
(0.582643 -0.0294117 2.95795e-23)
(1.20715 -0.54754 7.03823e-20)
(1.1982 -0.639579 -6.96451e-20)
(1.16835 -0.692022 4.68114e-22)
(1.10565 -0.711191 -3.51099e-22)
(1.02676 -0.704957 3.15742e-22)
(0.945975 -0.684018 -2.52496e-22)
(0.871813 -0.652181 3.74414e-22)
(0.801849 -0.618062 0)
(0.730892 -0.58505 -2.39231e-22)
(0.668242 -0.540346 1.94266e-22)
(0.609435 -0.494625 1.61504e-22)
(0.531193 -0.472073 -1.87744e-22)
(0.436526 -0.449598 0)
(0.362982 -0.366293 0)
(0.340569 -0.197159 1.33087e-22)
(0.373334 0.0184312 0)
(0.442974 0.223346 -1.11407e-22)
(0.525047 0.385351 0)
(0.606779 0.490503 -5.48181e-21)
(0.68492 0.534941 1.05712e-20)
(0.758388 0.538765 -1.0789e-20)
(0.821767 0.555772 5.61311e-21)
(0.870232 0.629962 8.86172e-21)
(0.905738 0.728539 -8.60194e-21)
(0.938924 0.751507 -1.61603e-20)
(0.976818 0.619895 1.58321e-20)
(1.01602 0.33859 0)
(1.0444 -0.00986269 6.46681e-22)
(1.0515 -0.316137 0)
(1.02903 -0.49714 0)
(0.989331 -0.55214 7.81401e-21)
(0.938805 -0.541895 -8.17715e-21)
(0.886546 -0.514029 2.61295e-22)
(0.822425 -0.478567 1.96935e-22)
(0.736685 -0.436168 -1.16017e-22)
(0.641695 -0.368192 -1.14292e-21)
(0.584562 -0.246448 1.10963e-21)
(0.585719 -0.0782692 -1.21169e-21)
(0.63944 0.100787 1.00926e-21)
(0.706414 0.271385 1.96467e-22)
(0.75255 0.426571 -1.1406e-21)
(0.755873 0.550098 -8.27641e-22)
(0.737348 0.580609 1.19955e-21)
(0.714159 0.465514 0)
(0.714896 0.223097 -1.84957e-21)
(0.736725 -0.0468871 2.25415e-21)
(0.782841 -0.224381 -2.98894e-21)
(0.782061 -0.339574 -4.45941e-22)
(0.743073 -0.40502 0)
(0.690248 -0.401292 5.27959e-23)
(0.678832 -0.280409 -1.86271e-22)
(0.672482 -0.0339487 -3.62191e-23)
(0.678669 0.190926 5.49986e-23)
(0.676532 0.398198 2.07657e-22)
(0.694852 0.406643 -2.39404e-22)
(0.689674 0.243443 0)
(0.691389 0.0631225 5.72792e-22)
(0.603697 -0.273133 0)
(0.588472 -0.302589 0)
(0.603368 -0.0309707 -2.62481e-23)
(1.30462 -0.512801 -6.26334e-20)
(1.26663 -0.57604 6.15484e-20)
(1.21763 -0.608229 -3.75272e-22)
(1.14626 -0.623303 3.59957e-22)
(1.06761 -0.623806 0)
(0.991527 -0.61377 0)
(0.918738 -0.594891 -3.8365e-22)
(0.851152 -0.567049 0)