/*--------------------------------*- C++ -*----------------------------------*\
| =========                 |                                                 |
| \\      /  F ield         | OpenFOAM: The Open Source CFD Toolbox           |
|  \\    /   O peration     | Version:  2312                                  |
|   \\  /    A nd           | Website:  www.openfoam.com                      |
|    \\/     M anipulation  |                                                 |
\*---------------------------------------------------------------------------*/
FoamFile
{
    version     2.0;
    format      ascii;
    arch        "LSB;label=32;scalar=64";
    class       volVectorField;
    location    "112.55";
    object      U;
}
// * * * * * * * * * * * * * * * * * * * * * * * * * * * * * * * * * * * * * //

dimensions      [0 1 -1 0 0 0 0];

internalField   nonuniform List<vector> 
5478
(
(-0.0279391 0.0237193 -1.39491e-19)
(-0.021141 0.0367826 0)
(0.0574772 0.0265305 2.11683e-19)
(0.215498 -0.000359654 -3.72276e-19)
(0.450939 -0.0323481 2.45833e-19)
(0.724262 -0.0618946 -7.25886e-20)
(0.979529 -0.0864465 -1.26795e-19)
(1.17395 -0.107374 0)
(1.28798 -0.126801 0)
(1.32826 -0.144476 1.42086e-19)
(1.31336 -0.159093 -7.07333e-20)
(1.27126 -0.166729 -1.01108e-19)
(1.22095 -0.17587 -3.58844e-20)
(1.17777 -0.161466 0)
(1.12646 -0.178214 7.54834e-20)
(-0.0277143 0.0171909 2.79541e-19)
(0.008846 0.0111664 0)
(0.152877 -0.0106444 0)
(0.408179 -0.0333073 -1.85543e-19)
(0.719747 -0.0469042 2.45189e-19)
(1.004 -0.0531255 7.11142e-20)
(1.20743 -0.0582131 -1.17177e-19)
(1.31635 -0.0671877 1.03916e-19)
(1.34786 -0.0799963 2.42273e-19)
(1.33113 -0.0945916 -2.09529e-19)
(1.2955 -0.105892 4.07566e-21)
(1.25829 -0.114965 0)
(1.22516 -0.116523 3.58191e-20)
(1.19356 -0.112632 0)
(1.16491 -0.115852 0)
(-0.0219023 0.0113695 -7.35934e-22)
(0.069957 -0.0105537 -1.28933e-19)
(0.317624 -0.0312663 3.68254e-22)
(0.667502 -0.0334402 0)
(0.991027 -0.0245425 -8.02394e-20)
(1.21194 -0.017005 6.74357e-20)
(1.32226 -0.0176399 5.61726e-20)
(1.3523 -0.0259537 0)
(1.3403 -0.0381358 -8.10556e-20)
(1.31466 -0.0493339 6.61639e-20)
(1.28756 -0.0583906 5.3431e-20)
(1.26001 -0.0635778 0)
(1.23032 -0.0661971 0)
(1.20134 -0.0666132 -9.76578e-20)
(1.16968 -0.068238 8.70293e-20)
(-0.00530858 0.00330051 -1.49234e-19)
(0.175386 -0.02809 1.27302e-19)
(0.544578 -0.0264129 -1.09991e-19)
(0.927865 -0.00238512 9.50887e-20)
(1.19037 0.017901 1.59491e-19)
(1.32008 0.02525 -1.32946e-19)
(1.36002 0.0217104 -5.61452e-20)
(1.35631 0.0127009 4.28009e-20)
(1.33695 0.00278612 -4.12047e-20)
(1.31206 -0.00666684 0)
(1.28337 -0.0145937 0)
(1.25284 -0.0214749 -7.45238e-20)
(1.22355 -0.026475 9.53448e-20)
(1.19628 -0.0280631 -5.31187e-20)
(1.17016 -0.0335542 0)
(0.0279495 -0.00711952 7.5321e-20)
(0.333277 -0.0312822 6.36282e-20)
(0.787518 0.00748713 -2.26274e-19)
(1.12959 0.0471448 2.68797e-21)
(1.30601 0.066251 -3.24494e-21)
(1.36758 0.0688311 -1.69591e-21)
(1.37169 0.0628494 5.17621e-20)
(1.3527 0.0536653 4.4138e-20)
(1.32537 0.0434045 3.11609e-20)
(1.29558 0.0333866 -5.30634e-21)
(1.26719 0.0243199 -7.08513e-20)
(1.24173 0.0166703 0)
(1.21866 0.0122822 3.06329e-20)
(1.19676 0.00571352 -2.20049e-20)
(1.17762 0.00495735 4.04215e-20)
(0.083909 -0.0151891 -1.5872e-19)
(0.529506 -0.00555664 1.72163e-19)
(0.99453 0.0631524 -5.81398e-20)
(1.26231 0.10503 4.43047e-20)
(1.3671 0.11785 -8.09581e-20)
(1.38478 0.114797 -6.01068e-20)
(1.36691 0.105275 1.42623e-21)
(1.33876 0.0936655 0)
(1.31024 0.0819699 6.36522e-20)
(1.2843 0.071107 -5.66039e-20)
(1.26014 0.0613797 2.24122e-20)
(1.23673 0.0532301 0)
(1.21355 0.0452824 1.36985e-20)
(1.19157 0.0390444 -2.33457e-20)
(1.16833 0.0351818 0)
(0.164108 -0.0128782 -1.97582e-20)
(0.724334 0.0508443 1.19601e-21)
(1.14878 0.132371 2.90435e-20)
(1.34131 0.168075 4.74963e-20)
(1.39126 0.171848 -3.60518e-20)
(1.38059 0.16204 6.07184e-20)
(1.35259 0.148574 -1.37892e-20)
(1.32307 0.134762 0)
(1.29523 0.121388 -3.75155e-20)
(1.26852 0.108688 2.493e-21)
(1.24318 0.0969624 3.12927e-20)
(1.2198 0.0860805 0)
(1.19892 0.0772109 -2.00826e-20)
(1.17964 0.068239 0)
(1.16331 0.0650276 1.21235e-20)
(0.262877 0.00659704 -2.1004e-20)
(0.886523 0.127652 0)
(1.25086 0.209888 2.92295e-20)
(1.37757 0.234244 0)
(1.38958 0.227315 0)
(1.3641 0.210872 0)
(1.33181 0.193198 -1.17798e-20)
(1.30081 0.175809 0)
(1.27257 0.159155 7.57531e-21)
(1.24755 0.143781 0)
(1.22548 0.129817 -9.81718e-21)
(1.20571 0.117528 0)
(1.18716 0.106014 6.37732e-21)
(1.16989 0.0965021 0)
(1.15242 0.0909702 4.12794e-21)
(-0.0148907 0.107494 -1.35042e-20)
(-0.0484173 0.121541 0)
(-0.0961901 0.082759 2.15247e-20)
(-0.144774 0.035705 0)
(-0.190646 -0.0188792 0)
(-0.232922 -0.0857006 0)
(-0.270747 -0.165342 -1.45956e-20)
(-0.301841 -0.25678 0)
(-0.323938 -0.356325 1.18841e-20)
(-0.335265 -0.4573 0)
(-0.334757 -0.550965 -1.81892e-20)
(-0.321344 -0.627909 0)
(-0.293586 -0.678264 1.29275e-20)
(-0.254078 -0.691662 0)
(-0.17651 -0.666741 8.8579e-21)
(-0.0236231 0.130143 6.97092e-20)
(-0.0527989 0.167108 -5.09533e-20)
(-0.0881031 0.137467 2.49774e-20)
(-0.121859 0.0936406 8.31406e-20)
(-0.152517 0.0405723 1.25096e-21)
(-0.17846 -0.0262288 -6.75523e-20)
(-0.19864 -0.108267 4.49953e-20)
(-0.212708 -0.20447 0)
(-0.219401 -0.311382 3.87193e-20)
(-0.21866 -0.422619 -8.50662e-22)
(-0.212318 -0.529892 -2.11273e-20)
(-0.204294 -0.623625 0)
(-0.189867 -0.694843 -3.97579e-20)
(-0.185747 -0.732759 0)
(-0.139396 -0.730188 -4.16661e-20)
(-0.0316553 0.138792 1.20536e-19)
(-0.0542036 0.196456 2.75632e-20)
(-0.0710935 0.178074 -4.63939e-20)
(-0.0831702 0.139145 -1.30572e-19)
(-0.0898969 0.0890066 7.82043e-20)
(-0.090379 0.0253198 7.47916e-20)
(-0.0830822 -0.0543017 -1.3542e-19)
(-0.0666085 -0.148523 0)
(-0.0404694 -0.253791 -1.1091e-19)
(-0.00621951 -0.36314 9.86169e-20)
(0.031992 -0.467313 4.23664e-20)
(0.061825 -0.559005 0)
(0.098976 -0.623914 2.68082e-20)
(0.08401 -0.671605 -4.05242e-20)
(0.137006 -0.673908 0)
(-0.0369129 0.130915 6.46491e-20)
(-0.0536135 0.203305 -1.68866e-19)
(-0.0515323 0.197672 2.02246e-19)
(-0.0405028 0.165108 -1.82442e-19)
(-0.0214228 0.118806 -8.43165e-20)
(0.00692139 0.0583314 7.74085e-20)
(0.0464943 -0.0179237 6.91145e-20)
(0.099384 -0.109407 6.47539e-20)
(0.166035 -0.212031 -1.73067e-19)
(0.243758 -0.3176 3.41554e-21)
(0.326076 -0.412516 4.57399e-20)
(0.393444 -0.494673 0)
(0.470899 -0.535019 5.21351e-20)
(0.469768 -0.568536 1.10631e-19)
(0.543483 -0.539078 -6.26035e-20)
(-0.0379086 0.109672 1.17164e-21)
(-0.0509304 0.187371 1.17611e-19)
(-0.0331973 0.193606 -1.04336e-19)
(-0.00113398 0.16825 9.23898e-20)
(0.0426417 0.126236 1.69302e-19)
(0.0999129 0.0689082 -1.54939e-19)
(0.173853 -0.00387917 -7.08006e-20)
(0.267811 -0.0921032 -1.94816e-19)
(0.380132 -0.191045 1.73454e-19)
(0.503994 -0.291161 0)
(0.620717 -0.378555 0)
(0.716713 -0.449024 1.24266e-19)
(0.798896 -0.482573 -2.55642e-19)
(0.814788 -0.496017 8.27581e-20)
(0.874814 -0.464994 0)
(-0.0349867 0.0818268 2.48359e-22)
(-0.0462604 0.153445 -1.17811e-19)
(-0.0178429 0.166628 3.14832e-19)
(0.0317579 0.146734 -9.31865e-20)
(0.0992135 0.107199 -8.50463e-20)
(0.18835 0.0528592 7.75864e-20)
(0.305038 -0.0162228 7.08256e-20)
(0.449483 -0.098234 1.26289e-19)
(0.611612 -0.186454 -2.20762e-19)
(0.773403 -0.268454 9.24021e-20)
(0.90566 -0.338868 7.57833e-20)
(1.00587 -0.384429 0)
(1.0562 -0.406271 0)
(1.064 -0.41021 1.25526e-19)
(1.06519 -0.378109 -1.11717e-19)
(-0.0305601 0.0551016 4.39734e-22)
(-0.0404609 0.110689 0)
(-0.00471652 0.122714 0)
(0.0616232 0.103625 1.88195e-19)
(0.159739 0.0656843 -8.29846e-20)
(0.296256 0.0138528 7.46007e-20)
(0.471802 -0.0503895 1.36398e-19)
(0.671803 -0.120311 -1.20937e-19)
(0.869906 -0.188234 1.08727e-19)
(1.0349 -0.246406 -9.2487e-20)
(1.14663 -0.290792 -6.63019e-21)
(1.20492 -0.317602 0)
(1.20419 -0.322821 4.18332e-20)
(1.18052 -0.324471 0)
(1.12918 -0.28677 0)
(-0.0278888 0.0353041 -1.36776e-19)
(-0.0338223 0.0696774 0)
(0.013621 0.0727885 -2.11087e-19)
(0.109826 0.0506836 3.72562e-19)
(0.262058 0.0133571 -4.14078e-19)
(0.469068 -0.0333824 -7.57799e-20)
(0.706389 -0.0827834 1.3094e-19)
(0.935352 -0.129171 0)
(1.11997 -0.169429 0)
(1.23747 -0.201543 -1.55989e-19)
(1.28811 -0.226183 -5.49978e-20)
(1.28017 -0.236189 1.10973e-19)
(1.23757 -0.244245 -4.19175e-20)
(1.18361 -0.238053 0)
(1.1258 -0.217458 -8.18958e-20)
(-0.142774 -0.573879 0)
(0.144981 -0.180374 4.22022e-21)
(0.375489 0.288787 -3.91242e-21)
(0.507954 0.652529 0)
(0.636616 0.724174 0)
(0.666354 0.715279 -8.77747e-23)
(0.510259 0.742157 0)
(0.497607 0.535164 0)
(0.67822 0.00785678 1.07819e-22)
(0.827282 -0.344505 0)
(0.93789 -0.430471 0)
(0.891272 -0.497793 -9.86749e-23)
(0.861234 -0.545716 0)
(0.872015 -0.519985 -6.4808e-23)
(0.904938 -0.236972 -6.40996e-23)
(0.937533 0.0725355 0)
(0.985813 0.358748 -5.82845e-22)
(1.0278 0.605555 6.85524e-22)
(1.01166 0.450395 0)
(1.01171 0.251943 4.58067e-22)
(1.09909 -0.133057 -5.64365e-22)
(1.06391 -0.595827 1.14389e-22)
(1.07931 -0.409725 -1.97449e-22)
(1.07492 -0.189732 1.88669e-22)
(1.12783 0.233914 -2.21834e-22)
(1.14497 0.736236 0)
(1.18366 0.279859 -2.49764e-22)
(1.0126 -0.564504 2.3881e-22)
(1.0641 -0.301408 -9.52569e-23)
(1.05844 0.23157 0)
(0.96299 0.125445 -7.62979e-23)
(0.984714 -0.0118125 0)
(0.994931 -0.0415539 -3.62876e-23)
(0.927391 -0.0244819 -9.65168e-24)
(0.976654 0.0258738 1.06138e-24)
(0.939334 0.0162988 -8.03069e-24)
(0.900794 0.00158152 0)
(0.91704 0.0064113 1.74524e-24)
(-0.21796 -0.672827 1.50955e-20)
(-0.0393882 -0.371584 -1.1887e-22)
(0.160835 0.117364 -9.06875e-21)
(0.387994 0.509369 8.64898e-21)
(0.608379 0.645018 0)
(0.622276 0.743061 8.84711e-23)
(0.481862 0.783137 -1.93374e-22)
(0.571363 0.496964 0)
(0.786306 -0.0589066 -1.08624e-22)
(0.892579 -0.413942 0)
(0.99589 -0.446983 0)
(0.941969 -0.477565 9.93733e-23)
(0.903954 -0.547281 0)
(0.927325 -0.53224 2.2144e-21)
(0.923216 -0.248811 -1.85381e-21)
(0.929477 0.0540833 2.52408e-21)
(0.952458 0.333582 -2.40946e-21)
(1.00542 0.593744 -1.29828e-22)
(0.985275 0.45422 0)
(0.997794 0.243427 0)
(1.12159 -0.13395 -1.11955e-22)
(1.05708 -0.592251 9.68488e-22)
(1.08768 -0.412066 -1.6688e-21)
(1.06756 -0.196792 8.14271e-22)
(1.09578 0.217656 7.08437e-22)
(1.14781 0.726211 0)
(1.20855 0.297512 4.19269e-22)
(1.02182 -0.548903 0)
(1.05786 -0.311618 9.55893e-23)
(1.05407 0.237621 -2.31838e-22)
(0.963534 0.13008 3.72027e-22)
(0.995966 -0.0143668 -3.83251e-23)
(1.00048 -0.0368741 6.71703e-23)
(0.925841 -0.023367 2.37642e-24)
(0.978342 0.0247186 1.23486e-23)
(0.949011 0.020934 -6.64884e-24)
(0.907436 0.00310465 -5.47928e-25)
(0.920099 0.00558764 6.07199e-25)
(-0.00496741 -0.690191 1.95365e-20)
(-0.0545316 -0.527144 -3.3043e-20)
(0.0660377 -0.104784 2.81414e-21)
(0.350532 0.306915 1.05472e-20)
(0.585881 0.56655 1.39456e-22)
(0.569984 0.789146 -1.62458e-22)
(0.469345 0.813555 1.96731e-22)
(0.656112 0.457891 -4.80952e-22)
(0.909083 -0.0885128 0)
(0.975714 -0.448681 1.03984e-20)
(1.04666 -0.457567 -9.91844e-21)
(0.986836 -0.447038 -1.99844e-22)
(0.92423 -0.544449 0)
(0.961821 -0.549006 -4.55765e-21)
(0.942832 -0.259604 4.21385e-21)
(0.927901 0.0434094 -2.56793e-21)
(0.91958 0.315291 2.4505e-21)
(0.985164 0.582558 1.97655e-21)
(0.964475 0.459258 -1.64735e-21)
(0.985492 0.235074 0)
(1.13648 -0.125621 0)
(1.04832 -0.577646 1.69054e-21)
(1.0878 -0.416302 -1.61402e-21)
(1.0579 -0.202763 -2.01821e-21)
(1.05547 0.19547 -1.37333e-22)
(1.14343 0.711005 2.00246e-21)
(1.22311 0.321569 -6.8049e-23)
(1.02756 -0.518824 -6.73136e-22)
(1.04659 -0.320618 1.17881e-21)
(1.04691 0.24218 -1.05275e-21)
(0.961104 0.135337 4.4529e-23)
(1.00394 -0.0159627 -1.13522e-22)
(1.00386 -0.0310771 4.66474e-23)
(0.9219 -0.0218647 -4.46014e-23)
(0.977014 0.0227499 -8.50071e-24)
(0.956894 0.0251594 -4.89656e-24)
(0.912871 0.00505636 1.33266e-23)
(0.921557 0.0049852 2.00053e-24)
(0.401496 -0.558769 0)
(0.161865 -0.533205 7.36587e-21)
(0.0903129 -0.295599 -7.27143e-21)
(0.296313 0.0906332 0)
(0.479378 0.471302 -1.4336e-22)
(0.456388 0.784252 1.66962e-22)
(0.448058 0.787427 0)
(0.726691 0.399166 2.09531e-23)
(1.02493 -0.105854 -5.10074e-22)
(1.06624 -0.461112 0)
(1.09013 -0.469581 -7.6253e-21)
(1.05047 -0.412142 7.47562e-21)
(0.955524 -0.52696 -3.41122e-22)
(0.976085 -0.567892 -4.88481e-21)
(0.966036 -0.27693 4.6586e-21)
(0.940698 0.0248811 3.29126e-22)
(0.890797 0.281175 0)
(0.949816 0.559763 -2.55756e-22)
(0.93298 0.464907 2.5808e-21)
(0.96764 0.229822 2.77001e-22)
(1.14191 -0.115004 4.31602e-22)
(1.04277 -0.561104 -2.52647e-21)
(1.08252 -0.423674 -3.35051e-21)
(1.04742 -0.209368 4.09565e-21)
(1.00974 0.165069 -5.31001e-22)
(1.12284 0.679714 0)
(1.22233 0.342224 -3.60132e-22)
(1.03139 -0.48825 6.81974e-22)
(1.03237 -0.331597 -1.2136e-21)
(1.03649 0.241961 1.08391e-21)
(0.955001 0.138825 -1.3654e-22)
(1.00821 -0.0179095 0)
(1.00496 -0.024861 -4.65918e-23)
(0.916031 -0.0201004 8.35135e-23)
(0.973007 0.0199109 2.57382e-23)
(0.962846 0.0288445 2.67806e-23)
(0.917126 0.00739979 -1.33359e-23)
(0.921711 0.00462071 1.78374e-25)
(0.779915 -0.411814 2.51399e-22)
(0.561488 -0.376957 2.33216e-22)
(0.307909 -0.340606 0)
(0.285387 -0.0951373 0)
(0.367475 0.370084 0)
(0.365819 0.767552 0)
(0.461759 0.744084 1.28791e-20)
(0.798377 0.33027 -2.83135e-20)
(1.12003 -0.116937 1.65066e-20)
(1.15637 -0.439687 0)
(1.11542 -0.471656 -7.49554e-21)
(1.08716 -0.379673 7.39353e-21)
(0.986727 -0.490956 5.79261e-21)
(0.968202 -0.58257 -4.86627e-21)
(0.975604 -0.30665 5.40236e-21)
(0.952397 0.0147265 -5.48818e-21)
(0.860857 0.269104 -3.35376e-22)
(0.918043 0.547804 -3.25378e-21)
(0.91325 0.469578 3.10012e-21)
(0.954654 0.223414 2.75088e-22)
(1.14072 -0.0991157 3.01111e-22)
(1.03934 -0.538915 2.80628e-21)
(1.06972 -0.432046 -3.05429e-21)
(1.03284 -0.213801 -1.04784e-21)
(0.958243 0.135638 -5.82928e-22)
(1.09833 0.654432 -4.73846e-22)
(1.2132 0.371409 0)
(1.0334 -0.451115 0)
(1.01593 -0.341028 0)
(1.02462 0.241424 0)
(0.946815 0.142951 3.59549e-22)
(1.0094 -0.0192298 -2.10787e-22)
(1.00408 -0.0179434 9.31625e-23)
(0.908928 -0.0178656 -2.49867e-22)
(0.966899 0.0163155 2.60727e-23)
(0.966871 0.0319259 4.99907e-24)
(0.920289 0.010083 -1.66723e-23)
(0.920919 0.00449641 -5.04089e-24)
(0.969983 -0.374355 -2.64616e-22)
(0.855085 -0.258063 7.91688e-21)
(0.68347 -0.22642 -7.64769e-21)
(0.466528 -0.15922 1.0604e-20)
(0.362978 0.213409 -1.01014e-20)
(0.348033 0.658737 1.08417e-20)
(0.508857 0.673131 -1.00325e-20)
(0.884952 0.27919 4.05009e-22)
(1.19944 -0.107125 -5.10543e-22)
(1.23779 -0.388698 0)
(1.14786 -0.456157 -2.75354e-22)
(1.11035 -0.354202 1.21351e-20)
(1.02274 -0.443272 -1.15515e-20)
(0.95743 -0.584412 -3.30441e-22)
(0.967562 -0.344601 0)
(0.962491 -0.0135103 -6.30021e-21)
(0.843763 0.230407 1.10085e-20)
(0.872274 0.512614 -4.51949e-21)
(0.872579 0.47523 0)
(0.936163 0.226673 2.01774e-21)
(1.13457 -0.0775728 7.25162e-23)
(1.03847 -0.513144 -2.4491e-21)
(1.05229 -0.440933 -4.30241e-21)
(1.01355 -0.219796 4.23821e-21)
(0.911126 0.101009 -4.4329e-21)
(1.0559 0.608745 1.30564e-21)
(1.18615 0.392985 3.0165e-21)
(1.03247 -0.415248 -1.72149e-21)
(0.999942 -0.351238 1.63724e-21)
(1.0106 0.235117 -4.96756e-22)
(0.935794 0.145677 4.72306e-22)
(1.00739 -0.02087 0)
(1.00123 -0.0108371 9.31402e-23)
(0.901174 -0.0153427 -2.06484e-23)
(0.95935 0.0119861 0)
(0.969079 0.0343315 -2.51317e-23)
(0.922471 0.0130191 1.08141e-23)
(0.919558 0.00459357 -2.2905e-24)
(1.04354 -0.305907 0)
(0.925325 -0.22667 0)
(0.867522 -0.157034 -3.18177e-23)
(0.764688 -0.0940013 0)
(0.536754 0.1661 0)
(0.43813 0.580279 1.73603e-21)
(0.635868 0.592203 -1.71921e-21)
(1.01635 0.204658 2.80002e-20)
(1.27569 -0.122333 -2.66732e-20)
(1.29293 -0.348931 0)
(1.18071 -0.437378 -2.57095e-22)
(1.12086 -0.339153 2.00286e-22)
(1.05232 -0.393691 -1.07742e-20)
(0.959501 -0.570676 -8.71508e-22)
(0.945723 -0.394941 1.04235e-20)
(0.961345 -0.033348 1.97227e-22)
(0.820564 0.22969 -1.86337e-22)
(0.831686 0.508116 6.3259e-21)
(0.853599 0.474312 -6.26577e-21)
(0.930303 0.216866 0)
(1.13172 -0.0573157 0)
(1.03781 -0.481434 -1.34324e-22)
(1.02993 -0.446831 0)
(0.986438 -0.223852 5.06427e-21)
(0.860521 0.0743057 2.19274e-22)
(1.01769 0.58193 -4.2121e-21)
(1.16232 0.420858 -1.96044e-21)
(1.03038 -0.372282 1.30917e-21)
(0.985295 -0.360002 -2.17225e-22)
(0.996772 0.23064 0)
(0.924347 0.148661 -2.10113e-22)
(1.00328 -0.0226757 1.99193e-22)
(0.996911 -0.00350975 5.56485e-23)
(0.893519 -0.012365 2.1035e-23)
(0.951124 0.00719319 -3.65077e-23)
(0.969701 0.0361047 9.5609e-24)
(0.923813 0.0161318 0)
(0.917969 0.00488207 4.37597e-24)
(1.05886 -0.252716 5.0214e-20)
(0.970581 -0.209608 2.04254e-20)
(0.911409 -0.180349 -1.42824e-20)
(0.889564 -0.139837 3.91212e-21)
(0.724089 0.0541843 -8.31711e-21)
(0.566327 0.44945 9.02556e-23)
(0.742528 0.547175 0)
(1.10718 0.240238 -1.74162e-22)
(1.32511 -0.0438361 -2.17409e-22)
(1.32742 -0.254672 0)
(1.21188 -0.38548 -1.50084e-20)
(1.13462 -0.318423 1.4294e-20)
(1.07629 -0.346866 1.69035e-22)
(0.972936 -0.534613 1.07428e-20)
(0.921051 -0.433974 -1.01914e-20)
(0.939203 -0.0897274 2.07193e-22)
(0.801818 0.175433 1.97422e-22)
(0.78771 0.458958 0)
(0.800591 0.481956 4.22419e-21)
(0.907002 0.236032 -4.01e-21)
(1.13326 -0.0233518 -2.07929e-21)
(1.03902 -0.442729 -4.74334e-22)
(1.00646 -0.44819 2.45416e-21)
(0.954524 -0.228247 -5.17482e-21)
(0.816836 0.030779 4.11996e-22)
(0.969346 0.525285 7.51597e-21)
(1.11903 0.44002 -2.3844e-21)
(1.02523 -0.330834 1.44981e-21)
(0.972376 -0.368199 -1.02827e-21)
(0.981002 0.219335 0)
(0.911437 0.151963 0)
(0.99732 -0.0237623 0)
(0.991422 0.00341384 3.79071e-23)
(0.886584 -0.00936846 -5.37952e-23)
(0.942811 0.00170797 3.29992e-23)
(0.968923 0.0371392 -2.15699e-23)
(0.924436 0.0192904 -9.02339e-24)
(0.916439 0.00530314 0)
(1.08183 -0.161626 0)
(1.02838 -0.118451 0)
(0.945262 -0.097158 0)
(0.898955 -0.0553864 0)
(0.815065 0.0780682 0)
(0.800037 0.317937 0)
(1.05556 0.362943 0)
(1.29366 0.115194 0)
(1.35932 -0.0615932 0)
(1.33046 -0.178419 0)
(1.22165 -0.318026 0)
(1.1393 -0.270627 0)
(1.10673 -0.27035 0)
(0.997551 -0.497405 0)
(0.901888 -0.479065 0)
(0.897751 -0.116202 0)
(0.766634 0.192591 0)
(0.729707 0.467767 0)
(0.761443 0.465876 0)
(0.91768 0.196162 0)
(1.16098 -0.0071807 0)
(1.042 -0.404468 0)
(0.982811 -0.463634 0)
(0.909243 -0.236789 0)
(0.789588 0.0142221 0)
(0.91809 0.491759 0)
(1.09543 0.468417 0)
(1.0286 -0.303845 0)
(0.960539 -0.372427 0)
(0.966013 0.213316 0)
(0.896544 0.154472 0)
(0.988996 -0.0273212 0)
(0.983394 0.0125599 0)
(0.879627 -0.00471624 0)
(0.932881 -0.00469461 0)
(0.966299 0.0380821 0)
(0.924578 0.0232778 0)
(0.914973 0.00599452 0)
(1.07509 -0.102804 0)
(1.03784 -0.0810225 0)
(0.98831 -0.0674581 0)
(0.951042 -0.0344405 0)
(0.918504 0.0840977 0)
(0.968603 0.220541 0)
(1.15795 0.219006 0)
(1.29132 0.0699687 0)
(1.29808 -0.0490193 0)
(1.2603 -0.176855 0)
(1.17934 -0.274068 0)
(1.0838 -0.247974 0)
(1.04974 -0.298432 0)
(0.959763 -0.457772 0)
(0.861367 -0.391499 0)
(0.822504 -0.0402335 0)
(0.670572 0.24695 0)
(0.658229 0.47916 0)
(0.743965 0.420092 0)
(0.953473 0.107221 0)
(1.17041 -0.0713731 0)
(1.0225 -0.389807 0)
(0.946302 -0.406683 0)
(0.833633 -0.176368 0)
(0.714611 0.0319689 0)
(0.848702 0.460669 0)
(1.07609 0.419046 0)
(1.03353 -0.301543 0)
(0.952751 -0.34746 0)
(0.937128 0.235639 0)
(0.876017 0.147381 0)
(0.981671 -0.0384481 0)
(0.97495 0.0238216 0)
(0.873779 0.000618946 0)
(0.923462 -0.0133404 0)
(0.962653 0.0382763 0)
(0.924845 0.0277541 0)
(0.914809 0.00678103 0)
(1.07193 -0.0554356 0)
(1.04945 -0.045681 0)
(1.02618 -0.0290739 0)
(0.995998 0.00173011 0)
(0.986488 0.05821 0)
(1.03276 0.127734 0)
(1.14322 0.134019 0)
(1.21721 0.0214195 0)
(1.22854 -0.0432358 0)
(1.21912 -0.120069 0)
(1.14415 -0.217522 0)
(1.07884 -0.190533 0)
(1.08641 -0.208326 0)
(0.971215 -0.377792 0)
(0.79894 -0.365899 0)
(0.710637 -0.00142793 0)
(0.572674 0.28943 0)
(0.625824 0.434087 0)
(0.794713 0.31886 0)
(0.993365 0.0247023 0)
(1.1642 -0.053853 0)
(1.05072 -0.326947 0)
(0.913375 -0.38255 0)
(0.74971 -0.145992 0)
(0.613086 0.0221446 0)
(0.78737 0.387303 0)
(1.08807 0.389345 0)
(1.05707 -0.265766 0)
(0.943063 -0.337699 0)
(0.909651 0.239644 0)
(0.866582 0.137672 0)
(0.977976 -0.0487433 0)
(0.967349 0.0359532 0)
(0.87113 0.00655855 0)
(0.918194 -0.0230306 0)
(0.96009 0.0375596 0)
(0.925632 0.0323702 0)
(0.916559 0.00769345 0)
(1.06853 -0.0256322 0)
(1.05674 -0.0181625 0)
(1.04137 -0.0133382 0)
(1.02832 0.00692407 0)
(1.02905 0.0374071 0)
(1.05401 0.0660407 0)
(1.11934 0.0708602 0)
(1.16533 0.00884381 0)
(1.16599 -0.0402344 0)
(1.16236 -0.111765 0)
(1.11437 -0.166194 0)
(1.03671 -0.18396 0)
(1.01619 -0.240003 0)
(0.932449 -0.301552 0)
(0.7558 -0.233209 0)
(0.615146 0.090865 0)
(0.564852 0.289466 0)
(0.70083 0.352804 0)
(0.911887 0.235227 0)
(1.05344 -0.0480467 0)
(1.13772 -0.0976942 0)
(1.06144 -0.283837 0)
(0.872626 -0.288544 0)
(0.662363 -0.0593725 0)
(0.53234 0.0240221 0)
(0.737282 0.293758 0)
(1.09112 0.321065 0)
(1.08149 -0.246594 0)
(0.919757 -0.299936 0)
(0.872973 0.252688 0)
(0.861341 0.12322 0)
(0.977794 -0.0624451 0)
(0.961498 0.0498368 0)
(0.872567 0.0129052 0)
(0.918263 -0.0336341 0)
(0.958734 0.0366104 0)
(0.926404 0.0369176 0)
(0.920273 0.00837116 0)
(1.06418 -0.00764167 0)
(1.05953 -0.00277667 0)
(1.05452 -0.00381493 0)
(1.04479 0.00978512 0)
(1.05061 0.0221191 0)
(1.06392 0.0309817 0)
(1.09618 0.0365092 0)
(1.12219 -0.0142239 0)
(1.12835 -0.0335633 0)
(1.11928 -0.0887194 0)
(1.0895 -0.137124 0)
(1.04839 -0.118718 0)
(1.01198 -0.149483 0)
(0.917856 -0.21225 0)
(0.780105 -0.157687 0)
(0.660887 0.126329 0)
(0.709867 0.242477 0)
(0.862527 0.236013 0)
(1.03677 0.137994 0)
(1.10125 -0.0792126 0)
(1.10782 -0.071953 0)
(1.08026 -0.217019 0)
(0.871765 -0.207644 0)
(0.666361 0.00489524 0)
(0.560022 0.00194075 0)
(0.70891 0.171555 0)
(1.07832 0.254807 0)
(1.11403 -0.209653 0)
(0.889795 -0.259797 0)
(0.818467 0.26152 0)
(0.868435 0.101278 0)
(0.985143 -0.0775776 0)
(0.960494 0.0644862 0)
(0.879437 0.0186891 0)
(0.92468 -0.0453372 0)
(0.961355 0.0358744 0)
(0.930353 0.0414583 0)
(0.927392 0.0086579 0)
(1.06033 0.00296939 0)
(1.05874 0.00582056 0)
(1.05934 0.000925618 0)
(1.05166 0.00770427 0)
(1.06052 0.0117862 0)
(1.06165 0.00939313 0)
(1.08308 0.0144693 0)
(1.09326 -0.0221079 0)
(1.09392 -0.0308131 0)
(1.09343 -0.0719264 0)
(1.05828 -0.103922 0)
(1.01694 -0.10105 0)
(1.00145 -0.139275 0)
(0.937229 -0.146785 0)
(0.83523 -0.0743329 0)
(0.775021 0.12806 0)
(0.881425 0.163412 0)
(0.996281 0.145808 0)
(1.10621 0.103306 0)
(1.11565 -0.0807121 0)
(1.05943 -0.0805676 0)
(1.05823 -0.176239 0)
(0.873361 -0.11585 0)
(0.761066 0.084415 0)
(0.717356 0.0147251 0)
(0.74571 0.0638059 0)
(1.05523 0.156938 0)
(1.1305 -0.177431 0)
(0.85856 -0.190025 0)
(0.773675 0.269599 0)
(0.907304 0.0655602 0)
(0.999207 -0.0938481 0)
(0.958885 0.0817307 0)
(0.893016 0.0247831 0)
(0.938898 -0.0579659 0)
(0.968918 0.0352921 0)
(0.937572 0.0461208 0)
(0.937519 0.00865987 0)
(1.05528 0.00803623 0)
(1.05515 0.00860515 0)
(1.05969 0.00401582 0)
(1.05237 0.00459508 0)
(1.06125 0.00623935 0)
(1.05718 -0.00202666 0)
(1.07033 0.00248884 0)
(1.07244 -0.0243891 0)
(1.06937 -0.0298022 0)
(1.06961 -0.0554199 0)
(1.04297 -0.0788834 0)
(1.02218 -0.0678388 0)
(1.00076 -0.087192 0)
(0.946036 -0.0814753 0)
(0.884894 -0.0424827 0)
(0.877308 0.0951674 0)
(0.97835 0.106632 0)
(1.02694 0.0808388 0)
(1.10257 0.0656409 0)
(1.11083 -0.0610288 0)
(1.03917 -0.0371439 0)
(1.04853 -0.11642 0)
(0.886136 -0.066285 0)
(0.868308 0.0966044 0)
(0.921453 0.0222952 0)
(0.869985 0.00951395 0)
(1.03815 0.0919796 0)
(1.12902 -0.138103 0)
(0.857681 -0.122789 0)
(0.791716 0.252342 0)
(0.975795 0.0221667 0)
(1.01161 -0.101381 0)
(0.955392 0.100522 0)
(0.921105 0.0273352 0)
(0.961739 -0.0707919 0)
(0.97505 0.0361389 0)
(0.945356 0.0508538 0)
(0.952148 0.00810054 0)
(1.05058 0.0101504 0)
(1.0504 0.00898284 0)
(1.05633 0.00517697 0)
(1.04979 0.00268258 0)
(1.05701 0.0023545 0)
(1.05211 -0.00573175 0)
(1.05809 -0.00442068 0)
(1.05886 -0.0218519 0)
(1.05222 -0.0259179 0)
(1.05443 -0.0404617 0)
(1.03118 -0.0568609 0)
(1.01689 -0.0487537 0)
(0.99756 -0.0661787 0)
(0.96858 -0.0484492 0)
(0.93583 -0.0231026 0)
(0.932013 0.0568259 0)
(1.01107 0.0636433 0)
(1.02457 0.0489524 0)
(1.07721 0.051146 0)
(1.07408 -0.0472982 0)
(1.02259 -0.0285944 0)
(1.03836 -0.0842614 0)
(0.923675 -0.0334314 0)
(0.941492 0.0763382 0)
(1.01771 0.0240303 0)
(0.967956 -0.0017997 0)
(1.02617 0.0448781 0)
(1.09338 -0.106681 0)
(0.874429 -0.0557124 0)
(0.868677 0.224611 0)
(1.04336 -0.0128658 0)
(1.00941 -0.0960345 0)
(0.954207 0.116953 0)
(0.9675 0.0253132 0)
(0.987994 -0.0789097 0)
(0.97364 0.0404384 0)
(0.961161 0.053768 0)
(0.976363 0.00585715 0)
(1.04546 0.0105197 0)
(1.04564 0.00831394 0)
(1.05048 0.00537435 0)
(1.04625 0.00174507 0)
(1.05033 0.000539168 0)
(1.04668 -0.00620458 0)
(1.0483 -0.00705053 0)
(1.0481 -0.0171648 0)
(1.04093 -0.0221396 0)
(1.04226 -0.0285457 0)
(1.02475 -0.0411356 0)
(1.01765 -0.0325575 0)
(1.00318 -0.0422555 0)
(0.983081 -0.0247408 0)
(0.971437 -0.0133939 0)
(0.964102 0.0309589 0)
(1.01688 0.0415017 0)
(1.01488 0.0241025 0)
(1.05706 0.03532 0)
(1.0531 -0.0330571 0)
(1.02124 -0.00828902 0)
(1.02686 -0.0488022 0)
(0.953278 -0.0199362 0)
(0.977129 0.0487836 0)
(1.03401 0.0151045 0)
(1.00762 -0.00413048 0)
(1.02397 0.035036 0)
(1.05752 -0.0699898 0)
(0.896121 -0.0228731 0)
(0.957157 0.181624 0)
(1.08768 -0.0264332 0)
(0.997747 -0.0762029 0)
(0.967519 0.123089 0)
(1.02601 0.0186207 0)
(1.00949 -0.0769361 0)
(0.97197 0.0466872 0)
(0.995041 0.0517293 0)
(1.0079 0.00265722 0)
(1.04015 0.00988847 0)
(1.04081 0.00765365 0)
(1.04417 0.00509375 0)
(1.04183 0.00181847 0)
(1.04329 -0.000200416 0)
(1.04132 -0.00483319 0)
(1.04021 -0.00704848 0)
(1.04012 -0.0125136 0)
(1.03379 -0.0171318 0)
(1.0339 -0.0193575 0)
(1.02292 -0.027853 0)
(1.01663 -0.0208793 0)
(1.00845 -0.0279228 0)
(0.993562 -0.0146299 0)
(0.994449 -0.00735588 0)
(0.982526 0.0137946 0)
(1.01874 0.0262419 0)
(1.01316 0.00994138 0)
(1.03993 0.0262782 0)
(1.03651 -0.0244389 0)
(1.0155 -0.00340714 0)
(1.02345 -0.0314354 0)
(0.978631 -0.012842 0)
(0.993808 0.0304099 0)
(1.02916 0.012231 0)
(1.01074 -0.00218195 0)
(1.01734 0.0225124 0)
(1.04451 -0.0434104 0)
(0.924047 -0.00916232 0)
(1.00624 0.135938 0)
(1.09608 -0.0234892 0)
(0.983126 -0.0547079 0)
(0.989966 0.110742 0)
(1.07163 0.0119932 0)
(1.01294 -0.0636766 0)
(0.976069 0.0477643 0)
(1.03243 0.043018 0)
(1.03232 0.000853754 0)
(1.03517 0.0088788 0)
(1.03614 0.00713386 0)
(1.03815 0.00480267 0)
(1.03702 0.00223415 0)
(1.03715 0.000131626 0)
(1.03603 -0.00302636 0)
(1.03431 -0.00538522 0)
(1.0337 -0.00835925 0)
(1.02932 -0.0121647 0)
(1.02805 -0.0125798 0)
(1.02207 -0.0182968 0)
(1.01609 -0.013438 0)
(1.01358 -0.0173453 0)
(1.00131 -0.00865452 0)
(1.007 -0.0037409 0)
(0.995723 0.00455681 0)
(1.0179 0.0176231 0)
(1.01315 0.00103365 0)
(1.02824 0.0188971 0)
(1.02892 -0.0174199 0)
(1.01354 0.0024701 0)
(1.02128 -0.017036 0)
(0.992984 -0.00647196 0)
(1.00121 0.0184259 0)
(1.02251 0.0080695 0)
(1.0135 0.000569733 0)
(1.01292 0.0175364 0)
(1.03656 -0.0187237 0)
(0.949429 -0.00495855 0)
(1.01619 0.0929197 0)
(1.08651 -0.0111146 0)
(0.977962 -0.0334619 0)
(1.00645 0.0861389 0)
(1.08665 0.0106228 0)
(1.00548 -0.0426116 0)
(0.98819 0.0410238 0)
(1.05274 0.0316564 0)
(1.04139 0.00196525 0)
(1.0307 0.00792473 0)
(1.03157 0.00676568 0)
(1.03295 0.00462842 0)
(1.03228 0.00291442 0)
(1.03209 0.000868785 0)
(1.03117 -0.00115413 0)
(1.02972 -0.0032702 0)
(1.02876 -0.00501985 0)
(1.02613 -0.00770434 0)
(1.02415 -0.00782146 0)
(1.0216 -0.0112104 0)
(1.0162 -0.00829518 0)
(1.0165 -0.0102028 0)
(1.007 -0.00569145 0)
(1.0131 -0.0015499 0)
(1.00402 -0.000189093 0)
(1.01729 0.0114037 0)
(1.01419 -0.00270552 0)
(1.02102 0.0139537 0)
(1.02371 -0.0128935 0)
(1.01141 0.00462724 0)
(1.01959 -0.0113452 0)
(1.00174 -0.00230758 0)
(1.00697 0.0111481 0)
(1.01777 0.00533386 0)
(1.01411 0.00413296 0)
(1.00827 0.00987154 0)
(1.03211 -0.00564173 0)
(0.974355 -0.000865432 0)
(1.0135 0.0604872 0)
(1.06962 -0.000372637 0)
(0.983852 -0.0175562 0)
(1.01496 0.0592485 0)
(1.07823 0.0128164 0)
(1.0022 -0.0231172 0)
(1.00294 0.0284816 0)
(1.05495 0.0216183 0)
(1.04037 0.00463459 0)
(1.02674 0.0070936 0)
(1.02743 0.0064854 0)
(1.02852 0.00455121 0)
(1.02792 0.00355621 0)
(1.02786 0.00167355 0)
(1.02693 0.000469187 0)
(1.02615 -0.00129749 0)
(1.02493 -0.0023522 0)
(1.02367 -0.00417492 0)
(1.02159 -0.00439647 0)
(1.02081 -0.00618307 0)
(1.01646 -0.00501733 0)
(1.01779 -0.00543482 0)
(1.01084 -0.00390775 0)
(1.0158 -0.000207153 0)
(1.00916 -0.00196249 0)
(1.01687 0.00769857 0)
(1.01438 -0.00406914 0)
(1.01739 0.0104526 0)
(1.0203 -0.00967809 0)
(1.01133 0.00640844 0)
(1.01847 -0.00720127 0)
(1.00656 0.00135198 0)
(1.01052 0.00754759 0)
(1.01493 0.00285913 0)
(1.01531 0.00757906 0)
(1.00837 0.00596394 0)
(1.02726 0.00349676 0)
(0.990651 0.00348447 0)
(1.01303 0.0361968 0)
(1.0529 0.00755636 0)
(0.994224 -0.00471916 0)
(1.01925 0.0377136 0)
(1.06232 0.0166424 0)
(1.00579 -0.00774989 0)
(1.01448 0.0169058 0)
(1.0489 0.0153861 0)
(1.03673 0.00793185 0)
(1.02335 0.00637705 0)
(1.02379 0.00623872 0)
(1.02472 0.0044434 0)
(1.02414 0.00408389 0)
(1.02432 0.0023242 0)
(1.02341 0.00179449 0)
(1.0232 0.000259084 0)
(1.02194 -0.00036218 0)
(1.02155 -0.00156521 0)
(1.01967 -0.0020491 0)
(1.0198 -0.00272653 0)
(1.01652 -0.00287021 0)
(1.01798 -0.00226172 0)
(1.01311 -0.00269804 0)
(1.01674 0.000707202 0)
(1.01194 -0.00225696 0)
(1.01657 0.00533944 0)
(1.01448 -0.0038691 0)
(1.01577 0.0081774 0)
(1.018 -0.00719988 0)
(1.01163 0.00717641 0)
(1.01727 -0.00531207 0)
(1.00928 0.00347709 0)
(1.01269 0.00534023 0)
(1.0139 0.00134837 0)
(1.01511 0.00992268 0)
(1.00964 0.00183095 0)
(1.02318 0.00740181 0)
(1.00169 0.0060609 0)
(1.01499 0.0198629 0)
(1.03858 0.0123219 0)
(1.00404 0.00195359 0)
(1.02188 0.021999 0)
(1.04795 0.0196949 0)
(1.01144 0.00145186 0)
(1.02163 0.00714768 0)
(1.04191 0.0111722 0)
(1.03361 0.0101725 0)
(1.02042 0.00575739 0)
(1.02067 0.00595935 0)
(1.02152 0.00431159 0)
(1.02096 0.00441757 0)
(1.02136 0.00277543 0)
(1.02047 0.0027184 0)
(1.02071 0.00135232 0)
(1.0195 0.00101423 0)
(1.0197 0.000205931 0)
(1.01807 -0.000461059 0)
(1.01869 -0.000453479 0)
(1.01621 -0.00143442 0)
(1.01762 -0.000224724 0)
(1.01415 -0.00172735 0)
(1.01683 0.00132928 0)
(1.01327 -0.00181112 0)
(1.01628 0.00401408 0)