/*--------------------------------*- C++ -*----------------------------------*\
| =========                 |                                                 |
| \\      /  F ield         | OpenFOAM: The Open Source CFD Toolbox           |
|  \\    /   O peration     | Version:  2312                                  |
|   \\  /    A nd           | Website:  www.openfoam.com                      |
|    \\/     M anipulation  |                                                 |
\*---------------------------------------------------------------------------*/
FoamFile
{
    version     2.0;
    format      ascii;
    arch        "LSB;label=32;scalar=64";
    class       surfaceScalarField;
    location    "141.5";
    object      phi;
}
// * * * * * * * * * * * * * * * * * * * * * * * * * * * * * * * * * * * * * //

dimensions      [0 3 -1 0 0 0 0];

oriented        oriented;

internalField   nonuniform List<scalar> 
10785
(
0.000894013
0.00301018
-0.00390419
0.00367965
0.00224896
-0.0050346
0.0100983
-0.00518937
-0.00122928
0.0224865
-0.0200928
0.00770461
0.0420602
-0.0419392
0.0223655
0.0674406
-0.0677277
0.0423473
0.0953513
-0.0934275
0.0655168
0.122137
-0.115795
0.0890098
0.145021
-0.133031
0.110147
0.162991
-0.145074
0.127104
0.175952
-0.152678
0.139717
0.185637
-0.157279
0.147594
0.193818
-0.160912
0.152731
0.20105
-0.163234
0.156002
-0.166652
0.15716
0.210541
0.000845976
0.0021642
0.00505929
-0.00196436
0.015465
-0.015595
0.0341373
-0.0387651
0.0595271
-0.067329
0.0871541
-0.0953547
0.112407
-0.11868
0.132312
-0.1357
0.146256
-0.146975
0.15534
-0.154159
0.161792
-0.15913
0.16809
-0.163577
0.175253
-0.168075
0.184851
-0.172832
-0.179152
0.197351
0.00112309
0.00104111
0.00775336
-0.00859463
0.0234576
-0.0312993
0.0473699
-0.0626774
0.0738338
-0.093793
0.0971835
-0.118704
0.114421
-0.135918
0.125604
-0.146883
0.132704
-0.154076
0.138228
-0.159682
0.144131
-0.165033
0.151071
-0.170517
0.15916
-0.176163
0.168456
-0.182128
-0.188173
0.177477
0.00194962
-0.000908514
0.0122533
-0.0188983
0.0328159
-0.0518619
0.0575699
-0.0874314
0.0793915
-0.115615
0.0949787
-0.134292
0.104816
-0.145755
0.111209
-0.153276
0.116402
-0.159269
0.121641
-0.164921
0.127135
-0.170527
0.132856
-0.176238
0.138847
-0.182154
0.14514
-0.188421
-0.19526
0.152228
0.00332944
-0.00423796
0.0177179
-0.0332868
0.0399288
-0.0740728
0.0607942
-0.108297
0.0757769
-0.130597
0.0851326
-0.143647
0.0910681
-0.151691
0.0955219
-0.157729
0.0994652
-0.163212
0.103201
-0.168657
0.106999
-0.174325
0.111133
-0.180373
0.115823
-0.186844
0.121316
-0.193914
-0.201292
0.127348
0.00519804
-0.009436
0.0223234
-0.0504121
0.0422697
-0.0940192
0.0574737
-0.123501
0.0669097
-0.140033
0.0724306
-0.149168
0.0759619
-0.155222
0.0786515
-0.160419
0.0810814
-0.165642
0.0836348
-0.17121
0.0864956
-0.177186
0.0896879
-0.183565
0.093188
-0.190344
0.0967523
-0.197478
-0.204808
0.100268
0.00718167
-0.0166177
0.0244901
-0.0677205
0.04018
-0.109709
0.0502422
-0.133563
0.0556466
-0.145438
0.0584416
-0.151963
0.0601175
-0.156898
0.0614531
-0.161755
0.0627669
-0.166956
0.0641132
-0.172556
0.0654883
-0.178561
0.0669381
-0.185015
0.0685149
-0.191921
0.070308
-0.199271
-0.206929
0.0724288
0.0086211
-0.0252388
0.0237921
-0.0828916
0.0350915
-0.121008
0.0409902
-0.139462
0.0434001
-0.147848
0.0441972
-0.15276
0.0444067
-0.157108
0.0443919
-0.16174
0.0442399
-0.166804
0.0440238
-0.17234
0.0438394
-0.178376
0.043753
-0.184929
0.0438047
-0.191972
0.0439537
-0.19942
0.0442217
-0.207197
-0.00202971
-0.00621559
0.0082453
-0.00667768
-0.016132
0.02078
-0.0131543
-0.0221682
0.0286449
-0.0208156
-0.0267512
0.0344124
-0.0292007
-0.0321247
0.0405098
-0.0378925
-0.0388416
0.0475335
-0.0463207
-0.0465406
0.0549688
-0.0536956
-0.0546345
0.0620094
-0.0590467
-0.062345
0.067696
-0.0612934
-0.0686972
0.0709439
-0.0594033
-0.0725613
0.0706712
-0.0526044
-0.0726411
0.0658423
-0.0406076
-0.0674187
0.0554219
-0.0234186
-0.0554659
0.0382769
-0.0366659
-0.00148596
0.0147332
-0.00293335
-0.00328224
-0.00883546
-0.0102299
-0.0164816
-0.0145221
-0.0253784
-0.0178544
-0.0353492
-0.0221539
-0.0462081
-0.0279828
-0.0575864
-0.0351624
-0.0688973
-0.0433236
-0.0793484
-0.0518939
-0.0879625
-0.0600831
-0.0935639
-0.0669598
-0.0948838
-0.0713212
-0.0909071
-0.0713954
-0.0811318
-0.0652412
-0.0542546
-0.0635431
-0.00311244
-0.000169799
-0.00914069
-0.00420164
-0.0166403
-0.00702246
-0.0251303
-0.00936439
-0.0344961
-0.0127881
-0.0445796
-0.0178992
-0.055072
-0.02467
-0.0655626
-0.032833
-0.0755841
-0.0418724
-0.0846273
-0.0510399
-0.0921514
-0.0594357
-0.096938
-0.0665346
-0.0973951
-0.0709383
-0.0941941
-0.0684422
-0.0665472
-0.0819015
-0.00269854
0.00252874
-0.00794049
0.00104031
-0.0143024
-0.000660525
-0.02118
-0.00248683
-0.0283289
-0.00563918
-0.0354186
-0.0108096
-0.0419381
-0.0181505
-0.0473218
-0.0274493
-0.0511631
-0.0380311
-0.0533036
-0.0488994
-0.0535377
-0.0592017
-0.0525722
-0.0675001
-0.0489222
-0.0745883
-0.0438485
-0.0735159
-0.0768711
-0.0335246
-0.00179515
0.0043239
-0.00561698
0.00486214
-0.0100221
0.00374457
-0.0142076
0.00169866
-0.0177168
-0.00212991
-0.0199455
-0.0085809
-0.0202009
-0.0178951
-0.0177421
-0.0299081
-0.0121113
-0.0436619
-0.00324176
-0.0577689
0.00775844
-0.0702019
0.0219632
-0.0817048
0.0369618
-0.0895869
0.0550082
-0.0915623
-0.0980571
0.0761942
-0.000686907
0.0050108
-0.00255588
0.00673111
-0.00437878
0.00556748
-0.00514304
0.00246291
-0.00393385
-0.00333909
0.000150601
-0.0126653
0.00810113
-0.0258456
0.020147
-0.041954
0.0361498
-0.0596647
0.0554328
-0.0770518
0.0774122
-0.0921814
0.100834
-0.105127
0.125136
-0.113889
0.15164
-0.118066
-0.125744
0.179327
0.000282617
0.00472819
0.000359228
0.0066545
0.00122856
0.00469814
0.00426204
-0.000570566
0.01084
-0.0099171
0.0220786
-0.0239039
0.0383105
-0.0420776
0.0590826
-0.0627261
0.0831425
-0.0837245
0.108638
-0.102547
0.134665
-0.118209
0.159567
-0.130029
0.183081
-0.137403
0.207628
-0.142613
-0.145772
0.227656
0.000823996
0.0024439
0.00591276
0.0130468
0.0254952
0.0439386
0.0673779
0.0936615
0.120084
0.144641
0.16615
0.183715
0.199043
0.212431
0.223819
0.0564157
0.0157435
-0.0736452
0.110845
0.182859
-0.237288
0.152985
0.289563
-0.331704
0.140839
0.348162
-0.336016
0.116903
0.405584
-0.381647
0.149751
0.297745
-0.330593
0.199291
0.00135284
-0.0508935
0.242233
-0.203134
0.160192
0.260498
-0.321989
0.303725
0.253245
-0.293784
0.301036
0.227783
-0.351078
0.37654
0.223668
-0.387375
0.391491
0.24191
-0.219507
0.201265
0.267019
-0.086089
0.0609795
0.275165
0.225942
-0.234087
0.284445
0.363246
-0.372526
0.293588
0.469334
-0.478476
0.291212
0.453411
-0.451035
0.291477
0.0574149
-0.0576796
0.30304
-0.188174
0.17661
0.303752
-0.551429
0.550718
0.308027
-0.622168
0.617893
0.302736
-0.0669247
0.0722152
0.315638
0.23929
-0.252193
0.33486
0.668034
-0.687256
0.333661
0.701495
-0.700296
0.300561
-0.435409
0.468509
0.303093
-0.930296
0.927763
0.299263
0.126913
-0.123082
0.284992
0.585424
-0.571153
0.273706
0.0453758
-0.0340902
0.270896
-0.190227
0.193038
0.268171
-0.0215617
0.0242867
0.262983
0.0436876
-0.0384998
0.259262
0.0140323
-0.0103106
0.257203
-0.000740195
0.00279832
0.254454
-0.00191394
0.0046631
0.00162554
0.0010081
-0.000658824
-0.0471408
0.0797522
0.102448
0.126468
0.242847
0.119777
0.354852
0.129593
0.395768
0.183973
0.243365
0.226816
-0.0414905
0.253263
-0.22958
0.261028
-0.329755
0.252287
-0.285042
0.225635
-0.324426
0.225234
-0.386975
0.242003
-0.236275
0.262667
-0.106753
0.275662
0.212947
0.285011
0.353896
0.295144
0.459201
0.294085
0.454471
0.290776
0.060724
0.299
-0.196398
0.293662
-0.546092
0.29876
-0.627266
0.299145
-0.0673097
0.313837
0.224598
0.339417
0.642454
0.338952
0.701961
0.296841
-0.393299
0.294914
-0.928368
0.298854
0.122972
0.289359
0.594918
0.276436
0.0582991
0.272198
-0.185989
0.269244
-0.0186085
0.264335
0.0485966
0.261007
0.0173608
0.25891
0.00135633
0.256052
0.000943937
0.00421528
-0.0355353
-0.093507
0.0446008
0.0223124
0.0964495
0.190998
0.116626
0.334676
0.158423
0.353971
0.218563
0.183225
0.251643
-0.0745702
0.259206
-0.237144
0.255427
-0.325975
0.246546
-0.276162
0.216633
-0.294513
0.219578
-0.389919
0.240563
-0.257261
0.257224
-0.123414
0.274761
0.19541
0.28416
0.344497
0.295033
0.448327
0.294808
0.454696
0.287735
0.0677976
0.291121
-0.199784
0.279187
-0.534157
0.284964
-0.633043
0.292397
-0.0747428
0.3083
0.208695
0.338679
0.612075
0.339176
0.701464
0.291146
-0.345269
0.283539
-0.920761
0.296025
0.110486
0.291324
0.599619
0.277308
0.0723157
0.271795
-0.180476
0.268824
-0.0156377
0.264391
0.0530301
0.26168
0.0200714
0.259743
0.00329369
0.256938
0.00374898
0.00659677
-0.0266209
-0.100411
0.031664
-0.0359725
0.0960179
0.126644
0.14357
0.287124
0.197984
0.299557
0.25024
0.13097
0.272342
-0.0966726
0.26429
-0.229091
0.249342
-0.311027
0.243747
-0.270566
0.208712
-0.259479
0.205849
-0.387056
0.236077
-0.28749
0.253739
-0.141076
0.271061
0.178089
0.276361
0.339197
0.287695
0.436993
0.290194
0.452196
0.281633
0.0763586
0.279965
-0.198116
0.262176
-0.516369
0.268112
-0.638979
0.282413
-0.0890434
0.298637
0.192471
0.332011
0.578701
0.334194
0.699282
0.283859
-0.294933
0.269919
-0.906821
0.29017
0.0902356
0.290199
0.599589
0.276047
0.0864673
0.269652
-0.174081
0.26691
-0.0128958
0.26317
0.0567704
0.261287
0.0219544
0.259696
0.00488434
0.257109
0.00633616
0.00860189
0.0478775
-0.0720939
0.0604769
-0.048572
0.120811
0.0663105
0.185624
0.22231
0.241166
0.244015
0.278584
0.0935515
0.288109
-0.106197
0.267695
-0.208678
0.240107
-0.28344
0.237258
-0.267717
0.203951
-0.226172
0.187342
-0.370446
0.222738
-0.322885
0.246563
-0.164901
0.266966
0.157686
0.270493
0.335669
0.280894
0.426593
0.284125
0.448966
0.273489
0.0869939
0.266345
-0.190972
0.242837
-0.49286
0.247853
-0.643995
0.269245
-0.110435
0.286797
0.174919
0.322491
0.543007
0.325876
0.695896
0.272751
-0.241808
0.254813
-0.888883
0.282231
0.062817
0.286954
0.594867
0.272946
0.100475
0.265968
-0.167102
0.263644
-0.0105719
0.260767
0.059647
0.259883
0.0228384
0.258803
0.00596434
0.256602
0.00853663
0.0100606
0.150779
-0.043546
0.132347
-0.0301398
0.163114
0.0355434
0.218864
0.16656
0.27295
0.189929
0.298403
0.0680982
0.292256
-0.10005
0.263982
-0.180403
0.226671
-0.246129
0.222678
-0.263724
0.198855
-0.20235
0.168526
-0.340117
0.198703
-0.353062
0.23286
-0.199059
0.257449
0.133098
0.258907
0.334211
0.26811
0.417389
0.273193
0.443883
0.263424
0.096763
0.251421
-0.178968
0.222572
-0.464011
0.225899
-0.647322
0.252531
-0.137068
0.271408
0.156043
0.308247
0.506168
0.313313
0.69083
0.259958
-0.188453
0.23926
-0.868185
0.271529
0.0305479
0.280676
0.58572
0.267645
0.113506
0.260757
-0.160214
0.259107
-0.00892228
0.257274
0.0614802
0.257534
0.0225782
0.257117
0.00638197
0.255482
0.0101717
0.0108013
0.213837
-0.0297268
0.203018
-0.0193209
0.217386
0.0211754
0.25803
0.125916
0.302506
0.145454
0.311663
0.0589416
0.288462
-0.0768495
0.254251
-0.146192
0.212877
-0.204755
0.203251
-0.254098
0.188825
-0.187924
0.151648
-0.30294
0.167123
-0.368536
0.211913
-0.243849
0.247847
0.0971633
0.250715
0.331343
0.258868
0.409236
0.26302
0.439731
0.251751
0.108032
0.235849
-0.163066
0.201687
-0.42985
0.2026
-0.648235
0.233497
-0.167964
0.255451
0.134088
0.295247
0.466373
0.300987
0.68509
0.247442
-0.134908
0.224061
-0.844804
0.259897
-0.00528875
0.273167
0.572451
0.260922
0.12575
0.254419
-0.153711
0.253561
-0.00806383
0.252858
0.0621824
0.254346
0.0210912
0.254723
0.0060042
0.25384
0.0110552
0.0106558
0.218138
-0.0240452
0.214122
-0.0153053
0.227023
0.00827462
0.266704
0.0862346
0.305186
0.106972
0.307551
0.0565759
0.276796
-0.0460941
0.24265
-0.112046
0.201341
-0.163446
0.185903
-0.23866
0.175041
-0.177062
0.137201
-0.2651
0.134742
-0.366078
0.178946
-0.288053
0.226259
0.0498505
0.235223
0.322379
0.243877
0.400582
0.247756
0.435851
0.24004
0.115748
0.22003
-0.143056
0.181611
-0.391431
0.178769
-0.645392
0.211346
-0.200542
0.235107
0.110327
0.276522
0.424958
0.283092
0.67852
0.234828
-0.0866441
0.209211
-0.819187
0.246063
-0.0421415
0.262795
0.555719
0.252535
0.136011
0.247049
-0.148224
0.247112
-0.00812758
0.24765
0.0616451
0.250416
0.0183245
0.251724
0.00469679
0.251787
0.0109921
0.00946244
0.418023
-0.0100928
-0.431976
0.404319
-0.00160103
0.403506
0.00908715
0.433347
0.0563944
0.484863
0.055456
0.513222
0.0282172
0.505882
-0.0387546
0.491297
-0.0974617
0.462982
-0.13513
0.431031
-0.20671
0.414737
-0.160768
0.381963
-0.232326
0.348873
-0.332988
0.329828
-0.269008
0.308142
0.0715369
0.271106
0.359414
0.286906
0.384783
0.345941
0.376816
0.408452
0.0532371
0.433082
-0.167686
0.406779
-0.365128
0.359714
-0.598327
0.337284
-0.178112
0.326363
0.121249
0.359902
0.391419
0.415412
0.62301
0.427173
-0.098405
0.367765
-0.759779
0.358868
-0.033244
0.380326
0.53426
0.38949
0.126847
0.383318
-0.142052
0.375102
8.86853e-05
0.372792
0.0639544
0.375105
0.0160119
0.373539
0.00626254
0.369948
0.0145828
0.0114435
0.462523
-0.000922169
-0.471693
0.455162
0.00576002
0.458739
0.00550949
0.482369
0.0327649
0.51174
0.0260852
0.53124
0.00871704
0.527103
-0.0346178
0.509542
-0.0799001
0.48557
-0.111159
0.451783
-0.172922
0.423044
-0.132029
0.400921
-0.210203
0.362802
-0.294869
0.329935
-0.236141
0.29809
0.103382
0.271354
0.38615
0.314733
0.341404
0.395398
0.296152
0.460233
-0.0115974
0.470977
-0.17843
0.425272
-0.319424
0.371974
-0.545029
0.336668
-0.142806
0.324191
0.133727
0.372864
0.342745
0.451823
0.544051
0.460581
-0.107163
0.390439
-0.689637
0.375381
-0.0181854
0.404208
0.505433
0.418793
0.112261
0.41256
-0.135819
0.403516
0.00913305
0.402195
0.0652755
0.405674
0.0125323
0.404194
0.00774299
0.40072
0.0180564
0.0132738
0.510298
0.00364029
-0.514861
0.506933
0.0091258
0.508761
0.00368113
0.524562
0.0169639
0.542523
0.0081242
0.553357
-0.00211652
0.554241
-0.0355023
0.541777
-0.0674362
0.520016
-0.0893974
0.495644
-0.14855
0.476604
-0.112989
0.448038
-0.181637
0.377618
-0.224449
0.316883
-0.175406
0.283221
0.137044
0.291704
0.377667
0.37123
0.261877
0.460738
0.206644
0.513645
-0.0645039
0.513991
-0.178776
0.459526
-0.264959
0.38376
-0.469262
0.329151
-0.088198
0.31526
0.147618
0.38594
0.272064
0.494678
0.435313
0.501465
-0.11395
0.411722
-0.599894
0.393008
0.000528457
0.430417
0.468024
0.449574
0.0931048
0.44232
-0.128565
0.43299
0.0184633
0.433207
0.0650583
0.437681
0.00805841
0.436413
0.00901103
0.433493
0.0209762
0.0146714
0.556484
0.00631167
-0.559156
0.556456
0.0091543
0.558559
0.0015775
0.566473
0.00904985
0.578329
-0.00373152
0.584285
-0.00807233
0.580849
-0.0320667
0.570698
-0.0572849
0.551565
-0.0702638
0.521286
-0.118272
0.497074
-0.0887766
0.471072
-0.155635
0.401759
-0.155135
0.325173
-0.0988198
0.309586
0.15263
0.371752
0.315502
0.467743
0.165886
0.54309
0.131296
0.569442
-0.0908562
0.550801
-0.160135
0.493301
-0.207458
0.39108
-0.367042
0.315299
-0.0124166
0.314568
0.14835
0.40221
0.184422
0.533075
0.304448
0.537833
-0.118708
0.424784
-0.486845
0.398842
0.0264704
0.455979
0.410887
0.482109
0.0669743
0.471681
-0.118136
0.462314
0.0278299
0.46509
0.0622826
0.470787
0.00236062
0.470105
0.00969321
0.46847
0.0226117
0.0151537
0.605118
0.00650819
-0.605315
0.605847
0.00842569
0.607543
-0.000119124
0.612317
0.00427662
0.617589
-0.0090034
0.620305
-0.0107889
0.618059
-0.0298209
0.608268
-0.0474937
0.593329
-0.0553246
0.572426
-0.0973696
0.546549
-0.0628996
0.506767
-0.115853
0.448058
-0.0964252
0.395999
-0.0467614
0.411041
0.137588
0.500964
0.225578
0.574938
0.0919121
0.619454
0.0867813
0.62295
-0.0943523
0.594451
-0.131636
0.54205
-0.155058
0.425145
-0.250137
0.35016
0.0625683
0.360683
0.137827
0.440058
0.105047
0.576629
0.167877
0.579016
-0.121095
0.438798
-0.346627
0.409291
0.0559769
0.493686
0.326492
0.523179
0.0374813
0.503729
-0.0986862
0.493738
0.0378207
0.500781
0.05524
0.507483
-0.00434089
0.507062
0.0101133
0.507148
0.0225258
0.0143151
0.655801
0.0057788
-0.655072
0.657025
0.00720124
0.658141
-0.00123494
0.660666
0.00175154
0.662529
-0.0108659
0.662994
-0.0112545
0.658867
-0.0256933
0.649628
-0.0382545
0.63528
-0.0409767
0.611636
-0.0737258
0.594306
-0.0455693
0.565201
-0.0867489
0.522538
-0.0537621
0.495778
-0.0200006
0.531437
0.101929
0.616304
0.140711
0.658116
0.0501002
0.677448
0.0674487
0.662009
-0.0789135
0.622743
-0.0923696
0.584759
-0.117074
0.486976
-0.152353
0.446501
0.103043
0.476026
0.108302
0.519019
0.0620541
0.627279
0.0596169
0.621516
-0.115332
0.470139
-0.19525
0.44947
0.0766456
0.552246
0.223717
0.57594
0.0137875
0.545438
-0.0681848
0.536345
0.0469143
0.548177
0.043408
0.553925
-0.0100894
0.552487
0.011552
0.553961
0.0210517
0.0123924
0.709736
0.00470602
-0.708663
0.710944
0.00599246
0.711405
-0.00169536
0.71277
0.000386144
0.712134
-0.0102301
0.71117
-0.0102905
0.706305
-0.0208279
0.698074
-0.0300235
0.687518
-0.0304211
0.668694
-0.054902
0.654272
-0.0311467
0.628109
-0.0605861
0.599619
-0.0252725
0.594503
-0.014884
0.630121
0.0663113
0.686704
0.0841277
0.709837
0.0269674
0.725791
0.0514948
0.713276
-0.0663986
0.669876
-0.0489692
0.639099
-0.0862971
0.572807
-0.0860609
0.571933
0.103916
0.620239
0.0599964
0.630084
0.0522086
0.685514
0.00418685
0.674505
-0.104323
0.547776
-0.0685208
0.540591
0.0838306
0.632493
0.131815
0.644522
0.00175842
0.609955
-0.0336182
0.603373
0.0534966
0.616083
0.0306976
0.617885
-0.0118915
0.614384
0.0150535
0.615823
0.0196126
0.0107334
0.767859
0.0037911
-0.766944
0.768983
0.00486891
0.768793
-0.00150534
0.769366
-0.000187734
0.767566
-0.0084295
0.76602
-0.00874445
0.761224
-0.0160326
0.753924
-0.0227234
0.744929
-0.0214255
0.729154
-0.0391273
0.717855
-0.0198478
0.700454
-0.0431849
0.68519
-0.010009
0.683158
-0.0128513
0.709529
0.0399401
0.745848
0.0478086
0.759641
0.0131741
0.769038
0.0420982
0.757517
-0.054878
0.728365
-0.019817
0.706101
-0.0640327
0.668673
-0.0486333
0.686676
0.0859129
0.726811
0.0198616
0.723543
0.0554766
0.742802
-0.0150725
0.726456
-0.0879761
0.647034
0.0109012
0.65787
0.0729944
0.71981
0.069874
0.718664
0.00290454
0.690742
-0.00569559
0.689614
0.0546241
0.699109
0.0212028
0.696327
-0.00910925
0.692008
0.0193724
0.692795
0.0188253
0.0102969
0.831199
0.00317381
-0.830582
0.832072
0.00399558
0.831523
-0.000955673
0.831622
-0.000287565
0.829356
-0.00616265
0.827578
-0.00696689
0.822803
-0.0112576
0.816906
-0.0168265
0.809658
-0.014177
0.798305
-0.0277742
0.7904
-0.0119432
0.77759
-0.0303748
0.770129
-0.0025478
0.768426
-0.0111485
0.786392
0.0219738
0.806177
0.0280241
0.816771
0.00257961
0.826715
0.0321549
0.816002
-0.0441659
0.797614
-0.00142854
0.777544
-0.0439623
0.757582
-0.0286721
0.77954
0.0639553
0.804297
-0.00489552
0.806167
0.0536071
0.806878
-0.0157841
0.782445
-0.0635428
0.748717
0.0446293
0.772794
0.0489174
0.804043
0.0386247
0.794512
0.0124354
0.77871
0.0101069
0.783571
0.0497627
0.788447
0.0163273
0.782828
-0.00349079
0.779782
0.0224185
0.780165
0.018442
0.011095
0.900552
0.00284059
-0.900219
0.901239
0.00330825
0.900506
-0.000222616
0.900337
-0.000118654
0.898098
-0.00392365
0.89628
-0.00514875
0.892341
-0.00731815
0.887527
-0.012013
0.882232
-0.00888179
0.873651
-0.0191934
0.868448
-0.00673998
0.858871
-0.0207978
0.856618
-0.000294984
0.853976
-0.00850623
0.865438
0.0105116
0.877361
0.0161016
0.882838
-0.00289779
0.8911
0.0238925
0.879658
-0.0327235
0.872845
0.00538425
0.857778
-0.0288946
0.846251
-0.0171451
0.865262
0.044944
0.873909
-0.0135428
0.880357
0.0471594
0.876803
-0.0122304
0.855129
-0.041869
0.849451
0.0503077
0.868376
0.0299921
0.880036
0.0269643
0.873206
0.0192656
0.86795
0.0153637
0.875415
0.0422974
0.876207
0.0155349
0.870288
0.00242859
0.870068
0.0226385
0.870627
0.0178824
0.0124578
0.976927
0.00267706
-0.976764
0.977402
0.00283364
0.976666
0.000512765
0.976326
0.000221472
0.974448
-0.00204588
0.972744
-0.00344464
0.969718
-0.00429202
0.965812
-0.00810679
0.96217
-0.00523927
0.955622
-0.0126457
0.952797
-0.00391484
0.945518
-0.0135196
0.945388
-0.000164802
0.942757
-0.00587512
0.94939
0.00387829
0.956184
0.00930825
0.958135
-0.00484944
0.965951
0.0160764
0.95565
-0.022422
0.954521
0.00651349
0.94289
-0.0172637
0.935445
-0.00970031
0.950481
0.0299082
0.949917
-0.0129787
0.961455
0.0356216
0.955283
-0.0060593
0.936399
-0.0229848
0.944324
0.0423834
0.955187
0.0191286
0.959629
0.0225222
0.957169
0.0217262
0.955712
0.0168201
0.963766
0.0342436
0.963147
0.0161536
0.958254
0.00732188
0.960196
0.0206969
0.961058
0.01702
0.0137544
1.06096
0.0026068
-1.06089
1.06126
0.00252806
1.06065
0.00111921
1.06023
0.000649647
1.05884
-0.000662847
1.05729
-0.00188922
1.05522
-0.00222873
1.05203
-0.0049162
1.04979
-0.00299474
1.04484
-0.00770107
1.04335
-0.00242036
1.03799
-0.00816203
1.03842
-0.000591962
1.03625
-0.00370969
1.03939
0.000745398
1.04379
0.00490303
1.04322
-0.00428027
1.04961
0.00969001
1.04077
-0.0135772
1.04228
0.00499695
1.0342
-0.00918079
1.02963
-0.00512804
1.04072
0.0188175
1.03584
-0.00810539
1.0469
0.0245647
1.04124
-0.000399458
1.02851
-0.0102506
1.03994
0.0309471
1.04367
0.0154055
1.04677
0.0194217
1.04735
0.021146
1.04672
0.0174498
1.05432
0.0266363
1.0536
0.0168795
1.04995
0.0109713
1.05272
0.017927
1.05363
0.0161082
0.0147729
1.15334
0.0025327
-1.15327
1.15355
0.00232623
1.15313
0.00153083
1.15274
0.00104673
1.1518
0.00027629
1.15053
-0.000623218
1.14918
-0.00087633
1.14675
-0.00248956
1.14536
-0.00160414
1.14177
-0.00410929
1.14095
-0.00159418
1.13717
-0.00439122
1.13744
-0.00085504
1.13582
-0.00209149
1.13694
-0.000374684
1.13951
0.00233719
1.13798
-0.00275437
1.14262
0.00504597
1.13605
-0.00699917
1.13819
0.00285015
1.13285
-0.00383962
1.12983
-0.00210596
1.13728
0.0113686
1.13198
-0.00280963
1.14143
0.0151179
1.13713
0.00390379
1.12882
-0.00194994
1.13844
0.0213368
1.13959
0.014253
1.14328
0.0157344
1.1446
0.0198177
1.14411
0.017941
1.15065
0.0201
1.15025
0.017282
1.14798
0.0132388
1.15073
0.015177
1.15149
0.0153513
0.0154395
1.25491
0.00243562
-1.25482
1.25507
0.00217167
1.25483
0.00176944
1.25453
0.0013458
1.25392
0.000887641
1.25299
0.000310596
1.25213
-2.04874e-05
1.25041
-0.000767422
1.24953
-0.000720862
1.24707
-0.00165497
1.24651
-0.001032
1.24397
-0.00185346
1.24395
-0.000829565
1.24272
-0.000867265
1.24285
-0.000499559
1.2442
0.000984123
1.24259
-0.00114991
1.24555
0.00208709
1.24105
-0.00249565
1.24277
0.00113014
1.23937
-0.000443012
1.23764
-0.000370226
1.24226
0.00674329
1.23809
0.00136464
1.24458
0.00863144
1.24175
0.00672644
1.23778
0.00202123
1.24447
0.0146468
1.2446
0.0141234
1.24832
0.0120159
1.25002
0.0181214
1.25017
0.0177873
1.25527
0.0149956
1.25518
0.0173803
1.25421
0.0142064
1.25666
0.0127235
1.25728
0.0147356
0.01569
1.36642
0.00230258
-1.36629
1.36658
0.00201807
1.36648
0.00186997
1.36631
0.00151028
1.36595
0.00124873
1.36535
0.000912419
1.3648
0.000534861
1.36369
0.000339474
1.3631
-0.000135561
1.36153
-7.86792e-05
1.36109
-0.000596003
1.35943
-0.000194198
1.35924
-0.000639443
1.35829
8.28412e-05
1.35805
-0.000254433
1.35855
0.000477238
1.35725
0.000157023
1.3589
0.000436232
1.35598
0.000418369
1.35719
-8.0091e-05
1.35511
0.0016407
1.35415
0.000590895
1.35681
0.00408569
1.35405
0.00411917
1.35842
0.00426267
1.35684
0.00831096
1.35523
0.00362706
1.35952
0.0103518
1.35977
0.0138817
1.3632
0.00857786
1.36481
0.0165137
1.36565
0.0169504
1.36956
0.0110818
1.36988
0.01706
1.36986
0.0142247
1.37188
0.0107063
1.37254
0.0140782
0.0154979
1.48874
0.00212679
-1.48857
1.48892
0.00184668
1.48893
0.00185877
1.48889
0.00155031
1.48871
0.00142502
1.48839
0.00123265
1.48806
0.000864428
1.48742
0.000980152
1.48703
0.000258889
1.4861
0.000850933
1.48574
-0.000242828
1.48473
0.000819987
1.48447
-0.000382979
1.48378
0.000776978
1.48345
7.80653e-05
1.48348
0.000439957
1.48258
0.00105606
1.48331
-0.000293116
1.48159
0.00213953
1.48223
-0.000718617
1.481
0.00286733
1.48057
0.00102382
1.48199
0.0026684
1.48057
0.00553493
1.48322
0.00161794
1.48251
0.0090137
1.48245
0.00369168
1.48523
0.00757024
1.48568
0.013434
1.48844
0.00581793
1.48998
0.0149687
1.49145
0.0154874
1.49458
0.007952
1.49533
0.0163109
1.49592
0.0136342
1.49749
0.00912807
1.4983
0.0132696
0.014794
1.62283
0.00191128
-1.62262
1.62302
0.00165572
1.62313
0.00175438
1.62319
0.00149046
1.62315
0.00145733
1.62305
0.00133947
1.62289
0.00102597
1.62259
0.00127061
1.62235
0.000506625
1.62189
0.00130994
1.62162
2.79992e-05
1.62107
0.00136355
1.62082
-0.000133946
1.62037
0.0012289
1.6201
0.000355564
1.61993
0.000605994
1.61941
0.00157815
1.61955
-0.000436431
1.61868
0.00301118
1.61884
-0.000883856
1.61825
0.00345995
1.61808
0.00119299
1.61878
0.00196924
1.6184
0.00591188
1.61988
0.00014065
1.62009
0.00880051
1.6206
0.0031881
1.62236
0.00580577
1.62337
0.0124282
1.62526
0.00393131
1.62674
0.0134832
1.62864
0.0135872
1.63114
0.00545174
1.63257
0.0148848
1.63353
0.0126666
1.63459
0.00807358
1.63566
0.0121948
0.0135949
1.76971
0.00165782
-1.76946
1.76991
0.00145284
1.7701
0.00157118
1.77023
0.00136083
1.77031
0.00137249
1.77036
0.00129051
1.77033
0.00105265
1.77031
0.00129768
1.77018
0.000638363
1.77008
0.00140206
1.76988
0.000234118
1.76973
0.00150844
1.76951
8.82371e-05
1.76933
0.00140525
1.76914
0.000546866
1.76894
0.000809539
1.76876
0.00176002
1.76851
-0.000194047
1.7683
0.00322866
1.76804
-0.000631001
1.76793
0.00357393
1.76788
0.00123891
1.76817
0.00168731
1.76867
0.00540418
1.76928
-0.000466116
1.77034
0.00773998
1.77106
0.00246485
1.77221
0.00466109
1.77377
0.0108632
1.77458
0.00312261
1.77609
0.0119781
1.77838
0.011291
1.78037
0.00346652
1.7826
0.0126578
1.7838
0.0114595
1.78428
0.00759288
1.78567
0.0108061
0.0118479
1.93067
0.00135932
-1.93037
1.93088
0.00124468
1.93113
0.00131673
1.9313
0.00119204
1.93147
0.00119848
1.93162
0.00114423
1.93167
0.000998357
1.93183
0.00114051
1.93174
0.000733868
1.93193
0.00120379
1.9317
0.000471915
1.93192
0.001288
1.93163
0.00037573
1.93177
0.0012615
1.93163
0.000691581
1.93149
0.000944441
1.9317
0.00155621
1.93114
0.000366922
1.93171
0.00265365
1.93094
0.000136309
1.93154
0.00297491
1.93144
0.00133985
1.93147
0.0016618
1.93287
0.00400537
1.93231
9.48805e-05
1.93447
0.00557044
1.93476
0.0021748
1.93543
0.00399591
1.93803
0.00826537
1.93747
0.00368153
1.93983
0.0096181
1.94252
0.00860185
1.94304
0.00294129
1.94627
0.00943454
1.94796
0.00976696
1.94783
0.00772488
1.94969
0.00894621
0.00953649
2.10698
0.00103454
-2.10666
2.10723
0.000991256
2.10752
0.00102736
2.10775
0.000970216
2.10796
0.00098001
2.10817
0.000940769
2.10828
0.000891195
2.10849
0.000924058
2.10845
0.000770861
2.10872
0.000939772
2.10854
0.000647142
2.10885
0.000980245
2.10864
0.000591688
2.10889
0.00100415
2.10887
0.000718857
2.10887
0.000935883
2.10931
0.00111874
2.10891
0.000772446
2.10987
0.00169295
2.10927
0.000734033
2.11024
0.00200156
2.1103
0.00128189
2.11034
0.00161928
2.11184
0.00250854
2.11087
0.00106635
2.11296
0.00347925
2.11297
0.00216248
2.11356
0.00340927
2.11648
0.00533852
2.11623
0.0039326
2.11932
0.006533
2.12189
0.00602608
2.12133
0.00351035
2.12422
0.00653676
2.12666
0.00732673
2.12744
0.00694835
2.12949
0.00689831
0.00722265
2.29977
0.000705458
-2.29944
2.30008
0.000683719
2.30039
0.000718052
2.30068
0.00068343
2.30094
0.000711257
2.30121
0.000677287
2.30142
0.000683233
2.30166
0.000676111
2.3018
0.000636729
2.30205
0.000691506
2.30211
0.000580175
2.30237
0.000722508
2.30242
0.000542204
2.30267
0.000755276
2.30281
0.000575009
2.303
0.000752643
2.30338
0.000733991
2.30344
0.000708659
2.30413
0.00101061
2.30416
0.000703623
2.3049
0.0012564
2.30524
0.000948227
2.30557
0.00128015
2.30653
0.00155627
2.30639
0.00120563
2.30765
0.00222101
2.30807
0.00173798
2.30898
0.00250134
2.31112
0.00319997
2.31216
0.00288955
2.31471
0.00398332
2.31682
0.00391695
2.31716
0.00316965
2.31921
0.00448789
2.32179
0.00474582
2.32387
0.00487225
2.32592
0.00484476
0.00507917
2.51078
0.000361624
-2.51043
2.51111
0.000355296
2.51145
0.000372847
2.51178
0.00035908
2.51211
0.000376867
2.51243
0.000359139
2.51274
0.000373017
2.51305
0.000359778
2.51333
0.000361949
2.51365
0.00036669
2.51389
0.000344719
2.51423
0.000381855
2.51444
0.000328773
2.51479
0.000404691
2.51504
0.000331734
2.51537
0.000423741
2.51572
0.000376153
2.516
0.000433709
2.51653
0.000478219
2.51679
0.00044829
2.51743
0.000609462
2.51785
0.000530783
2.51842
0.00070898
2.51923
0.000745916
2.51966
0.000777034
2.52082
0.00106035
2.52157
0.000992259
2.52273
0.00133842
2.52442
0.00150602
2.52571
0.00160237
2.52778
0.00191182
2.52974
0.00196091
2.53107
0.0018384
2.53329
0.00227301
2.53562
0.00241111
2.53789
0.00260426
2.5402
0.00253307
0.00265248
2.74206
-2.7417
2.74241
2.74279
2.74315
2.74352
2.74388
2.74425
2.74461
2.74498
2.74534
2.74569
2.74607
2.7464
2.7468
2.74714
2.74756
2.74793
2.74837
2.74885
2.7493
2.7499
2.75044
2.75114
2.75189
2.75267
2.75373
2.75472
2.75606
2.75756
2.75917
2.76108
2.76304
2.76488
2.76715
2.76956
2.77217
2.7747
0.422798
0.0384234
-0.416999
0.428
0.0672263
0.432986
0.095282
0.437164
0.12317
0.438703
0.150688
0.441796
0.174385
0.436723
0.202423
0.215289
0.453046
0.0335985
-0.448221
0.457422
0.0628499
0.461212
0.091492
0.465321
0.119061
0.467315
0.148695
0.470405
0.171295
0.472952
0.199876
0.216548
0.488271
0.0298216
-0.484494
0.491877
0.0592435
0.495408
0.0879606
0.499171
0.115298
0.503734
0.144133
0.507421
0.167608
0.513687
0.19361
0.215374
0.527175
0.0265951
-0.523949
0.530504
0.055915
0.534741
0.0837232
0.538804
0.111235
0.544711
0.138226
0.548915
0.163403
0.554686
0.187838
0.210904
0.571073
0.0237267
-0.568205
0.574385
0.0526028
0.578639
0.0794697
0.582696
0.107178
0.587993
0.132928
0.592738
0.158659
0.598959
0.181618
0.204548
0.6193
0.0211735
-0.616747
0.622483
0.0494193
0.626373
0.0755803
0.630597
0.102954
0.635863
0.127662
0.641567
0.152954
0.648218
0.174967
0.197694
0.672294
0.0189496
-0.67007
0.675353
0.0463598
0.679021
0.0719123
0.683467
0.0985077
0.688725
0.122404
0.694677
0.147002
0.701377
0.168268
0.190408
0.73035
0.0169931
-0.728394
0.733237
0.0434729
0.736747
0.0684026
0.741215
0.0940393
0.746463
0.117156
0.752536
0.14093
0.759348
0.161456
0.182812
0.79379
0.0152803
-0.792077
0.796507
0.0407561
0.8
0.0649096
0.804514
0.0895248
0.809748
0.111922
0.815917
0.134761
0.822772
0.154601
0.175002
0.863201
0.0137467
-0.861668
0.86582
0.0381371
0.869269
0.061461
0.873734
0.0850599
0.878924
0.106732
0.885226
0.12846
0.892186
0.14764
0.16697
0.939016
0.0124119
-0.937681
0.941481
0.0356719
0.944849
0.0580931
0.949369
0.0805396
0.954738
0.101363
0.961281
0.121916
0.968473