/*--------------------------------*- C++ -*----------------------------------*\
| =========                 |                                                 |
| \\      /  F ield         | OpenFOAM: The Open Source CFD Toolbox           |
|  \\    /   O peration     | Version:  2312                                  |
|   \\  /    A nd           | Website:  www.openfoam.com                      |
|    \\/     M anipulation  |                                                 |
\*---------------------------------------------------------------------------*/
FoamFile
{
    version     2.0;
    format      ascii;
    arch        "LSB;label=32;scalar=64";
    class       surfaceScalarField;
    location    "29";
    object      phi;
}
// * * * * * * * * * * * * * * * * * * * * * * * * * * * * * * * * * * * * * //

dimensions      [0 3 -1 0 0 0 0];

oriented        oriented;

internalField   nonuniform List<scalar> 
4490
(
-0.00098794
0.00871811
-0.00773017
0.00421618
0.0100807
-0.0152848
0.0235559
-0.00585719
-0.0134826
0.0621465
-0.0368222
-0.00176833
0.118204
-0.0759104
0.0198525
0.186068
-0.11709
0.0492264
0.263982
-0.15705
0.079136
0.333962
-0.193216
0.123236
0.407854
-0.22353
0.149638
-0.253177
0.205968
0.455063
-0.00062853
0.00934664
0.0142936
-0.00484146
0.0543658
-0.0459293
0.113397
-0.0958532
0.18005
-0.142564
0.244413
-0.181453
0.299008
-0.211645
0.339764
-0.233972
0.369191
-0.252957
-0.26742
0.383434
0.00401247
0.00533417
0.0371388
-0.0379678
0.0926694
-0.10146
0.150903
-0.154087
0.199079
-0.190739
0.232009
-0.214383
0.251457
-0.231094
0.2644
-0.246915
0.276577
-0.265134
-0.285891
0.295048
0.0139478
-0.00861364
0.0612216
-0.0852416
0.109888
-0.150127
0.144485
-0.188684
0.164066
-0.21032
0.175479
-0.225796
0.186587
-0.242202
0.201206
-0.261533
0.218418
-0.282346
-0.302476
0.235003
0.0255022
-0.0341158
0.0682827
-0.128022
0.0964616
-0.178306
0.110374
-0.202597
0.11854
-0.218486
0.126422
-0.233678
0.134278
-0.250057
0.140347
-0.267603
0.144259
-0.286259
0.147587
-0.305804
-0.00829154
0.0117863
-0.0034948
-0.0223154
0.0186526
-0.00462882
-0.0382221
0.0198203
-0.0039136
-0.0549506
0.0194396
-0.00271102
-0.0726125
0.019062
-0.00140008
-0.0910582
0.0182939
0.000151809
-0.111455
0.018276
0.00212071
-0.131325
0.0149866
0.00488336
-0.155004
0.0150266
0.00865238
0.00740601
-0.175933
0.013523
-0.00303888
0.0148252
-0.010168
0.0257818
-0.0190319
0.0286842
-0.0277835
0.0281912
-0.0362247
0.0275031
-0.0423671
0.0244364
-0.0501377
0.0260466
-0.0523805
0.0172294
-0.0563292
0.0189752
0.00428534
-0.0532085
0.0018681
0.0129571
0.00248929
0.0251606
0.00232376
0.0288497
0.00305586
0.0274591
0.00630181
0.0242572
0.0128769
0.0178613
0.023037
0.0158865
0.0435948
-0.00332834
0.0688205
-0.00625054
-0.0370424
0.110148
0.00361621
0.0093409
0.00882965
0.0199471
0.0149688
0.0227106
0.023071
0.0193569
0.0364364
0.0108918
0.0583462
-0.0040485
0.091297
-0.0170643
0.140957
-0.0529886
0.197859
-0.0631523
-0.116958
0.277775
0.00161074
0.00627307
0.0155011
0.0330896
0.0638339
0.109012
0.171084
0.241331
0.327817
0.416827
-0.191075
-0.00993071
0.0250724
-0.204949
-0.0158051
0.0296795
-0.215249
-0.0153859
0.0256855
-0.215556
-0.00767687
0.00798371
-0.205374
0.0171469
-0.0273281
-0.178676
0.0562377
-0.0829363
-0.132485
0.110453
-0.156644
-0.0681657
0.161445
-0.225764
0.0361195
0.135048
-0.239334
0.170168
-0.0225257
-0.111522
0.281139
-0.182654
0.0716831
0.345931
-0.267785
0.202993
0.375419
-0.264977
0.235488
0.38968
-0.243042
0.228781
0.403345
-0.192742
0.179076
0.414657
-0.161412
0.150099
0.42333
-0.121393
0.112721
0.429266
-0.112217
0.10628
0.431975
-0.0890014
0.0862924
0.430431
-0.0941152
0.0956588
0.425942
-0.0776966
0.0821863
0.421322
-0.0911446
0.0957644
0.418002
-0.0650623
0.068382
0.416372
-0.0707552
0.0723852
-0.0225121
0.0243063
-0.0673341
0.00419486
-0.0810463
-0.00209285
-0.0900147
-0.00641743
-0.0918958
-0.00579576
-0.0810808
0.00633192
-0.0501675
0.0253244
0.00339295
0.0568929
0.0804858
0.084352
0.182778
0.0327557
0.285016
-0.124763
0.34795
-0.245588
0.369183
-0.289019
0.368984
-0.264778
0.365893
-0.23995
0.372395
-0.199243
0.386307
-0.175324
0.402362
-0.137449
0.416167
-0.126022
0.42596
-0.0987936
0.430308
-0.0984637
0.42955
-0.0769385
0.425973
-0.0875672
0.421965
-0.0610549
0.419098
-0.0678878
-0.0204392
0.0953714
0.0189717
0.0839574
0.00932119
0.0760678
0.00147213
0.0754447
-0.0051726
0.0847097
-0.0029331
0.112444
-0.00240967
0.160696
0.00864071
0.225828
0.0192198
0.302217
-0.0436331
0.357491
-0.180038
0.371062
-0.259159
0.359857
-0.277814
0.349467
-0.254388
0.347316
-0.237799
0.351844
-0.203772
0.361529
-0.185009
0.373974
-0.149893
0.386709
-0.138757
0.398392
-0.110477
0.40804
-0.108111
0.414403
-0.0833018
0.417609
-0.0907727
0.418468
-0.0619135
0.418547
-0.0679676
-0.0204039
0.264363
0.0323834
0.25018
0.0235042
0.237608
0.0140443
0.233525
-0.00108967
0.237064
-0.00647229
0.25238
-0.017726
0.284462
-0.0234415
0.330802
-0.0271198
0.374792
-0.0876229
0.380465
-0.185711
0.359186
-0.237879
0.335761
-0.254389
0.326505
-0.245131
0.329781
-0.241075
0.339222
-0.213214
0.350868
-0.196655
0.36276
-0.161785
0.373914
-0.149912
0.384057
-0.12062
0.39351
-0.117564
0.40161
-0.0914021
0.408106
-0.0972681
0.412752
-0.0665596
0.416416
-0.0716319
-0.0235857
0.403376
0.0458338
0.388421
0.0384595
0.373949
0.028516
0.361127
0.0117325
0.354815
-0.000159896
0.354383
-0.0172936
0.362077
-0.0311365
0.381301
-0.0463435
0.388844
-0.0951661
0.364788
-0.161655
0.328572
-0.201663
0.306132
-0.231949
0.300447
-0.239446
0.304621
-0.245249
0.314909
-0.223501
0.328287
-0.210032
0.342862
-0.17636
0.35663
-0.16368
0.369093
-0.133082
0.380217
-0.128689
0.390093
-0.101278
0.398818
-0.105993
0.40654
-0.0742822
0.413714
-0.0788059
-0.0306786
0.478788
0.0546176
-0.487572
0.472933
0.044314
0.467429
0.0340205
0.460292
0.0188695
0.454329
0.00580312
0.450094
-0.0130582
0.449136
-0.0301785
0.455433
-0.0526409
0.45085
-0.0905827
0.430502
-0.141307
0.407763
-0.178924
0.389545
-0.213732
0.375426
-0.225327
0.364211
-0.234034
0.357751
-0.217041
0.355587
-0.207869
0.357518
-0.178291
0.361121
-0.167284
0.365438
-0.137399
0.369228
-0.132478
0.372269
-0.104319
0.37417
-0.107894
0.375234
-0.0753465
0.375711
-0.0792824
-0.03122
0.53917
0.0549086
-0.539461
0.537982
0.0455027
0.535942
0.0360602
0.531738
0.0230739
0.528244
0.00929666
0.52289
-0.00770368
0.51876
-0.0260489
0.516211
-0.0500916
0.505743
-0.0801151
0.487725
-0.123289
0.468432
-0.159632
0.449168
-0.194467
0.431324
-0.207483
0.417543
-0.220253
0.410226
-0.209724
0.408345
-0.205987
0.410531
-0.180478
0.414557
-0.171309
0.419367
-0.142209
0.423926
-0.137038
0.427662
-0.108055
0.430167
-0.110399
0.431646
-0.0768256
0.432407
-0.0800429
-0.0319334
0.603598
0.0526284
-0.601318
0.604137
0.0449639
0.603784
0.0364127
0.601887
0.0249713
0.59829
0.0128933
0.593465
-0.00287888
0.588283
-0.020867
0.582661
-0.0444696
0.573152
-0.0706063
0.558477
-0.108614
0.539762
-0.140916
0.519753
-0.174458
0.502343
-0.190073
0.489875
-0.207784
0.482892
-0.202741
0.480057
-0.203152
0.480593
-0.181014
0.48285
-0.173567
0.486328
-0.145686
0.490008
-0.140719
0.493421
-0.111467
0.495764
-0.112742
0.497244
-0.0783056
0.497987
-0.080786
-0.0327886
0.681499
0.0491668
-0.678038
0.68292
0.043543
0.682923
0.0364098
0.681277
0.0266176
0.678245
0.0159252
0.674633
0.000733198
0.669056
-0.0152901
0.66215
-0.037564
0.652192
-0.0606478
0.637628
-0.0940498
0.619683
-0.122971
0.601137
-0.155912
0.584891
-0.173828
0.572284
-0.195176
0.564253
-0.194711
0.560382
-0.199282
0.560168
-0.1808
0.561973
-0.175372
0.564918
-0.148631
0.567806
-0.143606
0.57037
-0.114031
0.572142
-0.114514
0.57337
-0.0795333
0.573986
-0.0814019
-0.033569
0.770742
0.0454255
-0.767001
0.772938
0.0413469
0.773493
0.0358553
0.77274
0.0273705
0.770591
0.018074
0.76678
0.00454479
0.761159
-0.0096698
0.753631
-0.0300359
0.743479
-0.0504959
0.730076
-0.0806466
0.713944
-0.106838
0.696886
-0.138855
0.680974
-0.157915
0.667148
-0.181351
0.656779
-0.184342
0.65058
-0.193082
0.648481
-0.178701
0.649147
-0.176038
0.651777
-0.151261
0.654741
-0.146571
0.65763
-0.11692
0.659447
-0.116331
0.660808
-0.080894
0.661385
-0.0819793
-0.0346649
0.873549
0.0414639
-0.869588
0.876355
0.0385412
0.87769
0.0345202
0.87767
0.0273908
0.875916
0.0198274
0.872413
0.00804796
0.866987
-0.00424377
0.859509
-0.0225575
0.849571
-0.0405578
0.837036
-0.068112
0.821793
-0.0915948
0.805098
-0.12216
0.78878
-0.141597
0.774628
-0.167198
0.76421
-0.173924
0.757862
-0.186734
0.755328
-0.176168
0.754835
-0.175544
0.756186
-0.152612
0.75805
-0.148435
0.760273
-0.119143
0.761794
-0.117852
0.763015
-0.0821153
0.763411
-0.0823746
-0.0352678
0.992216
0.037479
-0.988231
0.995259
0.0354983
0.996954
0.0328245
0.997142
0.0272037
0.995599
0.0213698
0.992579
0.0110678
0.987773
0.000562881
0.980945
-0.0157293
0.971872
-0.0314848
0.960123
-0.0563636
0.946042
-0.077513
0.93085
-0.106969
0.915978
-0.126726
0.902823
-0.154043
0.892142
-0.163243
0.884056
-0.178649
0.879438
-0.171549
0.877401
-0.173507
0.877674
-0.152886
0.878354
-0.149114
0.879451
-0.12024
0.879703
-0.118104
0.880285
-0.0826974
0.880154
-0.0822437
-0.0364837
1.1318
0.033703
-1.12802
1.13487
0.0324254
1.13685
0.030844
1.13761
0.0264433
1.13684
0.0221418
1.13432
0.0135881
1.12956
0.00532775
1.12315
-0.00932496
1.11449
-0.0228223
1.10382
-0.0456902
1.09102
-0.0647149
1.07708
-0.0930267
1.06253
-0.112176
1.04879
-0.140311
1.03729
-0.151743
1.02844
-0.169793
1.02295
-0.166057
1.01934
-0.169905
1.01804
-0.15158
1.01741
-0.148483
1.01785
-0.120688
1.01777
-0.118019
1.01805
-0.0829732
1.01748
-0.0816736
-0.0363799
1.29264
0.0304586
-1.28939
1.29535
0.0297147
1.29712
0.0290718
1.29786
0.0257069
1.29721
0.0227941
1.29529
0.0155004
1.2918
0.00882045
1.28661
-0.00413016
1.2792
-0.0154213
1.26982
-0.036302
1.25837
-0.0532684
1.24558
-0.0802321
1.23213
-0.098729
1.21925
-0.127428
1.20818
-0.140676
1.19865
-0.160265
1.19192
-0.15933
1.18679
-0.16477
1.18405
-0.148841
1.18144
-0.145876
1.17982
-0.119066
1.17735
-0.115547
1.17615
-0.0817709
1.17425
-0.0797777
-0.0371879
1.487
0.0270462
-1.48359
1.49
0.0267185
1.49225
0.0268216
1.49361
0.0243404
1.49372
0.0226915
1.49235
0.0168664
1.48901
0.0121572
1.48374
0.00114892
1.47656
-0.00824351
1.46766
-0.0274017
1.45678
-0.0423927
1.44462
-0.0680676
1.43167
-0.0857861
1.41854
-0.114298
1.40679
-0.128926
1.39631
-0.149784
1.38839
-0.151406
1.38127
-0.15765
1.37626
-0.143829
1.37156
-0.141183
1.36838
-0.115879
1.36469
-0.111856
1.36232
-0.0794075
1.35915
-0.0766096
-0.0354463
1.71216
0.0239994
-1.70912
1.71488
0.0240033
1.71689
0.0248046
1.71824
0.0229952
1.71847
0.0224601
1.71772
0.0176158
1.71545
0.0144292
1.71215
0.00445238
1.70654
-0.00263702
1.69882
-0.0196845
1.689
-0.0325687
1.67768
-0.0567489
1.66535
-0.0734599
1.65242
-0.101363
1.64066
-0.117168
1.62928
-0.138407
1.62025
-0.142369
1.61115
-0.14855
1.60403
-0.136714
1.59601
-0.133162
1.58944
-0.109306
1.58164
-0.104058
1.57653
-0.0743024
1.57083
-0.0709036
-0.0345651
1.98868
0.0199539
-1.98464
1.99252
0.0201622
1.99588
0.0214472
1.9986
0.020271
2.00032
0.0207462
2.00076
0.0171769
1.9994
0.0157826
1.99594
0.00791439
1.99002
0.00328192
1.98191
-0.0115762
1.97157
-0.0222293
1.95914
-0.0443112
1.94536
-0.0596809
1.93039
-0.0863901
1.91637
-0.10315
1.9025
-0.124538
1.89086
-0.130732
1.87873
-0.136415
1.86788
-0.125869
1.85604
-0.121322
1.84607
-0.0993362
1.83535
-0.0933303
1.82755
-0.0665083
1.8189
-0.0622486
-0.0296618
2.33969
0.0154401
-2.33517
2.34405
0.0157953
2.34802
0.0174857
2.35143
0.0168571
2.35397
0.0182097
2.3554
0.0157394
2.35519
0.015992
2.35317
0.00994181
2.34875
0.0077029
2.34094
-0.00376524
2.33009
-0.0113865
2.31549
-0.0297088
2.29933
-0.0435231
2.28027
-0.0673304
2.26232
-0.085199
2.24314
-0.105353
2.22627
-0.11387
2.20726
-0.117397
2.18959
-0.108205
2.16987
-0.101602
2.15201
-0.0814785
2.13298
-0.0742998
2.11917
-0.0526918
2.10518
-0.0482579
-0.0243497
2.73903
0.0085426
-2.73213
2.746
0.00882767
2.75314
0.0103441
2.75982
0.010177
2.76619
0.011837
2.77125
0.0106812
2.77507
0.0121704
2.77608
0.00893168
2.77446
0.00932649
2.76805
0.00264362
2.75746
-0.0007947
2.74028
-0.0125265
2.71887
-0.0221153
2.69102
-0.0394812
2.66273
-0.0569118
2.63326
-0.075885
2.60581
-0.0864136
2.57688
-0.0884696
2.55045
-0.0817718
2.522
-0.0731573
2.49584
-0.0553153
2.46972
-0.0481795
2.45119
-0.0341593
2.43332
-0.0303912
-0.0146026
3.43687
-3.42832
3.44569
3.45604
3.46622
3.47805
3.48873
3.5009
3.50984
3.51916
3.52181
3.52101
3.50848
3.48637
3.44689
3.38998
3.31409
3.22768
3.13921
3.05744
2.98428
2.92896
2.88078
2.84662
2.81623
0.412794
0.134925
-0.400131
0.428154
0.219642
0.435007
0.288195
0.463321
0.355121
0.430812
0.470136
0.125466
-0.460677
0.487578
0.2022
0.498146
0.277627
0.515061
0.338206
0.406412
0.537207
0.116171
-0.527912
0.551219
0.188188
0.566169
0.262677
0.580286
0.324089
0.38538
0.612913
0.106112
-0.602854
0.625452
0.175649
0.641571
0.246559
0.658121
0.307539
0.365464
0.700392
0.0962965
-0.690576
0.712953
0.163087
0.728781
0.230731
0.746611
0.289708
0.345074
0.801784
0.086889
-0.792377
0.814014
0.150857
0.829777
0.214968
0.848156
0.271329
0.323643
0.918746
0.0781517
-0.910008
0.930794
0.138809
0.946851
0.198911
0.965822
0.252358
0.301233
1.05542
0.0693239
-1.04659
1.06766
0.126571
1.08438
0.18219
1.10437
0.232368
0.277578
1.21265
0.0611905
-1.20452
1.22519
0.114036
1.24269
0.164687
1.26404
0.211022
0.252223
1.39937
0.0526205
-1.3908
1.41313
0.100278
1.43218
0.145642
1.4557
0.1875
0.224333
1.61718
0.0440451
-1.60861
1.63173
0.0857346
1.65222
0.125153
1.67818
0.16154
0.193393
1.87751
0.034665
-1.86813
1.89447
0.068778
1.91864
0.100984
1.94886
0.131317
0.15762
2.21208
0.0241404
-2.20155
2.23129
0.0495676
2.25875
0.0735253
2.29367
0.0963976
0.116113
2.58131
0.0121838
-2.56936
2.6042
0.0266782
2.6376
0.0401273
2.68061
0.0533894
0.0645859
3.24354
-3.23136
3.27022
3.31035
3.36374
0.179176
0.257649
-0.231477
-0.205348
0.149825
0.243926
-0.214575
0.121887
0.227999
-0.200061
0.0976756
0.213514
-0.189303
0.0760269
0.201984
-0.180335
0.0552085
0.192498
-0.171679
0.0353546
0.184077
-0.164223
0.0168374
0.178311
-0.159794
0.00230321
0.168266
-0.153732
0.112587
-0.110284
0.117885
0.281251
-0.141488
0.0980654
0.263746
0.0783311
0.247734
0.0594096
0.232436
0.0420202
0.219373
0.0263517
0.208166
0.0122007
0.198228
0.000196273
0.190315
-0.00631228
0.174775
0.106275
0.0567568
0.298725
-0.0742308
0.040719
0.279784
0.02693
0.261523
0.0146949
0.244671
0.00406939
0.229999
-0.00551642
0.217752
-0.0142499
0.206961
-0.0196685
0.195734
-0.0159761
0.171082
0.090299
-0.013503
0.308315
0.0039131
-0.020745
0.287026
-0.0271713
0.267949
-0.0326902
0.25019
-0.0376989
0.235007
-0.0417532
0.221806
-0.0436128
0.208821
-0.0402277
0.192349
-0.0255742
0.156429
0.0647249
-0.0851782
0.0876894
-0.0844111
-0.0840649
-0.0839322
-0.0826031
-0.0792825
-0.0730588
-0.0590158
-0.030609
0.329701
0.064158
-0.376948
-0.0169111
0.285446
0.0604481
-0.0161932
0.243686
0.0572684
-0.015509
0.204075
0.0544604
-0.014849
0.166354
0.0519398
-0.0142184
0.13016
0.0498691
-0.0136755
0.0951307
0.0482435
-0.0132141
0.0608211
0.0472062
-0.0128967
0.0265678
0.0470704
-0.012817
0.0365372
-0.00996947
0.317771
0.110448
-0.364062
0.274271
0.103948
0.233523
0.0980168
0.195298
0.0926853
0.159095
0.0881432
0.124403
0.0845606
0.0908131
0.0818335
0.0578101
0.0802093
0.0249495
0.079931
0.0614867
0.295302
0.153739
-0.338592
0.254253
0.144998
0.215274
0.136995
0.178743
0.129217
0.144713
0.122173
0.112442
0.116832
0.0814954
0.11278
0.0513845
0.11032
0.0220265
0.109289
0.0835132
0.261439
0.194184
-0.301884
0.224728
0.181709
0.190598
0.171125
0.157398
0.162417
0.125897
0.153674
0.0965854
0.146143
0.0687784
0.140587
0.0418235
0.137275
0.0168314
0.134281
0.100345
0.216431
-0.253723
0.183564
0.154628
0.127742
0.101081
0.0755447
0.0519091
0.0293905
0.00993963
0.420857
0.389134
-0.392176
0.427922
0.29167
-0.298735
0.426244
0.229498
-0.227819
0.437143
0.198188
-0.209087
0.436592
0.150151
-0.1496
0.443321
0.117613
-0.124343
0.438508
0.0870871
-0.082274
0.438905
0.0664603
-0.0668568
0.430884
0.0549333
-0.046913
0.427021
0.0444929
-0.0406295
0.417693
0.0422875
-0.0329597
0.41094
0.0367898
-0.0300368
0.400224
0.037223
-0.0265065
0.390239
0.0342188
-0.0242346
0.035257
-0.0219653
0.417343
0.389606
0.421453
0.287561
0.417299
0.233653
0.426401
0.189085
0.425364
0.151188
0.431564
0.111413
0.427077
0.0915744
0.427119
0.0664178
0.419603
0.0624497
0.415597
0.048499
0.406704
0.0511806
0.399559
0.0439344
0.388462
0.0483204
0.378057
0.0446238
0.0492515
0.412502
0.394919
0.412105
0.287958
0.404884
0.240874
0.410488
0.183481
0.407734
0.153943
0.411897
0.10725
0.406505
0.0969664
0.405454
0.0674681
0.397024
0.0708797
0.392353
0.0531701
0.382583
0.0609504
0.37479
0.0517274
0.363141
0.0599703
0.352576
0.0551885
0.0632352
0.406136
0.406598
0.400326
0.293768
0.388821
0.252379
0.389954
0.182349
0.384328
0.159568
0.385353
0.106225
0.378574
0.103745
0.375267
0.070775
0.36734
0.0788067
0.360476
0.0600349
0.350659
0.0707672
0.341214
0.0611718
0.32861
0.0725743
0.317196
0.0666031
0.0785466
0.398549
0.425864
0.385567
0.30675
0.369999
0.267946
0.364822
0.187527
0.356368
0.168022
0.352321
0.110272
0.34333
0.112737
0.33635
0.0777541
0.326446
0.0887106
0.316573
0.0699087
0.304358
0.0829819
0.293289
0.0722406
0.279662
0.0862019
0.26798
0.0782845
0.0928034
0.371453
0.427147
0.371665
0.306538
0.367724
0.271887
0.370679
0.184572
0.368636
0.170065
0.370429
0.108479
0.366659
0.116508
0.365802
0.0786111
0.36032
0.0941927
0.359062
0.0711663
0.353617
0.0884264
0.353213
0.0726449
0.350811
0.0886042
0.353843
0.0752521
0.0857833
0.360863
0.427395
0.42807
0.428128
0.305804
0.422909
0.277106
0.42666
0.180821
0.424112
0.172613
0.426676
0.105915
0.422409
0.120775
0.421832
0.0791877
0.417045
0.0989795
0.41522
0.0729916
0.413212
0.090435
0.412495
0.0733614
0.415583
0.0855163
0.417203
0.0736317
0.0788949
0.424092
0.491157
0.4291
0.493917
0.303045
0.487459
0.283563
0.491044
0.177236
0.489532
0.174125
0.491034
0.104412
0.488731
0.123078
0.486508
0.0814105
0.484571
0.100917
0.482556
0.075006
0.483803
0.0891887
0.483772
0.0733925
0.48809
0.0811982
0.491281
0.0704402
0.0726153
0.497561
0.563907
0.430773
0.568428
0.298523
0.564634
0.287358
0.565574
0.176296
0.566276
0.173424
0.565133
0.105555
0.565571
0.12264
0.562468
0.0845137
0.563277
0.100108
0.562016
0.0762664
0.564985
0.0862205
0.566628
0.0717491
0.571399
0.0764273
0.576025
0.0658143
0.0662185
0.582421
0.64769
0.433001
0.652088
0.294125
0.653637
0.285809
0.652594
0.177339
0.654395
0.171622
0.651424
0.108527
0.653597
0.120467
0.651454
0.0866563
0.654467
0.0970954
0.654907
0.0758264
0.659005
0.0821222
0.662088
0.0686658
0.667647
0.0708685
0.672664
0.0607971
0.0599517
0.678931
0.745324
0.434509
0.747303
0.292145
0.754151
0.278961
0.752915
0.178575
0.755902
0.168635
0.752631
0.111798
0.756124
0.116974
0.755615
0.0871658
0.760337
0.0923731
0.762385
0.0737787
0.767573
0.076934
0.771501
0.0647375
0.777423
0.0649467
0.782586
0.0556343
0.0537438
0.788794
0.858636
0.434069
0.85906
0.291722
0.868809
0.269212
0.868115
0.17927
0.872879
0.163871
0.870831
0.113845
0.87591
0.111895
0.877227
0.0858491
0.883174
0.0864256
0.886691
0.0702625
0.893044
0.0705808
0.897955
0.0598259
0.904398
0.058504
0.909664
0.0503687
0.0479321
0.915475
0.98917
0.431066
0.989346
0.291546
1.00094
0.257613
1.00174
0.178476
1.00869
0.156917
1.00911
0.113424
1.01571
0.105295
1.01894
0.0826257
1.02591
0.0794544
1.03076
0.0654084
1.03782
0.0635224
1.04341
0.054236
1.05012
0.0517911
1.05598
0.0445092
0.0415481
1.06237
1.13941
0.424876
1.14105
0.289904
1.15399
0.244672
1.15723
0.175245
1.16574
0.148401
1.16934
0.109823
1.1773
0.0973359
1.18301
0.0769206
1.191
0.0714557
1.19736
0.0590494
1.20503
0.0558598
1.21146
0.0477988
1.21826
0.0449903
1.22396
0.0388148
0.0359236
1.22958
1.31234
0.414744
1.31798
0.284263
1.33391
0.22874
1.3412
0.167958
1.35235
0.137249
1.35905
0.103121
1.36866
0.0877269
1.37614
0.0694444
1.38518
0.062412
1.39251
0.0517207
1.40072
0.04765
1.40773
0.0407865
1.41501
0.0377059
1.42123
0.0325947
0.0298211
1.42734
1.51084
0.400287
1.5222
0.272901
1.54047
0.210472
1.55307
0.155357
1.56687
0.123451
1.57764
0.0923555
1.58937
0.0759919
1.59962
0.059201
1.61008
0.0519462
1.61911
0.042694
1.62796
0.0387951
1.63564
0.0331066
1.64291
0.030436
1.64914
0.0263674
0.0240821
1.65488
1.74638
0.37343
1.76812
0.251156
1.79287
0.185723
1.81106
0.137166
1.82912
0.10539
1.84276
0.0787129
1.85629
0.0624629
1.86752
0.0479698
1.87871
0.0407588
1.88815
0.0332568
1.8974
0.0295417
1.90536
0.0251484
1.91299
0.0228036
1.91953
0.0198352
0.0180167
1.92559
2.02198
0.327379
2.06217
0.210964
2.09865
0.149245
2.12839
0.107424
2.15396
0.0798231
2.17447
0.0582055
2.19202
0.0449083
2.2068
0.0331871
2.22002
0.0275465
2.23137
0.0219034
2.24166
0.0192493
2.25065
0.0161614
2.25879
0.0146615
2.26591
0.0127206
0.0116212
2.2723
2.3502
0.247753
2.40827
0.152895
2.45878
0.0987386
2.49852
0.0676814
2.53062
0.047723
2.55504
0.0337875
2.57484
0.025102
2.59013
0.017902
2.60349
0.0141808
2.61457
0.0108243
2.62476
0.00906681
2.63352
0.00739262
2.64163
0.00655503
2.64872
0.00562706
0.0051269
2.65522
2.85691
3.0098
3.10854
3.17622
3.22395
3.25773
3.28284
3.30074
3.31492
3.32574
3.33481
3.3422
3.34876
3.35438
3.35951
0.363324
-0.207808
0.372549
-0.150713
0.379635
-0.0813164
0.390941
-0.00739338
0.0784993
0.430033
-0.213749
0.436782
-0.157462
0.441365
-0.0858998
0.449069
-0.0150971
0.0668915
0.502524
-0.218712
0.50454
-0.159478
0.51036
-0.0917203
0.51696
-0.0216965
0.0559388
0.584481
-0.220772
0.58513
-0.160128
0.589565
-0.0961551
0.593683
-0.025814
0.0467671
0.677066
-0.218906
0.676579
-0.159642
0.678862
-0.0984377
0.682798
-0.0297495
0.0389888
0.783894
-0.214006
0.782084
-0.157832
0.782634
-0.0989869
0.785881
-0.0329971
0.0324933
0.907591
-0.206122
0.903333
-0.153575
0.901921
-0.0975752
0.904355
-0.0354306
0.0268398
1.0513
-0.195052
1.04435
-0.146625
1.04088
-0.094106
1.04176
-0.0363079
0.0220042
1.21543
-0.180897
1.20571
-0.136904
1.20033
-0.0887304
1.20018
-0.0361504
0.0176586
1.40956
-0.163125
1.39678
-0.124125
1.38911
-0.0810602
1.38731
-0.0343431
0.0141616
1.63348
-0.141726
1.61773
-0.108375
1.60803
-0.0713641
1.60494
-0.0312437
0.010489
1.90039
-0.116528
1.8815
-0.0894773
1.86968
-0.0595497
1.86526
-0.0268191
0.00761131
2.24179
-0.0860208
2.21877
-0.0664532
2.2038
-0.0445784
2.19793
-0.0209514
0.00398937
2.61927
-0.0500729
2.59188
-0.0390586
2.57402
-0.0267193
2.5664
-0.0133343
0.00103332
3.30944
3.27038
3.24366
3.23033
0.00869838
-0.00114739
-0.00755099
0.00724951
0.00144887
-0.00199181
0.00924132
-0.0230039
0.0210121
0.029229
-0.0522329
0.00223807
0.00793361
-0.0113191
-0.0220192
0.0257061
-0.0644822
0.0517043
-0.111375
0.0679048
0.0628209
-0.144967
-0.0261276
0.0369828
-0.00292153
-0.0759946
0.0755731
-0.130381
0.106091
-0.167702
0.105225
0.0803909
-0.185272
-0.0667902
0.0865776
0.0171954
-0.128303
0.137086
-0.175313
0.1531
-0.196314
0.126226
0.0880158
-0.203939
-0.109809
0.150282
0.0461048
-0.170042
0.197319
-0.202303
0.185362
-0.212956
0.136879
0.0927922
-0.217732
-0.149343
0.21892
0.0807051
-0.200781
0.248757
-0.219064
0.203645
-0.2274
0.145215
0.0966475
-0.231256
-0.184862
0.291729
0.112053
-0.222722
0.286618
-0.233301
0.214223
-0.244103
0.156018
0.0987045
-0.24616
-0.214062
0.352592
0.153199
-0.239267
0.311822
-0.250141
0.225098
-0.262936
0.168812
0.0984902
-0.262721
-0.2387
0.412831
0.178461
-0.255822
0.328944
-0.269973
0.239249
-0.28171
0.180549
0.0967185
-0.279938
-0.262413
0.227958
0.447286
-0.271075
0.337606
-0.291941
0.260115
-0.299337
0.187944
0.0953957
-0.298014
0.00658845
-0.0100832
0.0113145
-0.00472606
0.010386
0.000928546
0.0078218
0.00256416
0.000270808
0.011535
-0.0262471
0.0203767
-0.0135677
0.0202516
0.00105365
0.0156499
0.00716584
0.00460161
0.0139247
-0.0440854
0.0236717
-0.0233147
0.0230539
0.00167143
0.015833
0.0143867
0.0175131
0.0155582
-0.0623546
0.0239921
-0.0317486
0.0209651
0.00469843
0.00902673
0.0263251
0.0437352
0.0174283
-0.081183
0.0244435
-0.0387637
0.0169371
0.0122049
-0.00379838
0.0470605
0.0860416
0.01895
-0.0999813
0.0211574
-0.0409711
0.00667838
0.0266839
-0.0255656
0.0793045
0.141181
0.0224443
-0.120305
0.0242264
-0.0427532
0.00394784
0.0469625
-0.0409408
0.124193
0.212293
0.0233452
-0.138767
0.0166603
-0.0360683
-0.0181257
0.0817485
-0.0807025
0.18677
0.284789
0.0295236
-0.159638
0.02042
-0.0269647
-0.0205862
0.122755
-0.0904271
0.256611
0.372823
0.0304223
-0.176537
0.010781
-0.00732336
-0.0539032
0.187439
-0.141825
0.344533
0.458956
0.0352045
-0.186669
0.0345979
-0.00671673
0.0311142
0.190922
0.0319829
0.343664
0.454974
0.0359651
0.0364578
-0.193448
0.0352692
-0.00552813
0.0275043
0.198687
0.0280476
0.343121
0.450572
0.0324495
0.0302374
-0.197999
0.0261101
-0.00140081
0.0179517
0.206846
0.018177
0.342896
0.445443
0.0233051
0.00566459
-0.19568
0.00279197
0.00147181
-0.00478766
0.214425
-0.00164538
0.339754
0.437942
0.00585607
-0.0366954
-0.186313
-0.0425877
0.00736409
-0.0468208
0.218658
-0.0396503
0.332583
0.424209
-0.0259178
-0.0992429
-0.170006
-0.104862
0.0129828
-0.107057
0.220854
-0.092401
0.317927
0.402155
-0.0703463
-0.177191
-0.149459
-0.174469
0.0102602
-0.172539
0.218925
-0.152678
0.298065
0.373253
-0.123776
-0.25354
-0.121683
-0.235259
-0.00802145
-0.223227
0.206893
-0.205659
0.280497
0.33631
-0.168715
-0.297489
-0.0635275
-0.276748
-0.028763
-0.236768
0.166913
-0.233467
0.277197
0.298705
-0.195863
-0.223235
0.0481856
-0.247761
-0.00423731
-0.193489
0.112641
-0.185284
0.268992
0.288161
-0.17474
-0.05753
0.177399
-0.148896
0.0871288
-0.137193
0.100938
-0.109509
0.241308
0.292388
-0.113736
0.102481
0.277911
0.00710011
0.18251
-0.0307023
0.13874
-0.0173249
0.227931
0.296321
-0.0212581
0.175467
0.337932
0.108178
0.249799
0.0542656
0.192653
0.0420648
0.240132
0.306123
0.0322629
0.198386
0.368327
0.15921
0.288974
0.111387
0.240476
0.0796689
0.27185
0.323249
0.0625427
0.167495
0.379908
0.145906
0.310564
0.105558
0.280823
0.0686646
0.308744
0.342768
0.0491458
0.146015
0.383993
0.127794
0.328784
0.0929213
0.315697
0.0615167
0.340148
0.35762
0.0466649
0.107972
0.388742
0.0894916
0.347265
0.0608197
0.344368
0.0385147
0.362453
0.366219
0.0299152
0.0997536
0.395268
0.0825625
0.364456
0.0612606
0.36567
0.0472027
0.376511
0.371207
0.0422146
0.0807223
0.400838
0.0675303
0.377648
0.0533245
0.379876
0.0450086
0.384827
0.375025
0.0411907
0.0922649
0.404232
0.0825927
0.38732
0.073277
0.389192
0.0678471
0.390257
0.379413
0.0634589
0.0801871
0.406231
0.0724416
0.395066
0.0655035
0.39613
0.0610202
0.39474
0.384638
0.0557952
0.0935224
0.408473
0.0866867
0.401901
0.0808568
0.40196
0.0763248
0.399272
0.390804
0.0701589
0.0660906
0.410765
0.0606365
0.407356
0.0558568
0.40674
0.0513204
0.403808
0.397413
0.044712
0.0703822
0.412768
0.0666883
0.41105
0.0631643
0.410264
0.0588088
0.408164
0.404425
0.0517967
0.0246129
0.0238535
0.0220866
0.0182457
0.0110719
0.0356247
0.49306
-0.49272
0.0297194
0.543026
-0.53712
0.0228669
0.601279
-0.594427
0.0160071
0.672879
-0.666019
0.00991361
0.752051
-0.745958
0.00470749
0.839767
-0.834561
0.000746865
0.939149
-0.935188
-0.00188865
1.04995
-1.04731
-0.00322779
1.17677
-1.17543
-0.00331892
1.31327
-1.31318
-0.0016608
1.46794
-1.4696
0.0010914
1.62579
-1.62854
0.00630927
1.76752
-1.77274
0.0114356
1.94002
-1.94515
1.84121
-1.82978
0.0285302
0.496979
0.0223826
0.549173
0.016627
0.607035
0.0114769
0.678029
0.00671809
0.75681
0.00260689
0.843878
-0.000385244
0.942141
-0.00220639
1.05177
-0.00276312
1.17733
-0.00216795
1.31268
0.000217507
1.46556
0.00340701
1.6226
0.00879629
1.76213
0.0135974
1.93522
1.85481
0.0185632
0.501721
0.0123363
0.5554
0.00762843
0.611743
0.00413002
0.681527
0.00111535
0.759825
-0.00124101
0.846235
-0.00265434
0.943554
-0.00315179
1.05227
-0.00257547
1.17675
-0.00109608
1.3112
0.0021314
1.46233
0.00591837
1.61882
0.0116028
1.75645
0.0161538
1.93067
1.87096
0.00227726
0.5053
-0.00218373
0.559861
-0.00429731
0.613856
-0.00509848
0.682329
-0.00526482
0.759991
-0.00514377
0.846114
-0.00456391
0.942974
-0.00339922
1.0511
-0.00139048
1.17474
0.00121554
1.30859
0.0053515
1.45819
0.00970804
1.61446
0.0152211
1.75093
0.0188094
1.92708
1.88977
-0.0245519
0.503934
-0.0227267
0.558036
-0.020355
0.611484
-0.0171627
0.679136
-0.0137883
0.756617
-0.0105467
0.842872
-0.00749184
0.939919
-0.00422089
1.04783
-0.00048336
1.17101
0.00347325
1.30464
0.00861368
1.45305
0.013534
1.60954
0.0189172
1.74555
0.0217492
1.92425
1.91152
-0.0614515
0.495039
-0.050104
0.546689
-0.0400541
0.601435
-0.0312449
0.670327
-0.0230368
0.748409
-0.0158116
0.835647
-0.00939976
0.933507
-0.00342863
1.04186
0.00231419
1.16526
0.00785114
1.2991
0.0139563
1.44695
0.0193092
1.60419
0.0238183
1.74104
0.0249602
1.92311
1.93648
-0.106434
0.477697
-0.0834407
0.523696
-0.0653031
0.583297
-0.0487431
0.653767
-0.0348454
0.734511
-0.0228996
0.823701
-0.0126932
0.923301
-0.00364972
1.03282
0.00432553
1.15729
0.0115029
1.29192
0.0186644
1.43979
0.0243909
1.59846
0.0280876
1.73734
0.0276406
1.92355
1.96412
-0.14132
0.450301
-0.108718
0.491094
-0.0853856
0.559964
-0.0616388
0.63002
-0.0433642
0.716236
-0.0259899
0.806327
-0.0120271
0.909338
8.75852e-05
1.0207
0.0103714
1.147
0.0191248
1.28317
0.0269241
1.43199
0.0324986
1.59288
0.0342569
1.73558
0.0314022
1.92641
1.99553
-0.160029
0.414467
-0.126779
0.457844
-0.0990705
0.532256
-0.0725956
0.603545
-0.0505128
0.694154
-0.0288695
0.784683
-0.0118293
0.892298
0.00287108
1.006
0.0146048
1.13527
0.0241757
1.2736
0.0321306
1.42403
0.0372862
1.58773
0.037612
1.73526
0.0328705
1.93115
2.0284
-0.143891
0.383618
-0.117155
0.431109
-0.0895646
0.504665
-0.0649615
0.578942
-0.0417581
0.67095
-0.0205674
0.763493
-0.00266367
0.874394
0.0123279
0.991009
0.0245239
1.12307
0.0345407
1.26358
0.042393
1.41618
0.0471802
1.58294
0.0452688
1.73717
0.0373942
1.93902
2.06579
-0.093944
0.363827
-0.0794966
0.416661
-0.0597287
0.484897
-0.0426121
0.561826
-0.0243956
0.652734
-0.00881509
0.747912
0.00596669
0.859613
0.0186439
0.978332
0.0300722
1.11165
0.0395825
1.25407
0.0468039
1.40896
0.0507112
1.57903
0.0470296
1.74085
0.0369937
1.94906
2.10278
-0.0155061
0.358075
-0.0148665
0.416022
-0.00996629
0.479997
-0.00383867
0.555698
0.00605686
0.642838
0.0145883
0.739381
0.0247421
0.849459
0.034962
0.968112
0.0448811
1.10173
0.0535445
1.24541
0.0596527