/*--------------------------------*- C++ -*----------------------------------*\
| =========                 |                                                 |
| \\      /  F ield         | OpenFOAM: The Open Source CFD Toolbox           |
|  \\    /   O peration     | Version:  2512                                  |
|   \\  /    A nd           | Website:  www.openfoam.com                      |
|    \\/     M anipulation  |                                                 |
\*---------------------------------------------------------------------------*/
FoamFile
{
    version     2.0;
    format      ascii;
    arch        "LSB;label=32;scalar=64";
    class       volScalarField;
    location    "42";
    object      p;
}
// * * * * * * * * * * * * * * * * * * * * * * * * * * * * * * * * * * * * * //

dimensions      [0 2 -2 0 0 0 0];

internalField   nonuniform List<scalar> 
13248
(
-0.483753
-0.482206
-0.48002
-0.477489
-0.475169
-0.473564
-0.472992
-0.473532
-0.474974
-0.476841
-0.478425
-0.478882
-0.477365
-0.473154
-0.465782
-0.455101
-0.441278
-0.424716
-0.405884
-0.385376
-0.363216
-0.340191
-0.314491
-0.286959
-0.488051
-0.486391
-0.483935
-0.480999
-0.478145
-0.475828
-0.474262
-0.473376
-0.4728
-0.471937
-0.470081
-0.466552
-0.460817
-0.452576
-0.441795
-0.428668
-0.413521
-0.396717
-0.378581
-0.359332
-0.339148
-0.318166
-0.296109
-0.274166
-0.494233
-0.492248
-0.489436
-0.486116
-0.482752
-0.479649
-0.476837
-0.474057
-0.470843
-0.466651
-0.460991
-0.453524
-0.444113
-0.432822
-0.419858
-0.405482
-0.389941
-0.373452
-0.356148
-0.338235
-0.31972
-0.300897
-0.281532
-0.261848
-0.502556
-0.499928
-0.496617
-0.492818
-0.488791
-0.484609
-0.480071
-0.474796
-0.468389
-0.460562
-0.451187
-0.4403
-0.428061
-0.41469
-0.400405
-0.385379
-0.369751
-0.353619
-0.337093
-0.320259
-0.303196
-0.286128
-0.268817
-0.25193
-0.513074
-0.509495
-0.505495
-0.501013
-0.496006
-0.490254
-0.483371
-0.475026
-0.465104
-0.453704
-0.44106
-0.427458
-0.41316
-0.39837
-0.383225
-0.367813
-0.352191
-0.336412
-0.320521
-0.304583
-0.288664
-0.272858
-0.257083
-0.241682
-0.525789
-0.521013
-0.516131
-0.51068
-0.504205
-0.496208
-0.486292
-0.474423
-0.460917
-0.44625
-0.430881
-0.415166
-0.399332
-0.383501
-0.367729
-0.352035
-0.336427
-0.320917
-0.305527
-0.290287
-0.275231
-0.260422
-0.245796
-0.231667
-0.540698
-0.534557
-0.528599
-0.521775
-0.513146
-0.502076
-0.488471
-0.472817
-0.45587
-0.438339
-0.420733
-0.403346
-0.386311
-0.369662
-0.353388
-0.337463
-0.321863
-0.306574
-0.291589
-0.27691
-0.262549
-0.248505
-0.234776
-0.221527
-0.557696
-0.550094
-0.542816
-0.534048
-0.522378
-0.507373
-0.48959
-0.470115
-0.450003
-0.430005
-0.410539
-0.391776
-0.373745
-0.356409
-0.339709
-0.323587
-0.307993
-0.292885
-0.278234
-0.264019
-0.250224
-0.236834
-0.223865
-0.211345
-0.57642
-0.567322
-0.558382
-0.546891
-0.531191
-0.511531
-0.489351
-0.466221
-0.443278
-0.421152
-0.4001
-0.380163
-0.361279
-0.343356
-0.326298
-0.310019
-0.294444
-0.27951
-0.265166
-0.251367
-0.238076
-0.225265
-0.212937
-0.201011
-0.596154
-0.585554
-0.574467
-0.559294
-0.538636
-0.513892
-0.487367
-0.460868
-0.435417
-0.411435
-0.389003
-0.368044
-0.348424
-0.330004
-0.312657
-0.296268
-0.280742
-0.265994
-0.251953
-0.238554
-0.225742
-0.213479
-0.201733
-0.190364
-0.615783
-0.603674
-0.58978
-0.569889
-0.543547
-0.513581
-0.482931
-0.453385
-0.425716
-0.400109
-0.37648
-0.35465
-0.334421
-0.315614
-0.298067
-0.281642
-0.266221
-0.251702
-0.237996
-0.225023
-0.212716
-0.201021
-0.18986
-0.179096
-0.633863
-0.620232
-0.602705
-0.577104
-0.544618
-0.509509
-0.47505
-0.442798
-0.413208
-0.386225
-0.361614
-0.3391
-0.318431
-0.299384
-0.281767
-0.265417
-0.250195
-0.235981
-0.22267
-0.210173
-0.198418
-0.187352
-0.17688
-0.166902
-0.392854
-0.393969
-0.394543
-0.395262
-0.396447
-0.39816
-0.400397
-0.403138
-0.406346
-0.409967
-0.413931
-0.418151
-0.422227
-0.426192
-0.429817
-0.432837
-0.434943
-0.435828
-0.435223
-0.432941
-0.428885
-0.423092
-0.415803
-0.407389
-0.407202
-0.408129
-0.408854
-0.410004
-0.411872
-0.41452
-0.41795
-0.422156
-0.427118
-0.432797
-0.43912
-0.445967
-0.45311
-0.460281
-0.467154
-0.473507
-0.47876
-0.482367
-0.483797
-0.48258
-0.478354
-0.47094
-0.460432
-0.446983
-0.421271
-0.421886
-0.422686
-0.424203
-0.426679
-0.430177
-0.434706
-0.440274
-0.446878
-0.454496
-0.463062
-0.472448
-0.48244
-0.492701
-0.502749
-0.512309
-0.520489
-0.526513
-0.529561
-0.528844
-0.523733
-0.513909
-0.499896
-0.480362
-0.434473
-0.434671
-0.435437
-0.437207
-0.440143
-0.444307
-0.449718
-0.456391
-0.464341
-0.473556
-0.483978
-0.495476
-0.507822
-0.520608
-0.533317
-0.545279
-0.555556
-0.563121
-0.566854
-0.565635
-0.558534
-0.544383
-0.528562
-0.50114
-0.446253
-0.445935
-0.446601
-0.448438
-0.451602
-0.456155
-0.462114
-0.469499
-0.478327
-0.488591
-0.500227
-0.513087
-0.527025
-0.541363
-0.555681
-0.568746
-0.579825
-0.587627
-0.590799
-0.588022
-0.578424
-0.560991
-0.537325
-0.503315
-0.456195
-0.455355
-0.455776
-0.457481
-0.460592
-0.465185
-0.471277
-0.478883
-0.488015
-0.498658
-0.510735
-0.524075
-0.538362
-0.553056
-0.567432
-0.58049
-0.591059
-0.59773
-0.599076
-0.593602
-0.580697
-0.558799
-0.530369
-0.491858
-0.464084
-0.462773
-0.462838
-0.464193
-0.466943
-0.471193
-0.47697
-0.48428
-0.493123
-0.503464
-0.515207
-0.528141
-0.541888
-0.555859
-0.569275
-0.581039
-0.589845
-0.594192
-0.592673
-0.583769
-0.567184
-0.541577
-0.509676
-0.46897
-0.469943
-0.468274
-0.467915
-0.468721
-0.47082
-0.474364
-0.479407
-0.485959
-0.494005
-0.503496
-0.514299
-0.526139
-0.538629
-0.55114
-0.562734
-0.57224
-0.578283
-0.579363
-0.5742
-0.561573
-0.541497
-0.513317
-0.479653
-0.438826
-0.474029
-0.472163
-0.471356
-0.47147
-0.472691
-0.47524
-0.479226
-0.484678
-0.49158
-0.49985
-0.509325
-0.519744
-0.530558
-0.541002
-0.550057
-0.556462
-0.558836
-0.555853
-0.546567
-0.530281
-0.507525
-0.478238
-0.44479
-0.40588
-0.476798
-0.474905
-0.473672
-0.473029
-0.473247
-0.474642
-0.477393
-0.48157
-0.487144
-0.494052
-0.502082
-0.510784
-0.519497
-0.527306
-0.533068
-0.535527
-0.533466
-0.525971
-0.512606
-0.493378
-0.469306
-0.440703
-0.409744
-0.374501
-0.478855
-0.477069
-0.475462
-0.474076
-0.473293
-0.473523
-0.475029
-0.477882
-0.48215
-0.487643
-0.493996
-0.500614
-0.506658
-0.511084
-0.512755
-0.510626
-0.503861
-0.492128
-0.475455
-0.454504
-0.4303
-0.403612
-0.376485
-0.346185
-0.480919
-0.479289
-0.477363
-0.475321
-0.473653
-0.472835
-0.473184
-0.474886
-0.477828
-0.481717
-0.486014
-0.489939
-0.492545
-0.49283
-0.489898
-0.483115
-0.472183
-0.457272
-0.438727
-0.41743
-0.393798
-0.368931
-0.343737
-0.317747
-0.397201
-0.386888
-0.381486
-0.382818
-0.393142
-0.413356
-0.443119
-0.479628
-0.518112
-0.553392
-0.580402
-0.593972
-0.588147
-0.555173
-0.493762
-0.4188
-0.350996
-0.303517
-0.280529
-0.276476
-0.287369
-0.316837
-0.364089
-0.417946
-0.459863
-0.472608
-0.445574
-0.382859
-0.30666
-0.237837
-0.186231
-0.150955
-0.128588
-0.11533
-0.111266
-0.114119
-0.114167
-0.103987
-0.0870901
-0.0694681
-0.0548349
-0.0438273
-0.035663
-0.0293569
-0.0244638
-0.0212987
-0.01931
-0.0170555
-0.0137361
-0.00980911
-0.0061843
-0.00332753
-0.00127744
6.50484e-05
0.000631433
0.000508032
0.000124491
-0.000205182
-0.000315887
-9.76563e-05
-0.429927
-0.409275
-0.392171
-0.380566
-0.377709
-0.385899
-0.406193
-0.435661
-0.47129
-0.505978
-0.534464
-0.550264
-0.547771
-0.519158
-0.465664
-0.400452
-0.342357
-0.304355
-0.288737
-0.289455
-0.304421
-0.337022
-0.385572
-0.439056
-0.479946
-0.492251
-0.464532
-0.399036
-0.318094
-0.243625
-0.186909
-0.147231
-0.120534
-0.103215
-0.0943905
-0.093271
-0.0921686
-0.0845566
-0.0717686
-0.0586843
-0.0478172
-0.0397238
-0.0337648
-0.0290359
-0.0254013
-0.0233825
-0.0219379
-0.0194896
-0.0155484
-0.0109299
-0.00685022
-0.0037192
-0.00152288
-6.92798e-05
0.000620927
0.000642503
0.000331291
-1.51702e-06
-0.000174761
-4.33259e-05
-0.456361
-0.424828
-0.395883
-0.371338
-0.354532
-0.348817
-0.356471
-0.376467
-0.406304
-0.438401
-0.468856
-0.486106
-0.488879
-0.468291
-0.425037
-0.371992
-0.326104
-0.298713
-0.290221
-0.295167
-0.313157
-0.347454
-0.396303
-0.448889
-0.489326
-0.503116
-0.476435
-0.409929
-0.325907
-0.247217
-0.186349
-0.143171
-0.113
-0.0923413
-0.079619
-0.0749165
-0.0725402
-0.0667432
-0.0574834
-0.0483088
-0.0408546
-0.0356173
-0.0319131
-0.0288066
-0.026556
-0.0257057
-0.0246645
-0.0218334
-0.0171676
-0.0119268
-0.00745891
-0.00409515
-0.00177088
-0.000221587
0.00057459
0.000736313
0.0005099
0.000198964
-2.15981e-05
1.87196e-05
-0.472455
-0.427511
-0.389904
-0.353686
-0.324003
-0.305754
-0.299491
-0.307677
-0.328686
-0.356938
-0.385483
-0.406
-0.41489
-0.403423
-0.372723
-0.334212
-0.301977
-0.285691
-0.284017
-0.292499
-0.312551
-0.347855
-0.396801
-0.44872
-0.489686
-0.505711
-0.481613
-0.415834
-0.330281
-0.24886
-0.184938
-0.139019
-0.106195
-0.0828179
-0.0670594
-0.0591688
-0.0554087
-0.050698
-0.044239
-0.0382844
-0.0339416
-0.0315362
-0.0301002
-0.0286444
-0.0278919
-0.0281778
-0.0274057
-0.0240094
-0.0186026
-0.0128029
-0.00801157
-0.00445502
-0.00202065
-0.00038875
0.000496378
0.000785465
0.000648522
0.000379234
0.000129527
8.25161e-05
-0.466955
-0.42078
-0.374034
-0.328174
-0.286585
-0.259603
-0.24043
-0.236938
-0.245951
-0.267337
-0.293876
-0.313448
-0.333675
-0.330154
-0.312511
-0.289287
-0.270933
-0.26536
-0.270083
-0.282159
-0.304368
-0.341069
-0.3904
-0.441768
-0.483486
-0.501932
-0.481149
-0.417577
-0.331745
-0.249
-0.183115
-0.135078
-0.100304
-0.0747446
-0.0566572
-0.0459901
-0.0407176
-0.0364062
-0.0319367
-0.0284998
-0.0270699
-0.0274885
-0.0282829
-0.0285117
-0.0293396
-0.0306897
-0.0300653
-0.0259365
-0.0198411
-0.0135647
-0.00851045
-0.00479745
-0.00226934
-0.00056615
0.000393175
0.000792124
0.00074208
0.000526641
0.000264939
0.000141512
-0.448445
-0.400154
-0.350109
-0.298984
-0.252221
-0.213258
-0.181329
-0.171466
-0.167459
-0.179479
-0.200019
-0.222573
-0.243059
-0.253466
-0.248687
-0.240241
-0.234449
-0.23818
-0.248578
-0.264451
-0.289586
-0.32856
-0.378693
-0.429689
-0.471977
-0.492819
-0.475079
-0.414604
-0.330236
-0.247789
-0.181141
-0.131597
-0.0954096
-0.0682436
-0.048344
-0.0353798
-0.0284309
-0.0238792
-0.0208129
-0.0189813
-0.0203068
-0.023479
-0.0263973
-0.0283459
-0.030796
-0.0331202
-0.0325306
-0.0275997
-0.0208931
-0.01422
-0.0089577
-0.00512096
-0.00251383
-0.000749146
0.000272541
0.000762761
0.000792237
0.000635035
0.000374665
0.000190444
-0.421527
-0.373355
-0.325374
-0.273294
-0.222426
-0.176798
-0.139577
-0.114116
-0.0977682
-0.102799
-0.112715
-0.133416
-0.154561
-0.171869
-0.181103
-0.186021
-0.191717
-0.203239
-0.219071
-0.239655
-0.269476
-0.312505
-0.36447
-0.41539
-0.457795
-0.480305
-0.465281
-0.407948
-0.326409
-0.245582
-0.179209
-0.128803
-0.091535
-0.0632769
-0.041932
-0.0271974
-0.0185393
-0.0132639
-0.0102397
-0.009949
-0.0137234
-0.0194608
-0.0243575
-0.0280725
-0.0321499
-0.0353566
-0.0346862
-0.0292072
-0.0217742
-0.0147733
-0.00935397
-0.00542395
-0.0027513
-0.000933872
0.000141168
0.000705509
0.000805154
0.00070436
0.000454165
0.000226573
-0.390887
-0.345515
-0.303286
-0.255426
-0.205708
-0.157767
-0.114432
-0.0786003
-0.0531885
-0.0415316
-0.0394069
-0.0543722
-0.0715305
-0.0920483
-0.110395
-0.125818
-0.141069
-0.15958
-0.180991
-0.207436
-0.24367
-0.291968
-0.346204
-0.397311
-0.439804
-0.463184
-0.451316
-0.398029
-0.320576
-0.242572
-0.177327
-0.12675
-0.0886749
-0.0596874
-0.0372677
-0.021175
-0.0109615
-0.00474523
-0.00126637
-0.00174361
-0.00750805
-0.0154529
-0.0221098
-0.0275869
-0.0332736
-0.0372888
-0.0364292
-0.0304387
-0.0224649
-0.0152242
-0.00969901
-0.00570425
-0.00297898
-0.00111702
4.50341e-06
0.000628495
0.00078883
0.000738962
0.000504007
0.000249772
-0.360204
-0.32012
-0.28472
-0.242753
-0.197584
-0.152534
-0.10876
-0.0675322
-0.032188
-0.00674644
0.00747709
0.00739701
-0.00208515
-0.0176932
-0.0393734
-0.0607611
-0.0834942
-0.108378
-0.135842
-0.16945
-0.213844
-0.269142
-0.327284
-0.379343
-0.421664
-0.445967
-0.435858
-0.386184
-0.313186
-0.23872
-0.175215
-0.125108
-0.0865852
-0.0570753
-0.0340223
-0.0168936
-0.00544641
0.00175275
0.00587339
0.00535686
-0.00178539
-0.0114014
-0.0195937
-0.0268505
-0.0340994
-0.0388325
-0.0376765
-0.0312743
-0.022947
-0.0155706
-0.00999085
-0.00595897
-0.00319433
-0.00129594
-0.000133481
0.00053878
0.000751265
0.000745444
0.000528301
0.000261771
-0.333294
-0.299705
-0.270565
-0.23471
-0.19539
-0.155236
-0.114614
-0.0743266
-0.0360099
-0.00219092
0.0239146
0.0379156
0.041801
0.0320324
0.0199012
-0.000537735
-0.0260357
-0.0550077
-0.0872887
-0.127126
-0.17874
-0.240021
-0.301237
-0.354379
-0.397702
-0.421694
-0.41512
-0.370812
-0.303859
-0.234104
-0.173134
-0.124049
-0.0855047
-0.0555347
-0.0320675
-0.0140972
-0.00165974
0.0065098
0.0113531
0.0111722
0.00337417
-0.00733339
-0.016786
-0.0257075
-0.0344747
-0.0399003
-0.0383183
-0.0316881
-0.0232182
-0.0158169
-0.0102342
-0.00619104
-0.00339933
-0.00147143
-0.000272106
0.000440439
0.000698583
0.000730594
0.000532803
0.000265197
-0.312159
-0.285344
-0.259861
-0.227624
-0.192436
-0.156098
-0.119023
-0.0812419
-0.0435385
-0.00777551
0.0240225
0.0501555
0.069098
0.0744169
0.0638298
0.0487571
0.0250572
-0.0055771
-0.0410023
-0.0853513
-0.143534
-0.211522
-0.27767
-0.333395
-0.376737
-0.402541
-0.397141
-0.357212
-0.29642
-0.231711
-0.173487
-0.125323
-0.0867153
-0.0560581
-0.0319272
-0.0131232
0.000372409
0.00958856
0.0153338
0.0158903
0.00853736
-0.00272732
-0.0134021
-0.0242289
-0.0345266
-0.0404624
-0.0384007
-0.0318129
-0.023336
-0.0159987
-0.0104512
-0.00641296
-0.00360077
-0.00164667
-0.000412541
0.00033518
0.000634182
0.0006993
0.000522684
0.000262671
-0.295954
-0.27892
-0.257639
-0.229787
-0.199705
-0.168249
-0.135249
-0.100773
-0.0656086
-0.0309066
0.00207774
0.0320285
0.0543856
0.072966
0.0802685
0.0759693
0.0602312
0.0331526
-0.00149372
-0.045717
-0.104608
-0.173819
-0.241292
-0.298521
-0.344195
-0.369593
-0.367679
-0.335654
-0.28362
-0.225411
-0.17092
-0.124461
-0.0865384
-0.055924
-0.0315192
-0.0124573
0.00155205
0.0114962
0.0183064
0.0197341
0.0131164
0.00194288
-0.00964559
-0.0220776
-0.0337861
-0.0402834
-0.0385025
-0.0314786
-0.0231992
-0.0160291
-0.0105724
-0.00657281
-0.00376319
-0.00179791
-0.000539978
0.00023382
0.000566245
0.000658316
0.000501582
0.000255826
-0.267151
-0.264028
-0.243303
-0.21517
-0.185805
-0.1562
-0.125738
-0.0939047
-0.0610954
-0.0282154
0.00362703
0.0320339
0.0576077
0.0768466
0.0878845
0.0911289
0.0835723
0.0619674
0.0303027
-0.0120063
-0.0731034
-0.148003
-0.219903
-0.27944
-0.325131
-0.352178
-0.34425
-0.308757
-0.257858
-0.204099
-0.154813
-0.112728
-0.0780333
-0.049667
-0.0266511
-0.00859739
0.00487407
0.0146586
0.0217628
0.0243582
0.0198646
0.00884068
-0.00438198
-0.0195697
-0.0334817
-0.0405278
-0.0387344
-0.0308269
-0.0226088
-0.0156788
-0.0104228
-0.00655233
-0.00381151
-0.00187789
-0.000624367
0.000158287
0.000512323
0.000620765
0.000478971
0.000246724
-0.23932
-0.239517
-0.220722
-0.193782
-0.166172
-0.139293
-0.112167
-0.0838129
-0.0544349
-0.0248732
0.00426349
0.0301152
0.0539556
0.0732126
0.0856959
0.0911059
0.0862059
0.0674454
0.0384525
-0.00172826
-0.0615114
-0.135611
-0.206116
-0.262902
-0.30397
-0.322604
-0.311286
-0.276259
-0.230185
-0.183038
-0.139849
-0.10236
-0.0707771
-0.0445307
-0.0228384
-0.00570552
0.00714808
0.016852
0.0243884
0.028066
0.0247638
0.0146104
-5.62165e-05
-0.0175287
-0.0329205
-0.0396566
-0.0369621
-0.0293863
-0.0216267
-0.0151418
-0.0101863
-0.00649326
-0.00384335
-0.00195334
-0.000711396
7.52057e-05
0.000446204
0.000571862
0.000447522
0.000232437
-0.215651
-0.216135
-0.200348
-0.176505
-0.151578
-0.127316
-0.103037
-0.0777451
-0.0513973
-0.0247402
0.000848378
0.0254814
0.0473696
0.0653083
0.0772625
0.0827688
0.0787237
0.0613296
0.033451
-0.00553894
-0.0619113
-0.129833
-0.192995
-0.242368
-0.275803
-0.287849
-0.275283
-0.244293
-0.204879
-0.164284
-0.126393
-0.092876
-0.0640973
-0.0398349
-0.0194957
-0.00314128
0.00924129
0.0187682
0.02659
0.0315446
0.0299217
0.0201979
0.00363514
-0.0157928
-0.0317434
-0.0377516
-0.0347223
-0.0276419
-0.0205084
-0.0145349
-0.00990668
-0.00640687
-0.00385919
-0.00202186
-0.00079754
-1.12015e-05
0.000374378
0.00051725
0.000412241
0.000216002
-0.193471
-0.194195
-0.181328
-0.160628
-0.138274
-0.116333
-0.0945143
-0.072
-0.0486035
-0.0248311
-0.00169878
0.0201144
0.0395627
0.0555916
0.066387
0.0712435
0.0676305
0.0520678
0.0261972
-0.010047
-0.0603223
-0.119048
-0.17294
-0.214451
-0.241304
-0.249776
-0.238242
-0.212205
-0.179353
-0.145249
-0.112822
-0.0834643
-0.057632
-0.0353948
-0.0164964
-0.0010107
0.0109314
0.0202716
0.0282849
0.0342651
0.0343889
0.025124
0.00697292
-0.0138373
-0.0296853
-0.0349481
-0.0319143
-0.0255938
-0.0192384
-0.0138416
-0.00957448
-0.00628869
-0.0038571
-0.00208149
-0.000880382
-9.77175e-05
0.000300528
0.000459743
0.000374408
0.000198194
-0.172826
-0.174264
-0.16382
-0.14596
-0.126119
-0.106503
-0.0871581
-0.0673794
-0.0468054
-0.0260599
-0.00549093
0.0137696
0.0309148
0.0450528
0.0546417
0.0587742
0.055672
0.0425721
0.0199988
-0.0115036
-0.0535291
-0.101994
-0.147011
-0.181916
-0.203711
-0.210537
-0.201693
-0.181664
-0.155835
-0.127991
-0.100449
-0.0747239
-0.0515664
-0.0312446
-0.0137624
0.000796059
0.0122886
0.0214192
0.0293978
0.035894
0.0373047
0.0285015
0.00975298
-0.0113664
-0.0264261
-0.0311034
-0.0286023
-0.0233134
-0.0178517
-0.0130764
-0.00919437
-0.00613899
-0.00383591
-0.00213068
-0.000958903
-0.000183801
0.000224483
0.000398936
0.000334155
0.000179264
-0.15471
-0.156451
-0.147786
-0.132429
-0.115086
-0.0978468
-0.0809011
-0.0636705
-0.0459018
-0.0276519
-0.00969915
0.00715333
0.0221335
0.0344659
0.0429328
0.0465912
0.0442239
0.0338294
0.015253
-0.0107863
-0.0446234
-0.0833734
-0.119984
-0.148917
-0.167219
-0.173828
-0.168722
-0.154393
-0.134326
-0.111583
-0.0883787
-0.0661664
-0.0457225
-0.0273863
-0.0113488
0.00221646
0.0132005
0.022121
0.0299396
0.036439
0.0383221
0.030081
0.0120553
-0.00802647
-0.0219229
-0.0264667
-0.0249885
-0.020906
-0.0163892
-0.0122525
-0.0087694
-0.00595752
-0.00379442
-0.0021682
-0.00103222
-0.000268899
0.000146666
0.000335484
0.000292227
0.000159553
-0.138502
-0.140142
-0.133076
-0.120085
-0.105129
-0.0900787
-0.0754031
-0.0605063
-0.0451384
-0.0294453
-0.0139523
0.000632557
0.0135867
0.0242414
0.031677
0.0350261
0.0334081
0.0254728
0.0108009
-0.0099776
-0.0364772
-0.066637
-0.0957449
-0.119488
-0.13532
-0.142336
-0.140086
-0.130042
-0.114767
-0.0966485
-0.0774227
-0.0583732
-0.0403739
-0.0238915
-0.00923737
0.00332414
0.0137105
0.0223331
0.0298747
0.0360525
0.0377897
0.0303355
0.0141136
-0.00402334
-0.0167832
-0.02166
-0.0213394
-0.0184795
-0.01489
-0.0113835
-0.00830415
-0.00574509
-0.00373201
-0.0021929
-0.00109909
-0.000351807
6.82212e-05
0.000270259
0.000249141
0.000139375
-0.123616
-0.125513
-0.119855
-0.108944
-0.0961718
-0.0833524
-0.0705755
-0.0577616
-0.0446204
-0.0312341
-0.0180177
-0.0055536
0.00553825
0.0146781
0.0211611
0.0242478
0.0232665
0.0173575
0.0061275
-0.00995254
-0.0302778
-0.053411
-0.0762797
-0.0956146
-0.109248
-0.11604
-0.115678
-0.108998
-0.0976021
-0.0831946
-0.0672547
-0.0510046
-0.03532
-0.0206895
-0.00745022
0.00408388
0.0138031
0.0220133
0.029147
0.0347589
0.0361545
0.0296823
0.0156854
-0.000195895
-0.0118665
-0.0171499
-0.0178778
-0.0161201
-0.013388
-0.0104838
-0.00780415
-0.00550326
-0.00364836
-0.0022037
-0.00115818
-0.000431286
-9.79122e-06
0.000204001
0.000205337
0.000119022
-0.110257
-0.112303
-0.10786
-0.0987679
-0.0879371
-0.0769603
-0.0661326
-0.0552686
-0.0441596
-0.0328656
-0.0217118
-0.0111666
-0.00174892
0.00603955
0.0116503
0.014496
0.0140616
0.0098117
0.00145143
-0.0107409
-0.0261939
-0.0438067
-0.0615181
-0.0769476
-0.0883114
-0.09458
-0.0953787
-0.0910071
-0.0824661
-0.0710704
-0.0580325
-0.0443502
-0.0307971
-0.0178864
-0.00599788
0.00452276
0.0135203
0.0211893
0.0277631
0.0326566
0.0337175
0.028233
0.0164578
0.00284982
-0.00768103
-0.0131719
-0.0147223
-0.013883
-0.0119105
-0.00956725
-0.00727591
-0.00523438
-0.00354364
-0.00219977
-0.00120831
-0.00050615
-8.62582e-05
0.000137608
0.000161308
9.87532e-05
-0.0983751
-0.100362
-0.0969179
-0.089461
-0.0804012
-0.0711453
-0.0620332
-0.0529194
-0.0436283
-0.0341917
-0.0248636
-0.0160238
-0.00809761
-0.00150181
0.00333716
0.00597206
0.00600481
0.00307566
-0.003027
-0.0121262
-0.0237191
-0.0369584
-0.0504436
-0.062498
-0.0717707
-0.0772542
-0.0785405
-0.0756978
-0.0693621
-0.0604382
-0.0498199
-0.0383312
-0.0266832
-0.0153886
-0.00482671
0.00466363
0.0128878
0.0199184
0.0258148
0.0298461
0.0307322
0.0261416
0.016404
0.00495149
-0.00437081
-0.00981439
-0.0119171
-0.0118012
-0.0104805
-0.00864804
-0.00672691
-0.0049417
-0.00341863
-0.00218064
-0.00124841
-0.000575172
-0.000159984
7.20712e-05
0.000117586
7.88152e-05
-0.0875938
-0.0895514
-0.0870068
-0.0809906
-0.0734968
-0.065777
-0.0581829
-0.0506137
-0.042919
-0.0351108
-0.0273852
-0.0200448
-0.0134278
-0.00786897
-0.00370156
-0.00126861
-0.000883426
-0.0027949
-0.00712566
-0.0137437
-0.0222678
-0.0320653
-0.0421636
-0.0513899
-0.058728
-0.0632985
-0.0647062
-0.0628892
-0.0581773
-0.0511642
-0.0425332
-0.0329595
-0.0230447
-0.0132542
-0.00395381
0.00452369
0.0119511
0.0182923
0.0234833
0.0269244
0.0274902
0.0236765
0.0157371
0.00623918
-0.00186526
-0.00705239
-0.00946998
-0.00989602
-0.00911835
-0.00774045
-0.00616548
-0.00462925
-0.00327468
-0.0021462
-0.00127758
-0.000637182
-0.000229802
8.40521e-06
7.47488e-05
5.94338e-05
-0.0778434
-0.0798577
-0.0780782
-0.0732817
-0.067144
-0.0607717
-0.0545074
-0.0482861
-0.0419801
-0.0355859
-0.029249
-0.0232047
-0.0177195
-0.0130588
-0.00948487
-0.0072596
-0.00661561
-0.00772122
-0.0106531
-0.0153241
-0.0214529
-0.0285621
-0.0359621
-0.0428303
-0.0484893
-0.0521591
-0.0534646
-0.0522579
-0.0486969
-0.043176
-0.0361914
-0.0282581
-0.019869
-0.0114431
-0.00332774
0.00416139
0.0107823
0.0164176
0.0209238
0.0238148
0.0241814
0.0210568
0.0146661
0.00688778
-4.17607e-05
-0.00482774
-0.00737249
-0.00818104
-0.00784122
-0.00685838
-0.00560059
-0.00430189
-0.00311373
-0.00209669
-0.00129521
-0.000691153
-0.000294603
-5.23965e-05
3.3403e-05
4.09265e-05
-0.0691753
-0.0712106
-0.070027
-0.0662458
-0.0612735
-0.0560712
-0.0509596
-0.0459008
-0.0407869
-0.0356023
-0.0304514
-0.0255152
-0.0210012
-0.0171165
-0.0140624
-0.0120325
-0.0111991
-0.0116892
-0.0135568
-0.0167346
-0.0210126
-0.0260319
-0.0312782
-0.0361642
-0.040472
-0.0433194
-0.0443806
-0.0435087
-0.0407683
-0.0363995
-0.0307433
-0.024188
-0.0171328
-0.00994065
-0.00292678
0.00361804
0.00944785
0.0143947
0.0182716
0.0206797
0.0209379
0.0184284
0.0133498
0.00705415
0.00122238
-0.00307713
-0.00560793
-0.00666375
-0.00666348
-0.00601485
-0.00504145
-0.00396513
-0.00293845
-0.00203286
-0.0013009
-0.000736201
-0.000353355
-0.000109399
-5.87807e-06
2.34827e-05
-0.0615676
-0.0634784
-0.0627328
-0.0598023
-0.0558296
-0.0516323
-0.0475065
-0.0434365
-0.0393326
-0.0351708
-0.0310233
-0.0270259
-0.0233368
-0.0201135
-0.0175082
-0.0156672
-0.0147224
-0.0147685
-0.015841
-0.0178879
-0.0207575
-0.0241879
-0.0277548
-0.0307265
-0.0342478
-0.0363608
-0.0371078
-0.03639
-0.0342148
-0.0307156
-0.0261214
-0.0207184
-0.0148182
-0.00872425
-0.0027151
0.00294594
0.00802001
0.0123166
0.0156325
0.0176406
0.017855
0.0158876
0.0119075
0.00686906
0.00203658
-0.00174007
-0.00415507
-0.00534609
-0.00559608
-0.00522167
-0.00449714
-0.00362479
-0.00275207
-0.0019561
-0.00129474
-0.000771656
-0.000405116
-0.000161716
-4.25712e-05
7.27161e-06
-0.0546997
-0.0564884
-0.0561181
-0.053908
-0.0507802
-0.0474324
-0.0441376
-0.0408977
-0.0376389
-0.0343319
-0.0310233
-0.0278115
-0.0248153
-0.0221533
-0.0199414
-0.0182899
-0.0172969
-0.0170312
-0.017519
-0.0187296
-0.0205666
-0.0228725
-0.0254581
-0.0282934
-0.0297874
-0.0309751
-0.0313363
-0.0306469
-0.0288504
-0.0260051
-0.0222562
-0.0178062
-0.0128927
-0.00776284
-0.00265688
0.00219212
0.00656251
0.0102608
0.0130866
0.0147755
0.0149899
0.0134918
0.0104277
0.00643823
0.00248878
-0.000760166
-0.00298888
-0.00422501
-0.00464632
-0.00448881
-0.00397648
-0.00328702
-0.00255802
-0.00186807
-0.00127733
-0.00079733
-0.000449231
-0.000208579
-7.61681e-05
-7.5494e-06
-0.048489
-0.0502261
-0.0501662
-0.0485365
-0.0460997
-0.043455
-0.0408505
-0.0382986
-0.0357382
-0.0331371
-0.0305218
-0.0279621
-0.0255453
-0.0233601
-0.0214926
-0.0200242
-0.0190276
-0.0185555
-0.0186306
-0.0192335
-0.0202988
-0.0217138
-0.0233243
-0.0249312
-0.0260185
-0.026686
-0.0267438
-0.026037
-0.0244993
-0.0221468
-0.0190663
-0.0153974
-0.0113179
-0.00702416
-0.00271784
0.00139964
0.00513028
0.00829052
0.010695
0.0121327
0.0123697
0.0112658
0.00897991
0.00584628
0.00264471
-8.72692e-05
-0.00208202
-0.00329272
-0.00381802
-0.0038241
-0.00348733
-0.00295824
-0.00236051
-0.00177069
-0.00124915
-0.000813191
-0.000485496
-0.000249568
-0.000106248
-2.08222e-05
-0.0430228
-0.0446513
-0.0447931
-0.0436171
-0.0417448
-0.0396809
-0.0376455
-0.0356584
-0.0336696
-0.0316458
-0.0295993
-0.0275771
-0.0256418
-0.0238582
-0.0222894
-0.0209958
-0.0200324
-0.0194393
-0.0192339
-0.0194038
-0.0199036
-0.0206501
-0.0215276
-0.0223869
-0.0229919
-0.0232663
-0.0230893
-0.0223527
-0.0209975
-0.0190188
-0.0164661
-0.0134339
-0.0100524
-0.00647445
-0.00286501
0.000605889
0.00376648
0.00645195
0.00849834
0.00973861
0.0100069
0.00921208
0.00740666
0.00509084
0.00258492
0.000332125
-0.00140327
-0.00253757
-0.00311142
-0.00323339
-0.00303644
-0.00264411
-0.00216405
-0.00166715
-0.00121155
-0.00081912
-0.000513389
-0.000284335
-0.000132635
-3.25014e-05
-0.0381348
-0.0396258
-0.039914
-0.039105
-0.0376949
-0.0361062
-0.0345346
-0.0330058
-0.0314798
-0.0299238
-0.0283392
-0.0267559
-0.0252176
-0.0237708
-0.0224617
-0.0213349
-0.0204311
-0.0197803
-0.019396
-0.0192704
-0.0193726
-0.0196443
-0.020004
-0.0203564
-0.020563
-0.0205357
-0.0201801
-0.0194164
-0.0181958
-0.0165049
-0.0143705
-0.011855
-0.00905282
-0.00608017
-0.00306929
-0.000160357
0.00250148
0.00477462
0.00651935
0.00760374
0.00790966
0.00738456
0.0060959
0.00433157
0.00237691
0.000553194
-0.000920051
-0.00194487
-0.00252326
-0.00271973
-0.00262961
-0.00235007
-0.00197224
-0.00156009
-0.00116703
-0.000816753
-0.000533037
-0.000312079
-0.000154825
-4.26303e-05
-0.0337229
-0.0351031
-0.0355014
-0.034979
-0.0339362
-0.0327288
-0.0315304
-0.0303696
-0.0292145
-0.0280335
-0.0268207
-0.0255933
-0.0243809
-0.0232162
-0.0221326
-0.0211622
-0.0203352
-0.0196738
-0.0191891
-0.0188767
-0.0187145
-0.01866
-0.01866
-0.0186706
-0.0185892
-0.0183419
-0.0178577
-0.0170776
-0.0159631
-0.0144986
-0.0126976
-0.0106008
-0.00827579
-0.00580966
-0.00330619
-0.0008783
0.00135452
0.00327436
0.00476585
0.00572538
0.00606757
0.00576281
0.00486619
0.00356064
0.00206606
0.000619242
-0.000601526
-0.00149774
-0.00204782
-0.00228375
-0.00227038
-0.00208114
-0.00178973
-0.0014518
-0.00111614
-0.000806927
-0.000546132
-0.000334288
-0.000172705
-5.05491e-05
-0.0297833
-0.031046
-0.0315076
-0.0312008
-0.0304475
-0.0295448
-0.0286445
-0.0277768
-0.0269163
-0.0260336
-0.0251179
-0.0241777
-0.0232317
-0.0223026
-0.0214138
-0.0205885
-0.0198492
-0.0192126
-0.0186869
-0.0182692
-0.0179443
-0.0176766
-0.0174079
-0.0172292
-0.016958
-0.0165608
-0.0159918
-0.0152097
-0.0141851
-0.0129036
-0.0113711
-0.00961392
-0.00768001
-0.00563392
-0.00355552
-0.00153378
0.000335143
0.0019556
0.00323461
0.00409168
0.00446372
0.00433247
0.00373887
0.00280441
0.00168895
0.000567205
-0.000418852
-0.00117813
-0.00167681
-0.00192451
-0.00196122
-0.00184042
-0.00162033
-0.00134678
-0.00106156
-0.000789266
-0.00055101
-0.000350236
-0.00018793
-5.77863e-05
-0.0262504
-0.0273912
-0.0278851
-0.0277412
-0.0272153
-0.0265542
-0.0258902
-0.0252536
-0.0246252
-0.0239778
-0.0232982
-0.0225881
-0.021859
-0.0211257
-0.020405
-0.0197131
-0.0190667
-0.0184783
-0.0179549
-0.0174972
-0.0170985
-0.016744
-0.0164261
-0.0160203
-0.0155946
-0.015094
-0.0144758
-0.0137066
-0.0127639
-0.0116348
-0.0103216
-0.00884108
-0.0072271
-0.00552695
-0.00380118
-0.00211856
-0.000554806
0.000814379
0.00191531
0.00268597
0.00307903
0.0030812
0.00272125
0.00208137
0.00127461
0.000429072
-0.000345051
-0.000967751
-0.00140039
-0.00163813
-0.00170317
-0.00163136
-0.00146656
-0.00124683
-0.00100702
-0.00076861
-0.00055005
-0.000359086
-0.000197279
-6.31523e-05
-0.0230737
-0.0240993
-0.0246035
-0.024579
-0.0242287
-0.0237571
-0.0232787
-0.0228232
-0.0223759
-0.0219127
-0.0214189
-0.0208924
-0.0203391
-0.0197684
-0.0191918
-0.0186207
-0.0180672
-0.0175408
-0.0170467
-0.0165858
-0.0161544
-0.0157402
-0.0153269
-0.0148783
-0.0143938
-0.0138492
-0.0132188
-0.0124799
-0.0116165
-0.0106189
-0.00948795
-0.00823447
-0.00688234
-0.00546596
-0.00403076
-0.00262883
-0.00131863
-0.000158971
0.000792724
0.00148876
0.00189326
0.00199551
0.0018141
0.00140461
0.000846273
0.000231314
-0.000355913
-0.000848109
-0.00120716
-0.0014198
-0.0014944
-0.00145483
-0.00133216
-0.00115491
-0.000951864
-0.000744059
-0.000547274
-0.000367228
-0.000205031
-6.50662e-05
-0.0202223
-0.0211366
-0.0216327
-0.0216925
-0.0214764
-0.0211526
-0.0208193
-0.0205046
-0.0201977
-0.0198776
-0.0195294
-0.0191485
-0.0187371
-0.0183009
-0.0178474
-0.0173843
-0.0169204
-0.0164626
-0.0160149
-0.0155775
-0.015149
-0.0147208
-0.0142817
-0.0138155
-0.0133155
-0.0127666
-0.0121527
-0.0114589
-0.010675
-0.00979437
-0.00881786
-0.0077525
-0.00661547
-0.00543165
-0.00423479
-0.00306382
-0.00196314
-0.000977537
-0.000151331
0.000479154
0.000886342
0.00106091
0.00101403
0.000782414
0.000420839
-4.18497e-06
-0.000430307
-0.000802444
-0.00108538
-0.00126231
-0.00133326
-0.00131086
-0.00121667
-0.00107309
-0.000900972
-0.000717039
-0.000535113
-0.000366172
-0.000211666
-7.26733e-05
-0.0176629
-0.0184711
-0.0189464
-0.019064
-0.0189494
-0.01874
-0.0185195
-0.0183138
-0.0181151
-0.0179053
-0.0176704
-0.0174043
-0.0171071
-0.0167815
-0.0164324
-0.016065
-0.0156853
-0.0152983
-0.0149067
-0.0145108
-0.0141102
-0.013699
-0.0132705
-0.0128158
-0.0123303
-0.011804
-0.0112268
-0.0105892
-0.00988526
-0.00911096
-0.00826766
-0.00736023
-0.00640118
-0.00540834
-0.00440679
-0.0034253
-0.00249713
-0.00165598
-0.000935498
-0.00036347
3.88471e-05
0.000263386
0.000315752
0.000219456
1.18624e-05
-0.000260193