/*--------------------------------*- C++ -*----------------------------------*\
| =========                 |                                                 |
| \\      /  F ield         | OpenFOAM: The Open Source CFD Toolbox           |
|  \\    /   O peration     | Version:  2312                                  |
|   \\  /    A nd           | Website:  www.openfoam.com                      |
|    \\/     M anipulation  |                                                 |
\*---------------------------------------------------------------------------*/
FoamFile
{
    version     2.0;
    format      ascii;
    arch        "LSB;label=32;scalar=64";
    class       volVectorField;
    location    "132";
    object      U;
}
// * * * * * * * * * * * * * * * * * * * * * * * * * * * * * * * * * * * * * //

dimensions      [0 1 -1 0 0 0 0];

internalField   nonuniform List<vector> 
5478
(
(-0.0256331 0.0261872 -1.32932e-19)
(-0.0171146 0.0396862 0)
(0.0536267 0.0293853 2.03677e-19)
(0.191578 0.00407059 -3.5885e-19)
(0.398723 -0.0264415 2.37707e-19)
(0.647011 -0.0545957 -7.033e-20)
(0.888937 -0.077125 -1.2222e-19)
(1.08442 -0.0947036 0)
(1.21103 -0.108826 0)
(1.27011 -0.119735 1.31577e-19)
(1.27438 -0.127238 -6.67885e-20)
(1.24262 -0.128487 -9.23599e-20)
(1.20029 -0.130558 -3.23503e-20)
(1.15472 -0.117351 0)
(1.10457 -0.119942 6.50084e-20)
(-0.0228797 0.0164042 2.66229e-19)
(0.0104012 0.0136236 0)
(0.135858 -0.00421296 0)
(0.359729 -0.0245294 -1.77924e-19)
(0.645046 -0.0369988 2.3551e-19)
(0.920487 -0.0416561 6.85214e-20)
(1.13182 -0.0440097 -1.1209e-19)
(1.2579 -0.048874 9.94008e-20)
(1.30684 -0.0572309 2.2876e-19)
(1.30185 -0.0673124 -1.97328e-19)
(1.26861 -0.0753877 3.34097e-21)
(1.23091 -0.080702 0)
(1.19552 -0.0811512 3.22917e-20)
(1.16636 -0.0726908 0)
(1.14438 -0.0763701 0)
(-0.0167446 0.00908535 -6.89558e-22)
(0.0640008 -0.00868616 -1.21875e-19)
(0.280131 -0.0255743 1.81423e-22)
(0.5987 -0.0259546 0)
(0.913399 -0.0142676 -7.64136e-20)
(1.14502 -0.00263034 6.43431e-20)
(1.27324 0.00112307 5.35805e-20)
(1.3173 -0.00386506 0)
(1.31131 -0.0137414 -7.67678e-20)
(1.28499 -0.0238564 6.21713e-20)
(1.25743 -0.0311642 4.978e-20)
(1.23149 -0.0351375 0)
(1.20761 -0.034764 0)
(1.18477 -0.0343496 -8.92582e-20)
(1.16057 -0.0323542 7.95287e-20)
(-0.001822 0.00152426 -1.40687e-19)
(0.157735 -0.0255464 1.20417e-19)
(0.488827 -0.0224856 -1.04163e-19)
(0.85634 0.00460435 8.99184e-20)
(1.12701 0.0302243 1.51578e-19)
(1.27236 0.0425675 -1.26594e-19)
(1.32346 0.0419117 -5.35526e-20)
(1.32436 0.0340862 4.05931e-20)
(1.30642 0.0245398 -3.91708e-20)
(1.28439 0.0161852 0)
(1.2597 0.00961055 0)
(1.23355 0.00467681 -6.94951e-20)
(1.20673 0.000966425 8.86703e-20)
(1.18127 0.000269426 -4.93145e-20)
(1.15604 -0.0044063 0)
(0.027868 -0.00727769 7.0937e-20)
(0.30106 -0.0289649 6.00108e-20)
(0.725522 0.0103068 -2.13141e-19)
(1.0676 0.0551502 2.26426e-21)
(1.25587 0.0797661 -3.14043e-21)
(1.32762 0.0856411 -1.43124e-21)
(1.3379 0.0810906 4.90531e-20)
(1.32318 0.0726257 4.18952e-20)
(1.29979 0.0633568 2.9394e-20)
(1.27257 0.0542128 -5.1604e-21)
(1.24535 0.0459875 -6.67439e-20)
(1.22013 0.0388019 0)
(1.19837 0.0347402 2.85604e-20)
(1.17895 0.0289107 -2.04068e-20)
(1.16379 0.0285166 3.75966e-20)
(0.078512 -0.0142045 -1.488e-19)
(0.485866 -0.00576724 1.61513e-19)
(0.936031 0.0657183 -5.459e-20)
(1.20946 0.113228 4.18707e-20)
(1.32382 0.130243 -7.63613e-20)
(1.34923 0.129604 -5.68661e-20)
(1.33662 0.121324 1.26755e-21)
(1.3116 0.110481 0)
(1.28436 0.0991622 6.01005e-20)
(1.25942 0.0886137 -5.34454e-20)
(1.23715 0.0793704 2.10925e-20)
(1.2169 0.0718604 0)
(1.19726 0.0650189 1.28378e-20)
(1.17846 0.0591413 -2.1781e-20)
(1.15781 0.0559186 0)
(0.152578 -0.0120519 -1.84982e-20)
(0.677156 0.0480774 1.09476e-21)
(1.09537 0.134291 2.72947e-20)
(1.29492 0.175108 4.47186e-20)
(1.35311 0.182312 -3.40011e-20)
(1.34795 0.174334 5.72864e-20)
(1.32299 0.16162 -1.30252e-20)
(1.2955 0.148217 0)
(1.2701 0.135408 -3.53656e-20)
(1.24623 0.123398 2.37993e-21)
(1.22342 0.11235 2.94487e-20)
(1.20182 0.102043 0)
(1.18219 0.0933455 -1.88179e-20)
(1.16413 0.0845993 0)
(1.14903 0.0812955 1.13121e-20)
(0.245667 0.00610109 -1.96638e-20)
(0.840531 0.123322 0)
(1.20284 0.210573 2.7419e-20)
(1.33633 0.239294 0)
(1.35437 0.235052 0)
(1.33277 0.21997 0)
(1.30344 0.203076 -1.11088e-20)
(1.27513 0.186482 0)
(1.24891 0.170544 7.13817e-21)
(1.2253 0.155583 0)
(1.20465 0.141986 -9.22802e-21)
(1.18681 0.130014 0)
(1.17082 0.119163 5.97383e-21)
(1.15626 0.109868 0)
(1.14128 0.10453 3.85361e-21)
(-0.0104473 -0.00130258 -1.24998e-20)
(-0.0401449 -0.0673237 0)
(-0.0886386 -0.124375 1.98539e-20)
(-0.139499 -0.171288 0)
(-0.188336 -0.222392 0)
(-0.233694 -0.282279 0)
(-0.273251 -0.348423 -1.30278e-20)
(-0.304057 -0.41656 0)
(-0.322992 -0.481102 1.05573e-20)
(-0.327362 -0.535 0)
(-0.315256 -0.569969 -1.66396e-20)
(-0.285567 -0.577854 0)
(-0.237718 -0.551995 1.28168e-20)
(-0.176102 -0.487425 0)
(-0.0985031 -0.387655 9.85232e-21)
(-0.0156073 0.0284968 6.39102e-20)
(-0.0452706 -0.0130467 -4.6566e-20)
(-0.0919352 -0.0614329 2.2464e-20)
(-0.139682 -0.105615 7.50115e-20)
(-0.18492 -0.156411 7.52126e-22)
(-0.22689 -0.218322 -5.98286e-20)
(-0.263986 -0.289902 3.98051e-20)
(-0.294294 -0.367837 0)
(-0.316152 -0.447103 3.29974e-20)
(-0.328654 -0.5209 -5.73861e-22)
(-0.331003 -0.580984 -1.73392e-20)
(-0.322075 -0.617971 0)
(-0.301493 -0.6232 -3.63049e-20)
(-0.273512 -0.590649 0)
(-0.212218 -0.520715 -4.44606e-20)
(-0.0224341 0.0557191 1.0921e-19)
(-0.0490161 0.0390094 2.54261e-20)
(-0.0863451 -0.000186475 -4.22249e-20)
(-0.122 -0.0403984 -1.17512e-19)
(-0.152984 -0.0887598 7.02444e-20)
(-0.178549 -0.149345 6.56485e-20)
(-0.197012 -0.221484 -1.19131e-19)
(-0.207051 -0.302183 0)
(-0.20857 -0.386564 -9.30362e-20)
(-0.203678 -0.468163 8.27262e-20)
(-0.195708 -0.539775 3.49101e-20)
(-0.186896 -0.593833 0)
(-0.171931 -0.621891 2.34755e-20)
(-0.178355 -0.617106 -3.29161e-20)
(-0.117931 -0.579892 0)
(-0.02938 0.0733349 5.90928e-20)
(-0.0509832 0.0792939 -1.54398e-19)
(-0.073687 0.0502665 1.85079e-19)
(-0.0919867 0.0147409 -1.67669e-19)
(-0.102191 -0.0298843 -7.75855e-20)
(-0.102135 -0.0874081 7.0758e-20)
(-0.0900089 -0.157423 6.09322e-20)
(-0.0646307 -0.236251 5.76491e-20)
(-0.0266629 -0.318164 -1.48547e-19)
(0.0193981 -0.395323 4.69008e-21)
(0.0658563 -0.460082 3.8512e-20)
(0.101246 -0.510563 0)
(0.152294 -0.530966 4.05974e-20)
(0.122012 -0.542358 8.47649e-20)
(0.213715 -0.508395 -4.64178e-20)
(-0.0341722 0.0783055 1.43012e-21)
(-0.0507653 0.102217 1.09882e-19)
(-0.0565561 0.0836423 -9.79722e-20)
(-0.0529818 0.0531125 8.52789e-20)
(-0.0370076 0.0122397 1.57615e-19)
(-0.00491853 -0.0422359 -1.43521e-19)
(0.0466003 -0.109836 -6.58492e-20)
(0.117127 -0.187024 -1.73938e-19)
(0.202576 -0.266303 1.53815e-19)
(0.296044 -0.338055 0)
(0.386187 -0.391275 0)
(0.455913 -0.430909 9.92341e-20)
(0.542358 -0.429272 -2.00098e-19)
(0.529858 -0.43007 6.34036e-20)
(0.645045 -0.372892 0)
(-0.0352926 0.0714694 -2.53935e-22)
(-0.0474554 0.105976 -1.10868e-19)
(-0.03661 0.096973 2.97191e-19)
(-0.00941257 0.0709448 -8.84383e-20)
(0.0369379 0.0323238 -8.00804e-20)
(0.107221 -0.0193939 7.28085e-20)
(0.205046 -0.083417 6.58649e-20)
(0.327634 -0.15478 1.15929e-19)
(0.463932 -0.225364 -2.02464e-19)
(0.600154 -0.285514 8.26089e-20)
(0.714827 -0.328345 6.60049e-20)
(0.807883 -0.352331 0)
(0.880143 -0.348958 0)
(0.88753 -0.331822 9.31123e-20)
(0.964158 -0.293877 -8.28853e-20)
(-0.0328403 0.0568692 9.09865e-22)
(-0.0409167 0.0926115 0)
(-0.0148729 0.0891256 0)
(0.0370175 0.0649279 1.81955e-19)
(0.118781 0.0271825 -7.99791e-20)
(0.236915 -0.0223844 7.21801e-20)
(0.390662 -0.0808119 1.29639e-19)
(0.566161 -0.140838 -1.14948e-19)
(0.7414 -0.195869 9.96077e-20)
(0.893124 -0.237109 -8.26748e-20)
(1.0034 -0.26598 -4.22341e-21)
(1.08054 -0.272921 0)
(1.10447 -0.268652 3.56951e-20)
(1.10926 -0.249111 0)
(1.10411 -0.219301 0)
(-0.028891 0.0401619 -1.29795e-19)
(-0.0316671 0.0678654 0)
(0.0107783 0.0635494 -2.03771e-19)
(0.0949007 0.0393077 3.60466e-19)
(0.22774 0.00293945 -4.01651e-19)
(0.409672 -0.0411322 -7.26517e-20)
(0.622028 -0.0862163 1.26469e-19)
(0.832167 -0.126835 0)
(1.00996 -0.159358 0)
(1.13292 -0.182496 -1.42391e-19)
(1.20204 -0.19551 -4.67818e-20)
(1.21943 -0.196766 9.94557e-20)
(1.19735 -0.192257 -3.57632e-20)
(1.16947 -0.178433 0)
(1.11461 -0.156527 -6.66502e-20)
(0.0153932 -0.178766 0)
(0.256831 0.275559 4.1639e-21)
(0.412956 0.645076 -3.85229e-21)
(0.56465 0.716908 0)
(0.634789 0.740226 0)
(0.437845 0.810939 -1.07948e-22)
(0.47463 0.487149 0)
(0.664634 -0.00146648 0)
(0.847623 -0.414248 9.41253e-23)
(0.908228 -0.481369 0)
(0.918551 -0.490848 0)
(0.826475 -0.609221 -8.80979e-23)
(0.810919 -0.451226 0)
(0.844236 -0.322836 -6.84085e-23)
(0.940511 0.0743401 -8.07757e-23)
(0.939857 0.34118 0)
(0.99648 0.490508 -5.4166e-22)
(1.02856 0.62352 6.33321e-22)
(0.981058 0.246286 0)
(1.03152 0.00969429 5.26395e-22)
(1.10045 -0.38728 -6.21164e-22)
(1.06121 -0.643817 1.21771e-22)
(1.09757 -0.239713 -2.16608e-22)
(1.06401 0.0259878 2.06977e-22)
(1.13111 0.460707 -2.23345e-22)
(1.18696 0.670986 0)
(1.15102 -0.0686735 -2.48631e-22)
(1.03917 -0.65463 2.37728e-22)
(1.07352 -0.119509 -1.02085e-22)
(1.05036 0.338463 0)
(0.997257 0.103889 -1.02907e-22)
(0.959731 -0.107047 0)
(0.979017 -0.0296759 -3.24997e-23)
(0.96128 0.0270941 -1.28169e-23)
(0.963721 0.00149263 1.34041e-24)
(0.950747 -0.00373458 -8.61237e-24)
(0.951157 0.00254464 0)
(0.952833 0.00179898 2.35816e-24)
(-0.206298 -0.33819 1.5917e-20)
(0.0608182 0.0910004 -1.2575e-22)
(0.285402 0.461651 -9.12376e-21)
(0.502586 0.62638 8.70139e-21)
(0.507078 0.783898 0)
(0.377164 0.846804 1.08805e-22)
(0.556368 0.428691 -2.63809e-22)
(0.793671 -0.0871131 0)
(0.932667 -0.471648 -9.4824e-23)
(0.960268 -0.507415 0)
(0.972459 -0.464346 0)
(0.855971 -0.591704 8.87203e-23)
(0.872672 -0.458957 0)
(0.877412 -0.345217 2.50573e-21)
(0.922928 0.0534779 -2.08434e-21)
(0.926939 0.318763 2.56073e-21)
(0.949623 0.468743 -2.44438e-21)
(1.01017 0.622718 -1.1687e-22)
(0.962618 0.254284 0)
(1.04296 -0.00600777 0)
(1.12331 -0.386472 -1.2413e-22)
(1.05345 -0.646313 1.04051e-21)
(1.10801 -0.2389 -1.83391e-21)
(1.04313 0.015314 9.02689e-22)
(1.10553 0.439498 6.91153e-22)
(1.19783 0.667349 0)
(1.17151 -0.0450313 4.44493e-22)
(1.04618 -0.649675 0)
(1.06006 -0.124411 1.02443e-22)
(1.04777 0.34118 -2.81701e-22)
(1.01115 0.111477 4.68777e-22)
(0.968954 -0.105878 -4.5854e-23)
(0.985065 -0.0303244 7.07758e-23)
(0.969503 0.02831 2.013e-24)
(0.96848 0.00228666 1.55508e-23)
(0.956356 -0.00308012 -7.27571e-24)
(0.958244 0.00242598 -5.8043e-25)
(0.958167 0.00178091 5.27404e-25)
(-0.229549 -0.456873 1.92495e-20)
(-0.0331914 -0.13351 -3.3323e-20)
(0.171809 0.276554 1.15495e-21)
(0.368266 0.567572 1.26524e-20)
(0.341506 0.818085 1.76438e-22)
(0.35312 0.829673 -2.21003e-22)
(0.658162 0.353119 2.68357e-22)
(0.93094 -0.141524 -5.51742e-22)
(1.02299 -0.488599 0)
(1.00605 -0.520435 8.0219e-21)
(1.01963 -0.431061 -7.65208e-21)
(0.868781 -0.570752 -1.8254e-22)
(0.916256 -0.481331 0)
(0.918873 -0.363456 -4.93028e-21)
(0.910243 0.0376806 4.54183e-21)
(0.921457 0.309648 -2.54555e-21)
(0.906663 0.452355 2.42904e-21)
(0.995665 0.61615 1.88564e-21)
(0.949223 0.263334 -1.59557e-21)
(1.05149 -0.016271 0)
(1.13843 -0.37285 0)
(1.03799 -0.643759 1.94235e-21)
(1.11015 -0.24221 -1.85455e-21)
(1.02022 0.00686746 -1.98622e-21)
(1.07126 0.413162 -1.56344e-23)
(1.19644 0.66103 1.83503e-21)
(1.18255 -0.0137767 -9.40725e-23)
(1.04865 -0.632403 -6.96399e-22)
(1.0414 -0.131066 1.30489e-21)
(1.0419 0.341373 -1.16212e-21)
(1.02205 0.120529 5.98134e-23)
(0.975884 -0.102507 -1.49654e-22)
(0.988646 -0.0309554 4.87994e-23)
(0.975505 0.0295302 -4.66591e-23)
(0.970688 0.00337762 -1.04308e-23)
(0.95952 -0.00253223 -4.47275e-24)
(0.96293 0.00231092 1.36308e-23)
(0.961199 0.0018621 2.27056e-24)
(0.0354882 -0.474862 0)
(0.0066095 -0.307748 6.10265e-21)
(0.0975101 0.094615 -6.01985e-21)
(0.244553 0.484798 0)
(0.23571 0.773635 -1.81387e-22)
(0.390218 0.740897 2.2711e-22)
(0.765481 0.262059 0)
(1.05821 -0.184274 1.5225e-23)
(1.12298 -0.481368 -4.22607e-22)
(1.05361 -0.530791 0)
(1.08085 -0.398175 -6.52446e-21)
(0.908456 -0.535509 6.40769e-21)
(0.938418 -0.508837 -3.0144e-22)
(0.963367 -0.382494 -5.14279e-21)
(0.919155 0.0130873 4.9049e-21)
(0.921715 0.283592 3.34025e-22)
(0.85433 0.425053 0)
(0.960281 0.608269 -2.18192e-22)
(0.931072 0.275913 3.02748e-21)
(1.05215 -0.0225392 4.33352e-22)
(1.14815 -0.356311 3.56124e-22)
(1.02236 -0.63935 -2.91109e-21)
(1.10572 -0.251259 -3.75922e-21)
(0.997182 -0.00515467 4.61233e-21)
(1.02894 0.376077 -4.88422e-22)
(1.17722 0.646847 0)
(1.18291 0.0166239 -3.5953e-22)
(1.05077 -0.61135 7.05534e-22)
(1.01895 -0.14227 -1.33334e-21)
(1.03112 0.335503 1.18695e-21)
(1.02843 0.128016 -1.62207e-22)
(0.980275 -0.0982847 0)
(0.989798 -0.0320084 -5.04827e-23)
(0.979167 0.0305794 9.22056e-23)
(0.970397 0.00468291 3.11432e-23)
(0.960365 -0.00212933 2.91515e-23)
(0.965295 0.0021825 -1.36404e-23)
(0.962011 0.00203526 -5.87508e-26)
(0.482268 -0.341109 1.48087e-22)
(0.285745 -0.31607 8.78003e-23)
(0.168155 -0.0704599 0)
(0.244289 0.359925 0)
(0.268984 0.702621 0)
(0.502535 0.65168 0)
(0.888999 0.188001 1.77274e-20)
(1.16717 -0.209828 -3.29096e-20)
(1.21747 -0.442429 1.61843e-20)
(1.08926 -0.52287 0)
(1.11266 -0.370882 -6.25055e-21)
(0.963192 -0.481716 6.15139e-21)
(0.943218 -0.5317 5.48459e-21)
(0.98752 -0.412631 -4.60711e-21)
(0.930618 -0.010222 5.76103e-21)
(0.920253 0.285735 -5.83499e-21)
(0.812626 0.414098 -2.89129e-22)
(0.931075 0.5924 -2.88493e-21)
(0.921219 0.283619 2.74828e-21)
(1.04998 -0.0248535 3.58436e-22)
(1.15192 -0.331865 3.52872e-22)
(1.00707 -0.632288 3.56329e-21)
(1.09137 -0.263492 -3.84159e-21)
(0.971384 -0.0115571 -1.09637e-21)
(0.984166 0.340883 -4.96704e-22)
(1.15265 0.635775 -3.73572e-22)
(1.17578 0.0525869 0)
(1.05303 -0.585058 0)
(0.993588 -0.153513 0)
(1.01824 0.328754 0)
(1.03168 0.136474 4.358e-22)
(0.982829 -0.092191 -2.58662e-22)
(0.988959 -0.0329124 1.0388e-22)
(0.980609 0.0316643 -2.86722e-22)
(0.967886 0.00626694 3.116e-23)
(0.959232 -0.00185686 5.44532e-24)
(0.965608 0.00205388 -1.77312e-23)
(0.960826 0.00229922 -5.63797e-24)
(0.849906 -0.235608 -1.55768e-22)
(0.714304 -0.192163 -6.75289e-21)
(0.496309 -0.112613 6.41317e-21)
(0.380567 0.21043 1.03675e-20)
(0.390844 0.55901 -9.87535e-21)
(0.643523 0.541489 2.54982e-20)
(1.03021 0.136723 -2.36297e-20)
(1.25902 -0.209887 4.77403e-22)
(1.28839 -0.382776 -4.23064e-22)
(1.12834 -0.495485 0)
(1.11834 -0.357389 -2.15035e-22)
(1.01821 -0.423495 1.10825e-20)
(0.941984 -0.533796 -1.05493e-20)
(0.97848 -0.443009 -3.36049e-22)
(0.939025 -0.0504187 0)
(0.921204 0.254027 -5.76219e-21)
(0.773388 0.385708 9.55266e-21)
(0.874247 0.578148 -3.71447e-21)
(0.898753 0.300588 0)
(1.04637 -0.0191256 2.47835e-21)
(1.15142 -0.303126 1.48765e-22)
(0.996599 -0.621196 -3.06784e-21)
(1.06999 -0.280624 -5.05311e-21)
(0.944966 -0.0248339 4.86288e-21)
(0.939114 0.297304 -3.58354e-21)
(1.10945 0.612824 1.17982e-21)
(1.15778 0.0851947 2.31614e-21)
(1.05796 -0.558135 -2.05876e-21)
(0.967614 -0.167845 1.95831e-21)
(1.00041 0.315028 -5.1354e-22)
(1.02986 0.143038 4.88245e-22)
(0.983322 -0.0857006 0)
(0.98638 -0.0341505 1.06265e-22)
(0.97992 0.0325425 -2.24427e-23)
(0.963544 0.00800612 0)
(0.956601 -0.00176258 -2.87795e-23)
(0.964272 0.00191276 1.13986e-23)
(0.957989 0.00264596 -2.19123e-24)
(1.01944 -0.184396 0)
(0.938255 -0.12285 0)
(0.85825 -0.0577708 1.56995e-23)
(0.668603 0.170677 0)
(0.579927 0.468903 0)
(0.829263 0.456744 1.84054e-20)
(1.18742 0.0952918 -1.75724e-20)
(1.33406 -0.203193 2.77706e-20)
(1.33017 -0.326686 -2.65325e-20)
(1.17138 -0.458239 0)
(1.11705 -0.351973 -2.02962e-22)
(1.05394 -0.373086 1.71705e-22)
(0.952692 -0.511628 -1.11671e-20)
(0.950167 -0.485906 -2.41528e-21)
(0.933736 -0.0944923 1.22625e-20)
(0.912739 0.263149 1.88146e-22)
(0.739655 0.388079 -1.52467e-22)
(0.843952 0.562058 5.15932e-21)
(0.889085 0.299747 -5.09686e-21)
(1.04958 -0.0197354 0)
(1.15003 -0.268558 0)
(0.988626 -0.606035 -1.94674e-22)
(1.04234 -0.297593 0)
(0.912664 -0.0307318 4.77762e-21)
(0.896074 0.2641 -4.45765e-22)
(1.07893 0.605028 -3.35243e-21)
(1.14095 0.119397 -1.76925e-21)
(1.06422 -0.526961 1.2101e-21)
(0.942538 -0.179672 -2.32369e-22)
(0.983008 0.30355 0)
(1.02601 0.149695 -2.32144e-22)
(0.982894 -0.0784922 2.20076e-22)
(0.982774 -0.0351299 6.49933e-23)
(0.97754 0.0335933 2.5908e-23)
(0.958004 0.00993622 -4.24983e-23)
(0.953056 -0.00179379 1.00277e-23)
(0.96176 0.00181269 0)
(0.953934 0.00308453 4.38809e-24)
(1.05732 -0.156682 4.08522e-20)
(1.00823 -0.121235 1.0552e-20)
(0.985448 -0.0907625 -1.61302e-20)
(0.874565 0.0702883 2.06358e-20)
(0.779353 0.334595 -1.41064e-20)
(0.988258 0.3793 -3.45308e-23)
(1.27778 0.136325 0)
(1.3618 -0.114767 -2.14672e-22)
(1.34448 -0.230339 -1.8436e-22)
(1.20429 -0.390112 0)
(1.12772 -0.336675 -1.2528e-20)
(1.07371 -0.329937 1.1917e-20)
(0.97531 -0.467233 1.56143e-22)
(0.917392 -0.501984 1.33667e-20)
(0.902278 -0.173489 -1.26629e-20)
(0.891082 0.209087 2.01431e-22)
(0.715485 0.352935 1.61354e-22)
(0.781729 0.542336 0)
(0.846674 0.327891 4.16244e-21)
(1.05132 0.00478229 -3.9525e-21)
(1.15343 -0.229925 -2.80714e-21)
(0.983881 -0.583449 -8.32227e-22)
(1.00811 -0.313176 3.50307e-21)
(0.878118 -0.048386 -4.87209e-21)
(0.854972 0.211438 1.00175e-21)
(1.0265 0.571837 5.62406e-21)
(1.1157 0.155645 -1.65038e-21)
(1.06866 -0.492735 1.88077e-21)
(0.922491 -0.193606 -1.34803e-21)
(0.95977 0.282864 0)
(1.01626 0.155885 0)
(0.980824 -0.0700285 0)
(0.978431 -0.0362451 4.32045e-23)
(0.973767 0.0341604 -6.26745e-23)
(0.951879 0.0118287 3.96587e-23)
(0.949104 -0.00207103 -2.64608e-23)
(0.958479 0.0016806 -1.03434e-23)
(0.949121 0.00358107 0)
(1.0733 -0.092282 0)
(1.03481 -0.0547741 0)
(0.986101 -0.0351604 0)
(0.94996 0.0843429 0)
(0.961323 0.209768 0)
(1.16818 0.223752 0)
(1.34282 0.0750789 0)
(1.33103 -0.110956 0)
(1.31958 -0.155238 0)
(1.21478 -0.30705 0)
(1.13347 -0.296275 0)
(1.09161 -0.25599 0)
(1.01648 -0.417424 0)
(0.89315 -0.530622 0)
(0.866621 -0.225887 0)
(0.844762 0.219898 0)
(0.665963 0.376158 0)
(0.75334 0.531796 0)
(0.848485 0.289705 0)
(1.07526 -0.0121917 0)
(1.16984 -0.190562 0)
(0.975583 -0.562279 0)
(0.966456 -0.339435 0)
(0.836318 -0.0497334 0)
(0.825589 0.182638 0)
(0.979228 0.565146 0)
(1.11435 0.175201 0)
(1.07306 -0.466012 0)
(0.908035 -0.198827 0)
(0.937094 0.269433 0)
(1.00698 0.15945 0)
(0.978042 -0.0622424 0)
(0.972293 -0.036184 0)
(0.968408 0.0361769 0)
(0.944571 0.0144552 0)
(0.94417 -0.0023742 0)
(0.953788 0.00176788 0)
(0.942822 0.00436861 0)
(1.08086 -0.0475648 0)
(1.06183 -0.0229216 0)
(1.02501 -0.0220876 0)
(1.01398 0.0633099 0)
(1.05779 0.135781 0)
(1.17064 0.1215 0)
(1.27278 0.0439042 0)
(1.27092 -0.0849223 0)
(1.23689 -0.158481 0)
(1.17213 -0.280699 0)
(1.09052 -0.261754 0)
(1.01803 -0.277976 0)
(0.984484 -0.401731 0)
(0.852805 -0.440753 0)
(0.807973 -0.148765 0)
(0.747094 0.28659 0)
(0.590402 0.394847 0)
(0.750093 0.491478 0)
(0.884428 0.212019 0)
(1.11464 -0.0946514 0)
(1.15372 -0.212253 0)
(0.935729 -0.514738 0)
(0.920602 -0.271897 0)
(0.750968 -0.00758892 0)
(0.756108 0.173834 0)
(0.933802 0.525671 0)
(1.1144 0.121111 0)
(1.0698 -0.440758 0)
(0.88453 -0.159694 0)
(0.899684 0.265441 0)
(0.990842 0.147819 0)
(0.972836 -0.0595065 0)
(0.961521 -0.0345426 0)
(0.958767 0.0391861 0)
(0.935538 0.0166164 0)
(0.938094 -0.00358752 0)
(0.947239 0.00180432 0)
(0.935072 0.00541393 0)
(1.08251 -0.0193145 0)
(1.07718 -0.00199384 0)
(1.06072 0.00275499 0)
(1.04973 0.0407336 0)
(1.08867 0.0733287 0)
(1.14281 0.0672614 0)
(1.20196 0.00866586 0)
(1.21004 -0.0834467 0)
(1.19366 -0.101799 0)
(1.15037 -0.221006 0)
(1.07213 -0.203019 0)
(1.05964 -0.192247 0)
(1.01309 -0.317063 0)
(0.811748 -0.39742 0)
(0.712278 -0.132377 0)
(0.628345 0.349268 0)
(0.575861 0.37502 0)
(0.786898 0.383477 0)
(0.963764 0.121406 0)
(1.12221 -0.117652 0)
(1.1521 -0.15102 0)
(0.947105 -0.465717 0)
(0.862356 -0.255611 0)
(0.660874 0.0115436 0)
(0.669779 0.128477 0)
(0.900775 0.458078 0)
(1.13488 0.109582 0)
(1.07007 -0.395147 0)
(0.858463 -0.141422 0)
(0.863484 0.24226 0)
(0.978133 0.135655 0)
(0.967605 -0.0526561 0)
(0.948284 -0.0328408 0)
(0.947684 0.0409868 0)
(0.927781 0.0188693 0)
(0.932619 -0.00473365 0)
(0.940267 0.00215659 0)
(0.927905 0.00667316 0)
(1.08273 0.000956989 0)
(1.07803 0.00993164 0)
(1.07762 0.00471856 0)
(1.07194 0.0269711 0)
(1.09253 0.033062 0)
(1.12254 0.0245991 0)
(1.15747 -0.00348453 0)
(1.15711 -0.0740291 0)
(1.14016 -0.0977343 0)
(1.1205 -0.184912 0)
(1.03112 -0.177767 0)
(1.00459 -0.227618 0)
(0.96145 -0.276112 0)
(0.798901 -0.257213 0)
(0.644411 -0.0376695 0)
(0.570018 0.369753 0)
(0.696686 0.29963 0)
(0.886425 0.284608 0)
(1.06832 0.0536954 0)
(1.12335 -0.1629 0)
(1.12193 -0.149156 0)
(0.962969 -0.384934 0)
(0.777719 -0.160365 0)
(0.585704 0.0680009 0)
(0.608745 0.0824703 0)
(0.860344 0.36893 0)
(1.13833 0.0524657 0)
(1.06333 -0.345409 0)
(0.807479 -0.0927928 0)
(0.81231 0.222778 0)
(0.964522 0.114799 0)
(0.960498 -0.0485792 0)
(0.931522 -0.0300493 0)
(0.933803 0.0429732 0)
(0.920737 0.0204272 0)
(0.928037 -0.00629052 0)
(0.933681 0.00263738 0)
(0.922627 0.0079973 0)
(1.07866 0.00986774 0)
(1.07887 0.0149859 0)
(1.08237 0.00556323 0)
(1.07709 0.0163421 0)
(1.09347 0.0107318 0)
(1.10218 0.00281408 0)
(1.12052 -0.0170105 0)
(1.12465 -0.0691885 0)
(1.10452 -0.0712472 0)
(1.09624 -0.152377 0)
(1.035 -0.122226 0)
(1.01836 -0.140792 0)
(0.932923 -0.189527 0)
(0.81817 -0.171003 0)
(0.696856 0.00243296 0)
(0.676933 0.327179 0)
(0.894071 0.198445 0)
(0.998572 0.170852 0)
(1.14243 0.00259487 0)
(1.11018 -0.141881 0)
(1.09597 -0.0927444 0)
(1.00538 -0.3082 0)
(0.734075 -0.0825868 0)
(0.623777 0.0925516 0)
(0.634204 0.01875 0)
(0.826195 0.26097 0)
(1.13781 0.018575 0)
(1.0549 -0.282125 0)
(0.745446 -0.0447456 0)
(0.77505 0.191585 0)
(0.966183 0.0886494 0)
(0.955877 -0.0401857 0)
(0.912735 -0.0255878 0)
(0.91878 0.0433487 0)
(0.916888 0.0205925 0)
(0.926216 -0.00798588 0)
(0.928777 0.00324088 0)
(0.920648 0.00919082 0)
(1.07275 0.0140807 0)
(1.07466 0.0155482 0)
(1.08002 0.00427871 0)
(1.07562 0.00942667 0)
(1.08706 -0.00134513 0)
(1.08546 -0.00918743 0)
(1.09849 -0.0209267 0)
(1.09367 -0.0610947 0)
(1.07942 -0.056884 0)
(1.07265 -0.121659 0)
(1.00493 -0.0993894 0)
(1.00825 -0.128484 0)
(0.943849 -0.144696 0)
(0.870609 -0.0873032 0)
(0.79368 0.035389 0)
(0.830923 0.235457 0)
(1.03159 0.107321 0)
(1.0594 0.123962 0)
(1.15951 -0.00446926 0)
(1.07946 -0.135283 0)
(1.0377 -0.0867259 0)
(1.01339 -0.227936 0)
(0.736908 0.00942612 0)
(0.760377 0.120478 0)
(0.772807 -0.00347812 0)
(0.837763 0.154464 0)
(1.1288 -0.0449977 0)
(1.03163 -0.203913 0)
(0.702845 0.0209963 0)
(0.791054 0.142034 0)
(0.983907 0.0547352 0)
(0.953895 -0.0292143 0)
(0.901938 -0.0193322 0)
(0.912146 0.0417059 0)
(0.922543 0.0186457 0)
(0.931189 -0.00974768 0)
(0.928956 0.0039972 0)
(0.924492 0.0100632 0)
(1.06527 0.0139881 0)
(1.06823 0.0142266 0)
(1.07387 0.00352313 0)
(1.06954 0.00419371 0)
(1.07785 -0.00575385 0)
(1.07169 -0.0149968 0)
(1.07937 -0.020802 0)
(1.07163 -0.0528296 0)
(1.05917 -0.0455639 0)
(1.05728 -0.0912088 0)
(1.00657 -0.0702738 0)
(1.01399 -0.0836458 0)
(0.950463 -0.0843453 0)
(0.909674 -0.0446695 0)
(0.878443 0.0233449 0)
(0.932261 0.158956 0)
(1.05996 0.0545249 0)
(1.04973 0.0792629 0)
(1.14018 -0.0111057 0)
(1.06844 -0.0844698 0)
(1.01309 -0.0411787 0)
(1.01312 -0.16165 0)
(0.791722 0.0476032 0)
(0.899973 0.0952987 0)
(0.945656 -0.0155211 0)
(0.90593 0.098585 0)
(1.11052 -0.0685287 0)
(1.01601 -0.124468 0)
(0.739172 0.0634882 0)
(0.866985 0.0787578 0)
(1.00859 0.0292285 0)
(0.963938 -0.0107848 0)
(0.917704 -0.0131426 0)
(0.927395 0.0374336 0)
(0.944616 0.0155214 0)
(0.947831 -0.0104821 0)
(0.940726 0.00517761 0)
(0.938525 0.0105707 0)
(1.05786 0.0129735 0)
(1.0605 0.0118836 0)
(1.0657 0.00310915 0)
(1.06143 0.00123055 0)
(1.06764 -0.00691452 0)
(1.05996 -0.0152863 0)
(1.06435 -0.0193 0)
(1.05685 -0.0413244 0)
(1.04612 -0.0347958 0)
(1.04485 -0.065987 0)
(1.00543 -0.0503833 0)
(1.01109 -0.0630224 0)
(0.96551 -0.055917 0)
(0.954208 -0.0224932 0)
(0.930266 0.0111819 0)
(0.974779 0.0974391 0)
(1.05052 0.025124 0)
(1.03538 0.063347 0)
(1.09902 -0.0130079 0)
(1.03796 -0.0631959 0)
(1.01185 -0.0284359 0)
(1.00565 -0.117642 0)
(0.873509 0.0639415 0)
(0.982623 0.0588697 0)
(1.01664 -0.0114725 0)
(0.965125 0.0735962 0)
(1.08067 -0.090985 0)
(0.988537 -0.0578838 0)
(0.828827 0.0979923 0)
(0.955005 0.0300369 0)
(1.01909 0.0142577 0)
(0.979109 0.00582155 0)
(0.950324 -0.00843604 0)
(0.956013 0.0334341 0)
(0.97528 0.0128702 0)
(0.970782 -0.00974557 0)
(0.961805 0.00686121 0)
(0.961301 0.0109236 0)
(1.05042 0.0114102 0)
(1.05279 0.00967018 0)
(1.05664 0.00306844 0)
(1.05369 -0.000106357 0)
(1.05695 -0.00579518 0)
(1.05089 -0.0136237 0)
(1.05211 -0.0154522 0)
(1.04584 -0.0313469 0)
(1.03716 -0.0262881 0)
(1.0356 -0.0462662 0)
(1.00866 -0.0357039 0)
(1.01468 -0.0409931 0)
(0.979739 -0.0339805 0)
(0.982187 -0.00897905 0)
(0.963942 -0.000231294 0)
(0.994223 0.0619996 0)
(1.03344 0.00880346 0)
(1.02378 0.0408989 0)
(1.07487 -0.00950506 0)
(1.02289 -0.0400864 0)
(1.01952 -0.00269434 0)
(0.997993 -0.0830177 0)
(0.929287 0.0558523 0)
(1.01576 0.0301759 0)
(1.02137 -0.0138458 0)
(1.00512 0.0668939 0)
(1.05997 -0.0779625 0)
(0.961243 -0.0148506 0)
(0.921887 0.0956923 0)
(1.01738 -0.00412761 0)
(1.01718 0.0155938 0)
(0.99967 0.0191587 0)
(0.984771 -0.00667587 0)
(0.986348 0.0296129 0)
(1.00584 0.0113532 0)
(0.994186 -0.007432 0)
(0.98659 0.00858841 0)
(0.988093 0.0111304 0)
(1.04354 0.00994117 0)
(1.04546 0.00801513 0)
(1.04823 0.00317968 0)
(1.0461 -0.000162461 0)
(1.04744 -0.00425031 0)
(1.0434 -0.0104472 0)
(1.04228 -0.0117316 0)
(1.03883 -0.0222291 0)
(1.03046 -0.0189206 0)
(1.03116 -0.0308812 0)
(1.01104 -0.0241784 0)
(1.01718 -0.0263224 0)
(0.991241 -0.0232158 0)
(0.999352 -0.00311366 0)
(0.98569 -0.00567924 0)
(1.00204 0.0368959 0)
(1.02818 0.000852403 0)
(1.01475 0.026485 0)
(1.05566 -0.00542455 0)
(1.00996 -0.0298948 0)
(1.02148 0.00458386 0)
(1.00324 -0.0597073 0)
(0.961148 0.0418633 0)
(1.03054 0.0162398 0)
(1.00516 -0.0112215 0)
(1.0181 0.055641 0)
(1.04804 -0.0675022 0)
(0.954499 0.00549357 0)
(0.989464 0.0810457 0)
(1.03605 -0.0160476 0)
(1.00684 0.0199815 0)
(1.02106 0.022348 0)
(1.00715 -0.00575915 0)
(1.00683 0.0264831 0)
(1.02665 0.0106435 0)
(1.01054 -0.00435902 0)
(1.00614 0.00934418 0)
(1.01018 0.0107482 0)
(1.03742 0.00866346 0)
(1.03901 0.00696608 0)
(1.04062 0.00334269 0)
(1.03954 0.000504396 0)
(1.03946 -0.00243941 0)
(1.03737 -0.00703132 0)
(1.03491 -0.00806626 0)
(1.03353 -0.014734 0)
(1.02617 -0.0131711 0)
(1.02785 -0.0195471 0)
(1.01328 -0.0167371 0)
(1.01877 -0.0159127 0)
(1.00127 -0.0159339 0)
(1.00762 -0.000520203 0)
(1.00057 -0.00723205 0)
(1.00573 0.0212748 0)
(1.02484 -0.00156752 0)
(1.00944 0.0136448 0)
(1.04309 -0.00120993 0)
(1.00687 -0.0206229 0)
(1.02094 0.00985086 0)
(1.00922 -0.0374944 0)
(0.975926 0.0278457 0)
(1.03487 0.0100029 0)
(0.995578 -0.00998589 0)
(1.02431 0.0442153 0)
(1.03948 -0.0443122 0)
(0.956978 0.0137614 0)
(1.02135 0.0593073 0)
(1.03244 -0.014428 0)
(1.0027 0.0225606 0)
(1.03477 0.0208881 0)
(1.01473 -0.00277242 0)
(1.01653 0.0226775 0)
(1.03595 0.0102844 0)
(1.01869 -0.000538114 0)
(1.01702 0.00926783 0)
(1.02267 0.00999663 0)
(1.03202 0.0076702 0)
(1.03343 0.00639325 0)
(1.03428 0.0035645 0)
(1.03394 0.00159571 0)
(1.0331 -0.000895639 0)
(1.03227 -0.00375839 0)
(1.02943 -0.00514955 0)
(1.02938 -0.00883568 0)
(1.02331 -0.00872378 0)
(1.02523 -0.0117474 0)
(1.0154 -0.0110019 0)
(1.01895 -0.00938746 0)
(1.00861 -0.0105967 0)
(1.01138 -0.00035241 0)
(1.00949 -0.00598804 0)
(1.0077 0.0107297 0)
(1.0233 -0.00173486 0)
(1.00791 0.00663231 0)
(1.03289 0.000492441 0)
(1.00731 -0.0134101 0)
(1.01684 0.00789719 0)
(1.0144 -0.0228201 0)
(0.986317 0.016626 0)
(1.0337 0.00697334 0)
(0.994705 -0.00632379 0)
(1.02171 0.0310384 0)
(1.03182 -0.0268837 0)
(0.970744 0.0123499 0)
(1.03088 0.0407466 0)
(1.02419 -0.00681285 0)
(1.00496 0.019194 0)
(1.03808 0.016999 0)
(1.01642 0.00100333 0)
(1.02105 0.0174605 0)
(1.03694 0.00970234 0)
(1.02179 0.00284923 0)
(1.02196 0.0080844 0)
(1.02748 0.00868102 0)
(1.02745 0.00685935 0)
(1.02873 0.00609091 0)
(1.02906 0.0037411 0)
(1.02913 0.00262364 0)
(1.0281 0.000346791 0)
(1.02795 -0.00111714 0)
(1.02548 -0.00279245 0)
(1.02584 -0.00451651 0)
(1.02144 -0.00531099 0)
(1.0229 -0.00649521 0)
(1.01667 -0.00677145 0)
(1.01866 -0.00549045 0)
(1.0129 -0.00642538 0)
(1.01347 -0.000832632 0)
(1.01379 -0.00383231 0)
(1.00996 0.00465116 0)
(1.02091 -0.00100105 0)
(1.0087 0.00261993 0)
(1.02554 0.000799605 0)
(1.00921 -0.00732619 0)
(1.01477 0.00526125 0)
(1.01635 -0.0110143 0)
(0.99481 0.00937872 0)
(1.02877 0.00557326 0)
(0.998681 -0.00257476 0)
(1.01933 0.0202493 0)
(1.02574 -0.0109836 0)
(0.985313 0.0105484 0)
(1.02907 0.0270713 0)
(1.0193 0.000761799 0)
(1.00967 0.0152158 0)
(1.03468 0.01507 0)
(1.01713 0.00485825 0)
(1.02317 0.0126709 0)
(1.03394 0.00979728 0)
(1.02285 0.00590254 0)
(1.02397 0.00705236 0)
(1.02839 0.00777347 0)
(1.02368 0.00618028 0)
(1.02471 0.00588019 0)
(1.02485 0.00379708 0)
(1.02506 0.00346901 0)
(1.02423 0.00123983 0)
(1.02429 0.000897565 0)
(1.02248 -0.00107178 0)
(1.02283 -0.00148003 0)
(1.01987 -0.00279889 0)
(1.02087 -0.00310982 0)
(1.01704 -0.00361471 0)
(1.01814 -0.00318618 0)
(1.01481 -0.00319433 0)
(1.01475 -0.00130831 0)
(1.01522 -0.00160681 0)
(1.01195 0.00124244 0)
(1.01862 -0.000123661 0)
(1.01043 0.000981434 0)
(1.02056 0.000583828 0)
(1.01091 -0.00280337 0)
(1.0137 0.00247054 0)
(1.01608 -0.00375713 0)
(1.00196 0.00466033 0)
(1.02354 0.00474846 0)
(1.00362 0.000590567 0)
(1.0171 0.0120694 0)
(1.02061 -0.0015254 0)
(0.997695 0.00739368 0)
(1.02518 0.0180305 0)
(1.01691 0.00578595 0)
(1.01334 0.0104436 0)
(1.02989 0.0133609 0)
(1.01815 0.00700599 0)
(1.02401 0.00839984 0)
(1.03031 0.00966215 0)
(1.02343 0.0074856 0)
(1.02486 0.00565493 0)
(1.02812 0.00673925 0)
(1.02054 0.00558475 0)
(1.02135 0.00563241 0)
(1.02147 0.00377931 0)
(1.02166 0.0040021 0)
(1.02115 0.00185241 0)
(1.02119 0.00224219 0)
(1.02009 0.000142289 0)
(1.02022 0.000525907 0)
(1.01849 -0.00102725 0)
(1.01899 -0.000908424 0)
(1.01679 -0.00140471 0)
(1.01735 -0.00168883 0)