/*--------------------------------*- C++ -*----------------------------------*\
| =========                 |                                                 |
| \\      /  F ield         | OpenFOAM: The Open Source CFD Toolbox           |
|  \\    /   O peration     | Version:  2312                                  |
|   \\  /    A nd           | Website:  www.openfoam.com                      |
|    \\/     M anipulation  |                                                 |
\*---------------------------------------------------------------------------*/
FoamFile
{
    version     2.0;
    format      ascii;
    arch        "LSB;label=32;scalar=64";
    class       volVectorField;
    location    "58.5";
    object      U;
}
// * * * * * * * * * * * * * * * * * * * * * * * * * * * * * * * * * * * * * //

dimensions      [0 1 -1 0 0 0 0];

internalField   nonuniform List<vector> 
940
(
(-0.133204 0.051715 1.55875e-19)
(0.244215 0.0425938 0)
(0.742648 0.104343 9.39164e-20)
(1.03543 0.0813672 -6.82779e-20)
(1.27453 0.104436 -8.24289e-20)
(1.33331 0.0488851 6.07452e-20)
(-0.0451555 0.0572542 -2.04206e-19)
(0.881711 0.133624 6.24379e-21)
(1.19807 0.219326 -5.69195e-20)
(1.32236 0.214034 6.07437e-20)
(1.28527 0.185772 0)
(1.20985 0.151488 -3.9569e-20)
(0.541418 0.260844 -2.41093e-20)
(1.20213 0.270552 -1.2193e-20)
(1.23005 0.324888 5.96419e-20)
(1.14821 0.214476 -3.39767e-20)
(1.13707 0.197467 1.54657e-20)
(1.15741 0.172182 0)
(-0.0995264 0.161622 2.03258e-20)
(-0.189258 0.115372 -1.45366e-20)
(-0.25977 0.0542379 2.15085e-21)
(-0.23449 -0.0479329 5.28217e-20)
(-0.258883 -0.118012 -2.59768e-20)
(-0.105778 -0.248292 0)
(-0.0996316 0.233666 4.86326e-20)
(-0.060479 0.230184 3.51039e-21)
(-0.0876112 0.159882 3.27119e-20)
(0.150708 0.0742367 1.57976e-21)
(0.12521 -0.09011 -6.04912e-20)
(0.534175 -0.143842 6.68782e-20)
(-0.12634 0.165625 -4.88861e-20)
(-0.059757 0.198446 0)
(0.187649 0.10793 -1.05988e-19)
(0.594724 0.0825049 7.70474e-20)
(0.717585 -0.00756006 1.0691e-19)
(1.14933 -0.00893804 -7.87265e-20)
(-0.154439 -0.30116 0)
(-0.065344 -0.265406 1.63573e-20)
(-0.105525 -0.208702 -7.34927e-22)
(0.0302609 -0.19752 -2.58724e-20)
(0.236716 -0.0475012 1.83966e-20)
(0.348787 0.781289 -5.77508e-21)
(0.343585 0.628111 0)
(0.751215 -0.404546 -2.28683e-21)
(0.491425 -0.406594 2.03994e-21)
(0.407442 0.305184 2.78745e-22)
(0.295203 0.291646 3.56415e-22)
(0.483502 -0.184543 0)
(0.466997 -0.243149 0)
(0.841461 0.0302875 0)
(0.874924 0.171777 0)
(0.874969 0.0447028 -2.69038e-23)
(0.321842 -0.207639 -5.06261e-20)
(0.335546 -0.249712 2.89707e-20)
(0.162981 -0.226062 -2.56606e-20)
(0.200268 -0.321062 1.63606e-20)
(0.144102 -0.184374 -1.44579e-20)
(0.12961 0.611889 0)
(0.478426 0.408832 0)
(0.861816 -0.462064 4.51662e-22)
(0.604462 -0.406481 0)
(0.359436 0.262914 4.85789e-21)
(0.559906 0.246239 -4.94479e-21)
(0.858283 -0.140125 -6.19472e-22)
(0.592749 -0.227913 0)
(0.673604 -0.00480833 -7.6525e-23)
(0.747224 0.165982 0)
(0.863738 0.0425732 2.68468e-23)
(0.993535 -0.0446241 -4.06172e-22)
(1.03515 -0.13686 0)
(0.811493 -0.0772419 3.90879e-20)
(0.798642 -0.208928 -3.43789e-20)
(0.545445 -0.284855 4.10769e-21)
(0.0725802 0.44221 -3.70099e-21)
(0.610899 0.396168 0)
(1.02416 -0.359201 -5.01326e-22)
(0.634906 -0.330052 9.40467e-23)
(0.277262 0.266134 -8.27937e-23)
(0.649891 0.157614 0)
(0.938315 -0.182613 6.58939e-22)
(0.792064 -0.210137 3.20346e-23)
(0.599681 -0.0220225 5.09823e-23)
(0.697575 0.134999 0)
(0.902055 0.0226886 0)
(1.2132 0.011917 0)
(1.2656 -0.0508594 0)
(1.1138 -0.0034885 0)
(1.10425 0.00636622 0)
(0.967072 -0.0297817 0)
(0.583408 0.310982 0)
(1.02451 0.197861 0)
(1.18837 -0.265811 0)
(0.867183 -0.22464 0)
(0.516479 0.194379 0)
(0.878865 0.0837365 0)
(0.993333 -0.153011 0)
(0.914916 -0.152559 0)
(0.702703 0.000531923 0)
(0.794903 0.103664 0)
(0.962138 0.00528385 0)
(1.1612 0.0412634 0)
(1.16932 -0.0260028 0)
(1.07539 0.00111651 0)
(1.08409 -0.0291289 0)
(1.05352 -0.00121431 0)
(0.965619 0.330072 0)
(1.2348 0.149388 0)
(1.24062 -0.272641 0)
(0.945266 -0.126506 0)
(0.770931 0.236993 0)
(1.06956 0.028201 0)
(1.10261 -0.182711 0)
(1.00615 -0.146114 0)
(0.86949 0.00670713 0)
(0.956834 0.0848054 0)
(1.02908 -0.00503718 0)
(1.14595 0.0574648 0)
(1.14469 0.0403956 0)
(1.10456 0.0333139 0)
(1.08422 0.0620057 0)
(1.0464 0.0468175 0)
(1.0535 0.196225 0)
(1.25424 0.0810865 0)
(1.20534 -0.129928 0)
(0.925858 -0.0460166 0)
(0.960528 0.177205 0)
(1.18293 -0.0131243 0)
(1.11035 -0.143435 0)
(0.994757 -0.0988223 0)
(0.952987 0.0138551 0)
(1.05179 0.0724145 0)
(1.06595 -0.00645326 0)
(1.11777 0.0699978 0)
(1.11679 0.064965 0)
(1.10797 0.0384951 0)
(1.08577 0.0600165 0)
(1.09085 0.0398869 0)
(1.08777 0.114618 0)
(1.17264 0.0814866 0)
(1.15708 -0.068081 0)
(0.995896 -0.0198169 0)
(1.06424 0.103729 0)
(1.18904 -0.0170647 0)
(1.1161 -0.109791 0)
(1.01936 -0.0932797 0)
(1.00335 -0.00879713 0)
(1.08995 0.0578178 0)
(1.08018 -0.00518826 0)
(1.10881 0.0667494 0)
(1.11297 0.071143 0)
(1.12008 0.0532619 0)
(1.10569 0.0686712 0)
(1.11628 0.0535389 0)
(1.10658 0.0699429 0)
(1.14854 0.0574564 0)
(1.15871 -0.0126486 0)
(1.07599 -0.00137835 0)
(1.10397 0.060559 0)
(1.17051 -0.0257159 0)
(1.12817 -0.0807287 0)
(1.05887 -0.0596067 0)
(1.02848 -0.0115834 0)
(1.09779 0.0458041 0)
(1.08843 -0.00214126 0)
(1.09954 0.0702948 0)
(1.10473 0.073917 0)
(1.11449 0.0618851 0)
(1.11064 0.0680017 0)
(1.12152 0.0583358 0)
(1.11894 0.0593457 0)
(1.13177 0.0550332 0)
(1.14315 0.0140903 0)
(1.11147 0.00727366 0)
(1.12214 0.0344965 0)
(1.15901 -0.0092865 0)
(1.12076 -0.0418586 0)
(1.07561 -0.0408198 0)
(1.05478 -0.0240155 0)
(1.10486 0.0363594 0)
(1.09926 0.00236609 0)
(1.10284 0.0437171 0)
(1.10775 0.0450099 0)
(1.1167 0.0381415 0)
(1.11843 0.0390807 0)
(1.12775 0.0339859 0)
(1.12956 0.030289 0)
(1.13948 0.0265242 0)
(1.14573 0.0125567 0)
(1.13904 0.000985341 0)
(1.13305 0.0122743 0)
(1.1519 -0.0157036 0)
(1.13402 -0.0337045 0)
(1.11616 -0.0262063 0)
(1.08188 -0.0295899 0)
(1.11738 0.0210835 0)
(1.11441 0.00128766 0)
(1.12331 0.055041 0)
(1.12684 0.0552147 0)
(1.13386 0.0503181 0)
(1.13633 0.0495385 0)
(1.14343 0.0440687 0)
(1.14499 0.0422409 0)
(1.15173 0.0353744 0)
(1.15322 0.0302508 0)
(1.15735 0.0172051 0)
(1.15214 0.0209189 0)
(1.16471 0.00641988 0)
(1.15119 -0.00558385 0)
(1.14696 0.00138097 0)
(1.12104 -0.019797 0)
(1.14571 0.0183985 0)
(1.14612 0.00978638 0)
(1.14456 0.00677298 0)
(1.14649 0.00720688 0)
(1.15397 0.00494721 0)
(1.15485 0.00482811 0)
(1.16348 0.00181385 0)
(1.16275 0.00176895 0)
(1.17256 -0.00260112 0)
(1.16969 -0.00147335 0)
(1.17984 -0.0104402 0)
(1.17113 -0.00531304 0)
(1.18454 -0.0135628 0)
(1.16688 -0.0217961 0)
(1.18079 -0.00573279 0)
(1.15383 -0.0327546 0)
(1.16416 -0.00250691 0)
(1.17001 0.000790141 0)
(1.26115 0.0320136 0)
(1.26012 0.031737 0)
(1.26872 0.0294073 0)
(1.26623 0.0301566 0)
(1.27762 0.0261888 0)
(1.27135 0.028075 0)
(1.28691 0.0231142 0)
(1.27468 0.0247187 0)
(1.29639 0.020613 0)
(1.27473 0.0170131 0)
(1.30207 0.0221976 0)
(1.27605 0.00685516 0)
(1.29236 0.0190362 0)
(1.28249 0.00744481 0)
(1.26869 0.00310707 0)
(1.28078 0.0106098 0)
(1.19504 0.132604 -9.10685e-21)
(1.11831 0.142411 5.8384e-20)
(1.26034 0.051316 0)
(1.17417 0.125012 7.36259e-21)
(1.10911 0.129019 -6.78977e-21)
(1.17314 0.0650091 -3.68099e-20)
(1.12802 0.0925481 0)
(1.11299 0.106087 -1.07159e-20)
(1.13119 0.071915 9.61557e-21)
(1.10967 0.0951017 1.13396e-22)
(1.10797 0.0971943 -1.19453e-22)
(1.11402 0.0902339 1.5882e-20)
(1.09568 0.0828839 1.42937e-22)
(1.09665 0.0758052 0)
(1.09834 0.0809188 0)
(1.08753 0.0815865 -1.09013e-22)
(1.09137 0.0697356 -4.27789e-22)
(1.08969 0.079625 0)
(1.09279 0.052312 9.2647e-23)
(1.09888 0.043005 7.70517e-22)
(1.0944 0.0495001 0)
(1.11661 0.0613587 1.50222e-22)
(1.12238 0.055457 -1.22239e-21)
(1.11788 0.0588324 0)
(1.13562 0.00936971 2.91675e-22)
(1.14268 0.00517331 4.94303e-22)
(1.13845 0.0087189 -8.84578e-22)
(1.25167 0.0364908 0)
(1.25934 0.0351749 0)
(1.2546 0.0334985 4.76889e-22)
(1.02388 0.270592 -6.83736e-21)
(1.0411 0.31055 9.29522e-21)
(0.963605 0.335694 2.49578e-21)
(0.900429 0.430592 1.43221e-22)
(0.976681 0.504858 0)
(0.802679 0.674012 -1.04734e-19)
(1.02829 0.216629 4.79578e-21)
(1.01888 0.270373 0)
(1.02424 0.30158 1.96105e-20)
(1.06305 0.453258 4.74698e-21)
(1.13575 0.454346 2.73242e-20)
(0.898178 0.553728 -3.89409e-20)
(1.16187 0.240067 0)
(1.19959 0.285248 1.08943e-20)
(1.16857 0.272041 -2.48475e-20)
(1.12725 0.356122 1.85924e-20)
(1.23228 0.318917 -7.21428e-21)
(0.921895 0.387954 -2.43307e-20)
(0.780278 0.101444 0)
(0.72981 0.113747 1.91396e-20)
(0.654757 0.130228 -4.1755e-20)
(0.52159 0.141408 4.17554e-20)
(0.36717 0.187563 1.90533e-20)
(0.151939 0.220709 -2.66317e-20)
(0.829255 0.165594 3.42195e-20)
(0.776665 0.186693 2.9949e-20)
(0.776543 0.255086 2.3588e-20)
(0.717325 0.309344 -4.79781e-20)
(0.569232 0.37148 2.71888e-21)
(0.334727 0.463551 -5.85022e-20)
(0.924329 0.216033 2.42636e-20)
(0.817521 0.225573 -3.29873e-20)
(0.737066 0.280164 -4.20724e-20)
(0.779853 0.417266 3.43282e-20)
(0.767308 0.523446 0)
(0.531535 0.644577 1.57081e-20)
(1.00948 0.163749 4.38798e-22)
(0.981217 0.124452 -2.39866e-22)
(0.968772 0.10641 -6.27246e-23)
(0.97086 0.0849549 0)
(0.933247 0.0797494 -1.18948e-21)
(0.93708 0.0867061 1.63981e-21)
(0.905909 0.0808768 0)
(0.890778 0.0915572 1.97285e-22)
(0.853744 0.0874319 0)
(0.825793 0.10022 0)
(0.991202 0.155597 -4.37455e-22)
(1.02745 0.137711 0)
(0.965829 0.0975846 -9.83149e-22)
(0.996613 0.103261 1.65706e-21)
(0.957537 0.0810485 3.19708e-22)
(0.960393 0.10655 -1.91471e-22)
(0.923942 0.0831219 0)
(0.914613 0.116123 -2.08538e-22)
(0.879066 0.106261 -2.06458e-20)
(0.860457 0.145546 -2.87043e-21)
(0.982101 0.149076 8.59531e-22)
(1.00613 0.139198 -1.09077e-21)
(1.00788 0.100499 0)
(0.96549 0.104358 0)
(0.987463 0.0823415 -3.48963e-22)
(0.977294 0.12527 0)
(0.969818 0.0990826 -2.14831e-20)
(0.941655 0.145453 5.61272e-20)
(0.939326 0.144535 -7.31243e-20)
(0.91779 0.199371 4.5799e-20)
(0.990707 0.149627 0)
(0.980439 0.135707 0)
(1.01191 0.0999807 0)
(0.950546 0.112898 0)
(0.984514 0.0686761 0)
(0.963592 0.129118 0)
(0.985251 0.0915593 0)
(0.969553 0.157333 0)
(0.9715 0.135764 0)
(0.995601 0.215377 0)
(0.997867 0.148127 0)
(1.00765 0.138325 0)
(0.967552 0.101158 0)
(0.98849 0.117987 0)
(0.976651 0.0671637 0)
(0.957955 0.131678 0)
(0.958653 0.089226 0)
(0.97762 0.156465 0)
(0.971217 0.13144 0)
(1.00545 0.180142 0)
(0.988392 0.140361 0)
(1.02934 0.149267 0)
(0.96419 0.0961752 0)
(1.02655 0.117891 0)
(1.00131 0.0763424 0)
(0.98415 0.143778 0)
(0.983691 0.0839115 0)
(0.989408 0.142918 0)
(1.00741 0.118756 0)
(1.01333 0.142001 0)
(0.985538 0.133504 0)
(1.00026 0.155407 0)
(1.00294 0.0877156 0)
(1.01238 0.119194 0)
(1.02307 0.0808806 0)
(1.00498 0.148957 0)
(1.03512 0.0866392 0)
(1.0155 0.122964 0)
(1.04777 0.114987 0)
(1.04319 0.120977 0)
(0.994524 0.132461 0)
(0.980055 0.151454 0)
(1.02482 0.08052 0)
(0.99493 0.112216 0)
(1.02576 0.0773666 0)
(1.01292 0.127741 0)
(1.05183 0.0818681 0)
(1.03331 0.0995783 0)
(1.05496 0.095195 0)
(1.05661 0.0975232 0)
(0.999416 0.130511 0)
(0.984037 0.14787 0)
(1.0278 0.0862428 0)
(1.00223 0.11455 0)
(1.02828 0.0814153 0)
(1.02387 0.112973 0)
(1.05254 0.0872394 0)
(1.04422 0.0977787 0)
(1.05694 0.0905419 0)
(1.05839 0.0947376 0)
(1.00364 0.120885 0)
(0.988403 0.127974 0)
(1.03576 0.0744464 0)
(1.0184 0.0905053 0)
(1.04392 0.0635679 0)
(1.03884 0.0783571 0)
(1.06148 0.0626005 0)
(1.05783 0.0683487 0)
(1.07071 0.0604248 0)
(1.06928 0.0644761 0)
(1.00052 0.125502 0)
(1.00213 0.127059 0)
(1.04847 0.0899202 0)
(1.04365 0.0960861 0)
(1.06732 0.0789883 0)
(1.06545 0.0839475 0)
(1.08439 0.0739857 0)
(1.08371 0.0765998 0)
(1.09606 0.0699648 0)
(1.09493 0.0724395 0)
(1.00052 0.0791817 0)
(1.01238 0.0706487 0)
(1.06202 0.0401398 0)
(1.06199 0.0409339 0)
(1.0873 0.0256046 0)
(1.08533 0.0280516 0)
(1.10349 0.0191205 0)
(1.10232 0.0217879 0)
(1.11508 0.015407 0)
(1.11376 0.0178626 0)
(0.995632 0.10298 0)
(1.10566 0.0773852 0)
(1.15663 0.06592 0)
(1.16739 0.0567829 0)
(1.19445 0.0519771 0)
(1.19953 0.0493333 0)
(1.2182 0.0459171 0)
(1.21966 0.0440457 0)
(1.23204 0.0423701 0)
(1.23179 0.0410106 0)
(0.993452 0.203837 -1.18605e-20)
(1.07672 0.169029 -8.00848e-21)
(1.08952 0.193752 6.36345e-21)
(1.01105 0.178184 3.17127e-21)
(1.09297 0.162654 2.21072e-22)
(1.08591 0.169166 -5.14448e-21)
(1.04167 0.146886 1.36163e-21)
(1.08157 0.120804 2.39515e-21)
(1.09931 0.13326 0)
(1.07102 0.127066 5.57489e-21)
(1.08411 0.105966 -5.1859e-23)
(1.10172 0.120861 4.92516e-23)
(1.07309 0.0979364 -2.07974e-21)
(1.08085 0.0865788 0)
(1.0887 0.091186 -3.87832e-23)
(1.07092 0.0883617 0)
(1.07867 0.0854468 -3.76075e-23)
(1.08353 0.0781185 6.75962e-23)
(1.08177 0.0569427 0)
(1.08754 0.0569541 -8.5825e-22)
(1.0945 0.0476576 1.24066e-22)
(1.1059 0.0664329 -1.98069e-21)
(1.11031 0.0662647 1.23854e-21)
(1.11855 0.0591645 1.77338e-22)
(1.12454 0.0126013 2.0962e-21)
(1.12784 0.0126861 -6.33195e-22)
(1.13715 0.00722529 3.4746e-22)
(1.24199 0.0400135 -7.33279e-22)
(1.24392 0.0390662 0)
(1.25349 0.037945 0)
(-0.134006 -0.0148327 -1.28538e-19)
(0.0196176 -0.0690478 1.22694e-19)
(0.611631 -0.248017 1.9109e-20)
(0.344287 -0.00026437 0)
(0.893387 -0.117638 -6.54891e-21)
(1.17537 -0.218471 -1.36536e-20)
(0.743122 -0.046588 -6.57409e-20)
(1.16181 -0.185118 3.92278e-20)
(1.17441 -0.260693 -2.7993e-20)
(1.01763 -0.0598894 6.88731e-20)
(1.26297 -0.183526 -2.86191e-20)
(1.13487 -0.171655 2.33697e-20)
(1.195 -0.116817 5.39342e-20)
(1.25008 -0.157572 -2.67225e-20)
(1.0387 -0.158176 -1.03917e-20)
(1.30754 -0.0904125 -3.97447e-20)
(1.09749 -0.123398 2.71647e-20)
(1.07263 -0.125794 0)
(-0.0651801 -0.0202357 -1.81579e-20)
(-0.0648773 -0.0539439 -7.38239e-20)
(-0.132078 -0.0755748 3.73001e-20)
(-0.131817 -0.00559438 -1.36341e-20)
(-0.0413236 -0.0755463 -2.46723e-22)
(-0.0375462 -0.0802748 0)
(-0.211543 -0.0135495 1.85048e-20)
(-0.112402 -0.0663376 -1.56525e-20)
(0.160066 -0.0336272 6.92866e-20)
(-0.181674 -0.00907747 -4.03585e-20)
(0.12044 -0.0262487 2.94924e-20)
(0.553547 -0.00998551 -2.6387e-20)
(-0.1902 -0.0968819 1.9416e-20)
(0.0852994 -0.0560731 0)
(0.642246 -0.000632535 -5.8779e-20)
(-0.10339 -0.171564 0)
(0.423727 -0.0759461 -4.72592e-20)
(0.993026 -0.0543156 4.32794e-20)
(-0.0245722 -0.147438 0)
(0.479225 -0.100065 3.60261e-20)
(1.02554 -0.00491843 0)
(0.0415161 -0.182614 -1.89174e-20)
(0.473755 -0.113012 -4.14457e-20)
(1.03068 -0.0577915 0)
(0.12834 -0.129017 -2.07024e-22)
(0.633213 -0.00129018 3.70883e-20)
(1.04876 0.0324015 -3.2669e-22)
(0.287729 0.0181053 3.15492e-20)
(0.823702 0.138029 -3.3405e-20)
(1.23208 0.163144 0)
(0.486671 0.143723 -2.20132e-20)
(0.811006 0.288999 2.92647e-20)
(1.17819 0.252015 4.66892e-20)
(0.850579 0.673838 6.61121e-21)
(1.17125 0.636973 0)
(1.23517 0.550217 -4.08023e-20)
(0.299508 0.606924 0)
(0.572375 0.413268 0)
(0.93979 0.403789 0)
(0.431853 -0.445068 2.21506e-21)
(0.315819 -0.360299 0)
(0.381237 -0.306795 0)
(0.453336 -0.504654 -1.97575e-21)
(0.538446 -0.319973 0)
(0.688343 -0.308356 6.41135e-21)
(0.682927 0.162766 -3.82419e-22)
(0.90795 0.168011 -3.48794e-21)
(0.949022 0.124405 -5.63922e-21)
(0.186745 0.245878 -1.19868e-22)
(0.512607 0.134075 3.57847e-21)
(0.717199 0.106091 0)
(0.222222 -0.120735 0)
(0.409012 -0.0648445 9.58624e-23)
(0.730619 -0.035308 -1.01974e-22)
(0.542522 -0.126584 0)
(0.73697 -0.0227646 0)
(0.952949 0.024973 3.61211e-22)
(0.92556 0.0992861 0)
(0.980871 0.137586 -6.3558e-23)
(1.08213 0.139153 -2.50669e-22)
(0.927353 0.17684 0)
(0.920521 0.17025 0)
(0.981731 0.150903 0)
(0.897879 0.0438181 2.23665e-23)
(0.868296 0.0379916 -2.23195e-23)
(0.853261 0.032482 0)
(1.25464 -0.0347038 0)
(1.19367 -0.0339635 0)
(1.15054 -0.029517 0)
(1.08787 -0.0219911 0)
(1.04588 -0.0143864 0)
(1.01219 0.00172946 0)
(0.977624 -0.00502089 0)
(0.93771 0.0162492 0)
(0.898876 -0.00945694 0)
(0.74052 0.0191141 0)
(1.26371 -0.055987 0)
(1.18862 -0.00313886 0)
(1.14352 -0.00970225 0)
(1.08843 0.00699275 0)
(1.05156 -0.00077438 0)
(1.01508 0.0102034 0)
(0.979134 -0.00170221 0)
(0.937582 0.0170345 0)
(0.898103 -0.00894351 0)
(0.738793 0.0185776 0)
(1.30116 0.0213357 0)
(1.22977 0.0166402 0)
(1.16941 0.0168838 0)
(1.09983 0.0121235 0)
(1.05585 0.00136904 0)
(1.01824 0.0111397 0)
(0.98036 -0.00173451 0)
(0.938021 0.0161239 0)
(0.897963 -0.0095448 0)
(0.738877 0.0175533 0)
(1.26717 0.143827 0)
(1.19408 0.153704 0)
(1.13502 0.0777939 0)
(1.07981 0.0675619 0)
(1.05143 0.0288582 0)
(1.01643 0.0255226 0)
(0.98104 0.00422742 0)
(0.93741 0.0183811 0)
(0.897282 -0.00827826 0)
(0.73724 0.0176578 0)
(1.3028 0.142981 0)
(1.10534 0.126118 0)
(1.07957 0.0689903 0)
(1.05156 0.0553281 0)
(1.03085 0.0233742 0)
(1.00727 0.0271654 0)
(0.977783 0.00409327 0)
(0.936148 0.0184868 0)
(0.896458 -0.00919 0)
(0.737459 0.0167768 0)
(1.07082 0.332652 0)
(1.10627 0.272775 0)
(1.06624 0.155667 0)
(1.03628 0.103098 0)
(1.02454 0.047483 0)
(1.00225 0.0330989 0)
(0.974756 0.00824689 0)
(0.934049 0.0208158 0)
(0.894983 -0.0073462 0)
(0.736036 0.0178799 0)
(0.779047 0.225056 0)
(0.840198 0.173846 0)
(0.880111 0.0665867 0)
(0.93446 0.0706949 0)
(0.98021 0.0237744 0)
(0.983038 0.030158 0)
(0.969838 0.00455879 0)
(0.931785 0.0199518 0)
(0.893193 -0.00805729 0)
(0.735706 0.0187978 0)
(0.523155 -0.3013 0)
(0.767549 -0.244062 0)
(0.914295 -0.166069 0)
(0.975199 -0.0715255 0)
(0.982866 -0.0348643 0)
(0.983131 0.00636558 0)
(0.965937 0.000901292 0)
(0.93017 0.0231872 0)
(0.891953 -0.00474187 0)
(0.733714 0.0227171 0)
(0.931323 -0.189536 0)
(1.10477 -0.116474 0)
(1.13646 -0.0607 0)
(1.09553 -0.0329001 0)
(1.04862 -0.0152605 0)
(1.00995 0.00404433 0)
(0.974729 -0.00207732 0)
(0.930367 0.0193434 0)
(0.889961 -0.00583112 0)
(0.730535 0.0251956 0)
(1.0755 0.104222 0)
(1.10449 0.119815 0)
(1.11658 0.0680853 0)
(1.07581 0.0648626 0)
(1.05244 0.0299037 0)
(1.0103 0.040137 0)
(0.980255 0.0166822 0)
(0.932169 0.0344969 0)
(0.891158 0.00364382 0)
(0.726986 0.0370982 0)
(0.929487 0.0837814 0)
(0.987286 0.0901719 0)
(1.00479 0.057547 0)
(1.01384 0.0630278 0)
(1.00953 0.0305334 0)
(0.991466 0.0437191 0)
(0.96778 0.0157641 0)
(0.923466 0.0345356 0)
(0.887001 0.00232822 0)
(0.712761 0.0397883 0)
(0.989333 -0.00339628 0)
(1.03776 0.00348123 0)
(1.02231 0.0181033 0)
(1.02761 0.0283193 0)
(1.00657 0.0260353 0)
(0.993494 0.036333 0)
(0.965361 0.0202401 0)
(0.925089 0.037026 0)
(0.891262 0.0123141 0)
(0.708103 0.0378045 0)
(1.07155 0.0532714 0)
(1.07863 0.0427812 0)
(1.07173 0.0558301 0)
(1.04992 0.0461898 0)
(1.02146 0.0424883 0)
(0.993459 0.0424175 0)
(0.964667 0.0259858 0)
(0.918769 0.033632 0)
(0.883316 0.0123012 0)
(0.682544 0.0169309 0)
(1.05982 0.141924 0)
(1.04596 0.121539 0)
(1.03342 0.118925 0)
(1.00042 0.0955993 0)
(0.99565 0.0810705 0)
(0.971576 0.0720262 0)
(0.951917 0.0496958 0)
(0.912772 0.0460758 0)
(0.877915 0.0128398 0)
(0.692615 0.00272843 0)
(0.972678 0.128872 0)
(0.975064 0.11152 0)
(0.972796 0.0963924 0)
(0.949216 0.0860459 0)
(0.955958 0.0706378 0)
(0.939737 0.0641566 0)
(0.921983 0.0374954 0)
(0.875475 0.0301247 0)
(0.838541 -0.0150851 0)
(0.667281 -0.0211031 0)
(0.855888 0.0168008 0)
(0.887428 0.010488 0)
(0.926916 -0.00180405 0)
(0.933845 0.00099903 0)
(0.934901 -0.00950162 0)
(0.916355 -0.00451823 0)
(0.896184 -0.0255278 0)
(0.853568 -0.0166551 0)
(0.824431 -0.0464933 0)
(0.728461 -0.0227707 0)
(1.17346 -0.11731 6.87442e-21)
(1.13866 -0.11454 -5.55764e-21)
(1.0876 -0.0778291 0)
(1.04838 -0.0520286 -1.34837e-22)
(1.01984 -0.030465 -5.97513e-22)
(0.994811 -0.00361706 6.03086e-22)
(0.968386 -0.00529649 1.66956e-22)
(0.930638 0.0189926 1.4744e-22)
(0.895508 -0.0078694 2.27721e-22)
(0.737696 0.0241918 0)
(1.06154 -0.0870988 -4.14727e-20)
(1.06967 -0.0450978 3.70768e-21)
(1.06829 -0.0220311 9.03104e-21)
(1.04783 -0.016785 1.42042e-22)
(1.02225 -0.0125116 0)
(0.996165 0.00163527 -1.22877e-22)
(0.967074 -0.00488697 5.59409e-22)
(0.929587 0.0177708 -1.0272e-21)
(0.893177 -0.00954907 4.76064e-22)
(0.736518 0.0223028 0)
(1.23603 -0.113361 5.74596e-20)
(1.15456 -0.0932346 -1.39711e-20)
(1.09766 -0.0575132 -7.25421e-21)
(1.06413 -0.0324158 -2.57548e-20)
(1.03425 -0.0188375 8.79682e-21)
(1.0065 0.00152293 0)
(0.976622 -0.00458442 0)
(0.93698 0.0175613 9.21419e-22)
(0.899065 -0.008619 -1.71439e-21)
(0.740365 0.0205378 3.91748e-22)
(0.851693 -0.165211 1.49214e-20)
(0.950914 -0.144654 1.77616e-21)
(1.05219 -0.167015 0)
(0.980368 -0.226445 -2.02861e-20)
(0.91219 -0.202474 -1.33457e-21)
(1.12087 -0.219966 -6.16064e-21)
(0.972926 -0.281688 -1.23975e-20)
(1.00646 -0.249262 -7.11975e-21)
(1.12585 -0.237236 1.49071e-20)
(0.86616 -0.351374 1.70445e-20)
(1.02016 -0.376306 -7.07834e-21)
(1.09333 -0.308197 -1.10849e-21)
(0.888977 -0.428099 0)
(1.08202 -0.39355 -2.39682e-20)
(1.1589 -0.268805 -1.35386e-20)
(0.747214 -0.605479 5.85532e-20)
(0.875041 -0.516859 -1.21077e-20)
(0.897743 -0.350464 1.89407e-20)
(0.782582 0.0142039 0)
(0.816904 -0.0521964 -3.7267e-20)
(0.902156 -0.122747 -2.99421e-20)
(0.730174 0.00494662 -1.96199e-20)
(0.752135 -0.0787648 0)
(0.884671 -0.159487 4.07119e-20)
(0.663857 -0.0156203 4.28347e-20)
(0.685903 -0.128244 -5.47417e-20)
(0.757563 -0.1979 3.60997e-20)
(0.564928 -0.0319373 -7.02517e-20)
(0.634362 -0.193119 5.38341e-20)
(0.702859 -0.291996 -4.96315e-20)
(0.418926 -0.0688586 1.53913e-20)
(0.521658 -0.277856 -5.4302e-21)
(0.701006 -0.425186 0)
(0.186133 -0.067576 2.92638e-20)
(0.314341 -0.365369 1.23627e-19)
(0.500016 -0.560138 2.36522e-21)
(1.001 0.160611 -3.5133e-22)
(0.967612 0.160121 3.50251e-22)
(0.923972 0.148656 -5.0502e-22)
(0.937166 0.121593 -1.0604e-22)
(0.935252 0.108066 3.29051e-22)
(1.00597 0.124066 6.40911e-22)
(0.965619 0.10593 3.21148e-23)
(0.99784 0.123927 2.42436e-22)
(1.00249 0.112554 5.77518e-22)
(0.962258 0.0771272 0)
(0.966026 0.0615566 -1.35131e-21)
(0.967835 0.0608837 0)
(0.950574 0.0812393 1.14847e-21)
(0.979829 0.0912276 -2.59573e-22)
(0.990093 0.0722569 2.83314e-22)
(0.944771 0.0685039 -1.5808e-21)
(0.946643 0.0483645 -1.72669e-22)
(0.935318 0.0376846 3.92832e-22)
(0.920083 0.0673585 0)
(0.946978 0.0635789 0)
(0.962798 0.0325265 2.1322e-20)
(0.893919 0.0463709 -1.95806e-22)
(0.904722 0.022661 2.06969e-22)
(0.896675 -0.0217205 -5.73047e-20)
(0.860837 0.0405765 0)
(0.883406 0.0221084 2.17304e-20)
(0.917449 -0.0310804 3.79001e-20)
(0.826962 0.0257654 0)
(0.84238 -0.0283931 4.0395e-21)
(0.873351 -0.102286 0)
(0.92741 0.155278 0)
(0.979148 0.158375 0)
(0.965738 0.161032 0)
(0.963938 0.158808 0)
(0.966045 0.15804 0)
(0.967888 0.153068 0)
(0.970704 0.143338 0)
(0.975884 0.141983 0)
(0.980214 0.0959089 0)
(0.986632 0.112068 0)
(1.08187 0.118993 0)
(1.01664 0.110052 0)
(0.99815 0.100662 0)
(0.997952 0.101055 0)
(0.991061 0.100352 0)
(0.98398 0.103614 0)
(0.974238 0.0964875 0)
(0.959847 0.106908 0)
(0.94425 0.0694672 0)
(0.829371 0.0848722 0)
(0.908346 0.115253 0)
(0.919301 0.123488 0)
(0.94757 0.126215 0)
(0.956819 0.117809 0)
(0.95602 0.105705 0)
(0.955598 0.0990147 0)
(0.946181 0.077508 0)
(0.937589 0.0847721 0)
(0.920238 0.0372311 0)
(0.811639 0.0636623 0)
(1.06226 0.0510593 0)
(1.03428 0.0423322 0)
(0.977731 0.0396589 0)
(0.962658 0.046094 0)
(0.962496 0.0490638 0)
(0.96594 0.0585765 0)
(0.957784 0.0495048 0)
(0.942472 0.0666104 0)
(0.921488 0.0268583 0)
(0.790312 0.052003 0)
(0.895489 0.0795752 0)
(0.908183 0.0637702 0)
(0.948932 0.0558741 0)
(0.962229 0.0511942 0)
(0.953508 0.0487468 0)
(0.950324 0.0509274 0)
(0.939561 0.0363095 0)
(0.926924 0.052777 0)
(0.906881 0.0130521 0)
(0.771198 0.0435847 0)
(0.991431 0.027999 0)
(0.973442 0.030884 0)
(0.961068 0.0307206 0)
(0.969502 0.0218997 0)
(0.97029 0.0160035 0)
(0.966911 0.0279438 0)
(0.955465 0.0213988 0)
(0.933871 0.0424063 0)
(0.910647 0.0102942 0)
(0.763256 0.0395553 0)
(0.905314 0.0251186 0)
(0.911752 0.0182357 0)
(0.925909 0.0126473 0)
(0.940688 0.0159128 0)
(0.952579 0.0123086 0)
(0.956514 0.0238988 0)
(0.945328 0.015117 0)
(0.924133 0.0360923 0)
(0.900473 0.0036753 0)
(0.753671 0.0358945 0)
(0.958319 -0.0382092 0)
(0.965382 -0.0297223 0)
(0.959504 -0.0244526 0)
(0.969335 -0.0145163 0)
(0.970675 -0.00841084 0)
(0.970458 0.00895095 0)
(0.957467 0.00650361 0)
(0.930805 0.0304241 0)
(0.904945 0.00232982 0)
(0.753037 0.0337166 0)
(0.895368 -0.0402273 0)
(0.916382 -0.0508766 0)
(0.940447 -0.041938 0)
(0.960056 -0.0201147 0)
(0.967206 -0.00810281 0)
(0.96501 0.00794686 0)
(0.951379 0.00375045 0)
(0.924754 0.0271185 0)
(0.898639 -0.00129104 0)
(0.747359 0.0315279 0)
(0.948519 -0.121865 0)
(0.967079 -0.0889132 0)
(0.978748 -0.0711105 0)
(0.986843 -0.0430243 0)
(0.984289 -0.0253832 0)
(0.97682 -0.00119563 0)
(0.961397 -0.00103211 0)
(0.930869 0.0242293 0)
(0.903363 -0.00178022 0)
(0.748407 0.0300242 0)
(0.90041 -0.114785 0)
(0.940722 -0.0978561 1.1182e-20)
(0.968798 -0.0691118 -4.28831e-21)
(0.983187 -0.0385577 -3.72617e-21)
(0.981136 -0.0232712 0)
(0.972719 -0.00144281 0)
(0.95657 -0.00247652 0)
(0.925815 0.0225245 -2.73046e-22)
(0.897922 -0.0045604 3.05944e-22)
(0.743316 0.0285384 -4.29267e-22)
(1.07019 -0.118105 -1.62795e-21)
(1.05594 -0.108209 1.05237e-21)
(1.03678 -0.0737254 -7.65921e-22)
(1.01557 -0.0495846 6.16418e-23)
(0.996004 -0.0311222 0)
(0.980533 -0.0040376 -8.0878e-23)
(0.960696 -0.00397489 -6.96975e-22)
(0.927026 0.0211425 1.12875e-21)
(0.896736 -0.00561292 -4.44044e-22)
(0.740201 0.0275933 0)
(1.01779 -0.119615 -3.56456e-21)
(1.00658 -0.0793467 2.88174e-21)
(1.0174 -0.0445254 0)
(1.01321 -0.028528 -5.85435e-23)
(1.0016 -0.0175565 4.70537e-22)
(0.983549 -0.000514091 -3.04428e-22)
(0.95959 -0.00467564 1.3015e-22)
(0.925023 0.0193726 1.33823e-22)
(0.892565 -0.00779304 2.30288e-22)
(0.736942 0.0256928 0)
)
;

boundaryField
{
    outlet
    {
        type            zeroGradient;
    }
    upperWall
    {
        type            symmetryPlane;
    }
    lowerWall
    {
        type            symmetryPlane;
    }
    inlet
    {
        type            fixedValue;
        value           uniform (0.9848 0.1736 0);
    }
    cylinder
    {
        type            fixedValue;
        value           uniform (0 0 0);
    }
    frontAndBack
    {
        type            empty;
    }
}


// ************************************************************************* //
