/*--------------------------------*- C++ -*----------------------------------*\
| =========                 |                                                 |
| \\      /  F ield         | OpenFOAM: The Open Source CFD Toolbox           |
|  \\    /   O peration     | Version:  2312                                  |
|   \\  /    A nd           | Website:  www.openfoam.com                      |
|    \\/     M anipulation  |                                                 |
\*---------------------------------------------------------------------------*/
FoamFile
{
    version     2.0;
    format      ascii;
    arch        "LSB;label=32;scalar=64";
    class       surfaceScalarField;
    location    "53";
    object      phi;
}
// * * * * * * * * * * * * * * * * * * * * * * * * * * * * * * * * * * * * * //

dimensions      [0 3 -1 0 0 0 0];

oriented        oriented;

internalField   nonuniform List<scalar> 
4490
(
-0.000356357
0.00915114
-0.00879478
0.0066387
0.00447268
-0.0114677
0.0313604
-0.02176
-0.0029617
0.0767748
-0.0633877
0.0179733
0.135636
-0.109029
0.0501669
0.201818
-0.151044
0.084862
0.269564
-0.187125
0.119378
0.327159
-0.214682
0.157088
0.384792
-0.237049
0.179416
-0.25573
0.219233
0.42129
0.00147283
0.0076783
0.0223291
-0.0163836
0.0688147
-0.0682455
0.128632
-0.123205
0.188422
-0.168818
0.239901
-0.202523
0.278024
-0.225248
0.304643
-0.241301
0.323235
-0.25564
-0.268775
0.336279
0.00716769
0.000510606
0.0462707
-0.0554866
0.101667
-0.123641
0.151905
-0.173443
0.187472
-0.204385
0.207986
-0.223038
0.219963
-0.237225
0.23076
-0.252097
0.245255
-0.270136
-0.291353
0.267833
0.0177894
-0.0172788
0.0658789
-0.103576
0.107808
-0.165571
0.133136
-0.198772
0.146002
-0.217251
0.155016
-0.232052
0.165774
-0.247982
0.179669
-0.265993
0.195035
-0.285502
-0.304187
0.20787
0.0279339
-0.0452127
0.0661489
-0.141791
0.0880318
-0.187453
0.0979203
-0.20866
0.104178
-0.223508
0.109887
-0.237761
0.114523
-0.252618
0.117712
-0.269182
0.119911
-0.287701
0.12249
-0.306766
-0.00641612
-0.00684292
0.013259
-0.0179109
-0.012364
0.0238588
-0.0318675
-0.0148656
0.0288223
-0.047249
-0.0178236
0.033205
-0.0633227
-0.0217481
0.0378219
-0.0793058
-0.0255578
0.0415408
-0.0948628
-0.0272854
0.0428425
-0.105498
-0.0295297
0.0401651
-0.116809
-0.0199008
0.0312119
-0.01393
-0.117153
0.0142741
-0.00616798
-0.00067494
-0.0168153
-0.00171662
-0.0294997
-0.00218123
-0.0434526
-0.00387078
-0.0580668
-0.00713398
-0.0710773
-0.0125472
-0.0840085
-0.0143543
-0.0871508
-0.0263874
-0.0886349
-0.0184167
-0.0275347
-0.0750301
-0.00467108
0.00399614
-0.0126223
0.0062346
-0.0214979
0.00669439
-0.0297421
0.0043734
-0.0351186
-0.00175752
-0.0354571
-0.0122087
-0.0300427
-0.0197687
-0.0128507
-0.0435793
0.0118333
-0.0431008
-0.0686371
0.0529358
-0.00315793
0.00715406
-0.00799538
0.0110721
-0.0113178
0.0100168
-0.00949518
0.00255076
0.00271286
-0.0139656
0.0245615
-0.0340574
0.0618384
-0.0570457
0.109161
-0.0909022
0.165351
-0.0992905
-0.141676
0.23839
-0.00164072
-0.0020364
0.00501873
0.0255428
0.0617442
0.112549
0.174882
0.241067
0.321192
0.398749
-0.101855
-0.00329915
-0.0119989
-0.0836358
0.0407015
-0.058921
-0.0628578
0.101623
-0.122401
-0.0398754
0.169453
-0.192436
-0.0115352
0.232676
-0.261017
0.0231388
0.25362
-0.288294
0.0793791
0.220175
-0.276416
0.185043
0.045425
-0.151089
0.326753
-0.258561
0.11685
0.400329
-0.38971
0.316135
0.356414
-0.428117
0.472032
0.351998
-0.530366
0.534783
0.420441
-0.319151
0.250708
0.456166
0.260509
-0.296233
0.457108
0.782165
-0.783107
0.437799
0.704527
-0.685217
0.391105
0.130917
-0.0842234
0.340299
-0.500318
0.551124
0.33138
-0.650473
0.659391
0.348046
-0.256609
0.239943
0.349181
0.266127
-0.267262
0.340786
0.49733
-0.488935
0.346359
0.427153
-0.432726
0.360789
0.0929842
-0.107414
-0.189467
0.182023
-0.0629698
-0.0153594
-0.0425895
0.0203212
-0.0110879
0.0701209
0.0321776
0.126188
0.0836549
0.181199
0.1419
0.195374
0.215068
0.147007
0.285086
-0.0245925
0.333032
-0.306507
0.371101
-0.427779
0.346053
-0.40307
0.333307
-0.51762
0.385519
-0.371363
0.436765
0.209262
0.464154
0.754775
0.446976
0.721705
0.39043
0.187463
0.331739
-0.441627
0.319722
-0.638456
0.338411
-0.275297
0.341141
0.263397
0.337312
0.501159
0.349609
0.414857
0.367025
0.0755677
-0.197385
0.0508699
-0.0132936
0.0651718
0.00601931
0.0936085
0.0416843
0.141217
0.0785791
0.200724
0.121692
0.250917
0.145181
0.318587
0.0793374
0.378183
-0.0841878
0.368162
-0.296487
0.340799
-0.400415
0.299905
-0.362176
0.285819
-0.503534
0.349741
-0.435285
0.410733
0.14827
0.444806
0.720701
0.436389
0.730122
0.395208
0.228644
0.332324
-0.378743
0.305809
-0.611941
0.320601
-0.290089
0.325801
0.258197
0.330662
0.496298
0.352666
0.392853
0.374387
0.0538465
-0.2064
0.219251
0.00584475
0.210782
0.0144889
0.216412
0.0360538
0.242055
0.0529362
0.292917
0.0708302
0.340521
0.0975769
0.37391
0.0459484
0.401721
-0.111999
0.379069
-0.273835
0.336013
-0.357359
0.289081
-0.315244
0.241517
-0.455971
0.29588
-0.489647
0.374373
0.069778
0.419454
0.67562
0.417408
0.732169
0.381552
0.2645
0.318498
-0.315689
0.283417
-0.576859
0.29968
-0.306353
0.311034
0.246843
0.325386
0.481946
0.356532
0.361708
0.382154
0.0282236
-0.216846
0.37787
0.0267237
0.361823
0.030536
0.356775
0.041102
0.358917
0.050794
0.374354
0.0553934
0.409456
0.0624745
0.428958
0.0264465
0.410965
-0.0940052
0.359861
-0.222731
0.308127
-0.305625
0.275194
-0.282311
0.216382
-0.397159
0.233722
-0.506987
0.331559
-0.0280587
0.388702
0.618476
0.386894
0.733977
0.369107
0.282288
0.319736
-0.266319
0.268663
-0.525786
0.27571
-0.3134
0.294083
0.22847
0.318562
0.457467
0.359477
0.320794
0.389002
-0.001302
-0.229285
0.45492
0.0363347
-0.464531
0.449336
0.0361203
0.444891
0.0455465
0.450889
0.0447968
0.4538
0.0524817
0.477086
0.0391888
0.507315
-0.00378281
0.502992
-0.0896818
0.472926
-0.192665
0.417784
-0.250484
0.390564
-0.255091
0.354666
-0.36126
0.296568
-0.44889
0.282718
-0.014208
0.261883
0.639311
0.291259
0.7046
0.359822
0.213725
0.365216
-0.271713
0.300873
-0.461443
0.255653
-0.268179
0.252257
0.231866
0.286152
0.423572
0.337358
0.269588
0.363651
-0.0275953
-0.231638
0.51428
0.0393065
-0.517252
0.516479
0.0339211
0.519543
0.0424825
0.530986
0.0333535
0.543327
0.0401415
0.56039
0.0221255
0.571878
-0.0152705
0.552118
-0.0699227
0.519956
-0.160503
0.462154
-0.192681
0.418745
-0.211682
0.381928
-0.324443
0.315599
-0.382561
0.269099
0.0322925
0.26067
0.647739
0.334801
0.63047
0.425835
0.122691
0.434267
-0.280145
0.35239
-0.379566
0.280328
-0.196118
0.281614
0.230579
0.338457
0.366729
0.404787
0.203257
0.431162
-0.0539699
-0.230334
0.58516
0.0392625
-0.585116
0.586775
0.032306
0.591942
0.0373162
0.599398
0.025897
0.610913
0.0286271
0.622498
0.01054
0.628208
-0.0209808
0.610225
-0.0519389
0.581856
-0.132135
0.543368
-0.154192
0.499661
-0.167976
0.441984
-0.266766
0.320454
-0.26103
0.23794
0.114806
0.286959
0.59872
0.430323
0.487107
0.515845
0.0371693
0.520658
-0.284958
0.435519
-0.294427
0.3377
-0.0982983
0.338562
0.229717
0.418866
0.286425
0.493827
0.128296
0.51344
-0.0735825
-0.22256
0.668124
0.0363259
-0.665187
0.670101
0.0303288
0.675026
0.0323915
0.679888
0.0210351
0.68791
0.0206045
0.69383
0.00462
0.692733
-0.0198837
0.679724
-0.0389292
0.647059
-0.0994705
0.605665
-0.112799
0.560809
-0.123119
0.500532
-0.206489
0.378682
-0.139181
0.304162
0.189326
0.424331
0.478552
0.594818
0.316619
0.64079
-0.0088029
0.59921
-0.243378
0.519183
-0.2144
0.441981
-0.0210964
0.459987
0.21171
0.54573
0.200682
0.608276
0.065751
0.610708
-0.0760147
-0.205666
0.760646
0.0323555
-0.756676
0.763172
0.0278032
0.768168
0.0273952
0.770313
0.0188903
0.775731
0.0151867
0.777137
0.00321336
0.772694
-0.0154402
0.762794
-0.0290288
0.732561
-0.0692376
0.702527
-0.0827653
0.660382
-0.080974
0.585251
-0.131359
0.501286
-0.0552152
0.497338
0.193274
0.637593
0.338297
0.761348
0.192864
0.768969
-0.0164239
0.706551
-0.18096
0.638029
-0.145878
0.603459
0.0134736
0.640692
0.174477
0.705941
0.135433
0.738234
0.0334584
0.719829
-0.0576098
-0.180178
0.86437
0.0280458
-0.86006
0.867481
0.0246914
0.871358
0.0235182
0.873515
0.0167342
0.875709
0.0129921
0.875102
0.00381999
0.868516
-0.00885326
0.857788
-0.0183015
0.830642
-0.042091
0.798995
-0.051119
0.765726
-0.0477046
0.706507
-0.0721401
0.661356
-0.0100635
0.710038
0.144592
0.830639
0.217695
0.895864
0.127639
0.879327
0.000112432
0.816414
-0.118046
0.76372
-0.0931843
0.761023
0.0161702
0.811493
0.124007
0.854937
0.0919897
0.865374
0.0230216
0.836465
-0.0287008
-0.150186
0.981453
0.0239363
-0.977343
0.9844
0.0217439
0.987516
0.0204027
0.988286
0.015964
0.988881
0.012397
0.986571
0.00612961
0.979971
-0.00225285
0.970727
-0.009058
0.949866
-0.0212296
0.927309
-0.0285615
0.902303
-0.0226992
0.859969
-0.0298057
0.838456
0.0114496
0.888434
0.0946136
0.968809
0.137321
1.01064
0.085809
0.997266
0.013485
0.946076
-0.0668564
0.90691
-0.0540178
0.915476
0.00760408
0.959975
0.0795079
0.990199
0.0617664
0.995072
0.0181488
0.966476
-0.000104829
-0.119557
1.11718
0.0205428
-1.11379
1.11976
0.0191723
1.12196
0.0181995
1.12271
0.015212
1.12232
0.0127849
1.11985
0.00859791
1.11366
0.00394398
1.10531
-0.000705386
1.09043
-0.00635252
1.07279
-0.0109222
1.05535
-0.00525876
1.03228
-0.00673476
1.02478
0.0189439
1.06005
0.0593449
1.11199
0.0853824
1.13878
0.0590222
1.13046
0.021798
1.09783
-0.0342269
1.07077
-0.0269527
1.07595
0.00242461
1.11026
0.0451965
1.1342
0.0378281
1.13956
0.0127914
1.11466
0.0247912
-0.089652
1.27603
0.0179023
-1.27339
1.27804
0.0171623
1.2796
0.0166383
1.28
0.0148163
1.27938
0.0134002
1.27734
0.0106443
1.27295
0.00833231
1.26732
0.00492127
1.25773
0.00323757
1.24693
-0.00012054
1.23685
0.00481624
1.22483
0.00529218
1.22322
0.02055
1.24403
0.0385339
1.27377
0.0556431
1.2932
0.0395925
1.29141
0.0235859
1.27069
-0.0135024
1.25379
-0.0100535
1.25837
-0.00215134
1.28219
0.0213688
1.29998
0.0200394
1.30805
0.00472343
1.28932
0.0435228
-0.061655
1.46794
0.0155069
-1.46555
1.46998
0.0151316
1.47157
0.0150422
1.47243
0.0139548
1.4724
0.0134356
1.47131
0.0117302
1.46867
0.0109741
1.46474
0.00885331
1.45914
0.00883554
1.45221
0.00681012
1.44667
0.0103532
1.44168
0.0102856
1.44265
0.0195805
1.45563
0.0255529
1.47428
0.0369938
1.48674
0.027136
1.48718
0.0231427
1.47619
-0.00251451
1.46609
4.48489e-05
1.46709
-0.00314477
1.48285
0.00559994
1.49554
0.00735328
1.50618
-0.00591132
1.49462
0.0550816
-0.0341867
1.69271
0.0130965
-1.6903
1.69486
0.0129806
1.69673
0.0131805
1.69813
0.012552
1.69899
0.0125699
1.69925
0.0114744
1.69866
0.0115649
1.69744
0.0100733
1.69539
0.0108849
1.6929
0.00929647
1.691
0.0122532
1.68985
0.0114425
1.69162
0.017808
1.6989
0.0182746
1.70901
0.0268766
1.7173
0.0188488
1.7194
0.0210485
1.71444
0.00244112
1.71002
0.00446529
1.7109
-0.00402129
1.72107
-0.0045787
1.7298
-0.0013673
1.74308
-0.0191988
1.73768
0.0604854
-0.010414
1.96581
0.0104779
-1.96319
1.96833
0.0104628
1.97073
0.0107821
1.97283
0.0104435
1.97467
0.0107295
1.97607
0.010083
1.97709
0.0105394
1.97758
0.00958928
1.97785
0.0106075
1.97778
0.00937321
1.97828
0.0117448
1.97939
0.0103336
1.98228
0.0149262
1.98763
0.0129204
1.99497
0.0195392
2.00077
0.0130473
2.00404
0.0177787
2.00141
0.00507304
1.99931
0.00655727
1.9975
-0.00220951
2.0023
-0.00937397
2.00305
-0.00212149
2.01563
-0.0317804
2.02616
0.0499628
0.00820422
2.31474
0.00739226
-2.31165
2.3178
0.00740401
2.32084
0.00773923
2.32379
0.00749154
2.32667
0.00784855
2.32941
0.00734599
2.33205
0.00789588
2.33448
0.00716594
2.33694
0.00814968
2.33918
0.00712833
2.34181
0.00911305
2.34463
0.00751539
2.34813
0.0114295
2.35277
0.00827822
2.35782
0.0144871
2.36241
0.008463
2.36627
0.0139167
2.36579
0.00555495
2.3651
0.00724737
2.3638
-0.000917946
2.36497
-0.0105417
2.3608
0.00204964
2.37442
-0.0454007
2.39492
0.0294604
0.020501
2.71364
0.00382296
-2.71007
2.7172
0.00384207
2.72093
0.00400951
2.72453
0.00388857
2.72827
0.00410846
2.73185
0.0037689
2.73552
0.00422499
2.73914
0.003543
2.74282
0.0044696
2.74663
0.00331847
2.75085
0.00489656
2.75503
0.00332858
2.76078
0.00568855
2.76528
0.00376967
2.77277
0.00700144
2.77748
0.00375693
2.78316
0.00823687
2.78599
0.00272112
2.78787
0.00536878
2.78266
0.00429173
2.78367
-0.0115503
2.77579
0.00992656
2.76289
-0.032498
2.79395
-0.00160604
0.0129789
3.427
-3.42318
3.43084
3.43485
3.43874
3.44285
3.44662
3.45085
3.45439
3.45886
3.46218
3.46707
3.4704
3.47609
3.47986
3.48686
3.49062
3.49886
3.50158
3.50695
3.51124
3.49969
3.50961
3.47711
3.47551
0.409454
0.113279
-0.400243
0.425612
0.191711
0.426808
0.266637
0.442679
0.320408
0.399438
0.46603
0.107288
-0.460039
0.481326
0.176416
0.490327
0.257636
0.497808
0.312927
0.379994
0.532866
0.0999996
-0.525577
0.544468
0.164814
0.558921
0.243183
0.568524
0.303324
0.363401
0.608514
0.0907074
-0.599221
0.619024
0.154304
0.63414
0.228066
0.648328
0.289137
0.346542
0.695324
0.0809698
-0.685587
0.706103
0.143525
0.721324
0.212845
0.737965
0.272495
0.327832
0.795008
0.0713871
-0.785425
0.805992
0.132541
0.821431
0.197407
0.839585
0.25434
0.307357
0.910114
0.0628965
-0.901624
0.920846
0.121808
0.936443
0.181811
0.955161
0.235622
0.285175
1.04517
0.0551351
-1.03741
1.05587
0.111107
1.0715
0.16618
1.09069
0.216432
0.26208
1.202
0.0482808
-1.19515
1.21287
0.100236
1.22896
0.150091
1.2491
0.196297
0.237787
1.38716
0.0415486
-1.38043
1.39934
0.0880558
1.41673
0.132701
1.43887
0.174159
0.211108
1.60432
0.0345757
-1.59735
1.61736
0.0750197
1.63626
0.1138
1.66075
0.149667
0.181557
1.86369
0.0274747
-1.85659
1.87841
0.0602958
1.90044
0.091772
1.92894
0.121167
0.147306
2.1983
0.0192837
-2.19011
2.21507
0.0435232
2.24
0.0668425
2.27251
0.0886634
0.10816
2.57356
0.010381
-2.56466
2.5931
0.0239808
2.62288
0.0370665
2.66221
0.0493302
0.0603043
3.2525
-3.24212
3.27648
3.31355
3.36288
0.188817
0.25641
-0.230629
-0.214597
0.158878
0.242955
-0.213016
0.130146
0.226611
-0.197878
0.105219
0.212301
-0.187374
0.0828855
0.201189
-0.178855
0.0613241
0.191687
-0.170126
0.0405247
0.183222
-0.162423
0.0207417
0.17783
-0.158047
0.00461227
0.169063
-0.152934
0.115987
-0.111375
0.12816
0.280136
-0.151887
0.108006
0.263109
0.0878703
0.246747
0.0685868
0.231584
0.0505278
0.219248
0.0336217
0.208593
0.0181819
0.198662
0.00456297
0.191449
-0.00421067
0.177837
0.111777
0.0699732
0.297502
-0.0873396
0.0533301
0.279752
0.038654
0.261423
0.0253248
0.244913
0.0135512
0.231022
0.00303735
0.219107
-0.00704154
0.208741
-0.014406
0.198814
-0.0134237
0.176855
0.0983528
0.00220339
0.308242
-0.0129435
-0.00585021
0.287806
-0.0133699
0.268942
-0.0200225
0.251566
-0.0260745
0.237074
-0.0315352
0.224568
-0.035272
0.212477
-0.034433
0.197975
-0.0230967
0.165518
0.0752561
-0.0672939
0.0687705
-0.0671892
-0.0674291
-0.068481
-0.0691687
-0.0681094
-0.0642922
-0.0537707
-0.0300434
0.336414
0.0622224
-0.384547
-0.0140894
0.291303
0.0577501
-0.0126389
0.24872
0.0539017
-0.011319
0.20832
0.0505411
-0.0101409
0.169818
0.0476022
-0.00909947
0.132849
0.0451716
-0.00820306
0.0970543
0.0432245
-0.00742973
0.0620345
0.0417937
-0.00677383
0.0271453
0.0412367
-0.00634756
0.0320455
-0.00490013
0.324643
0.10905
-0.371471
0.280564
0.101829
0.239231
0.0952341
0.2005
0.0892725
0.163796
0.0843064
0.128444
0.080523
0.0939995
0.0776691
0.0599807
0.0758125
0.025972
0.0752454
0.0580174
0.302191
0.152592
-0.345732
0.260659
0.143361
0.220845
0.135049
0.183395
0.126722
0.148806
0.118895
0.116217
0.113112
0.0847476
0.109138
0.0538134
0.106747
0.0232786
0.10578
0.081296
0.268505
0.192708
-0.308621
0.232208
0.179658
0.198115
0.169142
0.164057
0.16078
0.131175
0.151778
0.100831
0.143456
0.0723806
0.137588
0.0446316
0.134496
0.0183474
0.132064
0.0996435
0.223423
-0.261344
0.190064
0.161328
0.134734
0.107656
0.0809868
0.0561527
0.032601
0.0117315
0.419991
0.378508
-0.380683
0.429775
0.315663
-0.325447
0.4279
0.226442
-0.224568
0.436922
0.183072
-0.192094
0.435428
0.136654
-0.135159
0.442483
0.113257
-0.120313
0.43889
0.0896886
-0.0860954
0.441354
0.0741343
-0.0765979
0.435484
0.0639057
-0.0580358
0.433174
0.0528077
-0.0504985
0.425071
0.0483682
-0.0402646
0.418823
0.0405407
-0.034293
0.408242
0.038618
-0.0280364
0.398127
0.0336538
-0.023539
0.0331939
-0.0196144
0.415703
0.38062
0.423513
0.307854
0.420124
0.229831
0.427508
0.175689
0.424854
0.139307
0.430494
0.107617
0.426422
0.0937605
0.428002
0.072555
0.422136
0.0697717
0.419706
0.0552378
0.412064
0.0560092
0.405813
0.0467925
0.395319
0.0491113
0.38522
0.0437533
0.0469429
0.410058
0.388376
0.414017
0.303895
0.408262
0.235586
0.412325
0.171625
0.407713
0.14392
0.41058
0.10475
0.405204
0.0991369
0.405032
0.0727264
0.398048
0.0767564
0.394715
0.0585704
0.386407
0.0643172
0.379669
0.0535307
0.369016
0.0597639
0.359126
0.0536439
0.0603365
0.403772
0.40242
0.401465
0.306202
0.392597
0.244453
0.392147
0.172076
0.384696
0.151371
0.383754
0.105692
0.376609
0.106282
0.373755
0.0755809
0.366449
0.0840616
0.36123
0.0637901
0.352505
0.0730414
0.344493
0.0615433
0.33304
0.0712169
0.322714
0.0639698
0.0744289
0.396201
0.424034
0.387121
0.315282
0.37287
0.258704
0.367557
0.177388
0.356333
0.162596
0.350664
0.111361
0.340975
0.11597
0.334471
0.0820848
0.325079
0.0934541
0.31679
0.0720789
0.305966
0.083865
0.296332
0.0711776
0.284375
0.0831739
0.274099
0.0742454
0.0871841
0.368762
0.428008
0.372936
0.311108
0.369485
0.262155
0.372046
0.174827
0.368732
0.165909
0.369114
0.110979
0.36568
0.119404
0.364596
0.0831691
0.360377
0.0976728
0.359213
0.0732435
0.355196
0.0878818
0.354561
0.0718125
0.352944
0.0847911
0.356066
0.0711228
0.0800875
0.363163
0.42455
0.431776
0.428474
0.307184
0.425984
0.264645
0.428342
0.172469
0.424242
0.17001
0.425097
0.110124
0.42116
0.123341
0.41987
0.084459
0.417069
0.100474
0.415503
0.074809
0.414393
0.0889917
0.413869
0.0723371
0.417125
0.0815349
0.418912
0.0693363
0.0732154
0.425784
0.48893
0.435033
0.493268
0.302846
0.490178
0.267736
0.494967
0.16768
0.489334
0.175643
0.490169
0.109289
0.487014
0.126496
0.484221
0.0872524
0.483959
0.100735
0.482437
0.0763309
0.483935
0.0874944
0.484163
0.072109
0.488523
0.0771747
0.491736
0.0661235
0.0667698
0.498181
0.561706
0.438907
0.567935
0.296617
0.563018
0.272652
0.569112
0.161586
0.566063
0.178693
0.564677
0.110675
0.564343
0.126829
0.560284
0.091311
0.561819
0.0992012
0.560787
0.0773628
0.563855
0.0844262
0.565729
0.0702347
0.570769
0.0721351
0.575392
0.0615002
0.0601673
0.581994
0.646301
0.442524
0.652822
0.290097
0.648499
0.276975
0.651633
0.158451
0.653784
0.176541
0.650887
0.113572
0.65266
0.125056
0.649965
0.0940062
0.652013
0.0971536
0.652297
0.0770783
0.656335
0.0803885
0.659506
0.0670641
0.665089
0.0665514
0.670134
0.0564553
0.0539569
0.676345
0.74527
0.444085
0.750781
0.284586
0.750051
0.277705
0.748621
0.159882
0.753464
0.171699
0.751403
0.115633
0.754719
0.12174
0.754604
0.0941209
0.757491
0.0942664
0.758867
0.0757024
0.763448
0.0758083
0.767324
0.0631875
0.773126
0.0607493
0.778432
0.0511498
0.0478486
0.78454
0.858449
0.443833
0.863516
0.279519
0.868907
0.272313
0.865443
0.163346
0.870728
0.166413
0.869793
0.116568
0.874718
0.116815
0.876674
0.0921656
0.880924
0.0900163
0.883383
0.0732428
0.888681
0.0705107
0.893162
0.0587063
0.899139
0.0547719
0.904332
0.0459572
0.0422401
0.909941
0.988933
0.441068
0.990893
0.277559
1.00225
0.260956
1.00042
0.165179
1.00769
0.159145
1.00852
0.115736
1.0149
0.110429
1.01862
0.0884446
1.02463
0.0840091
1.02886
0.0690186
1.03512
0.0642485
1.04029
0.0535371
1.04633
0.048727
1.05172
0.0405639
0.0364956
1.05747
1.13954
0.434752
1.14086
0.276234
1.15538
0.246442
1.15623
0.164326
1.16567
0.149709
1.16938
0.112022
1.17689
0.102915
1.18258
0.0827578
1.19011
0.076481
1.19614
0.0629849
1.20314
0.0572506
1.20911
0.0475703
1.2152
0.0426326
1.22034
0.0354276
0.0315072
1.22533
1.31324
0.423712
1.31727
0.272208
1.33512
0.228594
1.34009
0.159358
1.35212
0.137678
1.35905
0.105094
1.36859
0.0933661
1.37602
0.0753314
1.38494
0.067565
1.39226
0.0556664
1.40003
0.0494747
1.40655
0.0410504
1.41299
0.0361916
1.41835
0.0300694
0.026402
1.42346
1.51267
0.40743
1.52152
0.263356
1.54153
0.208586
1.55276
0.148122
1.56704
0.1234
1.57812
0.0940167
1.58989
0.0815888
1.5999
0.0653299
1.60996
0.0574997
1.61859
0.0470339
1.62675
0.0413225
1.63368
0.0341192
1.63999
0.0298788
1.6453
0.024759
0.0216233
1.65008
1.74863
0.378324
1.76776
0.24422
1.79311
0.183236
1.81038
0.130852
1.82871
0.105074
1.84285
0.0798724
1.85722
0.0672183
1.8689
0.0536573
1.88025
0.0461481
1.88956
0.0377235
1.89826
0.0326243
1.90541
0.0269694
1.91193
0.023356
1.91728
0.0194098
0.0168325
1.92207
2.02427
0.32998
2.06202
0.206477
2.09792
0.147332
2.12726
0.101514
2.15341
0.0789241
2.17464
0.0586458
2.19329
0.0485666
2.20865
0.0382927
2.22213
0.0326742
2.23333
0.0265221
2.24308
0.0228767
2.25124
0.0188052
2.25832
0.0162773
2.26428
0.0134527
0.011657
2.26945
2.35257
0.247986
2.40807
0.150974
2.45698
0.098419
2.49461
0.0638879
2.52723
0.0463067
2.55252
0.0333573
2.57452
0.0265649
2.59199
0.0208161
2.60732
0.0173474
2.6198
0.0140478
2.63067
0.0119987
2.63962
0.0098565
2.64743
0.00846623
2.65387
0.00701234
0.00604191
2.65949
2.85714
3.00811
3.10653
3.17042
3.21673
3.25009
3.27665
3.29747
3.31481
3.32886
3.34086
3.35072
3.35918
3.3662
3.37224
0.364319
-0.215753
0.37313
-0.160697
0.380206
-0.0944159
0.390092
-0.0228298
0.05862
0.430732
-0.220702
0.437176
-0.167141
0.441759
-0.0989982
0.447913
-0.0289842
0.0464937
0.502524
-0.225045
0.504468
-0.169085
0.509717
-0.104247
0.514908
-0.0341754
0.0358246
0.583584
-0.226634
0.5839
-0.169401
0.587376
-0.107723
0.591254
-0.0380533
0.027857
0.674079
-0.224369
0.673319
-0.168641
0.675115
-0.109519
0.679151
-0.042089
0.0214213
0.779356
-0.219185
0.776974
-0.166258
0.777014
-0.10956
0.78029
-0.0453649
0.0162864
0.902128
-0.211372
0.897399
-0.16153
0.895399
-0.10756
0.897381
-0.0473466
0.0120436
1.04632
-0.200219
1.03865
-0.153863
1.03432
-0.103229
1.03429
-0.0473145
0.00892002
1.21077
-0.18566
1.20016
-0.143259
1.1937
-0.0967641
1.19224
-0.0458538
0.00600969
1.40489
-0.167092
1.39096
-0.129333
1.38203
-0.0878346
1.37882
-0.0426376
0.00439558
1.62776
-0.144769
1.61085
-0.112424
1.59976
-0.0767528
1.59503
-0.037899
0.00207246
1.89577
-0.118475
1.87554
-0.0921941
1.86223
-0.0634365
1.85601
-0.0316785
0.00149242
2.23767
-0.0866988
2.21317
-0.0676853
2.19639
-0.0466586
2.18847
-0.0237639
-0.000144777
2.62249
-0.0496996
2.59383
-0.0390307
2.57423
-0.027052
2.5645
-0.014035
-0.000302948
3.32254
3.28351
3.25646
3.24242
0.0105915
-0.00168818
-0.00890337
0.00819098
0.00240056
-0.00407199
0.012263
-0.0291737
0.0251017
0.0316731
-0.0608468
-0.000188714
0.0111036
-0.0126031
-0.0316467
0.0338585
-0.0804302
0.0610465
-0.127666
0.0723373
0.0625792
-0.158572
-0.0394027
0.0497329
0.000773453
-0.096864
0.0913198
-0.150486
0.114668
-0.18302
0.104872
0.0774711
-0.197912
-0.0902942
0.110037
0.02999
-0.153581
0.154607
-0.193419
0.154506
-0.20942
0.120873
0.0835394
-0.215488
-0.13995
0.181197
0.0687903
-0.194394
0.209051
-0.216656
0.176768
-0.225492
0.129709
0.086313
-0.228266
-0.183051
0.251527
0.112722
-0.220493
0.246492
-0.232206
0.188481
-0.240507
0.13801
0.0871413
-0.241336
-0.216952
0.312037
0.156442
-0.238607
0.268147
-0.247918
0.197792
-0.256746
0.146838
0.0862536
-0.255858
-0.243876
0.357006
0.198907
-0.253088
0.277359
-0.266031
0.210735
-0.272907
0.153714
0.0845943
-0.271247
-0.260079
0.379829
0.237257
-0.269447
0.286727
-0.28607
0.227358
-0.289629
0.157272
0.0844018
-0.289436
-0.275371
0.270883
0.384318
-0.291938
0.303293
-0.305333
0.240754
-0.309637
0.161576
0.0849733
-0.310208
0.0164027
-0.00314371
0.0146898
0.00171294
0.0104629
0.00422691
0.00791443
0.00254846
-0.000988936
0.0309681
-0.010253
0.0303597
0.00232131
0.0239783
0.0106084
0.0175986
0.00892813
0.00400659
0.0376077
-0.0190385
0.0370465
0.00288249
0.0285791
0.0190758
0.0174903
0.0200169
0.0222704
0.0418189
-0.0276524
0.0388022
0.00589921
0.0266402
0.0312378
0.00726993
0.0393872
0.0595304
0.0453013
-0.0351318
0.0382885
0.012912
0.0196595
0.0498668
-0.0128946
0.0719413
0.115426
0.0469399
-0.0405308
0.0347512
0.0251007
0.00736698
0.077251
-0.0413016
0.12061
0.186846
0.0470138
-0.0447021
0.0291955
0.0429189
-0.0107721
0.117219
-0.0771525
0.18699
0.266135
0.0392664
-0.0438034
0.0127437
0.0694416
-0.0431397
0.173102
-0.121225
0.265076
0.343817
0.0279739
-0.0405654
-0.00550841
0.102924
-0.072809
0.240403
-0.164358
0.356625
0.416715
0.00446885
-0.0307602
-0.0432813
0.150674
-0.129521
0.326642
-0.217476
0.44458
0.470121
-0.0251385
-0.0176206
-0.0352693
0.160805
-0.0462
0.337573
-0.0461019
0.444482
0.457191
-0.0331714
-0.0768616
0.00031992
-0.0880155
0.171959
-0.0904988
0.340056
-0.0772912
0.431275
0.433076
-0.0531768
-0.134804
0.0127229
-0.142955
0.180111
-0.142583
0.339684
-0.122033
0.410725
0.398436
-0.0873931
-0.196775
0.017062
-0.191489
0.174825
-0.180773
0.328968
-0.151413
0.381365
0.359623
-0.112601
-0.252501
0.00854638
-0.230839
0.153163
-0.219046
0.317175
-0.187343
0.349662
0.310707
-0.138427
-0.278159
-0.00158798
-0.230648
0.105652
-0.194375
0.280902
-0.18909
0.344377
0.280366
-0.158749
-0.297137
0.019133
-0.250976
0.0594909
-0.164719
0.194646
-0.131558
0.311216
0.274585
-0.125777
-0.251867
0.119912
-0.27989
0.0875137
-0.215139
0.129894
-0.148799
0.244876
0.264871
-0.139084
-0.0265059
0.263268
-0.120945
0.181953
-0.140155
0.149104
-0.107645
0.212365
0.255048
-0.097822
0.278475
0.300927
0.264932
0.195497
0.232968
0.181068
0.201391
0.243943
0.28864
0.167799
0.510178
0.262781
0.505537
0.200137
0.458206
0.228399
0.393912
0.308237
0.361953
0.320599
0.469046
0.328518
0.344232
0.324951
0.227307
0.345324
0.152142
0.383401
0.40607
0.108026
0.145036
0.43419
0.0284022
0.441585
-0.0647958
0.438522
-0.109205
0.42781
0.41173
-0.114865
-0.319001
0.456958
-0.319153
0.441737
-0.31619
0.435559
-0.277936
0.389556
0.364423
-0.230629
-0.777143
0.450994
-0.743853
0.408447
-0.692955
0.384661
-0.621718
0.318319
0.283448
-0.540743
-0.666059
0.431836
-0.654986
0.397375
-0.641107
0.370783
-0.637219
0.31443
0.265345
-0.619116
-0.0314831
0.379096
0.000470948
0.365421
0.0229715
0.348282
0.0164608
0.320941
0.284427
-0.00262127
0.597093
0.333127
0.632507
0.330006
0.664142
0.316647
0.674981
0.310101
0.291403
0.668006
0.66206
0.330458
0.663312
0.328754
0.659611
0.320348
0.652485
0.317228
0.309895
0.633993
0.216766
0.353634
0.19186
0.353661
0.162461
0.349747
0.13592
0.343768
0.337157
0.108659
-0.273212
0.359584
-0.282652
0.3631
-0.296998
0.364093
-0.31348
0.36025
0.353099
-0.329422
-0.476609
0.347259
-0.463179
0.34967
-0.449599
0.350514
-0.438418
0.349069
0.347411
-0.432731
-0.429074
0.343607
-0.41821
0.338806
-0.402412
0.334715
-0.384732
0.33139
0.328651
-0.365972
-0.117125
0.353318
-0.122254
0.343935
-0.124785
0.337246
-0.126688
0.333293
0.326786
-0.124823
0.174368
0.165831
0.15632
0.145586
0.133849
-0.0241781
0.474375
-0.483368
-0.0175377
0.524757
-0.531398
-0.0134622
0.583534
-0.587609
-0.0107102
0.648422
-0.651174
-0.00855144
0.721778
-0.723937
-0.0072932
0.807773
-0.809032
-0.00642477
0.906838
-0.907707
-0.00609066
1.01993
-1.02027
-0.00581308
1.14899
-1.14927
-0.00574149
1.2921
-1.29217
-0.00527692
1.45189
-1.45236
-0.00489173
1.6167
-1.61709
-0.0038773
1.78023
-1.78125
-0.0015901
1.949
-1.95129
1.79607
-1.79766
-0.0436662
0.464864
-0.0348861
0.515977
-0.0275573
0.576205
-0.0208065
0.641671
-0.0155898
0.716562
-0.0118108
0.803994
-0.00927659
0.904304
-0.00777511
1.01843
-0.00682915
1.14804
-0.00630413
1.29157
-0.00564598
1.45123
-0.00507419
1.61613
-0.00395027
1.77911
-0.00138214
1.94643
1.79469
-0.0687668
0.446238
-0.0532707
0.500481
-0.0403438
0.563278
-0.0297432
0.63107
-0.0219007
0.708719
-0.0163211
0.798415
-0.0124677
0.900451
-0.0100056
1.01597
-0.00844833
1.14649
-0.00741662
1.29054
-0.00646083
1.45028
-0.00557066
1.61524
-0.00418999
1.77773
-0.00121753
1.94346
1.79347
-0.0910448
0.424682
-0.0732056
0.482642
-0.0576817
0.547754
-0.0428411
0.61623
-0.0310277
0.696906
-0.0223653
0.789752
-0.0162096
0.894295
-0.0123257
1.01208
-0.00978818
1.14395
-0.00818234
1.28894
-0.00688398
1.44898
-0.00574625
1.6141
-0.00417253
1.77615
-0.000916033
1.9402
1.79255
-0.107729
0.393984
-0.0830834
0.457996
-0.0626941
0.527365
-0.0462587
0.599794
-0.0348792
0.685526
-0.0255887
0.780462
-0.019216
0.887922
-0.0146766
1.00754
-0.0116928
1.14097
-0.00961778
1.28686
-0.00795094
1.44731
-0.00641248
1.61256
-0.00443684
1.77418
-0.00071647
1.93648
1.79184
-0.128364
0.363599
-0.102666
0.432298
-0.0771796
0.501879
-0.0570194
0.579634
-0.0406881
0.669195
-0.0294631
0.769237
-0.0214645
0.879924
-0.0162177
1.0023
-0.0126071
1.13735
-0.0101796
1.28443
-0.00819248
1.44533
-0.0064206
1.61079
-0.00424518
1.772
-0.000394555
1.93263
1.79144
-0.101636
0.339458
-0.0815392
0.412201
-0.064985
0.485324
-0.0509532
0.565602
-0.0401189
0.658361
-0.030259
0.759377
-0.0234877
0.873152
-0.018153
0.996963
-0.0144442
1.13365
-0.0116996
1.28169
-0.00938555
1.44301
-0.00724917
1.60865
-0.00458376
1.76934
-0.000340517
1.92839
1.7911
-0.116125
0.316499
-0.0843462
0.380422
-0.0565724
0.457551
-0.0393379
0.548368
-0.0292641
0.648287
-0.0240583
0.754171
-0.0201948
0.869289
-0.0169061
0.993674
-0.014056
1.1308
-0.0115681
1.2792
-0.00919986
1.44064
-0.00692009
1.60637
-0.0040896
1.76651
-0.000181827
1.92448
1.79092
-0.066922
0.285599
-0.0502016
0.363702
-0.0414624
0.448811
-0.0366598
0.543565
-0.0305683
0.642195
-0.0261417
0.749745
-0.0219948
0.865142
-0.0188075
0.990487
-0.0156821
1.12767
-0.0129863
1.2765
-0.0103131
1.43797
-0.0078397
1.6039
-0.00462236
1.76329
-0.000823308
1.92068
1.7901
0.163461
0.289937
0.123064
0.404098
0.0759793
0.495896
0.0386324
0.580912
0.0101481
0.67068
-0.00494219
0.764835
-0.0128784
0.873078
-0.0145044
0.992113
-0.0138939
1.12706
-0.0119147
1.27453
-0.00947169
1.43553
-0.00705363
1.60148
-0.00374743
1.75998
-0.00124016
1.91817
1.78886
0.232133
0.378403
0.149045
0.487186
0.0821383
0.562804
0.037273
0.625777
0.0109927
0.69696
-0.00696317
0.782791
-0.0136451
0.87976
-0.0161966
0.994664
-0.0151034
1.12597
-0.0129641
1.27239
-0.0102499
1.43281
-0.00791737
1.59915
-0.00469135
1.75676
-0.00380159
1.91728
1.78506
0.0422883
0.44414
0.00904579
0.520428
-0.00908161
0.580931
-0.0228298
0.639526
-0.0282434
0.702373
-0.0265856
0.781133
-0.0232095
0.876384
-0.019112
0.990567
-0.015026
1.12188
-0.0115548
1.26892
-0.0083811
1.42964
-0.00645687
1.59723
-0.00372248
1.75402
-0.00590513
1.91947
1.77915
-0.122373
0.451648
-0.104794