/*--------------------------------*- C++ -*----------------------------------*\
| =========                 |                                                 |
| \\      /  F ield         | OpenFOAM: The Open Source CFD Toolbox           |
|  \\    /   O peration     | Version:  2312                                  |
|   \\  /    A nd           | Website:  www.openfoam.com                      |
|    \\/     M anipulation  |                                                 |
\*---------------------------------------------------------------------------*/
FoamFile
{
    version     2.0;
    format      ascii;
    arch        "LSB;label=32;scalar=64";
    class       surfaceScalarField;
    location    "71";
    object      phi;
}
// * * * * * * * * * * * * * * * * * * * * * * * * * * * * * * * * * * * * * //

dimensions      [0 3 -1 0 0 0 0];

oriented        oriented;

internalField   nonuniform List<scalar> 
10785
(
0.000854017
0.00315338
-0.00400739
0.00394911
0.0026118
-0.00570689
0.0109765
-0.00499236
-0.00203501
0.0242806
-0.0204417
0.00713754
0.0450034
-0.0430151
0.0222923
0.0715476
-0.0695073
0.042963
0.100281
-0.095767
0.067034
0.127264
-0.118537
0.0915529
0.149547
-0.136037
0.113755
0.166096
-0.148194
0.131644
0.17718
-0.155913
0.144829
0.184813
-0.160619
0.152986
0.191205
-0.164494
0.158102
0.196633
-0.166797
0.16137
-0.170346
0.162213
0.204766
0.000723982
0.00242939
0.00509936
-0.00176358
0.0160991
-0.0159921
0.0357026
-0.0400451
0.0619922
-0.0693047
0.0901278
-0.0976429
0.115325
-0.120964
0.134638
-0.137849
0.147611
-0.14901
0.155669
-0.156252
0.161202
-0.161446
0.166797
-0.166215
0.173278
-0.170975
0.182315
-0.175834
-0.182093
0.194062
0.00108256
0.00134683
0.00798133
-0.00866234
0.0243587
-0.0323695
0.0489297
-0.0646162
0.0756376
-0.0960126
0.0987487
-0.120754
0.115453
-0.137668
0.126052
-0.148449
0.132723
-0.155681
0.137959
-0.161488
0.143571
-0.167058
0.150048
-0.172692
0.157386
-0.178313
0.165715
-0.184163
-0.189933
0.173554
0.00201755
-0.000670715
0.0127321
-0.0193769
0.0338113
-0.0534487
0.0586872
-0.089492
0.0802255
-0.117551
0.0953879
-0.135916
0.104896
-0.147177
0.111122
-0.154674
0.116186
-0.160745
0.121164
-0.166466
0.12622
-0.172114
0.131341
-0.177813
0.136765
-0.183737
0.142583
-0.189981
-0.196749
0.149399
0.00346892
-0.00413963
0.0182752
-0.0341831
0.0406503
-0.0758238
0.0613007
-0.110143
0.075958
-0.132208
0.0850849
-0.145043
0.0908935
-0.152985
0.0952147
-0.158995
0.0989432
-0.164473
0.102414
-0.169936
0.105924
-0.175624
0.109811
-0.181699
0.114209
-0.188136
0.119316
-0.195087
-0.202312
0.124879
0.00538294
-0.00952257
0.0227852
-0.0515854
0.0426433
-0.0956819
0.0576022
-0.125101
0.066831
-0.141437
0.0722094
-0.150422
0.0756192
-0.156395
0.0781856
-0.161562
0.0804983
-0.166786
0.0829135
-0.172352
0.085598
-0.178309
0.0885277
-0.184629
0.0917112
-0.191319
0.0949956
-0.198372
-0.205581
0.0982643
0.00736588
-0.0168885
0.0247617
-0.0689812
0.0403143
-0.111234
0.0501913
-0.134979
0.0554505
-0.146696
0.0581495
-0.153121
0.059759
-0.158005
0.06103
-0.162833
0.0622429
-0.167999
0.0634444
-0.173553
0.0646369
-0.179501
0.0659018
-0.185894
0.0673098
-0.192727
0.0689106
-0.199973
-0.207558
0.0708876
0.00876683
-0.0256553
0.0239225
-0.0841369
0.0350934
-0.122405
0.0408657
-0.140751
0.0431926
-0.149023
0.0439348
-0.153863
0.0440897
-0.158159
0.044
-0.162743
0.0437619
-0.167761
0.0434538
-0.173245
0.0431716
-0.179219
0.0429728
-0.185695
0.0428977
-0.192652
0.0429569
-0.200032
0.043135
-0.207736
-0.0022585
0.000365791
0.00189271
-0.00688769
-0.00452061
0.0091498
-0.0130922
-0.00910013
0.0153047
-0.0204011
-0.0131031
0.020412
-0.0285355
-0.0178714
0.0260059
-0.0372633
-0.0241849
0.0329126
-0.0462342
-0.0321577
0.0411286
-0.0549048
-0.0416416
0.0503123
-0.0625401
-0.0522556
0.0598909
-0.0682542
-0.0633062
0.0690203
-0.071084
-0.0737562
0.076586
-0.0700477
-0.0822332
0.081197
-0.0643742
-0.0870579
0.0813844
-0.0537486
-0.0864715
0.0758459
-0.0803277
-0.0373914
0.0639704
-0.00253627
0.00290206
-0.00759118
0.000534297
-0.0141671
-0.00252416
-0.0217837
-0.00548659
-0.0303346
-0.00932051
-0.0397342
-0.0147853
-0.0497826
-0.0221094
-0.0601399
-0.0312843
-0.0703383
-0.0420572
-0.0797822
-0.0538623
-0.087741
-0.0657975
-0.0933052
-0.076669
-0.095522
-0.0848411
-0.0939233
-0.0880702
-0.0880098
-0.0862412
-0.0021804
0.00508247
-0.006767
0.00512089
-0.0125671
0.00327593
-0.0190926
0.00103894
-0.0262872
-0.00212594
-0.0339848
-0.00708761
-0.0419469
-0.0141473
-0.0498612
-0.02337
-0.0574351
-0.0344833
-0.0644642
-0.0468332
-0.0708682
-0.0593935
-0.0763692
-0.071168
-0.079356
-0.0818543
-0.081858
-0.0855681
-0.0916013
-0.0782665
-0.00136676
0.00644923
-0.00465403
0.00840816
-0.00884819
0.00747009
-0.0133822
0.005573
-0.0178163
0.00230811
-0.0219407
-0.00296324
-0.0253106
-0.0107774
-0.0273961
-0.0212844
-0.0278053
-0.0340741
-0.0263899
-0.0482485
-0.0232927
-0.0624907
-0.0192915
-0.0751693
-0.014772
-0.0863737
-0.00950411
-0.090836
-0.0967909
-0.00431446
-0.000348224
0.00679745
-0.00190642
0.00996635
-0.0038834
0.00944707
-0.00552404
0.00721364
-0.00626758
0.00305164
-0.00549093
-0.00373989
-0.0025045
-0.0137639
0.00332274
-0.0271116
0.012338
-0.0430893
0.0244994
-0.06041
0.0388585
-0.0768498
0.0553712
-0.091682
0.0728162
-0.103819
0.0902968
-0.108317
-0.116692
0.110198
0.000566103
0.00623135
0.000778771
0.00975369
0.00116731
0.00905853
0.00268598
0.00569497
0.00623419
-0.000496563
0.0128054
-0.0103111
0.0232176
-0.024176
0.0377887
-0.0416828
0.0562468
-0.0615474
0.0776081
-0.0817713
0.100771
-0.100013
0.124535
-0.115446
0.147583
-0.126868
0.171935
-0.132669
-0.139161
0.194404
0.00109514
0.00513621
0.00269781
0.00815102
0.00526622
0.00649012
0.00988812
0.00107307
0.0180443
-0.00865273
0.0308889
-0.0231557
0.0489059
-0.042193
0.0714114
-0.0641882
0.0968211
-0.0869572
0.122866
-0.107816
0.148125
-0.125272
0.171119
-0.13844
0.190724
-0.146473
0.210271
-0.152216
-0.152835
0.223945
0.00112882
0.00357295
0.00802805
0.0162387
0.0298782
0.0496855
0.0745265
0.101891
0.128689
0.152517
0.172075
0.186621
0.19825
0.207404
0.216783
0.0132035
-0.12016
0.0695654
0.0708514
0.0290429
-0.0866908
0.127688
0.19133
-0.248167
0.170687
0.294202
-0.337201
0.161215
0.352479
-0.343007
0.125937
0.414493
-0.379215
0.143335
0.308892
-0.32629
0.191931
0.0250713
-0.073667
0.236612
-0.215369
0.170688
0.25805
-0.29253
0.271092
0.246625
-0.31831
0.329735
0.228876
-0.375447
0.393196
0.233812
-0.373382
0.368446
0.2567
-0.222392
0.199504
0.270961
-0.00451925
-0.0097418
0.278035
0.263838
-0.270912
0.287501
0.478035
-0.487502
0.286379
0.495195
-0.494073
0.282423
0.301605
-0.29765
0.288279
-0.0504701
0.0446146
0.285433
-0.361968
0.364814
0.277715
-0.551267
0.558985
0.28726
-0.382215
0.372669
0.292057
0.188739
-0.193536
0.283565
0.642426
-0.633933
0.261233
0.591435
-0.569103
0.234051
0.090671
-0.0634882
0.228992
-0.376499
0.381557
0.244747
-0.347108
0.331352
0.252793
0.0104467
-0.0184927
0.24202
0.302236
-0.291464
0.219606
0.32998
-0.307566
0.200608
0.101726
-0.0827278
0.193128
-0.15159
0.15907
0.200147
-0.348986
0.341967
0.218453
-0.34086
0.322554
0.233287
-0.317191
0.302357
-0.165048
0.1598
-0.0486963
-0.157705
0.0209473
-0.0406007
0.102392
0.109885
0.153602
0.242992
0.146761
0.35932
0.139215
0.422039
0.177548
0.27056
0.216879
-0.01426
0.245449
-0.243939
0.260788
-0.307869
0.245729
-0.303251
0.227697
-0.357415
0.235529
-0.381214
0.254605
-0.241467
0.266488
-0.0164027
0.278192
0.252134
0.29108
0.465147
0.289291
0.496984
0.282649
0.308247
0.286007
-0.0538282
0.282506
-0.358467
0.27022
-0.538982
0.280659
-0.392654
0.29496
0.174438
0.293615
0.643771
0.271525
0.613524
0.239467
0.122729
0.230527
-0.367559
0.246852
-0.363433
0.25607
0.0012286
0.245427
0.31288
0.223217
0.35219
0.2045
0.120443
0.196996
-0.144086
0.201706
-0.353696
0.218985
-0.358139
0.236203
-0.334409
-0.171302
-0.0698742
-0.166098
-0.0164169
-0.094058
0.0629221
0.0305465
0.119942
0.185972
0.134622
0.34464
0.161867
0.394794
0.21238
0.220047
0.242028
-0.043908
0.250388
-0.252299
0.256802
-0.314283
0.240492
-0.286941
0.219191
-0.336115
0.23026
-0.392283
0.250512
-0.261719
0.260817
-0.0267083
0.275994
0.236957
0.292356
0.448785
0.291534
0.497807
0.281709
0.318071
0.280233
-0.0523514
0.276442
-0.354676
0.260601
-0.523141
0.270405
-0.402457
0.294669
0.150173
0.301875
0.636565
0.280681
0.634719
0.243762
0.159647
0.230565
-0.354361
0.247076
-0.379944
0.258062
-0.00975716
0.248283
0.322659
0.226421
0.374052
0.20773
0.139133
0.200546
-0.136901
0.203681
-0.356831
0.219113
-0.373571
0.237925
-0.353221
-0.178937
-0.0317691
-0.138643
-0.0186487
-0.107178
0.039228
-0.0273302
0.101143
0.124058
0.141208
0.304574
0.190373
0.345629
0.240699
0.16972
0.262879
-0.0660879
0.254754
-0.244174
0.250944
-0.310473
0.237843
-0.27384
0.209666
-0.307938
0.216771
-0.399387
0.244101
-0.289049
0.25624
-0.038847
0.270164
0.223034
0.286866
0.432083
0.289379
0.495293
0.278571
0.32888
0.271757
-0.0455376
0.26789
-0.350808
0.250001
-0.505252
0.257484
-0.409941
0.2901
0.117557
0.305723
0.620942
0.286696
0.653746
0.246328
0.200016
0.229101
-0.337134
0.245532
-0.396375
0.258814
-0.0230387
0.250579
0.330893
0.229275
0.395356
0.210451
0.157957
0.203522
-0.129972
0.205831
-0.359141
0.219255
-0.386994
0.238776
-0.372742
-0.188015
0.0676537
-0.0960987
0.0371282
-0.076653
0.0558826
-0.0460846
0.115156
0.0647846
0.174884
0.244846
0.227588
0.292925
0.266916
0.130393
0.279562
-0.0787345
0.258579
-0.223191
0.241658
-0.293552
0.232407
-0.264588
0.200472
-0.276003
0.195139
-0.394054
0.228927
-0.322837
0.248141
-0.0580612
0.262924
0.208251
0.281138
0.413869
0.287503
0.488928
0.274898
0.341485
0.26134
-0.0319801
0.256269
-0.345737
0.237799
-0.486782
0.242183
-0.414325
0.282444
0.0772964
0.307883
0.595503
0.2914
0.670228
0.247543
0.243873
0.226217
-0.315808
0.2423
-0.412459
0.258334
-0.0390726
0.252144
0.337083
0.231713
0.415788
0.212862
0.176807
0.205935
-0.123045
0.207908
-0.361113
0.219583
-0.398669
0.239088
-0.392248
-0.198403
0.16973
-0.0714246
0.134351
-0.0412739
0.116257
-0.0279904
0.14689
0.0341512
0.205613
0.186123
0.257312
0.241226
0.285252
0.102453
0.285557
-0.0790396
0.256533
-0.194168
0.228097
-0.265116
0.220117
-0.256608
0.190615
-0.2465
0.170683
-0.374123
0.205707
-0.357861
0.23443
-0.0867835
0.249678
0.193002
0.267087
0.39646
0.278486
0.477529
0.267904
0.352067
0.249778
-0.0138539
0.242644
-0.338603
0.224712
-0.468851
0.22579
-0.415402
0.269855
0.0332315
0.304136
0.561223
0.291783
0.682581
0.246583
0.289074
0.221845
-0.291071
0.237431
-0.428045
0.25655
-0.0581912
0.253092
0.340541
0.23388
0.435
0.21513
0.195557
0.207918
-0.115832
0.209753
-0.362949
0.220101
-0.409017
0.239125
-0.411271
-0.209889
0.209369
-0.0568482
0.198052
-0.0299566
0.186837
-0.0167758
0.199193
0.0217951
0.241788
0.143528
0.285994
0.19702
0.299234
0.0892129
0.283413
-0.0632182
0.247956
-0.158711
0.212606
-0.229766
0.202345
-0.246347
0.178539
-0.222694
0.1476
-0.343183
0.175339
-0.385601
0.216321
-0.127766
0.236409
0.172915
0.255801
0.377067
0.271699
0.461631
0.260681
0.363085
0.237725
0.00910128
0.227403
-0.32828
0.210412
-0.451859
0.208665
-0.413655
0.256025
-0.0141286
0.299384
0.517863
0.290837
0.691129
0.244289
0.335621
0.216145
-0.262927
0.230815
-0.442715
0.253478
-0.0808533
0.253035
0.340983
0.235326
0.45271
0.217065
0.213818
0.209543
-0.108311
0.2113
-0.364705
0.220738
-0.418456
0.239064
-0.429597
-0.222263
0.205789
-0.0458547
0.202394
-0.0265611
0.202056
-0.0164383
0.213729
0.010122
0.255585
0.101672
0.297581
0.155025
0.30475
0.0820435
0.278766
-0.0372344
0.240551
-0.120496
0.201317
-0.190533
0.186384
-0.231414
0.165982
-0.202292
0.127811
-0.305013
0.141765
-0.399555
0.189305
-0.175306
0.214003
0.148217
0.233583
0.357488
0.254615
0.440599
0.24841
0.369289
0.225651
0.0318605
0.21104
-0.313669
0.195618
-0.436437
0.191931
-0.409969
0.236263
-0.0584597
0.288226
0.4659
0.286487
0.692867
0.240448
0.38166
0.209574
-0.232053
0.223189
-0.45633
0.248796
-0.10646
0.252309
0.33747
0.236572
0.468447
0.218803
0.231587
0.210867
-0.100375
0.21255
-0.366388
0.221475
-0.427381
0.239025
-0.447146
-0.23537
0.411914
-0.0246606
-0.433108
0.398486
-0.0131328
0.387869
-0.00582147
0.382357
0.0156338
0.411723
0.0723061
0.476207
0.0905411
0.51556
0.0426908
0.512263
-0.0339375
0.495224
-0.103457
0.460339
-0.155648
0.42899
-0.200065
0.409567
-0.182869
0.365191
-0.260636
0.329501
-0.363865
0.310559
-0.156364
0.267296
0.19148
0.260962
0.363822
0.316772
0.384789
0.372672
0.313389
0.409868
-0.0053353
0.43075
-0.334551
0.406235
-0.411922
0.352529
-0.356262
0.348935
-0.0548665
0.383808
0.431028
0.394616
0.68206
0.37891
0.397366
0.374056
-0.227199
0.384158
-0.466433
0.389299
-0.111601
0.376591
0.350178
0.357742
0.487296
0.343934
0.245395
0.338685
-0.0951269
0.338667
-0.36637
0.343472
-0.432186
0.358316
-0.46199
-0.246999
0.454991
-0.00941361
-0.470238
0.446849
-0.0049909
0.439549
0.00147861
0.4434
0.011783
0.471882
0.0438242
0.513205
0.0492178
0.538468
0.0174282
0.531938
-0.0274078
0.513599
-0.0851176
0.48375
-0.1258
0.446993
-0.163307
0.419109
-0.154985
0.379231
-0.220759
0.339305
-0.323939
0.297235
-0.114293
0.248876
0.239839
0.264163
0.348534
0.352799
0.296154
0.426021
0.240167
0.461585
-0.0408998
0.470288
-0.343254
0.43094
-0.372575
0.372086
-0.297408
0.371469
-0.0542498
0.414878
0.387619
0.427947
0.668991
0.417506
0.407807
0.418087
-0.22778
0.430099
-0.478445
0.433064
-0.114566
0.420005
0.363237
0.402653
0.504648
0.391099
0.25695
0.385204
-0.0892325
0.382534
-0.363699
0.384183
-0.433835
0.39556
-0.473367
-0.25731
0.501836
0.000365905
-0.511616
0.497394
-0.000548891
0.493253
0.00562017
0.496908
0.0081281
0.51832
0.0224114
0.541979
0.0255594
0.558959
0.000448143
0.557768
-0.0262168
0.544197
-0.0715471
0.51867
-0.100273
0.49146
-0.136097
0.474395
-0.137919
0.424248
-0.170612
0.351267
-0.250958
0.29016
-0.0531852
0.248049
0.281949
0.298013
0.298571
0.412881
0.181285
0.490184
0.162864
0.513757
-0.0644725
0.511055
-0.340552
0.460134
-0.321653
0.388566
-0.22584
0.389939
-0.0556224
0.441029
0.336528
0.462118
0.647902
0.461356
0.40857
0.466005
-0.232429
0.478848
-0.491288
0.482712
-0.11843
0.470369
0.37558
0.455301
0.519716
0.446167
0.266083
0.439159
-0.082225
0.432462
-0.357002
0.429863
-0.431235
0.437051
-0.480555
-0.265742
0.549408
0.00583057
-0.554873
0.546139
0.00272064
0.54631
0.00544853
0.548928
0.00550978
0.562016
0.00932387
0.577694
0.00988122
0.587191
-0.00904874
0.583776
-0.0228015
0.572244
-0.0600156
0.549505
-0.0775334
0.515362
-0.101954
0.494824
-0.117381
0.451682
-0.127471
0.374164
-0.17344
0.317684
0.0032951
0.31873
0.280903
0.397473
0.219828
0.500194
0.0785644
0.558226
0.104832
0.566728
-0.0729744
0.548618
-0.322442
0.480183
-0.253219
0.389425
-0.135082
0.380864
-0.0470617
0.443669
0.273723
0.489199
0.602372
0.51207
0.3857
0.523073
-0.243432
0.534161
-0.502377
0.536075
-0.120344
0.524712
0.386944
0.514482
0.529946
0.509626
0.270939
0.501286
-0.0738849
0.48932
-0.345036
0.48133
-0.423245
0.483492
-0.482718
-0.271697
0.59898
0.0077566
-0.600906
0.597551
0.00414929
0.598597
0.00440257
0.600563
0.00354452
0.608593
0.00129337
0.616292
0.00218234
0.62168
-0.0144369
0.620024
-0.0211457
0.60817
-0.0481611
0.594195
-0.0635586
0.568592
-0.0763501
0.5401
-0.0888901
0.494473
-0.081843
0.428146
-0.107113
0.409047
0.0223933
0.45625
0.2337
0.528693
0.147386
0.59004
0.0172167
0.620904
0.0739687
0.616684
-0.0687541
0.583966
-0.289725
0.500783
-0.170036
0.392322
-0.0266208
0.366913
-0.0216534
0.440658
0.199978
0.527343
0.515687
0.578209
0.334834
0.586699
-0.251922
0.590135
-0.505813
0.592174
-0.122383
0.585761
0.393356
0.583653
0.532054
0.582922
0.271671
0.571257
-0.0622207
0.552238
-0.326017
0.537857
-0.408864
0.534616
-0.479477
-0.274938
0.65161
0.00772734
-0.651581
0.650877
0.00488248
0.652202
0.00307721
0.653444
0.00230252
0.657507
-0.00276996
0.661803
-0.0021136
0.662786
-0.0154195
0.660731
-0.0190907
0.649185
-0.0366156
0.633667
-0.0480401
0.610214
-0.0528971
0.589084
-0.06776
0.560459
-0.0532181
0.50965
-0.0563043
0.513284
0.0187595
0.583175
0.163809
0.632687
0.0978743
0.655915
-0.00601144
0.669865
0.0600182
0.654472
-0.0533606
0.612394
-0.247647
0.536654
-0.0942957
0.43468
0.0753536
0.39535
0.0176763
0.473698
0.12163
0.594973
0.394412
0.662864
0.266942
0.659706
-0.248763
0.647221
-0.493328
0.647294
-0.122456
0.649861
0.390789
0.65918
0.522735
0.663647
0.267204
0.648229
-0.0468035
0.621495
-0.299283
0.600137
-0.387506
0.591019
-0.470359
-0.275122
0.707145
0.00685066
-0.706269
0.707192
0.00483558
0.708129
0.00213996
0.709013
0.00141873
0.710397
-0.00415322
0.712119
-0.00383656
0.710421
-0.0137209
0.70778
-0.0164495
0.698151
-0.0269865
0.686533
-0.0364221
0.66998
-0.036344
0.648848
-0.0466284
0.627763
-0.0321332
0.596581
-0.0251219
0.605809
0.00953088
0.668083
0.101535
0.696349
0.0696084
0.70228
-0.0119433
0.720854
0.041445
0.703311
-0.0358181
0.648914
-0.19325
0.598535
-0.0439166
0.543107
0.130781
0.507536
0.0532478
0.572088
0.0570781
0.697458
0.269042
0.758454
0.205947
0.731523
-0.221832
0.69465
-0.456456
0.689838
-0.117643
0.708177
0.37245
0.738218
0.492694
0.750118
0.255304
0.730176
-0.0268609
0.695724
-0.264831
0.667712
-0.359494
0.652748
-0.455394
-0.272064
0.766748
0.00572063
-0.765618
0.76719
0.004394
0.767676
0.00165368
0.768237
0.000857252
0.767957
-0.00387296
0.768248
-0.00412761
0.765646
-0.011119
0.762299
-0.0131021
0.75459
-0.0192773
0.74343
-0.0252629
0.730969
-0.0238826
0.714028
-0.0296873
0.701695
-0.0198004
0.686454
-0.00988102
0.688489
0.00749615
0.733118
0.0569062
0.755144
0.0475824
0.749353
-0.00615191
0.766503
0.0242943
0.753796
-0.0231102
0.695093
-0.134548
0.671872
-0.0206956
0.677266
0.125387
0.667211
0.0633033
0.702526
0.0217626
0.799181
0.172387
0.846653
0.158474
0.799508
-0.174687
0.734542
-0.391489
0.727803
-0.110904
0.771035
0.329217
0.821803
0.441926
0.837583
0.239525
0.814023
-0.00330092
0.774619
-0.225427
0.741569
-0.326444
0.720896
-0.434721
-0.265352
0.831226
0.00469231
-0.830198
0.831774
0.00384549
0.832025
0.00140359
0.832167
0.000714444
0.831335
-0.00304063
0.830586
-0.00337907
0.827729
-0.00826164
0.823945
-0.00931755
0.817882
-0.0132147
0.809014
-0.0163949
0.800317
-0.0151855
0.788491
-0.0178618
0.778918
-0.0102271
0.772245
-0.00320806
0.772126
0.00761547
0.798107
0.0309254
0.814271
0.0314182
0.809537
-0.00141789
0.82307
0.0107609
0.814621
-0.0146605
0.762744
-0.0826712
0.752289
-0.0102407
0.789344
0.0883319
0.798936
0.053712
0.808873
0.0118252
0.871246
0.110014
0.913169
0.116552
0.860795
-0.122314
0.768257
-0.298951
0.749544
-0.0921912
0.813224
0.265538
0.885465
0.369685
0.912205
0.212784
0.893228
0.0156763
0.853896
-0.186095
0.818764
-0.291312
0.794245
-0.410202
-0.255598
0.901554
0.00382941
-0.900691
0.902023
0.0033768
0.902156
0.00127033
0.901981
0.0008892
0.901011
-0.00206997
0.899754
-0.00212275
0.897155
-0.00566282
0.893715
-0.00587731
0.888941
-0.0084403
0.882299
-0.00975347
0.875525
-0.00841127
0.867376
-0.00971249
0.86076
-0.00361092
0.857772
-0.000220955
0.857515
0.00787251
0.871182
0.0172586
0.882627
0.0199733
0.879769
0.0014407
0.88565
0.00487894
0.880908
-0.00991766
0.847297
-0.0490604
0.841564
-0.00450737
0.878978
0.0509173
0.895614
0.0370764
0.892824
0.0146151
0.92776
0.0750784
0.964398
0.0799134
0.919123
-0.0770395
0.813298
-0.193125
0.777134
-0.0560272
0.84773
0.194942
0.940364
0.277051
0.982263
0.170885
0.970112
0.0278281
0.932778
-0.148761
0.897939
-0.256473
0.871675
-0.383938
-0.243625
0.97858
0.00312071
-0.977872
0.978946
0.00301127
0.979002
0.0012136
0.978682
0.00120984
0.977756
-0.00114411
0.976494
-0.000861159
0.97422
-0.00338795
0.971417
-0.00307474
0.967573
-0.00459611
0.962752
-0.00493224
0.95783
-0.00348996
0.952469
-0.00435113
0.948036
0.000822014
0.946105
0.00170966
0.946013
0.00796488
0.952672
0.0105997
0.959195
0.0134501
0.958529
0.00210644
0.961526
0.0018824
0.958358
-0.00674936
0.939632
-0.030335
0.936579
-0.0014538
0.962408
0.0250884
0.976804
0.0226798
0.974335
0.0170842
0.994783
0.0546306
1.01931
0.0553859
0.983547
-0.0412763
0.891631
-0.101209
0.854255
-0.0186508
0.923127
0.12607
1.01773
0.18245
1.06113
0.127479
1.05105
0.037911
1.01759
-0.115306
0.985045
-0.223924
0.957168
-0.356061
-0.229069
1.06311
0.00257442
-1.06257
1.06339
0.00273438
1.0634
0.00120616
1.06308
0.00153267
1.06229
-0.000358233
1.06118
0.000246711
1.05936
-0.00156812
1.05719
-0.000898466
1.05429
-0.00170142
1.05092
-0.00156113
1.04741
2.12617e-05
1.0437
-0.000639972
1.04077
0.003754
1.03939
0.00308075
1.03908
0.00827622
1.04229
0.0073973
1.04585
0.0098829
1.04562
0.00233771
1.04717
0.000337235
1.045
-0.00458581
1.03516
-0.0204961
1.0355
-0.00179223
1.0519
0.00868898
1.06177
0.0128093
1.06177
0.0170855
1.07472
0.0416845
1.08612
0.0439831
1.05678
-0.0119398
0.994859
-0.0392847
0.975835
0.000373968
1.0355
0.0664062
1.10975
0.108196
1.14066
0.0965739
1.13108
0.0474927
1.10329
-0.087524
1.07542
-0.196047
1.04797
-0.328612
-0.212779
1.15588
0.00213962
-1.15544
1.15612
0.00249184
1.15613
0.00119147
1.1559
0.00177034
1.15529
0.000243536
1.15443
0.0011066
1.15309
-0.000221351
1.15148
0.000705689
1.14941
0.00037261
1.14706
0.000783185
1.14465
0.00243882
1.14219
0.0018216
1.1402
0.00573471
1.13911
0.00417941
1.13871
0.0086718
1.14002
0.00608709
1.14174
0.00815845
1.14174
0.0023425
1.14271
-0.000630628
1.14177
-0.00364969
1.13732
-0.0160413
1.13864
-0.00311192
1.1487
-0.00137546
1.15512
0.00638729
1.15602
0.0161847
1.16445
0.0332574
1.16913
0.0393007
1.14696
0.010236
1.10953
-0.0018546
1.10461
0.00528911
1.14968
0.0213403
1.2006
0.057272
1.22098
0.0761953
1.21466
0.0538182
1.19475
-0.067615
1.17218
-0.173485
1.14508
-0.301511
-0.195051
1.25772
0.00176451
-1.25734
1.25795
0.00226107
1.258
0.00113627
1.25787
0.00190603
1.25747
0.000643714
1.25687
0.00170051
1.25594
0.000707945
1.25484
0.00180783
1.25343
0.00178281
1.25188
0.00232954
1.25025
0.00407405
1.24865
0.0034192
1.24729
0.00709673
1.24647
0.0049948
1.24605
0.00909491
1.24648
0.00566226
1.24736
0.00727133
1.24738
0.00232341
1.24806
-0.0013072
1.24788
-0.00347501
1.24613
-0.0142899
1.24786
-0.0048358
1.25402
-0.00753478
1.25822
0.00218625
1.25936
0.0150396
1.26428
0.028338
1.26522
0.0383622
1.25
0.0254562
1.22965
0.018497
1.23209
0.00285005
1.26274
-0.00931025
1.29456
0.0254548
1.3077
0.0630459
1.30636
0.0551635
1.29397
-0.0552275
1.27653
-0.156044
1.25015
-0.275127
-0.17585
1.36943
0.00143953
-1.3691
1.36966
0.00202773
1.36976
0.00104036
1.36973
0.00193042
1.36951
0.000865788
1.36917
0.00204333
1.36859
0.00128371
1.36792
0.00248301
1.36703
0.00266526
1.36609
0.00327192
1.36507
0.00509749
1.36412
0.00436844
1.36326
0.00795355
1.36273
0.00552385
1.36245
0.0093779
1.36253
0.00558365
1.36303
0.0067723
1.36306
0.00229108
1.36357
-0.00181467
1.36385
-0.00376187
1.3634
-0.0138371
1.36488
-0.00631824
1.36853
-0.0111808
1.37111
-0.000392392
1.37207
0.0140762
1.37519
0.0252247
1.37516
0.0383881
1.36593
0.0346861
1.35652
0.027904
1.36135
-0.00197674
1.38022
-0.0281812
1.39849
0.00718229
1.40774
0.0538033
1.41084
0.0520555
1.40392
-0.0483047
1.38872
-0.140844
1.3609
-0.247308
-0.155585
1.49187
0.00114034
-1.49157
1.49211
0.00178371
1.49225
0.000901295
1.49232
0.00185964
1.49225
0.000939152
1.49211
0.0021743
1.49182
0.00157857
1.49149
0.00280813
1.49102
0.00313616
1.49056
0.00373685
1.49001
0.00564195
1.48957
0.00481137
1.48914
0.00838129
1.48892
0.005743
1.48886
0.00943853
1.4889
0.00554746
1.48934
0.00633369
1.48942
0.00221274
1.48988
-0.00227518
1.49032
-0.00420418
1.49032
-0.0138377
1.49143
-0.00743223
1.49346
-0.013202
1.49488
-0.00181981
1.49571
0.0132487
1.49802
0.0229168
1.4979
0.0385097
1.49299
0.0395923
1.49053
0.0303678
1.49608
-0.00753011
1.50639
-0.0384934
1.51519
-0.00161103
1.5218
0.0471924
1.52788
0.0459721
1.52385
-0.0442704
1.50944
-0.126442
1.4805
-0.218365
-0.134047
1.62582
0.000910531
-1.62559
1.62604
0.00156835
1.62616
0.000779503
1.62628
0.00173573
1.62628
0.000939778
1.62632
0.00213337
1.62623
0.00167306
1.62622
0.00281785
1.62611
0.00324626
1.6261
0.00374753
1.62608
0.00566304
1.62615
0.00473787
1.62632
0.0082128
1.62655
0.00551583
1.62694
0.00904078
1.62721
0.00527754
1.62778
0.00576426
1.62781
0.00218452
1.62813
-0.00259207
1.62815
-0.00422153
1.62765
-0.0133434
1.62807
-0.00785301
1.62837
-0.0134978
1.62885
-0.00230687
1.62999
0.0121162
1.63246
0.0204441
1.63356
0.0374055
1.63339
0.0397645
1.63617
0.0275933
1.63984
-0.0112007
1.64177
-0.0404304
1.64455
-0.0043848
1.65205
0.0396887
1.66111
0.0369143
1.6566
-0.0397605
1.63776
-0.107604
1.60379
-0.184392
-0.112056
1.77244
0.000779389
-1.77231
1.7726
0.00141678
1.77266
0.000713487
1.77279
0.00161206
1.77281
0.000914673
1.77296
0.00198304
1.77302
0.00161563
1.77327
0.00256614
1.77348
0.00303464
1.77389
0.00333508
1.77438
0.00517421
1.77497
0.00414858
1.77577
0.00741955
1.7765
0.00478042
1.77743
0.00811036
1.77806
0.0046448
1.77888
0.00494967
1.7789
0.00216247
1.77912
-0.00281222
1.77857
-0.00367142
1.7773
-0.0120693
1.77709
-0.00764883
1.77561
-0.0120194
1.77524
-0.00192798
1.77685
0.0105055
1.77931
0.0179766
1.78185
0.0348653
1.78636
0.0352623
1.79312
0.0208333
1.79364
-0.0117258
1.78787
-0.0346558
1.78677
-0.00328808
1.79711
0.0293474
1.80895
0.0250805
1.80245
-0.0332647
1.7784
-0.083555
1.74073
-0.146723
-0.0894959
1.93196
0.00100085
-1.93218
1.93185
0.00152577
1.93162
0.000943532
1.93157
0.0016594
1.93146
0.00103209
1.93162
0.00182437
1.9318
0.0014322
1.93234
0.00202496
1.93309
0.00228841
1.93412
0.00229728
1.93572
0.00357749
1.93722
0.00265171
1.93969
0.00494578
1.94152
0.00295455
1.94412
0.00551018
1.94591
0.00285265
1.94729
0.0035657
1.94756
0.00190092
1.94648
-0.00173759
1.94366
-0.000853565
1.9386
-0.00700591
1.9352
-0.00424879
1.92938
-0.00620393
1.92729
0.00016657
1.93047
0.00732052
1.93489
0.0135567
1.94559
0.0241692
1.96174
0.0191119
1.97244
0.0101298
1.96399
-0.00327582
1.94513
-0.0157932
1.94071
0.00113774
1.95752
0.0125348
1.97223
0.0103648
1.96042
-0.0214507
1.92706
-0.0501939
1.8817
-0.101365
-0.0668169
2.10933
0.00113705
-2.10947
2.10941
0.00145295
2.10925
0.00109993
2.10938
0.00152413
2.10932
0.00109355
2.10959
0.0015534
2.10982
0.00120163
2.11032
0.0015252
2.11112
0.00149516
2.11193
0.00148183
2.11356
0.00195325
2.11472
0.00148553
2.11722
0.00245027
2.1187
0.00147422
2.12143
0.00278247
2.12296
0.00132317
2.12432
0.00220285
2.12485
0.00137255
2.12302
9.25824e-05
2.12084
0.00132655
2.11524
-0.0014131
2.11107
-7.14569e-05
2.10561
-0.000749187
2.1037
0.00207487
2.10699
0.00403235
2.11307
0.0074815
2.12689
0.0103479
2.1409
0.00510316
2.14753
0.00349226
2.14081
0.00344743
2.12587
-0.000856701
2.12156
0.00544833
2.13023
0.00387245
2.13766
0.00293019
2.13139
-0.0151803
2.11127
-0.0300722
2.07595
-0.0660493
-0.0467859
2.30427
0.000828903
-2.30397
2.30473
0.000995419
2.305
0.000831876
2.30547
0.00105517
2.30572
0.000843221
2.30616
0.00110687
2.30647
0.000899107
2.30685
0.00113835
2.30731
0.0010368
2.30766
0.00113507
2.30835
0.001261
2.30875
0.0010886
2.30969
0.00150449
2.31016
0.0010133
2.31132
0.00161629
2.31172
0.000928481
2.31256
0.00136386
2.31304
0.000888626
2.31248
0.000653445
2.31291
0.000891552
2.31154
-4.28827e-05
2.31052
0.000947102
2.30959
0.000183685
2.30978
0.00188935
2.31134
0.00247327
2.31536
0.00345293
2.32142
0.00429486
2.32351
0.00301251
2.32443
0.00256735
2.32623
0.0016459
2.32537
1.00531e-05
2.32517
0.00564435
2.32431
0.00472998
2.32493
0.00231569
2.32285
-0.013105
2.3155
-0.0227198
2.29233
-0.0428777
-0.0297779
2.51527
0.000466801
-2.51491
2.51573
0.000537789
2.51609
0.000473976
2.51658
0.00056467
2.51694
0.000477437
2.51747
0.000580505
2.51788
0.000487592
2.51844
0.000578283
2.51896
0.000515854
2.51955
0.000553811
2.52024
0.00056727
2.52082
0.000510683
2.52169
0.000633143
2.52224
0.000464201
2.52317
0.000686234
2.52365
0.000446759
2.52435
0.000664377
2.52471
0.000526679
2.52484
0.000527454
2.52502
0.000705319
2.52454
0.000437696
2.52464
0.000847777
2.52426
0.000569673
2.52503
0.00111484
2.52654
0.0009589
2.52876
0.00123673
2.53182
0.00123327
2.53418
0.000657285
2.53613
0.000619015
2.53635
0.00142091
2.53503
0.00132572
2.53718
0.00349884
2.54016
0.00174585
2.54169
0.000789579
2.53458
-0.00599462
2.52119
-0.00933225
2.49751
-0.0191995
-0.014458
2.74719
-2.74672
2.74773
2.7482
2.74877
2.74924
2.74982
2.75031
2.75089
2.75141
2.75196
2.75253
2.75304
2.75367
2.75414
2.75482
2.75527
2.75593
2.75646
2.75699
2.75769
2.75813
2.75898
2.75955
2.76066
2.76162
2.76286
2.76409
2.76475
2.76537
2.76679
2.76811
2.77161
2.77336
2.77415
2.76815
2.75882
2.73962
0.423755
0.037409
-0.418029
0.429046
0.0655966
0.433649
0.0936614
0.438335
0.120193
0.439314
0.148421
0.44285
0.170018
0.438559
0.198352
0.210217
0.453514
0.033043
-0.449148
0.458216
0.0608942
0.461316
0.0905617
0.465365
0.116144
0.467066
0.14672
0.469398
0.167687
0.471929
0.195821
0.211908
0.488664
0.0295513
-0.485172
0.492111
0.0574472
0.495315
0.0873574
0.498359
0.1131
0.502588
0.14249
0.505331
0.164944
0.510345
0.190806
0.210638
0.527457
0.026415
-0.524321
0.530269
0.0546352
0.534329
0.0832976
0.537763
0.109666
0.543042
0.137212
0.546914
0.161072
0.551308
0.186411
0.207073
0.571243
0.0235892
-0.568417
0.574134
0.0517445
0.578196
0.079235
0.5819
0.105962
0.586473
0.132639
0.590573
0.156973
0.595736
0.181248
0.201903
0.619408
0.0211267
-0.616945
0.62228
0.0488718
0.625843
0.0756719
0.629672
0.102134
0.63435
0.12796
0.639547
0.151776
0.64577
0.175025
0.196092
0.672315
0.0190289
-0.670217
0.675133
0.0460541
0.678619
0.0721857
0.682801
0.097951
0.68793
0.122832
0.693435
0.146271
0.699828
0.168632
0.189652
0.730455
0.0171417
-0.728568
0.7332
0.0433092
0.736705
0.0686814
0.740967
0.0936882
0.746166
0.117634
0.75184
0.140597
0.75851
0.161962
0.182543
0.794119
0.0154406
-0.792418
0.79675
0.040678
0.800254
0.0651777
0.804581
0.0893608
0.809845
0.11237
0.815803
0.134638
0.822667
0.155099
0.175013
0.863785
0.0139086
-0.862253
0.866339
0.0381236
0.869831
0.0616859
0.874224
0.0849675
0.879561
0.107034
0.885761
0.128438
0.892824
0.148036
0.167145
0.939975
0.0125268
-0.938593
0.94244
0.035658
0.945911
0.0582147
0.950387
0.080492
0.955882
0.101538
0.962331
0.121989
0.969661
0.140707
0.158934
1.02322
0.0112964
-1.02199
1.02562
0.0332578
1.02915
0.0546806
1.03383
0.0758152
1.03955
0.0958147
1.04629
0.115253
1.05395
0.133042
0.15032
1.11431
0.0101616
-1.11318
1.11673
0.0308455
1.12038
0.0510327