/*--------------------------------*- C++ -*----------------------------------*\
| =========                 |                                                 |
| \\      /  F ield         | OpenFOAM: The Open Source CFD Toolbox           |
|  \\    /   O peration     | Version:  2312                                  |
|   \\  /    A nd           | Website:  www.openfoam.com                      |
|    \\/     M anipulation  |                                                 |
\*---------------------------------------------------------------------------*/
FoamFile
{
    version     2.0;
    format      ascii;
    arch        "LSB;label=32;scalar=64";
    class       volVectorField;
    location    "24";
    object      U;
}
// * * * * * * * * * * * * * * * * * * * * * * * * * * * * * * * * * * * * * //

dimensions      [0 1 -1 0 0 0 0];

internalField   nonuniform List<vector> 
5478
(
(-0.0191939 0.0133001 -5.8497e-20)
(-0.0293273 0.0239317 0)
(-0.00764114 0.0261252 8.80594e-20)
(0.0513265 0.0246722 -1.54189e-19)
(0.152669 0.0245342 1.0096e-19)
(0.294458 0.0300613 -2.96937e-20)
(0.464474 0.0431639 -5.21686e-20)
(0.644782 0.0625062 0)
(0.818569 0.0856218 0)
(0.974643 0.108786 7.32706e-20)
(1.09968 0.126969 -3.14767e-20)
(1.20154 0.144312 -5.80597e-20)
(1.26157 0.142946 -2.43848e-20)
(1.30104 0.15265 0)
(1.31868 0.122441 7.68257e-20)
(-0.0236441 0.0131719 1.17326e-19)
(-0.020621 0.0158879 0)
(0.0350355 0.0122677 0)
(0.152101 0.0123684 -7.69516e-20)
(0.327678 0.0232648 1.01481e-19)
(0.537394 0.0460279 2.93282e-20)
(0.748886 0.0766125 -5.06265e-20)
(0.93589 0.108466 4.48866e-20)
(1.08494 0.136761 1.1586e-19)
(1.18718 0.155085 -1.02344e-19)
(1.25056 0.166284 2.42795e-21)
(1.27451 0.162794 0)
(1.2739 0.156518 2.4341e-20)
(1.26129 0.139926 0)
(1.23364 0.123054 0)
(-0.0242779 0.0117051 -4.08333e-22)
(0.00752077 0.0080965 -5.47869e-20)
(0.124413 0.00597139 1.66927e-22)
(0.326276 0.0196255 0)
(0.57504 0.0510633 -3.38231e-20)
(0.815508 0.0913473 2.87921e-20)
(1.00946 0.129533 2.4542e-20)
(1.14293 0.158252 0)
(1.21658 0.173087 -3.80429e-20)
(1.24549 0.176288 3.31616e-20)
(1.24372 0.168317 2.88911e-20)
(1.22878 0.157134 0)
(1.21617 0.142158 0)
(1.20561 0.132927 -7.00825e-20)
(1.20521 0.119615 6.23786e-20)
(-0.0172524 0.00755021 -6.40862e-20)
(0.0659518 -0.000873623 5.38792e-20)
(0.273172 0.0108878 -4.6289e-20)
(0.560117 0.050453 4.03892e-20)
(0.835657 0.101309 6.77007e-20)
(1.04093 0.145543 -5.71457e-20)
(1.16322 0.173942 -2.45244e-20)
(1.21649 0.184861 2.01688e-20)
(1.22757 0.1834 -1.87992e-20)
(1.22003 0.174078 0)
(1.21137 0.16477 0)
(1.2092 0.153755 -4.25469e-20)
(1.21055 0.148211 5.6767e-20)
(1.21086 0.137499 -3.24762e-20)
(1.2159 0.131136 0)
(0.00143707 0.00138871 3.24726e-20)
(0.166322 -0.00530927 2.69196e-20)
(0.47763 0.0373592 -9.68652e-20)
(0.801979 0.102571 1.40839e-21)
(1.03548 0.156693 -9.72889e-22)
(1.162 0.187642 -7.33743e-22)
(1.21011 0.19755 2.28553e-20)
(1.21834 0.195053 1.99979e-20)
(1.2141 0.187118 1.48941e-20)
(1.21024 0.179153 -1.52058e-21)
(1.20784 0.169922 -3.47783e-20)
(1.20326 0.161255 0)
(1.19449 0.150058 1.75643e-20)
(1.18633 0.137469 -1.42831e-20)
(1.1698 0.127195 2.44522e-20)
(0.037005 -0.0044652 -7.02878e-20)
(0.313623 0.00741026 7.5529e-20)
(0.697786 0.0882444 -2.56098e-20)
(0.990231 0.161603 1.91621e-20)
(1.14614 0.201974 -3.52919e-20)
(1.20517 0.21507 -2.6383e-20)
(1.21742 0.213563 4.89773e-22)
(1.21388 0.20615 0)
(1.20646 0.196969 2.91811e-20)
(1.19702 0.185725 -2.59499e-20)
(1.18611 0.174049 1.09904e-20)
(1.17581 0.160942 0)
(1.16951 0.149697 6.77075e-21)
(1.16276 0.137092 -1.31739e-20)
(1.16429 0.130847 0)
(0.0941739 -0.00477194 -8.7138e-21)
(0.491217 0.0483526 9.01843e-22)
(0.882164 0.152565 1.25274e-20)
(1.10629 0.216011 2.08597e-20)
(1.19598 0.238685 -1.57596e-20)
(1.21681 0.239329 2.64588e-20)
(1.21147 0.230794 -6.08485e-21)
(1.19881 0.218911 0)
(1.1855 0.205289 -1.6307e-20)
(1.17453 0.191841 9.45274e-22)
(1.16694 0.178466 1.37416e-20)
(1.162 0.166399 0)
(1.15578 0.153806 -9.62232e-21)
(1.15074 0.141088 0)
(1.13946 0.131509 6.52325e-21)
(0.172198 0.00758843 -9.7565e-21)
(0.660972 0.114249 0)
(1.01137 0.220303 1.31387e-20)
(1.16779 0.266324 0)
(1.21062 0.273036 0)
(1.20736 0.263142 0)
(1.1922 0.248109 -5.01853e-21)
(1.17744 0.232018 0)
(1.1657 0.216311 3.20199e-21)
(1.15602 0.20068 0)
(1.14687 0.185435 -4.21166e-21)
(1.13738 0.169647 0)
(1.1296 0.154465 2.84744e-21)
(1.12153 0.139752 0)
(1.11804 0.128852 1.97028e-21)
(-0.0138495 -0.0114263 -6.29184e-21)
(-0.0551654 -0.0304632 0)
(-0.114249 -0.0447854 1.02607e-20)
(-0.170616 -0.057221 0)
(-0.22313 -0.0691549 0)
(-0.272734 -0.0802902 0)
(-0.319419 -0.090105 -7.32046e-21)
(-0.363281 -0.0982804 0)
(-0.404373 -0.104626 6.32996e-21)
(-0.442672 -0.109055 0)
(-0.478007 -0.111571 -1.09527e-20)
(-0.510197 -0.112277 0)
(-0.539362 -0.111339 9.41891e-21)
(-0.566349 -0.108729 0)
(-0.591913 -0.104801 8.11971e-21)
(-0.0140521 0.0225746 3.18016e-20)
(-0.0489485 0.0288034 -2.30339e-20)
(-0.0979858 0.0211956 1.07005e-20)
(-0.144515 0.00945096 3.80887e-20)
(-0.187044 -0.00309452 6.75472e-22)
(-0.226354 -0.0150493 -3.1692e-20)
(-0.262492 -0.025807 2.16374e-20)
(-0.295605 -0.0350998 0)
(-0.325826 -0.0427783 1.9423e-20)
(-0.353228 -0.048787 9.68408e-22)
(-0.377741 -0.053176 -1.03084e-20)
(-0.399218 -0.0560345 0)
(-0.416869 -0.057952 -2.78018e-20)
(-0.431961 -0.0587469 0)
(-0.446042 -0.0590641 -4.03984e-20)
(-0.0157985 0.0444352 5.27745e-20)
(-0.0423773 0.0723603 1.21791e-20)
(-0.0753602 0.0738067 -2.09116e-20)
(-0.105493 0.0649171 -5.7943e-20)
(-0.131318 0.0528031 3.44124e-20)
(-0.152931 0.0406162 3.27664e-20)
(-0.170205 0.0295429 -5.8672e-20)
(-0.183205 0.0199899 0)
(-0.19206 0.0121276 -5.13887e-20)
(-0.196855 0.00600807 4.56934e-20)
(-0.197054 0.00116533 2.12828e-20)
(-0.194535 -0.000767629 0)
(-0.185043 -0.00402583 1.83702e-20)
(-0.174754 -0.00361005 -3.31801e-20)
(-0.15106 -0.0090741 0)
(-0.0172515 0.0516984 2.76195e-20)
(-0.0364451 0.0950987 -7.29374e-20)
(-0.0526906 0.107611 8.68682e-20)
(-0.0645518 0.10424 -7.77964e-20)
(-0.0715385 0.0940157 -3.54631e-20)
(-0.0735132 0.0819927 3.22727e-20)
(-0.0702698 0.0704823 2.96248e-20)
(-0.0617735 0.0603673 2.69816e-20)
(-0.0480723 0.0519349 -7.55777e-20)
(-0.0309411 0.0450931 -1.41757e-21)
(-0.00364407 0.0395579 2.02549e-20)
(0.0194784 0.0378662 0)
(0.0641961 0.0338096 3.47384e-20)
(0.0853649 0.0352766 9.91422e-20)
(0.1613 0.0406951 -5.8949e-20)
(-0.0170333 0.0464635 3.67825e-22)
(-0.0313636 0.0958831 4.98395e-20)
(-0.0343964 0.118116 -4.40229e-20)
(-0.0300809 0.122002 3.91823e-20)
(-0.0193871 0.115732 7.06604e-20)
(-0.00272094 0.105211 -6.40633e-20)
(0.0197814 0.0937964 -2.88541e-20)
(0.0480029 0.0829672 -8.11669e-20)
(0.0836456 0.0736148 7.28378e-20)
(0.117783 0.0658505 0)
(0.177471 0.0613663 0)
(0.205609 0.0557248 7.56581e-20)
(0.305337 0.0585588 -1.71405e-19)
(0.313911 0.0479 6.17787e-20)
(0.462797 0.0641815 0)
(-0.0152673 0.0346122 1.26059e-22)
(-0.0275106 0.0799102 -4.97874e-20)
(-0.023177 0.105866 1.32406e-19)
(-0.00779489 0.114749 -3.89975e-20)
(0.0165764 0.112274 -3.52231e-20)
(0.0488221 0.103788 3.18143e-20)
(0.0884197 0.0930573 2.88673e-20)
(0.134415 0.0821795 5.21605e-20)
(0.195316 0.0746235 -9.21309e-20)
(0.246675 0.0656015 4.17938e-20)
(0.350932 0.0654685 3.78853e-20)
(0.382682 0.0568554 0)
(0.551415 0.0657182 0)
(0.547609 0.0558002 1.20226e-19)
(0.767627 0.0717852 -1.0699e-19)
(-0.0137933 0.022767 8.2385e-23)
(-0.0261803 0.0569773 0)
(-0.0196508 0.0786491 0)
(0.00190934 0.0868407 7.75859e-20)
(0.0367984 0.0852591 -3.44746e-20)
(0.0847712 0.0784793 3.0183e-20)
(0.147125 0.0706229 5.52892e-20)
(0.223336 0.0636197 -4.90282e-20)
(0.319797 0.0605554 4.58617e-20)
(0.413556 0.058033 -4.18359e-20)
(0.554296 0.0624158 -2.02452e-21)
(0.6318 0.0633826 0)
(0.820887 0.0761856 2.94267e-20)
(0.851687 0.0737185 0)
(1.0782 0.0947916 0)
(-0.0149946 0.0154725 -5.74134e-20)
(-0.0281801 0.036862 0)
(-0.0193757 0.0488992 -8.77832e-20)
(0.0114268 0.0520831 1.54089e-19)
(0.0659769 0.0498386 -1.69385e-19)
(0.146697 0.0464164 -3.04462e-20)
(0.25386 0.0453159 5.30768e-20)
(0.383778 0.0486944 0)
(0.52704 0.0557568 0)
(0.677861 0.0694936 -7.78826e-20)
(0.823585 0.0802352 -3.67802e-20)
(0.955536 0.0989946 6.25022e-20)
(1.08842 0.106731 -2.94726e-20)
(1.16195 0.118661 0)
(1.29314 0.124211 -9.31351e-20)
(-0.626612 -0.0978407 0)
(-0.662208 -0.0930266 3.98579e-21)
(-0.66536 -0.0712593 -3.68827e-21)
(-0.653779 -0.0491803 0)
(-0.605305 -0.0153642 0)
(-0.543982 0.00070904 -1.35615e-22)
(-0.426855 0.0247493 0)
(-0.293145 0.0362716 0)
(-0.0917719 0.0438886 6.61135e-25)
(0.0956831 0.0354792 0)
(0.293168 0.0472186 0)
(0.435062 0.0360375 7.18058e-23)
(0.573783 0.0535121 0)
(0.654452 0.0384358 4.90594e-23)
(0.740987 0.0573044 3.81453e-23)
(0.783906 0.0405182 0)
(0.834894 0.0560743 1.65104e-22)
(0.863803 0.0472935 -1.93623e-22)
(0.889755 0.0490985 0)
(0.91282 0.057179 -8.00794e-23)
(0.922058 0.0411866 9.0647e-23)
(0.938513 0.061067 -1.6514e-23)
(0.945411 0.0461441 2.07369e-23)
(0.953823 0.0485279 -1.98146e-23)
(0.965534 0.0599576 1.47099e-23)
(0.968999 0.0380097 0)
(0.977388 0.0501993 9.10147e-24)
(0.983682 0.0578933 -8.70245e-24)
(0.983119 0.0297018 6.82937e-24)
(0.988854 0.05458 0)
(0.991956 0.0605824 9.00372e-24)
(0.989313 0.0337385 0)
(0.991779 0.0487547 7.86684e-24)
(0.996276 0.0684099 3.74696e-24)
(0.996086 0.0790186 -4.37877e-25)
(0.990787 0.0121335 3.56657e-24)
(0.996122 0.0750303 0)
(1.00054 0.100765 -2.14287e-24)
(-0.474217 -0.0571483 1.48457e-20)
(-0.537838 -0.0778227 -1.19775e-22)
(-0.552215 -0.0675504 -1.38427e-20)
(-0.561813 -0.0653378 1.32024e-20)
(-0.533729 -0.0465002 0)
(-0.484822 -0.0463878 1.36673e-22)
(-0.398669 -0.0443762 -1.95042e-22)
(-0.26868 -0.0558363 0)
(-0.0967079 -0.0608049 -6.66096e-25)
(0.0895586 -0.0602356 0)
(0.256086 -0.0313758 0)
(0.402145 -0.0252488 -7.23196e-23)
(0.518726 0.00704568 0)
(0.604917 0.00392807 -1.50731e-21)
(0.681115 0.0315608 1.27422e-21)
(0.73039 0.0213928 -8.77618e-22)
(0.780668 0.0409715 8.37722e-22)
(0.815106 0.0362292 3.62065e-23)
(0.845904 0.0405367 0)
(0.873726 0.051036 0)
(0.889748 0.0366584 1.7592e-23)
(0.911719 0.0572769 -1.17843e-22)
(0.925458 0.0433451 1.8398e-22)
(0.939968 0.04569 -8.08174e-23)
(0.95621 0.0578793 -4.48683e-23)
(0.964045 0.036483 0)
(0.974613 0.0486052 -2.0012e-23)
(0.982069 0.0573275 0)
(0.982958 0.0292088 -6.85336e-24)
(0.988711 0.0537941 2.06427e-23)
(0.991805 0.0605865 -3.79281e-23)
(0.989776 0.0337636 7.31306e-24)
(0.992326 0.0482402 -1.34e-23)
(0.996498 0.0680505 -5.77622e-25)
(0.996432 0.0794519 -4.39562e-24)
(0.9918 0.0121596 3.28547e-24)
(0.996862 0.0743691 5.10021e-25)
(1.00136 0.100536 -4.76725e-25)
(-0.158067 -0.0132837 3.11633e-20)
(-0.222695 -0.0488482 -5.96379e-20)
(-0.243589 -0.0552067 1.19036e-21)
(-0.252451 -0.0660787 2.65049e-20)
(-0.239995 -0.0692506 3.52407e-22)
(-0.196278 -0.0790875 -2.90905e-22)
(-0.132531 -0.0994265 1.98378e-22)
(-0.0189785 -0.132189 -2.52142e-22)
(0.119329 -0.147692 0)
(0.283135 -0.143493 -3.76523e-21)
(0.399494 -0.0992736 3.5913e-21)
(0.524145 -0.0757548 1.39293e-22)
(0.595145 -0.0301309 0)
(0.670518 -0.023786 2.99606e-21)
(0.712674 0.0105025 -2.77848e-21)
(0.75614 0.0057231 9.07277e-22)
(0.785845 0.0281851 -8.65717e-22)
(0.81468 0.0266607 -6.24639e-22)
(0.837988 0.0320832 5.23995e-22)
(0.859834 0.0446615 0)
(0.87691 0.0311489 0)
(0.8966 0.0521696 -2.14244e-22)
(0.913791 0.039307 2.04534e-22)
(0.931082 0.0415314 1.39917e-22)
(0.94946 0.0548599 -1.94101e-23)
(0.960655 0.0343301 -1.09554e-22)
(0.972534 0.0465402 -2.17949e-25)
(0.980698 0.0565634 3.35273e-23)
(0.98295 0.0286127 -7.98546e-23)
(0.988608 0.0528891 7.18046e-23)
(0.991608 0.060572 -8.501e-24)
(0.990253 0.0337821 1.69313e-23)
(0.9929 0.0476741 -1.18521e-23)
(0.996669 0.0676518 1.13322e-23)
(0.996726 0.0798764 3.66593e-24)
(0.992841 0.0121887 3.18298e-24)
(0.997637 0.0736807 -1.10961e-23)
(1.00217 0.100284 -2.12086e-24)
(0.159315 0.0130817 0)
(0.123453 -0.0161252 2.97915e-20)
(0.0949885 -0.0406532 -2.92962e-20)
(0.0886882 -0.0635369 0)
(0.0966281 -0.0804767 -3.62175e-22)
(0.131875 -0.103411 2.98869e-22)
(0.189623 -0.136369 0)
(0.288782 -0.186898 -4.83001e-23)
(0.39868 -0.212438 -1.13497e-22)
(0.520108 -0.2065 0)
(0.598582 -0.152667 4.29524e-21)
(0.687698 -0.11397 -4.23806e-21)
(0.726304 -0.0560748 2.40327e-22)
(0.782305 -0.0416634 3.02371e-21)
(0.799014 -0.00378314 -2.88331e-21)
(0.83095 -0.00547843 -1.26575e-22)
(0.840416 0.0190226 0)
(0.858175 0.019853 7.72085e-23)
(0.869299 0.025869 -8.89682e-22)
(0.879205 0.0400715 1.50932e-22)
(0.891364 0.0266259 1.13167e-22)
(0.902164 0.0476085 4.66313e-22)
(0.91719 0.0354066 3.07645e-22)
(0.932227 0.0371482 -3.78513e-22)
(0.948677 0.0516314 3.14258e-23)
(0.960651 0.0319804 0)
(0.97212 0.0442536 2.07034e-23)
(0.980033 0.0557195 -3.3969e-23)
(0.983251 0.0279649 8.12071e-23)
(0.988613 0.0518869 -7.29581e-23)
(0.991403 0.060547 1.90979e-23)
(0.99074 0.033792 0)
(0.993489 0.0470574 1.19352e-23)
(0.996799 0.0672139 -2.26816e-23)
(0.996978 0.0802882 -8.96382e-24)
(0.993894 0.0122182 -1.31657e-23)
(0.998434 0.0729643 1.11039e-23)
(1.00295 0.100009 -7.86073e-27)
(0.442381 0.0370815 4.52856e-22)
(0.43164 0.00719139 9.43025e-22)
(0.41208 -0.0208637 0)
(0.403027 -0.0563924 0)
(0.409377 -0.0894165 0)
(0.433047 -0.12277 0)
(0.480939 -0.169421 1.36488e-20)
(0.568689 -0.228439 -2.11692e-20)
(0.652373 -0.260772 7.88964e-21)
(0.723408 -0.250874 0)
(0.759948 -0.189624 3.54526e-21)
(0.805389 -0.143357 -3.45429e-21)
(0.822554 -0.0770661 -3.8501e-21)
(0.857619 -0.0554955 3.23876e-21)
(0.865899 -0.0117828 -2.42166e-21)
(0.88926 -0.00985801 2.43801e-21)
(0.892537 0.0160303 1.01617e-22)
(0.903959 0.0178981 1.1744e-21)
(0.909189 0.0237959 -1.11901e-21)
(0.911622 0.0387726 -9.93218e-23)
(0.918732 0.0246463 -7.80256e-23)
(0.92123 0.0450264 -3.96369e-22)
(0.931299 0.0328656 4.36365e-22)
(0.94146 0.0335941 8.03796e-23)
(0.953332 0.0489296 3.2972e-23)
(0.963791 0.0299013 2.67915e-23)
(0.973404 0.0420259 0)
(0.980163 0.0549292 0)
(0.983878 0.0273289 0)
(0.988747 0.0508195 0)
(0.991219 0.0605201 -5.64571e-23)
(0.991227 0.0337954 3.53604e-23)
(0.994078 0.0463996 -2.41381e-23)
(0.996898 0.0667434 7.41979e-23)
(0.9972 0.080684 -9.07425e-24)
(0.994945 0.0122464 -3.08972e-24)
(0.999235 0.0722211 1.25396e-23)
(1.0037 0.0997173 5.15531e-24)
(0.726083 0.0545701 -4.76436e-22)
(0.709334 0.0270311 6.06628e-20)
(0.693257 -0.00222396 -5.82331e-20)
(0.680973 -0.0373274 -5.48721e-20)
(0.687078 -0.0772629 5.22517e-20)
(0.704866 -0.118557 4.12478e-20)
(0.745479 -0.173129 -3.8393e-20)
(0.822893 -0.249173 4.07711e-22)
(0.872291 -0.284295 -1.76087e-22)
(0.889368 -0.273321 0)
(0.878005 -0.212649 8.36297e-23)
(0.881413 -0.161202 -6.90887e-21)
(0.87875 -0.0933378 6.57733e-21)
(0.894348 -0.0680046 2.0132e-22)
(0.898282 -0.0225554 0)
(0.91401 -0.0176507 2.05089e-21)
(0.917015 0.00943524 -3.46529e-21)
(0.92632 0.0138032 1.3742e-21)
(0.931848 0.0207637 0)
(0.933971 0.0375322 -6.52475e-22)
(0.940107 0.0237232 2.00192e-22)
(0.939754 0.0437441 5.70244e-22)
(0.946424 0.0318349 4.34021e-22)
(0.952731 0.0312772 -4.05703e-22)
(0.96013 0.0471355 2.53278e-22)
(0.968338 0.028476 -3.61603e-23)
(0.975637 0.0401017 -2.16592e-22)
(0.980831 0.05431 1.3704e-22)
(0.984721 0.0267924 -1.30322e-22)
(0.988988 0.0497331 4.49398e-23)
(0.991077 0.0604917 -4.27301e-23)
(0.991709 0.0337978 0)
(0.994652 0.0457205 -2.45194e-23)
(0.996978 0.0662396 2.26556e-24)
(0.997408 0.0810531 0)
(0.995973 0.0122768 1.36424e-23)
(1.00002 0.0714551 -8.67043e-24)
(1.00442 0.0994121 2.52098e-24)
(1.03524 0.0776553 0)
(1.00317 0.0505355 0)
(0.978148 0.0162745 -2.2128e-22)
(0.959887 -0.0286216 0)
(0.957169 -0.0791235 0)
(0.96617 -0.129874 4.37848e-20)
(0.987912 -0.183516 -4.16609e-20)
(1.03049 -0.25162 2.26943e-20)
(1.03652 -0.285263 -2.1646e-20)
(1.00312 -0.270564 0)
(0.953231 -0.209097 3.5194e-24)
(0.928963 -0.16157 -6.26091e-23)
(0.909854 -0.097104 6.41707e-21)
(0.913259 -0.0725416 -2.28214e-22)
(0.912741 -0.025957 -5.50439e-21)
(0.92424 -0.0197357 -7.04082e-23)
(0.927142 0.00732394 5.3563e-23)
(0.934974 0.0122559 -2.45035e-21)
(0.940936 0.0185229 2.41019e-21)
(0.944313 0.0361396 0)
(0.951554 0.0225253 0)
(0.951843 0.042401 3.42254e-23)
(0.957597 0.0310225 0)
(0.962115 0.029381 -3.46694e-22)
(0.966466 0.0457745 2.71264e-23)
(0.972838 0.0273471 2.50547e-22)
(0.978069 0.0383691 2.18665e-22)
(0.981747 0.0538061 -1.44631e-22)
(0.985666 0.0262759 1.5786e-23)
(0.989299 0.048618 0)
(0.990995 0.0604822 3.9216e-23)
(0.992189 0.0337802 -3.71804e-23)
(0.995194 0.0450063 -1.37176e-23)
(0.997049 0.0657291 -8.98308e-24)
(0.997627 0.0813982 1.08104e-23)
(0.996959 0.0122961 -6.23526e-24)
(1.00078 0.070673 0)
(1.0051 0.0991021 -4.30557e-24)
(1.27206 0.105765 5.70651e-20)
(1.25067 0.0878639 5.98378e-20)
(1.22888 0.0591391 2.06112e-21)
(1.20764 0.0159086 -1.11972e-19)
(1.19549 -0.0372821 5.33752e-20)
(1.18759 -0.0956857 -3.8353e-22)
(1.18428 -0.15819 0)
(1.18113 -0.228298 -2.41469e-22)
(1.14194 -0.268293 -1.4825e-22)
(1.07635 -0.270621 0)
(1.00234 -0.226191 7.66714e-22)
(0.961285 -0.187469 -6.64409e-22)
(0.933566 -0.121185 -9.29442e-23)
(0.931093 -0.0912846 -5.40517e-21)
(0.926045 -0.0399457 5.12816e-21)
(0.934003 -0.0285488 -6.92914e-23)
(0.935344 -0.000517953 -5.68166e-23)
(0.941392 0.00779734 0)
(0.946757 0.0145302 -2.1201e-21)
(0.950146 0.0343788 2.00976e-21)
(0.958393 0.0216575 6.68341e-22)
(0.95982 0.0414324 -1.36965e-22)
(0.965688 0.0314791 -5.04254e-22)
(0.969558 0.0283523 3.65816e-22)
(0.971943 0.0452773 -6.52758e-23)
(0.976965 0.0272134 -5.16843e-22)
(0.980514 0.0369244 1.87556e-22)
(0.982865 0.0536768 -1.68145e-22)
(0.986698 0.0261279 1.24193e-22)
(0.989703 0.0474252 0)
(0.991025 0.0605246 0)
(0.992685 0.0339102 0)
(0.995707 0.0442592 -1.17049e-23)
(0.997135 0.0650882 1.33288e-23)
(0.99788 0.0818083 -1.59402e-23)
(0.997884 0.0123419 8.82449e-24)
(1.00149 0.0698593 5.86758e-24)
(1.00576 0.098779 0)
(1.29947 0.10468 0)
(1.31652 0.0857137 0)
(1.32121 0.0608517 0)
(1.32012 0.0276538 0)
(1.31714 -0.0142539 0)
(1.30666 -0.064135 0)
(1.28568 -0.109312 0)
(1.25263 -0.158116 0)
(1.19343 -0.17699 0)
(1.12213 -0.184813 0)
(1.05379 -0.158964 0)
(1.00862 -0.139918 0)
(0.973947 -0.0957176 0)
(0.959343 -0.0794513 0)
(0.947248 -0.0386978 0)
(0.949438 -0.0301369 0)
(0.948999 -0.00321205 0)
(0.953692 0.00549242 0)
(0.95705 0.0106465 0)
(0.959286 0.0302171 0)
(0.966479 0.0180757 0)
(0.968357 0.0379479 0)
(0.97393 0.0292371 0)
(0.976766 0.0259795 0)
(0.977887 0.0433849 0)
(0.981367 0.0257635 0)
(0.983252 0.0351441 0)
(0.984623 0.0526112 0)
(0.987999 0.0252388 0)
(0.990276 0.0462358 0)
(0.991386 0.0600318 0)
(0.993376 0.0335069 0)
(0.996251 0.0435199 0)
(0.997338 0.0645235 0)
(0.99834 0.0817092 0)
(0.998947 0.0123015 0)
(1.0023 0.069029 0)
(1.00653 0.0983979 0)
(1.25267 0.0929224 0)
(1.27811 0.0722046 0)
(1.29016 0.0492061 0)
(1.2936 0.0198047 0)
(1.29124 -0.0166334 0)
(1.2802 -0.0625557 0)
(1.25792 -0.106133 0)
(1.21953 -0.151182 0)
(1.16255 -0.177369 0)
(1.10149 -0.191672 0)
(1.04251 -0.170148 0)
(0.99898 -0.151754 0)
(0.967611 -0.107347 0)
(0.954994 -0.0873255 0)
(0.94626 -0.0431989 0)
(0.948791 -0.0323516 0)
(0.949894 -0.00429609 0)
(0.954821 0.00423842 0)
(0.959359 0.0105067 0)
(0.963225 0.0297313 0)
(0.970403 0.0174979 0)
(0.973017 0.037615 0)
(0.978414 0.0285375 0)
(0.980805 0.0262329 0)
(0.981634 0.0435226 0)
(0.984204 0.0254773 0)
(0.985214 0.0354362 0)
(0.986125 0.0523077 0)
(0.989043 0.0245667 0)
(0.990892 0.0461417 0)
(0.991917 0.0597839 0)
(0.99409 0.0328477 0)
(0.996804 0.0431291 0)
(0.997759 0.0643816 0)
(0.999002 0.0816066 0)
(1.00007 0.0117969 0)
(1.0032 0.0681922 0)
(1.00744 0.0980493 0)
(1.21812 0.0761282 0)
(1.24107 0.058363 0)
(1.25195 0.038882 0)
(1.25456 0.0147533 0)
(1.25139 -0.0111977 0)
(1.24271 -0.043152 0)
(1.22421 -0.0719118 0)
(1.19524 -0.102427 0)
(1.15368 -0.114965 0)
(1.10748 -0.122533 0)
(1.05831 -0.106897 0)
(1.02025 -0.0983991 0)
(0.990108 -0.0673759 0)
(0.974883 -0.0597398 0)
(0.961408 -0.0283596 0)
(0.958515 -0.0257733 0)
(0.955979 -0.00377647 0)
(0.959823 0.00298408 0)
(0.963275 0.0084733 0)
(0.966453 0.0274667 0)
(0.972312 0.0154999 0)
(0.974758 0.0359682 0)
(0.979734 0.0271594 0)
(0.981774 0.0254661 0)
(0.982935 0.0427803 0)
(0.985194 0.0247798 0)
(0.986029 0.0351484 0)
(0.987064 0.0516163 0)
(0.989657 0.0239241 0)
(0.991372 0.0459266 0)
(0.992507 0.0592589 0)
(0.994745 0.0322603 0)
(0.997312 0.0428812 0)
(0.99835 0.0641408 0)
(0.999779 0.0813249 0)
(1.00119 0.011376 0)
(1.0041 0.0675458 0)
(1.00841 0.0977348 0)
(1.18908 0.0634189 0)
(1.20833 0.0497262 0)
(1.21786 0.0339862 0)
(1.21945 0.0141999 0)
(1.21547 -0.00588245 0)
(1.20643 -0.031516 0)
(1.18995 -0.0543855 0)
(1.16641 -0.0806021 0)
(1.1327 -0.0945359 0)
(1.0952 -0.109429 0)
(1.05592 -0.102302 0)
(1.02512 -0.100686 0)
(0.998949 -0.0737956 0)
(0.985336 -0.0686573 0)
(0.972707 -0.036893 0)
(0.969832 -0.0321811 0)
(0.966363 -0.00723198 0)
(0.967379 0.000487814 0)
(0.968159 0.00603656 0)
(0.970212 0.0244436 0)
(0.974821 0.0128384 0)
(0.976779 0.0335652 0)
(0.981176 0.0252865 0)
(0.982628 0.0244465 0)
(0.984036 0.0420668 0)
(0.98578 0.0241992 0)
(0.986572 0.0348135 0)
(0.987919 0.0510631 0)
(0.99004 0.0232819 0)
(0.991828 0.0454866 0)
(0.993264 0.0587333 0)
(0.995335 0.0316648 0)
(0.99778 0.0424365 0)
(0.999164 0.0637146 0)
(1.00073 0.0810514 0)
(1.00231 0.0109442 0)
(1.00499 0.0667728 0)
(1.00952 0.097338 0)
(1.16195 0.0494906 0)
(1.17809 0.0399543 0)
(1.18623 0.0284488 0)
(1.1875 0.0132956 0)
(1.18331 -0.00144404 0)
(1.17553 -0.0206206 0)
(1.16243 -0.036026 0)
(1.14464 -0.0551232 0)
(1.12001 -0.0632554 0)
(1.09301 -0.0736934 0)
(1.06279 -0.0654335 0)
(1.03665 -0.0662563 0)
(1.01196 -0.0444609 0)
(0.99735 -0.0443669 0)
(0.983605 -0.0190052 0)
(0.977967 -0.0195129 0)
(0.972266 -0.000499824 0)
(0.972067 0.00369009 0)
(0.972041 0.00777361 0)
(0.973429 0.0254193 0)
(0.976583 0.0132795 0)
(0.977875 0.0337884 0)
(0.981555 0.0251893 0)
(0.98253 0.0244448 0)
(0.984426 0.0418641 0)
(0.985865 0.0237193 0)
(0.986967 0.0344638 0)
(0.988759 0.0504835 0)
(0.990357 0.0225233 0)
(0.992416 0.0449872 0)
(0.994197 0.0581937 0)
(0.995884 0.0309605 0)
(0.998311 0.0418876 0)
(1.00024 0.0632362 0)
(1.00184 0.0807449 0)
(1.00339 0.0104013 0)
(1.00593 0.065796 0)
(1.01091 0.0968584 0)
(1.13785 0.0374782 0)
(1.151 0.0317957 0)
(1.15784 0.024555 0)
(1.15892 0.0138181 0)
(1.15519 0.00396951 0)
(1.14845 -0.0099318 0)
(1.13757 -0.0203111 0)
(1.12375 -0.0354557 0)
(1.10479 -0.0414198 0)
(1.08327 -0.0534808 0)
(1.05831 -0.0493964 0)
(1.03668 -0.0563104 0)
(1.01547 -0.0394594 0)
(1.00271 -0.0432722 0)
(0.990226 -0.0208461 0)
(0.984843 -0.0229337 0)
(0.979072 -0.0039722 0)
(0.978276 0.000519229 0)
(0.977006 0.00447006 0)
(0.977648 0.0217237 0)
(0.979679 0.00980022 0)
(0.980519 0.0306949 0)
(0.98358 0.0227605 0)
(0.983912 0.022816 0)
(0.985925 0.0407102 0)
(0.986713 0.0228686 0)
(0.987847 0.0338193 0)
(0.989868 0.0498034 0)
(0.990853 0.0217953 0)
(0.993171 0.0443634 0)
(0.995251 0.0575666 0)
(0.996487 0.0302776 0)
(0.998969 0.0412704 0)
(1.00149 0.0625929 0)
(1.0031 0.0803912 0)
(1.00448 0.00983059 0)
(1.00701 0.0647041 0)
(1.01264 0.0963074 0)
(1.11616 0.0273919 0)
(1.12657 0.024912 0)
(1.13199 0.0213602 0)
(1.13289 0.0144632 0)
(1.12963 0.00864993 0)
(1.12412 -0.0012359 0)
(1.11547 -0.00752886 0)
(1.10488 -0.0191716 0)
(1.09058 -0.0225591 0)
(1.07487 -0.0333419 0)
(1.05629 -0.0285439 0)
(1.03992 -0.0360211 0)
(1.0223 -0.0210048 0)
(1.01057 -0.026971 0)
(0.998492 -0.0074971 0)
(0.992404 -0.0122581 0)
(0.985394 0.00390231 0)
(0.983026 0.00628418 0)
(0.980621 0.00839043 0)
(0.98065 0.0245398 0)
(0.981501 0.0117792 0)
(0.981729 0.0320747 0)
(0.98421 0.0236713 0)
(0.984129 0.0232321 0)
(0.986572 0.0407753 0)
(0.987101 0.0226244 0)
(0.9885 0.0332512 0)
(0.990899 0.0492582 0)
(0.991402 0.0210951 0)
(0.993986 0.0435287 0)
(0.996374 0.0569408 0)
(0.997187 0.0296307 0)
(0.999743 0.0404593 0)
(1.00285 0.0617585 0)
(1.0045 0.0800874 0)
(1.00565 0.0092627 0)
(1.00827 0.0634256 0)
(1.01468 0.0956287 0)
(1.09667 0.0189077 0)
(1.10477 0.019132 0)
(1.10901 0.0187478 0)
(1.10976 0.0152145 0)
(1.10716 0.0128421 0)
(1.1028 0.00633945 0)
(1.09601 0.00332259 0)
(1.08796 -0.00568107 0)
(1.07718 -0.00679506 0)
(1.0655 -0.0168052 0)
(1.05096 -0.0125349 0)
(1.03773 -0.0225438 0)
(1.0227 -0.010814 0)
(1.01245 -0.0201374 0)
(1.00151 -0.00351782 0)
(0.996014 -0.0107182 0)
(0.989593 0.00320647 0)
(0.987322 0.00475227 0)
(0.984482 0.00604726 0)
(0.984228 0.0219053 0)
(0.984339 0.00895881 0)
(0.984225 0.0294106 0)
(0.986312 0.0215807 0)
(0.985734 0.0214549 0)
(0.988224 0.0395457 0)
(0.98823 0.0217005 0)
(0.989583 0.0322153 0)
(0.992127 0.0485709 0)
(0.992137 0.0203019 0)
(0.994915 0.0424896 0)
(0.997553 0.0562839 0)
(0.997992 0.0289532 0)
(1.00065 0.0394261 0)
(1.00428 0.0607434 0)
(1.00599 0.0798109 0)
(1.00695 0.00862685 0)
(1.0097 0.0618364 0)
(1.01697 0.0947441 0)
(1.07931 0.0123502 0)
(1.08547 0.0147903 0)
(1.08861 0.0169812 0)
(1.0892 0.0161417 0)
(1.08707 0.0165518 0)
(1.08374 0.0126078 0)
(1.0785 0.012185 0)
(1.0725 0.00516656 0)
(1.06442 0.00593523 0)
(1.05581 -0.0033284 0)
(1.04485 0.00122685 0)
(1.03509 -0.0094015 0)
(1.02343 0.00144059 0)
(1.01538 -0.00908693 0)
(1.00571 0.00619139 0)
(1.00046 -0.00220153 0)
(0.993936 0.0101332 0)
(0.991186 0.010522 0)
(0.987662 0.0102372 0)
(0.986964 0.0251196 0)
(0.986296 0.011267 0)
(0.985653 0.030956 0)
(0.987367 0.0227369 0)
(0.986458 0.0217943 0)
(0.989174 0.0396294 0)
(0.988979 0.0215482 0)
(0.990446 0.0314726 0)
(0.993231 0.0481018 0)
(0.992931 0.0196676 0)
(0.995884 0.0413964 0)
(0.998758 0.0556648 0)
(0.998915 0.028349 0)
(1.00169 0.0382992 0)
(1.00578 0.0595645 0)
(1.00755 0.0796043 0)
(1.00845 0.00802996 0)
(1.01127 0.059955 0)
(1.01945 0.0937284 0)
(1.06394 0.00724319 0)
(1.06851 0.0113764 0)
(1.07076 0.0155612 0)
(1.07118 0.0168085 0)
(1.06943 0.0193909 0)
(1.06694 0.0174889 0)
(1.06291 0.0190718 0)
(1.05852 0.0136824 0)
(1.05251 0.0159672 0)
(1.04627 0.00746525 0)
(1.03812 0.0124919 0)
(1.03085 0.00125071 0)
(1.02145 0.0110155 0)
(1.01496 -0.00149214 0)
(1.00652 0.0117156 0)
(1.002 0.00147659 0)
(0.996221 0.0118383 0)
(0.993682 0.011251 0)
(0.990096 0.00958385 0)
(0.989469 0.0240777 0)
(0.988523 0.00964945 0)
(0.987647 0.0291615 0)
(0.989187 0.0213385 0)
(0.987956 0.0201417 0)
(0.990708 0.038374 0)
(0.990213 0.020475 0)
(0.991559 0.0299564 0)
(0.99447 0.0470909 0)
(0.993888 0.0185487 0)
(0.996892 0.0397351 0)
(1.00001 0.0545781 0)
(0.999968 0.027367 0)
(1.00283 0.0366365 0)
(1.00729 0.0578864 0)
(1.00925 0.078985 0)
(1.01015 0.00704715 0)
(1.01297 0.0575297 0)
(1.02212 0.0921505 0)
(1.05008 0.00398402 0)
(1.0534 0.00946314 0)
(1.05492 0.015214 0)
(1.05519 0.0180815 0)
(1.05374 0.0223651 0)
(1.05189 0.022012 0)
(1.04885 0.0251709 0)
(1.0457 0.0210537 0)
(1.04132 0.0245702 0)
(1.03692 0.0166989 0)
(1.03089 0.0222172 0)
(1.02573 0.0106895 0)
(1.01844 0.0201083 0)
(1.01373 0.00683571 0)
(1.00681 0.0192029 0)
(1.00319 0.0083225 0)
(0.998109 0.0174803 0)
(0.995839 0.0162443 0)
(0.992247 0.0133605 0)
(0.991565 0.027239 0)
(0.990348 0.0119562 0)
(0.989191 0.0307349 0)
(0.990475 0.0228133 0)
(0.98907 0.0207137 0)
(0.991863 0.0389217 0)
(0.991221 0.02091 0)
(0.992636 0.0295648 0)
(0.995621 0.0472547 0)
(0.994917 0.0184886 0)
(0.998038 0.0388511 0)
(1.00131 0.0544936 0)
(1.00114 0.0273013 0)
(1.00418 0.0355983 0)
(1.00898 0.0567564 0)
(1.01089 0.0793938 0)
(1.01216 0.00681759 0)
(1.0149 0.0553896 0)
(1.02502 0.0911394 0)
(1.0379 0.00136257 0)
(1.0402 0.00773194 0)
(1.04112 0.0145168 0)
(1.04124 0.0184743 0)
(1.03997 0.0239037 0)
(1.0386 0.0246058 0)
(1.03631 0.0288785 0)
(1.03409 0.0256442 0)
(1.03094 0.0300959 0)
(1.02794 0.0226332 0)
(1.02362 0.0286047 0)
(1.02019 0.016905 0)
(1.01466 0.0261184 0)
(1.01145 0.0121491 0)
(1.00584 0.0235346 0)
(1.00307 0.0118198 0)
(0.998651 0.0195141 0)
(0.996849 0.0176894 0)
(0.99338 0.0134111 0)
(0.992943 0.0268497 0)
(0.991829 0.0108149 0)
(0.990572 0.0289325 0)
(0.991973 0.0212326 0)
(0.990317 0.0183875 0)
(0.99322 0.0367215 0)
(0.992482 0.0188631 0)
(0.993648 0.0267652 0)
(0.996876 0.0449577 0)
(0.996019 0.0162356 0)
(0.99899 0.0357298 0)
(1.0027 0.0519672 0)
(1.00237 0.0251892 0)
(1.00543 0.0324376 0)
(1.01055 0.053453 0)
(1.01295 0.0773012 0)
(1.01421 0.00487414 0)
(1.01672 0.0510597 0)
(1.02798 0.0877673 0)
(1.02631 0.00129119 0)
(1.02787 0.00838972 0)
(1.02837 0.0160145 0)
(1.02841 0.0208122 0)
(1.02733 0.0271596 0)
(1.02638 0.0286465 0)
(1.02466 0.0338488 0)
(1.02318 0.0312758 0)
(1.02094 0.036598 0)
(1.01902 0.0294399 0)
(1.01597 0.036036 0)
(1.01387 0.0242065 0)
(1.00977 0.033608 0)
(1.0078 0.0191227 0)
(1.00352 0.0301569 0)
(1.00162 0.0178897 0)
(0.998201 0.0247918 0)
(0.996953 0.0227046 0)
(0.993995 0.0174021 0)
(0.9938 0.0307718 0)
(0.992828 0.0139579 0)
(0.991697 0.0315481 0)
(0.992924 0.023981 0)
(0.991428 0.0201097 0)
(0.994308 0.0387274 0)
(0.993537 0.0207231 0)
(0.994919 0.0276143 0)
(0.998013 0.0466738 0)
(0.997278 0.0175089 0)
(1.00036 0.0359461 0)
(1.00413 0.0533385 0)
(1.00379 0.0263989 0)
(1.00716 0.0323987 0)
(1.01257 0.0532869 0)
(1.0146 0.0793414 0)
(1.01683 0.00559745 0)
(1.01908 0.0495842 0)
(1.03152 0.0876564 0)
(1.01621 -0.000248077 0)
(1.01708 0.0070255 0)
(1.01718 0.0148775 0)
(1.0171 0.0199432 0)
(1.01614 0.0265696 0)
(1.01549 0.0283273 0)
(1.01427 0.0338524 0)
(1.01337 0.0315734 0)
(1.01194 0.0372159 0)
(1.01089 0.0302397 0)
(1.00892 0.0370399 0)
(1.00794 0.0252744 0)
(1.00503 0.034582 0)
(1.00423 0.020018 0)
(1.00099 0.030504 0)
(1.00006 0.0181026 0)
(0.997304 0.0240765 0)
(0.996803 0.0218157 0)
(0.99415 0.0155259 0)
(0.99432 0.0284661 0)
(0.993679 0.0112635 0)
(0.992502 0.0279143 0)
(0.994177 0.0206364 0)
(0.99242 0.015933 0)
(0.995509 0.0342987 0)
(0.994809 0.0167306 0)
(0.995756 0.022538 0)
(0.999247 0.0419596 0)
(0.998461 0.0132385 0)
(1.00111 0.0303322 0)
(1.00565 0.0481662 0)
(1.00513 0.0222089 0)
(1.00842 0.0265876 0)
(1.01409 0.0472138 0)
(1.01707 0.0741613 0)
(1.01922 0.00195103 0)
(1.02085 0.042091 0)
(1.03461 0.0808684 0)
(1.00489 0.00349384 0)
(1.00548 0.0110117 0)
(1.00547 0.0191782 0)
(1.00545 0.0244951 0)
(1.00463 0.0314806 0)
(1.00433 0.0334511 0)
(1.0035 0.0394505 0)
(1.00316 0.0373436 0)
(1.00233 0.043561 0)
(1.00204 0.0365452 0)
(1.00088 0.04396 0)
(1.0008 0.0319802 0)
(0.998893 0.0418263 0)