/*--------------------------------*- C++ -*----------------------------------*\
| =========                 |                                                 |
| \\      /  F ield         | OpenFOAM: The Open Source CFD Toolbox           |
|  \\    /   O peration     | Version:  2512                                  |
|   \\  /    A nd           | Website:  www.openfoam.com                      |
|    \\/     M anipulation  |                                                 |
\*---------------------------------------------------------------------------*/
FoamFile
{
    version     2.0;
    format      ascii;
    arch        "LSB;label=32;scalar=64";
    class       volScalarField;
    location    "116";
    object      p;
}
// * * * * * * * * * * * * * * * * * * * * * * * * * * * * * * * * * * * * * //

dimensions      [0 2 -2 0 0 0 0];

internalField   nonuniform List<scalar> 
13248
(
-0.34649
-0.347026
-0.345435
-0.342284
-0.337826
-0.332343
-0.326331
-0.320401
-0.31525
-0.311315
-0.308696
-0.30714
-0.306098
-0.304876
-0.302808
-0.299423
-0.294516
-0.288091
-0.280206
-0.271029
-0.260189
-0.248303
-0.233433
-0.21669
-0.353296
-0.353055
-0.351189
-0.348201
-0.344293
-0.339615
-0.334418
-0.329016
-0.323689
-0.318589
-0.313706
-0.308869
-0.303808
-0.298252
-0.292012
-0.285006
-0.277209
-0.268604
-0.259157
-0.248793
-0.237489
-0.225163
-0.211498
-0.197735
-0.362376
-0.361055
-0.358588
-0.35539
-0.35164
-0.347354
-0.342469
-0.336898
-0.330594
-0.323588
-0.315973
-0.307855
-0.299338
-0.290508
-0.281419
-0.272074
-0.262427
-0.252427
-0.241978
-0.231103
-0.219606
-0.20768
-0.19505
-0.182124
-0.373378
-0.370768
-0.367476
-0.363773
-0.359842
-0.355464
-0.350179
-0.343551
-0.335419
-0.325955
-0.315537
-0.304589
-0.293456
-0.282344
-0.271332
-0.260402
-0.249504
-0.238554
-0.227506
-0.216284
-0.204864
-0.193362
-0.181509
-0.170161
-0.386433
-0.382451
-0.378187
-0.373872
-0.369417
-0.364273
-0.357621
-0.348934
-0.338261
-0.326113
-0.313156
-0.299965
-0.286916
-0.274191
-0.261828
-0.249795
-0.238018
-0.226433
-0.214969
-0.2036
-0.1923
-0.181088
-0.169888
-0.159096
-0.402004
-0.396598
-0.39139
-0.386259
-0.380739
-0.373867
-0.364724
-0.353087
-0.339462
-0.324682
-0.309531
-0.294555
-0.280044
-0.266102
-0.252725
-0.239854
-0.227422
-0.215358
-0.203613
-0.192142
-0.18092
-0.169961
-0.159188
-0.148942
-0.420444
-0.413562
-0.407355
-0.40109
-0.393683
-0.383922
-0.371252
-0.356089
-0.339401
-0.322174
-0.305126
-0.288663
-0.272952
-0.258021
-0.243824
-0.230295
-0.21736
-0.204952
-0.193011
-0.181493
-0.170366
-0.159589
-0.149153
-0.139203
-0.441802
-0.433414
-0.426041
-0.41805
-0.407653
-0.393846
-0.376912
-0.35799
-0.338329
-0.318861
-0.300122
-0.282344
-0.265581
-0.249793
-0.234908
-0.220841
-0.207511
-0.194843
-0.182772
-0.171241
-0.160197
-0.149605
-0.139458
-0.129757
-0.465734
-0.455828
-0.446956
-0.436326
-0.421707
-0.40293
-0.381378
-0.358742
-0.336297
-0.314771
-0.29448
-0.275497
-0.257778
-0.241233
-0.225758
-0.211252
-0.197621
-0.184778
-0.172645
-0.161151
-0.150233
-0.139843
-0.129952
-0.120454
-0.491379
-0.479992
-0.469083
-0.454637
-0.434658
-0.41037
-0.384187
-0.35804
-0.333021
-0.309592
-0.28786
-0.267762
-0.249176
-0.231963
-0.215991
-0.201137
-0.187289
-0.174344
-0.162213
-0.150811
-0.140063
-0.129916
-0.120303
-0.111065
-0.517452
-0.504598
-0.490863
-0.471331
-0.445123
-0.415147
-0.384526
-0.355132
-0.327755
-0.302585
-0.279538
-0.258441
-0.239102
-0.221337
-0.204981
-0.189886
-0.175923
-0.162973
-0.150931
-0.139702
-0.129207
-0.119377
-0.110101
-0.101241
-0.542274
-0.527945
-0.510372
-0.484588
-0.451632
-0.416053
-0.381309
-0.348984
-0.319511
-0.292813
-0.268643
-0.246726
-0.226806
-0.208652
-0.192066
-0.176876
-0.162929
-0.150092
-0.138247
-0.127293
-0.117146
-0.107734
-0.0989255
-0.0906431
-0.407026
-0.407468
-0.407219
-0.407219
-0.408172
-0.410399
-0.414096
-0.419469
-0.426761
-0.436229
-0.448096
-0.462505
-0.479483
-0.498896
-0.520409
-0.543493
-0.567428
-0.591344
-0.614375
-0.635256
-0.653106
-0.666851
-0.675716
-0.678177
-0.401103
-0.400155
-0.399094
-0.398375
-0.39859
-0.400103
-0.403173
-0.408077
-0.415154
-0.42477
-0.437261
-0.452858
-0.471628
-0.493443
-0.517878
-0.544255
-0.571648
-0.598956
-0.624968
-0.648368
-0.668143
-0.683007
-0.691995
-0.694208
-0.3952
-0.393055
-0.391282
-0.389921
-0.389403
-0.390146
-0.392456
-0.396642
-0.40308
-0.412194
-0.424374
-0.439896
-0.458847
-0.481065
-0.506101
-0.533197
-0.56132
-0.589237
-0.615659
-0.639061
-0.658783
-0.672485
-0.681623
-0.683176
-0.388722
-0.385737
-0.383368
-0.38135
-0.379974
-0.379706
-0.380907
-0.383913
-0.389108
-0.396925
-0.407772
-0.42195
-0.439568
-0.460474
-0.484218
-0.510043
-0.536922
-0.563575
-0.588849
-0.611218
-0.629949
-0.643481
-0.651789
-0.651901
-0.381516
-0.378162
-0.375378
-0.372685
-0.370266
-0.368631
-0.368241
-0.3695
-0.372816
-0.378619
-0.387319
-0.399227
-0.414479
-0.432961
-0.454275
-0.477731
-0.502385
-0.527013
-0.550743
-0.571928
-0.590229
-0.602975
-0.610397
-0.608234
-0.373782
-0.370564
-0.367597
-0.364284
-0.360696
-0.357373
-0.35492
-0.353887
-0.354777
-0.358059
-0.364153
-0.373383
-0.385911
-0.401669
-0.420328
-0.441286
-0.463786
-0.486768
-0.509267
-0.529565
-0.546659
-0.557927
-0.562874
-0.556281
-0.365888
-0.363255
-0.36036
-0.356572
-0.351858
-0.346745
-0.341985
-0.338336
-0.336485
-0.337019
-0.340424
-0.347058
-0.357117
-0.370568
-0.387132
-0.406289
-0.427378
-0.449252
-0.47039
-0.488916
-0.503333
-0.510799
-0.510203
-0.497032
-0.358238
-0.3565
-0.353884
-0.349825
-0.344221
-0.337555
-0.330677
-0.324557
-0.32011
-0.318111
-0.319178
-0.323747
-0.332053
-0.344085
-0.359593
-0.377856
-0.397758
-0.417692
-0.436074
-0.450525
-0.459504
-0.460493
-0.452814
-0.433703
-0.351279
-0.35057
-0.348318
-0.34417
-0.338029
-0.330338
-0.321988
-0.314101
-0.307794
-0.304054
-0.303665
-0.307129
-0.314666
-0.326067
-0.340676
-0.357355
-0.374621
-0.390574
-0.403613
-0.411524
-0.413591
-0.408081
-0.395648
-0.374677
-0.345725
-0.345934
-0.343988
-0.339894
-0.333584
-0.325562
-0.316684
-0.308142
-0.301179
-0.296875
-0.296125
-0.299273
-0.30623
-0.316451
-0.328884
-0.342119
-0.354475
-0.364296
-0.370241
-0.371157
-0.367365
-0.358222
-0.345506
-0.326953
-0.342579
-0.343358
-0.341617
-0.337686
-0.331721
-0.32408
-0.315655
-0.307582
-0.301092
-0.29717
-0.296357
-0.298899
-0.304419
-0.312054
-0.320548
-0.328494
-0.334436
-0.337382
-0.336596
-0.33223
-0.324886
-0.314933
-0.304163
-0.289106
-0.34275
-0.343646
-0.342036
-0.338459
-0.333176
-0.326488
-0.319185
-0.312252
-0.306562
-0.302908
-0.301661
-0.302723
-0.305515
-0.309097
-0.312355
-0.314246
-0.313966
-0.311217
-0.305875
-0.298518
-0.289047
-0.27824
-0.266568
-0.253461
-0.673377
-0.653643
-0.613028
-0.548319
-0.466092
-0.382106
-0.310739
-0.25902
-0.227733
-0.215237
-0.217939
-0.234161
-0.266509
-0.313604
-0.360904
-0.385465
-0.370439
-0.320391
-0.25776
-0.202659
-0.163165
-0.139714
-0.130763
-0.133988
-0.151245
-0.188198
-0.242506
-0.293514
-0.312075
-0.283278
-0.227071
-0.171437
-0.13146
-0.108679
-0.101496
-0.112434
-0.138676
-0.161909
-0.159814
-0.139343
-0.11096
-0.0907262
-0.0818083
-0.0858487
-0.0958979
-0.101714
-0.0951566
-0.0844525
-0.0695323
-0.0598676
-0.0551214
-0.0531783
-0.047485
-0.0423696
-0.0377876
-0.040557
-0.0389745
-0.0348136
-0.0161995
-0.00621543
-0.689137
-0.66831
-0.628329
-0.564015
-0.480423
-0.393787
-0.318973
-0.263398
-0.226688
-0.207034
-0.202826
-0.212115
-0.236239
-0.274997
-0.3174
-0.341423
-0.329954
-0.288444
-0.235146
-0.187807
-0.15347
-0.134049
-0.128863
-0.135901
-0.157716
-0.200478
-0.260644
-0.316329
-0.337053
-0.305884
-0.244398
-0.182115
-0.135625
-0.106878
-0.0936313
-0.0976806
-0.116829
-0.135019
-0.133554
-0.116693
-0.0957625
-0.0827519
-0.0810174
-0.0922434
-0.108945
-0.118274
-0.10976
-0.0957344
-0.0752782
-0.0597482
-0.0493141
-0.0429098
-0.0371164
-0.0338391
-0.0362855
-0.0455607
-0.0488454
-0.046799
-0.0214136
-0.00538883
-0.676244
-0.654732
-0.616563
-0.554529
-0.473415
-0.388327
-0.314307
-0.258175
-0.21929
-0.195041
-0.18381
-0.185054
-0.199614
-0.228166
-0.263144
-0.286439
-0.27979
-0.249212
-0.206759
-0.167539
-0.138731
-0.123724
-0.122302
-0.132832
-0.15856
-0.205702
-0.269972
-0.329205
-0.352797
-0.321764
-0.257079
-0.189451
-0.137542
-0.10369
-0.0849801
-0.0827575
-0.0954881
-0.109311
-0.108131
-0.0947547
-0.0803104
-0.073893
-0.0794712
-0.098312
-0.122069
-0.135168
-0.124378
-0.10649
-0.0805537
-0.0594565
-0.0437126
-0.0328397
-0.0268325
-0.0252944
-0.0347482
-0.0501724
-0.0582384
-0.0584195
-0.0267959
-0.00456979
-0.641511
-0.618607
-0.582829
-0.523861
-0.447503
-0.368996
-0.300302
-0.246215
-0.206919
-0.180297
-0.164449
-0.158343
-0.163089
-0.180481
-0.206294
-0.227006
-0.223493
-0.205855
-0.174088
-0.142884
-0.119648
-0.108832
-0.110721
-0.123959
-0.151986
-0.20125
-0.268296
-0.330585
-0.357625
-0.329598
-0.264302
-0.192986
-0.137085
-0.0992679
-0.0761478
-0.068458
-0.0756209
-0.0855895
-0.084426
-0.0738763
-0.0648079
-0.0641137
-0.0768586
-0.103509
-0.134791
-0.152006
-0.138717
-0.116513
-0.08522
-0.058959
-0.0384368
-0.0231408
-0.0168219
-0.0168214
-0.0330749
-0.054285
-0.066942
-0.0695022
-0.0323064
-0.00377915
-0.592558
-0.567015
-0.534028
-0.480178
-0.411607
-0.342441
-0.281479
-0.231408
-0.192617
-0.164445
-0.14539
-0.134381
-0.131231
-0.137903
-0.153961
-0.171186
-0.180646
-0.162482
-0.13912
-0.115276
-0.097223
-0.0900351
-0.0947258
-0.109878
-0.13856
-0.187537
-0.254835
-0.319336
-0.35019
-0.32843
-0.265658
-0.192913
-0.134479
-0.0939094
-0.0674436
-0.0553221
-0.0576769
-0.0643881
-0.0630764
-0.0543767
-0.0494282
-0.053366
-0.0727232
-0.107291
-0.146522
-0.168229
-0.152548
-0.12567
-0.0892102
-0.0582439
-0.0335833
-0.0139811
-0.00723498
-0.00849173
-0.0311812
-0.0578003
-0.0747572
-0.0798887
-0.0378923
-0.00305112
-0.532999
-0.504139
-0.475124
-0.428922
-0.371023
-0.313091
-0.260734
-0.215729
-0.178643
-0.149622
-0.12818
-0.113322
-0.10455
-0.102885
-0.10925
-0.119656
-0.126847
-0.118967
-0.103695
-0.0863252
-0.0729173
-0.0688373
-0.0757838
-0.0922292
-0.120292
-0.16647
-0.230672
-0.295604
-0.331236
-0.317334
-0.260502
-0.189341
-0.130011
-0.0878883
-0.059129
-0.0435392
-0.0418897
-0.0459732
-0.0444608
-0.0366709
-0.0344566
-0.0418094
-0.0670676
-0.109137
-0.156427
-0.183091
-0.165483
-0.133793
-0.0924482
-0.0573027
-0.0292385
-0.0055249
0.00177655
-0.000404532
-0.0290067
-0.0606207
-0.0815246
-0.0894292
-0.0434785
-0.00241814
-0.465968
-0.436165
-0.413487
-0.377156
-0.331348
-0.284957
-0.241083
-0.201161
-0.166365
-0.137299
-0.114126
-0.0963649
-0.0833359
-0.0752991
-0.0735149
-0.076989
-0.0815011
-0.0792487
-0.0694186
-0.0576846
-0.0484098
-0.0468325
-0.0553688
-0.0725486
-0.0991106
-0.14061
-0.198983
-0.261404
-0.301566
-0.297377
-0.249334
-0.182585
-0.124124
-0.0816016
-0.0515115
-0.033298
-0.0283609
-0.0303542
-0.0287052
-0.0210861
-0.0203721
-0.0298759
-0.0596286
-0.108592
-0.163856
-0.195819
-0.177233
-0.140774
-0.0948911
-0.0561152
-0.0254456
0.00207921
0.0100912
0.00735196
-0.0265279
-0.0627051
-0.0871293
-0.0979922
-0.048972
-0.00190157
-0.398353
-0.37183
-0.356709
-0.330274
-0.295703
-0.259494
-0.223312
-0.188465
-0.15649
-0.128206
-0.104086
-0.0842545
-0.0682146
-0.0556928
-0.0475544
-0.0445282
-0.0446904
-0.0440987
-0.0378094
-0.0310753
-0.0252223
-0.0255873
-0.0350204
-0.0523019
-0.0767819
-0.112961
-0.163829
-0.22147
-0.264754
-0.270883
-0.233152
-0.173067
-0.11712
-0.0752644
-0.0447744
-0.0247104
-0.0170805
-0.0173713
-0.0157603
-0.0078867
-0.00759982
-0.0179496
-0.0507631
-0.10538
-0.167717
-0.205479
-0.187095
-0.146464
-0.0964969
-0.0546421
-0.0221872
0.00871846
0.0176026
0.014655
-0.0237352
-0.0640145
-0.0914853
-0.105467
-0.054276
-0.00150834
-0.340843
-0.320246
-0.310976
-0.291947
-0.266028
-0.237754
-0.207965
-0.177791
-0.148806
-0.121979
-0.0977722
-0.0766387
-0.0586147
-0.0432616
-0.0307759
-0.0221513
-0.0174
-0.0148103
-0.0103862
-0.00724039
-0.00429826
-0.00607105
-0.0157484
-0.0327995
-0.0553041
-0.0857015
-0.128088
-0.17956
-0.223527
-0.241567
-0.213266
-0.161222
-0.109165
-0.0688645
-0.0388577
-0.0177051
-0.00793881
-0.00674926
-0.00541906
0.00238486
0.00351594
-0.00646133
-0.0402535
-0.0989708
-0.168297
-0.21161
-0.19506
-0.150791
-0.0972383
-0.0528618
-0.0194328
0.0143177
0.0242845
0.0214659
-0.0206545
-0.0646028
-0.0945824
-0.11178
-0.059309
-0.00125023
-0.298906
-0.28363
-0.276827
-0.261787
-0.24162
-0.219213
-0.194694
-0.168843
-0.14286
-0.117776
-0.0941761
-0.0725134
-0.0532193
-0.0361866
-0.0212379
-0.0089144
1.26466e-05
0.00537291
0.00748953
0.0122217
0.0133887
0.0104996
0.00119302
-0.0148177
-0.0351789
-0.0608657
-0.0955189
-0.138207
-0.180866
-0.204249
-0.187434
-0.146601
-0.100405
-0.0626103
-0.0338959
-0.0123565
-0.000910651
0.00171728
0.00265144
0.0104632
0.0126834
0.00393965
-0.0291668
-0.0898199
-0.164087
-0.213348
-0.199323
-0.153417
-0.0971897
-0.0508913
-0.0173153
0.018771
0.0298549
0.0275932
-0.0173191
-0.0644202
-0.0963896
-0.11685
-0.0639844
-0.00115374
-0.268153
-0.257968
-0.251874
-0.238868
-0.222608
-0.2046
-0.184391
-0.162337
-0.139242
-0.116007
-0.0933962
-0.0718897
-0.0519403
-0.0337491
-0.0172406
-0.00264599
0.00946026
0.0183633
0.0241484
0.0286577
0.0275874
0.0242416
0.0157103
0.00108163
-0.0173455
-0.0384704
-0.0655378
-0.101692
-0.141643
-0.168979
-0.16485
-0.133512
-0.0929856
-0.0576797
-0.0304108
-0.00891123
0.00402365
0.0082496
0.00871302
0.0161701
0.0197165
0.0135985
-0.0171866
-0.0778548
-0.156727
-0.211503
-0.202632
-0.154978
-0.0968477
-0.0489799
-0.0157936
0.0218779
0.0346909
0.033174
-0.013719
-0.0636913
-0.0970387
-0.120776
-0.0680726
-0.00122339
-0.243019
-0.239065
-0.232583
-0.220461
-0.206867
-0.192317
-0.176044
-0.157792
-0.137848
-0.116884
-0.0956992
-0.0748873
-0.0549983
-0.0363436
-0.018954
-0.00313284
0.0105351
0.0219567
0.0307795
0.0348565
0.037023
0.0335248
0.0265716
0.0142845
-0.00246488
-0.0208104
-0.0421779
-0.0701166
-0.102225
-0.126653
-0.131571
-0.113276
-0.0819265
-0.0508515
-0.0256772
-0.00527859
0.00830326
0.0139114
0.0140346
0.0201349
0.0239942
0.0203516
-0.00624186
-0.0642313
-0.143913
-0.20418
-0.197788
-0.153849
-0.0951341
-0.0462326
-0.0134476
0.0244617
0.0377431
0.0377216
-0.00991185
-0.0621618
-0.0964127
-0.123114
-0.0711081
-0.00135295
-0.217198
-0.224782
-0.217269
-0.203127
-0.187984
-0.173055
-0.157666
-0.140933
-0.12263
-0.103251
-0.0835614
-0.0641632
-0.0455245
-0.027882
-0.0111835
0.00437377
0.0181562
0.0299949
0.0398003
0.0472044
0.0469525
0.0424718
0.0354971
0.0258024
0.0131381
-0.00171828
-0.0195112
-0.0444934
-0.0764818
-0.105365
-0.113534
-0.0949327
-0.0668068
-0.0391768
-0.0169479
0.000967358
0.0135308
0.0190904
0.0189778
0.0242786
0.0324715
0.0292188
0.00637044
-0.0489235
-0.129444
-0.195797
-0.199367
-0.149195
-0.0896894
-0.0410913
-0.00968696
0.0276503
0.0410979
0.0421264
-0.00573081
-0.0603486
-0.0950208
-0.124137
-0.0730746
-0.00151184
-0.189682
-0.200264
-0.194788
-0.180767
-0.165525
-0.151324
-0.137603
-0.123047
-0.107021
-0.0897791
-0.0720154
-0.0543542
-0.0372625
-0.0209129
-0.00531756
0.0091995
0.0221058
0.0334147
0.0430525
0.0490863
0.0505596
0.0467399
0.0406087
0.0329346
0.0228831
0.0106639
-0.00345923
-0.0254978
-0.0562745
-0.0842741
-0.0904032
-0.0745707
-0.0511107
-0.0278846
-0.00892557
0.00629277
0.0174279
0.0228128
0.0226431
0.027118
0.034578
0.0339809
0.0142822
-0.0373134
-0.11647
-0.185138
-0.185099
-0.141105
-0.0830249
-0.0355477
-0.00614775
0.0300451
0.0430785
0.0448234
-0.00257255
-0.0588549
-0.0930585
-0.123447
-0.0743075
-0.00184135
-0.165913
-0.176849
-0.173484
-0.161347
-0.147393
-0.134318
-0.121942
-0.109029
-0.0947903
-0.0792718
-0.0630601
-0.0467578
-0.0308298
-0.0155081
-0.000837034
0.0129822
0.0253745
0.0361006
0.0452488
0.0516244
0.0532932
0.0499326
0.0445981
0.0386285
0.0304298
0.019948
0.0084316
-0.00987114
-0.0368603
-0.0620587
-0.068138
-0.0559064
-0.0372087
-0.0180387
-0.0019455
0.0110414
0.0208918
0.0259596
0.0255809
0.0292159
0.0370391
0.0368898
0.0187063
-0.02991
-0.104646
-0.17041
-0.17284
-0.130853
-0.075654
-0.0299975
-0.00282075
0.0317364
0.0444426
0.046334
-0.000523318
-0.0576222
-0.0902394
-0.121344
-0.0747977
-0.00235506
-0.145585
-0.155319
-0.15334
-0.143116
-0.130517
-0.118384
-0.106935
-0.0952422
-0.0825308
-0.068678
-0.0540871
-0.0392917
-0.0247394
-0.0106428
0.00290688
0.0157136
0.0273182
0.0374302
0.0460645
0.0523193
0.0545271
0.0521416
0.0480364
0.0441439
0.0390022
0.0317658
0.0224755
0.00604949
-0.0194223
-0.0419949
-0.0471088
-0.0378278
-0.0236357
-0.00850983
0.00470701
0.0154443
0.0237285
0.0283323
0.0277154
0.0305886
0.0383878
0.0388067
0.0217583
-0.0233091
-0.090448
-0.151497
-0.155606
-0.117956
-0.0672137
-0.0242459
0.000552133
0.0327268
0.0449179
0.0468711
0.00102799
-0.0559588
-0.0864391
-0.117652
-0.0742733
-0.00300855
-0.126548
-0.135438
-0.134381
-0.125825
-0.114661
-0.103634
-0.0932375
-0.0828308
-0.0716654
-0.0594729
-0.0464853
-0.0331351
-0.0198542
-0.00689909
0.00559718
0.0174471
0.0282782
0.0377815
0.0459153
0.0520133
0.0547308
0.0535953
0.0510679
0.0493424
0.0478607
0.0445704
0.0365548
0.0196279
-0.00430973
-0.022786
-0.0272973
-0.0213704
-0.0115272
-0.000121239
0.010498
0.0194122
0.0261597
0.0301846
0.0291594
0.0313488
0.0386773
0.0395255
0.0241898
-0.0154241
-0.0734453
-0.129092
-0.134902
-0.102649
-0.0580165
-0.018641
0.00374237
0.0329393
0.0444584
0.0464881
0.00260348
-0.0535717
-0.081662
-0.112185
-0.0725625
-0.00376414
-0.109029
-0.117336
-0.116897
-0.109752
-0.100026
-0.0902098
-0.0809004
-0.0716501
-0.0617964
-0.0510236
-0.0394562
-0.0274564
-0.0154323
-0.0036515
0.00774783
0.0185926
0.0285859
0.0374421
0.0450568
0.0509425
0.0541622
0.0543256
0.0533945
0.0533445
0.0540993
0.0529205
0.0458548
0.0300541
0.00982528
-0.00505597
-0.00990361
-0.00704549
-0.000754738
0.00747855
0.0157
0.022967
0.0281987
0.031577
0.0300651
0.0316817
0.0380654
0.0391274
0.0263803
-0.00682229
-0.0553815
-0.10441
-0.111632
-0.0854277
-0.0482056
-0.0132559
0.00668415
0.0323628
0.0431156
0.0451717
0.00424567
-0.0504434
-0.0759412
-0.104894
-0.0694727
-0.00453951
-0.0936392
-0.100993
-0.100919
-0.0949673
-0.0865663
-0.0779222
-0.0696517
-0.0614536
-0.0527766
-0.0433081
-0.0331023
-0.022441
-0.0116684
-0.00104221
0.00928502
0.0191465
0.0283076
0.0365207
0.0436588
0.0493248
0.0529242
0.0541699
0.0544896
0.0553663
0.0567448
0.0562275
0.0507803
0.0382029
0.0222109
0.00982233
0.00449244
0.00489702
0.00837859
0.0139951
0.0201266
0.0260012
0.0299659
0.0326804
0.0307451
0.031842
0.0369688
0.0377971
0.0277094
0.000957363
-0.037695
-0.0788164
-0.0869606
-0.0670845
-0.0380631
-0.00823415
0.00918995
0.0310992
0.0409917
0.0429001
0.00574677
-0.0465012
-0.0693354
-0.0957924
-0.0648554
-0.0052366
-0.0796031
-0.086082
-0.0863223
-0.0814048
-0.0741972
-0.0666532
-0.05938
-0.0521782
-0.0445911
-0.0363248
-0.0273807
-0.0179693
-0.00838318
0.00113105
0.0104158
0.0193199
0.0276636
0.035236
0.0418972
0.0472962
0.0511148
0.0531555
0.054373
0.0557466
0.0571963
0.0570001
0.0530728
0.0437145
0.0314026
0.0210387
0.0155693
0.0143764
0.0158967
0.0195417
0.0239195
0.0285209
0.0314971
0.0335222
0.0314839
0.0320876
0.0358001
0.035631
0.0279667
0.00752453
-0.0211811
-0.0538354
-0.0624416
-0.0487441
-0.027884
-0.00355776
0.0111633
0.0294406
0.0382305
0.0397403
0.00705654
-0.04154
-0.0619042
-0.0850397
-0.0586381
-0.00572967
-0.0666518
-0.0725691
-0.0730797
-0.0690424
-0.062898
-0.0563673
-0.0500286
-0.0437534
-0.0371625
-0.0299857
-0.0221929
-0.013945
-0.00548742
0.0029591
0.011243
0.0192295
0.026777
0.0337159
0.0399178
0.0449974
0.0488932
0.0514596
0.0532787
0.0549143
0.0563036
0.0562491
0.0533151
0.0464784
0.037248
0.0288576
0.0237117
0.0216907
0.0219031
0.0241061
0.0270691
0.0305118
0.0327865
0.0341319
0.0323395
0.0325671
0.0349903
0.0336523
0.0277841
0.0131897
-0.00651569
-0.0309726
-0.0395827
-0.0316375
-0.0180139
0.000806358
0.012608
0.0279102
0.0351095
0.0360814
0.00839925
-0.0353007
-0.053723
-0.0729782
-0.0508838
-0.0058932
-0.0551571
-0.0604502
-0.0611073
-0.0578154
-0.0526118
-0.0469951
-0.0415106
-0.0360841
-0.0303995
-0.0242112
-0.0174722
-0.0103016
-0.00290065
0.00453889
0.0118733
0.0189842
0.0257541
0.0320644
0.0379227
0.04254
0.0463928
0.0492428
0.0514021
0.053139
0.0544149
0.0544167
0.0522128
0.0472905
0.0405366
0.0339487
0.0294204
0.0271206
0.0265376
0.0277503
0.0296444
0.0320613
0.0338006
0.0345984
0.0332397
0.0331962
0.034797
0.0326534
0.0278595
0.0179696
0.00559195
-0.0115683
-0.01984
-0.0169188
-0.00884695
0.00487143
0.0137516
0.0271501
0.032185
0.0326832
0.0102883
-0.0275314
-0.0448608
-0.0601768
-0.0418625
-0.00562168
-0.0449049
-0.0495176
-0.0502765
-0.0476349
-0.0432619
-0.0384637
-0.033754
-0.0290987
-0.0242353
-0.0189421
-0.0131599
-0.00697306
-0.000547096
0.00595327
0.0123938
0.0186712
0.0246751
0.0302602
0.035196
0.0398999
0.043715
0.0466734
0.048979
0.0507336
0.0519147
0.051996
0.0504015
0.0469031
0.0420443
0.0370204
0.0332331
0.0310077
0.0300018
0.0305468
0.0316705
0.0332406
0.0345285
0.0349958
0.0340569
0.0338779
0.0350864
0.032883
0.02876
0.0220741
0.0148529
0.00328407
-0.00447245
-0.00535225
-0.000726025
0.0085791
0.0149213
0.0273862
0.0302231
0.0304542
0.0134333
-0.0181536
-0.0354108
-0.0474548
-0.0321645
-0.00487774
-0.0355556
-0.0396708
-0.0405305
-0.038437
-0.0347855
-0.0307155
-0.0267019
-0.0227397
-0.018613
-0.0141217
-0.0091984
-0.00389999
0.00163506
0.00726827
0.0128798
0.0183833
0.0236856
0.0286808
0.033264
0.0374505
0.0410399
0.0439493
0.0462661
0.0479991
0.049124
0.0493169
0.0482432
0.0458082
0.0423808
0.0386508
0.0356052
0.0336365
0.032478
0.0325816
0.033189
0.0341144
0.0350101
0.035343
0.0346904
0.0344882
0.0355405
0.0340087
0.030867
0.0262874
0.0217304
0.0134625
0.00632721
0.00343789
0.00616848
0.0119293
0.0165077
0.0282167
0.0297407
0.0302431
0.018313
-0.00763416
-0.0256018
-0.0357187
-0.0227158
-0.00374116
-0.0272215
-0.0308938
-0.0317903
-0.0301432
-0.0271165
-0.0236903
-0.0202965
-0.0169512
-0.0134776
-0.00969611
-0.00553697
-0.00103671
0.00369148
0.00853451
0.0133864
0.0181754
0.0228258
0.0272591
0.0313911
0.0351585
0.0384667
0.0412307
0.0434735
0.0451601
0.0462631
0.0465864
0.0459552
0.0443228
0.041965
0.0392808
0.0369123
0.0352722
0.0341442
0.033971
0.0342464
0.0347246
0.0353013
0.035592
0.0351082
0.0349503
0.0359091
0.0354042
0.0334724
0.0302163
0.0266728
0.0201206
0.0136773
0.0101019
0.0117205
0.0149604
0.0185874
0.029024
0.0304148
0.0316073
0.0241269
0.00263306
-0.0159979
-0.0255829
-0.0145583
-0.0024329
-0.0198537
-0.0230509
-0.0239415
-0.0226732
-0.0201914
-0.0173312
-0.0144837
-0.0116805
-0.00877948
-0.00562201
-0.00213927
0.0016501
0.0056557
0.00978523
0.0139476
0.0180833
0.0221275
0.02602
0.0296877
0.0330598
0.0360675
0.0386372
0.0407584
0.0423814
0.0434816
0.0439364
0.0436689
0.0426502
0.0410897
0.0392241
0.03745
0.0361421
0.0351515
0.0348297
0.0348984
0.0351041
0.0354332
0.0356958
0.0353296
0.0352426
0.0360755
0.0364261
0.0353327
0.0327956
0.0296874
0.0243481
0.0187535
0.0151448
0.0159251
0.0177055
0.0208181
0.0292205
0.0311474
0.0326224
0.0285344
0.0105394
-0.00759878
-0.0172775
-0.00843027
-0.00125724
-0.0132302
-0.0160292
-0.0169188
-0.0159701
-0.0139533
-0.0115823
-0.00921107
-0.00688201
-0.00448098
-0.00186878
0.00102183
0.00418553
0.00755096
0.0110431
0.0145841
0.0181249
0.0216108
0.0249942
0.0282119
0.0312003
0.0339017
0.0362523
0.0382268
0.0397744
0.0408753
0.0414473
0.0414682
0.040917
0.0399492
0.0387142
0.0374396
0.0364377
0.0356325
0.0352629
0.0352088
0.0352719
0.0354109
0.0356377
0.0353614
0.0353244
0.0359408
0.0361802
0.0358866
0.0338507
0.0311031
0.02688
0.0222583
0.0188906
0.0189505
0.0200953
0.0225447
0.0287635
0.0310635
0.0322967
0.0299144
0.0150198
-0.00125241
-0.0106414
-0.00438855
-0.000419547
-0.00732447
-0.00979109
-0.0106608
-0.00996623
-0.00834078
-0.00639211
-0.0044355
-0.00251848
-0.000549508
0.00159215
0.00396991
0.00658752
0.00939025
0.0123175
0.0153031
0.0183071
0.0212844
0.024197
0.0269908
0.0296119
0.0320104
0.0341327
0.0359475
0.0374082
0.0385006
0.0391646
0.0394033
0.0392029
0.0386762
0.0379229
0.0370516
0.0363178
0.0357042
0.0353578
0.0352366
0.035238
0.0352424
0.0354162
0.0352121
0.0351854
0.0356112
0.0358214
0.0356342
0.0339434
0.0315289
0.0282489
0.0245739
0.0215771
0.0210756
0.0219843
0.0236943
0.0278701
0.0300009
0.0304495
0.0289384
0.0166443
0.0029829
-0.00540728
-0.00204984
8.77011e-05
-0.00211349
-0.00425914
-0.00508435
-0.00459433
-0.00330128
-0.00171587
-0.000116012
0.00144734
0.0030462
0.00478414
0.00672056
0.00886541
0.0111773
0.0136077
0.0161025
0.0186284
0.0211476
0.0236297
0.0260313
0.028307
0.030414
0.032307
0.0339561
0.0353197
0.0363858
0.0371103
0.0375047
0.0375578
0.0373535
0.0369872
0.0364072
0.0359029
0.0354656
0.0351847
0.0350366
0.0350148
0.0349401
0.0350462
0.0348982
0.034848
0.0351052
0.0351624
0.0349338
0.0335186
0.0314268
0.0288525
0.0259739
0.0234148
0.0225427
0.0232582
0.02432
0.0268366
0.0284081
0.0276904
0.0270291
0.0169096
0.00568471
-0.00143158
-0.000442371
0.000383386
0.0025113
0.0006544
-0.000122818
0.000200422
0.00121384
0.0024899
0.00378479
0.00504608
0.00632954
0.00772381
0.00928383
0.011023
0.012911
0.0149094
0.0169739
0.0190765
0.021187
0.0232819
0.0253264
0.0272819
0.0291132
0.0307826
0.0322636
0.0335204
0.0345417
0.0352941
0.0357874
0.0360101
0.0360087
0.0357958
0.0355679
0.0352826
0.0350018
0.0348025
0.0346568
0.0346255
0.0345175
0.0345523
0.0344379
0.0343477
0.0344115
0.03434
0.034024
0.0328304
0.0310519
0.0289733
0.0266945
0.0245754
0.0234327
0.023932
0.0244908
0.0258161
0.026803
0.0265113
0.0249846
0.0166482
0.00741265
0.00144913
0.000787388
0.000586213
0.00661417
0.00500388
0.00427651
0.00446828
0.00524924
0.00626303
0.0072985
0.00830401
0.00932189
0.0104266
0.0116681
0.0130622
0.0145874
0.0162127
0.0179026
0.0196343
0.0213848
0.0231349
0.0248572
0.0265195
0.0280944
0.0295498
0.0308633
0.0320055
0.0329655
0.0337171
0.0342647
0.0346005
0.0347576
0.0347534
0.0346773
0.0345446
0.0343863
0.0342638
0.0341405
0.0341024
0.0339887
0.0339623
0.0338556
0.0337267
0.0336502
0.0334499
0.0330466
0.0320203
0.0305249
0.0287979
0.0269435
0.0252196
0.0240387
0.0241587
0.0243643
0.0248547
0.0252456
0.0249254
0.0229892
0.0161611
0.00850221
0.00346004
0.00177258
0.000744471
0.0102268
0.00883998
0.00817149
0.00826228
0.00885033
0.00964304
0.0104596
0.0112497
0.0120443
0.0129058
0.0138792
0.0149817
0.0161984
0.0175045
0.0188721
0.0202822
0.0217171
0.023161
0.0245957
0.0259942
0.0273337
0.0285877
0.0297376
0.0307597
0.0316435
0.032369
0.0329359
0.0333375
0.0335956
0.0337212
0.0337625
0.0337416
0.0336759
0.0336156
0.0335232
0.0334804
0.033372
0.0333007
0.0331803
0.0330055
0.0328328
0.0325389
0.0320725
0.0311669
0.0299044
0.0284433
0.0268829
0.0254665
0.0243193
0.0240727
0.0240015
0.0239341
0.0237086
0.0231962
0.0211461
0.0155581
0.00915048
0.00481171
0.00257133
0.000892819
0.0134002
0.0122173
0.0116115
0.0116257
0.0120571
0.0126659
0.0132978
0.0139055
0.0145129
0.0151718
0.0159218
0.0167799
0.0177365
0.0187718
0.0198635
0.0209965
0.0221578
0.0233335
0.0245148
0.0256773
0.0268026
0.0278687
0.0288604
0.02976
0.0305564
0.0312347
0.0317914
0.0322201
0.0325316
0.0327352
0.0328562
0.0329128
0.032914
0.0328985
0.0328372
0.0327917
0.0326891
0.0325872
0.0324449
0.0322375
0.0319904
0.0316338
0.0311291
0.0303119
0.0292257
0.0279765
0.0266239
0.0254154
0.0243305
0.0237772
0.0234702
0.0230503
0.0223709
0.0215292
0.019497
0.0148997
0.00949486
0.00567735
0.00318667
0.00103805
0.016187
0.015172
0.014621
0.0145841
0.0148946
0.015356
0.0158378
0.0162913
0.0167432
0.017235
0.0178003
0.018455
0.0191935
0.0200006
0.0208583
0.0217519
0.022679
0.0236276
0.0245853
0.0255375
0.0264683
0.0273607
0.0282021
0.0289791
0.0296811
0.0302966
0.0308197
0.0312444
0.0315745
0.0318183
0.0319851
0.0320888
0.0321339
0.0321475
0.0321104
0.0320625
0.0319622
0.031838
0.0316665
0.0314377
0.0311432
0.0307484
0.0302234
0.0294752
0.0285153
0.0274317
0.0262369
0.0251483
0.024129
0.023361
0.0228241
0.0221653
0.021166
0.020023
0.0180464
0.0142268
0.0096269
0.00619339
0.00362139
0.00116714
0.0186289
0.0177636
0.0172641
0.0171779
0.017379
0.0177092
0.0180613
0.0184039
0.0187382
0.0190984
0.0195148
0.0200032
0.0205619
0.0211798
0.021843
0.0225428
0.0232665
0.0240136
0.0247756
0.0255408
0.0262971
0.027031
0.0277312
0.0283882
0.0289921
0.0295342
0.0300069
0.0304054
0.0307294
0.0309818
0.0311673
0.0312929
0.0313617
0.0313898
0.0313668
0.0313151
0.0312133
0.0310733
0.0308812
0.0306301
0.0303047
0.0298896
0.0293555
0.0286616
0.0277941
0.0268296
0.0257598
0.0247365
0.023762
0.0228631
0.0221155
0.0212817
0.0200908
0.0187108
0.0167817
0.0135622
0.00960801
0.00646225
0.00389187
0.00126579
0.0207598
0.020024
0.019575
0.0194581
0.0195773
0.0198061
0.0200554
0.0202915
0.0205208
0.0207701
0.0210645
0.0214176
0.0218289
0.02229
0.02279
0.0233209
0.0238773
0.0244557
0.0250505
0.0256535
0.0262553
0.026846
0.027416
0.027958
0.0284636
0.0289262
0.0293379
0.0296945
0.0299955
0.0302315
0.0304131
0.0305409
0.0306164
0.0306464
0.030627
0.0305688
0.0304606
0.0303076
0.0300976
0.0298304
0.0294847
0.0290598
0.0285254
0.027871
0.0270736
0.0261896
0.0252154
0.0242309
0.0232728
0.0223047
0.0213904
0.0204154
0.0191235
0.0175865
0.0156853
0.012918
0.00948284
0.00655776
0.00402391
0.00132831
0.0226092
0.0219875
0.0215875
0.0214504
0.0215037
0.021648
0.0218107
0.0219625
0.0221076
0.0222671
0.022462
0.022704
0.0229939
0.0233255
0.0236904
0.024082
0.0244965
0.0249316
0.0253835
0.0258464
0.0263125
0.0267752
0.0272265
0.0276607
0.0280706
0.028451
0.0287949
0.0290972
0.0293552
0.0295658
0.0297282
0.0298435
0.0299112
0.0299333
0.0299079
0.0298392
0.0297202
0.029555
0.0293299
0.0290497
0.0286912
0.0282609
0.0277314
0.0271037
0.0263595
0.0255298
0.0246213
0.0236666
0.0227057
0.0217021
0.0206743
0.0195825
0.0182415
0.0166249
0.0147399
0.012303
0.00928272
0.00653306
0.00404929
0.00135641
0.0242112
0.0236869
0.0233308
0.0231801
0.0231814
0.0232574
0.0233498
0.0234336
0.0235111
0.0235985
0.023713
0.0238651
0.024056
0.0242811
0.024534
0.0248099
0.0251057
0.0254204
0.0257509
0.0260935
0.026442
0.0267912
0.0271352
0.0274699
0.0277893
0.0280887
0.028362
0.0286044
0.0288127
0.0289837
0.0291168
0.0292077
0.0292564
0.0292622
0.0292226
0.0291391
0.0290059
0.0288275
0.028589
0.0282965
0.0279299
0.0274952
0.0269724
0.026363
0.0256555
0.0248645
0.023997
0.0230682
0.0220986
0.021072
0.0199785