/*--------------------------------*- C++ -*----------------------------------*\
| =========                 |                                                 |
| \\      /  F ield         | OpenFOAM: The Open Source CFD Toolbox           |
|  \\    /   O peration     | Version:  2312                                  |
|   \\  /    A nd           | Website:  www.openfoam.com                      |
|    \\/     M anipulation  |                                                 |
\*---------------------------------------------------------------------------*/
FoamFile
{
    version     2.0;
    format      ascii;
    arch        "LSB;label=32;scalar=64";
    class       surfaceScalarField;
    location    "9.5";
    object      phi;
}
// * * * * * * * * * * * * * * * * * * * * * * * * * * * * * * * * * * * * * //

dimensions      [0 3 -1 0 0 0 0];

oriented        oriented;

internalField   nonuniform List<scalar> 
18180
(
-0.00562016
0.0136118
-0.00799159
-0.0076403
0.0307597
-0.0287396
-0.008281
0.0453315
-0.0446908
-0.00449326
0.045715
-0.0495027
0.0151705
0.0170364
-0.0367002
0.0434367
-0.0284873
0.000221059
0.0744413
-0.0711578
0.0401532
0.0996145
-0.100024
0.0748508
0.116014
-0.115223
0.0988232
0.124882
-0.121362
0.112494
0.129244
-0.12347
0.119108
0.133731
-0.125644
0.121157
0.136693
-0.127003
0.124041
0.140152
-0.128767
0.125308
0.14568
-0.13302
0.127492
0.151137
-0.13585
0.130393
0.154467
-0.137434
0.134104
0.155967
-0.13969
0.13819
0.16343
-0.143724
0.136261
-0.150664
0.146741
0.167353
0.000112251
0.0134995
0.00192834
0.0289436
0.00639268
0.0408672
0.0196529
0.0324547
0.0444413
-0.00775198
0.0744072
-0.0584531
0.0989443
-0.0956949
0.114327
-0.115406
0.122241
-0.123138
0.126518
-0.125639
0.130151
-0.127103
0.132931
-0.128424
0.136128
-0.130201
0.141517
-0.134156
0.144584
-0.136086
0.146743
-0.138009
0.151007
-0.141698
0.157139
-0.145823
0.162064
-0.148649
-0.150957
0.162358
0.0046276
0.00887191
0.0154027
0.0181685
0.0282624
0.0280074
0.0447843
0.0159329
0.0736353
-0.036603
0.0990977
-0.0839155
0.113027
-0.109624
0.117458
-0.119837
0.117442
-0.123121
0.116734
-0.124932
0.116719
-0.127088
0.117442
-0.129147
0.118961
-0.131719
0.118865
-0.13406
0.119719
-0.136941
0.12268
-0.14097
0.124766
-0.143783
0.125007
-0.146063
0.125596
-0.149238
-0.152939
0.127578
0.00809556
0.000776348
0.0207606
0.00550344
0.0297753
0.0189928
0.0600674
-0.0143592
0.0907788
-0.0673144
0.106674
-0.0998105
0.110557
-0.113508
0.109319
-0.118598
0.107724
-0.121527
0.107051
-0.124259
0.106995
-0.127032
0.107797
-0.129949
0.108729
-0.132651
0.110919
-0.13625
0.113702
-0.139724
0.114309
-0.141576
0.115442
-0.144917
0.119465
-0.150086
0.124596
-0.15437
-0.159613
0.13127
0.00439051
-0.00361416
0.00296146
0.00693249
0.0295145
-0.00756022
0.071441
-0.0562858
0.0933469
-0.0892203
0.0982389
-0.104703
0.0970776
-0.112347
0.0959173
-0.117438
0.0956304
-0.12124
0.0959943
-0.124622
0.0969646
-0.128002
0.0981274
-0.131112
0.0994825
-0.134006
0.10088
-0.137647
0.101713
-0.140558
0.104953
-0.144816
0.109134
-0.149098
0.110473
-0.151425
0.110958
-0.154855
-0.157847
0.109193
-0.012627
0.0090128
0.00301193
-0.00870639
0.0503229
-0.0548712
0.075171
-0.0811339
0.0824159
-0.0964652
0.0836995
-0.105986
0.0837197
-0.112367
0.0833729
-0.117091
0.0828133
-0.12068
0.0823061
-0.124115
0.0818987
-0.127594
0.0816205
-0.130834
0.0815838
-0.13397
0.0817361
-0.1378
0.082617
-0.141438
0.0827196
-0.144919
0.0814074
-0.147786
0.0818396
-0.151857
0.0834913
-0.156506
-0.160685
0.0863286
-0.00431513
0.0133279
0.0302138
-0.0432353
0.0512767
-0.075934
0.0637191
-0.0935763
0.0688054
-0.101551
0.0705623
-0.107743
0.0711561
-0.112961
0.0711398
-0.117075
0.0709308
-0.120471
0.0710494
-0.124234
0.0713063
-0.127851
0.0718792
-0.131407
0.071996
-0.134086
0.0724393
-0.138243
0.0726416
-0.141641
0.0734008
-0.145678
0.0759481
-0.150333
0.0780651
-0.153974
0.0791325
-0.157574
-0.161811
0.0802593
0.00442892
0.00889901
0.0344889
-0.0732954
0.0491087
-0.0905538
0.054957
-0.0994246
0.0577954
-0.10439
0.0586205
-0.108568
0.0584038
-0.112744
0.0581367
-0.116808
0.0581988
-0.120533
0.0579792
-0.124014
0.0575949
-0.127467
0.0569927
-0.130805
0.0571665
-0.13426
0.057876
-0.138952
0.0583644
-0.142129
0.0587849
-0.146099
0.0577391
-0.149287
0.0564365
-0.152672
0.0555744
-0.156711
-0.160406
0.0541691
0.0233243
-0.0144253
0.035016
-0.084987
0.0431767
-0.0987146
0.0462041
-0.102452
0.0466676
-0.104853
0.046666
-0.108567
0.0466271
-0.112705
0.046102
-0.116283
0.0452393
-0.119671
0.0446746
-0.12345
0.0440517
-0.126844
0.0432328
-0.129986
0.0415028
-0.13253
0.0395176
-0.136967
0.0383691
-0.140981
0.0373447
-0.145074
0.0370786
-0.149021
0.038051
-0.153644
0.0387722
-0.157433
-0.161725
0.0400911
0.0302903
-0.0447156
0.0340072
-0.0887039
0.0320099
-0.0967173
0.0330098
-0.103452
0.0346905
-0.106534
0.0359633
-0.109839
0.0359579
-0.1127
0.0354796
-0.115804
0.0348097
-0.119001
0.0336373
-0.122277
0.0327949
-0.126002
0.0322759
-0.129467
0.0323007
-0.132555
0.0320321
-0.136699
0.0304421
-0.139391
0.0291647
-0.143797
0.0275941
-0.147451
0.0250338
-0.151084
0.0226299
-0.155029
0.0200305
-0.159126
-0.0121402
0.0650774
-0.0529372
-0.0237051
0.0658429
-0.0542781
-0.0360531
0.0598215
-0.0474735
-0.0495135
0.0553056
-0.0418452
-0.0624954
0.0507879
-0.0378059
-0.0749261
0.0450548
-0.0326241
-0.086541
0.0385212
-0.0269063
-0.0971827
0.0316211
-0.0209794
-0.107128
0.0241614
-0.0142157
-0.116016
0.0161327
-0.00724526
-0.124013
0.00726373
0.000733583
-0.129894
-0.00244663
0.00832781
-0.134414
-0.0121115
0.0166311
-0.137681
-0.0220585
0.0253253
-0.138202
-0.0337375
0.0342587
-0.137752
-0.04302
0.04257
-0.133449
-0.0557407
0.0514376
-0.12774
-0.0640849
0.0583761
-0.115428
-0.0766462
0.064334
-0.0777984
-0.0999688
0.0623394
-0.00740554
0.072483
-0.0153758
0.0738132
-0.0240808
0.0685265
-0.0328462
0.064071
-0.0407275
0.0586691
-0.0478871
0.0522144
-0.0538221
0.0444562
-0.0587314
0.0365304
-0.0625689
0.0279989
-0.0654234
0.0189873
-0.0666946
0.0085349
-0.0661898
-0.00295139
-0.0630187
-0.0152826
-0.0591736
-0.0259036
-0.0509238
-0.0419873
-0.0439463
-0.0499976
-0.035397
-0.06429
-0.0276493
-0.0718326
-0.0155408
-0.0887547
-0.0861236
-0.00721563
-0.00178312
0.0742661
-0.00610791
0.078138
-0.0108405
0.0732592
-0.0146655
0.067896
-0.0175994
0.0616031
-0.0195524
0.0541673
-0.0202068
0.0451107
-0.019307
0.0356307
-0.0161696
0.0248615
-0.0112881
0.0141057
-0.00348579
0.000732567
0.00525581
-0.011693
0.0171704
-0.0271971
0.0281077
-0.0368409
0.0432033
-0.0570829
0.0594415
-0.0662358
0.0763698
-0.0812182
0.0918709
-0.0873336
0.108521
-0.105405
-0.105099
0.127497
0.00362663
0.0706394
0.00340756
0.0783571
0.00391272
0.072754
0.00463047
0.0671782
0.00629429
0.0599393
0.00940878
0.0510528
0.0144923
0.0400272
0.0213786
0.0287444
0.0324886
0.0137515
0.0444703
0.00212403
0.0595717
-0.0143689
0.0759087
-0.02803
0.0961164
-0.0474048
0.114235
-0.0549592
0.132342
-0.0751908
0.152478
-0.0863717
0.168678
-0.097418
0.184063
-0.102718
0.193449
-0.114791
-0.121033
0.209383
0.00911537
0.0615241
0.0147984
0.0726741
0.0184374
0.0691149
0.0223402
0.0632754
0.0280777
0.0542018
0.0357641
0.0433664
0.0460678
0.0297235
0.0570617
0.0177504
0.0718776
-0.00106433
0.0894095
-0.0154079
0.107605
-0.0325645
0.127582
-0.048007
0.145266
-0.0650885
0.165304
-0.0749969
0.182252
-0.0921387
0.195877
-0.0999975
0.206471
-0.108012
0.221061
-0.117308
0.228833
-0.122563
-0.119362
0.227162
0.015891
0.0456331
0.0231754
0.0653897
0.0291576
0.0631327
0.0363768
0.0560563
0.0444901
0.0460885
0.0545824
0.0332741
0.065235
0.0190709
0.0789798
0.0040056
0.09406
-0.0161445
0.111627
-0.0329754
0.127977
-0.0489139
0.145108
-0.0651385
0.158323
-0.0783032
0.173335
-0.0900088
0.18312
-0.101924
0.18964
-0.106517
0.197621
-0.115992
0.201617
-0.121304
0.202875
-0.123822
-0.122771
0.206284
0.0209052
0.0247279
0.03194
0.0543549
0.0384493
0.0566234
0.0435496
0.050956
0.050345
0.0392931
0.060068
0.023551
0.069472
0.00966689
0.0818639
-0.00838626
0.0931387
-0.0274193
0.10738
-0.0472167
0.121686
-0.0632198
0.135927
-0.0793797
0.149595
-0.0919711
0.162501
-0.102915
0.169032
-0.108455
0.178649
-0.116134
0.188878
-0.126222
0.191238
-0.123663
0.193213
-0.125797
-0.130052
0.200494
0.0119837
0.0127441
0.0238989
0.0424398
0.0319644
0.0485579
0.0401159
0.0428045
0.0454808
0.0339282
0.0467348
0.022297
0.0516342
0.00476755
0.0615585
-0.0183106
0.0777537
-0.0436144
0.0972213
-0.0666843
0.118149
-0.0841475
0.138339
-0.09957
0.154986
-0.108618
0.167629
-0.115557
0.179242
-0.120069
0.190962
-0.127853
0.193517
-0.128778
0.198832
-0.128977
0.209886
-0.136851
-0.13813
0.217964
0.00519476
0.00754938
0.0166295
0.031005
0.023343
0.0418443
0.0215143
0.0446333
0.0146917
0.0407508
0.0160755
0.0209132
0.0316152
-0.0107722
0.0572259
-0.0439212
0.086397
-0.0727856
0.112888
-0.0931751
0.136698
-0.107958
0.153005
-0.115877
0.164273
-0.119886
0.172572
-0.123856
0.178975
-0.126472
0.181151
-0.13003
0.182148
-0.129775
0.18965
-0.136479
0.190658
-0.137859
-0.13874
0.191268
-0.000442207
0.00182324
-0.00102324
-0.00589269
-0.00184209
0.0192921
0.0486732
0.0796028
0.10564
0.124959
0.13611
0.14139
0.145545
0.146997
0.148017
0.14838
0.15271
0.154421
0.152822
0.160823
-0.0718019
-0.114864
0.0866973
-0.0293592
-0.118576
0.076133
0.00899071
-0.116839
0.0784887
0.0477536
-0.0989124
0.0601495
0.0799984
-0.0809732
0.0487284
0.107244
-0.0638068
0.0365614
0.129739
-0.0490537
0.0265586
0.147742
-0.037096
0.0190931
0.161813
-0.0285776
0.0145068
0.173325
-0.0237724
0.01226
0.183289
-0.0208408
0.010877
0.191547
-0.017506
0.00924746
0.197486
-0.0138007
0.00786179
0.201163
-0.0119018
0.00822506
0.203507
-0.0133258
0.0109817
0.205688
-0.0169996
0.0148183
0.208257
-0.0197988
0.01723
0.210998
-0.0188386
0.0160981
0.213527
-0.0133837
0.0108543
0.215689
-0.00470082
0.0025385
0.217575
0.00513732
-0.00702258
0.21919
0.0145719
-0.0161879
0.220516
0.0226891
-0.0240144
0.221545
0.0292175
-0.0302471
0.222305
0.0343238
-0.0350833
0.222841
0.038352
-0.0388875
0.223199
0.0416336
-0.0419916
0.223415
0.0444157
-0.0446317
0.223514
0.0468639
-0.046963
0.223514
0.0490888
-0.0490892
0.22343
0.0511662
-0.0510818
0.223272
0.0531561
-0.0529982
0.22305
0.0551023
-0.0548808
0.222771
0.0570578
-0.0567787
0.222439
0.0590363
-0.0587043
0.222058
0.0611341
-0.0607526
0.221631
0.063238
-0.0628117
0.221156
0.0657414
-0.0652662
0.220645
0.0679174
-0.0674057
0.220078
0.0714116
-0.0708446
0.219489
0.0731514
-0.0725628
0.218831
0.0789207
-0.078263
0.218165
0.0791112
-0.0784451
0.217431
0.0887925
-0.0880581
0.216667
0.0871
-0.0863359
0.215877
0.100283
-0.0994931
0.215013
0.0995753
-0.0987115
0.214145
0.113767
-0.112899
0.213218
0.116117
-0.11519
0.132822
-0.131822
-0.00753942
-0.11454
0.00934269
-0.135458
0.0355163
-0.143012
0.0679565
-0.131353
0.0963814
-0.109398
0.119874
-0.0872992
0.139595
-0.0687749
0.155721
-0.0532222
0.1675
-0.0403566
0.176286
-0.0325585
0.18423
-0.0287846
0.191935
-0.025211
0.198195
-0.0200606
0.201966
-0.0156727
0.203841
-0.0152005
0.205497
-0.018656
0.208131
-0.0224325
0.21162
-0.0223277
0.215057
-0.0168215
0.217749
-0.00739203
0.219596
0.00329002
0.22089
0.0132782
0.221837
0.0217413
0.222554
0.0285007
0.223087
0.0337914
0.22346
0.0379783
0.223699
0.0413949
0.223826
0.0442882
0.223862
0.0468279
0.223821
0.0491301
0.223712
0.0512757
0.22354
0.0533282
0.223309
0.0553328
0.223023
0.0573435
0.222687
0.0593722
0.222304
0.0615177
0.221876
0.0636656
0.221401
0.0662163
0.220891
0.0684271
0.220329
0.0719737
0.219745
0.0737359
0.219094
0.0795717
0.218431
0.0797741
0.217701
0.0895226
0.21694
0.0878613
0.216142
0.10108
0.215281
0.100437
0.214391
0.114657
0.213453
0.117055
0.133847
0.105194
-0.0922377
0.0823246
-0.112589
0.0764644
-0.137152
0.0862085
-0.141097
0.102847
-0.126036
0.119512
-0.103965
0.135035
-0.0842979
0.149891
-0.0680783
0.162332
-0.0527969
0.171357
-0.0415836
0.178636
-0.0360635
0.185989
-0.032564
0.192861
-0.0269329
0.197467
-0.0202789
0.199479
-0.0172126
0.200599
-0.0197755
0.202906
-0.0247393
0.207069
-0.0264908
0.212064
-0.0218166
0.216424
-0.0117524
0.21935
0.000364118
0.221046
0.0115827
0.221942
0.020845
0.222432
0.0280109
0.222739
0.0334842
0.222959
0.0377579
0.223118
0.0412364
0.223212
0.0441941
0.223236
0.0468037
0.223191
0.0491756
0.22308
0.0513868
0.22291
0.0534974
0.22269
0.0555531
0.222422
0.0576116
0.22211
0.0596837
0.221758
0.0618704
0.221367
0.064056
0.220935
0.0666489
0.220471
0.0688907
0.219959
0.0724855
0.219429
0.0742665
0.218838
0.0801626
0.218236
0.0803762
0.21757
0.0901887
0.216875
0.0885559
0.216135
0.10182
0.215342
0.10123
0.214498
0.115502
0.213621
0.117932
0.134832
0.201151
-0.0840057
0.177723
-0.0891605
0.15115
-0.110579
0.133219
-0.123166
0.128054
-0.120871
0.131317
-0.107228
0.137543
-0.090524
0.145994
-0.0765296
0.156027
-0.0628295
0.164808
-0.050365
0.171731
-0.0429867
0.17857
-0.0394028
0.185992
-0.0343545
0.192268
-0.026555
0.195713
-0.0206578
0.196916
-0.0209787
0.198214
-0.0260367
0.201491
-0.0297676
0.206661
-0.026987
0.212155
-0.0172461
0.216383
-0.0038638
0.218998
0.00896714
0.220318
0.0195249
0.220884
0.0274449
0.221111
0.0332572
0.221221
0.0376477
0.221297
0.0411603
0.221356
0.0441352
0.221391
0.0467688
0.221391
0.049176
0.221346
0.0514313
0.221253
0.0535903
0.221112
0.055695
0.220923
0.0577997
0.220695
0.0599125
0.220426
0.0621393
0.220121
0.0643603
0.219779
0.066991
0.219412
0.0692582
0.219001
0.0728962
0.218575
0.0746929
0.218093
0.0806445
0.217604
0.080865
0.217054
0.0907385
0.216485
0.089125
0.215862
0.102443
0.215204
0.101888
0.214471
0.116234
0.213719
0.118684
0.135701
0.215098
-0.071942
0.204494
-0.0785572
0.1882
-0.0942843
0.169362
-0.104328
0.154482
-0.105991
0.148713
-0.10146
0.149069
-0.0908798
0.152098
-0.0795581
0.157673
-0.0684047
0.164026
-0.0567183
0.16894
-0.0479004
0.173232
-0.0436952
0.178763
-0.0398854
0.184918
-0.0327099
0.189421
-0.0251608
0.191426
-0.0229845
0.192503
-0.0271128
0.194947
-0.0322122
0.199641
-0.0316807
0.205552
-0.0231573
0.211004
-0.00931528
0.214783
0.00518747
0.216958
0.0173501
0.217983
0.02642
0.218406
0.0328342
0.218592
0.0374615
0.218708
0.0410445
0.218798
0.0440452
0.218863
0.046704
0.218895
0.0491434
0.218891
0.0514354
0.218852
0.05363
0.218777
0.0557695
0.218669
0.057908
0.218532
0.0600493
0.218368
0.0623039
0.218179
0.064549
0.217961
0.0672092
0.217725
0.0694938
0.217455
0.0731662
0.217178
0.0749696
0.216856
0.0809666
0.216533
0.0811885
0.216156
0.0911155
0.215767
0.0895137
0.215322
0.102888
0.214857
0.102354
0.214304
0.116787
0.213746
0.119242
0.136389
0.201581
-0.0672398
0.198169
-0.0751446
0.19059
-0.0867054
0.179048
-0.0927861
0.165419
-0.0923618
0.155424
-0.0914641
0.151416
-0.086872
0.151526
-0.0796675
0.155426
-0.0723052
0.161445
-0.0627369
0.166261
-0.0527168
0.169388
-0.0468216
0.173108
-0.0436058
0.178308
-0.03791
0.182977
-0.0298297
0.18526
-0.0252676
0.185895
-0.0277472
0.187358
-0.0336755
0.19137
-0.035693
0.197455
-0.0292421
0.203774
-0.0156338
0.208598
0.000362564
0.211686
0.0142626
0.213289
0.0248174
0.214002
0.032121
0.214316
0.0371475
0.214512
0.0408479
0.214701
0.0438565
0.214896
0.0465094
0.215081
0.0489576
0.215242
0.0512747
0.215368
0.0535042
0.215457
0.0556804
0.215513
0.0578523
0.21554
0.0600215
0.215541
0.0623031
0.215523
0.0645672
0.215483
0.0672492
0.215434
0.0695432
0.215357
0.0732435
0.215279
0.075047
0.215164
0.0810821
0.215056
0.0812965
0.2149
0.0912706
0.214748
0.0896666
0.214535
0.103101
0.214323
0.102566
0.21401
0.1171
0.213707
0.119544
0.136825
0.198629
-0.0653744
0.198135
-0.0746504
0.192109
-0.080679
0.183603
-0.0842805
0.174646
-0.0834052
0.165703
-0.082521
0.158499
-0.0796681
0.15308
-0.074248
0.150749
-0.0699742
0.152904
-0.0648925
0.157026
-0.0568384
0.160307
-0.0501026
0.163818
-0.047117
0.169174
-0.0432654
0.174903
-0.0355586
0.178333
-0.0286985
0.179086
-0.0285001
0.179465
-0.0340543
0.182119
-0.0383468
0.18769
-0.0348133
0.194665
-0.0226082
0.20093
-0.00590303
0.205293
0.00989927
0.207854
0.0222564
0.209143
0.0308321
0.209751
0.0365396
0.210073
0.0405265
0.210308
0.0436214
0.210532
0.0462846
0.210763
0.0487272
0.210998
0.05104
0.21123
0.0532721
0.21145
0.05546
0.211657
0.0576459
0.211851
0.0598271
0.212031
0.0621225
0.212205
0.0643937
0.212367
0.0670877
0.212532
0.0693781
0.212681
0.0730939
0.212846
0.0748822
0.212984
0.0809439
0.213143
0.0811371
0.213265
0.0911495
0.213402
0.0895291
0.213485
0.103018
0.213583
0.102468
0.213582
0.1171
0.2136
0.119527
0.136935
0.211085
-0.0584962
0.200731
-0.0642962
0.186731
-0.0666785
0.17319
-0.0707394
0.164051
-0.0742671
0.157914
-0.0763835
0.154155
-0.0759093
0.151344
-0.0714365
0.148462
-0.067093
0.147879
-0.0643088
0.15017
-0.0591294
0.152479
-0.0524116
0.154762
-0.0493999
0.159204
-0.0477074
0.165259
-0.0416139
0.169698
-0.0331373
0.170982
-0.029784
0.17087
-0.0339424
0.172383
-0.0398602
0.177054
-0.0394845
0.183962
-0.0295157
0.190986
-0.012927
0.196389
0.00449628
0.199893
0.0187519
0.201847
0.0288783
0.202911
0.0354755
0.20359
0.0398482
0.20414
0.0430709
0.204656
0.0457691
0.205151
0.0482315
0.205627
0.0505642
0.206084
0.0528151
0.206524
0.0550203
0.206952
0.0572171
0.207376
0.0594035
0.207794
0.0617046
0.208215
0.0639724
0.208635
0.066668
0.209069
0.0689436
0.209497
0.072666
0.209951
0.0744287
0.210388
0.0805068
0.210858
0.0806675
0.211302
0.0907054
0.211775
0.0890557
0.212203
0.10259
0.212662
0.102009
0.213026
0.116736
0.213421
0.119132
0.136662
0.186408
-0.053636
0.177269
-0.0551576
0.166842
-0.056251
0.157128
-0.0610249
0.149508
-0.0666471
0.143075
-0.0699507
0.139185
-0.0720199
0.138589
-0.0708399
0.138907
-0.0674113
0.140146
-0.0655475
0.143272
-0.0622556
0.146306
-0.0554455
0.147863
-0.0509574
0.150527
-0.0503707
0.155895
-0.0469826
0.161263
-0.0385053
0.163556
-0.0320768
0.163247
-0.0336332
0.163505
-0.0401184
0.166841
-0.0428207
0.173271
-0.0359453
0.180904
-0.0205603
0.187456
-0.00205547
0.192125
0.0140834
0.19489
0.0261128
0.196374
0.0339917
0.197205
0.0390166
0.197805
0.0424718
0.198375
0.0451991
0.198975
0.0476315
0.199605
0.0499335
0.200253
0.0521671
0.20091
0.054364
0.201571
0.0565559
0.20224
0.0587342
0.202917
0.0610279
0.20361
0.063279
0.204312
0.0659657
0.205044
0.0682115
0.205781
0.071929
0.206565
0.0736454
0.207342
0.0797294
0.208175
0.0798346
0.20899
0.0898902
0.209857
0.0881885
0.210687
0.101761
0.211566
0.10113
0.21236
0.115942
0.213188
0.118304
0.135923
0.155657
-0.0484702
0.151579
-0.0510801
0.148624
-0.0532958
0.14476
-0.0571609
0.138925
-0.0608125
0.130874
-0.0618992
0.124186
-0.0653317
0.12151
-0.0681645
0.121061
-0.0669619
0.121578
-0.066065
0.124991
-0.0656682
0.130031
-0.0604854
0.133168
-0.054095
0.13567
-0.0528724
0.140683
-0.0519959
0.14693
-0.0447522
0.150798
-0.0359446
0.151561
-0.0343968
0.151821
-0.0403775
0.154606
-0.0456065
0.160699
-0.0420378
0.168496
-0.0283578
0.175883
-0.00944197
0.181563
0.00840362
0.185373
0.0223023
0.18772
0.0316452
0.189179
0.0375571
0.19021
0.0414412
0.191082
0.0443271
0.191923
0.0467897
0.192779
0.0490775
0.193656
0.0512909
0.194555
0.0534649
0.195475
0.0556353
0.196419
0.0577902
0.197386
0.0600617
0.198385
0.0622793
0.199409
0.0649417
0.200482
0.0671392
0.201572
0.0708386
0.202728
0.0724899
0.203889
0.0785683
0.205125
0.0785989
0.206358
0.0886568
0.207658
0.0868883
0.208944
0.100475
0.210286
0.0997881
0.21157
0.114658
0.212882
0.116992
0.134662
0.236912
-0.0408235
-0.244558
0.231794
-0.0459621
0.227042
-0.0485438
0.222083
-0.0522022
0.216474
-0.0552035
0.210354
-0.0557794
0.203829
-0.0588062
0.197769
-0.0621043
0.192957
-0.0621498
0.189155
-0.062263
0.18608
-0.0625934
0.184012
-0.0584174
0.182291
-0.052374
0.180729
-0.0513102
0.180345
-0.0516121
0.180956
-0.0453633
0.18127
-0.0362583
0.180953
-0.0340805
0.180783
-0.0402073
0.18147
-0.0462931
0.183076
-0.0436442
0.185106
-0.030388
0.186946
-0.0112823
0.187879
0.00747154
0.188192
0.021989
0.188181
0.0316557
0.188103
0.0376353
0.188076
0.0414685
0.188127
0.0442764
0.188248
0.0466684
0.188417
0.0489084
0.188619
0.0510892
0.188848
0.0532357
0.189094
0.0553892
0.189346
0.0575379
0.189603
0.0598054
0.189859
0.0620234
0.19012
0.0646798
0.190373
0.0668865
0.190641
0.0705704
0.190888
0.0722437
0.191163
0.0782925
0.191413
0.0783496
0.191682
0.0883877
0.191959
0.0866108
0.192205
0.100229
0.192513
0.0994795
0.19275
0.114421
0.193068
0.116675
0.134411
0.245587
-0.0341199
-0.252291
0.239948
-0.0403224
0.234774
-0.0433698
0.229802
-0.0472302
0.225572
-0.050974
0.222158
-0.0523655
0.218665
-0.0553129
0.214201
-0.0576404
0.208821
-0.0567694
0.203661
-0.0571033
0.199272
-0.0582047
0.195865
-0.0550105
0.193406
-0.049915
0.19175
-0.0496538
0.191114
-0.0509757
0.191387
-0.0456363
0.19181
-0.0366815
0.192121
-0.0343911
0.192715
-0.0408018
0.193935
-0.0475135
0.195714
-0.0454227
0.197649
-0.0323225
0.199227
-0.0128611
0.200392
0.00630679
0.200993
0.0213876
0.201206
0.0314435
0.20123
0.0376114
0.201226
0.0414719
0.201269
0.0442336
0.201376
0.0465612
0.201539
0.0487452
0.201743
0.0508855
0.201978
0.0530006
0.202234
0.055133
0.202501
0.0572716
0.202774
0.0595321
0.20305
0.0617478
0.203333
0.0643964
0.203611
0.0666086
0.203905
0.0702769
0.204182
0.0719662
0.204485
0.0779898
0.204771
0.0780631
0.205067
0.0880916
0.205388
0.0862905
0.205661
0.099956
0.206015
0.099125
0.206284
0.114152
0.206636
0.116323
0.134103
0.258454
-0.0300323
-0.262542
0.25377
-0.0356377
0.249267
-0.0388668
0.245363
-0.0433261
0.241327
-0.0469383
0.23646
-0.0474983
0.231676
-0.0505295
0.227483
-0.0534467
0.223176
-0.0524628
0.219425
-0.0533519
0.216905
-0.0556853
0.214941
-0.0530461
0.21303
-0.0480039
0.211423
-0.0480472
0.210696
-0.0502485
0.210884
-0.0458245
0.211146
-0.0369433
0.210889
-0.0341344
0.210415
-0.0403279
0.210404
-0.0475024
0.211136
-0.0461551
0.212407
-0.0335934
0.2138
-0.0142533
0.214706
0.00540047
0.215193
0.0209001
0.215359
0.0312784
0.215364
0.0376063
0.215337
0.0414988
0.215352
0.0442183
0.215435
0.0464778
0.215585
0.0485954
0.215786
0.0506843
0.216025
0.052762
0.21629
0.054868
0.21657
0.0569915
0.216861
0.0592409
0.217159
0.0614499
0.217467
0.0640882
0.217775
0.0663014
0.218096
0.0699553
0.218409
0.0716532
0.218741
0.0776583
0.21907
0.0777343
0.219396
0.0877653
0.219762
0.0859245
0.220073
0.099645
0.220468
0.0987299
0.220788
0.113833
0.221184
0.115927
0.133754
0.273375
-0.0273
-0.276107
0.269128
-0.0313904
0.264539
-0.034278
0.260366
-0.0391526
0.256331
-0.0429034
0.252235
-0.043403
0.247851
-0.0461448
0.243238
-0.0488345
0.238897
-0.048121
0.235139
-0.0495941
0.231769
-0.0523154
0.228709
-0.049986
0.226454
-0.045749
0.225034
-0.0466276
0.224127
-0.0493412
0.223536
-0.0452341
0.223081
-0.0364878
0.222826
-0.0338792
0.223196
-0.0406986
0.224363
-0.048669
0.22598
-0.0477723
0.227555
-0.0351676
0.228731
-0.0154301
0.229569
0.00456292
0.230034
0.020435
0.230241
0.0310717
0.230299
0.0375476
0.230313
0.0414855
0.23035
0.0441814
0.230441
0.0463865
0.230593
0.0484432
0.230799
0.0504784
0.231045
0.0525161
0.23132
0.0545928
0.231616
0.0566955
0.231929
0.058928
0.232253
0.0611262
0.232588
0.0637527
0.232927
0.0659626
0.233278
0.0696038
0.233631
0.0713003
0.233994
0.0772958
0.234372
0.0773563
0.234732
0.0874054
0.235149
0.0855073
0.235506
0.0992881
0.235944
0.0982921
0.236327
0.113449
0.23677
0.115484
0.133362
0.288549
-0.0245142
-0.291334
0.284725
-0.0275666
0.280803
-0.0303558
0.277025
-0.0353754
0.272732
-0.0386098
0.268432
-0.0391035
0.264652
-0.0423648
0.261379
-0.0455614
0.257833
-0.0445746
0.254041
-0.0458026
0.250968
-0.0492424
0.248575
-0.0475929
0.246352
-0.043526
0.244346
-0.0446211
0.242992
-0.0479875
0.242504
-0.0447464
0.24236
-0.0363437
0.242056
-0.0335754
0.241742
-0.0403843
0.241798
-0.0487246
0.242444
-0.0484186
0.243544
-0.0362677
0.24471
-0.0165965
0.245531
0.00374183
0.246
0.0199667
0.24621
0.0308618
0.246285
0.0374727
0.246318
0.0414526
0.24637
0.0441286
0.246472
0.0462845
0.246632
0.0482833
0.246847
0.050264
0.247103
0.0522597
0.247392
0.0543037
0.247708
0.0563798
0.248045
0.0585913
0.248395
0.0607759
0.248759
0.0633887
0.249132
0.0655891
0.249518
0.0692177
0.249916
0.0709026
0.250316
0.0768964
0.250748
0.076924
0.251148
0.0870055
0.251623
0.085032
0.25203
0.0988809
0.252524
0.0977984
0.25297
0.113003
0.253465
0.114989
0.132905
0.30413
-0.0221089
-0.306535
0.300844
-0.024281
0.297358
-0.0268693
0.294194
-0.0322117
0.29051
-0.034926
0.286693
-0.0352867
0.283309
-0.0389801
0.279623
-0.041876
0.275775
-0.0407263
0.272431
-0.0424583
0.269478
-0.0462896
0.266479
-0.0445939
0.263858
-0.0409053
0.262195
-0.0429578
0.261127
-0.0469192
0.260183
-0.043803
0.259373
-0.0355339
0.258879
-0.0330814
0.258932
-0.0404364
0.259552
-0.0493454
0.260458
-0.0493247
0.261373
-0.0371818
0.262145
-0.017369
0.262718
0.00316875
0.263074
0.0196108
0.263262
0.0306741
0.263352
0.037382
0.263411
0.0413937
0.263487
0.0440529
0.263606
0.0461658
0.263778
0.0481112
0.264003
0.0500386
0.264273
0.0519903
0.264578
0.0539981
0.264914
0.0560437
0.265275
0.0582307
0.265654
0.0603966
0.266052
0.0629911
0.266465
0.0651755
0.266891
0.0687914
0.267339
0.0704552
0.267782
0.0764534
0.268273
0.0764329
0.268721
0.086557
0.269261
0.0844929
0.269726
0.0984159
0.270287
0.0972376
0.270795
0.112495
0.271357
0.114427
0.132372
0.320384
-0.0200351
-0.322458
0.317824
-0.0217211
0.315487
-0.0245323
0.312748
-0.0294726
0.309152
-0.0313298
0.305556
-0.0316904
0.302259
-0.035683
0.29891
-0.038527
0.295567
-0.0373833
0.292287
-0.0391784
0.289326
-0.0433293
0.286809
-0.0420762
0.284553
-0.0386498
0.282627
-0.0410315
0.281131
-0.045423
0.280064
-0.0427363
0.279347
-0.0348165
0.278847
-0.0325823
0.278614
-0.0402028
0.278771
-0.0495023
0.279268
-0.0498225
0.279921
-0.0378343
0.280549
-0.0179971
0.281034
0.00268347
0.281347
0.0192985
0.281524
0.0304965
0.281625
0.0372811
0.281702
0.041317
0.281794
0.0439611
0.281926
0.0460338
0.282109
0.0479275
0.282346
0.0498019
0.282629
0.0517074
0.282952
0.0536754
0.28331
0.0556857
0.283698
0.0578422
0.284112
0.0599825
0.284549
0.062555
0.285007
0.064717
0.285478
0.0683203
0.285981
0.0699526
0.286474
0.0759603
0.287031
0.0758762
0.287536
0.0860515
0.288146
0.0838831
0.28868
0.0978819
0.289314
0.0966036
0.289896
0.111912
0.290539
0.113784
0.131759
0.338667
-0.01853
-0.340172
0.336501
-0.0195557
0.334402
-0.0224332
0.331912
-0.0269823
0.328593
-0.0280109
0.325377
-0.0284744
0.322597
-0.0329023
0.319474
-0.0354041
0.316184
-0.0340935
0.313342
-0.0363369
0.31072
-0.0407067
0.307956
-0.0393127
0.305384
-0.0360771
0.303543
-0.0391908
0.302261
-0.0441408
0.30105
-0.0415258
0.299938
-0.0337045
0.299206
-0.0318495
0.298995
-0.0399923
0.299235
-0.0497424
0.299679
-0.0502661
0.300116
-0.0382713
0.300474
-0.0183551
0.300748
0.00240932
0.300943
0.0191038
0.301073
0.0303662
0.301167
0.0371871
0.301254
0.04123
0.30136
0.0438549
0.301507
0.0458873
0.301704
0.0477304
0.301953
0.0495528
0.302252
0.0514087
0.302596
0.0533311
0.302981
0.0553004
0.303402
0.0574209
0.303855
0.0595297
0.304334
0.0620765
0.304842
0.064209
0.305364
0.0677985
0.305928
0.0693878
0.306479
0.0754099
0.30711
0.0752453
0.30768
0.0854812
0.308371
0.0831925
0.308983
0.0972693
0.309699
0.0958879
0.31037
0.111241
0.311106
0.113049
0.131059
0.357971
-0.0166483
-0.359853
0.356043
-0.017628
0.354423
-0.0208133
0.352217
-0.0247761
0.349224
-0.0250175
0.346495
-0.0257456
0.344006
-0.0304135
0.34107
-0.0324676
0.338051
-0.0310744
0.335399
-0.0336849
0.332846
-0.0381546
0.330286
-0.0367527
0.328006
-0.0337963
0.326183
-0.0373682
0.324649
-0.042607
0.323253
-0.0401295
0.322126
-0.0325781
0.321448
-0.0311714
0.321202
-0.0397457
0.321254
-0.0497949
0.321432
-0.0504434
0.321597
-0.0384364
0.321716
-0.0184746
0.321816
0.00230932
0.321905
0.0190152
0.321985
0.0302861
0.322064
0.0371076
0.322156
0.0411387
0.322274
0.0437364
0.322435
0.0457267
0.322645
0.0475196
0.32291
0.0492881
0.32323
0.0510892
0.3236
0.0529608
0.324016
0.0548843
0.324473
0.0569637
0.324969
0.0590342
0.325495
0.0615502
0.326059
0.0636447
0.326639
0.0672185
0.327274
0.068753
0.327891
0.0747935
0.328605
0.0745312
0.32925
0.0848363
0.330033
0.0824093
0.330733
0.0965687
0.331545
0.0950757
0.332318
0.110469
0.333158
0.112209
0.130255
0.378486
-0.0150453
-0.380089
0.377032
-0.016174
0.375807
-0.0195879
0.37379
-0.0227592
0.371072
-0.0222995
0.368768
-0.0234416
0.366642
-0.0282876
0.363924
-0.0297491
0.361141
-0.0282921
0.35886
-0.0314038
0.356571
-0.035865
0.354008
-0.0341902
0.351678
-0.0314661
0.349922
-0.035612
0.34848
-0.0411657
0.347037
-0.0386862
0.345747
-0.0312882
0.344932
-0.0303563
0.344632
-0.0394461
0.344619
-0.0497819
0.344645
-0.0504692
0.344585
-0.0383763
0.344468
-0.018357
0.344374
0.0024025
0.344338
0.0190518
0.344353
0.0302711
0.344407
0.0370531
0.344497
0.0410492
0.344625
0.0436086
0.344798
0.045553
0.345025
0.0472925
0.345311
0.0490029
0.345655
0.0507451
0.346054
0.0525613
0.346505
0.0544334
0.347003
0.0564655
0.347548
0.0584897
0.348129
0.0609691
0.348757
0.0630166
0.349403
0.0665724
0.350117
0.0680393
0.350809
0.0741017
0.351617
0.0737228
0.352347
0.0841058
0.353236
0.081521
0.354037
0.095768
0.354961
0.0941511
0.355847
0.109583
0.356808
0.111248
0.12933
0.400765
-0.0139257
-0.401885
0.399736
-0.0151453
0.398659
-0.0185106
0.396699
-0.0207993
0.394311
-0.0199111
0.392472
-0.0216029
0.390637
-0.0264522
0.388143
-0.0272557
0.385653
-0.0258022
0.383583
-0.0293335
0.38138
-0.0336615
0.378938
-0.0317488
0.376844
-0.0293724
0.375271
-0.0340386
0.373794
-0.0396887
0.372197
-0.0370893
0.370811
-0.0299018
0.370012
-0.0295574
0.369726
-0.0391605
0.369632
-0.0496879
0.369461
-0.0502979
0.369148
-0.0380638
0.368786
-0.0179944
0.368495
0.00269304
0.368328
0.0192195
0.368269
0.0303294
0.368291
0.0370313
0.368373
0.0409677
0.368506
0.0434751
0.368693
0.0453658
0.36894
0.0470462
0.369248
0.048694
0.36962
0.0503731
0.370054
0.0521283
0.370545
0.0539415
0.371092
0.0559191
0.371692
0.0578889
0.372336
0.0603254
0.373037
0.0623162
0.373758
0.0658508
0.374561
0.067236
0.37534
0.0733236
0.376255
0.0728074
0.377083
0.0832775
0.378092
0.0805122
0.379007
0.0948529
0.380061
0.0930969
0.381076
0.108569
0.382178
0.110146
0.128266
0.424699
-0.0128472
-0.425778
0.423919
-0.0143652
0.422972
-0.0175638
0.421167
-0.0189937
0.419151
-0.0178956
0.417691
-0.0201422
0.416062
-0.0248231
0.413731
-0.0249253
0.41149
-0.0235609
0.409711
-0.0275544
0.407742
-0.0316932
0.40545
-0.0294561
0.403484
-0.0274068
0.402022
-0.0325762
0.400572
-0.038239
0.398929