/*--------------------------------*- C++ -*----------------------------------*\
| =========                 |                                                 |
| \\      /  F ield         | OpenFOAM: The Open Source CFD Toolbox           |
|  \\    /   O peration     | Version:  2312                                  |
|   \\  /    A nd           | Website:  www.openfoam.com                      |
|    \\/     M anipulation  |                                                 |
\*---------------------------------------------------------------------------*/
FoamFile
{
    version     2.0;
    format      ascii;
    arch        "LSB;label=32;scalar=64";
    class       surfaceScalarField;
    location    "16.5";
    object      phi;
}
// * * * * * * * * * * * * * * * * * * * * * * * * * * * * * * * * * * * * * //

dimensions      [0 3 -1 0 0 0 0];

oriented        oriented;

internalField   nonuniform List<scalar> 
26232
(
-0.00020512
0.00112623
-0.000921113
-0.000253545
0.00227707
-0.00222864
0.000227843
0.00245744
-0.00293882
0.00154713
0.00162614
-0.00294544
0.00402265
-0.000338737
-0.00213678
0.00797864
-0.00357243
-0.000383557
0.0137441
-0.00818285
0.00241744
0.021563
-0.0141759
0.00635701
0.0315215
-0.0214189
0.0114604
0.0434841
-0.0296389
0.0176763
0.0570806
-0.0384625
0.024866
0.0717439
-0.0474751
0.0328118
0.0867834
-0.0562799
0.0412404
0.101475
-0.064544
0.0498527
0.11515
-0.0720274
0.0583523
0.127275
-0.0786014
0.0664759
0.137532
-0.0842515
0.0739947
0.145806
-0.089074
0.0807997
0.152336
-0.0932433
0.0867137
0.157347
-0.0970479
0.0920373
0.161584
-0.100553
0.0963158
0.165126
-0.104444
0.100902
0.168229
-0.107472
0.104368
-0.11208
0.109748
0.170562
-0.000161077
0.00128731
-5.34852e-05
0.00216948
0.000778218
0.00162573
0.00277201
-0.000367652
0.00635626
-0.00392298
0.0119256
-0.00914175
0.0197386
-0.0159958
0.029812
-0.0242493
0.0418571
-0.0334641
0.0553012
-0.043083
0.0693816
-0.0525429
0.0832765
-0.06137
0.0962363
-0.0692396
0.107691
-0.0759988
0.117324
-0.08166
0.125099
-0.0863763
0.131237
-0.0903896
0.136151
-0.0939885
0.140323
-0.0974152
0.144153
-0.100878
0.148004
-0.104404
0.151684
-0.108123
0.155808
-0.111597
-0.115844
0.159572
-3.52106e-05
0.00132252
0.000435812
0.00169845
0.00194214
0.000119404
0.00500473
-0.00343025
0.010101
-0.00901922
0.0175401
-0.0165809
0.0273119
-0.0257677
0.0390082
-0.0359456
0.0518808
-0.0463367
0.0650085
-0.0562107
0.0774963
-0.0650307
0.0886442
-0.0725179
0.0980528
-0.0786483
0.105655
-0.0836008
0.111674
-0.0876795
0.116522
-0.0912241
0.120665
-0.0945329
0.12449
-0.0978135
0.128231
-0.101155
0.131962
-0.104609
0.135614
-0.108057
0.139161
-0.11167
0.142557
-0.114993
-0.118914
0.145627
0.00013166
0.00119086
0.00109633
0.000733784
0.00348373
-0.00226799
0.00785476
-0.00780128
0.0146081
-0.0157725
0.0237683
-0.0257411
0.0348586
-0.036858
0.0469869
-0.0480739
0.0591002
-0.05845
0.0702653
-0.0673758
0.0798676
-0.074633
0.0876894
-0.0803397
0.0938718
-0.0848307
0.0987923
-0.0885212
0.102903
-0.09179
0.106588
-0.0949097
0.110089
-0.0980335
0.113491
-0.101215
0.116807
-0.104471
0.11998
-0.107782
0.123079
-0.111156
0.12605
-0.114641
0.129097
-0.11804
-0.121992
0.132176
0.000314829
0.000876031
0.00185973
-0.000811121
0.00526434
-0.0056726
0.0110402
-0.0135771
0.0193191
-0.0240515
0.0296302
-0.0360522
0.040974
-0.0482017
0.0521728
-0.0592726
0.0622514
-0.0685287
0.0706657
-0.0757901
0.0773365
-0.0813038
0.0825346
-0.0855377
0.0866922
-0.0889884
0.0902263
-0.0920553
0.0934311
-0.0949948
0.0964618
-0.0979404
0.0993741
-0.100946
0.102193
-0.104035
0.104936
-0.107213
0.107647
-0.110494
0.110357
-0.113866
0.113056
-0.11734
0.115825
-0.120809
-0.124601
0.118434
0.000522742
0.00035329
0.00272077
-0.00300915
0.00721484
-0.0101667
0.0143112
-0.0206735
0.0236538
-0.0333941
0.0341981
-0.0465965
0.0446359
-0.0586395
0.0539085
-0.0685452
0.0614852
-0.0761053
0.0673582
-0.0816631
0.071859
-0.0858046
0.075429
-0.0891078
0.0784494
-0.0920088
0.081171
-0.0947768
0.0837284
-0.0975523
0.0861869
-0.100399
0.0885856
-0.103344
0.0909469
-0.106396
0.0932885
-0.109555
0.0956036
-0.112809
0.097887
-0.116149
0.100117
-0.11957
0.102339
-0.123031
-0.126723
0.10446
0.000765754
-0.000412464
0.00367416
-0.00591755
0.0092286
-0.0157211
0.0173217
-0.0287665
0.0269838
-0.0430563
0.0367834
-0.0563961
0.0455081
-0.0673642
0.0525517
-0.0755888
0.0579009
-0.0814545
0.0619003
-0.0856626
0.0649923
-0.0888966
0.067548
-0.0916635
0.0698125
-0.0942734
0.0719236
-0.0968878
0.0739505
-0.0995792
0.0759262
-0.102375
0.0778609
-0.105279
0.0797563
-0.108291
0.0816073
-0.111406
0.0834178
-0.11462
0.0851962
-0.117928
0.0869488
-0.121323
0.0887138
-0.124796
-0.128428
0.0904186
0.00104284
-0.00145531
0.00467314
-0.00954785
0.0111101
-0.0221581
0.0196562
-0.0373126
0.0288316
-0.0522317
0.0371977
-0.0647622
0.0439583
-0.0741248
0.0490073
-0.0806378
0.0526637
-0.0851109
0.0553737
-0.0883726
0.0575224
-0.0910453
0.0593693
-0.0935104
0.0610606
-0.0959647
0.0626661
-0.0984933
0.0642133
-0.101126
0.0657101
-0.103871
0.0671604
-0.106729
0.0685686
-0.1097
0.0699425
-0.11278
0.0712874
-0.115964
0.0726028
-0.119243
0.0738871
-0.122607
0.0751495
-0.126058
-0.129618
0.0763393
0.0013398
-0.0027951
0.00562738
-0.0138354
0.012614
-0.0291447
0.0209852
-0.0456838
0.0290625
-0.060309
0.0357296
-0.0714293
0.0406754
-0.0790706
0.0441403
-0.0841027
0.0465688
-0.0875395
0.0483737
-0.0901775
0.0498418
-0.0925134
0.0511351
-0.0948037
0.0523296
-0.0971591
0.0534553
-0.0996191
0.0545239
-0.102195
0.0555418
-0.104889
0.0565145
-0.107702
0.0574456
-0.110631
0.058335
-0.113669
0.0591811
-0.11681
0.0599836
-0.120046
0.0607492
-0.123372
0.0614872
-0.126796
-0.130318
0.0621879
0.00163078
-0.00442588
0.00642357
-0.0186282
0.0135303
-0.0362514
0.021189
-0.0533425
0.0278597
-0.0669797
0.0328754
-0.076445
0.036306
-0.0825012
0.0385646
-0.0863613
0.0400949
-0.0890698
0.0412245
-0.0913071
0.0421441
-0.093433
0.0429455
-0.0956051
0.0436667
-0.0978804
0.0443228
-0.100275
0.0449206
-0.102793
0.0454637
-0.105432
0.0459548
-0.108193
0.0463957
-0.111072
0.0467885
-0.114062
0.0471352
-0.117157
0.0474382
-0.120349
0.0477006
-0.123635
0.0479243
-0.12702
-0.1305
0.0481061
0.00188588
-0.00631176
0.00695768
-0.0237
0.0137553
-0.043049
0.0203551
-0.0599423
0.025561
-0.0721856
0.0291195
-0.0800036
0.0313384
-0.0847201
0.032678
-0.0877008
0.0335182
-0.08991
0.0340946
-0.0918835
0.0345255
-0.0938638
0.0348612
-0.0959408
0.0351208
-0.09814
0.0353118
-0.100466
0.0354378
-0.102919
0.0355022
-0.105497
0.0355083
-0.108199
0.0354592
-0.111023
0.0353563
-0.113959
0.0352
-0.117001
0.0349911
-0.12014
0.0347312
-0.123375
0.0344176
-0.126707
-0.130137
0.0340547
0.00208016
-0.00839192
0.00716753
-0.0287874
0.0133115
-0.049193
0.0186954
-0.0653262
0.0225245
-0.0760146
0.024856
-0.0823351
0.0261126
-0.0859767
0.0267267
-0.088315
0.0269959
-0.0901792
0.0270795
-0.0919671
0.0270477
-0.0938321
0.0269272
-0.0958202
0.0267276
-0.0979404
0.0264535
-0.100192
0.0261085
-0.102574
0.0256955
-0.105084
0.0252169
-0.107721
0.0246741
-0.11048
0.024068
-0.113353
0.0234004
-0.116333
0.0226748
-0.119414
0.021896
-0.122596
0.0210671
-0.125878
0.0201866
-0.129257
-0.00113717
0.00315068
-0.00201351
-0.00363759
0.00677524
-0.00427482
-0.00696096
0.00888702
-0.00556365
-0.010774
0.0101524
-0.00633933
-0.0148988
0.0110214
-0.00689665
-0.0192565
0.0117411
-0.00738333
-0.0238144
0.0124026
-0.00784472
-0.0285512
0.0130162
-0.00827932
-0.0334445
0.0135659
-0.00867265
-0.0384669
0.0140313
-0.00900897
-0.0435863
0.0143932
-0.00927371
-0.0487673
0.0146346
-0.00945362
-0.0539708
0.0147404
-0.0095369
-0.0591551
0.0146976
-0.00951327
-0.0642764
0.0144953
-0.00937404
-0.069289
0.0141244
-0.00911185
-0.0741462
0.0135779
-0.00872077
-0.0788011
0.0128517
-0.00819679
-0.0832074
0.011944
-0.00753765
-0.0873205
0.0108549
-0.00674178
-0.0910863
0.00958369
-0.00581787
-0.0944562
0.00812615
-0.00475626
-0.097384
0.00649281
-0.00356503
0.00475143
-0.0998685
-0.00226694
-0.000770446
0.00392112
-0.00263441
0.00863921
-0.00524825
0.0115009
-0.00833144
0.0132356
-0.0116894
0.0143793
-0.0152081
0.0152599
-0.0188251
0.0160195
-0.022499
0.0166901
-0.0261927
0.0172596
-0.0298669
0.0177055
-0.0334794
0.0180057
-0.0369852
0.0181403
-0.0403371
0.0180923
-0.0434861
0.0178467
-0.0463819
0.0173912
-0.0489731
0.0167155
-0.0512071
0.015812
-0.053031
0.0146756
-0.0543903
0.0133033
-0.05523
0.0116946
-0.0555003
0.00985394
-0.0551587
0.00778458
-0.0541516
0.00548564
0.00289172
-0.0522918
-0.000329047
0.00425017
-0.00137886
0.00968902
-0.00305181
0.0131738
-0.00516144
0.0153452
-0.00751389
0.0167317
-0.00996122
0.0177072
-0.0124061
0.0184644
-0.0147835
0.0190675
-0.0170421
0.0195182
-0.019134
0.0197974
-0.021011
0.0198827
-0.0226244
0.0197537
-0.0239247
0.0193926
-0.0248622
0.0187842
-0.0253872
0.0179161
-0.02545
0.0167784
-0.0250012
0.0153632
-0.0239909
0.0136653
-0.0223721
0.0116845
-0.0200894
0.00941181
-0.0171006
0.00686523
-0.0133059
0.00398988
-0.0087472
0.000926899
-0.00252922
-0.00332626
0.000103434
0.00414674
-6.99198e-05
0.00986238
-0.000682613
0.0137865
-0.00166516
0.0163278
-0.00286115
0.0179277
-0.00410599
0.018952
-0.00526918
0.0196276
-0.00625812
0.0200565
-0.00700502
0.0202651
-0.00745402
0.0202464
-0.00755409
0.0199828
-0.00725636
0.019456
-0.0065134
0.0186496
-0.0052792
0.01755
-0.00350928
0.0161462
-0.00116041
0.0144295
0.00180781
0.012395
0.00543504
0.0100381
0.00974585
0.0073737
0.0148115
0.00434612
0.0205885
0.00108829
0.0272584
-0.00268007
0.0345871
-0.00640176
-0.0110478
0.0431057
0.000450111
0.00369663
0.00106707
0.00924541
0.00151503
0.0133385
0.00170998
0.0161328
0.00173548
0.0179022
0.00174198
0.0189455
0.00187837
0.0194912
0.00226337
0.0196715
0.00298501
0.0195435
0.00411005
0.0191213
0.00569285
0.0184
0.00778063
0.0173682
0.0104157
0.0160145
0.0136368
0.014329
0.0174779
0.0123051
0.0219701
0.00993726
0.027134
0.00723112
0.0330189
0.00415316
0.0395717
0.000820902
0.0469478
-0.00302996
0.0549786
-0.00694255
0.0640311
-0.0117326
0.073631
-0.0160016
-0.0222011
0.0847843
0.00066359
0.00303304
0.00188016
0.00802884
0.00322436
0.0119944
0.00450431
0.0148529
0.00570814
0.0166984
0.00693329
0.0177204
0.00831578
0.0181087
0.00998461
0.0180026
0.0120439
0.0174842
0.0145723
0.0165929
0.0176286
0.0153437
0.0212573
0.0137395
0.0254916
0.0117802
0.0303567
0.00946382
0.0358702
0.00679159
0.0420574
0.00375014
0.0488654
0.000423074
0.0564194
-0.00340088
0.0646822
-0.00744181
0.0737774
-0.0121252
0.0835104
-0.0166756
0.0944733
-0.0226955
0.10594
-0.0274683
-0.0355439
0.119283
0.000728733
0.0023043
0.00226218
0.00649539
0.00420259
0.0100539
0.00631012
0.0127453
0.00849404
0.0145145
0.0107804
0.015434
0.0132604
0.0156288
0.0160438
0.0152192
0.0192311
0.0142968
0.0229022
0.0129219
0.0271142
0.0111317
0.0319055
0.00894821
0.0373003
0.00638539
0.0433195
0.00344463
0.0499087
0.000202371
0.0572102
-0.00355138
0.0652579
-0.00762458
0.074014
-0.0121571
0.0836079
-0.0170357
0.0941781
-0.0226953
0.105745
-0.0282421
0.118736
-0.0356872
0.132657
-0.0413892
-0.0514666
0.14858
0.000663463
0.00164084
0.00221275
0.00494611
0.00435948
0.00790721
0.0068884
0.0102164
0.00967458
0.0117283
0.0126847
0.0124239
0.0159522
0.0123613
0.0195436
0.0116277
0.0235322
0.0103082
0.027982
0.00847218
0.0329431
0.00617054
0.038456
0.00343532
0.0445108
0.000330607
0.0512516
-0.00329614
0.0587692
-0.00731528
0.0670416
-0.0118238
0.0762701
-0.016853
0.0865509
-0.0224379
0.0981377
-0.0286224
0.110966
-0.0355238
0.125442
-0.0427178
0.141099
-0.0513441
0.158296
-0.0585866
-0.0696344
0.176464
0.000502797
0.00113804
0.00180985
0.00363906
0.00377804
0.00593901
0.00626718
0.00772729
0.0091668
0.00882869
0.0124176
0.00917311
0.0160103
0.0087686
0.0199719
0.00766612
0.0243507
0.00592946
0.0292071
0.00361574
0.0346006
0.000777031
0.0406626
-0.00262665
0.0475533
-0.00656006
0.0553419
-0.0110848
0.0642437
-0.0162171
0.0744303
-0.0220104
0.0860396
-0.0284623
0.0991735
-0.0355719
0.113871
-0.0433204
0.129819
-0.0514712
0.147209
-0.060108
0.16473
-0.0688645
0.183389
-0.0772464
-0.0868127
0.200568
0.000285385
0.000852657
0.00118006
0.00274438
0.00268738
0.0044317
0.00476305
0.00565161
0.00734847
0.00624328
0.0104034
0.00611818
0.0139238
0.00524817
0.0179493
0.00364069
0.0225642
0.00131452
0.0279047
-0.00172472
0.0341622
-0.00548048
0.0415159
-0.00998034
0.0501905
-0.0152347
0.060356
-0.0212503
0.0721216
-0.0279827
0.0855134
-0.0354022
0.100367
-0.0433162
0.116502
-0.051707
0.133401
-0.0602187
0.150715
-0.0687858
0.167801
-0.0771934
0.183797
-0.0848604
0.198987
-0.0924366
-0.0985596
0.210734
5.63085e-05
0.000796349
0.000490691
0.00231
0.00144213
0.00348026
0.00296833
0.00412541
0.00509861
0.00411299
0.00787475
0.00334205
0.0113788
0.00174408
0.0157537
-0.000734171
0.0211981
-0.00412988
0.0279443
-0.00847091
0.03622
-0.0137562
0.0461861
-0.0199464
0.0579018
-0.0269504
0.0712806
-0.034629
0.0860856
-0.0427877
0.101921
-0.0512374
0.118282
-0.0596777
0.134595
-0.0680197
0.150159
-0.0757823
0.16461
-0.083237
0.177064
-0.0896473
0.187889
-0.0956854
0.196277
-0.100825
-0.104475
0.202192
-0.000124764
-4.34087e-05
0.00049803
0.00167801
0.00365422
0.00661271
0.0107742
0.0163971
0.0237276
0.032933
0.0440428
0.0569082
0.0711981
0.0864219
0.101987
0.117225
0.131542
0.144322
0.155253
0.164054
0.170722
0.175939
0.179482
0.184756
-0.0984424
-0.000644404
-0.000781667
-0.0956134
-0.00492321
0.00209419
-0.0917753
-0.00897449
0.00513639
-0.08685
-0.0135645
0.00863926
-0.0809142
-0.0182632
0.0123274
-0.0739345
-0.0233355
0.0163558
-0.0658699
-0.0286389
0.0205742
-0.0566498
-0.0341914
0.0249712
-0.0461721
-0.0399255
0.0294478
-0.0342556
-0.0456894
0.0337729
-0.0209941
-0.0508917
0.0376302
-0.0064151
-0.0554072
0.0408282
0.00918467
-0.0585671
0.0429673
0.0255839
-0.0600583
0.0436591
0.0423941
-0.0596905
0.0428802
0.0589383
-0.0574679
0.0409238
0.0746658
-0.0537725
0.038045
0.089185
-0.0491617
0.0346424
0.102277
-0.044239
0.0311466
0.113838
-0.0395092
0.0279486
0.123857
-0.0352601
0.0252409
0.132436
-0.0316415
0.0230629
0.139706
-0.0286979
0.0214278
0.145823
-0.0263641
0.0202467
0.150941
-0.0245243
0.0194065
0.155207
-0.0230595
0.018794
0.158752
-0.0218749
0.0183292
0.161698
-0.0208892
0.0179431
0.164153
-0.0200348
0.0175801
0.166211
-0.019261
0.0172027
0.167959
-0.0185547
0.0168072
0.169472
-0.0178746
0.0163608
0.17082
-0.0172252
0.0158779
0.172056
-0.0165378
0.015302
0.173228
-0.0159265
0.0147539
0.17437
-0.0152012
0.0140597
0.175492
-0.0145757
0.0134531
0.176565
-0.0134758
0.0124027
0.177545
-0.0125819
0.0116019
0.178369
-0.0108126
0.00998853
0.17902
-0.00989515
0.00924429
0.179479
-0.00758377
0.00712528
0.179783
-0.00706178
0.00675753
0.17994
-0.00417627
0.00401948
0.179992
-0.00404513
0.00399257
0.179944
-0.000489273
0.0005379
0.179816
-0.000473282
0.000601252
0.179632
0.00358682
-0.00340258
0.179383
0.00375199
-0.00350339
0.179087
0.00831638
-0.00802074
0.17875
0.00856209
-0.00822436
0.178368
0.0140706
-0.0136886
0.177955
0.0141132
-0.0137009
0.17751
0.0209207
-0.0204755
0.177031
0.0210089
-0.02053
0.176529
0.0289827
-0.02848
0.175998
0.0294864
-0.0289564
0.175441
0.0389752
-0.0384177
0.174861
0.0398329
-0.0392529
0.051242
-0.0506369
-0.0503217
-0.00261455
-0.0473574
-0.00788749
-0.0433618
-0.0129701
-0.0385506
-0.0183757
-0.0328394
-0.0239743
-0.0262628
-0.0299121
-0.0187413
-0.0361603
-0.0102195
-0.0427132
-0.000533949
-0.049611
0.0100666
-0.0562899
0.0219181
-0.0627432
0.0348322
-0.0683213
0.048613
-0.0723479
0.062865
-0.0743102
0.077091
-0.0739165
0.0907961
-0.071173
0.10352
-0.0664961
0.114971
-0.0606132
0.125061
-0.0543289
0.133827
-0.0482753
0.141303
-0.0427364
0.147603
-0.037941
0.152852
-0.0339471
0.157189
-0.0307011
0.160748
-0.0280832
0.163651
-0.0259622
0.166006
-0.0242304
0.167913
-0.0227955
0.169456
-0.0215783
0.170711
-0.020516
0.171746
-0.0195899
0.172626
-0.0187545
0.173406
-0.0180055
0.174129
-0.0172603
0.174831
-0.0166287
0.175543
-0.0159134
0.176286
-0.0153186
0.177042
-0.0142319
0.177777
-0.0133161
0.178426
-0.0114617
0.178963
-0.0104321
0.179355
-0.00797654
0.179629
-0.00733554
0.179779
-0.00432645
0.179843
-0.0041084
0.179813
-0.000459408
0.179711
-0.000371854
0.179553
0.00374473
0.179335
0.00397024
0.179066
0.00858525
0.178758
0.0088705
0.178401
0.0144276
0.178016
0.0144984
0.177592
0.0213442
0.177138
0.0214634
0.176653
0.0294677
0.176142
0.0299966
0.175598
0.0395201
0.175032
0.0403988
0.0518417
-0.000918258
-0.00502255
0.00154369
-0.0103494
0.0049048
-0.0163312
0.00888031
-0.0223512
0.0135886
-0.0286827
0.0190828
-0.0354063
0.0254306
-0.0425081
0.0326983
-0.0499809
0.0409001
-0.0578127
0.0502032
-0.0655931
0.0604584
-0.0729984
0.0715012
-0.0793641
0.0830237
-0.0838704
0.0945777
-0.0858643
0.105724
-0.0850626
0.116106
-0.0815549
0.12548
-0.0758706
0.133742
-0.0688752
0.140921
-0.0615079
0.147123
-0.0544774
0.152405
-0.0480177
0.156855
-0.0423909
0.160572
-0.0376641
0.163649
-0.0337784
0.166177
-0.0306116
0.16824
-0.0280249
0.169912
-0.025902
0.17126
-0.0241441
0.172344
-0.0226617
0.173209
-0.0213808
0.1739
-0.020281
0.174465
-0.0193199
0.174948
-0.0184886
0.175378
-0.0176903
0.175782
-0.0170322
0.176187
-0.0163189
0.176628
-0.0157593
0.177108
-0.014712
0.177612
-0.0138201
0.178088
-0.0119373
0.178507
-0.0108519
0.178832
-0.00830166
0.179077
-0.00758044
0.179228
-0.00447678
0.179312
-0.00419263
0.179316
-0.000463818
0.17926
-0.000315621
0.179148
0.0038571
0.178981
0.00413647
0.178762
0.00880433
0.178507
0.00912542
0.1782
0.0147346
0.177868
0.0148305
0.177493
0.0217193
0.177091
0.0218658
0.176652
0.0299065
0.176191
0.0304573
0.17569
0.0400217
0.175169
0.0409192
0.0524033
0.0443952
-0.0063121
0.0465464
-0.0125006
0.0490715
-0.0188563
0.0520777
-0.0253574
0.055697
-0.032302
0.06005
-0.0397594
0.0652151
-0.0476732
0.0712399
-0.0560057
0.0781027
-0.0646755
0.0858569
-0.0733472
0.0942784
-0.08142
0.103051
-0.0881365
0.111751
-0.0925705
0.119948
-0.0940617
0.127364
-0.092478
0.133879
-0.0880698
0.139527
-0.0815188
0.144426
-0.0737746
0.148712
-0.0657938
0.15253
-0.058295
0.155976
-0.0514635
0.159047
-0.0454622
0.16177
-0.0403877
0.164162
-0.0361696
0.166239
-0.0326885
0.168025
-0.0298119
0.169551
-0.0274272
0.170845
-0.0254388
0.171938
-0.023754
0.172847
-0.0222898
0.173593
-0.0210273
0.174206
-0.0199332
0.174718
-0.0190002
0.175146
-0.0181181
0.175506
-0.0173923
0.175823
-0.0166364
0.176141
-0.0160768
0.176483
-0.0150541
0.176858
-0.0141948
0.17723
-0.0123096
0.17758
-0.011202
0.17787
-0.00859116
0.178109
-0.00781959
0.178278
-0.00464555
0.1784
-0.00431484
0.178456
-0.000519729
0.178463
-0.000322908
0.178416
0.00390379
0.178323
0.00422938
0.178177
0.00895082
0.177999
0.00930313
0.177767
0.0149667
0.177514
0.0150837
0.177214
0.0220191
0.176891
0.0221885
0.176528
0.0302702
0.176146
0.0308393
0.175718
0.0404495
0.175274
0.0413626
0.0528942
0.0857224
-0.00725024
0.087208
-0.0139862
0.0890102
-0.0206586
0.0911603
-0.0275074
0.0938141
-0.0349558
0.0970718
-0.0430171
0.100965
-0.0515666
0.105537
-0.0605771
0.110783
-0.0699215
0.116559
-0.0791235
0.122554
-0.0874155
0.128367
-0.0939493
0.133564
-0.0977669
0.137829
-0.0983272
0.141147
-0.0957957
0.14372
-0.0906435
0.145849
-0.0836473
0.147833
-0.0757587
0.149841
-0.0678016
0.151932
-0.0603861
0.154189
-0.0537203
0.156502
-0.0477751
0.15878
-0.0426666
0.16096
-0.038349
0.162989
-0.0347175
0.164839
-0.031662
0.1665
-0.0290884
0.167977
-0.0269158
0.16928
-0.0250571
0.170415
-0.0234243
0.171387
-0.0219998
0.172215
-0.0207606
0.172919
-0.0197043
0.173509
-0.0187082
0.173992
-0.0178753
0.174385
-0.0170297
0.174734
-0.0164252
0.175074
-0.0153947
0.175433
-0.0145536
0.175791
-0.0126678
0.176139
-0.0115498
0.176442
-0.00889405
0.176711
-0.00808863
0.176925
-0.00485932
0.177107
-0.00449649
0.177234
-0.00064687
0.177324
-0.000413046
0.177363
0.00386481
0.177364
0.00422808
0.177313
0.00900219
0.177235
0.00938034
0.177103
0.0150991
0.176954
0.0152327
0.176756
0.0222171
0.17654
0.0224045
0.17628
0.0305305
0.176006
0.0311134
0.175682
0.040773
0.175347
0.0416979
0.0532817
0.120353
-0.00832014
0.121682
-0.0153156
0.123155
-0.0221311
0.12482
-0.0291724
0.126869
-0.0370051
0.129361
-0.0455098
0.132256
-0.0544612
0.135445
-0.0637663
0.138694
-0.0731706
0.14175
-0.0821795
0.144438
-0.0901027
0.146481
-0.0959926
0.147588
-0.0988734
0.147701
-0.0984407
0.147125
-0.0952201
0.146361
-0.0898793
0.145863
-0.0831495
0.145947
-0.0758419
0.146698
-0.0685531
0.148013
-0.0617009
0.149792
-0.0554996
0.151922
-0.0499051
0.15418
-0.0449243
0.156435
-0.0406046
0.158602
-0.036884
0.160625
-0.0336856
0.162479
-0.0309418
0.164156
-0.0285931
0.165664
-0.0265645
0.167006
-0.0247669
0.168189
-0.0231823
0.169223
-0.0217946
0.170125
-0.0206064
0.1709
-0.0194836
0.171549
-0.0185242
0.172081
-0.0175612
0.172535
-0.0168798
0.172953
-0.0158127
0.173372
-0.0149722
0.173783
-0.0130792
0.174186
-0.0119523
0.174548
-0.00925653
0.174884
-0.00842409
0.175171
-0.00514685
0.175436
-0.00476106
0.175655
-0.000865835
0.175848
-0.000605963
0.175992
0.0037202
0.176108
0.00411201
0.176174
0.00893637
0.17622
0.00933438
0.176212
0.0151077
0.176191
0.0152529
0.176121
0.0222872
0.176039
0.0224871
0.17591
0.0306592
0.175772
0.0312512
0.175583
0.0409622
0.175387
0.0418943
0.0535334
0.149922
-0.00966267
0.15132
-0.016713
0.152623
-0.0234343
0.153876
-0.0304247
0.155256
-0.0383853
0.156732
-0.0469861
0.158196
-0.055925
0.15947
-0.0650405
0.160272
-0.0739727
0.160255
-0.0821625
0.159121
-0.0889686
0.156837
-0.0937082
0.153788
-0.0958251
0.150273
-0.0949257
0.146821
-0.0917677
0.144014
-0.0870723
0.142232
-0.0813676
0.141597
-0.0752075
0.14202
-0.0689759
0.143245
-0.0629257
0.145003
-0.0572574
0.147151
-0.052053
0.149501
-0.0472745
0.151864
-0.0429675
0.154145
-0.0391654
0.156292
-0.0358323
0.158275
-0.0329245
0.160083
-0.0304013
0.161722
-0.0282035
0.1632
-0.0262449
0.164524
-0.0245064
0.165704
-0.0229742
0.166753
-0.0216558
0.167676
-0.020407
0.168472
-0.01932
0.169142
-0.0182314
0.16972
-0.0174575
0.170244
-0.0163362
0.170756
-0.0154843
0.171256
-0.0135794
0.171749
-0.0124451
0.172204
-0.00971205
0.172636
-0.00885626
0.173024
-0.0055346
0.173395
-0.0051316
0.173726
-0.00119732
0.174042
-0.000921414
0.174312
0.00345001
0.174563
0.00386103
0.174767
0.00873179
0.174958
0.00914324
0.175097
0.0149688
0.17523
0.0151201
0.175314
0.0222036
0.17539
0.0224103
0.175421
0.0306285
0.175447
0.0312248
0.175422
0.0409873
0.175395
0.041922
0.0536174
0.177423
-0.0106213
0.178274
-0.0175643
0.17874
-0.0239004
0.178894
-0.030579
0.178838
-0.0383294
0.178433
-0.0465812
0.177531
-0.0550226
0.175932
-0.0634414
0.173425
-0.0714659
0.169815
-0.0785525
0.165061
-0.0842145
0.159288
-0.0879351
0.153123
-0.0896605
0.147397
-0.0891995
0.142675
-0.0870451
0.139312
-0.0837094
0.1374
-0.0794562
0.136819
-0.0746264
0.137328
-0.0694842
0.138632
-0.0642296
0.140443
-0.0590693
0.14256
-0.0541698
0.144898
-0.0496125
0.147286
-0.0453552
0.149603
-0.0414825
0.1518
-0.0380296
0.153851
-0.0349752
0.155741
-0.0322908
0.15747
-0.0299326
0.159046
-0.0278208
0.160475
-0.0259359
0.161766
-0.0242646
0.162929
-0.0228197
0.163972
-0.0214499
0.164895
-0.0202421
0.165693
-0.0190301
0.166395
-0.0181589
0.167032
-0.0169732
0.16765
-0.0161032
0.168256
-0.0141849
0.168859
-0.0130482
0.16943
-0.0102828
0.169982
-0.00940861
0.170493
-0.00604564
0.170991
-0.00562974
0.171456
-0.00166222
0.171913
-0.0013785
0.172329
0.00303417
0.172735
0.00345542
0.173099
0.00836747
0.173457
0.00878567
0.173766
0.0146596
0.174075
0.0148113
0.174337
0.0219414
0.174598
0.0221493
0.174815
0.0304116
0.175033
0.0310072
0.175201
0.0408191
0.175371
0.0417515
0.0535022
0.200365
-0.0104191
0.199701
-0.0169001
0.198335
-0.0225343
0.196471
-0.0287146
0.194081
-0.0359394
0.190999
-0.0434996
0.18713
-0.0511534
0.182373
-0.0586845
0.176656
-0.0657491
0.170043
-0.0719395
0.162746
-0.0769169
0.155262
-0.0804517
0.148046
-0.0824442
0.141904
-0.0830574
0.137281
-0.0824226
0.134239
-0.0806673
0.132616
-0.077833
0.132187
-0.0741978
0.132708
-0.0700049
0.133946
-0.0654675
0.135673
-0.0607962
0.137706
-0.0562028
0.139934
-0.0518401
0.142282
-0.0477034
0.144603
-0.0438041
0.14683
-0.0402559
0.14893
-0.0370752
0.150887
-0.0342487
0.152701
-0.0317461
0.154374
-0.0294939
0.155911
-0.0274728
0.157314
-0.025668
0.158594
-0.0240999
0.159759
-0.022614
0.16081
-0.0212933
0.161743
-0.0199631
0.162578
-0.0189939
0.163341
-0.0177363
0.164081
-0.0168431
0.164807
-0.0149107
0.165536
-0.013778
0.16624
-0.0109869
0.166933
-0.0101013
0.167589
-0.00670107
0.168236
-0.00627674
0.168854
-0.00228087
0.169472
-0.00199662
0.170054
0.00245233
0.170634
0.00287559
0.171179
0.00782289
0.171723
0.00824117
0.172225
0.0141579
0.172732
0.0143043
0.173197
0.0214763
0.173666
0.0216798
0.174096
0.0299821
0.174531
0.0305722
0.174921
0.0404294
0.175317
0.0413548
0.0531571
0.209637
-0.00932278
0.207451
-0.0147137
0.204331
-0.0194143
0.20063
-0.0250139
0.1962
-0.0315087
0.190974
-0.0382736
0.184976
-0.0451562
0.178249
-0.051957
0.170897
-0.0583968
0.163181
-0.0642236
0.155432
-0.0691683
0.14813
-0.0731494
0.141558
-0.0758724
0.136063
-0.0775621
0.131982
-0.078342
0.129279
-0.0779642
0.127771
-0.0763249
0.127282
-0.0737093
0.127647
-0.0703701
0.128698
-0.0665183
0.130271
-0.062369
0.132191
-0.058123
0.134316
-0.0539653
0.136576
-0.0499634
0.138889
-0.0461169
0.141162
-0.042529
0.143336
-0.039249
0.145379
-0.0362916
0.147288
-0.0336551
0.149068
-0.0312742
0.150723
-0.0291281
0.152253
-0.0271978
0.153666
-0.0255123
0.154968
-0.0239164
0.156167
-0.0224921
0.157254
-0.0210503
0.158245
-0.0199843
0.159157
-0.0186487
0.160041
-0.0177277
0.160909
-0.0157784
0.161786
-0.0146551
0.162643
-0.0118439
0.163497
-0.0109549
0.164318
-0.00752215
0.165135
-0.00709395
0.165929
-0.00307507
0.166728
-0.00279512
0.167497
0.00168349
0.16827
0.00210199
0.169015
0.00707773
0.169767
0.00748972
0.170483
0.0134423
0.171209
0.0135778
0.1719
0.0207852
0.172601
0.0209791
0.173268
0.0293148
0.173946
0.029895
0.174584
0.0397906
0.175234
0.0407047
0.052552
0.201177
-0.00830732
0.198657
-0.0121944
0.195227
-0.0159835
0.191109
-0.0208963
0.186182
-0.0265819
0.180537
-0.032628
0.174284
-0.0389033
0.16755
-0.0452237
0.160525
-0.051372
0.15346
-0.057158
0.146624
-0.0623319
0.140251
-0.0667766
0.134589
-0.0702102
0.129901
-0.0728739
0.126259
-0.0747002
0.123658
-0.0753636
0.122062
-0.0747286
0.121408
-0.0730551
0.121592
-0.0705545
0.122476
-0.0674022
0.12391
-0.0638032
0.125735
-0.0599475
0.127802
-0.056033
0.130006
-0.052167
0.132294
-0.0484046
0.134613
-0.0448482
0.1369
-0.0415364
0.139081
-0.038472
0.141134
-0.0357081
0.143061
-0.0332008
0.144866
-0.0309331
0.146548
-0.0288804
0.148117
-0.0270811
0.149581
-0.0253803
0.15095
-0.0238611
0.152214
-0.0223141
0.153384
-0.0211547
0.154472
-0.0197365
0.155528
-0.0187842
0.156564
-0.0168139
0.157613
-0.0157041
0.158645
-0.0128758
0.159681
-0.0119912
0.160689
-0.00852993
0.161698
-0.00810287
0.162688
-0.00406582
0.163688
-0.0037943
0.164665
0.000705763
0.165653
0.0011145
0.166619
0.00611158
0.167597
0.00651142
0.168548
0.0124919
0.169514
0.0126112
0.170454
0.0198454
0.171408
0.0200252
0.172337
0.0283853
0.17328
0.0289518
0.174195
0.0388763
0.175124
0.0397757
0.0516578
0.183987
-0.0075388
0.182047
-0.0102547
0.179562
-0.0134979
0.176331
-0.0176654
0.172303
-0.0225544
0.167635
-0.0279602
0.162431
-0.0336988
0.156812
-0.0396048
0.150943
-0.045503
0.145027
-0.0512418
0.139292
-0.0565971
0.133925
-0.0614094
0.129144
-0.0654292
0.12491
-0.0686405
0.12121
-0.0710002
0.118118
-0.0722717
0.116035
-0.0726456
0.115002
-0.0720217
0.114874
-0.0704267
0.115513
-0.0680408
0.116767
-0.0650573
0.11848
-0.061661
0.120498
-0.0580502
0.122714
-0.0543834
0.125065
-0.050756
0.127456
-0.0472385
0.129808
-0.0438891
0.13209
-0.0407533
0.134273
-0.0378915
0.136351
-0.035279
0.138322
-0.0329038
0.140179
-0.0307372
0.141927
-0.0288297
0.143576
-0.0270292
0.145138
-0.0254232
0.146602
-0.0237781
0.147978
-0.0225307
0.14927
-0.0210279
0.150528
-0.0200428
0.151761
-0.0180471
0.15301
-0.0169526
0.154243
-0.0141086
0.155485
-0.0132336
0.156704
-0.00974844
0.157927
-0.00932655
0.159139
-0.00527729
0.160359
-0.00501459
0.161567
-0.00050166
0.162787
-0.000106232
0.163996
0.00490321
0.165221
0.00528609
0.166427
0.0112856
0.167654
0.0113846
0.168864
0.018635
0.170093
0.0187971
0.171308
0.0271701
0.17254
0.02772
0.173755
0.0376612
0.174987
0.0385439
0.0504463
0.207999
-0.00667894
-0.208859
0.207984
-0.0102399
0.208019
-0.0135328
0.207706
-0.0173526
0.206911
-0.0217592
0.205614
-0.0266633
0.203817
-0.0319023
0.20152
-0.0373075
0.198736
-0.0427186
0.195494
-0.0480005
0.191872
-0.0529748
0.187955
-0.0574924
0.183906
-0.0613797
0.179779
-0.0645137
0.175655
-0.0668763
0.171693
-0.0683101
0.167914
-0.0688659
0.164457
-0.068565
0.16142
-0.0673895
0.158841
-0.0654624
0.156743
-0.0629585
0.15512
-0.060038
0.153933
-0.0568638
0.153127
-0.0535773
0.152638
-0.0502663
0.15241
-0.0470106
0.152397
-0.0438769
0.152551
-0.0409066
0.152817
-0.0381581
0.153159
-0.0356204
0.153545
-0.0332898
0.15395
-0.0311421
0.154351
-0.0292315
0.154737
-0.0274149
0.155098
-0.0257846
0.15543
-0.0241093
0.155717
-0.0228179
0.155956
-0.0212669
0.156146
-0.0202327
0.156309
-0.0182099
0.156456
-0.0170996
0.156607
-0.0142598
0.15676
-0.0133864
0.156917
-0.00990606
0.157076
-0.00948496
0.157233
-0.00543428
0.15739
-0.00517194
0.157543
-0.000654293
0.157704
-0.000267521
0.157844
0.00476298
0.157994
0.00513636
0.158133
0.0111463
0.15828
0.0112376
0.158415
0.0185003
0.158562
0.0186497
0.158701
0.0270315
0.158853
0.0275677
0.159002
0.0375124
0.15917
0.0383758
0.0502761
0.21756
-0.00618695
-0.218052
0.217086
-0.00976593
0.216871
-0.0133176
0.216481
-0.0169626
0.215691
-0.0209691
0.214429
-0.0254016
0.212676
-0.0301489
0.210436
-0.0350675
0.207729
-0.0400123
0.204581
-0.0448521
0.201055
-0.0494486
0.197226
-0.0536638
0.193212
-0.0573653
0.189118
-0.0604203
0.185025
-0.0627834
0.18109
-0.0643747
0.177386
-0.0651617
0.173994
-0.0651738
0.171016
-0.0644114
0.168495
-0.0629408
0.166437
-0.0609008
0.164832
-0.058433
0.163637
-0.0556692
0.162795
-0.0527347
0.162255
-0.0497267
0.161972
-0.0467274
0.161896
-0.0438007
0.161981
-0.0409914
0.162181
-0.0383582
0.16246
-0.0359002
0.162793
-0.0336219
0.163153
-0.0315022
0.163519
-0.0295975
0.163877
-0.0277732
0.164219
-0.0261269
0.164539
-0.0244292
0.164822
-0.0231011
0.165062
-0.0215064
0.165255
-0.0204255
0.165419