/*--------------------------------*- C++ -*----------------------------------*\
| =========                 |                                                 |
| \\      /  F ield         | OpenFOAM: The Open Source CFD Toolbox           |
|  \\    /   O peration     | Version:  2312                                  |
|   \\  /    A nd           | Website:  www.openfoam.com                      |
|    \\/     M anipulation  |                                                 |
\*---------------------------------------------------------------------------*/
FoamFile
{
    version     2.0;
    format      ascii;
    arch        "LSB;label=32;scalar=64";
    class       volScalarField;
    location    "61";
    object      p;
}
// * * * * * * * * * * * * * * * * * * * * * * * * * * * * * * * * * * * * * //

dimensions      [0 2 -2 0 0 0 0];

internalField   nonuniform List<scalar> 
940
(
-0.354005
-0.312455
-0.29712
-0.295917
-0.282904
-0.263991
-0.363106
-0.334825
-0.287685
-0.253518
-0.227167
-0.195398
-0.356596
-0.306027
-0.256434
-0.204224
-0.174556
-0.139161
-0.305522
-0.317659
-0.346153
-0.352867
-0.39712
-0.363289
-0.349405
-0.333055
-0.381711
-0.370635
-0.452561
-0.448815
-0.328731
-0.298546
-0.327224
-0.338586
-0.356604
-0.374605
-0.339031
-0.304143
-0.267375
-0.252866
-0.228257
-0.208492
-0.27152
-0.0358176
-0.115339
-0.0310453
-0.131822
-0.102109
-0.0668017
-0.00267589
-0.0041779
0.00434151
-0.373694
-0.360425
-0.289663
-0.289937
-0.249148
-0.121181
-0.270725
-0.0803935
-0.113884
0.00564848
-0.120568
-0.126411
-0.0643483
0.0034182
0.00023994
0.00408426
-0.339363
-0.326624
-0.264384
-0.222182
-0.143488
0.00151096
-0.0779004
-0.134837
-0.109128
0.0266743
-0.0799438
-0.120328
-0.0601449
0.00743131
0.00909154
0.00298145
-0.260267
-0.26463
-0.211236
-0.149721
-0.0804709
0.112334
0.140593
-0.160472
-0.086739
0.0516887
-0.0514772
-0.13093
-0.0544853
0.0140651
0.0151546
0.00132172
-0.169323
-0.177668
-0.141677
-0.0921821
-0.0302992
0.132136
0.0549949
-0.142675
-0.0630811
0.0255414
-0.0534112
-0.114899
-0.0456702
0.0162479
0.0151319
0.000179992
-0.122486
-0.13142
-0.109973
-0.0650075
-0.0268915
0.0661277
0.0704419
-0.0846534
-0.0314163
0.0359702
-0.0399848
-0.0939484
-0.0379912
0.0120362
0.0131567
-9.41679e-05
-0.0657088
-0.0689064
-0.0564092
-0.0295502
0.0048674
0.0443528
0.065618
-0.0360487
-0.00473462
0.0131275
-0.0319
-0.0660147
-0.0250271
0.0110615
0.0130103
0.000917421
-0.0342225
-0.0417938
-0.040598
-0.0251379
-0.00728915
0.0153876
0.0333813
-0.0148102
-0.0117052
0.00437807
-0.0218423
-0.0453931
-0.0217825
0.00418218
0.00909405
0.000659756
-0.000395867
-0.00495803
-0.0050421
0.00109489
0.00963651
0.0175175
0.0242795
0.00762924
0.00294201
0.00534534
-0.0114049
-0.0248799
-0.0105705
0.00541021
0.00967102
0.00211071
0.0116654
0.00589244
0.002519
0.0020836
0.00391668
0.00563865
0.00785813
0.00261976
-0.0034111
-0.0014646
-0.00779137
-0.0163163
-0.0109583
-0.000852101
0.00399253
0.000813766
0.0326724
0.0285446
0.02496
0.0223685
0.0209895
0.0197169
0.0184188
0.0153025
0.0105409
0.00787678
0.00253643
-0.00300174
-0.00137319
0.00349424
0.00633923
0.00236052
0.0350337
0.0309153
0.0268225
0.0230776
0.0197694
0.0167333
0.0136851
0.0105834
0.00671569
0.00387027
0.00127302
-0.00221341
-0.00253483
-0.00118797
0.00139027
0.000959907
0.0467454
0.0432077
0.0392209
0.0350508
0.0309538
0.027039
0.023168
0.0194042
0.0152074
0.0116342
0.00804835
0.00469407
0.00321903
0.00241263
0.00341195
0.00199508
-0.112663
-0.153912
-0.214998
-0.0863617
-0.103462
-0.138955
-0.0557871
-0.063538
-0.087715
-0.0301317
-0.0360573
-0.0500704
-0.00771193
-0.0123864
-0.0200364
0.0119994
0.00937682
0.00626493
0.0248612
0.0227266
0.0185335
0.0397574
0.038166
0.0360519
0.0452967
0.0422211
0.0388777
0.0563247
0.0529523
0.0498684
0.0473469
0.0408666
0.0310404
-0.00569385
-0.0297346
-0.224301
-0.0097635
-0.0358482
-0.0570858
-0.128759
-0.166665
-0.394055
-0.0821607
-0.11424
-0.142493
-0.209333
-0.260208
-0.40512
0.207267
0.244544
0.291694
0.348669
0.399831
0.428309
0.177936
0.200135
0.229199
0.263553
0.297684
0.289705
0.116699
0.128802
0.138781
0.139343
0.134685
0.0215912
0.0666045
0.0502726
0.0740479
0.0610177
0.0845589
0.0857337
0.107845
0.12453
0.149923
0.176842
0.0732963
0.0552545
0.0791515
0.0645468
0.0864829
0.0872191
0.104556
0.120571
0.142335
0.159769
0.079443
0.0609461
0.0829716
0.0686526
0.089719
0.0894285
0.106616
0.114082
0.127347
0.120451
0.0847474
0.0660614
0.08592
0.0714239
0.0883273
0.0888802
0.0954374
0.099208
0.0929525
0.0792526
0.0901033
0.0712622
0.0882858
0.0740269
0.0856309
0.0869509
0.0837111
0.0853367
0.0717525
0.0587652
0.0968219
0.0775424
0.0910926
0.0772182
0.0828133
0.0829317
0.0748338
0.0725229
0.0601011
0.0444412
0.105021
0.0859468
0.0937686
0.0825901
0.0804985
0.0794255
0.0685522
0.0619001
0.0517576
0.0369521
0.115124
0.0975887
0.0956507
0.0884139
0.0794736
0.0765021
0.0652181
0.054801
0.046019
0.0345714
0.128739
0.113439
0.102255
0.0952265
0.0836885
0.0769042
0.0669673
0.0559837
0.0481287
0.0401502
0.14647
0.129355
0.108254
0.0998365
0.0872401
0.0774448
0.0680556
0.058413
0.0508041
0.0445559
0.183375
0.156008
0.128608
0.113955
0.100704
0.0891617
0.0792919
0.0704171
0.0632054
0.0576436
0.209901
0.170085
0.137637
0.119243
0.104974
0.0934726
0.0837494
0.0755937
0.0688253
0.0633692
0.359162
0.216367
0.173591
0.148103
0.128041
0.112159
0.0996329
0.0899603
0.0823982
0.076462
0.0466507
-0.00808972
-0.0664714
0.0337291
-0.0133466
-0.0565295
0.0255173
-0.00635175
-0.0347818
0.0204297
-0.00182689
-0.0173815
0.0206772
0.00582582
-0.00136238
0.0300657
0.0196686
0.0149524
0.0373655
0.030353
0.0267072
0.0519128
0.0460936
0.0421469
0.0581604
0.0529579
0.0487082
0.0708709
0.0652114
0.060363
-0.400125
-0.381146
-0.386632
-0.368167
-0.357008
-0.310061
-0.325717
-0.301461
-0.257612
-0.280323
-0.245494
-0.194301
-0.230892
-0.198675
-0.155189
-0.180914
-0.158801
-0.120024
-0.298667
-0.337367
-0.358114
-0.308243
-0.333511
-0.338106
-0.322927
-0.356793
-0.34638
-0.304852
-0.301361
-0.303292
-0.288485
-0.268133
-0.253281
-0.238772
-0.199449
-0.207379
-0.204629
-0.148815
-0.172076
-0.180551
-0.118871
-0.134193
-0.192674
-0.158742
-0.121833
-0.150109
-0.170222
-0.151136
-0.134909
-0.108154
-0.117952
-0.25259
-0.242635
-0.171379
-0.176328
-0.129362
-0.101771
-0.0172654
0.00425226
0.014754
-0.125913
-0.0792854
-0.0401033
-0.0713842
-0.0823144
-0.0846675
-0.102339
-0.0718186
-0.0664672
-0.0545208
-0.026389
-0.0251494
-0.0390712
-0.019514
-0.017974
-0.00484225
-0.0139141
-0.0162767
-0.00575183
-0.00792982
-0.00761933
0.00362648
0.00291041
0.00202322
-0.177729
-0.120182
-0.0946006
-0.0659175
-0.0457023
-0.0351236
-0.0270176
-0.0282687
-0.0252411
-0.0294748
-0.147856
-0.11614
-0.101372
-0.0702057
-0.0505759
-0.0374205
-0.0276635
-0.0278182
-0.0246964
-0.0282115
-0.120876
-0.0988479
-0.090338
-0.0654664
-0.0511345
-0.0375732
-0.0282216
-0.0271716
-0.0241374
-0.0268496
-0.129031
-0.0934737
-0.0778403
-0.0570608
-0.0463695
-0.0348522
-0.0278884
-0.0261423
-0.0234463
-0.0254478
-0.0944009
-0.0667937
-0.0602194
-0.0414918
-0.0379121
-0.0290151
-0.0263884
-0.0244989
-0.0224941
-0.0239977
-0.100013
-0.0617284
-0.0407145
-0.0255908
-0.0268982
-0.0212586
-0.0232132
-0.0220815
-0.0211765
-0.022448
-0.0186291
-0.00673491
-0.00285162
0.00170945
-0.0149067
-0.013197
-0.0198751
-0.0193926
-0.0194586
-0.0207212
0.058968
0.0592442
0.0392751
0.024261
0.000630121
-0.00446872
-0.0158484
-0.016521
-0.0175778
-0.0188446
0.00612465
0.0189061
0.0198247
0.0153329
0.00219647
-0.003518
-0.0128552
-0.0142182
-0.0156217
-0.0168168
-0.0875642
-0.0789135
-0.0592081
-0.0334634
-0.0240243
-0.0127636
-0.0155796
-0.0136998
-0.0138218
-0.0147226
-0.0607204
-0.0523725
-0.0417645
-0.0298195
-0.0246464
-0.016205
-0.0163619
-0.0133091
-0.0129413
-0.0130703
-0.0213475
-0.0230574
-0.0196881
-0.0196326
-0.0169508
-0.0148381
-0.0139052
-0.0122414
-0.0125659
-0.0117162
-0.0154922
-0.017421
-0.0143554
-0.0157119
-0.012983
-0.0129672
-0.0115445
-0.0107097
-0.0123318
-0.0107712
-0.0160233
-0.0145538
-0.0123452
-0.0114469
-0.00937608
-0.00926184
-0.00848665
-0.00819053
-0.0111455
-0.00989162
-0.00661666
-0.00563594
-0.00509744
-0.00542871
-0.00452843
-0.00572723
-0.00563652
-0.00630532
-0.00868482
-0.00850304
0.000928713
0.000244278
-0.000558727
-0.00154102
-0.00145918
-0.00274465
-0.00272324
-0.00347809
-0.00376921
-0.00372899
-0.0983237
-0.0791302
-0.0581891
-0.0458556
-0.0357193
-0.0296832
-0.0254371
-0.0278391
-0.0266416
-0.0325726
-0.126007
-0.0920315
-0.0661507
-0.0505858
-0.0382646
-0.0313057
-0.0266396
-0.0284638
-0.0263559
-0.0316781
-0.140763
-0.104047
-0.0754346
-0.0561233
-0.040782
-0.0326468
-0.0268319
-0.0285415
-0.0258348
-0.0306588
0.0591042
-0.00617615
-0.0665503
0.0623989
-0.0212376
-0.0970788
0.0621042
-0.0377115
-0.126215
0.0418866
-0.096444
-0.200542
0.0245127
-0.1268
-0.248796
-0.141923
-0.353659
-0.422297
0.211242
0.1866
0.127995
0.250913
0.216737
0.146889
0.299601
0.25593
0.169436
0.359695
0.29989
0.184983
0.425448
0.344913
0.192317
0.482546
0.366101
0.125741
0.0598609
0.0527449
0.0454304
0.0454982
0.042078
0.0383981
0.0682182
0.0609377
0.0550347
0.0572247
0.0548451
0.0520106
0.0797392
0.0719029
0.0691778
0.0829246
0.0781927
0.0768229
0.105573
0.0962713
0.0973645
0.123696
0.111792
0.105801
0.151139
0.1399
0.127718
0.17816
0.163614
0.120179
0.0383487
0.0310979
0.0222955
0.0112543
-0.00234064
-0.0194041
-0.03995
-0.0771504
-0.0975476
-0.233987
0.0347932
0.0310865
0.0260182
0.0199151
0.0110043
-0.0018706
-0.0153041
-0.043592
-0.0539951
-0.0988152
0.0477912
0.0398133
0.0314972
0.0221715
0.0111426
-0.00363726
-0.0147193
-0.0393249
-0.0470659
-0.0861299
0.0486642
0.0454074
0.0394116
0.0309285
0.0201931
0.00417998
-0.00839068
-0.0328276
-0.0407557
-0.0688754
0.0611733
0.0525019
0.043386
0.0321705
0.0206891
0.00442965
-0.00644019
-0.0286128
-0.0362292
-0.056291
0.0715678
0.0615399
0.0497039
0.0342171
0.0209991
0.00365973
-0.006732
-0.0259292
-0.0327753
-0.0483931
0.0794624
0.0645843
0.0504508
0.0331182
0.0185171
0.00143323
-0.00815481
-0.0244934
-0.030453
-0.0437154
0.0859272
0.0679845
0.0480039
0.0290181
0.0152715
-0.000905094
-0.00970939
-0.0237875
-0.0289257
-0.0407731
0.0857541
0.0620836
0.0402808
0.0212559
0.00894097
-0.00438324
-0.0115004
-0.0236214
-0.0281149
-0.0387977
0.0753862
0.0517848
0.030488
0.0138146
0.00273609
-0.00788524
-0.0134897
-0.0237856
-0.0277768
-0.0373375
0.0536014
0.0319104
0.0171437
0.00449532
-0.0036864
-0.0115285
-0.0156733
-0.0240496
-0.0275209
-0.035945
-0.00713109
-0.0183026
-0.0126738
-0.0143413
-0.0142197
-0.0172824
-0.0187321
-0.0249905
-0.0271126
-0.0345737
-0.0566512
-0.0526835
-0.0401526
-0.0341577
-0.0270722
-0.0245591
-0.0225029
-0.0265879
-0.0268402
-0.0334971
)
;

boundaryField
{
    outlet
    {
        type            fixedValue;
        value           uniform 0;
    }
    upperWall
    {
        type            symmetryPlane;
    }
    lowerWall
    {
        type            symmetryPlane;
    }
    inlet
    {
        type            zeroGradient;
    }
    cylinder
    {
        type            zeroGradient;
    }
    frontAndBack
    {
        type            empty;
    }
}


// ************************************************************************* //
