/*--------------------------------*- C++ -*----------------------------------*\
| =========                 |                                                 |
| \\      /  F ield         | OpenFOAM: The Open Source CFD Toolbox           |
|  \\    /   O peration     | Version:  2312                                  |
|   \\  /    A nd           | Website:  www.openfoam.com                      |
|    \\/     M anipulation  |                                                 |
\*---------------------------------------------------------------------------*/
FoamFile
{
    version     2.0;
    format      ascii;
    arch        "LSB;label=32;scalar=64";
    class       surfaceScalarField;
    location    "48.5";
    object      phi;
}
// * * * * * * * * * * * * * * * * * * * * * * * * * * * * * * * * * * * * * //

dimensions      [0 3 -1 0 0 0 0];

oriented        oriented;

internalField   nonuniform List<scalar> 
26232
(
-0.000302992
0.00145115
-0.00114816
-0.000646137
0.00326386
-0.00292071
-0.000650134
0.00415535
-0.00415135
-9.19249e-08
0.00410417
-0.00475421
0.00160883
0.00301317
-0.00462209
0.00452437
0.000709087
-0.00362463
0.00911972
-0.00297734
-0.001618
0.015761
-0.00817971
0.00153845
0.0247203
-0.0149134
0.00595407
0.0360672
-0.0230353
0.0116884
0.0496051
-0.0322365
0.0186986
0.0648583
-0.0420842
0.026831
0.0811198
-0.0520885
0.035827
0.0975402
-0.0617725
0.045352
0.113243
-0.0707295
0.0550265
0.127433
-0.07867
0.0644804
0.139534
-0.0854454
0.0733444
0.149217
-0.0910757
0.0813926
0.156604
-0.0956957
0.0883086
0.161918
-0.0996672
0.0943532
0.166012
-0.103062
0.0989674
0.169081
-0.106781
0.103713
0.171423
-0.109308
0.106965
-0.113668
0.112273
0.172819
-0.000256782
0.00170793
-0.000447473
0.00345455
-0.000122942
0.00383082
0.001126
0.00285522
0.00374055
0.000398632
0.00816208
-0.00371245
0.0148004
-0.00961571
0.0239044
-0.0172837
0.0354447
-0.0264537
0.0490466
-0.0366373
0.0640201
-0.04721
0.0794688
-0.0575329
0.0944417
-0.0670613
0.108089
-0.0754195
0.119795
-0.0824359
0.129272
-0.0881473
0.136588
-0.0927609
0.142116
-0.0966035
0.146428
-0.100008
0.150042
-0.103282
0.153495
-0.106514
0.156616
-0.109903
0.160227
-0.112919
-0.116887
0.163446
-0.000145168
0.0018531
-1.07568e-05
0.00332014
0.000898447
0.00292161
0.00310625
0.000647419
0.00713493
-0.00363004
0.0134546
-0.0100321
0.0223302
-0.0184913
0.0336647
-0.0286182
0.0469309
-0.0397198
0.0612493
-0.0509558
0.0755762
-0.0615369
0.0889233
-0.0708799
0.100547
-0.0786853
0.11007
-0.0849421
0.11751
-0.0898757
0.123215
-0.0938527
0.127721
-0.0972664
0.131564
-0.100447
0.13513
-0.103573
0.138612
-0.106763
0.14199
-0.109892
0.145261
-0.113174
0.148415
-0.116072
-0.119601
0.151129
1.33369e-06
0.00185177
0.000562897
0.00275857
0.00226457
0.00121994
0.00569583
-0.00278384
0.0114073
-0.00934151
0.0197303
-0.0183551
0.0305566
-0.0293176
0.0432471
-0.0413087
0.0567623
-0.053235
0.0699441
-0.0641375
0.0818098
-0.0734027
0.0917581
-0.0808282
0.0996426
-0.0865698
0.105714
-0.0910133
0.110458
-0.0946204
0.1144
-0.0977944
0.117945
-0.100811
0.121298
-0.103801
0.12454
-0.106815
0.127625
-0.109848
0.130626
-0.112893
0.13349
-0.116038
0.136433
-0.119015
-0.122618
0.13945
0.000156802
0.00169497
0.00123386
0.00168152
0.0038752
-0.00142141
0.00871336
-0.00762199
0.0161888
-0.016817
0.0262577
-0.028424
0.0382291
-0.041289
0.0509303
-0.0540099
0.0630991
-0.0654037
0.0737604
-0.0747988
0.082436
-0.0820783
0.0891522
-0.0875444
0.0942903
-0.0917079
0.0983651
-0.095088
0.101829
-0.0980845
0.104978
-0.100943
0.107949
-0.103782
0.110802
-0.106654
0.113561
-0.109575
0.116277
-0.112564
0.118995
-0.115612
0.121705
-0.118747
0.124525
-0.121835
-0.125273
0.127179
0.000331448
0.00136352
0.00199727
1.56951e-05
0.00570454
-0.00512867
0.0120276
-0.013945
0.0210754
-0.0258648
0.032197
-0.0395457
0.0441228
-0.0532148
0.0554733
-0.0653604
0.0652433
-0.0751737
0.073021
-0.0825765
0.0789307
-0.087988
0.08341
-0.0920237
0.086961
-0.0952589
0.089983
-0.09811
0.092724
-0.100826
0.0953126
-0.103532
0.0978186
-0.106288
0.10028
-0.109115
0.102724
-0.11202
0.105155
-0.114994
0.107573
-0.118031
0.109967
-0.12114
0.112396
-0.124264
-0.127655
0.114777
0.000537931
0.000825586
0.00287806
-0.00232444
0.00772735
-0.00997796
0.0154274
-0.0216451
0.0255041
-0.0359415
0.0366622
-0.0507037
0.047381
-0.0639336
0.0565533
-0.0745327
0.0637507
-0.0823712
0.0691232
-0.087949
0.0731224
-0.0919872
0.0762388
-0.0951401
0.0788522
-0.0978723
0.0812021
-0.10046
0.0834198
-0.103043
0.0855731
-0.105685
0.0876898
-0.108405
0.0897798
-0.111205
0.0918415
-0.114081
0.0938806
-0.117033
0.0959159
-0.120066
0.0979557
-0.12318
0.100057
-0.126365
-0.129727
0.102129
0.000788237
3.73491e-05
0.00386855
-0.00540475
0.00983267
-0.0159421
0.0185457
-0.0303581
0.0288356
-0.0462314
0.0390403
-0.0609084
0.0478567
-0.07275
0.0547366
-0.0814126
0.0597845
-0.0874192
0.0634422
-0.0916067
0.0662014
-0.0947464
0.0684493
-0.097388
0.0704337
-0.0998567
0.07229
-0.102316
0.0740815
-0.104835
0.0758316
-0.107435
0.0775489
-0.110122
0.079239
-0.112895
0.0809124
-0.115755
0.0825824
-0.118703
0.0842567
-0.12174
0.0859416
-0.124865
0.0876568
-0.12808
-0.131411
0.0893406
0.0010739
-0.00103655
0.00491549
-0.00924634
0.0118068
-0.0228334
0.0209448
-0.039496
0.0306182
-0.0559048
0.0392414
-0.0695317
0.0460206
-0.0795293
0.0509317
-0.0863236
0.0543779
-0.0908654
0.0568601
-0.0940889
0.0587894
-0.0966757
0.0604329
-0.0990316
0.0619355
-0.101359
0.0633631
-0.103744
0.0647421
-0.106214
0.0660844
-0.108777
0.0673981
-0.111436
0.0686902
-0.114187
0.0699669
-0.117031
0.0712332
-0.119969
0.0724973
-0.123004
0.0737704
-0.126138
0.0750643
-0.129374
-0.132701
0.0763544
0.00138518
-0.00242173
0.00592402
-0.0137852
0.01339
-0.0302993
0.0222952
-0.0484013
0.030761
-0.0643705
0.0376048
-0.0763755
0.0425565
-0.0844809
0.0459277
-0.0896948
0.0482209
-0.0931586
0.0498818
-0.0957498
0.0512102
-0.0980041
0.0523712
-0.100193
0.0534419
-0.10243
0.0544547
-0.104757
0.0554242
-0.107183
0.0563578
-0.109711
0.0572605
-0.112338
0.0581374
-0.115064
0.0589954
-0.117889
0.0598437
-0.120818
0.0606912
-0.123852
0.0615464
-0.126993
0.0624117
-0.130239
-0.133561
0.0632721
0.00169194
-0.00411367
0.00677521
-0.0188684
0.0143648
-0.037889
0.0224926
-0.056529
0.0294753
-0.0713532
0.0346303
-0.0815306
0.0380772
-0.0879278
0.0402857
-0.0919033
0.0417392
-0.0946121
0.0427854
-0.0967959
0.0436237
-0.0988424
0.0443501
-0.100919
0.0450057
-0.103086
0.0456072
-0.105358
0.0461625
-0.107739
0.046677
-0.110226
0.0471563
-0.112818
0.0476074
-0.115515
0.0480378
-0.11832
0.0484545
-0.121234
0.0488646
-0.124262
0.0492733
-0.127402
0.0496774
-0.130644
-0.133961
0.050077
0.00196772
-0.00608139
0.00736612
-0.0242668
0.014633
-0.0451558
0.0216446
-0.0635407
0.027114
-0.0768226
0.0307977
-0.0852143
0.0330504
-0.0901805
0.034376
-0.093229
0.035183
-0.0954191
0.0357219
-0.0973348
0.0361182
-0.0992387
0.0364261
-0.101227
0.0366672
-0.103327
0.036851
-0.105542
0.0369838
-0.107871
0.037071
-0.110313
0.0371178
-0.112864
0.03713
-0.115527
0.0371139
-0.118304
0.0370776
-0.121198
0.0370298
-0.124214
0.0369765
-0.127349
0.0369169
-0.130584
0.0368578
-0.133902
-0.000233537
0.0019596
-0.00172607
-0.000856194
0.00574974
-0.00512708
-0.00184694
0.00899397
-0.00800322
-0.00316915
0.0114773
-0.0101551
-0.0047647
0.0132985
-0.011703
-0.0065679
0.0147236
-0.0129204
-0.00852169
0.0160315
-0.0140778
-0.0105854
0.0174236
-0.01536
-0.0127322
0.0190053
-0.0168585
-0.0149414
0.0208093
-0.0186001
-0.0171899
0.0228259
-0.0205774
-0.0194455
0.0250222
-0.0227666
-0.0216626
0.0273483
-0.0251311
-0.0237791
0.0297353
-0.0276188
-0.0257136
0.0320917
-0.0301572
-0.0273643
0.0342998
-0.0326491
-0.0286086
0.0362133
-0.034969
-0.0293055
0.0376577
-0.0369609
-0.0293009
0.0384337
-0.0384383
-0.0284343
0.0383242
-0.0391908
-0.0265432
0.0371049
-0.038996
-0.0235075
0.0345855
-0.0376212
-0.0192209
0.030516
-0.0348026
0.0248053
-0.0136735
-0.0303527
-8.56681e-05
0.00204527
-0.000383372
0.00604744
-0.000952232
0.00956283
-0.00180481
0.0123299
-0.00290697
0.0144007
-0.00419005
0.0160067
-0.00557747
0.017419
-0.00700249
0.0188486
-0.0084125
0.0204153
-0.00976337
0.0221602
-0.0110106
0.0240731
-0.0121017
0.0261133
-0.0129716
0.0282182
-0.0135402
0.0303039
-0.0137111
0.0322625
-0.0133758
0.0339645
-0.0124139
0.0352515
-0.0107002
0.035944
-0.00811191
0.0358454
-0.00454279
0.034755
9.10983e-05
0.032471
0.00591238
0.0287643
0.0128244
0.023604
0.016657
0.0209727
5.68004e-05
0.00198847
9.09131e-05
0.00601333
-1.82547e-05
0.00967199
-0.000342172
0.0126538
-0.000868803
0.0149273
-0.00153339
0.0166713
-0.00224483
0.0181304
-0.00291024
0.0195141
-0.00344722
0.0209523
-0.00378359
0.0224965
-0.00385055
0.0241401
-0.00357528
0.025838
-0.00287611
0.027519
-0.00166141
0.0290892
0.000166806
0.0304343
0.00271681
0.0314145
0.00609434
0.0318739
0.0103964
0.0316419
0.0157023
0.0305395
0.0220772
0.0283801
0.0294937
0.0250546
0.0379817
0.0202762
0.0472733
0.0143124
0.00629134
0.057639
0.000173955
0.00181452
0.000505761
0.00568152
0.000833989
0.00934377
0.00105648
0.0124313
0.00114668
0.0148371
0.00115432
0.0166637
0.00117589
0.0181088
0.00132408
0.0193659
0.00170799
0.0205684
0.00242667
0.0217779
0.00357174
0.022995
0.00523274
0.024177
0.00750105
0.0252507
0.0104706
0.0261196
0.0142368
0.0266681
0.0188878
0.0267634
0.0245007
0.026261
0.0311378
0.0250048
0.0388105
0.0228668
0.0475594
0.0196312
0.0572237
0.0153903
0.0679602
0.00953974
0.0791517
0.00312095
-0.00626837
0.0917114
0.000252158
0.00156236
0.000812207
0.00512147
0.00151408
0.0086419
0.00223282
0.0117126
0.00291519
0.0141547
0.00358769
0.0159911
0.00433715
0.0173594
0.00528164
0.0184214
0.00654616
0.0193039
0.00824923
0.0200748
0.0104993
0.020745
0.0133962
0.0212801
0.0170334
0.0216135
0.0214976
0.0216554
0.0268661
0.0212997
0.0332017
0.0204278
0.0405448
0.018918
0.0489133
0.0166363
0.0582731
0.013507
0.0686428
0.00926148
0.0797285
0.00430454
0.0919852
-0.00271695
0.104699
-0.00959302
-0.0203995
0.11883
0.000283204
0.00127916
0.00097268
0.004432
0.00193027
0.00768431
0.00303493
0.0106079
0.00421735
0.0129723
0.00547919
0.0147293
0.00688596
0.0159526
0.00854458
0.0167628
0.0105793
0.0172691
0.0131141
0.01754
0.0162634
0.0175956
0.020129
0.0174145
0.024799
0.0169435
0.0303468
0.0161076
0.0368297
0.0148168
0.0442823
0.0129752
0.0527317
0.0104686
0.0621557
0.00721226
0.0725485
0.00311427
0.0839641
-0.00215415
0.0963575
-0.00808883
0.110067
-0.0164267
0.124461
-0.0239872
-0.0368008
0.140863
0.000265684
0.00101347
0.000971463
0.00372622
0.00203348
0.00662229
0.00335965
0.00928177
0.00488251
0.0114495
0.00658595
0.0130259
0.00851001
0.0140285
0.0107382
0.0145346
0.0133781
0.0146293
0.0165435
0.0143746
0.0203425
0.0137966
0.024871
0.012886
0.0302104
0.0116041
0.0364281
0.00988986
0.0435822
0.00766275
0.0517178
0.0048396
0.0608884
0.00129793
0.0711659
-0.00306515
0.082763
-0.0084829
0.0955597
-0.0149509
0.109986
-0.0225152
0.125861
-0.0323014
0.143317
-0.0414437
-0.0559804
0.162497
0.000203294
0.000810179
0.000813629
0.00311588
0.00181815
0.00561777
0.00317249
0.00792743
0.00482917
0.00979278
0.00676737
0.0110877
0.00900679
0.0117891
0.011605
0.0119363
0.0146458
0.0115884
0.0182261
0.0107944
0.0224459
0.00957678
0.0274053
0.00792667
0.0332063
0.00580306
0.0399564
0.00313975
0.047773
-0.000153769
0.0568411
-0.00422854
0.0673364
-0.00919742
0.0793733
-0.015102
0.0932455
-0.0223551
0.108772
-0.0304778
0.126502
-0.0402445
0.145241
-0.0510405
0.165911
-0.0621139
-0.0762618
0.186192
0.000102986
0.000707193
0.000522071
0.0026968
0.00132345
0.00481639
0.00252019
0.00673069
0.00409823
0.00821473
0.00604712
0.00913878
0.0083804
0.00945586
0.0111429
0.00917383
0.0144099
0.00832139
0.0182846
0.00691965
0.0228976
0.00496384
0.0284071
0.00241712
0.0350098
-0.000799612
0.0429369
-0.00478737
0.0524245
-0.00964136
0.0636916
-0.0154956
0.0768886
-0.0223945
0.0921567
-0.0303701
0.109311
-0.0395089
0.128118
-0.0492858
0.148236
-0.0603623
0.168141
-0.0709451
0.188477
-0.0824502
-0.0931704
0.205386
-2.44281e-05
0.000731621
0.000140215
0.00253216
0.000639258
0.00431735
0.00154764
0.0058223
0.00289433
0.00686804
0.00469936
0.00733375
0.00700033
0.00715489
0.00987141
0.00630275
0.0134355
0.0047573
0.0178706
0.00248455
0.0234107
-0.000576307
0.0303318
-0.00450398
0.0389149
-0.00938262
0.0494083
-0.0152808
0.0619724
-0.0222055
0.0766406
-0.0301637
0.0932113
-0.0389652
0.111437
-0.0485958
0.130517
-0.0585892
0.150078
-0.0688465
0.168705
-0.0789892
0.185789
-0.0880292
0.200527
-0.0971883
-0.103159
0.210516
-0.000156625
0.000888246
-0.000254934
0.00263046
-6.90572e-05
0.00413147
0.000533144
0.0052201
0.00165028
0.0057509
0.00336479
0.00561924
0.00579372
0.00472596
0.00911001
0.00298646
0.0135531
0.000314175
0.0194163
-0.00337866
0.0270097
-0.00816965
0.0365996
-0.0140938
0.04834
-0.0211231
0.0622157
-0.0291565
0.0780122
-0.038002
0.0952907
-0.0474423
0.113434
-0.057109
0.131665
-0.0668264
0.149038
-0.0759619
0.164912
-0.0847208
0.178023
-0.0921006
0.188876
-0.098882
0.196061
-0.104373
-0.10771
0.200612
-0.000259912
-0.000550159
-0.000570041
-0.000104148
0.00102466
0.00301927
0.00612723
0.0106521
0.0169204
0.0252302
0.0357591
0.0484963
0.0632002
0.0793957
0.0964202
0.113458
0.129694
0.14426
0.156607
0.166239
0.173106
0.177937
0.180529
0.185092
-0.00486479
0.0227019
-0.0315107
0.0049236
0.00562151
-0.0154099
0.0156837
-0.0149714
0.00421133
0.0272916
-0.0391333
0.0275254
0.0395428
-0.0658308
0.0535796
0.0522076
-0.0930513
0.0803864
0.0646982
-0.117609
0.105118
0.0761699
-0.136395
0.124923
0.0855699
-0.147627
0.138227
0.091057
-0.151648
0.146161
0.091061
-0.152731
0.152727
0.08717
-0.157377
0.161268
0.0845491
-0.166271
0.168892
0.089079
-0.16968
0.16515
0.102303
-0.152768
0.139544
0.119463
-0.108327
0.0911671
0.135684
-0.0409828
0.0247618
0.148985
0.0404158
-0.0537161
0.1588
0.11971
-0.129525
0.164835
0.177926
-0.183961
0.166451
0.209038
-0.210654
0.164504
0.222445
-0.220497
0.161892
0.224671
-0.22206
0.159542
0.219714
-0.217363
0.155508
0.223471
-0.219438
0.148837
0.248787
-0.242115
0.141404
0.277345
-0.269913
0.135525
0.269258
-0.263379
0.131422
0.202337
-0.198234
0.128643
0.0879257
-0.0851469
0.127534
-0.0453673
0.0464763
0.127568
-0.16588
0.165846
0.127699
-0.253037
0.252905
0.128177
-0.298273
0.297794
0.126423
-0.308802
0.310557
0.118253
-0.312546
0.320716
0.104869
-0.324665
0.338049
0.0922003
-0.316904
0.329573
0.0851388
-0.256286
0.263348
0.0854348
-0.142742
0.142446
0.0925543
-0.0117618
0.0046423
0.103462
0.102485
-0.113393
0.115593
0.175311
-0.187441
0.125156
0.212225
-0.221788
0.13036
0.225694
-0.230898
0.133341
0.227094
-0.230075
0.134171
0.216506
-0.217336
0.130737
0.20846
-0.205026
0.125672
0.197305
-0.192239
0.124826
0.170025
-0.16918
0.130596
0.112595
-0.118365
0.139803
0.0480774
-0.0572838
0.148702
-0.0141496
0.00525031
0.154897
-0.0538591
0.0476644
0.158193
-0.0878465
0.0845501
0.159181
-0.102695
0.101707
0.158898
-0.124972
0.125255
0.158303
-0.127502
0.128098
0.157552
-0.143977
0.144727
-0.135201
0.135165
0.0293404
0.0143341
0.0377418
-0.00277989
0.0464325
-0.023662
0.0552072
-0.0479081
0.0641255
-0.0747491
0.0731102
-0.102036
0.0815781
-0.126076
0.0887211
-0.143538
0.0942619
-0.153168
0.0975854
-0.154972
0.0965789
-0.151724
0.0901502
-0.150948
0.0818622
-0.157983
0.0785143
-0.166332
0.0850809
-0.159335
0.0998607
-0.123107
0.117127
-0.0582491
0.133913
0.0236294
0.148341
0.105282
0.15896
0.167306
0.164381
0.203617
0.165668
0.221158
0.165672
0.224667
0.16538
0.220006
0.163581
0.22527
0.159524
0.252844
0.154393
0.282476
0.149578
0.274073
0.144683
0.207232
0.139097
0.0935116
0.13436
-0.0406303
0.131337
-0.162857
0.128916
-0.250616
0.127117
-0.296474
0.124234
-0.305919
0.11579
-0.304103
0.102104
-0.310979
0.0892075
-0.304007
0.0827491
-0.249828
0.0840575
-0.144051
0.0920656
-0.0197698
0.103867
0.0906838
0.116389
0.162788
0.125627
0.202987
0.130854
0.220467
0.134077
0.223871
0.134175
0.216407
0.129608
0.213028
0.124494
0.202419
0.124733
0.169786
0.131661
0.105667
0.141493
0.0382463
0.150482
-0.023139
0.156497
-0.0598742
0.159508
-0.0908571
0.160232
-0.103419
0.159748
-0.124488
0.159031
-0.126784
0.158228
-0.143175
-0.135221
0.0642549
0.00771827
0.0711505
-0.0096755
0.0776433
-0.0301548
0.0837259
-0.0539906
0.0895646
-0.0805878
0.0950663
-0.107538
0.099665
-0.130675
0.102398
-0.14627
0.102914
-0.153684
0.102247
-0.154305
0.099748
-0.149225
0.0925713
-0.143771
0.0809155
-0.146328
0.0708148
-0.156231
0.0697982
-0.158318
0.0802862
-0.133595
0.0979172
-0.0758802
0.117744
0.00380223
0.136717
0.0863091
0.151957
0.152067
0.161488
0.194086
0.166328
0.216318
0.169084
0.22191
0.170958
0.218132
0.171552
0.224676
0.170364
0.254033
0.167863
0.284977
0.164307
0.27763
0.158451
0.213087
0.149906
0.102057
0.141422
-0.0321466
0.135313
-0.156748
0.130497
-0.2458
0.126513
-0.29249
0.122591
-0.301996
0.114111
-0.295623
0.100373
-0.297241
0.0872453
-0.29088
0.0808691
-0.243451
0.0828606
-0.146042
0.0916825
-0.0285917
0.10438
0.0779862
0.117042
0.150126
0.125968
0.194061
0.131423
0.215012
0.134751
0.220543
0.133929
0.217229
0.128378
0.218579
0.123462
0.207335
0.124825
0.168423
0.132783
0.0977091
0.143109
0.0279201
0.152125
-0.0321547
0.157947
-0.0656963
0.16069
-0.0936008
0.161181
-0.10391
0.160526
-0.123833
0.159712
-0.125971
0.158882
-0.142344
-0.135251
0.097414
0.00201569
0.103025
-0.0152869
0.107706
-0.0348352
0.111604
-0.0578886
0.114849
-0.0838326
0.117075
-0.109764
0.117703
-0.131304
0.116136
-0.144703
0.11198
-0.149528
0.106633
-0.148958
0.101688
-0.144281
0.0946534
-0.136736
0.0824099
-0.134084
0.0677645
-0.141586
0.0591567
-0.149711
0.0632237
-0.137662
0.0788802
-0.0915367
0.100706
-0.0180236
0.123681
0.0633339
0.143452
0.132297
0.157291
0.180247
0.165889
0.207719
0.171565
0.216234
0.175782
0.213916
0.178833
0.221624
0.180323
0.252543
0.180131
0.285169
0.177901
0.279859
0.171676
0.219313
0.160587
0.113146
0.148571
-0.0201304
0.139427
-0.147604
0.132429
-0.238802
0.126297
-0.286358
0.121262
-0.29696
0.113068
-0.287429
0.0996602
-0.283833
0.0864149
-0.277635
0.0799089
-0.236945
0.0822212
-0.148355
0.0916949
-0.0380653
0.104958
0.0647232
0.117481
0.137603
0.12623
0.185313
0.132064
0.209177
0.135315
0.217293
0.133478
0.219066
0.127142
0.224915
0.122613
0.211863
0.12507
0.165966
0.133912
0.0888671
0.144602
0.0172305
0.153591
-0.0411432
0.159219
-0.0713244
0.161725
-0.0961067
0.162018
-0.104203
0.161225
-0.123039
0.160345
-0.125092
0.15951
-0.141509
-0.135317
0.124945
-0.00409921
0.129842
-0.0201838
0.13378
-0.0387736
0.136414
-0.0605219
0.137461
-0.0848803
0.136294
-0.108596
0.132492
-0.127502
0.126584
-0.138795
0.118991
-0.141935
0.110126
-0.140093
0.102238
-0.136393
0.0952054
-0.129704
0.0844478
-0.123326
0.0686398
-0.125778
0.0542774
-0.135348
0.0510288
-0.134414
0.0625279
-0.103036
0.0842121
-0.0397078
0.109928
0.0376176
0.133479
0.108746
0.151449
0.162277
0.163856
0.195313
0.17249
0.207599
0.179092
0.207314
0.184581
0.216136
0.188789
0.248335
0.191262
0.282696
0.190634
0.280487
0.184318
0.225629
0.171364
0.1261
0.155944
-0.00471034
0.143628
-0.135287
0.134531
-0.229705
0.126516
-0.278343
0.120278
-0.290723
0.112453
-0.279604
0.0996571
-0.271037
0.0864692
-0.264447
0.079852
-0.230328
0.0822886
-0.150791
0.0920979
-0.0478746
0.105476
0.0513447
0.117675
0.125405
0.126448
0.176539
0.132737
0.202889
0.135742
0.214288
0.132892
0.221916
0.125982
0.231826
0.121965
0.21588
0.125435
0.162496
0.135003
0.0792992
0.145924
0.00630871
0.154845
-0.0500639
0.16029
-0.0767688
0.162596
-0.098413
0.162736
-0.104343
0.161842
-0.122145
0.160927
-0.124177
0.160114
-0.140696
-0.135446
0.146879
-0.0101157
0.151935
-0.0252392
0.155553
-0.0423922
0.157137
-0.0621056
0.156062
-0.0838058
0.151721
-0.104255
0.143973
-0.119754
0.133921
-0.128743
0.123395
-0.131409
0.112745
-0.129443
0.102743
-0.126391
0.0950975
-0.122058
0.0867412
-0.11497
0.0726582
-0.111695
0.0553873
-0.118077
0.0450185
-0.124045
0.0501113
-0.108129
0.0694635
-0.05906
0.0961365
0.0109446
0.122405
0.0824776
0.143919
0.140763
0.15989
0.179342
0.17154
0.19595
0.180579
0.198274
0.188305
0.20841
0.194951
0.241689
0.199576
0.278071
0.200075
0.279987
0.193977
0.231727
0.180485
0.139592
0.163077
0.0126976
0.147764
-0.119974
0.136625
-0.218565
0.126989
-0.268708
0.119462
-0.283196
0.112074
-0.272215
0.100234
-0.259197
0.0871737
-0.251387
0.0803831
-0.223537
0.0828333
-0.153241
0.0926509
-0.0576923
0.105749
0.0382468
0.117603
0.11355
0.126651
0.167491
0.133409
0.196131
0.136033
0.211663
0.132245
0.225704
0.124962
0.239109
0.121519
0.219323
0.125879
0.158136
0.136008
0.0691703
0.147035
-0.00471911
0.15586
-0.0588887
0.161142
-0.0820505
0.163294
-0.100565
0.163327
-0.104377
0.162373
-0.12119
0.161457
-0.123261
0.160691
-0.13993
-0.135666
0.168117
-0.0157354
0.172552
-0.0296744
0.174896
-0.0447365
0.17445
-0.0616592
0.170481
-0.0798369
0.162675
-0.0964491
0.151653
-0.108732
0.138665
-0.115755
0.125764
-0.118508
0.11412
-0.117799
0.103276
-0.115547
0.0944339
-0.113216
0.0877166
-0.108253
0.0777585
-0.101737
0.06137
-0.101689
0.045752
-0.108427
0.0428345
-0.105211
0.0570375
-0.073263
0.0825071
-0.0145249
0.110414
0.0545703
0.134963
0.116214
0.154291
0.160014
0.168775
0.181465
0.180033
0.187017
0.189971
0.198472
0.199111
0.232549
0.206132
0.27105
0.208336
0.277783
0.202672
0.237391
0.188566
0.153699
0.169224
0.0320397
0.151561
-0.102311
0.138549
-0.205554
0.127666
-0.257824
0.11882
-0.274351
0.111657
-0.265052
0.101089
-0.248629
0.088319
-0.238617
0.0811237
-0.216342
0.0833867
-0.155504
0.0929819
-0.0672875
0.105625
0.025604
0.117295
0.10188
0.126826
0.15796
0.134001
0.188956
0.136186
0.209479
0.1316
0.23029
0.124119
0.24659
0.12126
0.222182
0.126359
0.153036
0.136871
0.0586591
0.147921
-0.0157693
0.156617
-0.0675846
0.161764
-0.087198
0.163812
-0.102613
0.16379
-0.104355
0.162817
-0.120217
0.161933
-0.122378
0.161242
-0.139239
-0.136004
0.189595
-0.0191379
0.191419
-0.0314982
0.190667
-0.0439849
0.186798
-0.0577897
0.179282
-0.0723213
0.168131
-0.0852984
0.154625
-0.0952254
0.140398
-0.101528
0.126787
-0.104897
0.114956
-0.105968
0.104467
-0.105058
0.0949285
-0.103678
0.0879178
-0.101242
0.0815154
-0.0953343
0.0696839
-0.0898573
0.0529162
-0.0916591
0.0423752
-0.0946701
0.0485604
-0.0794482
0.0696318
-0.0355963
0.0975107
0.0266914
0.12433
0.0893952
0.14683
0.137513
0.164258
0.164038
0.177725
0.173549
0.189204
0.186992
0.199997
0.221757
0.209034
0.262013
0.212664
0.274153
0.207705
0.24235
0.193904
0.1675
0.174212
0.0517317
0.154877
-0.0829773
0.140148
-0.190825
0.128307
-0.245983
0.118297
-0.26434
0.11109
-0.257845
0.10199
-0.239528
0.0898192
-0.226446
0.0819081
-0.208431
0.0835351
-0.157131
0.0927379
-0.0764902
0.104972
0.01337
0.116709
0.0901426
0.126916
0.147753
0.134516
0.181357
0.136275
0.20772
0.131035
0.235529
0.123483
0.254143
0.121172
0.224492
0.126842
0.147366
0.137569
0.0479322
0.148554
-0.0267538
0.157106
-0.0761367
0.162152
-0.0922446
0.164149
-0.104609
0.164122
-0.104328
0.163172
-0.119268
0.162356
-0.121561
0.161766
-0.138649
-0.136489
0.205379
-0.0191307
0.203349
-0.0294684
0.198698
-0.0393341
0.19121
-0.0503021
0.180717
-0.0618282
0.167683
-0.0722643
0.153372
-0.080914
0.139316
-0.087472
0.126337
-0.0919186
0.114951
-0.0945819
0.105276
-0.0953832
0.0963154
-0.0947166
0.0885709
-0.0934976
0.08332
-0.0900835
0.0766739
-0.0832111
0.0635689
-0.0785541
0.0489685
-0.0800697
0.0457928
-0.0762725
0.0596409
-0.0494444
0.0849749
0.0013574
0.112499
0.0618712
0.137412
0.1126
0.157741
0.143709
0.173571
0.157719
0.186933
0.17363
0.19982
0.20887
0.210897
0.250936
0.216263
0.268787
0.212457
0.246155
0.198735
0.181222
0.178158
0.072309
0.157514
-0.0623338
0.141317
-0.174627
0.128775
-0.233441
0.117832
-0.253397
0.110244
-0.250257
0.102585
-0.231869
0.0915095
-0.215371
0.0828145
-0.199736
0.0832027
-0.157519
0.091744
-0.0850316
0.103749
0.00136537
0.115869
0.0780224
0.126883
0.136739
0.134824
0.173415
0.136217
0.206327
0.130543
0.241203
0.123042
0.261644
0.121218
0.226316
0.127293
0.141291
0.138082
0.0371434
0.148926
-0.0375979
0.157326
-0.084537
0.162307
-0.097226
0.164304
-0.106606
0.164324
-0.104347
0.16344
-0.118384
0.162725
-0.120846
0.162263
-0.138187
-0.137147
0.207854
-0.0164685
0.202875
-0.0244896
0.195675
-0.0321346
0.186393
-0.0410202
0.175079
-0.0505138
0.162409
-0.0595946
0.149301
-0.0678061
0.136632
-0.0748024
0.124982
-0.0802692
0.1145
-0.0840996
0.105464
-0.0863472
0.0976104
-0.0868629
0.0901044
-0.0859917
0.0842229
-0.0842019
0.0803371
-0.0793254
0.0732004
-0.0714174
0.0601516
-0.0670209
0.0500089
-0.0661298
0.0544411
-0.0538766
0.0738163
-0.0180177
0.100423
0.0352642
0.126699
0.0863252
0.149069
0.121339
0.166676
0.140112
0.181362
0.158944
0.195274
0.194957
0.208003
0.238208
0.215725
0.261064
0.213569
0.248311
0.200688
0.194104
0.18089
0.0921065
0.159853
-0.0412966
0.142082
-0.156856
0.128777
-0.220136
0.11719
-0.24181
0.109003
-0.24207
0.102546
-0.225412
0.0930567
-0.205882
0.0839456
-0.190625
0.0826639
-0.156238
0.0901237
-0.0924913
0.101946
-0.0104565
0.114639
0.0653294
0.126532
0.124846
0.134968
0.164979
0.136253
0.205042
0.130284
0.247172
0.12282
0.269109
0.121377
0.227759
0.127693
0.134975
0.138404
0.0264317
0.149039
-0.0482328
0.157282
-0.0927799
0.162234
-0.102178
0.164283
-0.108655
0.164398
-0.104463
0.163622
-0.117607
0.163042
-0.120267
0.162733
-0.137879
-0.138004
0.197247
-0.0131033
0.191678
-0.0189207
0.184468
-0.0249251
0.175799
-0.0323514
0.165787
-0.040501
0.154927
-0.0487347
0.143778
-0.056657
0.13278
-0.0638044
0.122387
-0.0698764
0.112908
-0.0746206
0.104437
-0.0778763
0.0973067
-0.0797326
0.0910018
-0.0796868
0.0849906
-0.0781907
0.0810827
-0.0754174
0.0782888
-0.0686236
0.0709846
-0.0597166
0.0597445
-0.0548898
0.0555009
-0.049633
0.066309
-0.0288258
0.0893347
0.0122385
0.115859
0.0598009
0.140459
0.0967385
0.160253
0.120318
0.176102
0.143095
0.191151
0.179909
0.20568
0.223678
0.214882
0.251863
0.213944
0.249249
0.201724
0.206323
0.182037
0.111794
0.160595
-0.0198544
0.141937
-0.138199
0.128092
-0.20629
0.116265
-0.229983
0.107434
-0.233239
0.101787
-0.219766
0.0941605
-0.198255
0.0853103
-0.181775
0.0823797
-0.153307
0.0882807
-0.0983923
0.0998367
-0.0220125
0.113212
0.051954
0.12605
0.112008
0.134877
0.156152
0.13599
0.203929
0.129947
0.253215
0.122727
0.276328
0.1216
0.228886
0.128028
0.128547
0.138533
0.0159266
0.148908
-0.0586074
0.15699
-0.100863
0.161947
-0.107135
0.164094
-0.110801
0.164352
-0.104721
0.163721
-0.116976
0.163309
-0.119854
0.163179
-0.137749
-0.139086
0.182058
-0.0100693
0.17739
-0.0142534
0.171709
-0.0192442
0.164764
-0.0254058
0.156669
-0.0324063
0.147753
-0.0398187
0.13836
-0.0472643
0.128855
-0.0542987
0.119571
-0.0605924
0.110962
-0.0660117
0.103139
-0.0700532
0.0962364
-0.0728303
0.0906158
-0.0740661
0.0853749
-0.0729499
0.0807778
-0.0708203
0.0787099
-0.0665557
0.0762856
-0.0572924
0.0689946
-0.0475988
0.0611929
-0.0418312
0.0632273
-0.0308602
0.0784832
-0.00301745
0.102419
0.0358654
0.127338
0.0718197
0.148764
0.0988919
0.165986
0.125873
0.181621
0.164274
0.196805
0.208494
0.209227
0.239441
0.212481
0.245995
0.202106
0.216698
0.183647
0.130252
0.163163
0.000630086
0.143039
-0.118075
0.128093
-0.191345
0.116086
-0.217976
0.106545
-0.223698
0.101074
-0.214295
0.0950861
-0.192267
0.0870058
-0.173694
0.0828253
-0.149127
0.0869064
-0.102473
0.0975099
-0.032616
0.111251
0.0382129
0.124884
0.0983748
0.134449
0.146587
0.136129
0.202249
0.130257
0.259087
0.122905
0.283681
0.121858
0.229932
0.128379
0.122027
0.138567
0.00573842
0.148607
-0.0686473
0.156517
-0.108773
0.161489
-0.112106
0.163765
-0.113078
0.164199
-0.105155
0.163746
-0.116524
0.163528
-0.119636
0.163602
-0.137823
-0.140415
0.209465
-0.0078351
-0.2117
0.208008
-0.0127957
0.206401
-0.0176374
0.204088
-0.0230929
0.200876
-0.029194
0.196738
-0.0356809
0.191737
-0.042263
0.186002
-0.0485643
0.179616
-0.0542059
0.172702
-0.0590979
0.165407
-0.0627581
0.157648
-0.0650716
0.149769
-0.0661872
0.141875
-0.0650553
0.133263
-0.0622086
0.124957
-0.0582494
0.11781
-0.0501452
0.108418
-0.0382072
0.0945519
-0.0279651
0.0818396
-0.0181479
0.0791731
-0.000351009
0.0873012
0.0277374
0.102139
0.0569816
0.115956
0.085075
0.124191
0.117638
0.129073
0.159392
0.136427
0.201141
0.147295
0.228572
0.156485
0.236805
0.164901
0.208282
0.176555
0.118598
0.184949
-0.0077634
0.185406
-0.118531
0.178817
-0.184756
0.167419
-0.206578
0.15367
-0.209949
0.141936
-0.202561
0.130783
-0.181114
0.117416
-0.160327
0.104902
-0.136613
0.0980223
-0.0955936
0.098626
-0.0332197
0.104754
0.0320853
0.112934
0.0901945
0.117671
0.14185
0.115049
0.20487
0.107447
0.266689
0.103614
0.287515
0.110081
0.223465
0.123424
0.108684
0.137026
-0.00786332
0.147507
-0.0791285
0.153905
-0.115171
0.156745
-0.114946
0.156982
-0.113315
0.155682
-0.103855
0.153655
-0.114497
0.151818
-0.117798
0.150163
-0.136168
-0.139833
0.217918
-0.00607755
-0.219676
0.215997
-0.0108745
0.214035
-0.0156757
0.211578
-0.0206354
0.208362
-0.0259787
0.204283
-0.0316022
0.199347
-0.0373265
0.193628
-0.0428457
0.187238
-0.0478153
0.180225
-0.0520854
0.172799
-0.0553315
0.16506
-0.0573332
0.157055
-0.0581817
0.149293
-0.0572933
0.141568
-0.0544836
0.133645
-0.050327
0.126948
-0.0434479
0.120711
-0.0319702
0.110914
-0.0181682
0.0981647
-0.00539837
0.0906811
0.00713254
0.0950879
0.0233306
0.10818
0.0438892
0.121671
0.0715845
0.130025
0.109284
0.135662
0.153755
0.144762
0.192041
0.156757
0.216577
0.166698
0.226864
0.177306
0.197674
0.191779
0.104125
0.201785
-0.0177695
0.200794
-0.117541
0.191638
-0.175599
0.178544
-0.193484
0.16373
-0.195136
0.151287
-0.190118
0.140206
-0.170033
0.12728
-0.147401
0.114841
-0.124173
0.107603
-0.0883557
0.107887
-0.0335038
0.114421
0.0255509
0.12259
0.0820255
0.12642
0.13802
0.122387
0.208903
0.11413
0.274947
0.11129
0.290355
0.119453
0.215302
0.134075
0.0940616
0.148289
-0.0220771
0.158734
-0.0895739
0.164782
-0.121218
0.167236
-0.117401
0.167146
-0.113224
0.165584
-0.102293
0.163312
-0.112225
0.161273
-0.115759
0.159419
-0.134315
-0.139137
0.226009
-0.00486325
-0.227223
0.224283
-0.00914925
0.222252
-0.0136443
0.21978
-0.0181638
0.216673
-0.0228716
0.212815
-0.0277436
0.208193
-0.0327047
0.202842
-0.0374947
0.196866
-0.0418394
0.190342
-0.0455614
0.183387
-0.0483766
0.17617
-0.0501164
0.168686
-0.0506975
0.161159
-0.0497662
0.153745
-0.0470694
0.145996
-0.0425782
0.138695
-0.0361468
0.133174