/*--------------------------------*- C++ -*----------------------------------*\
| =========                 |                                                 |
| \\      /  F ield         | OpenFOAM: The Open Source CFD Toolbox           |
|  \\    /   O peration     | Version:  2512                                  |
|   \\  /    A nd           | Website:  www.openfoam.com                      |
|    \\/     M anipulation  |                                                 |
\*---------------------------------------------------------------------------*/
FoamFile
{
    version     2.0;
    format      ascii;
    arch        "LSB;label=32;scalar=64";
    class       volScalarField;
    location    "23";
    object      p;
}
// * * * * * * * * * * * * * * * * * * * * * * * * * * * * * * * * * * * * * //

dimensions      [0 2 -2 0 0 0 0];

internalField   nonuniform List<scalar> 
9200
(
-0.443478
-0.442805
-0.43954
-0.434494
-0.428512
-0.422389
-0.416973
-0.412626
-0.409087
-0.405596
-0.401123
-0.394694
-0.385702
-0.374041
-0.359997
-0.344023
-0.325925
-0.306535
-0.283469
-0.258211
-0.453639
-0.45197
-0.448529
-0.443953
-0.43859
-0.432659
-0.426185
-0.419023
-0.410955
-0.401719
-0.391083
-0.378964
-0.365444
-0.350689
-0.334828
-0.317847
-0.299848
-0.280773
-0.260417
-0.24031
-0.46694
-0.463742
-0.45966
-0.454908
-0.449346
-0.442397
-0.433454
-0.422367
-0.409432
-0.395128
-0.379917
-0.364136
-0.347956
-0.331426
-0.3145
-0.29725
-0.27953
-0.261581
-0.243077
-0.224302
-0.483163
-0.478174
-0.473071
-0.467519
-0.46062
-0.451071
-0.438258
-0.422633
-0.40522
-0.38701
-0.368669
-0.35051
-0.332615
-0.314941
-0.297459
-0.280063
-0.262784
-0.245673
-0.228527
-0.212265
-0.502738
-0.495842
-0.489428
-0.482254
-0.472432
-0.458547
-0.440823
-0.420627
-0.399442
-0.378309
-0.35776
-0.337969
-0.318912
-0.300507
-0.282637
-0.26526
-0.248333
-0.231812
-0.215715
-0.200204
-0.526064
-0.517223
-0.509036
-0.498968
-0.484306
-0.46462
-0.441541
-0.417105
-0.392789
-0.369374
-0.347146
-0.326117
-0.306185
-0.287217
-0.26911
-0.251759
-0.235095
-0.21908
-0.203683
-0.189038
-0.55327
-0.542135
-0.531424
-0.516633
-0.495304
-0.469001
-0.440652
-0.412428
-0.385448
-0.360124
-0.336498
-0.314459
-0.293841
-0.274485
-0.256236
-0.238975
-0.222597
-0.206997
-0.192163
-0.177916
-0.582994
-0.569429
-0.555017
-0.53345
-0.50415
-0.471093
-0.437853
-0.406254
-0.376924
-0.349922
-0.325092
-0.302213
-0.28106
-0.261428
-0.243143
-0.226042
-0.209982
-0.194866
-0.180589
-0.166886
-0.613422
-0.597171
-0.577191
-0.546997
-0.509193
-0.469715
-0.432069
-0.397476
-0.366077
-0.337626
-0.311798
-0.288274
-0.266768
-0.247033
-0.22885
-0.212031
-0.196423
-0.181894
-0.168268
-0.155253
-0.641563
-0.622461
-0.594836
-0.554712
-0.508559
-0.463297
-0.421823
-0.384689
-0.351585
-0.322002
-0.29547
-0.271578
-0.249968
-0.230342
-0.212447
-0.196071
-0.181055
-0.167273
-0.154512
-0.142575
-0.470535
-0.466943
-0.464794
-0.464722
-0.467466
-0.473162
-0.481814
-0.493516
-0.508449
-0.526747
-0.54839
-0.57309
-0.600225
-0.628832
-0.65758
-0.684814
-0.708799
-0.727249
-0.738158
-0.738221
-0.473215
-0.468414
-0.465689
-0.465038
-0.467141
-0.47235
-0.480738
-0.492398
-0.507496
-0.526152
-0.548307
-0.573617
-0.601383
-0.630544
-0.659697
-0.687167
-0.711639
-0.729942
-0.741031
-0.740316
-0.471616
-0.466147
-0.46278
-0.461127
-0.461908
-0.465751
-0.472871
-0.48336
-0.497326
-0.514819
-0.535715
-0.559616
-0.585792
-0.61314
-0.640338
-0.66588
-0.688349
-0.704691
-0.713493
-0.709248
-0.466587
-0.461088
-0.457091
-0.45404
-0.452764
-0.454265
-0.459045
-0.467304
-0.479118
-0.494463
-0.513133
-0.534666
-0.558379
-0.583322
-0.607952
-0.63089
-0.650756
-0.663652
-0.667996
-0.657021
-0.459465
-0.454563
-0.450092
-0.445494
-0.441709
-0.440139
-0.441725
-0.446949
-0.455994
-0.468817
-0.485128
-0.504217
-0.525557
-0.548035
-0.570903
-0.591232
-0.607197
-0.614767
-0.611839
-0.592071
-0.451629
-0.447789
-0.443129
-0.437204
-0.431017
-0.426286
-0.424432
-0.426354
-0.432505
-0.442994
-0.457772
-0.474699
-0.494527
-0.515311
-0.535152
-0.550997
-0.560627
-0.559887
-0.547079
-0.517949
-0.444288
-0.441717
-0.437159
-0.430396
-0.422468
-0.415258
-0.410559
-0.409667
-0.413323
-0.421594
-0.433873
-0.450688
-0.468831
-0.486253
-0.500869
-0.509357
-0.510126
-0.49989
-0.478998
-0.445476
-0.438577
-0.437196
-0.432915
-0.425874
-0.417175
-0.408731
-0.402541
-0.400148
-0.402609
-0.409806
-0.420894
-0.434439
-0.447984
-0.459056
-0.465366
-0.464623
-0.456488
-0.4396
-0.416512
-0.385195
-0.435827
-0.435246
-0.431338
-0.424606
-0.416165
-0.407899
-0.401728
-0.399162
-0.400649
-0.405939
-0.41368
-0.421924
-0.428301
-0.430854
-0.42784
-0.418887
-0.404499
-0.385422
-0.364768
-0.339113
-0.43732
-0.436999
-0.433468
-0.42751
-0.420128
-0.41298
-0.407443
-0.404466
-0.404228
-0.405978
-0.408249
-0.409265
-0.407379
-0.40157
-0.391343
-0.377469
-0.360142
-0.340856
-0.320345
-0.298009
-0.722454
-0.676927
-0.60512
-0.517538
-0.433582
-0.367388
-0.326776
-0.311574
-0.320219
-0.354715
-0.408694
-0.463066
-0.488738
-0.465759
-0.397604
-0.316603
-0.249434
-0.207892
-0.189414
-0.187913
-0.205441
-0.234704
-0.249398
-0.226595
-0.180468
-0.132254
-0.0942614
-0.0676071
-0.0492599
-0.0366105
-0.0276521
-0.0207986
-0.0153083
-0.0111454
-0.00827815
-0.00612821
-0.00436213
-0.00312594
-0.00268195
-0.0028334
-0.00309797
-0.00321306
-0.00311453
-0.00288377
-0.00257344
-0.00219822
-0.00177402
-0.00130067
-0.00079766
-0.000262047
-0.72233
-0.674459
-0.600811
-0.509562
-0.419413
-0.34646
-0.296655
-0.27094
-0.269433
-0.294207
-0.34058
-0.391766
-0.419733
-0.402794
-0.348587
-0.283813
-0.232787
-0.205099
-0.198311
-0.208729
-0.239404
-0.279796
-0.297849
-0.267894
-0.210166
-0.151499
-0.106041
-0.0746783
-0.0533311
-0.0387254
-0.0285927
-0.021043
-0.0150974
-0.010661
-0.00776503
-0.00583451
-0.00432404
-0.0031667
-0.00261395
-0.00260843
-0.00278668
-0.00290769
-0.00287242
-0.00271716
-0.00246634
-0.00213203
-0.00173245
-0.00127596
-0.000784415
-0.000257118
-0.684943
-0.634697
-0.563777
-0.475324
-0.387696
-0.316242
-0.264021
-0.231046
-0.217118
-0.227479
-0.261434
-0.305161
-0.335973
-0.329677
-0.291682
-0.244564
-0.210308
-0.196893
-0.201727
-0.224657
-0.268757
-0.31934
-0.341821
-0.306909
-0.238508
-0.169854
-0.117341
-0.0815595
-0.0574318
-0.0409912
-0.029756
-0.0215759
-0.0152261
-0.0105159
-0.00752976
-0.00571493
-0.00436947
-0.00325598
-0.00259563
-0.00244115
-0.00252869
-0.00264407
-0.00265613
-0.00256558
-0.002368
-0.00207142
-0.00169451
-0.00125359
-0.000772483
-0.000252746
-0.622407
-0.571353
-0.507456
-0.427426
-0.347761
-0.281824
-0.231928
-0.195482
-0.173173
-0.167315
-0.184003
-0.215738
-0.245861
-0.250905
-0.229736
-0.198948
-0.1807
-0.180728
-0.196205
-0.231105
-0.287709
-0.348994
-0.377136
-0.339929
-0.263625
-0.186539
-0.127812
-0.0881152
-0.0615146
-0.0433908
-0.0311145
-0.0223536
-0.0156411
-0.0106536
-0.00751905
-0.00573174
-0.00448131
-0.0033888
-0.00262837
-0.00233595
-0.00233452
-0.00243445
-0.00247568
-0.00243514
-0.00228139
-0.00201773
-0.00166085
-0.0012339
-0.000762097
-0.000249018
-0.547651
-0.498043
-0.444357
-0.376457
-0.308337
-0.249288
-0.202136
-0.165555
-0.137615
-0.121036
-0.120298
-0.135819
-0.158625
-0.169293
-0.16256
-0.14697
-0.14315
-0.154923
-0.180635
-0.225481
-0.293043
-0.36479
-0.400416
-0.365742
-0.284755
-0.201248
-0.137354
-0.0943052
-0.0655544
-0.0459061
-0.0326394
-0.0233241
-0.0162808
-0.0110181
-0.00768879
-0.00585539
-0.0046446
-0.00355839
-0.00270987
-0.00229206
-0.00220611
-0.00228259
-0.00233649
-0.00233013
-0.00220895
-0.00197205
-0.00163196
-0.00121711
-0.000753342
-0.000245954
-0.466518
-0.422694
-0.382249
-0.328863
-0.273626
-0.222941
-0.178587
-0.141939
-0.111734
-0.087607
-0.0735097
-0.0739026
-0.084619
-0.0961927
-0.0961184
-0.0928267
-0.10043
-0.122171
-0.15568
-0.207808
-0.283844
-0.364386
-0.408925
-0.380461
-0.300029
-0.213209
-0.145685
-0.100017
-0.0694934
-0.0485075
-0.0343059
-0.0244491
-0.0170925
-0.0115577
-0.00800163
-0.00606545
-0.00485135
-0.00375925
-0.00283397
-0.00230294
-0.00213869
-0.00218555
-0.00223925
-0.00225222
-0.00215206
-0.00193509
-0.00160818
-0.00120331
-0.000746265
-0.000243575
-0.395087
-0.360537
-0.331815
-0.291342
-0.247162
-0.20407
-0.163064
-0.126251
-0.0946689
-0.0670829
-0.0443344
-0.031302
-0.0299586
-0.0354417
-0.0391828
-0.0434544
-0.0580036
-0.0859291
-0.124191
-0.178964
-0.258755
-0.349081
-0.402385
-0.386766
-0.310658
-0.222358
-0.152604
-0.105067
-0.0731802
-0.0510841
-0.0360315
-0.0256608
-0.0180145
-0.012218
-0.00841326
-0.00633371
-0.00509047
-0.00398843
-0.00299686
-0.00235998
-0.00212282
-0.00213452
-0.00218066
-0.00220045
-0.00211105
-0.00190709
-0.0015897
-0.00119256
-0.000740917
-0.000241916
-0.342747
-0.317057
-0.295356
-0.263677
-0.227925
-0.191195
-0.154406
-0.118749
-0.0861528
-0.0569602
-0.0305736
-0.00920589
0.0028713
0.00551675
-0.000941139
-0.00529337
-0.0224082
-0.0515499
-0.0900593
-0.143855
-0.222368
-0.313861
-0.379869
-0.37315
-0.308611
-0.225527
-0.15692
-0.108938
-0.0763843
-0.053548
-0.0377823
-0.0269297
-0.0190282
-0.0129947
-0.0089202
-0.00664685
-0.00534676
-0.00423629
-0.00319861
-0.00246627
-0.00214893
-0.00212453
-0.00215807
-0.00217195
-0.00208509
-0.00188795
-0.00157672
-0.00118493
-0.000737402
-0.000241029
-0.307812
-0.289341
-0.270805
-0.244026
-0.213998
-0.182115
-0.14905
-0.115548
-0.0829893
-0.0525285
-0.0242122
0.000723907
0.0210625
0.0342093
0.040484
0.0275853
0.00835609
-0.020482
-0.0563415
-0.105073
-0.180144
-0.276729
-0.350217
-0.362616
-0.306526
-0.228412
-0.161388
-0.113153
-0.0800137
-0.0564945
-0.0399633
-0.0285036
-0.0202677
-0.0139712
-0.00959186
-0.00705818
-0.00564704
-0.00449943
-0.00342131
-0.00261572
-0.00223407
-0.00215647
-0.00216508
-0.00216388
-0.00207286
-0.00187653
-0.00156876
-0.00118011
-0.000735734
-0.000240973
-0.280665
-0.270577
-0.254528
-0.231769
-0.207088
-0.180703
-0.152516
-0.122595
-0.0918128
-0.0617129
-0.032639
-0.00534637
0.0180611
0.0372042
0.0507536
0.0488541
0.0330286
0.00756243
-0.0242481
-0.0675719
-0.134434
-0.224245
-0.299995
-0.320663
-0.286803
-0.223788
-0.163241
-0.116456
-0.0830194
-0.0589714
-0.0418705
-0.0299257
-0.021373
-0.0148403
-0.0102162
-0.00748111
-0.00598169
-0.0047856
-0.00364192
-0.00275292
-0.00232098
-0.00221776
-0.00220091
-0.0021799
-0.00207993
-0.00187664
-0.00156801
-0.00117881
-0.00073622
-0.000242071
-0.248697
-0.251647
-0.235378
-0.210967
-0.185336
-0.159764
-0.133749
-0.106483
-0.0781027
-0.0500019
-0.0224171
0.00418678
0.0275544
0.0473394
0.063629
0.0681504
0.0580292
0.038911
0.0150644
-0.0215056
-0.0878288
-0.186223
-0.271092
-0.301502
-0.262343
-0.203679
-0.14989
-0.108516
-0.0785182
-0.0565699
-0.0405951
-0.0293121
-0.0211878
-0.0148642
-0.0102528
-0.0075046
-0.00610046
-0.00501584
-0.00386455
-0.0028599
-0.00230144
-0.00213655
-0.00213881
-0.00214827
-0.00206319
-0.00186669
-0.00156489
-0.00117708
-0.000736645
-0.000242835
-0.215288
-0.22148
-0.207797
-0.184467
-0.160226
-0.1371
-0.114346
-0.0905757
-0.0653652
-0.0398658
-0.0146198
0.00952936
0.0307928
0.0497291
0.0652937
0.0728916
0.0672599
0.055101
0.0397417
0.00980516
-0.0572657
-0.158443
-0.244026
-0.264936
-0.229636
-0.179925
-0.135299
-0.1003
-0.0740063
-0.0542062
-0.0394499
-0.0288111
-0.02103
-0.0149372
-0.0104413
-0.00772194
-0.00630492
-0.00520912
-0.00402824
-0.00297605
-0.00238035
-0.00221064
-0.0022035
-0.00218621
-0.00208437
-0.0018749
-0.00156759
-0.00117594
-0.000735327
-0.000241997
-0.187603
-0.194205
-0.18385
-0.163913
-0.142273
-0.121359
-0.100845
-0.0795728
-0.0568072
-0.0333699
-0.0100614
0.0126598
0.0329172
0.0506242
0.0663788
0.0750628
0.0722571
0.0647771
0.055558
0.0288068
-0.0395045
-0.134078
-0.20792
-0.222941
-0.195627
-0.157182
-0.121435
-0.0921438
-0.0693018
-0.0516209
-0.0381002
-0.028159
-0.0208047
-0.0149807
-0.0105969
-0.00789581
-0.00647229
-0.00539024
-0.00421075
-0.00312409
-0.00248736
-0.00228592
-0.00226707
-0.00223933
-0.00211668
-0.00188828
-0.00157068
-0.0011737
-0.000732312
-0.000240604
-0.163339
-0.169084
-0.161274
-0.144382
-0.124995
-0.105867
-0.0871998
-0.0681714
-0.0480599
-0.0271601
-0.00616837
0.0144194
0.0330367
0.0492526
0.0638681
0.073183
0.0726483
0.068051
0.0623919
0.0387327
-0.0227246
-0.103121
-0.16433
-0.178447
-0.160735
-0.133286
-0.106444
-0.0831913
-0.0640648
-0.0486724
-0.0365327
-0.0273767
-0.0204894
-0.0149678
-0.0107331
-0.00806889
-0.00664597
-0.00557602
-0.0043969
-0.00327904
-0.00259932
-0.0023729
-0.00234527
-0.00229887
-0.00215265
-0.0019042
-0.00157519
-0.00117248
-0.000729821
-0.000239747
-0.140617
-0.146089
-0.140298
-0.126182
-0.10926
-0.0923353
-0.0758527
-0.0592079
-0.0416735
-0.0232401
-0.00451031
0.0139862
0.031041
0.0459894
0.0593032
0.0685422
0.0697369
0.0666353
0.0617313
0.0421215
-0.00566387
-0.069312
-0.119135
-0.135633
-0.128237
-0.111388
-0.0924622
-0.0744594
-0.0586823
-0.0454666
-0.0347226
-0.0264118
-0.020051
-0.0148772
-0.0108291
-0.00822386
-0.006808
-0.00575036
-0.00457888
-0.00344264
-0.00272885
-0.0024767
-0.00243262
-0.00236461
-0.00219451
-0.0019249
-0.00158287
-0.00117335
-0.000728406
-0.000239266
-0.120583
-0.125879
-0.121498
-0.109765
-0.0952589
-0.0805119
-0.0660503
-0.0514721
-0.0361954
-0.0200901
-0.00361144
0.0127191
0.0280009
0.0415458
0.0532111
0.0618585
0.0642905
0.0622266
0.0573915
0.0421542
0.00723602
-0.0407761
-0.0808635
-0.0996415
-0.100396
-0.0914525
-0.0787941
-0.0654903
-0.0529835
-0.0419827
-0.032703
-0.0252978
-0.0195028
-0.014709
-0.0108795
-0.00835471
-0.00695508
-0.00591329
-0.00475672
-0.00361238
-0.00286997
-0.00258996
-0.00252717
-0.00243746
-0.00224308
-0.00195085
-0.0015938
-0.00117617
-0.000727733
-0.000238851
-0.103381
-0.10799
-0.104645
-0.0949973
-0.0827141
-0.0700167
-0.0574829
-0.0448743
-0.0317335
-0.0178718
-0.00361571
0.0105353
0.0239135
0.0356897
0.0460539
0.053835
0.0569323
0.0556852
0.0511177
0.0393255
0.0140455
-0.0212541
-0.0527248
-0.071519
-0.0770803
-0.0738844
-0.0663196
-0.0570013
-0.0473669
-0.0383851
-0.0305066
-0.0240187
-0.018822
-0.014443
-0.010868
-0.00845035
-0.00707944
-0.00605816
-0.00492403
-0.00378282
-0.00301934
-0.00271163
-0.00262772
-0.00251543
-0.00229657
-0.00198103
-0.00160751
-0.00118066
-0.000727668
-0.000238502
-0.0878825
-0.0919836
-0.0896052
-0.0818006
-0.0715245
-0.06074
-0.0500438
-0.0392887
-0.0281127
-0.0163373
-0.00418593
0.00791064
0.0194452
0.0297365
0.0385719
0.0453097
0.0485466
0.0479053
0.0438806
0.0345631
0.0160688
-0.00955448
-0.0332556
-0.0507067
-0.0585302
-0.0589916
-0.0550639
-0.0488807
-0.0417422
-0.0346528
-0.0281566
-0.0226049
-0.0180281
-0.0140861
-0.0107928
-0.00850557
-0.00717575
-0.00618064
-0.00507687
-0.00395014
-0.00317371
-0.00283912
-0.00273128
-0.00259579
-0.00235303
-0.00201443
-0.00162361
-0.00118669
-0.000728274
-0.000238283
-0.0741821
-0.0779714
-0.0763684
-0.0701169
-0.0616178
-0.0525756
-0.0435668
-0.0345085
-0.0251247
-0.0152617
-0.00505922
0.00512622
0.0148874
0.0236889
0.0311614
0.0368797
0.0399306
0.0397191
0.0363611
0.0289556
0.015365
-0.00324672
-0.0220488
-0.0359081
-0.043976
-0.0464439
-0.0450813
-0.0414013
-0.0363873
-0.0309689
-0.0257366
-0.0210791
-0.0171179
-0.0136253
-0.0106386
-0.00850735
-0.00723473
-0.00627412
-0.00520945
-0.00410906
-0.00332875
-0.00296976
-0.0028361
-0.00267693
-0.00241112
-0.00205024
-0.00164178
-0.00119411
-0.000729551
-0.000238164
-0.0624559
-0.0657804
-0.0647231
-0.0597862
-0.0528577
-0.045376
-0.0378851
-0.0303642
-0.0226032
-0.0144637
-0.00602873
0.00240914
0.0105166
0.0178885
0.0241418
0.0289285
0.0316508
0.031732
0.0290935
0.0233374
0.0133928
-1.08579e-05
-0.0139998
-0.025279
-0.0328068
-0.0362452
-0.0365504
-0.0346816
-0.0313359
-0.0273353
-0.0232518
-0.0194517
-0.0161014
-0.0130662
-0.010405
-0.00845153
-0.00725108
-0.00633354
-0.00531685
-0.00425475
-0.00348048
-0.00310131
-0.00294108
-0.00275806
-0.00247001
-0.00208777
-0.00166162
-0.00120266
-0.000731377
-0.000238059
-0.052188
-0.0550765
-0.0544857
-0.0506865
-0.0451316
-0.0390265
-0.0328861
-0.0267377
-0.0204172
-0.0137998
-0.00693306
-5.27094e-05
0.00656401
0.0126278
0.0177788
0.0217391
0.0240963
0.0243897
0.0224611
0.0181304
0.0109228
0.00137949
-0.00888305
-0.0178463
-0.0244267
-0.0280859
-0.0293261
-0.0287107
-0.0266729
-0.0238675
-0.0207956
-0.0177799
-0.0150077
-0.0124188
-0.0100905
-0.00833206
-0.00721826
-0.00635311
-0.00539376
-0.00438214
-0.00362496
-0.00323163
-0.00304531
-0.00283892
-0.00252929
-0.00212646
-0.00168271
-0.00121201
-0.000733545
-0.00023789
-0.0431856
-0.0457946
-0.0456027
-0.0427395
-0.0383431
-0.0334288
-0.0284681
-0.0235138
-0.018441
-0.0131481
-0.00765624
-0.00213055
0.00318857
0.00806258
0.0122441
0.0154984
0.0175147
0.0179455
0.0166398
0.0135102
0.00837396
0.00166597
-0.00579396
-0.012718
-0.0181887
-0.0216536
-0.0233577
-0.0235662
-0.0224886
-0.0206241
-0.0183991
-0.0160794
-0.0138443
-0.0116859
-0.00969339
-0.00814413
-0.00713075
-0.00632773
-0.00543532
-0.00448652
-0.0037585
-0.00335878
-0.00314797
-0.00291962
-0.00258885
-0.00216585
-0.00170457
-0.00122172
-0.000735783
-0.000237596
-0.0355035
-0.037827
-0.0379025
-0.0357884
-0.0323658
-0.0284701
-0.0245209
-0.0205911
-0.0165917
-0.0124304
-0.00811156
-0.00375701
0.000455246
0.00432669
0.00766776
0.0102836
0.011988
0.012504
0.0117059
0.00954756
0.00596558
0.00121602
-0.00406757
-0.00927257
-0.0136517
-0.0167082
-0.0185323
-0.0192026
-0.0187829
-0.0176389
-0.01611
-0.014393
-0.0126429
-0.0108873
-0.00922251
-0.00788913
-0.00698661
-0.00625448
-0.0054382
-0.00456422
-0.00387797
-0.00348116
-0.003248
-0.0030005
-0.00264865
-0.00220547
-0.00172659
-0.00123129
-0.000737753
-0.000237079
-0.0289286
-0.030963
-0.0312238
-0.0297083
-0.0270937
-0.0240618
-0.0209782
-0.0179205
-0.0148226
-0.0116081
-0.0082714
-0.00489554
-0.0016129
0.0014254
0.00405719
0.00614738
0.00754559
0.00808525
0.00767349
0.00626451
0.00380832
0.000535229
-0.00318597
-0.00701278
-0.0103999
-0.0129451
-0.0146732
-0.0155581
-0.0155669
-0.0149518
-0.0139703
-0.0127543
-0.0114272
-0.010037
-0.00868354
-0.0075668
-0.00678309
-0.00613021
-0.00539939
-0.0046122
-0.00398089
-0.00359791
-0.00334409
-0.0030822
-0.00270855
-0.00224468
-0.00174798
-0.00124005
-0.000738989
-0.000236169
-0.0232917
-0.0250533
-0.0254367
-0.0244069
-0.0224686
-0.0201609
-0.0177945
-0.015453
-0.0130955
-0.0106604
-0.00813261
-0.00556418
-0.00305245
-0.000707949
0.00134663
0.00300893
0.0041736
0.00470378
0.00454015
0.00365925
0.00202231
-0.000198531
-0.00278056
-0.00553604
-0.00807811
-0.0101106
-0.0116351
-0.0125672
-0.0128224
-0.0125699
-0.0119995
-0.011187
-0.0102202
-0.00915535
-0.00809054
-0.00718403
-0.00652223
-0.00595456
-0.00531722
-0.0046283
-0.00406552
-0.00370993
-0.00346612
-0.00316633
-0.00276804
-0.00228256
-0.0017677
-0.00124711
-0.000738881
-0.000234628
-0.0183977
-0.0199559
-0.0204563
-0.01982
-0.0184191
-0.0166905
-0.0149056
-0.0131497
-0.0113971
-0.00959568
-0.00772282
-0.005809
-0.00392348
-0.00214718
-0.000573006
0.000724502
0.00166946
0.00216464
0.0021731
0.00166763
0.000614169
-0.000856378
-0.00261404
-0.00456006
-0.00642149
-0.00799068
-0.00926556
-0.0101397
-0.010511
-0.0104914
-0.0102149
-0.00971209
-0.00904002
-0.00825639
-0.00745347
-0.00674721
-0.00620879
-0.00573112
-0.00519328
-0.00461157
-0.00412955
-0.00381203
-0.00357455
-0.00324862
-0.00282568
-0.0023177
-0.00178433
-0.0012513
-0.000736664
-0.000232153
-0.0142949
-0.0156586
-0.0161994
-0.0158359
-0.0148519
-0.013593
-0.0122833
-0.0110013
-0.00973247
-0.00843423
-0.00708106
-0.00568901
-0.00430602
-0.00298918
-0.0018079
-0.000814454
-6.23746e-05
0.000377154
0.000481359
0.000223951
-0.000425215
-0.00137032
-0.00254162
-0.00388926
-0.00521861
-0.00639242
-0.00741485
-0.00817805
-0.00858225
-0.0087011
-0.00862597
-0.00835165
-0.00791006
-0.00735807
-0.00678189
-0.00625866
-0.0058417
-0.00545979
-0.00503021
-0.00456512
-0.00417352
-0.00390171
-0.00366537
-0.00332606
-0.00287918
-0.0023481
-0.00179577
-0.00125109
-0.000731282
-0.000228587
-0.0107955
-0.0119637
-0.0125154
-0.0123673
-0.01172
-0.0108378
-0.00990505
-0.00899608
-0.00810596
-0.00720102
-0.00625528
-0.00527393
-0.004288
-0.00333698
-0.00247289
-0.00173111
-0.00114914
-0.000779279
-0.000634204
-0.000738773
-0.00112035
-0.00170916
-0.00247327
-0.0033874
-0.00431266
-0.00516603
-0.00595805
-0.00658874
-0.00697258
-0.00716035
-0.00721494
-0.00710701
-0.00684757
-0.00648733
-0.00610344
-0.00573784
-0.00542853
-0.00513805
-0.00482058
-0.00448381
-0.00419729
-0.00398073
-0.00375244
-0.00339825
-0.00292712
-0.0023716
-0.0018
-0.00124413
-0.000721598
-0.000221049
-0.00780783
-0.0088259
-0.00937355
-0.00937828
-0.00898088
-0.00838581
-0.00774519
-0.00712615
-0.00652983
-0.00592897
-0.00529759
-0.00463359
-0.00395638
-0.00329309
-0.00268257
-0.00214747
-0.00171404
-0.00142031
-0.00127214
-0.00129318
-0.00150709
-0.00186188
-0.0023508
-0.00296055
-0.00359112
-0.00419865
-0.00479732
-0.00529769
-0.00563337
-0.00584136
-0.00596491
-0.00596291
-0.00583749
-0.00563447
-0.00541946
-0.0051995
-0.00499478
-0.00479431
-0.00458404
-0.0043705
-0.00419052
-0.00403856
-0.00383444
-0.00345893
-0.0029631
-0.00238388
-0.00179446
-0.00122953
-0.000707778
-0.000223876
-0.00526023
-0.00613506
-0.00666774
-0.00677974
-0.00657165
-0.00619926
-0.00578571
-0.00539039
-0.00501846
-0.00464819
-0.00425486
-0.00383249
-0.00339243
-0.00295291
-0.0025428
-0.00217559
-0.00186994
-0.00165309
-0.00152644
-0.00151186
-0.00162834
-0.00183614
-0.0021443
-0.00254514
-0.00296712
-0.00339304
-0.0038392
-0.00422788
-0.00451166
-0.00471903
-0.00487871
-0.00494047
-0.00490261
-0.0048094
-0.00471913
-0.00461535
-0.00450948
-0.00441205
-0.00433011
-0.00425717
-0.00419
-0.00409706
-0.00386725
-0.00350298
-0.00297896
-0.00237194
-0.00176365
-0.00119217
-0.000670033
-0.000184763
-0.00310101
-0.00384539
-0.00434827
-0.00453135
-0.00446226
-0.00425762
-0.00401615
-0.00378939
-0.00358491
-0.00338599
-0.00317009
-0.00292911
-0.00266869
-0.00240082
-0.00214709
-0.0019145
-0.00171685
-0.00157301
-0.00148154
-0.00146267
-0.00153016
-0.00165335
-0.0018499
-0.0021121
-0.0023902
-0.00268524
-0.00301198
-0.00330525
-0.00353681
-0.00373003
-0.00390659
-0.0040146
-0.00405091
-0.00405383
-0.00406676
-0.0040458
-0.00400442
-0.00398131
-0.00400917
-0.00408097
-0.00414501
-0.00413243
-0.00399858
-0.00355779
-0.0030017
-0.00236898
-0.00174359
-0.00117215
-0.000665494
-0.000217061
-0.0012799
-0.00191857
-0.00237815
-0.00259912
-0.00262493
-0.00254176
-0.00242729
-0.00232479
-0.0022426
-0.00216799
-0.00208136
-0.00197381
-0.00184719
-0.00170915
-0.00157573
-0.00144947
-0.00134096
-0.00126259
-0.00121155
-0.00120634
-0.00125605
-0.00133667
-0.00147083
-0.00164785
-0.00183419
-0.00204176
-0.00228211
-0.00250096
-0.00268525
-0.00285247
-0.00302034
-0.00314061
-0.00321775
-0.00329105
-0.00339664
-0.00347112
-0.00352076
-0.00359908
-0.003743
-0.00393037
-0.00408942
-0.00413682
-0.00389932
-0.00350003
-0.00291564
-0.00225531
-0.00162032
-0.00104983
-0.000552935
-0.000124046
0.000271075
-0.000268843
-0.000687083
-0.000929173
-0.00102193
-0.00102806
-0.00100773
-0.000996358
-0.00100223
-0.00101587
-0.00102102
-0.00100944
-0.000980654
-0.000939205
-0.000896774
-0.000852893
-0.000816192
-0.000793863
-0.00078283
-0.000799364
-0.000848313
-0.000911542
-0.00101343
-0.00114029
-0.00127184
-0.00142561
-0.00160828
-0.0017762
-0.00192826
-0.00207707
-0.00223847
-0.00236544
-0.00246833
-0.00257628
-0.00271958
-0.00282501
-0.00291723
-0.0030828
-0.00337995
-0.00376734
-0.0040748
-0.00417883
-0.00407988
-0.00356686
-0.00293795
-0.00224779
-0.00160268
-0.00104732
-0.000580822
-0.000192326
0.00158358
0.00112752
0.000752082
0.000503333
0.000366175
0.00029625
0.000248231
0.000194105
0.000126308
5.16761e-05
-1.68368e-05
-7.22582e-05
-0.000113094
-0.000141808
-0.000166898
-0.000185784
-0.000205906
-0.000230097
-0.000255923
-0.000296953
-0.000354465
-0.00041527
-0.000502937
-0.000599905
-0.000697917
-0.000815894
-0.000956367
-0.00108647
-0.00121305
-0.0013444
-0.00149352
-0.00162196
-0.00175025
-0.00190493
-0.00210832
-0.00227017
-0.00242749
-0.00266159
-0.00302047
-0.00346779
-0.00385611
-0.00404321
-0.00377605
-0.00329542
-0.0026434
-0.00193922
-0.00130796
-0.000776273
-0.000350079
-3.72884e-05
0.00266069
0.00228302
0.00195474
0.00171313
0.00155091
0.00143832
0.00134273
0.00124323
0.00113351
0.00101844
0.000907866
0.000807337
0.000718718
0.000640995
0.000567885
0.000503266
0.000440189
0.000379315
0.000321583
0.000256642
0.000185517
0.000117526
3.13873e-05
-5.29457e-05
-0.000135606
-0.000233432
-0.000344093
-0.000445454
-0.000546445
-0.000652596
-0.000778704
-0.000892937
-0.00102428
-0.0011852
-0.00139617
-0.00156586
-0.00178327
-0.00216537
-0.00275707
-0.00345384
-0.00395611
-0.00412006
-0.00396564
-0.00334775
-0.00263849
-0.00190672
-0.00128779
-0.000789018
-0.000408019
-0.000131494
0.0035627
0.00324668
0.00295923
0.00272833
0.00255125
0.00240929
0.00228007
0.00214912
0.0020114
0.00187032
0.00173277
0.0016029
0.00148245
0.00137155
0.00126542
0.00116904
0.00107549
0.000988463
0.000906607
0.000823955
0.000741301
0.000665718
0.000578166
0.000499518
0.000421977
0.000333914
0.000240937
0.000153136
6.63941e-05
-2.66931e-05
-0.000133628
-0.000235534
-0.00035995
-0.000516646
-0.000735517
-0.000908189
-0.00114064
-0.00150477
-0.00208276
-0.00280345
-0.00341396
-0.0037222
-0.00334713
-0.00274715
-0.0020341
-0.00133376
-0.000779696
-0.000341142
-5.90202e-05
6.86406e-05
0.0042848
0.00402088
0.00377087
0.00355407
0.00337044
0.00320972
0.00305777
0.00290596
0.00275033
0.00259349
0.00243964
0.00229174
0.00215095
0.00201854
0.00188998
0.00177199
0.00165641
0.00155062
0.00144997
0.0013543
0.00126186
0.00118095
0.00109335
0.00102116
0.000951078
0.000877541
0.000806693
0.000738255
0.000678264
0.000607166
0.000530023
0.000440138
0.000320491
0.000171446
-2.65962e-05
-0.000198813
-0.000545955
-0.00115126
-0.0020333
-0.00295331
-0.00354134
-0.0037357
-0.00331229
-0.0026036
-0.00185963
-0.00119521
-0.000698611
-0.000326689
-0.000118829
-2.31676e-05
0.0048354
0.00461279
0.00439441
0.00419213
0.00400717
0.00383535
0.00366886
0.00350407
0.0033376
0.00317239
0.00300943
0.00285195
0.0026993
0.00255479
0.0024126
0.00228236
0.00215225
0.00203558
0.0019211
0.00181764
0.00171592
0.00163105
0.0015405
0.00147007
0.00140084
0.00133642
0.00127876
0.00122305
0.00119349
0.00114374
0.00111273
0.00106721
0.00103595
0.000946499
0.000813878
0.000731727
0.00051683
8.96687e-05
-0.000754142
-0.00177726
-0.00253048
-0.00251215
-0.00222667
-0.0016419
-0.000972204
-0.000427642
-4.58217e-05
0.00021692
0.000264363
0.000175561
0.00521759
0.00502408
0.0048291
0.00463859
0.00445456
0.00427653
0.00410122
0.00392888
0.0037559
0.00358683
0.00341884
0.0032566
0.00309761
0.00294647
0.00279661
0.00266091
0.00252158
0.00240175
0.00227952
0.00217488
0.00207029
0.00198888
0.00189727
0.00183697
0.00177287
0.00171955
0.0016764
0.00163861
0.00162882
0.00159279
0.00159931
0.00156319
0.00155931
0.00149466
0.00143996
0.00137878
0.00107708
0.000343701
-0.000717371
-0.0016666
-0.00227611
-0.00213947
-0.00168615
-0.00111411
-0.000539951
-0.000148842
0.000125196
0.000270794
0.000231531
0.000117894
0.00542069
0.00524326
0.00506088
0.00487769
0.00469432
0.00451376
0.00433403
0.00415822
0.00398194
0.00381225
0.00364043
0.00347899
0.00331416
0.00316313
0.0030075
0.00287113
0.00272539
0.0026085
0.00247617
0.00237814
0.00226619
0.00218831
0.00209751
0.00204256
0.00198331
0.001939
0.00192182
0.00189577
0.00192989
0.00191346
0.002012
0.00204287
0.00215585
0.00219029
0.00240313
0.00270037
0.0028429
0.00230299
0.00100561
-0.000294365
-0.00100714
-0.00109782
-0.000793583
-0.000312354
0.000157344
0.000407511
0.000596616
0.000627881
0.000464255
0.000229245
-0.130632
-0.141661
-0.152247
-0.16223
-0.173036
-0.182741
-0.194269
-0.203321
-0.216664
-0.229143
-0.118257
-0.127437
-0.136458
-0.1447
-0.154158
-0.161822
-0.170921
-0.177276
-0.185987
-0.196002
-0.106275
-0.113658
-0.120965
-0.127552
-0.135052
-0.140855
-0.14693
-0.152037
-0.159143
-0.169814
-0.0951087
-0.100972
-0.106675
-0.11193
-0.117586
-0.122321
-0.127606
-0.133661
-0.140637
-0.149884
-0.0845682
-0.0892104
-0.0936177
-0.0979774
-0.10255
-0.107321
-0.112555
-0.118047
-0.123126
-0.129711
-0.0748383
-0.0785267
-0.0819739
-0.0857287
-0.0897035
-0.0940552
-0.0978618
-0.101375
-0.104937
-0.110671
-0.0658255
-0.0687589
-0.0714782
-0.0745977
-0.077713
-0.0807946
-0.0831925
-0.0860683
-0.0897041
-0.0950804
-0.0574848
-0.0597771
-0.0618425
-0.0641937
-0.0664108
-0.068687
-0.0710047
-0.0739606
-0.0771064
-0.0812543
-0.049767
-0.0515037
-0.0530223
-0.0547685
-0.0565429
-0.058664
-0.0608364
-0.0630568
-0.065201
-0.0684927
-0.0426707
-0.0439767
-0.0451267
-0.0465196
-0.0480526
-0.0497913
-0.0512984
-0.0527919
-0.0546021
-0.057637
-0.0362182
-0.0372102
-0.0381069
-0.0392093
-0.0403859
-0.0416164
-0.0427305
-0.0440801
-0.045781
-0.0483106
-0.0303914
-0.0311364
-0.0318125
-0.032632
-0.0335037
-0.034476
-0.035486
-0.0366776
-0.0380124
-0.03996
-0.0251438
-0.0256916
-0.0261881
-0.0268025
-0.0274994
-0.0283216
-0.029161
-0.0300677
-0.0310974
-0.0327463
-0.0204416
-0.0208446
-0.0212175
-0.0217014
-0.022277
-0.0229417
-0.0235891
-0.0242944
-0.0251807
-0.0266161
-0.0162607
-0.0165704
-0.0168676
-0.0172572
-0.0177129
-0.01822
-0.0187318
-0.0193484
-0.0201557
-0.021375
-0.0125661
-0.0128154
-0.0130534
-0.0133562
-0.013715
-0.0141409
-0.0146158
-0.0151775
-0.0158417
-0.0168152
-0.00930689
-0.00951983
-0.00972301
-0.00998219
-0.0103038
-0.0106869
-0.0110917
-0.0115324
-0.0120712
-0.0129205
-0.00645338
-0.00665396
-0.00684561
-0.00707886
-0.00735645
-0.00767066
-0.00800403
-0.00839147
-0.0088941
-0.0096467
-0.00396605
-0.00416437
-0.00434941
-0.00456087
-0.00480734
-0.00509004
-0.00540373
-0.00576682
-0.00621372
-0.00684757
-0.00180643
-0.00201004
-0.00219882
-0.00240518
-0.00263985
-0.00290316
-0.00318989
-0.00351148
-0.00390199
-0.00444794
5.48369e-05
-0.000158416
-0.000355903
-0.000562094
-0.000786929
-0.00103161
-0.00129593
-0.00159073
-0.00194426
-0.00241883
0.00164966
0.00142697
0.00122011
0.00101112
0.000790638
0.000556044
0.000305044
2.9843e-05
-0.000291069
-0.000703877
0.00300674
0.00277619
0.00256026
0.00234657
0.00212736
0.00189978
0.00166059
0.00140398
0.00111317
0.000754454
0.0041512
0.00391518
0.00369195
0.00347383
0.00325495
0.0030326
0.00280324
0.0025626
0.00229813
0.00198642