/*--------------------------------*- C++ -*----------------------------------*\
| =========                 |                                                 |
| \\      /  F ield         | OpenFOAM: The Open Source CFD Toolbox           |
|  \\    /   O peration     | Version:  2512                                  |
|   \\  /    A nd           | Website:  www.openfoam.com                      |
|    \\/     M anipulation  |                                                 |
\*---------------------------------------------------------------------------*/
FoamFile
{
    version     2.0;
    format      ascii;
    arch        "LSB;label=32;scalar=64";
    class       surfaceScalarField;
    location    "70";
    object      phi;
}
// * * * * * * * * * * * * * * * * * * * * * * * * * * * * * * * * * * * * * //

dimensions      [0 3 -1 0 0 0 0];

oriented        oriented;

internalField   nonuniform List<scalar> 
26232
(
0.000234709
0.00121576
-0.00145047
0.000805099
0.00201875
-0.00258914
0.00182576
0.00139313
-0.00241379
0.00354997
-0.00057517
-0.00114905
0.00630613
-0.00390453
0.00114837
0.0104341
-0.00867105
0.00454305
0.0162341
-0.0149463
0.00914632
0.023874
-0.0226747
0.0150348
0.0333034
-0.0316012
0.0221717
0.0442122
-0.0412692
0.0303605
0.0560606
-0.051093
0.0392445
0.0681755
-0.0604698
0.0483549
0.0798777
-0.0688897
0.0571876
0.0906035
-0.0760128
0.065287
0.0999902
-0.0816995
0.0723127
0.107915
-0.0860021
0.0780777
0.114477
-0.0891136
0.0825511
0.119949
-0.0913166
0.0858444
0.124714
-0.092899
0.0881347
0.129152
-0.0941559
0.089718
0.133623
-0.0952345
0.0907635
0.13845
-0.0964099
0.0915821
0.14358
-0.0975786
0.0924487
-0.0988974
0.0932283
0.149249
0.000237085
0.000978676
0.000993395
0.00126244
0.00245967
-7.31439e-05
0.00496949
-0.003085
0.00889259
-0.00782762
0.0145957
-0.0143741
0.0222906
-0.0226413
0.0319069
-0.0322909
0.0430328
-0.0427272
0.0549744
-0.0532108
0.0669055
-0.0630241
0.0780493
-0.0716136
0.0878308
-0.0786712
0.0959647
-0.0841467
0.102469
-0.0882043
0.107611
-0.0911432
0.111805
-0.0933085
0.115512
-0.0950234
0.119139
-0.0965254
0.122985
-0.098002
0.127246
-0.0994956
0.132001
-0.101165
0.13724
-0.102817
-0.104828
0.143171
0.000229613
0.000749063
0.00117312
0.000318928
0.00316673
-0.00206675
0.00660379
-0.00652205
0.0119109
-0.0131347
0.0193538
-0.021817
0.0288572
-0.0321447
0.0399161
-0.0433498
0.0516852
-0.0544962
0.0632003
-0.0647259
0.0736223
-0.073446
0.0824145
-0.0804058
0.0894143
-0.0856711
0.0947985
-0.0895309
0.0989708
-0.0923766
0.102419
-0.0945911
0.10559
-0.0964796
0.108808
-0.0982412
0.11227
-0.0999873
0.116044
-0.101777
0.120159
-0.10361
0.124565
-0.105571
0.129274
-0.107526
-0.109785
0.134231
0.000262924
0.000486139
0.00149385
-0.000911998
0.00415846
-0.00473136
0.00873704
-0.0111006
0.015578
-0.0199757
0.0246467
-0.0308857
0.0353804
-0.0428784
0.0468
-0.0547694
0.0578159
-0.0655121
0.0675449
-0.0744549
0.0755062
-0.0814074
0.0816575
-0.0865571
0.0862971
-0.0903106
0.0898962
-0.09313
0.0929313
-0.0954118
0.0957743
-0.0974341
0.0986535
-0.0993588
0.101681
-0.101268
0.104896
-0.103203
0.108309
-0.10519
0.111943
-0.107244
0.115805
-0.109433
0.119938
-0.11166
-0.114199
0.124352
0.00036345
0.000122689
0.00202277
-0.00257132
0.00555105
-0.00825963
0.0114139
-0.0169635
0.0196932
-0.0282551
0.0298441
-0.0410365
0.0407862
-0.0538206
0.0513021
-0.0652853
0.0604488
-0.0746589
0.0677773
-0.0817834
0.0733254
-0.0869555
0.0774579
-0.0906895
0.0806577
-0.0935104
0.0833586
-0.0958309
0.0858656
-0.0979188
0.0883546
-0.099923
0.0909155
-0.10192
0.0935968
-0.10395
0.0964352
-0.106041
0.0994604
-0.108216
0.102706
-0.11049
0.106167
-0.112894
0.109868
-0.115361
-0.118109
0.113778
0.000534002
-0.000411313
0.00276293
-0.00480025
0.00729003
-0.0127867
0.0143972
-0.0240707
0.0236807
-0.0375385
0.034028
-0.0513838
0.044085
-0.0638776
0.0528017
-0.074002
0.0597029
-0.0815601
0.0648509
-0.0869313
0.0686323
-0.0907368
0.0715213
-0.0935785
0.0739201
-0.0959092
0.0761023
-0.0980132
0.0782296
-0.100046
0.080393
-0.102086
0.0826472
-0.104174
0.0850277
-0.10633
0.0875564
-0.10857
0.0902426
-0.110902
0.0930891
-0.113336
0.0960773
-0.115882
0.0992362
-0.118519
-0.12137
0.102497
0.000762471
-0.00117378
0.00366022
-0.007698
0.00920031
-0.0183268
0.017267
-0.0321374
0.0268516
-0.0471231
0.0364759
-0.0610082
0.0449125
-0.0723142
0.0515754
-0.0806649
0.0564867
-0.0864714
0.0600231
-0.0904677
0.0626518
-0.0933655
0.0647672
-0.095694
0.0666394
-0.0977814
0.0684301
-0.0998039
0.0702297
-0.101846
0.0720868
-0.103944
0.0740267
-0.106114
0.0760622
-0.108366
0.0782002
-0.110708
0.0804473
-0.113149
0.0828089
-0.115698
0.0852864
-0.118359
0.0878947
-0.121128
-0.124063
0.0905879
0.00103179
-0.00220558
0.00463195
-0.0112982
0.0110423
-0.0247372
0.0195688
-0.0406639
0.0286992
-0.0562535
0.036962
-0.069271
0.0435516
-0.0789038
0.0483714
-0.0854847
0.0517572
-0.0898571
0.054175
-0.0928856
0.0560325
-0.0952229
0.0576124
-0.0972739
0.0590828
-0.0992518
0.0605327
-0.101254
0.0620057
-0.103319
0.063523
-0.105461
0.0650985
-0.107689
0.0667437
-0.110011
0.0684707
-0.112435
0.0702886
-0.114967
0.072201
-0.11761
0.0742027
-0.120361
0.0762958
-0.123221
-0.126202
0.0784349
0.0013226
-0.00352818
0.00557908
-0.0155546
0.0125619
-0.03172
0.02096
-0.049062
0.0290577
-0.0643512
0.0357048
-0.075918
0.040577
-0.0837761
0.0439189
-0.0888265
0.0461898
-0.092128
0.047823
-0.0945188
0.0491277
-0.0965276
0.0502866
-0.0984328
0.0513937
-0.100359
0.0524936
-0.102354
0.0536092
-0.104434
0.0547555
-0.106607
0.0559448
-0.108879
0.0571871
-0.111253
0.0584889
-0.113736
0.059853
-0.116331
0.0612781
-0.119035
0.0627636
-0.121847
0.0643098
-0.124767
-0.127789
0.0658959
0.00161122
-0.0051394
0.00639262
-0.020336
0.0135479
-0.0388752
0.0213005
-0.0568146
0.0280599
-0.0711107
0.0331227
-0.0809807
0.0365476
-0.087201
0.0387558
-0.0910348
0.04021
-0.0935822
0.0412597
-0.0955685
0.0421161
-0.097384
0.0428882
-0.0992049
0.0436273
-0.101098
0.0443584
-0.103085
0.0450962
-0.105172
0.0458511
-0.107362
0.0466312
-0.109659
0.0474436
-0.112066
0.0482941
-0.114587
0.0491868
-0.117223
0.0501235
-0.119972
0.051105
-0.122828
0.0521286
-0.125791
-0.128847
0.0531874
0.00187068
-0.00701008
0.00697115
-0.0254365
0.0138848
-0.0457889
0.0206444
-0.0635742
0.0259928
-0.076459
0.029644
-0.084632
0.0319031
-0.0894601
0.0332455
-0.0923772
0.0340736
-0.0944103
0.0346444
-0.0961392
0.0350934
-0.097833
0.0354839
-0.0995954
0.0358444
-0.101458
0.0361895
-0.10343
0.0365286
-0.105511
0.0368698
-0.107703
0.0372206
-0.11001
0.0375882
-0.112433
0.037978
-0.114977
0.0383929
-0.117638
0.0388332
-0.120412
0.0392976
-0.123292
0.0397814
-0.126274
-0.12935
0.0402845
0.00207797
-0.00908806
0.00724928
-0.0306078
0.0135772
-0.0521168
0.0191734
-0.0691704
0.0231807
-0.0804663
0.0256339
-0.0870852
0.0269634
-0.0907896
0.0276227
-0.0930365
0.0279327
-0.0947203
0.0280718
-0.0962784
0.0281237
-0.0978849
0.0281244
-0.099596
0.0280901
-0.101424
0.0280306
-0.10337
0.0279535
-0.105434
0.0278654
-0.107615
0.0277725
-0.109917
0.0276799
-0.112341
0.0275917
-0.114889
0.0275111
-0.117558
0.0274411
-0.120342
0.0273831
-0.123234
0.0273339
-0.126225
0.0272996
-0.129316
-0.000182534
-0.00440787
0.0045904
-0.000883897
-0.0113913
0.0120927
-0.00219099
-0.0163604
0.0176674
-0.0040474
-0.0195909
0.0214473
-0.00631331
-0.0217937
0.0240596
-0.00884388
-0.0236783
0.0262089
-0.0115286
-0.0256909
0.0283757
-0.0142884
-0.0279946
0.0307544
-0.0170511
-0.0305706
0.0333333
-0.0197293
-0.0333141
0.0359924
-0.022209
-0.0360809
0.0385607
-0.0243481
-0.0386994
0.0408384
-0.0259817
-0.0409735
0.0426071
-0.0269336
-0.0426892
0.0436411
-0.02703
-0.043626
0.0437224
-0.0261153
-0.0435731
0.0426584
-0.0240812
-0.0423407
0.0403066
-0.0208749
-0.0397761
0.0365697
-0.0164958
-0.0357681
0.031389
-0.0110229
-0.030257
0.0247842
-0.00458539
-0.0232135
0.016776
0.00262311
-0.014594
0.00738545
0.0102683
-0.00436597
-0.00327922
0.00701471
0.0186048
-0.0153512
-0.000487851
-0.00392002
-0.00177734
-0.0101018
-0.00375964
-0.014378
-0.00629145
-0.0170591
-0.00922993
-0.0188552
-0.0124704
-0.0204378
-0.0159519
-0.0222094
-0.0196371
-0.0243095
-0.0234858
-0.0267219
-0.0274362
-0.0293637
-0.031395
-0.0321221
-0.0352344
-0.03486
-0.0387935
-0.0374144
-0.0418841
-0.0395986
-0.044302
-0.0412082
-0.0458432
-0.0420318
-0.0463216
-0.0418622
-0.0455883
-0.0405095
-0.0435473
-0.037809
-0.0401701
-0.0336343
-0.0354823
-0.0279013
-0.0295256
-0.0205507
-0.0223968
-0.0114947
-0.000650996
-0.0147311
-0.000738444
-0.00318157
-0.00248158
-0.00835869
-0.00495175
-0.0119079
-0.00794024
-0.0140706
-0.0113085
-0.015487
-0.0149856
-0.0167607
-0.018947
-0.0182481
-0.0231843
-0.0200722
-0.0276815
-0.0222246
-0.0324013
-0.0246439
-0.0372773
-0.0272462
-0.0422103
-0.029927
-0.0470662
-0.0325585
-0.0516768
-0.034988
-0.0558444
-0.0370406
-0.0593511
-0.0385252
-0.0619709
-0.0392425
-0.0634863
-0.038994
-0.0637057
-0.0375896
-0.0624831
-0.0348569
-0.0597282
-0.0306562
-0.0554048
-0.0248742
-0.0495427
-0.0173568
-0.00786809
-0.0423256
-0.000908056
-0.00227351
-0.00294216
-0.00632459
-0.00569928
-0.00915075
-0.00892438
-0.0108455
-0.012481
-0.0119303
-0.0163172
-0.0129245
-0.0204238
-0.0141414
-0.024801
-0.015695
-0.0294385
-0.0175871
-0.0343077
-0.0197747
-0.0393587
-0.0221952
-0.0445186
-0.0247671
-0.0496901
-0.027387
-0.0547499
-0.0299282
-0.0595477
-0.0322429
-0.0639065
-0.0341663
-0.0676263
-0.0355227
-0.0704885
-0.0361318
-0.0722637
-0.0358144
-0.0727288
-0.0343918
-0.0717028
-0.0316822
-0.069051
-0.0275259
-0.0646104
-0.0217973
-0.0144413
-0.0580372
-0.000981821
-0.00129169
-0.00313305
-0.00417335
-0.00597762
-0.00630619
-0.00923025
-0.00759283
-0.0127519
-0.00840872
-0.0164953
-0.0091811
-0.0204513
-0.0101854
-0.0246117
-0.0115345
-0.0289529
-0.0132459
-0.0334315
-0.0152961
-0.0379864
-0.0176404
-0.042541
-0.0202124
-0.0470072
-0.0229208
-0.0512876
-0.0256479
-0.055277
-0.0282534
-0.0588612
-0.0305821
-0.0619118
-0.0324721
-0.0642832
-0.0337604
-0.0658014
-0.0342962
-0.0662513
-0.0339419
-0.0653784
-0.0325551
-0.0629782
-0.0299262
-0.0589296
-0.0258459
-0.0210151
-0.0523558
-0.000955392
-0.000336301
-0.00304942
-0.00207932
-0.00578631
-0.0035693
-0.00886388
-0.00451527
-0.0121341
-0.00513851
-0.0155423
-0.00577284
-0.0190676
-0.00666022
-0.0226835
-0.00791861
-0.0263432
-0.00958618
-0.0299772
-0.0116621
-0.0334971
-0.0141205
-0.0368017
-0.0169078
-0.0397844
-0.0199381
-0.0423404
-0.0230918
-0.0443734
-0.0262204
-0.0457964
-0.0291591
-0.0465307
-0.0317379
-0.0465067
-0.0337844
-0.0456434
-0.0351595
-0.0438358
-0.0357495
-0.0409739
-0.035417
-0.0364067
-0.0344934
-0.0306976
-0.0315551
-0.0293212
-0.0223915
-0.000835612
0.00049931
-0.00270558
-0.000209352
-0.00514547
-0.00112941
-0.00784584
-0.00181489
-0.0106427
-0.00234168
-0.0134588
-0.00295675
-0.0162475
-0.00387151
-0.0189537
-0.00521239
-0.0214991
-0.00704081
-0.0237816
-0.00937959
-0.0256827
-0.0122194
-0.0270771
-0.0155134
-0.0278428
-0.0191724
-0.0278729
-0.0230617
-0.0270833
-0.02701
-0.0254146
-0.0308278
-0.0228072
-0.0343453
-0.0192495
-0.0373422
-0.0147354
-0.0396736
-0.00916911
-0.0413158
-0.00260648
-0.0419796
0.0051305
-0.0422303
0.0144151
-0.0408397
-0.040586
0.0256799
-0.00064059
0.0011399
-0.00214396
0.00129402
-0.00411222
0.000838843
-0.00623943
0.000312321
-0.00834362
-0.000237493
-0.0103056
-0.000994766
-0.012039
-0.00213811
-0.0134482
-0.00380316
-0.0144166
-0.00607241
-0.0148074
-0.00898878
-0.0144765
-0.0125503
-0.013287
-0.0167029
-0.0111231
-0.0213363
-0.00790039
-0.0262843
-0.00357459
-0.0313358
0.0018609
-0.0362633
0.00832445
-0.0408088
0.0157987
-0.0448165
0.0242515
-0.0481263
0.0336595
-0.0507238
0.0439392
-0.0522593
0.0554856
-0.0537767
0.06768
-0.0530341
-0.0549866
0.0820806
-0.000395861
0.00153576
-0.00142651
0.00232467
-0.00279276
0.00220509
-0.00420795
0.0017275
-0.00544083
0.000995386
-0.00633567
-9.99243e-05
-0.00676627
-0.00170752
-0.00658706
-0.00398236
-0.00565001
-0.00700946
-0.00379245
-0.0108463
-0.000865278
-0.0154775
0.0032481
-0.0208163
0.00861191
-0.0267001
0.0152266
-0.0328991
0.0230319
-0.0391411
0.0319143
-0.0451457
0.0417507
-0.0506451
0.0523813
-0.0554471
0.0636917
-0.0594368
0.0755367
-0.0625688
0.0880245
-0.0647471
0.100907
-0.0666593
0.114666
-0.0667932
-0.0690158
0.128695
-0.000151142
0.0016869
-0.000675329
0.00284886
-0.00137208
0.00290185
-0.00197527
0.00233069
-0.00224439
0.00126451
-0.00197698
-0.00036734
-0.000984621
-0.00269987
0.000906819
-0.0058738
0.00388731
-0.00998995
0.00810757
-0.0150666
0.0136764
-0.0210463
0.0206307
-0.0277707
0.0289163
-0.0349857
0.0383861
-0.0423689
0.0488165
-0.0495714
0.0599444
-0.0562737
0.0715045
-0.0622053
0.0832722
-0.0672148
0.0950657
-0.0712302
0.106742
-0.0742447
0.118454
-0.0764593
0.129724
-0.0779299
0.141656
-0.0787244
-0.080069
0.152709
5.25364e-05
0.00163437
-3.35589e-06
0.00290475
-4.82146e-05
0.00294671
0.000158142
0.00212433
0.000876491
0.000546166
0.00234976
-0.00184061
0.00481129
-0.0051614
0.00847616
-0.00953867
0.0135218
-0.0150356
0.0200654
-0.0216102
0.0281127
-0.0290936
0.0375341
-0.0371921
0.0480689
-0.0455204
0.0593579
-0.0536578
0.0709975
-0.061211
0.0825964
-0.0678726
0.0938321
-0.073441
0.104488
-0.0778705
0.114433
-0.0811752
0.123716
-0.0835278
0.132389
-0.085132
0.140514
-0.0860548
0.148635
-0.0868462
-0.0871059
0.155672
0.000183898
0.000499507
0.00103243
0.00200771
0.00370225
0.00640469
0.0103896
0.0158857
0.0230219
0.0317722
0.0419231
0.0530859
0.064753
0.0763822
0.0874839
0.0976891
0.106799
0.114773
0.121733
0.127923
0.133554
0.139081
0.144684
0.150806
0.0302323
0.0296589
-0.0412864
0.0404169
0.0589668
-0.0691514
0.0518025
0.0872083
-0.0985939
0.0631087
0.114348
-0.125654
0.0737676
0.136119
-0.146777
0.0831525
0.150358
-0.159743
0.0907233
0.156763
-0.164334
0.0946186
0.158336
-0.162231
0.0932095
0.161271
-0.159862
0.0889974
0.167731
-0.163519
0.0882002
0.169725
-0.168927
0.0953084
0.15412
-0.161228
0.108378
0.115561
-0.12863
0.122686
0.0579898
-0.0722984
0.136032
-0.0126929
-0.000652536
0.147424
-0.0858657
0.0744738
0.15581
-0.145567
0.13718
0.160609
-0.180593
0.175795
0.161561
-0.193405
0.192453
0.159961
-0.195735
0.197334
0.15802
-0.193635
0.195575
0.155292
-0.190144
0.192872
0.149431
-0.196407
0.202267
0.140391
-0.216372
0.225413
0.131074
-0.228877
0.238195
0.124562
-0.201662
0.208174
0.122746
-0.1242
0.126017
0.126119
-0.0150641
0.0116904
0.132513
0.092667
-0.0990607
0.140621
0.170339
-0.178447
0.148459
0.209076
-0.216915
0.152832
0.228383
-0.232755
0.151009
0.250473
-0.248651
0.142845
0.275466
-0.267301
0.131477
0.280881
-0.269513
0.121801
0.244667
-0.234992
0.117307
0.155051
-0.150557
0.118497
0.0285607
-0.0297504
0.124285
-0.0988951
0.0931074
0.132649
-0.189699
0.181335
0.13677
-0.228689
0.224568
0.130949
-0.247161
0.252983
0.119197
-0.260176
0.271928
0.109967
-0.253577
0.262807
0.10926
-0.176868
0.177575
0.119026
-0.0761981
0.0664324
0.132205
0.0266962
-0.0398759
0.138909
0.0994085
-0.106112
0.136329
0.211396
-0.208817
0.132558
0.3232
-0.319428
0.132685
0.336587
-0.336714
0.135134
0.205408
-0.207857
0.135752
-0.0585612
0.0579432
0.132515
-0.246602
0.24984
0.128179
-0.371107
0.375442
0.120821
-0.256747
0.264105
0.114405
-0.0851443
0.0915597
0.109537
0.100015
-0.0951468
0.10374
0.252813
-0.247016
0.0974206
-0.0937682
-0.000478765
0.0154065
0.015129
0.0433591
0.031392
0.0709452
0.0472747
0.0984648
0.0627819
0.120611
0.0765281
0.136612
0.086913
0.146378
0.0921546
0.153095
0.0929523
0.160473
0.093751
0.166933
0.100006
0.16347
0.11289
0.141235
0.127955
0.100496
0.141151
0.0447937
0.151906
-0.0234474
0.15992
-0.0938802
0.164241
-0.149888
0.164966
-0.181318
0.162643
-0.191083
0.158325
-0.191416
0.1541
-0.18941
0.14965
-0.185693
0.142011
-0.188768
0.130869
-0.205231
0.120104
-0.218112
0.113749
-0.195307
0.113255
-0.123707
0.118751
-0.02056
0.128075
0.0833434
0.139064
0.159351
0.149528
0.198611
0.156267
0.221645
0.156684
0.250055
0.150423
0.281727
0.140227
0.291077
0.130677
0.254217
0.125002
0.160726
0.123738
0.0298244
0.126265
-0.101422
0.132267
-0.195701
0.136115
-0.232537
0.130497
-0.241543
0.118487
-0.248165
0.109738
-0.244829
0.110505
-0.177635
0.120791
-0.0864843
0.133187
0.0143006
0.139153
0.0934418
0.136992
0.213557
0.13409
0.326102
0.134441
0.336237
0.136135
0.203713
0.135577
-0.0580029
0.131349
-0.242374
0.126851
-0.36661
0.119989
-0.249884
0.11411
-0.0792655
0.109693
0.104432
0.102952
0.259554
0.102199
-0.0256739
-0.00124528
-0.00765135
0.0253366
0.0119026
0.0513913
0.0317632
0.0786043
0.0507845
0.10159
0.0672515
0.120145
0.079565
0.134065
0.0871924
0.145467
0.0924312
0.155234
0.0997719
0.159592
0.112712
0.150529
0.129713
0.124235
0.145563
0.0846471
0.157317
0.0330397
0.165607
-0.031738
0.170659
-0.098932
0.171404
-0.150633
0.1684
-0.178314
0.163242
-0.185925
0.156721
-0.184895
0.150447
-0.183137
0.144675
-0.179921
0.136066
-0.180159
0.123298
-0.192463
0.110805
-0.205619
0.104122
-0.188624
0.104954
-0.124538
0.112339
-0.0279449
0.124049
0.0716329
0.137669
0.14573
0.150711
0.18557
0.15999
0.212366
0.163049
0.246996
0.159218
0.285557
0.150479
0.299817
0.140954
0.263743
0.133863
0.167817
0.130071
0.0336162
0.12928
-0.100631
0.132438
-0.198859
0.135891
-0.23599
0.130972
-0.236625
0.118859
-0.236052
0.110148
-0.236118
0.111973
-0.17946
0.122592
-0.0971026
0.134241
0.002651
0.13964
0.0880429
0.137969
0.215228
0.135839
0.328232
0.136419
0.335657
0.137453
0.202679
0.135794
-0.0563431
0.130624
-0.237204
0.125947
-0.361933
0.119614
-0.243551
0.114264
-0.0739164
0.110256
0.108441
0.102556
0.267254
0.108263
-0.0437702
-0.0155123
-0.0253775
0.0069438
-0.00608144
0.0320953
0.0153999
0.0571229
0.0360466
0.0809436
0.0546401
0.101551
0.0697819
0.118923
0.0818471
0.133402
0.0931627
0.143919
0.107082
0.145673
0.12509
0.13252
0.144197
0.105128
0.159898
0.0689462
0.17079
0.0221479
0.177586
-0.0385343
0.18001
-0.101356
0.177357
-0.14798
0.170929
-0.171886
0.163201
-0.178196
0.154971
-0.176666
0.147008
-0.175174
0.140022
-0.172935
0.131143
-0.17128
0.117773
-0.179092
0.103734
-0.19158
0.095989
-0.180879
0.0973044
-0.125854
0.106116
-0.0367568
0.120005
0.057744
0.136032
0.129703
0.151507
0.170095
0.163565
0.200308
0.169832
0.240729
0.168854
0.286536
0.161649
0.307021
0.152027
0.273365
0.14345
0.176394
0.137262
0.0398046
0.133345
-0.0967144
0.133281
-0.198796
0.135902
-0.23861
0.132058
-0.23278
0.120159
-0.224153
0.111003
-0.226962
0.113341
-0.181798
0.124251
-0.108012
0.135311
-0.00840912
0.140317
0.0830365
0.139178
0.216368
0.137755
0.329654
0.138571
0.334841
0.139061
0.202188
0.136403
-0.0536848
0.130343
-0.231144
0.125417
-0.357007
0.119596
-0.237729
0.114812
-0.0691323
0.111206
0.112047
0.102582
0.275877
0.115532
-0.0441006
-0.0237674
-0.0305046
-0.0066522
-0.0139555
0.0155462
0.00469779
0.0384696
0.0253373
0.060304
0.0453398
0.0815486
0.0637788
0.100484
0.0808174
0.116363
0.0978181
0.126918
0.116677
0.126814
0.137354
0.111844
0.156547
0.0859345
0.171284
0.0542086
0.181469
0.0119636
0.187193
-0.0442588
0.187252
-0.101414
0.181556
-0.142285
0.17225
-0.162579
0.162401
-0.168348
0.152976
-0.16724
0.143923
-0.166121
0.136028
-0.165039
0.127269
-0.162521
0.114135
-0.165958
0.099014
-0.176459
0.0896963
-0.171562
0.0906348
-0.126792
0.100323
-0.0464446
0.115873
0.0421941
0.133807
0.111768
0.151413
0.15249
0.1663
0.18542
0.176107
0.230922
0.178704
0.283939
0.173781
0.311944
0.164048
0.283098
0.153685
0.186758
0.145019
0.0484705
0.138236
-0.0899317
0.134814
-0.195374
0.136042
-0.239839
0.133445
-0.230183
0.122198
-0.212907
0.112239
-0.217002
0.114439
-0.183999
0.12559
-0.119163
0.136344
-0.0191629
0.141163
0.0782175
0.140596
0.216935
0.13981
0.330439
0.140876
0.333775
0.140922
0.202142
0.137397
-0.0501597
0.1305
-0.224247
0.125223
-0.35173
0.119924
-0.23243
0.115691
-0.0648994
0.112523
0.115215
0.103049
0.285352
0.123885
-0.020609
-0.0255499
-0.0144594
-0.0128018
-0.00366513
0.00475192
0.0114492
0.0233553
0.0289312
0.0428221
0.0482465
0.0622333
0.0682211
0.0805093
0.0883354
0.0962492
0.108713
0.10654
0.129807
0.10572
0.150498
0.0911525
0.167954
0.0684792
0.180976
0.0411864
0.190249
0.00269038
0.194649
-0.0486589
0.192319
-0.0990849
0.18397
-0.133935
0.172458
-0.151066
0.160994
-0.156884
0.150757
-0.157003
0.141037
-0.156401
0.132396
-0.156399
0.124031
-0.154156
0.112051
-0.153978
0.0967191
-0.161127
0.0856022
-0.160445
0.0852558
-0.126446
0.094998
-0.0561868
0.111509
0.0256833
0.130759
0.0925184
0.150073
0.133176
0.16762
0.167873
0.181215
0.217328
0.18774
0.277413
0.185413
0.314271
0.175952
0.292559
0.163942
0.198767
0.152978
0.0594346
0.143678
-0.0806314
0.136994
-0.188691
0.136212
-0.239056
0.134762
-0.228733
0.12469
-0.202835
0.113777
-0.206089
0.115155
-0.185377
0.126493
-0.130501
0.137272
-0.0299421
0.142128
0.0733617
0.142155
0.216908
0.141945
0.33065
0.143277
0.332443
0.142995
0.202425
0.138751
-0.0459161
0.13108
-0.216576
0.125346
-0.345995
0.120557
-0.227641
0.116837
-0.0611795
0.114176
0.117876
0.103964
0.295563
0.133238
0.0223688
-0.0222388
0.0221818
-0.0126148
0.0275531
-0.000619354
0.0364928
0.0144155
0.0492859
0.030029
0.0652798
0.0462394
0.0838467
0.0619423
0.104033
0.0760629
0.124871
0.0857022
0.145433
0.0851585
0.163867
0.0727185
0.17838
0.0539659
0.189401
0.0301659
0.197603
-0.00551159
0.200222
-0.0512787
0.195286
-0.0941485
0.184499
-0.123149
0.171386
-0.137954
0.158848
-0.144345
0.148124
-0.14628
0.138276
-0.146553
0.129145
-0.147268
0.121032
-0.146043
0.110754
-0.1437
0.0963873
-0.14676
0.083887
-0.147944
0.0814756
-0.124034
0.0903255
-0.0650367
0.106955
0.00905326
0.126827
0.0726464
0.147236
0.112768
0.167041
0.148067
0.18439
0.199979
0.195361
0.266442
0.196721
0.312911
0.188601
0.300679
0.17482
0.212549
0.16111
0.0731444
0.149427
-0.0689488
0.13973
-0.178994
0.136413
-0.235739
0.135722
-0.228043
0.127312
-0.194425
0.115554
-0.194332
0.115442
-0.185265
0.126822
-0.141881
0.138031
-0.041151
0.143211
0.0681814
0.143886
0.216232
0.144162
0.330373
0.145765
0.33084
0.145236
0.202955
0.140432
-0.0411125
0.132055
-0.208199
0.12576
-0.3397
0.121442
-0.223324
0.11818
-0.0579169
0.116084
0.119972
0.105321
0.306327
0.143513
0.0752561
-0.0154143
0.0707602
-0.00811887
0.0697841
0.000356759
0.0725642
0.0116355
0.0794549
0.0231382
0.0902848
0.0354095
0.104863
0.0473644
0.122382
0.0585437
0.141349
0.0667346
0.159719
0.0667888
0.175202
0.0572358
0.187181
0.0419872
0.196822
0.0205244
0.203442
-0.0121319
0.203559
-0.0513957
0.195836
-0.0864252
0.183044
-0.110356
0.169014
-0.123923
0.156029
-0.13136
0.145035
-0.135287
0.135346
-0.136863
0.126158
-0.13808
0.118111
-0.137997
0.109534
-0.135123
0.0972688
-0.134495
0.0844599
-0.135135
0.0796785
-0.119253
0.0865883
-0.0719466
0.102282
-0.0066408
0.121926
0.053003
0.142842
0.0918513
0.164455
0.126454
0.185141
0.179293
0.200328
0.251255
0.205278
0.307961
0.198965
0.306992
0.184942
0.226572
0.169173
0.0889136
0.155224
-0.0550001
0.142813
-0.166582
0.136647
-0.229573
0.136136
-0.227531
0.129744
-0.188033
0.117503
-0.182091
0.11532
-0.183082
0.126466
-0.153026
0.138515
-0.0532004
0.144351
0.0623459
0.145707
0.214877
0.146396
0.329684
0.148284
0.328953
0.147609
0.203629
0.142399
-0.035902
0.133383
-0.199183
0.126432
-0.332749
0.12253
-0.219423
0.119664
-0.0550506
0.118207
0.121429
0.107114
0.31742
0.154636
0.122321
-0.00903999
0.117611
-0.00340886
0.114373
0.00359476
0.113727
0.0122813
0.115795
0.0210704
0.121378
0.0298266
0.130552
0.0381903
0.143101
0.0459951
0.158032
0.0518035
0.173007
0.0518132
0.18562
0.0446227
0.195625
0.0319828
0.203525
0.0126248
0.207445
-0.0160524
0.204141
-0.0480917
0.193779
-0.0760629
0.179714
-0.0962917
0.165423
-0.109632
0.152528
-0.118465
0.141522
-0.124281
0.132091
-0.127433
0.123228
-0.129217
0.115226
-0.129994
0.10785
-0.127747
0.0981803
-0.124825
0.0865134
-0.123469
0.0799044
-0.112644
0.0842132
-0.0762554
0.0977651
-0.0201927
0.116412
0.0343565
0.137002
0.0712607
0.159485
0.103971
0.183136
0.155642
0.203112
0.231279
0.212672
0.298401
0.208812
0.310852
0.194621
0.240764
0.176807
0.106728
0.160648
-0.0388418
0.145952
-0.151886
0.136909
-0.22053
0.135917
-0.22654
0.131703
-0.183818
0.119557
-0.169945
0.114883
-0.178408
0.12529
-0.163433
0.13856
-0.066471
0.145494
0.0554121
0.14766
0.212711
0.148693
0.328651
0.150844
0.326801
0.150079
0.204394
0.144603
-0.030426
0.135001
-0.189581
0.127308
-0.325057
0.123764
-0.215879
0.121247
-0.0525327
0.120514
0.122161
0.109305
0.328629
0.166522
0.149334
-0.00566525
0.14739
-0.00146517
0.146401
0.00458439
0.14693
0.0117515
0.14895
0.0190507
0.152717
0.0260596
0.158524
0.0323837
0.166616
0.0379023
0.17673
0.0416897
0.18725
0.0412934
0.19624
0.0356331
0.203387
0.0248356
0.208281
0.0077305
0.208045
-0.0158161
0.201088
-0.0411347
0.188861
-0.0638357
0.174526
-0.0819565
0.160629
-0.0957359
0.14823
-0.106066
0.137456
-0.113506
0.128267
-0.118244
0.119954
-0.120903
0.112223
-0.122263
0.105514
-0.121039
0.0981395
-0.11745
0.0887188
-0.114048
0.081609
-0.105534
0.0832082
-0.0778546
0.0938994
-0.0308839
0.110478
0.0177777
0.129969
0.0517695
0.152628
0.0813125
0.178029
0.130241
0.201361
0.207947
0.215344
0.284419
0.214971
0.311225
0.201696
0.254038
0.182974
0.125449
0.165352
-0.0212197
0.148877
-0.135411
0.137099
-0.208752
0.134987
-0.224428
0.132922
-0.181753
0.121616
-0.158639
0.114288
-0.17108
0.12324
-0.172385
0.137951
-0.0811818
0.146484
0.046879
0.149607
0.209588
0.150943
0.327315
0.15337
0.324375
0.152632
0.205132
0.147004
-0.0247973
0.136838
-0.179415
0.128317
-0.316535
0.12509
-0.212652
0.122888
-0.0503305
0.123003
0.122045
0.111891
0.339742
0.179095
0.154299
-0.00429149
0.154373
-0.00153936
0.156023
0.00293381
0.159128
0.0086466
0.163287
0.0148921
0.168185
0.0211617
0.174169
0.0264
0.181251
0.0308202
0.189112
0.0338283
0.196579
0.0338263
0.202492
0.0297199
0.206309
0.0210187
0.206732
0.0073073
0.202814
-0.0118977
0.193702
-0.0320229
0.181213
-0.0513472
0.167697
-0.0684404
0.154718
-0.0827569
0.14304
-0.0943873
0.132736
-0.103202
0.12379
-0.109298
0.116002
-0.113116
0.108828
-0.115089
0.102539
-0.114749
0.0967231
-0.111635
0.0897949
-0.10712
0.0835747
-0.099314
0.0834337
-0.0777136
0.091347
-0.0387972
0.10516
0.00396468
0.122415
0.0345148
0.144031
0.059696
0.170768
0.103504
0.198413
0.180302
0.217297
0.265535
0.219933
0.308588
0.207431
0.26654
0.18788
0.145001
0.168579
-0.00191921
0.151156
-0.117987
0.137204
-0.194801
0.13341
-0.220634
0.133216
-0.181559
0.123582
-0.149005
0.113809
-0.161307
0.120342
-0.178918
0.136519
-0.0973595
0.147211
0.0361875
0.151555
0.205244
0.153296
0.325574
0.155894
0.321777
0.155256
0.205769
0.149573
-0.0191137
0.138849
-0.168692
0.129453
-0.307139
0.126482
-0.209681
0.12456
-0.0484091
0.125616
0.12099
0.114793
0.350565
0.192251
0.150058
-0.00354327
0.149813
-0.00129436
0.150875
0.00187201
0.153617
0.00590439
0.157954
0.0105551
0.1637
0.0154155
0.17018
0.0199203
0.177183
0.0238175
0.18454
0.0264713
0.191195
0.0271714
0.196146
0.0247685
0.198757
0.0184074
0.198373
0.00769169
0.193246
-0.00677053
0.184397
-0.0231739
0.173118
-0.0400687
0.161013
-0.0563348
0.14911
-0.0708544
0.138106
-0.0833833
0.128325
-0.0934209
0.119666
-0.10064
0.112211
-0.10566
0.105653
-0.108531
0.0997533
-0.10885
0.0947214
-0.106603
0.0897439
-0.102142
0.0851695
-0.0947396
0.0844952
-0.0770393
0.0900801
-0.0443821
0.100595
-0.00655049
0.115088
0.0200222
0.134085
0.0406989
0.159276
0.0783134
0.188205
0.151373
0.212192
0.241549
0.22121
0.29957
0.212049
0.275701
0.192371
0.164679
0.172224
0.0182282
0.153635
-0.099399
0.137917
-0.179083
0.131902
-0.214618
0.132831
-0.182489
0.125422
-0.141595
0.113894
-0.149778
0.117275
-0.1823
0.134048
-0.114132
0.147247
0.0229889
0.153287
0.199203
0.155479
0.323382
0.158208
0.319048
0.157927
0.20605
0.152367
-0.0135539
0.141017
-0.157342
0.130802
-0.296924
0.12796
-0.206838
0.126252
-0.0467012
0.128374
0.118868
0.11805
0.36089
0.205918
0.17614
-0.00117544
-0.178508
0.174166
0.000679268
0.173074
0.00296388
0.173003
0.00597579
0.174047
0.0095113
0.176196
0.0132659
0.179347
0.0167701
0.183504
0.0196598
0.188615
0.0213605
0.194494
0.0212922
0.200659
0.0186043
0.206328
0.0127378
0.210398
0.00362167
0.212139
-0.00851154
0.211343
-0.022378
0.208211
-0.036937
0.203313
-0.0514364
0.197053
-0.0645945
0.189773
-0.0761027
0.181925
-0.0855735
0.173614
-0.0923287
0.165173
-0.0972196
0.156894
-0.100252
0.148293
-0.100248
0.139681
-0.0979908
0.1312
-0.0936614
0.121671
-0.0852105
0.111993
-0.0673617
0.105895
-0.0382838
0.106465
-0.00712073
0.113316
0.0131719
0.124535
0.029479
0.137656
0.0651928
0.151601
0.137428
0.164766
0.228384
0.17433
0.290006
0.179979
0.270052
0.183415
0.161242
0.183071
0.0185722
0.178777
-0.0951049
0.168705
-0.16901
0.159173
-0.205086
0.153707
-0.177023
0.144313
-0.132201
0.13155
-0.137015
0.128461
-0.179211
0.134986
-0.120657
0.137314
0.0206614
0.134707
0.201809
0.134569
0.32352
0.14217
0.311447
0.150448
0.197773
0.151269
-0.0143754
0.142741
-0.148814
0.130902
-0.285085
0.123539
-0.199475
0.117999
-0.0411613
0.118016
0.118851
0.109133
0.369772
0.218072
0.187226
0.000673988
-0.189075
0.185975
0.00192974
0.185222
0.00371711
0.185215
0.00598248
0.186131
0.00859553
0.188068
0.0113285
0.191013
0.0138254
0.194918
0.0157548
0.199611
0.0166676
0.204797
0.0161061
0.209962
0.0134395
0.214482
0.00821731
0.217693
0.000410661
0.218897
-0.00971464
0.218019
-0.0215005
0.215107
-0.0340248
0.210418
-0.046747
0.204286
-0.0584626
0.197
-0.0688167
0.189131
-0.0777045
0.180999
-0.0841967
0.172658
-0.0888789
0.164534
-0.0921278
0.156333
-0.0920476
0.147751
-0.0894078
0.139566
-0.0854765
0.131693
-0.077338
0.123825
-0.0594937
0.118041
-0.0324997
0.117296
-0.00637545
0.122832
0.00763545
0.13305
0.0192607
0.145961
0.0522826
0.160812
0.122576
0.175894
0.213302
0.187675
0.278226
0.194757
0.26297
0.198516
0.157484
0.198562
0.0185263
0.193131
-0.0896746
0.18184
-0.157719
0.170542
-0.193788
0.16432
-0.170802
0.155733
-0.123615
0.142524
-0.123807
0.137676
-0.174363
0.144108
-0.127089
0.147742
0.0170268
0.145926
0.203626
0.146375
0.323071
0.154987
0.302835
0.163941
0.188819
0.164372
-0.014807
0.154346
-0.138788
0.14086
-0.271598
0.132938
-0.191553
0.126941
-0.0351647
0.127682
0.11811
0.118777
0.378677
0.231276
0.199418
0.00220104
-0.200946
0.198338
0.00300996
0.197741
0.00431454
0.197793
0.0059305
0.198636
0.00775206
0.20035
0.00961518
0.202918
0.0112574
0.20626
0.0124129
0.210219
0.0127083
0.214547
0.0117776
0.218816
0.00917085