/*--------------------------------*- C++ -*----------------------------------*\
| =========                 |                                                 |
| \\      /  F ield         | OpenFOAM: The Open Source CFD Toolbox           |
|  \\    /   O peration     | Version:  2512                                  |
|   \\  /    A nd           | Website:  www.openfoam.com                      |
|    \\/     M anipulation  |                                                 |
\*---------------------------------------------------------------------------*/
FoamFile
{
    version     2.0;
    format      ascii;
    arch        "LSB;label=32;scalar=64";
    class       volScalarField;
    location    "88.45";
    object      p;
}
// * * * * * * * * * * * * * * * * * * * * * * * * * * * * * * * * * * * * * //

dimensions      [0 2 -2 0 0 0 0];

internalField   nonuniform List<scalar> 
13248
(
-0.326221
-0.327868
-0.328483
-0.328513
-0.327812
-0.325907
-0.322282
-0.316482
-0.308129
-0.297037
-0.283305
-0.267352
-0.249864
-0.231678
-0.213632
-0.19644
-0.180601
-0.166416
-0.153932
-0.143156
-0.133863
-0.12591
-0.119003
-0.112613
-0.331144
-0.331751
-0.331718
-0.331279
-0.330086
-0.327766
-0.323778
-0.317611
-0.308886
-0.297473
-0.283573
-0.267704
-0.250598
-0.233047
-0.215763
-0.199294
-0.183992
-0.170036
-0.15746
-0.146222
-0.136132
-0.127068
-0.118663
-0.110783
-0.336654
-0.336136
-0.335182
-0.333809
-0.331884
-0.328869
-0.324221
-0.3174
-0.308033
-0.296069
-0.281823
-0.265901
-0.249045
-0.231979
-0.215295
-0.199418
-0.184591
-0.170924
-0.158394
-0.146952
-0.136434
-0.126766
-0.117749
-0.109327
-0.342742
-0.341098
-0.339089
-0.3367
-0.33375
-0.329781
-0.324169
-0.316327
-0.305937
-0.293089
-0.27825
-0.26211
-0.2454
-0.228752
-0.212631
-0.197323
-0.18297
-0.169605
-0.157207
-0.145728
-0.135055
-0.1252
-0.115922
-0.107349
-0.349881
-0.347095
-0.343998
-0.340514
-0.336427
-0.331231
-0.324228
-0.314864
-0.302999
-0.288956
-0.273366
-0.256957
-0.240384
-0.224132
-0.208511
-0.193688
-0.179732
-0.166657
-0.154442
-0.143043
-0.132403
-0.122488
-0.113151
-0.104539
-0.358677
-0.354679
-0.350499
-0.345876
-0.340447
-0.333592
-0.324618
-0.313183
-0.299467
-0.284051
-0.267663
-0.250973
-0.234483
-0.218518
-0.20326
-0.188797
-0.17516
-0.162344
-0.150323
-0.139062
-0.128511
-0.118645
-0.109353
-0.100781
-0.369575
-0.364258
-0.358962
-0.353064
-0.345911
-0.336791
-0.325216
-0.311259
-0.295483
-0.278648
-0.261459
-0.244443
-0.227935
-0.212123
-0.197095
-0.182884
-0.169489
-0.156892
-0.145065
-0.133969
-0.123569
-0.113813
-0.10465
-0.0961662
-0.38273
-0.375983
-0.369473
-0.362001
-0.352533
-0.340431
-0.325701
-0.308955
-0.291066
-0.272832
-0.254835
-0.237426
-0.220788
-0.205
-0.190083
-0.176029
-0.162815
-0.150409
-0.138772
-0.127864
-0.117638
-0.108047
-0.0990704
-0.0907037
-0.397956
-0.389722
-0.381802
-0.372249
-0.359691
-0.343911
-0.325654
-0.306047
-0.286104
-0.266527
-0.247713
-0.229844
-0.21298
-0.197118
-0.182229
-0.168274
-0.155205
-0.142975
-0.131533
-0.120829
-0.110812
-0.101436
-0.0926818
-0.0844706
-0.414709
-0.404982
-0.395328
-0.382958
-0.366462
-0.346466
-0.324546
-0.302162
-0.280286
-0.259427
-0.239792
-0.221417
-0.204265
-0.188272
-0.173368
-0.159482
-0.146546
-0.134496
-0.123266
-0.112797
-0.103028
-0.0939121
-0.0854069
-0.0773892
-0.432048
-0.420853
-0.408974
-0.392872
-0.371653
-0.347139
-0.321607
-0.296613
-0.272941
-0.250875
-0.230443
-0.211562
-0.194117
-0.177992
-0.163078
-0.149277
-0.136499
-0.124661
-0.113687
-0.103504
-0.0940492
-0.0852654
-0.0770757
-0.0693634
-0.448674
-0.436054
-0.421275
-0.400469
-0.373925
-0.344804
-0.315834
-0.288448
-0.263155
-0.240007
-0.21887
-0.199557
-0.181888
-0.165697
-0.15084
-0.137191
-0.124639
-0.113083
-0.102435
-0.0926143
-0.083557
-0.0752022
-0.0674624
-0.0602531
-0.500874
-0.500901
-0.500524
-0.502207
-0.50683
-0.514525
-0.525185
-0.538609
-0.554465
-0.572211
-0.591066
-0.610023
-0.627908
-0.643489
-0.655663
-0.66137
-0.661178
-0.653896
-0.638853
-0.615939
-0.585711
-0.549396
-0.509442
-0.467838
-0.473199
-0.474074
-0.473531
-0.47421
-0.477151
-0.482471
-0.490036
-0.499623
-0.510888
-0.523321
-0.536222
-0.5487
-0.559714
-0.568068
-0.572458
-0.572924
-0.567694
-0.556391
-0.538879
-0.515483
-0.487057
-0.454927
-0.421207
-0.38883
-0.445007
-0.446506
-0.445774
-0.445482
-0.446717
-0.449567
-0.453852
-0.459296
-0.465526
-0.472045
-0.478225
-0.483307
-0.48644
-0.486706
-0.483183
-0.475974
-0.464276
-0.447901
-0.427065
-0.402452
-0.375242
-0.346891
-0.318915
-0.294246
-0.417968
-0.41991
-0.419097
-0.418095
-0.417931
-0.418638
-0.419978
-0.421623
-0.423164
-0.424108
-0.423883
-0.421873
-0.417417
-0.409925
-0.398966
-0.384757
-0.367082
-0.346196
-0.322732
-0.297668
-0.272343
-0.248553
-0.227405
-0.21012
-0.393301
-0.395578
-0.394868
-0.393522
-0.392428
-0.391541
-0.390574
-0.389164
-0.386887
-0.383265
-0.377794
-0.369973
-0.359386
-0.345853
-0.329233
-0.309742
-0.28777
-0.263988
-0.239377
-0.215204
-0.192829
-0.173849
-0.161006
-0.150807
-0.371748
-0.374322
-0.373897
-0.372561
-0.371017
-0.369122
-0.366549
-0.362924
-0.357837
-0.350859
-0.341572
-0.329615
-0.314829
-0.297166
-0.276815
-0.254209
-0.230041
-0.205239
-0.181062
-0.158733
-0.140107
-0.125473
-0.118722
-0.115073
-0.35371
-0.356579
-0.356553
-0.355463
-0.353825
-0.351394
-0.347808
-0.342701
-0.335701
-0.32645
-0.314646
-0.300084
-0.282618
-0.262579
-0.240265
-0.216348
-0.191743
-0.167063
-0.144488
-0.12447
-0.109271
-0.0984824
-0.0960301
-0.0966803
-0.33944
-0.342589
-0.342972
-0.34221
-0.340665
-0.338005
-0.333839
-0.327808
-0.319581
-0.30887
-0.295471
-0.279311
-0.260531
-0.239222
-0.216124
-0.192047
-0.168041
-0.145219
-0.125086
-0.108173
-0.0971086
-0.0888769
-0.0888817
-0.091908
-0.329171
-0.332519
-0.333233
-0.332771
-0.331389
-0.328703
-0.324297
-0.317817
-0.308962
-0.297493
-0.283282
-0.266354
-0.246937
-0.22547
-0.202691
-0.179567
-0.157201
-0.136714
-0.119371
-0.105565
-0.0970244
-0.0921173
-0.0932476
-0.0973436
-0.323048
-0.326421
-0.327356
-0.327152
-0.325987
-0.323463
-0.31915
-0.312694
-0.303801
-0.292257
-0.277983
-0.261082
-0.241885
-0.221021
-0.199333
-0.177832
-0.157608
-0.139691
-0.124904
-0.113805
-0.106731
-0.103409
-0.103678
-0.106548
-0.320918
-0.324061
-0.325091
-0.325123
-0.324233
-0.322049
-0.318106
-0.312015
-0.303454
-0.292208
-0.27823
-0.261722
-0.243148
-0.223241
-0.20293
-0.18321
-0.165025
-0.149175
-0.136111
-0.126186
-0.11918
-0.115166
-0.113222
-0.113357
-0.322561
-0.325043
-0.325983
-0.326105
-0.325418
-0.323477
-0.319823
-0.314017
-0.3057
-0.29466
-0.280912
-0.264761
-0.246799
-0.227843
-0.208814
-0.190596
-0.173909
-0.159258
-0.146845
-0.136724
-0.128681
-0.122553
-0.117956
-0.115107
-0.420028
-0.375276
-0.345074
-0.328342
-0.330321
-0.349949
-0.381233
-0.414639
-0.438452
-0.439733
-0.40902
-0.351092
-0.283686
-0.224324
-0.182134
-0.157233
-0.146988
-0.148621
-0.161046
-0.188034
-0.234165
-0.289881
-0.329912
-0.329725
-0.291503
-0.234853
-0.181129
-0.14374
-0.124337
-0.119308
-0.130093
-0.161324
-0.206013
-0.240714
-0.240009
-0.206448
-0.159885
-0.120891
-0.0969797
-0.089103
-0.09643
-0.110109
-0.113674
-0.103321
-0.0888083
-0.077389
-0.0712409
-0.0723847
-0.0762173
-0.0764704
-0.0709501
-0.0592268
-0.049986
-0.0461125
-0.0426191
-0.0370726
-0.0282289
-0.0259653
-0.0208864
-0.0112709
-0.354265
-0.330663
-0.316663
-0.316528
-0.33262
-0.361307
-0.395726
-0.428404
-0.450665
-0.450774
-0.418827
-0.359486
-0.290584
-0.22942
-0.184717
-0.156331
-0.142007
-0.139511
-0.147147
-0.167483
-0.204826
-0.252362
-0.288201
-0.290058
-0.25962
-0.211813
-0.165981
-0.134894
-0.120506
-0.120306
-0.136887
-0.174962
-0.226054
-0.265346
-0.265581
-0.227904
-0.174664
-0.128042
-0.0972268
-0.082996
-0.0838475
-0.0921214
-0.092968
-0.085245
-0.0752465
-0.0695911
-0.0696896
-0.0770353
-0.086105
-0.0877203
-0.0815285
-0.0653343
-0.0498822
-0.0406435
-0.0321415
-0.0273412
-0.0192905
-0.0212276
-0.0249374
-0.0144387
-0.272881
-0.278108
-0.278967
-0.296032
-0.32504
-0.360322
-0.395541
-0.426153
-0.446395
-0.445354
-0.41365
-0.355134
-0.287194
-0.227063
-0.182303
-0.152305
-0.134601
-0.12771
-0.130437
-0.143964
-0.172173
-0.210826
-0.242862
-0.247945
-0.225165
-0.186017
-0.14781
-0.122831
-0.113286
-0.11769
-0.139739
-0.183753
-0.240204
-0.283799
-0.286539
-0.245829
-0.187005
-0.133582
-0.0964997
-0.0767452
-0.0720088
-0.0756623
-0.0739453
-0.0681064
-0.0617008
-0.0614437
-0.0677996
-0.0815074
-0.0958672
-0.0986723
-0.0916339
-0.0711121
-0.049727
-0.035372
-0.0218566
-0.017801
-0.0104365
-0.016343
-0.0286139
-0.0174801
-0.208851
-0.221535
-0.241552
-0.272708
-0.310991
-0.350191
-0.384823
-0.412398
-0.429838
-0.426656
-0.394714
-0.338752
-0.274969
-0.218453
-0.175431
-0.145404
-0.125919
-0.115252
-0.112897
-0.119828
-0.139344
-0.169318
-0.197231
-0.207522
-0.18972
-0.158505
-0.127368
-0.107939
-0.102699
-0.110947
-0.137163
-0.185665
-0.247005
-0.294901
-0.301635
-0.259155
-0.196303
-0.137353
-0.0948137
-0.0704255
-0.0611079
-0.0609875
-0.0568348
-0.0520341
-0.0483013
-0.0529441
-0.0654483
-0.0856008
-0.105366
-0.10921
-0.101088
-0.0764352
-0.0495127
-0.0304047
-0.0119112
-0.00855814
-0.00180217
-0.0113033
-0.0318373
-0.0203493
-0.157779
-0.179702
-0.209764
-0.247761
-0.290227
-0.331045
-0.365516
-0.389476
-0.40354
-0.397991
-0.366403
-0.314588
-0.257075
-0.205924
-0.165759
-0.13643
-0.116157
-0.103263
-0.0968055
-0.0974793
-0.108615
-0.130258
-0.153081
-0.16418
-0.153656
-0.130162
-0.105462
-0.0907863
-0.0891401
-0.100295
-0.129163
-0.180449
-0.245653
-0.297456
-0.309913
-0.267168
-0.202287
-0.13946
-0.0924169
-0.0642256
-0.0512188
-0.0481606
-0.04177
-0.0372095
-0.0351768
-0.0439921
-0.0624582
-0.089165
-0.114481
-0.119217
-0.109754
-0.0812304
-0.0492363
-0.0258334
-0.00243446
0.000321733
0.00649313
-0.00613327
-0.0345531
-0.0230023
-0.125837
-0.150677
-0.182952
-0.221408
-0.263202
-0.303402
-0.341799
-0.359446
-0.369598
-0.361763
-0.331534
-0.285595
-0.235893
-0.191193
-0.154776
-0.126647
-0.105947
-0.091559
-0.0824731
-0.0786781
-0.0823567
-0.0957559
-0.11277
-0.123726
-0.118904
-0.102186
-0.0830926
-0.0723352
-0.073539
-0.0866486
-0.116699
-0.16863
-0.236052
-0.291337
-0.308052
-0.269305
-0.204635
-0.139929
-0.0895315
-0.0583286
-0.0424025
-0.0371604
-0.0288207
-0.0237599
-0.0225233
-0.0346916
-0.0587509
-0.0919512
-0.123029
-0.12859
-0.117498
-0.0854161
-0.0488866
-0.0217458
0.00646306
0.00877423
0.0143245
-0.000873894
-0.0367173
-0.025398
-0.109057
-0.132234
-0.16146
-0.196301
-0.233533
-0.267266
-0.290834
-0.31911
-0.329103
-0.320528
-0.293576
-0.255101
-0.213938
-0.175941
-0.143573
-0.117148
-0.096345
-0.0807915
-0.0697163
-0.0627726
-0.0610998
-0.06694
-0.0777329
-0.0872218
-0.0869975
-0.0755893
-0.0613155
-0.0537074
-0.0569182
-0.0712076
-0.101061
-0.151178
-0.218254
-0.276065
-0.296829
-0.264888
-0.203179
-0.138792
-0.0864101
-0.0528999
-0.0346625
-0.0278677
-0.0179899
-0.0117761
-0.0106714
-0.0250598
-0.0541658
-0.0939022
-0.130893
-0.137266
-0.124233
-0.0889211
-0.0484313
-0.0182073
0.0146882
0.0167321
0.0215781
0.00442834
-0.0383046
-0.0275078
-0.104234
-0.122941
-0.145801
-0.174918
-0.206671
-0.237686
-0.260524
-0.279389
-0.285809
-0.277345
-0.255359
-0.225221
-0.192579
-0.161138
-0.132832
-0.108401
-0.087979
-0.071654
-0.0590829
-0.0497999
-0.0441949
-0.0439562
-0.0488426
-0.0555387
-0.0584263
-0.0509331
-0.0410427
-0.035957
-0.0404186
-0.0550129
-0.0834664
-0.1304
-0.194294
-0.252888
-0.278716
-0.254506
-0.19816
-0.136027
-0.0831584
-0.0480227
-0.027968
-0.0200771
-0.00923639
-0.00172212
0.000141277
-0.015389
-0.0488069
-0.0946289
-0.137746
-0.145091
-0.129844
-0.0916649
-0.0478134
-0.0152292
0.0221601
0.0241253
0.0281574
0.00972067
-0.0393107
-0.0293146
-0.108054
-0.119749
-0.134378
-0.155752
-0.179505
-0.202732
-0.224045
-0.23731
-0.241618
-0.235414
-0.219812
-0.197933
-0.172975
-0.147413
-0.122939
-0.100606
-0.0809005
-0.0642287
-0.0506118
-0.0397119
-0.0314759
-0.0267995
-0.0264411
-0.0292287
-0.0323092
-0.0284081
-0.0228856
-0.0198747
-0.0248299
-0.0391749
-0.0655685
-0.10738
-0.166454
-0.224589
-0.254802
-0.239995
-0.190181
-0.131608
-0.0797123
-0.0436489
-0.0222284
-0.0135353
-0.00236267
0.0064799
0.00964446
-0.00565406
-0.0423181
-0.09427
-0.143597
-0.152007
-0.134338
-0.0935882
-0.0470023
-0.0128167
0.0288088
0.0308968
0.0340002
0.0149455
-0.0397648
-0.0308149
-0.11258
-0.116743
-0.124691
-0.138525
-0.154799
-0.171007
-0.186368
-0.196451
-0.200777
-0.198062
-0.188578
-0.173677
-0.155116
-0.134673
-0.113802
-0.0936866
-0.0750678
-0.058512
-0.0443
-0.0323467
-0.0224443
-0.0149253
-0.0103929
-0.00904354
-0.0101452
-0.00936462
-0.00747215
-0.00608205
-0.0110474
-0.0246535
-0.0484367
-0.0851237
-0.137826
-0.192151
-0.225797
-0.218874
-0.178439
-0.125448
-0.0762303
-0.0399598
-0.017479
-0.00812828
0.00282239
0.0128223
0.0176061
0.00354927
-0.0351829
-0.0921512
-0.147677
-0.157582
-0.137467
-0.0946733
-0.0460699
-0.011108
0.0345194
0.0369998
0.039052
0.0200122
-0.0396887
-0.0319402
-0.113591
-0.113362
-0.117643
-0.124573
-0.133496
-0.144334
-0.154912
-0.163754
-0.169039
-0.169467
-0.164592
-0.154819
-0.141123
-0.124799
-0.107075
-0.0890833
-0.0716917
-0.0555631
-0.0410663
-0.028365
-0.0173103
-0.00797705
-0.000551966
0.00428492
0.00592106
0.00787313
0.00590329
0.00547645
0.000637346
-0.011808
-0.0326137
-0.0632755
-0.108711
-0.160663
-0.196938
-0.201893
-0.167145
-0.119335
-0.0735104
-0.037622
-0.0139791
-0.00376663
0.00651645
0.0171632
0.0240834
0.0126136
-0.0267616
-0.0886028
-0.150712
-0.161945
-0.139583
-0.0950776
-0.0450328
-0.0100622
0.0390842
0.042394
0.043332
0.0249145
-0.0391562
-0.0326521
-0.112694
-0.112897
-0.114439
-0.115777
-0.11938
-0.124558
-0.130886
-0.136896
-0.141407
-0.143087
-0.141135
-0.13537
-0.126046
-0.113816
-0.099482
-0.083979
-0.0681476
-0.0528175
-0.038458
-0.0253698
-0.0136739
-0.0034629
0.00554631
0.012906
0.0164093
0.0135296
0.0152792
0.0140904
0.00985016
-0.00163116
-0.0202677
-0.0451512
-0.0828607
-0.128976
-0.163463
-0.169246
-0.148116
-0.109287
-0.0682738
-0.0345512
-0.0106337
0.000476912
0.0101611
0.0201691
0.0283422
0.0199281
-0.0180608
-0.0826518
-0.150622
-0.163862
-0.140151
-0.094049
-0.0430336
-0.00847286
0.0428778
0.0470306
0.046734
0.0295281
-0.0381267
-0.0330349
-0.110339
-0.113194
-0.113542
-0.11317
-0.114692
-0.116145
-0.119831
-0.123983
-0.126898
-0.127431
-0.124896
-0.119126
-0.11034
-0.0990632
-0.0859705
-0.0718525
-0.0573896
-0.0432327
-0.0298146
-0.0173185
-0.00592818
0.00414283
0.0133293
0.0216412
0.0271655
0.0274179
0.0253184
0.0216301
0.0172841
0.00870694
-0.00559037
-0.0259582
-0.0586087
-0.10197
-0.139161
-0.155955
-0.131766
-0.0957057
-0.0580893
-0.0273667
-0.00529733
0.00522793
0.0141886
0.024022
0.0350037
0.0284493
-0.00770886
-0.0744319
-0.149657
-0.165736
-0.13897
-0.0905614
-0.039366
-0.00580655
0.046708
0.0511615
0.0497631
0.0338936
-0.0366806
-0.0332316
-0.105791
-0.109763
-0.109595
-0.107202
-0.104416
-0.105821
-0.107918
-0.11022
-0.111529
-0.110873
-0.107728
-0.10203
-0.0939752
-0.0839774
-0.0725077
-0.0601106
-0.0472949
-0.0345537
-0.0222371
-0.0105191
0.000346912
0.0100582
0.0188991
0.0269575
0.0324799
0.0329946
0.0302015
0.0261598
0.0217061
0.0144094
0.00276724
-0.0133933
-0.0401948
-0.0798387
-0.115842
-0.12466
-0.111718
-0.0804203
-0.0473875
-0.0206828
-0.000752735
0.00928225
0.0176503
0.0270058
0.0372212
0.0334852
-0.000312695
-0.0673597
-0.147578
-0.165445
-0.135095
-0.0857085
-0.0351326
-0.00331175
0.0497173
0.0539841
0.0519892
0.0374358
-0.0350696
-0.0331426
-0.0979484
-0.103097
-0.103361
-0.100633
-0.0977042
-0.0966477
-0.0969239
-0.0977228
-0.0979123
-0.0966006
-0.0933165
-0.0879956
-0.0807799
-0.0719492
-0.0618166
-0.0507529
-0.0391485
-0.0274361
-0.0159694
-0.00496154
0.00542222
0.0148537
0.0233504
0.0310902
0.0368188
0.0381847
0.034487
0.0294705
0.0248262
0.01855
0.00830169
-0.00558906
-0.027666
-0.0600454
-0.090458
-0.104405
-0.0923462
-0.0660679
-0.0374287
-0.0143665
0.00351344
0.0127444
0.0205886
0.0294653
0.0394806
0.0366622
0.00433818
-0.0619209
-0.143485
-0.162119
-0.129338
-0.0798134
-0.0305267
-0.000913313
0.0519704
0.0561382
0.0535519
0.0401688
-0.0332072
-0.0326912
-0.0892378
-0.0951852
-0.0960004
-0.0933566
-0.0900026
-0.0877259
-0.0867652
-0.0864666
-0.0858247
-0.0840264
-0.0806141
-0.0755049
-0.0688039
-0.060751
-0.0516127
-0.0416691
-0.0312212
-0.0206151
-0.0101008
8.43716e-05
0.00973805
0.0186285
0.0266454
0.0338266
0.0393115
0.0409713
0.0374067
0.0321431
0.0277341
0.0226547
0.0135786
0.0012961
-0.0152461
-0.038494
-0.0647378
-0.0797702
-0.0727315
-0.0513786
-0.0270928
-0.00801988
0.00747951
0.015686
0.0230845
0.0313417
0.0413437
0.0389071
0.00797632
-0.0554042
-0.135853
-0.155319
-0.121353
-0.0726195
-0.0253448
0.00164717
0.0533336
0.0575641
0.0545279
0.0423419
-0.0308679
-0.0318551
-0.0801951
-0.0863701
-0.087611
-0.0852566
-0.081826
-0.0790132
-0.0772439
-0.0761026
-0.0747896
-0.0725967
-0.0691032
-0.0642286
-0.0580746
-0.0508345
-0.0427
-0.03386
-0.0244982
-0.0148919
-0.00525712
0.00419256
0.013205
0.0215538
0.0290779
0.0356667
0.0406555
0.0429556
0.0394556
0.0344466
0.0306155
0.0265695
0.0184695
0.00853303
-0.00137398
-0.0171328
-0.0405978
-0.0566437
-0.0536694
-0.0374174
-0.0173687
-0.00192715
0.0111822
0.0181947
0.0250946
0.0326982
0.0421048
0.0401925
0.011779
-0.0463365
-0.123974
-0.144161
-0.110824
-0.0643089
-0.0198435
0.00431771
0.053669
0.0581724
0.054983
0.0442097
-0.0279509
-0.0306217
-0.0706808
-0.0770217
-0.0786728
-0.0767004
-0.0733989
-0.0703738
-0.0681292
-0.0664355
-0.0646822
-0.06228
-0.0588535
-0.0542978
-0.0486691
-0.0421131
-0.0347779
-0.026812
-0.0183537
-0.00964168
-0.000867837
0.0077884
0.0160554
0.0237225
0.0306548
0.0366962
0.0410952
0.0425683
0.040676
0.0364855
0.0334286
0.0304823
0.0240059
0.0172537
0.0124474
0.00152096
-0.0197784
-0.0360026
-0.0359641
-0.0242997
-0.00813015
0.00400533
0.0146203
0.0203505
0.0266456
0.0335755
0.0417738
0.0406383
0.0159161
-0.035119
-0.107833
-0.12829
-0.097685
-0.0550668
-0.0141767
0.00716168
0.0528869
0.057913
0.0549424
0.0457765
-0.0244604
-0.028987
-0.0612968
-0.0675868
-0.0694786
-0.0678847
-0.0648387
-0.061835
-0.0594081
-0.0574404
-0.0554625
-0.0529872
-0.0496787
-0.0454159
-0.0402334
-0.0342644
-0.0276465
-0.0205133
-0.0129586
-0.00514285
0.00276947
0.0106364
0.0181989
0.0252293
0.0315751
0.0371053
0.0411094
0.042887
0.0416017
0.0384342
0.036294
0.0350012
0.0315029
0.0280984
0.0255534
0.0162612
-0.00303647
-0.017949
-0.0197956
-0.012361
0.000142667
0.00956021
0.0178104
0.022271
0.0278398
0.034104
0.0406149
0.0401482
0.0195923
-0.0228245
-0.088033
-0.107879
-0.0820525
-0.0451965
-0.00862092
0.0101444
0.0509953
0.0567684
0.054394
0.046905
-0.0203964
-0.0269342
-0.0522725
-0.058202
-0.0601399
-0.0590351
-0.0563558
-0.0535287
-0.051109
-0.0490507
-0.0469872
-0.0445179
-0.0413572
-0.0373985
-0.032671
-0.0272896
-0.0213641
-0.0149924
-0.0082395
-0.00122308
0.00590247
0.0130121
0.0198699
0.0262596
0.0320229
0.0370666
0.0407734
0.0427484
0.0422376
0.040238
0.0390902
0.0393678
0.0391458
0.0387509
0.0365241
0.0270759
0.010325
-0.00231939
-0.00558808
-0.00180088
0.00740542
0.0146624
0.0207786
0.0240685
0.028807
0.0344012
0.0390066
0.0388148
0.0224062
-0.0103615
-0.0658282
-0.0839879
-0.0644465
-0.0350383
-0.00337599
0.0132349
0.0481426
0.0547858
0.0533478
0.0475462
-0.0157189
-0.0244104
-0.0435392
-0.0492043
-0.0514741
-0.0505182
-0.0481365
-0.0455334
-0.0432188
-0.0411828
-0.0391375
-0.0367568
-0.0338044
-0.0301871
-0.0259202
-0.0210906
-0.0157858
-0.0100909
-0.0040709
0.00218673
0.00855225
0.0149192
0.0210909
0.0268722
0.0320957
0.0366959
0.0401675
0.0422912
0.0425433
0.0416657
0.0414876
0.0429664
0.0447734
0.0459273
0.0437007
0.0346298
0.0208887
0.0101258
0.00632715
0.00725495
0.0135584
0.0191259
0.0234903
0.0258222
0.0297114
0.0345989
0.0373972
0.0370489
0.0245801
0.00134386
-0.0432541
-0.0586383
-0.0458039
-0.0249397
0.00143398
0.0163718
0.044707
0.0521744
0.0518944
0.0477835
-0.0103657
-0.0213015
-0.0352612
-0.0405589
-0.0427722
-0.0421791
-0.0401681
-0.0378524
-0.0357193
-0.0337963
-0.0318609
-0.0296441
-0.026944
-0.0236763
-0.0198477
-0.0155308
-0.0108058
-0.00574921
-0.000416281
0.00513141
0.0107905
0.0164639
0.021987
0.0271922
0.0319183
0.036115
0.0393903
0.0416163
0.0425129
0.0425814
0.0431684
0.0451716
0.0475516
0.049044
0.0472437
0.0396095
0.0287424
0.0199626
0.0157548
0.0147571
0.0186737
0.0228896
0.0259176
0.0275056
0.0306262
0.0348375
0.0363069
0.0354901
0.026473
0.011287
-0.0225437
-0.034283
-0.027421
-0.0152231
0.00583679
0.019501
0.0414143
0.0493607
0.0502324
0.0477913
-0.00428737
-0.0174533
-0.027614
-0.0324177
-0.0345358
-0.0342018
-0.0325474
-0.0305419
-0.0286391
-0.0268908
-0.0251222
-0.0231093
-0.0206803
-0.0177621
-0.0143593
-0.0105361
-0.00636181
-0.00190011
0.00280292
0.00769745
0.0127012
0.0177261
0.0226401
0.0273047
0.0315736
0.0353997
0.038499
0.0407937
0.0421674
0.0429466
0.0440258
0.0460753
0.0483316
0.0496094
0.0482706
0.0423755
0.0339491
0.0268826
0.022792
0.0207793
0.0228596
0.0259322
0.0280257
0.0290794
0.0315088
0.0351053
0.0360792
0.0345206
0.0281557
0.0187211
-0.00538837
-0.0132632
-0.0108988
-0.00622105
0.00992789
0.022481
0.0392045
0.0470685
0.048733
0.0478216
0.00247279
-0.0127624
-0.0204705
-0.0247885
-0.0268172
-0.0267031
-0.0253727
-0.0236701
-0.0220116
-0.0204611
-0.0188834
-0.0170949
-0.0149489
-0.0123805
-0.00939187
-0.00603732
-0.0023752
0.00153743
0.00566097
0.00995183
0.0143488
0.0187748
0.0231251
0.0272851
0.0311293
0.0346133
0.0375413
0.0398603
0.0415321
0.0427733
0.0441118
0.0459771
0.047889
0.0488102
0.0477719
0.0434269
0.0370575
0.0314109
0.0277758
0.0254306
0.0262284
0.0283235
0.0297832
0.0304755
0.0323254
0.0353609
0.0364531
0.0341396
0.0296111
0.0236513
0.007452
0.00266331
0.00235942
0.00174856
0.0137597
0.0251689
0.0386859
0.0458614
0.047859
0.0479716
0.00958152
-0.00735116
-0.0138662
-0.0177587
-0.0196924
-0.0197426
-0.0186866
-0.0172592
-0.0158366
-0.0144903
-0.0131168
-0.0115635
-0.00970194
-0.00747414
-0.00487856
-0.00196255
0.00122404
0.00462811
0.00821789
0.0119547
0.0157953
0.0196718
0.0235022
0.0271941
0.0306408
0.0338019
0.0365469
0.0388389
0.0406524
0.0421369
0.0435701
0.0451842
0.0467228
0.0473385
0.0465041
0.0433751
0.0386774
0.0342226
0.0311539
0.0288859
0.0288707
0.0301638
0.0311824
0.0316092
0.0330149
0.0355951
0.036863
0.034769
0.0314095
0.0272618
0.0165036
0.0130607
0.0106973
0.00855434
0.0173443
0.0275192
0.0397184
0.0465261
0.0478435
0.0478531
0.0162112
-0.00175036
-0.0078803
-0.0113463
-0.0131389
-0.0132987
-0.0124782
-0.0113045
-0.0101105
-0.00897053
-0.00780344
-0.00648179
-0.00489403
-0.00298946
-0.000762802
0.00174441
0.00449054
0.00742646
0.010528
0.0137598
0.0170919
0.0204665
0.0238195
0.0270768
0.0301497
0.0330047
0.0355475
0.0377529
0.03959
0.041155
0.0425802
0.0439589
0.045171
0.0455907
0.0449241
0.0426906
0.0393009
0.0358477
0.0333335
0.0313357
0.0308672
0.0315465
0.0322459
0.0324775
0.0335445
0.0357704
0.0369893
0.0355166
0.0332958
0.0302206
0.0228562
0.0195297
0.0173236
0.0143504
0.0204984
0.0294205
0.0412935
0.04776
0.0480121
0.0465988
0.0211021
0.00309616
-0.0024562
-0.00549611
-0.00712515
-0.00737016
-0.00676024
-0.00582143
-0.00484295
-0.00389798
-0.00292509
-0.0018213
-0.000490597
0.00111247
0.00299744
0.00512806
0.00747053
0.00997955
0.012637
0.0154108
0.0182805
0.0211983
0.0241135
0.0269679
0.0296893
0.0322484
0.0345696
0.0366414
0.0384195
0.0399591
0.0413139
0.0425013
0.0434596
0.0437782
0.0432661
0.0416817
0.0392813
0.0366606
0.0346417
0.0329733
0.0323064
0.0325394
0.033006
0.0331129
0.0339125
0.0358019
0.0368145
0.0359279
0.0346018
0.0322678
0.0269172
0.0235874
0.0219007
0.0190869
0.023136
0.0308466
0.0420919
0.0473466
0.0469745
0.0434544
0.0233478
0.00634698
0.00246827
-0.000175991
-0.00162835
-0.00197873
-0.00155661
-0.000819426
-2.79499e-05
0.000743347
0.00153876
0.00244177
0.00353663
0.00486455
0.00643814
0.00822644
0.0102026
0.0123256
0.0145814
0.0169417
0.0193927
0.021896
0.0244117
0.0268934
0.0292818
0.0315535
0.0336452
0.0355481
0.0372126
0.0386663
0.0399174
0.040958
0.041733
0.04201
0.041645
0.0405382
0.0388608
0.0369191
0.035328
0.033974
0.0332773
0.0332018
0.0334999
0.0335391
0.0341058
0.0356373
0.0363892
0.0358301
0.0350495
0.0333361
0.0291036
0.0260938
0.0250083
0.022701
0.0252017
0.0316826
0.0415074
0.0451429
0.0442509
0.0389648
0.0230739
0.00776221
0.0068575
0.00450517
0.00310902
0.0028068
0.00313128
0.00371929
0.00435543
0.00497325
0.00560842
0.00633093
0.00721441
0.00829571
0.0095895
0.0110706
0.0127174
0.0144938
0.0163884
0.0183777
0.0204518
0.0225804
0.0247322
0.0268706
0.0289465
0.0309396
0.0327979
0.0345121
0.0360314
0.0373704
0.0385031
0.0394284
0.0400766
0.0403463
0.0401159
0.0393673
0.0382073
0.0368012
0.0355767
0.0344922
0.033861
0.033593
0.0337659
0.0337837
0.0341348
0.035271
0.0357258
0.0353523
0.034846
0.0336745
0.030125
0.0275597
0.0269906
0.025237
0.0266473
0.0319124
0.0397048
0.0421562
0.0407019
0.0344958
0.0215253
0.0078404
0.0108146
0.00878802
0.00758033
0.0072271
0.00742163
0.00785356
0.00833887
0.00881524
0.00930706
0.00987006
0.0105667
0.0114302
0.0124757
0.0136839
0.0150372
0.0165052
0.018078
0.0197362
0.0214731
0.0232649
0.0250875
0.0269105
0.0286951
0.0304218
0.0320484
0.0335666
0.0349255
0.0361355
0.0371473
0.0379777
0.03854
0.0388191
0.0387028
0.0382217
0.0374329
0.0364368
0.0355193
0.0346577
0.0341302
0.0337745
0.0338473
0.0338614
0.0340277
0.0347741
0.035081
0.0347392
0.0342674
0.033503
0.0305488
0.0283635
0.0281126
0.0268514
0.0275026
0.0316343
0.0372536
0.0389445
0.0369173
0.0304678
0.0195564
0.00726789
0.0143488
0.0126155
0.0115523
0.011197
0.0112786
0.011576
0.0119321
0.0122875
0.0126555
0.01308
0.013614
0.0142876
0.0151158
0.0160845
0.0171793
0.0183755
0.0196637
0.021029
0.022466
0.0239568
0.0254826
0.0270185
0.0285345
0.0300116
0.0314151
0.0327373
0.0339305
0.0350066
0.0359022
0.0366481
0.0371486
0.0374393
0.0374154
0.0371315
0.0366108
0.0359177
0.0352489
0.0345748
0.0341504
0.0337924
0.033783
0.0337779
0.0338019
0.0342048
0.0344121
0.0341067
0.0335281
0.0329893
0.030665
0.0287641
0.0286022
0.0277228
0.0277755
0.0298246
0.0345339
0.0357053
0.0331968
0.0268555
0.0174999
0.00650641
0.0174931
0.015995
0.015033
0.0146495
0.0146888
0.0148988
0.0151544
0.0154094
0.015673
0.0159801
0.0163751
0.0168858
0.0175263
0.0182874
0.0191569
0.0201156
0.0211542
0.022262
0.023434
0.0246577
0.0259185
0.0271962
0.0284658
0.0297118
0.0309043
0.0320387
0.0330694
0.0340111
0.0347954
0.0354604
0.0359134
0.0362087
0.0362563
0.036112
0.0357834
0.0353112
0.0348341
0.0343204
0.0339799
0.0336675
0.0335893
0.0335436
0.0334666
0.0336095
0.0337174
0.0334492
0.0327447
0.0322763
0.030565
0.0288887
0.028638
0.0280242
0.0277436
0.0289775
0.0319229
0.0325602
0.0297336
0.0236208
0.0154953
0.00574723
0.0202786
0.018998
0.0181542
0.0177918
0.0177607
0.0178842
0.0180472
0.0182115
0.018384
0.0185916
0.0188693
0.0192417
0.0197218
0.0203045
0.0209796
0.0217323
0.0225541
0.0234372
0.0243772
0.0253661
0.0263912
0.0274379
0.028485
0.0295208
0.0305175
0.0314747
0.0323505
0.03316
0.033839
0.0344239
0.0348358
0.035124
0.0352211
0.0351706
0.0349778
0.0346649
0.0343261
0.0339359
0.0336635
0.0334064
0.033271
0.033195
0.0330333
0.0330022
0.0329839
0.0327264
0.0319673
0.0314672
0.0302557
0.0287735
0.0283506
0.0278594
0.0273988
0.0278768
0.0294426
0.0295612
0.0266023
0.0207751
0.013618
0.00504028
0.0227349
0.0216481
0.0209098
0.0205598
0.0204818
0.0205346
0.0206255
0.0207153
0.0208106
0.0209338
0.021113
0.0213693
0.0217141
0.0221452
0.0226542
0.0232301
0.0238652
0.0245541
0.0252927
0.0260763
0.0268941
0.0277365
0.0285843
0.02943
0.0302483
0.0310415
0.0317726
0.0324547
0.0330337
0.0335381
0.0339079
0.0341779
0.0343039
0.034313
0.0342105
0.03401
0.0337675
0.0334894
0.033245
0.033015
0.0328288
0.0326393
0.0324981
0.0323705
0.0322195
0.0319328
0.0312052
0.0306253
0.0297455
0.0284432
0.0278428
0.0273675
0.0267678
0.0266492
0.0271262
0.0267392
0.0238046
0.0183145
0.0119119
0.00439622
0.0248997
0.0239775
0.0233297
0.0229943
0.0228801
0.0228771
0.0229083
0.0229408
0.0229732
0.0230258
0.0231229
0.0232824
0.0235143
0.0238179
0.0241866
0.0246122
0.0250879
0.0256103
0.0261753
0.026781
0.0274183
0.0280811
0.0287525
0.0294283
0.030086
0.0307291
0.0313266
0.0318883
0.0323718
0.0327967
0.0331195
0.033363
0.0334973
0.0335395
0.0334902
0.0333643
0.0331847
0.0329789
0.0327575
0.0325472
0.0323333
0.0321222
0.0319185
0.0317104
0.0314494
0.0311044
0.0304495
0.02979
0.0290753
0.0279408
0.0271912
0.0266404
0.0259058
0.0253608
0.0250031
0.0241293
0.0213108
0.0162153
0.0104124
0.00382184
0.0267935
0.0260121
0.0254452
0.0251267
0.0249866
0.0249374
0.0249191
0.0249036
0.0248889
0.0248858
0.0249154
0.0249948
0.025133
0.0253303
0.0255816
0.0258806
0.0262215
0.0266021
0.0270191
0.0274721
0.0279535
0.0284598
0.0289765
0.0295017
0.0300164
0.0305238
0.0309986
0.0314486
0.0318408
0.032188
0.0324585
0.0326674
0.0327922
0.0328462
0.0328224
0.0327396
0.032597
0.0324312
0.0322276
0.0320208
0.0317932
0.031555
0.0313041
0.0310295
0.0306919
0.0302797
0.0296862
0.0289763
0.028303
0.0273061
0.0264396
0.0257655
0.0248903
0.0240391
0.0230952
0.0217801
0.019095
0.014437
0.00913478
0.0033206
0.0284435
0.0277832
0.0272876
0.0269864
0.0268269
0.0267413
0.026682
0.0266262
0.026571
0.0265258
0.0265041
0.0265195
0.026581
0.0266904
0.0268441
0.0270373
0.0272651
0.0275263
0.0278181
0.0281409
0.0284887
0.0288599
0.0292424
0.0296352
0.0300228
0.0304085
0.0307722
0.0311195
0.0314248
0.0316968
0.031911
0.0320787
0.0321801
0.0322283
0.0322097
0.0321443
0.0320215
0.0318706
0.0316764
0.0314634
0.0312234
0.0309573
0.0306681
0.0303373
0.0299501
0.0294778
0.0289085
0.0281805
0.027479
0.0265694
0.0256196
0.0248092
0.0237962
0.0227129
0.0213936
0.0197214
0.0171366
0.0129265
0.00807178
0.00289502
0.0298755
0.0293174
0.0288835
0.0285996
0.0284265
0.0283125
0.0282203
0.0281317
0.0280435
0.0279627
0.0279002
0.0278666
0.0278676
0.0279059
0.0279796
0.0280852
0.0282188
0.0283799
0.0285665
0.0287794
0.0290139
0.0292692
0.029536
0.0298137
0.030089
0.0303661
0.0306307
0.0308846
0.031108
0.0313075
0.0314631
0.0315842
0.031653
0.031681
0.0316527
0.0315853
0.0314658
0.0313136
0.03112
0.0308951
0.0306405
0.0303467
0.0300242
0.0296473
0.0292213
0.0287031
0.0281229
0.0273929
0.0266387
0.0257635
0.0247576
0.0238156
0.0226833
0.0214193