/*--------------------------------*- C++ -*----------------------------------*\
| =========                 |                                                 |
| \\      /  F ield         | OpenFOAM: The Open Source CFD Toolbox           |
|  \\    /   O peration     | Version:  2312                                  |
|   \\  /    A nd           | Website:  www.openfoam.com                      |
|    \\/     M anipulation  |                                                 |
\*---------------------------------------------------------------------------*/
FoamFile
{
    version     2.0;
    format      ascii;
    arch        "LSB;label=32;scalar=64";
    class       surfaceScalarField;
    location    "34.25";
    object      phi;
}
// * * * * * * * * * * * * * * * * * * * * * * * * * * * * * * * * * * * * * //

dimensions      [0 3 -1 0 0 0 0];

oriented        oriented;

internalField   nonuniform List<scalar> 
10785
(
-0.00121561
0.00342819
-0.00221257
-0.00214309
0.00645705
-0.00552957
-0.000937636
0.00617199
-0.00737744
0.00425362
0.0018551
-0.00704635
0.0153217
-0.00730625
-0.00376184
0.0334797
-0.0212956
0.00313755
0.0587432
-0.0388769
0.0136134
0.0898584
-0.0583509
0.0272356
0.124463
-0.0780449
0.0434405
0.160427
-0.0966934
0.0607294
0.194771
-0.113736
0.0793922
0.225705
-0.128105
0.0971707
0.250951
-0.141001
0.115755
0.26995
-0.150387
0.131388
-0.160297
0.14993
0.280317
-0.000770803
0.00419899
-0.000310803
0.00599705
0.00385197
0.00200922
0.0143391
-0.00863202
0.0327486
-0.0257158
0.0584657
-0.0470127
0.0890512
-0.0694623
0.121223
-0.0905231
0.151848
-0.10867
0.178627
-0.123472
0.199838
-0.134947
0.215953
-0.14422
0.227239
-0.152286
0.236946
-0.160094
-0.170145
0.246794
-5.94906e-05
0.00425848
0.00261603
0.00332152
0.0113022
-0.00667699
0.028403
-0.0257328
0.0531209
-0.0504337
0.0818637
-0.0757555
0.110374
-0.0979727
0.135322
-0.115471
0.155058
-0.128405
0.169511
-0.137925
0.180353
-0.145789
0.189581
-0.153448
0.199086
-0.161791
0.210039
-0.171048
-0.181119
0.221013
0.000744968
0.00351351
0.0063779
-0.00231141
0.0205712
-0.0208703
0.0432027
-0.0483642
0.0696915
-0.0769225
0.0947932
-0.100857
0.115201
-0.11838
0.130179
-0.13045
0.140947
-0.139172
0.149714
-0.146693
0.158166
-0.154241
0.167044
-0.162326
0.176015
-0.170762
0.18446
-0.179493
-0.18862
0.191962
0.00174087
0.00177264
0.0111076
-0.0116781
0.0302844
-0.0400471
0.0544396
-0.0725194
0.0770441
-0.0995271
0.0945435
-0.118357
0.106789
-0.130626
0.115562
-0.139223
0.122902
-0.146512
0.129863
-0.153654
0.136665
-0.161043
0.143131
-0.168792
0.149287
-0.176918
0.155594
-0.185801
-0.195145
0.162119
0.00309438
-0.00132174
0.0164138
-0.0249975
0.0376655
-0.0612988
0.0586512
-0.0935051
0.0746885
-0.115564
0.0855066
-0.129175
0.0929259
-0.138045
0.0987597
-0.145057
0.103922
-0.151675
0.10877
-0.158501
0.113501
-0.165775
0.118289
-0.17358
0.123296
-0.181924
0.128263
-0.190768
-0.199845
0.132962
0.00481564
-0.00613738
0.0208832
-0.0410651
0.0404072
-0.0808228
0.0560356
-0.109133
0.0663174
-0.125846
0.0727831
-0.13564
0.0772544
-0.142517
0.0808504
-0.148653
0.0841397
-0.154964
0.0873677
-0.161729
0.0905816
-0.168989
0.093735
-0.176733
0.0967324
-0.184922
0.0995986
-0.193634
-0.202695
0.102449
0.00665652
-0.0127939
0.0231129
-0.0575215
0.0386688
-0.0963787
0.0491332
-0.119598
0.0551475
-0.131861
0.0585889
-0.139082
0.0608786
-0.144806
0.0627488
-0.150523
0.0644374
-0.156652
0.0659728
-0.163265
0.0673614
-0.170377
0.0686265
-0.177998
0.0698591
-0.186154
0.0710286
-0.194804
0.072213
-0.203879
-0.00101624
-4.7143e-05
0.00106339
-0.00324044
0.00404529
-0.00182109
-0.00637431
0.008925
-0.00579114
-0.010178
0.0134326
-0.00962891
-0.0144521
0.0178255
-0.0135513
-0.019058
0.0226708
-0.0180649
-0.023883
0.0282772
-0.0234522
-0.0287812
0.0347004
-0.0298022
-0.0335336
0.041872
-0.0371195
-0.0378369
0.0496439
-0.0453407
-0.0412971
0.0577688
-0.0543086
-0.0433782
0.0658399
-0.0637587
-0.0436185
0.0735134
-0.073273
-0.0416433
0.0802174
-0.0821926
0.0848244
-0.0363672
-0.0901006
-0.000664133
0.000616989
-0.00212633
0.00550748
-0.00428883
0.0110875
-0.00695584
0.0160996
-0.00982056
0.0206902
-0.0125648
0.025415
-0.0149013
0.0306137
-0.0165296
0.0363287
-0.0170907
0.0424331
-0.0161512
0.0487044
-0.0132591
0.0548767
-0.00788374
0.0604645
0.000775492
0.0648541
0.0128099
0.0681829
0.0682601
0.0293743
-0.000220031
0.00083702
-0.000696831
0.00598428
-0.00150608
0.0118967
-0.00255126
0.0171448
-0.00347663
0.0216156
-0.00381142
0.0257498
-0.00309344
0.0298957
-0.0008921
0.0341274
0.00320854
0.0383324
0.00965717
0.0422557
0.0192458
0.045288
0.0316774
0.048033
0.0487159
0.0478156
0.0687257
0.0481731
0.0421637
0.0948221
0.000123928
0.000713092
0.000519141
0.00558907
0.00107937
0.0113365
0.0018051
0.0164191
0.00298961
0.0204311
0.00513998
0.0235995
0.00881853
0.0262171
0.0145455
0.0284005
0.0229235
0.0299544
0.0339718
0.0312074
0.049061
0.0301989
0.066522
0.030572
0.0898856
0.024452
0.114644
0.0234143
0.0097619
0.147046
0.00020982
0.000503272
0.00102297
0.00477591
0.0024886
0.0098709
0.00462533
0.0142823
0.00763224
0.0174241
0.0119274
0.0193043
0.0180321
0.0201125
0.0264327
0.0199998
0.0376873
0.0186998
0.0518266
0.0170682
0.0702537
0.0117717
0.0912141
0.00961157
0.119031
-0.00336495
0.14825
-0.00580464
-0.028833
0.186845
-4.38573e-05
0.000547129
0.000517803
0.00421425
0.00203228
0.00835642
0.00465457
0.01166
0.00854013
0.0135386
0.014011
0.0138334
0.021543
0.0125805
0.0317271
0.00981577
0.045291
0.00513589
0.0630531
-0.000693927
0.0855032
-0.0106784
0.113709
-0.0185939
0.147653
-0.0373095
0.187035
-0.0451864
-0.0746498
0.232852
-0.000566569
0.0011137
-0.000828645
0.00447633
-4.36614e-05
0.00757143
0.00213442
0.00948195
0.00615191
0.00952108
0.0126377
0.00734754
0.0225091
0.00270913
0.0368155
-0.0044906
0.0564693
-0.0145179
0.0822517
-0.0264764
0.113278
-0.0417044
0.151616
-0.0569321
0.191897
-0.0775905
0.239501
-0.0927902
-0.119537
0.284388
-0.00109888
-0.00215212
-0.00195812
0.000477478
0.00623672
0.0167218
0.0330443
0.0557894
0.084712
0.118965
0.156653
0.196891
0.235056
0.273653
0.304046
-0.0149515
0.177947
-0.199363
0.0183158
0.161584
-0.194851
0.0567209
0.108099
-0.146504
0.0919444
0.0295561
-0.0647796
0.117312
-0.0717016
0.0463335
0.142631
-0.197343
0.172025
0.160521
-0.314995
0.297104
0.166035
-0.374989
0.369476
0.169986
-0.356295
0.352344
0.14358
-0.283665
0.310072
0.0893182
-0.209409
0.26367
0.0646911
-0.146503
0.17113
0.0781267
-0.0800457
0.06661
0.10291
-0.00652167
-0.0182617
0.124401
0.0267392
-0.0482299
0.146514
0.0237433
-0.0458569
0.165977
0.0157616
-0.0352241
0.183529
-0.0093247
-0.0082274
0.200833
-0.0134497
-0.00385446
0.214613
-0.0167554
0.00297502
0.228231
-0.0163689
0.00275164
0.239862
0.00897788
-0.0206089
0.248713
0.00524171
-0.0140934
0.256942
0.0319814
-0.0402099
0.261974
0.0447559
-0.0497877
0.265556
0.0373191
-0.0409014
0.268097
0.0730489
-0.0755899
0.268692
0.0598668
-0.060462
0.269186
0.0706824
-0.0711759
0.269831
0.07739
-0.0780348
0.269214
0.106541
-0.105924
0.269193
0.0384663
-0.0384453
0.269596
0.122969
-0.123373
0.268025
0.110391
-0.10882
0.267184
0.03734
-0.0364991
0.266853
0.136799
-0.136467
0.265271
0.131328
-0.129745
0.121862
-0.120116
0.0575943
0.149727
0.0913316
0.127846
0.123511
0.0759204
0.149082
0.0039848
0.167944
-0.0905639
0.189277
-0.218676
0.203806
-0.329524
0.198035
-0.369218
0.187064
-0.345324
0.180216
-0.276817
0.151254
-0.180447
0.110136
-0.105385
0.0955433
-0.0654528
0.104918
-0.0158961
0.123683
0.0079745
0.146891
0.000535305
0.168478
-0.00582539
0.186751
-0.0275986
0.201653
-0.0283514
0.212133
-0.0272348
0.222337
-0.0265735
0.231146
0.000168848
0.238905
-0.00251733
0.247467
0.0234198
0.253215
0.0390073
0.258137
0.0323975
0.262062
0.069124
0.263718
0.0582108
0.265386
0.0690138
0.267128
0.0756482
0.267301
0.106369
0.267946
0.0378211
0.268899
0.122016
0.267576
0.111714
0.266942
0.0379742
0.266776
0.136964
0.2653
0.132804
0.123519
0.123814
0.120735
0.15383
0.09783
0.177912
0.0518385
0.196516
-0.014619
0.214108
-0.108155
0.227725
-0.232293
0.22627
-0.328069
0.213484
-0.356432
0.194369
-0.32621
0.188096
-0.270543
0.191948
-0.184299
0.173546
-0.0869827
0.149749
-0.0416565
0.144382
-0.0105282
0.156546
-0.00418964
0.175554
-0.0184727
0.194338
-0.0246094
0.209225
-0.0424858
0.21902
-0.0381468
0.224219
-0.0324334
0.228357
-0.0307119
0.231644
-0.00311794
0.235545
-0.00641769
0.241322
0.0176427
0.245763
0.0345658
0.250504
0.0276568
0.254772
0.064856
0.257241
0.0557416
0.260056
0.0661993
0.262996
0.0727083
0.264195
0.10517
0.265708
0.036308
0.267369
0.120355
0.266466
0.112617
0.266203
0.0382368
0.266356
0.136811
0.265148
0.134012
0.124909
0.173695
0.0940862
0.199138
0.0723876
0.218402
0.0325739
0.233506
-0.0297224
0.248977
-0.123627
0.253806
-0.237122
0.235761
-0.310024
0.207173
-0.327844
0.186265
-0.305302
0.179273
-0.26355
0.193074
-0.198101
0.205814
-0.0997226
0.203891
-0.039734
0.200162
-0.00679904
0.205592
-0.00961951
0.216656
-0.0295369
0.2278
-0.0357536
0.235822
-0.0505071
0.239989
-0.0423138
0.240874
-0.0333187
0.240398
-0.0302354
0.239148
-0.00186848
0.238946
-0.00621553
0.240723
0.0158662
0.242548
0.03274
0.245582
0.0246236
0.248808
0.0616292
0.251291
0.0532592
0.254623
0.0628668
0.258347
0.0689842
0.26043
0.103087
0.262766
0.0339723
0.265144
0.117977
0.264756
0.113005
0.264996
0.0379967
0.265605
0.136202
0.26482
0.134797
0.125859
0.210494
0.0704375
0.232344
0.0505376
0.249134
0.0157836
0.264123
-0.0447111
0.273738
-0.133243
0.263315
-0.226699
0.234626
-0.281335
0.200597
-0.293815
0.176181
-0.280886
0.166289
-0.253659
0.177739
-0.20955
0.20425
-0.126234
0.224559
-0.0600425
0.2356
-0.0178405
0.242416
-0.0164353
0.248058
-0.035179
0.251819
-0.0395152
0.253019
-0.0517069
0.25256
-0.0418543
0.250847
-0.0316061
0.248569
-0.0279569
0.245802
0.000897926
0.243626
-0.00403937
0.242828
0.0166646
0.24247
0.0330976
0.243521
0.0235725
0.245114
0.060036
0.246919
0.0514546
0.250032
0.0597541
0.253912
0.0651035
0.256471
0.100528
0.259381
0.0310626
0.262367
0.114991
0.262516
0.112857
0.263352
0.0371604
0.264539
0.135015
0.26432
0.135016
0.126201
0.250244
0.0530455
0.266427
0.0343546
0.279778
0.0024323
0.28846
-0.0533928
0.285041
-0.129825
0.259097
-0.200755
0.222219
-0.244457
0.19105
-0.262645
0.17135
-0.261187
0.16037
-0.242679
0.163972
-0.213152
0.187037
-0.149299
0.215802
-0.0888069
0.238512
-0.0405507
0.250769
-0.0286924
0.256266
-0.0406763
0.257486
-0.0407346
0.255869
-0.0500907
0.253692
-0.039677
0.251153
-0.0290675
0.248916
-0.0257195
0.24658
0.00323369
0.244407
-0.00186592
0.243148
0.017923
0.242043
0.0342026
0.242051
0.0235653
0.242539
0.0595479
0.243596
0.050397
0.24616
0.0571899
0.249788
0.0614755
0.252437
0.0978793
0.255645
0.0278544
0.259119
0.111517
0.259794
0.112182
0.261297
0.0356575
0.263174
0.133138
0.263658
0.134532
0.125772
0.293017
0.0444168
0.299303
0.0280684
0.301151
0.00058492
0.296873
-0.0491148
0.276769
-0.109721
0.242256
-0.166241
0.206536
-0.208738
0.178388
-0.234497
0.161928
-0.244727
0.154634
-0.235384
0.155807
-0.214326
0.171363
-0.164854
0.196659
-0.114103
0.222006
-0.0658979
0.237692
-0.044378
0.244922
-0.0479059
0.247119
-0.0429321
0.246362
-0.0493333
0.245343
-0.0386583
0.243708
-0.0274325
0.242605
-0.024616
0.241491
0.00434712
0.240127
-0.000501613
0.239629
0.0184206
0.238821
0.0350104
0.238877
0.0235094
0.239242
0.0591833
0.239989
0.04965
0.242174
0.0550053
0.245542
0.0581068
0.248123
0.0952983
0.251478
0.0244997
0.255399
0.107596
0.256611
0.11097
0.258848
0.0334204
0.261525
0.130462
0.262843
0.133214
0.124421
0.305827
0.0426355
0.304414
0.0294822
0.300183
0.00481573
0.284587
-0.0335191
0.257714
-0.0828481
0.224139
-0.132666
0.193264
-0.177863
0.168504
-0.209738
0.152331
-0.228553
0.143291
-0.226345
0.143484
-0.214518
0.154709
-0.176079
0.174918
-0.134312
0.198152
-0.0891323
0.214593
-0.0608184
0.223819
-0.0571328
0.228405
-0.0475177
0.230004
-0.0509321
0.231186
-0.0398407
0.231151
-0.027397
0.231491
-0.0249558
0.231796
0.00404173
0.231558
-0.000263821
0.232244
0.0177352
0.232295
0.0349591
0.233058
0.0227461
0.23408
0.0581613
0.235078
0.0486523
0.237281
0.0528028
0.240647
0.0547404
0.243244
0.092701
0.246747
0.0209971
0.251171
0.103172
0.252975
0.109166
0.256022
0.0303726
0.259609
0.126875
0.261884
0.130938
0.122001
0.498273
0.0359993
-0.491637
0.50759
0.0201648
0.514536
-0.00212996
0.514088
-0.0330716
0.503685
-0.0724442
0.484456
-0.113437
0.460515
-0.153922
0.434121
-0.183344
0.40894
-0.203372
0.386658
-0.204063
0.369646
-0.197506
0.361793
-0.168226
0.362817
-0.135337
0.374536
-0.100851
0.387588
-0.0738696
0.397516
-0.0670615
0.40257
-0.0525715
0.403126
-0.0514876
0.401032
-0.037747
0.396777
-0.0231427
0.392243
-0.0204215
0.38808
0.00820495
0.384701
0.00311524
0.381553
0.0208828
0.379311
0.0372014
0.377745
0.0243124
0.376275
0.0596304
0.376102
0.0488254
0.376682
0.0522237
0.377438
0.0539841
0.379113
0.0910255
0.380843
0.0192672
0.382376
0.101639
0.383317
0.108225
0.384648
0.0290418
0.385934
0.125589
0.386344
0.130528
0.121547
0.530374
0.0305642
-0.524939
0.536015
0.0145234
0.540295
-0.00640994
0.539357
-0.0321333
0.530918
-0.0640055
0.514889
-0.0974073
0.493067
-0.1321
0.467876
-0.158154
0.443251
-0.178747
0.422314
-0.183125
0.407253
-0.182446
0.402172
-0.163145
0.404861
-0.138025
0.41434
-0.11033
0.424651
-0.0841809
0.432146
-0.0745564
0.435877
-0.0563029
0.435764
-0.0513741
0.43334
-0.0353228
0.429394
-0.0191976
0.425075
-0.0161024
0.421393
0.0118873
0.418502
0.00600651
0.416469
0.0229151
0.415216
0.0384544
0.414719
0.0248099
0.414394
0.0599555
0.414787
0.0484318
0.415451
0.0515599
0.415847
0.0535884
0.416832
0.0900403
0.417805
0.0182947
0.418795
0.100648
0.419387
0.107633
0.420651
0.0277778
0.421845
0.124395
0.422262
0.130111
0.120965
0.56493
0.0245124
-0.558878
0.569501
0.00995228
0.571728
-0.00863633
0.570078
-0.0304831
0.563216
-0.0571437
0.550621
-0.0848128
0.533142
-0.114621
0.512669
-0.137681
0.492005
-0.158083
0.473416
-0.164536
0.458349
-0.167379
0.450499
-0.155295
0.450146
-0.137672
0.456343
-0.116527
0.464581
-0.0924195
0.471029
-0.0810041
0.474285
-0.059559
0.474235
-0.0513236
0.471958
-0.0330459
0.468096
-0.0153357
0.464146
-0.0121528
0.46046
0.0155736
0.457679
0.0087869
0.455589
0.0250052
0.454357
0.0396867
0.454171
0.0249956
0.454446
0.0596807
0.455229
0.0476493
0.45604
0.0507485
0.456421
0.0532079
0.457062
0.0893984
0.457612
0.0177448
0.458318
0.0999426
0.458707
0.107244
0.459937
0.0265482
0.461098
0.123233
0.461554
0.129656
0.120252
0.602788
0.0193575
-0.597633
0.606056
0.00668446
0.607121
-0.00970203
0.605169
-0.028531
0.599229
-0.0512038
0.588462
-0.0740456
0.573444
-0.0996027
0.55579
-0.120027
0.537923
-0.140216
0.522268
-0.148881
0.509855
-0.154966
0.502715
-0.148155
0.50099
-0.135947
0.50395
-0.119487
0.50898
-0.0974491
0.513099
-0.0851232
0.515264
-0.0617238
0.515105
-0.0511653
0.513324
-0.0312642
0.51048
-0.0124919
0.507066
-0.00873863
0.503761
0.0188782
0.500721
0.0118273
0.498607
0.0271187
0.497212
0.0410825
0.496956
0.0252507
0.497423
0.0592147
0.498311
0.0467609
0.499169
0.0498899
0.499645
0.0527324
0.500144
0.0888991
0.500532
0.017357
0.501213
0.0992618
0.501521
0.106936
0.502775
0.025294
0.503992
0.122017
0.504537
0.129111
0.119386
0.643768
0.0152332
-0.639643
0.64648
0.00397214
0.647039
-0.0102616
0.644972
-0.0264632
0.639776
-0.0460077
0.631124
-0.0653944
0.619381
-0.0878597
0.605404
-0.106049
0.590796
-0.125608
0.577121
-0.135206
0.565479
-0.143324
0.557721
-0.140397
0.554452
-0.132677
0.555098
-0.120133
0.558021
-0.100373
0.560901
-0.0880034
0.562458
-0.06328
0.562119
-0.0508263
0.560194
-0.0293393
0.55698
-0.00927807
0.553495
-0.00525379
0.550172
0.022201
0.547421
0.014578
0.545387
0.0291536
0.544022
0.0424466
0.543659
0.0256143
0.544068
0.0588058
0.544844
0.0459844
0.545608
0.0491258
0.546176
0.052165
0.546629
0.0884455
0.547046
0.0169406
0.547897
0.0984108
0.548194
0.106638
0.549525
0.0239634
0.550896
0.120646
0.55158
0.128426
0.118355
0.689524
0.0116969
-0.685988
0.691592
0.00190439
0.691825
-0.0104945
0.689874
-0.0245124
0.685513
-0.0416469
0.6785
-0.0583809
0.669064
-0.0784239
0.657649
-0.0946346
0.645305
-0.113264
0.633474
-0.123375
0.623298
-0.133148
0.615839
-0.132938
0.611796
-0.128634
0.610787
-0.119124
0.611498
-0.101084
0.612346
-0.0888517
0.612347
-0.0632807
0.611099
-0.0495784
0.609194
-0.0274338
0.606668
-0.00675216
0.603835
-0.00242097
0.601146
0.0248903
0.598555
0.0171684
0.596651
0.0310583
0.595262
0.0438357
0.594789
0.0260865
0.595133
0.0584626
0.595756
0.0453612
0.596409
0.0484727
0.597042
0.0515318
0.597409
0.0880785
0.597868
0.0164816
0.598959
0.0973197
0.599215
0.106382
0.600623
0.0225549
0.602243
0.119026
0.603096
0.127574
0.117156
0.739842
0.00888346
-0.737029
0.741522
0.00022464
0.741663
-0.0106353
0.740048
-0.0228981
0.736517
-0.0381159
0.730946
-0.0528098
0.723494
-0.0709719
0.714456
-0.0855967
0.704415
-0.103223
0.694506
-0.113466
0.685597
-0.124238
0.678424
-0.125766
0.673538
-0.123748
0.67089
-0.116476
0.669796
-0.0999897
0.669373
-0.0884288
0.66873
-0.0626368
0.667353
-0.0482014
0.665245
-0.0253268
0.662263
-0.00377011
0.659253
0.000589093
0.656475
0.0276683
0.653954
0.0196897
0.652196
0.0328163
0.65085
0.0451818
0.650349
0.0265879
0.65061
0.0582014
0.651036
0.0449352
0.651599
0.0479092
0.652368
0.0507632
0.652713
0.0877332
0.653308
0.0158866
0.654778
0.0958497
0.654986
0.106174
0.656489
0.0210513
0.658469
0.117047
0.659507
0.126536
0.115781
0.795904
0.00657691
-0.793598
0.797161
-0.0010327
0.797277
-0.0107514
0.795981
-0.0216017
0.79319
-0.0353252
0.788791
-0.0484103
0.782935
-0.0651159
0.775742
-0.0784036
0.767689
-0.0951708
0.759406
-0.105183
0.751569
-0.116401
0.744757
-0.118954
0.739417
-0.118408
0.73587
-0.112929
0.733489
-0.0976084
0.731582
-0.0865213
0.729462
-0.0605177
0.726675
-0.0454143
0.724036
-0.0226873
0.721484
-0.00121838
0.718976
0.00309678
0.716602
0.0300426
0.714398
0.021894
0.712877
0.0343375
0.711594
0.0464649
0.711109
0.027072
0.711366
0.0579448
0.711673
0.0446288
0.712214
0.0473677
0.713124
0.0498532
0.713398
0.0874595
0.714069
0.0152158
0.715934
0.0939847
0.716025
0.106083
0.717616
0.0194597
0.72004
0.114623
0.721274
0.125302
0.114218
0.857783
0.00471682
-0.855923
0.858858
-0.00210715
0.859
-0.0108935
0.858045
-0.0206467
0.855928
-0.0332085
0.85256
-0.0450423
0.848048
-0.0606034
0.842424
-0.0727799
0.836013
-0.0887599
0.829098
-0.0982676
0.822253
-0.109556
0.81596
-0.112661
0.810452
-0.1129
0.805979
-0.108457
0.802167
-0.0937959
0.798867
-0.083222
0.795951
-0.0576018
0.793101
-0.0425641
0.790349
-0.0199354
0.787245
0.00188627
0.784607
0.00573477
0.782311
0.0323383
0.78015
0.0240548
0.778825
0.0356629
0.777589
0.0477001
0.777141
0.027521
0.777404
0.0576809
0.777566
0.0444676
0.778122
0.0468117
0.779228
0.0487471
0.779534
0.0871534
0.780367
0.0143824
0.782719
0.0916333
0.782749
0.106053
0.78448
0.0177287
0.78743
0.111673
0.788875
0.123857
0.112403
0.926431
0.00319614
-0.924911
0.927334
-0.0030096
0.927511
-0.0110708
0.926833
-0.0199688
0.925258
-0.0316336
0.922703
-0.0424872
0.919225
-0.0571256
0.914813
-0.0683676
0.90966
-0.0836068
0.90393
-0.092538
0.897938
-0.103564
0.892027
-0.106749
0.886325
-0.107198
0.88122
-0.103351
0.876623
-0.0891994
0.872499
-0.0790981
0.868565
-0.0536673
0.864579
-0.038578
0.861169
-0.016526
0.858015
0.00504033
0.855566
0.00818368
0.85346
0.0344449
0.85158
0.0259343
0.850558
0.0366853
0.849461
0.0487965
0.849135
0.0278474
0.84954
0.0572764
0.849708
0.0442995
0.850371
0.0461486
0.85173
0.0473879
0.852066
0.086817
0.852954
0.0134945
0.855843
0.0887444
0.855794
0.106102
0.857612
0.0159112
0.861161
0.108125
0.862903
0.122114
0.110366
1.0022
0.00194405
-1.00095
1.00298
-0.00379257
1.00321
-0.0112983
1.00277
-0.0195312
1.00164
-0.0305027
0.999725
-0.0405721
0.99707
-0.0544707
0.993603
-0.0649008
0.989448
-0.0794517
0.984621
-0.087711
0.979275
-0.0982182
0.973693
-0.101167
0.96797
-0.101476
0.962448
-0.0978294
0.956948
-0.0836986
0.951696
-0.0738463
0.946896
-0.0488681
0.942485
-0.0341662
0.938858
-0.0128995
0.935574
0.00832487
0.93315
0.0106078
0.931221
0.0363739
0.929489
0.0276662
0.928752
0.0374218
0.927821
0.0497274
0.927626
0.0280426
0.928172
0.0567301
0.928305
0.0441671
0.929102
0.0453512
0.930691
0.0457989
0.931131
0.0863769
0.932278
0.0123482
0.935633
0.0853891
0.935628
0.106107
0.937704
0.0138348
0.94187
0.103959
0.943878
0.120106
0.107869
1.08578
0.000895884
-1.08473
1.08647
-0.00447829
1.08673
-0.011557
1.08647
-0.0192706
1.08566
-0.0296969
1.08421
-0.0391249
1.08214
-0.0523986
1.07933
-0.0620878
1.07584
-0.0759679
1.07163
-0.0834977
1.06676
-0.0933469
1.06142
-0.0958318
1.05564
-0.0956946
1.04972
-0.0919065
1.04366
-0.0776386
1.03788
-0.0680611
1.03242
-0.0434125
1.0274
-0.029143
1.02329
-0.00879096
1.01973
0.0118807
1.0173
0.0130352
1.01556
0.0381197
1.01405
0.0291782
1.01369
0.0377766
1.01302
0.0503982
1.01304
0.0280201
1.01391
0.055864
1.0142
0.0438787
1.01519
0.0443558
1.01716
0.0438299
1.01782
0.0857204
1.01888
0.0112914
1.02301
0.081259
1.02309
0.106026
1.02511
0.011812
1.03009
0.0989832
1.03259
0.117598
0.105137
1.17782
2.71278e-05
-1.17695
1.17842
-0.0050806
1.17869
-0.0118183
1.17853
-0.0191197
1.17793
-0.029092
1.1768
-0.0379913
1.1751
-0.0506988
1.17272
-0.059713
1.16965
-0.0728961
1.16578
-0.0796278
1.16109
-0.0886532
1.15568
-0.0904279
1.14957
-0.0895815
1.14311
-0.0854462
1.13633
-0.070865
1.12974
-0.0614614
1.12371
-0.0373838
1.11835
-0.0237834
1.11436
-0.00480881
1.11087
0.0153709
1.10867
0.0152401
1.10718
0.0396087
1.10601
0.0303512
1.10604
0.0377489
1.10573
0.0507056
1.10608
0.0276705
1.10728
0.0546609
1.10774
0.0434151
1.10909
0.0430118
1.11136
0.0415579
1.11223
0.0848544
1.11379
0.00972287
1.11833
0.0767208
1.11858
0.105784
1.12111
0.0092756
1.12677
0.0933213
1.12967
0.114703
0.101608
1.27879
-0.000679079
-1.27808
1.27929
-0.00558501
1.27952
-0.0120424
1.27939
-0.018991
1.27886
-0.0285678
1.27785
-0.0369771
1.27631
-0.0491554
1.2741
-0.0575084
1.2712
-0.0699914
1.26744
-0.0758728
1.26281
-0.0840253
1.25736
-0.0849793
1.2511
-0.083321
1.24433
-0.0786688
1.23714
-0.0636761
1.23014
-0.0544683
1.22361
-0.0308451
1.21781
-0.0179834
1.21331
-0.000315893
1.20991
0.0187718
1.20794
0.017217
1.20697
0.0405721
1.20616
0.0311646
1.20678
0.037128
1.20693
0.0505519
1.20758
0.027025
1.20932
0.0529229
1.2101
0.0426278
1.21175
0.0413686
1.21455
0.0387548
1.21594
0.0834625
1.21706
0.00860251
1.22269
0.0710926
1.22338
0.105095
1.22546
0.00719821
1.23226
0.0865191
1.23594
0.111022
0.0978456
1.39008
-0.00129661
-1.38946
1.3905
-0.00600097
1.39063
-0.0121788
1.39044
-0.0187962
1.38982
-0.0279494
1.3887
-0.0358558
1.38695
-0.0474079
1.38446
-0.0550142
1.38109
-0.0666273
1.37675
-0.071529
1.37135
-0.0786289
1.36504
-0.078661
1.35781
-0.0760997
1.35012
-0.0709755
1.34219
-0.055743
1.33464
-0.0469158
1.32808
-0.0242896
1.32257
-0.0124742
1.31891
0.00334048
1.31596
0.0217267
1.31461
0.0185631
1.31421
0.0409722
1.31411
0.0312675
1.31537
0.0358683
1.31622
0.0497068
1.31756
0.0256838
1.31994
0.05054
1.32118
0.0413922
1.32347
0.0390727
1.32669
0.0355325
1.32852
0.0816371
1.33051
0.00661004
1.33651
0.0650898
1.3376
0.104009
1.34046
0.00433421
1.34804
0.0789441
1.35246
0.106604
0.092813
1.51151
-0.00176199
-1.51104
1.51178
-0.00627277
1.51174
-0.0121385
1.51135
-0.0184093
1.5105
-0.0270971
1.50912
-0.0344783
1.50705
-0.045337
1.50419
-0.052153
1.50038
-0.0628137
1.49549
-0.0666418
1.48952
-0.0726598
1.48253
-0.0716712
1.47466
-0.0682315
1.46632
-0.0626308
1.45786
-0.047288
1.45
-0.0390512
1.44319
-0.0174823
1.43755
-0.00683921
1.43404
0.00685446
1.43191
0.0238595
1.43134
0.0191326
1.43202
0.0402855
1.43263
0.0306627
1.4349
0.033602
1.43656
0.0480396
1.43818
0.0240657
1.44134
0.0473842
1.44316
0.0395705
1.44605
0.0361855
1.44997
0.031608
1.45279
0.07882
1.45376
0.00564163
1.46103
0.0578133
1.46322
0.101825
1.46499
0.00255664
1.47406
0.0698737
1.47964
0.101028
0.0874989
1.64636
-0.00221457
-1.64591
1.64646
-0.00636479
1.64604
-0.0117214
1.64504
-0.0174108
1.64322
-0.0252796
1.64056
-0.0318127
1.63675
-0.0415294
1.63186
-0.0472607
1.6256
-0.0565549
1.6182
-0.0592482
1.6096
-0.0640527
1.6003
-0.0623742
1.59049
-0.0584247
1.58083
-0.0529658
1.57191
-0.0383671
1.56419
-0.0313377
1.5586
-0.0118876
1.5548
-0.00304287
1.55324
0.0084223
1.55293
0.0241699
1.55409
0.0179691
1.55657
0.0378015
1.55873
0.0285068
1.56222
0.0301061
1.56541
0.0448568
1.56804
0.0214332
1.57244
0.0429826
1.57509
0.0369178
1.57879
0.0324891
1.58334
0.0270612
1.58736
0.0747942
1.58896
0.00404414
1.59658
0.0501979
1.60035
0.0980497
1.6023
0.000609117
1.61206
0.0601173
1.61959
0.0934888
0.0801821
1.79424
-0.00273857
-1.79371
1.79424
-0.00637239
1.79351
-0.0109865
1.79192
-0.0158204
1.78915
-0.0225059
1.78523
-0.0279018
1.77967
-0.0359625
1.77272
-0.0403163
1.76401
-0.0478428
1.75398
-0.0492189
1.74297
-0.0530418
1.73164
-0.0510482
1.72054
-0.0473151
1.71041
-0.0428449
1.70171
-0.0296608
1.69483
-0.0244607
1.69066
-0.00771827
1.68805
-0.000426877
1.68799
0.0084778
1.68988
0.0222758
1.69258
0.0152759
1.69646
0.0339222
1.69957
0.0253939
1.70467
0.0250018
1.70917
0.0403643
1.71142
0.0191836
1.7165
0.0378973
1.72022
0.0331947
1.72548
0.027235
1.73091
0.0216304
1.73649
0.0692081
1.73623
0.00431263
1.74479
0.041632
1.75084
0.091998
1.75094
0.000517963
1.76257
0.0484871
1.77183
0.0842202
0.0723808
1.96443
-0.00418618
-1.96298
1.96451
-0.00645836
1.96289
-0.00935828
1.95918
-0.0121121
1.9527
-0.016025
1.94369
-0.0188965
1.93119
-0.0234656
1.91645
-0.0255677
1.89891
-0.0303077
1.88051
-0.0308233
1.86185
-0.0343743
1.84473
-0.0339336
1.83024
-0.032823
1.81888
-0.031483
1.81212
-0.0229022
1.80783
-0.0201736
1.8093
-0.00918729
1.81246
-0.00358541
1.81725
0.00369336
1.82577
0.0137545
1.83178
0.00926548
1.84033
0.0253716
1.84629
0.0194337
1.8533
0.017988
1.8623
0.0313666
1.86369
0.0177954
1.86987
0.0317131
1.87748
0.0255865
1.88364
0.0210738
1.88858
0.0166873
1.89963
0.0581655
1.89552
0.00841586
1.90033
0.0368236
1.91685
0.0754793
1.91385
0.00352098
1.92146
0.0408739
1.93749
0.0681901
0.0600965
2.12986
-0.00446752
-2.12958
2.12891
-0.00551411
2.12648
-0.00692902
2.12244
-0.00806546
2.11617
-0.00976181
2.10814
-0.0108638
2.09746
-0.0127864
2.08554
-0.0136444
2.07127
-0.0160334
2.05708
-0.0166353
2.04187
-0.0191638
2.02787
-0.0199374
2.01557
-0.020519
2.00496
-0.0208744
1.99941
-0.0173527
1.9951
-0.015864
1.99644
-0.010533
1.99956
-0.00670039
2.00472
-0.00146192
2.01425
0.00421581
2.01938
0.0041363
2.03111
0.013649
2.03837
0.0121661
2.04407
0.0122959
2.05579
0.0196412
2.05869
0.0148991
2.06709
0.0233109
2.07578
0.0168946
2.07824
0.0186195
2.08055
0.0143744
2.09954
0.0391754
2.09359
0.014362
2.09923
0.0311822
2.12648
0.0482339
2.11819
0.0118079
2.12253
0.0365313
2.14345
0.0472724
0.0458532
2.30827
-0.00293133
-2.3098
2.30643
-0.003672
2.30416
-0.0046633
2.30163
-0.00553549
2.29865
-0.00678358
2.2955
-0.00771627
2.29187
-0.00915205
2.2882
-0.00997712
2.28358
-0.011406
2.27884
-0.0119033
2.27255
-0.0128678
2.26555
-0.012942
2.25775
-0.0127185
2.24924
-0.0123639
2.24236
-0.0104687
2.23587
-0.00937951
2.23178
-0.00644372
2.22938
-0.00429321
2.22938
-0.00146567
2.2317
0.00189797
2.23307
0.00276617
2.23931
0.00741179
2.24396
0.00750968
2.24741
0.00884698
2.25472
0.0123305
2.25954
0.0100773
2.26753
0.0153214
2.27317
0.011253
2.2763
0.0154923
2.27962
0.0110602
2.29445
0.0243448
2.29654
0.0122645
2.30664
0.0210821
2.32522
0.0296565
2.325
0.0120259
2.33468
0.026859
2.35119
0.0307573
0.0314174
2.52005
-0.00151203
-2.52147
2.51819
-0.00181485
2.51574
-0.00221273
2.51276
-0.00255658
2.509
-0.00302734
2.50467
-0.0033788
2.49941
-0.00389291
2.49365
-0.00421896
2.48697
-0.00473074
2.48007
-0.00500029
2.4726
-0.00539238
2.46523
-0.00557756
2.4581
-0.00559048
2.45135
-0.00561481
2.44592
-0.00503433
2.44125
-0.00470866
2.43846
-0.00365814
2.43694
-0.0027725
2.43711
-0.00163209
2.43912
-0.000112531
2.44138
0.000501051
2.44633
0.00246645
2.45093
0.00290691
2.45596
0.00382395
2.46289
0.00539795
2.46815
0.00481818
2.47614
0.0073316
2.48193
0.00546169
2.48917
0.00824852
2.49436
0.00586798
2.50705
0.0116568
2.51188
0.00743999
2.52213
0.0108324
2.53763
0.0141513
2.54158
0.00807815
2.5543
0.0141401
2.56976
0.0152986
0.0166017
2.75109
-2.7526
2.74928
2.74706
2.74451
2.74148
2.7381
2.73421
2.72999
2.72526
2.72026
2.71487
2.70929
2.7037
2.69808
2.69305
2.68834
2.68468
2.68191
2.68028
2.68017
2.68067
2.68313
2.68604
2.68986
2.69526
2.70008
2.70741
2.71287
2.72112
2.72699
2.73865
2.74609
2.75692
2.77107
2.77915
2.79329
2.80859
0.421615
0.064962
-0.414364
0.429276
0.0947877
0.437528
0.12471
0.445226
0.154421
0.455343
0.181846
0.464726
0.21163
0.476811
0.234708
0.265492
0.457283
0.0575441
-0.449865
0.464552
0.0875181
0.473195
0.116067
0.481757
0.145859
0.491772
0.171831
0.50217
0.201232
0.512505
0.224372
0.253058
0.496395
0.0511607
-0.490011
0.503009
0.080904
0.510531
0.108545
0.518391
0.137999
0.526869
0.163353
0.536563
0.191538
0.546657
0.214279
0.240836
0.53838
0.0455361
-0.532755
0.544453
0.0748314
0.551156
0.101841
0.558807
0.130348
0.566873
0.155288
0.57645
0.18196
0.586288
0.204441
0.229492
0.584138
0.0406668
-0.579269
0.589881
0.0690882
0.596086
0.0956367
0.603384
0.12305
0.611029
0.147642
0.619861
0.173128
0.629074
0.195227
0.218923
0.634059
0.0363129
-0.629705
0.639266
0.063881
0.644929
0.0899738
0.651642
0.116337
0.658772
0.140513
0.667054
0.164846
0.675884
0.186397
0.208819
0.688013
0.0325712
-0.684272
0.692691
0.0592035
0.697929
0.0847354
0.704195
0.110072
0.711038
0.13367
0.718948
0.156936
0.727434
0.177911
0.199225
0.746853
0.0292383
-0.74352
0.751114
0.054943
0.756054
0.079795
0.761979
0.104147
0.768554
0.127095
0.776115
0.149375
0.784321
0.169705
0.189948
0.810913
0.0263375
-0.808012
0.814776
0.0510799
0.819418
0.075153
0.825036
0.0985286
0.831409
0.120722
0.838761
0.142024
0.846837
0.161629
0.180862
0.880786
0.0237897
-0.878239
0.884342
0.0475238
0.888782
0.0707131
0.894229
0.0930815
0.900524
0.114427
0.9078
0.134747
0.915861
0.153568
0.171812
0.957081
0.0215555
-0.954847
0.960394
0.0442108
0.964693
0.0664139
0.970044
0.0877307
0.976331
0.108141
0.983628
0.12745
0.991786
0.14541
0.162653
1.04042
0.019585
-1.03845
1.04356
0.0410747
1.04778
0.0621877
1.05313
0.0823841
1.05951
0.101766
1.06695
0.12001
1.07533
0.137031
0.153243
1.1315
0.017821
-1.12974
1.13453
0.0380473
1.13876
0.0579587