/*--------------------------------*- C++ -*----------------------------------*\
| =========                 |                                                 |
| \\      /  F ield         | OpenFOAM: The Open Source CFD Toolbox           |
|  \\    /   O peration     | Version:  2512                                  |
|   \\  /    A nd           | Website:  www.openfoam.com                      |
|    \\/     M anipulation  |                                                 |
\*---------------------------------------------------------------------------*/
FoamFile
{
    version     2.0;
    format      ascii;
    arch        "LSB;label=32;scalar=64";
    class       volScalarField;
    location    "32.5";
    object      p;
}
// * * * * * * * * * * * * * * * * * * * * * * * * * * * * * * * * * * * * * //

dimensions      [0 2 -2 0 0 0 0];

internalField   nonuniform List<scalar> 
9800
(
0.0506696
0.050553
0.0503312
0.050015
0.0496142
0.049138
0.0485948
0.0479919
0.0473362
0.0466345
0.0458932
0.0451186
0.0443166
0.0434933
0.0426543
0.0418051
0.0409509
0.0400965
0.0392464
0.0384045
0.0375744
0.0367594
0.0359625
0.035186
0.034432
0.0337021
0.0329977
0.0323197
0.0316689
0.0310454
0.0304496
0.0298814
0.0293405
0.0288265
0.0283389
0.027877
0.02744
0.0270271
0.0266374
0.02627
0.0507863
0.0506701
0.050449
0.0501336
0.0497337
0.0492584
0.0487158
0.0481132
0.0474572
0.0467545
0.0460115
0.0452342
0.0444287
0.0436008
0.0427563
0.0419006
0.041039
0.0401764
0.0393172
0.0384654
0.037625
0.0367992
0.0359909
0.0352029
0.0344372
0.0336956
0.0329795
0.03229
0.0316277
0.0309933
0.0303868
0.0298083
0.0292576
0.0287343
0.0282379
0.0277677
0.0273229
0.0269028
0.0265065
0.0261329
0.0510071
0.0508917
0.0506719
0.0503583
0.0499604
0.0494869
0.0489458
0.048344
0.0476878
0.0469836
0.0462375
0.0454555
0.0446436
0.0438074
0.0429526
0.0420849
0.0412094
0.0403312
0.0394548
0.0385845
0.0377243
0.0368777
0.0360479
0.0352376
0.0344494
0.0336851
0.0329464
0.0322345
0.0315502
0.0308944
0.0302672
0.0296687
0.0290989
0.0285574
0.0280438
0.0275574
0.0270975
0.0266633
0.0262538
0.0258682
0.0513203
0.0512061
0.0509884
0.0506777
0.050283
0.0498128
0.0492743
0.0486743
0.0480185
0.0473128
0.0465632
0.0457753
0.0449548
0.0441074
0.0432387
0.0423542
0.0414594
0.0405592
0.0396584
0.0387617
0.0378731
0.0369965
0.0361354
0.035293
0.034472
0.0336746
0.0329027
0.0321579
0.0314413
0.0307538
0.0300959
0.0294679
0.0288697
0.0283012
0.027762
0.0272514
0.0267689
0.0263136
0.0258847
0.025481
0.0517143
0.0516019
0.0513874
0.0510809
0.0506911
0.0502258
0.0496919
0.0490951
0.048441
0.0477348
0.0469819
0.0461877
0.0453577
0.0444972
0.0436118
0.042707
0.0417882
0.0408607
0.0399293
0.038999
0.0380742
0.0371592
0.0362578
0.0353736
0.0345098
0.033669
0.0328535
0.0320653
0.0313059
0.0305765
0.0298778
0.0292103
0.0285743
0.0279696
0.027396
0.026853
0.0263401
0.0258564
0.025401
0.024973
0.0521786
0.0520686
0.0518585
0.0515578
0.051175
0.0507169
0.0501897
0.0495985
0.0489481
0.0482431
0.0474882
0.0466884
0.0458488
0.0449746
0.0440709
0.0431433
0.0421972
0.0412379
0.0402707
0.0393006
0.0383325
0.037371
0.0364206
0.0354855
0.0345691
0.0336747
0.0328052
0.0319629
0.0311499
0.0303677
0.0296176
0.0289003
0.0282162
0.0275655
0.0269482
0.0263638
0.025812
0.0252919
0.0248027
0.0243434
0.0527029
0.052596
0.0523916
0.0520989
0.0517253
0.0512772
0.0507597
0.0501771
0.0495333
0.048832
0.0480774
0.0472739
0.046426
0.0455384
0.0446162
0.0436645
0.0426889
0.0416947
0.0406873
0.0396721
0.0386542
0.0376391
0.0366315
0.0356363
0.0346577
0.0336994
0.032765
0.0318576
0.0309797
0.0301334
0.0293205
0.028542
0.0277989
0.0270915
0.0264201
0.0257845
0.0251843
0.0246189
0.0240876
0.0235893
0.0532775
0.0531746
0.0529776
0.0526949
0.0523334
0.0518985
0.0513942
0.0508238
0.0501903
0.0494964
0.0487454
0.0479411
0.0470873
0.0461883
0.0452484
0.0442728
0.0432667
0.0422356
0.041185
0.0401203
0.0390473
0.0379718
0.0368995
0.0358356
0.034785
0.0337524
0.0327421
0.0317579
0.0308031
0.0298804
0.0289923
0.0281403
0.027326
0.02655
0.0258129
0.0251149
0.0244558
0.0238351
0.0232521
0.0227058
0.0538933
0.0537953
0.0536073
0.0533372
0.0529909
0.0525728
0.0520857
0.0515319
0.0509131
0.050231
0.049488
0.0486871
0.0478313
0.046924
0.0459689
0.0449709
0.0439351
0.0428666
0.0417708
0.0406535
0.0395209
0.0383793
0.037235
0.036094
0.034962
0.0338445
0.0327468
0.0316736
0.0306291
0.0296169
0.02864
0.027701
0.0268018
0.0259439
0.0251281
0.0243551
0.0236248
0.0229371
0.0222915
0.021687
0.0545416
0.0544495
0.0542724
0.0540174
0.0536897
0.0532922
0.0528268
0.0522946
0.0516957
0.0510308
0.0503013
0.0495092
0.0486565
0.0477453
0.0467791
0.045762
0.0446986
0.0435937
0.0424523
0.0412806
0.0400851
0.0388728
0.0376502
0.0364243
0.0352015
0.0339884
0.0327915
0.0316166
0.0304687
0.0293525
0.0282721
0.0272308
0.0262317
0.0252767
0.0243675
0.0235048
0.0226894
0.0219213
0.0212003
0.0205255
0.0552143
0.0551291
0.0549647
0.0547277
0.0544219
0.0540491
0.0536103
0.0531051
0.0525319
0.0518903
0.0511809
0.0504043
0.0495609
0.048652
0.0476802
0.046649
0.0455622
0.0444234
0.0432378
0.0420115
0.0407515
0.0394648
0.0381587
0.0368406
0.0355181
0.034199
0.0328909
0.0316008
0.0303349
0.0290992
0.0278988
0.0267386
0.0256224
0.0245533
0.0235335
0.0225647
0.0216479
0.0207838
0.0199724
0.0192133
0.0559038
0.0558264
0.0556767
0.0554604
0.05518
0.0548363
0.0544292
0.0539565
0.0534153
0.052804
0.0521222
0.0513688
0.0505423
0.0496431
0.0486731
0.0476348
0.0465302
0.0453622
0.0441356
0.0428565
0.041532
0.0401691
0.0387754
0.0373589
0.0359285
0.0344932
0.0330618
0.0316425
0.0302432
0.028871
0.027533
0.0262351
0.0249827
0.0237799
0.0226302
0.0215359
0.020499
0.0195207
0.0186015
0.0177414
0.0566031
0.0565344
0.0564014
0.0562084
0.0559567
0.0556466
0.0552764
0.0548419
0.054339
0.0537658
0.0531201
0.0523984
0.0515976
0.0507171
0.0497582
0.0487213
0.0476067
0.0464162
0.0451541
0.0438263
0.0424395
0.0410002
0.0395163
0.0379967
0.0364513
0.0348902
0.0333236
0.0317609
0.0302117
0.0286852
0.0271899
0.0257338
0.0243236
0.0229652
0.0216631
0.0204213
0.0192423
0.0181285
0.0170811
0.0161005
0.0573056
0.0572466
0.0571322
0.0569649
0.0567453
0.0564731
0.0561449
0.055754
0.0552963
0.0547694
0.0541689
0.0534882
0.0527228
0.0518718
0.0509348
0.0499097
0.0487948
0.0475907
0.0463012
0.0449315
0.0434868
0.0419733
0.0403989
0.0387732
0.0371071
0.0354117
0.0336982
0.0319779
0.030262
0.0285619
0.0268883
0.0252511
0.0236591
0.02212
0.0206402
0.0192251
0.0178788
0.0166047
0.0154049
0.0142807
0.0580053
0.0579571
0.0578629
0.0577235
0.0575392
0.0573096
0.0570277
0.0566856
0.05628
0.0558082
0.0552619
0.0546319
0.0539131
0.0531038
0.0522011
0.0511999
0.0500964
0.0488903
0.0475843
0.0461819
0.0446866
0.0431039
0.0414413
0.039709
0.0379184
0.0360815
0.0342106
0.0323186
0.0304189
0.0285251
0.0266505
0.0248073
0.0230067
0.0212587
0.019572
0.0179541
0.0164111
0.0149476
0.0135671
0.0122719
0.0586969
0.0586605
0.0585879
0.0584781
0.0583327
0.0581496
0.0579177
0.0576293
0.0572835
0.056875
0.0563917
0.0558227
0.0551627
0.0544086
0.0535538
0.0525902
0.0515121
0.0503182
0.0490094
0.0475866
0.0460512
0.0444073
0.0426622
0.0408257
0.0389095
0.036926
0.0348885
0.0328116
0.0307111
0.028603
0.0265032
0.0244268
0.0223878
0.0203992
0.0184725
0.0166179
0.0148439
0.0131571
0.0115625
0.0100642
0.0593757
0.0593521
0.0593021
0.0592236
0.0591207
0.058987
0.0588077
0.0585784
0.0582997
0.0579623
0.0575504
0.0570529
0.0564649
0.0557801
0.0549879
0.0540771
0.0530408
0.0518761
0.050581
0.0491532
0.0475915
0.0458985
0.0440802
0.0421457
0.040106
0.0379735
0.0357625
0.0334893
0.0311716
0.0288283
0.0264779
0.024139
0.0218288
0.0195641
0.0173598
0.0152296
0.0131849
0.011235
0.00938727
0.00764751
0.0600375
0.0600277
0.0600007
0.0599555
0.0598985
0.0598157
0.059691
0.0595263
0.0593216
0.0590622
0.0587298
0.0583148
0.0578117
0.0572106
0.0564964
0.0556556
0.0546796
0.0535635
0.0523015
0.0508874
0.0493172
0.0475913
0.0457137
0.0436916
0.0415345
0.0392545
0.0368663
0.0343874
0.0318377
0.0292385
0.0266115
0.0239788
0.0213618
0.0187814
0.016257
0.0138064
0.0114449
0.00918552
0.0070385
0.00501226
0.0606787
0.0606836
0.0606797
0.0606705
0.0606619
0.0606294
0.0605616
0.0604671
0.0603421
0.0601664
0.0599216
0.0596
0.0591944
0.0586908
0.0580707
0.0573183
0.0564234
0.0553775
0.0541707
0.0527926
0.0512359
0.049498
0.0475797
0.0454853
0.0432222
0.0408009
0.0382359
0.0355456
0.0327514
0.0298768
0.0269469
0.0239876
0.0210251
0.0180853
0.0151929
0.0123707
0.00963917
0.00701587
0.00451523
0.00214908
0.0612962
0.0613166
0.0613358
0.0613661
0.0614062
0.061422
0.0614143
0.0613951
0.0613539
0.0612671
0.0611178
0.0608998
0.0606032
0.0602103
0.0597004
0.0590559
0.0582642
0.0573123
0.0561855
0.0548692
0.0533524
0.0516282
0.0496934
0.0475481
0.0451961
0.0426456
0.0399098
0.037007
0.0339592
0.030792
0.0275335
0.024214
0.0208647
0.0175175
0.0142031
0.0109509
0.00778764
0.00473685
0.00181849
-0.000950959
0.061887
0.061924
0.0619673
0.0620404
0.0621265
0.0621886
0.0622449
0.0623042
0.0623501
0.0623569
0.0623101
0.0622048
0.0620276
0.0617581
0.0613743
0.0608573
0.0601916
0.059359
0.0583395
0.0571144
0.0556682
0.0539887
0.0520673
0.0498988
0.0474822
0.0448218
0.0419281
0.0388177
0.0355125
0.0320391
0.0284284
0.0247148
0.0209353
0.0171281
0.0133315
0.00958268
0.00591619
0.00236344
-0.00104836
-0.00429647
0.0624484
0.0625043
0.0625735
0.0626915
0.0628174
0.0629254
0.0630498
0.0631891
0.0633246
0.0634287
0.0634906
0.0635056
0.0634565
0.0633225
0.0630801
0.0627097
0.0621923
0.0615051
0.0606228
0.0595215
0.0581805
0.0565817
0.05471
0.0525535
0.0501046
0.0473621
0.0443318
0.0410268
0.0374672
0.0336794
0.0296963
0.0255561
0.0213013
0.0169776
0.0126317
0.00831028
0.00405788
-8.42049e-05
-0.00407929
-0.00789607
0.0629776
0.0630574
0.0631545
0.0633169
0.0634739
0.0636302
0.0638252
0.0640448
0.0642723
0.0644757
0.0646513
0.0647922
0.0648788
0.0648914
0.0648047
0.0645988
0.0642514
0.0637355
0.0630212
0.0620791
0.060882
0.0594051
0.0576257
0.0555238
0.0530839
0.0502969
0.0471616
0.0436851
0.0398832
0.0357806
0.0314105
0.0268139
0.0220387
0.0171381
0.0121687
0.00718852
0.00225427
-0.00258005
-0.00726537
-0.0117588
0.0634719
0.063584
0.0637103
0.0639131
0.064092
0.0643025
0.0645673
0.0648679
0.0651883
0.0654915
0.0657847
0.0660549
0.0662837
0.0664527
0.066534
0.0665094
0.066352
0.0660327
0.0655169
0.0647708
0.0637597
0.0624507
0.0608126
0.0588161
0.0564361
0.0536532
0.0504565
0.0468439
0.042824
0.0384167
0.0336533
0.0285759
0.0232365
0.017696
0.0120217
0.00628478
0.000557196
-0.00509096
-0.0105944
-0.0158948
0.0639303
0.0640857
0.0642396
0.0644763
0.0646697
0.0649428
0.0652724
0.0656564
0.0660674
0.0664706
0.0668838
0.0672846
0.0676613
0.0679941
0.0682538
0.0684254
0.0684758
0.0683775
0.0680895
0.067576
0.0667943
0.0657037
0.0642621
0.0624299
0.0601705
0.0574525
0.0542518
0.0505537
0.0463553
0.0416678
0.0365167
0.0309423
0.024999
0.0187542
0.0122864
0.0056819
-0.000968945
-0.00757547
-0.0140512
-0.0203169
0.0643543
0.0645636
0.0647388
0.0650032
0.0652069
0.0655518
0.0659372
0.06641
0.0669037
0.0674091
0.0679415
0.0684736
0.0690021
0.0695035
0.0699497
0.0703302
0.0706034
0.0707489
0.0707154
0.070471
0.0699607
0.0691418
0.0679567
0.0663564
0.0642889
0.061709
0.0585768
0.0548608
0.0505423
0.0456177
0.0401016
0.0340274
0.0274483
0.0204364
0.0130802
0.00548277
-0.00224342
-0.00998172
-0.0176175
-0.0250434
0.0647477
0.0650165
0.0652028
0.0654918
0.0657055
0.0661298
0.0665595
0.0671279
0.0676909
0.0683055
0.0689498
0.0696163
0.0702966
0.07097
0.0716081
0.0722071
0.0727146
0.0731252
0.0733684
0.0734294
0.0732292
0.0727367
0.0718686
0.0705767
0.0687817
0.0664282
0.0634531
0.0598065
0.0554475
0.050352
0.0445159
0.0379589
0.0307264
0.0228905
0.0145475
0.00581723
-0.00316249
-0.0122424
-0.0212707
-0.0301009
0.0651171
0.0654404
0.0656278
0.0659419
0.0661688
0.0666757
0.0671388
0.0678087
0.0684247
0.0691589
0.0699008
0.0707097
0.071534
0.0723848
0.0732145
0.0740406
0.0747892
0.075484
0.0760205
0.0764225
0.0765648
0.0764559
0.0759605
0.075061
0.0736236
0.071604
0.0688906
0.0654253
0.0611296
0.0559568
0.0498735
0.0428761
0.0349937
0.0262898
0.0168634
0.00684802
-0.00359181
-0.0142673
-0.024978
-0.0355233
0.0654688
0.0658286
0.0660136
0.0663538
0.066601
0.0671867
0.0676771
0.0684482
0.0691051
0.0699672
0.0707895
0.0717512
0.0727039
0.0737414
0.0747538
0.0758172
0.0768059
0.0778031
0.0786417
0.0794197
0.0799273
0.0802625
0.080185
0.0797709
0.0787691
0.0772148
0.074877
0.0717428
0.0676386
0.0625228
0.0562963
0.0489347
0.0404322
0.0308342
0.020234
0.00877129
-0.0033649
-0.0159417
-0.0286965
-0.0413544
0.065808
0.0661745
0.0663624
0.0667275
0.0670068
0.0676583
0.0681784
0.0690404
0.069736
0.0707246
0.0716167
0.0727353
0.0738011
0.0750327
0.0762139
0.0775243
0.0787448
0.0800612
0.0812016
0.0823887
0.0832729
0.0841142
0.0844852
0.0846593
0.0841547
0.0832193
0.0813622
0.0787643
0.0749949
0.070144
0.0639135
0.0563256
0.0472643
0.0367705
0.0249103
0.011822
-0.00228367
-0.0171327
-0.0323865
-0.0476688
0.0661369
0.0664746
0.0666777
0.0670632
0.0673899
0.0680864
0.0686472
0.069579
0.0703237
0.0714225
0.0723869
0.0736525
0.074827
0.0762475
0.0775902
0.0791465
0.0805935
0.0822341
0.0836768
0.0852931
0.0865628
0.087961
0.0888019
0.0896665
0.089701
0.0895576
0.0882598
0.0864582
0.0831502
0.0788898
0.0728125
0.0652834
0.0557638
0.0444543
0.0312487
0.0163277
-8.1919e-05
-0.0176745
-0.036014
-0.0546035
0.0664558
0.06673
0.066963
0.0673619
0.0677526
0.068469
0.0690871
0.0700603
0.0708738
0.0720538
0.0731065
0.0744916
0.0757863
0.077371
0.0788843
0.0806631
0.0823481
0.0842914
0.0860551
0.0880864
0.0897728
0.0917359
0.0930929
0.094706
0.0953414
0.0961376
0.0954751
0.094745
0.0919925
0.0887604
0.082942
0.0760156
0.0661354
0.0543935
0.0397594
0.0228507
0.00369454
-0.0172803
-0.0394904
-0.0623503
0.0667624
0.0669447
0.0672207
0.0676266
0.0680945
0.0688076
0.0694994
0.0704856
0.0713895
0.0726169
0.0737795
0.0752473
0.076683
0.0783928
0.0800988
0.082056
0.0840075
0.086202
0.0883305
0.090717
0.0928895
0.0953559
0.0973356
0.0996535
0.101042
0.102795
0.10296
0.103455
0.10145
0.0996215
0.0941838
0.0885615
0.0782956
0.0670806
0.0507948
0.0323421
0.00976061
-0.0153721
-0.0425777
-0.0711417
0.067052
0.0671249
0.0674528
0.0678612
0.0684132
0.0691065
0.0698822
0.07086
0.0718698
0.0731161
0.0744054
0.0759224
0.0775167
0.0793131
0.081231
0.0833203
0.0855655
0.0879515
0.0904906
0.0931524
0.0958932
0.098756
0.101504
0.104391
0.106775
0.109335
0.110701
0.1123
0.111574
0.111154
0.106633
0.102643
0.0921908
0.0825135
0.0641707
0.0458864
0.0185269
-0.0107555
-0.0450432
-0.0813717
0.0673191
0.067278
0.067662
0.0680698
0.0687058
0.0693704
0.0702325
0.0711903
0.0723106
0.0735591
0.0749792
0.0765248
0.0782807
0.0801395
0.0822712
0.0844631
0.0870053
0.089544
0.092507
0.095389
0.0987382
0.101917
0.10553
0.10887
0.112457
0.115652
0.118632
0.121071
0.122385
0.12303
0.120657
0.117838
0.108564
0.100203
0.0800639
0.0632844
0.0296615
-0.000799182
-0.0471736
-0.0932311
0.0675599
0.0674107
0.0678507
0.068256
0.0689695
0.0696042
0.0705479
0.0714833
0.0727082
0.0739533
0.0754961
0.0770624
0.0789691
0.0808801
0.0832105
0.0854928
0.0883115
0.090989
0.0943514
0.0974354
0.101375
0.104838
0.109334
0.113063
0.117968
0.121679
0.126581
0.129702
0.133684
0.135166
0.136225
0.134039
0.128573
0.119962
0.101013
0.0835364
0.0439032
0.014523
-0.0502073
-0.103873
0.0677733
0.0675284
0.0680207
0.0684225
0.0692037
0.0698122
0.0708277
0.0717448
0.0730604
0.0743049
0.0759527
0.0775424
0.0795764
0.0815432
0.0840395
0.0864194
0.0894662
0.092299
0.0959882
0.0993095
0.103733
0.107548
0.112779
0.117013
0.123068
0.127466
0.134213
0.138169
0.145109
0.147347
0.153017
0.15118
0.152089
0.14265
0.130393
0.107039
0.067746
0.0315273
-0.0526584
-0.106807
0.0679599
0.0676347
0.0681729
0.0685713
0.0694092
0.0699975
0.0710728
0.0719781
0.0733682
0.0746174
0.0763502
0.0779688
0.0801043
0.0821327
0.0847595
0.0872462
0.0904698
0.0934755
0.0974144
0.101009
0.105796
0.11004
0.115814
0.120718
0.127605
0.133031
0.141099
0.146553
0.155696
0.159886
0.169547
0.169565
0.177951
0.167715
0.168587
0.137988
0.110783
0.0492491
-0.042349
-0.109634
0.0681213
0.0677316
0.0683079
0.0687041
0.0695872
0.0701622
0.0712846
0.0721852
0.073633
0.0748931
0.0766915
0.0783432
0.0805566
0.08265
0.0853761
0.0879721
0.0913303
0.0945117
0.0986412
0.102515
0.10758
0.11227
0.118461
0.124083
0.131602
0.138205
0.147235
0.154638
0.165252
0.172643
0.184646
0.189506
0.202189
0.197765
0.209344
0.178055
0.177091
0.0767583
-0.00476717
-0.189412
0.0682595
0.0678198
0.0684266
0.0688218
0.0697396
0.0703076
0.0714648
0.0723675
0.0738574
0.0751335
0.0769796
0.0786675
0.0809376
0.0830961
0.0858948
0.0885971
0.0920544
0.0954039
0.0996766
0.103814
0.109096
0.114201
0.120729
0.127017
0.135074
0.142769
0.152657
0.161912
0.173864
0.184533
0.19849
0.209472
0.224667
0.231866
0.246274
0.234689
0.245971
0.155757
0.120147
-0.358113
0.0259327
0.0256179
0.0253109
0.0250121
0.0247216
0.0244396
0.0241663
0.0239018
0.0236464
0.0234002
0.0257901
0.0254703
0.0251587
0.0248555
0.0245609
0.0242752
0.0239985
0.0237311
0.023473
0.0232246
0.0255146
0.0251851
0.0248642
0.0245524
0.0242499
0.0239569
0.0236736
0.0234003
0.0231371
0.0228843
0.0251113
0.0247671
0.0244325
0.0241078
0.0237934
0.0234895
0.0231963
0.0229141
0.0226433
0.0223838
0.0245815
0.0242175
0.0238643
0.0235222
0.0231916
0.0228729
0.0225664
0.0222723
0.0219909
0.0217226
0.0239239
0.0235345
0.0231572
0.0227927
0.0224413
0.0221036
0.0217797
0.0214703
0.0211755
0.0208957
0.0231347
0.0227134
0.0223061
0.0219134
0.021536
0.0211742
0.0208287
0.0204999
0.0201883
0.0198942
0.0222081
0.0217476
0.0213032
0.0208759
0.0204662
0.0200749
0.0197027
0.01935
0.0190175
0.0187056
0.0211369
0.0206285
0.0201389
0.0196692
0.0192201
0.0187927
0.0183876
0.0180057
0.0176477
0.0173142
0.019912
0.0193458
0.0188014
0.0182801
0.0177833
0.0173119
0.0168669
0.0164494
0.0160603
0.0157004
0.0185235
0.0178876
0.0172769
0.0166934
0.0161386
0.015614
0.0151206
0.01466
0.0142332
0.0138413
0.0169602
0.0162403
0.0155499
0.0148914
0.0142666
0.0136775
0.0131257
0.0126128
0.0121403
0.0117098
0.0152097
0.0143892
0.0136029
0.0128539
0.0121449
0.0114781
0.0108555
0.0102795
0.0097518
0.00927445
0.0132589
0.0123177
0.0114163
0.0105587
0.00974816
0.00898759
0.00827973
0.00762742
0.00703307
0.0064992
0.0110937
0.0100082
0.0089688
0.00798064
0.00704787
0.0061744
0.00536366
0.00461932
0.00394447
0.00334238
0.00869952
0.00744137
0.00623647
0.00509154
0.00401188
0.00300249
0.00206777
0.00121248
0.000440551
-0.000243804
0.00606062
0.00459615
0.00319307
0.00186003
0.000603853
-0.000569041
-0.00165299
-0.00264193
-0.00353082
-0.00431425
0.00316065
0.00144975
-0.000190581
-0.00174921
-0.00321734
-0.00458674
-0.00585015
-0.00699983
-0.00802938
-0.00893193
-1.77323e-05
-0.00202291
-0.00394715
-0.00577617
-0.00749861
-0.00910392
-0.0105828
-0.0119255
-0.0131238
-0.0141691
-0.0034931
-0.00584966
-0.0081136
-0.0102666
-0.0122939
-0.0141821
-0.0159192
-0.017493
-0.0188932
-0.020109
-0.00728575
-0.010062
-0.0127324
-0.0152734
-0.0176659
-0.0198928
-0.0219388
-0.0237885
-0.0254291
-0.0268474
-0.0114185
-0.0146965
-0.0178535
-0.0208591
-0.0236887
-0.0263203
-0.0287345
-0.0309123
-0.0328377
-0.0344952
-0.0159182
-0.0197968
-0.0235367
-0.0270986
-0.0304507
-0.0335649
-0.0364166
-0.0389824
-0.0412428
-0.0431797
-0.0208169
-0.0254162
-0.0298557
-0.0340842
-0.0380602
-0.0417481
-0.0451168
-0.0481384
-0.0507891
-0.0530492
-0.0261554
-0.0316223
-0.0369035
-0.0419315
-0.0466519
-0.0510193
-0.0549949
-0.058546
-0.0616457
-0.0642731
-0.031988
-0.0385036
-0.0448005
-0.0507888
-0.0563965
-0.0615649
-0.0662468
-0.0704038
-0.0740087
-0.0770423
-0.0383903
-0.0461812
-0.0537092
-0.0608526
-0.0675153
-0.0736215
-0.0791139
-0.083951
-0.0881069
-0.0915715
-0.0454644
-0.0548217
-0.0638529
-0.0723904
-0.0803043
-0.0874971
-0.0939004
-0.0994745
-0.104204
-0.108095
-0.0533463
-0.0646505
-0.0755368
-0.0857678
-0.0951636
-0.103598
-0.110994
-0.117324
-0.1226
-0.126866
-0.0622349
-0.0759872
-0.0891866
-0.101487
-0.112632
-0.122455
-0.13088
-0.137912
-0.143623
-0.148132
-0.072454
-0.089328
-0.105442
-0.120279
-0.133461
-0.144769
-0.154148
-0.161689
-0.16759
-0.172094
-0.0844892
-0.105435
-0.125298
-0.143264
-0.158752
-0.171493
-0.181523
-0.189128
-0.194738
-0.198806
-0.0989509
-0.12537
-0.150254
-0.17214
-0.190111
-0.203938
-0.213936
-0.220786
-0.225287
-0.228185
-0.116676
-0.150752
-0.182553
-0.209254
-0.229593
-0.243654
-0.252428
-0.257276
-0.259473
-0.260104
-0.139503
-0.185116
-0.225821
-0.257539
-0.279325
-0.292021
-0.29765
-0.298596
-0.296924
-0.29404
-0.174002
-0.238107
-0.287532
-0.32206
-0.342683
-0.351153
-0.350425
-0.344281
-0.335939
-0.327634
-0.234657
-0.324452
-0.381311
-0.413895
-0.427121
-0.424994
-0.412623
-0.39459
-0.374634
-0.356018
-0.320573
-0.438264
-0.511963
-0.538505
-0.531092
-0.509687
-0.481954
-0.449311
-0.414269
-0.381416
-0.42838
-0.522634
-0.665556
-0.688708
-0.629814
-0.566785
-0.511316
-0.462337
-0.418331
-0.378279
-0.963031
-0.606822
-0.70443
-0.704063
-0.668331
-0.602829
-0.535227
-0.474576
-0.424618
-0.38434
0.0231499
0.0228949
0.0226463
0.022405
0.0221719
0.0219479
0.0217338
0.0215305
0.0213389
0.0211599
0.0209941
0.0208423
0.020705
0.020583
0.0204765
0.0203859
0.0203111
0.0202525
0.0202094
0.0201819
0.0201687
0.0201696
0.0201829
0.0202077
0.0202418
0.0202838
0.0203309
0.0203812
0.0204311
0.0204789
0.0205204
0.0205534
0.0205727
0.020576
0.020558
0.0205164
0.0204452
0.0203417
0.0201999
0.020017
0.0197864
0.0195049
0.019166
0.0187661
0.0182984
0.0177597
0.0171427
0.016445
0.0156595
0.0147853
0.0138161
0.0127538
0.011593
0.0103392
0.00898815
0.00754814
0.00601664
0.00440155
0.00270084
0.000918222
0.0229723
0.0227157
0.022466
0.0222242
0.0219911
0.0217678
0.021555
0.0213538
0.0211649
0.0209894
0.0208278
0.0206811
0.0205498
0.0204345
0.0203354
0.020253
0.0201873
0.0201384
0.0201057
0.020089
0.0200873
0.0201
0.0201255
0.0201626
0.0202091
0.0202635
0.0203228
0.0203849
0.0204465
0.0205056
0.020558
0.0206014
0.0206303
0.0206416
0.0206312
0.0205965
0.0205316
0.0204337
0.0202969
0.0201183
0.0198916
0.0196133
0.0192769
0.0188788
0.0184123
0.0178738
0.017256
0.0165565
0.0157678
0.0148892
0.0139142
0.0128448
0.0116756
0.0104127
0.00905146
0.00760113
0.00605846
0.00443206
0.00271953
0.00092462
0.0226282
0.0223685
0.0221167
0.0218738
0.0216408
0.0214188
0.0212086
0.0210114
0.020828
0.0206593
0.0205062
0.0203695
0.0202498
0.0201476
0.0200633
0.0199971
0.0199491
0.0199192
0.0199067
0.0199114
0.019932
0.0199678
0.0200169
0.020078
0.0201485
0.0202268
0.0203094
0.0203945
0.0204783
0.020559
0.0206311
0.0206924
0.0207382
0.0207673
0.0207724
0.0207507
0.0206976
0.0206102
0.0204826
0.0203122
0.0200926
0.0198203
0.0194886
0.0190941
0.0186297
0.0180917
0.0174727
0.0167697
0.0159749
0.0150879
0.0141016
0.0130185
0.0118333
0.0105527
0.00917199
0.00770188
0.00613813
0.00449038
0.00275562
0.000936875
0.022122
0.0218577
0.0216028
0.0213584
0.0211256
0.0209056
0.0206994
0.0205082
0.020333
0.0201748
0.0200345
0.0199129
0.0198106
0.0197283
0.0196661
0.0196243
0.0196028
0.0196013
0.0196191
0.0196557
0.0197095
0.0197795
0.0198635
0.0199598
0.0200657
0.0201788
0.0202955
0.0204146
0.0205303
0.0206408
0.0207414
0.0208296
0.0209002
0.0209512
0.0209763
0.0209745
0.0209382
0.0208656
0.0207508
0.0205917
0.0203819
0.0201178
0.019793
0.0194034
0.0189424
0.0184053
0.0177846
0.0170768
0.0162733
0.0153743
0.0143715
0.0132683
0.0120598
0.0107534
0.00934458
0.00784593
0.00625196
0.00457381
0.00280731
0.00095437
0.0214531
0.0211826
0.0209235
0.0206771
0.0204446
0.0202274
0.0200268
0.019844
0.0196801
0.0195363
0.0194134
0.0193125
0.0192341
0.0191787
0.0191467
0.019138
0.0191523
0.0191894
0.019248
0.0193274
0.0194257
0.0195414
0.0196718
0.019815
0.0199671
0.0201255
0.0202864
0.0204479
0.0206057
0.0207557
0.0208927
0.0210149
0.0211163
0.0211953
0.0212457
0.021266
0.0212501
0.0211956
0.0210965
0.0209509
0.020753
0.0204991
0.020183
0.0197998
0.0193434
0.0188076
0.0181853
0.0174719
0.0166575
0.015743
0.0147183
0.0135889
0.0123498
0.0110095
0.00956451
0.00802921
0.00639672
0.00467979
0.00287282
0.000976585
0.0206162
0.0203378
0.0200733
0.0198244
0.0195925
0.0193792
0.0191859
0.0190141
0.018865
0.01874
0.0186399
0.018566
0.0185186
0.0184983
0.0185053
0.0185394
0.0186001
0.0186867
0.0187977
0.0189318
0.0190868
0.0192604
0.0194494
0.0196511
0.0198609
0.0200769
0.0202932
0.0205075
0.0207143
0.0209107
0.0210906
0.0212524
0.0213895
0.0215007
0.0215796
0.0216251
0.0216311
0.0215965
0.0215153
0.0213846
0.0212001
0.0209578
0.0206521
0.0202768
0.0198265
0.019293
0.0186697
0.01795
0.0171228
0.01619
0.0151378
0.0139759
0.0126986
0.0113164
0.0098273
0.00824776
0.0065695
0.00480608
0.00295086
0.00100323
0.0196023
0.0193139
0.0190428
0.0187909
0.0185599
0.0183516
0.0181678
0.0180101
0.0178799
0.0177789
0.0177079
0.0176681
0.0176601
0.0176842
0.0177404
0.0178284
0.0179472
0.0180957
0.018272
0.0184742
0.018699
0.0189438
0.0192042
0.0194762
0.0197549
0.0200382
0.0203214
0.0205985
0.020863
0.021113
0.0213417
0.0215477
0.0217237
0.0218698
0.0219788
0.022051
0.0220798
0.0220656
0.0220025
0.0218879
0.0217177
0.021488
0.0211941
0.0208282
0.0203861
0.0198563
0.0192337
0.0185075
0.017666
0.0167123
0.0156265
0.0144259
0.013102
0.0116698
0.0101287
0.00849787
0.00676738
0.00495038
0.00304089
0.00103439
0.0183984
0.0180979
0.0178188
0.0175633
0.0173336
0.0171318
0.01696
0.0168201
0.0167138
0.0166428
0.0166082
0.0166112
0.0166522
0.0167315
0.0168489
0.0170035
0.0171941
0.0174187
0.017675
0.0179601
0.0182697
0.0186003
0.0189461
0.0193022
0.0196647
0.0200282
0.0203862
0.0207333
0.0210627
0.021372
0.0216537
0.0219068
0.0221235
0.0223055
0.0224445
0.0225431
0.0225942
0.0225996
0.0225543
0.0224556
0.0222999
0.022083
0.0218025
0.0214477
0.0210164
0.0204925
0.0198737
0.0191417
0.0182856
0.0173081
0.0161816
0.0149355
0.0135556
0.0120655
0.0104645
0.00877649
0.00698731
0.00511023
0.00314334
0.00107062
0.0169883
0.0166729
0.0163841
0.0161245
0.0158966
0.0157032
0.0155464
0.0154288
0.0153523
0.0153186
0.0153292
0.015385
0.0154866
0.015634
0.0158264
0.0160627
0.0163408
0.016658
0.0170113
0.017396
0.0178072
0.0182397
0.0186859
0.0191418
0.0196003
0.0200561
0.020499
0.0209246
0.0213254
0.0216985
0.0220357
0.022337
0.0225941
0.0228108
0.0229776
0.0231007
0.0231714
0.0231946
0.0231642
0.0230786
0.0229394
0.0227357
0.0224702
0.0221286
0.0217112
0.0211966
0.0205859
0.0198497
0.0189811
0.0179772
0.016802
0.0155017
0.0140549
0.0124987
0.0108297
0.0090809
0.00722597
0.00528371
0.0032599
0.00111249
0.0153518
0.0150185
0.014718
0.0144536
0.0142283
0.0140453
0.0139074
0.0138175
0.0137777
0.0137902
0.0138564
0.0139772
0.0141532
0.0143837
0.0146678
0.0150033
0.0153876
0.0158166
0.0162861
0.0167895
0.0173214
0.0178742
0.0184382
0.0190095
0.0195793
0.0201384
0.0206759
0.0211878
0.021665
0.0221046
0.0224977
0.0228458
0.0231407
0.0233883
0.0235787
0.0237222
0.0238079
0.0238459
0.0238275
0.023755
0.0236293
0.0234379
0.0231894
0.0228626
0.0224633
0.0219632
0.0213667
0.0206294
0.0197522
0.018719
0.0174863
0.0161218
0.0145955
0.0129643
0.0112196
0.00940784
0.00747869
0.00547079
0.00339383
0.0011601
0.0134651
0.0131102
0.0127957
0.0125256
0.0123038
0.0121339
0.0120195
0.0119637
0.0119693
0.0120385
0.0121729
0.0123734
0.0126401
0.0129719
0.0133674
0.0138228
0.014335
0.0148981
0.0155062
0.0161497
0.0168226
0.0175149
0.0182188
0.0189248
0.0196198
0.0202941
0.0209358
0.0215407
0.0220974
0.0226036
0.0230504
0.0234411
0.0237682
0.0240401
0.024247
0.0244047
0.0244988
0.0245473
0.0245361
0.0244741
0.0243604
0.02418
0.0239509
0.0236401
0.0232642
0.022786
0.0222118
0.0214799
0.0206005
0.0195334
0.0182321
0.0167899
0.0151712
0.0134565
0.01163
0.00975336
0.00773934
0.00567372
0.00354928
0.00121278
0.0113003
0.0109192
0.0105879
0.0103114
0.010094
0.00994053
0.00985503
0.0098413
0.00990255
0.0100412
0.0102591
0.0105567
0.010934
0.0113891
0.011919
0.0125185
0.0131839
0.0139061
0.0146776
0.0154904
0.0163321
0.0171896
0.0180526
0.0189097
0.0197438
0.0205455
0.0213006
0.0220035
0.0226405
0.0232107
0.0237053
0.0241306
0.0244807
0.0247665
0.0249807
0.0251433
0.0252378
0.0252913
0.0252806
0.0252269
0.0251211
0.0249502
0.0247428
0.0244486
0.0241037
0.0236568
0.0231154
0.0224
0.0215296
0.0204232
0.0190366
0.0174965
0.0157718
0.0139678
0.0120566
0.0101119
0.00800239
0.0058978
0.0037292
0.00126887
0.00882477
0.0084122
0.00806084
0.00777666
0.00756517
0.00743205
0.00738216
0.00742004
0.00754942
0.0077729
0.00809272
0.00850872
0.0090198
0.0096253
0.0103177
0.0110902
0.0119378
0.0128507
0.0138194
0.0148297
0.0158669
0.0169151
0.0179611
0.0189886
0.0199761
0.0209188
0.0217948
0.0225988
0.0233147
0.023942
0.0244739
0.0249213
0.0252806
0.0255661
0.0257754
0.025931
0.0260167
0.026068
0.0260505
0.0260032
0.0258989
0.0257365
0.0255516
0.0252717
0.0249678
0.0245643
0.0240691
0.0233885
0.0225447
0.0213924
0.0198964
0.0182279
0.0163823
0.0144874
0.0124928
0.0104753
0.00826434
0.00615127
0.00393415
0.00132619
0.00600097
0.00555048
0.00517508
0.00488206
0.00467814
0.00457022
0.00456412
0.00466518
0.00487771
0.00520456
0.00564867
0.00621126
0.00688582
0.00766461
0.00854846
0.00952854
0.0105971
0.0117385
0.0129401
0.0141826
0.0154484
0.016718
0.0179719
0.0191904
0.0203519
0.0214393
0.0224393
0.023352
0.0241452
0.0248149
0.0253667
0.0258185
0.0261678
0.0264352
0.026624
0.0267577
0.0268251
0.0268645
0.0268336
0.0267902
0.0266792
0.0265258
0.0263593
0.026088
0.0258389
0.0254921
0.0250587
0.0244432
0.0236528
0.0224461
0.0208035
0.0189629
0.0169839
0.0150017
0.0129254
0.0108332
0.00852543
0.00644414
0.00416403
0.00138454
0.0027856
0.0022895
0.00188531
0.00158203
0.00138784
0.0013111
0.00135888
0.00153741
0.00185165
0.00230391
0.00290241
0.00363067
0.00449464
0.00548797
0.00660623
0.00783696
0.00916874
0.0105811
0.0120571
0.0135716
0.0151033
0.0166275
0.0181227
0.0195562
0.0209082
0.0221594
0.0232882
0.024291
0.0251752
0.0258446
0.0263915
0.0268247
0.0271394
0.0273667
0.027515
0.0276097
0.0276489
0.0276651
0.0276166
0.0275737
0.027446
0.0273027
0.0271442
0.0268726
0.0266953
0.0264154
0.0260612
0.0255585
0.0248623
0.0235904
0.021741
0.0196666
0.0175509
0.0154939
0.0133345
0.0111714
0.00878495
0.00678571
0.00442467
0.00145088
-0.000871139
-0.00142209
-0.00186069
-0.00217586
-0.00235764
-0.00239574
-0.00228146
-0.00200664