/*--------------------------------*- C++ -*----------------------------------*\
| =========                 |                                                 |
| \\      /  F ield         | OpenFOAM: The Open Source CFD Toolbox           |
|  \\    /   O peration     | Version:  2512                                  |
|   \\  /    A nd           | Website:  www.openfoam.com                      |
|    \\/     M anipulation  |                                                 |
\*---------------------------------------------------------------------------*/
FoamFile
{
    version     2.0;
    format      ascii;
    arch        "LSB;label=32;scalar=64";
    class       volScalarField;
    location    "32.1";
    object      p;
}
// * * * * * * * * * * * * * * * * * * * * * * * * * * * * * * * * * * * * * //

dimensions      [0 2 -2 0 0 0 0];

internalField   nonuniform List<scalar> 
13248
(
-0.270419
-0.270218
-0.268848
-0.266552
-0.263651
-0.260494
-0.257512
-0.255141
-0.253757
-0.253629
-0.254908
-0.257606
-0.261613
-0.26671
-0.272594
-0.278912
-0.285271
-0.291352
-0.296736
-0.301391
-0.304713
-0.307181
-0.307415
-0.306194
-0.272392
-0.272197
-0.270745
-0.268368
-0.265421
-0.262223
-0.259169
-0.256645
-0.254981
-0.254397
-0.254989
-0.256717
-0.259421
-0.262844
-0.266661
-0.270537
-0.274146
-0.277238
-0.279609
-0.281156
-0.281734
-0.281414
-0.279913
-0.278558
-0.276223
-0.275743
-0.274068
-0.271583
-0.268589
-0.265375
-0.26226
-0.259555
-0.257505
-0.256267
-0.255883
-0.256279
-0.257282
-0.258649
-0.260117
-0.261455
-0.262473
-0.263086
-0.263175
-0.262775
-0.261706
-0.260102
-0.257844
-0.255758
-0.281904
-0.280841
-0.278776
-0.276033
-0.272878
-0.269541
-0.266245
-0.263186
-0.260517
-0.258331
-0.256644
-0.255388
-0.254435
-0.253633
-0.252849
-0.251984
-0.250977
-0.24977
-0.248297
-0.246508
-0.244262
-0.241701
-0.238646
-0.236047
-0.289369
-0.287441
-0.284789
-0.28161
-0.278123
-0.274481
-0.270775
-0.267073
-0.263445
-0.259962
-0.256667
-0.253563
-0.250629
-0.247837
-0.245157
-0.242553
-0.239971
-0.237348
-0.234611
-0.231707
-0.228567
-0.225269
-0.221712
-0.218646
-0.298616
-0.295628
-0.292211
-0.288438
-0.284428
-0.280212
-0.275728
-0.27094
-0.265909
-0.260765
-0.255649
-0.250676
-0.245924
-0.241428
-0.237182
-0.233146
-0.229268
-0.225485
-0.221739
-0.217978
-0.214151
-0.210282
-0.206297
-0.202764
-0.309811
-0.305597
-0.301307
-0.296797
-0.292005
-0.286787
-0.280964
-0.274516
-0.267618
-0.260538
-0.253534
-0.246796
-0.240429
-0.234467
-0.228892
-0.223659
-0.218708
-0.213979
-0.209409
-0.204945
-0.200551
-0.196206
-0.19189
-0.187987
-0.32313
-0.317575
-0.312331
-0.306895
-0.3009
-0.29404
-0.286176
-0.277488
-0.268366
-0.259221
-0.250371
-0.242004
-0.234199
-0.226957
-0.220239
-0.213983
-0.208123
-0.202594
-0.197337
-0.1923
-0.187444
-0.182729
-0.178171
-0.173965
-0.338635
-0.331651
-0.325346
-0.318656
-0.31082
-0.301518
-0.290916
-0.279545
-0.268013
-0.256799
-0.246196
-0.236333
-0.227231
-0.21885
-0.211125
-0.203981
-0.197345
-0.191149
-0.185329
-0.179828
-0.174596
-0.16959
-0.164837
-0.160361
-0.356048
-0.347631
-0.340072
-0.33159
-0.321071
-0.308507
-0.294624
-0.280334
-0.266363
-0.253153
-0.240904
-0.229657
-0.219369
-0.209962
-0.201348
-0.193438
-0.186148
-0.179403
-0.173129
-0.167264
-0.161747
-0.156536
-0.151627
-0.146931
-0.374773
-0.364943
-0.355796
-0.344733
-0.330584
-0.314065
-0.296582
-0.279317
-0.262976
-0.247875
-0.234089
-0.221567
-0.210207
-0.199893
-0.190512
-0.18196
-0.17414
-0.166967
-0.160361
-0.154247
-0.148559
-0.143247
-0.138258
-0.133456
-0.393817
-0.382633
-0.371386
-0.356756
-0.338063
-0.317103
-0.295905
-0.275737
-0.25716
-0.240314
-0.225136
-0.211484
-0.199199
-0.188127
-0.178129
-0.169083
-0.160877
-0.153414
-0.146606
-0.140372
-0.134645
-0.12937
-0.12446
-0.119804
-0.256451
-0.257883
-0.258681
-0.259552
-0.260892
-0.262839
-0.265448
-0.268747
-0.272754
-0.277496
-0.283004
-0.289311
-0.296455
-0.304467
-0.313377
-0.323201
-0.333945
-0.345598
-0.358128
-0.371471
-0.385534
-0.400228
-0.415469
-0.430991
-0.261005
-0.261864
-0.262399
-0.263153
-0.264472
-0.2665
-0.269301
-0.272908
-0.277353
-0.282676
-0.288926
-0.296154
-0.30441
-0.313739
-0.324177
-0.335742
-0.348432
-0.362219
-0.377045
-0.392821
-0.40943
-0.426724
-0.444486
-0.462484
-0.265547
-0.265741
-0.265964
-0.266557
-0.267796
-0.26983
-0.272728
-0.276525
-0.281261
-0.286983
-0.293748
-0.301617
-0.310646
-0.320882
-0.332355
-0.345076
-0.359025
-0.374153
-0.390372
-0.407559
-0.425559
-0.444182
-0.463118
-0.481925
-0.269537
-0.269042
-0.268929
-0.2693
-0.270369
-0.272293
-0.275143
-0.278957
-0.283774
-0.289646
-0.296632
-0.304794
-0.314189
-0.324858
-0.336823
-0.350083
-0.3646
-0.3803
-0.397072
-0.414763
-0.433183
-0.452106
-0.471266
-0.490057
-0.272565
-0.271452
-0.270978
-0.271063
-0.271852
-0.273511
-0.276126
-0.279743
-0.2844
-0.290147
-0.297042
-0.305145
-0.314508
-0.325165
-0.337131
-0.350389
-0.364886
-0.380534
-0.397206
-0.414722
-0.43291
-0.451427
-0.470374
-0.488361
-0.274413
-0.272831
-0.272011
-0.271743
-0.27212
-0.273333
-0.275496
-0.278673
-0.282911
-0.288259
-0.294772
-0.302502
-0.311497
-0.321783
-0.333364
-0.346213
-0.36027
-0.375426
-0.391572
-0.408443
-0.426039
-0.443656
-0.462129
-0.478837
-0.275078
-0.273231
-0.272118
-0.271448
-0.271292
-0.271874
-0.273355
-0.275839
-0.279397
-0.284086
-0.289961
-0.29707
-0.30545
-0.31512
-0.326074
-0.338271
-0.351657
-0.366081
-0.381553
-0.397577
-0.414355
-0.430633
-0.448261
-0.463668
-0.274732
-0.272855
-0.271531
-0.270451
-0.269682
-0.269483
-0.270082
-0.271643
-0.274285
-0.278092
-0.283128
-0.289442
-0.297062
-0.305996
-0.31623
-0.3277
-0.340371
-0.353951
-0.36866
-0.383563
-0.400074
-0.415187
-0.432088
-0.44551
-0.273666
-0.271983
-0.27055
-0.269094
-0.267698
-0.266653
-0.266255
-0.266749
-0.268319
-0.2711
-0.27518
-0.280615
-0.287434
-0.295633
-0.305176
-0.315948
-0.328001
-0.340971
-0.355191
-0.369316
-0.384988
-0.398822
-0.414425
-0.425867
-0.272239
-0.270922
-0.269472
-0.267706
-0.265738
-0.263888
-0.262514
-0.26194
-0.262429
-0.264174
-0.267308
-0.271904
-0.277974
-0.285511
-0.294484
-0.304768
-0.316226
-0.328459
-0.341651
-0.354722
-0.368788
-0.381359
-0.394893
-0.404495
-0.270875
-0.270008
-0.268594
-0.266587
-0.264154
-0.261639
-0.259446
-0.257967
-0.257535
-0.258407
-0.260745
-0.264647
-0.27014
-0.277141
-0.285501
-0.295014
-0.305412
-0.316398
-0.327696
-0.338916
-0.350171
-0.360643
-0.37137
-0.378941
-0.270082
-0.269633
-0.268254
-0.266069
-0.263313
-0.260345
-0.257597
-0.255502
-0.25444
-0.254705
-0.256481
-0.259829
-0.264701
-0.270949
-0.278339
-0.286586
-0.295306
-0.304225
-0.312808
-0.321033
-0.328335
-0.335023
-0.34132
-0.346858
-0.449085
-0.468671
-0.487133
-0.503629
-0.516464
-0.525292
-0.529651
-0.528884
-0.52222
-0.50895
-0.488647
-0.461469
-0.428396
-0.391329
-0.35307
-0.317044
-0.286471
-0.262976
-0.245522
-0.229635
-0.208517
-0.175521
-0.132208
-0.0823099
-0.0371987
-0.00321685
0.0191111
0.0322433
0.0391119
0.041724
0.0414289
0.0396478
0.0375732
0.0365183
0.0362191
0.0359972
0.0352003
0.0337027
0.0315756
0.02905
0.026259
0.0233551
0.0204097
0.0176435
0.0152438
0.0133091
0.0117138
0.0104496
0.00935997
0.00834335
0.00736767
0.00640468
0.00547622
0.00459362
0.00376668
0.00301335
0.00230445
0.00165479
0.000992703
0.000359883
-0.483978
-0.504596
-0.524357
-0.541178
-0.554463
-0.562793
-0.566396
-0.56453
-0.556162
-0.540349
-0.51636
-0.484025
-0.443939
-0.397578
-0.347913
-0.29911
-0.255576
-0.22038
-0.194011
-0.173342
-0.15249
-0.123635
-0.0920506
-0.0522255
-0.017207
0.00853663
0.0250086
0.0337811
0.0371834
0.0369406
0.0348425
0.0329273
0.0316163
0.0321083
0.0332573
0.0340538
0.0339119
0.0328505
0.0310452
0.0287796
0.0262305
0.0235534
0.0208209
0.0181956
0.0158161
0.0138165
0.0121
0.0107316
0.00954402
0.00845867
0.00743349
0.00644066
0.00549318
0.0046013
0.00377006
0.00301768
0.00230978
0.00166241
0.000998839
0.000363921
-0.507005
-0.526795
-0.547899
-0.564718
-0.578491
-0.586686
-0.590011
-0.587564
-0.578213
-0.560803
-0.534325
-0.498337
-0.452982
-0.39919
-0.340512
-0.280966
-0.225671
-0.178787
-0.142503
-0.116061
-0.0947182
-0.0730299
-0.0488438
-0.022314
0.00221351
0.0194585
0.0297876
0.0337663
0.033304
0.030156
0.0267876
0.0258927
0.0257139
0.0279566
0.0304597
0.0321316
0.0325436
0.0318661
0.0303622
0.0283455
0.0260214
0.0235535
0.021029
0.0185665
0.0162699
0.0142568
0.0124758
0.0110175
0.00973288
0.00857241
0.00749104
0.00646696
0.00550039
0.00460142
0.00376701
0.00301699
0.00231099
0.00166694
0.00100302
0.000366677
-0.514006
-0.536866
-0.557735
-0.575656
-0.589795
-0.598631
-0.602385
-0.600096
-0.590568
-0.572441
-0.544423
-0.505699
-0.456128
-0.396833
-0.33208
-0.264737
-0.200333
-0.143256
-0.0968332
-0.0636472
-0.0396983
-0.0214542
-0.00608493
0.00996118
0.0234166
0.0317208
0.0351989
0.0334827
0.0284426
0.022323
0.0181487
0.0195411
0.0201592
0.0241378
0.0278102
0.0302051
0.0310955
0.0307708
0.0295592
0.0277881
0.0256785
0.0234017
0.0210621
0.0187562
0.0165685
0.0145852
0.0127925
0.0112718
0.00990716
0.00867649
0.00754011
0.00648627
0.00550194
0.00459745
0.00376042
0.00301287
0.00230903
0.00166846
0.00100524
0.000367871
-0.511672
-0.53531
-0.556719
-0.575495
-0.590976
-0.600661
-0.605286
-0.603908
-0.595016
-0.577065
-0.548533
-0.508325
-0.456246
-0.393747
-0.324456
-0.252229
-0.182146
-0.118125
-0.0633805
-0.0239616
0.00528942
0.0245595
0.0359959
0.0439942
0.0473134
0.0464489
0.0422127
0.0337591
0.0233838
0.0143551
0.00962376
0.00841777
0.0149428
0.0206976
0.0253177
0.0282834
0.0295864
0.0295907
0.0286653
0.0271393
0.0252408
0.0231439
0.0209667
0.0188003
0.0167206
0.0147906
0.0130192
0.0114669
0.010048
0.00876171
0.00757944
0.00650044
0.00550134
0.00459243
0.00375311
0.00300707
0.00230512
0.00166729
0.00100569
0.000367368
-0.500348
-0.524107
-0.5465
-0.565897
-0.581009
-0.593364
-0.599609
-0.599453
-0.591593
-0.574445
-0.546378
-0.506192
-0.453626
-0.390161
-0.31917
-0.244839
-0.172205
-0.105608
-0.0476802
-0.00147377
0.0335879
0.0568766
0.0687343
0.0728341
0.0701045
0.0619328
0.0499905
0.0342851
0.0186025
0.00725381
0.0029336
0.00401303
0.0109321
0.0177366
0.0230035
0.026386
0.0280396
0.0283516
0.0277038
0.0264206
0.0247314
0.0228098
0.0207816
0.0187399
0.0167575
0.0148873
0.013154
0.0115953
0.0101469
0.0088234
0.00760868
0.00651081
0.00550089
0.00458833
0.00374714
0.00300114
0.00230053
0.00166405
0.00100474
0.000365267
-0.482912
-0.506464
-0.529998
-0.550416
-0.567083
-0.579481
-0.586701
-0.587608
-0.580854
-0.564805
-0.537852
-0.498855
-0.447659
-0.38573
-0.316315
-0.243414
-0.171414
-0.10444
-0.0455451
0.00328422
0.0418075
0.069354
0.0851447
0.0903229
0.0857386
0.0736968
0.0557694
0.0343391
0.014707
0.00192815
-0.00243979
0.000680052
0.00799993
0.0152773
0.0208806
0.0245379
0.0264743
0.0270713
0.0266915
0.0256468
0.0241639
0.0224152
0.0205301
0.0186052
0.0167116
0.0148999
0.0132145
0.0116642
0.010205
0.00886181
0.00762816
0.00651786
0.00550113
0.00458567
0.00374323
0.00299599
0.00229613
0.00165945
0.00100284
0.000361886
-0.461856
-0.484066
-0.508374
-0.529473
-0.546366
-0.559221
-0.567158
-0.568909
-0.563146
-0.548356
-0.523078
-0.486303
-0.438008
-0.37961
-0.314102
-0.245494
-0.177094
-0.112686
-0.0543942
-0.00450753
0.0358944
0.0659846
0.0849438
0.0924734
0.0902537
0.0779702
0.0577788
0.0337708
0.0124052
-0.00104667
-0.00482734
-0.00117064
0.0060686
0.0132884
0.0189502
0.0227645
0.0249187
0.0257673
0.0256402
0.0248282
0.0235479
0.0219706
0.0202258
0.0184146
0.0166065
0.0148529
0.013229
0.0116858
0.0102284
0.00887955
0.0076382
0.00652127
0.00550125
0.00458383
0.00374096
0.0029918
0.00229222
0.00165408
0.00100032
0.000357676
-0.438441
-0.457312
-0.48154
-0.502897
-0.519687
-0.532836
-0.541187
-0.543744
-0.539088
-0.525922
-0.503007
-0.469514
-0.425549
-0.372354
-0.312474
-0.249599
-0.186937
-0.126874
-0.0705138
-0.0208123
0.0208289
0.0533152
0.0753582
0.0867225
0.0867825
0.0767569
0.0574764
0.0336944
0.0124524
-0.00120628
-0.0048995
-0.00155628
0.00500502
0.0117209
0.0172015
0.021073
0.0234015
0.0244713
0.0245711
0.0239774
0.0228924
0.0214836
0.0198774
0.018179
0.016457
0.0147673
0.0132781
0.0116693
0.0102235
0.00887957
0.00763892
0.00652026
0.00549981
0.00458167
0.00373923
0.00298817
0.0022886
0.00164834
0.000997364
0.000353128
-0.412722
-0.42703
-0.449757
-0.469916
-0.485956
-0.499175
-0.507489
-0.510653
-0.507133
-0.49596
-0.476169
-0.447081
-0.408843
-0.362365
-0.30972
-0.253844
-0.197392
-0.142802
-0.0899228
-0.0417201
-0.000145367
0.0335031
0.0579484
0.0720558
0.0765233
0.0704583
0.0547964
0.0338741
0.0145014
0.00125738
-0.00302433
-0.000826217
0.00456498
0.0104904
0.015602
0.0194249
0.0218889
0.0231839
0.0235042
0.023116
0.0222148
0.0209673
0.0194952
0.0179072
0.0162713
0.0146481
0.0131359
0.0116186
0.0101947
0.00886373
0.00763005
0.00651391
0.00549536
0.00457802
0.00373681
0.00298451
0.0022848
0.0016424
0.000994049
0.00034874
-0.382989
-0.395486
-0.416242
-0.433761
-0.448527
-0.462504
-0.471445
-0.476449
-0.475059
-0.466716
-0.450616
-0.426204
-0.393623
-0.353385
-0.307106
-0.256874
-0.206147
-0.156441
-0.107231
-0.0606776
-0.0191966
0.0153427
0.0418543
0.0584848
0.0656905
0.0637234
0.0520804
0.0345529
0.0171125
0.00460152
-4.44812e-05
0.000556954
0.00448148
0.00945015
0.0140823
0.0177793
0.0203318
0.0218319
0.0223944
0.0222283
0.0215173
0.0204321
0.0190924
0.0176133
0.0160624
0.0145039
0.0129797
0.0115597
0.010149
0.00883498
0.00761259
0.0065025
0.00548767
0.00457279
0.00373342
0.00298079
0.00228079
0.00163661
0.000990564
0.000345158
-0.352448
-0.364763
-0.380055
-0.392517
-0.404038
-0.41547
-0.426308
-0.431873
-0.433177
-0.429147
-0.4187
-0.401266
-0.376752
-0.345344
-0.307895
-0.265405
-0.220145
-0.174297
-0.129438
-0.0860643
-0.0456505
-0.0104653
0.0180314
0.0385607
0.050627
0.0531602
0.0473486
0.0349847
0.0203556
0.00936735
0.00323361
0.00257434
0.00494987
0.00880448
0.0128451
0.0163267
0.0188993
0.0205041
0.0212441
0.0212798
0.020758
0.019841
0.0186404
0.0172762
0.0158141
0.0143247
0.012838
0.0114349
0.0100756
0.00879299
0.00758843
0.00648719
0.00547733
0.00456549
0.00372808
0.00297586
0.00227548
0.0016303
0.000986196
0.000342678
-0.329399
-0.348521
-0.360391
-0.36958
-0.379098
-0.388967
-0.397461
-0.402265
-0.403027
-0.399059
-0.389423
-0.373514
-0.351246
-0.322878
-0.289135
-0.251098
-0.210468
-0.168919
-0.127756
-0.088088
-0.0511374
-0.0186168
0.00803227
0.0277894
0.04004
0.0442925
0.0407144
0.0310678
0.0190373
0.00970825
0.00437371
0.00341614
0.00529435
0.00860747
0.0122142
0.01541
0.0178505
0.0194587
0.0202788
0.020431
0.0200418
0.0192574
0.0181781
0.0169216
0.0155473
0.0141301
0.0127028
0.0113356
0.00997882
0.0087122
0.00752305
0.00643555
0.0054367
0.00453512
0.00370434
0.00295756
0.00226037
0.00161843
0.000977951
0.000339538
-0.306739
-0.329072
-0.341404
-0.348581
-0.355089
-0.361938
-0.367949
-0.371567
-0.371592
-0.367213
-0.357788
-0.34297
-0.322773
-0.297461
-0.267642
-0.234182
-0.19827
-0.161232
-0.124415
-0.0888925
-0.0556361
-0.0260391
-0.00142828
0.0172513
0.029318
0.0344187
0.0328962
0.0261318
0.0172001
0.00970987
0.00530154
0.00436404
0.00582744
0.00858109
0.0117
0.0145618
0.0168265
0.0183745
0.0192174
0.0194461
0.0191636
0.0184946
0.017531
0.0163803
0.0151001
0.0137613
0.0124025
0.0110434
0.00978161
0.0085684
0.00741335
0.00635242
0.00537339
0.00448707
0.00366836
0.00292989
0.00223946
0.00160149
0.000966578
0.000334004
-0.28556
-0.308379
-0.320771
-0.326569
-0.330768
-0.335217
-0.339556
-0.342281
-0.341903
-0.337559
-0.32884
-0.315583
-0.297806
-0.275673
-0.249596
-0.220231
-0.188506
-0.155563
-0.122545
-0.0904843
-0.0603401
-0.0332849
-0.0104866
0.00714364
0.0190424
0.025007
0.0253254
0.0211403
0.0148265
0.00914319
0.00566326
0.00482261
0.00597209
0.00828804
0.0110185
0.0136069
0.0157228
0.0172263
0.0181017
0.0184105
0.0182353
0.0176823
0.0168355
0.0157932
0.0146119
0.0133599
0.0120749
0.0108003
0.0095778
0.00840275
0.00728335
0.00625122
0.00529523
0.00442678
0.003623
0.00289489
0.00221322
0.00158053
0.000952848
0.000327581
-0.266222
-0.287307
-0.299197
-0.304345
-0.307269
-0.310274
-0.313351
-0.315184
-0.314432
-0.310269
-0.302322
-0.290469
-0.274735
-0.255262
-0.232355
-0.206529
-0.178553
-0.149361
-0.119932
-0.0912203
-0.0641193
-0.0395994
-0.0186538
-0.0020959
0.00959519
0.0162459
0.0180781
0.0160311
0.0119371
0.00791954
0.00537399
0.00478609
0.0058025
0.00782204
0.0102461
0.0126013
0.0145847
0.0160473
0.0169519
0.0173367
0.0172658
0.0168286
0.0161
0.0151695
0.0140916
0.0129322
0.0117269
0.0105215
0.00934679
0.00821806
0.00713827
0.00613767
0.0052071
0.00435859
0.00357129
0.00285511
0.0021834
0.0015574
0.000938135
0.000321225
-0.247053
-0.26645
-0.277722
-0.282518
-0.284774
-0.286791
-0.288788
-0.289838
-0.288811
-0.284912
-0.277746
-0.267194
-0.253308
-0.236227
-0.216199
-0.193632
-0.169125
-0.143426
-0.117362
-0.0917758
-0.0674786
-0.0452998
-0.0260813
-0.0105351
0.000897375
0.00805722
0.0111313
0.0108709
0.00867775
0.00618307
0.00457331
0.00434303
0.00534162
0.00716247
0.00935355
0.0115231
0.0133979
0.014828
0.0157625
0.0162215
0.0162524
0.01593
0.0153195
0.0145024
0.0135301
0.0124646
0.0113407
0.0102077
0.00909099
0.00801282
0.0069758
0.00600988
0.00510742
0.00428121
0.00351224
0.00280984
0.00214957
0.00153186
0.000922197
0.000314689
-0.228474
-0.246415
-0.256929
-0.261379
-0.263179
-0.26448
-0.265689
-0.266179
-0.264998
-0.261402
-0.254998
-0.245674
-0.233485
-0.218568
-0.201126
-0.181479
-0.160089
-0.137557
-0.114573
-0.0918674
-0.07016
-0.0501683
-0.0325997
-0.0180683
-0.00697915
0.0005221
0.00458621
0.00579368
0.00519771
0.0040467
0.00332361
0.00350804
0.00458852
0.00631168
0.00834617
0.0103758
0.0121637
0.0135693
0.0145346
0.0150656
0.0151956
0.0149859
0.0144928
0.0137896
0.0129242
0.0119559
0.0109191
0.00986307
0.00880885
0.00778465
0.00679381
0.00586586
0.00499444
0.00419313
0.00344468
0.00275809
0.00211099
0.00150334
0.000904576
0.000307768
-0.211036
-0.22733
-0.236987
-0.241067
-0.242528
-0.243359
-0.244053
-0.244167
-0.242915
-0.239633
-0.233956
-0.225776
-0.215141
-0.202169
-0.187035
-0.169988
-0.151391
-0.131721
-0.111549
-0.0914923
-0.0721764
-0.0542195
-0.0382175
-0.0246946
-0.0140148
-0.00631762
-0.00149656
0.000882637
0.00160239
0.00161412
0.00171493
0.00234737
0.00358383
0.00528508
0.00722205
0.00915183
0.0108764
0.0122687
0.0132678
0.0138698
0.0140965
0.0139974
0.0136207
0.013032
0.0122757
0.0114079
0.0104617
0.00948528
0.00849818
0.00753203
0.00659103
0.0057044
0.00486713
0.0040934
0.00336783
0.00269917
0.00206714
0.00147143
0.000885043
0.000300443
-0.194451
-0.209142
-0.217964
-0.221694
-0.222911
-0.223441
-0.223805
-0.223688
-0.222438
-0.219481
-0.214495
-0.207374
-0.198148
-0.186921
-0.17384
-0.159106
-0.143001
-0.125904
-0.108279
-0.0906399
-0.0735204
-0.0574485
-0.0429278
-0.0304016
-0.0201919
-0.0124374
-0.00707452
-0.00378664
-0.00200203
-0.00100604
-0.000166258
0.000911879
0.00234891
0.00408837
0.0059829
0.00785344
0.00953911
0.0109292
0.011965
0.0126367
0.0129572
0.0129664
0.0127049
0.012231
0.0115851
0.0108196
0.00996685
0.00907339
0.008158
0.00725392
0.00636637
0.00552444
0.0047245
0.00398115
0.00328093
0.00263247
0.00201758
0.0014358
0.000863436
0.000292674
-0.178659
-0.191938
-0.199971
-0.20337
-0.204404
-0.204732
-0.204882
-0.204643
-0.203458
-0.200837
-0.196501
-0.190346
-0.182391
-0.172724
-0.161468
-0.148784
-0.134893
-0.120095
-0.104761
-0.0893151
-0.0742035
-0.0598727
-0.0467474
-0.0352013
-0.0255157
-0.0178282
-0.0121127
-0.00814964
-0.00553129
-0.00372806
-0.00224471
-0.000740552
0.000924229
0.00274702
0.00464228
0.00648587
0.00815272
0.00955075
0.0106267
0.0113676
0.0117797
0.011895
0.0117472
0.0113874
0.0108523
0.0101911
0.00943453
0.0086272
0.0077875
0.00694923
0.00611875
0.0053249
0.00456554
0.00385546
0.0031832
0.00255734
0.0019618
0.0013961
0.000839543
0.000284352
-0.163847
-0.175777
-0.183047
-0.186138
-0.187033
-0.18724
-0.187269
-0.186955
-0.185868
-0.183593
-0.179866
-0.174585
-0.167768
-0.15949
-0.14985
-0.138977
-0.127045
-0.11429
-0.101007
-0.0875381
-0.0742535
-0.0615255
-0.0497101
-0.0391214
-0.0300039
-0.0224924
-0.0165933
-0.012163
-0.0089162
-0.00646702
-0.00443741
-0.00254514
-0.000649313
0.00128208
0.00320922
0.00505284
0.00671991
0.00813662
0.00925652
0.0100663
0.0105678
0.0107865
0.0107497
0.0105029
0.0100789
0.00952328
0.00886501
0.00814649
0.00738595
0.00661618
0.00584721
0.00510477
0.00438928
0.00371543
0.00307387
0.00247312
0.00189929
0.00135195
0.000813116
0.000275349
-0.149988
-0.160628
-0.16718
-0.169992
-0.170782
-0.170906
-0.170864
-0.170549
-0.169602
-0.167661
-0.164486
-0.15999
-0.154189
-0.147141
-0.138926
-0.129649
-0.119445
-0.108496
-0.0970367
-0.0853415
-0.0737112
-0.0624528
-0.0518621
-0.0422032
-0.0336886
-0.0264476
-0.0205097
-0.0157882
-0.0120911
-0.00914644
-0.00667498
-0.00444844
-0.00233414
-0.000281156
0.00170052
0.00356543
0.0052481
0.00669207
0.00785883
0.00873674
0.00932503
0.00964381
0.00971562
0.00958035
0.00926698
0.00881731
0.00825876
0.00763139
0.00695305
0.00625608
0.00555111
0.00486319
0.00419484
0.00356021
0.00295216
0.00237919
0.00182953
0.00130295
0.000783906
0.000265538
-0.137
-0.146478
-0.152374
-0.154933
-0.155642
-0.155722
-0.155653
-0.155372
-0.154576
-0.152944
-0.150269
-0.146477
-0.141576
-0.135611
-0.128648
-0.12077
-0.112082
-0.102724
-0.0928799
-0.0827669
-0.0726271
-0.0627103
-0.0532608
-0.0445005
-0.0366124
-0.0297168
-0.0238583
-0.0189951
-0.0150073
-0.0117093
-0.00889866
-0.00639609
-0.00408585
-0.00191105
0.000136386
0.00203588
0.00374492
0.00522273
0.00643863
0.00738361
0.00805578
0.00847143
0.00864876
0.0086227
0.00841875
0.00807498
0.007617
0.00708243
0.00648879
0.00586752
0.00522815
0.00459954
0.00398148
0.00338905
0.00281736
0.00227491
0.00175202
0.00124872
0.000751668
0.000254802
-0.124916
-0.133337
-0.138625
-0.14095
-0.141597
-0.141658
-0.141583
-0.141353
-0.140703
-0.139354
-0.137132
-0.133968
-0.129859
-0.124843
-0.118975
-0.112319
-0.104955
-0.0969923
-0.0885712
-0.0798626
-0.0710593
-0.0623627
-0.0539729
-0.0460742
-0.0388229
-0.0323289
-0.0266483
-0.0217721
-0.0176319
-0.0141053
-0.0110507
-0.00833436
-0.00586176
-0.00357722
-0.0014625
0.000478523
0.00222079
0.00373674
0.00500286
0.00601315
0.00676575
0.00727436
0.00755356
0.00763361
0.0075371
0.00729858
0.00694154
0.00650077
0.00599365
0.00545048
0.00488154
0.00431357
0.00374867
0.0032013
0.00266882
0.00215973
0.00166627
0.00118887
0.000716164
0.00024303
-0.113732
-0.121175
-0.125898
-0.128009
-0.12861
-0.128671
-0.128613
-0.128426
-0.127909
-0.126823
-0.125012
-0.122397
-0.118978
-0.114789
-0.109873
-0.104278
-0.0980669
-0.0913216
-0.0841489
-0.0766816
-0.0690719
-0.0614803
-0.0540688
-0.0469892
-0.0403742
-0.0343242
-0.0289008
-0.0241159
-0.0199373
-0.0162902
-0.0130821
-0.0102175
-0.00762284
-0.00524831
-0.00307223
-0.00108901
0.000688634
0.00224392
0.00355953
0.00463242
0.00546138
0.00605831
0.00643501
0.00661766
0.00662583
0.00649079
0.00623426
0.00588802
0.00546872
0.00500547
0.00450921
0.0040048
0.00349602
0.00299646
0.002506
0.00203314
0.00157184
0.00112304
0.000677173
0.000230119
-0.103392
-0.109948
-0.114156
-0.116072
-0.116637
-0.116704
-0.116669
-0.116541
-0.11615
-0.115299
-0.113838
-0.111697
-0.108879
-0.105407
-0.101312
-0.0966358
-0.0914238
-0.0857363
-0.0796542
-0.0732797
-0.0667312
-0.0601354
-0.053622
-0.0473154
-0.041328
-0.0357494
-0.0306413
-0.0260289
-0.0219059
-0.0182332
-0.0149546
-0.012005
-0.00933099
-0.00689198
-0.00466759
-0.00264776
-0.000837263
0.000755376
0.0021179
0.00324957
0.00414999
0.00482994
0.005299
0.00557985
0.00568945
0.0056555
0.00549776
0.00524567
0.00491516
0.00453349
0.00411168
0.00367314
0.00322338
0.00277412
0.00232847
0.00189471
0.00146836
0.00105093
0.000634494
0.000215989
-0.0938623
-0.0996231
-0.103363
-0.1051
-0.105633
-0.105716
-0.105708
-0.105636
-0.105356
-0.104708
-0.103545
-0.101818
-0.0995176
-0.0966597
-0.0932724
-0.0893864
-0.085035
-0.0802624
-0.0751295
-0.069713
-0.0641038
-0.0584008
-0.0527078
-0.0471254
-0.0417478
-0.0366531
-0.0319005
-0.0275234
-0.0235329
-0.0199138
-0.0166368
-0.013661
-0.0109515
-0.00847788
-0.00622369
-0.00417793
-0.00234108
-0.000716129
0.00068847
0.00187378
0.00283978
0.00359654
0.0041522
0.00452601
0.0047326
0.00479688
0.00473618
0.00457676
0.00433437
0.00403514
0.00368955
0.00331901
0.00293121
0.00253413
0.00213592
0.00174411
0.00135552
0.000972259
0.00058794
0.000200552
-0.0851163
-0.0901596
-0.0934728
-0.0950441
-0.0955516
-0.0956531
-0.0956774
-0.0956626
-0.0954895
-0.0949965
-0.0940898
-0.0927129
-0.0908499
-0.0885157
-0.0857336
-0.0825241
-0.0789109
-0.0749267
-0.0706163
-0.0660358
-0.0612544
-0.0563487
-0.0514006
-0.046491
-0.0416975
-0.0370873
-0.0327159
-0.0286199
-0.0248207
-0.0213192
-0.0181052
-0.015157
-0.0124548
-0.00997836
-0.00771627
-0.00565914
-0.00380605
-0.0021567
-0.000717102
0.000514986
0.0015398
0.00236635
0.00300168
0.00346262
0.00376108
0.00391909
0.00395274
0.00388519
0.00373016
0.00351228
0.0032431
0.00294255
0.00262076
0.00227648
0.0019283
0.00158124
0.00123319
0.000886876
0.000537421
0.000183753
-0.07711
-0.0815082
-0.0844337
-0.0858525
-0.0863361
-0.0864552
-0.0865069
-0.086534
-0.0864397
-0.0860975
-0.0854105
-0.0843258
-0.0828338
-0.080947
-0.0786792
-0.0760449
-0.0730626
-0.0697552
-0.0661541
-0.0623002
-0.0582453
-0.054048
-0.0497723
-0.0454822
-0.0412415
-0.037107
-0.033129
-0.0293441
-0.0257791
-0.022445
-0.0193452
-0.0164717
-0.0138166
-0.0113688
-0.00912263
-0.00707154
-0.00521523
-0.00355202
-0.00208645
-0.000815922
0.000259586
0.0011483
0.00185583
0.00239661
0.00278109
0.00302822
0.00315161
0.00317271
0.0031047
0.00296891
0.00277514
0.00254394
0.00229446
0.00200119
0.00170565
0.00140601
0.00110121
0.00079463
0.000482827
0.000165685
-0.0697977
-0.0736203
-0.0761957
-0.0774743
-0.077935
-0.078071
-0.0781483
-0.0782137
-0.0781895
-0.0779619
-0.0774528
-0.0766152
-0.07544
-0.0739299
-0.0720948
-0.0699475
-0.0675016
-0.0647718
-0.0617797
-0.0585545
-0.0551344
-0.0515632
-0.0478905
-0.0441666
-0.0404431
-0.0367674
-0.0331835
-0.0297263
-0.0264244
-0.0232949
-0.0203498
-0.0175904
-0.0150179
-0.0126287
-0.0104226
-0.00839665
-0.00655217
-0.00488756
-0.003407
-0.00210778
-0.00099058
-4.85864e-05
0.000723181
0.00133648
0.00179956
0.00213002
0.00233944
0.00244507
0.00245947
0.0024041
0.00228786
0.00212589
0.00191491
0.00170651
0.00146816
0.00121867
0.000959656
0.000695442
0.000423958
0.000145741
-0.0631386
-0.0664489
-0.0687087
-0.0698584
-0.0702968
-0.0704476
-0.070547
-0.0706429
-0.0706739
-0.0705451
-0.0701833
-0.0695518
-0.0686359
-0.0674366
-0.0659649
-0.0642292
-0.0622372
-0.059998
-0.0575264
-0.0548429
-0.0519748
-0.0489542
-0.045819
-0.0426082
-0.0393633
-0.0361229
-0.032925
-0.0298009
-0.0267792
-0.0238796
-0.021119
-0.0185051
-0.0160453
-0.0137419
-0.0115992
-0.00961782
-0.00780142
-0.00614925
-0.00466591
-0.00334932
-0.00220073
-0.00121476
-0.000387926
0.0002898
0.000824771
0.00123147
0.00152089
0.00170858
0.00180335
0.00182392
0.0017814
0.00169034
0.00155386
0.00140011
0.00121902
0.00102116
0.000810061
0.000590459
0.000361835
0.000125765
-0.0570913
-0.0599461
-0.061922
-0.062953
-0.0633696
-0.063533
-0.0636513
-0.0637722
-0.063847
-0.0637959
-0.0635533
-0.0630876
-0.0623841
-0.0614465
-0.0602803
-0.058889
-0.0572778
-0.0554529
-0.0534242
-0.0512049
-0.0488142
-0.046275
-0.0436158
-0.0408663
-0.0380594
-0.0352264
-0.0323991
-0.0296048
-0.0268702
-0.0242154
-0.0216599
-0.0192149
-0.016892
-0.0146974
-0.0126392
-0.0107211
-0.00894903
-0.0073237
-0.00585077
-0.00452868
-0.0033601
-0.00234108
-0.00146858
-0.00073542
-0.000137359
0.000339528
0.000702915
0.000965295
0.0011383
0.00123799
0.00126566
0.00123951
0.00117362
0.00107773
0.000953799
0.000810063
0.000649142
0.000477408
0.000294134
0.000101389
-0.051613
-0.0540645
-0.0557859
-0.0567084
-0.0571035
-0.0572771
-0.057411
-0.0575511
-0.0576593
-0.0576693
-0.0575247
-0.0571924
-0.0566645
-0.0559414
-0.0550262
-0.0539209
-0.0526285
-0.0511523
-0.0494984
-0.0476748
-0.0456948
-0.0435742
-0.0413338
-0.0389958
-0.0365858
-0.0341289
-0.0316512
-0.029176
-0.026727
-0.0243234
-0.021985
-0.019725
-0.0175572
-0.0154902
-0.0135346
-0.0116966
-0.00998436
-0.00839997
-0.00695028
-0.00563524
-0.00445802
-0.00341662
-0.00250969
-0.00173093
-0.00107761
-0.000539915
-0.000109622
0.00022443
0.00046725
0.00063493
0.000743555
0.000795735
0.000792124
0.00075584
0.000687468
0.000596479
0.000486786
0.000362652
0.000227144
8.20826e-05
-0.0466641
-0.0487597
-0.0502537
-0.0510768
-0.0514508
-0.0516323
-0.0517785
-0.0519324
-0.0520649
-0.0521204
-0.0520505
-0.0518272
-0.051444
-0.0508957
-0.050186
-0.0493178
-0.0482917
-0.0471078
-0.0457694
-0.0442815
-0.0426528
-0.040894
-0.0390197
-0.0370459
-0.0349925
-0.0328786
-0.0307256
-0.0285527
-0.0263809
-0.0242271
-0.0221105
-0.0200443
-0.0180436
-0.0161183
-0.0142802
-0.0125373
-0.010899
-0.00936904
-0.00795566
-0.00665952
-0.00548514
-0.00443266
-0.00350089
-0.00268627
-0.00198856
-0.00139696
-0.000906279
-0.000510051
-0.000200756
3.54725e-05
0.000194118
0.000299866
0.000368517
0.000395513
0.000392718
0.000360839
0.000305244
0.000234274
0.000148081
5.0668e-05
-0.0422062
-0.0439885
-0.0452798
-0.0460125
-0.0463657
-0.0465531
-0.046709
-0.0468731
-0.0470233
-0.047114
-0.0471046
-0.0469694
-0.0466976
-0.0462908
-0.0457507
-0.0450773
-0.0442707
-0.0433295
-0.0422552
-0.0410502
-0.0397201
-0.0382714
-0.0367145
-0.0350608
-0.0333249
-0.031521
-0.029666
-0.0277755
-0.0258674
-0.0239563
-0.0220595
-0.0201897
-0.018362
-0.0165868
-0.0148766
-0.0132399
-0.0116874
-0.0102239
-0.00885846
-0.00759331
-0.00643354
-0.00538069
-0.00443527
-0.00359502
-0.00285997
-0.00222355
-0.00168062
-0.0012245
-0.000851471
-0.000547407
-0.0002998
-0.000115636
5.86439e-06
8.88886e-05
0.000128499
0.00014507
0.000141131
0.00011936
8.40998e-05
3.61558e-05
-0.0382041
-0.0397116
-0.0408227
-0.0414732
-0.0418061
-0.0419973
-0.0421602
-0.0423306
-0.0424918
-0.0426066
-0.0426409
-0.0425728
-0.0423938
-0.0421031
-0.0417013
-0.0411876
-0.0405617
-0.0398216
-0.0389676
-0.0380001
-0.0369223
-0.0357378
-0.0344538
-0.0330779
-0.0316208
-0.0300929
-0.0285074
-0.0268766
-0.0252154
-0.0235357
-0.0218527
-0.0201777
-0.018525
-0.0169048
-0.0153293
-0.0138074
-0.0123504
-0.0109638
-0.00965768
-0.00843495
-0.00730122
-0.00626006
-0.00531193
-0.0044565
-0.00369672
-0.00302577
-0.00244117