/*--------------------------------*- C++ -*----------------------------------*\
| =========                 |                                                 |
| \\      /  F ield         | OpenFOAM: The Open Source CFD Toolbox           |
|  \\    /   O peration     | Version:  2312                                  |
|   \\  /    A nd           | Website:  www.openfoam.com                      |
|    \\/     M anipulation  |                                                 |
\*---------------------------------------------------------------------------*/
FoamFile
{
    version     2.0;
    format      ascii;
    arch        "LSB;label=32;scalar=64";
    class       surfaceScalarField;
    location    "9";
    object      phi;
}
// * * * * * * * * * * * * * * * * * * * * * * * * * * * * * * * * * * * * * //

dimensions      [0 3 -1 0 0 0 0];

oriented        oriented;

internalField   nonuniform List<scalar> 
10785
(
-0.000132168
0.00274255
-0.00261038
0.00212415
0.00658523
-0.00884155
0.00756256
0.00672039
-0.0121588
0.0170376
0.0014369
-0.010912
0.0320849
-0.0102136
-0.00483365
0.0540474
-0.0280921
0.00612958
0.0830433
-0.0506759
0.02168
0.117421
-0.0758022
0.0414241
0.153856
-0.101112
0.0646771
0.189033
-0.124665
0.0894882
0.218165
-0.144553
0.115421
0.239661
-0.159473
0.137976
0.251345
-0.170897
0.159214
0.253983
-0.175736
0.173099
-0.184252
0.183975
0.25426
-0.000982629
0.00372518
0.000331086
0.00527152
0.00658606
0.000465408
0.0203794
-0.0123564
0.0432427
-0.033077
0.0738201
-0.0586695
0.10853
-0.0853854
0.142833
-0.110106
0.172562
-0.130841
0.19467
-0.146773
0.20818
-0.158063
0.215287
-0.16658
0.218171
-0.173781
0.223914
-0.181479
-0.192038
0.2317
-0.000481756
0.00420694
0.00256183
0.00222793
0.0132729
-0.0102456
0.0342684
-0.033352
0.0635229
-0.0623314
0.0958481
-0.0909947
0.125741
-0.115279
0.149313
-0.133677
0.165168
-0.146696
0.174469
-0.156074
0.180516
-0.16411
0.186139
-0.172204
0.193322
-0.180964
0.20147
-0.189627
-0.197567
0.206999
0.000647041
0.0035599
0.00714314
-0.00426817
0.0241369
-0.0272394
0.0504356
-0.0596507
0.079553
-0.0914489
0.105223
-0.116665
0.124166
-0.134222
0.136469
-0.14598
0.144465
-0.154692
0.15101
-0.162619
0.157495
-0.170594
0.163952
-0.17866
0.169428
-0.186441
0.173869
-0.194067
-0.202591
0.178892
0.00194452
0.00161538
0.0129712
-0.0152948
0.0351092
-0.0493774
0.0613381
-0.0858796
0.0841557
-0.114266
0.100442
-0.132951
0.111001
-0.144782
0.118273
-0.153252
0.124256
-0.160674
0.129511
-0.167875
0.134013
-0.175096
0.137855
-0.182502
0.141652
-0.190238
0.146265
-0.19868
-0.207048
0.150722
0.00356403
-0.00194865
0.0190634
-0.0307942
0.0423816
-0.0726956
0.0637325
-0.10723
0.0788949
-0.129429
0.0885115
-0.142567
0.0948203
-0.151091
0.0995007
-0.157933
0.103258
-0.164431
0.106524
-0.171141
0.109697
-0.178268
0.112992
-0.185798
0.116421
-0.193667
0.119441
-0.2017
-0.209902
0.122295
0.00559389
-0.00754255
0.0237363
-0.0489365
0.0440817
-0.093041
0.0592355
-0.122384
0.0685669
-0.13876
0.074051
-0.148051
0.0775425
-0.154582
0.0801267
-0.160517
0.0823854
-0.16669
0.0845084
-0.173264
0.0864349
-0.180195
0.0881258
-0.187489
0.0895818
-0.195123
0.0911004
-0.203219
-0.211543
0.0927422
0.00767513
-0.0152177
0.0255454
-0.0668068
0.0411729
-0.108669
0.0509472
-0.132159
0.0560946
-0.143908
0.0587046
-0.150661
0.06021
-0.156087
0.0612697
-0.161577
0.0620372
-0.167457
0.06253
-0.173757
0.0628321
-0.180497
0.0630301
-0.187687
0.0632761
-0.195369
0.0634818
-0.203425
0.0637018
-0.211763
-0.00978284
0.00583863
0.00394422
-0.0252119
0.00919617
0.00623294
-0.0422833
0.0102129
0.00685843
-0.0601698
0.0107111
0.00717545
-0.0785611
0.0109172
0.00747409
-0.0970264
0.0107167
0.00774858
-0.115074
0.0100592
0.00798878
-0.132161
0.00893035
0.00815602
-0.147699
0.00735698
0.00818152
-0.16106
0.0054012
0.00795959
-0.171553
0.00315557
0.00733697
-0.178362
0.000691929
0.00611727
-0.180954
-0.00153398
0.00412618
-0.17826
-0.00380219
0.00110784
-0.00635439
-0.169419
-0.00248621
-0.00814813
0.0139868
-0.0216555
0.0227036
-0.0367764
0.0253338
-0.0524676
0.0264022
-0.0683282
0.0267778
-0.083934
0.0263225
-0.0988206
0.0249459
-0.112493
0.0226025
-0.124427
0.0192916
-0.134055
0.0150289
-0.140742
0.00984239
-0.143621
0.00357144
-0.141835
-0.00332044
-0.134871
-0.0107665
-0.0199882
-0.121237
-0.00419184
0.0181786
-0.0128306
0.0313423
-0.023036
0.0355393
-0.0333063
0.0366724
-0.0429548
0.0364264
-0.0515074
0.0348751
-0.0584915
0.0319299
-0.0634559
0.0275669
-0.0659761
0.0218118
-0.0655653
0.0146181
-0.0619979
0.00627503
-0.0547685
-0.00365804
-0.0435018
-0.014587
-0.0268713
-0.0273971
-0.042485
-0.00437452
0.000444874
0.0177337
-0.00197808
0.0337652
-0.00609729
0.0396585
-0.0100958
0.0406709
-0.01292
0.0392507
-0.0139814
0.0359364
-0.0128379
0.0307864
-0.00908661
0.0238156
-0.0023843
0.0151095
0.00759274
0.00464106
0.0205323
-0.00666459
0.0378384
-0.0209641
0.0586123
-0.035361
0.0842595
-0.0530442
-0.0748058
0.11658
0.00397112
0.0137626
0.00767894
0.0300574
0.0100096
0.0373279
0.0122289
0.0384516
0.015656
0.0358236
0.0210663
0.0305261
0.0288498
0.023003
0.0391693
0.0134962
0.0518677
0.00241111
0.0676958
-0.0111871
0.0862587
-0.0252275
0.108833
-0.0435388
0.135321
-0.0618483
0.16651
-0.0842335
-0.110818
0.202522
0.00516312
0.00859949
0.0128542
0.0223664
0.0204818
0.0297003
0.0281187
0.0308147
0.0366337
0.0273087
0.0467
0.0204598
0.0586245
0.0110784
0.0720581
6.25485e-05
0.0886784
-0.0142092
0.107793
-0.0303017
0.131181
-0.0486151
0.158845
-0.071203
0.190959
-0.0939625
0.228026
-0.1213
-0.146523
0.263731
0.00407715
0.00452233
0.0121395
0.014304
0.0217414
0.0200984
0.0320342
0.0205219
0.0430744
0.0162684
0.0552134
0.00832073
0.0691368
-0.00284495
0.0862582
-0.0170589
0.106909
-0.0348598
0.13192
-0.0553133
0.16286
-0.0795545
0.19653
-0.104873
0.23301
-0.130443
0.267383
-0.155673
-0.172511
0.293371
0.00191195
0.00737439
0.015314
0.0249239
0.0363587
0.050809
0.0696441
0.0940093
0.123827
0.158002
0.193868
0.226972
0.255743
0.273168
0.284632
-0.118844
-0.0335112
-0.0170635
-0.0467465
-0.0363128
-0.0357851
0.0265742
-0.0246446
-0.0486761
0.0909804
-0.0123041
-0.0521021
0.142165
-0.000809701
-0.0503747
0.180218
0.00817441
-0.0462274
0.207982
0.014861
-0.0426255
0.228557
0.019668
-0.040243
0.243982
0.0232449
-0.0386697
0.255414
0.0262006
-0.0376321
0.263723
0.0285644
-0.0368741
0.269609
0.0304908
-0.0363761
0.27369
0.0322392
-0.0363206
0.276485
0.0340623
-0.0368575
0.278387
0.0360608
-0.0379628
0.279666
0.0382551
-0.0395337
0.280499
0.0406498
-0.0414833
0.281001
0.0432518
-0.043753
0.281253
0.0461261
-0.0463783
0.281301
0.0491421
-0.0491907
0.281193
0.0530205
-0.0529117
0.280951
0.0557242
-0.0554826
0.280563
0.063465
-0.0630775
0.280165
0.0601006
-0.0597021
0.279469
0.0846923
-0.083996
0.279031
0.053998
-0.0535609
0.278153
0.12312
-0.122241
0.277281
0.0536173
-0.0527456
0.276883
0.122823
-0.122426
0.275485
0.14772
-0.146322
0.274197
0.0740903
-0.0728027
0.273965
0.133215
-0.132983
0.273328
0.247078
-0.24644
0.271378
0.239239
-0.237288
0.269098
0.111367
-0.109087
0.267135
0.00338102
-0.00141849
0.265494
-0.0819403
0.0835813
-0.0766081
0.0781564
-0.0789289
-0.0758191
-0.0210534
-0.0941883
0.0434213
-0.0891194
0.101149
-0.070032
0.147447
-0.0471073
0.182127
-0.0265057
0.207905
-0.0109176
0.227312
0.000261268
0.242324
0.00823282
0.253708
0.0148171
0.262164
0.0201079
0.26823
0.0244253
0.272466
0.0280024
0.275383
0.0311452
0.277383
0.0340614
0.278744
0.0368935
0.279652
0.0397425
0.280221
0.042682
0.280537
0.0458101
0.280652
0.0490273
0.280602
0.0530705
0.280439
0.0558878
0.280099
0.0638047
0.279809
0.0603903
0.27914
0.0853622
0.278832
0.0543052
0.278022
0.12393
0.277165
0.0544751
0.277011
0.122977
0.275546
0.149185
0.274283
0.0753535
0.274354
0.133144
0.273777
0.247654
0.271619
0.241397
0.269163
0.113824
0.267178
0.0053656
0.265652
-0.0804142
-0.0752286
0.0196789
-0.0998725
0.054746
-0.129255
0.0979848
-0.132358
0.139695
-0.111743
0.173507
-0.0809185
0.199436
-0.0524351
0.218606
-0.0300872
0.233107
-0.0142403
0.244235
-0.00289484
0.253156
0.00589623
0.260103
0.0131609
0.265345
0.0191833
0.269201
0.0241465
0.271994
0.0283523
0.274006
0.0320485
0.275448
0.0354517
0.276465
0.038726
0.277158
0.0419893
0.277601
0.045367
0.277852
0.0487758
0.277935
0.052988
0.27793
0.0558925
0.277719
0.0640155
0.277628
0.0604812
0.277076
0.0859146
0.276993
0.0543882
0.276355
0.124568
0.275619
0.0552114
0.275808
0.122788
0.274426
0.150567
0.273301
0.0764791
0.273793
0.132652
0.273407
0.24804
0.271197
0.243606
0.268726
0.116295
0.26688
0.00721163
0.265635
-0.0791694
-0.074192
0.120106
-0.103398
0.136343
-0.145492
0.156968
-0.152984
0.17853
-0.133304
0.198016
-0.100404
0.214047
-0.0684662
0.22676
-0.0428001
0.236486
-0.0239664
0.244265
-0.0106736
0.250481
-0.00032003
0.255786
0.00785644
0.260061
0.0149082
0.263455
0.020752
0.26611
0.0256983
0.268167
0.0299909
0.269747
0.0338722
0.270941
0.0375312
0.27183
0.0411009
0.272473
0.0447234
0.272936
0.0483129
0.273226
0.0526982
0.273459
0.0556595
0.273456
0.0640185
0.273651
0.060286
0.273304
0.0862614
0.273538
0.0541549
0.273177
0.124928
0.272657
0.0557317
0.273301
0.122144
0.272134
0.151734
0.271254
0.0773591
0.272271
0.131635
0.272229
0.248082
0.270124
0.245711
0.267792
0.118628
0.266241
0.0087629
0.265442
-0.0783707
-0.0736711
0.196337
-0.0972133
0.192412
-0.141567
0.19444
-0.155012
0.19938
-0.138244
0.206811
-0.107836
0.21534
-0.0769945
0.223648
-0.0511083
0.231158
-0.0314766
0.237614
-0.0171294
0.243355
-0.00606171
0.248152
0.00305956
0.252134
0.0109267
0.255353
0.0175327
0.25796
0.0230917
0.260083
0.0278675
0.261811
0.032144
0.263208
0.0361345
0.264331
0.0399773
0.265227
0.0438274
0.265964
0.0475768
0.266528
0.052134
0.267073
0.055114
0.267353
0.0637385
0.267919
0.0597203
0.267861
0.0863193
0.268501
0.053515
0.268522
0.124907
0.268306
0.055948
0.269521
0.120929
0.268688
0.152567
0.268156
0.0778912
0.269809
0.129981
0.270264
0.247627
0.268419
0.247557
0.266373
0.120674
0.265268
0.00986768
0.265076
-0.0781789
-0.0738353
0.250505
-0.0839874
0.229869
-0.120931
0.213477
-0.13862
0.204361
-0.129127
0.202271
-0.105746
0.205867
-0.0805903
0.212302
-0.0575438
0.219093
-0.0382678
0.225516
-0.0235518
0.231284
-0.0118297
0.236211
-0.00186758
0.240505
0.00663262
0.244084
0.0139534
0.247033
0.0201431
0.24948
0.0254209
0.251525
0.0300984
0.25324
0.0344194
0.254689
0.0385289
0.255914
0.0426017
0.256997
0.0464945
0.257907
0.0512241
0.25884
0.0541808
0.259477
0.0631017
0.260495
0.0587016
0.260806
0.0860089
0.261937
0.0523835
0.262439
0.124405
0.262608
0.0557791
0.26451
0.119026
0.26412
0.152957
0.264036
0.0779755
0.266437
0.12758
0.267539
0.246525
0.266102
0.248994
0.264483
0.122293
0.26397
0.01038
0.264541
-0.0787495
-0.0748493
0.272463
-0.0630794
0.243364
-0.0918326
0.214909
-0.110165
0.19816
-0.112378
0.19215
-0.0997363
0.193562
-0.0820028
0.198619
-0.0626007
0.204988
-0.0446363
0.211331
-0.0298953
0.21729
-0.0177885
0.222681
-0.0072586
0.227199
0.00211475
0.231039
0.0101134
0.234216
0.0169659
0.236909
0.0227277
0.239236
0.0277714
0.241268
0.0323876
0.243066
0.0367315
0.244662
0.0410051
0.246144
0.0450124
0.247458
0.0499101
0.248847
0.0527917
0.249905
0.0620441
0.251457
0.0571497
0.252205
0.0852613
0.253911
0.0506772
0.254992
0.123324
0.25561
0.0551612
0.258326
0.11631
0.25848
0.152804
0.258925
0.07753
0.262192
0.124313
0.264098
0.244619
0.263211
0.249881
0.262145
0.123359
0.262359
0.010166
0.263842
-0.0802323
-0.0768705
0.262286
-0.0407337
0.233766
-0.0633125
0.205745
-0.0821439
0.184748
-0.0913814
0.175028
-0.0900162
0.173977
-0.0809519
0.178498
-0.0671209
0.185533
-0.051672
0.192818
-0.0371803
0.199596
-0.0245659
0.205524
-0.0131871
0.210688
-0.00304943
0.215153
0.00564893
0.218944
0.0131749
0.222154
0.0195176
0.224924
0.0250009
0.22737
0.0299424
0.22958
0.0345208
0.231601
0.0389844
0.233534
0.043079
0.235308
0.0481366
0.237209
0.0508903
0.238754
0.060499
0.240902
0.055002
0.242173
0.08399
0.244511
0.0483397
0.246273
0.121561
0.247405
0.0540293
0.251014
0.112701
0.25184
0.151979
0.252894
0.0764757
0.257098
0.120109
0.259959
0.241758
0.259772
0.250068
0.259393
0.123738
0.260464
0.00909457
0.262991
-0.0827592
-0.0800469
0.487847
-0.0219256
-0.506655
0.468052
-0.0435167
0.445256
-0.0593487
0.422585
-0.0687104
0.403555
-0.0709858
0.389243
-0.0666403
0.379817
-0.0576948
0.374213
-0.0460679
0.37123
-0.0341973
0.370014
-0.0233498
0.370001
-0.0131741
0.370998
-0.00404651
0.372391
0.00425644
0.374016
0.011549
0.375633
0.0179011
0.377163
0.0234713
0.378575
0.0285296
0.379862
0.0332347
0.381014
0.0378321
0.382049
0.0420442
0.382973
0.0472123
0.383777
0.0500866
0.384579
0.0596965
0.385113
0.0544686
0.385971
0.0831312
0.386256
0.0480548
0.386957
0.12086
0.38771
0.0532763
0.387606
0.112806
0.388513
0.151072
0.389431
0.075557
0.389529
0.120011
0.389463
0.241825
0.389759
0.249772
0.389972
0.123524
0.389888
0.00917853
0.389837
-0.0827085
-0.0800762
0.512308
-0.00929891
-0.524935
0.496054
-0.0272628
0.478316
-0.04161
0.460505
-0.0509002
0.443935
-0.0544149
0.430283
-0.0529891
0.420224
-0.0476352
0.413828
-0.0396725
0.410334
-0.0307025
0.408666
-0.0216825
0.408046
-0.0125539
0.408011
-0.00401111
0.408721
0.00354573
0.409856
0.0104148
0.411222
0.0165345
0.412663
0.0220305
0.41407
0.0271221
0.415395
0.0319095
0.416608
0.0366201
0.417706
0.0409462
0.418699
0.0462187
0.419569
0.0492164
0.420439
0.058827
0.421058
0.0538495
0.421958
0.0822312
0.422365
0.0476478
0.423102
0.120123
0.423926
0.0524524
0.423967
0.112764
0.424911
0.150128
0.4259
0.074568
0.42604
0.119871
0.426071
0.241794
0.426423
0.24942
0.426662
0.123286
0.42661
0.00923002
0.426594
-0.0826926
-0.0801419
0.544984
-0.00200551
-0.552278
0.533792
-0.0160699
0.519781
-0.0275992
0.504262
-0.035381
0.489068
-0.0392212
0.475623
-0.0395449
0.464873
-0.0368844
0.457148
-0.0319479
0.452255
-0.0258098
0.449431
-0.0188584
0.448107
-0.0112301
0.448019
-0.00392237
0.448592
0.00297211
0.449585
0.00942254
0.450758
0.0153615
0.452001
0.0207874
0.453266
0.025857
0.454511
0.0306646
0.455698
0.0354327
0.456809
0.0398353
0.457842
0.0451857
0.45877
0.048289
0.459694
0.057903
0.460411
0.0531324
0.46134
0.0813023
0.461897
0.0470903
0.462667
0.119354
0.463584
0.0515355
0.463796
0.112552
0.464781
0.149143
0.465801
0.0735482
0.466101
0.119571
0.466332
0.241563
0.466723
0.249029
0.466919
0.123089
0.46686
0.00928896
0.466888
-0.0827199
-0.0802496
0.579475
0.00348703
-0.584968
0.569906
-0.00650015
0.557997
-0.0156903
0.545255
-0.0226396
0.532951
-0.0269168
0.521883
-0.0284773
0.512626
-0.0276269
0.505467
-0.0247893
0.500273
-0.0206161
0.496743
-0.0153281
0.494614
-0.00910141
0.493403
-0.00271094
0.493063
0.00331157
0.493384
0.00910211
0.494139
0.0146059
0.495141
0.0197863
0.496261
0.0247361
0.497423
0.0295029
0.498572
0.0342841
0.499676
0.0387309
0.500732
0.0441302
0.501707
0.0473136
0.502678
0.056932
0.503505
0.0523058
0.504454
0.0803523
0.505191
0.0463533
0.505998
0.118547
0.50699
0.0505432
0.507461
0.112082
0.508448
0.148156
0.509487
0.0725087
0.510061
0.118997
0.510562
0.241062
0.510969
0.248622
0.511094
0.122964
0.511021
0.00936263
0.511087
-0.0827861
-0.0803995
0.617774
0.00748895
-0.621776
0.611058
0.000216131
0.602295
-0.00692795
0.592499
-0.0128431
0.582313
-0.0167307
0.572481
-0.0186458
0.563642
-0.0187877
0.556243
-0.0173902
0.550493
-0.0148659
0.546375
-0.0112102
0.543656
-0.00638258
0.542084
-0.00113921
0.541412
0.00398425
0.541412
0.00910131
0.541862
0.0141559
0.542593
0.0190557
0.543503
0.0238262
0.54452
0.0284859
0.545587
0.0332176
0.546659
0.0376581
0.547722
0.0430679
0.54874
0.0462955
0.549757
0.0559148
0.550696
0.0513668
0.551674
0.0793738
0.552594
0.0454336
0.553458
0.117683
0.554529
0.0494728
0.555308
0.111303
0.556281
0.147182
0.557365
0.0714243
0.55829
0.118073
0.559099
0.240252
0.559531
0.248191
0.559577
0.122919
0.559479
0.00946016
0.559585
-0.082892
-0.0805928
0.661034
0.0101314
-0.663676
0.656249
0.00500091
0.649666
-0.000344908
0.641744
-0.0049214
0.633321
-0.0083069
0.625074
-0.0103993
0.617488
-0.0112013
0.610873
-0.0107757
0.605344
-0.00933679
0.601022
-0.00688775
0.597964
-0.00332536
0.59593
0.000895007
0.594702
0.00521211
0.594195
0.00960882
0.59423
0.0141203
0.594645
0.0186415
0.59532
0.0231504
0.596174
0.027632
0.59714
0.0322524
0.598163
0.0366344
0.599217
0.0420146
0.600271
0.0452415
0.601328
0.0548572
0.602379
0.050316
0.603397
0.0783558
0.604501
0.0443297
0.605455
0.116729
0.606613
0.0483144
0.607721
0.110195
0.608709
0.146194
0.609873
0.0702603
0.611193
0.116753
0.612343
0.239102
0.612822
0.247711
0.612798
0.122943
0.612679
0.00957933
0.612826
-0.0830389
-0.080829
0.710062
0.0120246
-0.711955
0.706529
0.00853367
0.701524
0.00466059
0.695486
0.00111654
0.688856
-0.00167696
0.682103
-0.00364683
0.675595
-0.00469353
0.669609
-0.0047895
0.66435
-0.00407761
0.659997
-0.00253443
0.656641
2.9887e-05
0.654301
0.00323545
0.65275
0.00676347
0.651881
0.0104771
0.651577
0.0144246
0.651698
0.0185208
0.652136
0.0227119
0.652812
0.0269563
0.653658
0.0314067
0.654617
0.0356749
0.65565
0.0409821
0.656733
0.0441583
0.657828
0.053762
0.658992
0.0491517
0.660068
0.0772805
0.661358
0.0430394
0.662433
0.115654
0.663693
0.0470551
0.665149
0.108738
0.666198
0.145145
0.667474
0.0689842
0.669231
0.114996
0.670758
0.237575
0.671321
0.247148
0.671249
0.123015
0.671115
0.00971324
0.671303
-0.0832267
-0.0811053
0.764629
0.0134569
-0.766061
0.762096
0.0110661
0.758444
0.00831269
0.753877
0.00568383
0.748716
0.00348393
0.743238
0.00183119
0.737768
0.000776756
0.732584
0.000393845
0.72786
0.000646864
0.723751
0.00157419
0.720466
0.00331551
0.717947
0.00575392
0.716136
0.00857414
0.714956
0.0116572
0.71434
0.0150412
0.714184
0.0186762
0.714392
0.0225039
0.714888
0.0264602
0.715607
0.0306878
0.716494
0.0347884
0.717497
0.0399788
0.718605
0.043051
0.719739
0.0526271
0.72102
0.0478714
0.722172
0.0761285
0.723651
0.0415599
0.724881
0.114424
0.726263
0.0456732
0.728091
0.10691
0.729255
0.143981
0.730682
0.0675574
0.732922
0.112756
0.734877
0.23562
0.73557
0.246456
0.735481
0.123104
0.735344
0.00985037
0.735571
-0.0834541
-0.0814152
0.825235
0.0143466
-0.826125
0.82353
0.0127714
0.820947
0.0108956
0.817571
0.00905951
0.813611
0.00744473
0.809322
0.00611938
0.804912
0.00518705
0.800584
0.00472226
0.796485
0.00474594
0.792758
0.00530036
0.789583
0.0064907
0.787048
0.00828904
0.785123
0.0104995
0.783758
0.0130223
0.782917
0.0158822
0.782539
0.0190538
0.78255
0.0224929
0.782885
0.0261256
0.783484
0.0300882
0.7843
0.0339728
0.785274
0.0390042
0.786407
0.0419185
0.787588
0.0514456
0.788989
0.0464701
0.790239
0.0748787
0.791917
0.0398827
0.793337
0.113004
0.794873
0.0441364
0.797096
0.104688
0.798439
0.142638
0.800067
0.0659296
0.802847
0.109975
0.805297
0.23317
0.806181
0.245572
0.806112
0.123173
0.805988
0.00997374
0.806252
-0.0837174
-0.0817468
0.89263
0.0149017
-0.893185
0.891467
0.0139347
0.889655
0.0127079
0.887229
0.0114851
0.884304
0.0103696
0.88103
0.0093935
0.877553
0.00866409
0.87403
0.00824535
0.870591
0.00818519
0.867363
0.00852826
0.864495
0.00935873
0.862095
0.0106891
0.860183
0.0124118
0.858745
0.0144595
0.857775
0.0168525
0.857245
0.0195835
0.857109
0.022629
0.857318
0.0259171
0.857821
0.0295847
0.858581
0.0332133
0.859538
0.0380473
0.860705
0.0407518
0.861945
0.0502047
0.863479
0.0449366
0.864851
0.0735067
0.866746
0.0379878
0.868389
0.11136
0.870126
0.0423998
0.872774
0.10204
0.874368
0.141044
0.876262
0.064035
0.87965
0.106587
0.882684
0.230136
0.883842
0.244414
0.883843
0.123172
0.883754
0.0100627
0.884045
-0.084009
-0.0820796
0.967023
0.0152032
-0.967324
0.966318
0.0146397
0.965142
0.0138835
0.963494
0.0131335
0.961426
0.0124376
0.959008
0.0118108
0.956366
0.0113067
0.953611
0.0109997
0.950845
0.0109517
0.948169
0.011204
0.945707
0.0118208
0.943566
0.0128307
0.941794
0.0141837
0.940407
0.0158458
0.939419
0.0178412
0.938827
0.0201752
0.938612
0.0228439
0.938746
0.0257835
0.939192
0.0291383
0.939925
0.0324803
0.940888
0.0370841
0.94211
0.03953
0.943432
0.048883
0.945119
0.0432489
0.946642
0.0719841
0.948785
0.0358448
0.950692
0.109453
0.952676
0.0404158
0.955803
0.0989131
0.957729
0.139119
0.959962
0.0618018
0.964054
0.102495
0.967799
0.226391
0.969326
0.242886
0.969452
0.123047
0.969461
0.0100536
0.969751
-0.0842986
-0.0823788
1.04903
0.015257
-1.04908
1.0487
0.0149628
1.04802
0.0145614
1.04698
0.0141746
1.04561
0.013811
1.04395
0.0134687
1.04207
0.0131864
1.04005
0.0130267
1.03794
0.0130528
1.03585
0.0132988
1.03386
0.0138113
1.03207
0.0146226
1.03054
0.0157153
1.0293
0.0170797
1.0284
0.0187476
1.02784
0.0207355
1.02762
0.0230566
1.02775
0.0256574
1.02819
0.0286936
1.02894
0.0317296
1.02995
0.036075
1.03126
0.0382248
1.0327
0.0474384
1.03456
0.0413915
1.03631
0.0702382
1.03869
0.0334612
1.04098
0.107161
1.04321
0.0381868
1.04689
0.0952303
1.04928
0.136728
1.05193
0.0591582
1.05681
0.0976121
1.06147
0.221735
1.06362
0.240735
1.06394
0.12272
1.06393
0.0100644
1.06426
-0.0846259
-0.0825929
1.13924
0.0150591
-1.13905
1.13919
0.0150152
1.13888
0.0148679
1.13831
0.0147473
1.13749
0.014633
1.13645
0.0145127
1.13521
0.0144173
1.13384
0.0143992
1.13238
0.0145153
1.13089
0.0147909
1.12944
0.0152597
1.12811
0.0159549
1.12695
0.0168752
1.126
0.018023
1.12532
0.019435
1.12492
0.0211358
1.12482
0.023151
1.12504
0.0254368
1.12557
0.0281628
1.12642
0.0308842
1.12754
0.0349584
1.12899
0.0367691
1.13059
0.0458441
1.13271
0.0392664
1.13461
0.0683389
1.13748
0.0305948
1.13991
0.104732
1.1428
0.0352874
1.14694
0.0910989
1.14981
0.133851
1.15318
0.055789
1.159
0.0917948
1.16462
0.216112
1.16743
0.237931
1.16818
0.121961
1.16866
0.00958789
1.16872
-0.0846875
-0.0825983
1.23856
0.0146928
-1.23819
1.23882
0.014748
1.23891
0.0147816
1.2388
0.0148533
1.23851
0.0149266
1.23804
0.0149869
1.2374
0.0150564
1.23662
0.0151756
1.23574
0.0153996
1.23478
0.0157482
1.2338
0.0162356
1.23287
0.0168843
1.23205
0.0176977
1.23139
0.0186855
1.23093
0.0198893
1.23073
0.0213421
1.2308
0.0230809
1.23116
0.0250705
1.23183
0.0274931
1.23282
0.0298979
1.2341
0.0336811
1.23573
0.0351386
1.23757
0.0440067
1.23991
0.0369234
1.24226
0.0659861
1.24527
0.0275865
1.24856
0.101438
1.25141
0.0324367
1.25657
0.0859392
1.26025
0.130179
1.26393
0.0521076
1.27097
0.084752
1.27837
0.208709
1.28259
0.233714
1.28373
0.12082
1.28377
0.00955513
1.28403
-0.0849504
-0.0823288
1.34662
0.0140491
-1.34598
1.34711
0.0142607
1.34748
0.0144141
1.34772
0.0146055
1.34785
0.0147983
1.34786
0.014977
1.34776
0.0151604
1.34754
0.0153877
1.34725
0.0156973
1.34691
0.016089
1.34656
0.0165778
1.34625
0.0171973
1.346
0.0179523
1.34584
0.0188426
1.34583
0.0199003
1.34601
0.0211582
1.34643
0.0226598
1.34712
0.024381
1.3481
0.0265139
1.34939
0.0286093
1.35098
0.0320941
1.35293
0.0331818
1.3551
0.0418427
1.35787
0.0341511
1.36048
0.0633775
1.36427
0.0237928
1.36762
0.0980914
1.37178
0.0282728
1.37725
0.0804682
1.38184
0.125596
1.38688
0.0470632
1.39515
0.076481
1.40415
0.199707
1.40992
0.227952
1.4123
0.118434
1.41369
0.00816581
1.4127
-0.0839595
-0.0812246
1.46659
0.0132333
-1.46578
1.46742
0.0134323
1.46818
0.0136535
1.46885
0.0139397
1.46942
0.0142301
1.4699
0.0144967
1.4703
0.0147595
1.47063
0.0150552
1.47088
0.0154453
1.47101
0.0159637
1.471
0.0165908
1.47091
0.0172842
1.47085
0.0180101
1.47092
0.0187753
1.47118
0.019637
1.47168
0.0206586
1.47244
0.0219033
1.47346
0.0233574
1.47477
0.0252084
1.47637
0.0270086
1.47828
0.0301839
1.48054
0.0309182
1.48311
0.0392709
1.48619
0.031077
1.48953
0.0600391
1.49339
0.0199291
1.49807
0.0934116
1.50201
0.0243291
1.50887
0.0736147
1.51481
0.119648
1.52004
0.0418355
1.5299
0.0666239
1.54196
0.187645
1.55054
0.219373
1.55394
0.115038
1.55441
0.00769421
1.55386
-0.0834135
-0.07947
1.59581
0.0120896
-1.59467
1.59687
0.0123725
1.5979
0.0126271
1.5989
0.0129339
1.59989
0.0132405
1.60085
0.0135451
1.60173
0.0138769
1.60253
0.0142543
1.60324
0.01473
1.60391
0.0152968
1.60459
0.015909
1.60529
0.0165834
1.60598
0.0173238
1.60668
0.0180739
1.6075
0.018822
1.60852
0.0196394
1.6098
0.0206216
1.61136
0.0217976
1.61323
0.0233361
1.61538
0.0248599
1.61791
0.0276561
1.62066
0.0281617
1.62399
0.035948
1.62736
0.0276986
1.63177
0.055634
1.63574
0.0159588
1.64187
0.0872797
1.64644
0.0197621
1.65406
0.065993
1.66245
0.111257
1.66849
0.0357936
1.67972
0.0553921
1.69644
0.170926
1.71119
0.204627
1.71866
0.107571
1.7209
0.00545364
1.71598
-0.0784926
-0.0746084
1.73939
0.0107484
-1.73805
1.74089
0.0108712
1.74241
0.0111078
1.74385
0.0114994
1.74529
0.0117962
1.74682
0.0120193
1.74855
0.0121439
1.75056
0.012241
1.75252
0.012775
1.75384
0.0139699
1.75428
0.0154767
1.75409
0.0167662
1.75393
0.0174915
1.75432
0.0176817
1.75544
0.0176987
1.75716
0.017925
1.75926
0.0185161
1.7616
0.0194581
1.76417
0.0207714
1.76688
0.022145
1.76998
0.0245617
1.77313
0.0250036
1.77716
0.0319243
1.78073
0.0241225
1.78643
0.0499415
1.79008
0.0123028
1.79824
0.07912
1.80259
0.0154162
1.81144
0.0571397
1.82216
0.100542
1.82865
0.0293011
1.84104
0.043
1.86154
0.150428
1.88136
0.184807
1.89221
0.0967174
1.89448
0.00318674
1.88965
-0.0736632
-0.068256
1.8949
0.00910318
-1.89326
1.89671
0.0090639
1.89862
0.00920365
1.90047
0.00964737
1.90239
0.00987624
1.90451
0.0098983
1.90704
0.00960913
1.91008
0.00920703
1.913
0.00985452
1.91477
0.0121961
1.91492
0.0153338
1.91399
0.017694
1.91321
0.0182713
1.91357
0.0173213
1.91531
0.0159612
1.91807
0.0151559
1.9214
0.0151933
1.92495
0.0159036
1.92862
0.017107
1.93233
0.0184283
1.93638
0.020515
1.94015
0.0212344
1.94568
0.0263967
1.94814
0.0216567
1.95863
0.0394551
1.95583
0.0151016
1.97492
0.0600347
1.97142
0.0189095
1.98149
0.0470671
2.0046
0.0774397
2.00414
0.0297535
2.00579
0.0413557
2.04298
0.113239
2.09611
0.131676
2.12542
0.0674013
2.12503
0.00358192
2.10287
-0.0515085
-0.0500955
2.09445
0.00700521
-2.09235
2.09641
0.00709732
2.09835
0.00726746
2.10035
0.00764413
2.10233
0.00789873
2.10423
0.00799894
2.106
0.00784026
2.10761
0.00759225
2.10931
0.00815577
2.11152
0.00999039
2.11451
0.0123397
2.11819
0.0140142
2.12205
0.0144161
2.12562
0.0137535
2.12878
0.0127967
2.13171
0.0122312
2.1346
0.0123025
2.13764
0.0128567
2.14093
0.0138162
2.14453
0.0148288
2.14864
0.0164036
2.15263
0.01725
2.15876
0.0202611
2.16109
0.0193347
2.17376
0.0267836
2.16864
0.0202163
2.19287
0.0358095
2.18617
0.0256104
2.19784
0.0353901
2.22669
0.0485943
2.22294
0.0335001
2.22142
0.0428745
2.26541
0.0692528
2.32775
0.0693411
2.3579
0.0372513
2.35181
0.00966483
2.32123
-0.0209228
-0.0264454
2.28708
0.00492153
-2.285
2.28909
0.00509371
2.29108
0.00527075
2.29325
0.00547537
2.29545
0.00570314
2.29751
0.00593634
2.29919
0.00615593
2.30045
0.00633445
2.302
0.00660367
2.30489
0.00710836
2.30947
0.00775236
2.31521
0.00827691
2.32105
0.00857921
2.32607
0.00873566
2.33
0.00885766
2.33321
0.00902685
2.3362
0.00931196
2.33935
0.00970462
2.34289
0.0102735
2.34686
0.0108625
2.35144
0.011823
2.35628
0.0124096
2.36232
0.0142193
2.36756
0.0141017
2.37633
0.0180106
2.38072
0.0158255
2.39373
0.0228031
2.39906
0.0202819
2.41057
0.0238783
2.42747
0.0316903
2.43479
0.0261764
2.44742
0.0302447
2.4736
0.0430811
2.49885
0.0440878
2.51001
0.0260913
2.51001
0.00966053
2.49999
-0.0108953
-0.0161629
2.4958
0.00251471
-2.4934
2.49827
0.00262363
2.50081
0.00273253
2.50345
0.0028378
2.5062
0.00294919
2.50907
0.00306534
2.51203
0.00319835
2.515
0.00336789
2.51804
0.00355999
2.52138
0.00377485
2.52511
0.0040183
2.52913
0.00425863
2.53325
0.00445245
2.5374
0.00459253
2.54155
0.00470495
2.54576
0.00482082
2.5501
0.00497188
2.55463
0.00517092
2.55946
0.00544431
2.56456
0.00576173
2.57018
0.00620331
2.57598
0.00661143
2.58288
0.00731886
2.58928
0.00770032
2.59839
0.00889977
2.60515
0.00907066
2.61711
0.0108388
2.62609
0.0113048
2.63773
0.0122381
2.65446
0.01496
2.66634
0.0142969
2.68113
0.0154541
2.70527
0.0189362
2.73089
0.0184743
2.74577
0.0112099
2.75009
0.00533629
2.7419
-0.00270475
-0.0058657
2.72656
-2.72405
2.72918
2.73192
2.73475
2.7377
2.74077
2.74397
2.74734
2.7509
2.75467
2.75869
2.76295
2.7674
2.77199
2.7767
2.78152
2.78649
2.79166
2.7971
2.80287
2.80907
2.81568
2.823
2.8307
2.8396
2.84867
2.85951
2.87081
2.88305
2.89801
2.91231
2.92776
2.9467
2.96517
2.97638
2.98172
2.97902
0.435216
0.0559005
-0.427415
0.444233
0.0837255
0.452666
0.113862
0.462922
0.140466
0.472178
0.169636
0.485099
0.194079
0.495516
0.221283
0.24312
0.466253
0.0493541
-0.459707
0.474084
0.0758943
0.481382
0.106564
0.490148
0.1317
0.498651
0.161133
0.507642
0.185088
0.516545
0.212379
0.23473
0.500913
0.0439179
-0.495476
0.506885
0.0699217
0.513169
0.100281
0.519505
0.125364
0.526267
0.154371
0.532838
0.178517
0.541957
0.20326
0.22441
0.538207
0.039223
-0.533512
0.542648
0.0654807
0.54798
0.094949
0.553105
0.120238
0.560092
0.147384
0.567878
0.170731
0.57687
0.194269
0.216312
0.579472
0.0353783
-0.575627
0.583225
0.0617271
0.588539
0.0896349
0.59407
0.114707
0.600849
0.140606
0.607365
0.164215
0.614289
0.187345
0.208825
0.625212
0.0320479
-0.621882
0.628849
0.0580904
0.633506
0.0849778
0.638218
0.109995
0.643544
0.13528
0.649099
0.15866
0.655961
0.180483
0.201109
0.675353
0.0293388
-0.672644
0.678333
0.0551099
0.68207
0.0812408
0.686163
0.105903
0.691467
0.129976
0.69779
0.152337
0.704684
0.17359
0.193838
0.73012
0.0272458
-0.728027
0.732792
0.0524379
0.736491
0.0775425
0.741054
0.101339
0.746521
0.124509
0.75242
0.146437
0.758862
0.167148
0.186639
0.790764
0.0254076
-0.788926
0.793433
0.0497694
0.797059
0.0739163
0.80133
0.0970691
0.806339
0.119499
0.812069
0.140708
0.818703
0.160514
0.179217
0.857306
0.0238262
-0.855725
0.859759
0.0473167
0.863131
0.0705435
0.867351
0.09285
0.872575
0.114275
0.878694
0.134588
0.88559
0.153617
0.171622
0.930218
0.0224387
-0.92883
0.932623
0.0449111
0.936104
0.0670624
0.940582
0.0883726
0.94602
0.108837
0.952299
0.128309
0.959392
0.146525
0.16369
1.01028
0.0211005
-1.00894
1.01272
0.0424667
1.0163
0.0634795
1.02091
0.0837651
1.02655
0.103199
1.03316
0.121704
1.04068
0.138995
0.155295
1.09792
0.0198308
-1.09665
1.10044
0.0399535
1.10416
0.0597548
1.109
0.0789223
1.11499
0.0972094
1.12204
0.11466
1.13006
0.130972
0.146311
1.19377
0.0185413
-1.19248
1.19643
0.037293
1.20043
0.0557565
1.2057
0.0736464
1.21218
0.0907278
1.21981
0.107035
1.2285
0.122278
0.136623
1.2989
0.0170922
-1.29745
1.30177
0.0344254
1.30607
0.0514557
1.31169
0.0680227
1.31856
0.0838604
1.32657
0.099025
1.33566
0.11319
0.126304
1.41288
0.015689
-1.41148
1.41593