/*--------------------------------*- C++ -*----------------------------------*\
| =========                 |                                                 |
| \\      /  F ield         | OpenFOAM: The Open Source CFD Toolbox           |
|  \\    /   O peration     | Version:  2312                                  |
|   \\  /    A nd           | Website:  www.openfoam.com                      |
|    \\/     M anipulation  |                                                 |
\*---------------------------------------------------------------------------*/
FoamFile
{
    version     2.0;
    format      ascii;
    arch        "LSB;label=32;scalar=64";
    class       volScalarField;
    location    "68";
    object      p;
}
// * * * * * * * * * * * * * * * * * * * * * * * * * * * * * * * * * * * * * //

dimensions      [0 2 -2 0 0 0 0];

internalField   nonuniform List<scalar> 
5478
(
-0.50987
-0.505813
-0.498332
-0.491248
-0.48742
-0.487655
-0.489998
-0.490801
-0.486119
-0.472902
-0.450321
-0.418906
-0.382596
-0.339312
-0.292954
-0.518699
-0.514569
-0.507692
-0.500386
-0.493945
-0.487843
-0.48037
-0.46947
-0.453454
-0.431855
-0.405173
-0.374914
-0.341807
-0.306357
-0.271837
-0.53363
-0.528298
-0.520952
-0.511959
-0.500554
-0.486009
-0.468345
-0.447701
-0.424358
-0.398657
-0.371132
-0.341969
-0.311845
-0.280942
-0.249762
-0.553829
-0.546307
-0.536767
-0.523736
-0.504841
-0.481164
-0.454946
-0.427675
-0.399951
-0.372004
-0.343796
-0.315588
-0.287489
-0.259629
-0.233184
-0.579441
-0.567928
-0.555071
-0.534832
-0.506432
-0.474119
-0.441301
-0.409399
-0.378785
-0.34934
-0.320968
-0.293488
-0.266758
-0.241059
-0.216001
-0.61145
-0.593248
-0.574358
-0.543577
-0.504794
-0.464817
-0.426813
-0.391566
-0.358923
-0.328532
-0.299996
-0.273047
-0.247546
-0.223309
-0.200001
-0.645331
-0.621099
-0.590711
-0.546975
-0.49835
-0.451941
-0.409837
-0.372024
-0.337922
-0.306901
-0.278468
-0.252228
-0.227849
-0.205142
-0.183292
-0.674637
-0.645812
-0.59999
-0.542413
-0.485148
-0.433505
-0.388248
-0.34863
-0.31366
-0.282502
-0.254489
-0.229153
-0.206201
-0.185216
-0.165605
-0.449357
-0.450204
-0.452788
-0.460373
-0.47303
-0.490394
-0.511828
-0.535982
-0.560613
-0.582584
-0.59835
-0.602806
-0.592829
-0.567047
-0.524136
-0.476181
-0.475766
-0.479394
-0.489487
-0.505939
-0.528543
-0.556736
-0.589106
-0.623113
-0.655106
-0.680449
-0.69352
-0.686434
-0.658993
-0.603435
-0.49651
-0.494205
-0.497745
-0.508216
-0.525678
-0.549888
-0.58021
-0.615172
-0.652131
-0.687292
-0.715471
-0.729949
-0.722176
-0.690145
-0.624426
-0.508545
-0.504174
-0.506015
-0.514508
-0.529954
-0.552164
-0.580433
-0.61323
-0.647978
-0.681294
-0.707398
-0.719801
-0.708525
-0.670792
-0.598958
-0.512873
-0.506846
-0.505843
-0.510307
-0.521206
-0.53875
-0.562385
-0.590944
-0.620873
-0.649981
-0.671422
-0.678192
-0.660532
-0.617539
-0.544379
-0.511945
-0.505292
-0.501273
-0.500838
-0.50607
-0.517912
-0.536054
-0.558959
-0.585361
-0.60853
-0.621414
-0.618302
-0.591175
-0.543782
-0.473502
-0.509028
-0.502869
-0.496556
-0.491933
-0.492306
-0.499516
-0.513681
-0.53245
-0.551409
-0.564151
-0.564706
-0.548825
-0.513577
-0.465833
-0.40442
-0.507343
-0.502239
-0.494776
-0.487903
-0.485511
-0.48956
-0.499147
-0.510594
-0.518879
-0.518235
-0.505479
-0.478292
-0.439744
-0.394062
-0.343766
-0.462727
-0.391781
-0.334331
-0.305304
-0.319693
-0.367076
-0.39584
-0.365585
-0.279084
-0.193643
-0.14408
-0.128946
-0.137137
-0.180961
-0.234964
-0.239339
-0.192789
-0.138281
-0.106002
-0.0898829
-0.0963449
-0.106375
-0.0881189
-0.0774284
-0.0831548
-0.0825154
-0.0671513
-0.0616879
-0.0741335
-0.0841221
-0.0665169
-0.0399573
-0.0299033
-0.022342
-0.0102008
-0.0138612
-0.0121801
-0.00130111
-0.527784
-0.43422
-0.347252
-0.283808
-0.26595
-0.283951
-0.312674
-0.297578
-0.234354
-0.167807
-0.136461
-0.136505
-0.159793
-0.216903
-0.280013
-0.288907
-0.23308
-0.161629
-0.112276
-0.08597
-0.079156
-0.0777038
-0.0623808
-0.0615441
-0.0732264
-0.0766883
-0.0660921
-0.0622594
-0.0759193
-0.0865606
-0.0672596
-0.0360821
-0.0235842
-0.0198431
-0.0140879
-0.0226923
-0.0190306
-0.00233507
-0.53476
-0.429423
-0.325408
-0.241295
-0.193729
-0.181576
-0.202323
-0.207401
-0.169199
-0.126405
-0.116918
-0.132408
-0.168985
-0.236446
-0.306861
-0.322999
-0.26334
-0.180685
-0.116823
-0.0833235
-0.068537
-0.0583497
-0.0424577
-0.0460055
-0.0632142
-0.0713457
-0.0657215
-0.0633829
-0.0779461
-0.0887942
-0.0679912
-0.03284
-0.0176105
-0.0173812
-0.0181638
-0.0318817
-0.0261751
-0.00341066
-0.500535
-0.400353
-0.295827
-0.197109
-0.127404
-0.0938442
-0.0916625
-0.103495
-0.0868794
-0.0696939
-0.0804059
-0.111544
-0.160428
-0.236886
-0.314946
-0.33121
-0.279421
-0.193679
-0.120081
-0.081166
-0.0626128
-0.0475599
-0.0295364
-0.0335567
-0.0548621
-0.0670996
-0.0658284
-0.0646043
-0.0798221
-0.0905769
-0.0686133
-0.0303851
-0.0122578
-0.0150934
-0.0222821
-0.0412285
-0.0334424
-0.00448983
-0.446752
-0.359369
-0.271972
-0.182069
-0.100562
-0.0409028
-0.0149884
-0.015298
-0.0111826
-0.0131498
-0.0372998
-0.0810038
-0.136334
-0.217656
-0.306481
-0.346326
-0.289199
-0.20174
-0.122954
-0.0797775
-0.0596632
-0.0433056
-0.0235825
-0.0254772
-0.0469316
-0.062584
-0.0663813
-0.0662591
-0.0817424
-0.0921299
-0.0692519
-0.0288457
-0.00759705
-0.0128296
-0.0262699
-0.0505677
-0.0406976
-0.00554752
-0.386973
-0.321204
-0.251092
-0.1768
-0.107657
-0.044688
0.0086119
0.0290193
0.0263467
0.0218378
-0.00661772
-0.053028
-0.104577
-0.178524
-0.271451
-0.316159
-0.274083
-0.197523
-0.122653
-0.0776874
-0.0573293
-0.042447
-0.0229381
-0.0219423
-0.0416886
-0.0589034
-0.0674799
-0.0679159
-0.0834121
-0.0932889
-0.0701379
-0.028568
-0.00370455
-0.0107431
-0.0299397
-0.0596443
-0.0477801
-0.00657865
-0.335385
-0.287897
-0.232737
-0.169807
-0.10754
-0.0532846
-6.19003e-05
0.0432693
0.060839
0.0545723
0.028471
-0.0149221
-0.0643093
-0.133536
-0.229165
-0.283599
-0.262917
-0.194962
-0.124618
-0.077333
-0.055727
-0.0423939
-0.0264624
-0.0224794
-0.0356486
-0.0542277
-0.0694127
-0.0704992
-0.0854024
-0.0942024
-0.0709812
-0.0297099
-0.000817572
-0.00842795
-0.0331366
-0.0683434
-0.0544886
-0.00755843
-0.305624
-0.276491
-0.232497
-0.181555
-0.128885
-0.0786269
-0.0298915
0.0165502
0.0479677
0.0612959
0.055517
0.0261389
-0.0152677
-0.0795375
-0.165491
-0.223399
-0.225163
-0.178574
-0.121527
-0.0775842
-0.0553513
-0.0404712
-0.0288949
-0.0251082
-0.0329317
-0.0508736
-0.0720362
-0.0725165
-0.0863918
-0.0939676
-0.0700825
-0.0293361
0.00110882
-0.00643883
-0.0357429
-0.0763235
-0.060333
-0.00830963
-0.26233
-0.251663
-0.210405
-0.161327
-0.1115
-0.0652384
-0.0218968
0.0226782
0.0551535
0.0664038
0.075564
0.0777146
0.0563977
-0.026879
-0.131974
-0.198456
-0.195443
-0.151511
-0.103254
-0.0675511
-0.0490072
-0.0363261
-0.0283015
-0.0232216
-0.0245131
-0.0450826
-0.0736761
-0.0756999
-0.087832
-0.0943449
-0.0682194
-0.0262829
0.00362549
-0.00377629
-0.0371711
-0.0834147
-0.065663
-0.00883134
-0.214242
-0.20925
-0.174079
-0.130986
-0.0888823
-0.0497572
-0.0144626
0.0222451
0.0484304
0.0644498
0.0797421
0.0920656
0.0845613
0.00429954
-0.103843
-0.163969
-0.15396
-0.119116
-0.0830072
-0.0572963
-0.0427341
-0.0314873
-0.0262364
-0.0219012
-0.0219433
-0.0433182
-0.0766946
-0.0794365
-0.0871192
-0.0914575
-0.0652448
-0.0234357
0.00433575
-0.00308788
-0.0389171
-0.0895823
-0.0703651
-0.00931631
-0.17693
-0.174575
-0.148982
-0.114089
-0.078323
-0.0444141
-0.0135555
0.0190308
0.0454246
0.061492
0.0780961
0.0929103
0.0868629
0.0225351
-0.0654423
-0.112975
-0.112512
-0.0909052
-0.0652904
-0.0469791
-0.0360502
-0.0263837
-0.0237674
-0.0206762
-0.0202172
-0.0445595
-0.0806947
-0.0823471
-0.0842749
-0.0864977
-0.0612643
-0.0213236
0.00424429
-0.00367427
-0.0411266
-0.0947246
-0.0742254
-0.00977911
-0.143897
-0.143095
-0.124465
-0.0958556
-0.0653091
-0.0360612
-0.00966138
0.0169119
0.0404997
0.0560596
0.0708825
0.0836348
0.0796605
0.0377386
-0.0252454
-0.0664701
-0.0756356
-0.0634797
-0.0466401
-0.0357275
-0.0285313
-0.0198864
-0.0203055
-0.0206529
-0.0204133
-0.0464515
-0.0829921
-0.0833782
-0.0792217
-0.078785
-0.0552141
-0.0190387
0.0028228
-0.00502074
-0.0429439
-0.0982467
-0.0766359
-0.0101478
-0.114786
-0.115715
-0.102211
-0.0795951
-0.0548584
-0.0309168
-0.00883681
0.0130979
0.0335688
0.0485234
0.0610742
0.0713293
0.0700385
0.0438955
0.00153336
-0.0307714
-0.0452624
-0.0417403
-0.031562
-0.0249874
-0.020417
-0.0120369
-0.0137899
-0.0201399
-0.0200173
-0.0453482
-0.0810089
-0.0807741
-0.0710757
-0.068401
-0.0476504
-0.0167448
0.0003015
-0.00690771
-0.0436527
-0.0991393
-0.076946
-0.0103421
-0.0907268
-0.0924085
-0.0826196
-0.0651767
-0.045496
-0.0260421
-0.00768334
0.0100707
0.0269635
0.0404536
0.0508057
0.0585068
0.0580573
0.0415585
0.0151038
-0.00933101
-0.023695
-0.0237683
-0.017539
-0.0141455
-0.0115468
-0.00343664
-0.00336372
-0.0163038
-0.0168519
-0.038697
-0.0711103
-0.0724323
-0.0600077
-0.0553172
-0.0379827
-0.0144295
-0.0028777
-0.00890688
-0.042623
-0.096637
-0.074599
-0.0102453
-0.0697873
-0.0716644
-0.065061
-0.0520736
-0.0367419
-0.0212917
-0.00653931
0.0075918
0.0210429
0.032465
0.0409106
0.0466466
0.0469174
0.0370942
0.0209218
0.00489021
-0.0070647
-0.00947903
-0.00636643
-0.00482279
-0.00289911
0.00527186
0.00899254
-0.00528787
-0.00547969
-0.0224521
-0.0506914
-0.0578573
-0.0494825
-0.0410574
-0.0265903
-0.0116708
-0.00610783
-0.0102127
-0.0392443
-0.0900421
-0.0690531
-0.00975108
-0.0514361
-0.0539124
-0.0497157
-0.0402352
-0.02853
-0.0165486
-0.00498632
0.00610527
0.0165473
0.0256919
0.0325683
0.0370012
0.0378332
0.0323811
0.0228921
0.0126546
0.00358733
0.00101012
0.00301903
0.00389623
0.00591386
0.0141176
0.0201282
0.0132601
0.0212572
0.00542316
-0.0245775
-0.0393469
-0.0347519
-0.026177
-0.0139728
-0.00735393
-0.00880063
-0.010593
-0.0330223
-0.0785975
-0.0600157
-0.00874163
-0.0353978
-0.0382777
-0.0360305
-0.0293758
-0.0206842
-0.0115829
-0.00275153
0.0057202
0.0136696
0.0207366
0.0262669
0.0298058
0.0309939
0.0284949
0.0231807
0.0173836
0.0116815
0.00934961
0.0107214
0.0112718
0.0136537
0.0217783
0.0286091
0.0313829
0.0451334
0.0337155
0.000587765
-0.0193628
-0.0201017
-0.0118393
-0.0011977
-0.00118595
-0.00857743
-0.00811432
-0.0237331
-0.0638513
-0.0486697
-0.00723819
-0.021896
-0.0248686
-0.0238771
-0.0193706
-0.0131034
-0.00638073
0.000193366
0.00649686
0.0124331
0.0177468
0.0220917
0.0250193
0.0263779
0.0256664
0.0230772
0.020157
0.0169147
0.0152151
0.0165648
0.0175922
0.0201424
0.0278489
0.0347099
0.0418956
0.0549469
0.0510277
0.0199638
-0.00115386
-0.00659573
0.00101636
0.0112691
0.00803606
-0.00163653
-0.00102759
-0.0121515
-0.0479759
-0.0363488
-0.00532674
-0.0101821
-0.012988
-0.0128921
-0.0100816
-0.00575612
-0.000946574
0.00382018
0.00838917
0.012713
0.0166126
0.0199257
0.0223398
0.0237399
0.0240534
0.0231655
0.0219808
0.0206056
0.0198067
0.0211913
0.0226885
0.025044
0.031744
0.0382321
0.0442033
0.0534813
0.0547717
0.0314677
0.0131383
0.00542629
0.0116538
0.0216829
0.0201244
0.0107169
0.0103834
0.00103244
-0.0314089
-0.0241974
-0.00334632
0.000263788
-0.00252834
-0.0031419
-0.00158656
0.00127175
0.00458916
0.00793413
0.0111447
0.0141979
0.0169973
0.0194397
0.0213641
0.0226739
0.0234278
0.0235131
0.0233453
0.0231844
0.0231494
0.0244778
0.026217
0.0284217
0.0336534
0.0392628
0.0434311
0.0492316
0.0511966
0.0363077
0.0220599
0.0149656
0.01976
0.0287808
0.0318636
0.0262057
0.0238335
0.0140788
-0.0156225
-0.0133549
-0.00169578
0.00939881
0.0066923
0.00565516
0.00632694
0.00809065
0.0102856
0.0125417
0.0147121
0.0167859
0.0187228
0.020469
0.0219762
0.0231484
0.0240305
0.0245524
0.0250269
0.0254219
0.025874
0.0271319
0.0289052
0.0309652
0.0347097
0.0391369
0.041956
0.0450213
0.0462388
0.0378001
0.0275244
0.0223629
0.0258044
0.0330455
0.0388431
0.0359742
0.0335454
0.0237249
-0.00283184
-0.00478447
0.000693633
0.0172301
0.0147362
0.0134782
0.013534
0.014478
0.0158022
0.017197
0.0185394
0.0198154
0.0210227
0.0221381
0.0231435
0.0239834
0.0247242
0.0253842
0.0260055
0.0267051
0.0275024
0.0286716
0.0302025
0.0319724
0.0345211
0.0373317
0.0393907
0.0410847
0.0414402
0.0370535
0.0308309
0.0269101
0.0291641
0.0344931
0.0402838
0.0390627
0.0364383
0.0277417
0.0058585
0.000986917
0.00159675
0.0246192
0.0223271
0.0209481
0.0205932
0.0209689
0.0216833
0.0224766
0.0232431
0.0239704
0.0246781
0.0253633
0.0260342
0.026669
0.0272999
0.027903
0.0284554
0.0291294
0.0297872
0.0307228
0.0319163
0.0332848
0.0349208
0.0369069
0.0382368
0.0389385
0.0387115
0.0365093
0.0330436
0.0305557
0.0316818
0.0351078
0.039146
0.0386507
0.0354608
0.0280178
0.0111108
0.00448494
0.00228618
0.0304675
0.0283105
0.0268367
0.026158
0.0260662
0.0262619
0.0265309
0.0267816
0.027002
0.0272161
0.0274378
0.0276811
0.0279483
0.028256
0.0286392
0.0290824
0.0296509
0.0302619
0.0311042
0.0320417
0.0330976
0.0342619
0.0354135
0.0362137
0.0365777
0.0362461
0.0349219
0.0329867
0.0311779
0.0319155
0.033975
0.0365507
0.0359322
0.0324665
0.0259807
0.013252
0.00614824
0.00254304
0.0371481
0.0352927
0.0338752
0.0330279
0.0326358
0.0324907
0.0324248
0.0323595
0.0322818
0.0322127
0.0321687
0.0321615
0.0321996
0.0322893
0.0324526
0.0326668
0.0329548
0.0332707
0.0336096
0.0340436
0.0346146
0.0351457
0.035728
0.0360487
0.0361452
0.0357511
0.034845
0.0337834
0.0325466
0.0326075
0.0333195
0.0341616
0.0332552
0.0297254
0.0240859
0.0144766
0.00741001
0.00284597
0.0407142
0.038889
0.0374384
0.0364512
0.0358245
0.0353891
0.0350113
0.0346263
0.0342265
0.0338285
0.0334585
0.0331265
0.0328577
0.0326496
0.0325421
0.0325057
0.0325836
0.0327117
0.0329521
0.0332127
0.0335649
0.0338764
0.0342163
0.0343634
0.0342744
0.033965
0.0332455
0.0325957
0.0316451
0.0313713
0.0313922
0.0311397
0.0300956
0.0266271
0.0216666
0.0141747
0.00744276
0.00265568
0.0473354
0.0459185
0.0445921
0.0434961
0.0426314
0.0419267
0.0412993
0.0406975
0.0401041
0.0395231
0.0389674
0.0384407
0.0379598
0.03752
0.0371545
0.0368324
0.0365911
0.0363574
0.0361972
0.0360171
0.0359201
0.0357698
0.035648
0.0354085
0.035051
0.0345866
0.033809
0.0331475
0.0321612
0.0315415
0.030809
0.0298605
0.0282308
0.0247861
0.0203205
0.0142396
0.0079791
0.00282374
0.0484543
0.0469127
0.0455988
0.0445431
0.0436779
0.0429051
0.042154
0.0413878
0.0406117
0.0398325
0.0390806
0.0383516
0.0376828
0.0370503
0.0365104
0.0360084
0.0356118
0.0352328
0.0349465
0.0346706
0.0344449
0.0342384
0.0339653
0.0337339
0.0332706
0.0328909
0.0321563
0.0315424
0.0306506
0.0297555
0.0288914
0.0274215
0.0257218
0.0224877
0.0183669
0.0133252
0.00759512
0.00253434
0.0544555
0.0533067
0.0521066
0.0509463
0.0498601
0.0488423
0.0478725
0.046927
0.0460011
0.0450834
0.0441917
0.0433073
0.0424675
0.0416358
0.0408769
0.0401261
0.0394635
0.0387967
0.0382002
0.037604
0.0370249
0.0364859
0.0358585
0.0353213
0.0345739
0.0339338
0.0330231
0.03216
0.0310938
0.0298969
0.0286408
0.0268213
0.0247908
0.0216589
0.0177575
0.013251
0.00792304
0.00269623
0.0540958
0.0528931
0.0517628
0.0506952
0.049675
0.0486665
0.0476651
0.0466519
0.0456449
0.0446388
0.0436538
0.0426902
0.0417542
0.0408603
0.0399933
0.0391902
0.0384054
0.0376979
0.0369913
0.0363668
0.0357228
0.0351529
0.0345287
0.0339353
0.0332543
0.0325357
0.0317329
0.0307881
0.0297938
0.0284954
0.027144
0.0252826
0.0230625
0.0202013
0.0164777
0.0123583
0.0075916
0.00253486
0.0572231
0.0561573
0.0550438
0.0539111
0.0527787
0.0516533
0.0505463
0.0494445
0.048367
0.047287
0.0462411
0.0451892
0.0441846
0.0431789
0.0422266
0.0412933
0.0403946
0.0395579
0.0386953
0.0379614
0.0371098
0.0364419
0.0355978
0.0348908
0.0340695
0.0331677
0.0323371
0.0311417
0.0301214
0.0286345
0.0270996
0.0252129
0.0227659
0.0200215
0.0163578
0.0123167
0.00776705
0.00263348
-0.146392
-0.160663
-0.175474
-0.188545
-0.204607
-0.215339
-0.231848
-0.242701
-0.126497
-0.137172
-0.14864
-0.158294
-0.169836
-0.175671
-0.184097
-0.193779
-0.107053
-0.114578
-0.122587
-0.129446
-0.136238
-0.141902
-0.149469
-0.16085
-0.0891187
-0.0943009
-0.0994247
-0.104724
-0.110656
-0.117958
-0.124158
-0.132485
-0.0723579
-0.0759691
-0.0794006
-0.084437
-0.0896732
-0.0953081
-0.0986991
-0.104777
-0.0570441
-0.0596379
-0.0621731
-0.0663603
-0.0696305
-0.0729439
-0.0758571
-0.0818117
-0.0430372
-0.0448478
-0.0465164
-0.0492572
-0.0513191
-0.0544433
-0.0578226
-0.0629743
-0.0301721
-0.0312862
-0.0322589
-0.0341824
-0.036252
-0.0393208
-0.0421547
-0.0459268
-0.0183808
-0.0190382
-0.019729
-0.0214023
-0.023393
-0.0257616
-0.0276401
-0.0305279
-0.00771581
-0.00817361
-0.00877922
-0.0101527
-0.0115966
-0.0131452
-0.0146836
-0.0175099
0.00194494
0.00160814
0.00117847
0.000258415
-0.000816843
-0.00226767
-0.00402749
-0.00657329
0.0108142
0.0105543
0.010211
0.009399
0.00827545
0.00684453
0.00536491
0.00335925
0.0189119
0.0185919
0.0181915
0.0174345
0.0164622
0.0153158
0.014062
0.0122183
0.0262304
0.0258451
0.0254026
0.0247079
0.0238192
0.0227204
0.0214508
0.0197123
0.0331054
0.0325922
0.0320862
0.0314135
0.0305639
0.0295259
0.0283486
0.0267989
0.0389692
0.0384224
0.0378329
0.0370742
0.0361719
0.0351277
0.0339602
0.0324789
0.0452367
0.0444272
0.0436532
0.0428488
0.0419977
0.0410594
0.0400403
0.0387976
0.0495659
0.0488205
0.0480377
0.0471469
0.0461498
0.0450431
0.0438369
0.0424337
0.0552786
0.0541959
0.0531518
0.0521509
0.0512034
0.0502928
0.0494213
0.0484918
0.0580973
0.0571323
0.0561377
0.055081
0.0539573
0.0527442
0.0514402
0.0500124
0.0627989
0.0615514
0.0603435
0.0592023
0.058151
0.0571828
0.0562941
0.0554224
0.06407
0.0628588
0.0616451
0.0604142
0.0591693
0.0579031
0.0566288
0.0553489
0.0662616
0.0649793
0.063742
0.0625526
0.0614126
0.0603203
0.0592702
0.0582462
0.0303261
0.0318217
0.0316396
0.0292425
0.0244339
0.017329
0.00777457
-0.00493277
-0.0219922
-0.0450623
-0.0763792
-0.119028
-0.178041
-0.257001
-0.327353
0.00456208
0.00284844
-0.00222463
-0.00945427
-0.0185493
-0.0298992
-0.0441989
-0.0624095
-0.0858079
-0.116121
-0.155711
-0.207648
-0.27668
-0.367815
-0.440384
-0.0198773
-0.0256423
-0.0354168
-0.046903
-0.0598584
-0.075155
-0.0938209
-0.116937
-0.145827
-0.182292
-0.228863
-0.288654
-0.36541
-0.464566
-0.534381
-0.0457197
-0.0551397
-0.0682128
-0.0827121
-0.0987885
-0.117566
-0.140096
-0.167441
-0.200906
-0.242218
-0.294281
-0.360076
-0.442626
-0.542184
-0.60747
-0.0726381
-0.0850243
-0.100142
-0.116627
-0.135155
-0.156836
-0.18253
-0.213215
-0.250245
-0.294992
-0.350838
-0.420523
-0.50489
-0.600447
-0.6587
-0.0984922
-0.113562
-0.130214
-0.148321
-0.168907
-0.192874
-0.220922
-0.253954
-0.293291
-0.340577
-0.398247
-0.468609
-0.551415
-0.639336
-0.68866
-0.123014
-0.139774
-0.157666
-0.177382
-0.199823
-0.225606
-0.255326
-0.28983
-0.330338
-0.37839
-0.43585
-0.504235
-0.582173
-0.658872
-0.699444
-0.145593
-0.163368
-0.182687
-0.204099
-0.228126
-0.255236
-0.285977
-0.32111
-0.361677
-0.40896
-0.464368
-0.528442
-0.598009
-0.660308
-0.693935
0.205068
0.21944
0.235692
0.253954
0.274184
0.296321
0.320336
0.346199
0.373803
0.402848
0.432706
0.462164
0.489167
0.50975
0.526367
0.197152
0.209753
0.224483
0.241465
0.260389
0.280984
0.303156
0.326874
0.35201
0.378188
0.404661
0.430069
0.452152
0.467028
0.478133
0.185077
0.195191
0.207886
0.223104
0.240141
0.258463
0.277874
0.298309
0.319596
0.341263
0.362411
0.381482
0.395891
0.401828
0.404763
0.16885
0.176019
0.186286
0.199215
0.213702
0.229015
0.244878
0.261155
0.277551
0.293429
0.307668
0.318464
0.322836
0.31681
0.309225
0.148738
0.152862
0.160703
0.171136
0.18252
0.194014
0.20539
0.21652
0.227006
0.235998
0.242099
0.2432
0.235911
0.215998
0.195215
0.124903
0.125585
0.130937
0.138866
0.147035
0.154455
0.160929
0.166326
0.170147
0.171356
0.16831
0.158596
0.138397
0.103294
0.0678788
0.0984825
0.0960591
0.0989213
0.103629
0.107786
0.110595
0.111903
0.111411
0.108358
0.101471
0.0888736
0.0678672
0.0342533
-0.0163098
-0.0660928
0.0669874
0.0640674
0.0660521
0.0675358
0.0671024
0.0647148
0.0604323
0.053759
0.0436402
0.028557
0.00640526
-0.0257919
-0.0726483
-0.138134
-0.200341
0.0643972
0.066228
0.0654462
0.0667191
0.0666334
0.0684915
0.0693749
0.0717222
0.0736049
0.0767701
0.0799647
0.0842157
0.0889674
0.094731
0.101166
0.108703
0.117042
0.126573
0.137041
0.148779
0.161512
0.175506
0.190448
0.0665034
0.0684437
0.0674149
0.0687016
0.0683885
0.0702345
0.0708924
0.0731358
0.0748265
0.0778189
0.0808017
0.0848586
0.0893602
0.0948747
0.100995
0.108176
0.116027
0.125038
0.134787
0.145791
0.157575
0.170617
0.184273
0.0686152
0.0706187
0.0693912
0.0706363
0.0701319
0.0719257
0.07238
0.0745038
0.0759951
0.0788188
0.0815654
0.0854323
0.0896646
0.0949194
0.100675
0.10744
0.114645
0.122967
0.131725
0.141679
0.15204
0.163529
0.174997
0.0707327
0.0727493
0.0713751
0.0725184
0.0718562
0.0735582
0.0738281
0.075815
0.0771126
0.0797529
0.0822538
0.0859077
0.089856
0.0948395
0.100143
0.106428
0.11279
0.120255
0.127707
0.13626
0.144628
0.153931
0.162356
0.0728535
0.0748368
0.0733571
0.0743464
0.0735582
0.0751207
0.0752299
0.0770578
0.0781638
0.0806024
0.0828616
0.0862777
0.0899447
0.0945747
0.0992967
0.104918
0.110282
0.116659
0.122573
0.129414
0.135333
0.141871
0.146387
0.0749726
0.0768866
0.0753224
0.0761247
0.0752373
0.0766131
0.0765678
0.078218
0.0791346
0.0813583
0.0833752
0.0865486
0.0899423
0.0942383
0.0982704
0.103231
0.107414
0.112627
0.11654
0.121332
0.124063
0.12739
0.127263
0.0770841
0.0789028
0.0772629
0.0778587
0.0768843
0.078035
0.0778371
0.0792782
0.0800278
0.0820216
0.0838094
0.0866909
0.0897078
0.0934392
0.0967169
0.100721
0.10374
0.107438
0.109496
0.11182
0.111282
0.110541
0.105741
0.0791825
0.0808891
0.0791686
0.0795375
0.0784676
0.0793706
0.0790338
0.0802246
0.0808148
0.0825928
0.0841974
0.0868647
0.0895307
0.092805
0.0952541
0.0984337
0.0999338
0.102109
0.10136
0.10103
0.096184
0.0922319
0.0796558
0.0812133
0.0828239
0.0810448
0.0811886
0.0800262
0.0806541
0.0801833
0.0811024
0.0815498
0.0830067
0.0843696
0.0865731
0.0885645
0.0910274
0.0925561
0.0944479
0.0947214
0.0949161
0.0926024
0.0893441
0.0818416
0.0709273
0.0522041
0.0832858
0.0848214
0.0829769
0.0829209
0.0816333
0.0820008
0.0813769
0.0820127
0.0822579
0.0833071
0.0843262
0.0858819
0.0871752
0.0887015
0.0893683
0.0899157
0.0890798
0.0873753
0.0836803
0.0778108
0.0690246
0.056744
0.041891
0.0855653
0.0870099
0.0851045
0.0848243
0.0834
0.0834662
0.0826816
0.0829565
0.0829628
0.0834886
0.084126
0.0849104
0.0855577
0.0860515
0.0859038
0.0850973
0.0832298
0.0799065
0.0750351
0.0677902
0.0587383
0.0471595
0.0336589
0.0880857
0.0893947
0.0874563
0.0868948
0.0853532
0.085041
0.0841094
0.0839326
0.0836915
0.0836301
0.0838471
0.0838713
0.0838354
0.0833526
0.0823542
0.0803648
0.0774769
0.0729972
0.0672285
0.0595651
0.0504626
0.0395221
0.0269045
0.0908821
0.0919883
0.090058
0.0891402
0.0875084
0.0867331
0.0856577
0.0849802
0.0844416
0.0838062
0.0835111
0.0828392
0.0820577
0.0806886
0.0788307
0.0758701
0.0720789
0.0668642
0.0605413
0.0527982
0.0438381
0.0335411
0.0218502
0.0939935
0.0948097
0.0929355
0.0915896
0.0898682
0.0885895
0.0873189
0.0861475
0.0852145
0.0840545
0.0831473
0.0818365
0.0802976
0.0781235
0.0754647
0.0717415
0.0672495
0.0616016
0.0550283
0.0474016
0.0388153
0.0292423
0.0185434
0.0974662
0.0978877
0.0961077
0.0943016
0.0924316
0.0906605
0.0891028
0.0874572
0.0860357
0.0843939
0.0828192
0.0808892
0.078649
0.0757579
0.0724065
0.0681259
0.0631729
0.0573203
0.0507464
0.0434108
0.0353755
0.0266064
0.0169286
0.101352
0.101274
0.09958
0.0973361
0.0952192
0.0929755
0.0910384
0.0889292
0.0869543
0.0848409
0.0826096
0.080064
0.077209
0.0737253
0.0698183
0.0651735
0.0599838
0.0541201
0.0477394
0.0408328
0.0334574
0.0255444
0.0169018
0.105701
0.105057
0.103362
0.100737
0.0982733
0.0955644
0.093171
0.090587
0.0880308
0.0854274
0.0825988
0.0794719
0.0760815
0.0721516
0.0678548
0.0630105
0.0577668
0.0520499
0.0460016
0.0396204
0.0329573
0.0259177
0.0182966
0.110562
0.109337
0.107492
0.104549
0.101648
0.0984595
0.0955524
0.0924635
0.0893268
0.0862148
0.0828652
0.0792298
0.0753858
0.0711526
0.0666276
0.0617225
0.0565619
0.0511093
0.0454838
0.0396817
0.0337392
0.027551
0.0209028
0.115997
0.114214
0.112067
0.108817
0.10541
0.101702
0.0982358
0.0946115
0.0909104
0.0872881
0.0834858
0.0794391
0.0752429
0.0708177
0.0662015
0.0613513
0.0563718
0.0512567
0.0460987
0.0408888
0.0356419
0.0302496
0.0244936
0.122086
0.119814
0.11721
0.113596
0.109627
0.105348
0.101281
0.0971034
0.0928613
0.0887448
0.084545
0.0801885
0.0757419
0.07121
0.0666041
0.061897
0.0571635
0.0524173
0.0477289
0.0430861
0.0384815
0.033809
0.0288514
0.128955
0.126273
0.123073
0.118962
0.114369
0.10946
0.104757
0.100014
0.0952618
0.0906827
0.0861359
0.0815438
0.0769361
0.0723612
0.0678294
0.0633173
0.0588664
0.0544921
0.0502464
0.0461134
0.0420693
0.0380145
0.0337549
0.136787
0.133753
0.129832
0.125032
0.11971
0.114109
0.108732
0.103418
0.0981875
0.0931943
0.0883423
0.0835647
0.0788568
0.0742785
0.0698415
0.0655295
0.0613555
0.0573285
0.0534808
0.0497952
0.04623
0.0426792
0.0389387
0.145854
0.142451
0.137689
0.131964
0.125751
0.119371
0.11328
0.107378
0.10169
0.0963297
0.0912245
0.0863154
0.0815739
0.0770421
0.0727273
0.0686163
0.0647035
0.0609861
0.0574807
0.0541726
0.0510213
0.0479362
0.0447409
0.156552
0.152622
0.146832
0.139923
0.132661
0.12539
0.118498
0.111932
0.105712
0.0999147
0.0944891
0.0893867
0.0845671
0.0800429
0.0758039
0.0718288
0.0680967
0.0645926
0.0613157
0.0582478
0.0553465
0.052531
0.0496495
0.169499
0.16466
0.157364
0.149017
0.140639
0.132553
0.124973
0.117844
0.111174
0.105007
0.0993004
0.0940172
0.0891164
0.0845931
0.0804206
0.076566
0.0729962
0.0696869
0.0666257
0.0637926
0.0611448
0.058611
0.0560523
0.185674
0.179255
0.169445
0.158697
0.148474
0.139032
0.13042
0.122523
0.115292
0.108713
0.102716
0.0972396
0.0922322
0.087668
0.0835082
0.0797083
0.0762255
0.0730273
0.0700936
0.0674021
0.0649142
0.0625707
0.060262
0.206149
0.197601
0.185468
0.172742
0.16085
0.150046
0.140303
0.131485
0.123508
0.116328
0.109863
0.104036
0.0987791
0.0940448
0.089781
0.0859307
0.0824393
0.0792637
0.0763726
0.0737373
0.0713143
0.0690486
0.0668441
0.232274
0.215744
0.197627
0.181497
0.167487
0.155293
0.1446
0.135107
0.126642
0.1191
0.112377
0.10637
0.100992
0.0961814
0.0918844
0.0880443
0.0846048
0.0815169
0.0787417
0.0762448
0.0739833
0.0719087
0.0699467
0.278093
0.250693
0.224747
0.203406
0.185878
0.171001
0.1581
0.146832
0.13697
0.128334
0.120765
0.114118
0.108266
0.103108
0.0985609
0.0945433
0.0909765
0.0877927
0.0849343
0.0823571
0.0800168
0.0778717
0.0758653
0.312818
0.264667
0.231191
0.208576
0.190256
0.174385
0.160606
0.14864
0.13827
0.129285
0.1215
0.114761
0.108914
0.103813
0.0993428
0.0954099
0.0919359
0.0888528
0.0860998
0.0836295
0.0814038
0.0793932
0.0775641
0.47084
0.31721
0.266046
0.235239
0.209622
0.188317
0.170738
0.156284
0.144437
0.134656
0.126446
0.119432
0.113361
0.108051
0.103379
0.0992532
0.0956044
0.0923693
0.0894909
0.0869142
0.0845947
0.0824974
0.0805967
0.0285075
0.00237306
-0.0204625
-0.0428164
-0.0664696
-0.0890201
-0.11039
-0.12961
0.0238611
-0.00131374
-0.0251206
-0.0445822
-0.0638234
-0.0823891
-0.0996402
-0.113703
0.018036
-0.0039265
-0.0254787
-0.0417883
-0.056642
-0.0713575
-0.0853671
-0.0972565
0.01284
-0.00614888
-0.0245827
-0.0386496
-0.0504896
-0.0622688
-0.073216
-0.0821443
0.00895174
-0.0074073
-0.0222686
-0.0336976
-0.0428086
-0.0519504
-0.0601589
-0.0672107
0.00669806
-0.00728162
-0.0188183
-0.0276945
-0.0347668
-0.0419333
-0.0480803
-0.0533895
0.00614205
-0.00569774
-0.0144027
-0.0209627
-0.026362
-0.0318938
-0.0364861
-0.0404366
0.00719973
-0.0027446
-0.00916943
-0.0137777
-0.0178175
-0.0220486
-0.0255254
-0.0284074
0.00968481
0.0013724
-0.00329847
-0.00636785
-0.00929908
-0.0124944
-0.0151402
-0.0172174
0.0133489
0.00640576
0.00302645
0.00110122
-0.000941708
-0.00333163
-0.00536875
-0.00690145
0.0179232
0.0121004
0.00962608
0.00850052
0.00714059
0.00535968
0.0037562
0.00256689
0.0231717
0.0182477
0.0163633
0.015749
0.0148882
0.0135656
0.0122823
0.0113208
0.028894
0.0247047
0.0231573
0.0228122
0.0222889
0.0213098
0.0202577
0.0194172
0.0346445
0.0309865
0.0296751
0.0294837
0.0291622
0.0284072
0.0275139
0.0267509
0.0411038
0.0378826
0.0365272
0.0362351
0.0359738
0.0353568
0.0345392
0.0337443
0.0464221
0.0435979
0.0423565
0.042037
0.041754
0.0411538
0.0403623
0.0395957
0.0532092
0.0505733
0.0491196
0.0485168
0.0481357
0.0476072
0.046895
0.0460745
0.0577727
0.0554575
0.0540427
0.0532867
0.0526882
0.0519765
0.0511594
0.0503337
0.064507
0.0622409
0.0606161
0.0595836
0.0588527
0.0581342
0.0573028
0.056336
0.0679384
0.0659479
0.0643259
0.0630692
0.0620183
0.0610247
0.0600372
0.0590563
0.0738545
0.0718458
0.0700889
0.0686405
0.067426
0.0663113
0.0651978
0.0640275
0.0758025
0.0740265
0.0723211
0.0707276
0.069251
0.0678675
0.066555
0.0652926
0.0787746
0.076948
0.0751755
0.0734857
0.07189
0.0703846
0.0689557
0.0675862
-0.341221
-0.349484
-0.359424
-0.372706
-0.390664
-0.413271
-0.436776
-0.455195
-0.341669
-0.347638
-0.354877
-0.36522
-0.379117
-0.396135
-0.414471
-0.428952
-0.340868
-0.344856
-0.349546
-0.356758
-0.367004
-0.378493
-0.387519
-0.390031
-0.338322
-0.340296
-0.342104
-0.345154
-0.349272
-0.352469
-0.351584
-0.343717
-0.332252
-0.331971
-0.330241
-0.32813
-0.325502
-0.321217
-0.313175
-0.29908
-0.321007
-0.318213
-0.31295
-0.306314
-0.298713
-0.289585
-0.277252
-0.259663
-0.303884
-0.29899
-0.291223
-0.281823
-0.271525
-0.259804
-0.245139
-0.225752
-0.281887
-0.275949
-0.2671
-0.256685
-0.245366
-0.232493
-0.216737
-0.196605
-0.257146
-0.251294
-0.242553
-0.232304
-0.220892
-0.207701
-0.191619
-0.171432
-0.231974
-0.226911
-0.218999
-0.209437
-0.198347
-0.185314
-0.169375
-0.149608
-0.208216
-0.204029
-0.197181
-0.188355
-0.177774
-0.165144
-0.149655
-0.130622
-0.186715
-0.183277
-0.17733
-0.169106
-0.159092
-0.146974
-0.132176
-0.114081
-0.168099
-0.164871
-0.159372
-0.151568
-0.142137
-0.130637
-0.116694
-0.099701
-0.151733
-0.148322
-0.14302
-0.135667
-0.126895
-0.115986
-0.102955
-0.0871141
-0.137471
-0.133723
-0.128322
-0.121608
-0.113028
-0.102648
-0.0904351
-0.0759696
-0.420057
-0.392238
-0.36864
-0.350385
-0.337759
-0.330944
-0.330042
-0.334245
-0.421381
-0.393792
-0.370442
-0.35257
-0.340384
-0.333858
-0.332889
-0.336309
-0.422366
-0.393525
-0.369551
-0.351649
-0.339733
-0.333537
-0.332994
-0.336386
-0.426467
-0.394545
-0.368492
-0.34951
-0.337191
-0.331056
-0.331012
-0.334688
-0.433706
-0.396745
-0.366975