/*--------------------------------*- C++ -*----------------------------------*\
| =========                 |                                                 |
| \\      /  F ield         | OpenFOAM: The Open Source CFD Toolbox           |
|  \\    /   O peration     | Version:  2312                                  |
|   \\  /    A nd           | Website:  www.openfoam.com                      |
|    \\/     M anipulation  |                                                 |
\*---------------------------------------------------------------------------*/
FoamFile
{
    version     2.0;
    format      ascii;
    arch        "LSB;label=32;scalar=64";
    class       surfaceScalarField;
    location    "186.4";
    object      phi;
}
// * * * * * * * * * * * * * * * * * * * * * * * * * * * * * * * * * * * * * //

dimensions      [0 3 -1 0 0 0 0];

oriented        oriented;

internalField   nonuniform List<scalar> 
10785
(
-0.00131081
0.00554394
-0.00423313
-0.000817244
0.00802387
-0.00851744
0.00494396
0.00276734
-0.00852854
0.0195292
-0.0120541
-0.00253118
0.0445927
-0.0360911
0.0110276
0.077896
-0.0652174
0.0319141
0.114547
-0.0944997
0.0578489
0.149028
-0.120238
0.0857564
0.176762
-0.140429
0.112694
0.19561
-0.154912
0.136065
0.206128
-0.165007
0.154489
0.212073
-0.172924
0.166979
0.216662
-0.181203
0.176614
0.221586
-0.188051
0.183127
-0.197069
0.194419
0.224236
-0.00040652
0.00595046
0.00261085
0.0050065
0.0137983
-0.00842013
0.0362296
-0.0344854
0.0672683
-0.0671297
0.100616
-0.0985652
0.130157
-0.124041
0.152205
-0.142285
0.166353
-0.154577
0.174934
-0.163493
0.181226
-0.171299
0.187619
-0.179317
0.193503
-0.187087
0.199749
-0.194297
-0.202568
0.205248
0.000722534
0.00522793
0.00743445
-0.00170542
0.0254302
-0.0264159
0.0532958
-0.062351
0.0834384
-0.0972723
0.109067
-0.124194
0.127249
-0.142224
0.138838
-0.153874
0.14665
-0.162389
0.153094
-0.169936
0.15916
-0.177366
0.164403
-0.18456
0.169001
-0.191684
0.173597
-0.198893
-0.206325
0.177354
0.00193082
0.00329711
0.0133878
-0.0131624
0.036934
-0.049962
0.0644965
-0.0899135
0.087864
-0.12064
0.10409
-0.14042
0.114448
-0.152582
0.121556
-0.160982
0.127185
-0.168017
0.131977
-0.174728
0.136036
-0.181425
0.139901
-0.188425
0.143936
-0.195719
0.148311
-0.203268
-0.211325
0.153311
0.0035205
-0.000223391
0.0198153
-0.0294572
0.0446495
-0.0747962
0.067083
-0.112347
0.0827287
-0.136285
0.0924563
-0.150147
0.0986557
-0.158781
0.103073
-0.165399
0.106633
-0.171577
0.109828
-0.177923
0.113056
-0.184653
0.116289
-0.191658
0.119374
-0.198804
0.122381
-0.206276
-0.213764
0.12482
0.00559691
-0.0058203
0.0249361
-0.0487963
0.0467017
-0.0965619
0.0627904
-0.128436
0.0725533
-0.146048
0.0781293
-0.155723
0.0815716
-0.162223
0.0841363
-0.167964
0.0863969
-0.173838
0.0885303
-0.180057
0.0904477
-0.18657
0.0921637
-0.193374
0.0939194
-0.20056
0.0957506
-0.208107
-0.216065
0.0980518
0.00790803
-0.0137283
0.027176
-0.0680643
0.044055
-0.113441
0.0545875
-0.138968
0.0600805
-0.151541
0.0628368
-0.15848
0.064431
-0.163818
0.0655577
-0.169091
0.0664146
-0.174694
0.0670509
-0.180693
0.0675853
-0.187104
0.0681402
-0.193929
0.0686724
-0.201092
0.0692081
-0.208643
-0.216356
0.0694991
0.00955906
-0.0232874
0.0261966
-0.0847019
0.0382915
-0.125536
0.0444424
-0.145119
0.0468738
-0.153973
0.0475849
-0.159191
0.0475935
-0.163826
0.0472529
-0.16875
0.0466846
-0.174126
0.0459656
-0.179974
0.045106
-0.186245
0.0440873
-0.19291
0.0430369
-0.200042
0.0420071
-0.207613
0.0414194
-0.215768
0.000104513
0.0129736
-0.0130781
-0.00155046
0.0300345
-0.0283795
-0.004968
0.039681
-0.0362634
-0.00919987
0.0453952
-0.0411634
-0.0133207
0.0500768
-0.045956
-0.0165963
0.054384
-0.0511084
-0.0183308
0.0576324
-0.0558978
-0.0177922
0.0588455
-0.0593841
-0.0142857
0.0570925
-0.060599
-0.00723866
0.0515485
-0.0585956
0.00359148
0.0417686
-0.0525987
0.018362
0.0271533
-0.0419238
0.0356183
0.00876148
-0.0260178
0.056229
-0.017124
-0.00348665
-0.0472202
0.0793819
0.0240674
0.00177364
0.0112
0.00320695
0.0286012
0.00337662
0.0395113
0.00309597
0.0456759
0.00359619
0.0495766
0.00585506
0.0521251
0.0105724
0.052915
0.0182949
0.0511231
0.0293319
0.0460554
0.0439796
0.0369009
0.0612971
0.0244511
0.081808
0.00664238
0.104225
-0.0136551
0.128862
-0.0417611
-0.0740629
0.155704
0.00287847
0.00832149
0.00712945
0.0243502
0.0109842
0.0356565
0.0147643
0.0418958
0.0196528
0.0446881
0.0267324
0.0450455
0.0366566
0.0429909
0.0497801
0.0379995
0.0658742
0.0299613
0.0851884
0.0175866
0.10601
0.00362952
0.130345
-0.0176931
0.156522
-0.0398315
0.186192
-0.0714312
-0.106795
0.218924
0.00299704
0.00532445
0.00878572
0.0185615
0.0154143
0.029028
0.02256
0.0347501
0.0309285
0.0363196
0.0414094
0.0345646
0.0545396
0.0298607
0.0704892
0.0220499
0.088905
0.0115456
0.10992
-0.00342859
0.134058
-0.020508
0.161921
-0.0455569
0.193438
-0.0713476
0.230441
-0.108434
-0.142617
0.266263
0.00219862
0.00312583
0.00766845
0.0130917
0.0151223
0.0215741
0.0238949
0.0259775
0.0341105
0.026104
0.0462195
0.0224556
0.0606274
0.0154529
0.0776073
0.00506997
0.098303
-0.00915014
0.122908
-0.028034
0.153418
-0.0510173
0.188885
-0.0810241
0.228391
-0.110853
0.267815
-0.147859
-0.17275
0.297948
0.000872592
0.00225323
0.00447598
0.00948828
0.0106045
0.0154456
0.0187372
0.0178448
0.0288245
0.0160166
0.0414287
0.00985136
0.0577495
-0.000867913
0.0791341
-0.0163146
0.106945
-0.0369609
0.140903
-0.0619922
0.180902
-0.0910165
0.221142
-0.121264
0.259735
-0.149447
0.287153
-0.175276
-0.186608
0.30101
-0.000538762
0.002792
0.000667818
0.0082817
0.00446408
0.0116494
0.0112613
0.0110476
0.0220422
0.00523567
0.0385641
-0.00667049
0.0623112
-0.024615
0.0937084
-0.0477118
0.131308
-0.0745609
0.171872
-0.102556
0.21091
-0.130054
0.242643
-0.152996
0.264792
-0.171596
0.27251
-0.182993
-0.188891
0.274792
-0.00144113
-0.00167687
0.00144395
0.00996036
0.0262237
0.0514673
0.0847012
0.122746
0.160879
0.194388
0.218822
0.232805
0.237822
0.237956
0.243483
0.114399
-0.193297
0.15828
0.143829
-0.308317
0.278887
0.149438
-0.339318
0.333709
0.106465
-0.324346
0.367319
0.095131
-0.348781
0.360115
0.149256
-0.20095
0.146826
0.202329
0.0784825
-0.131555
0.243258
0.221958
-0.262888
0.253314
0.317346
-0.327402
0.228324
0.354363
-0.329372
0.206461
0.430899
-0.409037
0.220366
0.287946
-0.301851
0.256033
0.0198712
-0.0555387
0.277303
-0.0972283
0.075958
0.2761
-0.351446
0.35265
0.282918
-0.41855
0.411731
0.286308
-0.461925
0.458536
0.290036
-0.315776
0.312048
0.292509
0.131558
-0.134031
0.308202
0.311142
-0.326835
0.315989
0.632281
-0.640068
0.310641
0.481298
-0.47595
0.304578
-0.130403
0.136466
0.310808
-0.360565
0.354335
0.315631
-0.738644
0.733822
0.327585
-0.403238
0.391284
0.3155
0.846745
-0.83466
0.307733
0.755921
-0.748153
0.286476
-0.384459
0.405716
0.282535
-0.497551
0.501492
0.276946
0.116212
-0.110623
0.270848
0.198547
-0.192449
0.267092
-0.00980951
0.0135659
0.264871
-0.0433989
0.0456202
0.262431
0.00429328
-0.00185365
0.259944
0.0151171
-0.0126305
0.257636
0.00695301
-0.00464454
0.00545253
-0.00333136
0.168273
-0.205866
0.171031
-0.311076
0.174706
-0.342992
0.140865
-0.290505
0.0942627
-0.302179
0.122523
-0.22921
0.184541
0.0164645
0.239119
0.16738
0.253234
0.30323
0.22565
0.381947
0.206776
0.449774
0.220225
0.274497
0.257017
-0.0169208
0.278692
-0.118903
0.268905
-0.341659
0.274639
-0.424285
0.277938
-0.465224
0.283525
-0.321363
0.291061
0.124022
0.307155
0.295048
0.319675
0.619761
0.312709
0.488263
0.301353
-0.119047
0.304932
-0.364144
0.302898
-0.736611
0.319579
-0.419918
0.320904
0.84542
0.313841
0.762984
0.285138
-0.355755
0.278858
-0.491271
0.276252
0.118818
0.271661
0.203138
0.267546
-0.00569404
0.265078
-0.0409306
0.262796
0.0065748
0.260563
0.0173496
0.258438
0.00907825
0.0074035
0.225928
-0.21287
0.20356
-0.288707
0.184495
-0.323927
0.165746
-0.271755
0.112302
-0.248735
0.112632
-0.22954
0.173932
-0.0448356
0.235371
0.105941
0.262098
0.276503
0.241704
0.402341
0.222093
0.469384
0.227217
0.269374
0.256785
-0.0464887
0.276934
-0.139052
0.260958
-0.325683
0.262976
-0.426303
0.265599
-0.467847
0.273626
-0.32939
0.286623
0.111025
0.302896
0.278775
0.319967
0.60269
0.311915
0.496316
0.295512
-0.102645
0.294684
-0.363315
0.285638
-0.727565
0.307533
-0.441814
0.323434
0.82952
0.316544
0.769873
0.281754
-0.320965
0.273019
-0.482536
0.273587
0.11825
0.270643
0.206082
0.266388
-0.0014396
0.263849
-0.0383914
0.261898
0.0085263
0.260101
0.0191462
0.258348
0.010831
0.00899948
0.260524
-0.207131
0.229073
-0.257257
0.186708
-0.281562
0.169251
-0.254298
0.130996
-0.21048
0.12014
-0.218684
0.176742
-0.101438
0.237226
0.0454566
0.26168
0.252049
0.245069
0.418951
0.233359
0.481095
0.235993
0.266739
0.254966
-0.0654612
0.271846
-0.155932
0.252908
-0.306745
0.249161
-0.422556
0.2504
-0.469086
0.261802
-0.340792
0.27919
0.0936367
0.293832
0.264134
0.314423
0.582098
0.30688
0.503859
0.286889
-0.0826531
0.280867
-0.357293
0.265663
-0.712361
0.291341
-0.467492
0.320739
0.800122
0.314655
0.775958
0.276461
-0.282772
0.265412
-0.471487
0.269013
0.11465
0.26778
0.207315
0.26365
0.00269023
0.261249
-0.0359901
0.259798
0.00997716
0.258606
0.0203377
0.257402
0.0120351
0.0100657
0.270687
-0.17987
0.231197
-0.217766
0.183305
-0.23367
0.160249
-0.231241
0.141375
-0.191606
0.12666
-0.203969
0.174545
-0.149323
0.236838
-0.0168363
0.272716
0.216171
0.274565
0.417103
0.266638
0.489021
0.252011
0.281367
0.253728
-0.0671786
0.262654
-0.164857
0.241879
-0.285971
0.231271
-0.411948
0.230128
-0.467944
0.245419
-0.356083
0.268269
0.0707871
0.283298
0.249105
0.30734
0.558056
0.300155
0.511043
0.276649
-0.0591471
0.264806
-0.34545
0.243479
-0.691034
0.272241
-0.496254
0.315825
0.756537
0.310635
0.781147
0.269827
-0.241963
0.256622
-0.458282
0.26291
0.108362
0.263337
0.206888
0.259519
0.00650792
0.257434
-0.0339052
0.256622
0.0107891
0.256177
0.0207828
0.255676
0.0125365
0.0104442
0.263798
-0.142658
0.220962
-0.174931
0.180496
-0.193204
0.153531
-0.204276
0.141238
-0.179314
0.127926
-0.190657
0.158031
-0.179428
0.22186
-0.0806651
0.266144
0.171887
0.274097
0.40915
0.272076
0.491043
0.258775
0.294667
0.250267
-0.0586707
0.252074
-0.166664
0.230535
-0.264431
0.212619
-0.394032
0.207022
-0.462347
0.225422
-0.374483
0.253353
0.0428556
0.268529
0.233929
0.294517
0.532069
0.289444
0.516116
0.264967
-0.0346707
0.247567
-0.32805
0.221084
-0.664551
0.250711
-0.525881
0.305294
0.701955
0.301981
0.78446
0.260744
-0.200726
0.246761
-0.4443
0.255291
0.0998318
0.257344
0.204835
0.254135
0.00971692
0.252566
-0.0323366
0.252521
0.010834
0.252942
0.020362
0.253276
0.0122029
0.00999615
0.242437
-0.110303
0.20655
-0.139044
0.174857
-0.161511
0.151711
-0.18113
0.136861
-0.164464
0.121228
-0.175023
0.130399
-0.1886
0.186922
-0.137188
0.254479
0.10433
0.288835
0.374793
0.294086
0.485792
0.268139
0.320614
0.24431
-0.0348412
0.237563
-0.159917
0.214853
-0.241722
0.192498
-0.371676
0.18157
-0.451418
0.201752
-0.394665
0.236578
0.00802909
0.254501
0.216006
0.283534
0.503036
0.278866
0.520784
0.253295
-0.00909956
0.230341
-0.305095
0.198132
-0.632341
0.22866
-0.55641
0.295031
0.635585
0.292916
0.786574
0.250925
-0.158734
0.236562
-0.429937
0.246844
0.0895495
0.250277
0.201402
0.247787
0.0122077
0.246881
-0.0314311
0.247691
0.0100241
0.249063
0.01899
0.250337
0.0109293
0.00860506
0.221049
-0.0878686
0.194795
-0.11279
0.166345
-0.133061
0.146176
-0.160961
0.131148
-0.149436
0.112135
-0.15601
0.102786
-0.17925
0.132863
-0.167266
0.205711
0.0314821
0.266367
0.314137
0.283144
0.469015
0.26093
0.342829
0.238025
-0.0119367
0.225718
-0.14761
0.200862
-0.216866
0.17335
-0.344165
0.157331
-0.435399
0.176547
-0.41388
0.213541
-0.0289654
0.23395
0.195598
0.265303
0.471683
0.263439
0.522647
0.240339
0.0140013
0.212619
-0.277376
0.17662
-0.596343
0.205712
-0.585502
0.278212
0.563085
0.278955
0.785832
0.239592
-0.119372
0.225826
-0.41617
0.237269
0.0781059
0.242068
0.196603
0.240654
0.013622
0.240586
-0.0313631
0.242329
0.00828078
0.244713
0.0166064
0.247006
0.00863606
0.00617466
0.477404
-0.067154
-0.498119
0.456687
-0.0920724
0.429086
-0.105461
0.401992
-0.133866
0.373423
-0.120867
0.336151
-0.118738
0.290509
-0.133608
0.230989
-0.107746
0.199244
0.0632276
0.214662
0.298719
0.30029
0.383387
0.407606
0.235512
0.45858
-0.0629105
0.461919
-0.150949
0.445304
-0.200251
0.422061
-0.320922
0.384987
-0.398325
0.342841
-0.371734
0.321636
-0.00776042
0.300945
0.216288
0.325235
0.447393
0.380558
0.467325
0.416359
-0.0218
0.410378
-0.271394
0.356927
-0.542892
0.320188
-0.548763
0.358785
0.524488
0.401827
0.742789
0.397028
-0.114574
0.362556
-0.381698
0.355695
0.0849671
0.364081
0.188217
0.364947
0.0127556
0.361856
-0.0282721
0.360488
0.00964916
0.360702
0.0163919
0.360618
0.00872024
0.00636224
0.497378
-0.0487526
-0.51578
0.476407
-0.0711014
0.45164
-0.0806934
0.420626
-0.102853
0.390002
-0.0902427
0.364817
-0.0935539
0.332998
-0.101789
0.274947
-0.0496951
0.240493
0.0976822
0.285984
0.253228
0.407144
0.262228
0.505004
0.137652
0.521787
-0.0796936
0.500038
-0.1292
0.474958
-0.175171
0.441091
-0.287055
0.391662
-0.348897
0.347422
-0.327493
0.310623
0.0290385
0.293339
0.233572
0.338007
0.402725
0.417349
0.387983
0.456157
-0.0606079
0.433949
-0.249186
0.359882
-0.468825
0.319637
-0.508518
0.365389
0.478736
0.425101
0.683078
0.426099
-0.115572
0.387006
-0.342605
0.378712
0.0932608
0.389784
0.177146
0.392019
0.0105199
0.388648
-0.0249003
0.387241
0.0110555
0.387668
0.0159651
0.387732
0.0086561
0.00649676
0.528797
-0.0361102
-0.54144
0.51293
-0.0552344
0.492037
-0.0598
0.466457
-0.0772722
0.442995
-0.0667806
0.414007
-0.0645663
0.375509
-0.0632913
0.344574
-0.01876
0.349316
0.0929405
0.419077
0.183467
0.521485
0.15982
0.579038
0.080098
0.566994
-0.0676492
0.537597
-0.0998037
0.519529
-0.157103
0.477087
-0.244612
0.40488
-0.276689
0.338089
-0.260702
0.288975
0.0781515
0.280021
0.242527
0.356657
0.326089
0.460385
0.284254
0.501253
-0.101476
0.466618
-0.214551
0.367882
-0.370088
0.306873
-0.447509
0.366937
0.418671
0.456995
0.59302
0.46086
-0.119437
0.413467
-0.295213
0.404436
0.102293
0.418603
0.162978
0.421414
0.00770844
0.417451
-0.0209372
0.416009
0.0124977
0.416639
0.0153354
0.416828
0.00846666
0.0065888
0.562858
-0.0258115
-0.573157
0.547319
-0.039695
0.529727
-0.0422081
0.507766
-0.0553112
0.487234
-0.0462485
0.467614
-0.0449471
0.441377
-0.0370536
0.425241
-0.00262399
0.453166
0.065015
0.521479
0.115154
0.583215
0.0980836
0.613144
0.0501692
0.600353
-0.0548574
0.567689
-0.0671405
0.537882
-0.127295
0.490753
-0.197483
0.413729
-0.199666
0.328638
-0.175611
0.285076
0.121714
0.305119
0.222484
0.40102
0.230188
0.510959
0.174314
0.54304
-0.133556
0.499386
-0.170897
0.382969
-0.253671
0.29526
-0.359801
0.377065
0.336867
0.501117
0.468968
0.498526
-0.116846
0.436662
-0.233349
0.429541
0.109414
0.450285
0.142234
0.454195
0.00379857
0.449176
-0.015918
0.447851
0.0138219
0.448905
0.0142813
0.449371
0.0080014
0.00656175
0.600668
-0.0175071
-0.608973
0.589114
-0.0281406
0.575452
-0.0285463
0.558593
-0.0384525
0.543443
-0.0310979
0.527688
-0.0291918
0.511404
-0.02077
0.506
0.0027798
0.530626
0.0403892
0.580851
0.0649291
0.620636
0.0582988
0.637458
0.0333467
0.628308
-0.0457075
0.61029
-0.0491223
0.584677
-0.101683
0.536442
-0.149247
0.463244
-0.126468
0.381594
-0.0939618
0.363566
0.139742
0.406946
0.179104
0.491485
0.145649
0.576273
0.0895266
0.589248
-0.146532
0.550649
-0.132298
0.435265
-0.138287
0.316255
-0.240791
0.410414
0.242707
0.557012
0.322371
0.542501
-0.102335
0.465126
-0.155974
0.463368
0.111172
0.493139
0.112463
0.496584
0.000353385
0.489154
-0.0084878
0.487846
0.0151303
0.489278
0.0128494
0.489793
0.00748563
0.00658137
0.645706
-0.0113838
-0.651829
0.636255
-0.0186898
0.626303
-0.0185946
0.61315
-0.0252996
0.601794
-0.0197411
0.591422
-0.0188205
0.581774
-0.0111222
0.582372
0.00218238
0.599885
0.0228762
0.629674
0.0351395
0.655836
0.0321369
0.672744
0.0164396
0.659988
-0.0329524
0.642322
-0.031456
0.620765
-0.080125
0.581635
-0.110118
0.530867
-0.0756991
0.474908
-0.0380031
0.493915
0.120735
0.547905
0.125114
0.602238
0.0913164
0.649468
0.0422971
0.629494
-0.126558
0.597077
-0.0998808
0.51767
-0.0588808
0.392064
-0.115185
0.472547
0.162225
0.615788
0.179129
0.591898
-0.078445
0.509748
-0.0738239
0.517632
0.103288
0.553242
0.0768537
0.553641
-4.60152e-05
0.543759
0.00139403
0.542732
0.0161569
0.544227
0.0113549
0.544301
0.00741193
0.00699174
0.696834
-0.00680975
-0.701408
0.689616
-0.0114716
0.682486
-0.0114641
0.67296
-0.0157739
0.665401
-0.0121818
0.658729
-0.012149
0.653395
-0.00578762
0.655347
0.000230024
0.665717
0.0125056
0.684332
0.0165253
0.700485
0.0159834
0.709892
0.00703274
0.703249
-0.0263097
0.696123
-0.0243291
0.673594
-0.0575968
0.633207
-0.0697311
0.603459
-0.0459509
0.579505
-0.0140491
0.615286
0.0849535
0.662477
0.0779236
0.69321
0.060583
0.717929
0.0175783
0.679549
-0.0881788
0.644836
-0.0651668
0.616376
-0.0304217
0.531591
-0.0303994
0.578811
0.115004
0.682189
0.0757517
0.656541
-0.0527964
0.586364
-0.00364728
0.600405
0.0892463
0.632532
0.0447271
0.628993
0.00349279
0.618395
0.0119928
0.617479
0.0170725
0.618208
0.010626
0.61725
0.00836961
0.00819088
0.754459
-0.00358727
-0.757682
0.749328
-0.0063401
0.744406
-0.00654201
0.738
-0.00936863
0.732843
-0.00702464
0.728538
-0.00784416
0.725727
-0.00297664
0.727372
-0.00141492
0.733795
0.00608316
0.744116
0.00620441
0.753664
0.0064348
0.760528
0.000168867
0.753143
-0.018925
0.745625
-0.0168109
0.72967
-0.041642
0.702287
-0.042348
0.685382
-0.0290458
0.675721
-0.00438812
0.70852
0.0521547
0.740636
0.0458078
0.754963
0.046256
0.766825
0.00571631
0.735227
-0.0565805
0.70812
-0.0380598
0.701564
-0.023866
0.664023
0.0071412
0.694885
0.0841426
0.747499
0.0231383
0.721731
-0.0270288
0.679483
0.0386009
0.697934
0.0707947
0.718647
0.0240148
0.71244
0.00969955
0.704699
0.019734
0.704492
0.0172796
0.704333
0.0107846
0.702728
0.00997466
0.00982195
0.818689
-0.00134133
-0.820935
0.815327
-0.00297806
0.812071
-0.00328619
0.807847
-0.00514485
0.804596
-0.00377318
0.801719
-0.00496783
0.800377
-0.00163378
0.801162
-0.00220079
0.804815
0.00243101
0.810105
0.000913682
0.815353
0.00118689
0.818062
-0.00253985
0.813376
-0.0142393
0.809039
-0.0124734
0.795746
-0.0283491
0.777712
-0.0243138
0.767063
-0.0183975
0.763894
-0.00121887
0.785104
0.0309448
0.805215
0.0256971
0.819748
0.0317222
0.823611
0.00185368
0.799437
-0.0324065
0.780477
-0.0190999
0.775177
-0.0185663
0.767343
0.0149758
0.794121
0.0573645
0.809508
0.00775125
0.786733
-0.00425385
0.775757
0.0495764
0.795023
0.0515287
0.802527
0.0165111
0.795938
0.0162883
0.793
0.0226726
0.793668
0.0166109
0.792853
0.0115996
0.791274
0.0115536
0.011257
0.88994
0.000148113
-0.891429
0.887829
-0.0008675
0.885721
-0.00117849
0.883064
-0.00248689
0.881043
-0.00175295
0.879051
-0.00297544
0.878383
-0.0009658
0.878341
-0.00215904
0.880347
0.00042503
0.882565
-0.00130465
0.885044
-0.00129159
0.886109
-0.0036051
0.882137
-0.0102669
0.878403
-0.00873948
0.86849
-0.0184366
0.858235
-0.014058
0.851311
-0.011474
0.850356
-0.000263682
0.863892
0.0174088
0.875209
0.0143804
0.885649
0.0212823
0.886869
0.00063313
0.871771
-0.0173086
0.862126
-0.00945473
0.855305
-0.0117452
0.854857
0.0154236
0.873443
0.0387788
0.875878
0.00531629
0.863695
0.00792893
0.868706
0.0445653
0.881482
0.0387524
0.881349
0.0166443
0.878196
0.0194412
0.87903
0.021839
0.879613
0.0160278
0.878581
0.0126316
0.877585
0.0125492
0.0121567
0.968377
0.00109099
-0.96932
0.967095
0.00041446
0.965805
0.000111938
0.964125
-0.000806984
0.962904
-0.000531933
0.961457
-0.00152813
0.961044
-0.00055298
0.960541
-0.0016564
0.96144
-0.000473998
0.961956
-0.0018202
0.962767
-0.00210263
0.962501
-0.00333932
0.959358
-0.00712383
0.956904
-0.00628504
0.949914
-0.0114472
0.944103
-0.00824726
0.939585
-0.00695542
0.939234
8.73409e-05
0.94709
0.00955235
0.95339
0.0080805
0.961832
0.0128408
0.961396
0.00106906
0.952022
-0.00793479
0.946115
-0.00354771
0.939391
-0.00502079
0.942046
0.0127683
0.955224
0.0256009
0.952979
0.00756117
0.947332
0.0135755
0.956162
0.0357354
0.964233
0.0306816
0.962811
0.018066
0.962381
0.0198719
0.96425
0.0199696
0.964614
0.015664
0.963962
0.0132838
0.96354
0.0129711
0.0125875
1.05439
0.00159788
-1.0549
1.05365
0.0011563
1.05288
0.000884489
1.05183
0.000239195
1.05107
0.00023339
1.05003
-0.000492124
1.04965
-0.000169507
1.04898
-0.000990432
1.04913
-0.000623032
1.04886
-0.00154812
1.04867
-0.00191408
1.04803
-0.00270323
1.04562
-0.0047089
1.04364
-0.00430925
1.03901
-0.00681548
1.03552
-0.00475966
1.03263
-0.00406039
1.0326
0.00011764
1.03705
0.00509814
1.04042
0.00470806
1.0454
0.00786663
1.0449
0.00156673
1.03958
-0.00261838
1.03631
-0.00027748
1.03189
-0.00059664
1.03391
0.0107516
1.04133
0.0181759
1.03977
0.00912444
1.03892
0.0144199
1.04657
0.0280944
1.05152
0.0257296
1.0509
0.0186837
1.05186
0.0189158
1.05368
0.0181476
1.05404
0.0153019
1.05383
0.0134969
1.05373
0.0130679
0.0127685
1.14849
0.00183436
-1.14873
1.14809
0.00155559
1.14766
0.00131105
1.14702
0.000887634
1.14652
0.000729657
1.14578
0.000243157
1.1454
0.000212916
1.14475
-0.00033924
1.14449
-0.00036363
1.14392
-0.000982299
1.14335
-0.00133811
1.1425
-0.00185199
1.14066
-0.0028669
1.1391
-0.00274974
1.13615
-0.00387054
1.13405
-0.00265771
1.1322
-0.00221298
1.13213
0.000187956
1.13437
0.00285847
1.1361
0.00297738
1.13916
0.0048077
1.13868
0.00204803
1.13575
0.000307839
1.13358
0.00189275
1.13073
0.00225809
1.13262
0.00886045
1.13742
0.0133788
1.13654
0.0100029
1.137
0.0139579
1.14284
0.0222511
1.14683
0.0217415
1.14739
0.0181298
1.14859
0.0177113
1.1501
0.0166352
1.15068
0.0147259
1.15085
0.0133253
1.15096
0.0129584
0.0127568
1.25134
0.00189397
-1.2514
1.25117
0.0017275
1.25096
0.00152265
1.25059
0.00125689
1.25026
0.00105416
1.24976
0.000741494
1.2494
0.000571752
1.24885
0.000211388
1.24845
4.29543e-05
1.24783
-0.00036517
1.24715
-0.000658745
1.24631
-0.00101128
1.24497
-0.00152862
1.24375
-0.00152887
1.24187
-0.0019888
1.24052
-0.00131359
1.23928
-0.000966636
1.23914
0.00032446
1.24016
0.0018368
1.24099
0.00215512
1.2425
0.00329704
1.24216
0.00238691
1.24069
0.00177778
1.23956
0.00301563
1.2382
0.00362707
1.23941
0.00764748
1.24209
0.0106974
1.24228
0.00981671
1.24356
0.0126713
1.24797
0.0178482
1.25119
0.0185189
1.25248
0.016838
1.25389
0.0163039
1.25526
0.0152656
1.25601
0.0139696
1.25644
0.0129034
1.25676
0.0126343
0.0125102
1.36381
0.00184664
-1.36376
1.36378
0.00175767
1.3637
0.00159825
1.36352
0.00144173
1.36333
0.00124729
1.36301
0.00106099
1.36272
0.00086195
1.36229
0.00063982
1.3619
0.000426713
1.36136
0.000177924
1.36076
-5.80686e-05
1.36004
-0.00029153
1.35907
-0.000559936
1.35816
-0.000619711
1.35692
-0.000749404
1.35605
-0.00044465
1.35519
-0.000103522
1.35498
0.000539944
1.35534
0.0014675
1.35566
0.00184461
1.35641
0.00253974
1.35625
0.00255409
1.35555
0.00247768
1.35503
0.00353154
1.3544
0.00425873
1.35539
0.00665052
1.35733
0.00876326
1.35799
0.00915438
1.35928
0.0113844
1.36259
0.0145335
1.36547
0.0156429
1.36717
0.0151325
1.36873
0.0147457
1.37007
0.0139324
1.37097
0.0130622
1.37159
0.0122876
1.37214
0.0120833
0.0120397
1.48681
0.00173335
-1.4867
1.48687
0.00169497
1.4869
0.00157736
1.48684
0.00149659
1.48676
0.00133287
1.48658
0.00123701
1.48639
0.00104925
1.4861
0.000932873
1.4858
0.000728986
1.48539
0.000586197
1.48493
0.000397096
1.48439
0.0002521
1.48371
0.00011602
1.48306
3.37551e-05
1.48225
6.12368e-05
1.48165
0.000153356
1.48107
0.000477849
1.48083
0.000782661
1.4809
0.00139092
1.48099
0.00175723
1.48133
0.0021966
1.48127
0.0026141
1.48102
0.00272787
1.48092
0.00363822
1.48086
0.00431159
1.48168
0.00583824
1.483
0.00743841
1.48397
0.00818806
1.48548
0.00987642
1.48795
0.0120584
1.49043
0.0131646
1.49234
0.0132207
1.49406
0.0130269
1.49548
0.0125143
1.49655
0.0119947
1.49729
0.0115412
1.49804
0.0113365
0.0112869
1.62138
0.00157142
-1.62122
1.62151
0.00156708
1.6216
0.00148425
1.62164
0.00145628
1.62165
0.00132573
1.62159
0.00129383
1.62151
0.00113226
1.62135
0.0010911
1.62117
0.000914548
1.6209
0.000850902
1.6206
0.000701618
1.62024
0.000612704
1.6198
0.000552957
1.61938
0.000459624
1.61887
0.00056628
1.61847
0.000548765
1.6181
0.000854667
1.61789
0.000995242
1.61787
0.00140799
1.61787
0.00175914
1.61805
0.00201246
1.6181
0.00256195
1.61813
0.00270382
1.6183
0.0034699
1.61851
0.00410126
1.61929
0.00505215
1.62043
0.00630044
1.62149
0.00712271
1.62296
0.0084148
1.62495
0.0100673
1.62716
0.010948
1.62914
0.011245
1.63085
0.0113189
1.63245
0.0109166
1.63374
0.0107
1.63461
0.0106759
1.63552
0.010425
0.0103121
1.76863
0.0013735
-1.76843
1.76881
0.00138889
1.76896
0.00133355
1.76908
0.00133778
1.76916
0.00124037
1.76921
0.00124755
1.76922
0.00112058
1.76919
0.00112396
1.76912
0.000985948
1.769
0.00096797
1.76883
0.000865674
1.76864
0.000807496
1.76839
0.000799568
1.76815
0.00070696
1.76786
0.000846973
1.76763
0.000783108
1.76744
0.00105013
1.76731
0.00112512
1.76732
0.00139552
1.76734
0.00173273
1.76751
0.00184171
1.76767
0.00241094
1.76785
0.00252069
1.7682
0.00312289
1.76858
0.0037144
1.7694
0.00423768
1.77038
0.00532265
1.77147
0.00602702
1.77298
0.00690947
1.77465
0.00839703
1.77665
0.00894624
1.77861
0.00928093
1.78027
0.00966188
1.78206
0.00912493
1.78362
0.00913828
1.78459
0.00971034
1.78564
0.00937031
0.00909272
1.92975
0.00114171
-1.92952
1.92997
0.00116348
1.93017
0.00113371
1.93036
0.00114944
1.93051
0.00109044
1.93065
0.00110904
1.93074
0.00103025
1.93082
0.00104537
1.93084
0.000962548
1.93085
0.000958641
1.93081
0.00090881
1.93075
0.000868638
1.93066
0.000890518
1.93055
0.0008131
1.93046
0.000939134
1.93036
0.000882853
1.93034
0.00107036
1.93032
0.00114422
1.93043
0.00128339
1.93056
0.00160704
1.93078
0.00161804
1.93106
0.00213144
1.93136
0.00222426
1.93183
0.00264768
1.93232
0.0032256
1.93312
0.00343948
1.93405
0.00438795
1.93515
0.00493084
1.93662
0.00544257
1.9382
0.00681413
1.94012
0.00702081
1.94203
0.00737853
1.94366
0.0080238
1.94548
0.00730474
1.94717
0.00745032
1.94844
0.0084385
1.94974
0.00807124
0.00768549
2.10603
0.000885921
-2.10578
2.10629
0.0009051
2.10653
0.000896982
2.10677
0.000910612
2.10697
0.000887381
2.10718
0.000900819
2.10734
0.000868598
2.10751
0.000878176
2.10762
0.000845449
2.10774
0.000843171
2.10782
0.000829815
2.10788
0.00080799
2.10794
0.000832579
2.10796
0.000791702
2.10803
0.000866361
2.10806
0.000850264
2.10819
0.000947802
2.1083
0.00102542
2.1085
0.00108924
2.10877
0.00133515
2.10904
0.00134481
2.10946
0.00171061
2.10987
0.0018236
2.1104
0.00211408
2.11105
0.00257323
2.11178
0.0027135
2.11276
0.00340139
2.1139
0.00379861
2.11523
0.00410478
2.11695
0.00509857
2.11874
0.00522551
2.12055
0.00557404
2.12241
0.00616325
2.12405
0.00566142
2.12567
0.00583613
2.12749
0.00661434
2.12917
0.00639297
0.00612652
2.29892
0.000612915
-2.29865
2.2992
0.000626945
2.29947
0.000629511
2.29974
0.00063913
2.29999
0.000634721
2.30025
0.000643139
2.30048
0.000634721
2.30072
0.000640764
2.30093
0.000631385
2.30114
0.000632942
2.30134
0.000630986
2.30152
0.000626876
2.30172
0.000639471
2.30188
0.000631736
2.30208
0.000664277
2.30226
0.000673867
2.30248
0.000720822
2.30273
0.000777731
2.303
0.000821619
2.30337
0.000960673
2.30372
0.000999394
2.30422
0.00120555
2.30474
0.00131135
2.30534
0.00150894
2.30613
0.00178236
2.30691
0.00193969
2.30798
0.00232454
2.30918
0.00259989
2.31045
0.00283527
2.31218
0.00336535
2.31388
0.00353033
2.31566
0.00379594
2.31769
0.00413474
2.31935
0.00399847
2.32104
0.00414465
2.32317
0.00448679
2.32513
0.00443267
0.00435871
2.51008
0.000318528
-2.50979
2.51039
0.000326184
2.51069
0.000330075
2.51099
0.000335216
2.51129
0.000336492
2.51159
0.0003406
2.51188
0.000340482
2.51218
0.00034331
2.51247
0.000342646
2.51276
0.000344078
2.51304
0.000345726
2.51332
0.000346427
2.51361
0.000352413
2.51389
0.000354378
2.51419
0.000367083
2.51448
0.000378259
2.51481
0.000396933
2.51515
0.000429404
2.51552
0.000451537
2.51597
0.000517161
2.51642
0.000545069
2.51699
0.000638861
2.5176
0.00070036
2.51831
0.000798684
2.51917
0.000927338
2.52008
0.00102233
2.52121
0.00119842
2.52247
0.00134227
2.52383
0.00147404
2.52549
0.00170735
2.5272
0.00181158
2.52905
0.00195216
2.53107
0.002109
2.53297
0.00209731
2.53493
0.00218557
2.53711
0.00231338
2.53923
0.00231182
0.00230575
2.74141
-2.74109
2.74173
2.74206
2.7424
2.74273
2.74307
2.74342
2.74376
2.7441
2.74445
2.74479
2.74514
2.74549
2.74584
2.74621
2.74659
2.74699
2.74742
2.74787
2.74838
2.74893
2.74957
2.75027
2.75107
2.75199
2.75302
2.75422
2.75556
2.75703
2.75874
2.76055
2.7625
2.76461
2.76671
2.76889
2.77121
2.77352
0.440372
0.0349703
-0.433923
0.449047
0.0608241
0.455181
0.0919178
0.464281
0.115721
0.471013
0.146579
0.480558
0.167809
0.489725
0.196081
0.215842
0.469762
0.0294784
-0.46427
0.476639
0.0539471
0.482291
0.0862664
0.489446
0.108565
0.495801
0.140224
0.502098
0.161513
0.508775
0.189404
0.208837
0.503296
0.0249399
-0.498758
0.507908
0.0493356
0.512687
0.0814873
0.516909
0.104343
0.522195
0.134938
0.527276
0.156432
0.533979
0.182701
0.201376
0.539774
0.0212199
-0.536054
0.542742
0.046368
0.546989
0.0772404
0.550711
0.100621
0.556143
0.129505
0.56133
0.151245
0.567374
0.176657
0.195594
0.580551
0.0183323
-0.577663
0.582867
0.0440517
0.586878
0.07323
0.590294
0.0972049
0.594809
0.12499
0.598944
0.14711
0.60381
0.171791
0.190431
0.62592
0.0160554
-0.623643
0.627849
0.0421223
0.631064
0.0700157
0.633808
0.0944602
0.637663
0.121136
0.641622
0.14315
0.646723
0.16669
0.185325
0.676053
0.0144415
-0.674439
0.677691
0.0404846
0.680468
0.067238
0.683286
0.0916422
0.687305
0.117118
0.6914
0.139055
0.696564
0.161527
0.180481
0.73182
0.0132337
-0.730612
0.733426
0.0388781
0.736125
0.0645396
0.739079
0.0886876
0.743148
0.113049
0.747318
0.134884
0.752472
0.156373
0.175271
0.793708
0.0122781
-0.792753
0.795327
0.0372596
0.797949
0.061917
0.801037
0.0855999
0.805161
0.108925
0.809669
0.130376
0.815173
0.150869
0.169509
0.862066
0.0114818
-0.86127
0.863723
0.0356025
0.866368
0.0592724
0.869727
0.0822414
0.87412
0.104532
0.879178
0.125318
0.885087
0.14496
0.163167
0.937404
0.0107501
-0.936673
0.939169
0.0338375
0.941966
0.0564758
0.945683
0.0785245
0.950422
0.0997924
0.955948
0.119793
0.962304
0.138604
0.15615
1.0202
0.0100307
-1.01948
1.02208
0.0319614
1.02506
0.0534951
1.02909
0.0744897
1.03419
0.0946962
1.04021
0.113772
1.04716
0.131656
0.148406
1.11098
0.00930524
-1.11025