/*--------------------------------*- C++ -*----------------------------------*\
| =========                 |                                                 |
| \\      /  F ield         | OpenFOAM: The Open Source CFD Toolbox           |
|  \\    /   O peration     | Version:  2312                                  |
|   \\  /    A nd           | Website:  www.openfoam.com                      |
|    \\/     M anipulation  |                                                 |
\*---------------------------------------------------------------------------*/
FoamFile
{
    version     2.0;
    format      ascii;
    arch        "LSB;label=32;scalar=64";
    class       surfaceScalarField;
    location    "38.5";
    object      phi;
}
// * * * * * * * * * * * * * * * * * * * * * * * * * * * * * * * * * * * * * //

dimensions      [0 3 -1 0 0 0 0];

oriented        oriented;

internalField   nonuniform List<scalar> 
64047
(
-8.57846e-05
0.000291401
-0.000205616
-0.000253749
0.00078963
-0.000621665
-0.000439929
0.00120536
-0.00101918
-0.000593916
0.00152916
-0.00137517
-0.000674039
0.00175125
-0.00167112
-0.000644196
0.00185985
-0.00188969
-0.000471155
0.00184082
-0.00201386
-0.00012227
0.001678
-0.00202688
0.000436388
0.00135384
-0.0019125
0.00124142
0.000849871
-0.00165491
0.00233294
0.000147602
-0.00123912
0.00375473
-0.000771002
-0.000650785
0.00555294
-0.00192258
0.000124377
0.00777614
-0.00332108
0.00109787
0.0104702
-0.00497709
0.00228306
0.0136762
-0.00689577
0.00368971
0.0174263
-0.00907566
0.00532559
0.0217389
-0.0115075
0.00719486
0.0266155
-0.0141736
0.00929703
0.0320371
-0.0170476
0.0116261
0.037963
-0.0200955
0.0141697
0.0443304
-0.0232766
0.0169091
0.051056
-0.0265452
0.0198196
0.0580389
-0.0298534
0.0228705
0.0651647
-0.0331528
0.026027
0.0723115
-0.0363975
0.0292507
0.0793553
-0.0395461
0.0325023
0.086178
-0.0425636
0.035741
0.0926716
-0.0454252
0.0389316
0.0987496
-0.0481117
0.0420337
0.104341
-0.0506255
0.0450338
0.109418
-0.0529556
0.0478789
0.113952
-0.0551582
0.0506247
0.117986
-0.0571739
0.0531396
0.121499
-0.0592162
0.0557034
0.124517
-0.0609146
0.0578961
-0.0630212
0.0607276
0.126811
-8.70915e-05
0.000378492
-0.000255027
0.000957565
-0.000435274
0.00138561
-0.000571886
0.00166577
-0.000616489
0.00179585
-0.00052492
0.00176828
-0.00025445
0.00157035
0.000238411
0.00118514
0.000999454
0.000592799
0.00207732
-0.000228
0.00352327
-0.00129835
0.00538973
-0.00263745
0.00772759
-0.00426045
0.0105828
-0.0061763
0.0139914
-0.00838572
0.0179751
-0.0108794
0.0225362
-0.0136368
0.0276548
-0.0166261
0.0332863
-0.0198051
0.0393615
-0.0231228
0.0457886
-0.0265227
0.0524575
-0.0299454
0.0592449
-0.0333327
0.066022
-0.0366305
0.0726614
-0.0397923
0.0790455
-0.0427816
0.0850734
-0.0455741
0.0906675
-0.0481577
0.0957772
-0.0505349
0.100383
-0.0527175
0.104492
-0.0547344
0.108143
-0.0566071
0.111378
-0.0583933
0.114285
-0.0600803
0.116866
-0.0617975
0.119307
-0.063355
-0.0652131
0.121498
-8.02406e-05
0.000458733
-0.000228371
0.0011057
-0.000372862
0.0015301
-0.000452436
0.00174534
-0.000411488
0.0017549
-0.000196949
0.00155374
0.000244172
0.00112923
0.000966426
0.000462883
0.00202647
-0.000467246
0.00348233
-0.00168386
0.00539142
-0.00320743
0.00780688
-0.00505291
0.010773
-0.00722657
0.0143197
-0.009723
0.0184571
-0.0125231
0.0231706
-0.0155929
0.0284184
-0.0188846
0.0341306
-0.0223383
0.0402113
-0.0258858
0.0465435
-0.0294551
0.0529962
-0.0329754
0.0594327
-0.0363819
0.0657199
-0.03962
0.0717381
-0.0426486
0.0773884
-0.0454426
0.0825997
-0.0479929
0.0873323
-0.0503066
0.0915789
-0.0524043
0.0953623
-0.0543183
0.0987304
-0.0560856
0.101747
-0.0577507
0.104483
-0.0593438
0.107009
-0.0609191
0.109384
-0.0624551
0.111655
-0.0640687
0.113858
-0.065558
-0.0673466
0.115992
-6.61884e-05
0.000524921
-0.000176231
0.00121574
-0.00025672
0.00161059
-0.000241264
0.00172989
-6.68702e-05
0.00158051
0.000328561
0.00115831
0.0010079
0.000449884
0.00203532
-0.000564531
0.00347527
-0.0019072
0.0053899
-0.00359849
0.00783463
-0.00565215
0.0108524
-0.00807073
0.0144675
-0.0108416
0.0186787
-0.0139342
0.0234554
-0.0172997
0.0287347
-0.0208723
0.0344234
-0.0245732
0.0404019
-0.0283168
0.0465329
-0.0320168
0.0526713
-0.0355935
0.0586755
-0.0389796
0.0644185
-0.0421248
0.0697975
-0.044999
0.0747411
-0.0475923
0.079213
-0.0499145
0.0832116
-0.0519916
0.0867667
-0.0538616
0.0899317
-0.0555694
0.0927746
-0.0571612
0.0953689
-0.0586798
0.0977811
-0.0601629
0.100071
-0.0616341
0.102275
-0.0631226
0.104431
-0.0646108
0.106532
-0.0661705
0.108618
-0.0676439
-0.0693803
0.110652
-4.69353e-05
0.000571857
-0.000104349
0.00127315
-9.72413e-05
0.00160348
4.5739e-05
0.00158691
0.000394838
0.00123141
0.00102062
0.000532529
0.00199438
-0.00052388
0.003387
-0.00195715
0.00526578
-0.00378598
0.00768927
-0.00602198
0.0107004
-0.00866331
0.014319
-0.0116893
0.0185344
-0.015057
0.0233011
-0.0187009
0.028537
-0.0225357
0.0341274
-0.0264627
0.0399326
-0.0303784
0.0457993
-0.0341835
0.0515744
-0.0377919
0.0571182
-0.0411373
0.0623166
-0.044178
0.0670898
-0.046898
0.0713965
-0.0493057
0.0752338
-0.0514295
0.0786318
-0.0533125
0.0816459
-0.0550056
0.0843457
-0.0565614
0.0868047
-0.0580283
0.0890907
-0.0594473
0.09126
-0.0608491
0.0933535
-0.0622565
0.0953989
-0.0636795
0.0974094
-0.065133
0.0993972
-0.0665986
0.101355
-0.0681279
0.103307
-0.0695966
-0.0712893
0.105216
-2.4827e-05
0.000596684
-1.95416e-05
0.00126787
9.28883e-05
0.00149105
0.000389133
0.00129066
0.000946297
0.000674244
0.00184228
-0.00036345
0.00315438
-0.00183598
0.00495575
-0.00375852
0.00730939
-0.00613962
0.0102601
-0.00897267
0.0138253
-0.0122286
0.0179872
-0.0158512
0.0226872
-0.019757
0.0278261
-0.0238398
0.03327
-0.0279796
0.0388617
-0.0320544
0.044436
-0.0359527
0.0498363
-0.0395838
0.0549299
-0.0428854
0.0596197
-0.0458271
0.0638507
-0.048409
0.0676104
-0.0506577
0.0709237
-0.052619
0.0738439
-0.0543497
0.0764408
-0.0559094
0.0787891
-0.0573539
0.0809585
-0.0587308
0.083007
-0.0600769
0.0849783
-0.0614186
0.086902
-0.0627728
0.0887952
-0.0641497
0.0906686
-0.0655529
0.0925242
-0.0669886
0.0943694
-0.0684438
0.096196
-0.0699544
0.0980237
-0.0714243
-0.0730881
0.0998224
-1.83985e-06
0.000598523
7.23361e-05
0.00119369
0.000303234
0.00126015
0.000772968
0.000820929
0.00156509
-0.000117883
0.00276312
-0.00156148
0.00444658
-0.00351944
0.00668431
-0.00599626
0.00952508
-0.00898039
0.0129868
-0.0124344
0.0170469
-0.0162887
0.0216366
-0.0204408
0.0266416
-0.024762
0.0319112
-0.0291094
0.0372732
-0.0333415
0.042553
-0.0373343
0.0475938
-0.0409936
0.0522724
-0.0442624
0.0565099
-0.0471229
0.0602745
-0.0495917
0.0635784
-0.0517128
0.0664674
-0.0535468
0.0690093
-0.0551609
0.0712798
-0.0566202
0.073352
-0.0579816
0.0752884
-0.0592903
0.0771374
-0.0605798
0.0789328
-0.0618724
0.0806965
-0.0631822
0.0824408
-0.0645171
0.0841722
-0.0658811
0.0858944
-0.0672751
0.0876074
-0.0687016
0.0893153
-0.0701518
0.0910108
-0.0716499
0.092711
-0.0731246
-0.0747644
0.0943874
2.14532e-05
0.00057707
0.000168965
0.00104618
0.000528792
0.000900325
0.00118911
0.000160607
0.00223903
-0.0011678
0.00376462
-0.00308707
0.00584178
-0.00559659
0.00852544
-0.00867992
0.011837
-0.012292
0.0157527
-0.0163501
0.0201965
-0.0207325
0.0250421
-0.0252864
0.0301239
-0.0298438
0.0352564
-0.0342418
0.0402575
-0.0383427
0.0449712
-0.042048
0.0492839
-0.0453063
0.0531333
-0.0481118
0.0565076
-0.0504972
0.059438
-0.0525221
0.0619849
-0.0542597
0.0642238
-0.0557856
0.0662316
-0.0571686
0.0680771
-0.0584658
0.0698159
-0.0597204
0.0714886
-0.060963
0.0731226
-0.0622137
0.0747346
-0.0634844
0.0763343
-0.0647819
0.0779265
-0.0661092
0.0795131
-0.0674677
0.0810951
-0.0688572
0.082672
-0.0702784
0.0842462
-0.0717261
0.0858121
-0.0732158
0.0873846
-0.074697
-0.0763175
0.0889377
4.51831e-05
0.000531887
0.000270844
0.000820519
0.000770114
0.000401054
0.00163729
-0.000706567
0.00296495
-0.00249546
0.00483683
-0.00495895
0.00731618
-0.00807594
0.0104312
-0.011795
0.014161
-0.0160218
0.0184267
-0.0206158
0.0230931
-0.0253988
0.0279819
-0.0301752
0.0328956
-0.0347575
0.0376447
-0.0389909
0.0420729
-0.0427709
0.0460745
-0.0460496
0.0496004
-0.0488322
0.0526545
-0.0511659
0.0552815
-0.0531243
0.0575513
-0.054792
0.0595433
-0.0562517
0.0613333
-0.0575756
0.0629858
-0.0588212
0.0645508
-0.0600307
0.0660632
-0.0612329
0.0675462
-0.062446
0.0690134
-0.0636809
0.0704724
-0.0649434
0.0719266
-0.0662361
0.0733775
-0.0675601
0.0748253
-0.0689155
0.0762702
-0.070302
0.0777116
-0.0717198
0.0791518
-0.0731662
0.0805867
-0.0746507
0.0820289
-0.0761392
-0.0777438
0.0834552
7.06046e-05
0.000461282
0.00038086
0.000510263
0.00103135
-0.000249438
0.00212127
-0.00179648
0.00374275
-0.00411694
0.00596922
-0.00718543
0.00883928
-0.010946
0.0123397
-0.0152954
0.0163938
-0.0200759
0.0208618
-0.0250838
0.0255555
-0.0300925
0.0302657
-0.0348855
0.0347943
-0.0392861
0.0389823
-0.043179
0.042728
-0.0465166
0.0459913
-0.0493129
0.0487868
-0.0516277
0.0511686
-0.0535476
0.0532125
-0.0551682
0.0549996
-0.0565791
0.0566045
-0.0578566
0.0580882
-0.0590593
0.0594965
-0.0602295
0.0608609
-0.061395
0.0622012
-0.0625732
0.0635292
-0.063774
0.0648509
-0.0650027
0.0661692
-0.0662617
0.0674851
-0.067552
0.0687988
-0.0688738
0.0701103
-0.070227
0.0714196
-0.0716114
0.0727269
-0.0730271
0.0740338
-0.0744731
0.0753377
-0.0759546
0.0766488
-0.0774502
-0.0790409
0.0779458
9.90857e-05
0.000362197
0.000502373
0.000106976
0.00131688
-0.00106394
0.0026436
-0.0031232
0.00456761
-0.00604095
0.00714121
-0.00975903
0.0103642
-0.014169
0.0141686
-0.0190997
0.0184154
-0.0243227
0.0229098
-0.0295781
0.0274314
-0.0346142
0.0317712
-0.0392253
0.0357637
-0.0432786
0.0393061
-0.0467214
0.0423623
-0.0495728
0.0449529
-0.0519034
0.0471378
-0.0538125
0.0489966
-0.0554064
0.0506115
-0.0567831
0.0520562
-0.0580238
0.0533896
-0.0591899
0.0546547
-0.0603245
0.0558806
-0.0614554
0.0570853
-0.0625997
0.0582791
-0.063767
0.0594674
-0.0649623
0.0606525
-0.0661878
0.0618354
-0.0674446
0.0630162
-0.0687328
0.0641949
-0.0700525
0.0653714
-0.0714036
0.0665462
-0.0727862
0.0677196
-0.0742005
0.0688928
-0.0756463
0.0700644
-0.0771263
0.0712418
-0.0786276
-0.0802058
0.0724067
0.000131701
0.000230496
0.000637619
-0.000398942
0.00162827
-0.0020546
0.00320103
-0.00469596
0.00542454
-0.00826446
0.00831699
-0.0126515
0.0118261
-0.0176781
0.0158211
-0.0230947
0.0201053
-0.0286069
0.0244482
-0.0339211
0.0286273
-0.0387933
0.0324654
-0.0430634
0.0358529
-0.0466661
0.0387519
-0.0496203
0.0411845
-0.0520054
0.0432135
-0.0539325
0.0449209
-0.0555199
0.0463901
-0.0568757
0.0476948
-0.0580877
0.0488927
-0.0592217
0.0500256
-0.0603229
0.0511213
-0.0614201
0.0521966
-0.0625307
0.0532612
-0.0636643
0.0543199
-0.0648258
0.0553751
-0.0660174
0.0564274
-0.0672402
0.0574773
-0.0684944
0.0585245
-0.0697801
0.0595693
-0.0710972
0.0606117
-0.072446
0.0616523
-0.0738267
0.0626916
-0.0752398
0.0637307
-0.0766854
0.0647688
-0.0781643
0.0658107
-0.0796696
-0.0812362
0.0668412
0.000168918
6.15782e-05
0.000786761
-0.00101679
0.00196264
-0.00323048
0.0037824
-0.00651572
0.00628676
-0.0107688
0.00944669
-0.0158114
0.0131485
-0.0213799
0.0172007
-0.0271469
0.0213652
-0.0327715
0.0254041
-0.03796
0.0291231
-0.0425122
0.0323989
-0.0463392
0.0351855
-0.0494527
0.037502
-0.0519368
0.0394111
-0.0539145
0.0409963
-0.0555176
0.0423424
-0.0568661
0.0435239
-0.0580572
0.0445991
-0.0591629
0.0456094
-0.060232
0.0465821
-0.0612956
0.0475339
-0.0623719
0.0484741
-0.0634709
0.0494075
-0.0645976
0.0503362
-0.0657545
0.0512611
-0.0669424
0.0521826
-0.0681616
0.0531006
-0.0694124
0.0540152
-0.0706947
0.0549267
-0.0720087
0.0558354
-0.0733547
0.0567419
-0.0747333
0.057647
-0.0761448
0.0585512
-0.0775896
0.0594542
-0.0790673
0.0603587
-0.0805742
-0.08213
0.0612525
0.00021053
-0.000148952
0.000947693
-0.00175395
0.00231237
-0.00459515
0.00436902
-0.00857237
0.00711803
-0.0135178
0.0104726
-0.019166
0.0142561
-0.0251634
0.0182287
-0.0311195
0.0221367
-0.0366794
0.0257633
-0.0415867
0.0289647
-0.0457136
0.0316793
-0.0490538
0.0339178
-0.0516912
0.0357399
-0.0537589
0.0372293
-0.0554039
0.0384727
-0.056761
0.0395463
-0.0579397
0.04051
-0.0590209
0.0414063
-0.0600591
0.0422629
-0.0610887
0.0430968
-0.0621296
0.0439174
-0.0631925
0.0447296
-0.0642831
0.0455356
-0.0654037
0.0463365
-0.0665553
0.0471326
-0.0677385
0.0479241
-0.0689531
0.0487109
-0.0701993
0.0494935
-0.0714772
0.050272
-0.0727872
0.0510471
-0.0741298
0.0518194
-0.0755056
0.0525896
-0.076915
0.053358
-0.078358
0.0541243
-0.0798336
0.0548898
-0.0813397
-0.0828854
0.0556452
0.000255779
-0.000404731
0.00111635
-0.00261452
0.002666
-0.00614479
0.00493672
-0.0108431
0.00787731
-0.0164584
0.011338
-0.0226267
0.0150869
-0.0289123
0.0188574
-0.03489
0.0224072
-0.0402291
0.0255637
-0.0447431
0.0282421
-0.048392
0.0304382
-0.0512499
0.0322045
-0.0534575
0.0336234
-0.0551778
0.0347833
-0.0565638
0.0357635
-0.0577412
0.0366265
-0.0588027
0.0374168
-0.0598113
0.0381639
-0.0608062
0.0388853
-0.0618101
0.0395911
-0.0628353
0.0402863
-0.0638878
0.0409736
-0.0649703
0.041654
-0.0660841
0.0423281
-0.0672294
0.042996
-0.0684064
0.043658
-0.0696151
0.0443142
-0.0708555
0.0449649
-0.0721279
0.0456106
-0.0734329
0.046252
-0.0747712
0.0468897
-0.0761433
0.0475243
-0.0775496
0.0481559
-0.0789896
0.0487841
-0.0804618
0.0494092
-0.0819648
-0.0835008
0.0500246
0.00030345
-0.000708182
0.00128717
-0.00359824
0.00300943
-0.00786705
0.00545873
-0.0132924
0.00852428
-0.019524
0.0119956
-0.0260981
0.0156017
-0.0325184
0.0190741
-0.0383624
0.0222051
-0.0433602
0.0248778
-0.0474158
0.0270646
-0.0505788
0.0288057
-0.052991
0.0301793
-0.0548312
0.0312753
-0.0562738
0.0321765
-0.057465
0.0329493
-0.058514
0.0336418
-0.0594952
0.0342855
-0.060455
0.0348998
-0.0614204
0.0354953
-0.0624057
0.0360779
-0.0634179
0.0366504
-0.0644603
0.0372141
-0.0655341
0.0377697
-0.0666397
0.0383175
-0.0677772
0.0388577
-0.0689466
0.0393905
-0.0701478
0.0399162
-0.0713811
0.0404352
-0.0726469
0.0409481
-0.0739459
0.0414556
-0.0752787
0.0419583
-0.076646
0.0424565
-0.0780479
0.0429502
-0.0794832
0.0434388
-0.0809504
0.0439221
-0.0824481
-0.0839746
0.0443959
0.000351937
-0.00106012
0.00145359
-0.00469989
0.00332737
-0.00974083
0.00590882
-0.0158738
0.00902466
-0.0226398
0.0124136
-0.029487
0.0157867
-0.0358915
0.0188973
-0.0414729
0.0215865
-0.0460494
0.0237941
-0.0496234
0.0255403
-0.052325
0.026895
-0.0543457
0.0279478
-0.0558839
0.0287853
-0.0571113
0.0294791
-0.0581588
0.0300819
-0.0591168
0.0306287
-0.0600419
0.031141
-0.0609673
0.0316309
-0.0619104
0.0321051
-0.0628799
0.0325668
-0.0638796
0.0330177
-0.0649111
0.0334584
-0.0659748
0.0338895
-0.0670708
0.0343113
-0.068199
0.0347239
-0.0693592
0.0351277
-0.0705516
0.035523
-0.0717765
0.0359104
-0.0730343
0.0362905
-0.0743259
0.0366639
-0.0756521
0.0370311
-0.0770133
0.0373924
-0.0784091
0.0377473
-0.0798382
0.0380954
-0.0812985
0.0384359
-0.0827885
-0.084305
0.0387663
0.000399588
-0.00145971
0.00160909
-0.0059094
0.00360552
-0.0117373
0.00626476
-0.0185331
0.00935432
-0.0257294
0.0125782
-0.0327108
0.015652
-0.0389653
0.0183677
-0.0441886
0.0206209
-0.0483026
0.0224019
-0.0514043
0.0237655
-0.0536887
0.0247979
-0.0553781
0.025589
-0.056675
0.0262163
-0.0577386
0.0267383
-0.0586808
0.0271947
-0.0595732
0.0276104
-0.0604576
0.0279994
-0.0613563
0.0283694
-0.0622804
0.0287242
-0.0632348
0.029066
-0.0642213
0.0293956
-0.0652407
0.0297136
-0.0662928
0.0300205
-0.0673776
0.0303164
-0.0684949
0.0306016
-0.0696445
0.0308766
-0.0708266
0.0311417
-0.0720416
0.0313975
-0.0732901
0.0316446
-0.074573
0.0318837
-0.0758911
0.0321151
-0.0772447
0.032339
-0.078633
0.0325549
-0.0800541
0.0327623
-0.0815059
0.0329599
-0.0829862
-0.0844914
0.0331463
0.000445639
-0.00190535
0.00174876
-0.00721252
0.00383236
-0.0138209
0.00651032
-0.021211
0.00950075
-0.0287198
0.0124926
-0.0357027
0.0152253
-0.0416981
0.0175394
-0.0465027
0.0193823
-0.0501455
0.0207841
-0.0528061
0.0218217
-0.0547263
0.0225862
-0.0561426
0.0231613
-0.0572501
0.0236126
-0.0581899
0.023986
-0.0590542
0.0243105
-0.0598977
0.024603
-0.0607501
0.0248729
-0.0616261
0.0251248
-0.0625323
0.0253612
-0.0634712
0.0255834
-0.0644435
0.0257919
-0.0654493
0.0259874
-0.0664883
0.0261701
-0.0675603
0.0263404
-0.0686651
0.0264985
-0.0698026
0.0266448
-0.0709729
0.0267798
-0.0721766
0.026904
-0.0734143
0.0270181
-0.0746871
0.0271226
-0.0759956
0.027218
-0.07734
0.0273041
-0.0787192
0.0273808
-0.0801308
0.0274476
-0.0815726
0.0275035
-0.0830421
0.027549
-0.0845368
-7.09118e-05
0.000154717
-8.38052e-05
-0.000253898
0.000809548
-0.000626561
-0.00053366
0.00165906
-0.00137929
-0.000900861
0.00257774
-0.00221053
-0.0013485
0.00347708
-0.00302944
-0.00186978
0.00430605
-0.00378477
-0.00245709
0.00504604
-0.00445873
-0.00310193
0.00570293
-0.00505808
-0.00379548
0.00629792
-0.00560437
-0.0045293
0.00685883
-0.00612501
-0.00529599
0.00741338
-0.0066467
-0.00608946
0.00798512
-0.00719165
-0.00690493
0.00859179
-0.00777631
-0.00773863
0.00924547
-0.00841177
-0.00858743
0.00995373
-0.00910493
-0.00944847
0.0107209
-0.00985984
-0.0103188
0.0115491
-0.0106787
-0.0111954
0.0124391
-0.0115626
-0.0120747
0.0133909
-0.0125116
-0.0129527
0.0144034
-0.0135254
-0.0138252
0.0154749
-0.0146024
-0.0146871
0.0166027
-0.0157407
-0.0155333
0.0177831
-0.0169369
-0.0163578
0.0190113
-0.0181868
-0.0171541
0.0202812
-0.0194848
-0.0179153
0.021585
-0.0208239
-0.0186333
0.0229134
-0.0221954
-0.0192993
0.024255
-0.023589
-0.0199033
0.0255961
-0.0249921
-0.0204343
0.0269209
-0.0263899
-0.0208799
0.0282107
-0.0277651
-0.0212271
0.0294446
-0.0290974
-0.0214619
0.0305993
-0.0303645
-0.0215705
0.0316502
-0.0315416
-0.0215415
0.0325708
-0.0325999
-0.0213708
0.0333348
-0.0335055
0.0339315
-0.0210702
-0.0342321
-5.37089e-05
0.000208426
-0.000193337
0.000949176
-0.000410073
0.00187579
-0.000700357
0.00286802
-0.00106218
0.0038389
-0.00149262
0.00473648
-0.00198656
0.00553998
-0.00253667
0.00625303
-0.00313401
0.00689526
-0.00376916
0.00749397
-0.00443311
0.00807734
-0.00511796
0.00866997
-0.00581708
0.00929091
-0.00652502
0.00995341
-0.00723716
0.0106659
-0.00794929
0.011433
-0.0086573
0.0122571
-0.00935685
0.0131387
-0.0100432
0.0140773
-0.0107111
0.0150713
-0.0113548
0.0161185
-0.0119676
0.0172155
-0.0125423
0.0183578
-0.013071
0.01954
-0.0135445
0.0207548
-0.0139532
0.0219936
-0.0142858
0.0232461
-0.0145305
0.0244996
-0.0146738
0.0257395
-0.0147016
0.0269487
-0.0145988
0.0281079
-0.0143499
0.0291957
-0.0139399
0.0301893
-0.0133545
0.0310648
-0.0125823
0.0317986
-0.0116189
0.0323714
0.0327835
-0.010471
-3.54788e-05
0.000243905
-0.000128799
0.0010425
-0.000277437
0.00202443
-0.000483427
0.00307401
-0.000749711
0.00410519
-0.00107739
0.00506416
-0.00146426
0.00592685
-0.00190455
0.00669332
-0.00238967
0.00738038
-0.00290947
0.00801377
-0.00345346
0.00862133
-0.00401183
0.00922834
-0.0045759
0.00985497
-0.0051382
0.0105157
-0.00569227
0.0112199
-0.00623221
0.011973
-0.00675232
0.0127772
-0.00724675
0.0136331
-0.00770925
0.0145398
-0.00813298
0.0154951
-0.00851037
0.0164959
-0.00883307
0.0175382
-0.00909183
0.0186166
-0.00927642
0.0197245
-0.00937564
0.020854
-0.00937725
0.0219952
-0.00926799
0.0231368
-0.00903359
0.0242652
-0.00865892
0.0253648
-0.00812818
0.0264179
-0.00742524
0.0274049
-0.00653435
0.0283048
-0.00544033
0.0290953
-0.00412951
0.029754
-0.00259075
0.0302598
-0.000815675
0.0305963
0.0307722
0.00119562
-1.74135e-05
0.000261318
-6.39895e-05
0.00108907
-0.000142694
0.00210313
-0.000260474
0.00319179
-0.000424876
0.00426959
-0.000641027
0.00528031
-0.000909869
0.00619569
-0.0012277
0.00701115
-0.00158681
0.0077395
-0.00197676
0.00840372
-0.00238586
0.00903043
-0.00280247
0.00964495
-0.00321579
0.0102683
-0.00361612
0.0109161
-0.00399487
0.0115987
-0.00434417
0.0123222
-0.00465648
0.0130895
-0.00492423
0.0139009
-0.00513954
0.0147551
-0.00529392
0.0156494
-0.00537816
0.0165801
-0.0053822
0.0175422
-0.00529514
0.0185295
-0.00510504
0.0195344
-0.004799
0.0205479
-0.00436332
0.0215596
-0.00378368
0.0225572
-0.00304488
0.0235264
-0.00213138
0.0244513
-0.00102766
0.0253142
0.000281303
0.026096
0.00181026
0.0267759
0.00357266
0.0273329
0.00558038
0.0277463
0.00784286
0.0279974
0.0103683
0.0280709
0.0279741
0.0131664
-4.78149e-07
0.000261796
-2.29457e-06
0.00109089
-1.24804e-05
0.00211332
-4.20584e-05
0.00322137
-0.000102348
0.00432988
-0.000202123
0.00538009
-0.000345567
0.00633914
-0.000531467
0.00719705
-0.00075358
0.00796161
-0.00100186
0.008652
-0.00126374
0.0092923
-0.00152625
0.00990747
-0.00177654
0.0105186
-0.00200259
0.0111421
-0.00219362
0.0117897
-0.0023396
0.0124682
-0.002431
0.0131809
-0.0024584
0.0139283
-0.0024124
0.0147091
-0.00228298
0.01552
-0.00205948
0.0163566
-0.00173051
0.0172133
-0.00128387
0.0180829
-0.000706856
0.0189574
1.38679e-05
0.0198272
0.000892505
0.0206809
0.00194409
0.0215056
0.00318324
0.0222872
0.00462449
0.02301
0.00628192
0.0236568
0.00816874
0.0242092
0.0102967
0.024648
0.0126759
0.0249537
0.0153151
0.025107
0.0182214
0.0250911
0.0213997
0.0248926
0.0244941
0.0248797
1.43894e-05
0.000247407
5.30241e-05
0.00105225
0.000106238
0.00206011
0.000160757
0.00316685
0.00020243
0.0042882
0.000219403
0.00536312
0.000204411
0.00635413
0.000155964
0.0072455
7.83518e-05
0.00803922
-1.92707e-05
0.00874963
-0.000125013
0.00939804
-0.000224338
0.0100068
-0.000302833
0.0105971
-0.000346669
0.0111859
-0.000342574
0.0117856
-0.000278414
0.0124041
-0.000142844
0.0130453
7.50118e-05
0.0137104
0.000386535
0.0143975
0.000802977
0.0151036
0.00133597
0.0158236
0.00199768
0.0165515
0.00280078
0.0172798
0.00375854
0.0179997
0.00488466
0.0187011
0.00619291
0.0193727
0.00769686
0.0200016
0.00941003
0.0205741
0.0113453
0.0210748
0.0135144
0.0214877
0.0159278
0.0217957
0.0185944
0.0219814
0.0215206
0.0220274
0.0247113
0.0219164
0.0281712
0.0216312
0.0318947
0.0211691
0.020452
0.0359368
2.65189e-05
0.000220888
9.9331e-05
0.000979442
0.000207994
0.00195144
0.000338324
0.00303652
0.000474809
0.00415172
0.000603555
0.00523437
0.000714748
0.00624294
0.000804195
0.00715605
0.000873747
0.00796967
0.000930703
0.00869267
0.000986826
0.00934192
0.00105615
0.00993747
0.00115415
0.0104991
0.00129643
0.0110437
0.00149789
0.0115842
0.00177267
0.0121293
0.00213412
0.0126839
0.00259507
0.0132495
0.00316774
0.0138249
0.00386444
0.0144069
0.00469756
0.0149905
0.00567968
0.0155694
0.00682357
0.0161359
0.00814215
0.0166811
0.0096484
0.0171949
0.0113551
0.017666
0.0132745
0.0180822
0.0154184
0.0184302
0.0177973
0.0186959
0.0204206
0.0188644
0.0232959
0.0189204
0.0264289
0.0188485
0.0298233
0.018633
0.0334794
0.0182603
0.0374015
0.0177091
0.0415688
0.0170017
0.0159622
0.0460586
3.53558e-05
0.000185532
0.000134425
0.000880373
0.000287651
0.00179822
0.000481628
0.00284254
0.000700983
0.00393236
0.000931039
0.00500431
0.0011603
0.00601367
0.00138228
0.00693407
0.00159635
0.0077556
0.00180764
0.00848138
0.00202616
0.0091234
0.00226536
0.00969827
0.00254077
0.0102237
0.00286874
0.0107157
0.00326554
0.0111874
0.00374681
0.011648
0.00432744
0.0121033
0.00502156
0.0125554
0.00584262
0.0130038
0.0068037
0.0134458
0.00791759
0.0138766
0.00919689
0.0142901
0.010654
0.0146788
0.0123012
0.0150339
0.0141504
0.0153457
0.0162128
0.0156036
0.018499
0.015796
0.0210186
0.0159106
0.0237799
0.0159346
0.0267896
0.0158547
0.0300527
0.0156573
0.0335719
0.0153292
0.0373488
0.0148561
0.041379
0.0142301
0.0456687
0.0134194
0.0501796
0.0124908
0.0111376
0.0550042
4.05638e-05
0.000144969
0.000156772
0.000764165
0.000341461
0.00161353
0.000583537
0.00260047
0.000869284
0.00364662
0.00118465
0.00468895
0.00151761
0.00568071
0.00186012
0.00659157
0.00220935
0.00740637
0.00256803
0.0081227
0.00294399
0.00874744
0.00334911
0.00929315
0.00379807
0.0097747
0.00430707
0.0102067
0.00489282
0.0106016
0.00557182
0.010969
0.00635994
0.0113151
0.00727226
0.011643
0.00832308
0.011953
0.00952595
0.0122429
0.0108938
0.0125088
0.0124391
0.0127449
0.0141735
0.0129443
0.0161084
0.013099
0.0182543
0.0131999
0.0206207
0.0132371
0.0232164
0.0132003
0.0260487
0.0130784
0.0291234
0.0128599
0.0324446
0.0125334
0.036015
0.012087
0.0398341
0.01151
0.0439023
0.0107879
0.0482098
0.00992261
0.0527683
0.00886094
0.0575217
0.00773737
0.00608249
0.0625768
4.19869e-05
0.000102982
0.000165489
0.000640664
0.000366986
0.00141203
0.000639001
0.00232845
0.000970853
0.00331477
0.00135051
0.0043093
0.00176668
0.00526454
0.0022108
0.00614744
0.0026785
0.00693867
0.00317032
0.00763088
0.0036917
0.00822606
0.00425235
0.0087325
0.00486522
0.00916182
0.00554543
0.00952647
0.00630917
0.00983787
0.00717289
0.0101053
0.00815271
0.0103353
0.00926408
0.0105317
0.0105216
0.0106955
0.011939
0.0108256
0.013529
0.0109187
0.0153036
0.0109703
0.0172737
0.0109741
0.0194496
0.0109231
0.0218402
0.0108093
0.0244533
0.010624
0.0272957
0.0103579
0.0303724
0.0100016
0.033687
0.00954528
0.0372413
0.00897913
0.0410357
0.0082926
0.045067
0.00747875
0.0493364
0.00651851
0.0538265
0.00543249
0.0585652
0.00412231
0.0634731
0.00282946
0.000869195
0.0686864
3.96026e-05
6.33792e-05
0.000160257
0.000520009
0.00036308
0.00120921
0.000645226
0.00204631
0.00100016
0.00295983
0.00141908
0.00389038
0.00189268
0.00479094
0.00241303
0.00562709
0.00297513
0.00637657
0.0035779
0.00702811
0.00422459
0.00757937
0.00492252
0.00803458
0.00568239
0.00840195
0.00651743
0.00869143
0.0074424
0.0089129
0.00847279
0.00907491
0.0096241
0.00918401
0.0109114
0.00924439
0.0123489
0.00925794
0.0139501
0.00922442
0.0157271
0.00914172
0.0176912
0.00900619
0.0198524
0.0088129
0.0222197
0.0085559
0.0248005
0.00822845
0.0276013
0.00782317
0.030627
0.00733226
0.033881
0.00674761
0.0373656
0.00606067
0.041081
0.00526371
0.0450279
0.00434569
0.0492032
0.00330346
0.053615
0.00210678
0.0582324
0.000815082
0.0631227
-0.000768075
0.0681671
-0.00221486
-0.00456499
0.0736013
3.34701e-05
2.9909e-05
0.000141215
0.000412264
0.000329777
0.00102065
0.000601671
0.00177441
0.000955299
0.0026062
0.00138598
0.0034597
0.00188743
0.00428949
0.00245342
0.00506109
0.00307934
0.00575066
0.00376332
0.00634412
0.00450694
0.00683575
0.00531531
0.00722621
0.00619674
0.00752052
0.00716213
0.00772604
0.00822417
0.00785086
0.00939659
0.00790248
0.0106935
0.00788709
0.0121288
0.00780908
0.0137159
0.0076709
0.0154671
0.00747316
0.0173941
0.00721479
0.019507
0.00689322
0.0218152
0.00650468
0.0243268
0.00604437
0.0270486
0.00550666
0.0299865
0.0048852
0.0331457
0.00417312
0.0365305
0.00336279
0.0401459
0.00244526
0.0439951
0.00141451
0.0480795
0.000261275
0.0524091
-0.00102617
0.0570075
-0.00249158
0.0618438
-0.00402123
0.067034
-0.00595824
0.0723958
-0.00757672
-0.0105019
0.0783327
2.3698e-05
6.21108e-06
0.000108909
0.000327053
0.000268251
0.000861303
0.000510089
0.00153257
0.000838205
0.00227808
0.00125258
0.00304532
0.00175064
0.00379143
0.00232871
0.00448303
0.00298343
0.00509593
0.00371307
0.00561449
0.00451827
0.00603056
0.00540243
0.00634205
0.00637173
0.00655122
0.00743472
0.00666305
0.0086018
0.00668378
0.00988458
0.0066197
0.0112953
0.00647633
0.0128465
0.00625794
0.0145502
0.00596723
0.016418
0.00560533
0.018461
0.0051718
0.0206894
0.00466478
0.023113
0.00408107
0.0257411
0.00341634
0.0285828
0.00266495
0.0316477
0.00182022
0.0349455
0.000875398
0.0384862
-0.000177936
0.0422865
-0.00135502
0.0463597
-0.00265875
0.0507347
-0.00411369
0.0554129
-0.00570441
0.0604561
-0.00753472
0.0658236
-0.00938873
0.071698
-0.0118327
0.0778147
-0.0136934
-0.0174156
0.0847285
1.04917e-05
-4.28062e-06
6.44044e-05
0.00027314
0.000181007
0.000744701
0.000374819
0.00133876
0.000655154
0.00199775
0.00102684
0.00267363
0.00149133
0.00332694
0.002048
0.00392637
0.00269549
0.00444843
0.00343296
0.00487702
0.00426093
0.00520259
0.0051819
0.00542107
0.00620054
0.00553258
0.00732359
0.00554001
0.00855956
0.00544781
0.00991839
0.00526087
0.011411
0.00498372
0.013049
0.00461996
0.0148443
0.00417186
0.0168095
0.0036402
0.0189571
0.00302417
0.0213005
0.00232134
0.0238542
0.00152741
0.0266331
0.000637438
0.0296545
-0.000356473
0.0329393
-0.00146449
0.0365096
-0.00269499
0.0403923
-0.00406063
0.0446135
-0.0055762
0.0492061
-0.00725132
0.0542074
-0.00911501
0.0596404
-0.0111374
0.0655659
-0.0134602
0.0719466
-0.0157694
0.0789441
-0.0188303
0.0862837
-0.0210329
-0.0255787
0.0944468
-5.56953e-06
1.28893e-06
9.6037e-06
0.000257967
7.24127e-05
0.000681892
0.000203563
0.00120761
0.000417801
0.00178351
0.000724719
0.00236672
0.00112983
0.00292183
0.00163582
0.00342038
0.00224384
0.00384041
0.00295467
0.00416619
0.00376969
0.00438757
0.00469158
0.00449918
0.00572474
0.00449942
0.00687546
0.00438929
0.00815196
0.00417131
0.0095643
0.00384853
0.0111243
0.00342371
0.0128456
0.00289871
0.0147434
0.00227403
0.0168352
0.00154843
0.0191403
0.000719043
0.0216803
-0.000218632
0.024481
-0.00127336
0.0275702
-0.00245175
0.0309787
-0.00376496
0.034739
-0.00522476
0.0388874
-0.00684341
0.0434602
-0.00863343
0.0484926
-0.0106086
0.0540168
-0.0127755
0.06006
-0.0151582
0.066638
-0.0177155
0.0737586
-0.0205807
0.0814008
-0.0234116
0.0895607
-0.0269902
0.0981175
-0.0295897
-0.0346077
0.107147
-2.39191e-05
2.5208e-05
-5.23356e-05
0.000286384
-5.05037e-05
0.00068006
8.53735e-06
0.00114857
0.000144782
0.00164727
0.000372333
0.00213917
0.00070072
0.00259345
0.00113617
0.00298493
0.00168289
0.00329369
0.00234424
0.00350483
0.00312382
0.00360798
0.00402629
0.00359671
0.00505804
0.00346767
0.00622768
0.00321965
0.00754642
0.00285257
0.00902837
0.00236657
0.0106908
0.00176129
0.0125543
0.00103522
0.0146428
0.000185459
0.0169845
-0.000793188
0.0196104
-0.00190688
0.0225556
-0.00316383
0.0258559
-0.00457362
0.0295501
-0.00614601
0.0336763
-0.00789111
0.0382698
-0.00981828
0.0433618
-0.0119355
0.048976
-0.0142475
0.0551258
-0.0167585
0.061812
-0.0194617
0.0690177
-0.0223639
0.0767183
-0.0254162
0.084836
-0.0286984
0.0933603
-0.031936
0.102066
-0.0356955
0.111087
-0.0386112
-0.0434493
0.119929
-4.31853e-05
6.83934e-05
-0.000116518
0.000359716
-0.000177231
0.000740773
-0.00019231
0.00116365
-0.000136754
0.00159171
8.01787e-06
0.00199439
0.000255676
0.00234579
0.000616519
0.00262408
0.0010988
0.00281141
0.00171007
0.00289357
0.00245835
0.00285971
0.0033532
0.00270186
0.00440664
0.00241423
0.0056339
0.0019924
0.00705405
0.00143242
0.00869045
0.000730169
0.0105709
-0.000119153
0.0127276
-0.00112145
0.0151966
-0.00228357
0.0180167
-0.00361327
0.0212283
-0.00511851
0.0248714