/*--------------------------------*- C++ -*----------------------------------*\
| =========                 |                                                 |
| \\      /  F ield         | OpenFOAM: The Open Source CFD Toolbox           |
|  \\    /   O peration     | Version:  2512                                  |
|   \\  /    A nd           | Website:  www.openfoam.com                      |
|    \\/     M anipulation  |                                                 |
\*---------------------------------------------------------------------------*/
FoamFile
{
    version     2.0;
    format      ascii;
    arch        "LSB;label=32;scalar=64";
    class       surfaceScalarField;
    location    "28";
    object      phi;
}
// * * * * * * * * * * * * * * * * * * * * * * * * * * * * * * * * * * * * * //

dimensions      [0 3 -1 0 0 0 0];

oriented        oriented;

internalField   nonuniform List<scalar> 
26232
(
-3.42266e-05
0.00118684
-0.00115262
0.000114746
0.00273251
-0.00288148
0.000613967
0.00348331
-0.00398253
0.00160726
0.00342403
-0.00441732
0.00325477
0.00252806
-0.00417557
0.00575534
0.000746923
-0.0032475
0.00935328
-0.0019855
-0.00161244
0.0143201
-0.00573276
0.000765992
0.0209129
-0.0105267
0.00393388
0.0293145
-0.0163358
0.00793421
0.039581
-0.0230465
0.01278
0.0516067
-0.0304657
0.01844
0.0651198
-0.0383407
0.0248276
0.0797051
-0.0463904
0.0318052
0.0948515
-0.0543344
0.039188
0.10999
-0.0619258
0.0467873
0.124589
-0.0689559
0.0543571
0.138126
-0.0753146
0.0617774
0.150286
-0.0808826
0.0687228
0.160754
-0.0858082
0.0753401
0.169572
-0.0898959
0.0810781
0.176654
-0.0938261
0.0867441
0.182087
-0.0966102
0.0911768
-0.100252
0.0967675
0.185572
-7.43062e-05
0.00126115
5.59767e-05
0.00260223
0.000646883
0.0028924
0.00194311
0.00212781
0.00421299
0.000258177
0.00775971
-0.0027998
0.0128963
-0.00712205
0.0198857
-0.0127222
0.0288628
-0.0195038
0.0397699
-0.0272429
0.0523344
-0.035611
0.0660925
-0.0442238
0.08045
-0.0526982
0.0947607
-0.0607012
0.108408
-0.0679822
0.120878
-0.0743955
0.13182
-0.0798978
0.141063
-0.0845576
0.148681
-0.0885008
0.154835
-0.0919617
0.159997
-0.0950584
0.164346
-0.0981748
0.168768
-0.101032
-0.104613
0.173129
-5.90613e-05
0.00132021
0.000193769
0.0023494
0.00110507
0.00198111
0.00302389
0.000208982
0.00632235
-0.00304028
0.0113659
-0.00784339
0.0184346
-0.0141907
0.0276185
-0.0219061
0.0387428
-0.0306281
0.0513619
-0.0398621
0.0648266
-0.0490757
0.078394
-0.0577913
0.0913493
-0.0656534
0.10311
-0.0724616
0.113301
-0.0781739
0.121795
-0.0828891
0.128702
-0.0868046
0.134326
-0.0901821
0.139079
-0.0932535
0.143396
-0.0962781
0.147614
-0.0992768
0.15199
-0.102551
0.156581
-0.105623
-0.109338
0.161306
1.31202e-05
0.00130709
0.00052822
0.0018343
0.00198696
0.000522364
0.00483421
-0.00263827
0.00950283
-0.0077089
0.0163163
-0.0146569
0.0253482
-0.0232225
0.0363241
-0.032882
0.0486369
-0.0429408
0.0614705
-0.0526958
0.0739749
-0.06158
0.0854302
-0.0692466
0.095363
-0.0755862
0.103599
-0.0806973
0.110249
-0.0848238
0.115636
-0.0882762
0.120192
-0.0913606
0.124322
-0.0943125
0.128355
-0.0972862
0.132421
-0.100345
0.136618
-0.103474
0.140809
-0.106742
0.145059
-0.109873
-0.113514
0.149235
0.000125155
0.00118194
0.00103138
0.000928068
0.00324082
-0.00168708
0.00726345
-0.0066609
0.013499
-0.0139444
0.022053
-0.023211
0.0325931
-0.0337626
0.044374
-0.0446629
0.0564325
-0.0549993
0.0678408
-0.064104
0.0779133
-0.0716526
0.0863155
-0.0776488
0.0930665
-0.0823372
0.0984546
-0.0860854
0.102901
-0.08927
0.106821
-0.0921967
0.110523
-0.0950619
0.114176
-0.097966
0.117827
-0.100937
0.121467
-0.103984
0.125084
-0.107092
0.128654
-0.110312
0.132312
-0.113531
-0.117116
0.135913
0.0002755
0.000906436
0.00168273
-0.000479159
0.00480899
-0.00481334
0.0101548
-0.0120067
0.0179213
-0.0217109
0.027787
-0.0330766
0.0389087
-0.0448843
0.0501893
-0.0559435
0.0606284
-0.0654385
0.0695756
-0.0730512
0.0768169
-0.0788939
0.0825129
-0.0833448
0.0870452
-0.0868695
0.0908433
-0.0898835
0.0942569
-0.0926836
0.0975009
-0.0954407
0.100675
-0.0982363
0.10381
-0.101101
0.106922
-0.104049
0.11003
-0.107092
0.113173
-0.110235
0.116366
-0.113504
0.119651
-0.116816
-0.120424
0.122959
0.000463594
0.000442842
0.0024699
-0.00248547
0.00662347
-0.0089669
0.0132792
-0.0186624
0.0222273
-0.0306591
0.0325964
-0.0434456
0.0431653
-0.0554532
0.0528362
-0.0656144
0.0609535
-0.0735558
0.067371
-0.0794687
0.0723262
-0.0838491
0.0762341
-0.0872527
0.0795028
-0.0901382
0.0824317
-0.0928125
0.0851957
-0.0954475
0.0878819
-0.098127
0.0905333
-0.100888
0.0931792
-0.103746
0.0958397
-0.10671
0.0985267
-0.109779
0.101247
-0.112955
0.103972
-0.116229
0.106746
-0.11959
-0.12314
0.109462
0.000691446
-0.000248604
0.00337204
-0.00516606
0.00856814
-0.014163
0.0162958
-0.0263901
0.0257754
-0.0401388
0.0356905
-0.0533607
0.0447972
-0.0645599
0.0523604
-0.0731776
0.0582289
-0.0794243
0.0626619
-0.0839017
0.0660824
-0.0872695
0.0688866
-0.0900569
0.0713581
-0.0926097
0.0736658
-0.0951202
0.0758994
-0.0976812
0.0781042
-0.100332
0.0803019
-0.103085
0.0824994
-0.105944
0.0846971
-0.108908
0.0868961
-0.111978
0.0890974
-0.115156
0.0913118
-0.118444
0.0935613
-0.12184
-0.125371
0.0957927
0.000954654
-0.00120326
0.00433998
-0.00855139
0.0104549
-0.0202779
0.0187882
-0.0347234
0.0280197
-0.0493703
0.0367138
-0.0620548
0.0439554
-0.0718015
0.0495011
-0.0787232
0.0535826
-0.0835059
0.0566226
-0.0869417
0.0590242
-0.0896712
0.0610794
-0.0921121
0.062964
-0.0944943
0.0647697
-0.0969259
0.0665376
-0.0994491
0.0682829
-0.102077
0.0700099
-0.104812
0.0717218
-0.107656
0.0734257
-0.110611
0.0751296
-0.113682
0.0768419
-0.116868
0.0785633
-0.120165
0.0802964
-0.123573
-0.12708
0.082005
0.00124075
-0.002444
0.00529086
-0.0126015
0.0120462
-0.0270333
0.0203911
-0.0430683
0.0287134
-0.0576926
0.0358071
-0.0691484
0.0412253
-0.0772197
0.045112
-0.08261
0.0478768
-0.0862707
0.0499421
-0.0890069
0.0516231
-0.0913522
0.0531113
-0.0936002
0.054504
-0.0958871
0.0558435
-0.0982654
0.0571461
-0.100752
0.0584192
-0.10335
0.0596689
-0.106062
0.0609013
-0.108888
0.0621211
-0.111831
0.0633313
-0.114892
0.0645303
-0.118067
0.0657195
-0.121354
0.0668983
-0.124752
-0.12823
0.0680485
0.00152742
-0.00397142
0.00611978
-0.0171939
0.0131218
-0.0340353
0.0209199
-0.0508664
0.027943
-0.0647156
0.0333991
-0.0746045
0.0372492
-0.0810698
0.0398544
-0.0852152
0.0416567
-0.088073
0.0430074
-0.0903577
0.0441255
-0.0924703
0.0451237
-0.0945984
0.046052
-0.0968153
0.0469308
-0.0991442
0.0477693
-0.10159
0.0485726
-0.104153
0.0493444
-0.106834
0.0500879
-0.109632
0.0508066
-0.11255
0.0515041
-0.115589
0.0521837
-0.118747
0.0528468
-0.122017
0.0534837
-0.125389
-0.128838
0.0540912
0.00179041
-0.00576183
0.00672697
-0.0221304
0.0135511
-0.0408595
0.0204046
-0.0577199
0.0260025
-0.0703135
0.0299733
-0.0785754
0.0325515
-0.083648
0.0341785
-0.0868422
0.0352504
-0.0891449
0.036029
-0.0911363
0.0366547
-0.093096
0.0371911
-0.0951348
0.0376639
-0.0972882
0.0380835
-0.0995638
0.0384546
-0.101961
0.0387804
-0.104479
0.0390644
-0.107118
0.0393111
-0.109878
0.0395248
-0.112764
0.0397096
-0.115774
0.0398672
-0.118905
0.0399961
-0.122146
0.0400902
-0.125483
0.0401532
-0.128901
-0.000565928
0.00220809
-0.00164216
-0.00188308
0.00452177
-0.00320462
-0.00372265
0.00560168
-0.00376211
-0.00592999
0.00595269
-0.00374535
-0.00841006
0.00590952
-0.00342944
-0.0111157
0.00566466
-0.00295906
-0.0140325
0.00530756
-0.00239075
-0.0171646
0.00486924
-0.00173712
-0.0205259
0.00435503
-0.000993725
-0.0241412
0.00376202
-0.000146684
-0.028007
0.00308974
0.000776072
-0.0321518
0.00232869
0.00181609
-0.0365906
0.00147328
0.00296554
-0.0413268
0.000509829
0.00422633
-0.0464004
-0.000519226
0.00559286
-0.0518227
-0.0016427
0.007065
-0.0575974
-0.00286704
0.00864174
-0.0637305
-0.00418318
0.0103162
-0.0702261
-0.00558328
0.0120789
-0.0770904
-0.00705313
0.0139174
-0.0843164
-0.00858968
0.0158157
-0.0918919
-0.0101725
0.0177479
-0.0998084
-0.0117589
0.0196754
-0.0132993
-0.10808
0.021571
-0.000440864
0.00264896
-0.00153146
0.00561237
-0.00310851
0.00717873
-0.00503965
0.00788382
-0.00723026
0.00810014
-0.00962495
0.00805935
-0.0121996
0.00788222
-0.0149502
0.00761981
-0.0178834
0.00728822
-0.0210108
0.00688945
-0.0243422
0.00642116
-0.0278924
0.00587889
-0.0316777
0.00525854
-0.0357254
0.00455758
-0.0400246
0.0037799
-0.0445905
0.00292327
-0.0494418
0.0019842
-0.0545839
0.000958952
-0.0600218
-0.000145337
-0.065798
-0.00127696
-0.0718955
-0.0024922
-0.078296
-0.00377199
-0.0849755
-0.00507934
-0.0063468
-0.0919281
-0.000269615
0.00291857
-0.00103189
0.00637464
-0.00221294
0.00835978
-0.00371759
0.00938847
-0.00545763
0.00984018
-0.00736844
0.00997016
-0.00941144
0.00992522
-0.011568
0.0097764
-0.0138317
0.00955186
-0.0162017
0.00925951
-0.0186798
0.00889924
-0.0212693
0.00846832
-0.0239747
0.00796402
-0.0268019
0.00738474
-0.0297516
0.00672962
-0.032826
0.00599766
-0.0360295
0.0051877
-0.0393699
0.00429939
-0.0428509
0.0033356
-0.0464349
0.00230705
-0.0501376
0.00121048
-0.0539166
7.03745e-06
-0.0578004
-0.00119552
-0.00249335
-0.0616539
-8.02793e-05
0.00299885
-0.000457392
0.00675175
-0.00115522
0.0090576
-0.00212708
0.0103603
-0.00330011
0.0110132
-0.00460447
0.0112745
-0.00598702
0.0113078
-0.00741248
0.0112019
-0.00885882
0.0109982
-0.0103119
0.0107126
-0.0117616
0.0103489
-0.0131996
0.00990637
-0.0146185
0.00938291
-0.0160102
0.00877642
-0.0173655
0.00808498
-0.0186743
0.00730645
-0.0199256
0.006439
-0.0211076
0.00548135
-0.0222043
0.00443229
-0.0231885
0.00329122
-0.0240402
0.00206221
-0.0247613
0.000728202
-0.0252982
-0.00065865
-0.0023587
-0.0254329
9.75814e-05
0.00290127
0.000109916
0.00673942
-7.50682e-05
0.00924259
-0.000463644
0.0107489
-0.00100728
0.0115568
-0.00163955
0.0119068
-0.00229796
0.0119662
-0.00293277
0.0118367
-0.0035072
0.0115726
-0.00399409
0.0111995
-0.00437225
0.0107271
-0.00462362
0.0101577
-0.00473136
0.00949064
-0.0046784
0.00872347
-0.00444653
0.00785311
-0.00401572
0.00687564
-0.00336309
0.00578637
-0.00246184
0.00458009
-0.0012819
0.00325235
0.000227296
0.00178202
0.00208808
0.000201429
0.0043982
-0.00158192
0.00718455
-0.003445
-0.00559272
0.0104186
0.000238953
0.00266232
0.000591166
0.0063872
0.000886008
0.00894775
0.00106818
0.0105667
0.00115509
0.0114699
0.00120032
0.0118616
0.00126698
0.0118995
0.00141294
0.0116907
0.00168574
0.0112998
0.00212304
0.0107622
0.00275511
0.010095
0.00360768
0.00930518
0.0047044
0.00839393
0.00606896
0.00735891
0.00772682
0.00619525
0.0097067
0.00489575
0.0120422
0.00345084
0.0147787
0.00184358
0.0179353
9.58125e-05
0.0216391
-0.00192178
0.0258594
-0.0040189
0.0308871
-0.00660962
0.0363722
-0.00893012
-0.0124818
0.0432613
0.00032792
0.0023344
0.000930326
0.0057848
0.00161103
0.00826704
0.00228309
0.00989468
0.00293443
0.0108186
0.00359874
0.0111973
0.00433005
0.0111682
0.00518561
0.0108351
0.0062173
0.0102681
0.0074691
0.00951037
0.00897819
0.0085859
0.0107776
0.00750578
0.0128993
0.00627224
0.0153774
0.00488076
0.0182523
0.00332036
0.0215718
0.00157631
0.0253856
-0.000363028
0.0297991
-0.00256984
0.0348673
-0.00497247
0.0407592
-0.00781364
0.0473513
-0.010611
0.055232
-0.0144902
0.0636052
-0.0173033
-0.0229206
0.074044
0.000358631
0.00197576
0.00109395
0.00504948
0.00202154
0.00733945
0.00304395
0.00887227
0.00412878
0.00973377
0.00528933
0.0100367
0.0065649
0.00989265
0.00800517
0.00939488
0.0096608
0.00861249
0.01158
0.00759118
0.013809
0.00635685
0.0163957
0.00491911
0.0193939
0.0032741
0.0228661
0.00140849
0.0268918
-0.000705287
0.0315839
-0.00311583
0.037051
-0.0058301
0.0434268
-0.00894571
0.0507903
-0.0123359
0.0594268
-0.0164502
0.069115
-0.0202992
0.0805748
-0.02595
0.092743
-0.0294716
-0.0375358
0.107358
0.000334349
0.00164142
0.00107999
0.00430384
0.00209398
0.00632546
0.003291
0.00767526
0.0046327
0.00839207
0.00611908
0.00855033
0.00777694
0.00823478
0.00964947
0.00752235
0.0117899
0.00647208
0.0142598
0.00512129
0.0171311
0.00348553
0.0204916
0.00155859
0.024447
-0.000681233
0.0291396
-0.00328414
0.0347125
-0.00627818
0.0413197
-0.00972305
0.0491217
-0.0136321
0.0582756
-0.0180997
0.0688658
-0.022926
0.0810111
-0.0285955
0.0946047
-0.0338929
0.10979
-0.0411354
0.126031
-0.0457129
-0.055391
0.143887
0.000264804
0.00137661
0.000913341
0.0036553
0.00186436
0.00537443
0.00306382
0.0064758
0.00448481
0.00697108
0.00612937
0.00690576
0.00802686
0.00633729
0.0102316
0.00531765
0.0128224
0.00388128
0.0159055
0.00203814
0.0196077
-0.000216657
0.0241082
-0.00294192
0.0295836
-0.00615658
0.0362162
-0.00991677
0.0441875
-0.0142494
0.053641
-0.0191766
0.0646613
-0.0246523
0.0772613
-0.0306997
0.0914108
-0.0370755
0.106861
-0.0440454
0.123654
-0.0506862
0.140979
-0.0584601
0.159371
-0.0641054
-0.0732757
0.177256
0.000165383
0.00121123
0.000644929
0.00317576
0.00143147
0.00458789
0.00251803
0.00538924
0.00391006
0.00557905
0.00563796
0.00517786
0.00776563
0.00420963
0.0103962
0.00268703
0.0136717
0.000605799
0.0177817
-0.00207183
0.0229432
-0.00537815
0.0293585
-0.00935719
0.0372281
-0.0140263
0.0466879
-0.0193765
0.0577908
-0.0253524
0.0704974
-0.0318833
0.0846502
-0.0388051
0.10001
-0.0460598
0.116263
-0.053328
0.132951
-0.0607339
0.149925
-0.0676599
0.166254
-0.0747894
0.182697
-0.0805478
-0.0872582
0.196679
5.86105e-05
0.000352883
0.00095824
0.00193016
0.00333364
0.005264
0.00786119
0.0113142
0.0158539
0.0217163
0.0291181
0.0382009
0.0490022
0.061431
0.0752666
0.0901706
0.105723
0.12144
0.136835
0.151441
0.164859
0.176814
0.187443
0.196952
-0.113762
-0.0262306
0.0319129
-0.118635
-0.0300382
0.0349105
-0.122939
-0.0329628
0.037267
-0.126281
-0.0359691
0.0393107
-0.128646
-0.038079
0.0404443
-0.129824
-0.039706
0.0408844
-0.12973
-0.0402657
0.0401713
-0.128258
-0.0398504
0.0383789
-0.125368
-0.0380419
0.0351513
-0.121045
-0.0347659
0.030443
-0.115333
-0.0296919
0.0239804
-0.108314
-0.0226943
0.0156746
-0.100052
-0.0135649
0.00530328
-0.0909617
-0.00229212
-0.00679826
-0.0808404
0.0107584
-0.0208796
-0.0699567
0.0258772
-0.0367609
-0.0583246
0.0420643
-0.0536964
-0.0461908
0.057879
-0.0700127
-0.0341359
0.0714594
-0.0835144
-0.0226143
0.0810647
-0.0925863
-0.0118561
0.084649
-0.0954072
-0.000980709
0.0812363
-0.0921117
0.0116846
0.0697493
-0.0824146
0.0273005
0.0514834
-0.0670993
0.0457444
0.0283103
-0.0467541
0.0654983
0.00472357
-0.0244774
0.0846068
-0.0162871
-0.00282143
0.101567
-0.031928
0.0149676
0.115484
-0.0421307
0.0282141
0.126183
-0.0468361
0.0361369
0.133898
-0.0479031
0.0401877
0.139082
-0.045807
0.0406234
0.142241
-0.0424027
0.0392436
0.144024
-0.0375356
0.0357523
0.145198
-0.0326308
0.0314575
0.146557
-0.0264876
0.0251279
0.148648
-0.0203255
0.018235
0.151617
-0.0125627
0.00959392
0.155203
-0.0053232
0.0017366
0.158941
0.00269703
-0.00643477
0.16241
0.00867715
-0.0121458
0.165319
0.014462
-0.0173717
0.167583
0.0173953
-0.0196589
0.169244
0.0201971
-0.0218578
0.170439
0.0201545
-0.0213498
0.171313
0.0206867
-0.0215611
0.172001
0.0186496
-0.019337
0.172569
0.018246
-0.0188142
0.173052
0.0157398
-0.0162231
0.173481
0.0156881
-0.0161171
0.17391
0.013617
-0.0140462
0.174381
0.0144771
-0.0149477
0.174909
0.0131763
-0.0137042
0.17544
0.0151915
-0.0157228
0.175918
0.0146243
-0.0151016
0.176256
0.0174502
-0.0177884
0.176443
0.0172764
-0.0174637
0.176425
0.0206789
-0.0206609
0.176284
0.0208678
-0.0207263
0.0249578
-0.0246082
-0.0987432
-0.0194154
-0.105018
-0.0237632
-0.110944
-0.0270374
-0.116384
-0.030529
-0.121146
-0.0333169
-0.125132
-0.0357201
-0.128114
-0.0372838
-0.129985
-0.0379793
-0.130548
-0.037479
-0.129694
-0.0356193
-0.127291
-0.0320952
-0.123284
-0.0267013
-0.117626
-0.019223
-0.110259
-0.00965848
-0.101445
0.0019443
-0.0911623
0.0155941
-0.0795425
0.0304444
-0.0667998
0.0451363
-0.0531513
0.057811
-0.0386305
0.0665438
-0.0230248
0.0690433
-0.00564202
0.0638535
0.0138984
0.0502089
0.0357071
0.0296747
0.0585865
0.00543092
0.0804983
-0.0171883
0.099978
-0.0357668
0.11602
-0.0479699
0.128391
-0.0545013
0.137453
-0.0558987
0.143789
-0.054239
0.148008
-0.0500257
0.150555
-0.0449497
0.151788
-0.0387688
0.152095
-0.0329383
0.152039
-0.0264312
0.15223
-0.0205169
0.153139
-0.0134709
0.154888
-0.00707264
0.157255
0.000329973
0.159915
0.00601764
0.162508
0.0118687
0.164813
0.01509
0.166738
0.0182719
0.168305
0.0185882
0.169576
0.0194149
0.170632
0.0175937
0.171508
0.0173706
0.172225
0.0150225
0.172819
0.0150941
0.173363
0.0130726
0.173922
0.0139186
0.17453
0.0125687
0.175139
0.0145817
0.175695
0.0140686
0.176104
0.0170412
0.176354
0.0170262
0.176385
0.0206477
0.176286
0.0209667
0.025278
-0.0683813
-0.012688
-0.0748891
-0.0172554
-0.0812214
-0.0207051
-0.0874476
-0.0243027
-0.0933059
-0.0274586
-0.0987789
-0.0302472
-0.103653
-0.0324101
-0.107801
-0.0338305
-0.110996
-0.0342843
-0.113047
-0.0335687
-0.113716
-0.0314259
-0.112796
-0.0276216
-0.110074
-0.0219446
-0.105408
-0.0143245
-0.0985477
-0.00491607
-0.0894796
0.00652604
-0.0782627
0.0192275
-0.0649344
0.0318081
-0.0495767
0.0424532
-0.0322608
0.0492279
-0.0129184
0.049701
0.00823229
0.0427027
0.0309343
0.0275068
0.0546324
0.00597665
0.0774331
-0.0173698
0.0981532
-0.0379084
0.115418
-0.0530312
0.128827
-0.0613791
0.138652
-0.0643267
0.145538
-0.0627843
0.150226
-0.0589272
0.153391
-0.0531903
0.155492
-0.0470515
0.156774
-0.0400506
0.157335
-0.0334995
0.157329
-0.0264249
0.157069
-0.0202568
0.156985
-0.0133868
0.157425
-0.00751315
0.158481
-0.000725545
0.16007
0.00442833
0.161956
0.0099835
0.163907
0.0131387
0.165756
0.0164225
0.167422
0.0169228
0.168875
0.0179616
0.170123
0.0163452
0.171159
0.016335
0.171985
0.0141963
0.172635
0.0144443
0.173195
0.0125129
0.173746
0.0133673
0.174344
0.0119708
0.174953
0.0139723
0.175525
0.0134972
0.175962
0.0166035
0.176253
0.0167353
0.17633
0.0205706
0.176283
0.0210142
0.0255464
-0.0310962
-0.0070247
-0.036951
-0.0114006
-0.0428249
-0.0148312
-0.0487322
-0.0183954
-0.0545204
-0.0216704
-0.060136
-0.0246316
-0.0654348
-0.0271112
-0.0702863
-0.028979
-0.0745031
-0.0300675
-0.0778776
-0.0301942
-0.0801601
-0.0291434
-0.0810818
-0.0266999
-0.0803533
-0.0226731
-0.0777011
-0.0169767
-0.0729745
-0.0096426
-0.0653
-0.00114846
-0.0550795
0.00900699
-0.0421386
0.0188672
-0.0264652
0.0267799
-0.00832258
0.0310853
0.0115094
0.0298691
0.0327642
0.021448
0.0550645
0.00520644
0.076894
-0.0158528
0.0973238
-0.0377997
0.114883
-0.0554674
0.128701
-0.0668492
0.13881
-0.0714882
0.145816
-0.0713329
0.150525
-0.0674932
0.153663
-0.0620647
0.155825
-0.0553524
0.157415
-0.0486419
0.15866
-0.0412952
0.159608
-0.0344474
0.160214
-0.0270314
0.160489
-0.0205312
0.160582
-0.0134803
0.160755
-0.0076861
0.161228
-0.00119861
0.162096
0.00355998
0.163331
0.00874936
0.164802
0.0116669
0.166362
0.0148632
0.167885
0.0153997
0.169283
0.0165634
0.17051
0.0151178
0.171525
0.0153203
0.172314
0.013407
0.172904
0.0138549
0.173382
0.0120344
0.17384
0.0129093
0.174348
0.0114625
0.174886
0.0134351
0.175414
0.0129688
0.175839
0.0161785
0.176147
0.016427
0.176265
0.020453
0.176276
0.0210033
0.0257421
0.00641563
-0.00302175
0.0014661
-0.00645107
-0.0033915
-0.00997358
-0.00846793
-0.013319
-0.0135692
-0.0165691
-0.0186206
-0.0195802
-0.0235093
-0.0222225
-0.028106
-0.0243822
-0.0322482
-0.0259253
-0.0357428
-0.0266996
-0.0383585
-0.0265277
-0.0398372
-0.0252212
-0.0398987
-0.0226115
-0.0382408
-0.0186346
-0.0345438
-0.0133396
-0.0287624
-0.00692986
-0.0195789
-0.000176528
-0.007863
0.00715128
0.00658509
0.0123318
0.0232592
0.0144111
0.0414714
0.0116569
0.0608499
0.00206936
0.0801689
-0.0141125
0.0989164
-0.0346003
0.11558
-0.0544635
0.129065
-0.0689517
0.138956
-0.0767409
0.145674
-0.0782059
0.150023
-0.0756822
0.152859
-0.0703292
0.154773
-0.0639789
0.156197
-0.0567762
0.157389
-0.0498332
0.158505
-0.0424121
0.159612
-0.0355536
0.160668
-0.0280881
0.161591
-0.0214542
0.162331
-0.0142198
0.162952
-0.00830748
0.163589
-0.00183507
0.16435
0.00279897
0.165322
0.00777707
0.16649
0.010499
0.167774
0.013579
0.169072
0.0141015
0.170287
0.0153486
0.171359
0.0140461
0.172236
0.0144431
0.172901
0.012742
0.17337
0.0133862
0.173725
0.0116795
0.174054
0.01258
0.174438
0.0110782
0.174869
0.0130043
0.175324
0.0125143
0.175713
0.0157887
0.176027
0.0161133
0.176186
0.0202938
0.176265
0.0209244
0.0258434
0.0403437
-0.000104122
0.037178
-0.00328544
0.0335218
-0.00631732
0.0295599
-0.00935714
0.0253934
-0.0124026
0.0211427
-0.0153295
0.0169146
-0.0179944
0.0128386
-0.0203063
0.00907526
-0.022162
0.00581249
-0.0234369
0.00328032
-0.0239955
0.00175303
-0.023694
0.0015332
-0.0223917
0.00288479
-0.0199862
0.00601871
-0.0164735
0.0111185
-0.0120296
0.0181794
-0.00723741
0.0282438
-0.00291318
0.0408367
-0.000261136
0.0553618
-0.000113974
0.071075
-0.00405626
0.0872489
-0.0141045
0.103467
-0.030331
0.118389
-0.0495216
0.130735
-0.0668099
0.139837
-0.0780533
0.145846
-0.0827499
0.149504
-0.081864
0.151674
-0.077852
0.153105
-0.0717601
0.154196
-0.0650703
0.155176
-0.0577563
0.156157
-0.0508139
0.157196
-0.0434513
0.158335
-0.0366931
0.159577
-0.02933
0.160874
-0.0227511
0.162138
-0.0154832
0.163322
-0.0094914
0.164437
-0.00295078
0.165501
0.00173555
0.166593
0.00668472
0.167741
0.00935069
0.168921
0.0123992
0.170073
0.0129498
0.171124
0.0142973
0.172035
0.0131352
0.172769
0.013709
0.173317
0.0121945
0.173685
0.0130176
0.173945
0.0114195
0.174174
0.0123509
0.174457
0.0107957
0.174795
0.0126657
0.175184
0.012126
0.175544
0.0154281
0.175871
0.015787
0.176084
0.0200806
0.176247
0.0207613
0.0258266
0.0717712
0.00216868
0.0692428
-0.000757051
0.0664826
-0.00355712
0.0634491
-0.00632366
0.0602514
-0.00920484
0.0569745
-0.0120526
0.0536777
-0.0146976
0.0504487
-0.0170773
0.0474089
-0.0191221
0.0447044
-0.0207324
0.0425174
-0.0218085
0.0410802
-0.0222568
0.0406545
-0.021966
0.041434
-0.0207657
0.0436595
-0.018699
0.0477046
-0.0160748
0.053773
-0.0133057
0.0619359
-0.0110761
0.0720901
-0.0104154
0.0839466
-0.0119704
0.0970587
-0.0171684
0.110496
-0.0275422
0.123258
-0.0430928
0.134076
-0.0603392
0.141958
-0.0746919
0.146843
-0.0829388
0.149435
-0.0853417
0.150665
-0.0830936
0.151281
-0.0784684
0.15179
-0.0722691
0.152416
-0.0656964
0.153182
-0.0585228
0.154098
-0.051729
0.155143
-0.0444971
0.156319
-0.0378692
0.157633
-0.0306434
0.159079
-0.0241973
0.160606
-0.0170107
0.162158
-0.011043
0.163688
-0.00448123
0.165133
0.000290663
0.166508
0.00531021
0.167824
0.0080348
0.169069
0.0111538
0.170212
0.0118074
0.171206
0.0133032
0.172042
0.0122986
0.172711
0.0130402
0.173218
0.0116877
0.173565
0.0126702
0.173809
0.0111755
0.174013
0.0121474
0.174259
0.0105499
0.174559
0.0123658
0.174922
0.0117622
0.175287
0.0150639
0.175652
0.015422
0.175943
0.019789
0.176214
0.0204909
0.025665
0.104628
0.00489845
0.101936
0.00193503
0.0991428
-0.000763557
0.0961579
-0.00333878
0.0930999
-0.00614687
0.0900628
-0.00901552
0.0870885
-0.0117233
0.0842326
-0.0142214
0.0815694
-0.0164589
0.0791916
-0.0183545
0.0772152
-0.0198321
0.0757814
-0.0208229
0.0750924
-0.0212769
0.0753708
-0.0210441
0.0769576
-0.0202858
0.0800701
-0.0191873
0.0848159
-0.0180516
0.0912799
-0.0175401
0.0993962
-0.0185317
0.108878
-0.0214523
0.119242
-0.027532
0.1296
-0.0379005
0.138678
-0.0521706
0.145258
-0.066919
0.148884
-0.0783184
0.150145
-0.0841994
0.150096
-0.0852924
0.149655
-0.0826527
0.149318
-0.0781318
0.149312
-0.0722628
0.149709
-0.0660935
0.150403
-0.0592171
0.151327
-0.0526532
0.152431
-0.0456009
0.153684
-0.0391217
0.155073
-0.0320323
0.156602
-0.0257265
0.158249
-0.018658
0.159984
-0.0127773
0.161753
-0.00625087
0.163484
-0.00143993
0.165116
0.00367809
0.166645
0.006506
0.16804
0.00975838
0.169276
0.0105711
0.170322
0.0122577
0.171191
0.0114299
0.171895
0.0123357
0.172458
0.0111252
0.172878
0.01225
0.173198
0.0108554
0.173464
0.0118809
0.173755
0.0102589
0.174089
0.0120326
0.174488
0.0113629
0.174905
0.0146467
0.175349
0.0149787
0.175753
0.0193849
0.17616
0.0200832
0.0253297
0.14061
0.00817531
0.137383
0.00516185
0.133876
0.00274366
0.130463
7.4173e-05
0.126994
-0.00267805
0.123515
-0.0055368
0.120117
-0.00832483
0.116883
-0.0109872
0.11388
-0.0134568
0.11119
-0.0156645
0.108906
-0.0175482
0.107125
-0.0190416
0.105984
-0.0201358
0.105686
-0.0207463
0.106399
-0.0209984
0.108385
-0.0211737
0.111765
-0.0214312
0.116512
-0.0222871
0.122495
-0.0245152
0.129488
-0.0284448
0.136967
-0.0350116
0.143924
-0.0448576
0.149064
-0.0573102
0.15155
-0.0694048
0.151567
-0.0783354
0.15015
-0.0827821
0.14839
-0.0835327
0.146989
-0.0812517
0.146168
-0.0773113
0.145928
-0.0720226
0.146215
-0.0663805
0.146908
-0.0599101
0.147875
-0.0536197
0.149051
-0.0467771
0.150399
-0.0404695
0.151889
-0.0335232
0.153517
-0.027354
0.155262
-0.0204034
0.157108
-0.0146233
0.159011
-0.00815335
0.160929
-0.00335855
0.162741
0.0018662
0.164455
0.00479221
0.166014
0.00819948
0.167392
0.00919309
0.168559
0.0110904
0.16954
0.0104491
0.170361
0.0115149
0.171057
0.0104293
0.171626
0.011681
0.172099
0.0103826
0.172506
0.0114738
0.172918
0.00984702
0.173356
0.0115945
0.173855
0.0108642
0.17438
0.0141212
0.174948
0.014411
0.175503
0.0188291
0.176082
0.0195048
0.0247899
0.173863
0.0115682
0.170382
0.00864318
0.166505
0.00662025
0.162319
0.0042601
0.158482
0.00115935
0.15472
-0.00177478
0.150922
-0.00452686
0.147226
-0.0072913
0.143707
-0.00993771
0.140455
-0.0124125
0.137565
-0.0146587
0.135134
-0.0166104
0.133273
-0.0182745
0.132152
-0.0196258
0.131893
-0.0207391
0.132581
-0.0218613
0.134336
-0.0231866
0.137163
-0.0251142
0.140853
-0.0282056
0.145157
-0.032748
0.149448
-0.0393024
0.152719
-0.0481291
0.154005
-0.0585959
0.153051
-0.068451
0.150531
-0.0758156
0.147546
-0.0797968
0.144939
-0.0809261
0.14311
-0.0794222
0.142095
-0.0762965
0.141767
-0.0716948
0.14199
-0.0666037
0.142691
-0.0606114
0.143732
-0.0546599
0.145005
-0.0480503
0.146462
-0.0419264
0.148069
-0.0351307
0.149815
-0.0290998
0.151676
-0.0222638
0.153633
-0.0165805
0.155652
-0.0101727
0.157697
-0.00540391
0.159654
-9.06671e-05
0.161527
0.0029197
0.163243
0.00648338
0.16478
0.00765597
0.166106
0.0097643
0.167248
0.00930769
0.168236
0.0105264
0.169115
0.00955031
0.169883
0.0109132
0.17056
0.009705
0.171165
0.0108693
0.171758
0.00925431
0.172362
0.0109904
0.173017
0.0102084
0.173704
0.0134343
0.174443
0.0136729
0.17519
0.0180812
0.175975
0.0187204
0.024014
0.194244
0.0140033
0.191242
0.0116458
0.187795
0.0100664
0.184114
0.00794181
0.180111
0.00516183
0.176068
0.00226875
0.172311
-0.000770344
0.168505
-0.0034856
0.164787
-0.00621882
0.161265
-0.00889111
0.158036
-0.0114297
0.155187
-0.013761
0.152799
-0.0158873
0.150986
-0.0178128
0.149851
-0.0196038
0.149431
-0.021441
0.149756
-0.0235115
0.150759
-0.0261175
0.152206
-0.0296525
0.153809
-0.0343507
0.155044
-0.0405373
0.155122
-0.048208
0.153506
-0.05698
0.150375
-0.0653196
0.146568
-0.0720085
0.142974
-0.076203
0.140115
-0.0780664
0.13817
-0.0774775
0.137103
-0.0752293
0.136767
-0.0713591
0.137014
-0.0668509
0.137736
-0.0613329
0.138857
-0.0557817
0.14026
-0.0494526
0.141859
-0.0435255
0.143611
-0.0368824
0.145499
-0.0309885
0.1475
-0.0242641
0.149591
-0.0186719
0.151744
-0.012326
0.153904
-0.00756358
0.156022
-0.00220911
0.158033
0.000909214
0.159911
0.00460556
0.161618
0.00594866
0.163125
0.00825742
0.164455
0.0079779
0.165642
0.0093395
0.166733
0.00845908
0.167729
0.00991672
0.168644
0.00879003
0.169485
0.0100286
0.170303
0.00843675
0.171121
0.0101719
0.171983
0.00934651
0.172879
0.0125381
0.173831
0.0127208
0.174811
0.0171017
0.175836
0.0176946
0.0229704
0.1961
0.0148562
0.194068
0.0136778
0.19178
0.0123538
0.189271
0.0104511
0.186383
0.00804971
0.183236
0.00541593
0.179852
0.00261351
0.176743
-0.000376302
0.173486
-0.00296172
0.170262
-0.00566754
0.167169
-0.00833667
0.164307
-0.0108986
0.161757
-0.0133379
0.159603
-0.0156588
0.157912
-0.0179121
0.156693
-0.0202225
0.155938
-0.0227566
0.155545
-0.0257245
0.155323
-0.02943
0.155002
-0.0340297
0.154228
-0.0397635
0.15249
-0.0464704
0.149489
-0.0539788
0.145422
-0.0612527
0.141214
-0.0678001
0.137517
-0.072506
0.134625
-0.0751748
0.132648
-0.0755006
0.131557
-0.074138
0.131226
-0.0710282
0.131517
-0.0671413
0.132312
-0.0621281
0.133499
-0.0569693
0.134977
-0.0509306
0.136685
-0.0452327
0.138565
-0.038763
0.140596
-0.0330193
0.142745
-0.0264136
0.144988
-0.0209141
0.147291
-0.0146291
0.149607
-0.00987939
0.151886
-0.00448849
0.154053
-0.00125757
0.156101
0.00255775
0.157996
0.00405349
0.159703
0.00655025
0.161245
0.00643582
0.162653
0.00793192
0.163978
0.00713386
0.165223
0.00867135
0.166398
0.00761471
0.167503
0.00892399
0.168579
0.00736055
0.169651
0.00910003
0.17076
0.00823721
0.171908
0.0113908
0.173114
0.0115149
0.174362
0.0158534
0.175663
0.0163932
0.0216277
0.202929
0.0153673
-0.20344
0.203062
0.013545
0.203112
0.012304
0.203019
0.0105436
0.202662
0.00840663
0.202054
0.0060243
0.201237
0.00343064
0.199946
0.0009142
0.198673
-0.00168823
0.197338
-0.00433287
0.195924
-0.00692237
0.194485
-0.00945978
0.193088
-0.0119407
0.191804
-0.014375
0.190706
-0.0168144
0.189837
-0.0193536
0.189234
-0.0221526
0.188854
-0.0253449
0.188608
-0.0291838
0.188314
-0.0337358
0.187747
-0.0391969
0.186606
-0.0453291
0.184663
-0.0520355
0.181908
-0.0584981
0.178413
-0.0643047
0.174459
-0.0685527
0.17035
-0.0710657
0.166358
-0.0715087
0.16271
-0.0704893
0.159543
-0.0678621
0.156892
-0.0644894
0.154747
-0.0599837
0.153076
-0.0552985
0.151853
-0.0497074
0.151023
-0.0444021
0.150548
-0.0382882
0.150387
-0.0328582
0.150517
-0.0265442
0.150905
-0.021302
0.151524
-0.0152481
0.152322
-0.0106767
0.153247
-0.00541424
0.154234
-0.00224392
0.155196
0.00159566
0.156105
0.00314426
0.156904
0.00575158
0.15758
0.00575921
0.15813
0.00738261
0.15858
0.00668389
0.158935
0.00831547
0.159208
0.00734247
0.159389
0.00874277
0.159497
0.00725226
0.159548
0.0090491
0.159581
0.00820413
0.159613
0.0113593
0.15967
0.0114578
0.159752
0.0157707
0.159867
0.0162784
0.0214794
0.212582
0.0154879
-0.212703
0.21243
0.0136978
0.212659
0.012075
0.212819
0.0103829
0.212758
0.00846742
0.212467
0.00631549
0.211888
0.00401025
0.21121
0.00159235
0.210472
-0.000950658
0.209543
-0.00340421
0.208515
-0.00589418
0.207432
-0.00837638
0.206347
-0.0108563
0.205307
-0.0133349
0.204359
-0.0158662
0.203519
-0.0185139
0.202796
-0.0214298
0.202141
-0.0246894
0.201464
-0.0285065
0.200618
-0.0328907
0.199423
-0.0380019
0.197687
-0.0435924
0.195239
-0.0495881
0.19208
-0.055339
0.188287
-0.0605119
0.184112
-0.0643771
0.179884
-0.0668381
0.175872