/*--------------------------------*- C++ -*----------------------------------*\
| =========                 |                                                 |
| \\      /  F ield         | OpenFOAM: The Open Source CFD Toolbox           |
|  \\    /   O peration     | Version:  2312                                  |
|   \\  /    A nd           | Website:  www.openfoam.com                      |
|    \\/     M anipulation  |                                                 |
\*---------------------------------------------------------------------------*/
FoamFile
{
    version     2.0;
    format      ascii;
    arch        "LSB;label=32;scalar=64";
    class       surfaceScalarField;
    location    "34.5";
    object      phi;
}
// * * * * * * * * * * * * * * * * * * * * * * * * * * * * * * * * * * * * * //

dimensions      [0 3 -1 0 0 0 0];

oriented        oriented;

internalField   nonuniform List<scalar> 
1810
(
0.00505411
0.0269831
-0.0320372
0.0969016
-0.0743819
-0.0174655
0.23527
-0.172613
0.0342444
0.383078
-0.268075
0.120267
0.573053
-0.353362
0.163386
-0.440463
0.304431
0.709086
0.0499789
-0.0229957
0.18714
-0.211543
0.312658
-0.298131
0.412931
-0.368348
0.488184
-0.428615
-0.477761
0.525482
0.106511
-0.129507
0.186233
-0.291264
0.225904
-0.337803
0.240051
-0.382495
0.250821
-0.439384
0.274184
-0.501124
-0.0380758
0.030272
0.00780381
-0.0804888
0.0345188
0.00789425
-0.12953
0.042474
0.00656743
-0.157677
0.0295764
-0.00142954
-0.194032
0.0432257
-0.00687118
0.00460386
-0.19293
-0.00570508
-0.00342135
0.0336933
-0.0105132
0.0416106
-0.00678238
0.0387432
0.027273
-0.00447893
0.0795197
-0.00902103
-0.0980575
0.182181
0.00165608
0.0258012
0.0987888
0.214577
0.368942
0.575315
-0.18573
0.0172648
-0.0244649
-0.18978
0.0253296
-0.0212799
-0.175572
0.00429646
-0.0185049
-0.154016
-0.0271931
0.00563748
-0.12373
-0.110788
0.080502
-0.0689857
-0.0450737
-0.00967058
0.0165597
0.177429
-0.262974
0.21551
0.209158
-0.408108
0.464839
-0.0639568
-0.185372
0.621764
-0.296411
0.139486
0.691487
-0.39236
0.322637
0.723033
-0.324142
0.292596
0.735756
-0.285913
0.273189
0.731933
-0.195919
0.199743
0.714207
-0.213331
0.231057
-0.125043
0.140197
0.150413
0.0490324
0.13973
0.0360126
0.124142
0.019885
0.115102
-0.0181535
0.11541
-0.111096
0.142294
-0.0719572
0.260574
0.0591496
0.459428
0.0103033
0.613442
-0.217971
0.654833
-0.337802
0.644562
-0.382088
0.65363
-0.333211
0.685911
-0.318194
0.718735
-0.228743
0.725334
-0.21993
-0.118906
0.548275
0.0760728
0.52047
0.0638175
0.496395
0.0439602
0.470328
0.00791289
0.447173
-0.0879413
0.444198
-0.0689822
0.512613
-0.00926461
0.606291
-0.0833751
0.627965
-0.239645
0.591559
-0.301396
0.562761
-0.353291
0.563298
-0.333748
0.587527
-0.342422
0.626791
-0.268007
0.666833
-0.259972
-0.146904
0.687373
0.0904078
-0.701708
0.676631
0.0745597
0.671334
0.0492568
0.659016
0.0202311
0.63215
-0.061075
0.612409
-0.0492417
0.634322
-0.0311777
0.646427
-0.0954795
0.611407
-0.204625
0.57254
-0.262529
0.553351
-0.334101
0.547945
-0.328342
0.545575
-0.340052
0.545858
-0.268291
0.550257
-0.264371
-0.151085
0.845346
0.0868171
-0.841755
0.84512
0.0747849
0.843202
0.0511756
0.833524
0.0299091
0.799666
-0.027217
0.787698
-0.0372744
0.796267
-0.0397466
0.778156
-0.0773683
0.74248
-0.168949
0.710882
-0.230932
0.68585
-0.309069
0.677227
-0.31972
0.680609
-0.343433
0.68834
-0.276022
0.693027
-0.269058
-0.153642
1.02482
0.0773205
-1.01533
1.0296
0.0700114
1.03081
0.0499655
1.02571
0.0350073
0.99719
0.00130158
0.978998
-0.0190821
0.973335
-0.0340844
0.957279
-0.0613121
0.930171
-0.14184
0.899109
-0.19987
0.870142
-0.280101
0.850094
-0.299672
0.840641
-0.33398
0.843536
-0.278917
0.852687
-0.278208
-0.160435
1.24821
0.0683722
-1.23926
1.25183
0.0663879
1.24959
0.0522085
1.24176
0.0428335
1.22688
0.0161805
1.20877
-0.000969568
1.19778
-0.0230893
1.18221
-0.0457459
1.1529
-0.112532
1.11858
-0.165543
1.08946
-0.250981
1.07522
-0.285438
1.07071
-0.329473
1.07294
-0.281147
1.07619
-0.281454
-0.164351
1.52646
0.0562132
-1.5143
1.53636
0.0564934
1.54018
0.0483832
1.54014
0.0428761
1.52912
0.0272003
1.5102
0.0179525
1.49511
-0.00800715
1.47489
-0.0255254
1.44741
-0.0850483
1.41805
-0.136179
1.38514
-0.218077
1.35913
-0.25943
1.34518
-0.315522
1.34293
-0.27889
1.3437
-0.282231
-0.165605
1.86869
0.045101
-1.85757
1.87634
0.0488373
1.88031
0.0444136
1.87891
0.0442835
1.87374
0.0323684
1.86358
0.0281133
1.85033
0.00523923
1.83397
-0.0091653
1.80585
-0.0569325
1.77089
-0.101219
1.73884
-0.186025
1.71782
-0.238411
1.70186
-0.299558
1.6959
-0.272935
1.69214
-0.278468
-0.166581
2.31455
0.0339093
-2.30335
2.32533
0.0380544
2.33399
0.0357563
2.34003
0.0382365
2.34152
0.0308784
2.33745
0.0321859
2.32682
0.0158678
2.31024
0.00741955
2.2858
-0.0324937
2.25562
-0.0710391
2.2174
-0.147803
2.18303
-0.204042
2.15483
-0.271357
2.13858
-0.25669
2.12336
-0.263248
-0.156591
2.90415
0.0239798
-2.89422
2.91394
0.0282579
2.92256
0.0271423
2.92916
0.0316309
2.933
0.0270357
2.93394
0.0312507
2.92935
0.0204571
2.92019
0.0165779
2.89791
-0.0102106
2.86559
-0.0387224
2.82291
-0.105121
2.78628
-0.167408
2.74964
-0.234725
2.72306
-0.230105
2.69388
-0.234072
-0.140712
3.65628
0.0125733
-3.64487
3.6688
0.0157343
3.68078
0.015168
3.69338
0.0190283
3.70336
0.0170527
3.71272
0.021896
3.71589
0.0172845
3.71419
0.0182807
3.69894
0.00503613
3.67031
-0.0100896
3.61776
-0.0525736
3.55987
-0.109512
3.49653
-0.171385
3.44274
-0.176316
3.38477
-0.176103
-0.101858
4.95582
-4.94324
4.97155
4.98672
5.00575
5.0228
5.0447
5.06198
5.08026
5.0853
5.07521
5.02263
4.91312
4.74174
4.56542
4.38932
0.606967
0.255239
-0.588022
0.663146
0.469303
0.670524
0.755987
0.238523
-0.739271
0.792508
0.432782
0.621277
0.934111
0.215291
-0.910879
0.967829
0.399064
0.573779
1.14887
0.187344
-1.12092
1.18893
0.359001
0.52345
1.41329
0.159103
-1.38505
1.45687
0.31542
0.466016
1.74933
0.131754
-1.72198
1.79402
0.270732
0.402461
2.18058
0.103671
-2.1525
2.23145
0.219856
0.330562
2.75523
0.0746387
-2.7262
2.81202
0.163071
0.248363
3.4677
0.0410574
-3.43412
3.53882
0.0919543
0.142304
4.70898
-4.66793
4.80094
0.259306
0.452843
-0.39685
-0.315299
0.179083
0.411957
-0.331733
0.113279
0.350049
-0.284245
0.0637442
0.320981
-0.271447
0.0199581
0.299047
-0.255261
0.231804
-0.211846
0.0724937
0.500732
-0.120384
0.0378567
0.446594
0.00182691
0.386079
-0.0150546
0.337863
-0.0267361
0.310728
0.205068
-0.10588
0.105488
-0.0986701
-0.0950858
-0.0950258
-0.0755614
0.491741
0.151468
-0.624336
-0.0188731
0.373212
0.13638
-0.0178515
0.259922
0.127944
-0.0146544
0.161521
0.112022
-0.0136207
0.0716592
0.104135
-0.0142736
0.0848508
-0.0131916
0.450546
0.277165
-0.576243
0.355018
0.231908
0.262247
0.220715
0.165967
0.208303
0.0790248
0.191078
0.163876
0.338653
-0.458338
0.238828
0.175298
0.112154
0.0479708
0.714357
0.562317
-0.580315
0.695472
0.373224
-0.35434
0.724701
0.270143
-0.299372
0.72283
0.176263
-0.174392
0.736673
0.110158
-0.124001
0.716566
0.0894935
-0.0693866
0.708499
0.0580182
-0.0499505
0.680325
0.0651175
-0.0369443
0.658266
0.0496689
-0.02761
0.0575956
-0.023665
0.705445
0.553231
0.668888
0.409781
0.685719
0.253312
0.679745
0.182238
0.686038
0.103864
0.672339
0.103193
0.663155
0.0672019
0.637274
0.0909987
0.613246
0.0736966
0.0945985
0.660621
0.588968
0.631859
0.438543
0.616056
0.269115
0.608058
0.190236
0.602347
0.109575
0.575488
0.130051
0.555085
0.0876054
0.520022
0.126062
0.492694
0.101024
0.128955
0.54697
0.594657
0.537933
0.447581
0.55325
0.253798
0.548467
0.19502
0.56108
0.096962
0.546058
0.145073
0.539416
0.0942482
0.529663
0.135815
0.530375
0.100311
0.120081
0.539248
0.688576
0.592134
0.662201
0.473955
0.689748
0.226252
0.682837
0.20193
0.691061
0.088738
0.685055
0.151079
0.677666
0.101637
0.682429
0.131051
0.680204
0.102537
0.108636
0.69165
0.864036
0.579741
0.847487
0.490503
0.860695
0.213044
0.853959
0.208665
0.849004
0.0936936
0.851379
0.148704
0.85355
0.0994656
0.864062
0.12054
0.870532
0.0960659
0.0974298
0.881738
1.0717
0.565237
1.07892
0.483289
1.0802
0.211765
1.07173
0.217129
1.05994
0.105491
1.0638
0.144837
1.07017
0.093101
1.08225
0.108452
1.09534
0.0829818
0.0832428
1.10953
1.32658
0.55103
1.3507
0.459166
1.34633
0.216137
1.34858
0.214874
1.33723
0.116849
1.34611
0.13595
1.34979
0.0894239
1.36323
0.0950158
1.37545
0.0707618
0.0681728
1.39052
1.64434
0.535822
1.67993
0.423575
1.67814
0.217932
1.69159
0.201419
1.68884
0.119602
1.70273
0.122061
1.70923
0.0829211
1.7229
0.0813434
1.73426
0.0594019
0.0547648
1.74767
2.04508
0.513094
2.09614
0.372515
2.10324
0.210827
2.12874
0.175919
2.13584
0.112506
2.15524
0.102661
2.16691
0.0712468
2.1831
0.0651549
2.19524
0.0472634
0.041762
2.20824
2.56246
0.461114
2.6311
0.303871
2.66148
0.180447
2.69882
0.138574
2.72233
0.0889966
2.74775
0.0772418
2.76642
0.0525836
2.78422
0.0473554
2.79799
0.0334868
0.0292616
2.81049
3.21432
0.363213
3.30283
0.215368
3.35546
0.127812
3.4067
0.0873317
3.44173
0.0539681
3.47524
0.0437344
3.49904
0.0287781
3.52057
0.0258335
3.53654
0.0175088
0.0154113
3.55039
4.23183
4.4472
4.57501
4.66234
4.71631
4.76004
4.78882
4.81466
4.83216
4.84758
0.538154
-0.314205
0.562885
-0.145114
0.0803499
0.704408
-0.326963
0.713926
-0.154631
0.0550046
0.887552
-0.332777
0.888555
-0.155635
0.0326809
1.10354
-0.326792
1.10452
-0.156609
0.0162746
1.37303
-0.309306
1.37158
-0.15516
0.0028123
1.71982
-0.281454
1.71182
-0.147159
-0.00735068
2.16731
-0.240521
2.14896
-0.128809
-0.0108875
2.75305
-0.18308
2.72432
-0.100079
-0.0127667
3.47625
-0.108931
3.43703
-0.0608663
-0.00985027
4.73864
4.67778
0.0152224
0.0218383
-0.0370606
-0.0671527
0.0823751
0.103776
-0.170929
-0.136898
0.143846
0.0148901
-0.258297
0.203774
0.147658
-0.302179
-0.234893
0.290858
0.0878812
-0.3261
0.294981
0.159486
-0.337928
-0.327471
0.426959
0.19137
-0.388291
0.355802
0.165815
-0.394621
-0.410308
0.57711
0.260157
-0.4353
0.380794
0.173766
-0.443251
-0.466739
0.387418
0.656431
-0.476881
0.390937
0.195556
-0.498671
0.0425036
-0.0346998
0.039575
0.00292867
0.00251432
0.0451733
-0.0719788
0.038446
0.00965597
0.0558504
0.0482723
-0.113684
0.0195705
0.0383577
0.163302
0.0179992
-0.133112
-0.0494975
0.105854
0.305174
0.0147585
-0.154742
-0.0789594
0.199572
0.486372
-0.0317649
-0.128682
-0.192628
0.360435
0.681162
-0.0276208
-0.125526
-0.00800943
0.340824
0.666377
0.00677611
-0.0199771
-0.126829
-0.0181093
0.338956
0.657538
-0.00927101
-0.0284603
-0.116874
-0.0240691
0.334565
0.646103
-0.0126342
-0.0272564
-0.0839798
-0.0495852
0.356893
0.6455
-0.0489819
0.0090791
-0.0125569
-0.0341776
0.40015
0.65948
-0.0481577
-0.0789882
0.0567607
-0.129072
0.450234
0.650933
-0.120525
-0.269322
0.0631084
-0.283131
0.464043
0.638667
-0.270865
-0.462871
0.117872
-0.379053
0.380224
0.632128
-0.372514
-0.333541
0.266041
-0.242361
0.289044
0.561746
-0.171979
-0.0363684
0.441895
-0.0786595
0.331335
0.479389
0.00369752
0.213737
0.550796
0.129376
0.415696
0.477651
0.131114
0.248841
0.594551
0.172146
0.49239
0.534901
0.114896
0.248821
0.618919
0.185398
0.555814
0.593049
0.12725
0.184277
0.634385
0.136842
0.603249
0.63433
0.0955616
0.213012
0.652431
0.174797
0.641464
0.661323
0.147804
0.130379
0.109262
0.0898902
0.0155831
0.701278
-0.710085
0.0161039
0.818403
-0.818923
0.010678
0.985772
-0.980346
0.00483165
1.1844
-1.17855
-0.00204006
1.42244
-1.41557
-0.00657755
1.70558
-1.70104
-0.00933389
2.03701
-2.03425
-0.00843855
2.40934
-2.41023
-0.00443253
2.86569
-2.8697
2.83577
-2.8402
-0.00426328
0.69627
-0.00434161
0.818481
-0.00435652
0.985787
-0.00575397
1.1858
-0.00952443
1.42621
-0.0119468
1.708
-0.0130497
2.03811
-0.00996309
2.40625
-0.0036373
2.85937
2.83213
-0.0124905
0.696126
-0.0165495
0.82254
-0.0182515
0.987489
-0.0192378
1.18678
-0.0177741
1.42474
-0.0158305
1.70606
-0.0134716
2.03575
-0.00773162
2.40051
0.00124835
2.85039
2.83338
-0.0458185
0.692963
-0.0464646
0.823186
-0.0441818
0.985206
-0.0388709
1.18147
-0.0321969
1.41807
-0.025762
1.69962
-0.0197748
2.02977
-0.00983307
2.39057
0.00305092
2.8375
2.83643
-0.0578306
0.702636
-0.060806
0.826161
-0.0591067
0.983507
-0.0481403
1.1705
-0.038009
1.40794
-0.0272992
1.68892
-0.0166817
2.01915
-0.00197259
2.37586
0.0144893
2.82104
2.85092
-0.124212
0.706323
-0.111479
0.813429
-0.0899811
0.962009
-0.0723917
1.15292
-0.0546237
1.39017
-0.0375847
1.67188
-0.0214504
2.00302
-0.00181039
2.35622
0.0178397
2.80139
2.86876
-0.215091
0.650549
-0.164661
0.762999
-0.12061
0.917957
-0.0847495
1.11706
-0.0563174
1.36174
-0.0295072
1.64507
-0.00744203
1.98095
0.0167153
2.33206
0.0377612
2.78034
2.90652
-0.291837
0.569872
-0.206569
0.677731
-0.151786
0.863175
-0.0999705
1.06524
-0.0647658
1.32653
-0.0298104
1.61011
-0.00297881
1.95412
0.023988
2.30509
0.0433772
2.76096
2.9499
-0.142115
0.540008
-0.111343
0.646959
-0.082888
0.834719
-0.0517721
1.03412
-0.0216189
1.29638
0.0103888
1.5781
0.0384852
1.92602
0.0620698
2.28151
0.0746674
2.74836
3.02457
0.0250672
0.518638
0.00275184
0.669275
0.00144838
0.836023
0.00265716
1.03291
0.0214862
1.27755
0.0406952
1.55889
0.0619559
1.90476
0.0757442
2.26772
0.0759948
2.74811
3.10056
0.129046
0.520706
0.109799
0.688522
0.0984249
0.847397
0.0946812
1.03666
0.101966
1.27027
0.110723
1.55014
0.121133
1.89435
0.11884
2.27001
0.105459
2.76149
3.20602
0.102117
0.533485
0.103249
0.68739
0.109321
0.841325
0.113971
1.03201
0.121353
1.26289
0.125932
1.54556
0.12936
1.89092
0.118466
2.28091
0.0945896
2.78536
3.30061
0.120057
0.540678
0.130293
0.677154
0.141456
0.830161
0.15088
1.02258
0.156551
1.25721
0.157784
1.54432
0.154191
1.89452
0.13211
2.30299
0.0959545
2.82152
3.39657
0.096513
0.539726
0.105706
0.66796
0.113899
0.821969
0.120696
1.01579
0.125153
1.25276
0.125124
1.54435
0.121157
1.89848
0.102752
2.32139
0.0725276
2.85174
3.46909
0.148104
0.539426
0.149426
0.666638
0.149276
0.822118
0.147129
1.01794
0.144691
1.2552
0.136801
1.55224
0.12726
1.90802
0.101632
2.34702
0.0687781
2.8846
3.53787
0.0877602
0.0850861
0.0805984
0.0762187
0.0699451
0.0646659
0.0557769
0.0447896
0.0285142
0.182235
0.607463
-0.594143
0.153998
0.743667
-0.715429
0.12502
0.899596
-0.870618
0.09797
1.08967
-1.06262
0.0759898
1.31948
-1.2975
0.0555385
1.59607
-1.57562
0.0366009
1.92377
-1.90483
0.0206932
2.28668
-2.27077
0.00429977
2.73025
-2.71385
2.71489
-2.71059
0.357187
0.641213
0.335935
0.764919
0.306044
0.929486
0.26844
1.12727
0.229473
1.35845
0.188239
1.6373
0.145167
1.96684
0.0981953
2.33365
0.0449619
2.78348
2.75985
0.587559
0.533554
0.482694
0.431413
0.374299
0.31056
0.243148
0.166568
0.0803502
0.40551
0.283075
-0.334638
-0.353947
0.474181
0.141479
-0.21015
-0.0334583
0.00896792
0.379597
0.221914
-0.318436
0.428514
0.0925624
-0.0481954
0.344427
0.147839
-0.270353
0.385799
0.0511911
-0.0570176
0.303275
0.0808828
-0.236318
0.337099
0.0173662
-0.0578457
0.281918
0.0309488
-0.231984
0.31115
-0.0118657
-0.0488747
0.231669
-0.20072
0.219803
0.111639
0.491492
-0.622004
0.236782
0.452641
-0.577783
0.38727
-0.485127
0.0982603
0.37538
0.209441
0.34146
0.278275
0.0905994
0.270126
0.176442
0.255618
0.184364
0.0872609
0.169245
0.171045
0.171834
0.119091
0.0799699
0.0750012
0.170403
0.0814004
0.0575102
0.0618096
0.14321
-0.598591
0.714635
-0.602156
0.699924
0.692378
-0.598176
-0.341303
0.701598
-0.343052
0.701673
0.694298
-0.344972
-0.331097
0.733323
-0.346051
0.716627
0.662185
-0.313938
-0.17296
0.731891
-0.163136
0.706802
0.636113
-0.137064
-0.135241
0.743132
-0.134523
0.706084
0.605601
-0.104011
-0.0454479
0.719193
-0.0171547
0.677791
0.578012
0.0104348
-0.0396824
0.708925
-0.024765
0.662873
0.557808
-0.00456098
-0.00624686
0.678228
0.0227335
0.633893
0.529713
0.0508284
-0.00552185
0.656139
0.0178099
0.610561
0.513362
0.0341605
0.0104703
0.0432481
0.0714833
-0.614152
0.568636
-0.627266
0.699166
-0.627871
0.852248
-0.620152
1.04948
-0.60646
1.29868
-0.586011
1.60868
-0.550499
1.98684
-0.48903
2.44901
-0.387639
3.01503
3.48098
-0.335359
0.559023
-0.317302
0.681109
-0.306891
0.841836
-0.302827
1.04542
-0.300303
1.29616
-0.300272
1.60865
-0.289899
1.97647
-0.267709
2.42682
-0.216152
2.96347
3.26483
-0.295899
0.540984
-0.287258
0.672468
-0.277551
0.832129
-0.262287
1.03015
-0.242374
1.27624
-0.218479
1.58476
-0.193894
1.95188
-0.161688
2.39461
-0.117053
2.91884
3.14777
-0.109179
0.513099
-0.0852382
0.648528
-0.0816558
0.828547
-0.0865143
1.03501
-0.0969754
1.2867
-0.103957
1.59174
-0.107137
1.95506
-0.0964192
2.38389
-0.0699885
2.89241
3.07778
-0.103917
0.513005
-0.104805
0.649416
-0.0953707
0.819112
-0.0858275
1.02547
-0.0779748
1.27885
-0.0730544
1.58682
-0.0702872
1.95229
-0.0626874
2.37629
-0.0486534
2.87837
3.02913
0.0117404
0.511699
0.00199628
0.65916
-0.00771625
0.828825
-0.0160437
1.0338
-0.0243936
1.2872
-0.0344446
1.59687
-0.0417827
1.95963
-0.0421681
2.37668
-0.0354625
2.87167
2.99367
-0.00927382
0.516412
-0.0150265
0.664913
-0.0203718
0.83417
-0.0220266
1.03545
-0.0214515
1.28663
-0.0240759
1.59949
-0.0288462
1.9644
-0.0298736
2.37771
-0.0280136
2.86981
2.96566
0.0497242
0.517516
0.037771
0.676866
0.0268449
0.845096
0.0152723
1.04702
0.00219404
1.2997
-0.00863617
1.61032
-0.0179094
1.97368
-0.0217954
2.38159
-0.0217921
2.8698
2.94386
0.025015
0.526662
0.0238659
0.678015
0.019897
0.849065
0.0112517
1.05567
0.00139199
1.30956
-0.00621516
1.61793
-0.0132776
1.98074
-0.0159511
2.38427
-0.0170917
2.87094
2.92677
0.0619707
0.536174
0.0474647
0.692521
0.0368597
0.85967
0.0242036
1.06832
0.0106042
1.32316
-0.000158863
1.62869
-0.00863439
1.98921
-0.0121021
2.38773
-0.013435
2.87228
2.91334
-0.374725
0.556953
-0.382078
0.699873
-0.378902
0.856494
-0.368008
1.05743
-0.344739
1.29989
-0.30793
1.59189
-0.256032
1.93732
-0.190455
2.32216
-0.103321
2.78514
2.81002
-0.225169
0.571971
-0.219708
0.694413
-0.218784
0.85557
-0.217276
1.05592
-0.209468
1.29209
-0.192481
1.5749
-0.164056
1.90889
-0.123965
2.28207
-0.0691954
2.73037
2.74082
-0.0132037
-0.0342198
-0.0492682
-0.0559616
-0.0613806
-0.0621004
-0.0580415
-0.0467481
-0.0302282
)
;

boundaryField
{
    outlet
    {
        type            calculated;
        value           nonuniform List<scalar> 
26
(
0.699052
0.719197
0.694831
0.554438
0.695584
0.859479
1.08011
1.34496
1.69312
2.11337
2.678
3.34591
4.28746
0.662249
0.662581
0.680695
0.541556
0.669312
0.826606
1.02232
1.26147
1.55752
1.91691
2.35801
2.90087
3.56639
)
;
    }
    upperWall
    {
        type            symmetryPlane;
        value           uniform 0;
    }
    lowerWall
    {
        type            symmetryPlane;
        value           uniform 0;
    }
    inlet
    {
        type            calculated;
        value           nonuniform List<scalar> 
26
(
-0.696359
-0.696359
-0.696359
-0.55266
-0.686053
-0.851642
-1.0572
-1.31237
-1.62913
-2.02235
-2.51048
-3.11642
-3.86862
-0.696359
-0.696359
-0.696359
-0.55266
-0.686053
-0.851642
-1.0572
-1.31237
-1.62913
-2.02235
-2.51048
-3.11642
-3.86862
)
;
    }
    cylinder
    {
        type            calculated;
        value           uniform 0;
    }
    frontAndBack
    {
        type            empty;
        value           nonuniform List<scalar> 0();
    }
}


// ************************************************************************* //
