/*--------------------------------*- C++ -*----------------------------------*\
| =========                 |                                                 |
| \\      /  F ield         | OpenFOAM: The Open Source CFD Toolbox           |
|  \\    /   O peration     | Version:  2312                                  |
|   \\  /    A nd           | Website:  www.openfoam.com                      |
|    \\/     M anipulation  |                                                 |
\*---------------------------------------------------------------------------*/
FoamFile
{
    version     2.0;
    format      ascii;
    arch        "LSB;label=32;scalar=64";
    class       volScalarField;
    location    "40";
    object      p;
}
// * * * * * * * * * * * * * * * * * * * * * * * * * * * * * * * * * * * * * //

dimensions      [0 2 -2 0 0 0 0];

internalField   nonuniform List<scalar> 
13248
(
-0.27458
-0.275595
-0.275317
-0.274153
-0.272191
-0.269376
-0.2657
-0.261186
-0.255902
-0.249976
-0.243563
-0.236861
-0.230103
-0.22355
-0.217462
-0.212072
-0.207553
-0.20403
-0.201477
-0.199969
-0.199217
-0.199408
-0.199886
-0.200992
-0.276658
-0.277358
-0.276927
-0.275717
-0.273791
-0.271082
-0.267522
-0.263107
-0.257875
-0.251922
-0.245405
-0.23854
-0.231584
-0.224807
-0.218449
-0.212693
-0.20764
-0.203325
-0.199706
-0.196702
-0.194202
-0.192078
-0.19029
-0.189111
-0.280266
-0.280431
-0.279676
-0.278262
-0.276218
-0.273442
-0.269842
-0.265357
-0.259989
-0.253817
-0.247008
-0.239803
-0.232475
-0.225283
-0.218433
-0.212064
-0.206231
-0.200972
-0.196217
-0.191984
-0.188104
-0.184646
-0.181476
-0.179045
-0.285116
-0.28456
-0.283279
-0.281441
-0.279052
-0.276001
-0.272145
-0.267371
-0.261637
-0.255019
-0.247708
-0.239968
-0.232083
-0.224299
-0.216809
-0.209738
-0.203162
-0.197102
-0.191539
-0.186434
-0.181675
-0.177284
-0.173133
-0.169687
-0.291099
-0.289669
-0.287684
-0.285221
-0.282285
-0.278747
-0.274402
-0.269069
-0.262682
-0.255342
-0.247283
-0.23881
-0.230223
-0.221781
-0.213673
-0.20602
-0.198871
-0.19223
-0.186052
-0.180294
-0.174864
-0.169794
-0.164981
-0.160832
-0.29835
-0.295927
-0.293104
-0.289887
-0.286242
-0.281989
-0.276843
-0.270575
-0.263154
-0.25476
-0.245712
-0.236367
-0.227046
-0.217994
-0.209366
-0.201233
-0.193615
-0.186489
-0.179822
-0.173566
-0.167667
-0.162136
-0.15687
-0.152251
-0.30718
-0.303642
-0.299913
-0.295848
-0.291306
-0.286011
-0.27961
-0.27192
-0.263043
-0.253305
-0.243118
-0.232866
-0.222842
-0.213231
-0.204127
-0.195563
-0.187533
-0.18001
-0.172957
-0.166327
-0.160084
-0.154197
-0.148622
-0.14362
-0.317896
-0.313126
-0.308434
-0.303399
-0.297663
-0.290835
-0.282603
-0.272983
-0.262307
-0.251051
-0.239674
-0.22852
-0.217809
-0.207652
-0.198091
-0.189124
-0.180726
-0.17286
-0.165486
-0.158561
-0.15205
-0.145911
-0.140133
-0.134868
-0.330652
-0.324546
-0.318815
-0.312584
-0.305181
-0.29618
-0.28552
-0.273561
-0.260881
-0.248045
-0.235475
-0.223428
-0.212033
-0.201333
-0.191319
-0.181964
-0.173228
-0.165064
-0.15743
-0.150278
-0.143568
-0.137251
-0.131341
-0.125858
-0.345332
-0.337837
-0.330923
-0.323101
-0.313366
-0.301488
-0.287894
-0.273348
-0.258596
-0.244188
-0.230444
-0.217511
-0.205429
-0.194179
-0.183719
-0.173997
-0.164959
-0.156547
-0.148709
-0.141393
-0.134545
-0.128121
-0.122123
-0.116467
-0.361508
-0.352615
-0.344264
-0.334235
-0.321353
-0.305935
-0.289061
-0.27183
-0.255025
-0.239085
-0.224194
-0.210388
-0.197628
-0.185847
-0.174969
-0.164922
-0.155633
-0.147036
-0.139066
-0.131663
-0.124766
-0.118326
-0.112307
-0.106576
-0.37841
-0.368163
-0.357981
-0.344908
-0.328005
-0.30851
-0.288171
-0.268268
-0.249483
-0.232085
-0.216108
-0.201483
-0.188101
-0.17585
-0.164624
-0.154326
-0.144868
-0.136172
-0.128164
-0.120773
-0.113936
-0.107598
-0.101694
-0.0961011
-0.353694
-0.354934
-0.355524
-0.356106
-0.35698
-0.358204
-0.359781
-0.36169
-0.363892
-0.36633
-0.368929
-0.371603
-0.374332
-0.377119
-0.379716
-0.381991
-0.383823
-0.385107
-0.385771
-0.385788
-0.385182
-0.384062
-0.382728
-0.381637
-0.341621
-0.342823
-0.343213
-0.343412
-0.343712
-0.344174
-0.3448
-0.345569
-0.346433
-0.347346
-0.348253
-0.349095
-0.34984
-0.350446
-0.350848
-0.350998
-0.350879
-0.350506
-0.349949
-0.349334
-0.348843
-0.348703
-0.349345
-0.351637
-0.330403
-0.331473
-0.331645
-0.331481
-0.331247
-0.331001
-0.330746
-0.33046
-0.330113
-0.329654
-0.329041
-0.328239
-0.327229
-0.326004
-0.324572
-0.322967
-0.321259
-0.319567
-0.318059
-0.316974
-0.316606
-0.31726
-0.319258
-0.323548
-0.320171
-0.321055
-0.321017
-0.320536
-0.319835
-0.318967
-0.317936
-0.316728
-0.315312
-0.313654
-0.311727
-0.309518
-0.307035
-0.304308
-0.3014
-0.298417
-0.295499
-0.292836
-0.290669
-0.289314
-0.289127
-0.290504
-0.293679
-0.298851
-0.310948
-0.311639
-0.311425
-0.310688
-0.309602
-0.308206
-0.306509
-0.304503
-0.302172
-0.299496
-0.296466
-0.293093
-0.289415
-0.285497
-0.281434
-0.277416
-0.273628
-0.270311
-0.267703
-0.266243
-0.266252
-0.268159
-0.272329
-0.278482
-0.302694
-0.303236
-0.302896
-0.30197
-0.300581
-0.298748
-0.296481
-0.293788
-0.29067
-0.287129
-0.283178
-0.278855
-0.27423
-0.269416
-0.264392
-0.259645
-0.255251
-0.251496
-0.248697
-0.247218
-0.247443
-0.249655
-0.25467
-0.261235
-0.295355
-0.295829
-0.295424
-0.294375
-0.292754
-0.290559
-0.287802
-0.284507
-0.280699
-0.276408
-0.271673
-0.266556
-0.26115
-0.255584
-0.250016
-0.244701
-0.239887
-0.235868
-0.232979
-0.231516
-0.23201
-0.234321
-0.239924
-0.246663
-0.288902
-0.289415
-0.289006
-0.287883
-0.286087
-0.283593
-0.280411
-0.276583
-0.272162
-0.26721
-0.261798
-0.256017
-0.249985
-0.24386
-0.237837
-0.232163
-0.227117
-0.222986
-0.220169
-0.218738
-0.219631
-0.221844
-0.227975
-0.234432
-0.28338
-0.284031
-0.283666
-0.282501
-0.280571
-0.277833
-0.274295
-0.270013
-0.265068
-0.259552
-0.253572
-0.247252
-0.240739
-0.234217
-0.227894
-0.222042
-0.216958
-0.212882
-0.210388
-0.209111
-0.210769
-0.212875
-0.219646
-0.22541
-0.278932
-0.279782
-0.279492
-0.278289
-0.27626
-0.273344
-0.269546
-0.264931
-0.259599
-0.253674
-0.247294
-0.240615
-0.233817
-0.227112
-0.220754
-0.214995
-0.210158
-0.206401
-0.20443
-0.203538
-0.205781
-0.208198
-0.215091
-0.220781
-0.275802
-0.276822
-0.276545
-0.275371
-0.273306
-0.27031
-0.266393
-0.261626
-0.25612
-0.250024
-0.243496
-0.236717
-0.229891
-0.223245
-0.217035
-0.211521
-0.207006
-0.203654
-0.201944
-0.201547
-0.203532
-0.206509
-0.212678
-0.218944
-0.274282
-0.275395
-0.275154
-0.273973
-0.271926
-0.268966
-0.265096
-0.260382
-0.254939
-0.248893
-0.242411
-0.235687
-0.228935
-0.222399
-0.216338
-0.211015
-0.20666
-0.203498
-0.201599
-0.201135
-0.202013
-0.204347
-0.208396
-0.213961
-0.380865
-0.381908
-0.386782
-0.396585
-0.412666
-0.435721
-0.465616
-0.500974
-0.539474
-0.577118
-0.610427
-0.635538
-0.648039
-0.643728
-0.616427
-0.560996
-0.483403
-0.403272
-0.337173
-0.292975
-0.270006
-0.26443
-0.278454
-0.312144
-0.356014
-0.388135
-0.388141
-0.34845
-0.283328
-0.215625
-0.160174
-0.120799
-0.0947027
-0.0777723
-0.066396
-0.0583871
-0.0525552
-0.048402
-0.0453858
-0.0425907
-0.0395251
-0.0363022
-0.0330591
-0.0298842
-0.0268981
-0.0240564
-0.0214199
-0.0189332
-0.0165983
-0.0143501
-0.0122229
-0.0101919
-0.0083381
-0.00661453
-0.00514311
-0.00381912
-0.00274972
-0.00176601
-0.000978055
-0.000240011
-0.356638
-0.365257
-0.379049
-0.397753
-0.422595
-0.453635
-0.489781
-0.529422
-0.569939
-0.608046
-0.640658
-0.664447
-0.67619
-0.671169
-0.642462
-0.583106
-0.498611
-0.410137
-0.335118
-0.282232
-0.251345
-0.23863
-0.245421
-0.272139
-0.310463
-0.342097
-0.345181
-0.312003
-0.256149
-0.197396
-0.149075
-0.114738
-0.0922297
-0.0777755
-0.0681804
-0.0615364
-0.0567715
-0.053574
-0.0507639
-0.0474343
-0.0433524
-0.0390976
-0.0350415
-0.0312923
-0.0279207
-0.024825
-0.022012
-0.0193914
-0.0169494
-0.0146136
-0.0124156
-0.0103306
-0.00843281
-0.00668173
-0.00518407
-0.0038491
-0.00276351
-0.00177895
-0.000983553
-0.000247776
-0.333396
-0.347256
-0.369645
-0.393923
-0.424521
-0.460532
-0.500366
-0.542072
-0.583171
-0.620847
-0.652434
-0.675208
-0.685834
-0.680721
-0.65255
-0.592321
-0.504305
-0.409852
-0.328623
-0.269714
-0.23217
-0.212171
-0.209958
-0.228405
-0.259646
-0.289293
-0.297112
-0.271761
-0.226619
-0.177717
-0.137028
-0.108272
-0.0896077
-0.0778924
-0.07037
-0.0652615
-0.0618005
-0.0595664
-0.0567188
-0.0525693
-0.0471817
-0.0418264
-0.0369316
-0.0326158
-0.0288791
-0.0255524
-0.0225837
-0.0198455
-0.0173083
-0.0148924
-0.012628
-0.0104909
-0.00854943
-0.00676958
-0.00524345
-0.00389412
-0.00278949
-0.00179984
-0.000994509
-0.000257078
-0.3126
-0.331008
-0.355501
-0.384568
-0.418672
-0.457098
-0.498403
-0.540577
-0.581236
-0.617859
-0.648097
-0.669502
-0.679711
-0.675158
-0.648406
-0.58987
-0.501523
-0.403425
-0.318431
-0.255832
-0.213231
-0.187523
-0.176328
-0.184835
-0.207967
-0.233843
-0.245244
-0.22909
-0.195483
-0.156806
-0.124252
-0.101437
-0.0867825
-0.0780953
-0.0729426
-0.0695586
-0.067678
-0.0663356
-0.0632267
-0.057936
-0.0511994
-0.0445068
-0.0387335
-0.0338557
-0.0297746
-0.026239
-0.0231342
-0.0202939
-0.0176731
-0.0151847
-0.0128584
-0.0106708
-0.00868597
-0.00687584
-0.00531949
-0.00395244
-0.00282635
-0.00182765
-0.00101001
-0.000267536
-0.293275
-0.314109
-0.340266
-0.371146
-0.406437
-0.445342
-0.486488
-0.527971
-0.567559
-0.603029
-0.632204
-0.652709
-0.662467
-0.658719
-0.633888
-0.577186
-0.490243
-0.392554
-0.306486
-0.24168
-0.19565
-0.164992
-0.147312
-0.14509
-0.159413
-0.17972
-0.193066
-0.185183
-0.162696
-0.134484
-0.110555
-0.0939351
-0.0835554
-0.0783162
-0.0758349
-0.0744567
-0.0743769
-0.0738214
-0.0702203
-0.0634036
-0.0551273
-0.0471143
-0.0404486
-0.0350191
-0.0306132
-0.0268885
-0.0236649
-0.0207368
-0.018043
-0.0154891
-0.0131052
-0.0108685
-0.00884061
-0.00699846
-0.00541047
-0.00402246
-0.00287294
-0.00186151
-0.00102942
-0.000278885
-0.275871
-0.297638
-0.32417
-0.354956
-0.389699
-0.427665
-0.467535
-0.507552
-0.54567
-0.580077
-0.609149
-0.628543
-0.637783
-0.63457
-0.611056
-0.556495
-0.472748
-0.378582
-0.294211
-0.228666
-0.180435
-0.145853
-0.122805
-0.112055
-0.116902
-0.130351
-0.143216
-0.142055
-0.129317
-0.111204
-0.0958569
-0.085569
-0.0798309
-0.0784567
-0.0788545
-0.0798489
-0.0817346
-0.0819
-0.0775908
-0.0687981
-0.0589356
-0.0496309
-0.0420818
-0.0361144
-0.0314012
-0.0275041
-0.0241767
-0.0211735
-0.0184167
-0.0158041
-0.0133667
-0.0110822
-0.00901169
-0.0071357
-0.00551491
-0.00410282
-0.00292827
-0.00190071
-0.00105228
-0.000290896
-0.260717
-0.282201
-0.30795
-0.337411
-0.370479
-0.406516
-0.444346
-0.482431
-0.518823
-0.552209
-0.582184
-0.599895
-0.608578
-0.605601
-0.58296
-0.530801
-0.451789
-0.363367
-0.282851
-0.217822
-0.168174
-0.130676
-0.103279
-0.0857048
-0.0813133
-0.0878758
-0.0981225
-0.104635
-0.0970528
-0.0878474
-0.080283
-0.0762161
-0.0754267
-0.078137
-0.0817908
-0.085674
-0.0896264
-0.0904327
-0.0851866
-0.0742503
-0.0626852
-0.0520669
-0.0436432
-0.0371526
-0.0321461
-0.0280897
-0.0246703
-0.0216029
-0.018792
-0.0161271
-0.0136405
-0.0113096
-0.00919711
-0.00728563
-0.00563124
-0.00419219
-0.00299139
-0.00194457
-0.0010782
-0.000303309
-0.248115
-0.268582
-0.292561
-0.319886
-0.350546
-0.383927
-0.419099
-0.454667
-0.488808
-0.520097
-0.546208
-0.566958
-0.575692
-0.572492
-0.550256
-0.501125
-0.428613
-0.347857
-0.272976
-0.209892
-0.159469
-0.120015
-0.0890806
-0.0665026
-0.0537613
-0.0530697
-0.0592051
-0.066595
-0.0665113
-0.0647751
-0.0637699
-0.0657917
-0.0701264
-0.077099
-0.0842865
-0.091489
-0.0977539
-0.0991395
-0.0927534
-0.0799649
-0.066396
-0.0544269
-0.0451413
-0.0381438
-0.0328546
-0.0286481
-0.0251457
-0.0220234
-0.0191665
-0.0164553
-0.0139237
-0.011548
-0.00939447
-0.0074461
-0.00575769
-0.00428917
-0.00306127
-0.0019924
-0.00110681
-0.000315756
-0.238359
-0.256995
-0.278515
-0.303477
-0.331656
-0.362333
-0.394782
-0.42795
-0.459954
-0.489409
-0.514065
-0.532512
-0.541212
-0.537344
-0.515275
-0.469828
-0.405084
-0.333099
-0.264612
-0.204617
-0.154186
-0.113379
-0.0801345
-0.0537118
-0.0348969
-0.0263938
-0.0277159
-0.0335833
-0.0384652
-0.0418831
-0.0463757
-0.0538751
-0.0635526
-0.0748562
-0.0862126
-0.0973792
-0.106039
-0.107826
-0.100113
-0.0855772
-0.0699985
-0.0566971
-0.0465771
-0.0390898
-0.0335279
-0.0291798
-0.0256031
-0.0224352
-0.0195408
-0.0167898
-0.0142175
-0.0117982
-0.00960432
-0.00761719
-0.00589408
-0.0043934
-0.0031376
-0.00204391
-0.001138
-0.000327825
-0.232527
-0.24771
-0.265438
-0.28727
-0.312388
-0.33983
-0.36904
-0.398843
-0.42783
-0.454739
-0.477128
-0.49441
-0.501673
-0.496943
-0.475967
-0.435843
-0.380359
-0.318156
-0.256773
-0.200703
-0.151418
-0.109751
-0.0752008
-0.0461586
-0.0234062
-0.00819681
-0.0034175
-0.00645428
-0.0135247
-0.0200202
-0.0283965
-0.0409293
-0.0561499
-0.0717405
-0.0871509
-0.102282
-0.11381
-0.11599
-0.106714
-0.090543
-0.0733353
-0.0588456
-0.0479538
-0.040003
-0.0341802
-0.0296974
-0.0260535
-0.022848
-0.0199239
-0.0171392
-0.0145301
-0.0120676
-0.00983286
-0.00780365
-0.00604392
-0.00450711
-0.00322189
-0.00209992
-0.00117252
-0.000339394
-0.229102
-0.240285
-0.254249
-0.272469
-0.294131
-0.318758
-0.34543
-0.372944
-0.399733
-0.423923
-0.444225
-0.458501
-0.465174
-0.460455
-0.441684
-0.407601
-0.361031
-0.307663
-0.252809
-0.200456
-0.152756
-0.110664
-0.0747371
-0.0439205
-0.0177798
0.00253936
0.0139357
0.0146887
0.00912848
0.000185012
-0.0108643
-0.0272783
-0.0470915
-0.0666778
-0.0867899
-0.107129
-0.121601
-0.1238
-0.11253
-0.095107
-0.0765422
-0.0610289
-0.0494099
-0.0409844
-0.0348767
-0.0302381
-0.0265134
-0.0232661
-0.0203121
-0.0174971
-0.0148536
-0.0123495
-0.0100746
-0.00800163
-0.00620473
-0.00462877
-0.00331337
-0.00215991
-0.00121051
-0.000350241
-0.222193
-0.230694
-0.241099
-0.254059
-0.270048
-0.289216
-0.310895
-0.333912
-0.356816
-0.378844
-0.396918
-0.410167
-0.41588
-0.413311
-0.399934
-0.374873
-0.339388
-0.296413
-0.249438
-0.201938
-0.156621
-0.115147
-0.0784426
-0.0465405
-0.018938
0.00416137
0.0218888
0.0302065
0.028143
0.0179645
0.00479991
-0.0141731
-0.0375076
-0.0608837
-0.0847089
-0.109305
-0.127237
-0.129971
-0.117039
-0.0992519
-0.0796309
-0.0631369
-0.0507842
-0.0418826
-0.0354857
-0.0306924
-0.0268865
-0.0236027
-0.0206218
-0.0177845
-0.0151139
-0.0125794
-0.0102749
-0.00816898
-0.00634466
-0.00473665
-0.00339742
-0.00221525
-0.00124701
-0.000358135
-0.215007
-0.225074
-0.234135
-0.244479
-0.257532
-0.273649
-0.292296
-0.312219
-0.332265
-0.351065
-0.366502
-0.376598
-0.380405
-0.376192
-0.362259
-0.338321
-0.30567
-0.266704
-0.224335
-0.181452
-0.140202
-0.102033
-0.067586
-0.0370904
-0.0105624
0.0122098
0.0306742
0.0425676
0.0440191
0.038676
0.0227172
0.00170814
-0.0237435
-0.0504092
-0.0794319
-0.110973
-0.133879
-0.137769
-0.124579
-0.101694
-0.0803578
-0.0632669
-0.0507468
-0.0418419
-0.0354947
-0.0307694
-0.027017
-0.0237696
-0.020799
-0.0179598
-0.0152744
-0.0127241
-0.0104024
-0.00827957
-0.0064397
-0.00481363
-0.00345923
-0.00225797
-0.00127493
-0.000361598
-0.206126
-0.218473
-0.227972
-0.236777
-0.247268
-0.260398
-0.275824
-0.292375
-0.308875
-0.323592
-0.334939
-0.341615
-0.342495
-0.336424
-0.322418
-0.300431
-0.271555
-0.237584
-0.200626
-0.162815
-0.125823
-0.0909726
-0.0588591
-0.0298403
-0.00460776
0.0174627
0.0365821
0.0503273
0.0541652
0.0473654
0.034687
0.0143328
-0.0115031
-0.0407274
-0.0756884
-0.113653
-0.139482
-0.141437
-0.124538
-0.101068
-0.0794812
-0.062619
-0.0503754
-0.0416605
-0.0354229
-0.0307682
-0.027067
-0.0238614
-0.0209193
-0.0180989
-0.0154185
-0.0128676
-0.0105354
-0.00840087
-0.00654339
-0.00489968
-0.00352504
-0.00230445
-0.00130179
-0.000367407
-0.19661
-0.210541
-0.22026
-0.227808
-0.236016
-0.246212
-0.25833
-0.271378
-0.283895
-0.294887
-0.30324
-0.307507
-0.306576
-0.300148
-0.287649
-0.268721
-0.243889
-0.214411
-0.18183
-0.147889
-0.114127
-0.0818007
-0.0517039
-0.0240883
0.00042302
0.0217367
0.040418
0.0549791
0.0616345
0.0588385
0.0472477
0.0278704
0.0015045
-0.0319294
-0.0741874
-0.117035
-0.142942
-0.142215
-0.123406
-0.0994256
-0.0781343
-0.0617625
-0.0498856
-0.0413938
-0.0352877
-0.0307245
-0.027093
-0.0239435
-0.02104
-0.0182438
-0.0155712
-0.0130195
-0.0106766
-0.00852923
-0.0066533
-0.00499085
-0.00359479
-0.00235383
-0.00133012
-0.000375147
-0.186959
-0.200868
-0.210364
-0.216927
-0.223272
-0.23098
-0.240251
-0.250263
-0.259878
-0.268245
-0.274223
-0.276639
-0.274852
-0.268517
-0.257126
-0.24033
-0.218393
-0.192245
-0.163283
-0.132986
-0.102615
-0.0731539
-0.0453418
-0.0195048
0.00390432
0.0244022
0.0423571
0.0566382
0.0649283
0.0658081
0.0585016
0.0423059
0.0157117
-0.0231737
-0.072793
-0.119116
-0.143639
-0.140023
-0.119874
-0.0962667
-0.0759621
-0.0604618
-0.0491525
-0.0409922
-0.0350747
-0.0306329
-0.0270866
-0.0240027
-0.0211456
-0.0183808
-0.015722
-0.0131741
-0.0108234
-0.00866427
-0.00677009
-0.00508821
-0.00366965
-0.00240703
-0.00136078
-0.000384741
-0.176129
-0.189707
-0.198887
-0.204711
-0.209689
-0.215511
-0.222546
-0.23027
-0.237766
-0.24394
-0.247888
-0.248917
-0.246476
-0.240141
-0.229556
-0.214506
-0.195215
-0.172421
-0.14711
-0.120305
-0.0929985
-0.0660662
-0.0402598
-0.0160762
0.00611954
0.0257772
0.0428407
0.0565441
0.0654158
0.0685652
0.0653463
0.0534032
0.02781
-0.0157608
-0.0709059
-0.118428
-0.139904
-0.133698
-0.113695
-0.0917219
-0.0731142
-0.0588149
-0.0482238
-0.0404711
-0.0347848
-0.0304887
-0.0270433
-0.0240368
-0.0212357
-0.0185102
-0.0158715
-0.0133315
-0.0109755
-0.00880576
-0.00689361
-0.00519181
-0.00374968
-0.00246426
-0.00139383
-0.000395961
-0.164435
-0.177753
-0.186553
-0.191759
-0.195733
-0.200151
-0.205498
-0.211411
-0.217015
-0.221368
-0.223819
-0.223816
-0.220873
-0.214643
-0.2049
-0.191529
-0.174663
-0.154735
-0.132421
-0.108535
-0.0839613
-0.0595159
-0.0358521
-0.0134876
0.00722974
0.0258266
0.0419707
0.0549464
0.0637013
0.0675548
0.0664233
0.0576446
0.0336821
-0.0116048
-0.067807
-0.112816
-0.130399
-0.123233
-0.10522
-0.0860277
-0.0696647
-0.0568212
-0.0470829
-0.0398167
-0.0344092
-0.0302869
-0.0269597
-0.0240427
-0.0213073
-0.0186293
-0.0160174
-0.01349
-0.0111322
-0.00895331
-0.0070237
-0.00530163
-0.00383493
-0.00252561
-0.00142929
-0.000408621
-0.152693
-0.165394
-0.173719
-0.178409
-0.181627
-0.184981
-0.188997
-0.1934
-0.197472
-0.20047
-0.201829
-0.201074
-0.197836
-0.191851
-0.182957
-0.171067
-0.156228
-0.138719
-0.11907
-0.09795
-0.0760563
-0.0540552
-0.0325076
-0.01193
0.00726307
0.0246543
0.0398482
0.0519711
0.0603038
0.0641113
0.0633649
0.0556545
0.0333439
-0.00943071
-0.0609407
-0.100419
-0.11527
-0.109589
-0.0952111
-0.0795711
-0.0657759
-0.0545427
-0.0457509
-0.0390335
-0.0339462
-0.0300239
-0.0268323
-0.0240172
-0.0213578
-0.0187359
-0.0161581
-0.0136486
-0.0112925
-0.0091064
-0.00716008
-0.00541759
-0.00392537
-0.0025911
-0.00146723
-0.000422565
-0.140922
-0.152816
-0.160638
-0.164896
-0.167526
-0.170051
-0.173014
-0.176245
-0.17918
-0.181183
-0.181725
-0.180459
-0.177099
-0.171438
-0.163347
-0.152755
-0.139694
-0.124361
-0.107141
-0.0885296
-0.069072
-0.0493444
-0.0298643
-0.0111143
0.00647367
0.0225277
0.0367255
0.0477835
0.0555087
0.0590257
0.0580671
0.0506502
0.0305906
-0.00599832
-0.0493141
-0.0828285
-0.0969131
-0.0946598
-0.0846883
-0.0727957
-0.0616116
-0.0520317
-0.044241
-0.0381217
-0.0333926
-0.029696
-0.0266577
-0.0239574
-0.0213846
-0.0188278
-0.0162916
-0.0138058
-0.0114554
-0.00926442
-0.00730239
-0.00553951
-0.00402098
-0.00266072
-0.00150769
-0.000437651
-0.12915
-0.140272
-0.147578
-0.151439
-0.153598
-0.155484
-0.157654
-0.160019
-0.162104
-0.163343
-0.163318
-0.161744
-0.158397
-0.153113
-0.145793
-0.136391
-0.124928
-0.111531
-0.0964665
-0.0801132
-0.0629146
-0.0453595
-0.027909
-0.0109992
0.00494085
0.0195694
0.0329708
0.0425891
0.0496265
0.0528216
0.0517125
0.0448056
0.0278453
-0.00156699
-0.0365577
-0.0649277
-0.0790246
-0.0803143
-0.0744988
-0.0660519
-0.0573144
-0.0493485
-0.0425776
-0.0370894
-0.0327493
-0.0293016
-0.0264335
-0.0238607
-0.0213852
-0.0189026
-0.0164161
-0.01396
-0.0116198
-0.00942659
-0.00745014
-0.00566714
-0.00412166
-0.00273442
-0.00155068
-0.000453759
-0.117686
-0.12798
-0.134733
-0.138224
-0.140011
-0.141421
-0.143006
-0.144721
-0.146169
-0.146865
-0.146461
-0.144735
-0.141505
-0.136641
-0.130071
-0.121763
-0.111729
-0.100051
-0.0869182
-0.0726228
-0.0575196
-0.0420124
-0.0265105
-0.0114151
0.00283893
0.0157802
0.0265584
0.0364981
0.0430227
0.0459372
0.0448633
0.0387456
0.0248792
0.00178837
-0.0260322
-0.0498788
-0.0636731
-0.0675583
-0.0651035
-0.0595633
-0.0530024
-0.046553
-0.0407876
-0.0359468
-0.0320185
-0.0288399
-0.026158
-0.023725
-0.0213574
-0.0189582
-0.0165294
-0.0141097
-0.0117845
-0.00959205
-0.00760276
-0.00580012
-0.00422723
-0.00281207
-0.00159622
-0.000470795
-0.106638
-0.116036
-0.122229
-0.125391
-0.126893
-0.127951
-0.129101
-0.130331
-0.131319
-0.131649
-0.131017
-0.129261
-0.126227
-0.121812
-0.115966
-0.108666
-0.0999179
-0.0897801
-0.0783875
-0.0659622
-0.0527869
-0.0391946
-0.0255445
-0.0122002
0.00043905
0.0119497
0.021882
0.0303332
0.0361178
0.0387241
0.0377462
0.0324416
0.0211779
0.00311451
-0.0187968
-0.038512
-0.0513538
-0.0567361
-0.0566922
-0.0534675
-0.0487713
-0.0437033
-0.0389022
-0.0347085
-0.0312061
-0.0283124
-0.0258307
-0.023549
-0.0212993
-0.0189925
-0.0166297
-0.014253
-0.011948
-0.00975981
-0.00775962
-0.00593803
-0.00433751
-0.00289352
-0.00164426
-0.000488681
-0.0959765
-0.104526
-0.110186
-0.113053
-0.114333
-0.115132
-0.115966
-0.116849
-0.117518
-0.117616
-0.116842
-0.115176
-0.112394
-0.108444
-0.103291
-0.0969202
-0.0893383
-0.0805856
-0.0707591
-0.0600275
-0.0486176
-0.0368033
-0.0248927
-0.0132095
-0.00210484
0.00804984
0.0168942
0.0241719
0.0292097
0.0314984
0.030642
0.026122
0.0170035
0.00289208
-0.0142402
-0.0302918
-0.0417723
-0.0477818
-0.0493184
-0.0478511
-0.0447021
-0.0408566
-0.0369558
-0.0333927
-0.0303205
-0.0277224
-0.0254521
-0.0233319
-0.0212097
-0.0190039
-0.0167152
-0.0143884
-0.0121091
-0.00992882
-0.00791998
-0.00608038
-0.00445221
-0.0029786
-0.00169473
-0.000507346
-0.085794
-0.0935448
-0.0986954
-0.101294
-0.1024
-0.103015
-0.103627
-0.104277
-0.104751
-0.10476
-0.104078
-0.102398
-0.0998662
-0.0963785
-0.0918839
-0.0863707
-0.0798458
-0.0723388
-0.0639201
-0.054719
-0.0449168
-0.034738
-0.0244437
-0.0143167
-0.00466358
0.00418517
0.011908
0.0181818
0.0225342
0.024531
0.0238255
0.0200631
0.0127389
0.00174247
-0.0115873
-0.024496
-0.0344554
-0.0404943
-0.0429664
-0.0427689
-0.0408601
-0.0380653
-0.0349824
-0.0320193
-0.0293722
-0.027075
-0.0250244
-0.0230743
-0.0210878
-0.0189912
-0.0167843
-0.0145143
-0.0122663
-0.010098
-0.00808302
-0.0062266
-0.00457101
-0.00306708
-0.00174755
-0.000526739
-0.0761648
-0.0831412
-0.0878047
-0.0901618
-0.0911348
-0.0916243
-0.0920867
-0.0925793
-0.0929208
-0.0928569
-0.0921572
-0.0906551
-0.0884751
-0.0854579
-0.0815934
-0.0768739
-0.0713077
-0.0649204
-0.0577656
-0.0499418
-0.0415943
-0.0329069
-0.0240983
-0.0154104
-0.00711154
0.000500301
0.00715621
0.0125364
0.016275
0.0180205
0.0174884
0.0144387
0.00862278
8.95883e-05
-0.0102329
-0.0205081
-0.0289322
-0.0346379
-0.0375775
-0.0382454
-0.037293
-0.0353745
-0.0330157
-0.0306102
-0.0283741
-0.0263771
-0.0245511
-0.0227774
-0.0209337
-0.0189535
-0.0168358
-0.0146293
-0.0124184
-0.0102662
-0.00824796
-0.00637609
-0.00469348
-0.00315865
-0.00180256
-0.000546829
-0.0670767
-0.0733285
-0.0775403
-0.0796846
-0.0805592
-0.0809687
-0.0813367
-0.0817313
-0.0820075
-0.0819493
-0.0813796
-0.0801973
-0.0782066
-0.0755863
-0.0722951
-0.0683022
-0.0636046
-0.0582221
-0.0521977
-0.0456076
-0.0385677
-0.0312281
-0.0237695
-0.0163979
-0.00934381
-0.00285567
0.00280427
0.00737975
0.0105736
0.0121053
0.0117504
0.00934977
0.00479645
-0.00178592
-0.00973861
-0.0178333
-0.0248037
-0.0299866
-0.0330698
-0.0342793
-0.0340324
-0.032822
-0.0310871
-0.0291872
-0.0273401
-0.025637
-0.0240367
-0.0224437
-0.0207484
-0.0188908
-0.016869
-0.0147324
-0.0125643
-0.0104326
-0.00841408
-0.00652833
-0.00481928
-0.00325307
-0.00185954
-0.000567518
-0.0585283
-0.0641209
-0.0679208
-0.0698774
-0.0706801
-0.0710435
-0.0713581
-0.0716984
-0.0719474
-0.0719182
-0.0714488
-0.0704362
-0.0688267
-0.0666232
-0.0638634
-0.0605342
-0.0566243
-0.0521435
-0.0471267
-0.041636
-0.0357636
-0.0296306
-0.0233856
-0.0172042
-0.0112864
-0.00582277
-0.00105141
0.00280938
0.0055235
0.00687097
0.00667985
0.00484662
0.00133753
-0.00370318
-0.00979948
-0.0161059
-0.0217014
-0.0263325
-0.0293501
-0.0308515
-0.031095
-0.0304355
-0.0292232
-0.027771
-0.0262844
-0.024864
-0.0234872
-0.0220766
-0.0205336
-0.0188037
-0.0168835
-0.0148228
-0.0127029
-0.0105962
-0.00858053
-0.00668274
-0.00494803
-0.00335016
-0.00191843
-0.000588736
-0.0505327
-0.0555225
-0.0589463
-0.0607379
-0.0614898
-0.0618336
-0.0621257
-0.0624445
-0.0626959
-0.0627209
-0.0623776
-0.0615778
-0.0602814
-0.0584885
-0.056212
-0.0534762
-0.0502706
-0.0465946
-0.0424734
-0.0379563
-0.0331183
-0.0280566
-0.0228911
-0.0177707
-0.0128598
-0.00832348
-0.00434567
-0.00111702
0.0011734
0.00235721
0.00230398
0.000945217
-0.00171651
-0.00554795
-0.0102061
-0.0150816
-0.0192491
-0.0235249
-0.0263287
-0.0279275
-0.0284819
-0.0282328
-0.0274456
-0.0263807
-0.0252214
-0.024068
-0.0229089
-0.0216802
-0.0202919
-0.0186935
-0.01688
-0.0149005
-0.0128341
-0.0107563
-0.00874673
-0.00683869
-0.00507922
-0.00344947
-0.00197904
-0.000610536
-0.0430765
-0.0475183
-0.0506021
-0.0522504
-0.0529695
-0.0533142
-0.0536076
-0.0539296
-0.0542059
-0.0543016
-0.0540944
-0.0535068
-0.0525066
-0.0510895
-0.049267
-0.047053
-0.0444643
-0.0414964
-0.0381658
-0.034508
-0.0305808
-0.0264629
-0.0222516
-0.0180772
-0.0140511
-0.0103249
-0.00704849
-0.00437863
-0.00246332
-0.00143149
-0.00138118
-0.00235853
-0.00434807
-0.0072436
-0.0108193
-0.0147415
-0.0188429
-0.0215892
-0.0239202
-0.0254581
-0.0261807
-0.0262224
-0.0257704
-0.0250324
-0.0241642
-0.0232584
-0.0223088
-0.0212595
-0.0200265
-0.0185622
-0.0168593
-0.0149657
-0.0129575
-0.010913
-0.00891264
-0.00699613
-0.00521266
-0.00355078
-0.00204094
-0.000632712
-0.0361355
-0.0400868
-0.0428675
-0.0443929
-0.0450938
-0.045455
-0.0457674
-0.0461103
-0.0464263
-0.0466013
-0.0465299
-0.0461445
-0.0454169
-0.0443458
-0.0429402
-0.0412071
-0.0391517
-0.0367924
-0.0341512
-0.031242
-0.0281108
-0.02483
-0.0214438
-0.0180743
-0.0148286
-0.0118162
-0.0091604
-0.00698379
-0.00540291
-0.00451725
-0.00440002
-0.00508369
-0.00655053
-0.00871894
-0.0114294
-0.0144416
-0.0174773
-0.0199407
-0.0219504
-0.0233729
-0.0241667
-0.0244023
-0.0242061
-0.023738
-0.0231238
-0.0224441
-0.0216937
-0.0208199
-0.0197415
-0.0184127
-0.0168232
-0.0150192
-0.0130735
-0.0110661
-0.00907794
-0.00715504
-0.00534848
-0.00365431
-0.0021044
-0.000655102
-0.0296895
-0.0332045
-0.0357163
-0.0371371
-0.0378312
-0.0382201
-0.038564
-0.0389401
-0.0393047
-0.039562
-0.0396212
-0.0394233
-0.038943
-0.038179
-0.0371399
-0.0358346
-0.0342714
-0.0324572
-0.030397
-0.0281227
-0.0256665
-0.0230684
-0.0204257
-0.017776
-0.0152087
-0.0128183
-0.0107031
-0.00896029
-0.00768043
-0.00693961
-0.00679228
-0.00726074
-0.00833171
-0.00994217
-0.0119729
-0.0142492
-0.0165689
-0.0186238
-0.0203353
-0.021613
-0.0224123
-0.0227664
-0.0227576
-0.0225061
-0.0221091
-0.0216318
-0.0210697
-0.0203659
-0.0194407
-0.0182481
-0.0167744
-0.0150632
-0.0131834
-0.0112162
-0.00924288
-0.00731498
-0.00548628
-0.0037596
-0.00216937
-0.00067814
-0.0237149
-0.0268429
-0.0291176
-0.0304498
-0.0311462
-0.0315708
-0.0319548
-0.032372
-0.0327899
-0.0331288
-0.0333106
-0.0332838
-0.0330257
-0.0325349
-0.0318193
-0.0308876
-0.0297458
-0.0283991
-0.0268569
-0.0251376
-0.0232688
-0.021289
-0.0192504
-0.0172067
-0.0152231
-0.01337
-0.0117231
-0.0103588
-0.00934811
-0.00875022
-0.00860567
-0.0089294
-0.0097103
-0.0109035
-0.0124197
-0.0141195
-0.0159175
-0.0175777
-0.0190054
-0.020122
-0.020883
-0.0213001
-0.0214239
-0.0213428
-0.0211276
-0.0208262
-0.0204438
-0.0199038
-0.0191287
-0.0180719
-0.0167154
-0.0150996
-0.0132891
-0.0113652
-0.00940918
-0.00747748
-0.00562652
-0.00386662
-0.00223493
-0.000701276
-0.0181814
-0.0209683
-0.023035
-0.0242932
-0.0249989
-0.0254645
-0.0258939
-0.0263568
-0.0268298
-0.0272469
-0.0275416
-0.0276687
-0.027608
-0.0273577
-0.0269247
-0.026317
-0.0255402
-0.024599
-0.0235006
-0.0222568
-0.020888
-0.0194254
-0.0179083
-0.0163804
-0.0148918
-0.0134989
-0.01226
-0.011232
-0.0104683
-0.0100134
-0.00989811
-0.0101356
-0.0107166
-0.0116077
-0.0127509
-0.014068
-0.0154203
-0.0167321
-0.0179001
-0.0188536
-0.0195492
-0.0199873
-0.0201985
-0.0202476
-0.020181
-0.0200169
-0.0198171
-0.0194346
-0.0188073
-0.0178865
-0.0166489
-0.0151309
-0.0133921
-0.0115143
-0.00957761
-0.00764369
-0.00577096
-0.00397693
-0.00230259
-0.00072418
-0.0130669
-0.0155548
-0.0174404
-0.0186373
-0.0193577
-0.0198677
-0.0203459
-0.0208572
-0.0213854
-0.0218763
-0.0222736
-0.0225379
-0.0226512
-0.0226108
-0.0224228
-0.0220938
-0.0216289
-0.021032
-0.0203087
-0.0194683
-0.0185262
-0.0175042
-0.0164317
-0.0153432
-0.0142769
-0.0132739
-0.0123797
-0.011641
-0.011099
-0.0107868
-0.0107267
-0.0109277
-0.0113829
-0.0120662
-0.012937
-0.0139444
-0.0149903
-0.0160224
-0.0169652
-0.0177644
-0.0183826
-0.0188158
-0.0190828
-0.0192349
-0.0192949
-0.0193259
-0.0192169
-0.0189717
-0.0184845
-0.0176982
-0.0165803
-0.0151618
-0.0134972
-0.0116668
-0.00975065
-0.00781402
-0.00591909
-0.0040897
-0.00237221
-0.00074848
-0.00832519
-0.0105513
-0.0122788
-0.0134249
-0.0141635
-0.0147195
-0.0152478
-0.0158077
-0.0163893
-0.0169484
-0.0174375
-0.0178228
-0.0180877
-0.0182296
-0.0182532
-0.018164
-0.0179668
-0.017664
-0.0172588
-0.0167572
-0.0161701
-0.015515
-0.0148149
-0.0140956
-0.0133877
-0.0127237
-0.0121354
-0.0116545
-0.0113122
-0.0111339
-0.0111371
-0.0113306
-0.0117121
-0.0122666
-0.0129586
-0.0137344
-0.0145615
-0.0153783
-0.0161384
-0.016801
-0.0173369
-0.0177454
-0.0180371
-0.0182327
-0.0184028
-0.0185394
-0.0185798
-0.0184861
-0.0181427
-0.017497
-0.0165053
-0.0151919
-0.0136058
-0.0118265
-0.00993234
-0.00799347
-0.0060739
-0.00420607
-0.00244169
-0.000771979
-0.00398443
-0.00598127
-0.0075713
-0.00867536
-0.00943409
-0.0100358
-0.0106136
-0.0112212
-0.0118532
-0.012474
-0.0130441
-0.0135341
-0.0139294
-0.0142268
-0.0144297
-0.0145427
-0.0145693
-0.0145115
-0.0143718
-0.0141542