/*--------------------------------*- C++ -*----------------------------------*\
| =========                 |                                                 |
| \\      /  F ield         | OpenFOAM: The Open Source CFD Toolbox           |
|  \\    /   O peration     | Version:  2512                                  |
|   \\  /    A nd           | Website:  www.openfoam.com                      |
|    \\/     M anipulation  |                                                 |
\*---------------------------------------------------------------------------*/
FoamFile
{
    version     2.0;
    format      ascii;
    arch        "LSB;label=32;scalar=64";
    class       volScalarField;
    location    "122.2";
    object      p;
}
// * * * * * * * * * * * * * * * * * * * * * * * * * * * * * * * * * * * * * //

dimensions      [0 2 -2 0 0 0 0];

internalField   nonuniform List<scalar> 
13248
(
-0.635697
-0.633158
-0.630104
-0.626985
-0.624565
-0.623302
-0.623063
-0.623021
-0.621738
-0.61746
-0.608549
-0.593898
-0.573186
-0.546905
-0.516138
-0.482221
-0.446446
-0.409885
-0.373338
-0.337413
-0.302316
-0.268531
-0.234896
-0.201678
-0.641523
-0.638948
-0.63562
-0.631959
-0.628546
-0.625599
-0.622701
-0.618812
-0.61254
-0.602552
-0.587954
-0.568497
-0.544573
-0.517025
-0.486872
-0.455084
-0.42247
-0.389653
-0.357108
-0.325179
-0.294122
-0.264151
-0.235066
-0.207636
-0.649845
-0.646871
-0.643161
-0.638919
-0.634375
-0.629359
-0.623157
-0.61472
-0.603057
-0.587565
-0.568164
-0.545252
-0.519531
-0.491789
-0.462751
-0.433013
-0.403046
-0.373228
-0.343849
-0.315182
-0.287374
-0.260654
-0.234851
-0.209869
-0.660679
-0.656915
-0.652584
-0.647503
-0.641393
-0.633659
-0.623438
-0.61
-0.593052
-0.572776
-0.549703
-0.524517
-0.497891
-0.47039
-0.442457
-0.414434
-0.386592
-0.359152
-0.332315
-0.306245
-0.281076
-0.256992
-0.233797
-0.211713
-0.673874
-0.668988
-0.66375
-0.657407
-0.649085
-0.637847
-0.623
-0.604463
-0.582735
-0.558608
-0.532894
-0.506265
-0.479216
-0.452084
-0.425104
-0.398449
-0.372265
-0.346684
-0.321826
-0.297801
-0.274706
-0.25261
-0.231398
-0.211127
-0.689345
-0.683063
-0.676606
-0.668439
-0.657061
-0.641472
-0.621561
-0.598103
-0.572263
-0.54513
-0.517513
-0.489921
-0.462642
-0.435835
-0.409595
-0.383995
-0.359101
-0.334977
-0.311685
-0.289285
-0.267823
-0.247339
-0.227765
-0.209166
-0.706822
-0.699048
-0.691022
-0.680298
-0.664865
-0.644128
-0.618957
-0.590963
-0.561683
-0.532213
-0.503182
-0.474892
-0.447456
-0.420906
-0.395245
-0.370474
-0.346598
-0.323628
-0.30158
-0.280467
-0.260306
-0.24109
-0.222803
-0.205433
-0.725999
-0.716648
-0.706598
-0.692389
-0.671857
-0.645399
-0.615053
-0.58302
-0.550892
-0.51956
-0.489414
-0.460562
-0.432983
-0.406619
-0.381407
-0.357294
-0.33424
-0.312212
-0.291185
-0.271139
-0.252051
-0.2339
-0.216681
-0.200287
-0.746172
-0.735191
-0.722532
-0.703779
-0.677256
-0.644856
-0.609669
-0.574133
-0.539639
-0.506784
-0.475721
-0.446397
-0.418693
-0.392481
-0.367648
-0.344095
-0.321743
-0.30052
-0.280369
-0.261235
-0.24307
-0.225838
-0.209503
-0.193888
-0.766238
-0.753574
-0.73758
-0.713243
-0.680156
-0.641941
-0.602394
-0.563857
-0.527381
-0.493254
-0.461423
-0.431708
-0.40391
-0.377847
-0.35336
-0.330314
-0.308592
-0.288096
-0.268739
-0.250443
-0.233139
-0.216775
-0.20127
-0.186429
-0.784726
-0.770307
-0.750114
-0.719293
-0.679416
-0.635735
-0.592339
-0.551246
-0.513108
-0.477933
-0.445489
-0.415494
-0.387681
-0.361817
-0.337703
-0.31517
-0.294072
-0.274286
-0.255703
-0.238225
-0.221773
-0.206278
-0.191619
-0.177637
-0.799919
-0.783639
-0.758343
-0.720335
-0.673719
-0.625037
-0.578309
-0.535085
-0.495617
-0.459651
-0.426802
-0.396697
-0.369006
-0.343452
-0.319798
-0.297843
-0.27742
-0.258382
-0.240602
-0.223968
-0.2084
-0.193827
-0.180118
-0.167179
-0.455139
-0.458206
-0.460552
-0.463833
-0.468723
-0.475501
-0.482096
-0.489994
-0.498477
-0.506853
-0.514416
-0.520424
-0.524172
-0.525076
-0.522788
-0.517289
-0.508962
-0.498605
-0.487382
-0.476697
-0.467939
-0.461994
-0.459067
-0.459839
-0.486414
-0.48937
-0.492573
-0.497491
-0.504563
-0.513662
-0.524241
-0.536084
-0.548535
-0.561015
-0.572482
-0.581845
-0.587979
-0.589833
-0.586572
-0.577734
-0.563368
-0.544119
-0.521231
-0.496457
-0.471699
-0.448445
-0.427991
-0.413221
-0.517604
-0.52002
-0.523754
-0.529962
-0.538865
-0.550242
-0.563734
-0.578871
-0.594912
-0.610776
-0.625468
-0.637551
-0.645525
-0.647909
-0.643408
-0.631142
-0.610825
-0.582891
-0.54857
-0.509798
-0.468916
-0.428111
-0.389718
-0.357051
-0.546725
-0.548221
-0.552061
-0.55902
-0.569097
-0.581995
-0.597306
-0.614478
-0.632682
-0.650784
-0.6674
-0.68093
-0.689587
-0.691544
-0.685099
-0.669077
-0.642918
-0.606917
-0.562327
-0.511227
-0.456411
-0.400643
-0.347468
-0.296827
-0.572013
-0.572317
-0.575846
-0.582879
-0.593285
-0.606718
-0.622687
-0.640571
-0.659501
-0.678264
-0.695358
-0.709009
-0.717226
-0.718006
-0.709023
-0.689065
-0.657406
-0.614406
-0.561569
-0.501259
-0.436619
-0.370363
-0.306312
-0.243695
-0.592338
-0.591385
-0.594172
-0.600621
-0.610506
-0.623457
-0.638964
-0.65636
-0.674744
-0.692877
-0.709233
-0.72195
-0.728879
-0.727729
-0.716288
-0.692909
-0.656844
-0.608652
-0.550287
-0.48463
-0.415414
-0.34535
-0.27802
-0.212566
-0.607356
-0.605279
-0.607017
-0.612287
-0.620869
-0.632443
-0.646511
-0.662401
-0.679177
-0.695638
-0.710293
-0.721207
-0.726134
-0.722658
-0.708524
-0.682098
-0.642859
-0.591759
-0.531204
-0.464439
-0.395331
-0.326718
-0.262006
-0.20139
-0.617478
-0.614578
-0.615131
-0.6188
-0.625483
-0.634991
-0.646908
-0.660643
-0.674978
-0.689153
-0.701464
-0.709908
-0.712145
-0.705706
-0.688436
-0.659017
-0.617469
-0.565351
-0.505517
-0.441371
-0.376441
-0.313193
-0.25418
-0.199336
-0.623682
-0.620356
-0.619762
-0.621645
-0.626101
-0.633137
-0.642427
-0.653294
-0.665305
-0.676878
-0.686393
-0.691764
-0.690569
-0.680436
-0.659591
-0.627355
-0.58449
-0.53312
-0.476279
-0.417076
-0.358509
-0.302232
-0.250146
-0.20142
-0.627252
-0.623892
-0.62233
-0.62249
-0.624718
-0.629245
-0.635883
-0.644246
-0.653421
-0.662018
-0.668203
-0.669724
-0.664212
-0.649696
-0.625115
-0.590656
-0.547781
-0.498903
-0.44677
-0.393885
-0.342357
-0.293109
-0.2476
-0.204501
-0.629572
-0.626455
-0.624172
-0.622865
-0.623115
-0.625324
-0.629557
-0.635291
-0.641519
-0.646682
-0.648739
-0.645452
-0.634845
-0.615695
-0.587858
-0.552307
-0.510862
-0.46576
-0.419081
-0.37261
-0.327579
-0.284638
-0.244892
-0.206397
-0.63199
-0.62921
-0.626443
-0.624028
-0.622704
-0.623032
-0.625007
-0.628036
-0.630894
-0.631808
-0.628741
-0.619833
-0.60386
-0.580533
-0.550516
-0.515199
-0.476308
-0.435533
-0.394215
-0.353446
-0.313727
-0.275746
-0.239949
-0.205902
-0.468237
-0.488165
-0.501152
-0.509895
-0.503814
-0.476433
-0.423955
-0.355111
-0.286442
-0.231824
-0.196511
-0.179247
-0.177281
-0.187787
-0.210748
-0.250683
-0.308387
-0.368147
-0.402918
-0.389549
-0.335278
-0.266372
-0.20484
-0.160056
-0.133208
-0.121533
-0.122468
-0.139269
-0.175253
-0.220141
-0.249363
-0.241267
-0.203229
-0.157775
-0.122579
-0.103131
-0.0995549
-0.114551
-0.143523
-0.166145
-0.160845
-0.135616
-0.106521
-0.0850448
-0.0745391
-0.0722933
-0.0746016
-0.0736657
-0.0668787
-0.058546
-0.0537166
-0.0541086
-0.056683
-0.0555736
-0.0453548
-0.0341461
-0.0296147
-0.0210496
-0.0163132
-0.00595705
-0.408424
-0.415727
-0.424661
-0.434228
-0.430772
-0.408298
-0.363084
-0.304627
-0.247605
-0.203708
-0.176879
-0.166448
-0.170131
-0.185583
-0.213444
-0.258283
-0.319694
-0.38146
-0.41759
-0.404542
-0.348256
-0.275517
-0.210075
-0.161827
-0.131262
-0.1158
-0.112468
-0.123416
-0.151941
-0.189945
-0.215222
-0.208554
-0.176892
-0.139543
-0.112182
-0.0995747
-0.102993
-0.125936
-0.162629
-0.190952
-0.185485
-0.154597
-0.117839
-0.0894072
-0.0729862
-0.0648559
-0.0630239
-0.0598405
-0.0548052
-0.0504859
-0.0513723
-0.0587096
-0.0653426
-0.0665777
-0.0538903
-0.0361653
-0.0255889
-0.00976162
-0.00726861
-0.00474712
-0.335851
-0.327405
-0.32832
-0.330012
-0.334544
-0.318439
-0.284461
-0.240743
-0.197952
-0.165628
-0.14777
-0.144436
-0.153893
-0.173734
-0.204708
-0.251309
-0.313391
-0.376296
-0.414622
-0.405662
-0.351002
-0.277148
-0.210043
-0.160052
-0.126853
-0.107947
-0.100557
-0.105809
-0.126825
-0.157802
-0.17999
-0.175336
-0.149894
-0.120105
-0.0999129
-0.0938553
-0.104369
-0.135222
-0.179308
-0.21332
-0.208975
-0.172599
-0.128126
-0.0928755
-0.0711313
-0.0578094
-0.0521259
-0.0465698
-0.0429059
-0.0422887
-0.0488032
-0.0630078
-0.073552
-0.0770375
-0.062117
-0.0380515
-0.0216144
0.00132263
0.00141215
-0.00351128
-0.260209
-0.237248
-0.225814
-0.222092
-0.219473
-0.215691
-0.193463
-0.166398
-0.138645
-0.118438
-0.109877
-0.113814
-0.128691
-0.151733
-0.183683
-0.229398
-0.290165
-0.354013
-0.395682
-0.392214
-0.342601
-0.270961
-0.204723
-0.15476
-0.120366
-0.0989685
-0.0878334
-0.0877048
-0.101661
-0.125878
-0.145283
-0.143072
-0.123288
-0.0999969
-0.0860209
-0.0857474
-0.102704
-0.140866
-0.192021
-0.231771
-0.229833
-0.188872
-0.137144
-0.0953535
-0.0689433
-0.0512387
-0.0420583
-0.0340417
-0.0313093
-0.0339956
-0.0459122
-0.0668772
-0.0811873
-0.0867353
-0.0699202
-0.0397753
-0.0178118
0.0120103
0.0097008
-0.00220937
-0.190483
-0.159272
-0.13279
-0.119826
-0.114624
-0.110942
-0.101522
-0.0892597
-0.0748617
-0.066143
-0.0664847
-0.0773609
-0.0968815
-0.122017
-0.153549
-0.196775
-0.254503
-0.317797
-0.363459
-0.367006
-0.324523
-0.258306
-0.19517
-0.14656
-0.112173
-0.0893762
-0.0755961
-0.0705888
-0.0778668
-0.0956894
-0.11247
-0.112922
-0.0977942
-0.0798082
-0.0707553
-0.0752312
-0.0974882
-0.141989
-0.199547
-0.244918
-0.247034
-0.202724
-0.144812
-0.0969084
-0.0664611
-0.0451775
-0.0329217
-0.0224431
-0.0200952
-0.025606
-0.0426111
-0.0702283
-0.0881293
-0.0955565
-0.077219
-0.0413271
-0.014276
0.0220956
0.0175915
-0.00081965
-0.152855
-0.100704
-0.0610568
-0.0346148
-0.0283502
-0.0236759
-0.0233954
-0.0193867
-0.0152564
-0.0158479
-0.0234801
-0.03977
-0.0625398
-0.088525
-0.118571
-0.158441
-0.212143
-0.273681
-0.322645
-0.333309
-0.299065
-0.240296
-0.182267
-0.136267
-0.102741
-0.0794724
-0.0640673
-0.0555934
-0.056911
-0.0686018
-0.082638
-0.0863442
-0.0741129
-0.0602813
-0.0547233
-0.0626585
-0.0889978
-0.138568
-0.201304
-0.25187
-0.259172
-0.213331
-0.150968
-0.0976056
-0.0637444
-0.0396563
-0.0248055
-0.0119383
-0.00938553
-0.017209
-0.0388442
-0.072954
-0.0942778
-0.103372
-0.0839118
-0.0427009
-0.0110778
0.0313748
0.0250626
0.00066285
-0.143252
-0.0835067
-0.0312206
0.00887547
0.0315131
0.040839
0.0423753
0.0402583
0.0358221
0.028612
0.0160535
-0.00340708
-0.027527
-0.0530436
-0.0811919
-0.118066
-0.167956
-0.227124
-0.277941
-0.294704
-0.268862
-0.21866
-0.167112
-0.12482
-0.0928446
-0.0697095
-0.0534306
-0.0426411
-0.0393421
-0.0453536
-0.056255
-0.0611599
-0.0527579
-0.0421962
-0.0387061
-0.0488873
-0.0776902
-0.130301
-0.197197
-0.252242
-0.264068
-0.220175
-0.155522
-0.0975816
-0.0608739
-0.0346548
-0.0177594
-0.00267903
0.000669323
-0.0088515
-0.0345875
-0.0750498
-0.0995904
-0.110078
-0.0898913
-0.0438842
-0.00825287
0.0396591
0.0320775
0.00223067
-0.146511
-0.0905487
-0.0387691
0.00772323
0.0459509
0.0719637
0.0836662
0.0841337
0.0766638
0.066559
0.0518861
0.03155
0.0074917
-0.0172589
-0.0442453
-0.079162
-0.125757
-0.181859
-0.23264
-0.253386
-0.235575
-0.194625
-0.150513
-0.112795
-0.0830359
-0.0604914
-0.0438951
-0.0316973
-0.0249443
-0.0261457
-0.0337886
-0.0392915
-0.0344521
-0.0261775
-0.0236329
-0.0345828
-0.0642825
-0.118306
-0.186999
-0.245984
-0.261618
-0.222701
-0.158238
-0.0969307
-0.0579284
-0.0301102
-0.01177
0.00523319
0.00990864
-0.000715363
-0.0298573
-0.0764046
-0.104002
-0.115592
-0.095043
-0.0448527
-0.00579665
0.0467911
0.0385998
0.00386722
-0.154263
-0.104431
-0.0564319
-0.0106522
0.0297824
0.0637777
0.0901044
0.106577
0.105965
0.098379
0.0848772
0.0660328
0.0429893
0.0183377
-0.00895526
-0.0434227
-0.0878669
-0.140748
-0.189961
-0.213002
-0.201861
-0.169774
-0.133262
-0.100546
-0.0735232
-0.0520379
-0.0355263
-0.0226833
-0.0136389
-0.0109504
-0.015349
-0.0210728
-0.0194271
-0.012584
-0.0101569
-0.0206235
-0.0496194
-0.102656
-0.171949
-0.234091
-0.253808
-0.221147
-0.158857
-0.0956683
-0.0549371
-0.0259618
-0.0067539
0.0117411
0.0182104
0.00722955
-0.0246127
-0.0771672
-0.107563
-0.119892
-0.0992855
-0.0456106
-0.00371297
0.0526524
0.0446059
0.00554691
-0.163358
-0.120042
-0.0778442
-0.0347865
0.0056491
0.0407489
0.0701538
0.0919786
0.105505
0.109768
0.105316
0.0928063
0.0727558
0.0485216
0.0211146
-0.0120455
-0.0533382
-0.102163
-0.147791
-0.170385
-0.166088
-0.143586
-0.115401
-0.0882979
-0.0645601
-0.0446318
-0.0285974
-0.0156545
-0.0054043
0.000226868
-0.000949298
-0.00615716
-0.00740925
-0.00149537
0.00107355
-0.00793574
-0.0349175
-0.0858631
-0.153139
-0.215747
-0.240253
-0.214172
-0.156963
-0.0939227
-0.0520559
-0.0223265
-0.00275469
0.0168315
0.0254279
0.0146483
-0.0190125
-0.0770596
-0.110136
-0.122917
-0.102544
-0.0462284
-0.00209666
0.0571415
0.0500692
0.00723445
-0.1702
-0.132557
-0.0955488
-0.0555855
-0.0159251
0.0207501
0.053646
0.0838437
0.097854
0.106938
0.110233
0.107943
0.0950842
0.0727865
0.0451277
0.012548
-0.0268601
-0.0714565
-0.11176
-0.13515
-0.136463
-0.121638
-0.100338
-0.0781065
-0.0574494
-0.0391668
-0.0237415
-0.0108621
-7.12054e-05
0.00763501
0.00946394
0.00559905
0.00311955
0.00729314
0.00981826
0.00330532
-0.0201862
-0.0675057
-0.132336
-0.195581
-0.224363
-0.206226
-0.153818
-0.0925148
-0.0498658
-0.0193551
0.00024027
0.0202572
0.0315326
0.0218175
-0.0128481
-0.0765494
-0.112008
-0.124722
-0.104785
-0.0466749
-0.000913242
0.0601411
0.0549709
0.00888633
-0.178124
-0.149988
-0.118606
-0.0842593
-0.0491384
-0.0155144
0.0153693
0.0406417
0.0697147
0.0882474
0.0993639
0.102999
0.0986307
0.0853854
0.063707
0.0360972
0.00286695
-0.0348101
-0.0700897
-0.0925885
-0.0984232
-0.093011
-0.0806703
-0.0648974
-0.0483508
-0.0324774
-0.0183039
-0.00597299
0.00479325
0.0136967
0.0176666
0.0150853
0.011886
0.0126376
0.0159871
0.0109706
-0.00840677
-0.0500479
-0.110372
-0.170974
-0.202542
-0.190337
-0.146105
-0.0890927
-0.0470754
-0.0159929
0.00359743
0.0228365
0.0360921
0.0277925
-0.00648388
-0.0748846
-0.112565
-0.125093
-0.105506
-0.0462237
0.000565164
0.0619167
0.0592431
0.0104631
-0.161843
-0.145594
-0.116396
-0.0825501
-0.0492807
-0.0180019
0.0111384
0.0375278
0.0613288
0.0789813
0.0908445
0.098227
0.0984983
0.0888852
0.0708689
0.0465838
0.0159143
-0.0187318
-0.049304
-0.0688826
-0.0745368
-0.0711376
-0.0618253
-0.0492572
-0.0355634
-0.0220409
-0.00955154
0.0015104
0.011237
0.0198045
0.0247993
0.0235225
0.0196162
0.0188587
0.021936
0.0201769
0.00570789
-0.0315789
-0.0889776
-0.149021
-0.184306
-0.179426
-0.135189
-0.0807632
-0.0404443
-0.0110332
0.00800059
0.0263799
0.0423771
0.0343403
0.00076032
-0.072573
-0.113132
-0.124916
-0.104837
-0.0444566
0.0025835
0.0631186
0.0627259
0.0118518
-0.147888
-0.134498
-0.107304
-0.0758516
-0.0458667
-0.0183078
0.00715315
0.0305922
0.0515111
0.0682963
0.080509
0.0880593
0.0891693
0.0822648
0.0680476
0.0479281
0.0226787
-0.00514234
-0.0293928
-0.0450576
-0.0510851
-0.0497675
-0.0436631
-0.0344936
-0.0237533
-0.0126839
-0.00204424
0.00782918
0.0166336
0.0243383
0.0290478
0.027976
0.0238936
0.0224815
0.0249864
0.024397
0.0131554
-0.019415
-0.0719329
-0.129762
-0.165049
-0.159427
-0.12123
-0.0714734
-0.0338802
-0.00629321
0.0119583
0.0291166
0.044234
0.0385665
0.00609739
-0.0708919
-0.113625
-0.123241
-0.102636
-0.0421778
0.00446013
0.063467
0.0650953
0.0130097
-0.134781
-0.122908
-0.0995956
-0.0719332
-0.0452561
-0.0208077
0.00183653
0.0228634
0.0418479
0.0574217
0.0689043
0.0760227
0.0778467
0.0733532
0.062786
0.0473542
0.0282366
0.0074018
-0.0115472
-0.025116
-0.0318672
-0.0326844
-0.0291841
-0.0225838
-0.0140652
-0.00480992
0.00436333
0.0130839
0.0209301
0.0279111
0.0325782
0.0317929
0.0276277
0.025386
0.0271703
0.0263823
0.0164708
-0.0128624
-0.0599011
-0.110704
-0.142043
-0.138734
-0.106279
-0.061979
-0.027497
-0.00195397
0.015456
0.0311971
0.0462618
0.0414185
0.00958562
-0.0701496
-0.113496
-0.12002
-0.0989976
-0.039434
0.00624448
0.0628374
0.066575
0.0140067
-0.120854
-0.111682
-0.0922959
-0.0682802
-0.0446059
-0.0228234
-0.00275585
0.0159093
0.0326982
0.046763
0.0574503
0.0644547
0.0671858
0.0649324
0.0578041
0.0466777
0.0324225
0.0164545
0.00156136
-0.0100956
-0.0167703
-0.0185868
-0.0165907
-0.0118125
-0.00514558
0.0024225
0.0101151
0.0176944
0.0246017
0.03062
0.0348827
0.0343011
0.0302382
0.0272962
0.0278262
0.0275395
0.0185616
-0.00799425
-0.0476245
-0.0890646
-0.117282
-0.116302
-0.089699
-0.051581
-0.0210084
0.00220791
0.0186083
0.0326116
0.047847
0.0433498
0.0123738
-0.0688724
-0.112262
-0.115309
-0.0937299
-0.0359839
0.00805575
0.0611935
0.0671567
0.0148547
-0.108054
-0.101372
-0.0853376
-0.0646227
-0.043783
-0.024553
-0.00699251
0.00933598
0.0241569
0.0368796
0.0469155
0.0538762
0.0573283
0.0568084
0.0523283
0.0444461
0.0338837
0.021885
0.0104872
0.00114159
-0.00478137
-0.00701444
-0.00613517
-0.00284369
0.00227014
0.00846967
0.0149394
0.0214577
0.0275277
0.0326934
0.0364267
0.0359401
0.0320843
0.0286667
0.028723
0.0279142
0.0197571
-0.0027291
-0.0332401
-0.0662
-0.091653
-0.0930699
-0.0724309
-0.0408751
-0.0146817
0.00600256
0.0212682
0.033447
0.048385
0.0443809
0.0152351
-0.0662408
-0.10952
-0.108787
-0.086737
-0.0318297
0.00984081
0.0585623
0.0667485
0.0155199
-0.0965847
-0.0916203
-0.0784381
-0.0607464
-0.0426338
-0.025891
-0.0108216
0.00364553
0.0167213
0.0281507
0.0374358
0.0441733
0.0480319
0.0487278
0.0462671
0.0410351
0.0336077
0.0249353
0.0162731
0.00914782
0.00420217
0.00196835
0.00226587
0.00463372
0.00862597
0.0137041
0.0190873
0.0245621
0.0297985
0.0341778
0.0373047
0.0368689
0.0333309
0.0297147
0.0292315
0.0278017
0.0205429
0.00313722
-0.0186697
-0.0438401
-0.0663187
-0.0701131
-0.055136
-0.0299896
-0.00848008
0.0094712
0.023404
0.0338147
0.0477292
0.0444665
0.0181728
-0.061992
-0.104665
-0.100318
-0.0780571
-0.026933
0.01162
0.0550608
0.0652219
0.0159295
-0.0857379
-0.0822121
-0.0715358
-0.0566501
-0.041089
-0.0264717
-0.0128815
-0.000827234
0.0104706
0.0205783
0.0290238
0.0354307
0.0395401
0.041168
0.0403072
0.0372121
0.0322999
0.0262795
0.0199842
0.0146809
0.0108363
0.00894572
0.00900136
0.0107245
0.0138014
0.0179141
0.0224042
0.0269719
0.0314395
0.0351689
0.0377526
0.0373622
0.0342254
0.0307042
0.0298352
0.0275315
0.0209499
0.00826001
-0.00546214
-0.0229169
-0.0422286
-0.048449
-0.0385972
-0.0194168
-0.00255158
0.0125794
0.0250177
0.0339272
0.0459659
0.0434925
0.020821
-0.0557559
-0.0968776
-0.0897715
-0.0678932
-0.021375
0.0133753
0.0508652
0.0624454
0.0160046
-0.0755359
-0.0732949
-0.0648056
-0.0524219
-0.0392005
-0.0267065
-0.015109
-0.00451623
0.00531504
0.0142083
0.0218296
0.0278669
0.032103
0.0343972
0.0347284
0.0332697
0.0303278
0.0264469
0.0221535
0.0183883
0.0155786
0.0141272
0.0141289
0.0154692
0.017926
0.0212937
0.0250453
0.028833
0.0325801
0.0357145
0.0378575
0.0375554
0.0349168
0.0317195
0.0307035
0.0282793
0.0211652
0.0125059
0.00629189
-0.00415666
-0.0207149
-0.029065
-0.0235816
-0.00950637
0.00307612
0.0153757
0.0262194
0.0339747
0.0434224
0.041489
0.0230909
-0.046966
-0.0853072
-0.0771556
-0.0566849
-0.0153313
0.0151037
0.0461992
0.0583563
0.0156934
-0.0661985
-0.0649192
-0.0582119
-0.0479811
-0.0368554
-0.0261283
-0.0163206
-0.00721055
0.00129093
0.00907591
0.015904
0.0215246
0.0257533
0.0284752
0.0296647
0.0294385
0.0280271
0.0258918
0.0231305
0.0206507
0.0187762
0.0178373
0.0179589
0.0191062
0.0211166
0.0238731
0.0269972
0.0301517
0.0332887
0.0358968
0.0376946
0.0375264
0.0354386
0.0328011
0.0318425
0.0296996
0.0232113
0.0181672
0.0173215
0.0111434
-0.00347999
-0.0129132
-0.0105977
-0.000605076
0.00830531
0.0179064
0.0271506
0.0340404
0.0408027
0.0389088
0.0252727
-0.0352523
-0.0694243
-0.0626433
-0.0450524
-0.00910124
0.0167819
0.0413113
0.0530362
0.0149928
-0.0575164
-0.0569386
-0.0517307
-0.0433736
-0.0340468
-0.0250768
-0.0167373
-0.00895603
-0.00164723
0.00512738
0.0111958
0.0163629
0.0204763
0.02344
0.0252246
0.0258944
0.0255881
0.0245216
0.0232119
0.0218503
0.0208151
0.0203819
0.0206785
0.0217327
0.023442
0.0257475
0.0283737
0.0310206
0.0336495
0.035819
0.0373278
0.0373259
0.0358054
0.0338174
0.0332375
0.0318619
0.0282238
0.0261887
0.027446
0.0221776
0.00907057
-6.9117e-05
0.000221143
0.00709953
0.0130373
0.0202401
0.027921
0.0340779
0.0388927
0.0365066
0.0275884
-0.0210942
-0.0497124
-0.0466521
-0.0336806
-0.00306304
0.0183964
0.0365225
0.0467787
0.0139548
-0.0493863
-0.0494103
-0.0454736
-0.0387234
-0.0310171
-0.023481
-0.0164344
-0.00983101
-0.00358649
0.00227123
0.00762298
0.0123198
0.0162395
0.0192983
0.0214586
0.0227566
0.0232911
0.023205
0.0228072
0.0223074
0.0219594
0.0219773
0.0224804
0.0235303
0.0250528
0.0270232
0.0292503
0.0314894
0.0337021
0.0355388
0.036818
0.0369944
0.0360419
0.034692
0.0346672
0.0342759
0.0332708
0.0338578
0.0351405
0.0295349
0.0180692
0.00996671
0.00897216
0.0134913
0.0171481
0.0223761
0.0285618
0.0340303
0.0379431
0.0349613
0.0298216
-0.00605704
-0.028261
-0.0305673
-0.023187
0.0024074
0.0199269
0.0322972
0.040131
0.0127122
-0.0418833
-0.0423493
-0.0394432
-0.0340454
-0.0277075
-0.0214216
-0.0155069
-0.00994052
-0.00463917
0.000394254
0.00507995
0.00930415
0.0129698
0.016003
0.0183654
0.0200712
0.021178
0.0217952
0.0220919
0.0222487
0.0224495
0.0228593
0.0235691
0.0246517
0.0260557
0.0277821
0.0297007
0.0316272
0.0335078
0.0350999
0.036224
0.0365691
0.0361429
0.0353684
0.0357481
0.0362212
0.0368326
0.0385143
0.0393445
0.033995
0.024447
0.0175775
0.015789
0.0185386
0.020576
0.024277
0.0290906
0.0338388
0.0375715
0.0343104
0.0310363
0.0073929
-0.00824833
-0.0156839
-0.0139992
0.0070074
0.0212814
0.0291946
0.0339635
0.0115383
-0.0350088
-0.0357665
-0.0336692
-0.0293851
-0.0242025
-0.0189939
-0.0140628
-0.00940019
-0.00492667
-0.000628869
0.00344201
0.00720005
0.0105712
0.0134913
0.0159235
0.0178639
0.0193378
0.0204232
0.0212226
0.0218694
0.0224902
0.0232124
0.0241005
0.0252304
0.0265665
0.0281215
0.0298056
0.0314967
0.0331194
0.0345331
0.03557
0.036057
0.0360783
0.0357997
0.0364564
0.0373374
0.0384127
0.0401582
0.0406812
0.0362233
0.0286392
0.0230227
0.0208806
0.0223158
0.0233144
0.0258771
0.0295169
0.0334756
0.0370319
0.0340271
0.0305037
0.0172578
0.00727097
-0.00349359
-0.00629398
0.0105812
0.0223097
0.0275041
0.0291312
0.0108212
-0.0287379
-0.029641
-0.0281579
-0.0247846
-0.0205814
-0.0162987
-0.0122139
-0.00833085
-0.00457806
-0.000932932
0.00257599
0.00588597
0.008941
0.0116839
0.0140789
0.0161166
0.0178018
0.0191822
0.0203206
0.0213095
0.0222315
0.0231878
0.0242205
0.0253981
0.0266941
0.0281296
0.0296366
0.0311496
0.0325808
0.0338633
0.0348588
0.0354546
0.0358102
0.0359366
0.0366673
0.0376801
0.0387263
0.0400969
0.0403636
0.0369081
0.0310881
0.0266121
0.023906
0.024976
0.0254031
0.0271273
0.0298169
0.032973
0.036046
0.0335487
0.0291638
0.0230537
0.0168383
0.00522058
-2.4487e-05
0.0131737
0.0229238
0.0270247
0.0262178
0.0107172
-0.0229018
-0.0239112
-0.0229362
-0.0203226
-0.0169384
-0.0134334
-0.0100655
-0.00684904
-0.00371982
-0.000648659
0.00235285
0.00523966
0.00796853
0.010492
0.0127791
0.0148093
0.016584
0.0181256
0.0194667
0.0206738
0.0217977
0.0229164
0.024053
0.025266
0.0265336
0.0278835
0.0292581
0.0306355
0.0319281
0.0331079
0.0340825
0.0347568
0.0353156
0.0356418
0.0364279
0.0374135
0.0382915
0.0392053
0.0392549
0.0366823
0.0323249
0.0288963
0.0265652
0.0268447
0.0269178
0.0280317
0.029954
0.0323517
0.0347944
0.0328466
0.0288223
0.0264066
0.0214629
0.010944
0.00503494
0.0149204
0.0229451
0.0266068
0.0239888
0.0106589
-0.0175679
-0.0186596
-0.0180667
-0.0160466
-0.0133272
-0.0104711
-0.00771052
-0.00506307
-0.00247059
9.98331e-05
0.00264771
0.00514161
0.00754599
0.00981681
0.0119499
0.0139058
0.0156785
0.0172773
0.0187163
0.0200433
0.0212846
0.0225002
0.0236986
0.0249287
0.02617
0.0274526
0.0287273
0.0299975
0.0311877
0.0322839
0.0332423
0.0339685
0.0346375
0.0351273
0.0358563
0.0367208
0.0374174
0.0379536
0.0378423
0.0359752
0.0327757
0.0301999
0.0282551
0.0280517
0.0279304
0.0286167
0.029917
0.0316572
0.0335156
0.0320441
0.0290493
0.0281362
0.0234376
0.0146056
0.00899962
0.0158066
0.0223567
0.0252957
0.0214656
0.00997846
-0.0127881
-0.0138509
-0.0135128
-0.0119634
-0.00979646
-0.0074864
-0.00523807
-0.00307229
-0.000937783
0.00119991
0.00334668
0.00548064
0.00757831
0.00960959
0.011541
0.0133659
0.0150673
0.0166468
0.0181042
0.0194725
0.0207618
0.022018
0.0232392
0.024465
0.0256748
0.0268971
0.0280926
0.0292731
0.0303848
0.03141
0.032343
0.0330963
0.0338077
0.0343823
0.0350408
0.0357571
0.0362939
0.0365776
0.0363689
0.0350317
0.0327207
0.0307934
0.0292106
0.0287436
0.0285149
0.028909
0.0297223
0.0309069
0.0322654
0.031135
0.0289986
0.0284217
0.0241156
0.0169181
0.0119569
0.0163189
0.0211873
0.0229751
0.0184125
0.00868446
-0.00840891
-0.00942144
-0.00928317
-0.00811575
-0.00640098
-0.004542
-0.00272076
-0.000959272
0.000787488
0.00255302
0.00434652
0.0061548
0.00795979
0.0097398
0.0114685
0.0131351
0.0147223
0.0162288
0.0176457
0.0189955
0.0202788
0.0215291
0.0227389
0.0239379
0.0251068
0.0262687
0.027396
0.0284963
0.0295403
0.0305037
0.0314
0.0321562
0.0328661
0.0334676
0.0340582
0.0346387
0.0350477
0.0351867
0.0349409
0.0339846
0.0323358
0.0308871
0.0296216
0.0290488
0.0287444
0.028934
0.0293902
0.0300961
0.0310309
0.0301417
0.0284205
0.0276963
0.0240815
0.0183043
0.0140173
0.0164513
0.0197759
0.0202777
0.0155574
0.00722749
-0.00443474
-0.00539334
-0.00539479
-0.00452119
-0.00316952
-0.00168136
-0.000215354
0.00120767
0.00262626
0.00407301
0.00555923
0.00707687
0.00861342
0.0101518
0.0116727
0.0131646
0.014611
0.0160083
0.0173439
0.0186321
0.0198682
0.0210761
0.0222452
0.0233962
0.024513
0.0256106
0.0266719
0.027698
0.0286772
0.0295825
0.0304315
0.0311708
0.0318535
0.0324453
0.0329751
0.0334471
0.0337624
0.0338306
0.0335929
0.0329048
0.031734
0.0306388
0.029636
0.0290542
0.0286936
0.0287247
0.0289313
0.0292375
0.0297621
0.029064
0.0275159
0.0265137
0.0236136
0.0190197
0.0153197
0.0163037
0.0182176
0.0176912
0.0130918
0.00588187
-0.000859194
-0.00173544
-0.00182527
-0.00118086
-0.000124366
0.00105827
0.00222978
0.0033703
0.00451303
0.00568941
0.00691146
0.00817314
0.00946512
0.0107778
0.0120957
0.0134079
0.0146994
0.0159656
0.017193
0.0183899
0.0195492
0.0206866
0.0217916
0.0228771
0.0239295
0.024957
0.0259497
0.0269039
0.0278169
0.0286637
0.0294581
0.0301652
0.0308072
0.0313679
0.0318451
0.032238
0.0324897
0.0325305
0.0323267
0.0318281
0.0309937
0.0301617
0.0293646
0.0288217
0.0284281
0.0283232
0.028352
0.0283576
0.0285228
0.0279191
0.0264696
0.0252261
0.0228832
0.0192412
0.016013
0.0159405
0.016683
0.0154081
0.0110303
0.00475351
0.00237067
0.00158093
0.00143261
0.00189802
0.00271666
0.00364952
0.00457825
0.00548499
0.00639792
0.00734577
0.00834089
0.00937947
0.0104538
0.0115585
0.0126845
0.0138205
0.014953
0.0160771
0.0171807
0.0182674
0.0193296
0.0203771
0.0214005
0.0224062
0.0233832
0.0243344
0.0252537
0.0261354
0.0269788
0.0277649
0.0285001
0.0291634
0.0297586
0.0302783
0.03071
0.0310468
0.0312573
0.0312941
0.0311344
0.0307712
0.0301697
0.0295317
0.0288907
0.0283774
0.0279919
0.0277782
0.0276649
0.027466
0.0273242
0.0267364
0.025386
0.0239891
0.0220091
0.0190978
0.0162463
0.0154159
0.015257
0.0134851
0.00936464
0.00385782
0.0052739
0.00457112
0.00439013
0.00471873
0.00534661
0.0060757
0.00680512
0.00751914
0.00824147
0.00899707
0.00979857
0.0106444
0.011526
0.0124367
0.0133908
0.0143613
0.0153385
0.016318
0.0172904
0.0182566
0.0192099
0.0201553
0.0210845
0.0220002
0.0228928
0.023762
0.0246024
0.0254092
0.0261804
0.0269032
0.027577
0.0281888
0.0287343
0.0292093
0.0296002
0.0298969
0.030081
0.0301238
0.0300072
0.0297405
0.0293008
0.0288039
0.0282838
0.0278249
0.0274303
0.0271261
0.0268886
0.0265613
0.0261834
0.0255507
0.0243052
0.0228463
0.0210743
0.0186898
0.016145
0.0147871
0.0139695
0.0119085
0.00804221
0.00317037
0.00787562
0.00725981
0.00706453
0.00728853
0.00776337
0.00832633
0.00889252
0.00944787
0.0100128
0.0106094
0.0112489
0.0119334
0.0126581
0.013419
0.0141937
0.0149998
0.0158255
0.0166629
0.0175029
0.0183452
0.0191837
0.0200206
0.0208486
0.0216677
0.0224695
0.0232522
0.0240102
0.0247397
0.0254367
0.0260928
0.026703
0.0272594
0.0277555
0.0281846
0.0285371
0.0288029
0.0289686
0.0290181
0.0289382
0.0287396
0.0284121
0.028016
0.0275852
0.0271659
0.0267699
0.0264094
0.0260618
0.0256417
0.0251049
0.024396
0.0232402
0.021793
0.0201319
0.0180991
0.0158098
0.0141085
0.0128301
0.0106242
0.00700235
0.0026527
0.0102033
0.00966957
0.0094717
0.00961571
0.00996779
0.0103952
0.0108275
0.0112528
0.0116876
0.0121513
0.0126533
0.0131951
0.0137741
0.0143854
0.0150234
0.0156885
0.0163766
0.0170819
0.0177957
0.0185166
0.0192403
0.0199672
0.0206912
0.0214111
0.022119
0.0228126
0.0234859
0.0241361
0.0247574
0.0253447
0.0258903
0.0263868
0.026833
0.027218
0.0275342
0.0277723
0.0279229
0.0279763
0.027924
0.0277718
0.0275197
0.0271942
0.0268253
0.0264365
0.0260354
0.0256367
0.0252063
0.0247137
0.0240806
0.0232964
0.0221993
0.0208079
0.0192118
0.0173959
0.0153177
0.0134218
0.0118263
0.00956907
0.00618798
0.00226644
0.0122779
0.0118196
0.0116271
0.0117104
0.0119642
0.0122816
0.0126046
0.0129233
0.0132513
0.0136045
0.0139914
0.0144133
0.0148682
0.0153544
0.0158685
0.016408
0.0169702
0.0175522
0.0181475
0.0187535
0.0193662
0.0199857
0.0206069
0.0212278
0.0218415
0.0224456
0.0230336
0.0236035
0.024149
0.0246668
0.0251486
0.0255902
0.0259808
0.0263199
0.0265992
0.02681
0.0269455
0.0269978
0.0269625
0.0268404
0.0266357
0.0263588
0.0260291
0.0256622
0.0252558
0.0248291
0.0243432
0.02379
0.0231004
0.0222623
0.0211925
0.0198707
0.0183298
0.016638
0.0147265
0.012749
0.0109441
0.00869326
0.00554897
0.00197899
0.014119
0.0137293
0.0135473
0.013585
0.0137604
0.0139884
0.0142222
0.0144537
0.014694
0.0149564
0.0152476
0.0155691
0.0159197
0.0162976
0.0167022
0.0171324
0.0175843
0.0180546
0.01854
0.0190388
0.0195471
0.0200646
0.0205868
0.0211119
0.0216334
0.0221493
0.0226533
0.0231436
0.0236141
0.0240617
0.0244772
0.0248597
0.0251999
0.0254944
0.0257365
0.025919
0.0260365
0.0260825
0.0260538
0.0259492
0.0257713
0.0255253
0.025219
0.0248654
0.0244562
0.0240065
0.0234846
0.0228849
0.0221596
0.0212924
0.0202317
0.0189716
0.0174902
0.0158685
0.0140808
0.0121022