/*--------------------------------*- C++ -*----------------------------------*\
| =========                 |                                                 |
| \\      /  F ield         | OpenFOAM: The Open Source CFD Toolbox           |
|  \\    /   O peration     | Version:  2512                                  |
|   \\  /    A nd           | Website:  www.openfoam.com                      |
|    \\/     M anipulation  |                                                 |
\*---------------------------------------------------------------------------*/
FoamFile
{
    version     2.0;
    format      ascii;
    arch        "LSB;label=32;scalar=64";
    class       surfaceScalarField;
    location    "193.2";
    object      phi;
}
// * * * * * * * * * * * * * * * * * * * * * * * * * * * * * * * * * * * * * //

dimensions      [0 3 -1 0 0 0 0];

oriented        oriented;

internalField   nonuniform List<scalar> 
26232
(
4.2056e-05
0.00117435
-0.00121641
0.000721736
0.00172078
-0.00240046
0.00238862
0.000505314
-0.0021722
0.00537406
-0.00262267
-0.000362767
0.0100663
-0.00784924
0.00315698
0.0168504
-0.0152946
0.00851052
0.0259352
-0.0248602
0.0157753
0.0371519
-0.0361022
0.0248855
0.0498679
-0.0482443
0.0355283
0.0630856
-0.0603392
0.0471215
0.0756817
-0.0714907
0.0588946
0.0866845
-0.0810413
0.0700385
0.09549
-0.0886717
0.0798662
0.101958
-0.0944055
0.0879375
0.106369
-0.0985274
0.0941164
0.109269
-0.101449
0.0985493
0.111271
-0.103574
0.101572
0.112893
-0.105212
0.10359
0.114501
-0.106549
0.104941
0.116281
-0.107701
0.105921
0.118335
-0.108634
0.10658
0.120673
-0.109532
0.107194
0.122841
-0.109881
0.107714
-0.110281
0.108485
0.124636
4.42733e-05
0.00113008
0.000842998
0.00092205
0.00291353
-0.00156522
0.00675643
-0.00646557
0.012842
-0.0139349
0.0214294
-0.0238819
0.0323249
-0.0357558
0.0447856
-0.0485629
0.0576732
-0.0611319
0.0697768
-0.0724428
0.0801385
-0.0818524
0.0882598
-0.0891626
0.0941425
-0.0945544
0.0981755
-0.0984385
0.100933
-0.101285
0.102976
-0.103492
0.104729
-0.105327
0.106455
-0.106938
0.108299
-0.108394
0.110323
-0.109725
0.112633
-0.110944
0.115228
-0.112127
0.118497
-0.11315
-0.114608
0.122825
0.000148496
0.000981583
0.00130443
-0.000233881
0.0041109
-0.00437169
0.00916328
-0.011518
0.0168451
-0.0216167
0.0270307
-0.0340674
0.0389298
-0.047655
0.0512847
-0.0609178
0.0627944
-0.0726417
0.0725071
-0.0821555
0.0800161
-0.0893614
0.0854361
-0.0945825
0.0892214
-0.0983397
0.0919332
-0.10115
0.0940576
-0.103409
0.0959274
-0.105362
0.0977361
-0.107136
0.0995939
-0.108796
0.101572
-0.110372
0.103743
-0.111896
0.106169
-0.11337
0.108899
-0.114857
0.111999
-0.11625
-0.117816
0.115207
0.000326122
0.00065546
0.00202164
-0.0019294
0.00580293
-0.00815298
0.0122296
-0.0179447
0.0213614
-0.0307484
0.0324718
-0.0451779
0.0442224
-0.0594056
0.0552032
-0.0718985
0.064423
-0.0818615
0.0715109
-0.0892435
0.0766343
-0.0944847
0.0802615
-0.0982098
0.0829159
-0.100994
0.0850202
-0.103255
0.0868547
-0.105244
0.0885879
-0.107095
0.0903265
-0.108875
0.0921462
-0.110616
0.0941135
-0.112339
0.0962744
-0.114057
0.09868
-0.115775
0.101365
-0.117542
0.104386
-0.119272
-0.121265
0.107835
0.000548348
0.000107112
0.0029051
-0.00428615
0.00778499
-0.0130329
0.0155215
-0.0256812
0.0256061
-0.040833
0.0366959
-0.0562677
0.0472417
-0.0699514
0.0561351
-0.080792
0.0629612
-0.0886875
0.0678821
-0.0941644
0.0713585
-0.0979611
0.0738923
-0.100744
0.0758842
-0.102986
0.0776036
-0.104974
0.0792169
-0.106857
0.080827
-0.108705
0.0824989
-0.110547
0.0842779
-0.112395
0.0861953
-0.114257
0.0882771
-0.116139
0.0905564
-0.118055
0.0930307
-0.120016
0.0957469
-0.121988
-0.124139
0.0986208
0.000802802
-0.00069569
0.00389337
-0.00737672
0.00986684
-0.0190063
0.0185955
-0.0344099
0.0288896
-0.0511271
0.0390599
-0.066438
0.0477863
-0.0786777
0.0545126
-0.0875182
0.0593387
-0.0935137
0.0627061
-0.0975318
0.0651154
-0.10037
0.0669728
-0.102601
0.068552
-0.104565
0.0700169
-0.106439
0.0714586
-0.108299
0.0729272
-0.110173
0.0744542
-0.112074
0.0760645
-0.114005
0.0777838
-0.115976
0.0796406
-0.117996
0.0816588
-0.120073
0.0838591
-0.122217
0.0862879
-0.124417
-0.126777
0.0889256
0.00108714
-0.00178283
0.00493208
-0.0112217
0.0118411
-0.0259153
0.0210295
-0.0435983
0.0307688
-0.0608664
0.0394416
-0.0751108
0.0462269
-0.085463
0.0510832
-0.0923745
0.0544084
-0.0968389
0.0567106
-0.099834
0.0584185
-0.102078
0.0598222
-0.104005
0.0610903
-0.105833
0.0623111
-0.10766
0.063531
-0.109519
0.0647797
-0.111422
0.0660823
-0.113376
0.067463
-0.115386
0.0689446
-0.117458
0.0705453
-0.119596
0.07228
-0.121807
0.0741548
-0.124091
0.0761875
-0.126449
-0.128928
0.078339
0.00139221
-0.00317504
0.00594464
-0.0157741
0.0134756
-0.0334463
0.0225105
-0.0526332
0.0311319
-0.0694878
0.0381085
-0.0820874
0.043137
-0.0904915
0.046517
-0.0957545
0.0487572
-0.099079
0.0503214
-0.101398
0.0515324
-0.103289
0.0525775
-0.10505
0.0535531
-0.106809
0.0545081
-0.108615
0.0554713
-0.110482
0.0564642
-0.112415
0.0575048
-0.114417
0.0586092
-0.11649
0.0597913
-0.11864
0.0610639
-0.120869
0.0624368
-0.12318
0.0639202
-0.125575
0.0655314
-0.12806
-0.130646
0.0672492
0.00169953
-0.00487457
0.0068309
-0.0209055
0.014566
-0.0411814
0.0229193
-0.0609864
0.0301385
-0.076707
0.0354833
-0.0874323
0.039048
-0.0940562
0.0413054
-0.0980119
0.0427583
-0.100532
0.0437794
-0.102419
0.0445908
-0.104101
0.0453069
-0.105766
0.0459828
-0.107485
0.046647
-0.109279
0.0473176
-0.111152
0.0480093
-0.113107
0.0487359
-0.115143
0.0495112
-0.117266
0.0503483
-0.119477
0.0512582
-0.121779
0.0522492
-0.124171
0.0533289
-0.126654
0.0544984
-0.12923
-0.131888
0.0557402
0.00198278
-0.00685735
0.00748639
-0.0264091
0.0149942
-0.0486892
0.0223171
-0.0683093
0.0280764
-0.0824664
0.0319779
-0.0913338
0.0343694
-0.0964476
0.0357741
-0.0994167
0.0366281
-0.101386
0.0372071
-0.102998
0.0376558
-0.104549
0.0380418
-0.106152
0.0383965
-0.10784
0.038738
-0.10962
0.0390797
-0.111494
0.0394344
-0.113461
0.0398145
-0.115523
0.0402317
-0.117683
0.0406958
-0.119941
0.0412146
-0.122298
0.0417948
-0.124752
0.042442
-0.127302
0.0431593
-0.129947
-0.132678
0.0439491
0.00221462
-0.00907197
0.00783404
-0.0320285
0.0147556
-0.0556108
0.0208776
-0.0744313
0.0252551
-0.0868439
0.027935
-0.0940137
0.0293951
-0.0979076
0.0301331
-0.100155
0.0304976
-0.10175
0.0306813
-0.103182
0.030775
-0.104643
0.0308184
-0.106195
0.0308311
-0.107852
0.0308262
-0.109615
0.0308147
-0.111483
0.0308067
-0.113453
0.0308119
-0.115529
0.0308396
-0.11771
0.030898
-0.119999
0.0309953
-0.122395
0.0311391
-0.124895
0.0313347
-0.127497
0.031582
-0.130194
-0.13298
0.0318842
0.00237571
-0.0114477
0.00784905
-0.0375018
0.0139394
-0.0617012
0.0188232
-0.0793151
0.0219591
-0.0899797
0.0236229
-0.0956775
0.0243316
-0.0986163
0.0245185
-0.100342
0.0244483
-0.10168
0.0242509
-0.102985
0.023982
-0.104374
0.0236657
-0.105879
0.0233153
-0.107502
0.0229407
-0.109241
0.0225504
-0.111092
0.022153
-0.113056
0.0217567
-0.115132
0.0213692
-0.117323
0.020998
-0.119628
0.0206506
-0.122048
0.0203349
-0.12458
0.0200583
-0.127221
0.019824
-0.12996
0.0196422
-0.132798
-0.000623122
0.00663112
-0.00600799
-0.002169
0.0121991
-0.0106532
-0.0043702
0.0136239
-0.0114227
-0.0070358
0.0130593
-0.0103937
-0.0100413
0.0116737
-0.0086682
-0.0133112
0.00986741
-0.0065975
-0.0168017
0.00763008
-0.00413957
-0.0204956
0.00482674
-0.00113288
-0.0242415
0.00132476
0.00242116
-0.0281005
-0.00285519
0.00671417
-0.0319913
-0.00786865
0.0117594
-0.0358344
-0.0137271
0.0175703
-0.0395481
-0.0204014
0.0241151
-0.0430406
-0.0278204
0.0313129
-0.0462064
-0.0358609
0.0390267
-0.0489217
-0.0443428
0.0470581
-0.0510389
-0.0530277
0.0551449
-0.0523774
-0.0616238
0.0629623
-0.0527091
-0.0697956
0.0701273
-0.0517513
-0.0771708
0.076213
-0.0491794
-0.0833514
0.0807795
-0.0446518
-0.0879339
0.0834063
-0.0378458
-0.0905036
0.0836976
-0.0906924
-0.0285761
0.0814228
-0.000330852
0.00696197
-0.00142306
0.0132913
-0.00314055
0.0153414
-0.00529561
0.0152144
-0.00773704
0.0141152
-0.010373
0.0125034
-0.0131571
0.0104141
-0.0160664
0.00773607
-0.0190849
0.00434326
-0.0220526
0.000112542
-0.0251093
-0.00481192
-0.0281418
-0.0106947
-0.0311105
-0.0174327
-0.0339738
-0.024957
-0.0366911
-0.0331437
-0.0392277
-0.0418061
-0.0415564
-0.050699
-0.0436473
-0.0595329
-0.0454468
-0.0679961
-0.0468426
-0.075775
-0.0476274
-0.0825667
-0.0474942
-0.088067
-0.0459814
-0.0920165
-0.0941484
-0.0425255
3.08844e-05
0.00693108
-0.00043924
0.0137614
-0.00145096
0.0163531
-0.00284808
0.0166115
-0.00446061
0.0157277
-0.00617393
0.0142167
-0.00793009
0.0121703
-0.00970187
0.00950785
-0.0114758
0.00611719
-0.0132578
0.00189456
-0.0149494
-0.00312035
-0.016584
-0.00906006
-0.0181283
-0.0158884
-0.0195443
-0.0235411
-0.0207954
-0.0318925
-0.0218663
-0.0407353
-0.0227824
-0.0497829
-0.0236307
-0.0586847
-0.024552
-0.0670747
-0.0257276
-0.0745994
-0.0273202
-0.080974
-0.0292909
-0.0860964
-0.0314363
-0.0898711
-0.092852
-0.0327326
0.000394475
0.00653661
0.000624429
0.0135315
0.00044832
0.0165292
-4.17146e-05
0.0171015
-0.000675552
0.0163615
-0.00132134
0.0148625
-0.00190748
0.0127564
-0.00240433
0.0100047
-0.00280458
0.00651745
-0.00312302
0.002213
-0.00329728
-0.0029461
-0.00333616
-0.00902118
-0.00320882
-0.0160157
-0.00285994
-0.02389
-0.00221645
-0.032536
-0.00120226
-0.0417495
0.00021042
-0.0511956
0.00193356
-0.0604078
0.00372058
-0.0688617
0.00520109
-0.0760799
0.00599814
-0.0817711
0.00559491
-0.0856932
0.00399504
-0.0882712
-0.0886526
-0.000204335
0.000699804
0.0058368
0.00159734
0.0126339
0.00227879
0.0158478
0.00273607
0.0166442
0.00311226
0.0159853
0.00354776
0.014427
0.00412919
0.012175
0.00489185
0.00924205
0.00584264
0.00556665
0.00696517
0.00109047
0.00830331
-0.00428424
0.00985495
-0.0105728
0.0116564
-0.0178172
0.013774
-0.0260076
0.0162881
-0.03505
0.0192608
-0.0447222
0.022703
-0.0546378
0.0265541
-0.0642589
0.030689
-0.0729967
0.034866
-0.0802569
0.0387709
-0.085676
0.0419784
-0.0889006
0.0439985
-0.0902913
-0.0890328
0.0443787
0.000898032
0.00493877
0.00233574
0.0111962
0.0037761
0.0144074
0.00511153
0.0153088
0.00643259
0.0146643
0.00786977
0.0129898
0.00951785
0.0105269
0.011425
0.00733488
0.0136008
0.00339092
0.01608
-0.00138878
0.0188737
-0.00707794
0.022025
-0.0137241
0.0256052
-0.0213974
0.0296962
-0.0300985
0.034356
-0.0397099
0.0395694
-0.0499356
0.0452211
-0.0602894
0.051097
-0.0701348
0.0569483
-0.078848
0.0625301
-0.0858387
0.0677248
-0.0908707
0.0724724
-0.0936482
0.0767155
-0.0945344
-0.093194
0.0808767
0.000968478
0.00397029
0.00274201
0.00942271
0.00474674
0.0124027
0.00679046
0.0132651
0.00889854
0.0125562
0.0111731
0.0107152
0.0137116
0.00798844
0.0165824
0.00446404
0.0197884
0.000184926
0.0234807
-0.00508102
0.0276615
-0.0112588
0.0324441
-0.0185067
0.037937
-0.0268903
0.0442096
-0.0363711
0.0512294
-0.0467297
0.0588215
-0.0575278
0.0666722
-0.0681401
0.0743826
-0.0778452
0.0815638
-0.0860293
0.087894
-0.0921689
0.0932626
-0.0962392
0.0976604
-0.098046
0.101474
-0.0983475
-0.096748
0.105028
0.000917863
0.00305243
0.00279169
0.00754888
0.00509899
0.0100954
0.0076035
0.0107606
0.0102714
0.00988835
0.0131689
0.00781768
0.0163899
0.00476739
0.0200104
0.000843622
0.0242304
-0.00403513
0.0290615
-0.00991213
0.0347066
-0.0169039
0.0413102
-0.0251102
0.0489493
-0.0345293
0.0575533
-0.0449752
0.0668526
-0.0560289
0.0763938
-0.067069
0.0856194
-0.0773657
0.0940045
-0.0862303
0.101167
-0.0931913
0.106959
-0.097961
0.111475
-0.100756
0.114925
-0.101496
0.117815
-0.101237
-0.0991041
0.120171
0.000772172
0.00228026
0.00252562
0.00579543
0.00485946
0.00776154
0.00754735
0.00807269
0.0105267
0.00690902
0.0138465
0.00449787
0.0176116
0.00100224
0.0220262
-0.00357095
0.0272471
-0.00925602
0.0334997
-0.0161647
0.0409821
-0.0243864
0.0497742
-0.0339023
0.0597465
-0.0445017
0.070512
-0.0557406
0.0814584
-0.0669753
0.0918649
-0.0774755
0.101057
-0.0865575
0.108573
-0.0937463
0.114225
-0.0988439
0.118179
-0.101915
0.120776
-0.103353
0.122589
-0.103309
0.124105
-0.102753
-0.10076
0.125761
0.000566966
0.00171329
0.00203618
0.00432621
0.00417221
0.00562551
0.00681473
0.00543017
0.00992634
0.00379741
0.013585
0.00083923
0.0179983
-0.00341107
0.023403
-0.00897567
0.0300867
-0.0159397
0.0382756
-0.0243536
0.0480227
-0.0341335
0.0591065
-0.0449861
0.0709974
-0.0563926
0.0829256
-0.0676689
0.0940352
-0.0780849
0.103574
-0.0870143
0.111063
-0.0940462
0.116396
-0.099079
0.119807
-0.102255
0.121823
-0.103931
0.12299
-0.10452
0.123948
-0.104267
0.12505
-0.103855
-0.102502
0.126792
0.000343883
0.00136941
0.00145815
0.00321195
0.00329485
0.00378882
0.00581375
0.00291127
0.00907009
0.000541073
0.0132619
-0.00335259
0.0186683
-0.00881748
0.0256134
-0.0159207
0.0343259
-0.0246522
0.044796
-0.0348237
0.0566762
-0.0460137
0.0692814
-0.0575913
0.081703
-0.0688143
0.0930032
-0.0789691
0.102427
-0.0875085
0.109563
-0.0941508
0.114417
-0.0989002
0.117357
-0.102019
0.118968
-0.103866
0.119919
-0.104882
0.12074
-0.105341
0.121968
-0.105496
0.123677
-0.105563
-0.104815
0.125989
0.000153001
0.000964491
0.00258111
0.00512961
0.00882766
0.0139856
0.0209435
0.0299083
0.0407844
0.0530822
0.0659631
0.0784104
0.0894624
0.0984308
0.105039
0.109437
0.112109
0.113681
0.114756
0.115795
0.117034
0.118733
0.120883
0.124553
-0.0114815
-0.119583
0.102488
0.00922843
-0.105006
0.0842965
0.0309883
-0.0825853
0.0608254
0.0518014
-0.0525371
0.031724
0.0704913
-0.0174372
-0.0012527
0.0865093
0.0233679
-0.0393859
0.10098
0.0674772
-0.0819482
0.113856
0.109861
-0.122737
0.12436
0.142806
-0.153309
0.131671
0.162181
-0.169492
0.135546
0.170567
-0.174443
0.137092
0.172628
-0.174174
0.1377
0.170649
-0.171256
0.136961
0.169527
-0.168788
0.133761
0.177207
-0.174007
0.129029
0.192729
-0.187998
0.126082
0.198266
-0.195319
0.127167
0.171068
-0.172153
0.131793
0.103622
-0.108248
0.138833
0.00850267
-0.0155432
0.147081
-0.0866531
0.0784051
0.15477
-0.157477
0.149788
0.159524
-0.195888
0.191135
0.161287
-0.211413
0.209649
0.161777
-0.212402
0.211912
0.160499
-0.208248
0.209526
0.155555
-0.215627
0.220572
0.146898
-0.237072
0.245728
0.136288
-0.246466
0.257076
0.126121
-0.213794
0.223961
0.119924
-0.132891
0.139088
0.120573
-0.0223936
0.0217443
0.126874
0.0861176
-0.0924187
0.136054
0.168056
-0.177236
0.1439
0.218163
-0.226008
0.145927
0.24976
-0.251788
0.140399
0.277632
-0.272104
0.130019
0.293929
-0.283549
0.119675
0.270116
-0.259772
0.113986
0.183101
-0.177412
0.11619
0.0476593
-0.0498631
0.124166
-0.0855301
0.0775542
0.130446
-0.178702
0.172421
0.129293
-0.238385
0.239539
0.123473
-0.284101
0.28992
0.118801
-0.286014
0.290685
0.117981
-0.22894
0.229761
0.119792
-0.106296
0.104485
0.121644
0.0473619
-0.0492136
0.120768
0.190787
-0.189911
0.11874
0.309553
-0.307525
0.117353
0.312805
-0.311418
0.116835
0.229887
-0.229369
0.113672
0.049522
-0.0463592
0.109986
-0.1884
0.192086
0.107076
-0.294952
0.297862
0.104706
-0.340916
0.343285
0.0996197
-0.141251
0.146338
0.0953118
0.189029
-0.184721
0.143785
-0.140617
-0.0337029
-0.128405
-0.0193752
-0.119334
-0.00166507
-0.100295
0.0197075
-0.0739096
0.0408827
-0.0386124
0.0611393
0.00311129
0.0804434
0.048173
0.0983942
0.0919104
0.114055
0.127145
0.126186
0.15005
0.134311
0.162442
0.139561
0.167378
0.143179
0.16703
0.145
0.167706
0.144679
0.177529
0.143518
0.19389
0.143766
0.198018
0.145957
0.168877
0.149204
0.100375
0.153094
0.00461327
0.157199
-0.0907582
0.160851
-0.161129
0.162229
-0.197265
0.160998
-0.210182
0.158924
-0.210328
0.15568
-0.205003
0.148742
-0.20869
0.138005
-0.226335
0.126231
-0.234692
0.116528
-0.204092
0.111868
-0.12823
0.114876
-0.0254021
0.124136
0.0768579
0.136075
0.156117
0.146154
0.208083
0.14998
0.245935
0.146135
0.281478
0.136987
0.303076
0.126863
0.28024
0.119846
0.190118
0.119339
0.0481662
0.12514
-0.0913303
0.130755
-0.184317
0.129145
-0.236775
0.122567
-0.277523
0.11784
-0.281287
0.117382
-0.228482
0.119801
-0.108715
0.12206
0.0451026
0.122079
0.190768
0.120794
0.310838
0.11939
0.314209
0.118662
0.230615
0.114564
0.0536194
0.10987
-0.183705
0.106163
-0.291246
0.10358
-0.338332
0.10076
-0.138432
0.0968631
0.192926
0.14786
-0.0363487
-0.124789
-0.0330309
-0.122652
-0.0223967
-0.11093
-0.00664507
-0.0896613
0.0136996
-0.0589571
0.0359666
-0.0191557
0.0592299
0.0249098
0.0821435
0.0689968
0.10308
0.106209
0.12016
0.13297
0.132761
0.149841
0.141928
0.158211
0.148712
0.160246
0.153251
0.163168
0.155907
0.174873
0.158155
0.191642
0.16127
0.194903
0.164345
0.165802
0.165859
0.0988606
0.166374
0.00409817
0.166715
-0.0910986
0.166502
-0.160916
0.164614
-0.195378
0.160665
-0.206234
0.156222
-0.205884
0.151347
-0.200128
0.143144
-0.200488
0.130886
-0.214076
0.117982
-0.221788
0.108487
-0.194597
0.105332
-0.125075
0.110312
-0.0303827
0.122006
0.0651645
0.13647
0.141652
0.148793
0.195761
0.154729
0.239999
0.153035
0.283171
0.145492
0.31062
0.135848
0.289884
0.12755
0.198416
0.123958
0.0517578
0.12694
-0.0943125
0.131605
-0.188983
0.129663
-0.234833
0.122237
-0.270097
0.117107
-0.276156
0.116909
-0.228285
0.120053
-0.111858
0.122938
0.0422173
0.123925
0.189781
0.123309
0.311455
0.121844
0.315674
0.120942
0.231517
0.116073
0.0584883
0.110408
-0.17804
0.105911
-0.286749
0.103062
-0.335483
0.102397
-0.137767
0.0990473
0.196275
0.152768
-0.0145222
-0.110472
-0.0244157
-0.112758
-0.0262078
-0.109137
-0.019022
-0.0968471
-0.00478464
-0.0731944
0.0161985
-0.0401388
0.0406365
0.000471724
0.066331
0.0433023
0.0908419
0.0816976
0.112003
0.111809
0.128902
0.132943
0.142112
0.145001
0.152229
0.150129
0.159586
0.15581
0.165174
0.169285
0.170695
0.186121
0.176511
0.189087
0.180443
0.16187
0.180857
0.0984463
0.178761
0.00619418
0.175722
-0.0880602
0.17178
-0.156974
0.166722
-0.19032
0.160322
-0.199834
0.153756
-0.199318
0.147419
-0.19379
0.138473
-0.191542
0.125447
-0.20105
0.111755
-0.208095
0.102237
-0.185079
0.0999882
-0.122826
0.106387
-0.0367816
0.120082
0.0514691
0.136787
0.124948
0.151499
0.181049
0.16001
0.231488
0.160792
0.282389
0.155048
0.316364
0.146098
0.298834
0.136769
0.207745
0.130062
0.0584653
0.129664
-0.0939148
0.132948
-0.192267
0.130761
-0.232645
0.122488
-0.261825
0.116665
-0.270333
0.116573
-0.228192
0.120492
-0.115778
0.124209
0.0385002
0.126217
0.187773
0.126219
0.311453
0.124636
0.317257
0.123608
0.232546
0.118157
0.0639385
0.111601
-0.171483
0.106337
-0.281485
0.10315
-0.332296
0.104557
-0.139174
0.101834
0.198998
0.158427
0.0268953
-0.0929882
0.00724991
-0.0931131
-0.00785266
-0.0940348
-0.0139718
-0.0907279
-0.00923312
-0.0779331
0.00506189
-0.0544338
0.0272257
-0.0216921
0.0532382
0.0172898
0.0793414
0.0555945
0.103266
0.0878841
0.12375
0.112458
0.140521
0.12823
0.153518
0.137132
0.16321
0.146119
0.171293
0.161202
0.179729
0.177685
0.187894
0.180921
0.192629
0.157135
0.192599
0.0984765
0.189054
0.00973953
0.183418
-0.0824246
0.176211
-0.149766
0.168278
-0.182388
0.159789
-0.191344
0.151491
-0.191021
0.144041
-0.18634
0.134843
-0.182344
0.121675
-0.187882
0.107532
-0.193952
0.0978468
-0.175394
0.095993
-0.120973
0.103122
-0.0439104
0.118091
0.0364994
0.136601
0.106438
0.153706
0.163944
0.165126
0.220068
0.168981
0.278534
0.165662
0.319683
0.157563
0.306932
0.147271
0.218037
0.137486
0.0682509
0.133299
-0.0897278
0.134697
-0.193665
0.13232
-0.230268
0.123276
-0.252781
0.116501
-0.263557
0.116327
-0.228018
0.12107
-0.12052
0.125789
0.0337811
0.128882
0.184679
0.129469
0.310867
0.127686
0.319039
0.126602
0.23363
0.120757
0.0697839
0.113432
-0.164159
0.107438
-0.275491
0.10381
-0.328668
0.107193
-0.142556
0.105184
0.201007
0.164734
0.0695271
-0.0816386
0.0537515
-0.0773375
0.0332132
-0.0734966
0.0140049
-0.0715196
0.00373224
-0.0676605
0.00644114
-0.0571427
0.0207259
-0.0359769
0.0434935
-0.00547787
0.0694362
0.0296518
0.095155
0.0621653
0.118435
0.089178
0.138031
0.108635
0.153195
0.121967
0.164475
0.134839
0.174267
0.15141
0.184821
0.167132
0.194761
0.17098
0.200336
0.151561
0.200439
0.0983734
0.196487
0.0136917
0.189284
-0.0752216
0.179628
-0.14011
0.169249
-0.172009
0.159037
-0.181133
0.14936
-0.181344
0.14093
-0.177909
0.131856
-0.173271
0.119251
-0.175277
0.105134
-0.179835
0.0952007
-0.165461
0.0932446
-0.119016
0.10033
-0.0509957
0.115735
0.0210939
0.135519
0.0866552
0.154951
0.144511
0.169551
0.205468
0.176718
0.271368
0.176022
0.320379
0.169134
0.31382
0.158225
0.228945
0.145854
0.0806224
0.137748
-0.0816217
0.136737
-0.192655
0.134182
-0.227713
0.124539
-0.243138
0.116596
-0.255615
0.116108
-0.22753
0.121703
-0.126115
0.127563
0.0279212
0.131801
0.180441
0.132968
0.3097
0.130911
0.321097
0.129844
0.234696
0.123808
0.07582
0.115862
-0.156213
0.109202
-0.26883
0.105002
-0.324469
0.110216
-0.14777
0.109038
0.202185
0.17156
0.0958237
-0.0724348
0.0871741
-0.0686879
0.0754389
-0.0617613
0.0584718
-0.0545526
0.0398689
-0.0490575
0.0272104
-0.0444843
0.0268352
-0.0356016
0.0392041
-0.0178467
0.0604639
0.00839195
0.085341
0.0372882
0.109975
0.0645442
0.131583
0.0870264
0.14853
0.10502
0.161285
0.122084
0.172683
0.140012
0.185044
0.15477
0.196541
0.159484
0.203406
0.144696
0.204727
0.0970522
0.201177
0.017242
0.193259
-0.0673037
0.181847
-0.128698
0.169471
-0.159633
0.157855
-0.169517
0.14725
-0.170739
0.138073
-0.168731
0.129192
-0.164391
0.11768
-0.163765
0.104181
-0.166335
0.0940722
-0.155352
0.0916131
-0.116557
0.0979404
-0.057323
0.112862
0.00617215
0.133227
0.0662905
0.1547
0.123038
0.172644
0.187524
0.183645
0.260367
0.186246
0.317778
0.181141
0.318926
0.169629
0.240457
0.154843
0.0954087
0.14288
-0.0696591
0.138965
-0.18874
0.136169
-0.224916
0.126191
-0.23316
0.116937
-0.246361
0.115843
-0.226436
0.122273
-0.132544
0.129419
0.020775
0.134895
0.174965
0.136653
0.307941
0.134231
0.323519
0.133256
0.235671
0.127239
0.0818376
0.118835
-0.147809
0.111593
-0.261589
0.106685
-0.31956
0.113533
-0.154618
0.113333
0.202386
0.178748
0.110294
-0.0625579
0.102259
-0.0606531
0.0962036
-0.0557056
0.0896628
-0.0480118
0.0793076
-0.0387023
0.0650579
-0.0302346
0.0526672
-0.023211
0.0494132
-0.0145927
0.0577925
1.266e-05
0.0753808
0.0196999
0.0973782
0.0425467
0.119111
0.0652939
0.137347
0.0867842
0.151859
0.107572
0.165371
0.1265
0.179855
0.140286
0.193213
0.146125
0.202143
0.135766
0.205729
0.0934658
0.203626
0.0193449
0.195439
-0.0591164
0.182769
-0.116028
0.168895
-0.145759
0.156173
-0.156795
0.144962
-0.159529
0.135316
-0.159085
0.126617
-0.155692
0.116419
-0.153567
0.104175
-0.154091
0.0941896
-0.145367
0.090977
-0.113345
0.0959611
-0.0623071
0.109416
-0.00728245
0.129568
0.0461379
0.152748
0.0998582
0.173938
0.166334
0.188621
0.245684
0.194369
0.31203
0.191396
0.321899
0.180442
0.251411
0.163973
0.111877
0.148516
-0.0542016
0.141287
-0.181511
0.138088
-0.221717
0.128124
-0.223196
0.11753
-0.235767
0.11547
-0.224376
0.122659
-0.139733
0.131221
0.0122128
0.138023
0.168163
0.140433
0.305531
0.13759
0.326363
0.136751
0.236509
0.13099
0.0875983
0.122282
-0.139101
0.114566
-0.253873
0.108822
-0.313817
0.117047
-0.162843
0.117987
0.201446
0.186117
0.117075
-0.0538716
0.109281
-0.052859
0.103127
-0.049552
0.0994157
-0.0443004
0.0971654
-0.036452
0.0934625
-0.0265317
0.0865963
-0.0163447
0.0784644
-0.00646085
0.0742105
0.00426663
0.0777761
0.0161343
0.0898502
0.0304725
0.10669
0.0484545
0.124006
0.0694673
0.139941
0.0916376
0.155766
0.110674
0.172293
0.12376
0.187349
0.131069
0.198539
0.124576
0.204728
0.0872768
0.204004
0.0200691
0.195771
-0.0508831
0.182255
-0.102512
0.167403
-0.130907
0.153923
-0.143315
0.14238
-0.147985
0.132545
-0.149249
0.123971
-0.147118
0.114969
-0.144565
0.104397
-0.143518
0.0950597
-0.13603
0.0911868
-0.109472
0.0946066
-0.0657269
0.105688
-0.018364
0.1246
0.0272261
0.148572
0.0758863
0.172984
0.141922
0.192121
0.226546
0.201617
0.302533
0.200727
0.322789
0.190743
0.261395
0.173302
0.129319
0.154512
-0.035412
0.143618
-0.170618
0.139752
-0.217851
0.130187
-0.213631
0.118377
-0.223957
0.114953
-0.220952
0.12272
-0.147501
0.132848
0.00208446
0.141122
0.159889
0.144249
0.302404
0.140907
0.329705
0.140254
0.237162
0.134991
0.0928616
0.126129
-0.130238
0.118053
-0.245798
0.111374
-0.307138
0.120669
-0.172138
0.122921
0.199194
0.19347
0.119186
-0.0462656
0.112544
-0.0462171
0.107099
-0.0441075
0.103373
-0.0405741
0.101938
-0.0350168
0.10249
-0.0270839
0.103285
-0.01714
0.102278
-0.00545382
0.0994251
0.00711989
0.0967498
0.0188096
0.0978898
0.0293325
0.104918
0.0414266
0.116485
0.0579004
0.130704
0.0774183
0.146954
0.0944237
0.164298
0.106416
0.180565
0.114802
0.194038
0.111103
0.202706
0.0786088
0.203495
0.0192796
0.194956
-0.042344
0.18058
-0.0881366
0.165007
-0.115333
0.151002
-0.129311
0.139248
-0.136231
0.129461
-0.139461
0.121067
-0.138725
0.112977
-0.136475
0.104143
-0.134684
0.0960414
-0.127928
0.0919752
-0.105405
0.0938297
-0.0675815
0.102148
-0.026682
0.118666
0.0107081
0.142464
0.0520881
0.169233
0.115153
0.192017
0.203763
0.205272
0.289278
0.207142
0.32092
0.198567
0.269969
0.181507
0.146379
0.160518
-0.0144233
0.145849
-0.155949
0.140949
-0.212951
0.132155
-0.204836
0.119444
-0.211247
0.114283
-0.21579
0.122322
-0.155539
0.134109
-0.00970241
0.144008
0.14999
0.148022
0.298389
0.144206
0.333522
0.14374
0.237628
0.139207
0.0973939
0.130303
-0.121334
0.121971
-0.237465
0.114298
-0.299465
0.124317
-0.182157
0.128036
0.195475
0.200593
0.119373
-0.0396498
0.11318
-0.0400239
0.108135
-0.0390626
0.104687
-0.0371263
0.103127
-0.0334571
0.103686
-0.027643
0.106411
-0.0198644
0.110816
-0.00985892
0.115422
0.00251409
0.11758
0.0166512
0.118475
0.0284377
0.120386
0.0395155
0.125426
0.0528605
0.134479
0.0683657
0.147061
0.081842
0.161767
0.0917095
0.176976
0.0995928
0.19105
0.09703
0.200505
0.0691533
0.200454
0.019331
0.191323
-0.0332137
0.176598
-0.0734107
0.161058
-0.0997937
0.147133
-0.115386
0.135425
-0.124523
0.125869
-0.129905
0.1178
-0.130656
0.110362
-0.129037
0.102981
-0.127304
0.0964575
-0.121404
0.092878
-0.101826
0.0937307
-0.0684342
0.0995049
-0.0324563
0.112566
-0.00235247
0.134426
0.0302274
0.163222
0.0863566
0.190831
0.176155
0.208271
0.271838
0.212174
0.317017
0.204499
0.277644
0.188193
0.162686
0.165658
0.0081116
0.147837
-0.138128
0.14152
-0.206634
0.133815
-0.197131
0.120735
-0.198167
0.113535
-0.20859
0.121326
-0.163331
0.134996
-0.023372
0.146681
0.138305
0.151678
0.293393
0.147345
0.337854
0.147113
0.23786
0.143562
0.100945
0.134738
-0.11251
0.126233
-0.22896
0.117557
-0.29079
0.127935
-0.192535
0.133248
0.190162
0.20727
0.119494
-0.0345902
0.114134
-0.0346642
0.109184
-0.0341122
0.10511
-0.0330521
0.102547
-0.0308939
0.101907
-0.0270037
0.103347
-0.021304
0.107031
-0.0135427
0.112741
-0.00319634
0.119567
0.00982493
0.125738
0.0222672
0.131241
0.0340127
0.13721
0.0468911
0.144679
0.0608965
0.15418
0.0723413
0.165326
0.0805636
0.178015
0.0869036
0.191063
0.0839824
0.199652
0.0605642
0.19933
0.0196529
0.189054
-0.0229383
0.173638
-0.057994
0.157795
-0.0839507
0.143798
-0.101389
0.131987
-0.112712
0.12254
-0.120458
0.114827
-0.122943
0.107811
-0.122021
0.101341
-0.120834
0.0962798
-0.116343
0.0936833
-0.0992294
0.0942363
-0.0689872
0.098216
-0.036436
0.107272
-0.0114081
0.125478
0.0120209
0.153052
0.0587825
0.183397
0.14581
0.205901
0.249334
0.214355
0.308562
0.209177
0.282822
0.193849
0.178014
0.171079
0.0308821
0.150286
-0.117335
0.141997
-0.198345
0.135322
-0.190456
0.122376
-0.185221
0.113228
-0.199442
0.120037
-0.17014
0.134987
-0.0383224
0.148761
0.124531
0.15524
0.286914
0.150554
0.34254
0.150456
0.237958
0.148085
0.103316
0.139426
-0.10385
0.130746
-0.220281
0.121159
-0.281203
0.131498
-0.202873
0.13846
0.1832
0.213294
0.171224
-0.0282147
-0.177599
0.165806
-0.0292465
0.160538
-0.0288439
0.155139
-0.0276536
0.149744
-0.0254988
0.14467
-0.0219298
0.140182
-0.0168154
0.136689
-0.0100506
0.134732
-0.00123915
0.134745
0.00981248
0.135702
0.0213096
0.136616
0.0330989
0.137834
0.0456734
0.140987
0.0577432
0.146757
0.0665718
0.155179
0.0721406
0.168175
0.0739079
0.186567
0.0655906
0.20483
0.042301
0.215373
0.00910954
0.216834
-0.0243989
0.211512
-0.0526714
0.202754
-0.0751935
0.192641
-0.0912756
0.182019
-0.102091
0.171797
-0.110235
0.161985
-0.113131
0.152204
-0.11224
0.142617
-0.111248
0.133153
-0.106879
0.123335
-0.0894109
0.11478
-0.0604323
0.110425
-0.0320809
0.112181
-0.0131645
0.121316
0.00288601
0.136438
0.0436603
0.152801
0.129447
0.165511
0.236624
0.174455
0.299618
0.181244
0.276033
0.185173
0.174084
0.180894
0.0351615
0.171725
-0.108166
0.164741
-0.191362
0.15572
-0.181435
0.141446
-0.170947
0.127549
-0.185545
0.12523
-0.167821
0.130088
-0.0431806
0.134988
0.11963
0.137086
0.284816
0.134843
0.344783
0.140481
0.23232
0.144749
0.0990479
0.13998
-0.099081
0.131477
-0.211779
0.11947
-0.269195
0.124162
-0.207565
0.129649
0.177713
0.218108
0.180776
-0.0231223
-0.185868
0.175654
-0.0241249
0.170682
-0.0238719
0.165813
-0.0227844
0.161104
-0.0207896
0.156807
-0.017633
0.153149
-0.0131575
0.15038
-0.0072821
0.148871
0.000270398
0.149194
0.0094899
0.151084
0.019419
0.154221
0.0299615
0.158767
0.0411275
0.165132
0.0513788
0.173146
0.0585582
0.183045
0.0622413
0.196012
0.060941
0.210783
0.0508196
0.222487
0.0305971
0.227605
0.00399163
0.225806
-0.0226007
0.219322
-0.0461868
0.210199
-0.066071
0.200114
-0.0811902
0.189667
-0.0916446
0.179592
-0.100159
0.170098
-0.103638
0.160514
-0.102655
0.150906
-0.10164
0.142267
-0.0982403
0.13401
-0.0811539
0.126406
-0.0528285
0.121858
-0.0275322
0.122288
-0.0135951
0.12978
-0.00460576
0.144859
0.0285816
0.163228
0.111078
0.178279
0.221574
0.189162
0.288735
0.197032
0.268163
0.201299
0.169817
0.197421
0.0390395
0.186412
-0.097157
0.177395
-0.182345
0.167511
-0.171551
0.152905
-0.156341
0.137556
-0.170195
0.134471
-0.164736
0.140416
-0.0491258
0.146846
0.113201
0.149659
0.282003
0.147078
0.347365
0.153303
0.226095
0.159021
0.0933291
0.153805
-0.0938649
0.144341
-0.202315
0.130673
-0.255526
0.134975
-0.211868
0.141769
0.170919
0.222548
0.191367
-0.0187621
-0.195727
0.186647
-0.0194047
0.182094
-0.0193192
0.177712
-0.0184021
0.173533
-0.0166113
0.169758
-0.0138572
0.166603
-0.0100032
0.16427
-0.00494903
0.163143
0.0013981
0.163618
0.00901472
0.165748
0.0172887
0.169589
0.0261204
0.175413
0.0353041
0.183183
0.0436084
0.192395
0.0493465
0.202918
0.0517176
0.214672
0.0491877
0.225896
0.039595
0.233462
0.0230319
0.235716
0.00173725
0.23309
-0.019975
0.227043
-0.04014
0.218872
-0.0578992
0.209857
-0.0721752
0.200278
-0.0820656
0.190559
-0.0904405
0.1813
-0.094379
0.172013