/*--------------------------------*- C++ -*----------------------------------*\
| =========                 |                                                 |
| \\      /  F ield         | OpenFOAM: The Open Source CFD Toolbox           |
|  \\    /   O peration     | Version:  2312                                  |
|   \\  /    A nd           | Website:  www.openfoam.com                      |
|    \\/     M anipulation  |                                                 |
\*---------------------------------------------------------------------------*/
FoamFile
{
    version     2.0;
    format      ascii;
    arch        "LSB;label=32;scalar=64";
    class       volScalarField;
    location    "124.3";
    object      p;
}
// * * * * * * * * * * * * * * * * * * * * * * * * * * * * * * * * * * * * * //

dimensions      [0 2 -2 0 0 0 0];

internalField   nonuniform List<scalar> 
5478
(
-0.581141
-0.576763
-0.56904
-0.56159
-0.556306
-0.552775
-0.548092
-0.538719
-0.521885
-0.496798
-0.464764
-0.427592
-0.387951
-0.343803
-0.298082
-0.595037
-0.589911
-0.582629
-0.573979
-0.563842
-0.550919
-0.534198
-0.512968
-0.487176
-0.457511
-0.424809
-0.390181
-0.354
-0.316951
-0.281691
-0.614635
-0.607952
-0.598941
-0.586799
-0.568999
-0.545723
-0.518718
-0.489421
-0.458682
-0.426902
-0.394473
-0.3616
-0.328772
-0.29613
-0.263755
-0.639766
-0.629707
-0.617623
-0.598697
-0.570969
-0.537943
-0.503254
-0.468719
-0.434902
-0.401935
-0.369721
-0.338377
-0.307896
-0.278468
-0.250791
-0.670933
-0.655011
-0.637847
-0.60863
-0.569849
-0.528361
-0.487963
-0.449839
-0.414097
-0.38043
-0.348604
-0.318344
-0.289511
-0.262252
-0.235854
-0.70661
-0.683732
-0.656457
-0.614236
-0.564893
-0.516461
-0.471733
-0.431035
-0.393905
-0.359841
-0.328337
-0.299057
-0.271772
-0.246216
-0.22186
-0.739761
-0.71179
-0.66945
-0.612965
-0.554399
-0.500405
-0.452359
-0.40978
-0.371827
-0.337707
-0.306796
-0.278609
-0.252793
-0.229046
-0.206411
-0.764289
-0.731696
-0.672107
-0.602367
-0.536208
-0.477931
-0.427602
-0.383947
-0.345765
-0.312105
-0.282162
-0.255361
-0.231303
-0.209456
-0.189346
-0.526571
-0.526402
-0.531392
-0.543973
-0.56395
-0.590396
-0.621661
-0.65491
-0.686269
-0.711152
-0.724254
-0.720062
-0.694194
-0.648862
-0.585019
-0.554617
-0.552983
-0.558529
-0.572835
-0.595525
-0.62555
-0.661134
-0.699277
-0.735895
-0.765803
-0.783426
-0.781658
-0.753896
-0.700846
-0.619874
-0.572841
-0.568801
-0.57291
-0.585826
-0.607263
-0.636198
-0.670854
-0.708334
-0.744771
-0.774067
-0.791435
-0.788515
-0.756758
-0.696448
-0.605672
-0.580845
-0.574353
-0.575176
-0.583746
-0.600418
-0.624549
-0.654554
-0.688143
-0.719355
-0.746891
-0.76164
-0.755443
-0.719001
-0.655337
-0.563516
-0.58103
-0.573079
-0.56989
-0.57238
-0.582239
-0.599717
-0.623503
-0.650445
-0.6796
-0.702299
-0.709817
-0.695648
-0.652326
-0.586932
-0.502968
-0.577414
-0.569568
-0.563068
-0.559836
-0.563189
-0.574635
-0.593446
-0.616922
-0.638904
-0.651771
-0.647834
-0.622703
-0.574128
-0.511852
-0.439192
-0.573974
-0.567389
-0.55904
-0.552202
-0.551379
-0.558716
-0.572802
-0.588668
-0.599619
-0.598629
-0.581388
-0.547056
-0.498352
-0.444614
-0.385455
-0.574229
-0.569226
-0.560547
-0.552732
-0.549851
-0.553018
-0.559461
-0.56382
-0.560485
-0.54531
-0.517826
-0.479224
-0.434592
-0.387113
-0.338546
-0.476994
-0.363297
-0.327291
-0.329318
-0.292545
-0.222119
-0.168147
-0.157092
-0.158098
-0.179221
-0.180581
-0.171686
-0.159437
-0.151236
-0.121697
-0.106911
-0.122134
-0.147019
-0.139743
-0.116798
-0.121614
-0.150224
-0.135003
-0.117077
-0.138858
-0.182437
-0.190026
-0.175144
-0.111603
-0.0438512
-0.0377268
-0.0278328
-0.0171273
-0.0082015
-0.00600094
-0.00435098
-0.00275964
-0.000937729
-0.48477
-0.333946
-0.248661
-0.215904
-0.195188
-0.164963
-0.151257
-0.160167
-0.178567
-0.216143
-0.218519
-0.19129
-0.163194
-0.15139
-0.128474
-0.112982
-0.128041
-0.152194
-0.13929
-0.111582
-0.109519
-0.131827
-0.131514
-0.119414
-0.155681
-0.203931
-0.185053
-0.15629
-0.108956
-0.0484761
-0.0389285
-0.0263587
-0.0166572
-0.00855747
-0.00615269
-0.00427441
-0.00273643
-0.000959127
-0.459313
-0.296327
-0.185616
-0.132299
-0.0938327
-0.0985557
-0.129454
-0.158675
-0.192526
-0.244884
-0.258177
-0.20923
-0.165022
-0.148936
-0.134231
-0.117845
-0.133282
-0.156542
-0.138182
-0.105133
-0.097871
-0.113574
-0.125789
-0.118968
-0.169748
-0.219316
-0.176366
-0.134072
-0.10348
-0.0519198
-0.0394708
-0.0246567
-0.0159997
-0.00887792
-0.00628917
-0.00418286
-0.00271171
-0.000982042
-0.422288
-0.275216
-0.16185
-0.0979487
-0.046023
-0.0457306
-0.106727
-0.146425
-0.187587
-0.253634
-0.274583
-0.221711
-0.165464
-0.144066
-0.136268
-0.120117
-0.137703
-0.160722
-0.137885
-0.0981621
-0.0874237
-0.0969638
-0.117977
-0.115316
-0.179423
-0.227244
-0.166234
-0.11108
-0.0954296
-0.0538947
-0.0394019
-0.0228757
-0.0152005
-0.00913435
-0.00640211
-0.00408565
-0.00268683
-0.00100381
-0.377003
-0.263336
-0.16069
-0.0928145
-0.0440897
-0.0213552
-0.0983583
-0.135133
-0.165436
-0.238426
-0.279172
-0.226675
-0.164459
-0.138241
-0.134097
-0.120299
-0.141647
-0.165107
-0.136887
-0.091029
-0.0784717
-0.0836743
-0.10868
-0.108523
-0.183917
-0.228951
-0.156839
-0.0884103
-0.0855301
-0.0543947
-0.0387277
-0.0211411
-0.0143253
-0.00930981
-0.00648192
-0.00399161
-0.00266328
-0.00102175
-0.335693
-0.251963
-0.166183
-0.101382
-0.0517394
-0.0221169
-0.0826897
-0.117552
-0.13374
-0.202342
-0.245889
-0.213749
-0.158838
-0.13064
-0.127285
-0.118461
-0.143787
-0.170091
-0.137625
-0.0848767
-0.0708112
-0.0631967
-0.0977791
-0.0992278
-0.182998
-0.22595
-0.149726
-0.068325
-0.0745109
-0.053645
-0.0375762
-0.0195779
-0.0134243
-0.00939468
-0.00652168
-0.00390924
-0.0026442
-0.00103387
-0.30855
-0.240744
-0.164925
-0.102284
-0.0554543
-0.0267214
-0.0462058
-0.087757
-0.100941
-0.168667
-0.223523
-0.203873
-0.155726
-0.124472
-0.116803
-0.113479
-0.143756
-0.173253
-0.135306
-0.0793823
-0.0648316
-0.057583
-0.0861353
-0.0870125
-0.177301
-0.219424
-0.142436
-0.052272
-0.0622466
-0.051833
-0.0358728
-0.0182224
-0.012582
-0.00940674
-0.00651204
-0.00384155
-0.00263008
-0.00103857
-0.29209
-0.242731
-0.176777
-0.116945
-0.068984
-0.0295943
-0.0312178
-0.0483334
-0.065888
-0.127737
-0.18234
-0.174183
-0.144801
-0.118322
-0.103225
-0.105138
-0.138255
-0.184309
-0.135547
-0.0760427
-0.0603333
-0.0529332
-0.0737241
-0.072833
-0.166956
-0.214264
-0.136937
-0.038832
-0.0502192
-0.0488397
-0.0340609
-0.0171016
-0.0117528
-0.00933466
-0.00647643
-0.00379911
-0.00263343
-0.00103648
-0.256567
-0.224055
-0.159381
-0.098109
-0.0463765
0.00358538
0.0602847
0.0444323
-0.0134914
-0.100594
-0.162461
-0.143667
-0.120784
-0.100567
-0.0850606
-0.0975454
-0.124328
-0.137376
-0.126524
-0.0704989
-0.0548319
-0.0527808
-0.0637002
-0.0643818
-0.151624
-0.198401
-0.131268
-0.0304195
-0.0403904
-0.0440596
-0.0308903
-0.0158729
-0.0109809
-0.0090979
-0.00627621
-0.00374196
-0.00263452
-0.00102119
-0.193938
-0.170572
-0.119401
-0.0689047
-0.0252536
0.0250975
0.0704393
0.0671036
0.0171085
-0.054484
-0.0821053
-0.0902213
-0.0857658
-0.0724313
-0.0601484
-0.0789774
-0.115523
-0.15333
-0.117797
-0.0577874
-0.0404099
-0.0389807
-0.0496077
-0.0478486
-0.129141
-0.190019
-0.119033
-0.0146111
-0.0312278
-0.038173
-0.0275229
-0.0136111
-0.0097388
-0.00867147
-0.00595383
-0.00367131
-0.00261593
-0.000994882
-0.151924
-0.139411
-0.10303
-0.060613
-0.0217036
0.0224994
0.0633438
0.0659466
0.0312376
-0.0175071
-0.0478856
-0.055433
-0.0586203
-0.0516409
-0.037737
-0.047418
-0.0811894
-0.10816
-0.0924893
-0.0441577
-0.0285234
-0.0326356
-0.0342831
-0.0300189
-0.0981004
-0.141161
-0.0892503
-0.00236715
-0.0223885
-0.0311224
-0.0230162
-0.0111783
-0.00882077
-0.00817108
-0.00548606
-0.00361007
-0.00267497
-0.000969831
-0.117628
-0.109821
-0.0826281
-0.0484006
-0.0162905
0.0158314
0.0436801
0.0516978
0.0315355
-0.000549239
-0.0205733
-0.0275185
-0.0318472
-0.0257414
-0.0128284
-0.0149713
-0.0416632
-0.0568011
-0.0577376
-0.0385079
-0.0231815
-0.0121933
-0.015843
-0.0140311
-0.0648704
-0.0913351
-0.0503925
0.00804854
-0.0113663
-0.0237917
-0.0186418
-0.00901451
-0.00747853
-0.00756323
-0.00487328
-0.00355335
-0.00278081
-0.000946072
-0.0906043
-0.0861015
-0.0678004
-0.0427972
-0.0188123
0.00439453
0.0244961
0.0331466
0.0243094
0.00650095
-0.00653588
-0.0123129
-0.015833
-0.0139631
0.000146405
0.0130671
0.00220335
-0.00467702
-0.0209274
-0.0331824
-0.0195147
-0.0145141
-0.00584794
-0.00245179
-0.0342329
-0.0431007
-0.00626755
0.0174898
0.000785302
-0.0164126
-0.0141407
-0.00703545
-0.0067066
-0.00692858
-0.00409156
-0.00346702
-0.00294042
-0.000929943
-0.0700734
-0.067675
-0.0555616
-0.037755
-0.0200927
-0.00373056
0.0104824
0.0181664
0.016386
0.00741354
0.000776904
-0.00214962
-0.00277748
0.00117431
0.011351
0.0223848
0.0108723
0.0116284
0.00176746
-0.0215603
-0.0127955
-0.00604406
0.00312363
0.00113102
-0.0171749
-0.00680161
0.0288295
0.0221348
0.0127426
-0.00980919
-0.010555
-0.00544408
-0.00600521
-0.00631082
-0.00311393
-0.00331816
-0.00313823
-0.000921648
-0.0535807
-0.0525617
-0.0449557
-0.0329774
-0.0205181
-0.0089435
0.00122294
0.00768511
0.00947187
0.0066593
0.003792
0.00274803
0.0029183
0.00543789
0.0138086
0.0243518
0.0189423
0.016492
0.0119715
-0.00637854
-0.0042711
-0.00276564
0.00885457
0.00840744
-0.0063568
0.0150575
0.0432871
0.0188879
0.0201909
-0.0052659
-0.00946378
-0.0041234
-0.00550962
-0.0058161
-0.00206314
-0.00309782
-0.00329683
-0.000903657
-0.0404685
-0.0405266
-0.0358509
-0.0280478
-0.019331
-0.0111412
-0.0038537
0.0013299
0.00442218
0.00434375
0.00410047
0.00471959
0.00658478
0.0099916
0.0154403
0.0222633
0.019491
0.0163238
0.0140365
0.00306419
0.00397435
0.00424708
0.0130094
0.012694
0.000161765
0.0209097
0.0396304
0.0193126
0.0234205
-0.00332334
-0.0110133
-0.00322393
-0.00524294
-0.00550661
-0.0013252
-0.00284046
-0.00335219
-0.000879281
-0.0305981
-0.0312111
-0.0286062
-0.0232691
-0.0172132
-0.0113571
-0.00592989
-0.00156325
0.00145512
0.00290031
0.00410942
0.00552069
0.0073891
0.00991575
0.0133524
0.0182358
0.0175512
0.0151589
0.0137041
0.00759517
0.00728431
0.00587847
0.0131243
0.0155213
0.00632454
0.0208707
0.0327193
0.0200021
0.0228721
-4.17076e-05
-0.00981187
-0.00224085
-0.00461406
-0.00492755
-0.000865787
-0.00249054
-0.0031417
-0.000794239
-0.0224501
-0.0232375
-0.0217761
-0.0184599
-0.0143629
-0.0102253
-0.00629153
-0.00293581
-0.000102824
0.00183491
0.00352299
0.00512787
0.00710408
0.00964042
0.0120121
0.0151376
0.0154504
0.0139427
0.0130324
0.00980503
0.0103146
0.0100363
0.0133349
0.0163996
0.0106884
0.0190931
0.0267789
0.0202201
0.0207831
0.00414233
-0.00577298
-0.00128716
-0.00343434
-0.00386716
-0.000598853
-0.00200983
-0.00265685
-0.000685842
-0.0159137
-0.0168288
-0.0160879
-0.0139817
-0.0112205
-0.00835006
-0.00552141
-0.00295323
-0.00056068
0.00135087
0.00310005
0.00481956
0.00662022
0.00868769
0.0103741
0.012435
0.0132529
0.012622
0.0121976
0.0106652
0.0109609
0.0109829
0.0129603
0.0158106
0.0131042
0.0175125
0.0222362
0.0189459
0.0183117
0.00754079
-0.00120913
8.95482e-06
-0.00183972
-0.00235778
-0.000281538
-0.00140679
-0.00201275
-0.000540662
-0.010727
-0.0115864
-0.0112611
-0.00994631
-0.00811312
-0.00612354
-0.00409484
-0.0021659
-0.00029285
0.00137334
0.00293791
0.0044714
0.0059933
0.00768354
0.00911437
0.0105684
0.0114986
0.0115025
0.0114386
0.010915
0.0113745
0.011787
0.0128722
0.0148298
0.0139025
0.0161324
0.018787
0.0170481
0.0161173
0.00940897
0.00238834
0.00134781
-0.000400843
-0.00102766
4.72275e-05
-0.000840657
-0.00138381
-0.000397503
-0.00649843
-0.00727486
-0.00721187
-0.00640845
-0.00518566
-0.0038186
-0.00240692
-0.00100771
0.000404986
0.00174318
0.00302145
0.00429845
0.00558438
0.0069411
0.00813951
0.00923518
0.0101034
0.0105071
0.0107233
0.0107395
0.0111801
0.0116125
0.0123162
0.0136597
0.0135582
0.0147882
0.0160481
0.0147134
0.0138636
0.00976256
0.00446074
0.0025585
0.000747225
-6.98297e-05
0.000355381
-0.000368683
-0.000860577
-0.000262558
-0.00310266
-0.00376469
-0.00382158
-0.00333684
-0.00254294
-0.0016305
-0.000673748
0.000320361
0.00135637
0.00237989
0.00337331
0.00437225
0.00540577
0.00647058
0.00745544
0.00833703
0.00911433
0.00968075
0.010056
0.0103307
0.0108016
0.0112583
0.0117553
0.0126106
0.0127213
0.0133412
0.0138462
0.0128222
0.0120287
0.00941648
0.00568753
0.003594
0.00172512
0.000714102
0.000676815
3.92271e-05
-0.000425963
-0.000133865
-0.000343057
-0.000880636
-0.00100015
-0.000731738
-0.000233238
0.000364344
0.00099973
0.00168187
0.0024124
0.00315518
0.00389258
0.0046394
0.00543424
0.00625948
0.00704228
0.0077662
0.00841852
0.00899828
0.00944674
0.00981007
0.0102479
0.0106554
0.0109973
0.0115569
0.0117047
0.0119375
0.0120351
0.011192
0.0104665
0.0087167
0.00611679
0.00426893
0.00251389
0.00135187
0.000980947
0.00037274
-8.89336e-05
-3.09879e-05
0.00189665
0.00146368
0.00131967
0.00145279
0.00175158
0.00212545
0.00252765
0.00297466
0.00346812
0.00398882
0.00450968
0.00504579
0.00562853
0.00624728
0.00685011
0.00742162
0.00796059
0.00847767
0.008911
0.00927522
0.00965405
0.0100042
0.0102665
0.0106004
0.0106996
0.0107121
0.0106285
0.00996875
0.00929404
0.00802748
0.00621002
0.0046823
0.00312628
0.00193764
0.00132462
0.000684719
0.000195342
6.55578e-05
0.00369316
0.00335648
0.00321342
0.00325927
0.00341868
0.00363312
0.00387012
0.00414752
0.00446244
0.00480635
0.00515425
0.0055189
0.00592416
0.00637088
0.00681701
0.00724801
0.00767109
0.00808811
0.00845925
0.00877682
0.00908541
0.0093603
0.00954621
0.00972318
0.00977321
0.00967765
0.00950112
0.00896515
0.00834522
0.00738979
0.00605998
0.00482201
0.0035192
0.00240716
0.00164746
0.000962827
0.000429071
0.000137501
0.00512964
0.0048711
0.0047363
0.00472566
0.00479044
0.00489464
0.00501547
0.00517052
0.0053534
0.00556422
0.00577817
0.00601388
0.00628039
0.00658176
0.0068904
0.007194
0.0075049
0.00781378
0.0081044
0.00834478
0.00857581
0.00876768
0.00889265
0.00897204
0.00896567
0.00882978
0.00860234
0.00816798
0.00760977
0.00685313
0.00585997
0.00485288
0.00376508
0.00276533
0.001952
0.00122243
0.000637104
0.000207149
0.00625798
0.00605999
0.00593746
0.00589176
0.00589346
0.00592174
0.00596221
0.0060307
0.0061184
0.00623123
0.00634437
0.00648047
0.00663707
0.00682564
0.00702015
0.00721618
0.00742494
0.00762883
0.00782958
0.00798974
0.00814828
0.00826466
0.00833227
0.00834821
0.00829248
0.00814712
0.00789683
0.00752801
0.00703898
0.00641236
0.00564207
0.00479357
0.00387739
0.00300498
0.00218545
0.00143859
0.000819961
0.000270763
0.00712182
0.00696901
0.00685785
0.00679075
0.00675132
0.00672886
0.00671605
0.00672328
0.00674511
0.0067849
0.00682726
0.00688682
0.0069621
0.00706107
0.0071672
0.00727643
0.00739735
0.00751529
0.00763396
0.0077247
0.00781166
0.0078649
0.00787951
0.00785327
0.00776054
0.00760605
0.00736605
0.00703065
0.00660103
0.00606184
0.00542629
0.00471471
0.00392197
0.00314564
0.00236804
0.00161334
0.000958281
0.000323496
0.00775507
0.00763356
0.0075313
0.00745185
0.00738647
0.0073317
0.00728427
0.00725008
0.00722738
0.00721597
0.00721035
0.00721491
0.00723286
0.00726487
0.00730486
0.00734884
0.00739999
0.0074525
0.00750215
0.00753727
0.0075637
0.00756619
0.00753814
0.00747356
0.00735906
0.00719409
0.00695816
0.00665045
0.00626117
0.00578635
0.00523604
0.00460911
0.00391393
0.00320433
0.00246727
0.00172545
0.00103823
0.000350367
0.00817749
0.0080756
0.00797994
0.00789378
0.00781341
0.00774001
0.0076714
0.00761262
0.00756076
0.00751825
0.00748023
0.00745091
0.00742976
0.0074183
0.00741374
0.00741253
0.00741738
0.00742096
0.007425
0.00741705
0.00740159
0.00736739
0.00730705
0.00721808
0.00708504
0.00691147
0.00667862
0.00638588
0.00602417
0.00559066
0.00508916
0.00452093
0.00388968
0.00322108
0.00252304
0.00179704
0.00108144
0.000365061
0.00839233
0.00830018
0.00820836
0.00811961
0.00803296
0.00795114
0.00787316
0.00780222
0.00773643
0.00767795
0.00762438
0.00757774
0.00753707
0.00750318
0.00747513
0.00745078
0.00743037
0.00740903
0.00738722
0.00735696
0.00731826
0.00726369
0.00718683
0.00708302
0.00694113
0.00676153
0.00652985
0.00624541
0.00589639
0.00548401
0.00500874
0.00446856
0.00386949
0.00322302
0.00254381
0.00182974
0.0011031
0.000371756
-0.164107
-0.175765
-0.188179
-0.198262
-0.210954
-0.217158
-0.22863
-0.235027
-0.135964
-0.142668
-0.149901
-0.155871
-0.161569
-0.165175
-0.170045
-0.179289
-0.110094
-0.113876
-0.117121
-0.120909
-0.124799
-0.129923
-0.13411
-0.141618
-0.0895512
-0.0913294
-0.0929723
-0.0962936
-0.0992254
-0.10274
-0.104941
-0.109765
-0.071589
-0.0725512
-0.0733925
-0.0754107
-0.0767727
-0.0785678
-0.0801581
-0.0842145
-0.0570069
-0.0571693
-0.0572597
-0.0581936
-0.0589826
-0.0603481
-0.0618666
-0.0651825
-0.0446927
-0.0444316
-0.0442232
-0.044708
-0.045306
-0.0462959
-0.0474129
-0.0498917
-0.0346089
-0.0341745
-0.0338221
-0.0339943
-0.0343292
-0.0349315
-0.0356801
-0.0375194
-0.0262742
-0.0257717
-0.0253277
-0.0252546
-0.0253624
-0.0257295
-0.0263952
-0.0280476
-0.0193486
-0.0188579
-0.0184056
-0.0182361
-0.0182883
-0.0186102
-0.0192196
-0.0204992
-0.0136567
-0.0132513
-0.0128697
-0.0126895
-0.012697
-0.0129002
-0.0133311
-0.0143136
-0.00896845
-0.00865592
-0.00834043
-0.00814981
-0.00810989
-0.00824239
-0.00860374
-0.00942026
-0.00510169
-0.00488075
-0.00464493
-0.00449026
-0.0044553
-0.00455637
-0.00483868
-0.00547106
-0.00192256
-0.00178768
-0.00163112
-0.00151955
-0.00148935
-0.00156216
-0.00178627
-0.00228821
0.000684772
0.000745438
0.000831055
0.000895472
0.000905047
0.000838082
0.000657991
0.000276114
0.00279537
0.00279855
0.0028271
0.00285096
0.00284367
0.00278702
0.00264997
0.00236517
0.00450067
0.0044654
0.00445371
0.00444635
0.00442283
0.00436719
0.00425537
0.00404142
0.00586382
0.00580279
0.00576183
0.00572916
0.0056904
0.00563304
0.00554078
0.0053828
0.00693625
0.00685992
0.00680024
0.00674994
0.00669965
0.00663984
0.00656057
0.00644173
0.00775827
0.00767428
0.00760336
0.00754162
0.0074828
0.00742091
0.0073497
0.00725785
0.00835904
0.00827286
0.00819651
0.00812842
0.00806437
0.00800124
0.00793483
0.00786016
0.00875544
0.00867057
0.00859295
0.00852201
0.00845553
0.00839168
0.00832822
0.00826314
0.0089519
0.00887182
0.0087959
0.0087246
0.00865714
0.00859283
0.00853038
0.00846927
0.00885522
0.0110151
0.0120837
0.0113727
0.00838931
0.00313005
-0.00453019
-0.0152237
-0.0300946
-0.0507732
-0.0795102
-0.119463
-0.175728
-0.251856
-0.32328
-0.01807
-0.0187724
-0.0223642
-0.0280601
-0.0356754
-0.0455474
-0.0583122
-0.0749111
-0.096635
-0.125219
-0.163039
-0.213256
-0.281126
-0.370871
-0.448544
-0.0434645
-0.0477757
-0.0560892
-0.0664202
-0.0783617
-0.0926202
-0.11021
-0.132257
-0.160138
-0.195694
-0.241495
-0.300769
-0.377755
-0.479729
-0.555564
-0.0696957
-0.0775689
-0.0895349
-0.103356
-0.118896
-0.137118
-0.159114
-0.186008
-0.219225
-0.26068
-0.313035
-0.379955
-0.46422
-0.570409
-0.642495
-0.0968349
-0.107912
-0.122449
-0.138705
-0.157056
-0.178616
-0.204372
-0.235326
-0.272843
-0.318974
-0.376176
-0.448413
-0.537265
-0.641507
-0.707733
-0.122805
-0.136933
-0.153535
-0.171797
-0.192576
-0.216929
-0.245678
-0.279737
-0.320375
-0.369754
-0.430334
-0.505139
-0.594529
-0.693058
-0.75076
-0.14706
-0.163748
-0.182015
-0.202103
-0.225097
-0.251735
-0.282728
-0.319009
-0.36183
-0.412975
-0.474735
-0.549178
-0.635648
-0.724744
-0.772749
-0.169348
-0.187625
-0.207564
-0.229721
-0.254753
-0.283245
-0.315861
-0.353486
-0.39728
-0.448709
-0.50963
-0.581211
-0.661277
-0.737216
-0.776401
0.184053
0.198522
0.214821
0.233339
0.25408
0.276904
0.301713
0.328463
0.357072
0.387271
0.418454
0.449414
0.478113
0.500479
0.518706
0.176356
0.189459
0.204599
0.222172
0.241957
0.263633
0.287045
0.312156
0.338873
0.366873
0.395455
0.423293
0.448176
0.466065
0.479884
0.164461
0.175462
0.188866
0.204945
0.223146
0.2429
0.263959
0.28625
0.309635
0.333703
0.357619
0.379883
0.398002
0.408045
0.414508
0.148364
0.156729
0.167934
0.181944
0.197832
0.214841
0.232649
0.251125
0.270024
0.288768
0.306302
0.320882
0.329633
0.328533
0.325219
0.128212
0.13372
0.142662
0.154398
0.167442
0.180875
0.194408
0.207939
0.221147
0.233268
0.242975
0.248218
0.245701
0.231128
0.21516
0.104263
0.106307
0.112797
0.122161
0.132171
0.141721
0.150529
0.158476
0.165137
0.169572
0.170218
0.164725
0.149358
0.119555
0.0888166
0.0772774
0.0764879
0.0806327
0.0868536
0.092847
0.0977519
0.101373
0.103426
0.103195
0.0994757
0.0904479
0.0734629
0.0443944
-0.00135103
-0.0473753
0.0455287
0.0438536
0.0472361
0.0504104
0.0518605
0.051467
0.0493062
0.0449565
0.0374234
0.0252216
0.0062674
-0.02241
-0.0654048
-0.126986
-0.187283
0.0261708
0.030578
0.0269131
0.0308307
0.0283907
0.03268
0.030907
0.0353036
0.0346327
0.0391261
0.0398662
0.0446522
0.047143
0.0527377
0.0573906
0.0646343
0.0719304
0.0818127
0.0927121
0.106584
0.122311
0.141707
0.163921
0.026117
0.0304869
0.0268603
0.0307178
0.0283229
0.0325411
0.0308138
0.0351085
0.0344809
0.0388756
0.0395985
0.0442727
0.0467616
0.0522297
0.0567698
0.0639088
0.0708352
0.0805299
0.0908173
0.10424
0.118936
0.137449
0.15805
0.026073
0.0303705
0.0268251
0.0305759
0.0282811
0.0323698
0.0307639
0.0348775
0.0343639
0.0386135
0.0393699
0.0439076
0.0463807
0.051607
0.0560827
0.0630464
0.0695617
0.0790131
0.0884514
0.101234
0.114461
0.131513
0.149305
0.0260379
0.0302307
0.0268047
0.0304088
0.0282604
0.0321718
0.0307167
0.0346193
0.0342705
0.03833
0.0391653
0.0435512
0.0460633
0.0512055
0.055479
0.0622932
0.068226
0.0773898
0.0856719
0.0975716
0.108681
0.12362
0.137475
0.0260119
0.0300711
0.0268021
0.030221
0.0282583
0.0319495
0.0306976
0.0343411
0.0341967
0.038007
0.0389722
0.0430921
0.0456311
0.0503486
0.0547055
0.0611292
0.0665289
0.0750946
0.0822377
0.0929134
0.101661
0.113741
0.122376
0.0259899
0.0298945
0.026803
0.0300181
0.0282673
0.0317131
0.0307058
0.034076
0.034141
0.0377154
0.0388333
0.0428197
0.0454525
0.0501528
0.0541222
0.0603163
0.0650332
0.0730946
0.0786044
0.0878411
0.0932104
0.102076
0.104583
0.0259771
0.0297034
0.0268121
0.0298075
0.0282848
0.0314669
0.0307004
0.0337794
0.034078
0.0373573
0.0386352
0.0423003
0.0449712
0.04913
0.0531353
0.0586032
0.0629236
0.0698308
0.074213
0.0813882
0.0840054
0.0879008
0.0839059
0.0259612
0.0295054
0.0268219
0.0295988
0.028306
0.0312413
0.0307475
0.0335781
0.0340575
0.0371651
0.0386099
0.0422417
0.0448774
0.0491118
0.0527412
0.0579656
0.0614534
0.0676774
0.0697552
0.0748642
0.0724572
0.0728094
0.0596108
0.0259418
0.0292423
0.0268424
0.0292995
0.0283196
0.0308654
0.0306978
0.0331055
0.0338938
0.0365713
0.0382123
0.0413955
0.0438782
0.0472748
0.0507407
0.0544217
0.0575067
0.0609851
0.0619301
0.0627086
0.0574802
0.0487333
0.0283052
0.0259253
0.0288828
0.026872
0.0288949
0.0283088
0.0303188
0.0305786
0.0324299
0.0335229
0.0355271
0.037315
0.0396838
0.0421373
0.0446478
0.0475207
0.049654
0.0516398
0.05248
0.051828
0.048217
0.041566
0.029703
0.0136185
0.0259269
0.0284449
0.0269182
0.0284103
0.0283134
0.029685
0.0304296
0.03167
0.0330417
0.0344989
0.0363321
0.0381279
0.040192
0.0418564
0.0438919
0.0447403
0.0453899
0.0442803
0.0418922
0.0362924
0.0285587
0.0167419
0.00164795
0.0259472
0.027919
0.0269828
0.027861
0.0282816
0.0290808
0.0301494
0.0309511
0.0324181
0.033408
0.0351518
0.0363108
0.0379409
0.0389102
0.039896
0.039739
0.0390412
0.0365101
0.0327707
0.0262854
0.0180261
0.00683158
-0.00697433
0.0259896
0.0272973
0.0270227
0.0273514
0.0281324
0.0285216
0.0297438
0.030207
0.0316128
0.0322757
0.0337286
0.0343904
0.0354085
0.0358228
0.0357364
0.0347029
0.0329352
0.0294122
0.0248447
0.0181519
0.010048
-0.000188296
-0.0125348
0.0260488
0.0266488
0.0269527
0.0268895
0.0278883
0.0279701
0.0292003
0.0294473
0.0306318
0.031051
0.0321052
0.0323313
0.032716
0.0326017
0.031607
0.0298063
0.0273067
0.0232779
0.0183578
0.0118868
0.00435231
-0.00476234
-0.0154988
0.0260782
0.0260223
0.0267674
0.0264628
0.0275295
0.0274222
0.0285168
0.0286493
0.0294941
0.0297235
0.0303317
0.0301433
0.0299584
0.029323
0.0276582
0.0253058
0.0223802
0.0182342
0.0133083
0.00731289
0.000597371
-0.00725413
-0.0163102
0.026054
0.0254346
0.0264737
0.0260553
0.0270486
0.0268637
0.0277067
0.0277834
0.0282475
0.0282845
0.0284593
0.0278775
0.0272194
0.0261285
0.0240278
0.0213688
0.0182552
0.0142573
0.00961446
0.00425764
-0.00151595
-0.0080605
-0.01551
0.0259489
0.024907
0.0260606
0.0256539
0.0264536
0.0262809
0.0268046
0.0268244
0.0269314
0.0267504
0.0265385
0.025613
0.0245846
0.0231506
0.0208334
0.0180762
0.0149742
0.0112945
0.00713455
0.00251045
-0.00232332
-0.00764822
-0.0136591
0.0257452
0.0244507
0.02553
0.0252394
0.0257665
0.0256291
0.0258471
0.0257646
0.0255733
0.0251611
0.024624
0.0234359
0.0221422
0.0204987
0.0181368
0.0154489
0.0125207
0.00925065
0.00566176
0.0017894
-0.00217265
-0.00643122
-0.0112085
0.0254314
0.0240634
0.0249028
0.0247834
0.0250302
0.0248948
0.0248579
0.0246244
0.0241949
0.0235645
0.0227743
0.0214201
0.0199702
0.018239
0.0159597
0.0134618
0.0108154
0.00799002
0.00497905
0.00181445
-0.00137283
-0.00473688
-0.00849755
0.0250046
0.02373
0.0242158
0.0242243
0.024272
0.0240855
0.0238502
0.0234443
0.0228249
0.0220207
0.0210498
0.0196242
0.018117
0.0164015
0.0142893
0.012051
0.00974121
0.00735725
0.00488329
0.00234301
-0.000183061
-0.00281661
-0.00575904
0.0244737
0.023422
0.0235309
0.0235424
0.0234864
0.0232238
0.0228343
0.0222692
0.0215052
0.0205826
0.0195037
0.0180794
0.0165975
0.0149743
0.0130788
0.0111308
0.00916946
0.00719584
0.00519257
0.00317663
0.00119445
-0.000854491
-0.00314676
0.023861
0.0230704
0.0228938
0.0227834
0.0226572
0.0223156
0.0218173
0.0211384
0.0202771
0.0192895
0.0181681
0.0167999
0.0154014
0.013919
0.0122648
0.0106089
0.00897645
0.00736524
0.00575875
0.00417009
0.00262361
0.00103511
-0.000744518
0.023196
0.022626
0.0222969
0.0220524
0.021809
0.021383
0.0208134
0.0200727
0.0191684
0.0181639
0.0170537
0.0157787
0.0145001
0.0131847
0.0117724
0.0103884
0.00904806
0.00774543
0.0064658
0.00521933
0.00401666
0.00278864
0.00141318
0.0225112
0.0220947
0.021715
0.021351
0.0209746
0.0204691
0.019849
0.0190843
0.0181843
0.0172082
0.0161558
0.0150008
0.0138612
0.0127173
0.0115271
0.0103806
0.00928656
0.00823699
0.00721964
0.00624196
0.00530692
0.00435834
0.00329943
0.02183
0.0215053
0.0211132
0.0206721
0.0201885
0.0196149
0.018958
0.0181947
0.0173311
0.0164171
0.0154558
0.0144369
0.0134433
0.012463
0.011466
0.010516
0.00961898
0.00876847
0.00795594
0.00718655
0.00645822
0.00572544
0.00491579
0.0211691
0.0208941
0.0204993
0.020017
0.0194694
0.018849
0.0181705
0.0174237
0.0166131
0.0157767
0.0149201
0.014039
0.0131874
0.0123563
0.0115244
0.0107343
0.00999142
0.00929413
0.00863845
0.00802722
0.00745511
0.0068878
0.00627212
0.0205434
0.0202936
0.0198995
0.0194009
0.0188265
0.0181871
0.0175045
0.0167845
0.0160328
0.0152765
0.0145213
0.0137647
0.0130375
0.0123335
0.011639
0.0109801
0.010361
0.00978342
0.00924678
0.00875276
0.00829651
0.00785301
0.00738524
0.0199731
0.0197371
0.0193472
0.0188457
0.0182674
0.0176322
0.0169626
0.0162772
0.0155846
0.0149018
0.0142337
0.0135792
0.0129551
0.0123564
0.0117743
0.0112231
0.0107055
0.010223
0.00977602
0.00936639
0.00899131
0.0086352
0.00827463
0.019486
0.0192595
0.0188763
0.01838
0.01781
0.0171917
0.0165453
0.0158934
0.0152503
0.0146258
0.0140231
0.0134456
0.012902
0.0123873
0.011895
0.0114321
0.0109999
0.0105975
0.0102228
0.00987569
0.00955599
0.00925767
0.00897024
0.0191157
0.0188946
0.0185197
0.0180323
0.0174742
0.016876
0.0162549
0.0156335
0.0150304
0.014452
0.0138989
0.0133761
0.0128879
0.0124303
0.0119973
0.0115898
0.0112093
0.0108564
0.0105301
0.0102289
0.00995165
0.00969571
0.00945744
0.0189132
0.0186968
0.0183243
0.0178384
0.0172832
0.0166932
0.0160854
0.0154794
0.0148955
0.0143417
0.0138191
0.0133299
0.0128759
0.0124535
0.0120566
0.0116832
0.0113354
0.0110154
0.010723
0.010456
0.0102115
0.0099878
0.00978525
0.00498704
-0.0202075
-0.0446555
-0.0669341
-0.08958
-0.111415
-0.131953
-0.149351
-0.00410613
-0.026774
-0.052091
-0.0714872
-0.0872882
-0.102144
-0.115908
-0.127068
-0.0132472
-0.0314026
-0.051898
-0.066628
-0.0767993
-0.0867012
-0.0961437
-0.104189
-0.0203277
-0.0348304
-0.0495677
-0.0606228
-0.0680659
-0.0750461
-0.0812403
-0.0864307
-0.0245032
-0.0358807
-0.0456465
-0.0530315
-0.0581994
-0.0628379
-0.0666049
-0.0697483
-0.0259225
-0.0346039
-0.0406579
-0.0451842
-0.0487354
-0.0519372
-0.0543685
-0.0562241
-0.0251108
-0.0316076
-0.0350971
-0.0375877
-0.039889
-0.0420501
-0.0435806
-0.0445385
-0.0227648
-0.027583
-0.0293947
-0.0305141
-0.0318752
-0.0333058
-0.0342853
-0.0347473
-0.0195199
-0.0230748
-0.0238493
-0.0241029
-0.0247886
-0.0257025
-0.026339
-0.0265401
-0.0158666
-0.0184822
-0.0186575
-0.0184039
-0.0186254
-0.0191671
-0.0195748
-0.0196444
-0.0121555
-0.0140766
-0.0139344
-0.0134189
-0.0133436
-0.0136232
-0.0138828
-0.0139064
-0.00860616
-0.0100152
-0.00972934
-0.00911382
-0.00887048
-0.00897497
-0.00913684
-0.00915166
-0.00534674
-0.00638056
-0.00605474
-0.00543212
-0.0051047
-0.00509991
-0.00519901
-0.0052196
-0.00243272
-0.00318881
-0.00287561
-0.00230169
-0.00194974
-0.00188189
-0.00194333
-0.00197883
0.000126736
-0.000425797
-0.000153311
0.000338364
0.000669674
0.000766364
0.000729432
0.000680878
0.00233072
0.00193078
0.00215112
0.00254592
0.00282717
0.00292271
0.00289398
0.00283223
0.00419526
0.00390763
0.0040735
0.00437118
0.00458939
0.00466535
0.0046348
0.00456366
0.00574291
0.00553696
0.00565203
0.00586095
0.00601403
0.00606105
0.00602209
0.00594337
0.00700045
0.00685225
0.00692257
0.0070548
0.00714673
0.00716131
0.00711014
0.00702517
0.00799328
0.00788226
0.00791345
0.00798192
0.00802058
0.00800442
0.00794068
0.00785143
0.0087565
0.00866156
0.00865328
0.00866635
0.00865935
0.0086167
0.00854285
0.00845217
0.00928429
0.00919311
0.00915021
0.00911875
0.00907612
0.00901379
0.00893418
0.00884525
0.00963041
0.00952172
0.00943183
0.00935285
0.00927711
0.00919944
0.00911825
0.00903484
-0.370204
-0.377946
-0.386997
-0.398646
-0.414677
-0.435888
-0.459988
-0.481258
-0.37172
-0.377252
-0.38357
-0.392329
-0.404746
-0.420683
-0.439063
-0.455923
-0.371456
-0.375424
-0.379241
-0.384965
-0.393907
-0.405176
-0.415471
-0.420706
-0.369294
-0.371567
-0.372769
-0.374788
-0.378233
-0.381762
-0.382333
-0.376795
-0.363017
-0.363529
-0.361701
-0.359099
-0.356186
-0.352187
-0.3452
-0.332854
-0.351049
-0.349494
-0.344541
-0.33773
-0.329914
-0.320942
-0.309374
-0.293171
-0.33257
-0.329195