/*--------------------------------*- C++ -*----------------------------------*\
| =========                 |                                                 |
| \\      /  F ield         | OpenFOAM: The Open Source CFD Toolbox           |
|  \\    /   O peration     | Version:  2312                                  |
|   \\  /    A nd           | Website:  www.openfoam.com                      |
|    \\/     M anipulation  |                                                 |
\*---------------------------------------------------------------------------*/
FoamFile
{
    version     2.0;
    format      ascii;
    arch        "LSB;label=32;scalar=64";
    class       volScalarField;
    location    "118.65";
    object      p;
}
// * * * * * * * * * * * * * * * * * * * * * * * * * * * * * * * * * * * * * //

dimensions      [0 2 -2 0 0 0 0];

internalField   nonuniform List<scalar> 
5478
(
-0.337889
-0.339148
-0.337683
-0.333674
-0.32558
-0.312831
-0.295742
-0.275862
-0.255289
-0.23588
-0.218875
-0.204008
-0.191354
-0.179283
-0.168026
-0.345221
-0.344568
-0.342141
-0.337335
-0.328653
-0.315005
-0.296796
-0.275899
-0.254418
-0.233905
-0.215074
-0.19818
-0.183154
-0.169364
-0.15674
-0.35475
-0.351492
-0.346993
-0.340396
-0.32971
-0.313809
-0.293639
-0.271339
-0.248906
-0.227668
-0.208281
-0.190841
-0.175042
-0.160242
-0.146424
-0.367119
-0.360901
-0.353754
-0.344239
-0.329788
-0.31024
-0.287491
-0.2638
-0.240824
-0.219444
-0.199851
-0.181963
-0.165489
-0.150383
-0.136781
-0.383945
-0.374187
-0.363954
-0.349636
-0.329393
-0.305162
-0.279641
-0.254665
-0.231192
-0.209562
-0.189827
-0.171895
-0.155522
-0.14059
-0.126659
-0.406441
-0.391392
-0.377003
-0.355384
-0.327792
-0.298535
-0.270209
-0.243846
-0.219748
-0.197926
-0.178221
-0.160372
-0.144144
-0.129442
-0.115776
-0.432389
-0.411646
-0.38958
-0.358373
-0.323122
-0.289079
-0.258066
-0.230316
-0.205597
-0.183579
-0.163955
-0.146479
-0.130899
-0.116921
-0.103898
-0.456077
-0.431055
-0.397433
-0.355338
-0.313044
-0.274883
-0.241583
-0.212692
-0.187556
-0.165614
-0.146405
-0.129555
-0.114806
-0.101821
-0.0901572
-0.482158
-0.484293
-0.487485
-0.495041
-0.506557
-0.520642
-0.535206
-0.54763
-0.553496
-0.552431
-0.541452
-0.520057
-0.490276
-0.455812
-0.419613
-0.443026
-0.444541
-0.44474
-0.446797
-0.450395
-0.4541
-0.456125
-0.454341
-0.44804
-0.435867
-0.41778
-0.394914
-0.371006
-0.352081
-0.329107
-0.409439
-0.410336
-0.408413
-0.40632
-0.403752
-0.399464
-0.392294
-0.381056
-0.365401
-0.345721
-0.323852
-0.302212
-0.280546
-0.279974
-0.267206
-0.382483
-0.383186
-0.380334
-0.375854
-0.369471
-0.360318
-0.347345
-0.330287
-0.309598
-0.286451
-0.26274
-0.246779
-0.226677
-0.231245
-0.232862
-0.361656
-0.362698
-0.35985
-0.354327
-0.345739
-0.333384
-0.316968
-0.296702
-0.273587
-0.249917
-0.226627
-0.213267
-0.199257
-0.20308
-0.213424
-0.34635
-0.348024
-0.345498
-0.339523
-0.329614
-0.31548
-0.297298
-0.27581
-0.252613
-0.230178
-0.210385
-0.198644
-0.191344
-0.193738
-0.205412
-0.336848
-0.339033
-0.336875
-0.33108
-0.321145
-0.306977
-0.288997
-0.268405
-0.246846
-0.22658
-0.210268
-0.199359
-0.194253
-0.194253
-0.199367
-0.334157
-0.336318
-0.334667
-0.329758
-0.321103
-0.308031
-0.290992
-0.271344
-0.251
-0.231991
-0.216487
-0.204383
-0.196274
-0.190513
-0.186074
-0.390485
-0.416729
-0.45566
-0.434406
-0.319502
-0.216772
-0.167084
-0.152109
-0.158984
-0.164911
-0.153557
-0.150517
-0.147362
-0.129737
-0.101744
-0.111243
-0.13449
-0.150543
-0.123875
-0.110458
-0.124003
-0.158018
-0.121532
-0.1219
-0.152233
-0.174953
-0.136894
-0.155232
-0.0953701
-0.0661133
-0.0387485
-0.0141906
-0.0123057
-0.0109145
-0.00638865
-0.00350676
-0.00196074
-0.000429372
-0.347689
-0.436822
-0.491007
-0.465751
-0.344964
-0.230316
-0.166448
-0.142565
-0.131526
-0.124272
-0.125478
-0.13907
-0.143257
-0.12573
-0.0982566
-0.107434
-0.129271
-0.14442
-0.125431
-0.11742
-0.139245
-0.171991
-0.118713
-0.112534
-0.133959
-0.150896
-0.152777
-0.176006
-0.0944135
-0.0623469
-0.0384573
-0.0155591
-0.0125391
-0.0104171
-0.0062439
-0.00359701
-0.00201639
-0.000440809
-0.294451
-0.42389
-0.506953
-0.470436
-0.35173
-0.233615
-0.163786
-0.136582
-0.116784
-0.0982552
-0.0957452
-0.12809
-0.13807
-0.121688
-0.0963449
-0.104372
-0.124317
-0.1365
-0.125333
-0.122296
-0.153362
-0.182834
-0.114935
-0.102122
-0.116254
-0.125779
-0.164844
-0.191095
-0.0920024
-0.0607874
-0.0376235
-0.016752
-0.0126407
-0.00989365
-0.00605874
-0.00368195
-0.00207322
-0.000449562
-0.255876
-0.373929
-0.461393
-0.432354
-0.330444
-0.227667
-0.160057
-0.13154
-0.112163
-0.0894077
-0.0859524
-0.120819
-0.133361
-0.117489
-0.095734
-0.102357
-0.119219
-0.127745
-0.123418
-0.124442
-0.165379
-0.191002
-0.112051
-0.0914033
-0.100276
-0.101144
-0.172493
-0.199684
-0.0891949
-0.0545996
-0.0362302
-0.0176934
-0.0126188
-0.00938361
-0.00584486
-0.00375292
-0.002123
-0.000455199
-0.233294
-0.321157
-0.400273
-0.380405
-0.300575
-0.218019
-0.157752
-0.127617
-0.110014
-0.0924625
-0.0905715
-0.12297
-0.130575
-0.115376
-0.0979551
-0.103077
-0.115723
-0.119113
-0.11946
-0.123265
-0.174507
-0.196085
-0.110138
-0.0806069
-0.0868521
-0.0788701
-0.175603
-0.201232
-0.0866281
-0.0479019
-0.0343654
-0.0183043
-0.0124788
-0.00891281
-0.00562192
-0.00380452
-0.00215707
-0.000457364
-0.219527
-0.271951
-0.331349
-0.319528
-0.264615
-0.20279
-0.153058
-0.123377
-0.10625
-0.0962194
-0.101902
-0.130603
-0.130957
-0.11508
-0.101145
-0.103857
-0.110729
-0.110365
-0.113088
-0.118727
-0.179327
-0.198693
-0.110295
-0.0702996
-0.0764581
-0.060167
-0.174285
-0.19621
-0.0847819
-0.0411059
-0.0322158
-0.0185873
-0.0122551
-0.00850133
-0.00541216
-0.00383611
-0.00216831
-0.000455674
-0.203611
-0.224397
-0.262842
-0.264106
-0.234764
-0.190729
-0.14962
-0.12046
-0.10332
-0.0928432
-0.115968
-0.138817
-0.132129
-0.112129
-0.10368
-0.105097
-0.10954
-0.103128
-0.104654
-0.109535
-0.17988
-0.197145
-0.109223
-0.0613028
-0.0698479
-0.0446058
-0.169478
-0.186261
-0.0829148
-0.0350974
-0.0300068
-0.0185434
-0.0119364
-0.00813796
-0.00523666
-0.00385164
-0.00215088
-0.000449332
-0.182159
-0.188897
-0.207602
-0.212417
-0.201425
-0.175424
-0.143698
-0.118691
-0.103099
-0.082547
-0.119592
-0.154738
-0.139335
-0.113128
-0.106617
-0.101441
-0.102731
-0.0941776
-0.0945694
-0.096979
-0.17499
-0.196882
-0.11057
-0.0530352
-0.0659857
-0.031219
-0.160885
-0.174483
-0.0827963
-0.0289976
-0.0272712
-0.018154
-0.0116582
-0.00784864
-0.00515927
-0.00385738
-0.00210554
-0.00043821
-0.170484
-0.18245
-0.18489
-0.181371
-0.170518
-0.147891
-0.120097
-0.0996524
-0.0874677
-0.071569
-0.100739
-0.131764
-0.127316
-0.10672
-0.105351
-0.104663
-0.103745
-0.0850287
-0.081528
-0.0905428
-0.160891
-0.1847
-0.107706
-0.0452037
-0.0612782
-0.0265101
-0.145722
-0.155097
-0.0814604
-0.0256231
-0.0242936
-0.0170868
-0.0109705
-0.00744748
-0.00501957
-0.00383654
-0.00198915
-0.00041093
-0.137309
-0.148653
-0.14862
-0.139361
-0.126756
-0.109919
-0.0900098
-0.0770127
-0.0659237
-0.0544803
-0.0777581
-0.10957
-0.108929
-0.0895681
-0.0948397
-0.0997301
-0.0853523
-0.0663611
-0.0595056
-0.0721969
-0.143169
-0.17862
-0.0994253
-0.0332234
-0.0457517
-0.0157339
-0.12291
-0.147579
-0.0740884
-0.0200719
-0.0205827
-0.0156326
-0.0101117
-0.00680449
-0.0048827
-0.00381255
-0.00178399
-0.000353199
-0.112295
-0.12401
-0.123051
-0.114652
-0.104291
-0.0912842
-0.0756031
-0.0626005
-0.0481689
-0.0290947
-0.0242824
-0.0316939
-0.0412866
-0.0501739
-0.0733789
-0.0836764
-0.068725
-0.0492845
-0.0377758
-0.0453092
-0.108676
-0.141002
-0.0790509
-0.0222138
-0.0328092
-0.00879345
-0.096515
-0.115403
-0.0599939
-0.0159287
-0.017095
-0.0139373
-0.00911816
-0.00604799
-0.004924
-0.00384623
-0.0015079
-0.000266275
-0.088443
-0.0981574
-0.0977534
-0.0896885
-0.07879
-0.0650758
-0.0514141
-0.0396109
-0.0255904
-0.00811364
0.00572116
0.0235229
0.0192717
-0.0100494
-0.0445577
-0.0525527
-0.0425217
-0.0264852
-0.0131659
-0.0187049
-0.0668501
-0.0847782
-0.0523845
-0.0192907
-0.0213935
-0.00182836
-0.0627852
-0.0796636
-0.0447866
-0.0147502
-0.0137936
-0.0123939
-0.00820377
-0.00517091
-0.0050754
-0.00393866
-0.00116397
-0.000147765
-0.0663134
-0.0748246
-0.0754835
-0.0693484
-0.0605671
-0.0506032
-0.0396724
-0.0291348
-0.0154038
0.00433429
0.0251769
0.0495139
0.0476698
0.0142361
-0.0163963
-0.0263621
-0.0217572
-0.015434
0.000725457
0.00417956
-0.0198766
-0.0247809
-0.0252558
-0.0236779
-0.0133503
0.000524686
-0.0230583
-0.0336511
-0.0263759
-0.0156375
-0.0105351
-0.0113868
-0.00739497
-0.00407038
-0.00529751
-0.00412363
-0.000768531
-8.34775e-07
-0.0485208
-0.0559925
-0.0570589
-0.0525842
-0.0454136
-0.0365435
-0.0265058
-0.0160562
-0.00393322
0.0122086
0.0278088
0.043126
0.0480342
0.0255304
0.00272823
-0.00775107
-0.00468765
-0.000293358
0.0111014
0.0118796
0.00110024
0.00448442
-0.0072479
-0.0246878
-0.00655787
0.00590877
0.0127911
0.00512453
-0.00650568
-0.0147343
-0.00680037
-0.0110345
-0.00736061
-0.00280408
-0.00553994
-0.00439204
-0.000387477
0.000156322
-0.0346948
-0.0402728
-0.0412739
-0.0380472
-0.0323281
-0.0253113
-0.0176042
-0.00937384
-0.000193269
0.0120284
0.0242878
0.03464
0.0392814
0.0273782
0.0122542
0.00302202
0.00431
0.00530565
0.0142844
0.0173187
0.0120564
0.0145744
0.00471425
-0.0121005
0.000570089
0.0117542
0.0356545
0.0289242
0.00776764
-0.0124857
-0.00379297
-0.0110885
-0.00826175
-0.00164955
-0.00570989
-0.00468163
-5.18228e-05
0.000295279
-0.0228257
-0.0272245
-0.0284458
-0.0263631
-0.0221097
-0.0167352
-0.0108108
-0.00423528
0.00297281
0.0118044
0.0202444
0.0269605
0.0302005
0.0246889
0.0162695
0.00937663
0.0108779
0.0120572
0.016656
0.0188512
0.0120539
0.014444
0.0121111
0.00148345
0.00838125
0.0170167
0.0398324
0.0326121
0.0127184
-0.00740513
-0.00279249
-0.011023
-0.009191
-0.00103512
-0.00568578
-0.00482141
0.000211914
0.000384417
-0.0135406
-0.0171357
-0.0182342
-0.0168363
-0.0137428
-0.00975888
-0.00535628
-0.000477012
0.00466651
0.01058
0.0162664
0.0208979
0.0231553
0.0211056
0.017275
0.012679
0.0131718
0.0135269
0.0159544
0.0184374
0.0151014
0.0153538
0.0150582
0.00865467
0.0134446
0.0190021
0.0355511
0.0329657
0.0149277
-0.00052928
-0.000663294
-0.00923631
-0.00839706
-0.000668356
-0.00510719
-0.00443414
0.000407222
0.000431345
-0.00654793
-0.00913865
-0.0100166
-0.0091933
-0.00708933
-0.00427777
-0.00116815
0.00226342
0.00581944
0.00980803
0.0135639
0.0166918
0.0184876
0.0180352
0.0167225
0.014272
0.0145809
0.015295
0.016215
0.0176461
0.0157132
0.0156547
0.0158111
0.0133472
0.0169655
0.0201986
0.0296377
0.030739
0.0164035
0.00564787
0.00225622
-0.00570978
-0.00554564
-0.000336931
-0.00387668
-0.00336226
0.00049573
0.000424545
-0.000777866
-0.00277318
-0.00358602
-0.00318335
-0.00182258
9.98839e-05
0.00223126
0.00456901
0.00694335
0.00955669
0.0120307
0.0141589
0.0156008
0.0158393
0.0158154
0.0147952
0.0148443
0.0152625
0.0157287
0.0163892
0.0157874
0.0159007
0.0160809
0.0149476
0.0178975
0.0200313
0.0249997
0.0272122
0.0171177
0.00960392
0.00515974
-0.00188758
-0.00222213
0.000407485
-0.0022937
-0.0019748
0.000612315
0.000408608
0.00367563
0.00212041
0.00141123
0.00157451
0.00241006
0.00366067
0.00505734
0.00657492
0.00810887
0.00978952
0.0114346
0.0128799
0.014023
0.0145073
0.0148668
0.014654
0.0148084
0.0152538
0.0156272
0.0160583
0.0157849
0.0159478
0.0161555
0.0160784
0.0180912
0.0195052
0.0214918
0.0231088
0.0168901
0.0116808
0.00747521
0.00130323
0.000430121
0.00124883
-0.000878057
-0.000801664
0.00068235
0.000381891
0.00708024
0.0059081
0.00531642
0.00530961
0.00577348
0.00653398
0.00741501
0.0083621
0.00931671
0.0103575
0.011423
0.0124005
0.0132351
0.0137551
0.0142215
0.0144382
0.0146864
0.0149911
0.0153148
0.0155626
0.0155024
0.0157567
0.015952
0.0158809
0.0172958
0.0182437
0.0188177
0.0195131
0.0158495
0.0121178
0.00864324
0.00362498
0.00215549
0.00195357
0.000208035
-2.71788e-05
0.000736593
0.000354167
0.0097405
0.00883998
0.00832136
0.00819512
0.00840797
0.00885462
0.00938968
0.00994445
0.0104975
0.0111096
0.0117724
0.0124151
0.0129886
0.0134406
0.0138613
0.0141804
0.0144455
0.0146993
0.0149918
0.0152239
0.0152542
0.0154587
0.0156376
0.0157286
0.0164666
0.0169527
0.0168493
0.016868
0.0145686
0.011832
0.00916812
0.00524862
0.00335585
0.00255589
0.0010542
0.000594698
0.000814674
0.00035144
0.0117848
0.0110877
0.010647
0.010467
0.0105209
0.0107356
0.0110224
0.0113169
0.0116032
0.0119317
0.0123113
0.0127093
0.0130714
0.0133964
0.0137192
0.0140097
0.0142588
0.0144636
0.0146851
0.0148795
0.0149281
0.0150651
0.0151975
0.0152151
0.0154746
0.0155953
0.0152437
0.0148998
0.013296
0.0111873
0.0091806
0.00619577
0.00422556
0.0030948
0.00171015
0.00105313
0.000883538
0.000349865
0.0133451
0.0128078
0.012434
0.0122256
0.0121749
0.012239
0.01236
0.012482
0.0125924
0.0127335
0.0129178
0.0131337
0.013331
0.0135276
0.013735
0.0139452
0.0141234
0.0142643
0.0144068
0.0145468
0.0145801
0.0146324
0.014666
0.0146244
0.0146151
0.0145092
0.0140351
0.0134837
0.0122712
0.0106176
0.00901564
0.00675834
0.00492189
0.00361491
0.00228405
0.00146706
0.000993886
0.000366485
0.0145285
0.0141093
0.0137898
0.0135743
0.0134635
0.0134322
0.01344
0.0134457
0.0134413
0.0134582
0.0135093
0.0135896
0.0136617
0.013744
0.0138411
0.0139567
0.0140459
0.0141183
0.0141826
0.0142432
0.014226
0.0141998
0.0141458
0.0140144
0.013834
0.0135474
0.0130568
0.0124126
0.0114278
0.0100926
0.00872691
0.00700305
0.00538506
0.00404624
0.00276339
0.0018282
0.0011179
0.000382519
0.0154088
0.0150795
0.0148069
0.0145956
0.0144502
0.0143573
0.0142909
0.0142209
0.0141428
0.0140783
0.0140387
0.0140202
0.0139986
0.013989
0.0139905
0.0140149
0.0140152
0.0140131
0.0139928
0.0139748
0.0138973
0.0137954
0.0136607
0.0134513
0.0131909
0.0128268
0.012308
0.0116307
0.0107721
0.00967688
0.00848291
0.00709639
0.00569712
0.0043968
0.00315611
0.0021516
0.00127476
0.000417756
0.0160544
0.0157912
0.0155556
0.0153535
0.01519
0.0150596
0.0149451
0.0148263
0.0147008
0.0145829
0.0144821
0.0143937
0.0143034
0.0142218
0.0141461
0.014091
0.0140126
0.0139399
0.0138419
0.0137502
0.0136081
0.0134397
0.0132421
0.0129686
0.0126559
0.01223
0.0117142
0.0110646
0.0102667
0.00933577
0.00827235
0.00709648
0.00588075
0.00465612
0.0034607
0.00242852
0.0014432
0.00046163
0.016509
0.0162926
0.0160866
0.0158957
0.0157246
0.0155719
0.0154267
0.0152779
0.0151226
0.0149717
0.0148288
0.014693
0.0145531
0.0144185
0.0142853
0.0141641
0.0140248
0.0138873
0.0137305
0.0135715
0.0133765
0.0131509
0.0128998
0.0125799
0.0122254
0.0117785
0.0112549
0.0106293
0.00988872
0.00905674
0.00811423
0.00706359
0.00597038
0.00484143
0.00368471
0.00263231
0.00159881
0.000521147
0.0168164
0.0166319
0.0164478
0.016267
0.0160938
0.0159281
0.0157643
0.0155976
0.0154244
0.0152533
0.0150822
0.0149151
0.0147413
0.01457
0.0143954
0.0142244
0.0140413
0.013852
0.0136505
0.0134369
0.0131978
0.0129297
0.0126324
0.0122849
0.011896
0.0114373
0.0109117
0.0103044
0.00960729
0.0088324
0.00795917
0.00700287
0.00598869
0.00492328
0.00382138
0.00275105
0.00167738
0.000555471
0.0170057
0.016841
0.0166714
0.0164986
0.0163258
0.0161535
0.0159796
0.0158025
0.0156199
0.0154361
0.0152488
0.0150615
0.014867
0.0146723
0.0144701
0.0142679
0.014053
0.0138318
0.013596
0.013347
0.013077
0.0127776
0.0124529
0.0120814
0.0116734
0.0112066
0.0106789
0.0100855
0.00941192
0.00867155
0.00784567
0.00694621
0.00598209
0.00496407
0.00389944
0.00281738
0.00172241
0.000579035
0.0170917
0.016937
0.0167755
0.0166081
0.0164367
0.0162622
0.0160839
0.0159025
0.015716
0.0155269
0.0153319
0.0151348
0.0149305
0.014724
0.0145089
0.01429
0.0140596
0.0138207
0.0135675
0.0132997
0.0130125
0.0126982
0.0123567
0.0119749
0.0115553
0.0110848
0.0105579
0.00996876
0.00930905
0.0085855
0.0077828
0.00691195
0.00597324
0.0049785
0.00393535
0.00285011
0.00174211
0.000589223
-0.0761513
-0.0870759
-0.0976922
-0.107877
-0.118519
-0.12832
-0.139404
-0.153556
-0.061416
-0.0695644
-0.0776494
-0.0858017
-0.0942487
-0.10266
-0.110423
-0.12122
-0.0474446
-0.0532329
-0.0588451
-0.0646774
-0.070919
-0.0772676
-0.0842642
-0.094764
-0.0364386
-0.040568
-0.0446127
-0.0488807
-0.0540135
-0.05969
-0.0666213
-0.0754364
-0.0268525
-0.0299345
-0.0330032
-0.0364334
-0.0407073
-0.0452168
-0.0500599
-0.0561591
-0.0190425
-0.0212505
-0.02348
-0.0259316
-0.0288112
-0.0316923
-0.035051
-0.0400668
-0.0123653
-0.0138281
-0.0152383
-0.0167757
-0.018684
-0.0208962
-0.0239518
-0.0282375
-0.00662544
-0.00751614
-0.00837535
-0.00946526
-0.0110779
-0.0130712
-0.0153908
-0.0182889
-0.00177375
-0.00237013
-0.00300206
-0.0038689
-0.00502977
-0.00624158
-0.007667
-0.00987411
0.00222751
0.00182761
0.00144816
0.000963542
0.000296011
-0.000567954
-0.00183234
-0.00374248
0.0056654
0.00541623
0.00519916
0.00487022
0.00432603
0.00357109
0.00259397
0.00122439
0.00849084
0.00828727
0.00811221
0.00786101
0.00747724
0.00696452
0.0062777
0.00522979
0.0108015
0.0106193
0.0104789
0.0103046
0.0100402
0.00965258
0.00909808
0.00826498
0.0126738
0.0124967
0.0123591
0.0122072
0.0119931
0.0116853
0.011256
0.0106275
0.0141438
0.0139648
0.0138196
0.013677
0.0135024
0.0132656
0.0129373
0.0124588
0.015281
0.0151051
0.0149559
0.0148171
0.0146646
0.0144724
0.0142152
0.0138523
0.0161389
0.0159692
0.0158194
0.0156832
0.0155458
0.0153863
0.0151844
0.0149103
0.0167749
0.0166146
0.0164691
0.0163373
0.0162102
0.0160724
0.0159085
0.0156984
0.0172343
0.0170844
0.0169455
0.0168186
0.0166992
0.0165764
0.0164401
0.0162766
0.0175522
0.0174136
0.0172833
0.0171625
0.0170493
0.0169366
0.0168184
0.0166858
0.017761
0.0176332
0.0175116
0.0173972
0.0172891
0.0171833
0.0170766
0.0169637
0.0178816
0.0177635
0.0176503
0.0175421
0.0174385
0.0173372
0.0172372
0.0171355
0.0179277
0.0178186
0.0177125
0.017609
0.0175082
0.017409
0.0173114
0.0172141
0.0744687
0.078195
0.0816622
0.0845429
0.0860631
0.0859603
0.0840664
0.0798855
0.0725004
0.0605715
0.0422451
0.0149396
-0.0255436
-0.0824423
-0.133383
0.0533798
0.0548823
0.0548186
0.0535778
0.0510302
0.0468124
0.040439
0.0311753
0.0179678
-0.000623361
-0.0265668
-0.0624254
-0.112249
-0.180138
-0.235155
0.0316176
0.0309276
0.0275299
0.0226574
0.0165334
0.00862371
-0.00180741
-0.0156277
-0.0339497
-0.0582778
-0.0907112
-0.133877
-0.19083
-0.267011
-0.320484
0.00918338
0.00607095
-0.000139611
-0.00776116
-0.0167088
-0.0277214
-0.0416379
-0.059342
-0.0819314
-0.110871
-0.148425
-0.197313
-0.259838
-0.336813
-0.387525
-0.0130907
-0.0188516
-0.0272006
-0.0367857
-0.0479474
-0.0615305
-0.0782894
-0.0990665
-0.124945
-0.157243
-0.198305
-0.250825
-0.315434
-0.389317
-0.435205
-0.0345524
-0.0427656
-0.0526203
-0.0637005
-0.0766742
-0.0923382
-0.111271
-0.134262
-0.162339
-0.196873
-0.239806
-0.293094
-0.356604
-0.424338
-0.46382
-0.0548912
-0.0647403
-0.0756373
-0.0880346
-0.102602
-0.119875
-0.140378
-0.164788
-0.194039
-0.229356
-0.272248
-0.323933
-0.383302
-0.441832
-0.475114
-0.0738882
-0.0843889
-0.0962701
-0.109892
-0.125727
-0.144184
-0.16567
-0.190754
-0.22022
-0.25504
-0.296273
-0.344282
-0.396432
-0.443152
-0.471688
0.187273
0.202222
0.218835
0.237572
0.258528
0.281624
0.306763
0.333892
0.362931
0.393629
0.425403
0.457077
0.48665
0.510094
0.52939
0.186772
0.201138
0.217166
0.235365
0.255781
0.278242
0.302595
0.328772
0.356695
0.3861
0.41636
0.446243
0.473668
0.494659
0.511551
0.182139
0.195087
0.209879
0.226992
0.246273
0.267363
0.290009
0.314094
0.339502
0.365909
0.392607
0.41826
0.440618
0.455876
0.46728
0.173393
0.184292
0.19737
0.212876
0.230337
0.249215
0.269211
0.290174
0.311901
0.33393
0.35538
0.374732
0.389451
0.395903
0.39938
0.16054
0.169002
0.180168
0.193851
0.209048
0.225004
0.241423
0.258198
0.275083
0.29147
0.306256
0.317677
0.322839
0.318005
0.311723
0.143935
0.14959
0.158648
0.170262
0.182858
0.195499
0.207872
0.219846
0.231091
0.240851
0.247827
0.250017
0.244185
0.226433
0.20826
0.12387
0.127307
0.134499
0.143559
0.152771
0.161412
0.169254
0.176063
0.181291
0.183966
0.182569
0.174866
0.157312
0.12599
0.0952378
0.100291
0.102473
0.108577
0.11503
0.120494
0.124684
0.127579
0.128855
0.127753
0.123079
0.113108
0.0953664
0.0659722
0.0212549
-0.02109
0.0258284
0.0302392
0.0265816
0.030505
0.0280789
0.0323797
0.0306292
0.0350497
0.0344189
0.0389242
0.0397319
0.0445621
0.0471089
0.0528099
0.0575301
0.0648433
0.0723538
0.082392
0.09354
0.107603
0.123755
0.143526
0.166375
0.0259065
0.0302848
0.0266773
0.030563
0.0282005
0.0324533
0.030792
0.0351742
0.0346421
0.0391044
0.0400469
0.0448503
0.0474961
0.0532763
0.0580578
0.0654493
0.0731213
0.0830952
0.0944044
0.108588
0.124541
0.144233
0.166589
0.0259945
0.0303047
0.0267912
0.0305912
0.0283464
0.0324922
0.0309866
0.0352653
0.0348798
0.0392436
0.0403915
0.0450877
0.0478787
0.0536266
0.058447
0.0656731
0.0734897
0.08349
0.0945062
0.108502
0.123876
0.143012
0.163877
0.026091
0.0303009
0.0269189
0.0305932
0.0285045
0.0325015
0.0312041
0.0353288
0.0351518
0.039365
0.0407544
0.0453469
0.0483207
0.0541389
0.0590192
0.0664772
0.0740191
0.0840745
0.094608
0.108275
0.122424
0.14027
0.158289
0.0261951
0.0302768
0.0270584
0.0305722
0.0287052
0.0324878
0.031439
0.0353623
0.0354363
0.0394533
0.0411067
0.0454831
0.0486631
0.0542592
0.0592075
0.0664015
0.0738662
0.083553
0.0935555
0.106454
0.119134
0.135215
0.149466
0.0263036
0.0302346
0.0272093
0.0305329
0.0288996
0.0324637
0.0316846
0.035387
0.0357867
0.0395919
0.0415295
0.0457987
0.0492099
0.0549897
0.0598311
0.0673453
0.0743682
0.0841273
0.09319
0.105272
0.115545
0.128842
0.137866
0.026417
0.0301772
0.0273634
0.030482
0.029097
0.0324229
0.0319261
0.0353827
0.0360382
0.0396474
0.0418033
0.0458401
0.0494169
0.0547669
0.0597471
0.0668021
0.0736325
0.082486
0.0908985
0.10128
0.109641
0.119681
0.123116
0.0265339
0.0301115
0.0275144
0.0304275
0.0293092
0.0324144
0.0321826
0.0354504
0.0364559
0.0399061
0.0423503
0.0463643
0.0501801
0.0559483
0.0605707
0.0681626
0.0744099
0.0834586
0.0903032
0.0994552
0.103886
0.109237
0.105263
0.0266692
0.0300112
0.0277094
0.0303174
0.0295329
0.0322929
0.0324383
0.0353247
0.03665
0.0398256
0.0424475
0.0462525
0.0501
0.0551443
0.0598028
0.066361
0.0721175
0.0788626
0.0847177
0.0895604
0.0917215
0.0898069
0.0808607
0.0268453
0.0298552
0.0279562
0.0301458
0.0297893
0.0320811
0.0326738
0.0349935
0.0367204
0.0394066
0.0421946
0.0454294
0.0492256
0.053475
0.0578108
0.0628857
0.0677148
0.0720691
0.0759319
0.0772463
0.076903
0.0717866
0.0642696
0.0270562
0.0296373
0.0282379
0.0299167
0.0300781
0.0317847
0.0329159
0.0346654
0.0367425
0.0389889
0.0418316
0.044619
0.0482128
0.0516541
0.0555312
0.0592612
0.0629323
0.0653873
0.0671057
0.066427
0.0638332
0.0583069
0.0510858
0.0273029
0.0293488
0.0285576
0.0296444
0.0303533
0.0315353
0.0330453
0.0343972
0.0366393
0.0384748
0.0412644
0.0436752
0.0468778
0.0495847
0.0528195
0.05535
0.0577101
0.0587529
0.0586569
0.0566788
0.0528491
0.0470786
0.0402444
0.0275895
0.0289837
0.0288718
0.0294321
0.0305285
0.0313377
0.0330681
0.0341476
0.0363776
0.0379664
0.0404582
0.042589
0.0452102
0.0472684
0.0497361
0.0512441
0.0523563
0.052315
0.0509594
0.0482
0.043927
0.0381858
0.0316169
0.0279123
0.0286086
0.0290952
0.029289
0.0306301
0.0311705
0.0329699
0.0338747
0.0359553
0.0373581
0.0394439
0.0413214
0.0432949
0.0447059
0.0464288
0.0470702
0.0471531
0.0462892
0.0442569
0.0411091
0.0368061
0.0313823
0.0252335
0.0282247
0.0282738
0.0292202
0.0292002
0.0306376
0.0310269
0.032738
0.0335662
0.035379
0.0366273
0.0382737
0.0398477
0.0411989
0.041989
0.0430244
0.0429879
0.0423099
0.0408755
0.0385575
0.0353218
0.0311886
0.0262326
0.0206288
0.0285028
0.0279966
0.0292557
0.0291478
0.0305395
0.0308893
0.0323821
0.0331878
0.0346795
0.0357508
0.0369726
0.0381833
0.0389857
0.0392494
0.039668
0.0391315
0.0379765
0.0361926
0.0337952
0.0306893
0.0268783
0.0224564
0.0174996
0.0287184
0.0277979
0.029189
0.029116
0.0303418
0.0307329
0.0319309
0.0327067
0.033877
0.0347254
0.0355659
0.0363905
0.0367295
0.0365792
0.0364896
0.0356175
0.0342044
0.0322684
0.0299239
0.0270815
0.0237033
0.0198567
0.0155847
0.0288531
0.0276877
0.0290201
0.0290833
0.0300598
0.0305135
0.0314189
0.0321106
0.0329839
0.0335809
0.0340887
0.0345438
0.0345087
0.0340569
0.0335965
0.0325221
0.0310087
0.0290845
0.0268914
0.0243719
0.0214707
0.0182109
0.0146095
0.0288936
0.0276617
0.0287673
0.0290148
0.0297326
0.0302051
0.0308605
0.0314079
0.0320135
0.0323559
0.0325793
0.0327174
0.0324013
0.0317496
0.0310463
0.0298787
0.0283794
0.0265787
0.0246031
0.0224227
0.0199895
0.0172945
0.014323
0.0288345
0.0277021
0.0284625
0.0288516
0.0293826
0.0298079
0.0302596
0.0306257
0.0309891
0.0310997
0.0310882
0.0309755
0.0304684
0.0296973
0.0288623
0.0276878
0.026277
0.024661
0.0229371
0.0210889
0.0190812
0.0168931
0.0144883
0.0286814
0.0277737
0.0281645
0.0285634
0.0289957
0.0293385
0.0296182
0.0298005
0.0299458
0.0298648
0.0296669
0.029368
0.0287428
0.027921
0.0270428
0.0259221
0.0246416
0.0232341
0.0217672
0.0202265
0.018586
0.016825
0.0148976
0.0284524
0.0278133
0.0279161
0.0281901
0.0285474
0.0287938
0.0289353
0.0289625
0.0289237
0.0286926
0.028355
0.0279261
0.0272443
0.0264254
0.0255642
0.0245349
0.0234047
0.0222049
0.0209785
0.019709
0.0183762
0.016964
0.0154285
0.0281712
0.0277518
0.0277003
0.0278322
0.0280564
0.0281884
0.028218
0.0281269
0.0279503
0.027611
0.0271776
0.02667
0.0259774
0.0251956
0.0243883
0.0234697
0.0224925
0.0214848
0.0204725
0.0194368
0.0183608
0.0172335
0.0160175
0.0278641
0.0275958
0.0274857
0.027483
0.0275488
0.0275616
0.0274904
0.0273082
0.027038
0.0266349
0.0261507
0.0256089
0.0249373
0.0242117
0.0234748
0.0226675
0.0218312
0.0209908
0.0201605
0.0193203
0.018455
0.0175573
0.0165975
0.0275474
0.0273648
0.0272303
0.0271292
0.0270549
0.0269521
0.0267876
0.0265331
0.0262029
0.0257715
0.0252756
0.0247374
0.02411
0.0234496
0.0227848
0.0220775
0.0213613
0.0206584
0.019976
0.019295
0.018601
0.0178877
0.0171333
0.0272298
0.0270884
0.0269325
0.0267656
0.026589
0.0263865
0.0261399
0.0258287
0.0254607
0.0250224
0.0245388
0.024028
0.0234586
0.0228667
0.0222718
0.0216528
0.0210369
0.0204429
0.0198755
0.0193195
0.0187619
0.0181964
0.0176066
0.0269169
0.0267896
0.0266145
0.0264025
0.0261578
0.0258815
0.0255711
0.0252179
0.024827
0.0243935
0.0239331
0.0234572
0.0229456
0.0224186
0.0218896
0.0213494
0.0208184
0.0203108
0.0198307
0.0193688
0.0189152
0.018465
0.0180053
0.0266196
0.0264947
0.026301
0.0260568
0.0257695
0.0254448
0.0250923
0.0247134
0.0243104
0.0238854
0.0234491
0.0230068
0.0225458
0.0220775
0.0216109
0.0211419
0.0206836
0.0202456
0.0198315
0.019437
0.0190573
0.0186899
0.0183258
0.0263568
0.0262311
0.0260231
0.0257553
0.0254416
0.0250886
0.0247106
0.0243168
0.0239077
0.0234881
0.0230695
0.0226541
0.0222337
0.0218148
0.0214032
0.0209984
0.0206072
0.0202329
0.0198747
0.0195301
0.0191997
0.0188865
0.0185888
0.0261486
0.0260201
0.0258033
0.0255221
0.0251943
0.0248275
0.0244366
0.0240373
0.0236302
0.0232198
0.0228166
0.0224229
0.0220333
0.0216486
0.0212719
0.0209061
0.0205559
0.0202225
0.0199036
0.0195968
0.0193034
0.0190281
0.0187735
0.026037
0.0259083
0.0256837
0.0253893
0.0250493
0.0246729
0.0242737
0.023869
0.0234625
0.0230577
0.0226643
0.0222867
0.0219194
0.0215576
0.0212033
0.0208624
0.0205397
0.020236
0.0199475
0.019671
0.0194066
0.0191594
0.0189353
0.0682495
0.0503208
0.0281229
0.00730063
-0.0117409
-0.0298685
-0.0473445
-0.0629505
0.0557488
0.0390867
0.0172517
-0.00172733
-0.0167615
-0.0295365
-0.0415249
-0.0520569
0.0446891
0.0319257
0.0133922
-0.00313511
-0.0144857
-0.0232428
-0.0318568
-0.0402136
0.0349357
0.0250421
0.00962916
-0.00456897
-0.0136556
-0.0198192
-0.0256498
-0.0313136
0.0268496
0.01952
0.00771471
-0.00344287
-0.0104272
-0.0148256
-0.0188987
-0.0230128
0.0204568
0.014719
0.00634682
-0.00157493
-0.00690984
-0.0103808
-0.0134214
-0.0163362
0.0160378
0.0114121
0.00584589
0.000609143
-0.00328802
-0.00605059
-0.0083848
-0.0104868
0.0133252
0.00967953
0.00610019
0.00279419
7.71985e-05
-0.0020576
-0.00385973
-0.00537296
0.0119478
0.00914497
0.00693025
0.00494424
0.00313352
0.00155033
0.000181684
-0.000919792
0.0115335
0.00941804
0.00811756
0.0070018
0.0058425
0.00469983
0.00366379
0.00283733
0.0117857
0.0102127
0.00950644
0.00894526
0.00823944
0.00744426
0.00668773
0.0060864
0.0124492
0.0113028
0.010973
0.0107552
0.0103544
0.00981613
0.00926694
0.00881392
0.0132836
0.0124568
0.0123523
0.0123554
0.0121807
0.0118384
0.0114362
0.0110751
0.0141656
0.0135753
0.0135981
0.0137252
0.0136992
0.0134981
0.0132069
0.0129152
0.0150357
0.0146154
0.0146988
0.0148729
0.0149208
0.0148102
0.0146002
0.0143624
0.0158408
0.0155424
0.0156438
0.0158176
0.0158903
0.0158297
0.0156747
0.0154785
0.0165543
0.0163413
0.016435
0.0165827
0.0166503
0.0166094
0.0164858
0.0163182
0.0171658
0.0170098
0.0170807
0.0171889
0.0172348
0.0171951
0.0170871
0.0169385
0.0176703
0.0175507
0.0175914
0.0176555
0.0176722
0.0176233
0.017521
0.0173847
0.0180669
0.0179678
0.0179767
0.0179983
0.0179841
0.0179213
0.0178188
0.0176908
0.0183799
0.018286
0.0182599
0.0182403
0.0181954
0.0181171
0.0180118
0.0178896
0.0185946
0.0184993
0.0184441
0.0183907
0.0183202
0.0182281
0.0181196
0.0180017
0.0187682
0.018653
0.0185545
0.0184603
0.0183628
0.018259
0.0181501
0.0180386
-0.618217
-0.631283
-0.650221
-0.674656
-0.705019
-0.738856
-0.769594
-0.7913
-0.613025
-0.625711
-0.643275
-0.664354
-0.688625
-0.715668
-0.741164
-0.757933
-0.606003
-0.61843
-0.633864
-0.651424
-0.669958
-0.686286
-0.696577
-0.696196
-0.599834
-0.610016
-0.6209
-0.630759
-0.6384
-0.641498
-0.637631
-0.624375
-0.595992
-0.599848
-0.601784
-0.600902
-0.59719
-0.58979
-0.576939
-0.556428
-0.592839
-0.585984
-0.576676
-0.565623
-0.553401
-0.53922
-0.521067
-0.496577
-0.586445
-0.566963
-0.547164
-0.52849
-0.51074
-0.492477
-0.471287
-0.444803
-0.572982
-0.542006
-0.514685
-0.49125
-0.470313
-0.449811
-0.427052
-0.399766
-0.550038
-0.511428
-0.480248
-0.454525
-0.432206
-0.410741
-0.387495
-0.360269
-0.517782
-0.476471
-0.444531
-0.418557
-0.396162
-0.374771
-0.351824
-0.325343
-0.47846
-0.438483
-0.408199
-0.383386
-0.362014
-0.34143
-0.319411
-0.294182
-0.434469
-0.398945
-0.371653
-0.349248
-0.329569
-0.310399
-0.289803
-0.266216
-0.388764
-0.358514
-0.335506
-0.316218
-0.298743
-0.281478
-0.262661
-0.241064
-0.339907
-0.317886
-0.300049
-0.284527
-0.269703
-0.254436
-0.237685
-0.2182
-0.290798
-0.279749
-0.265396
-0.254819
-0.241764
-0.228733
-0.213936
-0.197117
-0.52303
-0.559746
-0.587046
-0.603347