/*--------------------------------*- C++ -*----------------------------------*\
| =========                 |                                                 |
| \\      /  F ield         | OpenFOAM: The Open Source CFD Toolbox           |
|  \\    /   O peration     | Version:  2312                                  |
|   \\  /    A nd           | Website:  www.openfoam.com                      |
|    \\/     M anipulation  |                                                 |
\*---------------------------------------------------------------------------*/
FoamFile
{
    version     2.0;
    format      ascii;
    arch        "LSB;label=32;scalar=64";
    class       volScalarField;
    location    "84.1";
    object      p;
}
// * * * * * * * * * * * * * * * * * * * * * * * * * * * * * * * * * * * * * //

dimensions      [0 2 -2 0 0 0 0];

internalField   nonuniform List<scalar> 
5478
(
-0.527839
-0.524059
-0.516322
-0.508539
-0.502636
-0.499107
-0.495958
-0.490079
-0.478454
-0.459565
-0.433799
-0.40252
-0.368226
-0.328764
-0.286656
-0.541023
-0.536499
-0.529473
-0.521077
-0.511652
-0.500335
-0.486332
-0.46886
-0.447537
-0.422625
-0.394689
-0.364578
-0.332491
-0.298908
-0.266508
-0.559878
-0.553601
-0.545211
-0.534231
-0.518483
-0.497952
-0.474159
-0.44841
-0.42143
-0.393494
-0.364819
-0.335489
-0.305921
-0.276185
-0.246347
-0.584075
-0.574598
-0.563474
-0.546791
-0.522186
-0.492498
-0.461131
-0.429892
-0.399343
-0.369575
-0.340441
-0.311985
-0.284139
-0.257047
-0.231494
-0.61422
-0.599325
-0.583864
-0.557897
-0.522847
-0.484884
-0.44773
-0.412645
-0.379794
-0.348893
-0.319682
-0.291865
-0.265265
-0.240025
-0.215432
-0.649727
-0.627846
-0.603487
-0.565222
-0.519754
-0.47477
-0.433125
-0.395242
-0.360722
-0.329086
-0.299846
-0.27266
-0.2473
-0.223501
-0.200762
-0.683787
-0.656794
-0.618173
-0.566001
-0.511229
-0.460511
-0.41534
-0.375346
-0.339745
-0.307785
-0.278868
-0.252517
-0.228374
-0.206153
-0.184923
-0.710029
-0.678717
-0.623313
-0.557763
-0.495179
-0.439943
-0.392253
-0.350954
-0.314883
-0.283131
-0.254932
-0.229737
-0.20716
-0.186678
-0.167821
-0.49371
-0.493299
-0.496586
-0.506785
-0.523926
-0.547676
-0.577201
-0.61063
-0.644925
-0.676059
-0.699838
-0.710421
-0.702052
-0.673813
-0.621901
-0.515579
-0.51327
-0.516852
-0.528122
-0.547184
-0.573661
-0.606657
-0.644215
-0.683185
-0.71932
-0.747677
-0.762568
-0.755854
-0.724523
-0.66055
-0.528799
-0.524157
-0.526281
-0.535977
-0.55351
-0.578536
-0.610096
-0.646228
-0.684009
-0.719437
-0.747269
-0.761854
-0.753333
-0.718037
-0.646568
-0.533259
-0.526518
-0.525638
-0.531161
-0.544008
-0.564206
-0.59086
-0.62217
-0.655561
-0.687213
-0.712151
-0.72351
-0.710508
-0.670383
-0.597183
-0.531207
-0.52348
-0.51906
-0.518913
-0.525288
-0.539139
-0.55998
-0.58622
-0.615218
-0.642943
-0.66138
-0.664205
-0.642314
-0.595335
-0.523506
-0.526241
-0.518995
-0.511755
-0.506403
-0.506733
-0.514868
-0.53107
-0.553463
-0.577443
-0.596942
-0.604428
-0.595043
-0.563054
-0.514199
-0.448852
-0.521912
-0.516089
-0.507375
-0.498937
-0.495589
-0.500168
-0.51251
-0.528907
-0.543762
-0.55048
-0.544088
-0.521938
-0.484456
-0.439046
-0.385838
-0.521521
-0.517235
-0.508405
-0.499543
-0.495041
-0.496566
-0.502825
-0.509457
-0.511317
-0.503639
-0.484885
-0.454732
-0.41742
-0.375829
-0.332077
-0.513848
-0.375095
-0.2953
-0.28939
-0.29018
-0.232656
-0.165972
-0.136186
-0.128722
-0.141835
-0.156091
-0.147122
-0.13861
-0.13461
-0.115998
-0.0880942
-0.0864629
-0.109022
-0.12049
-0.109431
-0.102952
-0.129481
-0.129144
-0.109594
-0.108811
-0.126409
-0.0975155
-0.079168
-0.0560062
-0.00876714
-6.63771e-05
-0.00671173
-0.0156965
-0.000276978
0.017946
0.0246503
0.0101242
-0.0036849
-0.533783
-0.36688
-0.24773
-0.205352
-0.185113
-0.160363
-0.132682
-0.130841
-0.138981
-0.168366
-0.197992
-0.177357
-0.149201
-0.137089
-0.119665
-0.0937577
-0.093322
-0.115551
-0.124653
-0.107626
-0.0903036
-0.113171
-0.117498
-0.107834
-0.123722
-0.142636
-0.099189
-0.0716622
-0.0543242
-0.01258
-0.00397549
-0.00862546
-0.0170071
-0.00110334
0.0178384
0.0248579
0.00905467
-0.0046083
-0.514078
-0.34353
-0.208054
-0.141442
-0.093472
-0.0765668
-0.0934426
-0.122201
-0.146816
-0.190407
-0.233996
-0.206877
-0.158636
-0.137805
-0.121527
-0.0990607
-0.099886
-0.121468
-0.127368
-0.104078
-0.0777665
-0.0968383
-0.105165
-0.103052
-0.135497
-0.155014
-0.0995194
-0.0635175
-0.0515148
-0.0163452
-0.00787546
-0.0105009
-0.0181443
-0.00206044
0.0175061
0.0250067
0.0080663
-0.00542408
-0.466586
-0.322212
-0.191266
-0.113099
-0.0566727
-0.0156082
-0.0566166
-0.105901
-0.142007
-0.197715
-0.252172
-0.227553
-0.165796
-0.136379
-0.119739
-0.102768
-0.105235
-0.126916
-0.129689
-0.100244
-0.0665964
-0.0812865
-0.0924852
-0.0954445
-0.143398
-0.163037
-0.0995295
-0.0556313
-0.0477453
-0.0198425
-0.0114849
-0.0123074
-0.0191138
-0.00310877
0.0169728
0.0251027
0.00717084
-0.00612054
-0.40428
-0.296768
-0.185422
-0.10943
-0.0555843
-0.0102403
-0.0389181
-0.0985812
-0.128945
-0.181678
-0.248056
-0.23711
-0.1706
-0.133966
-0.11522
-0.103998
-0.109037
-0.131523
-0.131119
-0.0961818
-0.056959
-0.0670113
-0.079999
-0.0856939
-0.147041
-0.166423
-0.0990836
-0.0485065
-0.043184
-0.0229545
-0.0145467
-0.0140319
-0.0199345
-0.00423615
0.0162586
0.0251388
0.00635918
-0.00670183
-0.34901
-0.270721
-0.184149
-0.11438
-0.0636185
-0.0218989
-0.027444
-0.0943203
-0.111011
-0.149217
-0.223701
-0.223803
-0.167062
-0.12854
-0.108151
-0.101455
-0.110296
-0.134567
-0.133034
-0.0937251
-0.0493809
-0.054536
-0.06775
-0.0739762
-0.146111
-0.165505
-0.0987274
-0.0430741
-0.0382143
-0.0256644
-0.0169045
-0.0156638
-0.0206109
-0.00537443
0.0153859
0.0250975
0.00562862
-0.00717855
-0.312842
-0.253596
-0.178235
-0.113024
-0.0661305
-0.0286361
-0.0224985
-0.0760675
-0.0844416
-0.117904
-0.194532
-0.212128
-0.164575
-0.124886
-0.101057
-0.0943288
-0.109321
-0.135751
-0.132209
-0.0896561
-0.0433946
-0.0446226
-0.0561492
-0.0596415
-0.140942
-0.160725
-0.0969501
-0.0401288
-0.0325166
-0.02795
-0.0184592
-0.017143
-0.0212338
-0.00659737
0.0143631
0.0250005
0.00496387
-0.00757486
-0.28895
-0.248501
-0.185385
-0.125734
-0.0787168
-0.0378517
-0.0232146
-0.0443583
-0.0537447
-0.0837496
-0.156475
-0.176352
-0.14881
-0.118775
-0.0927095
-0.0834937
-0.104793
-0.133969
-0.13398
-0.0885955
-0.0395741
-0.036435
-0.0450227
-0.0450843
-0.131631
-0.156189
-0.095288
-0.0394488
-0.0271907
-0.0293273
-0.019279
-0.0184794
-0.021738
-0.00774731
0.013157
0.0247937
0.00438808
-0.00790045
-0.252571
-0.226798
-0.166064
-0.10649
-0.0578402
-0.015996
0.0254401
0.0480851
0.0159177
-0.0459117
-0.131241
-0.157277
-0.125816
-0.0988172
-0.0765481
-0.0715429
-0.097316
-0.122347
-0.125042
-0.0819368
-0.0356239
-0.0303599
-0.0381074
-0.0370936
-0.117272
-0.143279
-0.0905472
-0.0411871
-0.0261023
-0.0301951
-0.01879
-0.0197922
-0.0227759
-0.00906932
0.0120604
0.0245996
0.00374082
-0.00826741
-0.187039
-0.169437
-0.121766
-0.0742318
-0.0336774
0.00448327
0.056816
0.0801983
0.0524673
-0.0103845
-0.0813363
-0.0986918
-0.0836116
-0.0698507
-0.0524099
-0.0498048
-0.0865128
-0.118828
-0.115953
-0.0680993
-0.0217063
-0.017989
-0.0253214
-0.0208373
-0.0952248
-0.138703
-0.081624
-0.0357743
-0.0274261
-0.0300987
-0.0202271
-0.02176
-0.0238909
-0.010431
0.0107865
0.0237638
0.00278571
-0.00860622
-0.144207
-0.135794
-0.102905
-0.0630833
-0.0254303
0.0104473
0.0598756
0.0833522
0.0632508
0.0160535
-0.032058
-0.0512322
-0.0516048
-0.0474364
-0.0320634
-0.0255604
-0.0560319
-0.0878166
-0.0892252
-0.044226
-0.00689095
-0.00614285
-0.014734
-0.00429906
-0.0652889
-0.105973
-0.0610841
-0.0301555
-0.0312413
-0.030295
-0.0203322
-0.0231939
-0.0247271
-0.0119558
0.00919938
0.0225104
0.00179551
-0.00872692
-0.108615
-0.103628
-0.0787443
-0.0464954
-0.0151662
0.0143941
0.0486412
0.0690095
0.0596921
0.0281087
-0.00423792
-0.0178824
-0.0224859
-0.0216436
-0.00761736
-0.00133592
-0.020525
-0.0431208
-0.0538769
-0.025091
-0.000411892
0.00411125
-0.00312975
0.0128012
-0.0328093
-0.0687968
-0.033244
-0.0251976
-0.0334843
-0.0294424
-0.0200103
-0.0244102
-0.0255002
-0.0134391
0.00739879
0.0207739
0.000978452
-0.00850312
-0.0803381
-0.0778438
-0.0610936
-0.0375559
-0.0135495
0.00897078
0.0322283
0.0494262
0.0469043
0.0290984
0.00996956
-0.000157733
-0.0051901
-0.00748678
0.00572494
0.0167214
0.0181689
0.0156981
-0.0169689
-0.0140484
-0.000530922
-0.0159272
0.00180703
0.0238025
-0.00111783
-0.0165496
-0.000490146
-0.016226
-0.0311792
-0.0270353
-0.0185721
-0.0249732
-0.0261613
-0.0149869
0.00544872
0.0185952
0.00047379
-0.00785116
-0.0590305
-0.0579201
-0.04672
-0.0298193
-0.0116784
0.00515
0.0213872
0.0332773
0.0346319
0.0262959
0.0153498
0.0103514
0.0078579
0.00771396
0.0191832
0.0278153
0.034367
0.0367001
0.00621777
-0.00585699
0.00294518
0.000494144
0.00913576
0.0275203
0.0127723
0.0042339
0.0237208
-0.00373394
-0.0212822
-0.0216598
-0.0177979
-0.024709
-0.0258533
-0.0158542
0.00360851
0.0159979
0.000366233
-0.0066677
-0.0419559
-0.041762
-0.034672
-0.0231481
-0.0102324
0.00182744
0.012875
0.0217129
0.0247913
0.0225828
0.0175138
0.0151135
0.0144857
0.0134712
0.0226157
0.0311967
0.0371887
0.0398057
0.0195161
0.00513697
0.00846587
0.00483403
0.0135483
0.028003
0.0156344
0.0156715
0.0330024
0.0076766
-0.00652367
-0.0118692
-0.0151455
-0.0220837
-0.0241217
-0.0157407
0.00232296
0.0131473
0.000743835
-0.00491073
-0.0284112
-0.0290715
-0.024869
-0.0171936
-0.00818506
0.000413447
0.00815572
0.0146809
0.0182191
0.0189754
0.0173744
0.0169438
0.0179989
0.0188358
0.0255396
0.0319748
0.0343815
0.0359644
0.0256468
0.0142354
0.0135537
0.0137713
0.0187719
0.02711
0.0158489
0.0147747
0.0290111
0.0157871
0.00596311
0.00120901
-0.00308483
-0.0139436
-0.0211517
-0.0139419
0.00212997
0.0106193
0.00184604
-0.00274379
-0.0184216
-0.0192431
-0.0166727
-0.0116251
-0.0055112
0.000496529
0.00605641
0.0109078
0.0142288
0.0162127
0.0167155
0.0175224
0.0191048
0.0200251
0.0241205
0.0291038
0.0308979
0.0310997
0.0266493
0.0198251
0.0173379
0.0158464
0.0206633
0.0256447
0.0185251
0.017418
0.0252935
0.0200543
0.0140108
0.0131232
0.0118404
-0.000294056
-0.0145896
-0.0087323
0.00360565
0.00859503
0.00349531
-0.000320595
-0.0101972
-0.011165
-0.00975733
-0.00655477
-0.00246339
0.00175344
0.00574668
0.00933023
0.0121773
0.0143981
0.0157943
0.017031
0.0187288
0.0203655
0.0233666
0.0266452
0.0279242
0.0276739
0.0254188
0.0218611
0.019804
0.0180457
0.0216591
0.024855
0.0203081
0.0183202
0.0227258
0.0214092
0.0184489
0.0201643
0.019725
0.0119878
-0.00376614
-0.000463719
0.00642888
0.00768597
0.00533242
0.00170616
-0.00365046
-0.00467792
-0.00402797
-0.00198885
0.000770801
0.00365433
0.00645641
0.0091002
0.0114298
0.0134522
0.0150523
0.0165261
0.018227
0.0198185
0.0218033
0.0238638
0.0249975
0.0250544
0.0237857
0.0220685
0.0208851
0.0192143
0.0210555
0.0235862
0.0210903
0.0191067
0.021302
0.0212895
0.0200552
0.0221341
0.0217924
0.0184672
0.00539102
0.00602049
0.00911506
0.00841368
0.00711971
0.0026695
0.00145233
0.00051862
0.000770434
0.00202198
0.00382612
0.00579021
0.00776301
0.00969432
0.0114986
0.0131684
0.0146298
0.0160174
0.0174762
0.0189153
0.0204428
0.0218733
0.0228569
0.0231448
0.0224459
0.0215376
0.0211201
0.0200465
0.020678
0.0223766
0.0212358
0.0195998
0.0203827
0.0206779
0.020442
0.0219311
0.021857
0.019741
0.0106336
0.00944242
0.0103897
0.00908697
0.0081289
0.0028703
0.00554953
0.00473581
0.00474303
0.00547944
0.00665002
0.00797614
0.00933782
0.0106968
0.0120408
0.013342
0.0145377
0.0156972
0.0169077
0.018108
0.0192785
0.0202858
0.0210406
0.0214645
0.0212745
0.0208371
0.0206878
0.020166
0.0201451
0.0210278
0.0207558
0.0197068
0.019646
0.0197917
0.0198346
0.0207059
0.0206401
0.0187748
0.0125109
0.0106526
0.0102985
0.00901031
0.00785758
0.00277384
0.00881039
0.00811936
0.00801098
0.00843142
0.00917279
0.0100353
0.0109342
0.0118664
0.012832
0.013798
0.0147157
0.0156144
0.016547
0.0174833
0.0183801
0.0191482
0.0197647
0.0201858
0.0202595
0.0201246
0.0200855
0.0199392
0.0198134
0.0200783
0.0200607
0.0194731
0.0190771
0.0189528
0.0190719
0.0194039
0.0190328
0.017285
0.0130007
0.0109008
0.00989179
0.00837885
0.00677049
0.00249962
0.0114099
0.0108512
0.010691
0.0109005
0.0113413
0.0118787
0.0124518
0.0130635
0.0137215
0.0143968
0.0150567
0.0157049
0.0163916
0.0170842
0.0177591
0.0183333
0.0188199
0.019207
0.0193838
0.0194228
0.0194154
0.0193857
0.0192433
0.0192722
0.0192579
0.0189286
0.0184999
0.0181385
0.0180317
0.0180375
0.0175066
0.0158013
0.0127162
0.0105859
0.00929255
0.00759014
0.00563521
0.00213545
0.0134918
0.01304
0.0128574
0.0129331
0.0131739
0.0134851
0.0138244
0.0141965
0.0146163
0.0150575
0.0155012
0.0159391
0.0164139
0.0169019
0.0173819
0.0178006
0.0181642
0.0184823
0.0186647
0.0187649
0.0187846
0.0187943
0.018713
0.0186228
0.0185182
0.0182637
0.0178798
0.0173935
0.017114
0.0168497
0.0161324
0.0145357
0.012227
0.0102374
0.00877745
0.00691674
0.0047325
0.00180771
0.0151321
0.014775
0.014595
0.0145876
0.0146905
0.0148409
0.0150132
0.0152133
0.0154561
0.0157179
0.0159878
0.0162543
0.0165549
0.0168724
0.0171893
0.0174707
0.0177193
0.0179508
0.0180953
0.018189
0.0182087
0.0182109
0.018124
0.0179961
0.017831
0.0175685
0.0172128
0.0166868
0.0162266
0.0157592
0.0149346
0.0134968
0.0116757
0.0098705
0.00828955
0.00637434
0.00410028
0.00152789
0.0164198
0.0161387
0.0159679
0.0159066
0.0159164
0.015956
0.0160131
0.0160906
0.0162039
0.0163308
0.016467
0.0166022
0.0167646
0.0169452
0.017126
0.0172908
0.0174332
0.0175738
0.0176565
0.0177082
0.0176978
0.0176684
0.0175621
0.0174066
0.0172049
0.0169041
0.0165418
0.016012
0.0154487
0.0148553
0.0139706
0.0126004
0.0111121
0.00950327
0.00787052
0.00594824
0.00371894
0.00136403
0.0174151
0.0171902
0.0170314
0.0169375
0.0168868
0.0168512
0.016829
0.0168198
0.0168401
0.0168693
0.016907
0.0169435
0.0169983
0.0170717
0.0171422
0.0172122
0.0172596
0.0173146
0.0173276
0.017322
0.017271
0.0171936
0.0170604
0.016871
0.0166429
0.0163144
0.0159277
0.0153993
0.0147778
0.0141221
0.0132267
0.0120271
0.0107291
0.00923151
0.00754733
0.00567567
0.00347864
0.00123368
0.0181635
0.0179774
0.01783
0.017716
0.0176276
0.0175427
0.0174677
0.0173999
0.0173539
0.0173152
0.0172802
0.0172476
0.0172206
0.0172145
0.0171984
0.0171935
0.0171624
0.0171452
0.0170928
0.0170268
0.0169332
0.0167973
0.0166409
0.0164015
0.016148
0.0157901
0.015374
0.0148658
0.0142184
0.0135319
0.0126742
0.0115754
0.0103775
0.00893029
0.00725691
0.00546091
0.00330825
0.00114092
0.0187043
0.018545
0.0184039
0.0182784
0.0181648
0.0180521
0.0179431
0.0178391
0.0177459
0.0176602
0.0175751
0.0174933
0.0174121
0.017342
0.017266
0.0171957
0.017111
0.0170299
0.0169254
0.0168062
0.0166669
0.0164886
0.0162928
0.0160256
0.0157294
0.0153565
0.0149056
0.0143807
0.0137329
0.0130047
0.0121518
0.0110777
0.00990888
0.00850206
0.00689888
0.00515866
0.00314191
0.00107192
0.0190592
0.0189164
0.0187789
0.0186472
0.0185191
0.0183906
0.0182624
0.0181361
0.0180144
0.0178973
0.0177812
0.0176678
0.0175521
0.0174413
0.0173247
0.0172113
0.0170882
0.0169624
0.016821
0.0166607
0.0164842
0.0162736
0.0160401
0.0157519
0.0154237
0.0150298
0.0145642
0.0140246
0.0133774
0.0126253
0.0117624
0.0107241
0.00955953
0.00820343
0.00665402
0.00495751
0.0030516
0.00104202
0.0192406
0.0191055
0.0189695
0.0188345
0.0186998
0.0185646
0.018428
0.0182917
0.0181556
0.0180228
0.0178904
0.0177612
0.0176285
0.0174969
0.017359
0.0172214
0.0170769
0.016927
0.0167648
0.0165825
0.016385
0.0161553
0.0159025
0.0156005
0.0152548
0.0148487
0.0143732
0.0138205
0.0131706
0.0124112
0.0115445
0.0105208
0.00936032
0.0080245
0.0065042
0.00484249
0.00299872
0.00102324
-0.144163
-0.156164
-0.169323
-0.180239
-0.194735
-0.203073
-0.217393
-0.226919
-0.117805
-0.12507
-0.133189
-0.140243
-0.147674
-0.151946
-0.158519
-0.16876
-0.0933902
-0.0976974
-0.101659
-0.105895
-0.110307
-0.115902
-0.121732
-0.130808
-0.0737076
-0.0758838
-0.0779611
-0.0816065
-0.085403
-0.0897922
-0.0932741
-0.0990964
-0.0566123
-0.0578924
-0.0591706
-0.0616489
-0.0636993
-0.0659395
-0.0681026
-0.0727419
-0.0426352
-0.0430776
-0.0434947
-0.044707
-0.0458189
-0.0474687
-0.0494468
-0.053288
-0.0307822
-0.0307188
-0.0307095
-0.031399
-0.032256
-0.0335255
-0.0349712
-0.0377526
-0.0210549
-0.0207679
-0.0205688
-0.0209077
-0.0214457
-0.0222281
-0.0231795
-0.0251475
-0.0130257
-0.012636
-0.0123104
-0.012355
-0.0126052
-0.0130774
-0.0138801
-0.0156288
-0.00635424
-0.00594545
-0.00557683
-0.00548323
-0.00563142
-0.00603296
-0.00675443
-0.00811467
-0.000884175
-0.0005435
-0.000227569
-0.000112185
-0.000199356
-0.000474092
-0.000975996
-0.00199672
0.00359055
0.00384706
0.00410764
0.00424511
0.0042298
0.00405117
0.0036473
0.00279751
0.00726083
0.00743501
0.00762753
0.00774119
0.00773225
0.00758549
0.00725722
0.00659383
0.0102444
0.0103381
0.0104561
0.0105297
0.0105193
0.0104074
0.010151
0.00963198
0.0126654
0.012691
0.0127434
0.0127751
0.0127501
0.0126494
0.012439
0.0120383
0.0145999
0.0145716
0.0145691
0.014562
0.0145224
0.0144348
0.0142701
0.013969
0.0161356
0.016072
0.0160326
0.0159983
0.0159466
0.0158633
0.0157249
0.0154937
0.017346
0.0172588
0.0171929
0.017136
0.0170705
0.0169863
0.0168672
0.0166908
0.018282
0.0181799
0.018097
0.0180251
0.0179508
0.0178664
0.0177611
0.0176223
0.0189903
0.0188792
0.0187857
0.0187041
0.018624
0.0185386
0.0184421
0.0183271
0.0194971
0.0193828
0.019284
0.0191969
0.0191137
0.019029
0.0189386
0.0188396
0.0198283
0.019715
0.0196144
0.0195246
0.0194396
0.0193556
0.0192687
0.0191786
0.0199946
0.0198841
0.0197832
0.0196919
0.0196062
0.0195227
0.0194382
0.0193522
0.0271109
0.0295394
0.0309854
0.0306961
0.0281555
0.023363
0.0162022
0.00604939
-0.00822975
-0.0282518
-0.0562388
-0.0952925
-0.150481
-0.225386
-0.295077
0.00079103
0.000461814
-0.00263574
-0.00779694
-0.0148632
-0.0241575
-0.0362998
-0.0522183
-0.0731871
-0.100923
-0.137777
-0.186814
-0.253163
-0.341489
-0.416807
-0.0240207
-0.027859
-0.0355871
-0.0452816
-0.0565528
-0.0700982
-0.0869155
-0.108116
-0.135057
-0.169547
-0.214139
-0.272
-0.346879
-0.447073
-0.520139
-0.0496307
-0.0569637
-0.0682677
-0.0813538
-0.0961031
-0.113469
-0.134527
-0.160393
-0.192475
-0.23263
-0.283457
-0.348784
-0.430595
-0.533902
-0.603336
-0.0762191
-0.0866641
-0.100439
-0.115848
-0.133286
-0.153849
-0.178494
-0.2082
-0.244381
-0.288985
-0.344261
-0.414525
-0.500718
-0.601386
-0.664916
-0.101751
-0.115167
-0.130866
-0.148145
-0.167863
-0.191055
-0.218521
-0.251075
-0.29018
-0.337741
-0.396178
-0.46848
-0.554842
-0.649464
-0.704497
-0.125709
-0.141568
-0.158756
-0.177725
-0.199492
-0.224789
-0.254308
-0.288933
-0.329901
-0.378941
-0.438258
-0.509797
-0.592818
-0.677771
-0.723394
-0.147937
-0.165094
-0.183822
-0.204687
-0.228315
-0.255276
-0.286211
-0.321966
-0.363646
-0.41269
-0.470857
-0.539185
-0.615395
-0.68706
-0.724372
0.196531
0.211008
0.227292
0.245775
0.266465
0.289223
0.313948
0.340597
0.369088
0.399152
0.430186
0.460992
0.489538
0.51179
0.529949
0.189486
0.202663
0.217833
0.235408
0.255182
0.276833
0.300203
0.325253
0.35189
0.379795
0.408269
0.435993
0.460768
0.478594
0.492396
0.17826
0.189393
0.202871
0.218996
0.237233
0.257016
0.278084
0.300362
0.323714
0.347734
0.371592
0.3938
0.411877
0.421931
0.428454
0.162846
0.171401
0.182725
0.196819
0.212787
0.229875
0.247752
0.266281
0.285214
0.303981
0.321531
0.336135
0.344934
0.34395
0.340807
0.143371
0.149124
0.15824
0.170121
0.183304
0.196872
0.210531
0.224179
0.237499
0.249729
0.259552
0.264928
0.262582
0.24827
0.232647
0.120124
0.12246
0.12917
0.138743
0.148966
0.158726
0.167736
0.175879
0.182738
0.187382
0.188258
0.183033
0.167998
0.138649
0.10849
0.093803
0.0933916
0.0978126
0.104299
0.110577
0.115779
0.119699
0.122051
0.122132
0.118746
0.110092
0.0935413
0.0649993
0.0199423
-0.0252074
0.0628365
0.0615534
0.0652493
0.0687582
0.0705724
0.0705621
0.0687983
0.0648642
0.0577745
0.0460584
0.0276531
-0.000380148
-0.042606
-0.103225
-0.162272
0.0377058
0.0422
0.0384626
0.0424501
0.0400022
0.0443111
0.042581
0.0469909
0.0463769
0.050889
0.0516572
0.0564849
0.0590544
0.0646821
0.0693508
0.0766378
0.0839829
0.0939261
0.104944
0.118858
0.134651
0.154109
0.176371
0.0376596
0.0421188
0.0384171
0.042346
0.0399471
0.0441822
0.0425002
0.0468219
0.046247
0.0506917
0.0514329
0.0561745
0.0587393
0.0642563
0.0688108
0.0760244
0.0830366
0.092823
0.103254
0.116791
0.131631
0.150278
0.17104
0.0376215
0.0420119
0.0383895
0.0422128
0.039918
0.0440266
0.0424483
0.0466176
0.0461542
0.050451
0.0512603
0.0558165
0.0584213
0.0637477
0.0682231
0.07528
0.0819099
0.0914737
0.10111
0.114052
0.127516
0.144786
0.162858
0.0375929
0.0418814
0.0383784
0.0420545
0.03991
0.0438415
0.0424251
0.0463876
0.0460858
0.0501967
0.0511058
0.0555317
0.0581573
0.0633372
0.0676659
0.0746324
0.0807103
0.0900216
0.0985632
0.11067
0.122109
0.13734
0.151601
0.0375722
0.0417306
0.0383776
0.0418754
0.0399194
0.0436343
0.0424241
0.0461348
0.046036
0.0499041
0.0509505
0.0550631
0.057833
0.062686
0.0669712
0.0735886
0.0791587
0.0878954
0.0953608
0.106278
0.115454
0.127909
0.137065
0.0375582
0.0415628
0.0383912
0.0416811
0.0399403
0.0434139
0.0424426
0.0458899
0.0460101
0.0496502
0.0508626
0.0549304
0.0576621
0.0624164
0.0664735
0.0729062
0.0778057
0.0861031
0.091989
0.10152
0.107423
0.116703
0.11989
0.0375497
0.0413804
0.0384069
0.0414788
0.0399683
0.0431812
0.0424583
0.0456187
0.0459661
0.049321
0.0506799
0.0542707
0.057269
0.061569
0.0655863
0.0713223
0.0758235
0.0829974
0.0878048
0.0953031
0.0985559
0.102947
0.0997138
0.0375402
0.0411901
0.0384254
0.0412798
0.0400012
0.0429719
0.0425094
0.0454363
0.0459884
0.049178
0.050743
0.0545734
0.0571949
0.0615369
0.0652741
0.0708394
0.074522
0.0811336
0.0836552
0.0891898
0.0875074
0.088303
0.0761152
0.0375275
0.0409364
0.0384546
0.0409885
0.040023
0.0426188
0.0424919
0.0449922
0.0458347
0.0486091
0.0503507
0.0535196
0.0562391
0.0598081
0.0634192
0.0674457
0.0706917
0.0746011
0.0760129
0.0772599
0.0727715
0.0646971
0.045382
0.0375193
0.0405878
0.0384959
0.0405982
0.0400251
0.0420862
0.0423914
0.0443357
0.0454806
0.0476179
0.0494915
0.0520546
0.0545988
0.0572464
0.0602778
0.0627556
0.0649384
0.0661884
0.0660067
0.0628685
0.0568418
0.0456289
0.0303035
0.0375299
0.0401619
0.0385545
0.040129
0.0400376
0.0414625
0.0422733
0.0436002
0.0450279
0.0466078
0.0485438
0.0504489
0.052684
0.0545093
0.0567404
0.0578996
0.0587931
0.0580395
0.0561251
0.0509611
0.0437432
0.0325035
0.0180583
0.0375601
0.039649
0.0386308
0.0395897
0.0400275
0.0408681
0.042012
0.0429041
0.0444374
0.0455289
0.0473989
0.0487083
0.0504622
0.0516141
0.0528168
0.0529242
0.0525193
0.0503
0.0470039
0.0409189
0.0330834
0.0223894
0.00909794
0.0376126
0.0390415
0.038697
0.0390819
0.039899
0.0403231
0.0416227
0.0421901
0.0436695
0.0444175
0.0460091
0.0468381
0.0479505
0.0485621
0.0487149
0.0478973
0.0464393
0.0432025
0.0390185
0.0326776
0.0249095
0.015067
0.00311622
0.0376835
0.0383913
0.0386539
0.0386285
0.0396779
0.039787
0.0410948
0.0414528
0.042724
0.043204
0.0444165
0.0448297
0.0452707
0.0453558
0.0446207
0.0429888
0.0407799
0.0370192
0.0324188
0.0262341
0.0189589
0.0101445
-0.000289181
0.0377337
0.0377668
0.0384787
0.038215
0.0393453
0.0392556
0.0404285
0.0406818
0.0416143
0.0418877
0.0426691
0.042679
0.0425152
0.0420715
0.040681
0.0384619
0.0357779
0.0318722
0.0272149
0.0214412
0.0149191
0.00728077
-0.0015656
0.0377335
0.0371789
0.038199
0.0378217
0.0388881
0.0387164
0.0396347
0.0398343
0.0403889
0.0404603
0.0408121
0.0404307
0.0397742
0.0388553
0.037025
0.0344817
0.0315489
0.0277476
0.0233307
0.0181423
0.0125016
0.00609238
-0.00122031
0.0376513
0.036651
0.0378015
0.0374326
0.0383128
0.0381432
0.0387454
0.0388909
0.0390877
0.0389335
0.0388931
0.0381642
0.037132
0.0358418
0.03377
0.0311229
0.0281449
0.0246105
0.0206351
0.0161395
0.0113905
0.00614101
0.000211752
0.0374708
0.0361951
0.0372863
0.0370293
0.0376409
0.0375083
0.0377996
0.0378426
0.0377357
0.0373451
0.0369656
0.0359608
0.0346693
0.0331416
0.0309853
0.0284001
0.025554
0.0223804
0.0189348
0.0151603
0.0112497
0.00702469
0.00228784
0.0371797
0.0358079
0.0366727
0.0365855
0.0369136
0.0367916
0.0368203
0.0367077
0.0363552
0.0357449
0.0350896
0.0338959
0.0324621
0.0308231
0.028701
0.0262895
0.0236993
0.0209346
0.0180265
0.0149344
0.0117757
0.0084184
0.00467127
0.0367739
0.0354754
0.0359962
0.0360391
0.0361589
0.0359973
0.0358208
0.0355235
0.0349717
0.0341884
0.0333281
0.0320365
0.030556
0.0289112
0.0269096
0.0247355
0.0224658
0.0201217
0.017717
0.015225
0.0127095
0.0100657
0.00712033
0.0362609
0.0351687
0.0353151
0.0353699
0.0353742
0.0351501
0.0348146
0.034337
0.0336239
0.0327219
0.0317352
0.0304198
0.0289661
0.0273935
0.0255691
0.0236624
0.0217304
0.0197875
0.0178291
0.0158374
0.0138483
0.0117769
0.00947259
0.0356605
0.0348296
0.0346778
0.0346054
0.0345384
0.0342567
0.0338111
0.0331918
0.0323551
0.0313847
0.0303451
0.0290672
0.0276903
0.0262343
0.0246154
0.0229831
0.0213776
0.0197966
0.0182181
0.0166284
0.0150535
0.013431
0.0116357
0.0350012
0.0344013
0.034081
0.033864
0.0336787
0.0333238
0.0328124
0.0321105
0.0312018
0.0302029
0.0291679
0.0279736
0.0267047
0.0253824
0.0239687
0.0225968
0.0212917
0.0200296
0.0187696
0.0174983
0.0162425
0.0149662
0.013572
0.0343152
0.0338843
0.0335073
0.0331568
0.032829
0.0323954
0.0318363
0.0310989
0.0301755
0.0291884
0.0282014
0.0271233
0.0259807
0.0247908
0.0235597
0.0224142
0.0213697
0.0203804
0.0193862
0.0183678
0.0173546
0.0163381
0.0152526
0.0336298
0.0333007
0.0329134
0.0324769
0.0320282
0.0315191
0.0309195
0.0301779
0.0292802
0.0283372
0.0274259
0.0264762
0.0254692
0.0244105
0.0233381
0.0223766
0.0215391
0.0207681
0.0199906
0.0191781
0.0183568
0.0175386
0.0166893
0.0329664
0.0326925
0.0323013
0.0318209
0.0312992
0.0307277
0.0300926
0.0293645
0.0285176
0.0276378
0.0268125
0.0259871
0.0251131
0.0241863
0.0232568
0.0224397
0.0217527
0.021141
0.0205317
0.0198889
0.0192274
0.0185663
0.0178958
0.032338
0.0320883
0.0316981
0.0312043
0.0306486
0.0300369
0.0293805
0.0286764
0.0278884
0.0270768
0.0263344
0.0256219
0.0248714
0.0240691
0.0232663
0.0225626
0.0219802
0.0214757
0.0209874
0.0204782
0.0199511
0.0194194
0.0188868
0.0317668
0.0315304
0.031138
0.0306414
0.030083
0.0294593
0.0287921
0.0281135
0.0273865
0.0266406
0.0259671
0.0253501
0.0247111
0.024022
0.02333
0.0227164
0.0222072
0.0217735
0.0213698
0.0209616
0.0205414
0.0201129
0.0196842
0.0312782
0.0310524
0.0306615
0.0301627
0.029611
0.0289982
0.0283369
0.0276749
0.0269965
0.0263114
0.025691
0.0251386
0.0245874
0.0239992
0.0234048
0.0228658
0.0224101
0.0220264
0.0216834
0.0213497
0.0210084
0.0206575
0.0203085
0.0309064
0.0306869
0.030303
0.0298023
0.0292529
0.0286636
0.0280242
0.0273708
0.0267269
0.0261007
0.0255233
0.025006
0.0245134
0.0240065
0.0234889
0.022999
0.0225683
0.0222035
0.0218882
0.0215957
0.0213047
0.0210084
0.0207158
0.0307024
0.0304875
0.0301044
0.029599
0.029047
0.0284667
0.0278393
0.0271942
0.0265724
0.0259802
0.0254275
0.0249268
0.0244624
0.0240009
0.0235313
0.0230773
0.0226705
0.0223237
0.022027
0.0217585
0.0214986
0.0212397
0.0209884
0.0230166
-0.00159273
-0.0256332
-0.0474511
-0.0697084
-0.0913556
-0.111799
-0.129185
0.0135035
-0.00852113
-0.0335293
-0.0528112
-0.0684906
-0.0833093
-0.0971305
-0.108441
0.00404944
-0.0135193
-0.0340149
-0.0489034
-0.0591022
-0.069035
-0.0786558
-0.0870444
-0.0035604
-0.0176195
-0.0324777
-0.0437533
-0.0512775
-0.0583341
-0.0646906
-0.0701303
-0.0083212
-0.0194063
-0.0293164
-0.0369321
-0.0422352
-0.0470188
-0.0509949
-0.0544384
-0.0103286
-0.0188525
-0.0250683
-0.0298059
-0.0334976
-0.0368613
-0.039484
-0.0415752
-0.0100981
-0.0165168
-0.0201633
-0.0228349
-0.0252614
-0.0275715
-0.0292584
-0.0304178
-0.00828822
-0.0130707
-0.0150221
-0.0162941
-0.0177594
-0.0193128
-0.0204167
-0.0210377
-0.00552235
-0.00906159
-0.00995216
-0.0103294
-0.0111031
-0.0121124
-0.0128486
-0.0131716
-0.0022861
-0.0048934
-0.00515975
-0.00500417
-0.00530004
-0.00591382
-0.00639954
-0.00655892
0.00106822
-0.00084773
-0.000774395
-0.000334829
-0.000320615
-0.000654981
-0.000974041
-0.00106429
0.00430824
0.00290207
0.00313679
0.00369534
0.0038907
0.00374327
0.00353388
0.00346487
0.00729527
0.00626349
0.00655117
0.00712974
0.00741951
0.00739139
0.00725516
0.00719082
0.00996687
0.00921591
0.0095009
0.0100383
0.010357
0.0103963
0.0103032
0.0102302
0.0123051
0.0117629
0.0120159
0.0124757
0.012775
0.0128442
0.0127786
0.0126976
0.0143043
0.0139218
0.0141326
0.0145003
0.0147496
0.0148164
0.0147598
0.0146688
0.0159836
0.0157166
0.0158828
0.0161602
0.0163469
0.0163907
0.0163294
0.0162286
0.0173678
0.0171785
0.0173008
0.0174982
0.0176241
0.0176381
0.0175653
0.0174552
0.0184849
0.0183419
0.0184198
0.0185485
0.0186212
0.0186063
0.0185205
0.0184019
0.0193681
0.0192476
0.0192811
0.01935
0.0193771
0.0193374
0.019241
0.0191166
0.0200519
0.0199355
0.0199198
0.0199301
0.0199143
0.0198524
0.0197489
0.0196238
0.0205012
0.0203894
0.0203403
0.0203078
0.0202589
0.0201801
0.0200733
0.0199513
0.0207948
0.0206688
0.0205775
0.0205019
0.0204241
0.0203333
0.0202272
0.0201116
-0.381623
-0.389679
-0.398615
-0.410191
-0.426127
-0.44696
-0.470227
-0.490258
-0.382979
-0.388678
-0.394897
-0.40369
-0.416003
-0.431557
-0.449145
-0.464708
-0.383348
-0.387018
-0.390558
-0.396133
-0.404752
-0.415301
-0.424486
-0.428324
-0.382394
-0.383776
-0.384196
-0.385569
-0.38822
-0.390694
-0.389996
-0.383068
-0.37777
-0.37656
-0.373194
-0.369279
-0.365101
-0.35984
-0.351571
-0.337922
-0.36725
-0.363091
-0.35583
-0.347112
-0.337707
-0.327374
-0.314561
-0.297152
-0.34935
-0.342613
-0.332537
-0.320885
-0.308738
-0.295854
-0.2807
-0.261399
-0.324437
-0.316454
-0.305361
-0.292864
-0.280003
-0.266243
-0.250154
-0.230137
-0.294627
-0.287142
-0.276671
-0.264904
-0.25251
-0.238825
-0.222658
-0.202677
-0.262907
-0.25718
-0.248413
-0.238155
-0.226729
-0.213643
-0.197895
-0.178451
-0.231916
-0.228414
-0.22177
-0.213144
-0.202853
-0.190608
-0.17559
-0.157011
-0.20328
-0.201956
-0.197288
-0.190098
-0.180881
-0.16958
-0.1555
-0.138027
-0.178192
-0.178298
-0.175067
-0.168918
-0.160695
-0.150389
-0.137424
-0.121221
-0.156269
-0.157088
-0.154883
-0.149546
-0.142362
-0.132893
-0.121159
-0.106276
-0.137146
-0.138488
-0.136521
-0.132073
-0.125398
-0.116633
-0.106064
-0.092811
-0.465987
-0.437279
-0.411588
-0.391303
-0.377382
-0.370128
-0.369382
-0.37424
-0.466892
-0.438792
-0.413635
-0.393973
-0.380682
-0.37386
-0.373105
-0.377235