/*--------------------------------*- C++ -*----------------------------------*\
| =========                 |                                                 |
| \\      /  F ield         | OpenFOAM: The Open Source CFD Toolbox           |
|  \\    /   O peration     | Version:  2312                                  |
|   \\  /    A nd           | Website:  www.openfoam.com                      |
|    \\/     M anipulation  |                                                 |
\*---------------------------------------------------------------------------*/
FoamFile
{
    version     2.0;
    format      ascii;
    arch        "LSB;label=32;scalar=64";
    class       volVectorField;
    location    "183";
    object      U;
}
// * * * * * * * * * * * * * * * * * * * * * * * * * * * * * * * * * * * * * //

dimensions      [0 1 -1 0 0 0 0];

internalField   nonuniform List<vector> 
5478
(
(-0.0269278 0.0246814 -1.36501e-19)
(-0.0200191 0.0386464 0)
(0.0544283 0.0292462 2.07875e-19)
(0.202649 0.00384549 -3.65865e-19)
(0.424926 -0.026724 2.41986e-19)
(0.687662 -0.0550465 -7.13954e-20)
(0.938883 -0.0783689 -1.24847e-19)
(1.13658 -0.0977671 0)
(1.25893 -0.11538 0)
(1.30946 -0.130863 1.3913e-19)
(1.30331 -0.143838 -6.95101e-20)
(1.26518 -0.149786 -9.87529e-20)
(1.21686 -0.157594 -3.49443e-20)
(1.17162 -0.144121 0)
(1.12001 -0.157607 7.27116e-20)
(-0.0258538 0.0168159 2.7347e-19)
(0.00846706 0.0125685 0)
(0.14336 -0.00698238 0)
(0.384111 -0.0280624 -1.82004e-19)
(0.684568 -0.0405602 2.40681e-19)
(0.966582 -0.0455481 6.99663e-20)
(1.1757 -0.0490546 -1.15254e-19)
(1.2941 -0.0562104 1.02209e-19)
(1.33438 -0.0673964 2.37949e-19)
(1.32284 -0.0808204 -2.05709e-19)
(1.28789 -0.0915171 3.92838e-21)
(1.2502 -0.0999836 0)
(1.21613 -0.101779 3.48809e-20)
(1.1857 -0.096644 0)
(1.15991 -0.1005 0)
(-0.020152 0.010502 -7.18315e-22)
(0.0659738 -0.00932004 -1.25764e-19)
(0.298987 -0.0280378 3.03552e-22)
(0.635415 -0.028968 0)
(0.956486 -0.018313 -7.85599e-20)
(1.18379 -0.00854804 6.61327e-20)
(1.30316 -0.00709732 5.51442e-20)
(1.33987 -0.0140994 0)
(1.33052 -0.0256905 -7.96302e-20)
(1.30472 -0.0368872 6.49226e-20)
(1.27783 -0.0457159 5.23499e-20)
(1.25134 -0.0508312 0)
(1.22419 -0.0526502 0)
(1.19751 -0.0531342 -9.52982e-20)
(1.16805 -0.0537935 8.49196e-20)
(-0.00446381 0.00277877 -1.45422e-19)
(0.166071 -0.0264603 1.24204e-19)
(0.518459 -0.0239282 -1.07365e-19)
(0.896073 0.00189606 9.28204e-20)
(1.16351 0.0249029 1.56055e-19)
(1.30086 0.0346051 -1.30289e-19)
(1.346 0.0322884 -5.51167e-20)
(1.34451 0.0236311 4.20258e-20)
(1.32619 0.0136882 -4.04529e-20)
(1.30297 0.00445864 0)
(1.27613 -0.00318648 0)
(1.24729 -0.00961744 -7.29801e-20)
(1.21865 -0.0144838 9.33334e-20)
(1.1917 -0.0159708 -5.19781e-20)
(1.16571 -0.0215338 0)
(0.0271065 -0.00692144 7.33712e-20)
(0.317627 -0.0298416 6.20268e-20)
(0.759716 0.0095303 -2.20504e-19)
(1.10303 0.051845 2.50845e-21)
(1.28536 0.0735472 -3.16218e-21)
(1.35175 0.0776066 -1.56948e-21)
(1.35887 0.0722279 5.06827e-20)
(1.34208 0.0632903 4.32906e-20)
(1.3166 0.0533196 3.05307e-20)
(1.28784 0.0434575 -5.21104e-21)
(1.25985 0.0344849 -6.9438e-20)
(1.23442 0.0267817 0)
(1.21195 0.0223586 2.99896e-20)
(1.19113 0.0158904 -2.15212e-20)
(1.17356 0.0151691 3.95415e-20)
(0.0806898 -0.0145701 -1.54383e-19)
(0.509393 -0.00530084 1.67503e-19)
(0.969114 0.0651128 -5.66098e-20)
(1.24022 0.109723 4.32733e-20)
(1.34968 0.124484 -7.90055e-20)
(1.37102 0.122513 -5.87933e-20)
(1.35559 0.113499 1.34323e-21)
(1.3288 0.102124 0)
(1.30085 0.0904663 6.23454e-20)
(1.27546 0.0796065 -5.54418e-20)
(1.25225 0.0699731 2.19584e-20)
(1.23027 0.0619675 0)
(1.20847 0.0543662 1.34065e-20)
(1.18756 0.0481329 -2.28452e-20)
(1.16507 0.0444292 0)
(0.158265 -0.0124225 -1.92106e-20)
(0.703409 0.0500432 1.15829e-21)
(1.12615 0.134049 2.82802e-20)
(1.32237 0.172184 4.6314e-20)
(1.3762 0.177517 -3.52047e-20)
(1.36802 0.168488 5.93142e-20)
(1.34139 0.1553 -1.34769e-20)
(1.31287 0.141614 0)
(1.28622 0.128434 -3.67057e-20)
(1.26077 0.115957 2.43708e-21)
(1.23643 0.104406 3.06189e-20)
(1.21366 0.0936641 0)
(1.19319 0.0847674 -1.9649e-20)
(1.17439 0.0758235 0)
(1.15855 0.0725569 1.18552e-20)
(0.254751 0.00642539 -2.04287e-20)
(0.866696 0.126251 0)
(1.23097 0.211024 2.84586e-20)
(1.36102 0.237419 0)
(1.3758 0.231685 0)
(1.35209 0.215821 0)
(1.32118 0.198463 -1.15114e-20)
(1.29137 0.181377 0)
(1.26397 0.164965 7.4083e-21)
(1.23955 0.149695 0)
(1.21812 0.13583 -9.60231e-21)
(1.19922 0.123641 0)
(1.18176 0.112389 6.23587e-21)
(1.16555 0.102931 0)
(1.14896 0.0975128 4.03466e-21)
(-0.0138421 0.0679056 -1.29821e-20)
(-0.0466555 0.052384 0)
(-0.0948287 0.0067991 2.06714e-20)
(-0.143885 -0.0398406 0)
(-0.191214 -0.0925376 0)
(-0.236164 -0.155787 0)
(-0.276535 -0.229868 -1.37777e-20)
(-0.309941 -0.312876 0)
(-0.33379 -0.400625 1.11692e-20)
(-0.345865 -0.486248 0)
(-0.344543 -0.560837 -1.72321e-20)
(-0.32804 -0.615119 0)
(-0.294873 -0.640051 1.25949e-20)
(-0.248424 -0.627253 0)
(-0.169996 -0.577961 9.03199e-21)
(-0.0213283 0.0939204 6.68464e-20)
(-0.0512038 0.101562 -4.88536e-20)
(-0.0908706 0.0650351 2.38737e-20)
(-0.130408 0.0219584 7.9288e-20)
(-0.166878 -0.0291576 9.9072e-22)
(-0.199557 -0.0928458 -6.3787e-20)
(-0.227972 -0.169704 4.2409e-20)
(-0.25045 -0.258562 0)
(-0.265638 -0.35566 3.60193e-20)
(-0.273252 -0.454539 -7.59229e-22)
(-0.274084 -0.546818 -1.94611e-20)
(-0.269978 -0.622699 0)
(-0.257371 -0.673904 -3.79446e-20)
(-0.246733 -0.689846 0)
(-0.195988 -0.667836 -4.18821e-20)
(-0.0290432 0.109979 1.154e-19)
(-0.0533459 0.139588 2.65954e-20)
(-0.0778091 0.113277 -4.44435e-20)
(-0.0993096 0.0749135 -1.24636e-19)
(-0.116384 0.0276137 7.46267e-20)
(-0.127175 -0.032868 7.07788e-20)
(-0.130303 -0.107673 -1.28369e-19)
(-0.125037 -0.195458 0)
(-0.110584 -0.292191 -1.03544e-19)
(-0.0887623 -0.391346 9.20686e-20)
(-0.0632219 -0.485168 3.95868e-20)
(-0.0436586 -0.565472 0)
(-0.0159322 -0.62219 2.53306e-20)
(-0.0320939 -0.655805 -3.79369e-20)
(0.0246495 -0.652291 0)
(-0.0349766 0.111869 6.22602e-20)
(-0.0536437 0.159154 -1.6249e-19)
(-0.0607156 0.144333 1.94714e-19)
(-0.0610148 0.111589 -1.75977e-19)
(-0.0538619 0.0680472 -8.13967e-20)
(-0.037269 0.0113308 7.45851e-20)
(-0.00867572 -0.0604705 6.56207e-20)
(0.0338084 -0.145722 6.19943e-20)
(0.09004 -0.239537 -1.64042e-19)
(0.155756 -0.333913 3.6636e-21)
(0.226446 -0.416899 4.33001e-20)
(0.281941 -0.488054 0)
(0.35432 -0.520943 4.87103e-20)
(0.341169 -0.550957 1.02942e-19)
(0.427248 -0.523883 -5.81018e-20)
(-0.0373507 0.100358 1.30795e-21)
(-0.0517142 0.158066 1.1428e-19)
(-0.0426334 0.1547 -1.01588e-19)
(-0.0215637 0.128192 8.92916e-20)
(0.0111394 0.0884573 1.64252e-19)
(0.0582852 0.0345725 -1.50123e-19)
(0.12322 -0.0343321 -6.88293e-20)
(0.208347 -0.117082 -1.87019e-19)
(0.311139 -0.208028 1.66268e-19)
(0.424501 -0.297826 0)
(0.533193 -0.372306 0)
(0.621811 -0.433761 1.16916e-19)
(0.71105 -0.453602 -2.39602e-19)
(0.718369 -0.464574 7.73498e-20)
(0.808718 -0.426713 0)
(-0.0357412 0.0799467 5.5797e-23)
(-0.0472919 0.138401 -1.1479e-19)
(-0.0252921 0.143319 3.07201e-19)
(0.0155804 0.121832 -9.11272e-20)
(0.0743961 0.0841883 -8.29124e-20)
(0.155554 0.0327129 7.55892e-20)
(0.264215 -0.0327813 6.88507e-20)
(0.399874 -0.109506 1.2269e-19)
(0.552439 -0.1906 -2.14566e-19)
(0.706048 -0.264769 8.93982e-20)
(0.83423 -0.326606 7.29701e-20)
(0.935613 -0.364981 0)
(0.998407 -0.382951 0)
(1.00936 -0.378229 1.17197e-19)
(1.04273 -0.350578 -1.04303e-19)
(-0.0317379 0.0570085 6.02393e-22)
(-0.0409699 0.106212 0)
(-0.00881134 0.112858 0)
(0.0516145 0.0925586 1.85336e-19)
(0.142493 0.0559127 -8.1636e-20)
(0.270515 0.00642059 7.35231e-20)
(0.436219 -0.0543152 1.33866e-19)
(0.626227 -0.119702 -1.18694e-19)
(0.816577 -0.182861 1.05718e-19)
(0.979182 -0.235279 -8.94765e-20)
(1.09384 -0.27559 -5.8395e-21)
(1.16386 -0.296639 0)
(1.17414 -0.300264 4.02844e-20)
(1.16523 -0.296399 0)
(1.12689 -0.264249 0)
(-0.0282581 0.0376063 -1.33708e-19)
(-0.0332082 0.070453 0)
(0.0119817 0.0715257 -2.07622e-19)
(0.102484 0.049492 3.66788e-19)
(0.245356 0.0136513 -4.08188e-19)
(0.440698 -0.0309638 -7.45819e-20)
(0.667473 -0.0779651 1.2903e-19)
(0.890128 -0.121921 0)
(1.07498 -0.159379 0)
(1.19833 -0.189056 -1.52203e-19)
(1.25997 -0.210225 -5.29257e-20)
(1.26363 -0.218726 1.07932e-19)
(1.23001 -0.223434 -4.03641e-20)
(1.18439 -0.216091 0)
(1.12548 -0.195095 -7.79267e-20)
(-0.102552 -0.444783 0)
(0.169183 -0.0323566 4.26148e-21)
(0.396141 0.428181 -3.94793e-21)
(0.497611 0.705345 0)
(0.669908 0.704637 0)
(0.620402 0.769446 -9.35793e-23)
(0.469431 0.696539 0)
(0.537185 0.366282 0)
(0.763021 -0.173661 1.06691e-22)
(0.872367 -0.42914 0)
(0.948773 -0.435816 0)
(0.873492 -0.572331 -9.76897e-23)
(0.853366 -0.515819 0)
(0.856152 -0.471682 -6.69892e-23)
(0.930337 -0.131438 -7.27358e-23)
(0.937147 0.202583 0)
(0.997446 0.402322 -5.84514e-22)
(1.03253 0.644135 6.86014e-22)
(1.012 0.385194 0)
(1.01796 0.138594 4.95604e-22)
(1.10601 -0.230645 -6.04404e-22)
(1.07793 -0.652422 1.21069e-22)
(1.09165 -0.359972 -2.15434e-22)
(1.07505 -0.0872018 2.05855e-22)
(1.1323 0.305589 -2.25598e-22)
(1.14957 0.742332 0)
(1.19293 0.114118 -2.47617e-22)
(1.06835 -0.630388 2.36757e-22)
(1.07186 -0.228777 -1.14798e-22)
(1.04146 0.290692 0)
(1.00507 0.137124 -9.12484e-23)
(0.98889 -0.0767356 0)
(0.98324 -0.0390542 -3.71711e-23)
(0.978914 0.0161212 -1.34624e-23)
(0.973378 0.0103863 1.36054e-24)
(0.968813 0.000605037 -9.34631e-24)
(0.967804 0.000435096 0)
(0.964855 0.0019724 2.59844e-24)
(-0.249372 -0.568201 1.51089e-20)
(-0.0209324 -0.232532 -1.22974e-22)
(0.212124 0.249547 -8.94314e-21)
(0.425421 0.552905 8.52909e-21)
(0.629495 0.651676 0)
(0.54362 0.822304 9.43234e-23)
(0.467268 0.715868 -2.12784e-22)
(0.641347 0.29939 0)
(0.865717 -0.241054 -1.07486e-22)
(0.928816 -0.485611 0)
(1.00963 -0.432489 0)
(0.912912 -0.548346 9.83804e-23)
(0.898956 -0.520507 0)
(0.911198 -0.485691 2.38002e-21)
(0.929486 -0.146884 -1.98511e-21)
(0.927903 0.182593 2.65399e-21)
(0.957281 0.376034 -2.53342e-21)
(1.00703 0.635843 -1.28717e-22)
(0.990499 0.391321 0)
(1.01508 0.129189 0)
(1.13033 -0.234194 -1.19621e-22)
(1.07033 -0.649799 1.04172e-21)
(1.09615 -0.360259 -1.81426e-21)
(1.06438 -0.0949733 8.90622e-22)
(1.09572 0.28849 7.1341e-22)
(1.15642 0.73228 0)
(1.21105 0.128936 3.99334e-22)
(1.07431 -0.617765 0)
(1.05815 -0.230646 1.152e-22)
(1.03273 0.292285 -2.77783e-22)
(1.01001 0.140322 4.42021e-22)
(0.996134 -0.0748424 -4.53262e-23)
(0.98596 -0.0386038 7.42743e-23)
(0.980974 0.0167686 2.75835e-24)
(0.976229 0.0109774 1.60767e-23)
(0.972639 0.000933661 -7.85056e-24)
(0.971303 0.000660808 -7.09621e-25)
(0.968698 0.00212815 6.91359e-25)
(-0.111544 -0.630426 1.97462e-20)
(-0.0615117 -0.43512 -3.34634e-20)
(0.11561 0.0264146 2.54823e-21)
(0.377929 0.393121 1.09979e-20)
(0.530255 0.62502 1.57539e-22)
(0.442748 0.875638 -1.79928e-22)
(0.481557 0.707344 2.16472e-22)
(0.756311 0.238746 -5.13322e-22)
(0.982348 -0.266758 0)
(0.993759 -0.516051 9.44746e-21)
(1.06015 -0.426513 -9.01177e-21)
(0.946471 -0.513442 -1.94961e-22)
(0.921281 -0.531062 0)
(0.957874 -0.501804 -4.82648e-21)
(0.932358 -0.159168 4.45419e-21)
(0.924621 0.17239 -2.67992e-21)
(0.919774 0.358613 2.55729e-21)
(0.985722 0.624397 1.94663e-21)
(0.973167 0.397698 -1.627e-21)
(1.01231 0.122502 0)
(1.1461 -0.226479 0)
(1.05875 -0.637476 1.8521e-21)
(1.08986 -0.363831 -1.76832e-21)
(1.05081 -0.10154 -2.07749e-21)
(1.05225 0.266672 -1.25628e-23)
(1.15147 0.717893 1.93055e-21)
(1.21832 0.151121 -8.85058e-23)
(1.07411 -0.590678 -6.59043e-22)
(1.03853 -0.232324 1.40304e-21)
(1.02084 0.292014 -1.24037e-21)
(1.01142 0.144582 5.3786e-23)
(0.99993 -0.0710883 -1.33007e-22)
(0.985591 -0.0376408 5.4107e-23)
(0.980002 0.0173441 -5.1734e-23)
(0.976133 0.0115212 -1.06281e-23)
(0.973627 0.00125267 -5.31492e-24)
(0.972029 0.000891305 1.69972e-23)
(0.969814 0.00226539 2.62614e-24)
(0.270436 -0.540601 0)
(0.0944766 -0.504894 7.34077e-21)
(0.0753696 -0.181282 -7.23874e-21)
(0.296247 0.236722 0)
(0.374322 0.570771 -1.61956e-22)
(0.337339 0.852687 1.84917e-22)
(0.511543 0.642967 0)
(0.859277 0.167532 1.4055e-23)
(1.09875 -0.274237 -4.84616e-22)
(1.06563 -0.529475 0)
(1.10623 -0.424436 -7.08798e-21)
(1.00844 -0.467519 6.95798e-21)
(0.942244 -0.534234 -3.30065e-22)
(0.987385 -0.521216 -5.14866e-21)
(0.949071 -0.176554 4.91037e-21)
(0.933004 0.1486 3.49738e-22)
(0.881153 0.326824 0)
(0.946115 0.605081 -2.46919e-22)
(0.945409 0.405411 2.68118e-21)
(1.00313 0.119678 4.37139e-22)
(1.15272 -0.215744 4.19284e-22)
(1.04971 -0.622902 -2.71792e-21)
(1.07639 -0.371709 -3.65298e-21)
(1.0351 -0.110738 4.46994e-21)
(1.00365 0.236103 -5.25043e-22)
(1.12801 0.690585 0)
(1.21199 0.171565 -3.18966e-22)
(1.0718 -0.56346 6.67692e-22)
(1.01464 -0.23713 -1.42784e-21)
(1.00441 0.286202 1.26146e-21)
(1.00799 0.146847 -1.43538e-22)
(0.999976 -0.067155 0)
(0.982261 -0.0367718 -5.55546e-23)
(0.976207 0.0176277 1.02565e-22)
(0.97327 0.01192 3.27747e-23)
(0.971899 0.00152209 3.148e-23)
(0.970103 0.00110812 -1.70091e-23)
(0.968297 0.0023802 7.1254e-27)
(0.686656 -0.377746 2.23743e-22)
(0.475014 -0.387064 2.19865e-22)
(0.227758 -0.287 0)
(0.272046 0.0660764 0)
(0.293123 0.505433 0)
(0.317779 0.806063 0)
(0.583751 0.571194 1.47503e-20)
(0.956793 0.0989103 -3.04019e-20)
(1.19888 -0.264244 1.6715e-20)
(1.13799 -0.509254 0)
(1.12215 -0.421726 -6.84157e-21)
(1.05496 -0.417862 6.73897e-21)
(0.961903 -0.520514 5.73603e-21)
(0.986327 -0.543806 -4.8174e-21)
(0.959919 -0.203058 5.86805e-21)
(0.938254 0.14193 -5.95337e-21)
(0.845292 0.31761 -3.30616e-22)
(0.913004 0.58915 -3.03011e-21)
(0.926223 0.409933 2.88681e-21)
(0.995905 0.117119 3.03691e-22)
(1.15163 -0.197859 3.2196e-22)
(1.04283 -0.60319 3.15114e-21)
(1.05436 -0.381304 -3.41147e-21)
(1.01366 -0.117396 -1.10693e-21)
(0.953078 0.208165 -5.63154e-22)
(1.10016 0.670063 -4.08679e-22)
(1.19745 0.199892 0)
(1.06863 -0.53025 0)
(0.987746 -0.241294 0)
(0.986474 0.280006 0)
(1.00169 0.150234 3.85093e-22)
(0.99718 -0.0617874 -2.28369e-22)
(0.976588 -0.0354442 1.13324e-22)
(0.970062 0.0178614 -3.12368e-22)
(0.968014 0.0122614 3.29906e-23)
(0.967739 0.00177969 6.12262e-24)
(0.965793 0.00132662 -2.13362e-23)
(0.964378 0.00247875 -6.58036e-24)
(0.939954 -0.323268 -2.35455e-22)
(0.826301 -0.24227 3.52272e-21)
(0.62141 -0.218843 -3.44587e-21)
(0.4196 -0.0435505 1.25122e-20)
(0.34179 0.364827 -1.19194e-20)
(0.376504 0.688823 1.47282e-20)
(0.690417 0.492537 -1.36266e-20)
(1.06362 0.0606968 4.46337e-22)
(1.27662 -0.233974 -4.81817e-22)
(1.20866 -0.461214 0)
(1.1331 -0.41304 -2.41339e-22)
(1.08671 -0.376104 1.16653e-20)
(0.98718 -0.48811 -1.11042e-20)
(0.963726 -0.559437 -3.36738e-22)
(0.957707 -0.240519 0)
(0.943979 0.110917 -6.36009e-21)
(0.81905 0.283646 1.0819e-20)
(0.858251 0.559843 -4.32334e-21)
(0.887172 0.418611 0)
(0.985067 0.124299 2.17568e-21)
(1.1456 -0.174661 7.01067e-23)
(1.0396 -0.579718 -2.63714e-21)
(1.02874 -0.392301 -4.74136e-21)
(0.987293 -0.128537 4.62603e-21)
(0.906321 0.173121 -4.04645e-21)
(1.05391 0.631414 1.59548e-21)
(1.16975 0.222257 2.30253e-21)
(1.06596 -0.497982 -1.86291e-21)
(0.960945 -0.247363 1.7719e-21)
(0.964843 0.267065 -5.23257e-22)
(0.990905 0.151561 4.97496e-22)
(0.991299 -0.0566656 0)
(0.968916 -0.034312 1.1484e-22)
(0.961976 0.017784 -2.30762e-23)
(0.960787 0.0124386 0)
(0.961517 0.00197108 -3.02582e-23)
(0.959473 0.00152152 1.41082e-23)
(0.958394 0.00255601 -2.50986e-24)
(1.04426 -0.266542 0)
(0.934836 -0.192468 0)
(0.881439 -0.142653 -1.87506e-23)
(0.72378 -0.0062436 0)
(0.523069 0.305441 0)
(0.51859 0.602995 6.67477e-21)
(0.85637 0.417049 -6.41474e-21)
(1.18783 0.00841436 2.83381e-20)
(1.33198 -0.219163 -2.70368e-20)
(1.25922 -0.413559 0)
(1.15005 -0.401391 -2.26819e-22)
(1.10051 -0.346981 1.88696e-22)
(1.01641 -0.441401 -1.08187e-20)
(0.943694 -0.567636 -1.92781e-21)
(0.939036 -0.294228 1.14773e-20)
(0.938933 0.0986739 2.01445e-22)
(0.789753 0.287466 -1.80495e-22)
(0.81983 0.551138 5.61324e-21)
(0.868001 0.415418 -5.56585e-21)
(0.983263 0.119423 0)
(1.14127 -0.149215 0)
(1.03629 -0.550303 -1.44769e-22)
(1.00002 -0.40116 0)
(0.953079 -0.136407 5.08314e-21)
(0.858586 0.146715 -2.16156e-22)
(1.01916 0.614288 -3.81368e-21)
(1.14503 0.249514 -1.31457e-21)
(1.06238 -0.460778 9.01916e-22)
(0.936033 -0.25177 -2.37257e-22)
(0.944613 0.257073 0)
(0.979184 0.153732 -2.08654e-22)
(0.983835 -0.0509135 1.97808e-22)
(0.960177 -0.032845 6.81298e-23)
(0.952654 0.017818 2.65113e-23)
(0.952182 0.0126215 -4.60167e-23)
(0.953726 0.00217501 1.10901e-23)
(0.951621 0.0017328 0)
(0.950783 0.00262607 5.18722e-24)
(1.06135 -0.221999 4.77758e-20)
(0.982956 -0.177143 1.77468e-20)
(0.945652 -0.164568 -1.5758e-20)
(0.885793 -0.0732675 1.2341e-20)
(0.709633 0.180251 -1.2702e-20)
(0.675366 0.483265 6.38303e-23)
(0.984579 0.395391 0)
(1.26301 0.0624927 -1.92285e-22)
(1.36408 -0.127666 -2.04545e-22)
(1.28839 -0.32441 0)
(1.17366 -0.36575 -1.37352e-20)
(1.11137 -0.318963 1.30676e-20)
(1.04449 -0.391327 1.60208e-22)
(0.936975 -0.547396 1.19892e-20)
(0.907008 -0.351236 -1.13674e-20)
(0.914313 0.0421812 2.16384e-22)
(0.767904 0.241046 1.9115e-22)
(0.767778 0.511529 0)
(0.811486 0.430859 3.92939e-21)
(0.969831 0.14191 -3.73076e-21)
(1.14355 -0.115455 -2.22704e-21)
(1.03364 -0.514804 -6.56326e-22)
(0.972161 -0.405882 2.76833e-21)
(0.915077 -0.14882 -5.18219e-21)
(0.817618 0.100502 8.2517e-22)
(0.967894 0.565734 6.20261e-21)
(1.10931 0.274637 -1.72423e-21)
(1.05537 -0.422685 1.50529e-21)
(0.915885 -0.256451 -1.05898e-21)
(0.921397 0.238003 0)
(0.963273 0.15506 0)
(0.974321 -0.0445491 0)
(0.950773 -0.0314329 4.64017e-23)
(0.942595 0.0173401 -6.50808e-23)
(0.942726 0.0125373 4.06457e-23)
(0.944873 0.00226336 -2.63724e-23)
(0.942747 0.00187462 -1.1305e-23)
(0.942031 0.00265814 0)
(1.08026 -0.139971 0)
(1.03091 -0.0915866 0)
(0.958588 -0.0855995 0)
(0.910814 -0.00871683 0)
(0.844095 0.144528 0)
(0.933256 0.310062 0)
(1.21487 0.24715 0)
(1.33556 0.00222824 0)
(1.34857 -0.0966806 0)
(1.28662 -0.238402 0)
(1.18191 -0.311598 0)
(1.11608 -0.261563 0)
(1.08276 -0.320351 0)
(0.945779 -0.535385 0)
(0.877446 -0.405548 0)
(0.870563 0.0249862 0)
(0.724029 0.265015 0)
(0.713441 0.516711 0)
(0.789702 0.40032 0)
(0.98639 0.110537 0)
(1.16329 -0.0887878 0)
(1.03099 -0.48025 0)
(0.94323 -0.424193 0)
(0.867095 -0.156992 0)
(0.788557 0.0820064 0)
(0.91565 0.548601 0)
(1.10253 0.294185 0)
(1.05001 -0.395813 0)
(0.898463 -0.25672 0)
(0.898663 0.227563 0)
(0.946878 0.155387 0)
(0.962482 -0.0397842 0)
(0.938936 -0.0290231 0)
(0.930069 0.0179009 0)
(0.930721 0.0128405 0)
(0.933216 0.00253615 0)
(0.931098 0.00219606 0)
(0.930462 0.00275804 0)
(1.07756 -0.0854682 0)
(1.04602 -0.0571231 0)
(1.00296 -0.0583805 0)
(0.965875 0.000861221 0)
(0.962044 0.116636 0)
(1.05262 0.190241 0)
(1.22044 0.144054 0)
(1.28905 0.000671421 0)
(1.2708 -0.088245 0)
(1.22553 -0.22985 0)
(1.14075 -0.264722 0)
(1.0552 -0.262335 0)
(1.02929 -0.336201 0)
(0.906966 -0.466644 0)
(0.826665 -0.313305 0)
(0.775357 0.0956299 0)
(0.627785 0.310153 0)
(0.661544 0.510433 0)
(0.800914 0.331969 0)
(1.02153 0.0244812 0)
(1.16246 -0.140201 0)
(0.99979 -0.44591 0)
(0.893273 -0.353484 0)
(0.786235 -0.108326 0)
(0.706997 0.092014 0)
(0.857434 0.509661 0)
(1.09965 0.23516 0)
(1.03549 -0.373153 0)
(0.869793 -0.216028 0)
(0.864612 0.230635 0)
(0.924926 0.142194 0)
(0.947581 -0.039696 0)
(0.922487 -0.024902 0)
(0.912977 0.0187902 0)
(0.915056 0.0122716 0)
(0.918078 0.00233075 0)
(0.916173 0.00234504 0)
(0.915671 0.00276991 0)
(1.07676 -0.043834 0)
(1.0576 -0.0280348 0)
(1.0412 -0.0196846 0)
(1.00905 0.0171456 0)
(1.02432 0.0677768 0)
(1.07764 0.109306 0)
(1.17146 0.0828765 0)
(1.21335 -0.0297948 0)
(1.21224 -0.0602382 0)
(1.19459 -0.169584 0)
(1.10516 -0.211177 0)
(1.07388 -0.192781 0)
(1.06136 -0.2418 0)
(0.905807 -0.402159 0)
(0.751797 -0.290116 0)
(0.652653 0.148927 0)
(0.556944 0.330147 0)
(0.661183 0.433807 0)
(0.875672 0.224308 0)
(1.04334 -0.0301768 0)
(1.15953 -0.104054 0)
(1.01901 -0.382599 0)
(0.843799 -0.327975 0)
(0.699962 -0.0861162 0)
(0.607405 0.0704126 0)
(0.810859 0.432709 0)
(1.11686 0.213351 0)
(1.03511 -0.326781 0)
(0.837979 -0.197326 0)
(0.833009 0.214431 0)
(0.909695 0.128947 0)
(0.93432 -0.037092 0)
(0.905698 -0.0210061 0)
(0.896642 0.0188486 0)
(0.900255 0.0116973 0)
(0.903028 0.00237137 0)
(0.901311 0.00262852 0)
(0.900877 0.00283703 0)
(1.07536 -0.0167081 0)
(1.06149 -0.00581848 0)
(1.05687 -0.00873254 0)
(1.04031 0.0162347 0)
(1.05416 0.0362725 0)
(1.07898 0.0522309 0)
(1.13821 0.0399136 0)
(1.16097 -0.0278377 0)
(1.15282 -0.0605685 0)
(1.15048 -0.149615 0)
(1.07295 -0.163018 0)
(1.0286 -0.211334 0)
(0.985479 -0.250653 0)
(0.890982 -0.292624 0)
(0.699311 -0.160115 0)
(0.576837 0.208385 0)
(0.610399 0.295111 0)
(0.759942 0.337483 0)
(0.998896 0.143616 0)
(1.07241 -0.0884898 0)
(1.13372 -0.133353 0)
(1.02425 -0.313354 0)
(0.784315 -0.225684 0)
(0.624416 -0.0183392 0)
(0.537908 0.0558237 0)
(0.770127 0.333549 0)
(1.11667 0.147909 0)
(1.02933 -0.278577 0)
(0.785071 -0.148129 0)
(0.787082 0.202968 0)
(0.900551 0.109135 0)
(0.924924 -0.0361744 0)
(0.888567 -0.0157691 0)
(0.881137 0.0193285 0)
(0.887615 0.0108237 0)
(0.890232 0.00222236 0)
(0.888955 0.00280435 0)
(0.888869 0.00286182 0)
(1.07106 -0.00165164 0)
(1.0637 0.00553792 0)
(1.0675 -0.00190684 0)
(1.05281 0.0142034 0)
(1.06956 0.0161902 0)
(1.07608 0.022203 0)
(1.10827 0.0136177 0)
(1.12241 -0.0394113 0)
(1.11695 -0.0453662 0)
(1.11379 -0.123229 0)
(1.05838 -0.126992 0)
(1.04998 -0.131835 0)
(0.965702 -0.158902 0)
(0.893304 -0.20826 0)
(0.73291 -0.0912439 0)
(0.660404 0.212159 0)
(0.788582 0.224186 0)
(0.911236 0.215601 0)
(1.10233 0.063471 0)
(1.08828 -0.0918967 0)
(1.10881 -0.0960333 0)
(1.04733 -0.235657 0)
(0.783724 -0.145475 0)
(0.658603 0.0227956 0)
(0.572077 0.0193842 0)
(0.750634 0.212336 0)
(1.11194 0.102568 0)
(1.03356 -0.216796 0)
(0.742567 -0.103335 0)
(0.763054 0.179133 0)
(0.917618 0.0858315 0)
(0.92968 -0.0312373 0)
(0.880778 -0.00891576 0)
(0.876612 0.0187855 0)
(0.886526 0.00939344 0)
(0.88778 0.00212911 0)
(0.886467 0.00294799 0)
(0.886295 0.00285727 0)
(1.06638 0.00694475 0)
(1.06222 0.0108866 0)
(1.06938 0.000484316 0)
(1.05759 0.0102684 0)
(1.07343 0.00390496 0)
(1.06795 0.00432087 0)
(1.0918 -0.00251352 0)
(1.09232 -0.0385232 0)
(1.0869 -0.0408024 0)
(1.09038 -0.0974141 0)
(1.02629 -0.0977239 0)
(1.02542 -0.119882 0)
(0.964752 -0.136034 0)
(0.926153 -0.135203 0)
(0.803067 -0.0199736 0)
(0.798965 0.169264 0)
(0.949643 0.139553 0)
(1.01586 0.142109 0)
(1.14385 0.0433828 0)
(1.08024 -0.0852229 0)
(1.05894 -0.104009 0)
(1.03093 -0.173147 0)
(0.805695 -0.0548208 0)
(0.780437 0.0807585 0)
(0.730793 0.0223702 0)
(0.790601 0.100089 0)
(1.09728 0.0302528 0)
(1.0337 -0.148386 0)
(0.73846 -0.0419386 0)
(0.786198 0.140803 0)
(0.954691 0.0548644 0)
(0.946712 -0.0239183 0)
(0.891558 9.4324e-05 0)
(0.892789 0.0174084 0)
(0.904925 0.00761439 0)
(0.903343 0.0022811 0)
(0.901692 0.00318783 0)
(0.900658 0.00291655 0)
(1.06006 0.0102409 0)
(1.05877 0.0121595 0)
(1.06655 0.00205678 0)
(1.05715 0.00650163 0)
(1.0694 -0.00178423 0)
(1.06114 -0.0047297 0)
(1.07567 -0.0103799 0)
(1.07144 -0.0353242 0)
(1.06446 -0.0372731 0)
(1.06781 -0.0736415 0)
(1.0216 -0.0724903 0)
(1.02788 -0.0811923 0)
(0.970271 -0.0780514 0)
(0.941209 -0.0808085 0)
(0.87067 -0.00329287 0)
(0.903863 0.112724 0)
(1.01405 0.0865075 0)
(1.02968 0.0850448 0)
(1.12666 0.0184746 0)
(1.07697 -0.0483104 0)
(1.03765 -0.0617888 0)
(1.02083 -0.109509 0)
(0.847181 -0.0162772 0)
(0.900185 0.0747483 0)
(0.92574 0.024813 0)
(0.89638 0.0430549 0)
(1.07755 -0.00204288 0)
(1.03804 -0.0828391 0)
(0.803914 0.00156727 0)
(0.858594 0.0943018 0)
(0.999214 0.0288252 0)
(0.976745 -0.0113835 0)
(0.928415 0.00861163 0)
(0.93292 0.0145553 0)
(0.943603 0.00598421 0)
(0.938635 0.00303476 0)
(0.936711 0.00367799 0)
(0.933827 0.00315333 0)
(1.05377 0.0111803 0)
(1.05421 0.0115617 0)
(1.0606 0.00256243 0)
(1.05381 0.00426874 0)
(1.06221 -0.00479936 0)
(1.05413 -0.00686946 0)
(1.06211 -0.0144744 0)
(1.05676 -0.0284398 0)
(1.05061 -0.0314066 0)
(1.05076 -0.0534774 0)
(1.01869 -0.0512065 0)
(1.0175 -0.0625458 0)
(0.979623 -0.0534378 0)
(0.967841 -0.0521322 0)
(0.925674 0.00436941 0)
(0.954265 0.0630051 0)
(1.02337 0.050149 0)
(1.0283 0.0605963 0)
(1.08662 0.00951826 0)
(1.05012 -0.030413 0)
(1.02544 -0.053781 0)
(1.01339 -0.0727025 0)
(0.909854 0.00578708 0)
(0.967948 0.0489137 0)
(1.00893 0.0305856 0)
(0.976617 0.0228723 0)
(1.05293 -0.0320589 0)
(1.01724 -0.038792 0)
(0.888136 0.0402647 0)
(0.943018 0.0634007 0)
(1.02799 0.00985013 0)
(0.999577 -0.000167544 0)
(0.971185 0.0159577 0)
(0.977852 0.0125185 0)
(0.984261 0.00534275 0)
(0.977922 0.00434285 0)
(0.976696 0.00457455 0)
(0.972976 0.00376195 0)
(1.04739 0.0107663 0)
(1.04908 0.01024 0)
(1.05314 0.00288959 0)
(1.04932 0.00293069 0)
(1.05376 -0.004959 0)
(1.04745 -0.00704064 0)
(1.05164 -0.0138049 0)
(1.04502 -0.0219661 0)
(1.0418 -0.0253344 0)
(1.03711 -0.0382704 0)
(1.01938 -0.0360419 0)
(1.01577 -0.0436364 0)
(0.99189 -0.0303343 0)
(0.985029 -0.03099 0)
(0.96198 0.00340389 0)
(0.982717 0.0348934 0)
(1.01521 0.0297276 0)
(1.02384 0.0373415 0)
(1.05919 0.00197335 0)
(1.03782 -0.0134573 0)
(1.02515 -0.0295503 0)
(1.00311 -0.0407843 0)
(0.954373 0.00755138 0)
(0.992613 0.0243001 0)
(1.02052 0.0235087 0)
(1.01671 0.0175161 0)
(1.03608 -0.0232124 0)
(0.992161 -0.0107049 0)
(0.951437 0.0421303 0)
(1.00384 0.0374451 0)
(1.03644 0.00573525 0)
(1.01021 0.0100053 0)
(1.00358 0.0177681 0)
(1.01088 0.0098922 0)
(1.01237 0.00544667 0)
(1.00686 0.00558903 0)
(1.00674 0.00523071 0)
(1.00358 0.00432228 0)
(1.04132 0.00984226 0)
(1.04336 0.00887531 0)
(1.04599 0.00318185 0)
(1.0437 0.00245664 0)
(1.04584 -0.0040137 0)
(1.04114 -0.00562387 0)
(1.04304 -0.0113777 0)
(1.0371 -0.0160403 0)
(1.03531 -0.0187801 0)
(1.0295 -0.0264844 0)
(1.02041 -0.0236615 0)
(1.01482 -0.0296854 0)
(1.0007 -0.0190058 0)
(0.997795 -0.0197529 0)
(0.984518 0.00175364 0)
(0.997722 0.0172139 0)
(1.01225 0.0159462 0)
(1.02195 0.0234478 0)
(1.03882 -0.000457766 0)
(1.02565 -0.00686148 0)
(1.02242 -0.0206741 0)
(1.00296 -0.0252774 0)
(0.983848 0.00612537 0)
(1.00306 0.0123484 0)
(1.01397 0.0201108 0)
(1.02187 0.0129248 0)
(1.02501 -0.0189354 0)
(0.991895 -0.000174648 0)
(0.989228 0.0363196 0)
(1.02317 0.0253301 0)
(1.02958 0.0069516 0)
(1.01606 0.0132811 0)
(1.02147 0.0159359 0)
(1.0257 0.00878019 0)
(1.02425 0.0062622 0)
(1.02124 0.00626691 0)
(1.02187 0.00553901 0)
(1.01977 0.00475079 0)
(1.03585 0.00881929 0)
(1.03774 0.00767389 0)
(1.03931 0.00355727 0)
(1.03802 0.00232325 0)
(1.03889 -0.00222295 0)
(1.03562 -0.00393606 0)
(1.0363 -0.00790478 0)
(1.03147 -0.0110577 0)
(1.03049 -0.0129603 0)
(1.02517 -0.0175194 0)
(1.02038 -0.0156129 0)
(1.01555 -0.0193752 0)
(1.00765 -0.0119317 0)
(1.00584 -0.0119512 0)
(0.998483 -0.000158841 0)
(1.00659 0.00826014 0)
(1.01103 0.00844886 0)
(1.01954 0.0127407 0)
(1.02723 -0.000941964 0)
(1.02033 -0.00258529 0)
(1.02059 -0.010652 0)
(1.00511 -0.012379 0)
(0.998309 0.00487253 0)
(1.00645 0.00657597 0)
(1.01115 0.0138614 0)
(1.02261 0.0104958 0)
(1.01939 -0.00693815 0)
(0.996898 0.00579093 0)
(1.00406 0.0259815 0)
(1.02431 0.0184386 0)
(1.0241 0.0100973 0)
(1.01939 0.0141908 0)
(1.02653 0.0137894 0)
(1.02856 0.00852515 0)
(1.02708 0.00696523 0)
(1.02605 0.00657807 0)
(1.02663 0.00576533 0)
(1.02544 0.00510366 0)
(1.03102 0.00795636 0)
(1.0325 0.00678578 0)
(1.03357 0.00393871 0)
(1.03282 0.00262101 0)
(1.03307 -0.000497058 0)
(1.03086 -0.00205284 0)
(1.03082 -0.00478162 0)
(1.02749 -0.00694918 0)
(1.02659 -0.00826803 0)
(1.02274 -0.0110158 0)
(1.02011 -0.00986759 0)
(1.01649 -0.0119396 0)
(1.01202 -0.00761178 0)
(1.01076 -0.00734878 0)
(1.00652 -0.000972332 0)
(1.01104 0.00317504 0)
(1.01192 0.00396423 0)
(1.01765 0.00679392 0)
(1.02056 -0.000722201 0)
(1.01691 -0.000858745 0)
(1.01752 -0.00585995 0)
(1.00796 -0.00644603 0)
(1.00613 0.00329989 0)
(1.00927 0.00432738 0)
(1.01101 0.0101177 0)
(1.01859 0.0081034 0)
(1.01584 -0.00211066 0)
(1.00483 0.00631904 0)
(1.01093 0.0189248 0)
(1.0211 0.0151381 0)
(1.02103 0.0104791 0)
(1.02106 0.0124023 0)
(1.02672 0.0116333 0)
(1.02789 0.00822466 0)
(1.02716 0.00691057 0)
(1.02701 0.00628375 0)
(1.02738 0.0056159 0)
(1.02677 0.00511721 0)
(1.02681 0.00722899 0)
(1.02798 0.00615622 0)
(1.02871 0.0042509 0)
(1.02825 0.00299773 0)
(1.02825 0.000927875 0)
(1.02681 -0.000416092 0)
(1.02656 -0.0022269 0)
(1.02435 -0.00372412 0)
(1.02363 -0.00474927 0)
(1.02106 -0.00628631 0)
(1.01949 -0.00592216 0)
(1.01707 -0.00691844 0)
(1.01447 -0.00473668 0)
(1.01356 -0.00436815 0)
(1.01104 -0.00111232 0)
(1.01343 0.00103899 0)
(1.01284 0.00178696 0)
(1.01611 0.0033519 0)
(1.01712 -0.000290781 0)
(1.01529 3.7518e-05 0)
(1.01585 -0.00231513 0)
(1.01039 -0.00216316 0)
(1.00987 0.00291157 0)
(1.01083 0.00371326 0)
(1.01189 0.00718466 0)
(1.01688 0.00699029 0)
(1.01497 0.00267282 0)
(1.00936 0.00754296 0)
(1.0133 0.0140194 0)
(1.01925 0.0126487 0)
(1.02011 0.0107904 0)
(1.02131 0.011597 0)
(1.02528 0.0105904 0)
(1.0266 0.008198 0)
(1.02656 0.00706833 0)
(1.02673 0.0063499 0)
(1.02695 0.0058004 0)
(1.02676 0.00533595 0)
(1.02328 0.00659513 0)
(1.02415 0.00569207 0)
(1.02466 0.0043934 0)
(1.0244 0.00336363 0)
(1.02435 0.00195435 0)
(1.02348 0.000929544 0)
(1.02318 -0.000353777 0)
(1.02179 -0.00134222 0)
(1.02121 -0.00219755 0)
(1.01962 -0.00306462 0)
(1.01865 -0.00314295 0)
(1.01714 -0.00360962 0)
(1.01555 -0.00265864 0)
(1.01492 -0.00238892 0)
(1.01333 -0.000780862 0)
(1.01441 0.000268622 0)
(1.01362 0.000797747 0)
(1.0152 0.00178711 0)
(1.01544 0.000180727 0)
(1.01447 0.000574809 0)
(1.0146 -0.00038951 0)
(1.01188 -0.000174208 0)
(1.01179 0.00255437 0)
(1.01211 0.00337542 0)
(1.0127 0.00552533 0)
(1.01521 0.00590918 0)
(1.01439 0.00385781 0)
(1.01251 0.00687735 0)
(1.01487 0.0107834 0)
(1.01811 0.0105279 0)
(1.01927 0.00969068 0)
(1.02101 0.00991441 0)
(1.02388 0.00923293 0)
(1.02535 0.00764801 0)
(1.02568 0.00662776 0)
(1.02612 0.00592227 0)
(1.02626 0.00549618 0)
(1.02642 0.00513445 0)
(1.02027 0.00601142 0)
(1.02094 0.00527792 0)
(1.02133 0.00440767 0)
(1.02122 0.00359234 0)
(1.02118 0.00263588 0)
(1.02067 0.00186027 0)
(1.02045 0.000939857 0)
(1.01961 0.000281696 0)
(1.01919 -0.000434153 0)
(1.01826 -0.00090882 0)
(1.01764 -0.00122916 0)
(1.01676 -0.00142009 0)
(1.01575 -0.00116666 0)