/*--------------------------------*- C++ -*----------------------------------*\
| =========                 |                                                 |
| \\      /  F ield         | OpenFOAM: The Open Source CFD Toolbox           |
|  \\    /   O peration     | Version:  2312                                  |
|   \\  /    A nd           | Website:  www.openfoam.com                      |
|    \\/     M anipulation  |                                                 |
\*---------------------------------------------------------------------------*/
FoamFile
{
    version     2.0;
    format      ascii;
    arch        "LSB;label=32;scalar=64";
    class       volVectorField;
    location    "46";
    object      U;
}
// * * * * * * * * * * * * * * * * * * * * * * * * * * * * * * * * * * * * * //

dimensions      [0 1 -1 0 0 0 0];

internalField   nonuniform List<vector> 
9200
(
(0.0401204 -0.0151261 8.96073e-20)
(0.00892479 0.0880376 -1.71091e-19)
(-0.0262582 0.226486 7.89912e-20)
(0.083582 0.279547 1.75696e-19)
(0.200322 0.359638 -1.59402e-19)
(0.270256 0.323607 0)
(0.479691 0.214591 0)
(0.701037 0.0501113 3.20464e-19)
(0.982873 -0.103048 -4.7852e-20)
(1.1897 -0.209801 -2.23123e-19)
(1.25922 -0.249222 -5.49707e-20)
(1.2116 -0.248565 5.1396e-20)
(1.15441 -0.1939 -2.06391e-20)
(1.08281 -0.13165 -2.41998e-20)
(1.02755 -0.0874649 0)
(1.01224 -0.0500712 -4.76451e-21)
(0.983157 -0.0338797 1.9927e-20)
(0.975227 0.000334656 2.66812e-22)
(0.984833 0.0228324 -1.00977e-20)
(1.10958 0.0204924 -7.73017e-21)
(0.0993847 -0.0408378 -8.50449e-22)
(0.102495 0.0210679 7.99238e-20)
(0.106329 0.102062 1.44492e-19)
(0.267654 0.148628 0)
(0.344619 0.264203 0)
(0.472713 0.366591 0)
(0.593171 0.324488 0)
(0.91006 0.236968 -1.86793e-19)
(1.24786 0.127537 2.19306e-19)
(1.40394 0.0175091 6.37981e-20)
(1.3829 -0.0675709 -6.74959e-20)
(1.30129 -0.0926679 3.24058e-20)
(1.21175 -0.0774297 -2.16425e-20)
(1.16313 -0.0686192 -6.53425e-21)
(1.14287 -0.0532683 4.97529e-20)
(1.1197 -0.0240815 -2.18423e-20)
(1.13879 -0.00421714 -2.29209e-21)
(1.1663 0.0156193 -1.20378e-21)
(1.1794 0.0052115 -1.65792e-21)
(1.13757 0.0319768 7.71103e-21)
(0.123152 -0.0902118 -8.81573e-20)
(0.0745628 -0.0537486 -7.96996e-20)
(0.0501652 -0.0436787 6.23916e-20)
(0.33075 -0.0776137 -1.18855e-19)
(0.480313 0.0190767 0)
(0.485371 0.114633 0)
(0.733413 0.158282 0)
(1.14431 0.160199 -5.36144e-20)
(1.39333 0.11571 0)
(1.40107 0.0344656 6.99852e-20)
(1.3054 -0.0241929 -4.3623e-20)
(1.21614 -0.0439741 -1.21025e-19)
(1.17542 -0.0420157 9.65601e-20)
(1.16456 -0.0320662 1.2717e-20)
(1.13384 -0.0138994 -2.25508e-20)
(1.13613 -0.00817159 -2.7419e-20)
(1.10414 -0.0058532 1.11229e-20)
(1.0611 0.00740645 1.25897e-20)
(1.01012 0.023848 -3.58275e-21)
(1.02231 0.0219326 0)
(0.0655958 -0.0770487 8.9872e-20)
(-0.00856429 -0.130068 1.6589e-19)
(0.146089 -0.206362 1.44334e-19)
(0.402229 -0.197869 -1.77437e-19)
(0.494893 -0.103044 6.98323e-21)
(0.803628 0.0169832 1.76554e-19)
(1.15465 0.108763 -8.00456e-20)
(1.36643 0.154154 3.68015e-20)
(1.36832 0.130069 0)
(1.285 0.0748346 -2.60502e-20)
(1.22947 0.0305612 1.19137e-19)
(1.20337 0.00675432 -1.23566e-19)
(1.19235 0.011732 -3.47873e-20)
(1.16219 0.00905652 3.70893e-20)
(1.13212 -0.00129531 -3.02209e-20)
(1.08993 0.0161667 2.48139e-20)
(1.09275 0.0270681 0)
(1.1129 0.0199236 0)
(1.13901 0.028993 -5.5411e-22)
(1.14097 0.02166 0)
(-0.029408 -0.0698205 9.84104e-20)
(-0.0666591 -0.110188 -1.31383e-19)
(0.225286 -0.161632 -1.57029e-19)
(0.775477 -0.0504529 0)
(1.10848 0.00361291 -5.39291e-20)
(1.31538 0.0838433 -4.38007e-20)
(1.36824 0.135844 1.20458e-19)
(1.29262 0.139287 -1.08447e-19)
(1.23128 0.113956 5.74063e-20)
(1.23297 0.0892094 -2.6373e-20)
(1.23354 0.0652906 0)
(1.22517 0.0587765 4.4821e-20)
(1.19408 0.0488379 2.26078e-20)
(1.16787 0.0415154 3.07148e-20)
(1.16868 0.0542025 -2.81601e-20)
(1.18495 0.0480727 -1.5645e-20)
(1.17243 0.0374245 1.43627e-20)
(1.13171 0.0517357 -4.19714e-21)
(1.07138 0.0426481 1.68316e-21)
(1.06024 0.0496005 1.97243e-21)
(-0.138647 0.0151697 2.02595e-19)
(-0.0258525 -0.129431 1.35e-22)
(0.777787 0.0571814 0)
(1.16486 0.0738564 9.76933e-20)
(1.27104 0.120705 -3.15082e-20)
(1.21304 0.130329 -4.48634e-20)
(1.13357 0.121882 2.37855e-21)
(1.16452 0.118989 3.55935e-20)
(1.23249 0.122291 2.63712e-20)
(1.24575 0.106815 -2.17292e-20)
(1.22801 0.0889103 -3.34505e-20)
(1.1934 0.0745324 -3.60307e-20)
(1.17323 0.0706832 5.84188e-20)
(1.17213 0.0706246 3.87155e-20)
(1.15137 0.0504963 -3.79995e-20)
(1.10249 0.0625823 2.06685e-20)
(1.06542 0.0654136 0)
(1.07029 0.0533919 1.20715e-21)
(1.09651 0.0566217 -4.94213e-21)
(1.10387 0.0474587 8.16738e-21)
(-0.147362 -0.0625674 -5.50901e-20)
(0.354285 -0.0203624 1.84404e-21)
(1.02397 0.119473 -3.99375e-20)
(1.19139 0.121643 -9.61485e-20)
(1.19146 0.109063 8.40397e-20)
(1.20517 0.112391 4.16364e-20)
(1.28171 0.130296 -7.48085e-20)
(1.30771 0.154608 -2.678e-20)
(1.26271 0.150044 5.09076e-20)
(1.22168 0.136124 6.11962e-20)
(1.20035 0.120467 -8.38292e-20)
(1.19018 0.106735 2.88734e-20)
(1.17271 0.0927851 -3.00751e-20)
(1.13862 0.0819835 9.49615e-21)
(1.14524 0.0917508 -1.24692e-20)
(1.15793 0.0772883 1.67104e-20)
(1.15618 0.0771254 -3.3581e-21)
(1.13768 0.0815913 -1.56202e-20)
(1.10436 0.0810718 3.03732e-21)
(1.08768 0.0851709 0)
(-0.232003 -0.165164 5.51219e-20)
(0.900742 0.203312 -1.19629e-19)
(1.15272 0.177793 8.26314e-20)
(1.27539 0.164039 1.48283e-20)
(1.33179 0.190724 -7.60666e-20)
(1.3342 0.19906 4.44415e-20)
(1.26278 0.189911 0)
(1.191 0.166468 0)
(1.17276 0.150443 -2.43622e-20)
(1.18883 0.140173 0)
(1.19126 0.128492 4.53795e-20)
(1.16771 0.12246 -4.98473e-20)
(1.15138 0.115175 3.94802e-20)
(1.17719 0.113889 -1.67311e-20)
(1.16353 0.097891 0)
(1.11581 0.100242 0)
(1.08019 0.0963482 0)
(1.07235 0.0887801 -8.23254e-21)
(1.08695 0.0813056 9.10469e-21)
(1.09213 0.086038 0)
(0.0339355 -0.0431801 2.43376e-20)
(0.996871 0.201298 2.41276e-21)
(1.24744 0.274508 0)
(1.29366 0.248922 -5.33854e-21)
(1.22861 0.226389 1.35851e-20)
(1.16248 0.194449 1.83221e-20)
(1.17507 0.178175 -1.66749e-20)
(1.20941 0.179295 -6.14643e-21)
(1.21071 0.173954 6.19877e-21)
(1.19619 0.165149 0)
(1.18053 0.162924 1.33388e-20)
(1.16372 0.142665 -1.48909e-20)
(1.15047 0.132272 -8.32356e-21)
(1.11149 0.124182 9.28416e-21)
(1.11208 0.122194 2.38823e-21)
(1.11938 0.109742 -4.53956e-21)
(1.11963 0.1066 0)
(1.12096 0.107576 0)
(1.09663 0.108019 -4.03176e-21)
(1.07787 0.101984 2.28902e-21)
(0.231338 0.248328 0)
(1.07343 0.28857 0)
(1.22694 0.345814 0)
(1.23164 0.248584 -6.10178e-22)
(1.23606 0.227716 3.54567e-22)
(1.27333 0.221763 4.66302e-22)
(1.26212 0.222693 3.87879e-21)
(1.20833 0.211965 -6.27729e-21)
(1.16953 0.19344 9.7628e-21)
(1.17007 0.182072 -4.22805e-21)
(1.15993 0.161722 0)
(1.13218 0.157416 2.69468e-21)
(1.12911 0.142827 0)
(1.16272 0.137705 -1.66151e-21)
(1.14857 0.131601 2.56467e-21)
(1.11273 0.125905 0)
(1.08261 0.1248 0)
(1.07577 0.115445 0)
(1.08029 0.1075 0)
(1.07033 0.109528 -3.10397e-22)
(0.164918 -1.13257 -1.51343e-20)
(0.0393453 -1.19277 0)
(0.143825 -1.11174 0)
(0.118815 -1.01945 -4.22916e-20)
(0.190874 -0.835129 7.88128e-20)
(0.195341 -0.625749 6.01648e-22)
(0.292851 -0.315936 -1.71554e-20)
(0.291193 -0.107561 -3.2386e-20)
(0.381842 0.230073 4.51817e-22)
(0.504751 0.598621 2.66475e-20)
(0.605233 0.9883 0)
(0.714937 1.15197 1.68493e-20)
(0.643965 1.15908 0)
(0.736396 1.19599 -9.98667e-21)
(0.69925 1.1395 1.56753e-20)
(0.735308 1.0931 0)
(0.687055 0.989263 0)
(0.797769 0.936052 0)
(0.784902 1.0965 0)
(0.810599 0.884689 8.73206e-21)
(0.234969 -1.13305 -5.5388e-20)
(0.0568902 -1.17697 9.60306e-20)
(0.127646 -1.10844 0)
(0.0745112 -1.03954 1.44821e-19)
(0.0868399 -0.875017 -1.15683e-19)
(0.07824 -0.682595 -7.56614e-20)
(0.129685 -0.405842 -1.6905e-21)
(0.148607 -0.211771 1.61446e-19)
(0.18419 0.125622 -8.87507e-20)
(0.255813 0.475367 0)
(0.312351 0.830466 0)
(0.450865 1.11818 -1.68286e-20)
(0.42991 1.13423 4.53471e-20)
(0.517247 1.18374 -3.15675e-20)
(0.58639 1.08287 -4.30515e-20)
(0.615065 1.09984 2.51375e-20)
(0.619653 0.903549 0)
(0.644043 0.886025 0)
(0.649879 0.972208 1.74628e-20)
(0.776117 0.751865 -2.82621e-20)
(0.26554 -1.06522 9.59859e-20)
(0.0817767 -1.10663 -3.89787e-20)
(0.0807512 -1.06332 -4.43687e-21)
(-0.00239943 -1.021 -1.18474e-19)
(-0.0414098 -0.896448 2.22794e-19)
(-0.0686387 -0.751456 -1.37514e-19)
(-0.0488229 -0.544723 0)
(-0.0421634 -0.333386 0)
(-0.0542347 -0.0296447 -1.04419e-19)
(0.030771 0.268947 0)
(0.032585 0.574886 -7.10085e-20)
(0.206048 0.871527 2.33125e-19)
(0.241686 0.929205 -1.68634e-19)
(0.322303 1.00551 6.75395e-20)
(0.418482 0.956395 0)
(0.496969 1.03448 0)
(0.548112 0.93301 0)
(0.543186 0.880323 5.00778e-20)
(0.625235 0.807129 -3.26305e-20)
(0.751288 0.654085 0)
(0.291198 -0.957147 -9.59147e-20)
(0.0920297 -1.01377 1.25704e-20)
(0.0255113 -0.98302 -7.55348e-20)
(-0.0996768 -0.957542 7.7267e-20)
(-0.202188 -0.869183 -6.54923e-20)
(-0.267483 -0.766825 0)
(-0.292388 -0.607541 -1.10894e-19)
(-0.317873 -0.420981 1.00734e-19)
(-0.295129 -0.181808 1.71828e-20)
(-0.233427 0.0905155 -7.94217e-20)
(-0.253576 0.353344 1.81216e-19)
(-0.114096 0.634083 -1.04301e-19)
(-0.0194034 0.737501 2.78517e-20)
(0.0819067 0.783371 -6.05659e-20)
(0.291205 0.765479 -1.71378e-20)
(0.408041 0.846139 -3.64531e-20)
(0.513716 0.852944 3.26973e-21)
(0.562165 0.818952 2.06138e-20)
(0.696894 0.69619 8.93107e-21)
(0.773767 0.628478 0)
(0.291838 -0.815467 -2.82048e-19)
(0.0762131 -0.877433 2.51377e-19)
(-0.0622891 -0.860166 0)
(-0.254057 -0.855924 -5.67886e-20)
(-0.38609 -0.832333 1.51735e-19)
(-0.453381 -0.798861 -1.01473e-19)
(-0.484283 -0.726104 4.07891e-19)
(-0.489936 -0.607277 -4.62382e-19)
(-0.464546 -0.408673 2.48559e-19)
(-0.440523 -0.179965 -7.1312e-20)
(-0.445535 0.0668616 7.92467e-20)
(-0.279606 0.268953 4.68582e-22)
(-0.217668 0.358276 -6.49749e-20)
(0.00908024 0.445205 -1.27179e-20)
(0.109433 0.430799 5.29735e-20)
(0.274095 0.587831 -1.02085e-20)
(0.332715 0.650315 0)
(0.505666 0.66631 7.41536e-21)
(0.657935 0.610729 9.03044e-21)
(0.759979 0.591559 -2.03125e-20)
(0.234498 -0.634358 -1.09102e-19)
(0.00319205 -0.691266 -4.64666e-20)
(-0.206014 -0.69388 -8.85772e-20)
(-0.426518 -0.737953 0)
(-0.554712 -0.780016 -1.04892e-19)
(-0.619514 -0.795348 2.89978e-19)
(-0.668197 -0.768423 -4.3351e-19)
(-0.671221 -0.704563 8.33532e-20)
(-0.637998 -0.5706 -1.07315e-19)
(-0.592845 -0.388847 1.34941e-19)
(-0.524028 -0.170013 0)
(-0.429942 0.00787361 4.41168e-20)
(-0.366824 -0.0406246 4.2572e-21)
(-0.103545 0.249938 9.08688e-21)
(-0.0433449 0.0601804 -8.32743e-21)
(0.222161 0.304759 -2.2683e-20)
(0.239429 0.32997 2.08152e-20)
(0.602513 0.279261 4.28608e-21)
(0.642779 0.371638 -8.35656e-21)
(0.730675 0.372133 1.05884e-20)
(0.122822 -0.404764 -8.45446e-20)
(-0.147494 -0.45788 1.66957e-19)
(-0.388495 -0.461961 6.54683e-22)
(-0.556488 -0.519448 2.62433e-19)
(-0.596552 -0.631819 1.63758e-20)
(-0.648371 -0.729479 -3.36867e-19)
(-0.687337 -0.766507 6.66427e-21)
(-0.638401 -0.791894 2.05425e-19)
(-0.570206 -0.762187 0)
(-0.48545 -0.644579 -3.7028e-20)
(-0.383608 -0.395869 -1.59768e-20)
(-0.373644 -0.0441876 3.05567e-20)
(-0.0474385 -0.324826 -2.32184e-20)
(0.0602749 -0.0421826 1.47372e-20)
(0.280814 -0.128854 -1.73568e-20)
(0.370158 0.0247619 1.37409e-20)
(0.489892 0.036455 0)
(0.67641 0.0471735 0)
(0.518679 0.283465 -5.79215e-20)
(0.729768 0.210833 3.88156e-20)
(0.0581697 -0.188735 -8.34657e-20)
(-0.135951 -0.209116 -7.75269e-20)
(-0.290528 -0.256455 -2.49372e-19)
(-0.37369 -0.348465 1.53314e-19)
(-0.444774 -0.449394 0)
(-0.54141 -0.518379 1.77211e-19)
(-0.500278 -0.618751 -1.61271e-19)
(-0.402901 -0.738581 -7.42479e-20)
(-0.315526 -0.756296 0)
(-0.165315 -0.756756 6.74767e-20)
(-0.0181099 -0.643068 -2.6177e-20)
(0.0218084 -0.333217 -1.5405e-20)
(0.36853 -0.267165 -2.40791e-21)
(0.382297 -0.210935 4.56077e-20)
(0.563883 -0.0996237 3.52003e-20)
(0.557976 -0.00225924 -1.13025e-19)
(0.714107 0.0518294 -1.45218e-20)
(0.697034 0.0980244 8.80768e-20)
(0.761223 0.190372 -2.80613e-20)
(0.994635 0.108637 0)
(0.0361489 -0.07895 -3.9687e-21)
(-0.0861125 -0.03239 -8.06428e-20)
(-0.226936 -0.0140345 1.6383e-19)
(-0.331732 -0.0794324 0)
(-0.405113 -0.146407 0)
(-0.393995 -0.305838 0)
(-0.198323 -0.428158 0)
(-0.110297 -0.555764 3.70011e-19)
(0.115707 -0.639553 -2.69653e-19)
(0.319962 -0.688189 -6.74904e-20)
(0.441822 -0.597216 4.54031e-20)
(0.584775 -0.484635 4.35742e-21)
(0.721686 -0.34842 3.30378e-21)
(0.793814 -0.232424 -3.20751e-20)
(0.851335 -0.111137 5.37987e-20)
(0.901356 -0.058659 -3.64585e-20)
(0.987493 0.0242961 -3.56122e-20)
(0.985889 0.0566146 1.36297e-19)
(1.15176 0.101644 -6.12975e-20)
(1.15418 0.0910721 1.71197e-20)
(0.00378806 -0.0107446 -2.82366e-21)
(-0.0938261 0.0767748 2.60595e-19)
(-0.161293 0.149964 -2.43996e-19)
(-0.177796 0.151176 -1.9125e-19)
(-0.112176 0.10369 1.73571e-19)
(-0.0326579 0.0034403 0)
(0.199894 -0.159429 0)
(0.326085 -0.364004 -3.41566e-19)
(0.645268 -0.478384 5.73289e-20)
(0.819319 -0.557307 2.31961e-19)
(0.978841 -0.551636 -4.54365e-20)
(1.03418 -0.449404 -3.98247e-20)
(1.0485 -0.354833 2.18793e-20)
(1.06268 -0.249964 1.33464e-20)
(1.0413 -0.157427 0)
(1.0579 -0.0906797 1.43818e-20)
(1.01775 -0.0225272 -4.7675e-20)
(1.08126 0.00472306 -2.26664e-20)
(1.02622 0.0379614 4.48544e-20)
(0.967523 0.0495066 -1.71751e-20)
(0.866319 0.911066 -5.96561e-21)
(0.846336 1.07808 1.83829e-22)
(0.874533 0.718177 -1.83968e-22)
(0.925758 0.00082983 1.901e-22)
(0.996468 -0.612133 0)
(1.00187 -0.949569 -5.54205e-21)
(0.930529 -1.11712 5.34819e-21)
(0.910855 -1.11657 -4.04985e-21)
(0.841858 -1.08044 4.02862e-21)
(0.787442 -1.07227 -2.11311e-22)
(0.70073 -1.17813 0)
(0.608582 -1.26032 5.37687e-21)
(0.433172 -1.23099 -1.21654e-20)
(0.295919 -1.00367 1.58183e-20)
(0.244461 -0.517414 -1.78264e-20)
(0.204017 0.0863401 9.14339e-21)
(0.254175 0.61146 0)
(0.314606 0.815457 -4.84e-21)
(0.300894 0.851287 4.37468e-21)
(0.375843 0.85166 1.99204e-21)
(0.532398 0.672617 -1.92336e-21)
(0.471869 0.466465 6.9154e-22)
(0.384023 0.400504 -6.95554e-22)
(0.345657 0.326863 0)
(0.467671 0.132295 0)
(0.53472 -0.0116359 0)
(0.538951 -0.146319 0)
(0.625591 -0.274563 1.44959e-24)
(0.778099 -0.302428 3.1508e-24)
(0.983032 -0.347738 0)
(1.14106 -0.596937 -1.38684e-22)
(1.10377 -0.760389 0)
(1.11372 -0.368659 -6.67948e-22)
(1.15748 0.325275 1.96497e-21)
(1.14697 0.550921 4.87066e-22)
(1.11561 0.470907 -6.16047e-22)
(0.935529 0.500757 4.64169e-23)
(0.891386 0.392645 1.03569e-22)
(0.976874 -0.089968 1.16747e-22)
(1.08815 -0.432484 -1.65113e-23)
(1.04069 -0.476665 -9.41464e-23)
(0.963588 -0.23271 4.94701e-22)
(0.933419 0.122309 0)
(0.909437 0.374369 0)
(0.754902 0.431881 0)
(0.705512 0.328111 2.17287e-23)
(0.657088 0.169089 2.1424e-24)
(0.672111 0.0241377 5.48462e-23)
(0.632787 -0.156808 4.03296e-23)
(0.70322 -0.16676 8.94753e-25)
(0.804024 0.891989 2.19938e-20)
(0.74106 1.06219 -2.16546e-20)
(0.799974 0.681647 2.40929e-20)
(0.923852 -0.0142639 1.84451e-21)
(1.01108 -0.677959 -4.66737e-20)
(1.0373 -0.996103 2.20156e-20)
(0.981135 -1.08665 0)
(0.913012 -1.09827 -1.25016e-22)
(0.817472 -1.07636 0)
(0.761903 -1.10667 -1.15799e-22)
(0.669146 -1.12528 -1.36434e-20)
(0.530024 -1.11392 1.27895e-20)
(0.406479 -1.04928 0)
(0.166138 -0.838911 -1.07218e-21)
(0.0405621 -0.480557 -7.97421e-22)
(0.0276656 0.0201062 0)
(0.0974779 0.53866 2.1772e-20)
(0.121576 0.811852 -3.72974e-20)
(0.195519 0.774146 1.53406e-20)
(0.414208 0.676643 0)
(0.309864 0.721629 0)
(0.323689 0.666985 1.23478e-22)
(0.255744 0.547487 -2.95734e-21)
(0.297733 0.338254 9.00351e-22)
(0.377724 0.0991828 1.59152e-21)
(0.45297 -0.0361809 0)
(0.530484 -0.161605 2.32792e-22)
(0.609787 -0.297888 -1.92161e-22)
(0.748308 -0.373736 -4.56515e-24)
(0.946171 -0.433011 1.09289e-22)
(1.07588 -0.602319 -1.74934e-22)
(0.97485 -0.713165 -7.67322e-22)
(0.886363 -0.332391 -7.55201e-21)
(0.9266 0.323168 3.37804e-21)
(0.952609 0.52136 0)
(0.959281 0.481357 1.17117e-21)
(0.817177 0.516521 -9.63107e-22)
(0.828955 0.367381 8.46111e-23)
(0.928834 -0.115672 1.7547e-22)
(1.0273 -0.438409 -1.32291e-23)
(0.989141 -0.457283 0)
(0.882229 -0.200776 -1.10345e-21)
(0.810132 0.140177 7.20201e-22)
(0.783774 0.393749 -3.37871e-22)
(0.662927 0.447925 1.47076e-22)
(0.658176 0.335284 -1.39177e-23)
(0.621968 0.172361 -4.20114e-23)
(0.641254 0.02548 2.68161e-23)
(0.611997 -0.162646 -4.41732e-23)
(0.697006 -0.175167 2.82394e-24)
(0.678791 0.910919 0)
(0.669512 1.03386 -4.32528e-20)
(0.789967 0.621766 4.17178e-20)
(0.985423 -0.0530621 -4.90455e-20)
(1.10888 -0.637229 4.73138e-20)
(1.11202 -0.949602 3.22448e-22)
(1.04666 -1.0461 0)
(0.997024 -1.01113 -2.33452e-20)
(0.893065 -0.945032 2.22009e-20)
(0.785658 -0.921971 5.65627e-22)
(0.675756 -0.990404 0)
(0.4592 -1.03581 6.28843e-22)
(0.276281 -0.965048 3.07316e-20)
(0.0863033 -0.776244 -2.87114e-20)
(-0.0548113 -0.484027 4.56701e-20)
(-0.0929177 -0.0222402 -8.78116e-20)
(-0.0748647 0.47484 8.00778e-20)
(0.0767357 0.692562 -3.58335e-20)
(0.22106 0.677767 0)
(0.264494 0.782109 5.11468e-22)
(0.287942 0.682304 -3.86135e-22)
(0.366705 0.46202 3.29117e-22)
(0.22934 0.408559 2.28672e-22)
(0.229458 0.255714 0)
(0.237301 0.0598861 -1.95438e-21)
(0.396925 -0.0844644 1.88695e-21)
(0.551192 -0.213281 0)
(0.591005 -0.35259 8.22679e-23)
(0.690771 -0.424486 -8.3794e-23)
(0.905175 -0.475563 -2.50545e-22)
(1.02532 -0.622194 3.16058e-22)
(0.881675 -0.681919 -7.7228e-21)
(0.697043 -0.32006 -9.96697e-22)
(0.726774 0.286326 1.15058e-20)
(0.778588 0.500816 1.47631e-21)
(0.788967 0.516307 -3.20721e-22)
(0.677794 0.536018 6.62454e-22)
(0.769002 0.347643 -1.9206e-22)
(0.882174 -0.134496 1.66688e-25)
(0.96439 -0.439419 1.83864e-23)
(0.937254 -0.438159 -3.63027e-22)
(0.822805 -0.184942 6.64882e-22)
(0.710953 0.141678 2.62679e-21)
(0.674668 0.402303 -4.99676e-22)
(0.589859 0.454151 -4.88554e-22)
(0.615353 0.33761 0)
(0.5812 0.175264 6.64842e-23)
(0.611956 0.0271602 -7.58074e-23)
(0.59705 -0.167253 -1.47808e-23)
(0.692152 -0.182608 -9.11805e-24)
(0.653095 0.936177 -1.63011e-22)
(0.689307 0.996013 2.30952e-22)
(0.84692 0.584596 -3.56228e-22)
(1.10981 -0.101316 -3.91264e-22)
(1.21849 -0.676751 0)
(1.22386 -0.884818 4.93481e-22)
(1.13713 -0.967688 0)
(1.00241 -0.973176 3.44249e-22)
(0.887092 -0.927923 -1.38697e-20)
(0.823965 -0.935292 2.49253e-20)
(0.728044 -0.859854 -1.12441e-20)
(0.53199 -0.812113 2.44053e-23)
(0.323155 -0.785412 -3.19456e-22)
(0.0867047 -0.646816 -4.70194e-22)
(-0.106892 -0.420926 3.17762e-20)
(-0.156879 -0.0533149 -1.23244e-22)
(-0.0657458 0.367401 -3.03661e-20)
(0.0377509 0.58784 -2.11975e-20)
(0.115035 0.65405 2.1271e-20)
(0.232144 0.65862 -5.18634e-22)
(0.358119 0.660893 3.91439e-22)
(0.186161 0.761305 -3.33551e-22)
(0.194145 0.667426 -7.05361e-22)
(0.171624 0.380656 -7.57599e-21)
(0.203737 0.0572746 7.95237e-21)
(0.377821 -0.161184 4.12615e-21)
(0.535695 -0.22792 -3.98272e-21)
(0.580676 -0.348565 5.80724e-23)
(0.651053 -0.49816 -2.04958e-21)
(0.846158 -0.547887 6.43333e-21)
(0.949166 -0.601309 -3.92038e-21)
(0.816034 -0.61217 -1.58232e-20)
(0.569116 -0.27194 1.52812e-20)
(0.5567 0.263971 0)
(0.604985 0.464041 3.01998e-21)
(0.589405 0.51687 -4.35468e-21)
(0.537068 0.522602 -1.28481e-22)
(0.707704 0.312874 -3.48336e-22)
(0.843223 -0.151753 -3.34172e-22)
(0.908598 -0.44479 0)
(0.882205 -0.416573 2.40349e-21)
(0.764257 -0.143645 -2.63779e-21)
(0.629582 0.167316 -1.40066e-21)
(0.5926 0.415619 0)
(0.541709 0.454935 2.68581e-22)
(0.575212 0.338237 -2.59601e-22)
(0.538489 0.176091 -2.05588e-23)
(0.586287 0.0242971 -3.78123e-24)
(0.586307 -0.177369 0)
(0.688967 -0.192897 9.1043e-24)
(0.680055 0.903674 4.02678e-20)
(0.742806 0.987537 -3.90322e-20)
(0.965841 0.55584 -4.25621e-22)
(1.26718 -0.0755127 0)
(1.37284 -0.566561 0)
(1.34982 -0.825805 -5.04882e-22)
(1.24727 -0.84128 0)
(1.08289 -0.828137 2.38552e-20)
(0.960695 -0.806887 -2.31735e-20)
(0.828853 -0.808358 0)
(0.676025 -0.79243 -1.26193e-22)
(0.490087 -0.73763 1.3042e-20)
(0.381847 -0.678908 -1.29524e-20)
(0.224857 -0.56406 2.65093e-22)
(0.047031 -0.42841 1.86557e-20)
(-0.0282231 -0.16972 -3.76569e-20)
(-0.00789774 0.256837 1.97468e-20)
(-0.0535266 0.525265 0)
(0.197452 0.567635 -1.55158e-20)
(0.253223 0.658659 1.41505e-20)
(0.207834 0.743806 0)
(0.223896 0.581807 -1.25348e-20)
(0.255058 0.431724 1.19477e-20)
(0.184539 0.294815 1.94012e-22)
(0.197537 0.00186319 0)
(0.309825 -0.233202 0)
(0.483796 -0.296382 4.44989e-21)
(0.589761 -0.374332 -4.13457e-21)
(0.655464 -0.518404 0)
(0.76817 -0.599181 -1.7275e-22)
(0.847798 -0.624809 0)
(0.741317 -0.571416 0)
(0.516854 -0.247415 1.80844e-20)
(0.461916 0.235975 -1.95515e-20)
(0.44717 0.466536 0)
(0.391423 0.542263 4.09688e-21)
(0.41211 0.501117 -3.14946e-21)
(0.658317 0.270897 3.06861e-22)
(0.82625 -0.165222 6.71064e-22)
(0.856336 -0.440453 -6.47738e-22)
(0.832816 -0.408576 0)
(0.730694 -0.1284 0)
(0.574502 0.173369 0)
(0.532433 0.417473 5.01092e-22)
(0.507682 0.453631 -1.80341e-21)
(0.532648 0.341167 2.31588e-22)
(0.498448 0.175934 6.20944e-23)
(0.56456 0.0198936 6.48436e-23)
(0.576777 -0.186726 -1.00719e-23)
(0.686774 -0.20248 0)
(0.658841 0.720459 -1.07307e-20)
(0.770163 0.844579 2.67818e-20)
(1.08339 0.493101 -2.29935e-20)
(1.3867 -0.0501998 -5.53767e-20)
(1.5325 -0.482845 5.3105e-20)
(1.45535 -0.676986 0)
(1.29712 -0.704284 2.10743e-20)
(1.16057 -0.712801 -2.01489e-20)
(1.04398 -0.731934 -7.55495e-21)
(0.928873 -0.735617 7.24919e-21)
(0.807409 -0.653005 0)
(0.633852 -0.627024 1.07407e-22)
(0.488285 -0.645389 0)
(0.33568 -0.495291 1.2664e-20)
(0.142428 -0.364944 -3.11e-20)
(0.0173535 -0.150209 1.84198e-20)
(-0.0756947 0.241056 0)
(0.0269404 0.411169 2.88439e-22)
(0.231521 0.477249 0)
(0.17695 0.653239 1.52052e-22)
(0.310036 0.666084 0)
(0.305286 0.731187 0)
(0.17214 0.765711 -2.97162e-20)
(0.192558 0.496315 4.49302e-20)
(0.208634 0.0834601 -2.7682e-20)
(0.280195 -0.249238 1.24008e-20)
(0.479874 -0.345057 -3.55444e-22)
(0.639675 -0.411082 4.19978e-21)
(0.706959 -0.550122 -3.7462e-21)
(0.723901 -0.61209 -4.39329e-21)
(0.748002 -0.611523 -3.46348e-21)
(0.660807 -0.537546 7.42524e-21)
(0.451 -0.209935 -1.6531e-20)
(0.34826 0.235734 1.80726e-20)
(0.277251 0.459679 0)
(0.222586 0.527758 2.77899e-21)
(0.301162 0.451266 -4.38473e-21)
(0.621535 0.218113 7.69515e-22)
(0.819784 -0.176308 0)
(0.813504 -0.433983 5.08261e-23)
(0.768082 -0.389337 1.76989e-21)
(0.683977 -0.0910907 -1.70698e-21)
(0.523278 0.19927 0)
(0.500145 0.424989 8.87955e-22)
(0.487878 0.453328 1.24175e-21)
(0.491468 0.344434 -7.57794e-22)
(0.466759 0.172779 -3.30572e-22)
(0.547452 0.0119009 0)
(0.569069 -0.199495 0)
(0.685519 -0.213917 -3.31054e-23)
(0.676477 0.469875 2.73782e-20)
(0.827772 0.598662 -2.64409e-20)
(1.20338 0.341327 0)
(1.49897 -0.0582273 2.49879e-22)
(1.57712 -0.344656 -8.4453e-23)
(1.46426 -0.491164 0)
(1.32828 -0.555152 0)
(1.19768 -0.598352 6.79779e-24)
(1.07002 -0.598404 6.37954e-23)
(0.925794 -0.63114 -4.96874e-21)
(0.767351 -0.609282 4.64778e-21)
(0.60924 -0.524804 0)
(0.476 -0.524419 0)
(0.298783 -0.410832 -1.20112e-22)
(0.206541 -0.295925 2.62071e-23)
(0.12928 -0.167866 0)
(0.040779 0.126809 1.19078e-20)
(0.195097 0.303315 -1.17736e-20)
(0.197911 0.457073 -1.85232e-20)
(0.255128 0.614291 1.87481e-20)
(0.344092 0.711937 0)
(0.25095 0.73747 -3.06473e-20)
(0.300573 0.565136 2.9622e-20)
(0.256409 0.36293 -3.86847e-20)
(0.276534 0.0544747 1.7476e-21)
(0.302004 -0.30922 3.51852e-20)
(0.484937 -0.442725 1.49231e-20)
(0.671535 -0.442817 -1.46993e-20)
(0.737594 -0.537223 0)
(0.710199 -0.615455 0)
(0.653128 -0.611926 0)
(0.560462 -0.508729 9.67804e-22)
(0.39286 -0.186955 0)
(0.267795 0.243427 -1.33173e-20)
(0.147287 0.488248 2.06689e-20)
(0.0999564 0.542004 -9.75332e-21)
(0.22394 0.403043 2.61001e-22)
(0.599938 0.153059 -2.61815e-22)
(0.812719 -0.1886 -1.29766e-21)
(0.776313 -0.419394 9.90954e-22)
(0.709078 -0.388773 0)
(0.651373 -0.0841421 9.45321e-22)
(0.495531 0.201828 9.64514e-22)
(0.487221 0.420687 0)
(0.465181 0.455868 0)
(0.454166 0.351728 0)
(0.439909 0.169041 2.07219e-22)
(0.527541 0.0034013 -2.78024e-22)
(0.560008 -0.212272 -1.18982e-22)
(0.684072 -0.225288 3.30049e-23)
(0.990939 0.24794 -3.85599e-20)
(1.12548 0.299818 3.72188e-20)
(1.3965 0.165086 -1.51798e-20)
(1.53423 -0.0305509 1.47411e-20)
(1.53209 -0.205599 8.83216e-23)
(1.44501 -0.335331 0)
(1.33339 -0.397968 5.78897e-23)
(1.22844 -0.459659 5.33841e-23)
(1.13125 -0.501915 7.89629e-21)
(1.01273 -0.497029 -7.7047e-21)
(0.879305 -0.453225 1.27517e-20)
(0.741183 -0.418632 5.36714e-22)
(0.661963 -0.438627 -1.2219e-20)
(0.480289 -0.371109 1.24996e-22)
(0.417511 -0.314958 -2.72552e-23)
(0.346798 -0.192974 -2.85895e-21)
(0.240311 0.0698646 5.99364e-22)
(0.237099 0.242874 -4.83943e-21)
(0.240215 0.376158 6.39933e-21)
(0.350047 0.542504 -1.70281e-20)
(0.359569 0.677692 1.65526e-20)
(0.365411 0.748045 0)
(0.317328 0.80586 4.15693e-20)
(0.258248 0.650167 -8.80687e-20)
(0.333499 0.211321 4.66923e-20)
(0.360703 -0.242472 -3.24652e-20)
(0.503648 -0.490603 3.02042e-20)
(0.665101 -0.510196 -1.18706e-20)
(0.729055 -0.557367 1.11142e-20)
(0.701724 -0.582833 7.62305e-21)
(0.617916 -0.584493 -7.10861e-21)
(0.487191 -0.505828 8.38925e-21)
(0.331029 -0.18753 -8.08077e-21)
(0.188014 0.249576 0)
(0.0397237 0.491775 1.42517e-21)
(0.016436 0.514317 8.75535e-22)
(0.194782 0.333421 -3.74704e-22)
(0.583467 0.0912489 1.03293e-22)
(0.797525 -0.194571 -7.05368e-22)
(0.748363 -0.395709 9.19169e-22)
(0.64664 -0.371003 0)
(0.601099 -0.058507 -4.63137e-21)
(0.46796 0.21849 4.25722e-21)
(0.483962 0.426066 -2.96266e-22)
(0.449102 0.463422 -1.28324e-21)
(0.42672 0.35704 0)
(0.412333 0.162662 2.99432e-22)
(0.50607 -0.00789501 -3.71167e-22)
(0.555497 -0.228562 -1.50255e-22)
(0.684247 -0.238392 0)
(1.21615 0.142805 -3.53446e-20)
(1.27078 0.166065 3.40225e-20)
(1.33555 0.127651 3.24825e-20)
(1.39175 0.0400962 -5.66794e-20)
(1.37637 -0.0654912 4.26183e-20)
(1.35184 -0.185853 -1.77395e-20)
(1.28062 -0.291427 -6.09857e-23)
(1.19608 -0.370154 -6.36751e-23)
(1.12556 -0.409324 7.89374e-23)
(1.03282 -0.452182 -6.01549e-23)
(0.95875 -0.479113 -1.07358e-22)
(0.89141 -0.413953 1.09745e-22)
(0.824457 -0.423498 -1.48925e-20)
(0.710918 -0.362184 1.43239e-20)
(0.609658 -0.293889 0)
(0.437212 -0.207059 2.63823e-23)
(0.316758 0.0409957 1.68678e-23)
(0.318918 0.202354 0)
(0.365127 0.312606 -4.70133e-21)
(0.423897 0.480623 4.35577e-21)
(0.432934 0.672274 1.93969e-22)
(0.449217 0.790041 3.20422e-20)
(0.355702 0.726744 -3.08199e-20)
(0.411615 0.494861 -7.09985e-22)
(0.365927 0.166691 -5.4754e-20)
(0.455305 -0.260278 5.17301e-20)
(0.562225 -0.526192 0)
(0.660387 -0.529654 0)
(0.72767 -0.574081 -9.04332e-21)
(0.707072 -0.599218 9.11311e-21)
(0.590044 -0.553318 -5.13966e-23)
(0.434525 -0.467625 4.02447e-22)
(0.282169 -0.170553 1.89435e-20)
(0.13134 0.269354 -2.06073e-20)
(0.00591363 0.526055 -9.40285e-21)
(-0.0241008 0.522937 9.03185e-21)
(0.211534 0.283245 0)
(0.573382 0.0360257 -7.06086e-22)
(0.76261 -0.207416 7.76673e-22)
(0.720363 -0.375517 -7.15297e-24)
(0.601392 -0.369246 2.42673e-21)
(0.573061 -0.0685105 -1.98712e-21)
(0.469287 0.210234 0)
(0.48823 0.421711 0)
(0.431214 0.471763 -1.17143e-21)
(0.400418 0.367749 1.12363e-21)
(0.382934 0.159666 3.97232e-22)
(0.489454 -0.0197979 -9.51169e-23)
(0.559855 -0.245601 4.98903e-23)
(0.68796 -0.25125 0)
(1.02264 0.0827533 6.32791e-23)
(1.09525 0.105411 0)
(1.14449 0.0899146 -3.23476e-20)
(1.2292 0.049976 6.07917e-20)
(1.27515 -0.0235121 -2.84171e-20)
(1.29054 -0.1108 7.88406e-23)
(1.26754 -0.159136 0)
(1.21182 -0.257906 0)
(1.15505 -0.334468 0)
(1.05237 -0.328053 6.38417e-23)
(0.94307 -0.372017 1.95425e-20)
(0.81847 -0.348215 -1.87965e-20)
(0.757466 -0.322611 -1.95658e-20)
(0.639556 -0.296742 1.8826e-20)
(0.525243 -0.204098 0)
(0.399396 -0.14782 1.00702e-22)
(0.336386 -0.012307 1.04312e-20)
(0.387142 0.124223 -1.62411e-20)
(0.435791 0.231168 4.68454e-21)
(0.478008 0.391546 -4.63938e-21)
(0.493555 0.595401 5.37891e-21)
(0.531816 0.783377 3.09684e-20)
(0.473474 0.873635 -2.97496e-20)
(0.487509 0.7798 -8.56492e-22)
(0.459553 0.392757 9.7277e-22)
(0.625848 -0.175341 -4.94023e-20)
(0.679784 -0.54538 4.74372e-20)
(0.727021 -0.59769 0)
(0.772285 -0.586945 -1.06546e-20)
(0.749733 -0.575486 1.66364e-20)
(0.620766 -0.53415 -6.45369e-21)
(0.439221 -0.470038 0)
(0.272528 -0.194535 5.22348e-22)
(0.121571 0.251215 6.22538e-22)
(-0.00174335 0.527301 1.90724e-20)
(-0.0370953 0.489091 -1.82882e-20)
(0.243776 0.215753 0)
(0.568946 -0.0157023 7.78771e-23)
(0.729557 -0.213196 -7.46235e-23)
(0.697627 -0.350779 6.42283e-22)
(0.572062 -0.354752 -6.38623e-22)
(0.535113 -0.054801 -3.47374e-22)
(0.466107 0.218763 0)
(0.483674 0.430168 0)
(0.424547 0.487872 -1.32028e-21)
(0.378466 0.377086 1.26347e-21)
(0.359082 0.152031 0)
(0.48296 -0.0379264 0)
(0.573747 -0.264369 1.71393e-22)
(0.695815 -0.263984 -6.81553e-23)
(1.09634 0.0217403 0)
(1.12457 0.045987 0)
(1.18649 0.0447133 0)
(1.19783 0.000919476 0)
(1.24551 -0.0119476 0)
(1.22136 -0.0889083 0)
(1.21461 -0.135638 0)
(1.21028 -0.168219 0)
(1.13801 -0.246223 0)
(1.09313 -0.272083 0)
(1.05234 -0.29889 0)
(0.89607 -0.314429 0)
(0.872065 -0.313496 0)
(0.756443 -0.271083 0)
(0.619059 -0.210741 0)
(0.548344 -0.171059 0)
(0.480192 -0.0640083 0)
(0.483302 0.0579037 0)
(0.518387 0.170626 0)
(0.556995 0.329801 0)
(0.587069 0.524743 0)
(0.613263 0.726003 0)
(0.580476 0.812003 0)
(0.576461 0.675425 0)
(0.568951 0.355297 0)
(0.714484 -0.100108 0)
(0.743505 -0.429907 0)
(0.788953 -0.520675 0)
(0.835479 -0.555139 0)
(0.789464 -0.53897 0)
(0.623353 -0.482646 0)
(0.429045 -0.428572 0)
(0.256389 -0.178343 0)
(0.131405 0.280863 0)
(0.00550691 0.565969 0)
(0.00499025 0.507151 0)
(0.290602 0.185825 0)
(0.564046 -0.0478122 0)
(0.687345 -0.22079 0)
(0.66324 -0.343624 0)
(0.56554 -0.359582 0)
(0.53469 -0.0834036 0)
(0.49061 0.20171 0)
(0.486983 0.428331 0)
(0.422673 0.498382 0)
(0.351614 0.390832 0)
(0.346777 0.148262 0)
(0.487906 -0.0525038 0)
(0.593622 -0.279476 0)
(0.706736 -0.274501 0)
(1.1235 0.0335827 0)
(1.12117 0.0243679 0)
(1.17522 0.0342779 0)
(1.16841 0.0045324 0)
(1.19431 -0.0436652 0)
(1.19674 -0.084229 0)
(1.1468 -0.136304 0)
(1.15856 -0.177673 0)
(1.10505 -0.247649 0)
(1.00053 -0.247944 0)
(0.991466 -0.239544 0)
(0.850773 -0.237094 0)
(0.805336 -0.23366 0)
(0.73569 -0.188345 0)
(0.656477 -0.113877 0)
(0.643428 -0.0788439 0)
(0.536394 0.00425872 0)
(0.522085 0.0886615 0)