/*--------------------------------*- C++ -*----------------------------------*\
| =========                 |                                                 |
| \\      /  F ield         | OpenFOAM: The Open Source CFD Toolbox           |
|  \\    /   O peration     | Version:  2312                                  |
|   \\  /    A nd           | Website:  www.openfoam.com                      |
|    \\/     M anipulation  |                                                 |
\*---------------------------------------------------------------------------*/
FoamFile
{
    version     2.0;
    format      ascii;
    arch        "LSB;label=32;scalar=64";
    class       volScalarField;
    location    "44";
    object      p;
}
// * * * * * * * * * * * * * * * * * * * * * * * * * * * * * * * * * * * * * //

dimensions      [0 2 -2 0 0 0 0];

internalField   nonuniform List<scalar> 
9200
(
-0.339113
-0.339914
-0.323068
-0.26467
-0.209153
-0.154271
-0.110517
-0.104261
-0.126068
-0.154746
-0.16772
-0.165055
-0.15403
-0.138662
-0.120728
-0.10308
-0.0806683
-0.057487
-0.0350938
-0.014614
-0.291695
-0.296464
-0.292169
-0.272718
-0.199957
-0.156264
-0.122784
-0.119211
-0.128436
-0.135037
-0.135141
-0.128118
-0.116195
-0.102381
-0.0863347
-0.0676634
-0.0505294
-0.0354861
-0.0175818
-0.000434586
-0.29027
-0.300339
-0.29473
-0.274021
-0.257384
-0.193942
-0.156687
-0.139596
-0.131156
-0.123808
-0.115164
-0.104781
-0.09152
-0.0769724
-0.0645229
-0.0503679
-0.0327153
-0.0162378
-0.00419752
0.00895798
-0.289782
-0.296094
-0.339609
-0.317172
-0.275443
-0.218932
-0.174788
-0.148927
-0.132466
-0.117314
-0.10152
-0.0873591
-0.0737667
-0.0600536
-0.0451657
-0.0317512
-0.0204221
-0.00805672
0.00611682
0.0176731
-0.295482
-0.305719
-0.267849
-0.329289
-0.274247
-0.221803
-0.178426
-0.146857
-0.125546
-0.108116
-0.0914337
-0.0747097
-0.05958
-0.0466495
-0.0336126
-0.0195401
-0.0062545
0.00395307
0.0131461
0.0234268
-0.274764
-0.291893
-0.292592
-0.281478
-0.24916
-0.210313
-0.173883
-0.142112
-0.116943
-0.0981789
-0.080868
-0.0642476
-0.0493834
-0.0353206
-0.0233921
-0.0119224
-0.000618879
0.0110408
0.0215171
0.0304045
-0.27363
-0.178621
-0.264797
-0.245008
-0.215595
-0.18288
-0.153745
-0.127877
-0.104526
-0.0848142
-0.0679235
-0.0521005
-0.037301
-0.0248164
-0.0115275
0.000109173
0.00925356
0.0176522
0.0268139
0.0363946
-0.32072
-0.297284
-0.248265
-0.218132
-0.190244
-0.160592
-0.133752
-0.110589
-0.0894339
-0.0705004
-0.054063
-0.0387534
-0.0249628
-0.0127364
-0.00234619
0.00900201
0.019962
0.0286282
0.035703
0.0430295
-0.245968
-0.330766
-0.236247
-0.185008
-0.159798
-0.136517
-0.113647
-0.0930429
-0.0739315
-0.0559392
-0.0397453
-0.0255985
-0.0126869
5.29163e-05
0.0105292
0.0187699
0.026943
0.0358449
0.0440505
0.0507942
-0.0634029
-0.156987
-0.17915
-0.150511
-0.129113
-0.110923
-0.092148
-0.0733209
-0.0556138
-0.0390523
-0.0230378
-0.00911038
0.00190913
0.0120497
0.0232097
0.0322304
0.0394468
0.0454035
0.0518618
0.0582611
-0.988598
-1.00244
-1.03045
-1.05233
-1.05571
-1.03561
-0.988006
-0.919567
-0.848995
-0.783982
-0.729409
-0.687327
-0.670217
-0.656611
-0.653625
-0.66589
-0.672995
-0.661457
-0.630933
-0.588394
-0.858381
-0.866206
-0.880602
-0.889818
-0.888356
-0.873083
-0.843551
-0.80484
-0.765037
-0.739077
-0.715979
-0.702104
-0.69775
-0.694825
-0.689925
-0.674845
-0.648289
-0.610741
-0.565012
-0.520888
-0.743567
-0.742506
-0.751965
-0.755412
-0.753286
-0.741527
-0.725169
-0.710315
-0.698965
-0.697159
-0.705032
-0.718888
-0.733805
-0.738322
-0.72116
-0.676542
-0.619235
-0.559419
-0.501366
-0.446071
-0.647525
-0.645959
-0.653911
-0.651255
-0.647266
-0.640156
-0.6337
-0.634181
-0.640487
-0.657387
-0.689358
-0.72849
-0.759153
-0.764092
-0.725573
-0.651581
-0.570729
-0.494806
-0.428864
-0.372543
-0.586396
-0.589961
-0.589712
-0.582031
-0.570067
-0.561616
-0.558965
-0.563596
-0.581259
-0.614854
-0.663679
-0.717355
-0.761519
-0.748275
-0.682257
-0.590863
-0.503337
-0.425782
-0.357897
-0.296876
-0.559723
-0.567505
-0.551866
-0.530694
-0.50794
-0.495049
-0.487225
-0.488818
-0.517038
-0.555765
-0.609889
-0.671642
-0.707496
-0.673798
-0.594045
-0.500476
-0.416756
-0.344
-0.287108
-0.237625
-0.552486
-0.568355
-0.520688
-0.48067
-0.453208
-0.427337
-0.40657
-0.413998
-0.438731
-0.469952
-0.525436
-0.586667
-0.599281
-0.551728
-0.473432
-0.394044
-0.329603
-0.272181
-0.220206
-0.174833
-0.525276
-0.518143
-0.476146
-0.434607
-0.392256
-0.345206
-0.328788
-0.331783
-0.33559
-0.362391
-0.417101
-0.466233
-0.459451
-0.411546
-0.351149
-0.293856
-0.241916
-0.198578
-0.165254
-0.129819
-0.476605
-0.462161
-0.429898
-0.37614
-0.31405
-0.273115
-0.244558
-0.224453
-0.227654
-0.259664
-0.311894
-0.338862
-0.32535
-0.28819
-0.246864
-0.211221
-0.177098
-0.140233
-0.11059
-0.0828322
-0.414658
-0.40546
-0.371853
-0.323462
-0.25494
-0.189027
-0.156861
-0.139939
-0.150114
-0.18891
-0.224563
-0.233114
-0.220684
-0.199201
-0.174094
-0.146324
-0.118861
-0.0944168
-0.0709277
-0.0440184
-0.534547
-0.49248
-0.473694
-0.482024
-0.516557
-0.59099
-0.740754
-0.975533
-1.28473
-1.58364
-1.67682
-1.49293
-1.15894
-0.813958
-0.548236
-0.382765
-0.262634
-0.196821
-0.152369
-0.106634
-0.0877098
-0.0598029
-0.0276945
-0.0312842
-0.0413628
-0.0247647
-0.0454478
-0.141481
-0.338065
-0.711764
-0.941807
-0.663101
-0.260529
-0.0807635
-0.00591256
0.0860171
0.0999761
0.00504434
-0.162697
-0.302882
-0.321025
-0.21338
-0.0876803
-0.0183114
0.0106599
0.0123899
0.00573015
-0.000501451
-0.002168
-0.000590815
-0.468607
-0.421415
-0.399434
-0.401909
-0.431376
-0.496729
-0.624369
-0.821648
-1.08292
-1.36661
-1.45115
-1.29642
-1.02243
-0.736244
-0.528766
-0.381123
-0.27583
-0.22406
-0.19393
-0.152245
-0.138297
-0.10258
-0.0678056
-0.0599741
-0.0574492
-0.0393099
-0.0643204
-0.154147
-0.346933
-0.727775
-0.940543
-0.671216
-0.281629
-0.0978477
-0.00600749
0.0907259
0.10106
0.00517616
-0.159674
-0.293749
-0.309803
-0.210867
-0.0967194
-0.0316633
-0.00186535
0.00302938
-0.000783973
-0.00449926
-0.00393541
-0.00101065
-0.387302
-0.34887
-0.326086
-0.316
-0.331269
-0.376577
-0.475325
-0.620273
-0.81437
-1.04926
-1.13582
-1.03797
-0.849855
-0.637364
-0.486893
-0.378412
-0.306491
-0.266308
-0.243673
-0.212029
-0.207806
-0.16437
-0.118357
-0.0932586
-0.0784329
-0.0582958
-0.0795276
-0.166315
-0.341231
-0.687799
-0.894047
-0.655252
-0.302549
-0.115189
-0.00997274
0.0865799
0.0946106
0.00439332
-0.153199
-0.279883
-0.293834
-0.2057
-0.104614
-0.0451267
-0.0156358
-0.00777703
-0.00848954
-0.00922566
-0.00602624
-0.00146161
-0.313762
-0.276379
-0.253149
-0.233675
-0.232967
-0.256243
-0.321814
-0.401072
-0.552594
-0.714777
-0.801344
-0.751337
-0.656385
-0.52899
-0.432934
-0.362481
-0.308049
-0.291201
-0.285291
-0.279688
-0.279308
-0.238294
-0.178324
-0.13268
-0.0991067
-0.0792868
-0.0987763
-0.164509
-0.319538
-0.619378
-0.819446
-0.624484
-0.323947
-0.140951
-0.0252659
0.0711911
0.0817542
0.00185077
-0.143854
-0.262477
-0.276376
-0.199796
-0.111667
-0.0591485
-0.0310593
-0.0203206
-0.0174513
-0.0147002
-0.00842025
-0.00190957
-0.237498
-0.207561
-0.186554
-0.163562
-0.156062
-0.157817
-0.196189
-0.236785
-0.338994
-0.442884
-0.520026
-0.495938
-0.479307
-0.413315
-0.364051
-0.328475
-0.30939
-0.317831
-0.333038
-0.368105
-0.381089
-0.354314
-0.256127
-0.182772
-0.125663
-0.0972528
-0.107932
-0.163311
-0.272998
-0.516439
-0.717887
-0.578002
-0.335221
-0.168456
-0.049204
0.0449791
0.0595312
-0.00501274
-0.134736
-0.244424
-0.257138
-0.192531
-0.118248
-0.074124
-0.0484847
-0.034687
-0.0276837
-0.0208815
-0.0111476
-0.00240717
-0.180507
-0.14832
-0.127284
-0.104914
-0.0969586
-0.0838461
-0.0911062
-0.105424
-0.167499
-0.232533
-0.290916
-0.298496
-0.317014
-0.29671
-0.288506
-0.292604
-0.302341
-0.329803
-0.388894
-0.436009
-0.470399
-0.427083
-0.32485
-0.232513
-0.15555
-0.118652
-0.114264
-0.149992
-0.231373
-0.409124
-0.596835
-0.521477
-0.341604
-0.200168
-0.0822965
0.0121581
0.0345595
-0.0130396
-0.124484
-0.225117
-0.239006
-0.185421
-0.124373
-0.0902574
-0.0682896
-0.0508638
-0.0390117
-0.0275925
-0.0141164
-0.00292995
-0.127635
-0.105511
-0.0884147
-0.0638461
-0.054491
-0.037802
-0.0282257
-0.0370458
-0.0474788
-0.0844596
-0.125629
-0.159817
-0.182538
-0.196258
-0.210977
-0.242224
-0.272504
-0.326579
-0.403169
-0.50823
-0.596199
-0.620802
-0.440114
-0.303824
-0.190529
-0.135239
-0.118498
-0.139187
-0.191189
-0.32161
-0.480385
-0.458093
-0.34015
-0.231947
-0.119212
-0.0227138
0.00720624
-0.0224647
-0.114755
-0.204347
-0.219586
-0.17652
-0.130185
-0.10766
-0.0905504
-0.068701
-0.0513298
-0.034814
-0.0173793
-0.00350272
-0.0866015
-0.0657218
-0.0531261
-0.0336112
-0.0187
-0.00654641
0.0113328
0.00657172
0.0120314
0.00494166
-0.0299851
-0.0550604
-0.0707783
-0.103324
-0.123095
-0.169319
-0.226021
-0.299286
-0.417998
-0.570679
-0.646809
-0.623787
-0.499092
-0.356521
-0.226501
-0.151817
-0.12253
-0.128101
-0.156873
-0.250604
-0.383898
-0.397952
-0.331858
-0.265432
-0.160426
-0.0606944
-0.0192344
-0.0305439
-0.103229
-0.180665
-0.199007
-0.166772
-0.135679
-0.126118
-0.115404
-0.0901681
-0.0648696
-0.0426473
-0.0209741
-0.00412738
-0.0555344
-0.0431481
-0.0291168
-0.0119712
0.00413743
0.0174414
0.0381064
0.0441687
0.052194
0.0643577
0.0405781
0.0188232
0.00754678
-0.0274865
-0.0508765
-0.0926973
-0.154466
-0.248213
-0.384153
-0.538895
-0.712819
-0.758195
-0.598575
-0.425615
-0.266885
-0.171522
-0.133422
-0.123876
-0.126527
-0.191776
-0.298747
-0.329246
-0.319207
-0.299429
-0.20129
-0.0965209
-0.0453823
-0.0393011
-0.0913688
-0.155142
-0.176748
-0.154989
-0.140342
-0.145749
-0.142853
-0.112329
-0.0800247
-0.0513016
-0.0248901
-0.00477395
-0.0307996
-0.0263755
-0.0153992
-0.000643486
0.015914
0.027233
0.0448404
0.0573396
0.0662595
0.0833825
0.0812046
0.0592193
0.040312
0.0226214
-0.00115781
-0.0273852
-0.0897482
-0.187471
-0.342175
-0.557018
-0.752781
-0.790084
-0.662679
-0.490513
-0.323931
-0.195394
-0.132077
-0.106825
-0.09883
-0.137974
-0.217832
-0.259203
-0.302582
-0.33274
-0.244642
-0.140596
-0.0705587
-0.0488615
-0.0806767
-0.128603
-0.150554
-0.141202
-0.144148
-0.165681
-0.172683
-0.138831
-0.0970555
-0.0604095
-0.0287728
-0.00533266
-0.00271734
-0.00777851
0.00295685
0.0199519
0.039395
0.053434
0.0646335
0.0757343
0.083182
0.0984138
0.106572
0.092646
0.0958054
0.0694139
0.0411556
0.0242715
-0.0143875
-0.0892429
-0.235656
-0.434217
-0.669076
-0.801813
-0.695052
-0.495446
-0.317774
-0.18861
-0.119643
-0.0821855
-0.0704778
-0.096142
-0.149757
-0.18686
-0.273701
-0.364875
-0.288268
-0.171001
-0.0867585
-0.0551117
-0.0712499
-0.104951
-0.123493
-0.125829
-0.144183
-0.185007
-0.203927
-0.165542
-0.113486
-0.0687467
-0.0322497
-0.00579659
0.0223243
0.0160618
0.0240873
0.0397441
0.058024
0.0721638
0.0830133
0.0928157
0.0965395
0.105783
0.110366
0.102138
0.0883837
0.0804693
0.0604739
0.0484753
0.0223102
-0.038142
-0.168856
-0.375011
-0.656193
-0.808622
-0.681124
-0.473536
-0.293697
-0.167959
-0.100768
-0.0615033
-0.0416483
-0.051094
-0.0851211
-0.119343
-0.242889
-0.391983
-0.327095
-0.195473
-0.0985449
-0.0594898
-0.0607855
-0.0801127
-0.0939208
-0.106646
-0.142509
-0.205818
-0.237067
-0.192784
-0.130126
-0.0769922
-0.0356832
-0.00628773
0.0402372
0.0345006
0.0383824
0.0518529
0.0658831
0.0797469
0.0877505
0.095877
0.106339
0.117921
0.124667
0.11824
0.110235
0.0957562
0.0767646
0.0628726
0.0401056
-0.0154137
-0.142981
-0.355079
-0.607137
-0.73708
-0.631976
-0.434417
-0.259518
-0.141417
-0.0741149
-0.0351627
-0.0120659
-0.0101602
-0.0282996
-0.058864
-0.218213
-0.413927
-0.368248
-0.22002
-0.108098
-0.0600289
-0.051227
-0.0573962
-0.0646861
-0.0857769
-0.141621
-0.229741
-0.274223
-0.223595
-0.14805
-0.0856318
-0.0393115
-0.0068613
0.0532925
0.0498672
0.0523076
0.0624205
0.0739686
0.0874319
0.0988916
0.1054
0.112078
0.115082
0.120378
0.114597
0.108681
0.0995388
0.0842238
0.0706135
0.0545598
0.00898249
-0.114568
-0.293104
-0.498777
-0.630857
-0.541946
-0.362908
-0.214081
-0.120404
-0.0566644
-0.0133342
0.0139455
0.022977
0.0204836
-0.00386529
-0.200781
-0.432773
-0.401479
-0.233275
-0.114307
-0.0607202
-0.0396531
-0.0334194
-0.0344068
-0.0645612
-0.141709
-0.256745
-0.315685
-0.256243
-0.166506
-0.0942637
-0.0430109
-0.00758104
0.0647042
0.0618758
0.0625846
0.0704426
0.0801644
0.0909097
0.10038
0.105034
0.111902
0.116368
0.12071
0.119448
0.110541
0.100617
0.0889775
0.0751497
0.0621657
0.0316933
-0.0631522
-0.202707
-0.369219
-0.476583
-0.416153
-0.286804
-0.167808
-0.092332
-0.0442046
0.00195652
0.034521
0.0511795
0.0587514
0.0421994
-0.191541
-0.439454
-0.414364
-0.231976
-0.109294
-0.0613518
-0.0337521
-0.0113097
-0.00528807
-0.0432567
-0.141674
-0.286016
-0.360979
-0.290682
-0.185253
-0.102492
-0.0465669
-0.00844419
0.0720157
0.069841
0.0705213
0.0765091
0.0846213
0.092522
0.101305
0.106157
0.110919
0.114629
0.116577
0.11647
0.108879
0.0998988
0.0913465
0.0771615
0.0652256
0.0453869
-0.0219724
-0.115573
-0.229031
-0.317572
-0.283258
-0.198872
-0.116477
-0.0561411
-0.00132852
0.0263934
0.0408431
0.0581757
0.0825714
0.0741834
-0.182488
-0.42683
-0.404183
-0.226387
-0.102096
-0.0510035
-0.0216535
0.0125328
0.0230633
-0.0213784
-0.14097
-0.316365
-0.408682
-0.326585
-0.204301
-0.110153
-0.0497057
-0.009347
0.0772591
0.0757968
0.0765314
0.0805057
0.0869532
0.0935488
0.10067
0.104976
0.107521
0.110904
0.111986
0.111454
0.106096
0.0979301
0.0896882
0.0771092
0.0635414
0.0433848
0.00539002
-0.0430276
-0.118131
-0.181748
-0.165978
-0.13278
-0.094142
-0.0446971
-0.00864498
0.0249024
0.0637234
0.078888
0.107101
0.0852748
-0.162368
-0.387822
-0.357365
-0.205323
-0.100408
-0.0469548
-0.0115849
0.0363086
0.0508333
0.000503014
-0.139182
-0.346263
-0.455749
-0.362614
-0.222591
-0.117268
-0.0525598
-0.0101624
0.0810171
0.0796734
0.0802056
0.0827065
0.0877374
0.0930536
0.0982015
0.102577
0.103782
0.10576
0.106674
0.104314
0.101212
0.0951936
0.0857492
0.0760665
0.0637678
0.0445565
0.0258581
0.00232129
-0.0477211
-0.0953887
-0.106177
-0.081845
-0.0446457
-0.0156319
0.00319539
0.026135
0.0397829
0.0492958
0.0728476
0.0777278
-0.123331
-0.331406
-0.310847
-0.178936
-0.0762965
-0.0355693
-0.00465066
0.0488514
0.0702188
0.0196391
-0.137046
-0.372887
-0.497021
-0.392498
-0.236487
-0.122313
-0.0547626
-0.0108772
0.0833505
0.0822191
0.0824782
0.0839201
0.0874573
0.0915017
0.0955135
0.0991172
0.0998532
0.100532
0.101085
0.098646
0.0956871
0.091842
0.0830715
0.0754974
0.0660052
0.0495606
0.036964
0.022193
-0.0103777
-0.0441711
-0.0471479
-0.0425325
-0.0366431
-0.014115
0.0135383
0.0366171
0.0384685
0.0487218
0.0557506
0.0607946
-0.077385
-0.251772
-0.246194
-0.160522
-0.0791084
-0.0259906
-0.000607162
0.052071
0.0872905
0.0352727
-0.133271
-0.391312
-0.525752
-0.410685
-0.243231
-0.12343
-0.054851
-0.0110682
0.0846069
0.0836252
0.0835675
0.0842385
0.0865301
0.0896074
0.0923983
0.0951284
0.0956289
0.0954608
0.0956533
0.0933134
0.0904221
0.0877538
0.0803457
0.0741522
0.0659686
0.0520747
0.0413683
0.0301196
0.0111238
-0.0123171
-0.0222426
-0.0188661
-0.00808836
0.00518432
0.0170395
0.0306088
0.0260304
0.029885
0.0298494
0.0374809
-0.0119036
-0.139614
-0.15058
-0.103018
-0.0464293
0.00500021
-0.00277066
0.00958993
0.0620299
0.0386679
-0.131491
-0.39733
-0.53556
-0.414559
-0.242553
-0.121436
-0.0531022
-0.0104022
0.0848615
0.0841539
0.0838171
0.0839344
0.0852562
0.0872641
0.0892999
0.0910546
0.0912807
0.0908028
0.0902673
0.0883654
0.0855313
0.0826529
0.076736
0.0711919
0.0638435
0.0533503
0.0442964
0.0345535
0.023482
0.00661223
-0.00260411
0.000904386
0.00226763
0.00365634
0.0195192
0.0326663
0.0308591
0.0379646
0.0385477
0.0470844
0.0323994
-0.079902
-0.0877273
-0.0532774
-0.0245266
0.0046252
0.00847944
0.0281316
0.0959431
0.0487917
-0.125053
-0.384606
-0.521618
-0.40218
-0.232455
-0.115577
-0.0505457
-0.00981473
0.0844571
0.0839823
0.0833992
0.0830671
0.08362
0.0849026
0.0863262
0.0873011
0.0872299
0.0863094
0.0853633
0.0837289
0.0812723
0.0783348
0.0733268
0.0686087
0.062178
0.0545239
0.0469845
0.0380307
0.0311748
0.0198951
0.0105672
0.0115611
0.0136782
0.0162257
0.0232476
0.0290422
0.0288516
0.0319319
0.0410095
0.0443652
0.0174304
-0.0501349
-0.0641757
-0.0523316
-0.0214243
-0.0052058
-0.0166702
-0.0104844
0.0569041
0.0444292
-0.116424
-0.351689
-0.480179
-0.370684
-0.211486
-0.103923
-0.0456727
-0.0095665
0.0836919
0.0833162
0.0826188
0.0819508
0.0819184
0.0825418
0.0834445
0.0840062
0.0836715
0.0824304
0.0811565
0.0796366
0.0776829
0.0748842
0.0707061
0.0665485
0.0610504
0.0553355
0.0493069
0.0419222
0.0363192
0.028441
0.0211383
0.0218038
0.0218422
0.02112
0.0261586
0.0312797
0.0292809
0.0312476
0.0400634
0.0314909
0.0043866
-0.0391285
-0.0518172
-0.0388339
-0.0309719
-0.0217804
-0.0269644
-0.0194713
0.0324571
0.0318096
-0.103119
-0.293363
-0.403533
-0.315442
-0.180918
-0.0889815
-0.0390729
-0.00877375
0.0827119
0.0823832
0.0815852
0.0805966
0.0800905
0.0802525
0.0807837
0.0809946
0.0804729
0.0790972
0.0776145
0.0761277
0.0744276
0.0720377
0.0685635
0.0647776
0.0602293
0.0557156
0.0509945
0.0452453
0.0401811
0.0349341
0.029695
0.0286335
0.0283369
0.0272369
0.0312756
0.0354125
0.032227
0.0328
0.0379055
0.0294919
0.00168018
-0.024476
-0.0293755
-0.0115748
-0.0258085
-0.0246079
-0.0451452
-0.0470116
-0.0160621
-0.0130649
-0.0948443
-0.215272
-0.296323
-0.235861
-0.139602
-0.0732771
-0.0353801
-0.00975494
0.0814816
0.0811135
0.0802585
0.0791574
0.0783676
0.0781458
0.0782934
0.0782843
0.0776441
0.0761713
0.0745591
0.0730473
0.0715763
0.0695567
0.0665738
0.0632251
0.0594439
0.0557232
0.051916
0.0475225
0.0431549
0.0391131
0.0353131
0.0336661
0.0333212
0.0324487
0.0344835
0.0365891
0.0349789
0.0353437
0.036961
0.0328763
0.0137663
-0.00914674
-0.0131316
-0.0150817
-0.0213016
-0.0234535
-0.0308364
-0.0178297
-0.0291941
-0.0444051
-0.0744619
-0.127326
-0.184176
-0.155999
-0.0965691
-0.0538917
-0.0270052
-0.00747103
0.0800857
0.0797442
0.0788765
0.077625
0.076575
0.0760845
0.0760554
0.0758953
0.0751315
0.0736265
0.0719354
0.0704695
0.069099
0.0673624
0.0648164
0.06184
0.0586416
0.0555357
0.0523892
0.0489065
0.0453181
0.041925
0.0389517
0.0369992
0.0361907
0.0356061
0.0358092
0.036318
0.0357802
0.0347516
0.0342415
0.0325105
0.017491
0.000545523
-9.11541e-05
0.000828695
-0.000656261
-0.00460744
-0.0102752
-0.00619634
-0.0190291
-0.0329314
-0.0396618
-0.0584162
-0.0956525
-0.0932086
-0.0697647
-0.0434165
-0.0218566
-0.00549376
0.0784798
0.078139
0.0772687
0.0760072
0.074899
0.0742867
0.0740822
0.0737649
0.0729297
0.0714279
0.0697431
0.0682766
0.0669766
0.0654999
0.0632917
0.0606705
0.0579051
0.0552591
0.0526615
0.0498006
0.0468503
0.0438783
0.0412982
0.0393005
0.0381374
0.0374605
0.0364414
0.0358848
0.0354221
0.0334582
0.0318041
0.0298987
0.0196909
0.00889119
0.0061325
0.00435399
0.00273166
-0.0014502
-0.000516792
0.0026388
-0.00158712
-0.0173623
-0.0116733
-0.0229348
-0.0512472
-0.0572235
-0.0474477
-0.0320067
-0.0179899
-0.00602188
0.0768742
0.0765827
0.0757771
0.0745358
0.0733349
0.0725713
0.0722365
0.0718731
0.0710117
0.069545
0.067871
0.0664193
0.0652167
0.0638992
0.0619992
0.0596789
0.05725
0.0549732
0.0527776
0.0503808
0.0478491
0.0452103
0.0428335
0.0409126
0.0394715
0.0384243
0.0369853
0.0356516
0.0347004
0.0325256
0.0302076
0.0279889
0.0212349
0.0134933
0.0105088
0.0100134
0.00955807
0.00593099
0.00583876
0.00666559
0.00667925
-0.00347963
3.31289e-05
-0.00930414
-0.0262934
-0.0336752
-0.0319702
-0.0227583
-0.0111707
-0.00274564
0.0753804
0.0750359
0.0742244
0.0730041
0.0717968
0.070987
0.0705939
0.070182
0.0693118
0.0678947
0.0662791
0.0648859
0.0637337
0.0625303
0.0608818
0.0588255
0.0566709
0.0546528
0.0527765
0.0507115
0.0484363
0.0461042
0.0438777
0.0419729
0.0403838
0.0390899
0.0374452
0.0355335
0.0341548
0.0321626
0.0295685
0.0270093
0.0223335
0.0170421
0.0140095
0.012084
0.010012
0.0074877
0.00739385
0.00846004
0.00851179
0.0026782
0.00409173
-0.00221322
-0.0141206
-0.0207655
-0.0211506
-0.0172673
-0.010969
-0.00384029
0.073738
0.0734116
0.0726807
0.0715642
0.0704031
0.0695614
0.0690946
0.0686434
0.0678003
0.0664573
0.0649194
0.0635599
0.0624618
0.0613651
0.0598957
0.0580541
0.0561252
0.0543388
0.0526705
0.0508284
0.0487727
0.0466645
0.0445591
0.0426643
0.0410559
0.039579
0.0377704
0.0357253
0.0340385
0.0320198
0.0294008
0.0268399
0.0234021
0.0193958
0.0164695
0.0145247
0.0129128
0.0108487
0.00986144
0.00977714
0.00944257
0.00605782
0.00555496
0.00106344
-0.0067964
-0.0120593
-0.013492
-0.0104214
-0.00448773
-0.000735999
0.0722268
0.0719233
0.0712424
0.0701965
0.0690851
0.0682357
0.067722
0.0672432
0.0664269
0.0651686
0.0637183
0.0624191
0.0613724
0.0603403
0.0590079
0.0573496
0.0556093
0.0539949
0.0524865
0.0508225
0.048909
0.0469686
0.045016
0.043134
0.0415101
0.0399536
0.0380848
0.0359823
0.0340749
0.0320994
0.0297237
0.027199
0.0242669
0.0211932
0.0185645
0.0163579
0.0142066
0.0123175
0.0110289
0.0104838
0.00969598
0.00727879
0.00599011
0.00291914
-0.00192411
-0.00553283
-0.00774065
-0.00723905
-0.00504775
-0.00194107
0.0707777
0.0704576
0.0698192
0.0688639
0.067834
0.0670096
0.0664699
0.0659655
0.065181
0.0640101
0.0626505
0.0614106
0.0604004
0.0594286
0.0582056
0.0566926
0.0551107
0.0536414
0.0522601
0.050702
0.0489024
0.0471227
0.0452999
0.0434448
0.0418327
0.0402711
0.0383706
0.0362659
0.0343555
0.0324383
0.0301663
0.0277262
0.0251878
0.0226518
0.0201999
0.0179377
0.0159301
0.0140128
0.0125317
0.0114982
0.0103323
0.00827304
0.00669831
0.00437508
0.00109329
-0.00203637
-0.00405235
-0.00365758
-0.0012642
2.84396e-05
0.0693834
0.0690618
0.0684774
0.0676155
0.0666697
0.0658789
0.0653187
0.0647886
0.0640303
0.0629489
0.0616902
0.0605144
0.0595356
0.0586069
0.0574767
0.0560936
0.0546386
0.0532633
0.0519656
0.0505077
0.0488245
0.047168
0.0454607
0.043667
0.042066
0.0405207
0.0386549
0.0366209
0.034734
0.0328087
0.0306648
0.0284179
0.0260759
0.0238216
0.0215738
0.0193529
0.0173834
0.0155093
0.0138334
0.0124417
0.0110778
0.00921098
0.00752966
0.00548759
0.00309927
0.00095029
-0.000841194
-0.00126351
-0.000947636
-0.000417146
0.0681271
0.0677889
0.0672381
0.0664537
0.0655861
0.0648335
0.0642623
0.0637143
0.0629841
0.0619881
0.0608205
0.0597035
0.0587589
0.0578743
0.0568155
0.0555197
0.0541623
0.0528896
0.0516824
0.0502939
0.0486899
0.0471475
0.045548
0.0438166
0.0422418
0.0407311
0.0389315
0.0369606
0.0351129
0.0332467
0.0312326
0.0291114
0.0269085
0.0248368
0.0227238
0.0205943
0.0186659
0.0167744
0.0149894
0.0134294
0.0119285
0.0100924
0.00839006
0.00659224
0.00471271
0.00276753
0.000823723
0.000204367
0.000378567
0.00025052
0.0669875
0.0666231
0.0661031
0.065398
0.064606
0.0638869
0.063299
0.0627274
0.0620252
0.0611138
0.0600404
0.0589826
0.0580638
0.0572085
0.0562081
0.0550024
0.0537357
0.0525352
0.05139
0.0500527
0.0485206
0.0470788
0.0455768
0.0439193
0.0423777
0.0409072
0.0391785
0.0372844
0.0355016
0.033692
0.0317679
0.0297588
0.027672
0.0257069
0.0237064
0.0216606
0.0197514
0.017873
0.0160557
0.0143707
0.0127499
0.0109534
0.00928165
0.00754391
0.00585965
0.00411487
0.00247455
0.00163868
0.00110673
0.000405091
0.06599
0.0655813
0.0650827
0.0644601
0.0637546
0.0630661
0.0624491
0.0618449
0.0611704
0.0603497
0.059371
0.0583628
0.0574501
0.0566131
0.0556755
0.0545555
0.0533518
0.0521809
0.0510807
0.0498275
0.0483743
0.0469878
0.0455695
0.0440066
0.0424883
0.0410463
0.0394239
0.0375892
0.035853
0.0340964
0.0322573
0.0303432
0.0283545
0.0264611
0.024535
0.0225623
0.020691
0.0188283
0.0169965
0.0152329
0.0135395
0.0117511
0.0100917
0.0084074
0.0068116
0.00515583
0.00347991
0.00246384
0.00160042
0.000552399
0.0651609
0.0646972
0.0642113
0.0636708
0.0630551
0.0623948
0.0617255
0.0610666
0.0604094
0.059683
0.0588038
0.0578391
0.0569221
0.0560834
0.0552085
0.0541732
0.053021
0.0518738
0.0507983
0.049625
0.0482525
0.046878
0.0455179
0.0440533
0.042544
0.0410823
0.0394789
0.0377986
0.0361313
0.0344342
0.0326754
0.0308318
0.0289151
0.0270783
0.0252043
0.0233001
0.0214697
0.0196124
0.0177445
0.0159708
0.0142319
0.0124485
0.0107896
0.00906968
0.00743153
0.00584535
0.00428706
0.00311979
0.0019374
0.000660677
0.0644908
0.0639859
0.063519
0.063051
0.0625086
0.0618652
0.0611511
0.0604462
0.0598096
0.0591671
0.0583695
0.0574298
0.0565006
0.0556667
0.0548451
0.0538756
0.0527481
0.0516106
0.0505734
0.0494692
0.0481512
0.04679
0.0454967
0.0441174
0.0426108
0.0411637
0.0396444
0.0380125
0.0363843
0.0347313
0.0330263
0.0312409
0.0293898
0.0275794
0.0257498
0.0238934
0.0220976
0.0202528
0.0183974
0.0165909
0.0148204
0.0130346
0.0113755
0.0096507
0.00797671
0.00641888
0.00477581
0.00350714
0.00221254
0.000760371
0.0639401
0.0634494
0.0630536
0.0626518
0.0621246
0.0614428
0.06069
0.0599974
0.0594141
0.0588233
0.0580357
0.057092
0.0561672
0.0553777
0.0546143
0.053645
0.0525133
0.0513884
0.0504098
0.0493712
0.0480328
0.046685
0.0455025
0.0441529
0.0426172
0.0411841
0.0397452
0.0381657
0.0365616
0.0349482
0.0332635
0.0315059
0.02971
0.0279289
0.0261185
0.0243011
0.0225263
0.0206747
0.0188407
0.0170571
0.0152327
0.0134422
0.0118048
0.0100627
0.00833819
0.00673073
0.00517508
0.00380969
0.00233326
0.000775773
0.063674
0.0632091
0.0628783
0.0625256
0.0619875
0.0612409
0.0604462
0.0597754
0.0592589
0.0587025
0.0578881
0.0569113
0.0559851
0.0552546
0.0545452
0.0535504
0.0523854
0.0512772
0.0503675
0.0493744
0.04799
0.0466581
0.0455984
0.0442624
0.0426996
0.0413387
0.0398917
0.0382966
0.0367053
0.0351189
0.0334398
0.0316851
0.0299052
0.0281411
0.026345
0.0245393
0.0227783
0.0209196
0.0190991
0.0173349
0.0155013
0.0136848
0.0120538
0.0103397
0.00861037
0.00702634
0.0054029
0.00401609
0.00247708
0.000816067
0.0627324
0.057798
0.0508674
0.0468479
0.0387471
0.0359836
0.0281989
0.0257377
0.0181155
0.0101548
0.0672439
0.0648985
0.0588426
0.0564361
0.0494454
0.0494921
0.0431401
0.0444616
0.0402671
0.0357043
0.0720559
0.0709017
0.0662363
0.0652554
0.0608502
0.0604238
0.057342
0.0570878
0.054927
0.0496532
0.0760086
0.0758359
0.0731729
0.0721917
0.0687924
0.0677669
0.0654858
0.0644079
0.0624839
0.0592167
0.0793673
0.0799676
0.0787767
0.0771011
0.0748633
0.0736262
0.0723379
0.0713631
0.0705078
0.0688054
0.0825419
0.0831458
0.0828148
0.081384
0.0799641
0.0789073
0.0783289
0.0776838
0.0770457
0.0754426
0.0849601
0.0855217
0.0858386
0.0850214
0.0838917
0.0828503
0.0824205
0.0818184
0.0809132
0.0795553
0.0870264
0.0876569
0.0881666
0.0876548
0.0866902
0.0855679
0.0850673
0.0846416
0.0838203
0.0827726
0.0884478
0.0890877
0.0895932
0.0892465
0.0885391
0.0874504
0.0869002
0.0866167
0.0857467
0.0847323
0.0892986
0.0899725
0.0904113
0.0902099
0.089585
0.0886544
0.0879008
0.0875038
0.0865999
0.0855461
0.0895851
0.0903251
0.0906866
0.0905452
0.0899414
0.0890507
0.0881727
0.0876114
0.0866924
0.0856201
0.0893783
0.0901501
0.0904337
0.090301
0.089728
0.0887884
0.0878661
0.0871042
0.0861707
0.0851033
0.088866
0.08948
0.0897502
0.0895799
0.0890558
0.0880666
0.0870322
0.0861156
0.0851559
0.0842092
0.0880771
0.0884519
0.0886931
0.0884932
0.0879689
0.0869693
0.0858276
0.0848084
0.0838919
0.0831372
0.0870173
0.0871892
0.0873211
0.0871015
0.0865231
0.0855635
0.0844166
0.0833882
0.0825358
0.0818669
0.0856679
0.0857248
0.0857358
0.0854866
0.0848658
0.0839717
0.0828905
0.0818863
0.0810383
0.0804086
0.0841048
0.0840881
0.0840175
0.0837335
0.0831071
0.0822733
0.0813064
0.0803595
0.0794955
0.078823
0.0824359
0.082333
0.082221
0.0819322
0.0813396
0.0805325
0.079606
0.0786757
0.0778164
0.0771644
0.0807586
0.0805479
0.0803919
0.0800921
0.0795211
0.078734
0.0778559
0.0770267
0.0762894
0.0757028
0.0790893
0.078772
0.0785572
0.0782618
0.0777594
0.077052
0.0762457
0.0754592
0.0747229
0.074097
0.0774618
0.0770646
0.0767896
0.0764817
0.0760115
0.0753443
0.074574
0.0738107
0.0731087
0.0725439
0.0758957
0.0754365
0.0750889
0.0747419
0.0742924
0.0736902
0.0730051
0.0723163
0.0716628
0.0711161
0.0744078
0.0739051
0.0734973
0.0731174
0.0726865
0.0721434
0.0715338
0.0709039
0.0702781
0.0697362
0.0730236
0.0724969
0.0720495
0.0716424
0.0712154
0.0707139
0.0701712
0.0696032
0.06902
0.0684955
0.0717532
0.0712228
0.0707569
0.0703342
0.0699089
0.0694409
0.0689578
0.068448
0.0679042
0.067386
0.0706676
0.0701581
0.0696848
0.0692347
0.0687849
0.0683283
0.0678965
0.0674495
0.0669502
0.0664332
0.0697068
0.0692711
0.0688155
0.0683249
0.0678182
0.0673528
0.0669709
0.0666014
0.0661631
0.0656528
0.0689802
0.0686286
0.0681931
0.0676507
0.0670748
0.0665994
0.0662687
0.0659659
0.0655613
0.0650343
0.0684903
0.0681777
0.0677049
0.0671038
0.0665092
0.0660741
0.0657943
0.0655159
0.0650913
0.06452
0.0683839
0.0680482
0.0674969
0.0668347
0.0662542
0.0658937
0.0656786
0.0654151
0.0649352
0.0642921
0.156144
0.160198
0.164806
0.170083
0.174909
0.178711
0.181216
0.183015
0.184186
0.184657
0.18384
0.181551
0.176385
0.167926
0.153971
0.133364
0.105793
0.0657818
0.0250655
-0.0734795
0.146496
0.150794
0.154442
0.157185
0.160203
0.162286
0.163213
0.162408
0.160781
0.157613
0.15234
0.145541
0.136186
0.123876
0.107641
0.0839826
0.0520755
0.00804627
-0.03982
-0.177213
0.136209
0.138999
0.140004
0.1405
0.140849
0.140759
0.14025
0.138332
0.135954
0.1322
0.126018
0.116163
0.102682
0.0850992
0.0633984
0.0366342
-0.000364437
-0.0612171
-0.112173
-0.229093
0.128014
0.129648
0.128869
0.12767
0.125233
0.123072
0.120034
0.115936
0.109999
0.102973
0.0952325
0.0853552
0.0717501
0.053144
0.0273682
-0.00463337
-0.0400047
-0.102345
-0.14947
-0.297254
0.116131
0.116629
0.115142
0.112533
0.109587
0.106307
0.102662
0.0980867
0.0918718
0.0823106
0.0701682
0.0562521
0.0399015
0.0205199
-0.00345863
-0.0358123
-0.0714698
-0.133709
-0.183498
-0.330221
0.105503
0.104989
0.102597
0.09852
0.0943491
0.089576
0.0838337
0.077291
0.0700555
0.0615982
0.0507194
0.0358535
0.0172259
-0.00498049
-0.0303987
-0.0613831
-0.0922952
-0.15932
-0.202639
-0.321936
0.0938
0.0924796
0.0897088
0.0857829
0.0811638
0.0761132
0.0696228
0.0615821
0.0516278
0.0399976
0.0277762
0.0142362
-0.00237826
-0.0235712
-0.0498308
-0.0816619
-0.110627
-0.154039
-0.193646
-0.307376
0.0840725
0.080837
0.076548
0.0721154
0.067112
0.0612538
0.0541949
0.0462644
0.0371752
0.0255855
0.0104432
-0.00608501
-0.0234152
-0.0429878
-0.0649765
-0.091109
-0.119233
-0.150504
-0.162778
-0.238774
0.075511
0.0717372
0.0667753
0.0611588
0.0554273
0.0489289
0.0401976
0.0299547
0.0188913
0.0076912
-0.00514152
-0.0211534
-0.0391224
-0.0590176
-0.081109
-0.103623
-0.123298
-0.13934
-0.131159
-0.161182
0.065573
0.0610529