/*--------------------------------*- C++ -*----------------------------------*\
| =========                 |                                                 |
| \\      /  F ield         | OpenFOAM: The Open Source CFD Toolbox           |
|  \\    /   O peration     | Version:  2312                                  |
|   \\  /    A nd           | Website:  www.openfoam.com                      |
|    \\/     M anipulation  |                                                 |
\*---------------------------------------------------------------------------*/
FoamFile
{
    version     2.0;
    format      ascii;
    arch        "LSB;label=32;scalar=64";
    class       surfaceScalarField;
    location    "102.6";
    object      phi;
}
// * * * * * * * * * * * * * * * * * * * * * * * * * * * * * * * * * * * * * //

dimensions      [0 3 -1 0 0 0 0];

oriented        oriented;

internalField   nonuniform List<scalar> 
10785
(
0.000372273
0.00332922
-0.0037015
0.00378887
0.00227727
-0.00569387
0.0125614
-0.00734794
-0.00142461
0.029306
-0.0266268
0.0098823
0.0543766
-0.0536607
0.02859
0.0845082
-0.083613
0.0534814
0.114505
-0.111478
0.0814817
0.139731
-0.133994
0.108767
0.15763
-0.150042
0.132144
0.168319
-0.160431
0.149741
0.173754
-0.166887
0.161452
0.17731
-0.171403
0.167847
0.18089
-0.175522
0.171942
0.18512
-0.178077
0.173847
-0.181879
0.17622
0.190779
0.000426774
0.00290245
0.00543113
-0.00272709
0.0189111
-0.0208279
0.0421896
-0.0499054
0.0712392
-0.0827102
0.0996764
-0.11205
0.122536
-0.134338
0.137889
-0.149347
0.146778
-0.158931
0.151857
-0.16551
0.155902
-0.170932
0.160643
-0.176144
0.166155
-0.181033
0.173801
-0.185723
-0.191219
0.183141
0.00118099
0.00172146
0.0094543
-0.0110004
0.0287244
-0.0400979
0.0554793
-0.0766603
0.0819794
-0.10921
0.102726
-0.132797
0.11629
-0.147902
0.124355
-0.157412
0.129659
-0.164235
0.134287
-0.170138
0.139107
-0.175752
0.144106
-0.181143
0.149411
-0.186338
0.155248
-0.191561
-0.196575
0.160604
0.00243746
-0.000715997
0.0151136
-0.0236765
0.0382623
-0.0632466
0.0630413
-0.101439
0.0826376
-0.128807
0.0954738
-0.145633
0.103329
-0.155757
0.108646
-0.162729
0.11297
-0.168559
0.116859
-0.174028
0.120512
-0.179404
0.124255
-0.184886
0.128534
-0.190617
0.133604
-0.196631
-0.203165
0.140195
0.00413701
-0.00485301
0.020858
-0.0403976
0.0437415
-0.0861301
0.0631043
-0.120802
0.0759932
-0.141696
0.0837504
-0.15339
0.0886007
-0.160607
0.0920549
-0.166183
0.0948869
-0.171391
0.0975701
-0.176711
0.100476
-0.18231
0.103819
-0.188229
0.107552
-0.19435
0.111758
-0.200838
-0.207371
0.115964
0.00625967
-0.0111127
0.0249002
-0.0590381
0.0441933
-0.105423
0.0577987
-0.134407
0.0657507
-0.149648
0.0701389
-0.157778
0.0727809
-0.163249
0.0747555
-0.168157
0.0766019
-0.173237
0.0785232
-0.178633
0.080548
-0.184335
0.0826349
-0.190316
0.0849232
-0.196638
0.087391
-0.203306
-0.210214
0.0902336
0.00825457
-0.0193672
0.0259724
-0.0767558
0.0407249
-0.120176
0.0494731
-0.143156
0.0537763
-0.153951
0.0557972
-0.159799
0.0569131
-0.164365
0.0577246
-0.168969
0.0584011
-0.173914
0.0589992
-0.179231
0.0596023
-0.184938
0.0603683
-0.191082
0.061348
-0.197618
0.0625632
-0.204521
-0.211706
0.064056
0.00948871
-0.028856
0.0244672
-0.0917343
0.0347811
-0.13049
0.0396721
-0.148047
0.0413273
-0.155606
0.0415561
-0.160028
0.0412431
-0.164052
0.0406856
-0.168411
0.0400062
-0.173234
0.0392939
-0.178518
0.0386131
-0.184258
0.0379642
-0.190433
0.0373919
-0.197045
0.0369526
-0.204082
0.0367941
-0.211548
-0.00239083
0.0130789
-0.010688
-0.00734886
0.0184299
-0.0134719
-0.0138461
0.0170214
-0.0105241
-0.0213842
0.0137261
-0.00618798
-0.0298114
0.00899827
-0.00057105
-0.0384655
0.00210437
0.00654971
-0.0475565
-0.00699811
0.0160891
-0.0565904
-0.0190778
0.0281117
-0.0650308
-0.0341003
0.0425406
-0.0722604
-0.0516104
0.05884
-0.0775343
-0.0706848
0.0759587
-0.0799454
-0.0900592
0.0924703
-0.0785004
-0.108024
0.106579
-0.0723425
-0.122148
0.11599
-0.131237
-0.0600258
0.118921
-0.00116376
0.0142426
-0.00447925
0.0217454
-0.00910777
0.0216499
-0.0144386
0.0190569
-0.0202362
0.0147959
-0.0264545
0.00832272
-0.0325813
-0.000871392
-0.0387502
-0.0129088
-0.0446512
-0.0281993
-0.0500646
-0.046197
-0.0548669
-0.0658825
-0.0591677
-0.0857584
-0.062015
-0.105176
-0.0646196
-0.119543
-0.13186
-0.0639973
0.000447976
0.0137946
-0.000430761
0.0226242
-0.00224685
0.023466
-0.004303
0.021113
-0.00624211
0.016735
-0.00792014
0.0100008
-0.00915457
0.000363032
-0.00948123
-0.0125821
-0.00862836
-0.0290522
-0.00631681
-0.0485085
-0.00275411
-0.0694452
0.0017996
-0.0903121
0.00424678
-0.107624
0.0068506
-0.122147
-0.129137
0.00412798
0.001851
0.0119436
0.00345642
0.0210188
0.00460708
0.0223153
0.00594564
0.0197745
0.00795052
0.0147301
0.0108899
0.00706138
0.0151498
-0.00389685
0.0213089
-0.0187413
0.0298287
-0.037572
0.0410237
-0.0597035
0.0543986
-0.08282
0.0693974
-0.105311
0.084715
-0.122941
0.0979982
-0.13543
-0.141527
0.110388
0.00263649
0.00930716
0.0061279
0.0175273
0.00977252
0.0186707
0.014047
0.0155
0.0195427
0.00923441
0.0266269
-2.28628e-05
0.0363854
-0.0136553
0.0492543
-0.0316102
0.0655513
-0.053869
0.0846921
-0.0788444
0.105478
-0.103606
0.126075
-0.125908
0.145375
-0.142241
0.163197
-0.153252
-0.158042
0.179712
0.00262999
0.00667717
0.00696075
0.0131966
0.012119
0.0135124
0.0184554
0.00916356
0.0266928
0.000997019
0.0383921
-0.0117221
0.0541377
-0.0294008
0.0744505
-0.051923
0.0984506
-0.0778691
0.123923
-0.104317
0.148538
-0.128221
0.169942
-0.147313
0.186752
-0.159051
0.200555
-0.167056
-0.166458
0.208972
0.00195748
0.00471969
0.00605325
0.0091008
0.0117854
0.00778026
0.019769
0.00118
0.0317614
-0.0109954
0.0490453
-0.0290061
0.0720585
-0.052414
0.0993279
-0.0791924
0.127741
-0.106282
0.153764
-0.13034
0.174895
-0.149352
0.189479
-0.161897
0.199398
-0.168969
0.205076
-0.172734
-0.170753
0.209371
0.0010182
0.00442513
0.0107808
0.0218431
0.0394377
0.0639131
0.0929807
0.122555
0.148417
0.167818
0.179918
0.185869
0.188841
0.189954
0.195421
-0.0179464
-0.272041
0.229962
0.0585054
-0.169668
0.0932162
0.124115
0.0281573
-0.0937665
0.169323
0.22843
-0.273638
0.199767
0.321072
-0.351516
0.192878
0.349844
-0.342956
0.162164
0.404332
-0.373617
0.165038
0.34217
-0.345044
0.202921
0.0666082
-0.104492
0.248301
-0.184239
0.138859
0.264885
-0.271331
0.254747
0.25292
-0.305443
0.317408
0.247636
-0.38334
0.388624
0.256102
-0.402533
0.394068
0.265141
-0.240542
0.231502
0.27597
-0.00466202
-0.00616609
0.28908
0.27219
-0.2853
0.295702
0.496733
-0.503355
0.295967
0.466217
-0.466482
0.300157
0.312911
-0.317102
0.300796
-0.106625
0.105986
0.301855
-0.533166
0.532107
0.306317
-0.524247
0.519785
0.314556
-0.330761
0.322522
0.327016
0.23029
-0.24275
0.329407
0.950696
-0.953087
0.308217
0.451243
-0.430053
0.285751
-0.696997
0.719463
0.294784
-0.504685
0.495652
0.28125
0.315857
-0.302322
0.256054
0.320387
-0.295191
0.256843
-0.161273
0.160484
0.261424
0.0125145
-0.0170958
0.246131
0.103485
-0.0881909
0.245923
-0.094984
0.0951914
0.25853
0.0291456
-0.0417524
0.253212
0.0672979
-0.06198
0.0212773
-0.0100289
-0.0591988
-0.276839
-0.00395099
-0.224916
0.0787214
-0.0545151
0.156605
0.150546
0.203948
0.273729
0.199741
0.354051
0.180242
0.423831
0.194408
0.328004
0.221789
0.0392272
0.252702
-0.215152
0.267699
-0.286328
0.253082
-0.290826
0.24525
-0.375509
0.254825
-0.412108
0.262126
-0.247843
0.272207
-0.0147431
0.289416
0.25498
0.298229
0.487921
0.29749
0.466956
0.301299
0.309103
0.296445
-0.101771
0.29295
-0.52967
0.298996
-0.530293
0.307339
-0.339104
0.32779
0.209839
0.339441
0.939045
0.313397
0.477287
0.280335
-0.663935
0.29041
-0.51476
0.282304
0.323962
0.257309
0.345382
0.257671
-0.161635
0.263676
0.00650968
0.246812
0.120349
0.245041
-0.0932125
0.25834
0.0158462
0.254305
0.071333
0.0317828
-0.0332857
-0.239426
-0.0265028
-0.231699
0.0502595
-0.131277
0.154122
0.0466834
0.212975
0.214876
0.212046
0.35498
0.204163
0.431714
0.225734
0.306433
0.242623
0.022338
0.255879
-0.228408
0.26608
-0.29653
0.248005
-0.27275
0.233828
-0.361331
0.246095
-0.424375
0.256835
-0.258583
0.266874
-0.0247822
0.287465
0.23439
0.29927
0.476116
0.297537
0.46869
0.299802
0.306838
0.28956
-0.0915301
0.280677
-0.520787
0.287808
-0.537424
0.295795
-0.347091
0.323927
0.181708
0.345495
0.917477
0.315244
0.507538
0.272636
-0.621327
0.283571
-0.525696
0.281544
0.325989
0.257194
0.369731
0.25692
-0.161361
0.264668
-0.00123865
0.246659
0.138358
0.243194
-0.0897476
0.257191
0.00184946
0.254721
0.073803
0.0412746
0.0555038
-0.184541
0.00591296
-0.182108
0.0346312
-0.159996
0.129997
-0.0486825
0.197327
0.147546
0.208861
0.343446
0.21858
0.421995
0.248881
0.276133
0.260874
0.0103453
0.257099
-0.224633
0.262257
-0.301688
0.246097
-0.25659
0.221422
-0.336656
0.231094
-0.434048
0.249709
-0.277198
0.26093
-0.0360032
0.281044
0.214276
0.294078
0.463082
0.292555
0.470213
0.294256
0.305137
0.280623
-0.0778972
0.266246
-0.50641
0.273583
-0.544762
0.280856
-0.354364
0.314483
0.14808
0.344988
0.886972
0.311704
0.540823
0.263241
-0.572864
0.274562
-0.537017
0.278729
0.321823
0.255455
0.393006
0.25459
-0.160496
0.264338
-0.0109863
0.245735
0.156961
0.240598
-0.0846109
0.255245
-0.0127976
0.254529
0.0745185
0.0495179
0.151659
-0.156488
0.096843
-0.127292
0.0590545
-0.122207
0.100906
-0.0905339
0.171045
0.0774076
0.205054
0.309436
0.230494
0.396555
0.265477
0.24115
0.275044
0.000778539
0.25682
-0.206409
0.251117
-0.295985
0.238604
-0.244076
0.206784
-0.304836
0.208483
-0.435747
0.23623
-0.304945
0.251954
-0.051727
0.272758
0.193471
0.28879
0.44705
0.287379
0.471624
0.286585
0.305931
0.269152
-0.0604644
0.249644
-0.486902
0.256088
-0.551205
0.262587
-0.360862
0.301262
0.109405
0.341197
0.847036
0.305713
0.576306
0.25239
-0.519541
0.263796
-0.548423
0.274421
0.311197
0.252446
0.414981
0.250927
-0.158977
0.262772
-0.0228315
0.244135
0.175598
0.237492
-0.0779675
0.252708
-0.028014
0.25383
0.0733965
0.0563263
0.187316
-0.134833
0.166049
-0.106024
0.127075
-0.0832334
0.110934
-0.0743925
0.1521
0.0362415
0.201334
0.260202
0.239732
0.358157
0.274285
0.206597
0.282013
-0.00694971
0.255202
-0.179598
0.238428
-0.279211
0.228215
-0.233864
0.19415
-0.270771
0.183816
-0.425413
0.216978
-0.338107
0.239544
-0.074293
0.259921
0.173095
0.276167
0.430804
0.276626
0.471165
0.275941
0.306616
0.255997
-0.0405199
0.231655
-0.462561
0.236162
-0.555713
0.242947
-0.367647
0.28372
0.0686319
0.329742
0.801015
0.295416
0.610633
0.240097
-0.464222
0.251535
-0.55986
0.268294
0.294438
0.247985
0.435291
0.246035
-0.157028
0.259998
-0.0367942
0.241921
0.193675
0.234085
-0.0701314
0.2498
-0.0437295
0.252747
0.07045
0.0615686
0.183676
-0.109138
0.171241
-0.0935887
0.163829
-0.0758213
0.152694
-0.0632582
0.174188
0.0147476
0.219862
0.214528
0.258759
0.31926
0.282952
0.182404
0.27912
-0.00311806
0.246609
-0.147087
0.22225
-0.254852
0.213077
-0.224691
0.180964
-0.238659
0.160031
-0.404479
0.191259
-0.369335
0.223565
-0.106599
0.247368
0.149292
0.266325
0.411847
0.267774
0.469716
0.265276
0.309114
0.242348
-0.0175911
0.212828
-0.433041
0.214158
-0.557042
0.221079
-0.374569
0.264759
0.0249519
0.318218
0.747556
0.285095
0.643755
0.227575
-0.406702
0.23861
-0.570896
0.261342
0.271706
0.242643
0.453989
0.240243
-0.154627
0.256198
-0.0527493
0.239191
0.210681
0.230551
-0.0614908
0.246718
-0.0598968
0.251409
0.065759
0.0651664
0.175725
-0.0894419
0.16106
-0.0789237
0.155303
-0.070064
0.154825
-0.0627805
0.175348
-0.005775
0.22627
0.163606
0.271398
0.274132
0.291451
0.162351
0.280951
0.00738199
0.241115
-0.10725
0.209022
-0.22276
0.198123
-0.213792
0.167632
-0.208168
0.138207
-0.375055
0.16249
-0.393618
0.199632
-0.143741
0.226906
0.122018
0.248366
0.390388
0.253092
0.46499
0.253007
0.309198
0.229552
0.00586469
0.19391
-0.3974
0.191305
-0.554437
0.198714
-0.381978
0.241541
-0.0178751
0.299648
0.689449
0.270477
0.672926
0.21435
-0.350574
0.224904
-0.58145
0.252755
0.243855
0.23627
0.470474
0.233694
-0.152051
0.251428
-0.0704841
0.236009
0.226101
0.227007
-0.0524896
0.243594
-0.0764838
0.249925
0.0594278
0.0670739
0.408229
-0.0595833
-0.438087
0.381484
-0.0521795
0.355159
-0.0437386
0.325925
-0.0335461
0.301463
0.0186865
0.334927
0.130142
0.422905
0.186154
0.496577
0.0886784
0.517517
-0.0135578
0.50163
-0.0913626
0.46618
-0.18731
0.439152
-0.186764
0.417905
-0.18692
0.380082
-0.337231
0.353144
-0.36668
0.328473
-0.11907
0.294198
0.156293
0.285208
0.399377
0.319521
0.430677
0.389173
0.239546
0.425979
-0.0309416
0.407693
-0.379114
0.380926
-0.52767
0.339365
-0.340417
0.33066
-0.00916985
0.384921
0.635188
0.407565
0.650282
0.38287
-0.32588
0.36506
-0.56364
0.366966
0.241949
0.356557
0.480883
0.366786
-0.16228
0.382991
-0.0866888
0.356615
0.252477
0.343296
-0.039171
0.362468
-0.0956563
0.368111
0.0537849
0.0720907
0.444726
-0.0357855
-0.468523
0.424831
-0.0322845
0.406647
-0.0255545
0.389128
-0.0160274
0.385866
0.021948
0.431962
0.0840467
0.504312
0.113803
0.543675
0.0493158
0.542738
-0.0126208
0.52424
-0.0728652
0.488575
-0.151645
0.455803
-0.153993
0.434392
-0.165509
0.400156
-0.302995
0.36627
-0.332795
0.323024
-0.0758239
0.286222
0.193096
0.28889
0.396709
0.348386
0.371181
0.435204
0.152728
0.467394
-0.0631309
0.43363
-0.345351
0.39157
-0.48561
0.339681
-0.288528
0.326718
0.0037932
0.395242
0.566665
0.437996
0.607527
0.414906
-0.302789
0.392123
-0.540857
0.391763
0.242309
0.386837
0.485809
0.401205
-0.176648
0.418012
-0.103496
0.390108
0.280382
0.375776
-0.0248396
0.395902
-0.115782
0.402125
0.0475615
0.0766639
0.488795
-0.0195865
-0.504994
0.474738
-0.0182276
0.463226
-0.0140426
0.45106
-0.00386097
0.455831
0.0171765
0.492282
0.0475962
0.539111
0.066974
0.564276
0.0241506
0.566284
-0.0146285
0.552951
-0.0595328
0.522053
-0.120746
0.501409
-0.133349
0.485513
-0.149612
0.430801
-0.248284
0.36482
-0.266814
0.305722
-0.0167255
0.276116
0.222702
0.31315
0.359675
0.39789
0.28644
0.485412
0.0652055
0.51465
-0.0923685
0.469278
-0.299979
0.40064
-0.416972
0.325177
-0.213065
0.313236
0.0157337
0.414033
0.465868
0.48368
0.537881
0.454858
-0.273967
0.421058
-0.507057
0.419648
0.24372
0.422543
0.482913
0.439876
-0.19398
0.45566
-0.11928
0.426753
0.309289
0.412476
-0.0105629
0.434144
-0.13745
0.440581
0.0411252
0.0812199
0.535381
-0.00940787
-0.545559
0.524616
-0.00746254
0.517308
-0.00673458
0.513228
0.000218757
0.518215
0.0121897
0.541854
0.0239574
0.572999
0.035829
0.589101
0.00804789
0.588503
-0.0140302
0.580201
-0.0512312
0.552472
-0.0930168
0.521882
-0.102759
0.500425
-0.128155
0.446381
-0.194241
0.364869
-0.185302
0.301815
0.046329
0.306949
0.217568
0.386063
0.280561
0.478295
0.194208
0.543993
-0.000492567
0.558967
-0.107343
0.503023
-0.244035
0.407137
-0.321085
0.307072
-0.113
0.30242
0.0203856
0.442113
0.326175
0.536021
0.443973
0.49945
-0.237396
0.448187
-0.455794
0.44716
0.244747
0.462974
0.467099
0.483791
-0.214797
0.496367
-0.131856
0.467011
0.338644
0.454302
0.00214567
0.478315
-0.161463
0.484828
0.0346125
0.0862901
0.584479
-0.00309226
-0.590794
0.578315
-0.00129923
0.574337
-0.00275596
0.57286
0.00169585
0.577445
0.00760424
0.591725
0.00967755
0.609226
0.0183281
0.62148
-0.00420672
0.621251
-0.0138004
0.612915
-0.0428958
0.596609
-0.0767104
0.57273
-0.0788802
0.54095
-0.0963743
0.482615
-0.135906
0.411773
-0.114459
0.375678
0.0824237
0.414472
0.178774
0.504495
0.190538
0.575356
0.123347
0.607224
-0.0323598
0.605441
-0.10556
0.547898
-0.186493
0.443509
-0.216696
0.334285
-0.00377588
0.323925
0.0307461
0.47754
0.172559
0.593921
0.327592
0.553158
-0.196634
0.476924
-0.37956
0.477036
0.244635
0.512423
0.431712
0.535045
-0.237419
0.543046
-0.139857
0.514298
0.367392
0.502814
0.0136291
0.529213
-0.187862
0.535799
0.0280261
0.0924369
0.637794
0.000545992
-0.641432
0.634556
0.00193789
0.632045
-0.000244727
0.632364
0.00137729
0.635414
0.0045542
0.64368
0.00141094
0.654196
0.00781218
0.659993
-0.0100032
0.660259
-0.0140664
0.652112
-0.0347494
0.631872
-0.0564703
0.610946
-0.0579537
0.590234
-0.0756624
0.543666
-0.0893377
0.493027
-0.0638207
0.492442
0.083009
0.548252
0.122963
0.622711
0.11608
0.661618
0.0844403
0.661272
-0.0320145
0.640921
-0.085208
0.587283
-0.132855
0.510041
-0.139454
0.430695
0.0755699
0.408851
0.0525908
0.527957
0.053453
0.648887
0.206662
0.609767
-0.157514
0.510032
-0.279825
0.514718
0.239949
0.576721
0.369709
0.594425
-0.255123
0.589531
-0.134963
0.564177
0.392747
0.558065
0.0197401
0.586164
-0.21596
0.592398
0.0217918
0.099574
0.69495
0.00264669
-0.69705
0.693678
0.00320961
0.692148
0.00128557
0.692845
0.000679564
0.694736
0.00266347
0.698847
-0.00269969
0.704635
0.00202366
0.706252
-0.0116195
0.705612
-0.0134266
0.698183
-0.0273203
0.684702
-0.0429892
0.6683
-0.0415524
0.646672
-0.0540337
0.608551
-0.0512174
0.582575
-0.0378443
0.605499
0.0600844
0.649761
0.0787018
0.697071
0.0687696
0.723737
0.0577742
0.716219
-0.0244966
0.691659
-0.060648
0.640045
-0.0812412
0.590481
-0.0898904
0.574441
0.0916103
0.563782
0.0632501
0.618234
-0.000999586
0.705912
0.118984
0.67333
-0.124932
0.565526
-0.17202
0.577548
0.227927
0.65802
0.289237
0.658571
-0.255673
0.635401
-0.111794
0.623411
0.404738
0.626551
0.0166
0.652541
-0.24195
0.657786
0.0165467
0.107389
0.75642
0.00365238
-0.757426
0.756208
0.00342225
0.755405
0.00208851
0.755801
0.000283009
0.757001
0.00146433
0.758218
-0.00391699
0.761323
-0.0010816
0.760537
-0.0108336
0.759257
-0.0121466
0.752207
-0.0202701
0.740379
-0.0311614
0.726335
-0.0275083
0.711305
-0.0390038
0.688444
-0.0283565
0.672653
-0.0220525
0.696276
0.0364606
0.726945
0.0480332
0.754608
0.0411067
0.772224
0.0401577
0.761625
-0.0138967
0.744655
-0.0436788
0.708326
-0.0449116
0.677765
-0.0593301
0.697398
0.0719782
0.702789
0.0578589
0.717859
-0.0160694
0.761138
0.0757041
0.730258
-0.0940515
0.645097
-0.0868583
0.674105
0.198918
0.750801
0.212541
0.722207
-0.22708
0.690151
-0.0797376
0.707726
0.387163
0.717486
0.00684025
0.728384
-0.252849
0.727294
0.0176371
0.115677
0.822943
0.00395454
-0.823245
0.823071
0.00329431
0.822747
0.0024122
0.822743
0.00028703
0.823374
0.000833442
0.823056
-0.00359933
0.8243
-0.00232513
0.822065
-0.00859845
0.820153
-0.0102345
0.814112
-0.0142292
0.805382
-0.0224322
0.795748
-0.0178735
0.783757
-0.0270135
0.770017
-0.0146164
0.761264
-0.013299
0.77758
0.0201448
0.796386
0.0292272
0.81328
0.0242125
0.828827
0.0246103
0.821413
-0.00648245
0.807113
-0.0293785
0.781917
-0.0197159
0.761705
-0.0391179
0.7884
0.045283
0.79974
0.0465182
0.803291
-0.0196197
0.819822
0.0591727
0.788786
-0.0630157
0.738376
-0.0364475
0.784359
0.152934
0.844044
0.152857
0.788749
-0.171785
0.761433
-0.0524218
0.813974
0.334621
0.821749
-0.000934507
0.800458
-0.231558
0.787323
0.0307716
0.119934
0.89498
0.00385231
-0.894878
0.895129
0.00314589
0.89512
0.00242086
0.894798
0.000608553
0.895036
0.000595532
0.893996
-0.00255893
0.894014
-0.0023428
0.891637
-0.00622207
0.889296
-0.00789325
0.884715
-0.00964817
0.877779
-0.0154959
0.870858
-0.0109533
0.861989
-0.0181446
0.854678
-0.0073055
0.84977
-0.00839089
0.858946
0.0109695
0.87178
0.0163928
0.881498
0.0144944
0.891645
0.0144638
0.886569
-0.00140651
0.87634
-0.0191495
0.863623
-0.00699904
0.848807
-0.0243017
0.86842
0.0256698
0.877637
0.0373012
0.87593
-0.017913
0.885615
0.0494876
0.863225
-0.0406259
0.833994
-0.00721612
0.879619
0.107309
0.923181
0.109295
0.861065
-0.109669
0.844264
-0.03562
0.919486
0.259399
0.917277
0.00127451
0.862717
-0.176998
0.847551
0.0459381
0.11183
0.973297
0.0035507
-0.972995
0.973443
0.00299987
0.973514
0.00234962
0.973085
0.00103728
0.97299
0.000690305
0.971846
-0.00141484
0.97122
-0.00171619
0.969039
-0.00404168
0.966649
-0.00550252
0.963128
-0.00612749
0.95781
-0.010178
0.953292
-0.0064355
0.947095
-0.011947
0.942907
-0.00311805
0.940391
-0.00587432
0.944909
0.00645125
0.952968
0.00833355
0.95846
0.00900282
0.965183
0.00774081
0.962931
0.000844757
0.954985
-0.0112033
0.948931
-0.000944535
0.937699
-0.0130696
0.949341
0.0140275
0.958129
0.0285135
0.955085
-0.0148695
0.961417
0.0431553
0.945871
-0.0250796
0.927369
0.0112863
0.963533
0.0711451
0.997118
0.07571
0.943199
-0.0557506
0.932323
-0.0247436
1.01039
0.181333
0.999154
0.0125091
0.931693
-0.109537
0.928793
0.0488382
0.091199
1.05873
0.0032313
-1.05841
1.05886
0.00287443
1.05892
0.00228475
1.05852
0.00143622
1.05827
0.000940728
1.05722
-0.000360695
1.05636
-0.00085936
1.05453
-0.00220666
1.05241
-0.00338228
1.04981
-0.00352771
1.04595
-0.00632037
1.0429
-0.00339042
1.03853
-0.00757567
1.03626
-0.000840961
1.03467
-0.00429122
1.03672
0.00440618
1.04171
0.00333687
1.04455
0.00616752
1.04838
0.00391421
1.04735
0.00187339
1.04158
-0.00543197
1.0396
0.00103579
1.03209
-0.00556633
1.03838
0.00774348
1.045
0.0218886
1.04069
-0.0105593
1.04615
0.0376952
1.03742
-0.0163532
1.02565
0.0230656
1.04981
0.0469774
1.07529
0.0502309
1.03607
-0.0165239
1.02849
-0.0171678
1.09399
0.115836
1.07869
0.0278018
1.01963
-0.0504743
1.02909
0.0393801
0.0668763
1.15209
0.0029305
-1.15179
1.15222
0.00274108
1.15228
0.00222761
1.15197
0.00174966
1.15168
0.00123057
1.15082
0.00049504
1.15001
-5.13875e-05
1.14858
-0.000770099
1.14689
-0.0016973
1.14499
-0.00162755
1.1422
-0.00353013
1.14022
-0.00140671
1.13718
-0.00453867
1.13589
0.000450815
1.13476
-0.00316545
1.13556
0.0036087
1.13829
0.000603548
1.13959
0.00486659
1.14186
0.00165136
1.14138
0.00234681
1.13779
-0.00184108
1.13724
0.00159193
1.13218
-0.000513299
1.13548
0.00445118
1.14045
0.0169101
1.13651
-0.00661135
1.14143
0.0327691
1.13576
-0.0106855
1.12897
0.0298554
1.14515
0.030799
1.16379
0.0315906
1.13734
0.00992486
1.13315
-0.0129706
1.18136
0.0676272
1.16633
0.0428258
1.12431
-0.00844945
1.13794
0.0257523
0.0462018
1.25431
0.00265264
-1.25403
1.25445
0.00259592
1.25451
0.00217152
1.2543
0.00195619
1.25405
0.00147971
1.25342
0.00112706
1.25275
0.000620102
1.25171
0.000270568
1.25043
-0.000417546
1.2491
-0.000299041
1.24716
-0.00158616
1.24586
-0.000112296
1.24377
-0.0024506
1.243
0.00122684
1.24209
-0.00225978
1.24231
0.00338996
1.24368
-0.000766762
1.24416
0.00438614
1.24541
0.000406499
1.24505
0.00270447
1.24288
0.000332277
1.24295
0.00151362
1.23989
0.00254734
1.2416
0.0027486
1.24503
0.013479
1.24143
-0.00301063
1.24611
0.0280878
1.24283
-0.00741096
1.23952
0.0331657
1.25027
0.0200507
1.26245
0.0194108
1.24668
0.0256981
1.24622
-0.0125154
1.27802
0.0358297
1.26547
0.0553779
1.23956
0.0174572
1.25231
0.0130078
0.0308896
1.36626
0.00240511
-1.36601
1.36642
0.00243651
1.36649
0.00210167
1.36638
0.0020585
1.36621
0.0016556
1.36579
0.00154543
1.3653
0.00111322
1.36458
0.000985303
1.36369
0.000472034
1.36281
0.000586465
1.36149
-0.000274372
1.36068
0.000702427
1.35927
-0.00103797
1.35881
0.00168713
1.35805
-0.00150081
1.3581
0.00333575
1.35859
-0.00125741
1.35872
0.00425448
1.35934
-0.000212181
1.35908
0.00296243
1.35792
0.00150011
1.35811
0.00131675
1.3563
0.00436115
1.35711
0.0019431
1.35963
0.0109549
1.35684
-0.000219248
1.36132
0.0236037
1.35885
-0.00493991
1.35822
0.0337986
1.36569
0.0125819
1.37274
0.0123595
1.36524
0.0331997
1.36649
-0.0137712
1.38573
0.0165906
1.37757
0.0635398
1.36347
0.0315529
1.37341
0.00306724
0.020108
1.48888
0.00217598
-1.48865
1.48905
0.0022647
1.48914
0.00201469
1.48912
0.00208073
1.48902
0.00175533
1.48877
0.00179324
1.48845
0.00143343
1.488
0.00143701
1.48742
0.00104748
1.48687
0.00113858
1.48605
0.000547672
1.48559
0.0011638
1.48467
-0.000117057
1.48448
0.00187291
1.48387
-0.00088669
1.48397
0.00323542
1.48402
-0.00131243
1.48407
0.00420644
1.48436
-0.000506026
1.48407
0.00325923
1.48354
0.00203151
1.48358
0.00127836
1.48267
0.00526447
1.48313
0.00148598
1.48493
0.00915158
1.48298
0.00173286
1.48716
0.0194279
1.48512
-0.00290569
1.48659
0.0323302
1.49187
0.0073063
1.49492
0.00930682
1.49348
0.0346431
1.49547
-0.0157663
1.50575
0.00631482
1.50203
0.0672558
1.49613
0.0374494
1.50329
-0.00408819
0.0125761
1.62319
0.00197025
-1.62299
1.62337
0.00208751
1.62346
0.00192203
1.6235
0.00204173
1.62346
0.00179803
1.62334
0.00191131
1.62316
0.00161566
1.62291
0.00169086
1.62259
0.00136527
1.62228
0.00144178
1.62184
0.00099058
1.62165
0.00135614
1.62114
0.000394808
1.62122
0.00179347
1.62077
-0.000436026
1.62109
0.00290726
1.6209
-0.00111629
1.62112
0.00398886
1.62112
-0.000509837
1.62088
0.00349738
1.62067
0.00224411
1.62051
0.00144011
1.62014
0.00562979
1.6205
0.00113268
1.62175
0.00789812
1.62079
0.00269264
1.62474
0.0154733
1.62262
-0.000778343
1.6262
0.0287485
1.6295
0.00400417
1.63023
0.00857993
1.63314
0.0317326
1.63363
-0.0162608
1.638
0.00194343
1.64009
0.0651707
1.63984
0.0376943
1.64361
-0.00785523
0.00772461
1.77033
0.00180811
-1.77017
1.77048
0.00193525
1.77054
0.0018594
1.7706
0.00198814
1.77056
0.00183636
1.77051
0.0019575
1.7704
0.00172345
1.77029
0.00180798
1.77016
0.00149237
1.77005
0.00155182
1.76994
0.0011042
1.76997
0.00131758
1.76986
0.00050527
1.77021
0.00144385
1.77003
-0.000256662
1.77068
0.0022574
1.77041
-0.000837736
1.77094
0.00345134
1.77069
-0.000252457
1.77052
0.00366457
1.77045
0.00231463
1.76991
0.00197346
1.77001
0.00553671
1.7703
0.00083844
1.77111
0.00708618
1.77127
0.00253354
1.7748
0.011943
1.77264
0.00138259
1.77849
0.0229026
1.77965
0.00284503
1.77906
0.00916877
1.78525
0.0255445
1.78304
-0.0140559
1.78352
0.00146109
1.79156
0.0571396
1.79546
0.0337855
1.79606
-0.00845446
0.00498777
1.93112
0.00161349
-1.93092
1.93132
0.00173296
1.93145
0.00172675
1.93162
0.00182347
1.93169
0.00176426
1.93182
0.00182732
1.93186
0.00168108
1.93196
0.00170829
1.93203
0.00142438
1.93211
0.00146812
1.93225
0.000966642
1.93238
0.00119037
1.93253
0.000352178
1.93287
0.00110329
1.93282
-0.000201812
1.93356
0.00150976
1.93304
-0.000319107
1.93405
0.0024441
1.93332
0.00048219
1.93371
0.00326864
1.93371
0.00231337
1.93292
0.00276371
1.9338
0.00465844
1.93352
0.00112466
1.93398
0.00661903
1.93545
0.00106451
1.93792
0.00947215
1.9367
0.00261076
1.94532
0.0142765
1.94327
0.00489905
1.94334
0.00909285
1.95199
0.0168944
1.94283
-0.00488835
1.93981
0.00447969
1.95904
0.0379069
1.96896
0.0238653
1.96284
-0.00233708
0.00644946
2.10686
0.00122908
-2.10648
2.10727
0.001322
2.10769
0.00131525
2.10812
0.00138948
2.10853
0.00135058
2.10896
0.00140036
2.10934
0.00130215
2.10971
0.00134028
2.11
0.00113065
2.11025
0.0012239
2.11039
0.00081799
2.11048
0.0011037
2.11042
0.000416295
2.11044
0.00107957
2.11011
0.000125208
2.11036
0.00126635
2.10981
0.000232187
2.11053
0.0017206
2.11011
0.000898169
2.11102
0.00236138
2.11142
0.0019106
2.11161
0.00258172
2.11294
0.00332132
2.11254
0.00152706
2.11374
0.00541821
2.11436
0.000446555
2.11641
0.00742014
2.11691
0.00210845
2.12288
0.00830989
2.12229
0.00548513
2.12406
0.00732953
2.13039
0.0105608
2.12304
0.00245978
2.12017
0.00734785
2.13887
0.0192064
2.14999
0.01275
2.14291
0.00474771
0.00891873
2.29981
0.000785941
-2.29937
2.30029
0.000847502
2.30078
0.000824119
2.30128
0.000888587
2.30179
0.000839408
2.30228
0.000907989
2.30276
0.000823895
2.3032
0.00090188
2.30356
0.000767987
2.3039
0.000881104
2.30406
0.000666119
2.30429
0.00087423
2.30418
0.000525888
2.30432
0.000931815
2.30405
0.000400857
2.30422
0.00109138
2.30405
0.00040394
2.30444
0.00133047
2.30466
0.000684222
2.30547
0.00154572
2.30608
0.00130151
2.30709
0.00156959
2.30816
0.00225745
2.30844
0.00124238
2.31034
0.00352155
2.30989
0.000890101
2.31242
0.00489437
2.31319
0.00133572
2.31551
0.00599389
2.31781
0.00318554
2.32009
0.00504834
2.32346
0.00719085
2.32359
0.00232671
2.3244
0.006543
2.33264
0.0109669
2.33874
0.00664926
2.33814
0.00534055
0.0075788
2.5113
0.000401292
-2.51092
2.51172
0.000432909
2.51212
0.000420575
2.51255
0.000455727
2.51296
0.000429462
2.5134
0.000470912
2.5138
0.000424398
2.51422
0.00047737
2.51459
0.000401613
2.51499
0.000479243
2.5153
0.000360769
2.51569
0.000484986
2.5159
0.000308799
2.51632
0.000510634
2.51645
0.00027308
2.51697
0.00057198
2.51708
0.000297406
2.51774
0.000672587
2.51798
0.000436076
2.51874
0.000785067
2.51933
0.000719471
2.52007
0.000825363
2.52114
0.00118418
2.52171
0.000680201
2.5234
0.0018287
2.52378
0.000510727
2.52622
0.00244837
2.52673
0.000835205
2.52994
0.0027815
2.53128
0.00183822
2.5337
0.00263771
2.53746
0.00342704
2.53786
0.00192173
2.54062
0.00378728
2.54711
0.00447287
2.5509
0.00286106
2.55255
0.00369694
0.00441047
2.74276
-2.74236
2.74319
2.74361
2.74407
2.7445
2.74497
2.74539
2.74587
2.74627
2.74675
2.74711
2.7476
2.74791
2.74842
2.74869
2.74926
2.74956
2.75023
2.75067
2.75145
2.75217
2.753
2.75418
2.75486
2.75669
2.7572
2.75965
2.76049
2.76327
2.76511
2.76774
2.77117
2.77309
2.77688
2.78135
2.78421
2.78791
0.429953
0.0315661
-0.424725
0.435693
0.0583157
0.438896
0.0870303
0.44405
0.11081
0.443789
0.140456
0.446567
0.157826
0.443325
0.186382
0.196017
0.457736
0.0280795
-0.45425
0.462455
0.0535967
0.464427
0.0850584
0.467663
0.107574
0.469117
0.139002
0.469642
0.157301
0.471242
0.184782
0.198735
0.491185
0.0253382
-0.488443
0.493847
0.0509346
0.496578
0.0823277
0.498564
0.105588
0.502096
0.135469
0.503079
0.156319
0.505654
0.182206
0.199396
0.528599
0.0227987
-0.526059
0.530325
0.0492081
0.533752
0.0789013
0.535663
0.103677
0.539499
0.131633
0.541294
0.154525
0.544283
0.179218
0.198119
0.570979
0.0205592
-0.56874
0.572593
0.0475944
0.57587
0.0756247
0.577981
0.101565
0.581525
0.12809
0.584069
0.15198
0.587996
0.17529
0.195321
0.618211
0.0186764
-0.616328
0.619912
0.0458932
0.622752
0.0727852
0.625162
0.0991548
0.628872
0.12438
0.63239
0.148462
0.637337
0.170344
0.191226
0.67044
0.017087
-0.66885
0.672254
0.0440786
0.675067
0.069972
0.678152
0.0960706
0.682392
0.120139
0.686898
0.143956
0.691989
0.165253
0.186165
0.728104
0.0156504
-0.726667
0.730166
0.0420166
0.733102
0.0670356
0.736708
0.0924647
0.741051
0.115796
0.745919
0.139088
0.751318
0.159854
0.180056
0.791524
0.0143626
-0.790236
0.793695
0.0398459
0.796637
0.0640936
0.800489
0.0886125
0.804988
0.111297
0.810443
0.133634
0.816479
0.153819
0.17329
0.861075
0.0131994
-0.859912
0.863306
0.0376149
0.866349
0.0610507
0.870454
0.084508
0.875291
0.10646
0.881142
0.127782
0.887622
0.147339
0.166034
0.93727
0.0121104
-0.936181
0.939515
0.0353698
0.942675
0.0578916
0.946946
0.0802364
0.952097
0.10131
0.958258
0.121621
0.965212
0.140386
0.15825
1.02058
0.0110894
-1.01956
1.02283
0.0331226
1.02614
0.0545816
1.03064
0.0757351
1.03614
0.0958051
1.04267
0.115092
1.0501
0.132963
0.149933
1.11173
0.0101064
-1.11075
1.11402
0.03083
1.11751
0.0510946
1.12223