/*--------------------------------*- C++ -*----------------------------------*\
| =========                 |                                                 |
| \\      /  F ield         | OpenFOAM: The Open Source CFD Toolbox           |
|  \\    /   O peration     | Version:  2312                                  |
|   \\  /    A nd           | Website:  www.openfoam.com                      |
|    \\/     M anipulation  |                                                 |
\*---------------------------------------------------------------------------*/
FoamFile
{
    version     2.0;
    format      ascii;
    arch        "LSB;label=32;scalar=64";
    class       volScalarField;
    location    "59";
    object      p;
}
// * * * * * * * * * * * * * * * * * * * * * * * * * * * * * * * * * * * * * //

dimensions      [0 2 -2 0 0 0 0];

internalField   nonuniform List<scalar> 
940
(
-0.396734
-0.359825
-0.352827
-0.34274
-0.316002
-0.270859
-0.398045
-0.37096
-0.328605
-0.290583
-0.255253
-0.214371
-0.395097
-0.33872
-0.288428
-0.23346
-0.198002
-0.156905
-0.312071
-0.327523
-0.358555
-0.365841
-0.384966
-0.335274
-0.381251
-0.374004
-0.42445
-0.417022
-0.461916
-0.39047
-0.37463
-0.351345
-0.388385
-0.399512
-0.399252
-0.373221
-0.289869
-0.262381
-0.246519
-0.220482
-0.275315
-0.273115
-0.172297
-0.183531
-0.0774939
-0.0791726
-0.120619
-0.119406
-0.028518
-0.000495251
-0.00109084
0.00468626
-0.300384
-0.247913
-0.206554
-0.196842
-0.151482
-0.12043
-0.166936
-0.212224
-0.0333717
-0.0375266
-0.12418
-0.127009
-0.0264826
0.0129652
0.000202739
0.00355462
-0.314904
-0.258739
-0.18167
-0.150249
-0.0220085
0.0755113
-0.157977
-0.214962
-0.00760299
0.00419401
-0.103244
-0.120456
-0.0243669
0.0212349
0.00602768
0.0010266
-0.243969
-0.234282
-0.155881
-0.125861
0.0252092
0.157234
-0.108957
-0.206411
0.0360604
0.0542746
-0.0983887
-0.116906
-0.0171945
0.0263869
0.0107733
-0.00185841
-0.159911
-0.155966
-0.106355
-0.0592891
0.0303489
0.0591335
-0.075946
-0.136789
0.0477348
0.015197
-0.0937935
-0.0976772
-0.0122026
0.0266741
0.0119113
-0.00311753
-0.122494
-0.128492
-0.0969455
-0.0635733
-0.0173177
0.0433448
-0.0298896
-0.0727526
0.036725
0.0220797
-0.0732428
-0.0760929
-0.013124
0.0206173
0.0110796
-0.00320627
-0.0668611
-0.066087
-0.049852
-0.0234821
0.000585848
0.0274011
-0.00771649
-0.0246965
0.0250305
0.0204441
-0.052089
-0.0496336
-0.00623694
0.0189933
0.0108159
0.000296162
-0.0388423
-0.0460481
-0.0450332
-0.0336677
-0.0219357
-0.00347035
-0.00894639
-0.0212351
0.00679371
0.0116625
-0.0352113
-0.0365629
-0.00988738
0.00982643
0.00808095
-0.000705884
-0.00908612
-0.0137121
-0.0140853
-0.00877371
-0.00295829
0.0036706
0.004105
-0.00109255
0.00605554
0.00774792
-0.014684
-0.0174281
-0.00171089
0.0102332
0.00867093
0.00190893
0.00523697
-0.000299881
-0.00397082
-0.00494691
-0.00437636
-0.00316765
-0.00250567
-0.00495635
-0.00326978
-0.000439356
-0.0114361
-0.0140305
-0.00598375
0.0028463
0.00478745
0.000620577
0.0248765
0.020641
0.0168407
0.0140889
0.0125173
0.0114508
0.0106735
0.00893529
0.007626
0.0071706
0.00304798
-0.000817729
0.00214782
0.00584591
0.00676459
0.00218998
0.0289247
0.0249302
0.0209699
0.0173109
0.0141133
0.0112297
0.00855023
0.00588802
0.00306322
0.0011997
-0.00189827
-0.00292435
-0.00185114
1.28183e-05
0.0024485
0.00115319
0.0404844
0.0369689
0.0330156
0.0289088
0.0250127
0.0213406
0.0178907
0.0145945
0.0112947
0.00872299
0.00579494
0.00386304
0.00328199
0.00330043
0.00445636
0.00206382
-0.124646
-0.167271
-0.202312
-0.0958532
-0.11376
-0.137281
-0.0646476
-0.0718754
-0.0943127
-0.0397412
-0.0435937
-0.0578032
-0.017094
-0.0199001
-0.0274936
0.00334754
0.0011274
-0.00238476
0.0171074
0.015018
0.0113013
0.0325101
0.0306816
0.0284051
0.0388182
0.0358431
0.0326339
0.0499529
0.0466431
0.0436031
0.0348223
0.0280656
0.017864
-0.0193282
-0.044029
-0.241035
-0.0258093
-0.0525276
-0.0739612
-0.148942
-0.185361
-0.423028
-0.100498
-0.137178
-0.166436
-0.236099
-0.288509
-0.44376
0.202603
0.239886
0.287111
0.342815
0.392298
0.419437
0.169712
0.192029
0.221645
0.257356
0.293057
0.288331
0.10887
0.118101
0.126049
0.127023
0.123499
0.0133458
0.0623564
0.0461287
0.0696363
0.0572536
0.0808286
0.0812926
0.103761
0.12021
0.14572
0.172216
0.0689354
0.0511869
0.0744721
0.06031
0.0826085
0.0816481
0.0999714
0.114215
0.135887
0.152623
0.0749658
0.0567929
0.0780838
0.0642921
0.08504
0.0829808
0.100695
0.106291
0.120325
0.111126
0.0801645
0.0618481
0.0808659
0.0669052
0.083271
0.0813062
0.0895497
0.0904252
0.0842562
0.0678282
0.0854232
0.0669233
0.0830512
0.0694886
0.0805553
0.0788372
0.0774809
0.0755661
0.0620519
0.0482819
0.0919917
0.0730052
0.0855056
0.0725108
0.0782327
0.0741659
0.0676685
0.0634396
0.0496803
0.0347603
0.100024
0.0812077
0.08783
0.0773877
0.0762119
0.07021
0.0600682
0.0549021
0.0423313
0.0272727
0.110006
0.0926818
0.0897613
0.0824131
0.0746317
0.0679293
0.0560138
0.0482249
0.0381228
0.0253203
0.123484
0.108243
0.0962921
0.0889309
0.0779338
0.0693806
0.058051
0.0490093
0.0411279
0.0319608
0.141061
0.123969
0.102234
0.0934823
0.0810066
0.0706017
0.0601438
0.0510182
0.0438225
0.0370786
0.177811
0.150423
0.122476
0.107658
0.0943092
0.0825238
0.0721335
0.0632252
0.0562987
0.0506739
0.204133
0.164655
0.131475
0.113055
0.0987369
0.0869583
0.0770084
0.0687706
0.0620549
0.0566924
0.353309
0.210918
0.167469
0.141983
0.121859
0.105778
0.0931319
0.0833969
0.0758365
0.0699379
0.0337499
-0.0213193
-0.0836007
0.0216234
-0.0257908
-0.0700468
0.014945
-0.0166572
-0.0465491
0.0113016
-0.0103896
-0.027765
0.0119943
-0.00209485
-0.0102651
0.0215769
0.0118057
0.00710613
0.0294983
0.0226048
0.0192207
0.0447398
0.0388196
0.0349609
0.0515135
0.046327
0.0421256
0.0643803
0.0587565
0.0539339
-0.344693
-0.331818
-0.33451
-0.31046
-0.309199
-0.268813
-0.270269
-0.256984
-0.220989
-0.238779
-0.210597
-0.165913
-0.203092
-0.174958
-0.134605
-0.177326
-0.14408
-0.106885
-0.283669
-0.298473
-0.300205
-0.288378
-0.287456
-0.278929
-0.299473
-0.303627
-0.283563
-0.281212
-0.258451
-0.252188
-0.271016
-0.237341
-0.214751
-0.242409
-0.217122
-0.194739
-0.232718
-0.20052
-0.189822
-0.249829
-0.222074
-0.190183
-0.278361
-0.304089
-0.232397
-0.245094
-0.282081
-0.24505
-0.318352
-0.275524
-0.208206
-0.304236
-0.258724
-0.204547
-0.110677
0.0025356
-0.0403977
-0.10296
0.0548983
0.0303507
-0.11417
-0.0913376
-0.0723036
-0.108825
-0.119114
-0.116601
-0.0713855
-0.0315126
-0.0316975
-0.0539362
-0.0131026
-0.0217678
-0.0153975
-0.0140994
-0.0183174
-0.00341416
-0.0139517
-0.0156652
-0.0012429
-0.0022832
-0.00176778
0.00369868
0.00306567
0.00283696
-0.186071
-0.135433
-0.106781
-0.0736359
-0.0523001
-0.0402946
-0.0313664
-0.0324334
-0.0288942
-0.0332075
-0.184607
-0.142395
-0.121221
-0.0805194
-0.0596628
-0.0436284
-0.0326378
-0.0323249
-0.0284714
-0.0319862
-0.192212
-0.146507
-0.116219
-0.0799353
-0.0617571
-0.0446483
-0.0336779
-0.0319795
-0.0280208
-0.0306615
-0.193588
-0.137689
-0.105542
-0.0723225
-0.0579814
-0.0424765
-0.0336569
-0.0311542
-0.0274151
-0.0293094
-0.163509
-0.107185
-0.0840859
-0.0558135
-0.0478031
-0.0364712
-0.0319881
-0.0296054
-0.0264952
-0.0278924
-0.109165
-0.0682177
-0.0508146
-0.0324588
-0.0339492
-0.028615
-0.0286247
-0.0274036
-0.0251515
-0.0263534
0.0155368
0.0359318
0.0117453
0.00460512
-0.0173091
-0.0195661
-0.02486
-0.0248975
-0.0234441
-0.0246386
0.046982
0.0505356
0.0346556
0.0209116
-0.00192812
-0.0114869
-0.0202858
-0.0220919
-0.0215755
-0.0227461
-0.0601538
-0.0468116
-0.0343872
-0.0236433
-0.0204747
-0.0181614
-0.0195421
-0.0202007
-0.0196371
-0.0206563
-0.109798
-0.0842546
-0.0613636
-0.0391298
-0.0321509
-0.0226029
-0.0211203
-0.0190091
-0.0180394
-0.018586
-0.0294739
-0.0294841
-0.027388
-0.0245517
-0.0226468
-0.0191965
-0.0191462
-0.0172678
-0.0171509
-0.0168982
-0.0101418
-0.0180088
-0.013425
-0.0176851
-0.0151651
-0.0160109
-0.015576
-0.0151232
-0.0164001
-0.0153104
-0.0168495
-0.0165138
-0.0144722
-0.0150297
-0.0128155
-0.0133691
-0.0128535
-0.0126924
-0.0154359
-0.0141228
-0.0141916
-0.0123177
-0.010222
-0.00975294
-0.00814239
-0.00903227
-0.00932787
-0.0097426
-0.0132768
-0.0127328
-0.00131923
-0.0011203
-0.00153426
-0.00320162
-0.00332307
-0.00571175
-0.00645137
-0.00757354
-0.00980589
-0.0101407
0.00201624
0.00143267
0.000753591
-0.000654659
-0.000550601
-0.00359952
-0.00283212
-0.00360404
-0.00391106
-0.00392379
-0.0916427
-0.0769256
-0.0570821
-0.0461777
-0.0369561
-0.032292
-0.0286391
-0.0313355
-0.0301514
-0.0361543
-0.118123
-0.0900179
-0.0667184
-0.0537329
-0.0416147
-0.0350497
-0.0302577
-0.0321618
-0.0298937
-0.0353092
-0.159932
-0.113837
-0.0801497
-0.0606142
-0.0452948
-0.0370546
-0.0308184
-0.0324493
-0.0293982
-0.0343361
0.0655574
0.00544544
-0.0523409
0.0697373
-0.00635641
-0.0775881
0.0706195
-0.0205796
-0.103274
0.0519145
-0.0760205
-0.169674
0.036342
-0.104714
-0.214864
-0.121783
-0.31775
-0.370939
0.208277
0.186751
0.129388
0.247004
0.217138
0.14926
0.294533
0.255729
0.173675
0.353737
0.298566
0.189749
0.418432
0.342039
0.197379
0.474576
0.361112
0.13117
0.0557601
0.0488115
0.0416482
0.0414254
0.0379887
0.0343671
0.0639805
0.05699
0.051432
0.0533995
0.0515431
0.048944
0.0765812
0.0687274
0.0663825
0.0792944
0.0751811
0.0748484
0.102076
0.0936043
0.0956302
0.121207
0.110549
0.107153
0.148258
0.139195
0.127576
0.17537
0.163213
0.122343
0.0347352
0.0276957
0.0190117
0.008033
-0.00554211
-0.0225469
-0.0430308
-0.0801827
-0.100584
-0.237034
0.0308259
0.0272657
0.0224104
0.0163385
0.00756167
-0.00520409
-0.0185658
-0.0468669
-0.057319
-0.10212
0.0442935
0.0362481
0.0277833
0.0185042
0.00773544
-0.00677496
-0.017701
-0.0421826
-0.0498974
-0.0890364
0.0456986
0.0422932
0.0366343
0.0285849
0.018198
0.0019881
-0.0108058
-0.0355713
-0.0436283
-0.0719739
0.0586945
0.0500297
0.0412578
0.0300991
0.0184204
0.00215354
-0.00885515
-0.0313667
-0.0392194
-0.0593289
0.0689165
0.0605302
0.0490391
0.0336964
0.0196861
0.00189224
-0.00898648
-0.0285882
-0.0356942
-0.0514374
0.0785012
0.0638871
0.0504084
0.0336053
0.018559
0.000410638
-0.010091
-0.0270758
-0.0333455
-0.0468742
0.0878492
0.0698988
0.0491697
0.0293984
0.0147072
-0.00210254
-0.0116273
-0.0263909
-0.0318876
-0.0440292
0.0872871
0.0651333
0.0429939
0.0229127
0.008582
-0.005717
-0.0136318
-0.0263703
-0.0312286
-0.0421135
0.0815193
0.056716
0.0340838
0.0159652
0.00295141
-0.00915493
-0.0157778
-0.0266668
-0.0310004
-0.040686
0.0614733
0.0388115
0.0221646
0.00702475
-0.00320094
-0.0127013
-0.0180182
-0.0270286
-0.0308195
-0.0393417
0.00349097
-0.0104387
-0.0081219
-0.0127925
-0.0143188
-0.0187835
-0.0212319
-0.0280922
-0.0304622
-0.0380324
-0.0443786
-0.0468372
-0.037424
-0.0338259
-0.0284058
-0.0269554
-0.0254927
-0.0299053
-0.0302703
-0.0370179
)
;

boundaryField
{
    outlet
    {
        type            fixedValue;
        value           uniform 0;
    }
    upperWall
    {
        type            symmetryPlane;
    }
    lowerWall
    {
        type            symmetryPlane;
    }
    inlet
    {
        type            zeroGradient;
    }
    cylinder
    {
        type            zeroGradient;
    }
    frontAndBack
    {
        type            empty;
    }
}


// ************************************************************************* //
