/*--------------------------------*- C++ -*----------------------------------*\
| =========                 |                                                 |
| \\      /  F ield         | OpenFOAM: The Open Source CFD Toolbox           |
|  \\    /   O peration     | Version:  2512                                  |
|   \\  /    A nd           | Website:  www.openfoam.com                      |
|    \\/     M anipulation  |                                                 |
\*---------------------------------------------------------------------------*/
FoamFile
{
    version     2.0;
    format      ascii;
    arch        "LSB;label=32;scalar=64";
    class       volScalarField;
    location    "113.55";
    object      p;
}
// * * * * * * * * * * * * * * * * * * * * * * * * * * * * * * * * * * * * * //

dimensions      [0 2 -2 0 0 0 0];

internalField   nonuniform List<scalar> 
13248
(
-0.588008
-0.586665
-0.583329
-0.578914
-0.57419
-0.569971
-0.566799
-0.56463
-0.562759
-0.559982
-0.554933
-0.546464
-0.533921
-0.517253
-0.49692
-0.473645
-0.448187
-0.421206
-0.393226
-0.364687
-0.335699
-0.306787
-0.276347
-0.245318
-0.597161
-0.595338
-0.592021
-0.5878
-0.583197
-0.578587
-0.573992
-0.568964
-0.562707
-0.554342
-0.543181
-0.528905
-0.511605
-0.491682
-0.469671
-0.446097
-0.421403
-0.395946
-0.370008
-0.343812
-0.317547
-0.291343
-0.265083
-0.239765
-0.609112
-0.606372
-0.602701
-0.598328
-0.593394
-0.587745
-0.580884
-0.57215
-0.561003
-0.547201
-0.530821
-0.512187
-0.491749
-0.469955
-0.447184
-0.423732
-0.399828
-0.375666
-0.351402
-0.327226
-0.303191
-0.279574
-0.256095
-0.232861
-0.62349
-0.619559
-0.615198
-0.610257
-0.604361
-0.596788
-0.586691
-0.573565
-0.55746
-0.538855
-0.518395
-0.496692
-0.474224
-0.451318
-0.428185
-0.404963
-0.381763
-0.358678
-0.335816
-0.313262
-0.291124
-0.269558
-0.248364
-0.228069
-0.640253
-0.634952
-0.629656
-0.623682
-0.616008
-0.605435
-0.591155
-0.573246
-0.552495
-0.529924
-0.506416
-0.482585
-0.458782
-0.435185
-0.411874
-0.388891
-0.36627
-0.344055
-0.322292
-0.301048
-0.280381
-0.260349
-0.240856
-0.222048
-0.659492
-0.652733
-0.646277
-0.638671
-0.628167
-0.613409
-0.594177
-0.571413
-0.546523
-0.520756
-0.494954
-0.469572
-0.444804
-0.420701
-0.39726
-0.374465
-0.352306
-0.330782
-0.309907
-0.289699
-0.270186
-0.251397
-0.233274
-0.215987
-0.681307
-0.672959
-0.665011
-0.654948
-0.640364
-0.620334
-0.595717
-0.568311
-0.539839
-0.511484
-0.483884
-0.457296
-0.43177
-0.40727
-0.383733
-0.3611
-0.339321
-0.318363
-0.298202
-0.278824
-0.260224
-0.242378
-0.225279
-0.208934
-0.705171
-0.695277
-0.685379
-0.671786
-0.651853
-0.62578
-0.595721
-0.564064
-0.532516
-0.50201
-0.472923
-0.445329
-0.419166
-0.394327
-0.370707
-0.348209
-0.326754
-0.306275
-0.286718
-0.26804
-0.250198
-0.233166
-0.216929
-0.201394
-0.730423
-0.718934
-0.706442
-0.688077
-0.661729
-0.629289
-0.594052
-0.55861
-0.524417
-0.492075
-0.461715
-0.433258
-0.406553
-0.381439
-0.35777
-0.335417
-0.314269
-0.29423
-0.275219
-0.257162
-0.239996
-0.223672
-0.208142
-0.193231
-0.75583
-0.742691
-0.726766
-0.70242
-0.668978
-0.630256
-0.590287
-0.551528
-0.515045
-0.481112
-0.44965
-0.420454
-0.393301
-0.36798
-0.344308
-0.322123
-0.301288
-0.281683
-0.263201
-0.245749
-0.229242
-0.213617
-0.198782
-0.184539
-0.779763
-0.764889
-0.744522
-0.713167
-0.67236
-0.627697
-0.5835
-0.541852
-0.503395
-0.468105
-0.435724
-0.405942
-0.37847
-0.353052
-0.329465
-0.307519
-0.287051
-0.267917
-0.249991
-0.233163
-0.217342
-0.202446
-0.188346
-0.174873
-0.800338
-0.78359
-0.757744
-0.718596
-0.670475
-0.620357
-0.572461
-0.52836
-0.488274
-0.451908
-0.418848
-0.388691
-0.361085
-0.335729
-0.312366
-0.290775
-0.270772
-0.252192
-0.23489
-0.218746
-0.203668
-0.189579
-0.176342
-0.163844
-0.529565
-0.528756
-0.528817
-0.531806
-0.538392
-0.548672
-0.562485
-0.579482
-0.59921
-0.620965
-0.643792
-0.666242
-0.686977
-0.70453
-0.717429
-0.724016
-0.723063
-0.713482
-0.694563
-0.666217
-0.629007
-0.584932
-0.537016
-0.487237
-0.552697
-0.550518
-0.550573
-0.554016
-0.56148
-0.573008
-0.588546
-0.607417
-0.629237
-0.653206
-0.678925
-0.703686
-0.726822
-0.746763
-0.761875
-0.770552
-0.771239
-0.76248
-0.743084
-0.712385
-0.670775
-0.619869
-0.563551
-0.503821
-0.570341
-0.566805
-0.56643
-0.569751
-0.577305
-0.58914
-0.604993
-0.624402
-0.646814
-0.671446
-0.697281
-0.722838
-0.746763
-0.767566
-0.783608
-0.793315
-0.794981
-0.786813
-0.767081
-0.734506
-0.689167
-0.632435
-0.568928
-0.501001
-0.581988
-0.577292
-0.576156
-0.578707
-0.585427
-0.596439
-0.611462
-0.630028
-0.651541
-0.675212
-0.700018
-0.724705
-0.747924
-0.768191
-0.784023
-0.793746
-0.795494
-0.787166
-0.76664
-0.732255
-0.68405
-0.623433
-0.555536
-0.482979
-0.588025
-0.582553
-0.580479
-0.58169
-0.58673
-0.595902
-0.609018
-0.625625
-0.645126
-0.666755
-0.689551
-0.712372
-0.733986
-0.752985
-0.767789
-0.776617
-0.77741
-0.767739
-0.745291
-0.708449
-0.657775
-0.595253
-0.52648
-0.453956
-0.58955
-0.58382
-0.580816
-0.580344
-0.583093
-0.589645
-0.600023
-0.613883
-0.630675
-0.649682
-0.670011
-0.690618
-0.710308
-0.727638
-0.740882
-0.748053
-0.74677
-0.734393
-0.708797
-0.66892
-0.616321
-0.553784
-0.487069
-0.418612
-0.588039
-0.582593
-0.578855
-0.576669
-0.576898
-0.580437
-0.58762
-0.598315
-0.612097
-0.628317
-0.64613
-0.664546
-0.682274
-0.697643
-0.708702
-0.713079
-0.708179
-0.691565
-0.661907
-0.619269
-0.566374
-0.506368
-0.444511
-0.382285
-0.585014
-0.580291
-0.576138
-0.57251
-0.570419
-0.571037
-0.575033
-0.582569
-0.593401
-0.606968
-0.622485
-0.638777
-0.654245
-0.66693
-0.674471
-0.674288
-0.664036
-0.642143
-0.608587
-0.564726
-0.514018
-0.459257
-0.404607
-0.350275
-0.581822
-0.578078
-0.573839
-0.569225
-0.565355
-0.563584
-0.564872
-0.569668
-0.577924
-0.589164
-0.602395
-0.616124
-0.628394
-0.636858
-0.639
-0.632597
-0.616201
-0.589597
-0.554016
-0.511634
-0.465611
-0.417781
-0.371075
-0.324401
-0.579609
-0.576882
-0.572795
-0.567688
-0.562746
-0.559394
-0.558764
-0.561508
-0.567647
-0.576561
-0.586978
-0.597041
-0.604473
-0.606889
-0.602223
-0.589193
-0.567571
-0.538332
-0.503251
-0.464515
-0.424316
-0.383627
-0.344456
-0.304385
-0.579388
-0.577523
-0.57369
-0.568538
-0.563227
-0.559134
-0.557405
-0.558619
-0.562706
-0.56878
-0.575259
-0.580082
-0.581079
-0.576409
-0.56495
-0.546528
-0.521858
-0.492331
-0.459452
-0.424813
-0.389516
-0.35446
-0.321107
-0.286792
-0.58204
-0.580683
-0.577102
-0.572245
-0.567094
-0.56286
-0.56044
-0.560204
-0.561766
-0.563979
-0.565161
-0.563481
-0.557388
-0.545968
-0.52909
-0.507324
-0.481662
-0.453212
-0.422901
-0.391629
-0.359708
-0.328122
-0.297212
-0.267046
-0.432615
-0.380174
-0.342169
-0.322249
-0.3224
-0.340654
-0.370131
-0.398761
-0.412518
-0.399325
-0.356315
-0.295775
-0.235998
-0.190199
-0.161686
-0.148587
-0.148479
-0.159541
-0.18352
-0.22679
-0.288512
-0.347785
-0.374628
-0.351267
-0.293757
-0.227714
-0.172393
-0.136597
-0.118298
-0.113788
-0.125685
-0.156609
-0.195231
-0.21811
-0.206625
-0.170686
-0.131964
-0.104704
-0.0924614
-0.0967293
-0.115995
-0.135528
-0.137185
-0.118556
-0.0973513
-0.0790927
-0.0689458
-0.0652558
-0.0651093
-0.0625372
-0.0563688
-0.0485979
-0.0462264
-0.0474314
-0.0475526
-0.0364736
-0.0280619
-0.0171605
-0.0127508
-0.00335622
-0.438945
-0.375922
-0.326371
-0.293971
-0.281847
-0.289887
-0.312838
-0.339847
-0.355934
-0.347213
-0.311932
-0.260777
-0.21051
-0.172559
-0.149713
-0.141168
-0.145254
-0.160487
-0.189201
-0.237971
-0.304603
-0.367353
-0.396196
-0.371414
-0.309686
-0.238477
-0.178139
-0.137499
-0.114648
-0.105372
-0.111099
-0.134526
-0.166629
-0.186111
-0.176503
-0.147057
-0.116391
-0.0969294
-0.0918075
-0.103852
-0.131081
-0.156987
-0.16002
-0.136129
-0.108698
-0.0841192
-0.0681118
-0.0588707
-0.0543284
-0.0507421
-0.0456177
-0.0433671
-0.0470754
-0.0542135
-0.0587675
-0.0459865
-0.0342318
-0.0156811
-0.00546628
-0.000369714
-0.427145
-0.35647
-0.298821
-0.256579
-0.2324
-0.228025
-0.240849
-0.262829
-0.280459
-0.278906
-0.254326
-0.215493
-0.176612
-0.147227
-0.130516
-0.12686
-0.135169
-0.154016
-0.185911
-0.237193
-0.305649
-0.370456
-0.402606
-0.380605
-0.317958
-0.243645
-0.180069
-0.135856
-0.109128
-0.0953928
-0.0953038
-0.111507
-0.137217
-0.154042
-0.146539
-0.123222
-0.0998452
-0.087631
-0.08958
-0.109678
-0.14506
-0.177499
-0.182428
-0.153278
-0.119212
-0.0884216
-0.067031
-0.0528125
-0.0439677
-0.0392285
-0.0348717
-0.0381263
-0.0476848
-0.0605503
-0.069446
-0.0551896
-0.0401833
-0.0144263
0.00172511
0.00250572
-0.404223
-0.330211
-0.268804
-0.219373
-0.185549
-0.168771
-0.16854
-0.181176
-0.1968
-0.201635
-0.188055
-0.162705
-0.135734
-0.115097
-0.10461
-0.10574
-0.117799
-0.139134
-0.171987
-0.22257
-0.29021
-0.356691
-0.392711
-0.377236
-0.317528
-0.242737
-0.177954
-0.131745
-0.102243
-0.0848188
-0.0794018
-0.0890065
-0.108773
-0.123279
-0.117975
-0.0999538
-0.0826746
-0.0768151
-0.0852699
-0.113132
-0.156662
-0.195803
-0.203284
-0.16949
-0.128672
-0.091864
-0.0656618
-0.0471662
-0.0341888
-0.0281922
-0.0242595
-0.0328366
-0.0479633
-0.0663168
-0.079406
-0.0639369
-0.0458389
-0.0134868
0.00873815
0.00525317
-0.375154
-0.302401
-0.242128
-0.190206
-0.149166
-0.121665
-0.109163
-0.109834
-0.118249
-0.12502
-0.120445
-0.107372
-0.0912714
-0.078748
-0.0739672
-0.0793398
-0.0945636
-0.117572
-0.149807
-0.197111
-0.26083
-0.326991
-0.368207
-0.361271
-0.308304
-0.236426
-0.17231
-0.125477
-0.0943738
-0.0744454
-0.0645595
-0.0680936
-0.0824343
-0.0948804
-0.0917767
-0.0777623
-0.0652141
-0.0645584
-0.0784871
-0.113328
-0.164728
-0.210585
-0.221337
-0.184258
-0.136979
-0.0944378
-0.064003
-0.0419781
-0.0251348
-0.017817
-0.0138895
-0.0274196
-0.0478416
-0.0713941
-0.0884873
-0.0721033
-0.0511357
-0.0129361
0.0154792
0.00786781
-0.345047
-0.277651
-0.221558
-0.170879
-0.127177
-0.0921628
-0.0681397
-0.056599
-0.0552326
-0.0591614
-0.0600629
-0.0545947
-0.0469249
-0.0411178
-0.0412928
-0.0503588
-0.0681261
-0.0920868
-0.122648
-0.16501
-0.222269
-0.285588
-0.331855
-0.334836
-0.291257
-0.225215
-0.163749
-0.117515
-0.0858239
-0.0644015
-0.0514062
-0.0497258
-0.0590185
-0.0695687
-0.0686911
-0.0571469
-0.0479991
-0.0511381
-0.069413
-0.11016
-0.168399
-0.220625
-0.235403
-0.196939
-0.143989
-0.0961486
-0.0620684
-0.0372963
-0.016937
-0.008253
-0.00391167
-0.0218529
-0.0472495
-0.0756589
-0.0965714
-0.0795719
-0.0560105
-0.012817
0.0218589
0.0103378
-0.316375
-0.257165
-0.207286
-0.159756
-0.116639
-0.0792722
-0.048011
-0.0252801
-0.0129836
-0.00946687
-0.0100283
-0.00828524
-0.00656871
-0.00534124
-0.0091737
-0.0210126
-0.0403905
-0.0644799
-0.0928796
-0.130019
-0.180033
-0.238689
-0.28822
-0.301489
-0.26855
-0.210206
-0.153069
-0.108585
-0.0770914
-0.0550164
-0.0398862
-0.0341214
-0.0388752
-0.0475575
-0.0477063
-0.0385264
-0.0316996
-0.0372409
-0.0584678
-0.103225
-0.167347
-0.225206
-0.244594
-0.206979
-0.149614
-0.0970732
-0.0598843
-0.0331161
-0.00970887
0.000362726
0.00554558
-0.0161114
-0.0461691
-0.0790637
-0.103585
-0.0862467
-0.0603984
-0.0131321
0.0278002
0.0126465
-0.29286
-0.241457
-0.197859
-0.154516
-0.113207
-0.0759286
-0.0429173
-0.0143005
0.00796285
0.0210369
0.0256581
0.0260751
0.0263901
0.0251288
0.019222
0.00595565
-0.0138841
-0.0371799
-0.0630901
-0.0951978
-0.137512
-0.189914
-0.240809
-0.262949
-0.241288
-0.192092
-0.140776
-0.0991456
-0.0685643
-0.0464943
-0.0301515
-0.0212559
-0.022102
-0.0289118
-0.0297044
-0.0225861
-0.0170532
-0.0234514
-0.0461803
-0.0932887
-0.16122
-0.223719
-0.248128
-0.213609
-0.153691
-0.0972774
-0.057484
-0.0293672
-0.00352455
0.00793671
0.0143149
-0.010249
-0.0445628
-0.0815353
-0.10947
-0.0920314
-0.0642356
-0.0138469
0.0332352
0.0147762
-0.275314
-0.231062
-0.192558
-0.153057
-0.114368
-0.0781786
-0.0450312
-0.0151637
0.0112126
0.0327285
0.0462294
0.0510939
0.0514177
0.0490046
0.0423895
0.0292387
0.010267
-0.0114643
-0.0350015
-0.0628945
-0.0984719
-0.144278
-0.194562
-0.225007
-0.212722
-0.172381
-0.127475
-0.0894607
-0.0604093
-0.0388689
-0.0221248
-0.011084
-0.00860634
-0.0134977
-0.0150494
-0.00981685
-0.00453458
-0.0103986
-0.03315
-0.0802724
-0.150258
-0.217113
-0.246266
-0.21688
-0.1561
-0.0967917
-0.0548926
-0.0259799
0.00160505
0.0143873
0.0223397
-0.00419137
-0.0425129
-0.0831546
-0.114214
-0.0968556
-0.0674792
-0.0149468
0.0380832
0.0167069
-0.262562
-0.224963
-0.190952
-0.154798
-0.118668
-0.0841314
-0.0517028
-0.0218218
0.0050221
0.0287161
0.0483643
0.0615371
0.0668802
0.0658153
0.0597
0.0477597
0.0308979
0.0117869
-0.00920243
-0.0337635
-0.0633431
-0.102117
-0.150122
-0.184706
-0.180659
-0.150164
-0.113017
-0.0797046
-0.0528765
-0.0323313
-0.0158641
-0.00364008
0.00160873
-0.00119404
-0.00335499
-0.000642196
0.00560386
0.00119103
-0.0203834
-0.0660814
-0.135403
-0.203938
-0.238683
-0.215034
-0.156411
-0.0957364
-0.052264
-0.0230705
0.00557018
0.0197046
0.0294009
0.00187565
-0.0399718
-0.083773
-0.11776
-0.100644
-0.0701092
-0.0164529
0.0422331
0.0184188
-0.252583
-0.221825
-0.191049
-0.157186
-0.12334
-0.0909074
-0.0593911
-0.029171
-0.00105787
0.0241789
0.0454897
0.0617359
0.0740171
0.0780944
0.0752916
0.0658625
0.0509067
0.0339404
0.0149707
-0.00748734
-0.0337299
-0.068349
-0.113309
-0.159651
-0.153749
-0.130896
-0.100521
-0.0716602
-0.0471114
-0.0275679
-0.0115574
0.00118915
0.00871845
0.00810738
0.00575703
0.00730385
0.0132402
0.0112666
-0.00761782
-0.0504716
-0.118014
-0.188192
-0.227621
-0.210964
-0.155435
-0.0948268
-0.0500427
-0.0206788
0.00822917
0.0236783
0.0356614
0.00818295
-0.0371112
-0.0837522
-0.12017
-0.103459
-0.0720806
-0.0181128
0.0455537
0.019894
-0.243709
-0.223492
-0.197792
-0.167401
-0.136787
-0.106822
-0.0770539
-0.047686
-0.0197005
0.00643959
0.030147
0.0501546
0.0642746
0.0750247
0.0797349
0.0764002
0.066508
0.0531203
0.0369088
0.0165882
-0.0070055
-0.0367906
-0.0741913
-0.0978799
-0.114293
-0.104135
-0.0835398
-0.0608906
-0.0398308
-0.0219895
-0.00684247
0.0057171
0.014563
0.0156861
0.013357
0.0136131
0.0175041
0.0179203
0.00236096
-0.0355548
-0.0990341
-0.167452
-0.210669
-0.198972
-0.150508
-0.0923289
-0.0471902
-0.0175239
0.010858
0.026554
0.0403465
0.0142775
-0.033787
-0.0825637
-0.121243
-0.104933
-0.0730388
-0.0190967
0.0480704
0.021114
-0.21772
-0.210019
-0.185705
-0.155376
-0.125445
-0.0970808
-0.0695614
-0.0424225
-0.0161405
0.00876582
0.0317773
0.0512991
0.0660045
0.0763675
0.0832614
0.0843414
0.0781046
0.0676136
0.0557172
0.0401781
0.0161884
-0.0184002
-0.0573975
-0.0836281
-0.0910511
-0.0817381
-0.0646744
-0.0458964
-0.0281762
-0.0127521
0.000507005
0.0117307
0.020185
0.022247
0.0200314
0.0191347
0.0244866
0.0262671
0.0146469
-0.0192861
-0.0798298
-0.147926
-0.195051
-0.190956
-0.141762
-0.0851708
-0.0412392
-0.0126632
0.0143535
0.0299725
0.0457304
0.0208002
-0.0300065
-0.0809541
-0.121767
-0.10533
-0.07267
-0.019292
0.0497682
0.0220346
-0.193488
-0.189294
-0.167517
-0.138956
-0.111098
-0.0854875
-0.0611318
-0.0370505
-0.0133873
0.00911612
0.0298121
0.0477811
0.0618554
0.0731689
0.0811129
0.0839163
0.0802765
0.0728797
0.0643844
0.0515318
0.0277611
-0.00631387
-0.0404473
-0.0571071
-0.0645984
-0.0582661
-0.0458255
-0.0316058
-0.0176064
-0.00470197
0.00687445
0.0166699
0.0241435
0.0262334
0.0242305
0.0226846
0.0270069
0.0300891
0.0211723
-0.00866043
-0.0648323
-0.130668
-0.178074
-0.174148
-0.129835
-0.0770034
-0.0350918
-0.00804745
0.0173048
0.0325245
0.048875
0.0252178
-0.0273621
-0.0795235
-0.121313
-0.104386
-0.0712182
-0.019346
0.0505347
0.0225769
-0.17293
-0.169468
-0.151265
-0.126188
-0.101123
-0.0779447
-0.0559985
-0.0343075
-0.0128255
0.00784328
0.0270516
0.0439986
0.0578133
0.0687482
0.0767039
0.0803404
0.0785645
0.0732724
0.0662853
0.0545817
0.0335276
0.00556177
-0.0205026
-0.0351866
-0.0414668
-0.0386489
-0.0304298
-0.019758
-0.00854417
0.00223223
0.0122096
0.0207382
0.0274873
0.0296216
0.0277443
0.0255256
0.0288179
0.0322975
0.0242902
-0.00290373
-0.0546997
-0.114078
-0.157045
-0.155435
-0.116329
-0.0683951
-0.0290646
-0.00383719
0.0198445
0.0344195
0.0510665
0.0280696
-0.026079
-0.0781105
-0.119503
-0.102243
-0.0688453
-0.0192113
0.0504243
0.022801
-0.153039
-0.150672
-0.135759
-0.114018
-0.0915664
-0.0705493
-0.0507494
-0.0313481
-0.0120979
0.00660668
0.0241308
0.0397388
0.0527338
0.0632472
0.0711473
0.07546
0.0752872
0.0717306
0.0659549
0.0562074
0.03994
0.0185239
-0.00213551
-0.0155768
-0.0219734
-0.0216419
-0.0164864
-0.00874906
-0.000136947
0.00855854
0.0170257
0.0242454
0.0299999
0.0319324
0.030262
0.0275792
0.0296905
0.0333537
0.026217
0.00115751
-0.0446964
-0.0949202
-0.133372
-0.134009
-0.100769
-0.0588314
-0.0228846
0.00019649
0.022094
0.0354973
0.0523127
0.0299705
-0.0250561
-0.0759101
-0.116282
-0.098831
-0.065396
-0.0186255
0.0493557
0.0226852
-0.134681
-0.133593
-0.121388
-0.102661
-0.0827845
-0.0639721
-0.0462859
-0.0290562
-0.01195
0.00479518
0.0206287
0.0349353
0.0471568
0.0572113
0.0649691
0.0697671
0.0709338
0.0690458
0.0648263
0.0573962
0.0451073
0.0286208
0.012194
0.000387166
-0.00607045
-0.00752098
-0.004865
0.00047286
0.00703363
0.01395
0.0210429
0.0271613
0.0319914
0.033567
0.0320357
0.0289709
0.0299251
0.0332149
0.0270052
0.00520101
-0.0326445
-0.0739618
-0.108062
-0.110446
-0.0838577
-0.0487377
-0.0168411
0.00379328
0.0239991
0.0357506
0.0524053
0.0312192
-0.0236346
-0.0726656
-0.111419
-0.0939658
-0.0608197
-0.0175418
0.0472646
0.0221876
-0.118485
-0.118108
-0.108073
-0.0920349
-0.0746335
-0.0579842
-0.0423053
-0.0270908
-0.0119918
0.0028893
0.0171104
0.0301424
0.0414809
0.0509714
0.0584548
0.0635103
0.0656575
0.0651109
0.0622324
0.0566116
0.0473649
0.0350153
0.0223083
0.0122288
0.00604615
0.00367046
0.00475937
0.00837253
0.0133018
0.0186557
0.0244446
0.0295415
0.033473
0.0345976
0.0331998
0.0299017
0.0298158
0.0321756
0.0269819
0.00944592
-0.0201364
-0.0528895
-0.0823255
-0.0865974
-0.0662922
-0.0382489
-0.0109404
0.00697909
0.0255517
0.0352064
0.0511319
0.0317457
-0.0218115
-0.0682642
-0.104703
-0.0875517
-0.0551313
-0.0158336
0.0441715
0.0212707
-0.103764
-0.103868
-0.0957025
-0.0820985
-0.0670207
-0.0524383
-0.0386652
-0.0253195
-0.0120636
0.00107558
0.0137422
0.0254748
0.0358795
0.0447118
0.0518151
0.0569197
0.0596692
0.0600878
0.058355
0.0543234
0.0475946
0.0385329
0.0288461
0.0206049
0.0151229
0.0124719
0.012563
0.0148303
0.0184637
0.0225386
0.0271535
0.0313709
0.0345827
0.0352664
0.0339462
0.0307047
0.0298201
0.0308507
0.0262177
0.012899
-0.00870927
-0.0327762
-0.0574175
-0.0631783
-0.0488669
-0.027765
-0.00533484
0.00973347
0.026737
0.0340649
0.0488503
0.0312656
-0.0196155
-0.0624272
-0.0958971
-0.079512
-0.0484445
-0.0134763
0.0401733
0.0199114
-0.0902625
-0.0908549
-0.0843077
-0.0728607
-0.0599069
-0.0472521
-0.0352512
-0.0236137
-0.0120434
-0.000533414
0.0106474
0.0211238
0.0305474
0.0386795
0.0453553
0.0503791
0.053491
0.0546404
0.0538964
0.0512089
0.0464454
0.0399259
0.0327335
0.0262792
0.0216537
0.0190719
0.018635
0.0199919
0.0226553
0.0257313
0.0293137
0.032705
0.0353265
0.0356912
0.0344088
0.0315135
0.0302118
0.0300408
0.0249931
0.0153733
0.00142539
-0.0142338
-0.034421
-0.0413213
-0.0324529
-0.0176626
-6.64242e-05
0.0121709
0.027561
0.0326638
0.0444872
0.0296825
-0.0167085
-0.0547095
-0.0848125
-0.0698885
-0.0410019
-0.0105035
0.0354691
0.0181212
-0.0780979
-0.0790445
-0.0738489
-0.0642872
-0.0532401
-0.0423353
-0.0319502
-0.0218763
-0.0118551
-0.0018488
0.00794144
0.017214
0.0256685
0.0330897
0.0393088
0.0441654
0.0474673
0.0491348
0.0491795
0.0476041
0.0444136
0.0398941
0.0347399
0.0298562
0.0261541
0.0238858
0.0232527
0.0240009
0.0259074
0.0282154
0.030953
0.0336062
0.0357352
0.0359185
0.0347037
0.0323721
0.0309415
0.0301614
0.024305
0.017672
0.0104259
0.00191993
-0.0145846
-0.0223443
-0.0179145
-0.00837697
0.00479225
0.0143901
0.0280434
0.0315351
0.0390217
0.0275765
-0.0124342
-0.0446575
-0.0714341
-0.0589012
-0.0331725
-0.00705906
0.0303444
0.0159622
-0.0671279
-0.0682924
-0.0642316
-0.0563099
-0.0469495
-0.0376147
-0.0287
-0.0200547
-0.0114424
-0.00280433
0.00570834
0.0138507
0.0213692
0.0280749
0.0338071
0.0384286
0.041793
0.0438159
0.0444867
0.0438264
0.0418967
0.038947
0.035439
0.0318881
0.0290688
0.0272128
0.0265696
0.0269649
0.0283273
0.0300651
0.0321515
0.034171
0.0358705
0.0359708
0.0349029
0.0332494
0.0318831
0.0311112
0.0257636
0.0215522
0.0187292
0.0146302
0.000819293
-0.00725802
-0.00580179
-0.000197329
0.00920563
0.0164572
0.0282343
0.031042
0.0336089
0.0260834
-0.00608247
-0.0320827
-0.0561285
-0.0470408
-0.0254037
-0.003363
0.025155
0.0135692
-0.0571579
-0.0584935
-0.0553813
-0.0488691
-0.040998
-0.0330737
-0.0254825
-0.0181145
-0.0107623
-0.00335979
0.00398328
0.0110764
0.0177081
0.0237116
0.028945
0.033289
0.0366274
0.0388819
0.0400284
0.0400925
0.0391444
0.0374122
0.0353177
0.0327569
0.030732
0.0293374
0.0288157
0.0290472
0.0300299
0.031341
0.0329395
0.0344528
0.0357955
0.0358787
0.0350445
0.0340228
0.032916
0.0326501
0.0301179
0.0274663
0.0265321
0.0234652
0.0117481
0.00409237
0.00389542
0.00674079
0.0131158
0.0183747
0.0282247
0.0309865
0.0297596
0.0262976
0.00255293
-0.0175971
-0.0399248
-0.0350841
-0.0181337
0.000304542
0.0203299
0.0111569
-0.0481416
-0.0495857
-0.0472497
-0.0419433
-0.035376
-0.0286957
-0.0222718
-0.0160326
-0.00980006
-0.00350534
0.00277035
0.00891061
0.0147177
0.0200498
0.0247855
0.0288224
0.0320634
0.0344415
0.0359271
0.0365432
0.0363357
0.0354565
0.0340208
0.0327039
0.0314492
0.0305269
0.0301857
0.0303711
0.0311118
0.0321206
0.0333679
0.0345013
0.0355674
0.0356912
0.0351141
0.0346236
0.0338879
0.0341716
0.0335889
0.0331823
0.0327573
0.0291001
0.0192955
0.0124878
0.0114247
0.0124043
0.0164683
0.0201475
0.0280796
0.0309197
0.0284018
0.0282195
0.012452
-0.00295368
-0.0243956
-0.0238956
-0.0116814
0.00357965
0.016357
0.00903615
-0.0400251
-0.0414985
-0.0397839
-0.0354927
-0.0300496
-0.0244567
-0.0190598
-0.013815
-0.00857029
-0.00325355
0.00209755
0.00735917
0.0124002
0.0170949
0.0213401
0.0250494
0.0281397
0.0305559
0.0322628
0.0332822
0.0336469
0.0334752
0.0328592
0.0321649
0.0314946
0.0309952
0.030858
0.0310749
0.0316825
0.0324848
0.0334878
0.0343559
0.0352159
0.0354264
0.0350877
0.0349881
0.0346691
0.0353381
0.035871
0.0366133
0.0362953
0.0323408
0.0243832
0.0185456
0.0170368
0.016838
0.0192266
0.021746
0.0278249
0.0305105
0.0291079
0.0299487
0.0209991
0.00911641
-0.0112771
-0.0142437
-0.00616128
0.00610312
0.0135662
0.00754278
-0.0326724
-0.0341275
-0.0329159
-0.0294869
-0.0250149
-0.0203659
-0.0158616
-0.0114828
-0.00710302
-0.00265185
0.00187936
0.00637003
0.0107159
0.0148176
0.0185896
0.0219616
0.0248616
0.0272444
0.0290715
0.0303616
0.0311434
0.0315431
0.0314657
0.0312809
0.0310695
0.0309325
0.0309989
0.031286
0.0318362
0.0325068
0.0333454
0.034049
0.0347616
0.0350667
0.0349385
0.0350808
0.0351186
0.035719
0.0366761
0.0377046
0.0374292
0.0338762
0.0276036
0.0227038
0.0209951
0.0201605
0.021408
0.023102
0.0275502
0.029978
0.0303277
0.030299
0.0262379
0.0169084
-0.00174914
-0.00672652
-0.00156404
0.00773832
0.0119226
0.00681092
-0.0260105
-0.0274353
-0.0266302
-0.0239195
-0.0202684
-0.0164259
-0.0126901
-0.00906
-0.00542636
-0.00170032
0.00209064
0.00589127
0.00960949
0.0131659
0.0164888
0.0195217
0.0222023
0.024495
0.0263591
0.0278027
0.0288273
0.0294681
0.0299304
0.0301777
0.0303329
0.0304922
0.0307443
0.0311171
0.0316583
0.0322569
0.0329872
0.0336001
0.034213
0.0345914
0.0346458
0.034909
0.0351947
0.0356967
0.0365646
0.0374816
0.0371335
0.0342553
0.0294352
0.0253887
0.0236493
0.0225588
0.0230682
0.0241501
0.0273428
0.0295377
0.0308151
0.0297194
0.0281603
0.020463
0.0043807
-0.0011675
0.00210463
0.00853939
0.0108851
0.00649044
-0.0200515
-0.0214045
-0.0208997
-0.0187685
-0.0158053
-0.0126499
-0.00957348
-0.00658273
-0.00358109
-0.000503102
0.0026575
0.0058533
0.00901273
0.0120733
0.0149753
0.017675
0.0201196
0.0222803
0.024118
0.025637
0.0268343
0.0277464
0.0284483
0.0289843
0.0294101
0.0297986
0.0302096
0.0306684
0.0312259
0.031796
0.0324551
0.0330222
0.0335751
0.0339944
0.0341938
0.0345039
0.0348789
0.0353112
0.0359422
0.036609
0.0361625
0.0339221
0.0302951
0.0270033
0.0253223
0.0242297
0.0242728
0.0248849
0.0272103
0.029181
0.0304032
0.0291646
0.0283992
0.0216516
0.00831712
0.00279643
0.00479165
0.0088155
0.00981247
0.00595032
-0.0146782
-0.0159585
-0.0156888
-0.0140324
-0.0116416
-0.00906356
-0.00654137
-0.00409086
-0.00163326
0.000897993
0.00351474
0.0061845
0.00885059
0.0114647
0.013978
0.0163571
0.018557
0.020555
0.0223159
0.0238389
0.0251118
0.0261768
0.0270499
0.0277798
0.0283968
0.0289525
0.0294891
0.0300244
0.030607
0.0311737
0.0317884
0.032333
0.0328506
0.0332841
0.0335831
0.0339075
0.0342843
0.0346445
0.0350418
0.0354413
0.0349361
0.0332048
0.0305059
0.0278892
0.0263895
0.0253216
0.0250898
0.025347
0.0270511
0.028701
0.0294002
0.0283232
0.0276326
0.0217272
0.0109189
0.00561193
0.00654954
0.00867697
0.00858171
0.00505209
-0.0098604
-0.0110392
-0.0109385
-0.00966784
-0.00775752
-0.00566877
-0.00361693
-0.00162261
0.000378095
0.0024462
0.00459837
0.00681367
0.00904771
0.0112633
0.0134215
0.0154968
0.0174517
0.0192691
0.0209165
0.0223876
0.0236779
0.0248049
0.0257753
0.0266222
0.0273635
0.0280319
0.028659
0.0292546
0.0298606
0.0304347
0.0310217
0.0315526
0.0320479
0.0324781
0.032828
0.0331669
0.0334864
0.0337765
0.0339933
0.0341674
0.0336532
0.0323074
0.0302973
0.0282557
0.0269186
0.0259287
0.0255709
0.0255709
0.0267368
0.0279633
0.0281019
0.0270824
0.0262367
0.0212476
0.0126127
0.00761141
0.0075937
0.00834146
0.00736924
0.00404788
-0.005511
-0.00659122
-0.00662362
-0.00566935
-0.00415655
-0.00247526
-0.000816949
0.000794381
0.00241154
0.00408959
0.00584753
0.00767292
0.00953143
0.0113946
0.0132313
0.0150228
0.0167389
0.0183651
0.0198739
0.0212623
0.0225132
0.0236425
0.0246491
0.0255517
0.0263615
0.0270961
0.0277797
0.028416
0.0290371
0.029618
0.0301861
0.0307047
0.0311815
0.0315962
0.0319487
0.0322231
0.0325411
0.0327757
0.0328732
0.0328854
0.032396
0.0313413
0.0298266
0.0282443
0.0270677
0.0261637
0.0257532
0.0255748
0.0262273
0.0270005
0.0267577
0.0256575
0.0245855
0.0204809
0.0136172
0.00899354
0.00818809
0.00803017
0.0063552
0.00316854
-0.00162619
-0.00261039
-0.00273061
-0.0020205
-0.000829493
0.000514079
0.0018435
0.00313429
0.00443068
0.00578162
0.00720669
0.00869951
0.0102338
0.0117875
0.0133361
0.0148666
0.0163548
0.0177885
0.0191408
0.0204184
0.0215981
0.0226871
0.0236828
0.0245937
0.0254269
0.026189
0.0268976
0.0275533
0.0281781
0.0287591
0.0293104
0.0298139
0.0302716
0.0306694
0.0310138
0.0312841
0.0315336
0.0317077
0.0317305
0.0316425
0.031195
0.0303602
0.0291982
0.0279611
0.0269373
0.0260866
0.0256669
0.0253759
0.0255641
0.0259195
0.0253891
0.0242063
0.0229259
0.0195716
0.0141067
0.00989232
0.00851062
0.00770005
0.00560554
0.00250442
0.00182954
0.000957301
0.000786993
0.00130454
0.00223029
0.00329271
0.00434873
0.00537367
0.00640347
0.00748144
0.0086271
0.00983806
0.0110942
0.0123784
0.0136712
0.0149643
0.0162389
0.0174851
0.018684
0.0198302
0.0209118
0.0219291
0.0228786
0.0237619
0.0245826
0.0253405
0.0260474
0.0267017
0.0273173
0.0278883
0.0284201
0.0289043
0.0293406
0.0297191
0.030044
0.0302977
0.0304958
0.030618
0.0305973
0.0304571
0.0300575
0.0293861
0.0284771
0.0274922
0.026611
0.0258381
0.0253534
0.0249588
0.0248137
0.0248085
0.0241477
0.0228395
0.0213902
0.0186072
0.0142283
0.0104224
0.00864996
0.00738582
0.00505343
0.00204848
0.00492484
0.00415497
0.00395063
0.00431511
0.00502578
0.00585794
0.00668875
0.00749438
0.00830383
0.00915524
0.0100676
0.0110405
0.0120591
0.0131102
0.0141784
0.0152577
0.0163349
0.017403
0.0184462
0.0194575
0.0204271
0.0213532
0.0222321
0.0230615
0.0238423
0.0245707
0.0252533
0.0258878
0.0264813
0.0270315
0.0275381
0.0279983
0.028409
0.0287642
0.0290632
0.0292937
0.0294547
0.0295374
0.0294941
0.0293321
0.0289795
0.0284287
0.0277015
0.0268989
0.0261346
0.0254235
0.0248859
0.0244305
0.0240274
0.0237113
0.0229568
0.0215919
0.0200281
0.0176439
0.0140948
0.0106765
0.00865794
0.00709879
0.00466247
0.00175222
0.00767711
0.00700216
0.00678256
0.00703047
0.00756846
0.0082121
0.00885752
0.00948278
0.0101112
0.0107753
0.0114931
0.0122661
0.0130829
0.0139338
0.0148068
0.0156967
0.0165943
0.0174954
0.0183881
0.0192646
0.0201161
0.02094
0.0217329
0.0224905
0.0232117
0.0238917
0.0245322
0.0251311
0.0256902
0.0262091
0.0266842
0.0271151
0.027496
0.0278236
0.0280939
0.028299
0.0284325
0.028486
0.0284318
0.0282653
0.0279544
0.0274928
0.0268949
0.0262237
0.0255446
0.0248876
0.024304
0.0237819
0.0232184
0.0226597
0.0218226
0.0204608
0.0188407
0.0167184
0.0137888
0.010729
0.00857747
0.00683379
0.00438171
0.00156391
0.010117
0.00953353
0.00931193
0.00947008
0.00986867
0.0103581
0.0108516
0.0113292
0.0118093
0.0123196
0.0128762
0.0134822
0.0141287
0.0148081
0.0155121
0.0162368
0.0169744
0.0177223
0.0184742
0.0192183
0.019951
0.0206681
0.0213665
0.0220417
0.0226906
0.0233085
0.0238936
0.0244445
0.024959
0.0254378
0.025875
0.0262706
0.0266181
0.0269143
0.0271559
0.027334
0.0274448
0.0274765
0.0274167
0.0272541
0.026977
0.0265812
0.026072
0.0254957
0.0248777
0.0242595
0.0236457
0.0230564
0.0223971
0.0216711
0.0207542
0.0194283
0.017806
0.0158529
0.0133732
0.0106375
0.00843549
0.00658046
0.00416808
0.001443
0.0122776
0.0117769
0.0115608
0.0116504
0.0119374
0.0123015
0.0126709
0.013028
0.0133873
0.0137718
0.0141959
0.0146625
0.0151658
0.0156997
0.016258
0.0168386
0.0174358
0.0180458
0.0186627
0.0192823
0.0199028
0.0205154
0.0211169
0.0217044
0.0222736
0.0228208
0.0233418
0.0238356
0.0242978
0.0247289
0.0251224
0.0254779
0.0257888
0.0260503
0.0262614
0.026413
0.0265029
0.0265175
0.0264526
0.0262968
0.026044
0.0256956
0.0252471
0.0247358
0.0241627
0.0235674
0.0229395
0.0222948
0.0215732
0.0207471
0.0197607
0.0184762
0.0168956
0.0150583
0.0128962
0.0104449
0.00824843
0.00633284
0.00399187
0.00136161
0.0141822
0.0137558
0.0135508
0.013589
0.013787
0.0140495
0.0143178
0.0145768
0.0148379
0.01512
0.0154353
0.0157869
0.0161703
0.0165814
0.0170158
0.0174718
0.0179464
0.0184368
0.0189372
0.0194456
0.019951
0.0204618
0.0209675
0.0214658
0.0219524
0.0224243
0.0228761
0.023307
0.0237116
0.0240897
0.0244354
0.0247464
0.0250164
0.025242
0.0254218
0.0255465
0.0256147
0.0256142
0.0255427
0.0253921
0.0251557
0.0248391
0.0244319
0.0239621
0.0234228
0.0228411
0.022207
0.021525
0.0207584
0.0198807
0.0188466
0.0175946
0.0160824