/*--------------------------------*- C++ -*----------------------------------*\
| =========                 |                                                 |
| \\      /  F ield         | OpenFOAM: The Open Source CFD Toolbox           |
|  \\    /   O peration     | Version:  2512                                  |
|   \\  /    A nd           | Website:  www.openfoam.com                      |
|    \\/     M anipulation  |                                                 |
\*---------------------------------------------------------------------------*/
FoamFile
{
    version     2.0;
    format      ascii;
    arch        "LSB;label=32;scalar=64";
    class       volScalarField;
    location    "6";
    object      p;
}
// * * * * * * * * * * * * * * * * * * * * * * * * * * * * * * * * * * * * * //

dimensions      [0 2 -2 0 0 0 0];

internalField   nonuniform List<scalar> 
9200
(
-0.498568
-0.496499
-0.491396
-0.48529
-0.479708
-0.476305
-0.475327
-0.475412
-0.474158
-0.469132
-0.458739
-0.442621
-0.421555
-0.396826
-0.369688
-0.341182
-0.311884
-0.282826
-0.252807
-0.222832
-0.508415
-0.505563
-0.500764
-0.494859
-0.488762
-0.482959
-0.47709
-0.470127
-0.460842
-0.448329
-0.432309
-0.413109
-0.391361
-0.367763
-0.342965
-0.317506
-0.291879
-0.266412
-0.241128
-0.217271
-0.52238
-0.517925
-0.512516
-0.506065
-0.49842
-0.489099
-0.477659
-0.463942
-0.448004
-0.430057
-0.410404
-0.38938
-0.367324
-0.34458
-0.321457
-0.298279
-0.27524
-0.252695
-0.230545
-0.20899
-0.539803
-0.533361
-0.526698
-0.518705
-0.508065
-0.493904
-0.476485
-0.456761
-0.435681
-0.413902
-0.391791
-0.369542
-0.347273
-0.32508
-0.303101
-0.281459
-0.260342
-0.239909
-0.220132
-0.20162
-0.560771
-0.5522
-0.543689
-0.532825
-0.51734
-0.497075
-0.473623
-0.448792
-0.423813
-0.3993
-0.375465
-0.352321
-0.329826
-0.307967
-0.286754
-0.26624
-0.246468
-0.227471
-0.209323
-0.192082
-0.585273
-0.574367
-0.563225
-0.547633
-0.525441
-0.498332
-0.469198
-0.440115
-0.412106
-0.385506
-0.36032
-0.336431
-0.31371
-0.29205
-0.271389
-0.251684
-0.232907
-0.21506
-0.198142
-0.182144
-0.612371
-0.598868
-0.583923
-0.561542
-0.531335
-0.497335
-0.463118
-0.430478
-0.400003
-0.371721
-0.345454
-0.320978
-0.298079
-0.276589
-0.256377
-0.237339
-0.219388
-0.202453
-0.186488
-0.171258
-0.640171
-0.623839
-0.603339
-0.572409
-0.533757
-0.493351
-0.454721
-0.419084
-0.386565
-0.356909
-0.329781
-0.304862
-0.281875
-0.260589
-0.240818
-0.222405
-0.205224
-0.189185
-0.174147
-0.159823
-0.665705
-0.646435
-0.618445
-0.577839
-0.531061
-0.485022
-0.442664
-0.404555
-0.370401
-0.339705
-0.311996
-0.286866
-0.263968
-0.243018
-0.223782
-0.20606
-0.1897
-0.17457
-0.160458
-0.147125
-0.685441
-0.663016
-0.6262
-0.575554
-0.521426
-0.470685
-0.425359
-0.385393
-0.350111
-0.318809
-0.290893
-0.265869
-0.243325
-0.222925
-0.204394
-0.187506
-0.172088
-0.157984
-0.144923
-0.132823
-0.350346
-0.363997
-0.382634
-0.410307
-0.445357
-0.484729
-0.525304
-0.563665
-0.59611
-0.618162
-0.627302
-0.622051
-0.600291
-0.560859
-0.503835
-0.430948
-0.346042
-0.255203
-0.165534
-0.0830852
-0.396672
-0.407195
-0.424956
-0.452839
-0.488755
-0.529426
-0.571509
-0.6114
-0.645361
-0.669667
-0.681218
-0.677546
-0.657674
-0.620281
-0.564784
-0.492121
-0.405272
-0.30983
-0.215332
-0.126653
-0.442693
-0.44868
-0.464384
-0.491092
-0.526226
-0.566409
-0.608215
-0.647962
-0.681961
-0.706847
-0.719834
-0.718917
-0.702813
-0.670333
-0.619558
-0.551254
-0.466986
-0.371792
-0.276182
-0.185423
-0.478343
-0.479203
-0.491473
-0.514948
-0.546857
-0.583857
-0.622582
-0.659488
-0.691132
-0.71454
-0.727162
-0.727395
-0.714113
-0.685883
-0.640918
-0.578291
-0.499559
-0.409507
-0.31804
-0.231368
-0.499387
-0.49539
-0.502893
-0.520759
-0.546643
-0.577686
-0.610795
-0.642764
-0.670505
-0.691245
-0.703036
-0.704305
-0.693572
-0.669177
-0.629189
-0.572248
-0.500166
-0.417899
-0.334676
-0.256619
-0.506872
-0.49962
-0.501632
-0.511776
-0.52898
-0.551538
-0.577064
-0.602875
-0.626272
-0.645066
-0.657269
-0.660482
-0.652628
-0.631483
-0.595132
-0.542794
-0.477585
-0.404728
-0.332459
-0.265461
-0.50541
-0.497468
-0.494796
-0.496919
-0.50443
-0.517369
-0.534651
-0.554421
-0.574673
-0.593004
-0.606031
-0.610633
-0.603913
-0.583552
-0.548569
-0.499956
-0.442298
-0.380361
-0.320618
-0.265325
-0.500245
-0.493752
-0.488424
-0.484617
-0.484358
-0.489322
-0.499922
-0.515279
-0.533059
-0.549631
-0.560994
-0.563421
-0.554063
-0.531684
-0.496971
-0.452779
-0.403784
-0.35345
-0.306055
-0.261178
-0.495392
-0.491108
-0.485037
-0.478334
-0.473849
-0.474206
-0.480558
-0.491958
-0.505551
-0.517279
-0.523004
-0.519504
-0.50515
-0.480297
-0.446969
-0.40852
-0.368053
-0.327782
-0.29021
-0.253468
-0.494136
-0.491592
-0.485786
-0.478729
-0.473252
-0.471511
-0.474412
-0.480844
-0.487833
-0.491687
-0.489209
-0.478593
-0.459765
-0.434159
-0.403872
-0.371136
-0.337174
-0.303575
-0.271259
-0.240292
-0.0045939
0.0575099
0.095207
0.113538
0.11832
0.114693
0.106655
0.0968312
0.0866851
0.077255
0.0673758
0.0586771
0.0509025
0.0443142
0.0386714
0.0338287
0.029669
0.0261006
0.0230455
0.0204314
0.0181949
0.0162817
0.0146455
0.0132468
0.0120519
0.0110315
0.0101602
0.00941594
0.00877964
0.00823456
0.00776591
0.00736054
0.00700677
0.006694
0.00641301
0.00615527
0.00591263
0.0056771
0.00544214
0.00519874
0.00494247
0.00465876
0.00435169
0.00399026
0.0035988
0.00312108
0.00259012
0.00197666
0.00123157
0.00044656
-0.0415376
0.0280195
0.0720406
0.0949326
0.10325
0.102908
0.0979711
0.0908544
0.0829329
0.0747861
0.0663314
0.0582781
0.0504366
0.0442465
0.0387486
0.0339457
0.0297911
0.0262148
0.023146
0.020517
0.0182669
0.0163417
0.0146948
0.0132868
0.0120841
0.0110571
0.0101803
0.00943142
0.0087912
0.00824273
0.0077712
0.00736362
0.00700829
0.00669435
0.00641244
0.00615394
0.00591062
0.00567467
0.00543941
0.00519613
0.00493946
0.00465666
0.00434822
0.00398935
0.00359487
0.00312008
0.0025889
0.00197098
0.00123526
0.000438828
-0.0985829
-0.0223574
0.0307207
0.0616347
0.0768334
0.0823763
0.0825146
0.0796464
0.0750574
0.0694523
0.0630259
0.0560929
0.0481973
0.0433939
0.0383481
0.0337511
0.0297037
0.0261841
0.0231427
0.0205265
0.0182819
0.0163579
0.0147099
0.0132998
0.0120947
0.0110655
0.0101868
0.00943647
0.00879506
0.00824559
0.00777305
0.00736449
0.00700841
0.00669417
0.00641237
0.00615397
0.00591061
0.00567479
0.00543971
0.00519696
0.00494023
0.00465863
0.00434897
0.00399284
0.00359529
0.00312341
0.00259174
0.00196887
0.00124167
0.000432347
-0.149568
-0.075228
-0.0173593
0.0211506
0.0440542
0.0565127
0.0624264
0.0644972
0.0640036
0.0616074
0.0578098
0.0531944
0.0493207
0.0422012
0.0374443
0.0331981
0.029361
0.0259678
0.0230043
0.0204381
0.0182259
0.0163227
0.0146875
0.0132852
0.0120846
0.0110581
0.0101811
0.00943199
0.00879166
0.00824324
0.00777168
0.00736383
0.00700802
0.00669404
0.00641289
0.00615527
0.00591259
0.00567753
0.00544314
0.00520134
0.0049449
0.00466482
0.00435418
0.00400092
0.0036004
0.00313135
0.00259884
0.00197083
0.00125079
0.000427572
-0.183739
-0.117995
-0.0622369
-0.019417
0.00996028
0.0288367
0.0403731
0.0470651
0.0506884
0.0519217
0.0510136
0.0484863
0.0449008
0.0390311
0.0359292
0.0323328
0.0288328
0.0256269
0.0227785
0.0202856
0.018121
0.0162493
0.0146352
0.013247
0.012056
0.011036
0.0101636
0.00941802
0.00878058
0.00823474
0.00776565
0.00736023
0.00700639
0.00669383
0.00641383
0.00615728
0.00591576
0.00568207
0.00544894
0.00520857
0.00495284
0.00467456
0.00436331
0.004013
0.00360976
0.00314349
0.00260979
0.00197686
0.00126228
0.000424756
-0.202778
-0.147002
-0.0983031
-0.0555098
-0.0222941
0.00147976
0.0178716
0.0288077
0.0359798
0.0405078
0.0427612
0.0427702
0.0412118
0.0395863
0.0342424
0.0310732
0.0279578
0.0250036
0.0223391
0.0199793
0.0179087
0.016102
0.0145321
0.0131734
0.0120022
0.0109956
0.0101325
0.00939358
0.00876126
0.0082196
0.00775424
0.00735244
0.00700207
0.00669263
0.00641496
0.00616001
0.00591998
0.00568803
0.00545659
0.00521805
0.00496347
0.00468725
0.00437579
0.00402842
0.00362287
0.00315927
0.00262405
0.00198687
0.00127562
0.000424261
-0.212697
-0.165484
-0.125112
-0.0855213
-0.0511502
-0.0244234
-0.00429773
0.0103197
0.0207064
0.0280803
0.0330244
0.0357454
0.036225
0.0350183
0.0311938
0.0297117
0.0270824
0.0244
0.0219095
0.0196671
0.0176785
0.0159315
0.0144056
0.0130791
0.0119312
0.0109415
0.0100906
0.00936071
0.00873526
0.00819907
0.00773836
0.00734084
0.00699468
0.0066895
0.00641547
0.00616317
0.00592528
0.00569546
0.00546602
0.00522961
0.00497655
0.00470258
0.00439137
0.00404682
0.00363945
0.00317836
0.00264122
0.00200085
0.00129035
0.000426453
-0.217453
-0.177646
-0.144065
-0.109258
-0.0761162
-0.0483105
-0.0257081
-0.00807394
0.00518622
0.015181
0.0226703
0.027754
0.0304236
0.0311163
0.0314241
0.0279184
0.0254721
0.0232163
0.0210773
0.0190937
0.0172855
0.0156607
0.0142166
0.0129448
0.0118338
0.0108693
0.010036
0.00931849
0.00870225
0.00817317
0.00771825
0.0073257
0.00698431
0.00668401
0.00641448
0.00616592
0.00593115
0.00570411
0.00547712
0.00524317
0.004992
0.00472041
0.00440994
0.00406794
0.00365943
0.00320048
0.00266107
0.00201889
0.00130611
0.000432336
-0.2182
-0.186106
-0.156882
-0.125888
-0.0954091
-0.0682376
-0.0444772
-0.0246852
-0.00909746
0.00295122
0.0122422
0.0191867
0.0239487
0.0265361
0.0273396
0.0267947
0.0244029
0.0224114
0.0204553
0.0186052
0.0169061
0.0153719
0.0140003
0.0127841
0.0117144
0.01078
0.00996853
0.00926699
0.00866253
0.00814247
0.00769477
0.00730808
0.00697196
0.00667689
0.00641226
0.00616813
0.00593727
0.00571361
0.00548958
0.00525843
0.00500963
0.0047405
0.00443145
0.00409161
0.00368286
0.00322567
0.00268353
0.00204145
0.00132306
0.000443024
-0.216416
-0.195779
-0.171006
-0.142889
-0.115501
-0.0905795
-0.0673434
-0.0464249
-0.0286528
-0.0139197
-0.0017975
0.00789769
0.0150625
0.0194819
0.0215009
0.0213542
0.0211823
0.0203559
0.0191249
0.0177421
0.0163365
0.014988
0.0137355
0.0125974
0.0115804
0.0106821
0.00989572
0.00921184
0.00862001
0.00810935
0.00766913
0.00728842
0.00695764
0.00666774
0.00640802
0.00616864
0.00594222
0.00572252
0.00550195
0.00527403
0.005028
0.00476155
0.00445438
0.00411657
0.00370826
0.00325264
0.00270735
0.00206742
0.00133993
0.000459257
-0.196557
-0.188761
-0.166312
-0.139063
-0.11309
-0.089831
-0.0686636
-0.0495064
-0.0330176
-0.0192522
-0.00762732
0.00219688
0.0101168
0.0158502
0.0191145
0.0199055
0.0201024
0.0190903
0.0180148
0.0168164
0.0155935
0.0144108
0.0132951
0.0122638
0.0113275
0.0104899
0.00974885
0.00909927
0.00853347
0.00804292
0.00761852
0.0072503
0.00693002
0.00664925
0.00639758
0.00616551
0.00594567
0.00573172
0.00551627
0.00529263
0.00505094
0.0047869
0.00448417
0.00414555
0.0037419
0.00328342
0.00273685
0.0020981
0.0013575
0.000479818
-0.176795
-0.173185
-0.153966
-0.12922
-0.105846
-0.0855156
-0.067477
-0.0510421
-0.0362917
-0.0232563
-0.0119386
-0.00237904
0.00532962
0.0109394
0.0143467
0.0159868
0.0165166
0.0165303
0.0160137
0.015245
0.0143597
0.0134405
0.0125328
0.0116663
0.0108606
0.0101261
0.00946597
0.00887975
0.00836344
0.0079117
0.00751769
0.00717354
0.00687282
0.00660794
0.00636909
0.00614749
0.00593627
0.00572937
0.00551983
0.00530096
0.00506362
0.00480228
0.0045035
0.0041646
0.00376574
0.0033036
0.00275954
0.00211865
0.00136988
0.000492947
-0.158941
-0.157085
-0.142152
-0.121409
-0.101158
-0.0832993
-0.0673627
-0.0526731
-0.0392737
-0.0271807
-0.0164169
-0.00714427
0.000570619
0.00653813
0.0105023
0.0127138
0.0138144
0.0141608
0.0140419
0.0136157
0.0130245
0.0123554
0.0116566
0.0109623
0.0102975
0.00967737
0.00910982
0.00859806
0.00814162
0.00773787
0.00738223
0.00706926
0.00679358
0.00654807
0.00632427
0.00611477
0.00591341
0.00571449
0.00551146
0.00529772
0.00506482
0.00480629
0.00451112
0.00417244
0.00377759
0.00331292
0.00277137
0.00212892
0.00137331
0.000497262
-0.140975
-0.1409
-0.12991
-0.112893
-0.0953697
-0.0795672
-0.0655038
-0.052625
-0.0407874
-0.0298168
-0.0197359
-0.0108942
-0.00341854
0.00256174
0.00677556
0.00935745
0.0108619
0.0116815
0.0119774
0.0119095
0.0116243
0.0112136
0.01073
0.0102134
0.00969463
0.00919403
0.00872383
0.008291
0.00789858
0.00754638
0.00723246
0.00695348
0.00670425
0.00647879
0.00627111
0.00607521
0.00588518
0.00569539
0.00549974
0.00529172
0.00506371
0.00480825
0.00451679
0.00417846
0.00378709
0.00332048
0.00277982
0.00213687
0.00137293
0.000499058
-0.12396
-0.125601
-0.1177
-0.103946
-0.0891068
-0.0754533
-0.0632241
-0.051999
-0.0416214
-0.0318314
-0.0225753
-0.0142724
-0.0071046
-0.00116786
0.00322729
0.00614269
0.00803714
0.00924064
0.00990418
0.0101662
0.0101722
0.0100151
0.00974788
0.00941309
0.00904585
0.0086707
0.00830365
0.00795523
0.00763161
0.00733528
0.00706687
0.0068243
0.0066033
0.00640043
0.00621204
0.00603252
0.00585582
0.00567662
0.0054895
0.00528812
0.00506573
0.00481397
0.00452658
0.00418902
0.00380094
0.00333272
0.00279207
0.00214844
0.0013763
0.000504163
-0.10882
-0.111311
-0.105737
-0.0948139
-0.0824723
-0.0708434
-0.0603348
-0.0506624
-0.0416452
-0.0329785
-0.0245811
-0.0169069
-0.0101612
-0.00438866
6.91256e-05
0.00315917
0.00530646
0.00683377
0.00782838
0.00839494
0.00867597
0.00876464
0.00871162
0.00855997
0.00834779
0.00810285
0.00784431
0.00758568
0.00733597
0.00710036
0.00688132
0.00667831
0.00648951
0.00631374
0.00614808
0.00598705
0.00582515
0.00565782
0.00548035
0.00528662
0.00507067
0.00482336
0.00454047
0.00420438
0.00381946
0.00335033
0.00280912
0.00216477
0.00138538
0.000511207
-0.0949875
-0.0978375
-0.0941144
-0.0856213
-0.0755468
-0.0658311
-0.0569371
-0.0486709
-0.0408943
-0.0333265
-0.0258622
-0.018922
-0.0126961
-0.00719536
-0.00278358
0.000403793
0.00274218
0.00452394
0.00579703
0.00663196
0.00716324
0.00748241
0.00763569
0.00766415
0.00760722
0.00749486
0.00734844
0.0071838
0.00701241
0.00684165
0.00667571
0.00651646
0.00636441
0.00621908
0.00607793
0.00593663
0.00579091
0.00563682
0.0054702
0.00528512
0.00507638
0.00483423
0.00455622
0.00422221
0.0038403
0.00337093
0.00282851
0.00218393
0.00139669
0.000516783
-0.0820845
-0.085317
-0.0830733
-0.0766095
-0.0685194
-0.060523
-0.0531038
-0.0461421
-0.0395333
-0.0330072
-0.0264596
-0.0202942
-0.0146595
-0.00951395
-0.00523844
-0.00205038
0.00038694
0.00234988
0.00384722
0.00491043
0.00566202
0.00619086
0.00653751
0.00673895
0.00683419
0.0068541
0.00682136
0.0067534
0.00666354
0.00656102
0.00645199
0.00634047
0.00622819
0.00611516
0.00600011
0.0058804
0.00575273
0.00561348
0.00545895
0.00528351
0.00508274
0.00484642
0.00457362
0.00424218
0.00386312
0.00339388
0.00284975
0.00220477
0.00140852
0.000521356
-0.0705017
-0.0739359
-0.0727619
-0.0679228
-0.0615209
-0.0550536
-0.0489741
-0.0431902
-0.0376343
-0.0320715
-0.0264162
-0.0210519
-0.0160666
-0.0113508
-0.00729041
-0.00418253
-0.00172051
0.000353179
0.0020175
0.00326477
0.00420212
0.00491473
0.00543693
0.00579991
0.00604054
0.00618942
0.00626949
0.00629904
0.00629259
0.00626094
0.00621189
0.00615074
0.00608029
0.0060017
0.00591521
0.00581939
0.00571162
0.0055887
0.0054475
0.00528274
0.00509075
0.00486097
0.00459376
0.0042654
0.00388908
0.00342023
0.00287404
0.00222788
0.00142229
0.000526672
-0.0603518
-0.0636361
-0.0631903
-0.0596595
-0.0546891
-0.0495461
-0.044638
-0.0399001
-0.0353018
-0.0306329
-0.0258252
-0.0212501
-0.0169387
-0.0127048
-0.00892416
-0.00596809
-0.00354367
-0.00142665
0.000345576
0.00172949
0.00281454
0.0036808
0.00435612
0.00486489
0.00524035
0.00551164
0.00570105
0.00582683
0.00590409
0.00594464
0.0059573
0.00594834
0.00592182
0.00588017
0.0058246
0.00575456
0.00566827
0.00556308
0.00543645
0.00528345
0.00510108
0.00487858
0.00461739
0.00429262
0.00391902
0.00345079
0.00290219
0.00225415
0.00143913
0.000533064
-0.0512582
-0.0543256
-0.0544139
-0.05192
-0.0481223
-0.0440985
-0.04021
-0.0363984
-0.0326563
-0.0287951
-0.0247712
-0.0209548
-0.0173135
-0.0135839
-0.0101254
-0.00733692
-0.00504757
-0.00295602
-0.00113521
0.000336646
0.00152941
0.00251634
0.00331874
0.00395376
0.00444994
0.00483392
0.0051264
0.00534484
0.0055042
0.00561664
0.00569156
0.00573606
0.00575524
0.0057524
0.00572945
0.00568675
0.00562336
0.00553726
0.00542641
0.00528619
0.00511427
0.00489979
0.00464507
0.00432436
0.00395351
0.00348604
0.00293471
0.00228416
0.00145914
0.000540432
-0.0431231
-0.0460043
-0.0464543
-0.0447453
-0.0418993
-0.0388238
-0.035808
-0.0327883
-0.0297896
-0.0266533
-0.0233529
-0.0202444
-0.0172448
-0.0140287
-0.0109317
-0.00838866
-0.00623977
-0.00421761
-0.00239898
-0.000885523
0.000374855
0.00144806
0.00234903
0.00308777
0.00368746
0.00417138
0.00455793
0.00486301
0.00510076
0.00528311
0.00541962
0.00551786
0.00558351
0.00562051
0.00563141
0.00561734
0.00557813
0.0055123
0.00541829
0.00529183
0.00513114
0.00492535
0.00467754
0.00436129
0.00399328
0.00352656
0.00297225
0.00231842
0.00148246
0.000549001
-0.0360068
-0.038635
-0.0392922
-0.0381778
-0.0360977
-0.0337977
-0.0315013
-0.029151
-0.0267983
-0.0243031
-0.021652
-0.0191941
-0.0167985
-0.0140783
-0.0113511
-0.00907615
-0.00710975
-0.00519806
-0.00342602
-0.00191374
-0.000624342
0.000500794
0.00147069
0.00228858
0.00297207
0.00354058
0.00400961
0.00439292
0.00470326
0.00495176
0.00514768
0.0052986
0.00541043
0.00548755
0.00553299
0.00554841
0.0055343
0.00548966
0.00541338
0.00530148
0.00515272
0.00495623
0.00471574
0.00440428
0.00403919
0.00357314
0.00301554
0.00235755
0.00150948
0.000559075
-0.0297962
-0.0321166
-0.0328748
-0.0322036
-0.0307273
-0.029057
-0.0273572
-0.0255723
-0.0237719
-0.0218305
-0.0197536
-0.0178805
-0.0160325
-0.0137779
-0.011418
-0.00942311
-0.0076634
-0.00589344
-0.00420477
-0.00273112
-0.0014481
-0.000303775
0.000705555
0.00157712
0.00232313
0.00295888
0.00349663
0.00394762
0.00432269
0.00463171
0.00488321
0.00508435
0.00524097
0.00535758
0.00543747
0.00548266
0.0054941
0.00547122
0.00541328
0.00531657
0.0051803
0.00499357
0.00476078
0.00445434
0.00409224
0.00362667
0.0030654
0.00240235
0.00154069
0.000570891
-0.0242915
-0.0263353
-0.0271473
-0.0268132
-0.0258174
-0.024657
-0.0234414
-0.0221197
-0.020782
-0.019313
-0.0177315
-0.0163702
-0.0150109
-0.0131841
-0.0111757
-0.00946017
-0.00791802
-0.00631011
-0.00473234
-0.00332796
-0.00208203
-0.000948283
7.25572e-05
0.000972633
0.00175927
0.00244368
0.00303481
0.0035411
0.00397121
0.00433338
0.00463498
0.00488244
0.0050812
0.0052356
0.00534898
0.0054235
0.00546039
0.00545937
0.00542004
0.00533885
0.00521542
0.00503877
0.00481392
0.0045126
0.00415354
0.00368818
0.00312272
0.00245365
0.00157657
0.000584673
-0.0194636
-0.0212643
-0.0220899
-0.0220004
-0.021374
-0.0206133
-0.0197815
-0.0188363
-0.0178822
-0.0168091
-0.0156494
-0.0147309
-0.013798
-0.0123515
-0.010675
-0.00922719
-0.00790004
-0.00646198
-0.00501355
-0.00370188
-0.00251817
-0.0014206
-0.00041337
0.000491606
0.00129744
0.00201164
0.00263989
0.00318783
0.00366179
0.00406814
0.00441285
0.0047013
0.00493824
0.00512761
0.00527251
0.00537508
0.00543663
0.00545705
0.00543615
0.00537046
0.00525994
0.00509345
0.00487666
0.00458041
0.00422434
0.00375878
0.0031885
0.00251239
0.00161771
0.000600666
-0.0152678
-0.0168279
-0.0176276
-0.0177109
-0.0173698
-0.0169248
-0.0163977
-0.0157556
-0.015115
-0.014369
-0.0135619
-0.0130133
-0.012444
-0.0113408
-0.00998494
-0.0087572
-0.00763208
-0.00636825
-0.00506079
-0.00385795
-0.00275526
-0.00171436
-0.000741997
0.000146916
0.000952083
0.00167778
0.00232678
0.00290208
0.00340768
0.00384803
0.0042275
0.00455027
0.00482016
0.00504047
0.00521389
0.00534231
0.00542697
0.00546773
0.00546454
0.00541389
0.00531603
0.00515949
0.00495068
0.00465925
0.00430601
0.00383973
0.0032638
0.00257957
0.00166471
0.000619112
-0.0115899
-0.0129372
-0.0137003
-0.0139098
-0.0137891
-0.0135907
-0.0133019
-0.0129001
-0.0125104
-0.0120278
-0.0115106
-0.0112688
-0.0109889
-0.0101365
-0.0089692
-0.00803503
-0.00713419
-0.00605178
-0.00489244
-0.00380821
-0.00279884
-0.00182931
-0.00090831
-5.28081e-05
0.000734332
0.00145478
0.00210886
0.00269725
0.00322183
0.00368515
0.00409001
0.00443927
0.00473569
0.00498178
0.00517964
0.00533074
0.0054361
0.00549541
0.0055086
0.00547201
0.00538614
0.00523901
0.00503784
0.00475075
0.00440003
0.00393235
0.00334974
0.00265625
0.00171824
0.000640297
-0.00837507
-0.00954099
-0.0102609
-0.0105574
-0.0106029
-0.0105943
-0.01049
-0.0102786
-0.0100904
-0.00982031
-0.00954217
-0.00955659
-0.0095237
-0.0089104
-0.00798964
-0.00722533
-0.00649038
-0.00556206
-0.0045402
-0.00357305
-0.00266101
-0.00177094
-0.000912401
-0.000103361
0.000651646
0.00135239
0.00199731
0.00258522
0.0031162
0.00359114
0.00401134
0.00437836
0.00469389
0.00495954
0.00517673
0.00534639
0.00546915
0.0055444
0.00557196
0.00554786
0.00547283
0.00533412
0.00513998
0.00485645
0.00450779
0.00403779
0.00344727
0.00274327
0.00177876
0.000664103
-0.00556979
-0.00657964
-0.00725331
-0.00760806
-0.00777766
-0.00791384
-0.00795156
-0.00789022
-0.00786111
-0.00776012
-0.00767772
-0.00790217
-0.00806806
-0.00764568
-0.006912
-0.00631129
-0.00572159
-0.00492835
-0.00403123
-0.00317415
-0.00235725
-0.0015488
-0.000758522
-4.48121e-06
0.000707935
0.00137729
0.00200077
0.00257587
0.00310129
0.00357658
0.00400178
0.00437731
0.00470382
0.00498204
0.00521264
0.00539594
0.00553209
0.00562005
0.00565942
0.00564577
0.00558003
0.00544844
0.00526041
0.00497944
0.00463212
0.00415877
0.0035586
0.00284296
0.0018479
0.000692429
-0.00310968
-0.00399158
-0.00462516
-0.00502268
-0.0052882
-0.00553428
-0.00567756
-0.00573018
-0.00582196
-0.00585101
-0.0059265
-0.00632108
-0.00664445
-0.00637594
-0.00579542
-0.00533109
-0.00486126
-0.00418224
-0.00339415
-0.00263571
-0.0019065
-0.0011763
-0.00045477
0.000240578
0.000904107
0.00153373
0.00212593
0.00267737
0.00318586
0.00365002
0.00406894
0.00444216
0.00476954
0.00505107
0.00528678
0.00547643
0.00561972
0.00571517
0.00576213
0.00575561
0.00569672
0.00557042
0.00538752
0.00510824
0.00476221
0.0042848
0.00367409
0.00294584
0.00191829
0.000713215
-0.000938181
-0.00170893
-0.00230311
-0.00273163
-0.00307749
-0.00341816
-0.00365192
-0.00380264
-0.00399782
-0.00413562
-0.00433886
-0.00486074
-0.00529434
-0.00513795
-0.00467379
-0.00431662
-0.00393808
-0.00335045
-0.0026539
-0.00198024
-0.00132791
-0.000668141
-1.00111e-05
0.000630127
0.00124695
0.00183817
0.00239994
0.00292841
0.00342068
0.00387446
0.00428791
0.0046596
0.00498841
0.00527339
0.00551372
0.00570838
0.0058564
0.00595566
0.00600519
0.00599929
0.00593959
0.00580928
0.00562245
0.00533324
0.00498102
0.00448616
0.00385912
0.00310229
0.00203936
0.000794444
0.000961692
0.000286188
-0.000258976
-0.000685786
-0.00106805
-0.00146106
-0.00175483
-0.00198116
-0.00226046
-0.00250358
-0.00285219
-0.00351916
-0.00404632
-0.00396207
-0.00361805
-0.00335606
-0.00306163
-0.00255035
-0.00193363
-0.00134045
-0.000768624
-0.000190979
0.000384534
0.000943785
0.00148287
0.00200049
0.00249367
0.00295931
0.00339497
0.00379867
0.00416871
0.00450361
0.00480214
0.00506313
0.00528549
0.00546785
0.00560892
0.00570624
0.00575841
0.00575947
0.00571048
0.00559469
0.00542457
0.00515739
0.00482247
0.00436154
0.00373313
0.00301372
0.00187998
0.000646948
0.00262995
0.00199974
0.00145956
0.00100652
0.000583324
0.000162421
-0.000147267
-0.000403979
-0.000717749
-0.000988538
-0.00137279
-0.00207744
-0.00268127
-0.0027095
-0.00230998
-0.0020012
-0.00165242
-0.00113405
-0.000537126
3.05784e-05
0.000576379
0.00112683
0.00167507
0.00220859
0.00272406
0.00322021
0.00369422
0.00414304
0.00456424
0.00495571
0.00531554
0.00564199
0.00593346
0.00618839
0.00640519
0.00658203
0.00671695
0.00680701
0.00685008
0.00683938
0.0067761
0.00663952
0.00644987
0.0061433
0.00579022
0.00525782
0.00462015
0.00381192
0.00262758
0.00110858
0.00425406
0.0036689
0.00311833
0.00260879
0.00209219
0.00157193
0.00117185
0.000812487
0.000368209
-8.4853e-05
-0.00069333
-0.0015762
-0.00224102
-0.00239199
-0.00205241
-0.00181324
-0.00154199
-0.0010796
-0.000540066
-3.23491e-05
0.000449368
0.000928136
0.00139789
0.00184881
0.00227955
0.00269058
0.00308085
0.00344902
0.00379405
0.00411497
0.00441074
0.00468024
0.00492222
0.00513532
0.00531786
0.00546802
0.00558331
0.00566111
0.00569773
0.0056886
0.00562979
0.00550938
0.0053305
0.00505782
0.00470834
0.00423185
0.00356399
0.00283214
0.00170365
0.000527502
0.00579055
0.005334
0.00489732
0.00447072
0.00401805
0.003566
0.00321321
0.00287961
0.00250636
0.0021751
0.00169308
0.000941469
0.000428831
0.000684548
0.00079356
0.000941093
0.00119822
0.00163179
0.00213384
0.00260895
0.00306156
0.00350951
0.00394608
0.00436268
0.00475844
0.00513404
0.00548891
0.00582229
0.00613365
0.00642243
0.00668788
0.00692911
0.0071449
0.00733395
0.00749418
0.00762402
0.00771945
0.00777963
0.00779597
0.00777055
0.00768721
0.00754836
0.00734295
0.00703485
0.00668625
0.00612054
0.00549207
0.00458669
0.00314578
0.00138363
0.0065512
0.00599197
0.00544637
0.00490971
0.00434281
0.00379713
0.00336566
0.00290642
0.00229743
0.00161192
0.000775319
-0.000145621
-0.000680662
-0.00077353
-0.00042815
-0.000120291
0.000260577
0.000775924
0.00131074
0.00178702
0.00221682
0.00261972
0.00299415
0.00333749
0.00365311
0.0039449
0.00421517
0.00446558
0.00469747
0.00491172
0.00510861
0.00528799
0.005449
0.00559066
0.0057105
0.00580758
0.00587596
0.00591792
0.00591759
0.00589049
0.00579443
0.00567679
0.00544797
0.00518754
0.00478401
0.00427599
0.00363006
0.00283162
0.00181736
0.000638968
0.00869668
0.00831294
0.00789815
0.00744867
0.00697776
0.00655127
0.00618423
0.00575543
0.00525089
0.00469728
0.00391427
0.00294879
0.00232897
0.00248306
0.00284353
0.00324434
0.00369682
0.00421891
0.00472508
0.00516268
0.00554504
0.00588943
0.00619795
0.00647224
0.00671771
0.00693962
0.00714164
0.00732655
0.00749651
0.00765296
0.00779648
0.00792724
0.00804396
0.00814647
0.00822997
0.00829764
0.00833338
0.00835876
0.00831771
0.00829987
0.00812964
0.0080776
0.00771828
0.00759097
0.00707266
0.00657444
0.00600724
0.00471108
0.00353042
0.00155645
0.00895154
0.008526
0.00807684
0.0075997
0.00707534
0.00653776
0.00597864
0.00523414
0.00427953
0.00328304
0.00234676
0.00167305
0.00152447
0.00187881
0.00242937
0.00294076
0.00344935
0.00395648
0.00439674
0.00474517
0.00502577
0.00526049
0.00545741
0.00562302
0.00576527
0.00589069
0.00600377
0.00610765
0.00620448
0.00629554
0.00638109
0.00646103
0.00653341
0.00659804
0.00664861
0.00669004
0.00670095
0.00671233
0.00664815
0.00663597
0.00642885
0.00642738
0.0059766
0.00599363
0.00524053
0.00500771
0.0042118
0.00319203
0.00264689
0.000974393
0.0111612
0.0108939
0.0106651
0.0103833
0.0100401
0.00975922
0.00952347
0.00913677
0.00844631
0.00740018
0.00614363
0.00513161
0.00481222
0.00502185
0.00548793
0.00598584
0.00644773
0.00683869
0.00712792
0.00732059
0.0074458
0.00752821
0.00758243
0.00761904
0.0076467
0.00767149
0.00769709
0.00772558
0.00775777
0.00779372
0.00783206
0.00787222
0.00790958
0.00794697
0.00796806
0.00799706
0.00796757
0.00800167
0.00783583
0.00795777
0.00746172
0.00789079
0.006785
0.00769211
0.00606367
0.00663169
0.00568287
0.00411654
0.00417325
0.00154545
-0.121117
-0.13344
-0.144684
-0.154698
-0.164716
-0.172781
-0.180919
-0.184794
-0.190396
-0.191301
-0.109146
-0.119185
-0.128469
-0.13652
-0.144873
-0.150683
-0.156219
-0.15847
-0.162234
-0.167013
-0.0974381
-0.105525
-0.112992
-0.119391
-0.125883
-0.130353
-0.135015
-0.139268
-0.143985
-0.150772
-0.0867297
-0.0932365
-0.0991349
-0.104367
-0.109505
-0.114151
-0.119194
-0.124452
-0.128381
-0.133891
-0.076665
-0.081997
-0.0867272
-0.0913186
-0.0958115
-0.100631
-0.104865
-0.108887
-0.111546
-0.116408
-0.0675257
-0.0719455
-0.075805
-0.0798303
-0.0836336
-0.0876183
-0.0904492
-0.0933988
-0.0963535
-0.101549
-0.0590864
-0.0627625
-0.0659187
-0.069221
-0.0721763
-0.0752061
-0.0775795
-0.0807674
-0.0842247
-0.0888943
-0.051327
-0.0543727
-0.0569398
-0.0595717
-0.0619931
-0.06467
-0.0672305
-0.070328
-0.0731518
-0.076643
-0.0442049
-0.0467551
-0.0489025
-0.0511002
-0.0532897
-0.0557579
-0.0580076
-0.0602291
-0.0622373
-0.0653511
-0.0377362
-0.0398924
-0.0417347
-0.043599
-0.0454724
-0.0474213
-0.0490779
-0.0507956
-0.0527791
-0.055817
-0.0318742
-0.0336948
-0.0352524
-0.0367697
-0.0382694
-0.0398026
-0.041255
-0.0429583
-0.0449002
-0.0474391
-0.0265627
-0.0280868
-0.0293909
-0.0306436
-0.0319199
-0.0332785
-0.0346596
-0.0361749
-0.0377157
-0.0397747
-0.021772
-0.0230575
-0.024174
-0.0252541
-0.0263742
-0.0275432
-0.0287016
-0.0299142
-0.0312
-0.0330496
-0.0174704
-0.0185663
-0.0195293
-0.0204521
-0.0213921
-0.0223506
-0.0233363
-0.0244244
-0.0256246
-0.0272716
-0.0136075
-0.014544
-0.0153723
-0.0161589
-0.0169589
-0.0177945
-0.0187075
-0.0197137
-0.0207648
-0.0221502
-0.0101406
-0.0109511
-0.0116774
-0.0123671
-0.0130693
-0.0138095
-0.0146325
-0.0155169
-0.0164191
-0.0176168
-0.00703803
-0.00775161
-0.00839784
-0.00900692
-0.00961819
-0.0102651
-0.0110087
-0.0118142
-0.0126306
-0.0136873
-0.00426237
-0.00489729
-0.00547881
-0.00602435
-0.00656551
-0.00714627
-0.00783876
-0.00858807
-0.00932437
-0.0102436
-0.00178178
-0.00235569
-0.00288937
-0.00338858
-0.00387547
-0.00440175
-0.00504722
-0.00574256
-0.00640892
-0.00721847
0.000429644
-9.64234e-05
-0.000592188
-0.00105331
-0.00149335
-0.00197267
-0.00257914
-0.00323306
-0.00384745
-0.0045706
0.00240406
0.00191695
0.0014508
0.00101852
0.000614897
0.000172769
-0.000400539
-0.00101731
-0.00158688
-0.00223887
0.00416824
0.00371507
0.00327417
0.00286452
0.00248872
0.00207625
0.00153254
0.000949299
0.000417138
-0.000176085
0.00573584
0.00531426
0.00489758
0.00450888
0.0041584
0.00377232
0.00325461
0.00269853
0.00219201
0.00163936
0.00714077
0.00673719
0.00633567
0.00596188
0.00563474
0.00527728
0.00479
0.00426395
0.00378076
0.00325629
0.0084546
0.00806584
0.00767334
0.00730825
0.00699616
0.00665811
0.00620277
0.00572171
0.00528388
0.00481209
0.00958921
0.00924917
0.00888695
0.00854746
0.00825983
0.00794605
0.00752089
0.00707159
0.00666544
0.00624693
0.010527
0.0101861
0.00984831
0.00953085
0.00926276
0.0089596
0.00853587
0.00806976
0.00760761
0.00710294
0.0118786
0.0115821
0.0112473
0.0109327
0.010672
0.0103956
0.0100518
0.0097066
0.00938633
0.00905319
0.0121391
0.011859
0.01158
0.0113291
0.0111141
0.0108636
0.0105314
0.0101614
0.00977852
0.00937078
0.0132285
0.0130117
0.0128059
0.0125947
0.0124243
0.0122833
0.0120966
0.0118863
0.0116907
0.0114527
0.0638872
0.0680272
0.0713319
0.0739826
0.0757742
0.0767447
0.0770357
0.0766154
0.0752466