/*--------------------------------*- C++ -*----------------------------------*\
| =========                 |                                                 |
| \\      /  F ield         | OpenFOAM: The Open Source CFD Toolbox           |
|  \\    /   O peration     | Version:  2512                                  |
|   \\  /    A nd           | Website:  www.openfoam.com                      |
|    \\/     M anipulation  |                                                 |
\*---------------------------------------------------------------------------*/
FoamFile
{
    version     2.0;
    format      ascii;
    arch        "LSB;label=32;scalar=64";
    class       surfaceScalarField;
    location    "6";
    object      phi;
}
// * * * * * * * * * * * * * * * * * * * * * * * * * * * * * * * * * * * * * //

dimensions      [0 3 -1 0 0 0 0];

oriented        oriented;

internalField   nonuniform List<scalar> 
18180
(
-0.000455649
0.00232141
-0.00186576
0.000113806
0.00318902
-0.00375848
0.00304932
0.000565929
-0.00350145
0.00954923
-0.00614818
-0.00035173
0.0206597
-0.0174071
0.00629658
0.0364927
-0.0327085
0.0168755
0.0559103
-0.0504172
0.0309996
0.0767201
-0.0683781
0.0475683
0.096389
-0.0846621
0.0649932
0.112822
-0.0980329
0.0815998
0.124948
-0.10812
0.0959933
0.132946
-0.115341
0.107343
0.137983
-0.120605
0.115568
0.141509
-0.124823
0.121297
0.144587
-0.128565
0.125487
0.147566
-0.132035
0.129057
0.150608
-0.135171
0.132129
0.153544
-0.138309
0.135373
0.156054
-0.140374
0.137864
-0.143384
0.141392
0.158046
-7.66292e-05
0.00239804
0.00144157
0.00167082
0.00618162
-0.00417412
0.0155422
-0.0155087
0.0299427
-0.0318076
0.0481184
-0.0508842
0.0675272
-0.069826
0.085453
-0.0863039
0.0999808
-0.0991899
0.110473
-0.108525
0.117483
-0.11513
0.122212
-0.12007
0.12579
-0.124183
0.128873
-0.127907
0.131714
-0.131406
0.134432
-0.134753
0.137287
-0.138027
0.140245
-0.141267
0.14415
-0.144279
-0.148256
0.149022
0.000427989
0.00197005
0.00332661
-0.0012278
0.0104243
-0.0112718
0.022707
-0.0277914
0.0391689
-0.0482696
0.0570566
-0.0687719
0.0734402
-0.0862097
0.0864837
-0.0993473
0.0958129
-0.108519
0.102149
-0.114862
0.1066
-0.119581
0.110056
-0.123526
0.113011
-0.127138
0.115715
-0.130611
0.118345
-0.134036
0.121071
-0.137479
0.123949
-0.140906
0.127037
-0.144354
0.130382
-0.147624
-0.151217
0.133342
0.000943764
0.00102629
0.00540673
-0.00569077
0.0149644
-0.0208295
0.0293533
-0.0421803
0.0458289
-0.0647451
0.061124
-0.0840671
0.0732558
-0.0983414
0.081892
-0.107983
0.0877704
-0.114398
0.091902
-0.118993
0.0950667
-0.122745
0.097727
-0.126186
0.100148
-0.129559
0.102488
-0.132951
0.104841
-0.136388
0.107229
-0.139867
0.109727
-0.143403
0.112366
-0.146994
0.115312
-0.15057
-0.154637
0.118733
0.00151031
-0.000484025
0.0076382
-0.0118187
0.0192472
-0.0324385
0.0341783
-0.0571114
0.0487294
-0.0792962
0.0604311
-0.0957687
0.0687252
-0.106636
0.0742664
-0.113525
0.0780312
-0.118162
0.0808088
-0.121771
0.0830956
-0.125032
0.0851658
-0.128256
0.0871485
-0.131542
0.0890983
-0.134901
0.0910414
-0.138332
0.0930319
-0.141858
0.0951143
-0.145485
0.0973015
-0.149181
0.0996788
-0.152948
-0.156883
0.101925
0.00214843
-0.00263246
0.0098725
-0.0195427
0.0225423
-0.0451083
0.0363607
-0.0709298
0.0479971
-0.0909326
0.0563092
-0.104081
0.0617283
-0.112055
0.0652186
-0.117015
0.0676371
-0.120581
0.0695354
-0.123669
0.0711966
-0.126693
0.0727383
-0.129798
0.0742092
-0.133013
0.0756422
-0.136334
0.077075
-0.139764
0.0785343
-0.143317
0.0800429
-0.146994
0.0816539
-0.150792
0.0834017
-0.154695
-0.158769
0.0852877
0.00282993
-0.00546239
0.0117669
-0.0284797
0.0242355
-0.0575769
0.0359083
-0.0826025
0.0445671
-0.0995915
0.0501411
-0.109655
0.0535102
-0.115424
0.055617
-0.119122
0.0571033
-0.122067
0.0582999
-0.124866
0.0593468
-0.12774
0.0603061
-0.130757
0.0612156
-0.133922
0.0621024
-0.13722
0.062982
-0.140644
0.0638691
-0.144204
0.0647934
-0.147918
0.0657765
-0.151775
0.066838
-0.155757
-0.159831
0.0679001
0.00347806
-0.00894045
0.0129616
-0.0379633
0.0241988
-0.0688141
0.0333834
-0.0917871
0.0394248
-0.105633
0.0428989
-0.113129
0.0448003
-0.117325
0.0459028
-0.120224
0.0466334
-0.122798
0.0471792
-0.125411
0.0476153
-0.128176
0.0479761
-0.131118
0.0482833
-0.13423
0.0485546
-0.137492
0.0488056
-0.140895
0.0490513
-0.14445
0.049307
-0.148174
0.0496102
-0.152078
0.0499913
-0.156138
-0.160307
0.0504678
0.00399621
-0.0129367
0.0132683
-0.0472354
0.0226995
-0.0782453
0.0294645
-0.0985521
0.033343
-0.109511
0.035222
-0.115008
0.036018
-0.118121
0.0363038
-0.12051
0.0363473
-0.122841
0.0362507
-0.125315
0.0360514
-0.127977
0.035771
-0.130838
0.035432
-0.133891
0.0350557
-0.137115
0.034654
-0.140493
0.034231
-0.144027
0.0337948
-0.147738
0.033356
-0.151639
0.0329358
-0.155718
-0.159924
0.0325519
0.00429446
-0.0172311
0.0126956
-0.0556365
0.0201411
-0.0856908
0.0247448
-0.103156
0.0268747
-0.111641
0.0275038
-0.115637
0.027391
-0.118008
0.0269385
-0.120057
0.0263061
-0.122209
0.0255477
-0.124556
0.0246844
-0.127114
0.0237319
-0.129885
0.0227078
-0.132867
0.0216316
-0.136039
0.020517
-0.139379
0.0193715
-0.142881
0.0181918
-0.146558
0.0169823
-0.15043
0.0157617
-0.154497
0.0146543
-0.158816
-0.00412628
0.011112
-0.0069857
-0.0119332
0.0188838
-0.0110769
-0.021187
0.020793
-0.0115392
-0.0310108
0.0206075
-0.0107838
-0.0411135
0.0195828
-0.00947998
-0.0513082
0.0178915
-0.00769684
-0.0613713
0.0154862
-0.00542308
-0.0710647
0.0123425
-0.00264911
-0.0801134
0.00847429
0.00057447
-0.0879183
0.00391144
0.00389339
-0.0941529
-0.0012637
0.0074983
-0.0986934
-0.00663545
0.011176
-0.100958
-0.0125624
0.0148269
-0.100346
-0.0189278
0.0183158
-0.0962211
-0.0256013
0.0214765
-0.0880213
-0.0322917
0.0240919
-0.0753458
-0.0386315
0.0259559
-0.0581194
-0.0440513
0.0268249
-0.0366886
-0.0479664
0.0265356
-0.0511662
-0.0111808
0.0256584
-0.00220551
0.0133175
-0.00745134
0.0241297
-0.01422
0.0275617
-0.021526
0.0279135
-0.0288946
0.0269513
-0.0360619
0.0250589
-0.0427896
0.0222139
-0.048828
0.0183809
-0.0539264
0.0135727
-0.0578481
0.00783317
-0.0602198
0.00110792
-0.0608839
-0.00597133
-0.0595648
-0.0138814
-0.0558229
-0.0226697
-0.0490655
-0.0323588
-0.0387781
-0.042579
-0.0245437
-0.052866
-0.00657076
-0.0620242
0.0147949
-0.069332
-0.0752905
0.0389192
6.96858e-05
0.0132478
-0.00185022
0.0260496
-0.00528565
0.0309971
-0.00927373
0.0319016
-0.0131345
0.0308121
-0.0164839
0.0284082
-0.0190603
0.0247903
-0.0206394
0.01996
-0.0210309
0.0139642
-0.0200979
0.0069002
-0.0178957
-0.0010943
-0.0140434
-0.00982365
-0.00850025
-0.0194246
-0.00106544
-0.0301045
0.00862382
-0.042048
0.0209351
-0.0548903
0.0362764
-0.0682073
0.0541549
-0.0799027
0.0742947
-0.0894718
-0.0961817
0.0951859
0.00198536
0.0112624
0.00353658
0.0244983
0.00382
0.0307137
0.00345593
0.0322657
0.00322442
0.0310436
0.00364424
0.0279884
0.00501494
0.0234196
0.00751193
0.017463
0.0112315
0.0102447
0.016132
0.00199966
0.0223376
-0.00729989
0.0298598
-0.0173459
0.0387618
-0.0283266
0.0492405
-0.0405832
0.0616839
-0.0544914
0.0761283
-0.0693347
0.0924271
-0.0845061
0.109588
-0.0970634
0.127202
-0.107086
-0.112301
0.143322
0.00304844
0.008214
0.00735109
0.0201957
0.0111176
0.0269472
0.0143043
0.029079
0.0174747
0.0278732
0.0211645
0.0242986
0.0256902
0.018894
0.0311742
0.0119789
0.0375599
0.00385903
0.0450223
-0.00546276
0.0534724
-0.01575
0.0630646
-0.0269381
0.0741577
-0.0394196
0.087111
-0.0535365
0.101976
-0.0693564
0.118168
-0.0855265
0.13456
-0.100898
0.149732
-0.112236
0.1632
-0.120553
-0.122921
0.17382
0.00305286
0.00516115
0.00861336
0.0146352
0.0146869
0.0208736
0.0206062
0.0231597
0.0264757
0.0220037
0.0326134
0.0181609
0.0392482
0.0122592
0.0464291
0.00479795
0.054357
-0.0040688
0.0631562
-0.014262
0.0730566
-0.0256505
0.0846926
-0.038574
0.0985486
-0.0532756
0.114597
-0.0695854
0.131833
-0.0865916
0.148629
-0.102322
0.163091
-0.115361
0.174262
-0.123406
0.182213
-0.128505
-0.128238
0.18753
0.00228917
0.00287198
0.00741892
0.00950546
0.0139239
0.0143686
0.0209034
0.0161802
0.0280415
0.0148657
0.0353491
0.0108533
0.0429397
0.00466854
0.0511389
-0.00340125
0.0603601
-0.01329
0.0710958
-0.0249977
0.0841197
-0.0386743
0.0998234
-0.0542777
0.117759
-0.0712112
0.136519
-0.0883451
0.153888
-0.103961
0.16797
-0.116405
0.177542
-0.124933
0.183258
-0.129123
0.186335
-0.131582
-0.130574
0.188671
0.00121784
0.00165414
0.00475678
0.00596652
0.00998987
0.00913555
0.0162239
0.00994612
0.023072
0.00801762
0.0305281
0.00339716
0.0390018
-0.00380514
0.0491512
-0.0135507
0.0617178
-0.0258566
0.077253
-0.0405329
0.0955984
-0.0570197
0.115632
-0.0743115
0.135397
-0.0909756
0.152611
-0.105559
0.165415
-0.116765
0.173356
-0.124346
0.177155
-0.128732
0.179048
-0.131016
0.180393
-0.132927
-0.132981
0.182801
0.000207214
0.00144692
0.00188304
0.00429069
0.0052185
0.00580009
0.0100711
0.00509355
0.0165327
0.001556
0.0250662
-0.00513631
0.0363991
-0.0151381
0.0511324
-0.0282839
0.0692161
-0.0439404
0.0897025
-0.0610192
0.110803
-0.0781206
0.130269
-0.0937766
0.146033
-0.10674
0.156867
-0.116393
0.162935
-0.122833
0.165727
-0.127138
0.167071
-0.130076
0.168895
-0.13284
0.171255
-0.135287
-0.136603
0.174876
-0.000418841
0.000113374
0.00241202
0.00715384
0.0150064
0.0267456
0.0426071
0.0618915
0.0829444
0.103525
0.121398
0.134964
0.143793
0.148697
0.151351
0.153269
0.155322
0.157856
0.160433
0.165222
0.0213363
-0.063245
0.0307279
0.0514082
-0.0558326
0.0257607
0.0784424
-0.0481104
0.0210762
0.102137
-0.0406947
0.0170004
0.122495
-0.0340784
0.0137205
0.139813
-0.0285179
0.0111996
0.154604
-0.0238845
0.00909376
0.167313
-0.0195428
0.00683297
0.178202
-0.0147938
0.00390563
0.187408
-0.00931914
0.000112451
0.194986
-0.00328221
-0.00429554
0.201179
0.00279949
-0.00899272
0.206146
0.00857836
-0.0135448
0.210101
0.0137013
-0.0176569
0.213234
0.0180818
-0.0212142
0.215713
0.0217562
-0.0242351
0.217686
0.0248384
-0.026812
0.219272
0.0274681
-0.0290542
0.220555
0.0297754
-0.0310582
0.221593
0.0318572
-0.032895
0.222427
0.0337776
-0.0346116
0.223088
0.0355801
-0.0362409
0.2236
0.0372969
-0.037809
0.223983
0.0389541
-0.0393377
0.224255
0.0405742
-0.0408459
0.224429
0.0421771
-0.0423509
0.224516
0.0437812
-0.0438684
0.224526
0.0454037
-0.0454135
0.224466
0.0470615
-0.0470016
0.224342
0.0487718
-0.0486484
0.224161
0.0505528
-0.0503712
0.223925
0.0524243
-0.0521889
0.22364
0.0544083
-0.0541225
0.223306
0.0565297
-0.0561964
0.222928
0.0588165
-0.0584381
0.222506
0.0613004
-0.0608791
0.222044
0.0640188
-0.0635558
0.22154
0.0670147
-0.0665114
0.220998
0.0703324
-0.0697898
0.220416
0.0740427
-0.0734612
0.219797
0.0781544
-0.0775353
0.219138
0.082913
-0.0822544
0.218446
0.0878921
-0.0871996
0.217707
0.0945398
-0.0938013
0.216945
0.0996885
-0.0989258
0.216124
0.110475
-0.109655
0.215281
0.113848
-0.113005
0.214391
0.131095
-0.130205
0.21345
0.133836
-0.132895
0.154702
-0.153708
0.062589
-0.0869148
0.0851846
-0.0784282
0.105736
-0.0686616
0.123691
-0.0586503
0.1389
-0.0492872
0.151811
-0.0414292
0.163069
-0.0351425
0.173239
-0.0297122
0.182531
-0.0240864
0.190823
-0.0176107
0.19791
-0.0103693
0.203595
-0.00288557
0.208121
0.00405219
0.211693
0.0101294
0.214501
0.0152746
0.216718
0.0195388
0.218492
0.0230645
0.219931
0.0260288
0.221109
0.0285972
0.222074
0.0308926
0.222857
0.0329949
0.223481
0.0349561
0.223965
0.0368124
0.224327
0.0385923
0.224581
0.0403201
0.22474
0.042018
0.224815
0.0437063
0.224815
0.045404
0.224747
0.0471296
0.224617
0.0489014
0.224431
0.0507388
0.224193
0.0526625
0.223906
0.0546949
0.223574
0.0568619
0.223199
0.0591919
0.222782
0.061717
0.222326
0.0644753
0.22183
0.0675102
0.221297
0.070866
0.220725
0.0746142
0.220117
0.078763
0.219468
0.0835613
0.218785
0.0885752
0.218054
0.0952707
0.217296
0.100447
0.216475
0.111296
0.215629
0.114695
0.21472
0.132003
0.213763
0.134793
0.15574
0.107052
-0.0987806
0.119666
-0.0910421
0.132005
-0.0810006
0.143622
-0.0702673
0.153978
-0.0596435
0.162767
-0.050218
0.170495
-0.0428713
0.177897
-0.0371133
0.185356
-0.0315454
0.192654
-0.0249091
0.199246
-0.0169611
0.204751
-0.00839075
0.208883
-7.93969e-05
0.21209
0.00692232
0.214533
0.0128311
0.216449
0.0176232
0.217996
0.0215168
0.219279
0.024746
0.220358
0.0275187
0.221265
0.0299857
0.222018
0.0322418
0.22263
0.0343438
0.223114
0.0363284
0.223483
0.0382237
0.223748
0.0400544
0.223923
0.0418435
0.224016
0.0436128
0.224038
0.0453827
0.223994
0.0471733
0.223892
0.0490038
0.223736
0.0508947
0.223531
0.0528674
0.22328
0.0549452
0.222988
0.0571547
0.222655
0.0595244
0.222285
0.0620875
0.221878
0.0648824
0.221435
0.0679531
0.220957
0.071344
0.220443
0.0751275
0.219895
0.0793112
0.219309
0.0841475
0.218689
0.0891951
0.218021
0.0959383
0.217326
0.101142
0.216565
0.112057
0.215777
0.115483
0.214914
0.132866
0.214008
0.135699
0.156753
0.143984
-0.0994427
0.146607
-0.0936648
0.150506
-0.0849005
0.155576
-0.0753368
0.161458
-0.0655259
0.167252
-0.0560113
0.172496
-0.0481156
0.177781
-0.0423982
0.183745
-0.03751
0.190386
-0.0315494
0.197022
-0.0235973
0.202844
-0.0142126
0.207425
-0.00466095
0.210664
0.00368355
0.213025
0.0104701
0.21478
0.0158679
0.216164
0.0201337
0.217317
0.0235924
0.218314
0.0265222
0.219181
0.0291184
0.219926
0.0314966
0.220552
0.0337182
0.221062
0.0358179
0.221466
0.0378203
0.221772
0.0397481
0.221991
0.041624
0.222134
0.0434704
0.222208
0.0453088
0.22222
0.0471604
0.222178
0.0490457
0.222087
0.0509863
0.22195
0.053004
0.221772
0.0551231
0.221557
0.0573705
0.221306
0.0597752
0.221022
0.0623715
0.220706
0.0651982
0.220359
0.0682999
0.219982
0.0717211
0.219574
0.0755357
0.219135
0.0797498
0.218662
0.0846207
0.218159
0.0896986
0.217609
0.0964874
0.217034
0.101718
0.216392
0.112698
0.215724
0.11615
0.214971
0.133619
0.214184
0.136486
0.15767
0.166874
-0.0924971
0.162519
-0.0893097
0.160542
-0.0829234
0.160771
-0.0755663
0.163106
-0.0678608
0.166713
-0.0596177
0.170512
-0.0519152
0.174286
-0.0461719
0.178821
-0.0420455
0.184607
-0.0373347
0.191213
-0.0302034
0.19763
-0.0206295
0.203054
-0.0100854
0.206898
-0.000160334
0.209645
0.00772296
0.211542
0.013971
0.212935
0.0187406
0.214051
0.022477
0.215011
0.0255621
0.215865
0.0282646
0.216622
0.0307391
0.217281
0.0330594
0.21784
0.0352591
0.218302
0.0373584
0.218674
0.039376
0.218965
0.0413327
0.219184
0.043251
0.21934
0.0451529
0.21944
0.0470606
0.21949
0.0489955
0.219497
0.0509802
0.219463
0.0530376
0.219393
0.0551928
0.219291
0.0574725
0.21916
0.0599062
0.219002
0.0625294
0.218819
0.0653816
0.218611
0.0685078
0.218379
0.0719531
0.218123
0.0757923
0.217842
0.0800308
0.217532
0.0849308
0.217197
0.0900334
0.21682
0.0968637
0.216421
0.102117
0.215957
0.113162
0.215472
0.116635
0.214893
0.134199
0.214289
0.13709
0.158422
0.176654
-0.0816209
0.168599
-0.0812552
0.163523
-0.077847
0.161104
-0.0731474
0.161179
-0.0679357
0.163214
-0.061653
0.166089
-0.0547897
0.169022
-0.0491054
0.17232
-0.0453429
0.176903
-0.0419181
0.182996
-0.0362963
0.189744
-0.0273769
0.195974
-0.016316
0.200933
-0.0051194
0.204322
0.00433418
0.206633
0.0116594
0.20822
0.0171543
0.209407
0.0212903
0.210395
0.0245732
0.211279
0.0273806
0.212085
0.029934
0.212809
0.0323346
0.213448
0.0346206
0.213999
0.036807
0.214468
0.0389075
0.214861
0.0409395
0.215187
0.0429245
0.215456
0.0448848
0.215673
0.0468432
0.215846
0.0488219
0.215982
0.0508443
0.216085
0.0529345
0.216159
0.0551189
0.216207
0.0574242
0.216234
0.05988
0.21624
0.0625227
0.21623
0.0653925
0.216202
0.0685353
0.216159
0.0719963
0.216099
0.0758524
0.216023
0.080107
0.215925
0.0850287
0.21581
0.0901483
0.215659
0.0970142
0.215493
0.102283
0.215265
0.11339
0.215023
0.116878
0.214681
0.134541
0.214326
0.137444
0.158937
0.177598
-0.0705475
0.168815
-0.072472
0.162603
-0.0716356
0.158837
-0.0693808
0.157357
-0.0664561
0.158014
-0.0623097
0.160007
-0.0567835
0.162258
-0.0513557
0.164631
-0.0477166
0.168001
-0.0452881
0.173157
-0.0414523
0.179766
-0.0339858
0.186584
-0.0231341
0.192574
-0.0111086
0.196979
-7.11407e-05
0.200076
0.00856255
0.202127
0.0151032
0.203546
0.0198716
0.204638
0.0234808
0.205578
0.0264406
0.206437
0.0290746
0.207233
0.0315395
0.20796
0.0338931
0.208616
0.0361514
0.2092
0.0383232
0.209718
0.0404216
0.210176
0.0424658
0.210584
0.0444775
0.210947
0.0464797
0.211273
0.0484956
0.211569
0.0505484
0.211841
0.0526634
0.212091
0.0548685
0.212325
0.0571906
0.212544
0.0596601
0.212753
0.0623136
0.212954
0.065192
0.213148
0.0683417
0.213335
0.0718089
0.213515
0.075672
0.21369
0.0799327
0.213852
0.0848668
0.214007
0.0899934
0.214134
0.096887
0.214255
0.102162
0.214319
0.113326
0.214379
0.116817
0.214337
0.134583
0.214295
0.137486
0.159147
0.173547
-0.0612933
0.165402
-0.0643276
0.158937
-0.0651707
0.154481
-0.0649242
0.151874
-0.0638489
0.151294
-0.0617298
0.152448
-0.057938
0.154191
-0.0530985
0.155856
-0.0493813
0.158157
-0.0475892
0.162269
-0.0455648
0.168405
-0.0401217
0.175584
-0.0303133
0.182393
-0.0179174
0.187818
-0.00549634
0.191655
0.00472616
0.194287
0.0124715
0.196095
0.0180635
0.197438
0.0221369
0.198553
0.0253257
0.199556
0.0280723
0.200486
0.0306093
0.201351
0.033028
0.20215
0.0353526
0.202884
0.0375893
0.203557
0.039748
0.204178
0.041845
0.204754
0.0439018
0.205293
0.0459407
0.205802
0.0479863
0.206289
0.0500618
0.206759
0.0521933
0.207217
0.05441
0.207669
0.0567389
0.208117
0.0592119
0.208565
0.0618661
0.209015
0.0647423
0.209468
0.0678882
0.209927
0.0713501
0.21039
0.0752089
0.210859
0.0794638
0.211326
0.0843994
0.211799
0.0895203
0.212254
0.0964323
0.212716
0.1017
0.213127
0.112915
0.213547
0.116397
0.213866
0.134264
0.214198
0.137155
0.158983
0.167135
-0.0535518
0.159447
-0.0566395
0.152918
-0.0586423
0.148081
-0.0600872
0.144697
-0.0604647
0.1431
-0.0601326
0.143531
-0.0583695
0.145057
-0.0546244
0.146483
-0.0508077
0.147962
-0.0490681
0.15079
-0.0483923
0.155906
-0.0452376
0.162869
-0.0372767
0.170297
-0.0253448
0.176974
-0.012174
0.182054
-0.000353783
0.185517
0.00900831
0.187798
0.0157832
0.189381
0.0205532
0.190626
0.0240808
0.191728
0.0269706
0.192765
0.0295719
0.193757
0.0320364
0.194701
0.0344083
0.195596
0.0366947
0.196442
0.0389015
0.197246
0.0410412
0.198014
0.043134
0.198754
0.0452011
0.199472
0.0472676
0.200177
0.0493567
0.200875
0.0514953
0.201572
0.0537132
0.202273
0.0560381
0.202982
0.0585031
0.203702
0.0611461
0.204436
0.0640081
0.205187
0.0671377
0.205955
0.0705813
0.206741
0.0744228
0.207547
0.0786582
0.208364
0.0835824
0.209202
0.0886828
0.210032
0.0956024
0.210885
0.100846
0.211696
0.112105
0.212531
0.115562
0.213271
0.133524
0.214035
0.136391
0.158377
0.159016
-0.0473461
0.152327
-0.0499507
0.146249
-0.0525635
0.140916
-0.0547542
0.136431
-0.0559804
0.133468
-0.0571693
0.132716
-0.0576177
0.133696
-0.0556044
0.134882
-0.0519933
0.135743
-0.0499291
0.13756
-0.0502099
0.141849
-0.0495257
0.148623
-0.0440509
0.156521
-0.033243
0.163942
-0.0195946
0.169858
-0.00627013
0.174299
0.00456694
0.177433
0.0126496
0.179643
0.0183427
0.181313
0.0224114
0.182707
0.025576
0.183968
0.0283109
0.185155
0.0308499
0.186287
0.0332759
0.187373
0.035609
0.188417
0.037857
0.189427
0.0400313
0.19041
0.042151
0.191375
0.0442371
0.192328
0.0463144
0.193278
0.0484066
0.194232
0.0505414
0.195196
0.052749
0.196176
0.0550582
0.197176
0.0575029
0.198201
0.0601216
0.199253
0.0629558
0.200335
0.0660551
0.201451
0.0694661
0.202598
0.0732756
0.20378
0.077476
0.204988
0.0823744
0.206234
0.0874371
0.207484
0.094352
0.208778
0.0995525
0.210037
0.110845
0.211341
0.114258
0.212557
0.132308
0.213809
0.135139
0.157264
0.223249
-0.0409569
-0.229638
0.218134
-0.0448361
0.213429
-0.047858
0.208641
-0.0499664
0.203828
-0.051168
0.199309
-0.0526502
0.1954
-0.053709
0.192105
-0.052309
0.189239
-0.0491277
0.18681
-0.0474999
0.185114
-0.0485133
0.184362
-0.0487745
0.184414
-0.0441023
0.184848
-0.0336771
0.185316
-0.0200622
0.18574
-0.0066948
0.18581
0.00449746
0.185802
0.0126575
0.185819
0.018325
0.18591
0.022321
0.186073
0.0254133
0.186293
0.0280903
0.186557
0.030586
0.186852
0.0329815
0.187166
0.035295
0.18749
0.0375323
0.187818
0.0397031
0.188145
0.0418245
0.188466
0.043916
0.18878
0.0460005
0.189085
0.0481014
0.189381
0.0502455
0.189669
0.052461
0.18995
0.0547775
0.190224
0.0572288
0.190492
0.0598532
0.190756
0.0626917
0.191017
0.0657942
0.191276
0.0692074
0.191533
0.0730179
0.19179
0.0772191
0.192049
0.0821154
0.192305
0.087181
0.19257
0.0940877
0.192826
0.0992963
0.193087
0.110584
0.193359
0.113986
0.193585
0.132082
0.193872
0.134853
0.157061
0.236401
-0.0358565
-0.241502
0.231521
-0.0399557
0.22684
-0.0431774
0.2221
-0.0452255
0.217491
-0.0465591
0.213296
-0.0484552
0.209504
-0.049917
0.206045
-0.04885
0.203073
-0.0461561
0.200806
-0.0452328
0.199378
-0.0470859
0.198797
-0.0481929
0.198853
-0.0441582
0.199186
-0.0340107
0.199454
-0.02033
0.19939
-0.00663073
0.199341
0.00454605
0.199249
0.01275
0.199207
0.0183671
0.199233
0.0222953
0.199332
0.0253135
0.199501
0.0279214
0.199728
0.0303597
0.199997
0.0327119
0.200297
0.0349955
0.200615
0.0372144
0.200942
0.0393759
0.201272
0.041494
0.201602
0.0435869
0.201927
0.045675
0.202246
0.0477819
0.202559
0.0499325
0.202867
0.0521536
0.203169
0.0544755
0.203466
0.0569319
0.203759
0.0595603
0.204049
0.0624015
0.204337
0.0655058
0.204625
0.0689199
0.204913
0.0727301
0.205201
0.076931
0.205492
0.0818243
0.205782
0.0868907
0.206079
0.0937906
0.206374
0.0990018
0.206667
0.110291
0.20698
0.113673
0.207239
0.131823
0.207561
0.134531
0.156821
0.250607
-0.0318364
-0.254627
0.246162
-0.0355106
0.241832
-0.0388469
0.237495
-0.0408889
0.233282
-0.042346
0.22935
-0.0445236
0.225691
-0.0462573
0.222311
-0.0454698
0.21939
-0.0432357
0.217111
-0.0429531
0.215531
-0.0455059
0.214626
-0.0472884
0.214255
-0.0437874
0.214162
-0.0339173
0.214128
-0.0202961
0.214101
-0.00660393
0.213904
0.00474334
0.213714
0.0129396
0.213575
0.0185063
0.213517
0.0223531
0.213545
0.0252861
0.213653
0.0278128
0.213833
0.0301796
0.214071
0.0324744
0.21435
0.0347162
0.214657
0.0369072
0.214981
0.0390517
0.215315
0.0411606
0.215652
0.04325
0.215989
0.0453379
0.216324
0.0474472
0.216655
0.049601
0.216984
0.0518251
0.217309
0.0541502
0.217631
0.0566095
0.217952
0.0592398
0.218271
0.0620822
0.21859
0.0651867
0.21891
0.0686001
0.219231
0.0724085
0.219555
0.0766075
0.219883
0.0814967
0.220212
0.0865616
0.220546
0.0934558
0.220885
0.0986635
0.221214
0.109961
0.221574
0.113313
0.221872
0.131526
0.222235
0.134167
0.156542
0.265218
-0.0282138
-0.26884
0.261376
-0.0316691
0.257407
-0.0348777
0.253313
-0.0367947
0.249397
-0.03843
0.245823
-0.04095
0.242419
-0.0428528
0.239099
-0.04215
0.236149
-0.040286
0.233897
-0.0407009
0.232367
-0.0439761
0.231392
-0.0463136
0.230805
-0.0431997
0.230438
-0.0335502
0.230119
-0.0199776
0.229747
-0.00623189
0.229407
0.00508405
0.229111
0.0132347
0.228902
0.0187158
0.228784
0.0224714
0.228755
0.0253146
0.228813
0.0277552
0.228949
0.0300434
0.229152
0.0322718
0.229406
0.034462
0.229697
0.0366157
0.230014
0.0387349
0.230347
0.0408278
0.230689
0.0429075
0.231037
0.0449904
0.231386
0.0470975
0.231737
0.0492505
0.232088
0.0514745
0.232438
0.0538
0.232788
0.0562594
0.233139
0.0588893
0.23349
0.0617307
0.233843
0.0648334
0.234199
0.0682443
0.234558
0.0720491
0.234922
0.0762443
0.23529
0.081128
0.235663
0.0861885
0.236041
0.0930783
0.236429
0.0982757
0.2368
0.10959
0.237213
0.1129
0.237556
0.131182
0.237966
0.133758
0.156219
0.280514
-0.0251386
-0.283589
0.277324
-0.0284794
0.273766
-0.0313196
0.270031
-0.0330595
0.266517
-0.0349162
0.263269
-0.0377018
0.260057
-0.039641
0.256876
-0.0389689
0.254053
-0.0374627
0.251886
-0.0385344
0.250354
-0.0424434
0.249248
-0.0452078
0.248392
-0.0423441
0.247676
-0.0328335
0.247048
-0.0193496
0.246495
-0.00567889
0.246003
0.00557589
0.245605
0.0136328
0.245314
0.0190062
0.245131
0.0226545
0.245047
0.0253984
0.245055
0.027747
0.245148
0.0299512
0.245313
0.0321065
0.245538
0.0342371
0.245809
0.0363447
0.246113
0.0384303
0.246442
0.0404991
0.246787
0.0425622
0.247144
0.0446342
0.247508
0.0467333
0.247878
0.0488807
0.248251
0.051101
0.248628
0.0534231
0.249008
0.0558795
0.249391
0.0585062
0.249778
0.061344
0.250169
0.0644424
0.250565
0.0678483
0.250967
0.0716472
0.251375
0.0758362
0.25179
0.0807128
0.252213
0.0857657
0.252639
0.0926521
0.253083
0.097832
0.253503
0.10917
0.253976
0.112427
0.254371
0.130787
0.254834
0.133294
0.155844
0.296901
-0.0227697
-0.29927
0.294207
-0.0257848
0.291025
-0.0281378
0.287666
-0.0297011
0.284534
-0.0317836
0.281616
-0.0347843
0.278643
-0.0366681
0.275621
-0.0359468
0.272909
-0.0347503
0.270822
-0.0364473
0.26932
-0.0409421
0.268137
-0.0440243
0.26708
-0.0412873
0.266096
-0.0318489
0.265197
-0.0184508
0.264416
-0.00489858
0.263771
0.00622091
0.263266
0.0141383
0.262894
0.0193784
0.262643
0.0229055
0.2625
0.0255411
0.262456
0.0277915
0.262501
0.029906
0.262625
0.0319818
0.262817
0.0340452
0.263064
0.0360983
0.263353
0.0381414
0.263674
0.0401779
0.26402
0.0422166
0.264383
0.0442703
0.264762
0.0463552
0.26515
0.0484918
0.265548
0.0507035
0.265953
0.0530181
0.266365
0.0554674
0.266784
0.0580874
0.26721
0.0609182
0.267643
0.0640092
0.268084
0.0674072
0.268534
0.0711975
0.268993
0.0753775
0.26946
0.080245
0.26994
0.0852864
0.270422
0.0921701
0.270929
0.0973248
0.271405
0.108694
0.271946
0.111886
0.2724
0.130333
0.272927
0.132768
0.15541
0.314426
-0.0208835
-0.316312
0.31204
-0.0233988
0.309195
-0.0252932
0.306258
-0.0267636
0.303546
-0.0290717
0.30094
-0.0321785
0.298167
-0.0338945
0.295317
-0.0330972
0.292793
-0.0322268
0.290862
-0.0345162
0.289424
-0.0395035
0.288185
-0.0427854
0.28695
-0.0400522
0.285717
-0.030616
0.284566
-0.0173
0.283577
-0.00391
0.282784
0.00701455
0.282171
0.0147507
0.281715
0.0198343
0.281393
0.0232276
0.281188
0.0257467
0.281087
0.0278925
0.281081
0.0299113
0.281162
0.0319009
0.281318
0.0338892
0.281537
0.0358794
0.281807
0.037871
0.282119
0.0398663
0.282463
0.0418723
0.282834
0.0438998
0.283225
0.0459637
0.283634
0.0480833
0.284057
0.0502807
0.284492
0.0525826
0.28494
0.0550201
0.285398
0.0576289
0.285867
0.0604489
0.286348
0.0635288
0.286839
0.0669154
0.287343
0.0706939
0.287859
0.0748614
0.288387
0.0797173
0.28893
0.0847429
0.289476
0.0916243
0.290055
0.0967458
0.290597
0.108152
0.291215
0.111267
0.291737
0.129812
0.292338
0.132166
0.154909
0.332975
-0.0192114
-0.334647
0.330881
-0.0213056
0.328421
-0.022833
0.325927
-0.0242694
0.323613
-0.0267581
0.321295
-0.0298605
0.318741
-0.0313403
0.316104
-0.03046
0.313793
-0.0299161
0.312034
-0.0327567
0.310667
-0.0381367
0.309382
-0.0415003
0.308007
-0.0386775
0.306571
-0.0291795
0.305212
-0.0159409
0.304041
-0.00273969
0.303107
0.00794872
0.302389
0.015469
0.301848
0.020375
0.301453
0.0236226
0.301183
0.0260173
0.301023
0.0280519
0.300966
0.0299688
0.301001
0.0318655
0.301119
0.0337712
0.301309
0.0356898
0.301559
0.037621
0.301859
0.0395659
0.302201
0.0415302
0.302578
0.0435233
0.302983
0.0455586
0.303412
0.047654
0.303862
0.0498305
0.304331
0.0521137
0.304817
0.0545341
0.30532
0.0571268
0.305837
0.0599312
0.30637
0.0629957
0.306919
0.0663668
0.307483
0.0701295
0.308064
0.0742805
0.30866
0.0791218
0.309276
0.0841264
0.309895
0.0910054
0.310556
0.0960847
0.311173
0.107535
0.311881
0.11056
0.31248
0.129212
0.313168
0.131478
0.154332
0.352698
-0.0178016
-0.354108
0.35092
-0.0195272
0.348844
-0.0207575
0.346767
-0.0221928
0.344821
-0.0248113
0.34278
-0.0278202
0.340443
-0.0290033
0.338024
-0.0280405
0.335943
-0.0278356
0.334375
-0.0311882
0.333105
-0.0368663
0.331801
-0.040197
0.330314
-0.0371899
0.328714
-0.02758
0.327182
-0.0144086
0.325859
-0.00141728
0.324801
0.00900726
0.323984
0.0162858
0.323362
0.0209969
0.322896
0.0240885
0.322562
0.0263516
0.322345
0.0282691
0.322235
0.0300784
0.322225
0.0318758
0.322305
0.0336914
0.322464
0.0355303
0.322693
0.037392
0.322982
0.0392773
0.323321
0.0411907
0.323704
0.0431405
0.324124
0.0451388
0.324576
0.047202
0.325056
0.0493503
0.325561
0.0516082
0.32609
0.0540053
0.326641
0.056576
0.327213
0.0593594
0.327805
0.0624034
0.328418
0.0657539
0.329051
0.0694963
0.329706
0.0736259
0.330378
0.0784489
0.331078
0.0834269
0.331781
0.0903028
0.332535
0.0953301
0.333239
0.106831
0.334048
0.10975
0.334738
0.128523
0.335526
0.13069
0.153667
0.373812
-0.0166717
-0.374942
0.372316
-0.0180308
0.370579
-0.0190207
0.368875
-0.0204894
0.367257
-0.0231926
0.365464
-0.026027
0.363348
-0.0268877
0.361166
-0.0258581
0.359331
-0.0260005
0.357959
-0.0298172
0.356796
-0.0357032
0.355491
-0.0388921
0.353919
-0.0356174
0.352193
-0.0258538
0.350529
-0.0127453
0.349089
2.28255e-05
0.347928
0.0101689
0.347025
0.0171881
0.346331
0.0216918
0.345799
0.0246197
0.345405
0.0267457
0.345133
0.0285411
0.344974
0.0302377
0.34492
0.03193
0.344962
0.0336488
0.345093
0.0353999
0.345301
0.0371835
0.345578
0.039
0.345916
0.0408532
0.346306
0.0427504
0.346742
0.0447026
0.347219
0.0467251
0.347733
0.0488371
0.348279
0.0510621
0.348855
0.0534287
0.34946
0.0559709
0.350093
0.0587269
0.350752
0.0617443
0.351437
0.0650686
0.352149
0.0687852
0.352887
0.0728878
0.353648
0.077688
0.354442
0.0826326
0.35524
0.0895043
0.356102
0.0944685
0.356906
0.106027
0.357833
0.108823
0.358626
0.12773
0.359531
0.129785
0.152899
0.396432
-0.0157211
-0.397383
0.395166
-0.016764
0.393733
-0.0175882
0.392356
-0.0191127
0.391016
-0.0218521
0.389449
-0.0244603
0.387555
-0.0249932
0.385619
-0.0239224
0.384032
-0.024414
0.382861
-0.0286455
0.381804
-0.0346464
0.380515
-0.0376027
0.378885
-0.0339881
0.377078
-0.0240468
0.375319
-0.0109863
0.373792
0.00154984
0.372554
0.011407
0.371584
0.018158
0.370828
0.0224474
0.370241
0.0252069
0.369795
0.0271923
0.369474
0.0288621
0.36927
0.0304419
0.369175
0.0320242
0.369184
0.03364
0.369288
0.0352962
0.369478
0.0369933
0.369746
0.0387319
0.370084
0.0405154
0.370484
0.0423504
0.37094
0.044247
0.371445
0.0462196
0.371996
0.0482865
0.372588
0.0504702
0.373218
0.0527985
0.373884
0.0553044
0.374585
0.0580259
0.37532
0.0610098
0.376087
0.0643011
0.376887
0.0679856
0.37772
0.0720547
0.378581
0.0768267
0.379483
0.0817302
0.380392
0.0885957
0.381376
0.0934842
0.382295
0.105108
0.383358
0.10776
0.38427
0.126818
0.385311
0.128744
0.152013
0.42062
-0.0148968
-0.421444
0.419558
-0.015702
0.418399
-0.0164295
0.417308
-0.0180217
0.416211
-0.0207549
0.414854
-0.0231027
0.413175
-0.023315
0.411484
-0.022231
0.410142
-0.0230716
0.409162
-0.0276656
0.408209
-0.0336941
0.40695
-0.036343
0.405297
-0.0323355
0.403433
-0.022183
0.401619
-0.00917202
0.400038
0.00313117