/*--------------------------------*- C++ -*----------------------------------*\
| =========                 |                                                 |
| \\      /  F ield         | OpenFOAM: The Open Source CFD Toolbox           |
|  \\    /   O peration     | Version:  2512                                  |
|   \\  /    A nd           | Website:  www.openfoam.com                      |
|    \\/     M anipulation  |                                                 |
\*---------------------------------------------------------------------------*/
FoamFile
{
    version     2.0;
    format      ascii;
    arch        "LSB;label=32;scalar=64";
    class       volScalarField;
    location    "115";
    object      p;
}
// * * * * * * * * * * * * * * * * * * * * * * * * * * * * * * * * * * * * * //

dimensions      [0 2 -2 0 0 0 0];

internalField   nonuniform List<scalar> 
13248
(
-0.446485
-0.446317
-0.443952
-0.439991
-0.434935
-0.429425
-0.424082
-0.419663
-0.416491
-0.414411
-0.412824
-0.410842
-0.407531
-0.402165
-0.394378
-0.384177
-0.371812
-0.357591
-0.341781
-0.324669
-0.306134
-0.286792
-0.264701
-0.241102
-0.455083
-0.454175
-0.451574
-0.44791
-0.44348
-0.438611
-0.433614
-0.428673
-0.423725
-0.418484
-0.412534
-0.405451
-0.396933
-0.386873
-0.375337
-0.36248
-0.348462
-0.333423
-0.317467
-0.300661
-0.28307
-0.264697
-0.245338
-0.226154
-0.466187
-0.464152
-0.461058
-0.457274
-0.453011
-0.44827
-0.442866
-0.436503
-0.428925
-0.420011
-0.409779
-0.398356
-0.385931
-0.372693
-0.358793
-0.344323
-0.329338
-0.313878
-0.297951
-0.281651
-0.264893
-0.247945
-0.230482
-0.212808
-0.479472
-0.476135
-0.472255
-0.468043
-0.463484
-0.458155
-0.451367
-0.44258
-0.431691
-0.419009
-0.405038
-0.39028
-0.375109
-0.359745
-0.344286
-0.328754
-0.313145
-0.297441
-0.28166
-0.265795
-0.249895
-0.23409
-0.218142
-0.202823
-0.495097
-0.490348
-0.485555
-0.480654
-0.475222
-0.468333
-0.459009
-0.446886
-0.43234
-0.416162
-0.399158
-0.381929
-0.364822
-0.347987
-0.331451
-0.315188
-0.299157
-0.28333
-0.267684
-0.252235
-0.236993
-0.222004
-0.207188
-0.192833
-0.513401
-0.507182
-0.501401
-0.495465
-0.488332
-0.47867
-0.465675
-0.449587
-0.431368
-0.412112
-0.392673
-0.373559
-0.355002
-0.33706
-0.319703
-0.302878
-0.28653
-0.27061
-0.255097
-0.23997
-0.225229
-0.210896
-0.196904
-0.18354
-0.534582
-0.526867
-0.519954
-0.512418
-0.502465
-0.488752
-0.471212
-0.450903
-0.429218
-0.407297
-0.385849
-0.36521
-0.345482
-0.326644
-0.308633
-0.291371
-0.274786
-0.258823
-0.24343
-0.228578
-0.214242
-0.200391
-0.187018
-0.174207
-0.558581
-0.549305
-0.540957
-0.530958
-0.516878
-0.498017
-0.475457
-0.450982
-0.42613
-0.401875
-0.378693
-0.356739
-0.336002
-0.316404
-0.297845
-0.280227
-0.263465
-0.24748
-0.232212
-0.217603
-0.203607
-0.190191
-0.177343
-0.165027
-0.584744
-0.573952
-0.563673
-0.550045
-0.530566
-0.505848
-0.478197
-0.44981
-0.422103
-0.395767
-0.371037
-0.34791
-0.326284
-0.30603
-0.287017
-0.269127
-0.25225
-0.236294
-0.221174
-0.206815
-0.193152
-0.180135
-0.167724
-0.155782
-0.61206
-0.599741
-0.586815
-0.56825
-0.542366
-0.51153
-0.479004
-0.447043
-0.416765
-0.388552
-0.362422
-0.338241
-0.315834
-0.295023
-0.275647
-0.25756
-0.240633
-0.224753
-0.20982
-0.195741
-0.182435
-0.169844
-0.157885
-0.146381
-0.639011
-0.625129
-0.608595
-0.583854
-0.550934
-0.514053
-0.477006
-0.441824
-0.409245
-0.379356
-0.351989
-0.326901
-0.303848
-0.282608
-0.262985
-0.244807
-0.227923
-0.212201
-0.197525
-0.183786
-0.170899
-0.158791
-0.147335
-0.136378
-0.663748
-0.648232
-0.626979
-0.595017
-0.55481
-0.51218
-0.471045
-0.433025
-0.398453
-0.367144
-0.338765
-0.312976
-0.289469
-0.267975
-0.248265
-0.230139
-0.213424
-0.197971
-0.183649
-0.170338
-0.157952
-0.146419
-0.135597
-0.125395
-0.466763
-0.464746
-0.463501
-0.46392
-0.466843
-0.472655
-0.48152
-0.493612
-0.509102
-0.528048
-0.550295
-0.575395
-0.602568
-0.630713
-0.658696
-0.684918
-0.708144
-0.727138
-0.740857
-0.748409
-0.748337
-0.739746
-0.721694
-0.692132
-0.473357
-0.469967
-0.468219
-0.468383
-0.471152
-0.476952
-0.485977
-0.498405
-0.514416
-0.534084
-0.557258
-0.583478
-0.611933
-0.641487
-0.670804
-0.698464
-0.723072
-0.743373
-0.758344
-0.766822
-0.768082
-0.760467
-0.743081
-0.712832
-0.476188
-0.47171
-0.469368
-0.469
-0.471156
-0.476332
-0.484754
-0.496582
-0.511968
-0.530977
-0.55346
-0.578968
-0.606711
-0.635588
-0.664277
-0.691369
-0.715488
-0.735493
-0.750143
-0.758593
-0.759991
-0.75226
-0.734471
-0.702606
-0.475324
-0.470179
-0.467215
-0.465984
-0.466957
-0.470753
-0.477685
-0.487923
-0.501593
-0.518742
-0.539233
-0.562655
-0.588283
-0.615101
-0.641872
-0.667273
-0.690097
-0.709008
-0.723165
-0.731192
-0.732183
-0.723544
-0.704133
-0.669331
-0.471437
-0.466158
-0.46264
-0.460289
-0.459554
-0.461221
-0.465792
-0.473533
-0.484598
-0.499036
-0.516727
-0.537312
-0.560151
-0.584326
-0.608743
-0.632271
-0.653648
-0.67173
-0.685153
-0.692373
-0.691967
-0.680889
-0.657999
-0.619102
-0.465533
-0.460662
-0.456783
-0.453257
-0.450521
-0.449533
-0.451067
-0.455617
-0.463463
-0.474715
-0.489297
-0.506904
-0.526971
-0.548653
-0.571055
-0.593052
-0.613373
-0.63035
-0.642457
-0.647525
-0.643655
-0.627918
-0.599911
-0.556981
-0.458664
-0.454647
-0.450685
-0.44617
-0.441506
-0.437772
-0.436036
-0.437106
-0.441504
-0.449493
-0.461083
-0.476034
-0.493873
-0.513702
-0.534734
-0.55548
-0.574291
-0.589161
-0.598115
-0.598541
-0.588905
-0.567281
-0.534853
-0.490883
-0.451762
-0.448868
-0.445087
-0.439931
-0.433769
-0.427725
-0.423097
-0.421014
-0.422295
-0.42742
-0.436525
-0.449413
-0.465559
-0.48422
-0.503771
-0.522433
-0.538185
-0.548621
-0.551794
-0.545574
-0.529723
-0.503743
-0.470217
-0.429156
-0.445653
-0.443933
-0.440495
-0.435066
-0.428031
-0.4205
-0.413898
-0.409594
-0.408669
-0.411818
-0.419283
-0.430797
-0.445535
-0.462159
-0.478784
-0.493256
-0.50335
-0.507025
-0.503041
-0.490596
-0.470888
-0.444356
-0.413872
-0.378557
-0.441195
-0.440494
-0.437429
-0.432035
-0.42477
-0.416727
-0.409335
-0.404065
-0.402116
-0.404248
-0.410546
-0.420449
-0.432741
-0.445682
-0.457198
-0.465228
-0.467976
-0.464394
-0.454271
-0.438224
-0.417936
-0.394009
-0.368748
-0.339396
-0.4394
-0.439348
-0.436611
-0.431573
-0.424618
-0.416985
-0.409895
-0.404752
-0.402615
-0.403978
-0.408703
-0.415903
-0.424105
-0.431502
-0.436275
-0.436972
-0.432711
-0.423488
-0.409767
-0.392702
-0.37329
-0.352202
-0.331132
-0.306794
-0.441096
-0.441229
-0.43875
-0.434244
-0.428102
-0.421428
-0.415282
-0.410632
-0.40827
-0.408398
-0.410547
-0.413665
-0.416355
-0.417191
-0.415048
-0.409326
-0.399989
-0.387471
-0.372257
-0.3551
-0.336039
-0.316063
-0.295612
-0.274526
-0.643646
-0.56855
-0.483836
-0.40178
-0.333415
-0.284907
-0.257379
-0.247971
-0.254686
-0.278614
-0.31789
-0.360693
-0.387589
-0.381554
-0.340193
-0.279574
-0.22073
-0.176435
-0.148563
-0.135429
-0.134821
-0.145694
-0.172153
-0.219446
-0.278846
-0.324693
-0.329217
-0.290845
-0.229638
-0.172402
-0.133353
-0.111806
-0.104959
-0.115779
-0.143975
-0.175004
-0.185064
-0.164757
-0.131109
-0.102854
-0.0867564
-0.0854194
-0.0963747
-0.110369
-0.112631
-0.100838
-0.084711
-0.0708712
-0.0601335
-0.0584773
-0.0563947
-0.0518884
-0.044451
-0.0419108
-0.0419223
-0.0439301
-0.0364923
-0.0290471
-0.00911592
-0.00429205
-0.66258
-0.585862
-0.498783
-0.412639
-0.338648
-0.283476
-0.247957
-0.230556
-0.229669
-0.245436
-0.276806
-0.314938
-0.341711
-0.338808
-0.304796
-0.2529
-0.202454
-0.164317
-0.14069
-0.131302
-0.134373
-0.14922
-0.180748
-0.234193
-0.299061
-0.348564
-0.353357
-0.31177
-0.245101
-0.181502
-0.136465
-0.109534
-0.0971153
-0.101308
-0.122114
-0.147436
-0.155296
-0.138627
-0.112237
-0.0918873
-0.0830868
-0.0890482
-0.107784
-0.127714
-0.131779
-0.116263
-0.0948504
-0.0755483
-0.0585374
-0.051865
-0.0455947
-0.0408947
-0.0366924
-0.0391834
-0.0473992
-0.0535047
-0.0479705
-0.0380105
-0.00821995
-0.00188858
-0.649899
-0.573014
-0.488559
-0.404072
-0.330087
-0.27328
-0.233657
-0.209465
-0.199633
-0.205197
-0.226253
-0.256676
-0.282129
-0.284127
-0.259496
-0.218512
-0.177577
-0.146062
-0.127202
-0.121844
-0.12846
-0.146746
-0.182107
-0.239502
-0.307914
-0.3604
-0.367815
-0.325657
-0.255581
-0.187057
-0.137173
-0.10567
-0.0881613
-0.0862249
-0.100148
-0.120219
-0.126361
-0.112999
-0.0931954
-0.0800059
-0.0782793
-0.0918471
-0.118819
-0.145091
-0.151107
-0.131501
-0.10433
-0.0796541
-0.0568637
-0.0454541
-0.0350915
-0.0300361
-0.0289203
-0.0363008
-0.0525121
-0.0626279
-0.0591047
-0.0468288
-0.00746199
0.000413819
-0.612597
-0.537616
-0.46029
-0.381926
-0.31167
-0.256281
-0.215704
-0.187696
-0.171269
-0.166454
-0.175417
-0.195561
-0.2169
-0.224672
-0.207941
-0.178314
-0.147146
-0.122466
-0.108443
-0.106856
-0.116499
-0.137041
-0.173842
-0.232381
-0.303053
-0.358447
-0.370234
-0.33111
-0.260208
-0.188659
-0.135399
-0.100458
-0.0788541
-0.0714659
-0.0792717
-0.0946
-0.0993104
-0.088639
-0.0743766
-0.0672905
-0.0721055
-0.0931669
-0.128665
-0.161755
-0.170037
-0.146252
-0.112958
-0.0830661
-0.0551024
-0.0393683
-0.0251038
-0.019432
-0.0212081
-0.0332185
-0.057137
-0.0711379
-0.0697279
-0.0553676
-0.006951
0.00261282
-0.558413
-0.488114
-0.421325
-0.352452
-0.288843
-0.236529
-0.196176
-0.166241
-0.145399
-0.133584
-0.131762
-0.140394
-0.154019
-0.162111
-0.154125
-0.135135
-0.113127
-0.0950087
-0.0854528
-0.0871532
-0.0993105
-0.121068
-0.157167
-0.213717
-0.28389
-0.342332
-0.359187
-0.327104
-0.258706
-0.186577
-0.131394
-0.0942225
-0.0696433
-0.0578401
-0.0602155
-0.0713392
-0.0749188
-0.0659839
-0.0561955
-0.0538622
-0.0642986
-0.092292
-0.136497
-0.176783
-0.187773
-0.160219
-0.120634
-0.0857567
-0.0532529
-0.0336935
-0.0158295
-0.00917214
-0.0136104
-0.0299063
-0.0611731
-0.0788813
-0.079746
-0.0634958
-0.00678852
0.00469416
-0.494401
-0.432083
-0.378332
-0.320987
-0.265819
-0.21817
-0.178837
-0.147589
-0.123719
-0.10664
-0.0967893
-0.0952954
-0.100186
-0.106002
-0.103656
-0.0924044
-0.0781241
-0.0657753
-0.0601538
-0.0646106
-0.0787355
-0.100979
-0.134844
-0.186565
-0.252725
-0.313225
-0.343559
-0.313598
-0.251011
-0.181087
-0.125522
-0.0872427
-0.0607606
-0.0456432
-0.0434601
-0.0509149
-0.0536921
-0.0455037
-0.0391441
-0.0399801
-0.0549678
-0.0890635
-0.141473
-0.189048
-0.203356
-0.172966
-0.127233
-0.087702
-0.0513194
-0.0285089
-0.00743506
0.000618756
-0.00622189
-0.0263512
-0.0645112
-0.0857323
-0.089681
-0.0710761
-0.00705063
0.00663856
-0.431388
-0.379531
-0.338381
-0.2921
-0.245265
-0.202751
-0.165356
-0.133572
-0.107601
-0.0869447
-0.0713904
-0.0618009
-0.0585969
-0.0594875
-0.0597985
-0.0525116
-0.0445674
-0.0369581
-0.034569
-0.0410654
-0.0564897
-0.0786383
-0.109356
-0.154558
-0.213969
-0.272854
-0.306843
-0.291002
-0.237928
-0.17274
-0.118363
-0.0799672
-0.052526
-0.035011
-0.0291108
-0.0334914
-0.0358572
-0.0274681
-0.0237339
-0.0262214
-0.044402
-0.0830433
-0.143091
-0.197642
-0.215889
-0.18409
-0.132693
-0.0889223
-0.0492919
-0.0238604
-5.65276e-05
0.0098138
0.000880257
-0.0225683
-0.0671061
-0.0915641
-0.0972632
-0.0779577
-0.00777579
0.0084281
-0.376694
-0.335593
-0.304634
-0.267514
-0.228068
-0.190611
-0.155883
-0.124487
-0.0972635
-0.0743241
-0.0552327
-0.040013
-0.0297543
-0.0246794
-0.022745
-0.0182677
-0.0143068
-0.0102269
-0.0104463
-0.0183085
-0.0342649
-0.055871
-0.083282
-0.121528
-0.172395
-0.227176
-0.265084
-0.262004
-0.220367
-0.161969
-0.110268
-0.0726896
-0.0451316
-0.0260979
-0.0172329
-0.0189828
-0.0214891
-0.0199042
-0.0105385
-0.0130835
-0.0330158
-0.0747162
-0.140761
-0.201448
-0.224342
-0.192937
-0.136913
-0.0894375
-0.047145
-0.0197308
0.0062114
0.0182822
0.00758832
-0.0185892
-0.0688996
-0.0963093
-0.103648
-0.0840621
-0.00896418
0.0100476
-0.334892
-0.302572
-0.27837
-0.247803
-0.214386
-0.181511
-0.149836
-0.119879
-0.0923784
-0.0679632
-0.0467238
-0.0282681
-0.0129349
-0.00216389
0.00339437
0.00567773
0.011517
0.0130025
0.0110996
0.00262382
-0.0130723
-0.0337072
-0.058094
-0.0896789
-0.131729
-0.180417
-0.220657
-0.230003
-0.19996
-0.149365
-0.101473
-0.0654887
-0.0385354
-0.0188417
-0.00774002
-0.00712289
-0.00947394
-0.00692957
0.000812614
-0.00103198
-0.0212094
-0.0638169
-0.134285
-0.200827
-0.228454
-0.199343
-0.139836
-0.0892488
-0.0448847
-0.0160789
0.0113215
0.0259376
0.0138862
-0.0144526
-0.0699665
-0.099969
-0.108757
-0.0893428
-0.0106073
0.0114842
-0.303637
-0.278183
-0.258216
-0.232104
-0.203508
-0.174762
-0.146128
-0.118161
-0.0914204
-0.0664891
-0.0439136
-0.0236811
-0.00571143
0.00902844
0.0192756
0.0255439
0.0307644
0.0313203
0.0282772
0.0199699
0.00557474
-0.013306
-0.035055
-0.0615048
-0.0952814
-0.136094
-0.176978
-0.194251
-0.175888
-0.134703
-0.0921439
-0.0585938
-0.0328722
-0.0133196
-0.000646026
0.00220122
0.000287603
0.00296415
0.00990252
0.00937368
-0.00982586
-0.0517784
-0.123625
-0.194443
-0.227296
-0.202044
-0.141257
-0.0884308
-0.04268
-0.0130369
0.0151835
0.0326632
0.0196235
-0.0102534
-0.0701901
-0.102493
-0.1125
-0.0937574
-0.0127005
0.0127165
-0.279166
-0.260548
-0.243434
-0.220395
-0.195508
-0.170186
-0.144265
-0.118164
-0.0924806
-0.0678024
-0.0446965
-0.0234172
-0.00388544
0.0133723
0.0272857
0.0377644
0.0474744
0.0451632
0.0418128
0.0340987
0.0213975
0.0044697
-0.0146649
-0.03628
-0.0632041
-0.0985851
-0.137703
-0.167185
-0.154747
-0.121522
-0.0842825
-0.0532361
-0.0287363
-0.00970318
0.00407936
0.00913702
0.0078935
0.00992991
0.0167428
0.0183683
0.00154422
-0.0383436
-0.109582
-0.184772
-0.222335
-0.202534
-0.14176
-0.087573
-0.0407451
-0.0106267
0.0175586
0.0384795
0.0249391
-0.00595828
-0.0698308
-0.104012
-0.114873
-0.0971707
-0.0150873
0.0137201
-0.258291
-0.247994
-0.23332
-0.213004
-0.191611
-0.169811
-0.147087
-0.12347
-0.0994207
-0.0755143
-0.0524146
-0.0306477
-0.0103719
0.00807409
0.0236556
0.0355992
0.0418699
0.0507917
0.0498783
0.0437756
0.0338587
0.0199144
0.00265901
-0.0165335
-0.0373966
-0.0643961
-0.097077
-0.1228
-0.122501
-0.101782
-0.0730393
-0.0461795
-0.0235012
-0.00562526
0.00825718
0.0149674
0.014434
0.0153004
0.020975
0.0242781
0.010432
-0.0253994
-0.0930964
-0.168891
-0.211601
-0.196444
-0.139302
-0.085544
-0.0379766
-0.00762634
0.019482
0.0416636
0.0293061
-0.00174422
-0.0685277
-0.104287
-0.115832
-0.099259
-0.0172302
0.0145297
-0.230018
-0.232229
-0.217729
-0.196201
-0.174109
-0.152857
-0.131776
-0.110141
-0.0879456
-0.0656699
-0.0440366
-0.0234977
-0.00411279
0.0138846
0.0294576
0.041825
0.0519011
0.0582181
0.0587451
0.0533198
0.0447189
0.034084
0.0204104
0.00445696
-0.0135866
-0.0406492
-0.0760761
-0.1048
-0.101722
-0.0824997
-0.0575572
-0.0342545
-0.0144659
0.00121451
0.0136054
0.0204082
0.0201836
0.0201997
0.0254316
0.0317318
0.0214163
-0.0109772
-0.0754578
-0.152733
-0.200792
-0.191121
-0.132815
-0.0791861
-0.0329644
-0.00340444
0.0224587
0.0460392
0.0337722
0.00272828
-0.066549
-0.104173
-0.115744
-0.100166
-0.0188502
0.0151264
-0.202049
-0.207663
-0.195384
-0.174683
-0.153539
-0.134061
-0.115453
-0.096465
-0.0767068
-0.0565427
-0.036741
-0.017833
3.39874e-05
0.0165165
0.0309109
0.0427435
0.0511648
0.0594929
0.0614873
0.0575383
0.0508363
0.0431484
0.0330257
0.020569
0.00393151
-0.0238708
-0.0578688
-0.0749296
-0.0773665
-0.0618165
-0.0419655
-0.0230664
-0.00632285
0.00714227
0.0177322
0.0241351
0.0241198
0.0236799
0.0281817
0.0350977
0.027342
-0.00146178
-0.0615435
-0.13796
-0.187635
-0.179263
-0.123653
-0.0718372
-0.0277538
0.000575047
0.0247434
0.0484327
0.0364515
0.00585386
-0.0647532
-0.103686
-0.11437
-0.0999496
-0.0203535
0.0153733
-0.178677
-0.184497
-0.17489
-0.156868
-0.137772
-0.120037
-0.103242
-0.086187
-0.0683345
-0.0498891
-0.031539
-0.0139137
0.00276693
0.0182701
0.0319773
0.0434156
0.0525842
0.0600606
0.0626826
0.0600155
0.0550947
0.0502704
0.043907
0.0339482
0.017269
-0.00955959
-0.0392169
-0.0546798
-0.0553568
-0.0437704
-0.0285284
-0.0133767
0.000695731
0.0122478
0.0213282
0.0273632
0.0273633
0.0264335
0.0301549
0.0375202
0.0304334
0.00381422
-0.0519991
-0.123217
-0.169915
-0.164148
-0.112842
-0.0640529
-0.0226235
0.00427094
0.0262822
0.0505731
0.0379583
0.00764428
-0.0633048
-0.102441
-0.111648
-0.098569
-0.0218456
0.015298
-0.157417
-0.162739
-0.155355
-0.139926
-0.122748
-0.10647
-0.0911245
-0.0757647
-0.0597802
-0.043205
-0.0265592
-0.0104086
0.0049453
0.0192632
0.0320504
0.0429664
0.0519504
0.0591579
0.0624993
0.0613777
0.0583698
0.0561008
0.0530177
0.0450698
0.0291328
0.00437365
-0.0211014
-0.0343186
-0.0349121
-0.026789
-0.0157166
-0.00419466
0.0072651
0.0169351
0.024353
0.0297556
0.0296982
0.0284431
0.031216
0.0388694
0.0324275
0.00750424
-0.0425755
-0.105562
-0.148605
-0.145645
-0.0999114
-0.0554829
-0.017314
0.00782979
0.0271431
0.0517995
0.0385086
0.00888633
-0.0613542
-0.100198
-0.107601
-0.0958059
-0.0230972
0.0148797
-0.137333
-0.142667
-0.137053
-0.123949
-0.10875
-0.0941021
-0.0803117
-0.0666497
-0.0524889
-0.0377177
-0.0227032
-0.00796997
0.00611173
0.0192984
0.0312085
0.0415921
0.0503468
0.0573149
0.0612473
0.0616392
0.0603937
0.0598008
0.0585298
0.0521788
0.0382736
0.0171302
-0.00339897
-0.0147217
-0.0166964
-0.01213
-0.00467809
0.00377537
0.0129097
0.0209819
0.0269741
0.0316146
0.031384
0.0297965
0.0315869
0.0389451
0.0332946
0.0110684
-0.0311799
-0.0855342
-0.124481
-0.12425
-0.08523
-0.0464768
-0.0121673
0.0110084
0.0273232
0.051955
0.0381668
0.0101166
-0.0584621
-0.0968535
-0.102095
-0.0915208
-0.0239627
0.0140867
-0.119421
-0.124652
-0.120281
-0.109149
-0.0958581
-0.0828461
-0.0705376
-0.0583952
-0.0458438
-0.0327144
-0.0192702
-0.00596194
0.00684007
0.0188975
0.0299048
0.0396429
0.0479826
0.0547308
0.0591045
0.0607335
0.0608623
0.0611005
0.0604431
0.0555267
0.0445532
0.0280815
0.0120507
0.00177132
-0.00177098
0.000149602
0.00491396
0.0108754
0.0179132
0.0244991
0.029193
0.0329552
0.0325633
0.0306411
0.0315375
0.0378107
0.0332895
0.0148343
-0.0191414
-0.0647834
-0.0987431
-0.10088
-0.0692826
-0.0371529
-0.00721391
0.0137025
0.0269078
0.0509136
0.0369222
0.0113591
-0.0545985
-0.0923003
-0.0951535
-0.0856363
-0.0242289
0.012927
-0.103581
-0.1083
-0.104871
-0.0954685
-0.0839488
-0.0725034
-0.061611
-0.0508839
-0.0398258
-0.0282461
-0.0163161
-0.00439751
0.00715631
0.0181021
0.0281905
0.0372388
0.0451
0.0515893
0.0562091
0.0586994
0.0597925
0.0604674
0.0601321
0.0565839
0.048425
0.0360416
0.0235334
0.0144103
0.0100553
0.0101328
0.0128713
0.0168691
0.022092
0.0273926
0.0310686
0.0339437
0.0334821
0.0312999
0.0314125
0.0359902
0.0324644
0.0177883
-0.00811063
-0.0445074
-0.0726995
-0.0763304
-0.0528274
-0.0277874
-0.00260523
0.0157501
0.0261267
0.048551
0.0347409
0.0124429
-0.0496895
-0.0863759
-0.0868459
-0.0781663
-0.0237114
0.0114413
-0.0889921
-0.0933334
-0.090756
-0.0828913
-0.0729876
-0.0630095
-0.0534558
-0.0440514
-0.0343728
-0.0242213
-0.0137042
-0.00311661
0.0072227
0.0170844
0.0262595
0.0345856
0.0419201
0.0480921
0.0527818
0.0558045
0.0575525
0.0585584
0.0585151
0.0559937
0.0499739
0.0407718
0.0311816
0.0234342
0.0189594
0.0179445
0.0193058
0.0218734
0.0255985
0.0297428
0.0325948
0.0346743
0.0342073
0.032023
0.0315289
0.0341032
0.0309274
0.019725
0.00160955
-0.0255468
-0.0478658
-0.053314
-0.0368106
-0.0186332
0.00162984
0.0171461
0.0253568
0.0448004
0.0317246
0.013393
-0.0434746
-0.0788432
-0.0773334
-0.0692815
-0.0222497
0.00972447
-0.075729
-0.0798215
-0.0779524
-0.0714082
-0.0629421
-0.0543025
-0.0459869
-0.0378017
-0.0293847
-0.0205432
-0.0113418
-0.00201472
0.00716299
0.0159794
0.0242536
0.0318407
0.0386238
0.044435
0.0490608
0.0523616
0.0545145
0.0557624
0.0559425
0.0541533
0.0497915
0.0430795
0.0358537
0.0295743
0.0254625
0.0239188
0.0243626
0.0258897
0.0284377
0.0315785
0.0337472
0.0352279
0.0347688
0.0327974
0.0319663
0.0329739
0.0293324
0.0212641
0.0100575
-0.00872978
-0.0255803
-0.0322884
-0.0221532
-0.0100094
0.00543844
0.018053
0.0250526
0.0399292
0.0284321
0.0145217
-0.0356203
-0.0694359
-0.0668606
-0.0593613
-0.0197858
0.00791378
-0.0639313
-0.0676673
-0.0663386
-0.0609281
-0.0537362
-0.046306
-0.0391208
-0.0320484
-0.0247825
-0.0171409
-0.00915257
-0.000999522
0.00708331
0.0149016
0.0222933
0.0291262
0.0353641
0.040784
0.0452373
0.0486173
0.0509741
0.0523886
0.0527792
0.0516
0.0485491
0.0437543
0.0384174
0.0335097
0.0299932
0.0282908
0.0281861
0.0290016
0.0306828
0.0329915
0.0345595
0.0356276
0.0351973
0.0335533
0.0326225
0.0329863
0.0287799
0.023103
0.0171249
0.00514701
-0.00718674
-0.0146473
-0.0096838
-0.00224757
0.00881433
0.0188301
0.025482
0.0348729
0.0259146
0.016344
-0.0258755
-0.057934
-0.0557642
-0.0490243
-0.0163916
0.00617451
-0.0532872
-0.0566748
-0.0557992
-0.0513728
-0.0453074
-0.03896
-0.0327955
-0.0267323
-0.0205104
-0.0139556
-0.0070699
4.84861e-06
0.00706903
0.0139485
0.0204873
0.0264838
0.0322694
0.037277
0.0414765
0.0447967
0.0472268
0.048765
0.0493697
0.0487187
0.0466922
0.043369
0.0395234
0.0358157
0.0329747
0.0313507
0.0309668
0.0313136
0.0323665
0.0340263
0.035085
0.0358731
0.0355134
0.0342162
0.0333978
0.0338592
0.0301569
0.0262168
0.0232292
0.0155876
0.00634042
-0.00119632
0.000249212
0.00440274
0.0118122
0.0197923
0.0263139
0.0310553
0.0252536
0.0193478
-0.0144481
-0.0444944
-0.044513
-0.0390765
-0.0123102
0.0046702
-0.0436714
-0.0467819
-0.0462764
-0.0426845
-0.0376012
-0.0322145
-0.0269652
-0.0218079
-0.0165195
-0.0109356
-0.00504244
0.00105037
0.00718167
0.0132137
0.0190459
0.0246594
0.0295546
0.0340393
0.0379195
0.0410924
0.0435107
0.0451343
0.045939
0.0457403
0.0445126
0.0423184
0.0396467
0.0369444
0.0347603
0.0333426
0.0328574
0.0329328
0.0335418
0.03472
0.0353976
0.0359561
0.035723
0.0347592
0.0342138
0.0350706
0.0335525
0.0305145
0.02871
0.0229198
0.0154962
0.0085215
0.00789673
0.00985841
0.0145715
0.0210716
0.0271216
0.0294429
0.0271654
0.0235331
-0.00240673
-0.030051
-0.0336467
-0.0269581
-0.00795655
0.00352922
-0.0350996
-0.0379157
-0.0376814
-0.0347906
-0.0305627
-0.0260255
-0.0215873
-0.0172297
-0.0127657
-0.00804502
-0.00304283
0.00216167
0.00743618
0.0126625
0.0177401
0.0225899
0.0270394
0.0310923
0.0346492
0.0376329
0.0399859
0.0416605
0.0426385
0.042816
0.0422088
0.0408726
0.0391215
0.0372306
0.0356379
0.0344925
0.0340181
0.0339679
0.0342817
0.0351015
0.0355358
0.0358964
0.0358133
0.0351761
0.0349194
0.0360167
0.0357123
0.0343043
0.0327832
0.0276721
0.0215058
0.0154486
0.0136979
0.0141841
0.0171915
0.0224787
0.0275559
0.029826
0.030086
0.0275739
0.0081758
-0.0164461
-0.0239352
-0.0194346
-0.00410203
0.00277914
-0.0274298
-0.0299509
-0.0299271
-0.0276306
-0.0241423
-0.0203459
-0.016618
-0.0129626
-0.00922455
-0.00526663
-0.00105576
0.00335289
0.00785093
0.0123392
0.0167228
0.0209365
0.0248787
0.0285074
0.0317378
0.0345081
0.03676
0.0384513
0.0395623
0.0400394
0.0399091
0.0392205
0.0381904
0.0369405
0.0358488
0.0349948
0.0345947
0.034511
0.0346565
0.03521
0.0355103
0.0357258
0.0357648
0.0354367
0.0354069
0.0364953
0.0367866
0.0363197
0.034884
0.0303515
0.0253078
0.0202809
0.0180154
0.0175417
0.0196167
0.0237115
0.0276467
0.0308015
0.0316739
0.0297889
0.0153392
-0.00570546
-0.0157547
-0.0132547
-0.00117304
0.00234395
-0.0205393
-0.0228075
-0.0229494
-0.0211472
-0.0182901
-0.0151372
-0.0120302
-0.00898699
-0.00588086
-0.00258855
0.000927972
0.00463213
0.008436
0.0122577
0.0160152
0.0196573
0.0231083
0.0263239
0.0292284
0.0317711
0.0338963
0.0355693
0.0367694
0.03747
0.0376957
0.0374882
0.0370283
0.0362551
0.0355757
0.0350046
0.0347161
0.0346519
0.0347269
0.0350899
0.0353231
0.0354581
0.0355625
0.0354867
0.0356275
0.0364753
0.036892
0.0367628
0.0354526
0.0316065
0.0275527
0.0234838
0.0211304
0.0201218
0.0216713
0.0246465
0.0275572
0.0310293
0.0312196
0.0296258
0.0185733
0.00127215
-0.00917607
-0.00832604
0.000646962
0.00206174
-0.0143926
-0.0164258
-0.0166839
-0.0152873
-0.0129661
-0.0103667
-0.00779563
-0.00528075
-0.00272023
-4.4161e-06
0.00290763
0.00599414
0.00918434
0.0124117
0.0156085
0.0187345
0.0217276
0.02455
0.0271359
0.0294445
0.0314244
0.033047
0.0342909
0.0351425
0.0356176
0.0357313
0.0355627
0.0352867
0.0349647
0.0346531
0.034494
0.0344752
0.0345413
0.0347831
0.0349818
0.0350911
0.0352037
0.0352602
0.0352038
0.0360101
0.0363913
0.0362946
0.0351344
0.0319886
0.0287352
0.0254697
0.0232906
0.0220562
0.023195
0.0252557
0.0273023
0.0302766
0.0300256
0.0285168
0.0195389
0.00527346
-0.00406943
-0.00442787
0.00158724
0.00178043
-0.00892539
-0.0107286
-0.0110611
-0.00999488
-0.00812516
-0.00599867
-0.00388815
-0.00182795
0.00026417
0.00248488
0.0048752
0.00742398
0.0100766
0.0127801
0.0154785
0.0181407
0.0207155
0.0231713
0.0254529
0.0275258
0.0293462
0.0308909
0.0321387
0.033079
0.0337247
0.0340833
0.0342232
0.0342152
0.0341497
0.0340511
0.0340186
0.0340571
0.0341466
0.034325
0.0345016
0.0346169
0.0347144
0.0348498
0.0348364
0.0353187
0.0355626
0.0353842
0.0343631
0.0318545
0.0292298
0.0266039
0.0247165
0.0235114
0.0241584
0.0255508
0.0269077
0.0289343
0.0285544
0.0270803
0.0195317
0.00761483
-0.000258734
-0.00141027
0.00197738
0.00146328
-0.00404455
-0.00563552
-0.00601664
-0.00522132
-0.00373156
-0.00200783
-0.000290685
0.00138201
0.00307605
0.00487543
0.00681928
0.00890426
0.0110884
0.0133294
0.0155878
0.0178431
0.0200421
0.0221603
0.024154
0.0259949
0.0276475
0.0290909
0.030307
0.0312849
0.0320345
0.0325574
0.0329002
0.0330952
0.033218
0.0332853
0.033365
0.033464
0.0335878
0.0337442
0.0339039
0.0340325
0.0341108
0.0342605
0.0342516
0.0344841
0.034571
0.0342984
0.0333883
0.0314148
0.0292899
0.0271615
0.0256023
0.0244811
0.0246423
0.0255312
0.0263509
0.0273593
0.0268534
0.0253862
0.0190332
0.00911617
0.00250332
0.000853326
0.00218249
0.00122182
0.000297995
-0.00109421
-0.00150177
-0.000926018
0.000246877
0.00163145
0.00301621
0.00436189
0.00572025
0.00716397
0.00872999
0.0104183
0.0121922
0.0140032
0.0159225
0.0178153
0.0196739
0.021481
0.0232045
0.0248202
0.0262999
0.0276244
0.0287797
0.0297537
0.0305515
0.0311701
0.0316397
0.031977
0.032234
0.0324244
0.0325948
0.0327501
0.0329078
0.0330651
0.0332121
0.0333456
0.0334089
0.0335318
0.0335119
0.0335742
0.0335195
0.0331723
0.0323497
0.0307947
0.0290734
0.0273296
0.0260245
0.0250086
0.0247618
0.0252202
0.0255324
0.0257928
0.0250902
0.0235763
0.0182739
0.0101124
0.00446558
0.00251238
0.00239991
0.0010688
0.00413456
0.00291267
0.00250559
0.00291795
0.00383812
0.00494421
0.00604682
0.00711716
0.00819513
0.00934388
0.010599
0.0119663
0.0134354
0.0149866
0.0164908
0.0180298
0.0195707
0.0210907
0.022562
0.023962
0.0252683
0.0264626
0.0275337
0.0284695
0.029271
0.0299332
0.0304733
0.0308998
0.0312454
0.0315211
0.0317583
0.0319603
0.0321452
0.0323106
0.0324497
0.0325775
0.0326296
0.0327094
0.0326693
0.0326202
0.0324582
0.0320654
0.0313182
0.0300725
0.0286724
0.0272251
0.0260819
0.0251636
0.0246346
0.0247085
0.0247057
0.0243588
0.0233938
0.0218061
0.0174046
0.0107384
0.00583157
0.00370353
0.00266172
0.000999839
0.00753424
0.00647027
0.0060638
0.00633584
0.00703733
0.00790433
0.00878714
0.00963786
0.0104888
0.0113941
0.0123881
0.0134806
0.0146458
0.0158688
0.0171181
0.0183875
0.0196633
0.0209329
0.0221767
0.0233756
0.0245123
0.0255709
0.0265421
0.027414
0.0281814
0.0288506
0.0294191
0.029892
0.0302877
0.0306156
0.0308957
0.0311305
0.0313335
0.0315056
0.0316396
0.0317539
0.0317952
0.0318315
0.0317665
0.0316473
0.0314156
0.0310007
0.0303206
0.0292978
0.0281412
0.0269239
0.0258789
0.0250271
0.0243323
0.0240644
0.0237949
0.0230612
0.0218429
0.0201763
0.0165173
0.011079
0.0067586
0.00453399
0.00294139
0.00100262
0.0105388
0.00962184
0.00923164
0.00939768
0.00992476
0.0105969
0.0112814
0.0119414
0.0125997
0.0133007
0.0140741
0.0149294
0.015853
0.0168286
0.0178374
0.0188695
0.0199146
0.0209635
0.0220026
0.0230164
0.0239912
0.0249138
0.0257767
0.02657
0.0272896
0.0279268
0.0284869
0.0289705
0.0293851
0.0297373
0.0300383
0.0302903
0.0305017
0.0306747
0.0308025
0.0308997
0.0309289
0.0309256
0.0308376
0.0306759
0.0304046
0.0299841
0.0293622
0.0285002
0.0275179
0.0264784
0.0254994
0.024674
0.023902
0.023349
0.02284
0.0218836
0.0204744
0.0187364
0.0156598
0.0112016
0.00736183
0.00509131
0.00319502
0.00104675
0.013194
0.0124044
0.012034
0.0121176
0.0125026
0.0130126
0.0135354
0.0140376
0.0145366
0.0150691
0.0156612
0.0163225
0.0170442
0.0178133
0.0186153
0.0194424
0.020287
0.021142
0.0219978
0.0228429
0.0236657
0.0244554
0.0252053
0.0259079
0.0265578
0.0271478
0.0276765
0.0281444
0.028553
0.0289064
0.0292095
0.0294638
0.0296736
0.0298399
0.0299585
0.0300369
0.0300527
0.0300198
0.0299099
0.0297219
0.0294298
0.0290149
0.0284403
0.0276957
0.0268349
0.0259237
0.0250023
0.0241756
0.0233613
0.022604
0.0218825
0.0208046
0.0192883
0.017497
0.0148523
0.0111612
0.00772543
0.00544474
0.00339148
0.00110209
0.015522
0.0148465
0.0145027
0.0145256
0.0147966
0.0151734
0.015563
0.0159358
0.0163046
0.0166994
0.0171428
0.0176441
0.0181979
0.0187941
0.0194213
0.0200733
0.0207449
0.0214309
0.0221242
0.0228163
0.0234983
0.0241611
0.0247987
0.0254058
0.0259762
0.0265042
0.0269848
0.0274176
0.0278009
0.0281368
0.0284265
0.0286699
0.0288684
0.0290209
0.0291259
0.0291835
0.0291842
0.0291285
0.0290004
0.0287962
0.0284939
0.0280903
0.027553
0.026891
0.0261177
0.0252923
0.0244229
0.023583
0.0227364
0.0218536
0.02096
0.0198086
0.01826
0.016443
0.014103
0.0110033
0.00791291
0.00564302
0.00351843
0.00115099
0.0175604
0.0169873
0.0166722
0.0166494
0.0168284
0.0170964
0.0173771
0.0176443
0.0179072
0.0181901
0.0185122
0.0188824
0.0192973
0.0197492
0.0202293
0.0207328
0.0212562
0.0217962
0.0223472
0.0229025
0.0234556
0.024
0.0245294
0.0250401
0.025528
0.0259841
0.0264053
0.0267895
0.0271337
0.027438
0.0277018
0.0279225
0.0281011
0.028234
0.0283204
0.0283576
0.0283396
0.0282652
0.0281211
0.0279063
0.0275995
0.0272069
0.0266992
0.0260928
0.0253839
0.0246135
0.0237856
0.0229365
0.0220594
0.0211082
0.0200925
0.0188879
0.0173564
0.0155481
0.0134174
0.0107642
0.00796949
0.00572336
0.00357786
0.00118457
0.0193407
0.0188556
0.0185687
0.0185123
0.0186185
0.0187985
0.0189904
0.0191717
0.019349
0.0195414
0.0197653
0.0200284
0.0203289
0.020661
0.0210181
0.0213966
0.0217941
0.0222085
0.0226356
0.0230708
0.023508
0.0239429
0.0243707
0.0247883
0.0251905
0.0255734
0.0259284
0.0262559
0.0265515
0.0268142
0.0270427
0.0272325
0.0273838
0.027491
0.0275541
0.0275687
0.0275316
0.0274397
0.0272809
0.0270572
0.0267488
0.0263639
0.0258797
0.025309
0.0246458
0.0239129
0.0231137
0.0222646
0.0213607
0.0203736
0.0192862
0.0180415
0.0165494
0.0147831
0.0127968