/*--------------------------------*- C++ -*----------------------------------*\
| =========                 |                                                 |
| \\      /  F ield         | OpenFOAM: The Open Source CFD Toolbox           |
|  \\    /   O peration     | Version:  2312                                  |
|   \\  /    A nd           | Website:  www.openfoam.com                      |
|    \\/     M anipulation  |                                                 |
\*---------------------------------------------------------------------------*/
FoamFile
{
    version     2.0;
    format      ascii;
    arch        "LSB;label=32;scalar=64";
    class       volVectorField;
    location    "197.25";
    object      U;
}
// * * * * * * * * * * * * * * * * * * * * * * * * * * * * * * * * * * * * * //

dimensions      [0 1 -1 0 0 0 0];

internalField   nonuniform List<vector> 
5478
(
(-0.0439302 0.0269982 -8.43585e-20)
(-0.0789454 0.0440686 0)
(-0.0606646 0.0444179 1.25857e-19)
(0.0320859 0.0397444 -2.19018e-19)
(0.21313 0.0336398 1.40751e-19)
(0.463493 0.0300649 -4.28384e-20)
(0.738274 0.0309751 -7.1345e-20)
(0.992275 0.0333814 0)
(1.19337 0.0335583 0)
(1.3237 0.0257292 9.46476e-20)
(1.38251 0.0105813 -4.23972e-20)
(1.38532 -0.0103044 -7.28804e-20)
(1.35256 -0.0440166 -2.87391e-20)
(1.32553 -0.048428 0)
(1.30661 -0.114806 7.79118e-20)
(-0.0540119 0.0326735 1.69558e-19)
(-0.0678744 0.044776 0)
(0.0104327 0.0365276 0)
(0.202258 0.0281859 -1.11143e-19)
(0.487489 0.0295543 1.45733e-19)
(0.793941 0.0399293 4.10528e-20)
(1.05572 0.0525261 -7.01983e-20)
(1.23827 0.0602358 6.22444e-20)
(1.33596 0.0584217 1.54268e-19)
(1.36517 0.0467505 -1.35037e-19)
(1.35648 0.0296914 3.07781e-21)
(1.33604 0.00703183 0)
(1.32609 -0.0086699 2.86894e-20)
(1.31402 -0.0318781 0)
(1.29313 -0.0515102 0)
(-0.0559542 0.0305024 -5.05379e-22)
(-0.029813 0.0344279 -8.01831e-20)
(0.141248 0.0260651 6.65541e-22)
(0.45083 0.0325153 0)
(0.796002 0.0535632 -4.99745e-20)
(1.07599 0.075703 4.2114e-20)
(1.25138 0.0887482 3.52599e-20)
(1.33105 0.0894229 0)
(1.34879 0.0799388 -5.12958e-20)
(1.34209 0.0661351 4.3473e-20)
(1.33165 0.0492996 3.67223e-20)
(1.3235 0.0359049 0)
(1.30608 0.0162349 0)
(1.28196 0.00703361 -7.75587e-20)
(1.25753 -0.015159 6.90805e-20)
(-0.0476101 0.0223287 -9.41239e-20)
(0.0473946 0.0160551 7.90468e-20)
(0.345036 0.0249057 -6.8192e-20)
(0.735295 0.0603742 6.04389e-20)
(1.05423 0.0965027 1.00634e-19)
(1.24422 0.117309 -8.41264e-20)
(1.32582 0.121258 -3.52408e-20)
(1.346 0.114042 2.76068e-20)
(1.34323 0.102551 -2.63537e-20)
(1.33306 0.0885831 0)
(1.31835 0.0757092 0)
(1.29703 0.0587737 -5.25969e-20)
(1.27734 0.0468936 6.85294e-20)
(1.26126 0.0305325 -3.86133e-20)
(1.24692 0.0141518 0)
(-0.0258712 0.0111279 4.77483e-20)
(0.17788 0.00334999 4.00709e-20)
(0.597235 0.0504802 -1.44649e-19)
(0.982185 0.108644 2.21939e-21)
(1.21571 0.143883 -1.40145e-21)
(1.31844 0.154756 -1.53822e-21)
(1.34741 0.150803 3.38894e-20)
(1.34495 0.140642 2.85564e-20)
(1.32996 0.127557 2.07596e-20)
(1.31061 0.11411 -3.0751e-21)
(1.29125 0.0987316 -4.73025e-20)
(1.27626 0.0857973 0)
(1.26156 0.0714478 2.16414e-20)
(1.24393 0.0577272 -1.61915e-20)
(1.22443 0.0479427 2.89239e-20)
(0.0162017 -0.000132991 -1.04317e-19)
(0.36311 0.0150085 1.12492e-19)
(0.835342 0.101601 -3.87893e-20)
(1.15258 0.164084 2.89344e-20)
(1.30099 0.189064 -5.35696e-20)
(1.34706 0.190676 -3.97002e-20)
(1.34647 0.181624 1.24075e-21)
(1.32939 0.168359 0)
(1.30988 0.154096 4.20294e-20)
(1.29238 0.138983 -3.73759e-20)
(1.27647 0.125283 1.49884e-20)
(1.25853 0.110538 0)
(1.23999 0.09731 9.15366e-21)
(1.22374 0.0834885 -1.62716e-20)
(1.20993 0.0722923 0)
(0.0840488 -0.00376158 -1.30859e-20)
(0.569759 0.0613579 1.29874e-21)
(1.01991 0.166956 1.87806e-20)
(1.25633 0.221364 3.18132e-20)
(1.33903 0.234361 -2.42883e-20)
(1.34776 0.22751 4.07725e-20)
(1.3314 0.213574 -9.23517e-21)
(1.31075 0.198009 0)
(1.29057 0.181935 -2.46907e-20)
(1.27082 0.16636 1.67261e-21)
(1.25165 0.150399 2.05019e-20)
(1.23526 0.135742 0)
(1.22101 0.121478 -1.32989e-20)
(1.20656 0.107601 0)
(1.19124 0.0995457 8.12577e-21)
(0.175507 0.00804205 -1.45485e-20)
(0.7539 0.133334 0)
(1.14773 0.239934 2.00963e-20)
(1.30981 0.27993 0)
(1.345 0.280043 0)
(1.33303 0.265528 0)
(1.30994 0.2475 -7.87258e-21)
(1.28631 0.228921 0)
(1.26482 0.21062 4.98063e-21)
(1.24627 0.192573 0)
(1.23018 0.175924 -6.39173e-21)
(1.21438 0.159699 0)
(1.19881 0.144484 4.14038e-21)
(1.18508 0.130634 0)
(1.17336 0.120034 2.68415e-21)
(-0.00644094 0.0723174 -1.16196e-20)
(-0.0269925 0.191061 0)
(-0.0625669 0.261224 1.80731e-20)
(-0.101069 0.304608 0)
(-0.136432 0.344577 0)
(-0.165396 0.387203 0)
(-0.184974 0.428475 -1.17116e-20)
(-0.192052 0.462592 0)
(-0.183696 0.483705 1.00267e-20)
(-0.157921 0.486084 0)
(-0.113676 0.465545 -1.77484e-20)
(-0.0503839 0.419007 0)
(0.0259753 0.343171 1.5842e-20)
(0.11447 0.237247 0)
(0.200001 0.112253 1.36702e-20)
(-0.00823934 0.0756404 5.75743e-20)
(-0.0243861 0.208793 -4.04407e-20)
(-0.0451841 0.292513 1.71415e-20)
(-0.0673215 0.340024 6.26249e-20)
(-0.0846824 0.375423 3.90244e-22)
(-0.0926297 0.408297 -5.06239e-20)
(-0.0876985 0.436377 3.43595e-20)
(-0.0673119 0.454102 0)
(-0.0296955 0.456298 3.08048e-20)
(0.026461 0.439058 2.30085e-21)
(0.0995614 0.398242 -1.6637e-20)
(0.185908 0.331805 0)
(0.290447 0.247704 -4.70722e-20)
(0.380356 0.12923 0)
(0.494963 0.0215675 -6.91606e-20)
(-0.00934066 0.063867 9.02142e-20)
(-0.0230552 0.199002 1.94353e-20)
(-0.0292211 0.296228 -3.51272e-20)
(-0.0328912 0.351183 -9.21131e-20)
(-0.029755 0.383334 5.39702e-20)
(-0.0151306 0.405736 4.9111e-20)
(0.0143813 0.420032 -8.62507e-20)
(0.0607902 0.422782 0)
(0.124369 0.409626 -7.81013e-20)
(0.203453 0.375635 6.94365e-20)
(0.301552 0.327033 3.27563e-20)
(0.392244 0.244125 0)
(0.521757 0.165864 3.12154e-20)
(0.596088 0.0416977 -5.49039e-20)
(0.748166 -0.0451919 0)
(-0.00861111 0.0431901 4.37537e-20)
(-0.0236199 0.164234 -1.16374e-19)
(-0.0213542 0.267632 1.34975e-19)
(-0.00965571 0.331134 -1.16937e-19)
(0.0125143 0.363963 -5.04745e-20)
(0.0478681 0.378615 4.45585e-20)
(0.0984774 0.380515 4.27223e-20)
(0.165352 0.368775 3.6339e-20)
(0.247563 0.345844 -1.06068e-19)
(0.34055 0.297316 -4.04929e-21)
(0.450187 0.251098 2.81861e-20)
(0.546061 0.160329 0)
(0.693343 0.0996413 5.37077e-20)
(0.776582 -0.0297005 1.61177e-19)
(0.971475 -0.11577 -9.43853e-20)
(-0.0069967 0.0227404 -5.17095e-22)
(-0.026486 0.117204 7.49195e-20)
(-0.0252717 0.212064 -6.47665e-20)
(-0.00678356 0.276679 5.77798e-20)
(0.027943 0.309972 9.85305e-20)
(0.0785367 0.320079 -8.64088e-20)
(0.144471 0.313963 -3.70522e-20)
(0.224881 0.292708 -1.07208e-19)
(0.318369 0.264148 9.6579e-20)
(0.427104 0.212591 0)
(0.549454 0.168863 0)
(0.692362 0.0805498 1.11574e-19)
(0.856248 0.020995 -2.5728e-19)
(1.0056 -0.103196 9.29065e-20)
(1.21386 -0.182799 0)
(-0.00771322 0.0100154 3.52951e-22)
(-0.0341961 0.0748097 -7.39881e-20)
(-0.0415053 0.14668 1.92587e-19)
(-0.025395 0.199123 -5.56282e-20)
(0.01297 0.226041 -4.80953e-20)
(0.0715346 0.231217 4.18855e-20)
(0.150206 0.220824 3.70785e-20)
(0.251813 0.198422 6.56508e-20)
(0.380242 0.16597 -1.16511e-19)
(0.538727 0.122663 5.43868e-20)
(0.716929 0.0708385 5.08752e-20)
(0.920939 0.000804862 0)
(1.10752 -0.0562829 0)
(1.28307 -0.156551 1.63689e-19)
(1.41165 -0.199971 -1.4526e-19)
(-0.0148234 0.00853687 -3.34418e-22)
(-0.0502325 0.0486736 0)
(-0.0672598 0.0912774 0)
(-0.0544346 0.122481 1.05531e-19)
(-0.00878276 0.136889 -4.73984e-20)
(0.0738248 0.135705 3.93953e-20)
(0.199438 0.122629 6.95136e-20)
(0.368255 0.102147 -6.16316e-20)
(0.572727 0.0723415 5.82815e-20)
(0.794002 0.0422259 -5.44399e-20)
(1.01654 -0.00118921 -3.67213e-21)
(1.20958 -0.0395234 0)
(1.35806 -0.0881484 3.759e-20)
(1.44346 -0.144672 0)
(1.43946 -0.166354 0)
(-0.0288647 0.0164217 -8.26459e-20)
(-0.0699544 0.0408496 0)
(-0.0831646 0.0576676 -1.23798e-19)
(-0.0510177 0.0677396 2.14742e-19)
(0.039986 0.0690207 -2.29739e-19)
(0.196172 0.0620843 -3.80878e-20)
(0.40878 0.0512549 6.97106e-20)
(0.653427 0.0395838 0)
(0.899655 0.026329 0)
(1.11931 0.012546 -1.01657e-19)
(1.28718 -0.0120647 -4.7472e-20)
(1.39084 -0.0302538 8.076e-20)
(1.42609 -0.0747246 -3.76666e-20)
(1.39683 -0.0943529 0)
(1.35084 -0.126465 -9.7015e-20)
(0.347927 -0.147035 0)
(0.516073 -0.540228 4.62145e-21)
(0.582127 -0.800514 -4.25005e-21)
(0.657507 -0.749367 0)
(0.628734 -0.721174 0)
(0.390821 -0.726293 -8.74722e-23)
(0.471979 -0.295041 0)
(0.638278 0.144864 0)
(0.816934 0.461873 6.25135e-23)
(0.882243 0.479401 0)
(0.858591 0.576056 0)
(0.759268 0.633149 -8.26599e-23)
(0.746743 0.34162 0)
(0.882064 0.150363 -7.90642e-23)
(0.975264 -0.227833 -8.81569e-23)
(0.974516 -0.422149 0)
(1.02698 -0.541061 -5.13425e-22)
(1.0169 -0.556895 6.09715e-22)
(1.01049 -0.113875 0)
(1.02578 0.126845 5.49611e-22)
(1.09215 0.514801 -6.36112e-22)
(1.1024 0.613578 1.28931e-22)
(1.0623 0.115902 -2.28478e-22)
(1.11767 -0.130981 2.18314e-22)
(1.10716 -0.515054 -2.03729e-22)
(1.13504 -0.580794 0)
(1.16755 0.329927 -2.4891e-22)
(1.09245 0.658456 2.38002e-22)
(1.08538 -0.033089 -1.41789e-22)
(1.01757 -0.34226 0)
(1.01157 -0.030604 -7.90352e-23)
(0.993266 0.112084 0)
(0.982925 0.0182404 -3.85476e-23)
(0.976463 -0.0231041 -1.34072e-23)
(0.974144 -0.00243395 1.21404e-24)
(0.968572 0.00613783 -8.49359e-24)
(0.967965 0.00232942 0)
(0.962976 0.00113308 2.52695e-24)
(0.621087 -0.242865 2.56744e-20)
(0.797625 -0.590127 -1.666e-22)
(0.811099 -0.825934 -1.23007e-20)
(0.74098 -0.78894 1.17323e-20)
(0.738231 -0.659645 0)
(0.486714 -0.657194 8.81482e-23)
(0.422637 -0.348634 -1.20561e-22)
(0.557005 0.0330756 0)
(0.76728 0.382486 -6.29871e-23)
(0.852107 0.46655 0)
(0.776885 0.611994 0)
(0.697061 0.653246 8.32591e-23)
(0.70683 0.313455 0)
(0.892452 0.0993556 2.86321e-21)
(1.00559 -0.240705 -2.39111e-21)
(0.996058 -0.43665 2.51447e-21)
(1.06076 -0.551575 -2.40014e-21)
(1.02175 -0.558452 -1.2023e-22)
(1.01864 -0.114466 0)
(1.00591 0.105849 0)
(1.05885 0.496 -1.33876e-22)
(1.09873 0.611783 9.34772e-22)
(1.0502 0.122929 -1.6178e-21)
(1.13183 -0.137869 7.88345e-22)
(1.12371 -0.512259 5.83891e-22)
(1.10308 -0.586914 0)
(1.14417 0.330629 6.74453e-22)
(1.09378 0.654448 0)
(1.10148 -0.022072 1.42286e-22)
(1.02482 -0.338368 -2.52721e-22)
(1.00608 -0.0295963 4.06305e-22)
(0.992148 0.113315 -4.25926e-23)
(0.986433 0.0195084 7.26304e-23)
(0.97947 -0.0224886 3.69535e-24)
(0.976152 -0.00193604 1.55001e-23)
(0.97114 0.00649945 -7.36497e-24)
(0.970792 0.00263236 -6.7449e-25)
(0.966052 0.00141162 6.22525e-25)
(0.856348 -0.317182 4.67043e-20)
(1.00379 -0.619565 -8.08793e-20)
(1.01539 -0.770164 1.08238e-20)
(0.835496 -0.756331 2.30107e-20)
(0.790591 -0.59996 1.81115e-22)
(0.600426 -0.582095 -1.3481e-22)
(0.464785 -0.383862 1.22631e-22)
(0.541526 -0.080828 -1.54429e-22)
(0.728342 0.297255 0)
(0.850027 0.461752 6.82362e-21)
(0.773693 0.64453 -6.50921e-21)
(0.693982 0.677619 -1.97447e-22)
(0.711399 0.294228 0)
(0.908556 0.0472048 -5.78191e-21)
(1.03597 -0.238341 5.33649e-21)
(1.02502 -0.432301 -2.53635e-21)
(1.08609 -0.549924 2.42009e-21)
(1.02116 -0.559094 2.629e-21)
(1.02309 -0.118559 -2.24743e-21)
(0.986098 0.0919128 0)
(1.0195 0.477692 0)
(1.08904 0.611413 1.49216e-21)
(1.03985 0.135786 -1.42435e-21)
(1.13746 -0.13907 -1.50036e-21)
(1.13292 -0.499272 -5.9371e-22)
(1.05996 -0.592719 1.89948e-21)
(1.11252 0.323601 3.67466e-23)
(1.09049 0.654172 -7.03269e-22)
(1.11153 -0.00221076 1.20938e-21)
(1.02791 -0.328821 -1.06689e-21)
(0.997295 -0.0286412 5.87535e-23)
(0.987895 0.113851 -1.38232e-22)
(0.986731 0.021092 4.97448e-23)
(0.979403 -0.0215077 -4.75626e-23)
(0.975183 -0.00144115 -1.00028e-23)
(0.970867 0.00681091 -5.16426e-24)
(0.970777 0.00291788 1.57257e-23)
(0.966454 0.0016769 2.45257e-24)
(1.08973 -0.360704 0)
(1.16102 -0.624658 3.29825e-20)
(1.12844 -0.706725 -3.24173e-20)
(0.922204 -0.693663 0)
(0.81365 -0.548374 -1.86152e-22)
(0.697433 -0.509091 1.38512e-22)
(0.563868 -0.400003 0)
(0.615809 -0.185083 2.44276e-23)
(0.750533 0.193103 -1.53982e-22)
(0.854176 0.428039 0)
(0.708601 0.665291 -7.01895e-21)
(0.644872 0.705613 6.89495e-21)
(0.731975 0.28016 -4.59697e-22)
(0.930852 -6.77167e-05 -6.08319e-21)
(1.06314 -0.241811 5.79985e-21)
(1.05465 -0.430126 3.29851e-22)
(1.10199 -0.547782 0)
(1.01501 -0.560935 -2.80302e-22)
(1.02684 -0.131967 5.35955e-21)
(0.970281 0.0707254 -2.68258e-23)
(0.973822 0.444492 -9.99255e-22)
(1.06329 0.60298 -3.32945e-21)
(1.02732 0.148576 -2.30094e-21)
(1.13349 -0.138324 2.75888e-21)
(1.13717 -0.482893 -3.51477e-22)
(1.01428 -0.595184 0)
(1.07196 0.299377 -7.2762e-22)
(1.07645 0.641099 7.12575e-22)
(1.11327 0.014034 -1.11803e-21)
(1.02715 -0.317935 9.77386e-22)
(0.985763 -0.0295086 -1.87159e-22)
(0.980599 0.112836 0)
(0.983812 0.0224238 -4.76823e-23)
(0.976374 -0.0204441 8.84722e-23)
(0.971434 -0.00104599 3.0795e-23)
(0.967921 0.00703098 2.95262e-23)
(0.968066 0.00316503 -1.57368e-23)
(0.964296 0.00191775 -5.30302e-26)
(1.30115 -0.375404 5.63974e-22)
(1.29591 -0.557501 1.06609e-21)
(1.17627 -0.60294 0)
(0.994534 -0.602714 0)
(0.84232 -0.508841 0)
(0.774515 -0.457953 0)
(0.666073 -0.411134 5.16061e-21)
(0.701993 -0.279904 -9.73741e-21)
(0.799511 0.0951278 4.87169e-21)
(0.853698 0.42688 0)
(0.709872 0.714624 -7.17893e-21)
(0.699075 0.732433 7.05116e-21)
(0.800532 0.27706 8.0119e-21)
(0.971637 -0.0386128 -6.74968e-21)
(1.08748 -0.240635 5.76708e-21)
(1.07842 -0.414194 -5.83475e-21)
(1.10708 -0.532885 -2.66837e-22)
(1.00052 -0.563324 -5.23885e-21)
(1.01982 -0.148685 4.9931e-21)
(0.948376 0.0608543 7.04902e-22)
(0.927231 0.422666 6.03132e-22)
(1.03697 0.598128 2.02726e-21)
(1.01779 0.164807 -2.32481e-21)
(1.124 -0.131193 -5.99065e-22)
(1.13597 -0.4587 -2.68788e-22)
(0.96752 -0.598718 -6.58424e-22)
(1.02497 0.273348 0)
(1.06206 0.636063 0)
(1.10982 0.0367361 0)
(1.02365 -0.302237 0)
(0.972381 -0.0300921 4.93789e-22)
(0.971117 0.111471 -2.89861e-22)
(0.97823 0.0239686 9.15347e-23)
(0.970843 -0.0191209 -2.68716e-22)
(0.965332 -0.000639985 3.0597e-23)
(0.962629 0.00719782 5.75236e-24)
(0.962956 0.00338503 -1.94662e-23)
(0.959823 0.00213311 -6.12288e-24)
(1.40736 -0.343909 -5.93825e-22)
(1.34384 -0.455679 5.44476e-20)
(1.19142 -0.496825 -5.23469e-20)
(1.05473 -0.516216 -2.89943e-20)
(0.902944 -0.463662 2.7614e-20)
(0.828581 -0.419305 1.56411e-20)
(0.759566 -0.404916 -1.45674e-20)
(0.726264 -0.35684 1.6699e-22)
(0.83172 -0.0119762 -1.65856e-22)
(0.880488 0.344519 0)
(0.717806 0.665138 -2.3118e-22)
(0.664459 0.753218 1.62287e-20)
(0.814821 0.309094 -1.54423e-20)
(1.00458 -0.0431126 -4.48231e-22)
(1.11036 -0.229999 0)
(1.10347 -0.393574 -5.20014e-21)
(1.1118 -0.512273 9.64665e-21)
(0.987899 -0.564056 -4.19582e-21)
(1.00579 -0.175191 0)
(0.927883 0.0387291 4.86006e-21)
(0.881617 0.379708 -2.0193e-21)
(0.990818 0.581509 -3.73567e-21)
(1.00054 0.181203 -2.11557e-21)
(1.11227 -0.120185 2.09018e-21)
(1.12745 -0.432153 -3.73255e-21)
(0.927877 -0.596598 -2.2303e-21)
(0.973747 0.231419 6.30652e-21)
(1.03515 0.615754 -1.77585e-21)
(1.0972 0.0550153 1.68832e-21)
(1.01789 -0.287113 -4.59687e-22)
(0.957647 -0.0325049 4.37135e-22)
(0.95941 0.108603 0)
(0.97018 0.0252415 8.82093e-23)
(0.963233 -0.0177677 -9.53023e-24)
(0.957365 -0.000345294 0)
(0.95541 0.00727042 -2.94255e-23)
(0.955863 0.00355449 1.27377e-23)
(0.953391 0.00231195 -2.33834e-24)
(1.3774 -0.266953 0)
(1.30902 -0.349883 0)
(1.1928 -0.399629 -1.69126e-22)
(1.0843 -0.447077 0)
(0.972941 -0.419682 0)
(0.873365 -0.380676 1.59918e-20)
(0.825877 -0.376355 -1.52154e-20)
(0.725186 -0.410995 1.26848e-20)
(0.778605 -0.136548 -1.20529e-20)
(0.856958 0.32355 0)
(0.679455 0.706343 -2.18198e-22)
(0.714119 0.764939 2.20051e-22)
(0.883553 0.302684 -1.69107e-20)
(1.05163 -0.0634135 1.37586e-21)
(1.13119 -0.228512 1.37461e-20)
(1.1209 -0.374676 1.77639e-22)
(1.11235 -0.480908 -1.20009e-22)
(0.978647 -0.564158 1.05375e-20)
(0.983394 -0.203384 -1.0317e-20)
(0.899108 0.0316823 0)
(0.838275 0.360597 0)
(0.959497 0.575672 -1.6057e-22)
(0.988325 0.193836 0)
(1.10571 -0.105658 1.93852e-21)
(1.11283 -0.396886 1.9746e-21)
(0.89553 -0.596826 -3.34591e-21)
(0.924343 0.193617 -5.82942e-21)
(1.01526 0.608577 3.81187e-21)
(1.08334 0.0773658 -6.51294e-23)
(1.01168 -0.268399 0)
(0.943349 -0.0337433 -3.03591e-22)
(0.947062 0.106168 2.87854e-22)
(0.960677 0.0265712 4.63316e-23)
(0.954291 -0.0163434 2.79588e-23)
(0.948179 4.16256e-06 -3.91897e-23)
(0.946811 0.00734189 9.89389e-24)
(0.947315 0.00371484 0)
(0.945454 0.00246416 4.75799e-24)
(1.31164 -0.197142 5.95103e-20)
(1.2767 -0.272162 5.00071e-20)
(1.2098 -0.321266 -6.11992e-21)
(1.1125 -0.387694 -7.0822e-20)
(1.02246 -0.391211 3.00332e-20)
(0.923272 -0.36017 -1.52769e-22)
(0.859828 -0.346334 0)
(0.759594 -0.39942 -9.26211e-23)
(0.677754 -0.267618 -1.10766e-22)
(0.767095 0.130934 0)
(0.708824 0.567761 -1.44753e-20)
(0.714029 0.767819 1.37156e-20)
(0.837891 0.401045 2.58968e-22)
(1.06553 -0.00356148 1.36377e-20)
(1.1508 -0.193585 -1.29536e-20)
(1.14149 -0.342364 1.70337e-22)
(1.11776 -0.447167 1.27648e-22)
(0.976178 -0.555318 0)
(0.955946 -0.235997 1.2795e-20)
(0.865849 -0.000846974 -1.21147e-20)
(0.794712 0.303466 -4.13e-21)
(0.9041 0.550263 2.19772e-21)
(0.95885 0.219233 1.78325e-21)
(1.10506 -0.08345 -1.61448e-21)
(1.0966 -0.357626 -1.76756e-21)
(0.874077 -0.589701 9.46302e-21)
(0.873164 0.137749 -4.61127e-21)
(0.979147 0.57828 1.80784e-21)
(1.06051 0.102281 -1.34656e-21)
(1.00438 -0.249066 0)
(0.929561 -0.0367629 0)
(0.933262 0.101757 0)
(0.949769 0.0278022 3.64281e-23)
(0.944551 -0.01488 -4.31058e-23)
(0.938373 0.000126087 4.18178e-23)
(0.937388 0.00725049 -2.80789e-23)
(0.937876 0.00377578 -1.07363e-23)
(0.936517 0.00255719 0)
(1.28911 -0.12964 0)
(1.26691 -0.201647 0)
(1.21386 -0.222347 0)
(1.14144 -0.266663 0)
(1.05793 -0.300499 0)
(0.985949 -0.27263 0)
(0.933263 -0.243247 0)
(0.825687 -0.327626 0)
(0.620375 -0.284176 0)
(0.599529 0.104929 0)
(0.598318 0.559895 0)
(0.667738 0.740501 0)
(0.939266 0.329589 0)
(1.14732 -0.0430663 0)
(1.17175 -0.176212 0)
(1.15434 -0.286975 0)
(1.12822 -0.402207 0)
(0.966323 -0.55325 0)
(0.922355 -0.269068 0)
(0.828871 0.0012572 0)
(0.762895 0.291688 0)
(0.858097 0.544656 0)
(0.947583 0.208488 0)
(1.1192 -0.0715257 0)
(1.08807 -0.335794 0)
(0.836635 -0.586595 0)
(0.833971 0.0963655 0)
(0.948327 0.572548 0)
(1.04416 0.114644 0)
(0.994252 -0.233667 0)
(0.915533 -0.0361929 0)
(0.918601 0.099951 0)
(0.936801 0.028869 0)
(0.932291 -0.0130417 0)
(0.926022 0.000694467 0)
(0.92533 0.00745088 0)
(0.92573 0.00399494 0)
(0.924908 0.00270546 0)
(1.2232 -0.111414 0)
(1.20647 -0.179336 0)
(1.15103 -0.205816 0)
(1.09675 -0.266965 0)
(1.01444 -0.270488 0)
(0.930434 -0.251795 0)
(0.881445 -0.27076 0)
(0.830457 -0.252143 0)
(0.669843 -0.133319 0)
(0.529196 0.165979 0)
(0.531095 0.514233 0)
(0.772225 0.597272 0)
(1.10299 0.180259 0)
(1.2231 -0.100807 0)
(1.184 -0.190483 0)
(1.1429 -0.313729 0)
(1.07978 -0.389173 0)
(0.898971 -0.471022 0)
(0.856285 -0.193232 0)
(0.729434 0.0545912 0)
(0.685159 0.311288 0)
(0.808721 0.508494 0)
(0.955715 0.14187 0)
(1.12281 -0.109182 0)
(1.05072 -0.298064 0)
(0.75832 -0.518281 0)
(0.775557 0.112305 0)
(0.888869 0.542578 0)
(1.0232 0.090024 0)
(0.977448 -0.214557 0)
(0.892727 -0.0205149 0)
(0.896618 0.0976232 0)
(0.919982 0.0259623 0)
(0.916948 -0.0121917 0)
(0.910343 0.00126322 0)
(0.910059 0.00735828 0)
(0.910564 0.00393357 0)
(0.910404 0.00271528 0)
(1.17729 -0.0841117 0)
(1.1694 -0.138179 0)
(1.13052 -0.152314 0)
(1.09283 -0.177398 0)
(1.01935 -0.188434 0)
(0.974161 -0.161632 0)
(0.921072 -0.160524 0)
(0.826861 -0.168673 0)
(0.727906 -0.0544373 0)
(0.649972 0.193467 0)
(0.705071 0.372794 0)
(0.986746 0.391388 0)
(1.23211 0.0896495 0)
(1.23683 -0.103908 0)
(1.17892 -0.154804 0)
(1.1418 -0.232246 0)
(1.07154 -0.302321 0)
(0.86882 -0.4243 0)
(0.762837 -0.170144 0)
(0.609106 0.0830468 0)
(0.589177 0.279574 0)
(0.774052 0.426791 0)
(0.978548 0.0929021 0)
(1.11748 -0.0988584 0)
(1.0452 -0.244302 0)
(0.708354 -0.474909 0)
(0.680637 0.0858743 0)
(0.823559 0.48931 0)
(1.02165 0.079151 0)
(0.963109 -0.192663 0)
(0.870407 -0.0137453 0)
(0.878673 0.0907072 0)
(0.906177 0.0240796 0)
(0.902491 -0.0105173 0)
(0.895187 0.00190189 0)
(0.895446 0.00726532 0)
(0.89604 0.00394653 0)
(0.896321 0.00274942 0)
(1.13853 -0.0639426 0)
(1.1354 -0.104767 0)
(1.09813 -0.115601 0)
(1.07063 -0.14743 0)
(1.01061 -0.149479 0)
(0.969782 -0.138725 0)
(0.93473 -0.13227 0)
(0.879363 -0.108597 0)
(0.8021 -0.0127233 0)
(0.798008 0.168766 0)
(0.911391 0.252857 0)
(1.09629 0.236886 0)
(1.23078 0.0278651 0)
(1.2043 -0.062397 0)
(1.15929 -0.128211 0)
(1.08072 -0.243286 0)
(1.00766 -0.261258 0)
(0.840969 -0.311695 0)
(0.656362 -0.0696735 0)
(0.547613 0.13124 0)
(0.559419 0.238321 0)
(0.782543 0.323131 0)
(1.00886 0.00891088 0)
(1.08947 -0.119756 0)
(1.03378 -0.175839 0)
(0.684329 -0.373871 0)
(0.576108 0.0800273 0)
(0.790537 0.417999 0)
(1.03634 0.0454148 0)
(0.946935 -0.163575 0)
(0.83894 0.00260387 0)
(0.859665 0.0843503 0)
(0.895924 0.0202548 0)
(0.890808 -0.00913188 0)
(0.882334 0.00267499 0)
(0.883666 0.00709321 0)
(0.884764 0.00382016 0)
(0.885567 0.00269369 0)
(1.10519 -0.0473245 0)
(1.10466 -0.0791537 0)
(1.07808 -0.0860744 0)
(1.06077 -0.10437 0)
(1.01226 -0.104377 0)
(0.991242 -0.0902952 0)
(0.952653 -0.0799134 0)
(0.924526 -0.0568276 0)
(0.875111 0.0101753 0)
(0.89328 0.111471 0)
(0.996959 0.143608 0)
(1.09871 0.161292 0)
(1.18108 0.0162767 0)
(1.1361 -0.0607697 0)
(1.14012 -0.0894751 0)
(1.07341 -0.157605 0)
(1.00185 -0.173551 0)
(0.881174 -0.225517 0)
(0.664602 -0.0052003 0)
(0.650358 0.139605 0)
(0.673944 0.163901 0)
(0.869699 0.205678 0)
(1.05242 -0.0357951 0)
(1.0552 -0.106386 0)
(1.05187 -0.111206 0)
(0.732955 -0.285405 0)
(0.523222 0.0579715 0)
(0.80557 0.322247 0)
(1.06136 0.0258902 0)
(0.938097 -0.124813 0)
(0.816145 0.0156551 0)
(0.857891 0.0729866 0)
(0.901721 0.0157756 0)
(0.891346 -0.00669089 0)
(0.880599 0.00360599 0)
(0.882713 0.00663593 0)
(0.88431 0.00356573 0)
(0.884769 0.00260219 0)
(1.08198 -0.0337823 0)
(1.08404 -0.0559204 0)
(1.06137 -0.0591927 0)
(1.05266 -0.0737784 0)
(1.01352 -0.0713707 0)
(1.00184 -0.0640092 0)
(0.971002 -0.0541811 0)
(0.958029 -0.0334321 0)
(0.932684 0.0091902 0)
(0.955517 0.0645987 0)
(1.01287 0.0840972 0)
(1.06681 0.0941978 0)
(1.13907 -0.000510383 0)
(1.08936 -0.0233379 0)
(1.09886 -0.0729166 0)
(1.0348 -0.154554 0)
(0.980439 -0.136832 0)
(0.916089 -0.130815 0)
(0.744247 0.0493792 0)
(0.820333 0.131231 0)
(0.855817 0.123025 0)
(0.984803 0.130391 0)
(1.09844 -0.0684105 0)
(1.00755 -0.114254 0)
(1.03902 -0.0586287 0)
(0.83058 -0.154591 0)
(0.565552 0.0520023 0)
(0.847684 0.201287 0)
(1.07514 -0.00244183 0)
(0.936235 -0.0783568 0)
(0.822599 0.030181 0)
(0.883542 0.0564697 0)
(0.926068 0.010109 0)
(0.909215 -0.00312375 0)
(0.897768 0.0049231 0)
(0.89998 0.0060635 0)
(0.901795 0.00334106 0)
(0.900732 0.0026119 0)
(1.06452 -0.0225771 0)
(1.06648 -0.0373484 0)
(1.05026 -0.0402025 0)
(1.04561 -0.0494361 0)
(1.01689 -0.047063 0)
(1.01198 -0.0430627 0)
(0.988589 -0.0321356 0)
(0.984612 -0.0196042 0)
(0.972078 0.00831163 0)
(0.985676 0.0364871 0)
(1.01938 0.0431194 0)
(1.049 0.0568311 0)
(1.09264 -0.00566037 0)
(1.0559 -0.0247452 0)
(1.08681 -0.0511086 0)
(1.02922 -0.091177 0)
(0.967766 -0.081122 0)
(0.938495 -0.0766521 0)
(0.838948 0.0526445 0)
(0.942418 0.093009 0)
(0.97517 0.0748662 0)
(1.04363 0.0718347 0)
(1.12263 -0.0482772 0)
(0.989264 -0.0753222 0)
(1.0057 -0.0347901 0)
(0.939171 -0.0697457 0)
(0.728523 0.0519356 0)
(0.91779 0.107198 0)
(1.08047 -0.0106996 0)
(0.957042 -0.0319741 0)
(0.873945 0.0359815 0)
(0.934991 0.0372486 0)
(0.966053 0.0065987 0)
(0.946004 0.00180484 0)
(0.93633 0.0062834 0)
(0.936948 0.00546616 0)
(0.938238 0.00337346 0)
(0.934719 0.00291122 0)
(1.05163 -0.0140694 0)
(1.05337 -0.0234345 0)
(1.04333 -0.0250925 0)
(1.03975 -0.031839 0)
(1.02156 -0.0287928 0)
(1.01791 -0.0282644 0)
(1.00259 -0.0189028 0)
(1.00186 -0.0130076 0)
(0.994421 0.00433918 0)
(1.00514 0.0170801 0)
(1.02073 0.0219438 0)
(1.03666 0.0276344 0)
(1.06716 -0.00952861 0)
(1.03881 -0.0124084 0)
(1.05542 -0.0422834 0)
(1.01717 -0.0665101 0)
(0.979317 -0.0571286 0)
(0.961941 -0.0439574 0)
(0.913548 0.0382313 0)
(0.993102 0.0532527 0)
(1.01389 0.0580586 0)
(1.04625 0.0428711 0)
(1.08868 -0.0419216 0)
(0.992483 -0.0510456 0)
(0.994066 -0.0326028 0)
(0.979982 -0.0196596 0)
(0.880892 0.0634668 0)
(0.985566 0.0489029 0)
(1.06171 -0.0202019 0)
(0.973877 0.00425325 0)
(0.939502 0.0417521 0)
(0.986658 0.0230932 0)
(1.00065 0.00496134 0)
(0.983217 0.00655149 0)
(0.978433 0.0078548 0)
(0.977802 0.00542987 0)
(0.978365 0.00392087 0)
(0.973852 0.00361938 0)
(1.04295 -0.00752498 0)
(1.04354 -0.0132479 0)
(1.03856 -0.0146457 0)
(1.03513 -0.0193316 0)
(1.02457 -0.0169814 0)
(1.02158 -0.0181937 0)
(1.01229 -0.0110414 0)
(1.0126 -0.00930043 0)
(1.00796 0.00142872 0)
(1.01492 0.00669818 0)
(1.02122 0.00845639 0)
(1.0313 0.0125248 0)
(1.04435 -0.0101849 0)
(1.02976 -0.0113902 0)
(1.04083 -0.0304526 0)
(1.01373 -0.0377792 0)
(0.991791 -0.0322768 0)
(0.976859 -0.0242056 0)
(0.959595 0.0253782 0)
(1.00204 0.0300332 0)
(1.01463 0.0382024 0)
(1.04378 0.0247141 0)
(1.0591 -0.0231136 0)
(1.00136 -0.0216343 0)
(0.995286 -0.0223588 0)
(0.983016 -0.0068866 0)
(0.963731 0.0482047 0)
(1.02375 0.0241381 0)
(1.03324 -0.00775857 0)
(0.983385 0.0223411 0)
(0.991456 0.0345033 0)
(1.02044 0.0134617 0)
(1.0197 0.00675279 0)
(1.00868 0.00990917 0)
(1.00892 0.00824662 0)
(1.00783 0.00541483 0)
(1.00771 0.00454674 0)
(1.00396 0.00432929 0)
(1.03642 -0.00272732 0)
(1.03657 -0.00642207 0)
(1.03455 -0.00746793 0)
(1.03164 -0.0109584 0)
(1.02604 -0.00930914 0)
(1.02345 -0.0111363 0)
(1.01807 -0.00647264 0)
(1.01838 -0.00666439 0)
(1.01506 -0.000608503 0)
(1.01974 0.00101191 0)
(1.02104 0.00174052 0)
(1.02681 0.00353505 0)
(1.03253 -0.00942123 0)
(1.02485 -0.00772363 0)
(1.02837 -0.0214083 0)
(1.01111 -0.0239612 0)
(1.00106 -0.02075 0)
(0.988897 -0.0144749 0)
(0.984709 0.0146522 0)
(1.00638 0.0155117 0)
(1.01285 0.0262463 0)
(1.03347 0.014912 0)
(1.03565 -0.0155202 0)
(1.00754 -0.0117526 0)
(1.00472 -0.0167614 0)
(0.989789 0.00056235 0)
(0.994417 0.0369784 0)
(1.02633 0.0129966 0)
(1.01561 -0.00166894 0)
(0.997763 0.0246795 0)
(1.01785 0.0271751 0)
(1.02959 0.0108743 0)
(1.02487 0.00864759 0)
(1.02156 0.0105075 0)
(1.02374 0.00796676 0)
(1.02232 0.00567702 0)
(1.02197 0.00506068 0)
(1.01974 0.0048043 0)
(1.03136 0.000494589 0)
(1.0315 -0.00189844 0)
(1.03101 -0.00285647 0)
(1.02891 -0.00527812 0)
(1.02594 -0.00460459 0)
(1.02388 -0.00624397 0)
(1.02084 -0.00380537 0)
(1.02081 -0.00450083 0)
(1.01862 -0.00158842 0)
(1.02106 -0.00119517 0)
(1.02061 -0.00146544 0)
(1.02392 -0.000457886 0)
(1.02496 -0.00748843 0)
(1.02115 -0.00688015 0)
(1.02179 -0.0140674 0)
(1.0117 -0.0141771 0)
(1.00716 -0.0118883 0)
(0.998233 -0.00760439 0)
(0.998462 0.00860682 0)
(1.00819 0.00891694 0)
(1.01187 0.0155315 0)
(1.02668 0.00918346 0)
(1.02454 -0.00674716 0)
(1.01122 -0.00354072 0)
(1.00818 -0.00737055 0)
(0.995105 0.00292635 0)
(1.00614 0.0238915 0)
(1.02388 0.0103859 0)
(1.01049 0.00627783 0)
(1.00632 0.0223125 0)
(1.02362 0.0208591 0)
(1.02835 0.0106441 0)
(1.02557 0.00997133 0)
(1.02588 0.0103318 0)
(1.02764 0.00783648 0)
(1.02655 0.00606077 0)
(1.02635 0.00548231 0)
(1.02527 0.00516533 0)
(1.02735 0.00249355 0)
(1.0277 0.000887844 0)
(1.02776 2.70158e-05 0)
(1.02638 -0.0016909 0)
(1.02483 -0.00167006 0)
(1.02328 -0.002955 0)
(1.02162 -0.00199737 0)
(1.02126 -0.00273438 0)
(1.01987 -0.00161383 0)
(1.02085 -0.00177171 0)
(1.01999 -0.00218232 0)
(1.02132 -0.00196543 0)
(1.02096 -0.00557057 0)
(1.0191 -0.00512423 0)
(1.01819 -0.0087029 0)
(1.01259 -0.00830927 0)
(1.01018 -0.00695103 0)
(1.00464 -0.00417848 0)
(1.00557 0.00453922 0)
(1.0102 0.00485845 0)
(1.01216 0.00939268 0)
(1.02025 0.00581935 0)
(1.01818 -0.00287053 0)
(1.01216 -0.00103176 0)
(1.01052 -0.00306122 0)
(1.00275 0.00427757 0)
(1.01013 0.0168194 0)
(1.01879 0.00863569 0)
(1.01096 0.00723199 0)
(1.01207 0.0175334 0)
(1.02317 0.0168477 0)
(1.0255 0.0105845 0)
(1.02509 0.00955824 0)
(1.02657 0.00921689 0)
(1.02773 0.00736096 0)
(1.0271 0.00601446 0)
(1.02703 0.00541227 0)
(1.02655 0.00513637 0)
(1.02408 0.00363245 0)
(1.02451 0.00253589 0)
(1.02479 0.00172899 0)
(1.024 0.000554358 0)
(1.02315 0.00018191 0)
(1.02205 -0.000756003 0)
(1.02109 -0.000654311 0)
(1.02063 -0.00130018 0)
(1.01975 -0.00109109 0)
(1.01994 -0.0014328 0)
(1.01907 -0.00188789 0)
(1.01951 -0.00201034 0)
(1.01867 -0.00369054 0)
(1.01758 -0.00363988 0)
(1.01639 -0.00524319 0)
(1.01331 -0.00475647 0)
(1.01207 -0.00385257 0)
(1.00887 -0.00199947 0)
(1.00939 0.00259459 0)
(1.01141 0.00310235 0)
(1.01242 0.00551112 0)
(1.01679 0.00412834 0)
(1.01563 0.000158684 0)
(1.01281 0.00144043 0)
(1.01154 0.000860906 0)
(1.00718 0.00491661 0)
(1.01199 0.0116459 0)
(1.0171 0.00844361 0)
(1.01291 0.00879926 0)
(1.01431 0.014664 0)
(1.02128 0.0140429 0)
(1.0236 0.0104342 0)
(1.02435 0.00953764 0)
(1.02591 0.00883992 0)
(1.02679 0.00735518 0)
(1.02665 0.00622441 0)
(1.02664 0.00563788 0)
(1.02653 0.00534017 0)
(1.02127 0.00418045 0)
(1.02175 0.00340512 0)
(1.02208 0.00271751 0)
(1.02167 0.00186545 0)
(1.02119 0.00136829 0)
(1.02045 0.000643572 0)
(1.01987 0.000398295 0)
(1.01948 -0.00016545 0)
(1.01889 -0.000331896 0)
(1.01875 -0.000737715 0)
(1.01804 -0.00113844 0)
(1.01802 -0.00136526 0)
(1.01725 -0.00223622 0)
(1.01651 -0.00220656 0)
(1.0155 -0.00294779 0)
(1.0138 -0.00245948 0)
(1.01298 -0.00189272 0)
(1.01125 -0.000803232 0)
(1.01132 0.00165341 0)
(1.01226 0.00211409 0)
(1.01272 0.00357866 0)
(1.01467 0.00317553 0)
(1.01416 0.00137388 0)
(1.01292 0.00223606 0)
(1.01236 0.00224052 0)
(1.01056 0.00487975 0)
(1.01295 0.00891119 0)
(1.01562 0.00761391 0)
(1.01412 0.00797146 0)
(1.01579 0.0115356 0)
(1.02002 0.0116246 0)
(1.02208 0.0095521 0)
(1.02327 0.00869871 0)
(1.02495 0.0079572 0)
(1.02574 0.00683511 0)
(1.02598 0.00591821 0)
(1.026 0.00536209 0)
(1.0262 0.00512505 0)
(1.01888 0.00433768 0)
(1.01933 0.00377376 0)
(1.01963 0.00321864 0)
(1.01947 0.00258663 0)
(1.01919 0.00210274 0)
(1.01874 0.00154105 0)
(1.01837 0.00118587 0)
(1.01809 0.000716618 0)
(1.01769 0.000408632 0)
(1.01749 4.82336e-05 0)
(1.01695 -0.000317905 0)
(1.01679 -0.00053366 0)
(1.0162 -0.00102374 0)
(1.01567 -0.00102537 0)
(1.01494 -0.00134845 0)