/*--------------------------------*- C++ -*----------------------------------*\
| =========                 |                                                 |
| \\      /  F ield         | OpenFOAM: The Open Source CFD Toolbox           |
|  \\    /   O peration     | Version:  2312                                  |
|   \\  /    A nd           | Website:  www.openfoam.com                      |
|    \\/     M anipulation  |                                                 |
\*---------------------------------------------------------------------------*/
FoamFile
{
    version     2.0;
    format      ascii;
    arch        "LSB;label=32;scalar=64";
    class       volScalarField;
    location    "143";
    object      p;
}
// * * * * * * * * * * * * * * * * * * * * * * * * * * * * * * * * * * * * * //

dimensions      [0 2 -2 0 0 0 0];

internalField   nonuniform List<scalar> 
5478
(
-0.633124
-0.627662
-0.622735
-0.619518
-0.618387
-0.616125
-0.607718
-0.589157
-0.558751
-0.517909
-0.470161
-0.418671
-0.367153
-0.314451
-0.263188
-0.643321
-0.637474
-0.631025
-0.624208
-0.615719
-0.602474
-0.582065
-0.553555
-0.51777
-0.47691
-0.433144
-0.388545
-0.344049
-0.300474
-0.260123
-0.658992
-0.651961
-0.642936
-0.630671
-0.612487
-0.587748
-0.557269
-0.522353
-0.484468
-0.444896
-0.404794
-0.364939
-0.32605
-0.288502
-0.252435
-0.680126
-0.670149
-0.657158
-0.636737
-0.607489
-0.572467
-0.534723
-0.496005
-0.457183
-0.418811
-0.381238
-0.344842
-0.309882
-0.27663
-0.24562
-0.706736
-0.691123
-0.672199
-0.640979
-0.600442
-0.55701
-0.514127
-0.472914
-0.43359
-0.396105
-0.360431
-0.326567
-0.294468
-0.264342
-0.235665
-0.736498
-0.714149
-0.685106
-0.641129
-0.590319
-0.540309
-0.49369
-0.450746
-0.41109
-0.374318
-0.340113
-0.308207
-0.278472
-0.250745
-0.224445
-0.763501
-0.735602
-0.692209
-0.634692
-0.575207
-0.52017
-0.470845
-0.42674
-0.387035
-0.351032
-0.318161
-0.288041
-0.260374
-0.234912
-0.210832
-0.781821
-0.748886
-0.689106
-0.619235
-0.552833
-0.494096
-0.44306
-0.398463
-0.359144
-0.32418
-0.292851
-0.264632
-0.23919
-0.216075
-0.194731
-0.478764
-0.482875
-0.488324
-0.497116
-0.508822
-0.520768
-0.534839
-0.545839
-0.551081
-0.548148
-0.536103
-0.51615
-0.491154
-0.46526
-0.44056
-0.519339
-0.523804
-0.532128
-0.545842
-0.564524
-0.586927
-0.607227
-0.625279
-0.635606
-0.633244
-0.615143
-0.580967
-0.531517
-0.477721
-0.415093
-0.556733
-0.56032
-0.56991
-0.586209
-0.608252
-0.634252
-0.660914
-0.683535
-0.696482
-0.693245
-0.668626
-0.623133
-0.546977
-0.483172
-0.365347
-0.586347
-0.587999
-0.596982
-0.613101
-0.635214
-0.661447
-0.688431
-0.710995
-0.722305
-0.714795
-0.682599
-0.625994
-0.544141
-0.455451
-0.355055
-0.606433
-0.605679
-0.612309
-0.625787
-0.645148
-0.668725
-0.692454
-0.711665
-0.718519
-0.705079
-0.666074
-0.602502
-0.518854
-0.427985
-0.336779
-0.617944
-0.614938
-0.618081
-0.627051
-0.641423
-0.659397
-0.678644
-0.692111
-0.691901
-0.671053
-0.626546
-0.561424
-0.482854
-0.401223
-0.319856
-0.623685
-0.619147
-0.618673
-0.622664
-0.6315
-0.644415
-0.656816
-0.661616
-0.651568
-0.622191
-0.573353
-0.510298
-0.43999
-0.37123
-0.302846
-0.627451
-0.622213
-0.618922
-0.618772
-0.622974
-0.629398
-0.632617
-0.626075
-0.605111
-0.568267
-0.51841
-0.460132
-0.399223
-0.339725
-0.28158
-0.442481
-0.466155
-0.428062
-0.320197
-0.223758
-0.186431
-0.18261
-0.220867
-0.233763
-0.19703
-0.155735
-0.143601
-0.123285
-0.103456
-0.104
-0.130676
-0.140575
-0.131654
-0.106518
-0.118529
-0.138658
-0.144375
-0.113875
-0.125804
-0.135564
-0.180825
-0.196172
-0.182396
-0.0732026
-0.0632544
-0.0441744
-0.0300066
-0.0149764
-0.0090176
-0.00661973
-0.00445212
-0.00258204
-0.000802806
-0.367923
-0.338926
-0.289499
-0.226737
-0.186019
-0.184197
-0.200312
-0.249884
-0.267931
-0.22764
-0.164973
-0.145413
-0.125697
-0.106385
-0.106996
-0.131791
-0.141391
-0.130122
-0.0981354
-0.108565
-0.126748
-0.136615
-0.119284
-0.136356
-0.149537
-0.181317
-0.169828
-0.160689
-0.0800109
-0.0688721
-0.042658
-0.0284441
-0.01528
-0.00926693
-0.00658263
-0.00441384
-0.00257181
-0.000804283
-0.296197
-0.225658
-0.153256
-0.131533
-0.149617
-0.178095
-0.205179
-0.264739
-0.321688
-0.252749
-0.170709
-0.144361
-0.127127
-0.111377
-0.112038
-0.133637
-0.141739
-0.127355
-0.0890973
-0.0982385
-0.115126
-0.126697
-0.121841
-0.144273
-0.16165
-0.177259
-0.141366
-0.134874
-0.084731
-0.0731605
-0.0405527
-0.0265861
-0.0155175
-0.00952544
-0.00653081
-0.00436362
-0.00255803
-0.000804275
-0.234881
-0.141427
-0.0586166
-0.0452028
-0.108572
-0.15732
-0.190583
-0.257153
-0.309351
-0.259933
-0.174259
-0.142378
-0.125247
-0.115696
-0.117866
-0.136719
-0.142532
-0.124658
-0.0804023
-0.0879904
-0.104245
-0.115252
-0.121585
-0.148969
-0.171268
-0.169974
-0.114333
-0.107845
-0.0869567
-0.0758969
-0.0381304
-0.0245696
-0.0156597
-0.00977596
-0.00646605
-0.00430426
-0.00254063
-0.000803197
-0.214737
-0.0982835
-0.00757616
0.0317221
-0.0366925
-0.103929
-0.160075
-0.238772
-0.294035
-0.252309
-0.172808
-0.138276
-0.120003
-0.117067
-0.123119
-0.140673
-0.143367
-0.121141
-0.0724228
-0.0780224
-0.095474
-0.103021
-0.118857
-0.149975
-0.178285
-0.161252
-0.0908492
-0.0816337
-0.0870689
-0.0767682
-0.0356052
-0.0224568
-0.0156772
-0.00999337
-0.00638907
-0.00423762
-0.00252071
-0.000800908
-0.215111
-0.111614
-0.0128607
0.0697355
0.0540349
-0.0271041
-0.119241
-0.209246
-0.258161
-0.227956
-0.16447
-0.131511
-0.11247
-0.113399
-0.125606
-0.144706
-0.145443
-0.120225
-0.0666273
-0.0684318
-0.0879143
-0.0896667
-0.113515
-0.147425
-0.18273
-0.153284
-0.0728391
-0.0572851
-0.0854966
-0.0759284
-0.0332518
-0.0203575
-0.0155648
-0.010171
-0.00630577
-0.00416782
-0.00249898
-0.000797389
-0.219385
-0.1255
-0.0399142
0.0596854
0.115935
0.0604529
-0.0708185
-0.179976
-0.2379
-0.211631
-0.158415
-0.127094
-0.105692
-0.102877
-0.126352
-0.144721
-0.14463
-0.116693
-0.0625095
-0.0594666
-0.0852962
-0.0750024
-0.104825
-0.141506
-0.182131
-0.14428
-0.0602382
-0.0348925
-0.0822731
-0.073262
-0.0311845
-0.0184922
-0.0153555
-0.0102759
-0.00621227
-0.00409296
-0.00247317
-0.000792242
-0.224917
-0.155402
-0.0789788
0.00346335
0.0688772
0.0964703
-0.00827857
-0.114278
-0.170883
-0.168572
-0.137172
-0.117679
-0.0987279
-0.0874246
-0.1233
-0.139425
-0.148612
-0.117399
-0.0605839
-0.0495062
-0.055095
-0.0595558
-0.094095
-0.13136
-0.183682
-0.13587
-0.0536145
-0.016547
-0.0774335
-0.0694388
-0.0295744
-0.0164221
-0.0149738
-0.0103703
-0.00613686
-0.00402623
-0.00244977
-0.000787389
-0.20056
-0.149151
-0.0753016
0.00432639
0.0860582
0.128723
0.0359456
-0.072307
-0.129274
-0.127385
-0.107605
-0.0953022
-0.0839921
-0.0751316
-0.112165
-0.122829
-0.136645
-0.110005
-0.0594963
-0.0439278
-0.0593684
-0.0488537
-0.0841167
-0.119478
-0.164762
-0.123629
-0.0474165
-0.00739919
-0.0697896
-0.0634661
-0.0275246
-0.0151421
-0.0143404
-0.0101907
-0.00598074
-0.00391492
-0.00239708
-0.000772918
-0.157387
-0.117484
-0.0576947
0.00325343
0.0561512
0.0827542
0.0397268
-0.0318368
-0.0729382
-0.0789041
-0.0718828
-0.0700256
-0.0609139
-0.0543976
-0.096015
-0.120732
-0.121991
-0.0958342
-0.0495305
-0.0382969
-0.0264454
-0.0332018
-0.0637508
-0.104118
-0.144976
-0.107077
-0.0229718
0.0016285
-0.0574668
-0.0598275
-0.0233272
-0.0125304
-0.0133209
-0.00984693
-0.00570875
-0.00373394
-0.00231704
-0.000750576
-0.124781
-0.101171
-0.0588973
-0.0133293
0.0263903
0.0491971
0.0319025
-0.00880385
-0.0403277
-0.0500733
-0.0484358
-0.050133
-0.0420848
-0.0315664
-0.0573617
-0.0828339
-0.0833161
-0.0660342
-0.0377586
-0.0365793
-0.0309264
-0.0199789
-0.038955
-0.0776618
-0.111768
-0.0744934
0.00171643
0.0121301
-0.0435146
-0.0515002
-0.0181882
-0.010659
-0.0121604
-0.00930801
-0.00541387
-0.00353745
-0.00222172
-0.000726099
-0.0991243
-0.0849332
-0.0550864
-0.0223083
0.0053732
0.0228575
0.0183162
-0.002059
-0.0217906
-0.0287512
-0.0270044
-0.0267956
-0.0182764
-0.00906804
-0.0179788
-0.0394279
-0.0407535
-0.032859
-0.0292655
-0.0324264
-0.0187495
-0.0027278
-0.0121408
-0.0491623
-0.0740977
-0.035246
0.0213326
0.0259158
-0.0263075
-0.0400909
-0.0138139
-0.00945069
-0.0107266
-0.00859434
-0.00513655
-0.0033112
-0.00210118
-0.000699373
-0.0786412
-0.0707637
-0.0514314
-0.0288962
-0.00970949
0.00414243
0.00636092
-0.00134551
-0.0111548
-0.0166345
-0.0151129
-0.0149307
-0.0061333
0.00624525
0.0193657
0.0054805
-0.00560004
-0.00625528
-0.01869
-0.0219572
-0.0118459
0.00647611
0.0114612
-0.0195968
-0.0342448
0.000342418
0.0338943
0.0349517
-0.00636578
-0.0239239
-0.0097574
-0.00848055
-0.00892674
-0.00766867
-0.00488154
-0.00304064
-0.00194661
-0.000671204
-0.062385
-0.0580625
-0.0460066
-0.0306482
-0.0171752
-0.00644719
-0.00178687
-0.00337073
-0.00688515
-0.00841512
-0.00518986
-0.00153531
0.0065731
0.0164253
0.0323221
0.0235845
0.0101976
0.00742154
-0.00591036
-0.00647746
0.000463442
0.014257
0.0195525
-0.00958852
-0.0184903
0.0175399
0.0360927
0.0393084
0.0114375
-0.00640392
-0.00611846
-0.00719507
-0.00673595
-0.00662146
-0.0046695
-0.00270953
-0.00175837
-0.00064561
-0.0483284
-0.0466313
-0.0396725
-0.0295046
-0.0198116
-0.0114264
-0.00644435
-0.00448166
-0.00393557
-0.00365788
-0.000455226
0.00247571
0.00938518
0.018855
0.0326196
0.028376
0.0166163
0.0135415
0.00468626
0.0050182
0.00536969
0.0165128
0.0225578
0.00247592
-0.00246634
0.0193022
0.0316249
0.037454
0.0215884
0.0052894
-0.00337618
-0.00546093
-0.00460597
-0.00562545
-0.00439348
-0.00230522
-0.00155398
-0.000616872
-0.0371047
-0.0369887
-0.0329538
-0.0262961
-0.0195005
-0.0131269
-0.00837112
-0.00515923
-0.00305504
-0.00135642
0.0021674
0.00612338
0.0124972
0.0191308
0.027491
0.0269028
0.0187172
0.0154812
0.00989955
0.0115175
0.0110701
0.0177637
0.0210125
0.00816507
0.00497169
0.0172898
0.0266116
0.0330989
0.0224849
0.00896438
-0.00101793
-0.0033589
-0.00315482
-0.00473857
-0.00389387
-0.00191095
-0.0013627
-0.000579396
-0.0281314
-0.0286247
-0.0263596
-0.0220746
-0.017286
-0.012428
-0.00825024
-0.00496804
-0.00217309
0.000203822
0.00358271
0.00677388
0.0115266
0.0162002
0.0217288
0.0228472
0.0181484
0.0159257
0.0122793
0.0133068
0.0122354
0.0163179
0.0190792
0.0117178
0.00957552
0.0156927
0.0223312
0.0278372
0.0207286
0.01044
0.00143724
-0.00131672
-0.00187377
-0.00373512
-0.00315421
-0.00153496
-0.00116875
-0.000512019
-0.0206112
-0.0214365
-0.0202601
-0.0174858
-0.0141193
-0.0105338
-0.00720682
-0.00421335
-0.0014726
0.000930006
0.00382457
0.0066764
0.0105597
0.0139795
0.0173881
0.0189252
0.0167231
0.0155811
0.0135654
0.0144836
0.0144731
0.0157099
0.0170103
0.0130792
0.012211
0.0146831
0.0196922
0.0233197
0.0178199
0.0104756
0.00333466
0.000301797
-0.000804512
-0.00261366
-0.00233979
-0.0011998
-0.000965228
-0.00042493
-0.0145109
-0.0153982
-0.0148036
-0.0130161
-0.0106849
-0.00810264
-0.00553626
-0.00304447
-0.000653233
0.00153297
0.00400994
0.00640501
0.00927345
0.0117823
0.0140714
0.0156666
0.0150962
0.0146691
0.0133642
0.0137926
0.0134992
0.0145258
0.0155048
0.0137532
0.013407
0.0141173
0.0171085
0.0194023
0.0158145
0.0104524
0.00475176
0.00159407
0.000171529
-0.00148248
-0.00152221
-0.000847375
-0.000725593
-0.000319173
-0.0094829
-0.0103077
-0.0100683
-0.00894295
-0.0073341
-0.00547422
-0.00354991
-0.00160573
0.000318832
0.00214809
0.00409196
0.00602134
0.0081614
0.0101358
0.011849
0.013233
0.0134998
0.0135336
0.0130938
0.013581
0.013507
0.013976
0.0145173
0.0136642
0.0136182
0.0136066
0.0152625
0.0165014
0.0140155
0.0101356
0.00572237
0.00267015
0.00103702
-0.000476791
-0.000777211
-0.000477107
-0.000472442
-0.000217052
-0.00535639
-0.00609719
-0.00604362
-0.00531802
-0.00421637
-0.00291732
-0.00153725
-8.66635e-05
0.00137567
0.00281094
0.00429188
0.00581015
0.00742046
0.00894976
0.010292
0.0114166
0.0120471
0.0123948
0.012338
0.0126499
0.0127702
0.0130912
0.0134845
0.0131073
0.0131464
0.0129804
0.0135466
0.01399
0.0123454
0.00966942
0.00629931
0.00351299
0.00176925
0.000352071
-0.000123801
-0.000105612
-0.000217526
-0.000118819
-0.00200969
-0.00261486
-0.00264624
-0.00219649
-0.00147385
-0.00059779
0.000368024
0.00141924
0.00249132
0.00356669
0.00465529
0.0058047
0.00701324
0.00818141
0.00924082
0.0101568
0.01086
0.011335
0.0115219
0.0118847
0.0121032
0.012324
0.012576
0.0123983
0.0124006
0.0122051
0.0122872
0.0122295
0.0109715
0.00911154
0.00660265
0.00421783
0.00247212
0.00109552
0.000459254
0.000251971
3.28415e-05
-1.98783e-05
0.000743695
0.000255737
0.00016891
0.000427167
0.000887902
0.00146462
0.00211368
0.00284135
0.00360046
0.00437143
0.00515119
0.00598401
0.00687428
0.00774684
0.00856377
0.00929281
0.00992593
0.0104378
0.0107477
0.0110962
0.0113385
0.0115044
0.0116696
0.0115822
0.0115497
0.0113233
0.011109
0.0108183
0.00982923
0.00846675
0.00662049
0.00466757
0.00304974
0.00170922
0.000941584
0.000560056
0.000244195
6.30808e-05
0.00297269
0.0025855
0.0024777
0.00261113
0.00288602
0.00324219
0.00365727
0.00413819
0.00465475
0.00518357
0.00572091
0.00630047
0.00693508
0.00756963
0.00817915
0.00874346
0.00926568
0.00972583
0.0100475
0.010354
0.0105908
0.0107316
0.0108357
0.0107792
0.0106971
0.0104683
0.010173
0.00978249
0.00895198
0.00788202
0.0065034
0.00494781
0.00351073
0.00224932
0.00139003
0.000853009
0.00043428
0.000140247
0.00476431
0.00446561
0.00435209
0.00439911
0.00454195
0.0047411
0.00498852
0.00528614
0.00561745
0.00595731
0.00631013
0.00669628
0.00713022
0.00757315
0.00799986
0.00841347
0.00880967
0.00918046
0.0094578
0.0097085
0.00990898
0.0100162
0.0100734
0.0100233
0.0099142
0.00968544
0.00935129
0.00892206
0.00823048
0.00735753
0.00627748
0.00504242
0.00381165
0.00266938
0.001775
0.00111311
0.000588603
0.000194611
0.00619164
0.00596098
0.00584767
0.00583759
0.00588995
0.00597989
0.00610682
0.00627016
0.00646256
0.00666094
0.00687316
0.00711033
0.0073856
0.00767457
0.00795702
0.00824022
0.00851647
0.00878524
0.00899309
0.00917688
0.00931978
0.00939244
0.00941231
0.00934959
0.00922144
0.00899108
0.00866684
0.00824552
0.00765088
0.00691882
0.00603741
0.0050413
0.00399964
0.00297409
0.00209064
0.00135362
0.000735986
0.000244591
0.00730833
0.00712932
0.00701964
0.00697253
0.00696328
0.0069782
0.00702055
0.00708808
0.00717959
0.00727394
0.00738277
0.00750788
0.00766488
0.0078323
0.00799945
0.00817112
0.00834289
0.00851529
0.00864604
0.00876163
0.00884316
0.00887663
0.0088592
0.00877656
0.00863439
0.00840472
0.00809744
0.00769704
0.00717736
0.00654882
0.00580594
0.00497294
0.00408107
0.003169
0.002321
0.00155628
0.0008703
0.000285652
0.00815897
0.00801617
0.00791078
0.00784
0.00779076
0.00775634
0.0077409
0.00774232
0.00776149
0.00778308
0.00781705
0.007862
0.00793023
0.00800629
0.00808538
0.00817109
0.00825617
0.00834466
0.00840341
0.00845539
0.00847808
0.00846772
0.00841536
0.00831099
0.00815708
0.00792733
0.00763542
0.00726127
0.00679692
0.00624615
0.00560061
0.00488098
0.00410322
0.00328419
0.00247962
0.00171392
0.000985189
0.000322407
0.00878011
0.0086609
0.00855897
0.00847361
0.00839922
0.00833385
0.00827995
0.0082378
0.00820656
0.0081798
0.00816085
0.0081511
0.00815498
0.00816566
0.00817988
0.00819854
0.00821867
0.00823877
0.00824334
0.00823937
0.00821488
0.00816518
0.00808046
0.00795731
0.0077886
0.00756182
0.00727927
0.006926
0.00650369
0.00600332
0.00542828
0.00478717
0.00408318
0.0033394
0.00257565
0.00181654
0.00107135
0.000352357
0.00919172
0.00908721
0.00898773
0.00889445
0.00880567
0.00872237
0.00864563
0.0085764
0.00851401
0.00845627
0.00840442
0.00835898
0.00832168
0.00828925
0.00826022
0.00823414
0.00820898
0.00818305
0.00814746
0.00810366
0.00804389
0.00796381
0.00785549
0.00771444
0.0075356
0.00730754
0.00703055
0.00669334
0.00629472
0.00583141
0.00530015
0.00470782
0.00405438
0.0033583
0.00262858
0.00188066
0.00112771
0.000373836
0.0093994
0.00930213
0.00920443
0.00910809
0.00901333
0.00892223
0.008835
0.0087529
0.00867531
0.00860251
0.00853437
0.00847124
0.00841304
0.0083587
0.00830741
0.00825796
0.00820888
0.00815803
0.00810102
0.00803537
0.00795625
0.00785935
0.00773747
0.0075866
0.00740091
0.00717222
0.00689747
0.0065682
0.00618249
0.00573686
0.00522784
0.00466147
0.00403349
0.00336189
0.00265116
0.00190922
0.00115399
0.000384863
-0.167794
-0.178289
-0.188122
-0.195341
-0.201708
-0.201449
-0.202424
-0.197829
-0.137552
-0.142955
-0.147614
-0.150616
-0.152476
-0.153053
-0.152962
-0.15666
-0.110268
-0.112975
-0.114551
-0.117006
-0.118854
-0.121699
-0.121693
-0.124581
-0.0889986
-0.0901881
-0.0907834
-0.0929043
-0.0937944
-0.0953909
-0.0946087
-0.0969552
-0.0705942
-0.0711402
-0.0711823
-0.0722601
-0.0721778
-0.0727933
-0.0727057
-0.0755249
-0.0558189
-0.0557374
-0.055327
-0.0555772
-0.0553457
-0.0559942
-0.0566973
-0.0594887
-0.0434564
-0.0430614
-0.0425527
-0.0426141
-0.0427036
-0.0434358
-0.0441384
-0.0459506
-0.0334256
-0.0329499
-0.032505
-0.032476
-0.0325008
-0.0328018
-0.0331338
-0.0346252
-0.025199
-0.0246954
-0.0242119
-0.023988
-0.0238685
-0.0240318
-0.0244994
-0.0259463
-0.018365
-0.0178974
-0.0174423
-0.0171987
-0.0171141
-0.0172811
-0.0177038
-0.0188413
-0.012729
-0.01235
-0.0119708
-0.0117388
-0.0116375
-0.0117425
-0.0120897
-0.0130301
-0.00805368
-0.00776672
-0.00746489
-0.00726639
-0.00718519
-0.00728001
-0.00757011
-0.00830851
-0.0041903
-0.00399748
-0.00378726
-0.00364269
-0.00357465
-0.00362388
-0.00383354
-0.00440979
-0.000983788
-0.000872527
-0.000738027
-0.000635899
-0.000585262
-0.000629995
-0.000813731
-0.00127105
0.00165522
0.00169582
0.00175977
0.00180861
0.00182393
0.00177652
0.00163356
0.00129828
0.00379663
0.00378475
0.00379528
0.00380451
0.00379806
0.00375439
0.00364213
0.00339203
0.00552708
0.00548048
0.00545362
0.00543226
0.0054043
0.00535439
0.00525897
0.00507349
0.00690478
0.00683562
0.00678283
0.00673852
0.00669343
0.00663818
0.00655589
0.0064185
0.00798456
0.00790241
0.00783342
0.00777388
0.00771653
0.0076565
0.00758184
0.00747686
0.00880712
0.00871818
0.00863992
0.00857068
0.00850545
0.0084416
0.00837159
0.0082871
0.00940378
0.00931351
0.00923172
0.00915759
0.00908831
0.009022
0.00895476
0.00888216
0.00979314
0.00970602
0.00962491
0.00954971
0.00947884
0.00941141
0.00934536
0.00927912
0.00998313
0.00990228
0.0098244
0.00974998
0.00967865
0.00961042
0.0095444
0.00948028
0.00778442
0.0094594
0.0101377
0.00927992
0.00639646
0.00144712
-0.00570495
-0.0156661
-0.0295229
-0.0488222
-0.0757109
-0.113222
-0.166232
-0.238163
-0.305779
-0.0199523
-0.0211335
-0.0250803
-0.0309624
-0.0385547
-0.0481982
-0.0605268
-0.0764486
-0.0971907
-0.124406
-0.16037
-0.208155
-0.272814
-0.358139
-0.432476
-0.0466371
-0.0511807
-0.0597131
-0.0702064
-0.0822001
-0.09636
-0.113647
-0.135124
-0.162112
-0.196381
-0.240394
-0.29727
-0.371278
-0.468656
-0.542095
-0.0741203
-0.0822118
-0.0943886
-0.108353
-0.123965
-0.142159
-0.163963
-0.190424
-0.222891
-0.26321
-0.313955
-0.378554
-0.459964
-0.562396
-0.632479
-0.101912
-0.11343
-0.12833
-0.144872
-0.163449
-0.185127
-0.210842
-0.241528
-0.278459
-0.323656
-0.379558
-0.449739
-0.536011
-0.637235
-0.702032
-0.128396
-0.143144
-0.160282
-0.179039
-0.200256
-0.224925
-0.253835
-0.287904
-0.328167
-0.37692
-0.436455
-0.509688
-0.597014
-0.693212
-0.750192
-0.152854
-0.170345
-0.189351
-0.210186
-0.233907
-0.261155
-0.292603
-0.329151
-0.372011
-0.422892
-0.484009
-0.557401
-0.642447
-0.730008
-0.777945
-0.175135
-0.194369
-0.215325
-0.238524
-0.264584
-0.294025
-0.327456
-0.365741
-0.40999
-0.461608
-0.522405
-0.593549
-0.672917
-0.748181
-0.7877
0.185433
0.199968
0.216341
0.234923
0.255727
0.278636
0.303564
0.33047
0.359275
0.389716
0.421198
0.452523
0.481667
0.50455
0.523274
0.177453
0.190645
0.205901
0.223565
0.243435
0.265244
0.288865
0.314263
0.341345
0.369805
0.39897
0.427547
0.453369
0.472378
0.487277
0.165243
0.176355
0.1899
0.206083
0.224382
0.244307
0.265656
0.288362
0.312288
0.337042
0.361826
0.385194
0.404735
0.416517
0.424579
0.148807
0.157296
0.168676
0.182833
0.198861
0.21608
0.234225
0.253193
0.272755
0.292363
0.311017
0.327039
0.33766
0.338934
0.337734
0.128306
0.133909
0.142978
0.154829
0.168042
0.181765
0.195743
0.209882
0.223882
0.237025
0.248061
0.255028
0.254753
0.243062
0.229912
0.103975
0.10621
0.112801
0.122177
0.132278
0.1421
0.15139
0.16003
0.167609
0.173232
0.175417
0.171919
0.159148
0.13268
0.105312
0.0766446
0.0759389
0.0801285
0.0863844
0.0924907
0.0976609
0.101748
0.104496
0.105229
0.102799
0.0954708
0.0807093
0.0545476
0.0125134
-0.029785
0.044575
0.0427596
0.045979
0.0491366
0.0507335
0.0506641
0.0490163
0.0453921
0.0388528
0.0279932
0.0108332
-0.0154732
-0.055332
-0.112915
-0.16931
0.0277015
0.0321125
0.0284496
0.0323578
0.0299265
0.0342079
0.0324347
0.0368194
0.0361755
0.0406474
0.0413732
0.046168
0.0486492
0.0541837
0.0588557
0.0660679
0.0733686
0.0832332
0.094107
0.107931
0.123639
0.143021
0.165246
0.027641
0.0320145
0.0283877
0.0322367
0.0298498
0.0340531
0.0323241
0.0366054
0.0360061
0.040369
0.0410769
0.0457923
0.0481827
0.0536131
0.0581816
0.0651936
0.0721738
0.0817986
0.0920428
0.105409
0.120064
0.138548
0.159118
0.0275907
0.0318911
0.0283438
0.0320869
0.0297983
0.0338672
0.0322266
0.036355
0.0358707
0.0400601
0.0408133
0.0453838
0.0477086
0.0529034
0.0574163
0.064181
0.0707609
0.0800921
0.08946
0.102159
0.115276
0.132305
0.150032
0.0275497
0.0317443
0.0283172
0.0319125
0.0297689
0.0336553
0.0322367
0.0360818
0.0357621
0.0397281
0.0405803
0.0449906
0.0473212
0.0524066
0.0567454
0.063297
0.0693726
0.0783644
0.0865729
0.0983618
0.109316
0.124218
0.137866
0.0275174
0.0315779
0.028302
0.0317177
0.0297586
0.0334187
0.0321887
0.035789
0.0356719
0.039366
0.0403539
0.0445212
0.0468248
0.0515117
0.0558767
0.0619986
0.0675767
0.0758955
0.082938
0.0934709
0.101971
0.11406
0.122456
0.0274877
0.0313955
0.0282983
0.0315073
0.0297605
0.0331684
0.0321821
0.0355115
0.0356021
0.0390327
0.0401943
0.0441901
0.0465464
0.0512636
0.0552701
0.0611214
0.0660752
0.0737791
0.0792721
0.0882441
0.0934175
0.102157
0.104189
0.0274778
0.0311988
0.0282994
0.0312897
0.0297712
0.0329089
0.0321608
0.0352062
0.0355276
0.0386486
0.039964
0.0436523
0.0459949
0.0502324
0.0542048
0.059326
0.0638842
0.0703502
0.0747266
0.0815704
0.0838815
0.0878052
0.0831461
0.0274548
0.0309952
0.0283033
0.0310739
0.0297861
0.0326735
0.0321921
0.0349811
0.0354863
0.0384251
0.0399213
0.0435158
0.0458666
0.0501774
0.0537119
0.0586061
0.062399
0.0680035
0.0702507
0.0747393
0.072329
0.0721868
0.0585525
0.0274278
0.0307258
0.0283167
0.0307675
0.0297944
0.0322806
0.0321213
0.0345489
0.0353278
0.0378029
0.0394803
0.0425623
0.0448272
0.0483836
0.0516428
0.0550929
0.0584037
0.0612661
0.0623738
0.0624302
0.057213
0.0477141
0.0270173
0.0274023
0.0303582
0.0283382
0.0303507
0.0297724
0.0317277
0.0319863
0.0337744
0.0349325
0.0367865
0.0385685
0.0409351
0.0430859
0.0457152
0.0483571
0.0502548
0.0523597
0.0527344
0.0520511
0.0480648
0.0413006
0.0290577
0.0129834
0.0273945
0.0299117
0.0283755
0.0298535
0.0297679
0.0310877
0.0318162
0.0330084
0.0344338
0.035756
0.0375467
0.0392474
0.0411491
0.0428597
0.0446843
0.0453588
0.0460108
0.044629
0.0420069
0.0362261
0.0283063
0.0163379
0.00135164
0.0274046
0.0293764
0.0284313
0.0292905
0.029722
0.0304753
0.03153
0.0322712
0.0337681
0.0346721
0.0363302
0.0374138
0.0389481
0.0398373
0.0406781
0.0404129
0.0395796
0.036908
0.0328552
0.0262407
0.0178486
0.00666901
-0.00677746
0.0274364
0.0287447
0.028461
0.0287666
0.0295567
0.0299036
0.0311179
0.0315101
0.0329197
0.0335389
0.0348723
0.0354672
0.0364662
0.0366836
0.0365018
0.035455
0.0334367
0.0298325
0.0249906
0.0182304
0.0101139
3.08189e-05
-0.0118474
0.0274846
0.0280852
0.0283795
0.0282912
0.0292969
0.0293369
0.0305676
0.0307282
0.0318994
0.0323215
0.0332153
0.0333822
0.0338157
0.0334198
0.032359
0.0306277
0.027845
0.0237226
0.0186339
0.0121744
0.00468438
-0.00425397
-0.0146207
0.0275017
0.0274471
0.0281828
0.0278508
0.0289224
0.0287718
0.029872
0.0299099
0.0307346
0.0309968
0.0314119
0.0311746
0.0310831
0.0301298
0.0284137
0.0261754
0.022997
0.0187391
0.0137254
0.00780707
0.00114437
-0.00654727
-0.0153428
0.0274644
0.0268472
0.0278769
0.02743
0.0284254
0.0281954
0.0290472
0.0290282
0.0294692
0.0295535
0.0295189
0.028898
0.0283542
0.0269526
0.024806
0.0222631
0.0189731
0.0148629
0.010155
0.0049123
-0.000797724
-0.0072066
-0.0144556
0.0273457
0.0263068
0.0274506
0.0270145
0.0278136
0.0275944
0.0281262
0.0280561
0.0281414
0.0280091
0.0275879
0.0266328
0.0257203
0.0240082
0.0216424
0.0189918
0.0157893
0.0120109
0.00778534
0.00327757
-0.00147504
-0.00667387
-0.0125178
0.027128
0.0258367
0.0269061
0.0265867
0.0271088
0.0269305
0.027149
0.0269868
0.0267747
0.0264043
0.0256733
0.0244662
0.0232755
0.0213959
0.018988
0.016392
0.0134167
0.0100684
0.00641798
0.00264415
-0.00122872
-0.00536666
-0.0100049
0.0267995
0.025435
0.0262642
0.0261157
0.0263551
0.0261845
0.0261396
0.0258387
0.0253888
0.0247889
0.0238315
0.0224672
0.0210972
0.0191783
0.01686
0.0144362
0.011774
0.00889284
0.00583155
0.0027435
-0.000361356
-0.00361718
-0.00726128
0.0263579
0.025086
0.0255627
0.0255426
0.0255793
0.0253646
0.0251131
0.0246512
0.0240137
0.023226
0.0221193
0.020687
0.0192404
0.0173821
0.0152377
0.0130572
0.0107483
0.00832771
0.00581634
0.0033332
0.000876363
-0.00166477
-0.0045077
0.0258122
0.0247596
0.024863
0.0248473
0.0247766
0.0244923
0.0240806
0.0234682
0.0226897
0.0217711
0.0205858
0.0191596
0.0177208
0.01599
0.0140707
0.012168
0.010214
0.00821715
0.00618765
0.0042144
0.00228827
0.000316256
-0.0018877
0.0251855
0.0243987
0.0242119
0.0240781
0.0239329
0.0235726
0.0230496
0.0223296
0.0214565
0.0204642
0.0192633
0.0178953
0.0165252
0.0149638
0.013294
0.0116722
0.0100478
0.00842175
0.00679782
0.00524021
0.00373534
0.00220606
0.000501184
0.0245068
0.0239362
0.0235998
0.0233353
0.0230706
0.0226286
0.0220338
0.0212562
0.0203417
0.0193279
0.0181594
0.0168858
0.0156258
0.0142533
0.0128308
0.011472
0.0101385
0.00882599
0.00753472
0.00630927
0.00513531
0.00395071
0.00263536
0.0238083
0.0233882
0.023001
0.0226206
0.0222238
0.0217042
0.0210604
0.0202629
0.0193525
0.0183638
0.0172683
0.0161151
0.0149877
0.0138032
0.0126076
0.011481
0.0103926
0.00933525
0.00830829
0.00734287
0.00642563
0.00550739
0.00449581
0.0231137
0.0227841
0.0223829
0.0219276
0.0214261
0.0208399
0.0201617
0.0193697
0.0184953
0.0175667
0.0165721
0.0155544
0.0145692
0.0135612
0.0125635
0.0116313
0.0107394
0.00988122
0.00905782
0.00829192
0.00757204
0.00685926
0.00608482
0.0224397
0.022159
0.0217543
0.0212592
0.0206954
0.0200631
0.0193662
0.018595
0.0177727
0.0169211
0.0160385
0.0151584
0.014314
0.0134664
0.0126372
0.0118628
0.0111247
0.0104192
0.00974959
0.00913322
0.00856149
0.00800501
0.00741351
0.0218015
0.0215461
0.0211421
0.0206308
0.0200408
0.0193897
0.0186921
0.0179521
0.0171887
0.0164185
0.0156441
0.014888
0.0141666
0.0134523
0.0127594
0.0121107
0.0114953
0.0109114
0.0103618
0.00985866
0.00939679
0.00895623
0.00850249
0.0212194
0.0209779
0.0205782
0.0200654
0.0194725
0.0188245
0.0181427
0.0174415
0.0167377
0.016044
0.0153631
0.014708
0.0140861
0.0134796
0.0128958
0.0123481
0.0118315
0.0113445
0.0108883
0.0104702
0.0100879
0.00972997
0.00937516
0.0207219
0.0204901
0.0200976
0.0195917
0.0190087
0.0183766
0.0177191
0.0170555
0.0164023
0.0157697
0.0151594
0.0145786
0.0140327
0.0135111
0.0130152
0.0125509
0.012116
0.0117085
0.0113267
0.0109728
0.010647
0.0103458
0.0100598
0.0203425
0.0201165
0.0197328
0.0192378
0.0186695
0.0180575
0.0174253
0.0167949
0.0161831
0.0155974
0.0150376
0.0145083
0.0140143
0.0135507
0.0131138
0.0127039
0.0123204
0.0119631
0.0116309
0.011324
0.0110418
0.0107836
0.0105457
0.0201355
0.0199149
0.0195339
0.0190407
0.0184771
0.0178736
0.0172535
0.0166385
0.0160463
0.0154849
0.0149556
0.01446
0.0140002
0.0135726
0.0131717
0.0127953
0.0124438
0.0121185
0.0118196
0.0115468
0.0112992
0.0110764
0.0108778
0.00447632
-0.0209318
-0.0475095
-0.0712547
-0.094143
-0.11613
-0.136526
-0.153735
-0.00502873
-0.0283388
-0.0544108
-0.0749611
-0.0910452
-0.105731
-0.118889
-0.12957
-0.0137525
-0.0323453
-0.0534601
-0.0689133
-0.0793765
-0.0891233
-0.0978541
-0.105306
-0.0200432
-0.0349639
-0.0508228
-0.0625587
-0.0700579
-0.0766236
-0.0820543
-0.0865928
-0.023742
-0.0355566
-0.0463366
-0.0542829
-0.0594064
-0.0635509
-0.066709
-0.069351
-0.0249515
-0.0339568
-0.0407888
-0.045775
-0.0493191
-0.0521053
-0.054041
-0.0554567
-0.0240377
-0.0307172
-0.0347474
-0.0375948
-0.0399232
-0.0417906
-0.042946
-0.0435731
-0.0215901
-0.026496
-0.0286879
-0.0300943
-0.0315163
-0.0327707
-0.0335001
-0.0337182
-0.0182605
-0.0218563
-0.0229105
-0.0233994
-0.0241714
-0.0249973
-0.0254813
-0.0255369
-0.0145565
-0.0171914
-0.0175806
-0.0175273
-0.0178521
-0.0183705
-0.0186985
-0.0186868
-0.0108259
-0.0127552
-0.0127795
-0.0124384
-0.0124751
-0.0127758
-0.0130035
-0.0129864
-0.00727357
-0.00868429
-0.00852801
-0.00806493
-0.00793457
-0.00808541
-0.00824285
-0.00823893
-0.00401087
-0.00503645
-0.00480835
-0.00432436
-0.0041161
-0.00417466
-0.00428765
-0.00430435
-0.00111471
-0.00185538
-0.00161562
-0.001158
-0.000917522
-0.000918148
-0.00100075
-0.00103597
0.00141194
0.000879271
0.00110147
0.00150512
0.00174504
0.00177757
0.0017133
0.00165816
0.00358019
0.00320158
0.00339042
0.00372152
0.0039304
0.00396956
0.00391192
0.00384037
0.00540679
0.00513972
0.00528814
0.00554194
0.00570513
0.00573493
0.00567794
0.00559652
0.00691638
0.0067286
0.00683607
0.00701667
0.00712973
0.00714057
0.00707876
0.0069902
0.00813946
0.00800528
0.00807357
0.00818879
0.00825334
0.00824147
0.00817217
0.00807875
0.00910538
0.00900203
0.00903198
0.00909015
0.00911137
0.00907759
0.00900102
0.008905
0.0098504
0.0097573
0.00974571
0.00975073
0.00973213
0.00967819
0.00959607
0.00950053
0.0103728
0.010278
0.0102269
0.0101852
0.0101323
0.0100617
0.00997666
0.00988488
0.010724
0.0106089
0.0105053
0.0104114
0.010323
0.0102369
0.0101513
0.0100665
-0.321697
-0.329657
-0.341032
-0.355947
-0.375881
-0.401975
-0.431919
-0.459166
-0.322015
-0.328389
-0.337294
-0.349263
-0.365491
-0.3861
-0.410284
-0.43356
-0.318596
-0.324698
-0.332119
-0.34182
-0.355361
-0.371965
-0.387945
-0.39887
-0.312071
-0.31853
-0.325082
-0.33251
-0.34143
-0.350446
-0.356252
-0.3556
-0.302592
-0.309422
-0.314718
-0.318686
-0.321658
-0.322887
-0.320546
-0.31239
-0.290781
-0.297233
-0.300345
-0.300378
-0.298214
-0.29391
-0.286319
-0.273633
-0.278126
-0.282932
-0.283133
-0.279651
-0.273948
-0.26619
-0.255412
-0.240033
-0.266116
-0.268038
-0.264913