/*--------------------------------*- C++ -*----------------------------------*\
| =========                 |                                                 |
| \\      /  F ield         | OpenFOAM: The Open Source CFD Toolbox           |
|  \\    /   O peration     | Version:  2312                                  |
|   \\  /    A nd           | Website:  www.openfoam.com                      |
|    \\/     M anipulation  |                                                 |
\*---------------------------------------------------------------------------*/
FoamFile
{
    version     2.0;
    format      ascii;
    arch        "LSB;label=32;scalar=64";
    class       volScalarField;
    location    "30";
    object      p;
}
// * * * * * * * * * * * * * * * * * * * * * * * * * * * * * * * * * * * * * //

dimensions      [0 2 -2 0 0 0 0];

internalField   nonuniform List<scalar> 
13248
(
-0.281228
-0.281249
-0.280839
-0.280177
-0.279377
-0.278489
-0.277533
-0.276496
-0.275329
-0.273958
-0.272286
-0.27022
-0.267687
-0.264655
-0.26114
-0.257206
-0.252945
-0.248494
-0.243931
-0.239468
-0.235014
-0.230921
-0.226657
-0.222584
-0.284706
-0.284525
-0.283847
-0.28289
-0.281774
-0.280553
-0.279233
-0.277778
-0.276109
-0.274128
-0.271732
-0.268844
-0.265428
-0.261502
-0.257126
-0.252394
-0.24741
-0.24228
-0.237099
-0.231933
-0.226827
-0.221811
-0.216865
-0.212446
-0.288927
-0.288388
-0.28734
-0.28599
-0.284468
-0.282826
-0.281041
-0.279038
-0.276706
-0.273929
-0.270622
-0.266748
-0.262329
-0.257433
-0.252156
-0.246613
-0.240904
-0.235152
-0.229401
-0.223779
-0.21822
-0.212895
-0.207693
-0.203123
-0.294061
-0.292985
-0.291437
-0.289573
-0.287533
-0.285349
-0.282959
-0.280235
-0.277035
-0.273251
-0.268841
-0.263835
-0.258319
-0.25241
-0.246244
-0.239948
-0.233646
-0.227423
-0.221339
-0.215427
-0.209659
-0.204126
-0.198735
-0.193988
-0.300288
-0.298513
-0.296327
-0.293836
-0.291159
-0.288294
-0.285114
-0.281436
-0.277111
-0.27208
-0.266383
-0.260135
-0.253491
-0.24662
-0.239679
-0.232797
-0.226054
-0.219502
-0.213148
-0.207007
-0.201043
-0.195333
-0.1898
-0.184867
-0.307863
-0.30522
-0.302283
-0.29907
-0.29563
-0.291892
-0.287647
-0.282688
-0.276919
-0.27039
-0.263258
-0.25573
-0.248018
-0.240304
-0.23272
-0.225344
-0.218217
-0.211348
-0.20474
-0.198383
-0.192259
-0.186414
-0.18076
-0.175711
-0.317056
-0.313377
-0.309604
-0.305572
-0.301187
-0.29627
-0.290558
-0.283903
-0.276357
-0.268132
-0.259506
-0.250746
-0.242061
-0.233594
-0.225425
-0.217587
-0.210089
-0.202923
-0.196076
-0.189527
-0.183266
-0.177287
-0.171559
-0.166371
-0.328073
-0.323217
-0.318526
-0.31353
-0.307899
-0.30134
-0.293645
-0.284864
-0.275279
-0.265265
-0.255167
-0.245244
-0.235656
-0.226485
-0.217759
-0.209477
-0.20162
-0.194165
-0.187086
-0.180359
-0.173965
-0.16788
-0.162105
-0.156807
-0.340985
-0.334835
-0.329125
-0.322917
-0.315566
-0.306761
-0.296544
-0.285294
-0.273531
-0.261728
-0.25022
-0.239203
-0.228763
-0.218919
-0.209655
-0.200939
-0.192735
-0.185006
-0.177716
-0.17083
-0.164322
-0.158154
-0.152349
-0.146949
-0.355595
-0.348106
-0.341219
-0.333388
-0.323664
-0.311951
-0.29876
-0.284845
-0.270888
-0.25736
-0.244518
-0.232464
-0.221207
-0.210713
-0.20093
-0.191803
-0.183279
-0.175306
-0.167835
-0.160822
-0.154226
-0.148008
-0.14218
-0.13667
-0.371439
-0.362606
-0.354275
-0.344203
-0.331326
-0.316092
-0.299627
-0.282992
-0.266904
-0.25174
-0.237639
-0.224603
-0.212573
-0.201469
-0.19121
-0.181717
-0.17292
-0.164752
-0.157156
-0.150073
-0.143451
-0.137244
-0.131429
-0.12588
-0.38772
-0.377586
-0.367412
-0.354289
-0.337436
-0.318196
-0.298311
-0.279003
-0.260896
-0.24421
-0.228948
-0.215018
-0.202297
-0.190665
-0.180008
-0.170228
-0.161237
-0.152957
-0.145316
-0.138249
-0.131694
-0.125601
-0.119914
-0.114509
-0.255864
-0.257945
-0.259174
-0.260371
-0.261937
-0.263992
-0.266586
-0.269742
-0.273478
-0.27781
-0.282762
-0.28836
-0.29463
-0.301601
-0.309294
-0.317723
-0.326896
-0.336811
-0.347448
-0.35872
-0.370468
-0.382592
-0.395308
-0.408994
-0.25491
-0.257133
-0.258456
-0.259706
-0.261272
-0.263257
-0.265698
-0.268607
-0.271983
-0.275821
-0.280118
-0.284873
-0.290084
-0.295751
-0.301868
-0.308427
-0.315417
-0.322833
-0.330665
-0.338823
-0.347098
-0.35538
-0.36423
-0.374801
-0.255211
-0.257381
-0.258706
-0.259963
-0.261488
-0.263369
-0.26563
-0.268271
-0.271272
-0.274607
-0.27825
-0.282175
-0.286356
-0.290765
-0.295376
-0.300159
-0.305087
-0.310147
-0.315334
-0.320593
-0.325734
-0.330538
-0.335579
-0.342796
-0.256672
-0.258615
-0.259834
-0.261061
-0.262505
-0.264246
-0.266303
-0.268661
-0.271284
-0.27413
-0.277154
-0.280308
-0.283548
-0.286827
-0.290103
-0.293335
-0.296485
-0.299527
-0.302454
-0.305231
-0.307964
-0.310207
-0.312181
-0.316233
-0.259037
-0.260662
-0.261807
-0.262881
-0.264181
-0.265738
-0.267548
-0.269587
-0.271812
-0.274168
-0.276594
-0.279029
-0.281415
-0.283694
-0.285816
-0.287738
-0.28943
-0.29088
-0.292107
-0.293195
-0.293959
-0.294473
-0.294559
-0.295267
-0.261912
-0.263136
-0.264054
-0.264997
-0.266122
-0.267455
-0.268988
-0.270687
-0.272502
-0.274368
-0.276218
-0.277982
-0.279594
-0.280993
-0.282124
-0.282947
-0.283433
-0.283576
-0.283388
-0.282891
-0.282154
-0.281424
-0.28115
-0.277105
-0.264974
-0.265812
-0.266501
-0.267253
-0.268154
-0.269215
-0.270422
-0.271738
-0.273109
-0.274468
-0.275744
-0.276863
-0.277757
-0.278363
-0.278632
-0.278528
-0.278035
-0.277164
-0.275957
-0.274461
-0.272831
-0.271001
-0.269819
-0.266435
-0.267962
-0.268484
-0.268948
-0.269474
-0.270108
-0.27085
-0.271685
-0.272579
-0.273478
-0.274317
-0.275025
-0.27553
-0.275764
-0.275661
-0.275176
-0.27428
-0.272965
-0.271249
-0.269217
-0.266819
-0.264573
-0.261579
-0.260437
-0.255804
-0.270739
-0.271045
-0.271304
-0.271589
-0.271926
-0.272318
-0.272753
-0.273201
-0.273624
-0.273952
-0.274124
-0.274067
-0.273711
-0.273001
-0.271891
-0.270353
-0.268397
-0.266026
-0.263464
-0.260341
-0.257977
-0.254042
-0.253245
-0.248049
-0.2733
-0.273491
-0.273574
-0.273616
-0.273648
-0.273683
-0.273719
-0.273738
-0.273705
-0.273568
-0.273263
-0.272722
-0.271875
-0.270659
-0.26903
-0.266968
-0.264507
-0.261617
-0.258702
-0.255117
-0.252703
-0.248648
-0.247884
-0.24367
-0.27576
-0.275905
-0.275834
-0.27564
-0.275376
-0.275072
-0.274739
-0.274369
-0.273936
-0.27339
-0.272668
-0.271694
-0.270391
-0.268693
-0.266559
-0.26398
-0.26101
-0.257669
-0.254285
-0.250581
-0.247687
-0.244286
-0.243203
-0.240758
-0.278324
-0.278435
-0.278208
-0.277782
-0.277238
-0.276626
-0.275962
-0.275246
-0.274449
-0.273514
-0.272365
-0.270914
-0.269079
-0.266798
-0.264048
-0.260857
-0.257282
-0.253466
-0.249496
-0.245605
-0.241938
-0.23866
-0.236565
-0.235089
-0.42548
-0.443481
-0.460236
-0.47499
-0.487126
-0.496089
-0.501068
-0.501799
-0.498131
-0.489852
-0.476737
-0.458479
-0.434821
-0.405611
-0.370927
-0.331152
-0.287085
-0.240066
-0.192192
-0.145496
-0.101107
-0.0625563
-0.0281755
-0.00251936
0.0160373
0.0286466
0.0354897
0.0381046
0.0379439
0.0362764
0.0338225
0.0310244
0.0281589
0.0253906
0.0227962
0.0204092
0.0182472
0.0163035
0.0145619
0.0129933
0.0115775
0.0102759
0.00907226
0.00794469
0.0068983
0.00593807
0.00506704
0.00431547
0.00367527
0.00315696
0.00271489
0.00235629
0.0020385
0.00179333
0.00155344
0.00135554
0.00110637
0.000868451
0.000543767
0.00022405
-0.388463
-0.403255
-0.417586
-0.430704
-0.442033
-0.450539
-0.456124
-0.458265
-0.456781
-0.451276
-0.441315
-0.426489
-0.406568
-0.381486
-0.351485
-0.317213
-0.279566
-0.23964
-0.199352
-0.160035
-0.119748
-0.0843066
-0.0488048
-0.0232092
-0.00131894
0.0139877
0.0233223
0.0281698
0.0299648
0.0299412
0.0288614
0.0271722
0.0251777
0.0230977
0.0210532
0.0191024
0.0172799
0.0155982
0.0140546
0.0126346
0.0113265
0.010106
0.00896137
0.00787953
0.00686766
0.00593246
0.00508191
0.00434099
0.00370981
0.00319257
0.00275482
0.00239388
0.00207831
0.0018273
0.00158763
0.00138321
0.00113318
0.000887225
0.000558613
0.000224988
-0.353962
-0.365209
-0.377096
-0.388316
-0.398553
-0.406249
-0.412316
-0.415884
-0.416584
-0.413694
-0.406879
-0.395863
-0.380401
-0.360444
-0.336331
-0.308768
-0.278296
-0.245487
-0.21258
-0.181003
-0.140492
-0.107829
-0.0761861
-0.0439126
-0.0190111
-0.000971481
0.0108806
0.017984
0.0217532
0.0233885
0.0236954
0.0231569
0.0220709
0.0206937
0.0192017
0.0176917
0.0162161
0.0148051
0.0134696
0.0122085
0.0110189
0.00988844
0.00881029
0.00778067
0.00680851
0.00590402
0.00507807
0.00435209
0.00373216
0.00321808
0.00278524
0.00242335
0.00211043
0.00185429
0.00161516
0.00140426
0.00115461
0.000901183
0.000570874
0.000224337
-0.325793
-0.33372
-0.343492
-0.352688
-0.361096
-0.36879
-0.375351
-0.380105
-0.382589
-0.382367
-0.379005
-0.372141
-0.361424
-0.346833
-0.328875
-0.307917
-0.284128
-0.256934
-0.229808
-0.199951
-0.165477
-0.130972
-0.0968033
-0.0636452
-0.036273
-0.0157114
-0.0014762
0.00780194
0.0134847
0.016735
0.0183728
0.0189586
0.0188063
0.0181612
0.0172326
0.0161691
0.0150483
0.0139177
0.0128003
0.0117088
0.010649
0.00961911
0.0086176
0.00764822
0.00672246
0.00585425
0.0050569
0.00434983
0.00374336
0.00323491
0.00280759
0.00244628
0.00213611
0.00187587
0.0016372
0.00142017
0.00117145
0.000911161
0.000580778
0.000222432
-0.304154
-0.309364
-0.317075
-0.324267
-0.332113
-0.339747
-0.346825
-0.352757
-0.356952
-0.359267
-0.359132
-0.356115
-0.349819
-0.340317
-0.328143
-0.312901
-0.295424
-0.27058
-0.247792
-0.220513
-0.187934
-0.153123
-0.117189
-0.082286
-0.0527298
-0.0299575
-0.013554
-0.00224734
0.00524119
0.0100367
0.0129566
0.0146044
0.0153655
0.0154826
0.015144
0.0145385
0.0137802
0.0129398
0.0120506
0.0111383
0.0102182
0.00929813
0.00838275
0.00748165
0.00660945
0.0057831
0.00501864
0.00433432
0.00374376
0.0032435
0.00282262
0.00246348
0.00215618
0.00189306
0.00165463
0.00143212
0.00118439
0.000917971
0.000588558
0.000219647
-0.287618
-0.290113
-0.297157
-0.30345
-0.310776
-0.318311
-0.325843
-0.332876
-0.338836
-0.343255
-0.34591
-0.346282
-0.343913
-0.338957
-0.331466
-0.32035
-0.305944
-0.286849
-0.265577
-0.239396
-0.209186
-0.173837
-0.13596
-0.0993917
-0.0680937
-0.0434971
-0.0252082
-0.0120725
-0.00291769
0.00333089
0.00748069
0.0101517
0.0117687
0.0126391
0.0129215
0.0127972
0.0124125
0.0118719
0.0112217
0.0104998
0.00972913
0.00892801
0.00810707
0.00728173
0.00646967
0.00569057
0.00496325
0.00430543
0.00373339
0.00324387
0.00283066
0.00247528
0.00217119
0.00190647
0.00166813
0.00144099
0.00119407
0.000922377
0.000594468
0.000216386
-0.272881
-0.27622
-0.281518
-0.287574
-0.294545
-0.30219
-0.310226
-0.318254
-0.325776
-0.33229
-0.337268
-0.340275
-0.340999
-0.339786
-0.335957
-0.328576
-0.317251
-0.301115
-0.281197
-0.258179
-0.22782
-0.19156
-0.152469
-0.114787
-0.0822629
-0.0562571
-0.0363891
-0.0216428
-0.0109723
-0.00336828
0.00195377
0.00562019
0.00806573
0.0096452
0.0105539
0.0109418
0.01095
0.0107186
0.0103159
0.00979477
0.00918366
0.00851092
0.00779239
0.00704993
0.00630389
0.00557713
0.00489085
0.00426316
0.00371221
0.00323598
0.00283181
0.00248182
0.00218146
0.00191649
0.00167821
0.00144746
0.00120103
0.000925053
0.000598745
0.000213051
-0.260725
-0.264697
-0.269459
-0.275254
-0.282048
-0.289711
-0.298048
-0.306723
-0.315287
-0.323284
-0.330229
-0.335572
-0.33888
-0.340417
-0.339585
-0.33524
-0.326605
-0.310935
-0.29592
-0.272659
-0.242423
-0.205943
-0.166525
-0.128433
-0.09523
-0.0682253
-0.0470828
-0.0309446
-0.0189089
-0.0100451
-0.00360775
0.00102617
0.00428932
0.00655662
0.00806117
0.00897576
0.00940377
0.00949647
0.00934669
0.00903109
0.00858606
0.00804938
0.00744035
0.00678745
0.00611282
0.0054433
0.00480163
0.0042076
0.00368024
0.00321989
0.00282619
0.00248326
0.00218722
0.0019234
0.00168526
0.00145204
0.00120572
0.000926584
0.000601599
0.000210038
-0.251156
-0.254939
-0.259266
-0.264788
-0.271454
-0.27911
-0.287627
-0.296767
-0.306137
-0.315294
-0.323745
-0.330917
-0.336418
-0.339986
-0.34134
-0.339728
-0.334377
-0.325435
-0.306853
-0.283478
-0.253236
-0.217078
-0.178249
-0.140504
-0.10712
-0.079452
-0.0572833
-0.0399383
-0.0266694
-0.0166373
-0.00914431
-0.00358366
0.000474992
0.00341173
0.00548079
0.00689858
0.00776336
0.00820764
0.00832728
0.00822419
0.00794882
0.00755215
0.00705685
0.00649814
0.00589894
0.00529073
0.00469669
0.00413948
0.00363793
0.00319598
0.00281417
0.00247998
0.00218884
0.00192754
0.00168964
0.00145522
0.00120855
0.000927527
0.000603267
0.000207783
-0.245588
-0.247893
-0.25102
-0.255738
-0.261926
-0.26935
-0.277772
-0.286945
-0.29657
-0.306279
-0.315676
-0.324211
-0.331361
-0.336851
-0.340003
-0.340034
-0.334773
-0.326866
-0.311414
-0.28902
-0.259246
-0.223992
-0.186865
-0.150488
-0.117608
-0.0897039
-0.0668005
-0.0484732
-0.034152
-0.0230933
-0.0146495
-0.00823395
-0.00342467
0.00016216
0.00278131
0.00467482
0.00596592
0.00678913
0.0072163
0.00735543
0.00726704
0.00702095
0.00664592
0.00618655
0.00566638
0.00512287
0.00457876
0.00406097
0.00358689
0.00316545
0.00279658
0.00247272
0.00218691
0.00192948
0.00169181
0.00145747
0.00120994
0.000928418
0.000604049
0.000206863
-0.241981
-0.243178
-0.245388
-0.248839
-0.253868
-0.260664
-0.268891
-0.278144
-0.288084
-0.298304
-0.308381
-0.317754
-0.325871
-0.332363
-0.337036
-0.339089
-0.337381
-0.328276
-0.313273
-0.291294
-0.26234
-0.228399
-0.193155
-0.158753
-0.127148
-0.0995922
-0.0763069
-0.0571907
-0.041923
-0.0298865
-0.0205011
-0.0132116
-0.00761621
-0.00333487
-0.000118718
0.00228462
0.00400826
0.00520503
0.00595664
0.00637032
0.00649843
0.00642601
0.00618708
0.0058393
0.00540635
0.00493434
0.00444426
0.00396998
0.00352572
0.00312759
0.00277276
0.00246111
0.00218101
0.00192916
0.00169162
0.00145894
0.00120983
0.000929507
0.000603998
0.000208039
-0.236566
-0.238448
-0.240397
-0.242518
-0.246001
-0.251337
-0.258247
-0.26641
-0.275579
-0.28542
-0.295537
-0.305445
-0.314505
-0.322099
-0.327552
-0.329795
-0.328249
-0.321753
-0.309032
-0.289571
-0.263718
-0.23297
-0.20011
-0.167447
-0.136746
-0.109523
-0.0859825
-0.0660826
-0.0497815
-0.0366802
-0.0262842
-0.0180891
-0.0116932
-0.00672573
-0.00292322
-2.83114e-05
0.0021091
0.00365132
0.00468977
0.00534512
0.00567678
0.00577561
0.00567551
0.00544441
0.0051044
0.00471088
0.00428041
0.0038557
0.00344582
0.00307619
0.00273852
0.00244229
0.00216903
0.00192503
0.00168814
0.00145908
0.00120792
0.000930511
0.000602634
0.000211765
-0.228582
-0.233952
-0.235696
-0.236967
-0.239699
-0.244353
-0.250679
-0.258348
-0.267107
-0.276595
-0.286471
-0.296237
-0.305066
-0.31258
-0.318565
-0.321423
-0.320277
-0.31285
-0.299692
-0.280051
-0.254585
-0.225093
-0.194023
-0.163511
-0.134942
-0.109347
-0.0871068
-0.0681658
-0.052404
-0.0395332
-0.0291493
-0.0208317
-0.0142219
-0.00900303
-0.00493107
-0.00177723
0.000608315
0.0023796
0.00362858
0.00446899
0.00496148
0.00519663
0.00521185
0.00507742
0.00481696
0.00449171
0.00411566
0.00373635
0.00335998
0.00301865
0.00270062
0.00242055
0.00215555
0.00191904
0.00168414
0.00145865
0.00120648
0.000931428
0.000600785
0.000216413
-0.219925
-0.227534
-0.230258
-0.231399
-0.233657
-0.237863
-0.24381
-0.25106
-0.259246
-0.268016
-0.277056
-0.285854
-0.293844
-0.300569
-0.305134
-0.306511
-0.303209
-0.295298
-0.281973
-0.263125
-0.239564
-0.212895
-0.185008
-0.157596
-0.131781
-0.108333
-0.0876686
-0.0698167
-0.0546997
-0.042139
-0.0318395
-0.0234597
-0.0166924
-0.011265
-0.00695969
-0.00357105
-0.000954905
0.00103121
0.00247898
0.00349624
0.00414787
0.00452124
0.00465857
0.00462861
0.00445935
0.00421107
0.00390019
0.00357415
0.00324084
0.00293285
0.00264042
0.00237892
0.0021277
0.0019004
0.00167189
0.00144972
0.00120003
0.000926311
0.000596688
0.000217275
-0.210668
-0.219775
-0.223603
-0.225053
-0.227073
-0.230805
-0.236189
-0.24275
-0.250023
-0.257673
-0.265355
-0.272692
-0.279242
-0.284252
-0.287143
-0.287593
-0.284257
-0.276242
-0.263537
-0.246432
-0.225535
-0.202005
-0.177265
-0.152671
-0.129239
-0.107652
-0.0883373
-0.0714375
-0.0569267
-0.0446839
-0.0344916
-0.0260754
-0.0191747
-0.0135554
-0.0090273
-0.00540827
-0.00256455
-0.000364248
0.00128302
0.00247998
0.00329374
0.00380885
0.00407164
0.00414969
0.00407489
0.00390672
0.00366436
0.00339457
0.00310721
0.00283488
0.00257042
0.00232948
0.00209391
0.00187704
0.00165601
0.00143787
0.00119139
0.00091949
0.000591875
0.000217078
-0.20123
-0.210951
-0.215645
-0.217536
-0.219423
-0.222641
-0.227301
-0.232967
-0.239182
-0.245593
-0.251885
-0.257808
-0.262899
-0.266572
-0.26857
-0.268182
-0.264606
-0.25695
-0.245417
-0.230236
-0.211802
-0.191033
-0.169103
-0.147129
-0.125993
-0.106295
-0.0884265
-0.0725796
-0.0587783
-0.0469492
-0.0369439
-0.028557
-0.0215776
-0.0158095
-0.0110917
-0.00726588
-0.00421077
-0.00180516
3.71933e-05
0.00141352
0.00239099
0.00305167
0.00344428
0.00363555
0.00366008
0.00357695
0.00340735
0.00319774
0.00295967
0.00272612
0.00249208
0.0022739
0.00205548
0.00185047
0.0016378
0.00142472
0.00118185
0.000912467
0.000587111
0.000216567
-0.19123
-0.201266
-0.206597
-0.208902
-0.210746
-0.213542
-0.217536
-0.222401
-0.227701
-0.233069
-0.238236
-0.242934
-0.246817
-0.249533
-0.250649
-0.249504
-0.24572
-0.238661
-0.228335
-0.214887
-0.198689
-0.180491
-0.161213
-0.141721
-0.122744
-0.104826
-0.0883426
-0.0735149
-0.0604182
-0.0490264
-0.0392455
-0.0309286
-0.0239103
-0.0180286
-0.0131491
-0.00913677
-0.00588462
-0.00328278
-0.00125069
0.000303036
0.0014444
0.00225281
0.00277826
0.00308667
0.00321459
0.00322067
0.00312775
0.00298212
0.00279679
0.00260511
0.00240411
0.00221093
0.00201148
0.00181992
0.00161677
0.00140978
0.00117112
0.000904854
0.00058211
0.000215528
-0.180795
-0.19105
-0.196805
-0.199449
-0.201324
-0.203833
-0.207309
-0.211525
-0.216075
-0.220612
-0.224861
-0.228568
-0.231505
-0.233338
-0.233638
-0.232102
-0.228211
-0.221726
-0.21247
-0.200596
-0.186439
-0.170549
-0.15361
-0.136311
-0.119275
-0.103006
-0.0878593
-0.0740572
-0.0617044
-0.0508106
-0.0413211
-0.033136
-0.0261326
-0.0201821
-0.0151764
-0.0110042
-0.00757432
-0.00478916
-0.00257532
-0.000848045
0.000456094
0.00141338
0.00207406
0.00250301
0.00273804
0.00283727
0.00282487
0.0027469
0.00261774
0.00247102
0.00230574
0.00213992
0.00196137
0.00178488
0.00159252
0.00139264
0.00115895
0.000896318
0.000576702
0.00021397
-0.170366
-0.180532
-0.186523
-0.189444
-0.191392
-0.193715
-0.196801
-0.200491
-0.204428
-0.208275
-0.211762
-0.214679
-0.21681
-0.217888
-0.217631
-0.215774
-0.212
-0.206062
-0.197816
-0.187374
-0.175001
-0.161102
-0.146204
-0.130873
-0.115637
-0.100937
-0.0870917
-0.0743136
-0.0627223
-0.0523577
-0.0431998
-0.0351886
-0.0282408
-0.0222592
-0.0171605
-0.012855
-0.00926797
-0.00631434
-0.00392877
-0.00203382
-0.000569722
0.000536135
0.00133338
0.00188543
0.00223072
0.00242664
0.00249834
0.00249158
0.00242195
0.00232329
0.00219648
0.0020604
0.00190477
0.001745
0.0015648
0.00137306
0.0011452
0.000886729
0.000570861
0.000212002
-0.159986
-0.169859
-0.175952
-0.179086
-0.181113
-0.183306
-0.186082
-0.189335
-0.192756
-0.196024
-0.198895
-0.201179
-0.202683
-0.203241
-0.202645
-0.200619
-0.196981
-0.191586
-0.184276
-0.175097
-0.164266
-0.152102
-0.139018
-0.125471
-0.111894
-0.0986571
-0.0860443
-0.0742583
-0.0634275
-0.0536153
-0.0448299
-0.0370417
-0.0301988
-0.0242318
-0.0190792
-0.014672
-0.010952
-0.0078477
-0.0053028
-0.00324805
-0.0016284
-0.000375602
0.000558469
0.00123531
0.00169339
0.00198902
0.00214809
0.00221586
0.00220901
0.00216147
0.00207587
0.00197195
0.00184131
0.00169998
0.00153337
0.00135085
0.00112975
0.000876
0.000564533
0.000209676
-0.149668
-0.159197
-0.16528
-0.168541
-0.170621
-0.172708
-0.175228
-0.178118
-0.18111
-0.183915
-0.186306
-0.188113
-0.189187
-0.1894
-0.18858
-0.186499
-0.183042
-0.178179
-0.171713
-0.163652
-0.154173
-0.14354
-0.132072
-0.120127
-0.108054
-0.0961656
-0.0847153
-0.0738937
-0.063829
-0.0545957
-0.0462214
-0.0386994
-0.0320039
-0.0260906
-0.0209193
-0.0164405
-0.0126122
-0.00937661
-0.00668683
-0.00448228
-0.00271343
-0.00131705
-0.000247268
0.000554919
0.00112745
0.00152521
0.00177446
0.00191977
0.00197877
0.00198525
0.00194359
0.00187423
0.0017707
0.00164955
0.00149801
0.00132581
0.00111247
0.000864038
0.000557623
0.000207023
-0.13959
-0.148682
-0.154641
-0.157948
-0.160048
-0.162039
-0.164346
-0.166939
-0.169589
-0.172033
-0.174062
-0.175528
-0.176309
-0.176289
-0.175347
-0.17331
-0.170017
-0.165723
-0.160021
-0.152957
-0.144676
-0.135393
-0.125353
-0.114836
-0.104125
-0.0934834
-0.0831325
-0.0732445
-0.0639399
-0.0552975
-0.0473592
-0.0401375
-0.033628
-0.0278083
-0.0226566
-0.01814
-0.0142316
-0.0108872
-0.00806969
-0.00572766
-0.00381788
-0.00228288
-0.00107985
-0.000152874
0.000534906
0.00103649
0.00137821
0.00160366
0.0017313
0.00179456
0.00179948
0.00176703
0.00169273
0.00159349
0.00145855
0.0012978
0.0010932
0.000850758
0.000550045
0.000204075
-0.129814
-0.138374
-0.144125
-0.147415
-0.149507
-0.15141
-0.15354
-0.155892
-0.158268
-0.160432
-0.162191
-0.163413
-0.163995
-0.163844
-0.162893
-0.161049
-0.158271
-0.15418
-0.149112
-0.142936
-0.135715
-0.127619
-0.118843
-0.109603
-0.100128
-0.0906371
-0.0813183
-0.0723222
-0.0637613
-0.0557152
-0.048235
-0.0413467
-0.0350614
-0.0293741
-0.0242785
-0.0197569
-0.0157964
-0.0123663
-0.00943947
-0.00697393
-0.00493327
-0.00326634
-0.00193406
-0.000884171
-8.1427e-05
0.000524831
0.000960675
0.00126839
0.0014671
0.0015896
0.00164356
0.00165027
0.00160728
0.00153168
0.00141484
0.00126671
0.00107186
0.00083611
0.000541733
0.000200848
-0.120307
-0.128321
-0.133819
-0.137044
-0.139103
-0.14092
-0.142897
-0.145049
-0.147203
-0.149148
-0.150707
-0.151758
-0.152218
-0.152018
-0.151107
-0.149415
-0.146837
-0.143283
-0.13886
-0.133497
-0.127227
-0.120184
-0.11253
-0.104435
-0.0960803
-0.0876459
-0.079289
-0.0711408
-0.0633041
-0.0558557
-0.0488499
-0.0423208
-0.0362914
-0.0307704
-0.0257652
-0.0212714
-0.0172881
-0.0137973
-0.0107819
-0.00820914
-0.00604979
-0.00425953
-0.00280365
-0.00163417
-0.000717947
-7.12836e-06
0.000523734
0.00091524
0.00118703
0.00137095
0.00147619
0.00152414
0.00151439
0.00146408
0.00136683
0.00123248
0.00104837
0.000820072
0.000532648
0.000197349
-0.11112
-0.118588
-0.123798
-0.126918
-0.128922
-0.130652
-0.132493
-0.134474
-0.136447
-0.138219
-0.13963
-0.14057
-0.14097
-0.140779
-0.139948
-0.138436
-0.136169
-0.133106
-0.129223
-0.124581
-0.119163
-0.113058
-0.106403
-0.0993342
-0.0919942
-0.0845271
-0.0770647
-0.0697196
-0.0625833
-0.0557265
-0.0492035
-0.0430533
-0.0373072
-0.0319841
-0.0271024
-0.0226685
-0.018692
-0.0151664
-0.012084
-0.00942162
-0.00715729
-0.00525385
-0.00368151
-0.00239712
-0.00137013
-0.000555928
6.99472e-05
0.000546072
0.000892375
0.00113949
0.00129795
0.00138907
0.00141435
0.00139088
0.00131454
0.00119511
0.00102268
0.000802627
0.000522776
0.000193596
-0.102307
-0.109214
-0.114109
-0.117095
-0.119028
-0.120671
-0.122388
-0.124222
-0.126043
-0.127678
-0.128983
-0.129857
-0.130241
-0.130093
-0.129379
-0.128065
-0.12611
-0.12346
-0.120126
-0.116127
-0.111477
-0.106215
-0.100453
-0.0943042
-0.0878815
-0.0812993
-0.0746665
-0.0680782
-0.0616137
-0.0553368
-0.0492996
-0.0435429
-0.0381028
-0.0330052
-0.0282767
-0.0239329
-0.0199919
-0.0164575
-0.0133308
-0.0105979
-0.00824402
-0.00623932
-0.00455934
-0.0031662
-0.00203244
-0.00111713
-0.000397219
0.000163525
0.000585082
0.000896624
0.00110979
0.00124567
0.00130758
0.00131242
0.00125824
0.00115479
0.00099489
0.000783792
0.000512084
0.000189586
-0.0938574
-0.100212
-0.104781
-0.107619
-0.109469
-0.111025
-0.11263
-0.114333
-0.116026
-0.117553
-0.118781
-0.11962
-0.120017
-0.119939
-0.119363
-0.118261
-0.116607
-0.114364
-0.111514
-0.108098
-0.104127
-0.0996294
-0.0946699
-0.0893475
-0.0837544
-0.0779807
-0.0721151
-0.0662364
-0.0604123
-0.0546993
-0.0491457
-0.0437915
-0.0386746
-0.0338256
-0.029277
-0.0250512
-0.0211735
-0.017656
-0.0145083
-0.0117248
-0.00929804
-0.00720545
-0.00542817
-0.0039339
-0.00269867
-0.00168564
-0.000873603
-0.000229024
0.000267826
0.000644429
0.00091328
0.00109507
0.00119476
0.00122909
0.0011982
0.00111173
0.000965182
0.000763767
0.000500668
0.000185295
-0.0857687
-0.0915984
-0.0958434
-0.0985211
-0.100282
-0.101752
-0.103254
-0.104842
-0.106425
-0.107863
-0.109035
-0.10986
-0.110289
-0.110299
-0.10987
-0.108984
-0.107619
-0.105754
-0.103367
-0.100466
-0.097087
-0.0932784
-0.0890476
-0.0844689
-0.0796252
-0.0745891
-0.0694308
-0.0642148
-0.0589982
-0.0538294
-0.0487521
-0.0438038
-0.0390226
-0.0344409
-0.0300949
-0.0260123
-0.0222237
-0.0187482
-0.0156024
-0.0127886
-0.0103066
-0.00814063
-0.00627774
-0.00469144
-0.00336151
-0.00225548
-0.00135439
-0.000627686
-5.62394e-05
0.000385458
0.000710485
0.000938982
0.00107731
0.00114192
0.00113502
0.00106624
0.000933638
0.000742563
0.000488674
0.000180832
-0.078057
-0.0833842
-0.0873101
-0.0898237
-0.0914928
-0.09288
-0.0942866
-0.0957721
-0.0972587
-0.0986222
-0.0997526
-0.100576
-0.101051
-0.101155
-0.100876
-0.1002
-0.0991103
-0.097591
-0.0956279
-0.0932184
-0.0903986
-0.0871646
-0.0835807
-0.0796731
-0.0755063
-0.0711415
-0.066634
-0.062035
-0.0573914
-0.0527443
-0.0481318
-0.0435881
-0.0391497
-0.0348493
-0.030725
-0.0268076
-0.0231316
-0.0197217
-0.0166001
-0.0137766
-0.0112573
-0.00903319
-0.00709727
-0.00542907
-0.00401236
-0.00281926
-0.00183344
-0.00102757
-0.000383284
0.000122704
0.000503681
0.000779105
0.00095657
0.00105216
0.00106987
0.0010193
0.000900998
0.000720465
0.000475951
0.000176134
-0.0707171
-0.0755679
-0.0791852
-0.0815358
-0.0831131
-0.0844218
-0.0857416
-0.0871347
-0.0885362
-0.0898359
-0.0909344
-0.0917644
-0.0922892
-0.0924904
-0.0923582
-0.0918822
-0.09105
-0.0898474
-0.0882652
-0.0862994
-0.0839604
-0.0812766
-0.078264
-0.0749626
-0.0714092
-0.067655
-0.063745
-0.0597186
-0.0556134
-0.0514632
-0.0473005
-0.0431557
-0.0390628
-0.0350531
-0.0311649
-0.027431
-0.0238882
-0.0205654
-0.0174895
-0.0146763
-0.0121378
-0.00987156
-0.00787608
-0.006137
-0.00464229
-0.00336888
-0.00230344
-0.00142221
-0.000707882
-0.000139447
0.000296317
0.000618042
0.000834269
0.000960747
0.00100325
0.000971345
0.000867783
0.000698327
0.00046337
0.000171269
-0.063738
-0.0681446
-0.071469
-0.0736614
-0.0751495
-0.076385
-0.077626
-0.0789361
-0.0802618
-0.0815056
-0.0825782
-0.0834186
-0.0839941
-0.0842892
-0.084296
-0.084007
-0.0834122
-0.0824996
-0.081261
-0.0796914
-0.0777942
-0.0755864
-0.0730962
-0.0703393
-0.0673445
-0.0641466
-0.0607841
-0.0572876
-0.0536862
-0.0500066
-0.0462762
-0.0425208
-0.0387716
-0.0350575
-0.031416
-0.0278799
-0.0244876
-0.0212708
-0.0182599
-0.0154757
-0.0129358
-0.0106435
-0.00860258
-0.00680477
-0.00524207
-0.0038963
-0.00275739
-0.00180534
-0.00102425
-0.000395751
9.29749e-05
0.000459753
0.000713874
0.000870537
0.000937174
0.000923237
0.000834097
0.000675397
0.000450339
0.000166842
-0.0571141
-0.0611085
-0.0641573
-0.0661988
-0.0676024
-0.0687707
-0.0699406
-0.0711763
-0.072434
-0.0736283
-0.074679
-0.0755309
-0.0761548
-0.0765375
-0.0766733
-0.076556
-0.0761774
-0.0755279
-0.0745983
-0.0733828
-0.0718838
-0.0701095
-0.0680789
-0.0658105
-0.0633219
-0.0606319
-0.0577711
-0.0547639
-0.0516322
-0.0483962
-0.0450783
-0.0416999
-0.0382887
-0.034871
-0.0314823
-0.0281549
-0.024927
-0.0218323
-0.0189035
-0.0161654
-0.0136405
-0.0113372
-0.00926457
-0.00742018
-0.0058002
-0.00439118
-0.00318642
-0.00216983
-0.00132681
-0.000641698
-0.000102513
0.000307391
0.000598041
0.000783995
0.000874241
0.000878025
0.00080258
0.000654205
0.00043756
0.000161302
-0.0508381
-0.0544511
-0.0572425
-0.0591418
-0.060467
-0.0615745
-0.0626811
-0.0638499
-0.0650462
-0.0661953
-0.067226
-0.0680886
-0.068757
-0.0692201
-0.0694731
-0.0695114
-0.0693281
-0.0689136
-0.0682601
-0.0673624
-0.0662202
-0.0648371
-0.0632234
-0.0613921
-0.0593554
-0.0571286
-0.0547279
-0.0521713
-0.0494759
-0.0466562
-0.0437294
-0.0407127
-0.0376305
-0.0345057
-0.0313717
-0.0282593
-0.0252059
-0.0222462
-0.0194143
-0.0167378
-0.0142432
-0.0119435
-0.00985227
-0.00797294
-0.00630578
-0.00484229
-0.00357932
-0.0025049
-0.00160601
-0.000869477
-0.000284263
0.000165354
0.000489713
0.000702656
0.000814667
0.000834792
0.000772699
0.000634495
0.000427382
0.000157747
-0.0448979
-0.0481604
-0.0507134
-0.052481
-0.0537345
-0.0547884
-0.0558394
-0.0569491
-0.0580904
-0.0591987
-0.0602105
-0.0610815
-0.0617887
-0.0623223
-0.0626796
-0.0628562
-0.0628466
-0.0626429
-0.0622376
-0.0616233
-0.0607971
-0.05976
-0.058518
-0.0570815
-0.0554588
-0.0536517
-0.0516696
-0.0495273
-0.0472369
-0.0448068
-0.0422498
-0.0395786
-0.0368141
-0.0339762
-0.0310954
-0.0282005
-0.0253278
-0.0225118
-0.0197878
-0.0171853
-0.0147343
-0.0124516
-0.0103548
-0.00845287
-0.00674962
-0.00524113
-0.00392798
-0.00280254
-0.00185336
-0.00107019
-0.000443385
4.18086e-05
0.00039615
0.000632897
0.000763882
0.000797848
0.000746317
0.000615254
0.000414504
0.000153387
-0.0392899
-0.0422312
-0.0445646
-0.0462108
-0.0473997
-0.0484067
-0.049409
-0.050466
-0.0515575
-0.0526282
-0.0536223
-0.0545002
-0.0552412
-0.0558371
-0.0562857
-0.0565837
-0.0567269
-0.0567077
-0.0565191
-0.0561555
-0.055614
-0.0548911
-0.0539876
-0.0529041
-0.0516459
-0.0502167
-0.0486212
-0.046863
-0.044947
-0.0428793
-0.0406688
-0.0383242
-0.035863
-0.0333018
-0.0306688
-0.0279904
-0.0253008
-0.0226341
-0.0200256
-0.0175061
-0.0151083
-0.0128527
-0.0107606
-0.00884616
-0.00711722
-0.00557406
-0.00422043
-0.00305307
-0.00206199
-0.00123907
-0.000576345
-6.0134e-05
0.00032059
0.000577775
0.000725363
0.000770962
0.000728724
0.000605773
0.000410329
0.000147665
-0.0339914
-0.0366389
-0.0387707
-0.0403064
-0.0414388
-0.0424064
-0.0433673
-0.0443781
-0.0454246
-0.0464598
-0.0474352
-0.0483159
-0.0490839
-0.0497323
-0.0502601
-0.0506656
-0.0509447
-0.0510902
-0.0510951
-0.0509515
-0.050655
-0.0502019
-0.0495918
-0.0488263
-0.0479082
-0.0468323
-0.045587
-0.0441787
-0.0426088
-0.0408805
-0.0389969
-0.0369625
-0.0347914
-0.032497
-0.0301047
-0.0276388
-0.0251317
-0.0226165
-0.0201284
-0.0176989
-0.0153626
-0.013143
-0.0110643
-0.00914588
-0.00739904
-0.00582882
-0.00444233
-0.003241
-0.00221616
-0.00136203
-0.000671933
-0.00013263
0.000266734
0.000538701
0.00069742
0.000750482
0.000714334
0.000592294
0.00040236
0.000152141
-0.0290434
-0.0314215
-0.0333685
-0.0348038
-0.0358863
-0.0368208
-0.0377468
-0.0387176
-0.0397239
-0.0407267
-0.041684
-0.042565
-0.0433536
-0.0440442
-0.0446364
-0.045129
-0.0455195
-0.0458025
-0.045973
-0.0460245
-0.0459523
-0.0457504