/*--------------------------------*- C++ -*----------------------------------*\
| =========                 |                                                 |
| \\      /  F ield         | OpenFOAM: The Open Source CFD Toolbox           |
|  \\    /   O peration     | Version:  2312                                  |
|   \\  /    A nd           | Website:  www.openfoam.com                      |
|    \\/     M anipulation  |                                                 |
\*---------------------------------------------------------------------------*/
FoamFile
{
    version     2.0;
    format      ascii;
    arch        "LSB;label=32;scalar=64";
    class       surfaceScalarField;
    location    "1";
    object      phi;
}
// * * * * * * * * * * * * * * * * * * * * * * * * * * * * * * * * * * * * * //

dimensions      [0 3 -1 0 0 0 0];

oriented        oriented;

internalField   nonuniform List<scalar> 
18180
(
0.0171176
-0.0269842
0.00986665
0.0254954
-0.0901804
0.0818025
0.0313463
-0.0957476
0.0898967
0.0370853
-0.102164
0.0964245
0.0420058
-0.101185
0.0962647
0.0475269
-0.101769
0.0962474
0.0539779
-0.102104
0.0956528
0.0614628
-0.101958
0.0944734
0.0696703
-0.101209
0.0930019
0.0781742
-0.100183
0.0916795
0.0867112
-0.09931
0.090773
0.0950374
-0.0988117
0.0904854
0.10332
-0.0988642
0.090582
0.111332
-0.0994285
0.0914158
0.119515
-0.10042
0.0922372
0.127663
-0.101887
0.0937392
0.136051
-0.103766
0.0953786
0.144903
-0.105542
0.0966902
0.153864
-0.108415
0.0994534
-0.110089
0.100743
0.163211
0.0149957
-0.04198
0.023607
-0.0987916
0.0296259
-0.101766
0.0348615
-0.107399
0.0391374
-0.105461
0.0436201
-0.106251
0.0485973
-0.107081
0.0546264
-0.107987
0.0617387
-0.108322
0.0696418
-0.108087
0.0779249
-0.107593
0.0862835
-0.10717
0.0945414
-0.107122
0.102597
-0.107484
0.110556
-0.108379
0.118508
-0.10984
0.12595
-0.111208
0.134279
-0.113872
0.141514
-0.11565
-0.118471
0.149897
0.0138802
-0.0558602
0.0215443
-0.106456
0.0269122
-0.107134
0.0314726
-0.111959
0.0354556
-0.109444
0.0393733
-0.110169
0.043143
-0.110851
0.0475131
-0.112358
0.0529564
-0.113765
0.059523
-0.114653
0.0669506
-0.115021
0.0749135
-0.115133
0.0829994
-0.115208
0.0911399
-0.115625
0.0990689
-0.116308
0.1068
-0.117571
0.114778
-0.119186
0.122012
-0.121105
0.130075
-0.123714
-0.125928
0.137531
0.0118157
-0.0676759
0.0182425
-0.112883
0.022988
-0.11188
0.026957
-0.115928
0.0309712
-0.113458
0.0348368
-0.114034
0.0380456
-0.11406
0.0410897
-0.115402
0.0446794
-0.117355
0.0492901
-0.119264
0.055061
-0.120792
0.0617759
-0.121848
0.0692033
-0.122635
0.0768874
-0.123309
0.0847753
-0.124196
0.0925051
-0.1253
0.100149
-0.12683
0.107811
-0.128767
0.115106
-0.131008
-0.133667
0.122845
0.00969738
-0.0773733
0.0151664
-0.118352
0.0193855
-0.116099
0.0225145
-0.119057
0.0261197
-0.117063
0.0297288
-0.117644
0.0328106
-0.117141
0.0351922
-0.117783
0.0373119
-0.119474
0.0398367
-0.121789
0.0432824
-0.124237
0.0478879
-0.126454
0.0535475
-0.128295
0.0600897
-0.129851
0.0671505
-0.131257
0.0745815
-0.132731
0.08206
-0.134308
0.0895755
-0.136283
0.0971205
-0.138553
-0.140742
0.104196
0.00850597
-0.0858793
0.0126929
-0.122538
0.0161462
-0.119552
0.0182807
-0.121192
0.0210978
-0.119881
0.0240084
-0.120554
0.0270905
-0.120224
0.029577
-0.12027
0.0312338
-0.121131
0.032381
-0.122936
0.0336426
-0.125499
0.0355764
-0.128387
0.0385304
-0.131249
0.04258
-0.133901
0.0476469
-0.136323
0.0534687
-0.138553
0.0599941
-0.140834
0.0667006
-0.142989
0.073731
-0.145583
-0.148138
0.0811264
0.00695504
-0.0928343
0.0102182
-0.125802
0.0128514
-0.122186
0.0142579
-0.122598
0.0160663
-0.121689
0.0176554
-0.122143
0.0201002
-0.122668
0.0226696
-0.122839
0.0247366
-0.123198
0.0259122
-0.124111
0.0263245
-0.125911
0.026432
-0.128495
0.0267823
-0.131599
0.0278031
-0.134921
0.0297269
-0.138247
0.0326623
-0.141489
0.036417
-0.144589
0.0410858
-0.147658
0.0462523
-0.15075
-0.153674
0.0517886
0.00526743
-0.0981018
0.00751683
-0.128051
0.00924612
-0.123915
0.0105174
-0.12387
0.011651
-0.122823
0.0121165
-0.122609
0.0130496
-0.123601
0.0145882
-0.124378
0.0165736
-0.125183
0.0183128
-0.125851
0.0192871
-0.126885
0.0193553
-0.128563
0.0187256
-0.13097
0.0177998
-0.133996
0.0169937
-0.137441
0.0166319
-0.141127
0.0169672
-0.144924
0.018008
-0.148699
0.0197542
-0.152496
-0.156247
0.0223268
0.00388524
-0.101987
0.00471208
-0.128878
0.00541678
-0.12462
0.00617637
-0.124629
0.00711493
-0.123761
0.00732498
-0.122819
0.00701574
-0.123292
0.00694099
-0.124303
0.00756276
-0.125805
0.00878805
-0.127076
0.0101887
-0.128286
0.0111982
-0.129573
0.0114503
-0.131222
0.0108399
-0.133385
0.00951655
-0.136118
0.00774786
-0.139358
0.00581484
-0.142991
0.00407774
-0.146962
0.00272098
-0.151139
-0.155254
0.00172809
0.00287609
-0.104863
0.00269692
-0.128699
0.00277758
-0.1247
0.00147981
-0.123332
0.00201974
-0.124301
0.00149854
-0.122298
0.00141764
-0.123211
0.000204217
-0.12309
-0.000924058
-0.124677
-0.0015202
-0.12648
-0.00136302
-0.128443
-0.000627314
-0.130308
0.00029889
-0.132148
0.00100404
-0.13409
0.00117544
-0.136289
0.000669655
-0.138852
-0.000465785
-0.141855
-0.00209696
-0.14533
-0.00407499
-0.149161
-0.00588806
-0.153441
-0.00530847
-0.00109535
0.00640382
-0.000481139
-0.00346112
-0.00136621
0.00813138
-0.00335404
-0.00525848
0.018329
-0.00379787
-0.00639977
0.030018
-0.00392631
-0.00776268
0.0421772
-0.00388046
-0.00827872
0.0543371
-0.00369095
-0.00846896
0.0663245
-0.0034074
-0.00857996
0.0780921
-0.00306603
-0.0087016
0.0896682
-0.00270858
-0.00886749
0.101105
-0.00233206
-0.00910456
0.112481
-0.0019754
-0.00940092
0.123838
-0.00161127
-0.00974576
0.135266
-0.00125786
-0.0101698
0.146757
-0.000951736
-0.0105396
0.158453
-0.00057589
-0.0111199
0.170243
-0.000298315
-0.011492
0.18241
-5.01331e-05
-0.0121161
0.194629
0.000511594
-0.0127307
0.000441005
0.207326
-0.0131386
-0.00545404
0.00435868
-0.000653582
-0.00826157
0.00802064
-0.0120283
0.0183459
-0.0141232
0.0302482
-0.0158286
0.0426301
-0.0162623
0.0549768
-0.0160377
0.0671052
-0.0155358
0.0789801
-0.0149409
0.0906337
-0.0143622
0.102128
-0.0138261
0.11354
-0.0133874
0.12493
-0.013002
0.13638
-0.0127072
0.147908
-0.0124796
0.15962
-0.0122882
0.171456
-0.0121346
0.183614
-0.0122077
0.195925
-0.0117998
-0.0123177
0.208684
-0.00548524
0.00984392
-0.000467453
-0.0132794
0.00869615
-0.0211919
0.0195684
-0.0249955
0.0316594
-0.0279196
0.0440701
-0.028673
0.056345
-0.0283126
0.0683389
-0.0275297
0.0800555
-0.0266575
0.0915458
-0.0258526
0.10289
-0.0251699
0.114156
-0.0246538
0.125423
-0.0242688
0.136749
-0.0240331
0.14818
-0.0239105
0.159788
-0.0238967
0.17156
-0.0239067
0.183637
-0.0242842
0.195891
-0.0240537
-0.0250051
0.208578
-0.00531375
0.0151577
0.000460997
-0.0190541
0.0103602
-0.0310911
0.0220244
-0.0366597
0.0342415
-0.0401367
0.0464684
-0.0408999
0.0583975
-0.0402417
0.069972
-0.0391042
0.0812626
-0.0379481
0.0923509
-0.0369409
0.103338
-0.0361571
0.114279
-0.0355951
0.125264
-0.0352536
0.136329
-0.0350981
0.147525
-0.0351068
0.158923
-0.0352941
0.170495
-0.0354785
0.182372
-0.0361611
0.194447
-0.0361287
-0.037502
0.206944
-0.00461922
0.0197769
0.00258813
-0.0262615
0.0133276
-0.0418306
0.0256826
-0.0490147
0.037849
-0.0523031
0.0496223
-0.0526732
0.0609234
-0.0515428
0.0718202
-0.050001
0.0824551
-0.048583
0.0929412
-0.047427
0.103397
-0.0466131
0.113861
-0.046059
0.124423
-0.0458159
0.135109
-0.0457833
0.145917
-0.0459154
0.157025
-0.0464017
0.168219
-0.0466728
0.17984
-0.0477816
0.191639
-0.0479284
-0.049686
0.203823
-0.00277153
0.0225484
0.00646922
-0.0355022
0.0177648
-0.0531262
0.0302331
-0.0614829
0.0419808
-0.0640508
0.0529916
-0.0636839
0.0634318
-0.0619831
0.0734799
-0.0600491
0.0833167
-0.0584198
0.0930783
-0.0571885
0.102883
-0.0564177
0.112764
-0.0559404
0.122797
-0.0558482
0.133023
-0.05601
0.143313
-0.0562056
0.15411
-0.0571981
0.164679
-0.0572421
0.176031
-0.0591335
0.187421
-0.0593179
-0.0614412
0.199176
0.000757253
0.0217912
0.0120557
-0.0468006
0.0232721
-0.0643426
0.0348564
-0.0730672
0.0455856
-0.07478
0.0555756
-0.0736739
0.0651001
-0.0715076
0.0743351
-0.0692841
0.083416
-0.0675007
0.0924777
-0.0662503
0.101603
-0.0655426
0.110869
-0.0652064
0.120288
-0.0652673
0.129985
-0.0657073
0.139687
-0.065908
0.150123
-0.0676337
0.159951
-0.0670703
0.170994
-0.0701757
0.181726
-0.0700502
-0.0724973
0.192782
0.00525048
0.0165407
0.0180109
-0.059561
0.0285166
-0.0748484
0.0382985
-0.0828491
0.0473114
-0.0837929
0.0560936
-0.0824561
0.0648365
-0.0802505
0.0735264
-0.077974
0.0821307
-0.076105
0.0907155
-0.0748351
0.0992986
-0.0741257
0.108034
-0.073942
0.11684
-0.0740735
0.125939
-0.0748055
0.135083
-0.0750529
0.144788
-0.0773386
0.154238
-0.0765201
0.164562
-0.0804994
0.174787
-0.0802755
-0.0823099
0.1846
0.0103453
0.00619544
0.0228616
-0.0720774
0.0317179
-0.0837047
0.0393689
-0.0905001
0.0463838
-0.0908078
0.0538775
-0.0899497
0.0619638
-0.0883368
0.0703804
-0.0863906
0.0788538
-0.0845784
0.0872731
-0.0832544
0.0956008
-0.0824534
0.103976
-0.0823171
0.11234
-0.0824374
0.120868
-0.0833337
0.129631
-0.0838163
0.138154
-0.0858614
0.147724
-0.0860897
0.156531
-0.0893064
0.16668
-0.0904246
-0.0911889
0.175559
0.0160621
0.0257873
0.0319793
0.0379037
0.0433606
0.0496583
0.0569744
0.0650572
0.0734806
0.0819058
0.0902254
0.0983938
0.106538
0.11462
0.123041
0.130919
0.140208
0.147592
0.156621
0.166175
0.211041
0.0149976
-0.0187121
0.214115
0.0161906
-0.0192647
0.216653
0.0168159
-0.0193539
0.218719
0.0178263
-0.0198929
0.220457
0.0189753
-0.0207125
0.221961
0.0199538
-0.0214577
0.223246
0.0208894
-0.0221745
0.224332
0.0218553
-0.0229413
0.225253
0.0228219
-0.0237429
0.226033
0.023785
-0.0245657
0.22669
0.0247569
-0.0254135
0.227237
0.0257418
-0.0262887
0.227687
0.0267409
-0.0271908
0.22805
0.0277568
-0.0281198
0.228334
0.0287918
-0.0290762
0.228547
0.0298491
-0.0300619
0.228695
0.0309325
-0.03108
0.228783
0.0320462
-0.0321342
0.228816
0.033195
-0.0332285
0.2288
0.0343837
-0.0343671
0.228737
0.035618
-0.0355552
0.228631
0.0369046
-0.036799
0.228485
0.0382513
-0.0381054
0.228301
0.0396666
-0.0394823
0.228081
0.0411592
-0.0409386
0.227825
0.0427401
-0.0424847
0.227536
0.0444207
-0.044132
0.227215
0.0462149
-0.0458939
0.226863
0.0481377
-0.0477858
0.226482
0.0502069
-0.0498251
0.226071
0.0524429
-0.0520326
0.225633
0.0548715
-0.0544332
0.225166
0.0575235
-0.0570567
0.224671
0.0604306
-0.0599349
0.224146
0.0636281
-0.063103
0.223591
0.0671549
-0.0666002
0.223007
0.0710551
-0.0704708
0.222392
0.0753791
-0.0747648
0.221748
0.0801835
-0.0795391
0.221073
0.0855319
-0.0848569
0.220367
0.0914951
-0.0907891
0.219629
0.0981515
-0.0974138
0.218859
0.105588
-0.104818
0.218055
0.113899
-0.113096
0.217217
0.12319
-0.122352
0.216343
0.133573
-0.132699
0.215431
0.145151
-0.144239
0.21448
0.158197
-0.157246
0.213482
0.171678
-0.17068
0.191591
-0.190531
0.212243
0.0114382
0.21526
0.0131744
0.21774
0.0143357
0.219767
0.0157991
0.221513
0.0172294
0.22303
0.0184365
0.224313
0.0196069
0.225392
0.0207759
0.226308
0.0219061
0.227082
0.0230108
0.227731
0.0241084
0.228269
0.0252035
0.22871
0.0263002
0.229063
0.0274032
0.229338
0.028517
0.229541
0.0296457
0.22968
0.030794
0.229759
0.031967
0.229784
0.0331702
0.229759
0.034409
0.229687
0.0356895
0.229573
0.0370186
0.229419
0.038405
0.229229
0.0398574
0.229002
0.0413858
0.228741
0.0430013
0.228447
0.0447149
0.22812
0.0465412
0.227763
0.0484946
0.227377
0.0505933
0.226963
0.0528573
0.22652
0.0553136
0.22605
0.0579943
0.225549
0.0609309
0.225019
0.0641586
0.224457
0.0677162
0.223865
0.0716479
0.22324
0.076004
0.222582
0.0808415
0.22189
0.086224
0.221162
0.0922224
0.220399
0.0989154
0.219597
0.10639
0.218755
0.114741
0.217873
0.124072
0.216948
0.134498
0.215979
0.14612
0.214962
0.159214
0.21389
0.17275
0.192738
0.21179
0.00822653
0.214597
0.0103673
0.216941
0.0119915
0.218897
0.013843
0.22064
0.0154867
0.222167
0.0169096
0.223457
0.0183167
0.224553
0.01968
0.22549
0.0209683
0.226286
0.0222154
0.226954
0.0234405
0.22751
0.0246474
0.227968
0.0258425
0.228338
0.0270332
0.228629
0.0282254
0.22885
0.0294248
0.229007
0.0306372
0.229106
0.0318685
0.229151
0.0331248
0.229147
0.0344124
0.229099
0.0357382
0.229008
0.0371096
0.228877
0.0385351
0.228712
0.0400234
0.228512
0.0415851
0.228281
0.0432323
0.22802
0.0449765
0.227728
0.0468332
0.227407
0.0488155
0.227058
0.0509419
0.226684
0.0532312
0.226285
0.0557128
0.225859
0.0584204
0.225405
0.0613845
0.224923
0.064641
0.224411
0.0682284
0.223868
0.072191
0.223292
0.0765794
0.222683
0.0814508
0.222038
0.0868692
0.221354
0.0929056
0.220631
0.0996391
0.219864
0.107156
0.219052
0.115553
0.218192
0.124932
0.217283
0.135408
0.216321
0.147082
0.215306
0.16023
0.214227
0.173829
0.193903
0.209782
0.00538835
0.212326
0.00782295
0.214498
0.00982007
0.216371
0.0119699
0.2181
0.0137572
0.219632
0.0153781
0.220936
0.0170125
0.222059
0.0185568
0.22303
0.0199976
0.22386
0.0213848
0.224566
0.0227348
0.225161
0.0240522
0.225658
0.025346
0.226066
0.0266248
0.226396
0.0278953
0.226656
0.0291647
0.226854
0.0304399
0.226995
0.0317277
0.227084
0.0330352
0.227127
0.0343694
0.227127
0.0357379
0.227088
0.0371488
0.227013
0.0386108
0.226903
0.0401334
0.22676
0.0417277
0.226588
0.0434043
0.226389
0.0451752
0.226165
0.0470576
0.225915
0.0490651
0.225641
0.0512164
0.225345
0.0535273
0.225027
0.0560304
0.224687
0.0587611
0.224322
0.061749
0.223932
0.065031
0.223515
0.0686452
0.22307
0.072636
0.222595
0.0770546
0.222087
0.0819585
0.221544
0.0874121
0.220963
0.0934871
0.220339
0.100263
0.21967
0.107826
0.21895
0.116272
0.218177
0.125705
0.217347
0.136238
0.216459
0.14797
0.21551
0.161179
0.214492
0.174847
0.195014
0.206241
0.00297044
0.208489
0.00557489
0.210445
0.00786378
0.212239
0.0101759
0.213957
0.0120395
0.215495
0.0138402
0.216837
0.0156705
0.218015
0.0173784
0.219037
0.018976
0.219913
0.0205086
0.220666
0.0219821
0.221312
0.0234059
0.221863
0.0247947
0.222329
0.0261587
0.222719
0.0275061
0.223039
0.0288443
0.223298
0.0301809
0.223502
0.0315235
0.223658
0.0328799
0.223769
0.0342579
0.223841
0.0356659
0.223878
0.0371124
0.223881
0.038607
0.223855
0.0401596
0.223801
0.0417814
0.223722
0.0434838
0.223617
0.0452804
0.223489
0.0471855
0.223341
0.0492125
0.223176
0.051382
0.222994
0.053709
0.222795
0.0562295
0.222577
0.0589787
0.222341
0.0619851
0.222085
0.0652876
0.221806
0.0689237
0.221504
0.0729383
0.221176
0.0773829
0.220818
0.0823156
0.220429
0.0878017
0.220003
0.0939134
0.219535
0.100731
0.21902
0.108341
0.218453
0.116839
0.217829
0.12633
0.217142
0.136924
0.216392
0.14872
0.215575
0.161995
0.214686
0.175737
0.196001
0.201193
0.000952778
0.203197
0.00357147
0.204941
0.00611927
0.206652
0.00846539
0.208318
0.0103733
0.209784
0.0123747
0.211091
0.0143627
0.212301
0.016169
0.213404
0.0178728
0.214389
0.0195242
0.215251
0.0211192
0.215997
0.0226604
0.216637
0.0241545
0.217186
0.0256094
0.217657
0.0270353
0.21806
0.028442
0.218402
0.0298386
0.218692
0.0312338
0.218935
0.0326365
0.219137
0.0340554
0.219304
0.0354995
0.219438
0.0369779
0.219545
0.0385007
0.219626
0.0400785
0.219685
0.0417225
0.219723
0.0434454
0.219743
0.0452606
0.219745
0.0471829
0.21973
0.0492284
0.2197
0.0514114
0.219666
0.0537436
0.219622
0.0562734
0.219564
0.0590365
0.219494
0.0620553
0.21941
0.0653717
0.21931
0.0690232
0.219193
0.0730552
0.219056
0.0775198
0.218896
0.0824758
0.218708
0.0879893
0.218488
0.0941336
0.218229
0.100989
0.217925
0.108645
0.217569
0.117196
0.217153
0.126746
0.216672
0.137405
0.216122
0.14927
0.215502
0.162615
0.214808
0.176431
0.196793
0.194671
-0.000936617
0.196258
0.00198498
0.197721
0.00465631
0.19942
0.00676675
0.201192
0.00860124
0.202817
0.0107492
0.204289
0.0128907
0.205589
0.0148693
0.206705
0.0167564
0.207683
0.0185464
0.208562
0.0202404
0.209356
0.0218663
0.210069
0.0234412
0.210705
0.0249736
0.211268
0.0264717
0.211767
0.0279435
0.212208
0.0293977
0.212598
0.0308431
0.212946
0.0322892
0.213256
0.0337451
0.213535
0.0352206
0.213787
0.0367258
0.214016
0.0382712
0.214227
0.039868
0.214422
0.0415278
0.214603
0.0432639
0.214774
0.0450898
0.214935
0.0470216
0.215089
0.0490748
0.215235
0.0512647
0.215379
0.0536001
0.215525
0.0561275
0.215667
0.0588944
0.215802
0.0619199
0.215929
0.0652453
0.216047
0.0689051
0.216155
0.0729466
0.216252
0.0774231
0.216333
0.0823946
0.216394
0.0879283
0.216429
0.0940986
0.216431
0.100988
0.216391
0.108684
0.216301
0.117286
0.216153
0.126895
0.215938
0.13762
0.215651
0.149556
0.215293
0.162973
0.214861
0.176863
0.19732
0.186651
-0.00298784
0.188278
0.000357765
0.189632
0.00330276
0.191038
0.00536067
0.192468
0.00717098
0.193839
0.00937848
0.195195
0.0115339
0.196554
0.0135112
0.197862
0.0154484
0.19907
0.0173377
0.200159
0.0191515
0.201134
0.020892
0.202008
0.0225668
0.202796
0.0241859
0.203507
0.0257601
0.204152
0.0272991
0.204738
0.0288119
0.205273
0.030308
0.205765
0.0317968
0.206222
0.0332883
0.20665
0.0347929
0.207054
0.0363218
0.207439
0.0378865
0.207808
0.0394983
0.208167
0.0411695
0.208517
0.0429136
0.208862
0.0447448
0.209204
0.0466793
0.209546
0.0487334
0.209888
0.0509222
0.210234
0.0532542
0.210584
0.0557777
0.210943
0.058535
0.211316
0.0615473
0.211692
0.064869
0.212069
0.0685287
0.212443
0.0725719
0.212814
0.0770521
0.213179
0.0820306
0.213531
0.0875759
0.213865
0.0937642
0.214174
0.100679
0.214448
0.108411
0.214676
0.117058
0.214848
0.126722
0.214954
0.137514
0.21499
0.149521
0.214952
0.163011
0.214846
0.176969
0.197512
0.176661
-0.00408948
0.178084
-0.00106573
0.179391
0.00199601
0.1809
0.00385136
0.182765
0.0053061
0.184615
0.00752846
0.186298
0.00985063
0.187763
0.0120462
0.189065
0.0141469
0.190251
0.016151
0.191341
0.0180615
0.192343
0.0198902
0.193262
0.0216476
0.194105
0.023343
0.19488
0.0249847
0.195598
0.0265815
0.196267
0.0281428
0.196896
0.0296787
0.197494
0.0311994
0.198066
0.032716
0.198619
0.0342401
0.199157
0.0357833
0.199687
0.0373572
0.200211
0.0389739
0.200735
0.0406459
0.201261
0.042387
0.201794
0.0442121
0.202336
0.0461377
0.202888
0.0481814
0.203453
0.0503568
0.204044
0.0526628
0.204666
0.0551556
0.205307
0.0578942
0.205957
0.0608973
0.206617
0.0642091
0.207287
0.0678586
0.207968
0.0718914
0.208657
0.0763629
0.209351
0.0813362
0.210046
0.0868815
0.210733
0.0930767
0.211405
0.100007
0.21205
0.107766
0.212656
0.116451
0.213211
0.126167
0.213703
0.137022
0.214125
0.149099
0.214473
0.162663
0.214759
0.176683
0.197301
0.166344
-0.00425907
0.167828
-0.00254914
0.168309
0.00151442
0.168482
0.00367886
0.169462
0.00432547
0.171262
0.00572923
0.173259
0.0078528
0.175146
0.0101601
0.176859
0.012434
0.178396
0.0146134
0.179782
0.016676
0.181046
0.0186263
0.182212
0.0204813
0.183298
0.0222571
0.184316
0.0239668
0.185275
0.0256217
0.186186
0.0272327
0.187054
0.0288106
0.187887
0.0303661
0.188692
0.0319106
0.189477
0.0334557
0.190247
0.0350134
0.191008
0.0365955
0.191767
0.0382147
0.192529
0.039884
0.193299
0.0416174
0.194081
0.0434301
0.19488
0.0453387
0.1957
0.047361
0.196553
0.0495044
0.197437
0.0517787
0.198333
0.054259
0.199241
0.0569869
0.200165
0.0599726
0.201116
0.0632585
0.202093
0.0668813
0.203096
0.0708891
0.20412
0.0753385
0.205163
0.0802936
0.206218
0.0858262
0.207279
0.0920159
0.208336
0.0989503
0.209377
0.106724
0.21039
0.115439
0.211359
0.125198
0.212271
0.13611
0.213118
0.148252
0.213893
0.161888
0.214619
0.175958
0.196623
0.191798
-0.00255967
-0.193498
0.190991
-0.00174145
0.190636
0.00186888
0.189856
0.00445937
0.188644
0.00553661
0.187613
0.00676079
0.186895
0.00857061
0.186453
0.0106025
0.186254
0.012633
0.186235
0.0146326
0.186336
0.0165751
0.186515
0.0184468
0.186744
0.020252
0.187004
0.0219976
0.18728
0.0236905
0.187564
0.0253379
0.187849
0.0269482
0.188129
0.02853
0.188403
0.0300922
0.188669
0.0316446
0.188926
0.0331984
0.189175
0.0347649
0.189415
0.0363556
0.189647
0.0379828
0.189871
0.0396593
0.19009
0.041399
0.190303
0.043217
0.190512
0.0451295
0.19072
0.0471528
0.190925
0.0492998
0.191112
0.0515912
0.191293
0.0540783
0.191477
0.0568026
0.191663
0.0597867
0.191852
0.0630695
0.192044
0.0666898
0.192237
0.0706955
0.192433
0.075143
0.19263
0.0800965
0.192828
0.0856278
0.193027
0.0918168
0.193226
0.0987513
0.193424
0.106527
0.193618
0.115244
0.193807
0.12501
0.193985
0.135931
0.194147
0.14809
0.194283
0.161752
0.194393
0.175848
0.196571
0.207236
0.000165251
-0.209961
0.204844
0.000650459
0.203845
0.00286803
0.203294
0.00501083
0.202388
0.00644258
0.201425
0.00772334
0.200701
0.009295
0.200231
0.0110723
0.199964
0.0129004
0.199858
0.0147381
0.199872
0.0165616
0.199969
0.0183493
0.200127
0.0200944
0.200327
0.0217974
0.200557
0.023461
0.200805
0.0250896
0.201064
0.0266889
0.201329
0.0282655
0.201594
0.0298269
0.201857
0.0313818
0.202115
0.0329399
0.202368
0.0345117
0.202616
0.0361082
0.202858
0.0377411
0.203094
0.0394228
0.203326
0.0411672
0.203554
0.042989
0.203779
0.0449041
0.204003
0.046929
0.204222
0.049081
0.204431
0.0513822
0.204636
0.0538729
0.204844
0.0565949
0.205054
0.0595771
0.205267
0.0628564
0.205483
0.0664735
0.205703
0.0704762
0.205925
0.0749209
0.206149
0.0798719
0.206376
0.0854011
0.206604
0.0915888
0.206832
0.0985231
0.207059
0.1063
0.207282
0.115021
0.207498
0.124794
0.207703
0.135727
0.207888
0.147905
0.208045
0.161595
0.208173
0.175719
0.196511
0.223373
0.00269213
-0.2259
0.220919
0.0031049
0.219294
0.00449245
0.218234
0.00607136
0.217276
0.00740007
0.216365
0.00863461
0.215619
0.0100412
0.215068
0.0116231
0.214689
0.0132786
0.214466
0.0149617
0.214372
0.0166556
0.214378
0.0183429
0.214461
0.020012
0.2146
0.0216581
0.214781
0.0232799
0.214992
0.0248786
0.215224
0.0264573
0.215469
0.0280206
0.215721
0.0295743
0.215977
0.0311257
0.216234
0.0326831
0.21649
0.0342559
0.216744
0.0358545
0.216995
0.0374899
0.217243
0.0391743
0.217489
0.0409211
0.217734
0.0427448
0.217976
0.0446612
0.218218
0.0466874
0.218457
0.0488424
0.21869
0.0511488
0.218921
0.0536419
0.219154
0.056362
0.21939
0.0593411
0.21963
0.0626162
0.219875
0.0662289
0.220123
0.0702275
0.220376
0.0746684
0.220632
0.0796159
0.220891
0.0851423
0.221152
0.0913279
0.221413
0.0982616
0.221673
0.10604
0.221929
0.114765
0.222177
0.124546
0.222412
0.135492
0.222624
0.147692
0.222804
0.161415
0.222952
0.175572
0.196444
0.239991
0.00511964
-0.242419
0.237592
0.00550479
0.235781
0.0063026
0.234482
0.00737113
0.233376
0.00850579
0.232374
0.0096367
0.231536
0.0108787
0.23089
0.0122698
0.230415
0.0137531
0.230092
0.0152847
0.229901
0.016847
0.229818
0.0184255
0.229823
0.0200073
0.229897
0.0215843
0.230024
0.0231526
0.230192
0.0247105
0.230391
0.0262587
0.230611
0.0277999
0.230847
0.0293382
0.231094
0.0308792
0.231347
0.03243
0.231604
0.0339989
0.231863
0.0355953
0.232123
0.0372296
0.232384
0.0389136
0.232645
0.0406601
0.232907
0.0424834
0.233169
0.0443992
0.233431
0.0464251
0.233693
0.0485807
0.233952
0.0508895
0.23421
0.0533835
0.234472
0.0561007
0.234737
0.0590754
0.235008
0.0623451
0.235285
0.0659522
0.235567
0.0699454
0.235854
0.0743811
0.236146
0.079324
0.236442
0.0848464
0.236741
0.0910293
0.237041
0.0979618
0.237339
0.105741
0.237633
0.114471
0.237917
0.124261
0.238186
0.135224
0.23843
0.147448
0.238637
0.161208
0.238806
0.175403
0.196367
0.257042
0.0073348
-0.259257
0.254924
0.00762287
0.253149
0.00807794
0.251714
0.00880617
0.250494
0.00972555
0.249424
0.0107067
0.248516
0.011787
0.247784
0.0130019
0.247218
0.0143187
0.246802
0.015701
0.246518
0.0171306
0.246349
0.0185945
0.246276
0.0200801
0.246283
0.0215781
0.246353
0.0230823
0.246474
0.024589
0.246636
0.0260971
0.246829
0.0276073
0.247045
0.029122
0.247279
0.0306454
0.247525
0.0321832
0.247782
0.0337425
0.248045
0.0353318
0.248314
0.0369608
0.248587
0.0386405
0.248864
0.0403835
0.249144
0.0422036
0.249426
0.0441165
0.249712
0.0461398
0.249999
0.0482937
0.250286
0.0506018
0.250575
0.0530944
0.250869
0.0558074
0.251168
0.0587762
0.251474
0.0620391
0.251787
0.065639
0.252107
0.0696251
0.252434
0.0740543
0.252767
0.0789911
0.253105
0.0845083
0.253447
0.0906874
0.253791
0.0976181
0.254133
0.105399
0.254471
0.114134
0.254798
0.123935
0.255106
0.134916
0.255386
0.147168
0.255624
0.16097
0.255818
0.175209
0.196278
0.274906
0.00922283
-0.276794
0.273041
0.009487
0.271363
0.0097565
0.269913
0.0102561
0.268653
0.0109857
0.267543
0.0118163
0.266584
0.0127461
0.265785
0.0138004
0.265144
0.0149603
0.264647
0.0161978
0.264282
0.0174961
0.264033
0.0188431
0.263886
0.0202272
0.263825
0.0216386
0.263838
0.02307
0.26391
0.0245165
0.264032
0.0259753
0.264194
0.0274457
0.264387
0.0289286
0.264606
0.0304267
0.264844
0.0319446
0.265098
0.0334882
0.265365
0.035065
0.265642
0.0366838
0.265928
0.038355
0.266221
0.0400907
0.26652
0.0419043
0.266825
0.0438113
0.267136
0.0458293
0.267451
0.0479786
0.26777
0.050283
0.268093
0.0527713
0.268422
0.0554781
0.268759
0.0584392
0.269105
0.0616933
0.26946
0.0652842
0.269823
0.0692615
0.270195
0.0736822
0.270575
0.0786112
0.270962
0.0841217
0.271353
0.0902958
0.271748
0.0972239
0.272141
0.105005
0.272529
0.113746
0.272904
0.123559
0.273258
0.134561
0.27358
0.146847
0.273854
0.160697
0.274077
0.174986
0.196175
0.293682
0.0108728
-0.295332
0.292048
0.0111212
0.290516
0.0112884
0.289126
0.0116456
0.28788
0.0122319
0.286765
0.0129314
0.285783
0.0137276
0.284944
0.01464
0.284247
0.0156573
0.283686
0.0167589
0.283251
0.0179308
0.282932
0.019162
0.282717
0.0204422
0.282594
0.0217621
0.282549
0.0231142
0.282573
0.0244929
0.282654
0.0258944
0.282783
0.0273168
0.282952
0.0287598
0.283153
0.0302252
0.283382
0.031716
0.283633
0.0332374
0.283902
0.0347956
0.284187
0.0363988
0.284485
0.0380568
0.284795
0.0397807
0.285116
0.0415839
0.285446
0.0434814
0.285784
0.0454907
0.286131
0.0476322
0.286484
0.0499293
0.286845
0.0524103
0.287215
0.0551083
0.287595
0.0580593
0.287986
0.0613025
0.288388
0.0648822
0.288801
0.0688483
0.289225
0.0732584
0.289658
0.0781775
0.290101
0.0836796
0.290549
0.0898471
0.291002
0.0967715
0.291453
0.104553
0.291899
0.113301
0.292331
0.123128
0.292738
0.134154
0.293109
0.146476
0.293424
0.160382
0.293681
0.174728
0.196057
0.313495
0.0122955
-0.314918
0.312085
0.0125314
0.310714
0.0126596
0.309421
0.0129383
0.308229
0.0134239
0.307142
0.0140185
0.306167
0.0147029
0.305312
0.0154946
0.304583
0.0163871
0.303976
0.0173653
0.303488
0.0184187
0.303112
0.0195384
0.302839
0.0207156
0.302659
0.0219421
0.302562
0.0232107
0.302539
0.0245159
0.30258
0.0258534
0.302676
0.0272205
0.30282
0.0286164
0.303003
0.0300415
0.303221
0.0314982
0.303468
0.0329904
0.30374
0.0345238
0.304033
0.0361057
0.304345
0.0377449
0.304674
0.0394522
0.305017
0.0412404
0.305374
0.0431243
0.305744
0.045121
0.306125
0.0472507
0.306518
0.0495368
0.306921
0.0520068
0.307337
0.0546929
0.307765
0.0576309
0.308207
0.0608605
0.308663
0.0644262
0.309133
0.0683786
0.309615
0.0727754
0.310111
0.0776823
0.310617
0.0831737
0.311131
0.0893328
0.31165
0.0962523
0.312169
0.104034
0.312682
0.112788
0.313179
0.122631
0.313649
0.133684
0.314075
0.146049
0.314439
0.160018
0.314736
0.174431
0.19592
0.334471
0.0135009
-0.335676
0.333258
0.0137444
0.332048
0.0138692
0.330876
0.0141109
0.329768
0.0145314
0.328738
0.015049
0.327795
0.015646
0.32695
0.016339
0.326212
0.0171258
0.325581
0.0179957
0.325058
0.0189416
0.32464
0.019957
0.32432
0.021035
0.324093
0.022169
0.323951
0.0233526
0.323887
0.0245807
0.323891
0.0258491
0.323957
0.027155
0.324076
0.028497
0.324242
0.029875
0.32445
0.0312906
0.324693
0.032747
0.324968
0.034249
0.325271
0.0358033
0.325597
0.0374179
0.325946
0.0391033
0.326315
0.0408715
0.326703
0.0427369
0.327107
0.0447165
0.327528
0.0468301
0.327964
0.0491007
0.328415
0.0515556
0.328882
0.054226
0.329366
0.0571477
0.329866
0.0603604
0.330383
0.0639089
0.330917
0.0678443
0.331468
0.0722248
0.332034
0.0771165
0.332613
0.0825945
0.333203
0.088743
0.333799
0.0956559
0.334396
0.103437
0.334987
0.112198
0.335559
0.122058
0.336101
0.133143
0.336593
0.145557
0.337013
0.159598
0.337357
0.174088
0.195762
0.356704
0.0145151
-0.357719
0.355672
0.0147773
0.354622
0.0149192
0.353581
0.0151516
0.352577
0.0155353
0.351625
0.0160013
0.350737
0.0165339
0.349926
0.01715
0.349201
0.0178505
0.348568
0.0186286
0.34803
0.0194799
0.347586
0.0204006
0.347235
0.0213858
0.346974
0.0224306
0.346797
0.0235299
0.346698
0.0246795
0.346671
0.0258757
0.34671
0.0271159
0.346809
0.0283985
0.34696
0.0297233
0.34716
0.0310914
0.347401
0.0325053
0.347681
0.0339695
0.347994
0.0354897
0.348339
0.0370737
0.348711
0.0387311
0.349109
0.0404736
0.34953
0.0423153
0.349974
0.0442726
0.350439
0.0463651
0.350924
0.0486155
0.351429
0.0510505
0.351955
0.0537009
0.3525
0.0566021
0.353067
0.0597939
0.353654
0.0633214
0.354262
0.0672361
0.35489
0.0715966
0.355537
0.0764697
0.356201
0.0819311
0.356878
0.0880662
0.357563
0.0949705
0.35825
0.102749
0.358931
0.111517
0.359592
0.121397
0.360217
0.132518
0.360786
0.144987
0.361272
0.159112
0.36167
0.17369
0.195579
0.380307
0.0153577
-0.38115
0.379439
0.0156455
0.378541
0.0158167
0.377635
0.0160574
0.376746
0.016425
0.375887
0.0168598
0.375073
0.0173485
0.374315
0.0179075
0.373625
0.0185402
0.373011
0.0192429
0.372477
0.0200136
0.372027
0.0208507
0.371662
0.0217514
0.37138
0.0227124
0.371179
0.0237304
0.371057
0.0248021
0.371008
0.0259248
0.371027
0.0270964
0.37111
0.0283155
0.371252
0.029582
0.371446
0.0308967
0.371689
0.0322621
0.371977
0.0336819
0.372305
0.0351617
0.37267
0.0367086
0.373069
0.0383319
0.3735
0.0400427
0.373961
0.0418547
0.374449
0.043784
0.374965
0.0458498
0.375506
0.0480745
0.376072
0.0504843
0.376663
0.0531096
0.37728
0.0559855
0.377922
0.0591518
0.37859
0.0626538
0.379282
0.0665433
0.38
0.0708794
0.38074
0.0757296
0.3815
0.0811706
0.382277
0.0872891
0.383066
0.094182
0.383858
0.101957
0.384643
0.110732
0.385406
0.120634
0.386129
0.131795
0.386789
0.144327
0.387353
0.158548
0.387815
0.173228
0.195366
0.405393
0.0160486
-0.406084
0.404673
0.0163654
0.403918
0.0165712
0.403145
0.0168305
0.402374
0.0171957
0.401619
0.0176151
0.400891
0.0180763
0.400204
0.0185952
0.399567
0.0191767
0.398991
0.0198194
0.398481
0.0205233
0.398043
0.0212885
0.397681
0.022114
0.397395
0.0229983
0.397186
0.0239396
0.397052
0.0249359
0.396991
0.0259855
0.397
0.0270871
0.397076
0.02824
0.397214
0.0294441
0.39741
0.0307006
0.39766
0.0320117
0.397961
0.0333813
0.398308
0.0348143
0.398699
0.0363177
0.399131
0.0379003
0.3996
0.039573
0.400106
0.041349
0.400646
0.0432441
0.401219
0.045277
0.401823
0.0474699
0.402459
0.0498485
0.403126
0.052443
0.403824
0.0552879
0.404552
0.0584232