/*--------------------------------*- C++ -*----------------------------------*\
| =========                 |                                                 |
| \\      /  F ield         | OpenFOAM: The Open Source CFD Toolbox           |
|  \\    /   O peration     | Version:  2512                                  |
|   \\  /    A nd           | Website:  www.openfoam.com                      |
|    \\/     M anipulation  |                                                 |
\*---------------------------------------------------------------------------*/
FoamFile
{
    version     2.0;
    format      ascii;
    arch        "LSB;label=32;scalar=64";
    class       surfaceScalarField;
    location    "182.3";
    object      phi;
}
// * * * * * * * * * * * * * * * * * * * * * * * * * * * * * * * * * * * * * //

dimensions      [0 3 -1 0 0 0 0];

oriented        oriented;

internalField   nonuniform List<scalar> 
26232
(
0.000244085
0.000984039
-0.00122812
0.00117461
0.00147685
-0.00240738
0.00293343
0.000357926
-0.00211674
0.00573933
-0.00249755
-0.000308355
0.00990304
-0.00718968
0.00302598
0.0157829
-0.013805
0.00792507
0.0236402
-0.0223095
0.0144523
0.0334665
-0.0324243
0.022598
0.0448746
-0.0435802
0.032172
0.0571241
-0.0549993
0.0427498
0.0692796
-0.0658614
0.0537059
0.080432
-0.0754778
0.0643255
0.0898998
-0.0834123
0.0739445
0.0973569
-0.0895282
0.0820711
0.102856
-0.0939578
0.0884589
0.106751
-0.0970133
0.0931182
0.109564
-0.0990748
0.0962613
0.111835
-0.100497
0.0982258
0.114021
-0.101535
0.0993491
0.116439
-0.102387
0.0999695
0.119258
-0.103076
0.100257
0.122592
-0.103775
0.10044
0.126079
-0.104198
0.100711
-0.104533
0.101012
0.129601
0.000167352
0.000816688
0.00109848
0.000545726
0.00312953
-0.00167312
0.00662985
-0.00599787
0.01201
-0.0125699
0.0195741
-0.021369
0.0293056
-0.032041
0.0407286
-0.0438473
0.0529593
-0.0558109
0.0649306
-0.0669705
0.075673
-0.0766039
0.0845402
-0.084345
0.0913146
-0.0901867
0.0961808
-0.0943945
0.0995961
-0.097373
0.102117
-0.0995344
0.104252
-0.101209
0.10637
-0.102615
0.108707
-0.103872
0.111363
-0.105043
0.114426
-0.106139
0.117908
-0.107256
0.121976
-0.108266
-0.109606
0.127049
0.000182887
0.0006338
0.00131396
-0.000585342
0.00389743
-0.00425659
0.00843116
-0.0105316
0.0153037
-0.0194424
0.0245444
-0.0306097
0.0356301
-0.0431268
0.0475521
-0.0557692
0.05912
-0.0673788
0.0693195
-0.0771701
0.0775571
-0.0848415
0.0837296
-0.0905175
0.0881341
-0.0945911
0.0912826
-0.097543
0.0937095
-0.0998
0.0958417
-0.101667
0.097954
-0.103322
0.100198
-0.104859
0.102649
-0.106323
0.105356
-0.10775
0.108372
-0.109155
0.111718
-0.110603
0.115474
-0.112022
-0.113632
0.119501
0.000292675
0.000341125
0.00183048
-0.00212315
0.00523757
-0.00766367
0.0110369
-0.016331
0.0193933
-0.0277988
0.0298287
-0.0410451
0.0412548
-0.0545529
0.0523608
-0.0668752
0.0620708
-0.0770888
0.069818
-0.0849173
0.0755742
-0.0905976
0.0796946
-0.094638
0.0826925
-0.0975891
0.0850482
-0.0998987
0.0871124
-0.101864
0.0890999
-0.103654
0.091133
-0.105355
0.0932881
-0.107014
0.0956263
-0.108661
0.0982013
-0.110325
0.101062
-0.112015
0.104249
-0.11379
0.107798
-0.115571
-0.117602
0.111767
0.000476056
-0.000134931
0.00258642
-0.00423352
0.00699799
-0.0120752
0.014091
-0.023424
0.0235671
-0.037275
0.0343445
-0.0518225
0.0449911
-0.0651995
0.0543196
-0.0762037
0.0617274
-0.0844966
0.0672017
-0.0903916
0.0711121
-0.094508
0.0739563
-0.0974822
0.0761777
-0.0998104
0.0780916
-0.101813
0.0798951
-0.103668
0.0817083
-0.105467
0.0836095
-0.107256
0.0856545
-0.109059
0.0878858
-0.110893
0.0903289
-0.112768
0.0930136
-0.1147
0.0959293
-0.116706
0.0991044
-0.118746
-0.120989
0.102492
0.000709872
-0.000844802
0.0035006
-0.00702424
0.0089689
-0.0175435
0.0171332
-0.0315883
0.0270701
-0.0472119
0.0372555
-0.0620078
0.0463242
-0.0742682
0.0535509
-0.0834303
0.0588711
-0.0898169
0.0626378
-0.0941583
0.0653381
-0.0972083
0.0674054
-0.0995495
0.0691494
-0.101554
0.0707648
-0.103428
0.0723666
-0.10527
0.0740224
-0.107123
0.0757728
-0.109007
0.077645
-0.110931
0.0796584
-0.112906
0.0818332
-0.114943
0.0841862
-0.117053
0.0867275
-0.119247
0.0894989
-0.121517
-0.123959
0.0924689
0.00097984
-0.00182464
0.00449662
-0.010541
0.0109216
-0.0239685
0.019702
-0.0403687
0.029338
-0.0568479
0.0382334
-0.0709032
0.045429
-0.0814638
0.0507253
-0.0887266
0.0544233
-0.093515
0.0570039
-0.0967388
0.0589111
-0.0991155
0.0604666
-0.101105
0.0618696
-0.102957
0.0632314
-0.10479
0.0646109
-0.106649
0.0660414
-0.108553
0.0675466
-0.110512
0.0691475
-0.112532
0.0708657
-0.114624
0.0727196
-0.116797
0.0747237
-0.119057
0.0768842
-0.121408
0.0792149
-0.123848
-0.126428
0.0816834
0.00127339
-0.00309803
0.00549253
-0.0147602
0.0126153
-0.0310913
0.0214286
-0.049182
0.030134
-0.0655533
0.0374173
-0.0781865
0.0428271
-0.0868736
0.0465544
-0.0924539
0.0490639
-0.0960245
0.0508234
-0.0984983
0.0521815
-0.100474
0.0533532
-0.102277
0.0544545
-0.104059
0.0555443
-0.105879
0.0566551
-0.10776
0.05781
-0.109708
0.0590287
-0.111731
0.0603287
-0.113832
0.0617244
-0.11602
0.0632261
-0.118298
0.0648391
-0.12067
0.0665652
-0.123134
0.0684148
-0.125698
-0.128371
0.0703581
0.00157331
-0.00467135
0.0063911
-0.019578
0.0138304
-0.0385306
0.0221252
-0.0574767
0.0295314
-0.0729595
0.0351876
-0.0838427
0.0390701
-0.0907561
0.0415889
-0.0949728
0.0432365
-0.0976721
0.0444034
-0.0996652
0.0453357
-0.101406
0.046166
-0.103107
0.0469594
-0.104852
0.0477499
-0.10667
0.0485585
-0.108568
0.0494011
-0.110551
0.0502914
-0.112621
0.0512412
-0.114782
0.0522611
-0.11704
0.0533596
-0.119397
0.0545417
-0.121852
0.0558138
-0.124406
0.0571769
-0.127061
-0.129807
0.0586131
0.00185522
-0.00652657
0.00708853
-0.0248113
0.0144211
-0.0458632
0.0217982
-0.0648538
0.0277822
-0.0789435
0.0319626
-0.0880231
0.0346056
-0.0933991
0.0362059
-0.096573
0.0372066
-0.0986728
0.0379033
-0.100362
0.0384584
-0.101961
0.0389507
-0.103599
0.0394176
-0.105319
0.0398792
-0.107132
0.0403497
-0.109039
0.0408412
-0.111042
0.0413653
-0.113145
0.0419331
-0.11535
0.0425544
-0.117661
0.0432356
-0.120078
0.0439811
-0.122598
0.0447935
-0.125218
0.045672
-0.127939
-0.130751
0.0466152
0.00209232
-0.00861889
0.00750078
-0.0302197
0.0143503
-0.0527127
0.0205909
-0.0710944
0.0251922
-0.0835448
0.028107
-0.0909379
0.029763
-0.0950552
0.0306508
-0.0974608
0.0311324
-0.0991545
0.0314179
-0.100647
0.0316097
-0.102153
0.0317539
-0.103743
0.0318725
-0.105438
0.0319792
-0.107238
0.0320851
-0.109145
0.0322005
-0.111158
0.0323349
-0.113279
0.0324968
-0.115512
0.0326935
-0.117858
0.0329303
-0.120315
0.0332114
-0.122879
0.0335401
-0.125547
0.0339155
-0.128315
-0.131176
0.0343411
0.00226447
-0.0108834
0.00759115
-0.0355464
0.0136846
-0.0588062
0.0187156
-0.0761254
0.0220561
-0.0868853
0.0239128
-0.0927946
0.0247759
-0.0959183
0.0250827
-0.0977676
0.0251123
-0.0991841
0.0250073
-0.100542
0.0248307
-0.101976
0.0246098
-0.103523
0.0243589
-0.105187
0.0240881
-0.106967
0.023806
-0.108863
0.0235208
-0.110873
0.0232398
-0.112998
0.0229703
-0.115242
0.0227186
-0.117606
0.0224902
-0.120086
0.0222916
-0.12268
0.0221275
-0.125383
0.0219988
-0.128186
0.0219145
-0.131092
-0.000831389
0.00215036
-0.00131897
-0.0026272
0.00192424
-0.000128422
-0.00508956
-4.8713e-05
0.00251107
-0.00806134
-0.00241125
0.00538303
-0.0114339
-0.00478609
0.00815864
-0.015122
-0.00731718
0.0110052
-0.019063
-0.0102371
0.0141781
-0.0232006
-0.0136857
0.0178233
-0.0274652
-0.0177079
0.0219725
-0.0317617
-0.0222967
0.0265932
-0.0359642
-0.0274119
0.0316144
-0.0399153
-0.0329755
0.0369267
-0.0434265
-0.0388648
0.042376
-0.0462809
-0.0449062
0.0477606
-0.0482386
-0.0508738
0.0528316
-0.0490464
-0.0564914
0.0572992
-0.0484514
-0.0614398
0.0608448
-0.0462211
-0.0653696
0.0631392
-0.0421678
-0.0679213
0.063868
-0.0361766
-0.0687565
0.0627653
-0.0282156
-0.0675967
0.0596357
-0.0183137
-0.0642591
0.0543572
-0.00664279
-0.0586261
0.0469552
-0.0506192
0.00645834
0.0375181
-0.000855551
0.00300591
-0.00275987
0.00382856
-0.00536974
0.00256116
-0.00847859
0.000697594
-0.011985
-0.00127967
-0.0158215
-0.00348073
-0.0199622
-0.00609638
-0.0243787
-0.00926922
-0.0290282
-0.0130583
-0.0338456
-0.0174793
-0.0387412
-0.0225163
-0.0436003
-0.0281164
-0.0482825
-0.0341826
-0.0526203
-0.0405684
-0.056418
-0.0470761
-0.0594509
-0.0534585
-0.0614687
-0.059422
-0.0622069
-0.0646314
-0.0614095
-0.0687186
-0.0588594
-0.0713066
-0.0544072
-0.0720489
-0.0479948
-0.0706714
-0.0396911
-0.0669298
-0.060688
-0.0296223
-0.000743479
0.00374939
-0.00250576
0.00559084
-0.00495999
0.00501538
-0.00788842
0.00362602
-0.0111514
0.00198331
-0.0147003
6.82175e-05
-0.0185418
-0.0022549
-0.0226536
-0.0051575
-0.0270106
-0.00870121
-0.0315707
-0.0129193
-0.0362762
-0.0178107
-0.0410561
-0.0233366
-0.0458268
-0.0294119
-0.0504936
-0.0359017
-0.0549475
-0.0426222
-0.0590592
-0.0493468
-0.0626668
-0.0558145
-0.0655625
-0.0617357
-0.0674899
-0.0667912
-0.0681641
-0.0706323
-0.0673193
-0.0728937
-0.0647561
-0.0732347
-0.0603187
-0.0713672
-0.0672149
-0.0537918
-0.000515012
0.0042644
-0.00191293
0.00698876
-0.00394359
0.00704604
-0.0063832
0.00606563
-0.00909272
0.00469284
-0.0120194
0.00299485
-0.0151009
0.000826665
-0.0183848
-0.00187359
-0.0218249
-0.00526117
-0.0253792
-0.0093649
-0.0289981
-0.0141919
-0.0326268
-0.0197079
-0.036212
-0.0258267
-0.0397109
-0.0324027
-0.0430994
-0.0392337
-0.0463723
-0.046074
-0.0495315
-0.0526553
-0.0525582
-0.058709
-0.055366
-0.0639835
-0.0577665
-0.0682318
-0.0594741
-0.071186
-0.060158
-0.0725508
-0.0593824
-0.0721428
-0.0701142
-0.0564832
-0.000214862
0.00447926
-0.00108827
0.00786217
-0.00249626
0.00845403
-0.00423326
0.00780263
-0.00614497
0.00660455
-0.00815616
0.00500604
-0.0102482
0.00291867
-0.0123318
0.000210076
-0.0144506
-0.00314238
-0.0165264
-0.00728909
-0.0185
-0.0122183
-0.0203033
-0.0179045
-0.0218682
-0.0242618
-0.0231417
-0.0311292
-0.0241069
-0.0382686
-0.0248026
-0.0453782
-0.0253237
-0.0521342
-0.0258165
-0.0582162
-0.0264967
-0.0633033
-0.027479
-0.0672495
-0.0287963
-0.0698688
-0.03008
-0.071267
-0.0313417
-0.0708811
-0.0699299
-0.031526
0.000100672
0.00437859
-0.000171476
0.00813431
-0.000844971
0.00912753
-0.00175504
0.0087127
-0.00273851
0.00758802
-0.0036935
0.00596103
-0.00456813
0.00379329
-0.00533353
0.000975485
-0.00591074
-0.00256518
-0.0062698
-0.00693003
-0.00633749
-0.0121506
-0.00603494
-0.0182071
-0.00527816
-0.0250185
-0.00399537
-0.032412
-0.00213982
-0.0401241
0.000282057
-0.0478001
0.00316559
-0.0550177
0.00629954
-0.0613501
0.00950319
-0.0665069
0.0124404
-0.0701867
0.0148958
-0.0723241
0.0164597
-0.072831
0.0178514
-0.0722728
-0.0694745
0.017396
0.000375739
0.00400285
0.000687433
0.00782262
0.000764293
0.00905067
0.0007081
0.0087689
0.000678015
0.00761811
0.000796847
0.0058422
0.00114452
0.00344562
0.00176943
0.000350569
0.00276384
-0.00355958
0.00418501
-0.00835121
0.00610771
-0.0140733
0.00862129
-0.0207207
0.0117974
-0.0281946
0.0156771
-0.0362917
0.0202413
-0.0446884
0.0254057
-0.0529645
0.03104
-0.0606521
0.0369986
-0.0673086
0.0430982
-0.0726066
0.0492217
-0.0763102
0.0552319
-0.0783343
0.0612166
-0.0788157
0.0665324
-0.0775885
-0.0754669
0.0725247
0.000567916
0.00343494
0.00136267
0.00702787
0.00211035
0.00830298
0.00284477
0.00803448
0.00370412
0.00675876
0.00482568
0.00472064
0.00631393
0.00195737
0.00826883
-0.00160433
0.0107734
-0.00606419
0.0139254
-0.0115032
0.0178272
-0.0179751
0.022562
-0.0254555
0.0281686
-0.0338012
0.0346056
-0.0427287
0.0417359
-0.0518186
0.0493378
-0.0605664
0.0571469
-0.0684612
0.0649056
-0.0750673
0.072425
-0.080126
0.0795939
-0.0834792
0.0864944
-0.0852348
0.0932564
-0.0855776
0.100188
-0.0845199
-0.083158
0.107879
0.00065434
0.0027806
0.00176864
0.00591356
0.00302593
0.0070457
0.00440483
0.00665557
0.00601566
0.00514794
0.00799955
0.00273675
0.0104975
-0.000540583
0.0136626
-0.00476942
0.0176163
-0.0100179
0.0224991
-0.016386
0.0284201
-0.0238961
0.0354137
-0.0324492
0.043397
-0.0417845
0.0521472
-0.051479
0.0613232
-0.0609946
0.0705247
-0.0697679
0.0793693
-0.0773058
0.087575
-0.083273
0.0949929
-0.0875439
0.101628
-0.0901146
0.10768
-0.0912867
0.113246
-0.091143
0.118943
-0.0902169
-0.0886104
0.124395
0.000635275
0.00214532
0.00187851
0.00467033
0.00344133
0.00548288
0.00527876
0.00481814
0.00748762
0.00293907
0.0101989
2.54585e-05
0.0136709
-0.00401254
0.0180519
-0.00915041
0.0235505
-0.0155165
0.0303138
-0.0231492
0.0383759
-0.0319582
0.0475993
-0.0416726
0.0576533
-0.0518384
0.0680511
-0.0618767
0.0782362
-0.0711797
0.087694
-0.0792257
0.0960487
-0.0856605
0.103134
-0.0903583
0.108976
-0.0933861
0.113816
-0.0949541
0.117972
-0.0954428
0.121795
-0.0949657
0.125811
-0.0942332
-0.0928409
0.130041
0.000532082
0.00161324
0.00173369
0.00346872
0.00341045
0.00380612
0.00554215
0.00268645
0.00823183
0.000249384
0.0117425
-0.00348522
0.0162654
-0.00853547
0.0220918
-0.0149768
0.0294098
-0.0228346
0.0382479
-0.0319873
0.0483989
-0.0421092
0.0594066
-0.0526803
0.0706304
-0.0630623
0.0813699
-0.0726162
0.0910085
-0.0808183
0.0991333
-0.0873505
0.105601
-0.092128
0.110533
-0.0952906
0.114247
-0.0970998
0.117208
-0.0979154
0.119825
-0.0980593
0.122586
-0.0977269
0.125711
-0.0973588
-0.0963223
0.129193
0.000385115
0.00144646
0.00313583
0.00551393
0.00878929
0.0132291
0.019146
0.0267672
0.0361046
0.0468671
0.0584638
0.070109
0.0809912
0.0904462
0.0980867
0.103854
0.107988
0.110923
0.113172
0.115226
0.117424
0.120138
0.12349
0.128179
0.0258793
-0.0532454
0.0338245
0.0435272
-0.0262451
0.00859721
0.0601382
0.00315671
-0.0197678
0.0745082
0.0385662
-0.0529362
0.0879481
0.076346
-0.0897859
0.100339
0.112808
-0.125199
0.110923
0.141491
-0.152075
0.118518
0.158875
-0.166471
0.122728
0.166939
-0.171148
0.124876
0.168602
-0.170751
0.12596
0.166003
-0.167087
0.124977
0.165346
-0.164363
0.121361
0.173146
-0.169529
0.117585
0.184314
-0.180538
0.117657
0.180324
-0.180396
0.122702
0.14456
-0.149605
0.130991
0.0757751
-0.0840642
0.140556
-0.0125602
0.00299578
0.14988
-0.0985169
0.0891931
0.157555
-0.160644
0.152968
0.161931
-0.19234
0.187965
0.16287
-0.203905
0.202966
0.162443
-0.205179
0.205606
0.161171
-0.200875
0.202147
0.157114
-0.202796
0.206853
0.14942
-0.220446
0.22814
0.13966
-0.23892
0.24868
0.130084
-0.225866
0.235442
0.122986
-0.162039
0.169137
0.121399
-0.0582502
0.0598372
0.125813
0.0541142
-0.0585278
0.134317
0.143675
-0.152179
0.143295
0.199936
-0.208914
0.148835
0.23268
-0.238221
0.147843
0.258061
-0.257069
0.140225
0.282559
-0.274941
0.129306
0.28882
-0.277901
0.119655
0.247084
-0.237433
0.115322
0.144906
-0.140573
0.118435
0.00445816
-0.00757096
0.126698
-0.120259
0.111996
0.132486
-0.200202
0.194414
0.130496
-0.248563
0.250553
0.123545
-0.281823
0.288774
0.117953
-0.282221
0.287814
0.116794
-0.215806
0.216965
0.119768
-0.101834
0.0988602
0.122347
0.0461814
-0.0487603
0.122322
0.184866
-0.184842
0.120148
0.288371
-0.286197
0.118573
0.327073
-0.325498
0.117687
0.237704
-0.236818
0.11671
0.0923682
-0.0913908
0.112553
-0.120453
0.12461
0.109911
-0.302851
0.305493
0.107728
-0.313869
0.316051
0.104949
-0.254668
0.257447
0.0989457
0.0411284
-0.0351254
0.0961587
0.277374
-0.274587
0.123992
-0.120364
-0.0115134
-0.0713544
0.00821381
-0.0459722
0.0279909
-0.0166204
0.0470585
0.0194986
0.0656998
0.0577048
0.0835662
0.0949414
0.09954
0.125517
0.112065
0.146351
0.120883
0.15812
0.127173
0.162312
0.131408
0.161768
0.132917
0.163836
0.132253
0.17381
0.132314
0.184253
0.135702
0.176936
0.141704
0.138558
0.148456
0.0690238
0.155015
-0.0191195
0.160433
-0.103935
0.163967
-0.164178
0.164796
-0.193169
0.162745
-0.201854
0.159677
-0.202111
0.156379
-0.197577
0.150503
-0.19692
0.14073
-0.210673
0.129304
-0.227494
0.119535
-0.216097
0.113687
-0.156191
0.114123
-0.0586862
0.121438
0.0467991
0.132816
0.132297
0.144408
0.188343
0.152154
0.224934
0.153119
0.257096
0.147267
0.28841
0.137491
0.298596
0.127881
0.256694
0.121856
0.150931
0.121859
0.00445483
0.12763
-0.12603
0.132589
-0.205161
0.130136
-0.24611
0.122521
-0.274209
0.116925
-0.276626
0.116439
-0.21532
0.119763
-0.105158
0.122885
0.0430598
0.123463
0.184288
0.122124
0.28971
0.120667
0.32853
0.119423
0.238948
0.11796
0.0938311
0.112581
-0.115074
0.109205
-0.299475
0.106629
-0.311292
0.104546
-0.252585
0.100755
0.0449195
0.0974559
0.280673
0.128791
-0.0393986
-0.0857476
-0.02106
-0.0643108
-0.00195308
-0.0357273
0.0207414
-0.00319594
0.0430285
0.0354177
0.0654689
0.072501
0.0862377
0.104749
0.103744
0.128844
0.117735
0.144129
0.128651
0.151396
0.13634
0.154079
0.140605
0.159571
0.143039
0.171377
0.146753
0.180538
0.153032
0.170657
0.159614
0.131976
0.164465
0.0641719
0.168054
-0.0227085
0.169995
-0.105875
0.169665
-0.163848
0.167119
-0.190623
0.162439
-0.197174
0.157011
-0.196683
0.151963
-0.19253
0.144948
-0.189905
0.133743
-0.199468
0.120726
-0.214477
0.110481
-0.205851
0.105807
-0.151518
0.108199
-0.0610778
0.117789
0.0372085
0.131666
0.11842
0.145782
0.174228
0.155882
0.214834
0.159188
0.253791
0.15556
0.292039
0.147244
0.306912
0.137837
0.2661
0.130129
0.158639
0.126673
0.00791088
0.129354
-0.128711
0.133235
-0.209042
0.13049
-0.243365
0.122134
-0.265852
0.116145
-0.270636
0.116137
-0.215312
0.119965
-0.108985
0.123856
0.0391683
0.125155
0.182989
0.124577
0.290288
0.123159
0.329948
0.121568
0.240539
0.119728
0.0956711
0.113313
-0.10866
0.109118
-0.29528
0.10614
-0.308314
0.104746
-0.251192
0.10307
0.0465958
0.0994123
0.284331
0.134677
-0.0506062
-0.0916246
-0.0379497
-0.0769673
-0.0207276
-0.0529493
-0.000141557
-0.023782
0.0247554
0.0105208
0.0499286
0.0473278
0.0742015
0.0804756
0.095989
0.107057
0.114534
0.125584
0.129331
0.1366
0.139793
0.143617
0.146394
0.15297
0.151681
0.166089
0.158756
0.173463
0.167481
0.161932
0.174596
0.124861
0.178481
0.0602874
0.179841
-0.024069
0.178703
-0.104737
0.174736
-0.159881
0.168981
-0.184869
0.16199
-0.190183
0.154571
-0.189264
0.14791
-0.185868
0.14013
-0.182125
0.128312
-0.187651
0.114211
-0.200376
0.103301
-0.194941
0.0992212
-0.147438
0.103046
-0.0649023
0.114466
0.0257879
0.130443
0.102443
0.146921
0.15775
0.159684
0.202071
0.165841
0.247634
0.164717
0.293162
0.158007
0.313622
0.148897
0.27521
0.139747
0.167789
0.132867
0.0147915
0.131959
-0.127803
0.134347
-0.21143
0.131433
-0.240451
0.122376
-0.256795
0.115672
-0.263933
0.115914
-0.215554
0.120344
-0.113416
0.125178
0.034335
0.127313
0.180854
0.127432
0.290169
0.125985
0.331396
0.124036
0.242488
0.121989
0.0977173
0.114718
-0.101388
0.109662
-0.290224
0.106257
-0.304909
0.105491
-0.250426
0.105885
0.0462014
0.102007
0.288208
0.141555
-0.0383768
-0.0847738
-0.0374828
-0.0778614
-0.0275674
-0.0628647
-0.0108575
-0.0404919
0.0115485
-0.0118852
0.0374551
0.0214212
0.0639715
0.0539592
0.0890024
0.0820258
0.110837
0.103749
0.128251
0.119185
0.140606
0.131262
0.149075
0.144502
0.156937
0.158227
0.166925
0.163475
0.177565
0.151293
0.185277
0.117149
0.189023
0.0565412
0.189274
-0.02432
0.18574
-0.101202
0.178688
-0.152829
0.170088
-0.176269
0.161159
-0.181254
0.15223
-0.180335
0.144338
-0.177976
0.136171
-0.173958
0.124392
-0.175871
0.109747
-0.185731
0.0981149
-0.18331
0.0941781
-0.143501
0.0988173
-0.0695414
0.11135
0.0132548
0.128783
0.0850109
0.147327
0.139205
0.162879
0.18652
0.172271
0.238242
0.174307
0.291126
0.169749
0.31818
0.160927
0.284032
0.150398
0.178318
0.140217
0.0249726
0.135411
-0.122997
0.135832
-0.211852
0.132816
-0.237435
0.123183
-0.247162
0.115491
-0.256241
0.11573
-0.215794
0.120823
-0.118508
0.126766
0.0283913
0.129874
0.177747
0.130647
0.289395
0.129084
0.332959
0.126758
0.244814
0.124682
0.0997933
0.116752
-0.0934578
0.11083
-0.284303
0.106965
-0.301043
0.1067
-0.250161
0.109169
0.0437331
0.105212
0.292166
0.14931
8.48475e-05
-0.0674627
-0.012266
-0.0655106
-0.0156975
-0.0594332
-0.00971075
-0.0464787
0.00489774
-0.0264937
0.0272258
-0.000906771
0.0528265
0.0283584
0.0786883
0.056164
0.102154
0.0802832
0.121404
0.0999361
0.135704
0.116962
0.146551
0.133655
0.157415
0.147363
0.17031
0.150581
0.182874
0.138728
0.191783
0.10824
0.196255
0.05207
0.196125
-0.0241901
0.190893
-0.0959708
0.181433
-0.143369
0.170462
-0.165297
0.159951
-0.170744
0.149937
-0.170322
0.141026
-0.169064
0.132726
-0.165658
0.121656
-0.164801
0.107199
-0.171274
0.0949077
-0.171018
0.0906218
-0.139215
0.0954423
-0.0743619
0.108252
0.000445348
0.126391
0.0668717
0.146558
0.119038
0.164916
0.168162
0.177886
0.225272
0.183306
0.285706
0.181068
0.320418
0.172839
0.292261
0.161294
0.189863
0.148348
0.0379191
0.139599
-0.114249
0.137568
-0.20982
0.134452
-0.234319
0.124467
-0.237176
0.115573
-0.247347
0.115527
-0.215747
0.121307
-0.124288
0.128506
0.0211923
0.132703
0.17355
0.134127
0.287971
0.132387
0.334699
0.129652
0.247549
0.127759
0.101686
0.119363
-0.0850614
0.112591
-0.277532
0.108239
-0.296691
0.108302
-0.250224
0.112842
0.0391932
0.108979
0.296029
0.157803
0.0578462
-0.0527841
0.0403484
-0.0480128
0.0245239
-0.0436087
0.0154916
-0.0374463
0.016307
-0.0273091
0.0268032
-0.011403
0.0450834
0.0100782
0.0671759
0.0340716
0.0896469
0.0578122
0.109712
0.0798711
0.126057
0.100616
0.139936
0.119776
0.154354
0.132944
0.17024
0.134695
0.184752
0.124216
0.195256
0.0977358
0.201027
0.0462986
0.2009
-0.0240633
0.194241
-0.0893119
0.182836
-0.131964
0.170003
-0.152465
0.158233
-0.158974
0.14759
-0.159678
0.138021
-0.159495
0.129576
-0.157214
0.119573
-0.154798
0.106102
-0.157803
0.0935178
-0.158434
0.0884858
-0.134183
0.092882
-0.0787581
0.105109
-0.0117819
0.123148
0.0488329
0.14427
0.0979159
0.165196
0.147235
0.181962
0.208506
0.191381
0.276288
0.192201
0.319598
0.185182
0.29928
0.172547
0.202498
0.156961
0.0535049
0.144407
-0.101695
0.13946
-0.204872
0.136147
-0.231007
0.126117
-0.227146
0.115903
-0.237133
0.115227
-0.215071
0.121672
-0.130732
0.13028
0.0125849
0.135731
0.168098
0.137825
0.285878
0.135837
0.336686
0.132658
0.250729
0.131129
0.103215
0.122484
-0.0764168
0.114897
-0.269944
0.110048
-0.291843
0.110236
-0.250412
0.116817
0.0326129
0.113256
0.299589
0.166871
0.0992377
-0.0441429
0.0893327
-0.0381078
0.0769529
-0.0312289
0.0636257
-0.0241191
0.052866
-0.0165494
0.0486149
-0.00715185
0.0530356
0.0056575
0.0651545
0.0219527
0.0821279
0.0408388
0.100573
0.0614259
0.118009
0.0831808
0.134529
0.103256
0.151846
0.115626
0.169645
0.116896
0.185264
0.108598
0.197105
0.0858944
0.20406
0.039344
0.203795
-0.023799
0.195743
-0.0812594
0.182762
-0.118983
0.168647
-0.138349
0.155968
-0.146295
0.14496
-0.14867
0.135105
-0.14964
0.12656
-0.148669
0.117647
-0.145885
0.105841
-0.145997
0.093636
-0.146229
0.0876804
-0.128228
0.091057
-0.0821347
0.101946
-0.0226705
0.118996
0.0317829
0.140324
0.0765879
0.163476
0.124082
0.183922
0.18806
0.197198
0.263011
0.200929
0.315867
0.195511
0.304698
0.183153
0.214857
0.165731
0.0709268
0.149664
-0.0856283
0.141411
-0.196619
0.137707
-0.227304
0.128003
-0.217442
0.116483
-0.225614
0.114782
-0.21337
0.121786
-0.137737
0.131936
0.00243475
0.138789
0.161245
0.141627
0.28304
0.139405
0.338908
0.135731
0.254403
0.134727
0.104219
0.126049
-0.0677392
0.117686
-0.261581
0.112355
-0.286512
0.112449
-0.250506
0.120988
0.0240742
0.117966
0.302611
0.17633
0.11766
-0.0374082
0.112494
-0.0329418
0.107755
-0.0264893
0.102111
-0.0184753
0.0952233
-0.00966183
0.0888936
-0.000822172
0.0837733
0.0107778
0.0835332
0.0221927
0.0900662
0.0343058
0.102199
0.0492931
0.117473
0.0679066
0.134484
0.0862451
0.152729
0.0973821
0.170612
0.0990134
0.186221
0.0929889
0.198707
0.0734085
0.205957
0.0320932
0.204902
-0.0227437
0.195391
-0.0717479
0.181184
-0.104776
0.166314
-0.123479
0.153119
-0.133101
0.141958
-0.137508
0.132131
-0.139813
0.123571
-0.14011
0.115506
-0.13782
0.105609
-0.1361
0.0945795
-0.135199
0.087962
-0.12161
0.089868
-0.0840406
0.09906
-0.0318625
0.114331
0.0165122
0.134773
0.0561454
0.159177
0.0996783
0.183367
0.163871
0.201437
0.244941
0.208815
0.308488
0.204948
0.308566
0.192878
0.226926
0.174385
0.0894195
0.155154
-0.0663969
0.143324
-0.184789
0.138946
-0.222926
0.129959
-0.208455
0.117318
-0.212973
0.114168
-0.21022
0.12149
-0.145059
0.133338
-0.00941318
0.141821
0.152762
0.145491
0.279369
0.143017
0.341382
0.138818
0.258602
0.138472
0.104565
0.129985
-0.0592518
0.120885
-0.252481
0.11511
-0.280737
0.114897
-0.250293
0.125261
0.0137104
0.123035
0.304837
0.185977
0.124555
-0.0319214
0.120772
-0.0291596
0.118636
-0.024353
0.117921
-0.0177604
0.117691
-0.00943126
0.116524
0.000344672
0.11496
0.0123419
0.113731
0.023421
0.114508
0.0335296
0.119138
0.0446625
0.128464
0.0585806
0.142004
0.0727052
0.157933
0.0814535
0.173833
0.0831135
0.188384
0.0784373
0.200603
0.0611896
0.207161
0.0255353
0.204402
-0.0199842
0.19325
-0.0605963
0.178118
-0.0896446
0.162934
-0.108295
0.149578
-0.119744
0.138373
-0.126304
0.128762
-0.130202
0.120382
-0.13173
0.11291
-0.130347
0.104731
-0.127921
0.0954723
-0.125941
0.0889149
-0.115053
0.0893677
-0.0844935
0.0965668
-0.0390616
0.10938
0.00369861
0.128007
0.0375191
0.152668
0.0750168
0.179519
0.13702
0.201514
0.222947
0.212751
0.297252
0.21135
0.309967
0.200103
0.238173
0.181752
0.107771
0.160443
-0.0450887
0.145084
-0.169429
0.139651
-0.217493
0.13175
-0.200554
0.118368
-0.19959
0.113405
-0.205257
0.12066
-0.152314
0.134237
-0.02299
0.144578
0.142422
0.149306
0.27464
0.146728
0.34396
0.14195
0.263381
0.142337
0.104178
0.134234
-0.0511495
0.124419
-0.242666
0.11825
-0.274568
0.117545
-0.249588
0.129528
0.00172726
0.128357
0.306008
0.195591
0.12465
-0.0273788
0.121447
-0.0259563
0.11973
-0.0226358
0.119958
-0.0179887
0.122249
-0.0117223
0.12636
-0.00376653
0.1313
0.00740239
0.135219
0.0195014
0.138185
0.0305642
0.142298
0.0405494
0.149071
0.0518079
0.158724
0.0630517
0.170325
0.0698523
0.182136
0.0713029
0.193547
0.0670261
0.202956
0.0517809
0.205951
0.02254
0.20065
-0.0146832
0.188258
-0.0482038
0.17302
-0.0744072
0.158189
-0.0934641
0.145174
-0.106729
0.134139
-0.11527
0.124822
-0.120884
0.116811
-0.123719
0.109809
-0.123345
0.102909
-0.121021
0.0955352
-0.118567
0.0898417
-0.109359
0.0894315
-0.0840832
0.0948369
-0.0444669
0.10506
-0.00652502
0.120687
0.0218922
0.143984
0.0517205
0.173346
0.107657
0.200573
0.19572
0.216043
0.281782
0.216348
0.309661
0.205637
0.248885
0.187503
0.125904
0.164901
-0.0224865
0.146549
-0.151078
0.139684
-0.210628
0.133147
-0.194017
0.119642
-0.186085
0.112606
-0.198221
0.11914
-0.158848
0.134632
-0.0384821
0.147102
0.129952
0.153
0.268742
0.150368
0.346593
0.145004
0.268744
0.146224
0.102958
0.138717
-0.0436428
0.128257
-0.232205
0.121731
-0.268042
0.120365
-0.248222
0.133715
-0.0116228
0.133852
0.305871
0.204948
0.124628
-0.0238276
0.121013
-0.0223409
0.118563
-0.020186
0.117728
-0.0171542
0.118735
-0.0127289
0.121549
-0.00658033
0.127022
0.00192904
0.134182
0.0123409
0.141938
0.0228085
0.149525
0.032963
0.158013
0.0433194
0.168005
0.0530597
0.178266
0.0595917
0.187948
0.0616208
0.196862
0.058112
0.203283
0.0453594
0.203911
0.0219127
0.196448
-0.00722038
0.183525
-0.0352809
0.168461
-0.0593433
0.153932
-0.0789352
0.141197
-0.0939934
0.130295
-0.104368
0.121134
-0.111722
0.113499
-0.116084
0.106905
-0.116751
0.100763
-0.11488
0.0948849
-0.112689
0.0905095
-0.104984
0.0900074
-0.0835811
0.0940312
-0.0484907
0.10157
-0.0140639
0.113941
0.00952164
0.133837
0.0318243
0.162187
0.0793069
0.192489
0.165417
0.213661
0.26061
0.218733
0.304589
0.210048
0.25757
0.192572
0.14338
0.169586
0.000499434
0.14848
-0.129971
0.139651
-0.201799
0.134304
-0.18867
0.121282
-0.173064
0.112212
-0.189151
0.117387
-0.164023
0.133928
-0.0550226
0.148846
0.115034
0.156536
0.261052
0.154222
0.348907
0.148215
0.274751
0.150213
0.100961
0.143425
-0.0368548
0.132413
-0.221194
0.125517
-0.261146
0.123382
-0.246087
0.137723
-0.0259642
0.139396
0.304199
0.21382
0.168256
-0.0184002
-0.173683
0.16361
-0.0176956
0.15929
-0.0158659
0.155264
-0.0131274
0.151765
-0.00922997
0.14908
-0.00389546
0.147975
0.00303342
0.148807
0.0115097
0.151013
0.0206019
0.154219
0.0297568
0.158747
0.0387918
0.165207
0.0465992
0.173589
0.0512104
0.183628
0.0515817
0.195423
0.0463163
0.207214
0.0335693
0.215224
0.0139024
0.217369
-0.00936566
0.214535
-0.0324463
0.20832
-0.0531287
0.200189
-0.070804
0.191198
-0.0850025
0.181726
-0.0948967
0.172253
-0.102248
0.163066
-0.106897
0.153918
-0.107604
0.14474
-0.105701
0.135586
-0.103535
0.125772
-0.0951702
0.116235
-0.074044
0.109757
-0.0420122
0.108973
-0.0132804
0.11435
0.0041446
0.125394
0.0207807
0.140944
0.0637565
0.157291
0.14907
0.170135
0.247767
0.178364
0.29636
0.184682
0.251252
0.187589
0.140473
0.182797
0.00529134
0.172866
-0.12004
0.164503
-0.193436
0.156312
-0.180479
0.141379
-0.15813
0.128115
-0.175887
0.124144
-0.160053
0.130013
-0.0608917
0.135374
0.109673
0.137669
0.258757
0.136736
0.34984
0.137542
0.273944
0.146121
0.0923822
0.144665
-0.0353986
0.134891
-0.21142
0.125942
-0.252197
0.119361
-0.239506
0.128708
-0.0353107
0.130543
0.302364
0.221053
0.178583
-0.0141826
-0.182801
0.174583
-0.0136961
0.170844
-0.0121264
0.167428
-0.00971117
0.164558
-0.00636004
0.162613
-0.00195031
0.161849
0.00379687
0.162725
0.0106343
0.165244
0.0180821
0.169373
0.0256279
0.175247
0.0329185
0.182844
0.039002
0.191756
0.042298
0.201511
0.0418272
0.211424
0.0364028
0.219731
0.0252631
0.224513
0.00911953
0.224802
-0.00965471
0.221422
-0.0290663
0.215325
-0.0470315
0.207336
-0.0628148
0.198451
-0.0761171
0.1892
-0.0856459
0.179868
-0.092916
0.170883
-0.0979123
0.162047
-0.0987683
0.152866
-0.0965202
0.144008
-0.0946765
0.135599
-0.0867609
0.127649
-0.066094
0.121523
-0.0358866
0.119941
-0.0116988
0.124097
-1.12279e-05
0.13388
0.0109984
0.149466
0.0481697
0.167667
0.13087
0.182903
0.232531
0.192958
0.286304
0.199991
0.244219
0.202991
0.137473
0.198683
0.00959959
0.187054
-0.10841
0.17667
-0.183052
0.167836
-0.171646
0.15272
-0.143015
0.1383
-0.161467
0.133195
-0.154948
0.139989
-0.067685
0.14718
0.102482
0.150464
0.255473
0.149772
0.350533
0.150517
0.273199
0.160276
0.0826237
0.159129
-0.0342521
0.147834
-0.200124
0.137773
-0.242136
0.129983
-0.231717
0.139945
-0.0452727
0.14307
0.299239
0.228138
0.190055
-0.0105543
-0.193683
0.186432
-0.0100734
0.183144
-0.00883766
0.180263
-0.00683102
0.177924
-0.0040207
0.176286
-0.000311698
0.175812
0.00427029
0.176739
0.0097079
0.179212
0.0156084
0.183276
0.0215638
0.189025
0.0271697
0.196306
0.0317215
0.204632
0.0339716
0.213343
0.0331164
0.221536
0.0282092
0.227889
0.0189107
0.231289
0.00571917
0.231281
-0.00964659
0.22829