/*--------------------------------*- C++ -*----------------------------------*\
| =========                 |                                                 |
| \\      /  F ield         | OpenFOAM: The Open Source CFD Toolbox           |
|  \\    /   O peration     | Version:  2312                                  |
|   \\  /    A nd           | Website:  www.openfoam.com                      |
|    \\/     M anipulation  |                                                 |
\*---------------------------------------------------------------------------*/
FoamFile
{
    version     2.0;
    format      ascii;
    arch        "LSB;label=32;scalar=64";
    class       volVectorField;
    location    "72.75";
    object      U;
}
// * * * * * * * * * * * * * * * * * * * * * * * * * * * * * * * * * * * * * //

dimensions      [0 1 -1 0 0 0 0];

internalField   nonuniform List<vector> 
5478
(
(-0.034776 0.0252371 -1.29787e-19)
(-0.0403795 0.0416658 0)
(0.0262985 0.0364845 1.95512e-19)
(0.176076 0.0153368 -3.43174e-19)
(0.409324 -0.0103139 2.25762e-19)
(0.688202 -0.0334743 -6.65371e-20)
(0.956992 -0.0525385 -1.17097e-19)
(1.17029 -0.0700111 0)
(1.30477 -0.0879488 0)
(1.36005 -0.108803 1.41728e-19)
(1.35505 -0.128977 -6.80438e-20)
(1.31814 -0.145295 -1.03582e-19)
(1.2701 -0.165697 -3.79304e-20)
(1.23184 -0.157964 0)
(1.18266 -0.193867 8.65646e-20)
(-0.0379461 0.0224753 2.60322e-19)
(-0.0142186 0.0214003 0)
(0.119962 0.00284774 0)
(0.371953 -0.0165689 -1.72295e-19)
(0.688637 -0.0264161 2.27253e-19)
(0.984427 -0.028823 6.58058e-20)
(1.20231 -0.0307242 -1.10535e-19)
(1.32512 -0.0374 9.80227e-20)
(1.36687 -0.0508302 2.35056e-19)
(1.35746 -0.0677245 -2.0434e-19)
(1.32804 -0.0838363 4.59527e-21)
(1.29565 -0.0993926 0)
(1.26734 -0.106028 3.78622e-20)
(1.23631 -0.111769 0)
(1.20431 -0.119838 0)
(-0.0342561 0.0180747 -6.92612e-22)
(0.0436152 0.00199131 -1.21022e-19)
(0.283979 -0.0166746 6.08945e-22)
(0.63766 -0.0168632 0)
(0.972354 -0.00552123 -7.55102e-20)
(1.20594 0.00437389 6.36776e-20)
(1.32691 0.00560325 5.33379e-20)
(1.36456 -0.00238297 0)
(1.35834 -0.0152821 -7.8246e-20)
(1.33814 -0.0287604 6.4893e-20)
(1.31483 -0.0414945 5.33158e-20)
(1.29007 -0.0499168 0)
(1.25987 -0.0597294 0)
(1.22982 -0.0624858 -1.02353e-19)
(1.19597 -0.0726952 9.12098e-20)
(-0.0194124 0.00980096 -1.40606e-19)
(0.146175 -0.0165768 1.19464e-19)
(0.513406 -0.0133317 -1.03216e-19)
(0.907037 0.0129853 8.99478e-20)
(1.18229 0.0355865 1.50657e-19)
(1.32197 0.0446072 -1.25985e-19)
(1.36852 0.0416944 -5.3312e-20)
(1.36939 0.0325607 4.13114e-20)
(1.35373 0.0215529 -3.95086e-20)
(1.33101 0.0100286 0)
(1.30414 -7.53367e-05 0)
(1.2743 -0.0113099 -7.4787e-20)
(1.24659 -0.0182249 9.63555e-20)
(1.22028 -0.0250722 -5.39371e-20)
(1.19571 -0.0336954 0)
(0.0120629 -0.0016017 7.10642e-20)
(0.303215 -0.0225884 6.00457e-20)
(0.762792 0.018788 -2.14307e-19)
(1.11768 0.0616041 2.74708e-21)
(1.30487 0.082847 -2.73071e-21)
(1.37331 0.0863124 -1.72304e-21)
(1.38145 0.0803518 4.96649e-20)
(1.36499 0.0705222 4.24015e-20)
(1.33921 0.0590379 3.03801e-20)
(1.31136 0.0476046 -4.76447e-21)
(1.28466 0.036084 -6.93553e-20)
(1.26111 0.0269294 0)
(1.23845 0.0189541 3.07738e-20)
(1.2161 0.0102953 -2.24817e-20)
(1.19475 0.00651774 4.09051e-20)
(0.0664736 -0.0111556 -1.51134e-19)
(0.502287 0.000435194 1.63781e-19)
(0.97741 0.0734065 -5.56289e-20)
(1.25702 0.118684 4.22695e-20)
(1.36983 0.133143 -7.74238e-20)
(1.39189 0.130521 -5.77115e-20)
(1.3764 0.120734 1.40358e-21)
(1.34983 0.108476 0)
(1.32306 0.0959347 6.17924e-20)
(1.29834 0.0836599 -5.49503e-20)
(1.27499 0.0726872 2.19766e-20)
(1.2512 0.0621394 0)
(1.2276 0.0525734 1.3538e-20)
(1.20526 0.0438851 -2.34127e-20)
(1.18235 0.0379183 0)
(0.146012 -0.0105912 -1.88691e-20)
(0.702747 0.0553453 1.27894e-21)
(1.13828 0.141929 2.75988e-20)
(1.34048 0.180814 4.55247e-20)
(1.39603 0.185882 -3.47081e-20)
(1.3882 0.176327 5.84879e-20)
(1.36181 0.162565 -1.32664e-20)
(1.33344 0.1482 0)
(1.30618 0.133895 -3.64068e-20)
(1.27999 0.120189 2.3351e-21)
(1.255 0.107007 3.04973e-20)
(1.23232 0.0950286 0)
(1.21199 0.0845717 -1.98152e-20)
(1.19292 0.0742106 0)
(1.17654 0.0700238 1.21203e-20)
(0.245511 0.0071736 -2.02188e-20)
(0.87101 0.131689 0)
(1.24567 0.219042 2.81575e-20)
(1.37974 0.246158 0)
(1.39558 0.240274 0)
(1.37184 0.22399 0)
(1.34044 0.20603 -1.13787e-20)
(1.31001 0.188124 0)
(1.2825 0.170874 7.34437e-21)
(1.25816 0.154664 0)
(1.23653 0.139909 -9.57574e-21)
(1.21643 0.126405 0)
(1.19719 0.11371 6.27046e-21)
(1.17939 0.102956 0)
(1.16148 0.0961204 4.09612e-21)
(-0.0108703 0.167285 -1.37125e-20)
(-0.0346713 0.258053 0)
(-0.0702415 0.255697 2.16757e-20)
(-0.105998 0.228142 0)
(-0.13963 0.193072 0)
(-0.170372 0.148728 0)
(-0.197237 0.0913229 -1.50897e-20)
(-0.219599 0.0185406 0)
(-0.23582 -0.0709489 1.28076e-20)
(-0.244353 -0.174526 0)
(-0.24519 -0.287713 -2.07217e-20)
(-0.238695 -0.403761 0)
(-0.223287 -0.51374 1.52538e-20)
(-0.209492 -0.607184 0)
(-0.171537 -0.68095 9.98223e-21)
(-0.0209391 0.172844 7.03554e-20)
(-0.0405736 0.282306 -5.09052e-20)
(-0.0596665 0.290629 2.42463e-20)
(-0.0759986 0.266454 8.24747e-20)
(-0.0883535 0.231249 1.40748e-21)
(-0.0958245 0.18562 -6.80957e-20)
(-0.0976607 0.126391 4.58741e-20)
(-0.0936944 0.0513354 0)
(-0.0835778 -0.040263 4.19959e-20)
(-0.0653519 -0.146648 7.39324e-22)
(-0.0392728 -0.263124 -2.33403e-20)
(-0.0098795 -0.383481 0)
(0.0307312 -0.493964 -4.83059e-20)
(0.0469654 -0.592487 0)
(0.100908 -0.656934 -4.84626e-20)
(-0.0288824 0.160977 1.19174e-19)
(-0.044732 0.283098 2.65461e-20)
(-0.0456975 0.304198 -4.58123e-20)
(-0.0398405 0.285477 -1.2752e-19)
(-0.0278738 0.251511 7.60586e-20)
(-0.00909863 0.206276 7.32109e-20)
(0.0172299 0.147789 -1.31732e-19)
(0.0507237 0.0734599 0)
(0.0918753 -0.017273 -1.15851e-19)
(0.143259 -0.123057 1.03007e-19)
(0.205269 -0.238113 4.66693e-20)
(0.269727 -0.360158 0)
(0.34923 -0.460069 3.30263e-20)
(0.38781 -0.556787 -5.3234e-20)
(0.47175 -0.593791 0)
(-0.032974 0.134621 6.21677e-20)
(-0.0474556 0.258929 -1.62668e-19)
(-0.0333199 0.292465 1.93238e-19)
(-0.00716248 0.281088 -1.7248e-19)
(0.0276351 0.249781 -7.8757e-20)
(0.0708733 0.205855 7.2239e-20)
(0.12284 0.148869 6.68341e-20)
(0.18457 0.0766284 6.17166e-20)
(0.257768 -0.0117087 -1.7332e-19)
(0.346852 -0.116743 -1.2213e-21)
(0.44767 -0.228958 4.66753e-20)
(0.552376 -0.351092 0)
(0.658107 -0.442556 6.40427e-20)
(0.716764 -0.53216 1.49495e-19)
(0.806211 -0.55786 -8.5757e-20)
(-0.0328454 0.100982 5.57699e-22)
(-0.0484849 0.214579 1.10543e-19)
(-0.0252727 0.255788 -9.71961e-20)
(0.0160626 0.251483 8.67502e-20)
(0.0696062 0.223589 1.56612e-19)
(0.13403 0.181204 -1.4312e-19)
(0.210534 0.125885 -6.50454e-20)
(0.303758 0.0568816 -1.85704e-19)
(0.416561 -0.0284129 1.66906e-19)
(0.552822 -0.12844 0)
(0.694938 -0.231832 0)
(0.835322 -0.339161 1.45792e-19)
(0.94615 -0.409723 -3.10721e-19)
(1.00528 -0.48588 1.04161e-19)
(1.06308 -0.481916 0)
(-0.0301881 0.0687379 5.85387e-22)
(-0.0480622 0.160485 -1.09921e-19)
(-0.0219077 0.200549 2.92079e-19)
(0.0287763 0.199468 -8.58623e-20)
(0.0975683 0.173885 -7.79137e-20)
(0.184615 0.133027 7.09343e-20)
(0.295512 0.0794336 6.50774e-20)
(0.435805 0.0124451 1.18707e-19)
(0.603563 -0.0685627 -2.08994e-19)
(0.786754 -0.155916 9.17418e-20)
(0.957396 -0.240584 7.89866e-20)
(1.09713 -0.319997 0)
(1.1796 -0.363982 0)
(1.20733 -0.416313 1.61905e-19)
(1.20267 -0.390419 -1.43999e-19)
(-0.0283282 0.0445729 1.79158e-22)
(-0.0477447 0.109073 0)
(-0.0209453 0.138515 0)
(0.0388187 0.1345 1.71216e-19)
(0.130334 0.108731 -7.56291e-20)
(0.259576 0.0687707 6.76322e-20)
(0.430817 0.0172019 1.25137e-19)
(0.63548 -0.0431383 -1.10949e-19)
(0.852417 -0.108707 1.03694e-19)
(1.04895 -0.169861 -9.18298e-20)
(1.19913 -0.229753 -7.8013e-21)
(1.2844 -0.270937 0)
(1.30343 -0.304379 4.67858e-20)
(1.27396 -0.324225 0)
(1.21706 -0.308881 0)
(-0.0300941 0.0308502 -1.27183e-19)
(-0.0475572 0.0690623 0)
(-0.0125223 0.0818039 -1.93917e-19)
(0.0732999 0.0694981 3.41136e-19)
(0.217963 0.0411558 -3.7704e-19)
(0.422241 0.00409589 -6.91837e-20)
(0.665118 -0.0366789 1.19525e-19)
(0.910527 -0.0773647 0)
(1.1201 -0.116074 0)
(1.26731 -0.151199 -1.5656e-19)
(1.33936 -0.184576 -6.14505e-20)
(1.34617 -0.206198 1.15354e-19)
(1.30566 -0.230076 -4.68828e-20)
(1.24773 -0.23508 0)
(1.19256 -0.230478 -9.94136e-20)
(-0.171692 -0.754822 0)
(-0.10078 -0.724221 3.56754e-21)
(0.0662438 -0.406698 -3.31034e-21)
(0.36239 0.0873112 0)
(0.537591 0.508503 0)
(0.640595 0.665353 -8.3047e-23)
(0.719299 0.647494 0)
(0.607446 0.703254 0)
(0.488065 0.622032 8.27054e-23)
(0.589304 0.213401 0)
(0.787244 -0.196952 0)
(0.921957 -0.357239 -1.15394e-22)
(0.911172 -0.469914 0)
(0.89167 -0.56743 -8.28189e-23)
(0.931368 -0.506325 -6.56837e-23)
(0.94454 -0.293101 0)
(0.969921 0.0684542 -6.49355e-22)
(1.0052 0.425941 7.7949e-22)
(1.01889 0.578802 0)
(0.992229 0.448577 3.87882e-22)
(1.01592 0.140099 -4.83188e-22)
(1.06919 -0.218138 9.91797e-23)
(0.998054 -0.50278 -1.31359e-22)
(0.991451 -0.386436 1.25517e-22)
(1.045 0.104686 -1.09041e-22)
(1.01516 0.475781 0)
(0.941103 0.397248 -1.23977e-22)
(0.849852 0.0211264 1.18542e-22)
(0.800626 -0.242202 -7.89085e-23)
(0.853635 -0.171863 0)
(0.910667 0.0455602 1.21145e-23)
(0.902657 0.18206 0)
(0.821256 0.145047 -7.99847e-23)
(0.752009 0.0262172 -8.509e-23)
(0.71828 -0.115504 1.09263e-23)
(0.728199 -0.154468 -7.92062e-23)
(0.803155 -0.168601 0)
(0.879719 -0.0938701 5.02689e-24)
(0.0563828 -0.746457 1.77444e-20)
(-0.0406407 -0.763829 -9.73293e-23)
(-0.0709126 -0.547045 -9.24071e-21)
(0.164376 -0.074275 8.81325e-21)
(0.373933 0.384077 0)
(0.575793 0.583265 8.37053e-23)
(0.676089 0.646175 -1.35895e-22)
(0.558679 0.756021 0)
(0.512589 0.628083 -8.33323e-23)
(0.6734 0.152063 0)
(0.841483 -0.276091 0)
(0.973293 -0.387207 1.16211e-22)
(0.970509 -0.457307 0)
(0.927112 -0.57494 2.58794e-21)
(0.973241 -0.520231 -2.18427e-21)
(0.961161 -0.29852 2.54564e-21)
(0.947922 0.053329 -2.43009e-21)
(0.97719 0.406547 -1.60472e-22)
(0.991015 0.572316 0)
(0.967274 0.449578 0)
(1.00266 0.133784 -9.62159e-23)
(1.08749 -0.215164 8.07499e-22)
(1.02348 -0.492563 -1.21794e-21)
(0.98946 -0.394451 5.18338e-22)
(1.04084 0.0982604 3.55553e-22)
(1.02071 0.481759 0)
(0.960663 0.415033 2.40607e-22)
(0.877415 0.0386776 0)
(0.82397 -0.243476 7.91839e-23)
(0.872113 -0.183615 -1.6663e-23)
(0.923689 0.041256 -7.70117e-24)
(0.910452 0.189607 -4.01907e-23)
(0.833183 0.156865 9.84309e-23)
(0.766617 0.0340469 -6.29337e-24)
(0.741375 -0.113465 1.06089e-22)
(0.737867 -0.159645 -7.40685e-23)
(0.80662 -0.177944 -4.17157e-24)
(0.890429 -0.0989353 4.70732e-24)
(0.410999 -0.654929 2.37257e-20)
(0.250595 -0.684393 -3.84482e-20)
(0.0260796 -0.613863 3.93726e-21)
(0.090735 -0.281117 1.07637e-20)
(0.334111 0.184806 5.89711e-23)
(0.595748 0.479361 -9.43801e-23)
(0.679803 0.659921 1.3825e-22)
(0.550808 0.808602 -3.03282e-22)
(0.574002 0.630796 0)
(0.787472 0.119117 1.33491e-20)
(0.920841 -0.321868 -1.27307e-20)
(1.02015 -0.413697 -2.58064e-22)
(1.01731 -0.436035 0)
(0.939239 -0.571286 -5.2547e-21)
(0.988738 -0.538441 4.87136e-21)
(0.973621 -0.301974 -2.69592e-21)
(0.925985 0.0433672 2.57272e-21)
(0.948651 0.392601 2.65163e-21)
(0.969586 0.570321 -2.21411e-21)
(0.949335 0.454725 0)
(0.988016 0.130789 0)
(1.0978 -0.208825 1.33725e-21)
(1.04749 -0.475218 -1.27657e-21)
(0.982195 -0.401805 -1.04217e-21)
(1.03038 0.0852681 -3.31418e-23)
(1.0261 0.484217 1.0032e-21)
(0.981489 0.433633 2.07022e-24)
(0.904078 0.0599681 -5.26875e-22)
(0.847191 -0.241438 7.61586e-22)
(0.889186 -0.195195 -4.6747e-22)
(0.935667 0.0363765 1.8958e-23)
(0.919028 0.196267 -7.07051e-24)
(0.845973 0.168118 1.87949e-22)
(0.780517 0.0415386 -1.79703e-22)
(0.763276 -0.111041 -9.56303e-23)
(0.75244 -0.163425 -6.24299e-23)
(0.810197 -0.18704 1.28445e-22)
(0.898485 -0.104364 7.09153e-24)
(0.736029 -0.575221 0)
(0.628552 -0.529676 1.18471e-20)
(0.352534 -0.526415 -1.16866e-20)
(0.17816 -0.415044 0)
(0.323245 -0.0420275 -6.06123e-23)
(0.588342 0.34126 9.69828e-23)
(0.64477 0.634 0)
(0.52451 0.825386 3.36981e-23)
(0.624704 0.621681 -3.83961e-22)
(0.89689 0.105488 0)
(1.01455 -0.342333 -1.08408e-20)
(1.06572 -0.436275 1.06002e-20)
(1.07174 -0.408847 -4.01216e-22)
(0.963739 -0.550069 -5.39193e-21)
(0.98792 -0.556916 5.14151e-21)
(0.985256 -0.311784 3.33173e-22)
(0.916136 0.0223965 0)
(0.923125 0.358813 -3.38899e-22)
(0.936697 0.556391 3.19414e-21)
(0.924906 0.460382 -5.10476e-22)
(0.971046 0.130023 2.68981e-22)
(1.10098 -0.204902 -2.23731e-21)
(1.07131 -0.455784 -1.96924e-21)
(0.973938 -0.406678 2.40688e-21)
(1.01469 0.0629982 -2.74903e-22)
(1.02537 0.47626 0)
(0.995845 0.44966 -2.48381e-22)
(0.92663 0.0836884 5.33819e-22)
(0.869499 -0.237082 -7.92857e-22)
(0.905176 -0.206948 4.93647e-22)
(0.947126 0.0302373 1.90849e-23)
(0.928387 0.202595 0)
(0.859454 0.179681 -2.00736e-22)
(0.794682 0.0490658 4.43014e-22)
(0.783339 -0.108519 2.35545e-22)
(0.770315 -0.166069 2.97689e-22)
(0.815503 -0.195504 -1.28535e-22)
(0.90463 -0.10996 1.24519e-24)
(0.954237 -0.541426 3.97642e-22)
(0.877322 -0.451719 4.79035e-22)
(0.708245 -0.353263 0)
(0.4442 -0.365612 0)
(0.34286 -0.210308 0)
(0.497167 0.203935 0)
(0.544187 0.617138 7.57237e-21)
(0.48865 0.81688 -1.75972e-20)
(0.661899 0.582876 1.07642e-20)
(0.980968 0.0893843 0)
(1.10533 -0.335925 -1.0854e-20)
(1.10258 -0.445793 1.07131e-20)
(1.10154 -0.383134 6.57732e-21)
(0.9887 -0.515264 -5.54034e-21)
(0.973308 -0.572801 5.46623e-21)
(0.983749 -0.32853 -5.55296e-21)
(0.902496 0.00759982 -3.91934e-22)
(0.890866 0.341436 -4.86971e-21)
(0.915014 0.554086 4.64057e-21)
(0.916475 0.469785 2.86821e-22)
(0.96121 0.132579 2.85867e-22)
(1.09847 -0.200125 2.06795e-21)
(1.09237 -0.434197 -2.30968e-21)
(0.964865 -0.409176 -5.60181e-22)
(0.993302 0.036603 -3.08594e-22)
(1.02321 0.466701 -2.86235e-22)
(1.01097 0.46474 0)
(0.947026 0.109267 0)
(0.89042 -0.229855 0)
(0.92022 -0.218165 0)
(0.958368 0.0236442 9.55804e-24)
(0.938134 0.20752 -2.75328e-23)
(0.873425 0.190215 4.26652e-22)
(0.810166 0.056362 -1.69033e-21)
(0.802124 -0.105989 2.46782e-22)
(0.789925 -0.167787 5.79647e-23)
(0.823178 -0.203074 -1.86572e-22)
(0.909629 -0.115497 -2.3333e-23)
(1.08365 -0.439985 -4.18655e-22)
(0.967444 -0.427972 2.51941e-20)
(0.861227 -0.289422 -2.42376e-20)
(0.738464 -0.238952 -7.3205e-22)
(0.523796 -0.238272 6.97178e-22)
(0.442996 0.0348164 2.479e-21)
(0.432575 0.514381 -2.24702e-21)
(0.421915 0.772788 1.51057e-22)
(0.670637 0.552949 -3.61261e-22)
(1.04153 0.103582 0)
(1.18772 -0.294784 -4.07974e-22)
(1.14724 -0.432093 1.58143e-20)
(1.1273 -0.356555 -1.50561e-20)
(1.0217 -0.470458 -3.45389e-22)
(0.962962 -0.57891 0)
(0.971582 -0.352812 -6.67327e-21)
(0.890792 -0.0220617 1.2843e-20)
(0.860239 0.293168 -5.74087e-21)
(0.875756 0.525881 0)
(0.88819 0.47907 2.05423e-21)
(0.948514 0.144882 -1.21828e-22)
(1.09287 -0.193089 -2.29332e-21)
(1.10854 -0.412093 -2.48396e-21)
(0.960607 -0.406719 2.40426e-21)
(0.966987 5.17792e-05 -2.53983e-21)
(1.01457 0.441757 1.55554e-22)
(1.0186 0.478297 2.39506e-21)
(0.961225 0.139207 -1.85791e-21)
(0.909149 -0.219427 1.76659e-21)
(0.934292 -0.228929 -9.27911e-23)
(0.969481 0.0147862 8.82368e-23)
(0.948409 0.212162 0)
(0.888143 0.201861 4.5037e-22)
(0.827635 0.064405 9.98642e-23)
(0.82063 -0.103262 0)
(0.810204 -0.168818 -3.31616e-22)
(0.833187 -0.209738 1.20748e-22)
(0.914103 -0.120814 3.14443e-24)
(1.11045 -0.354457 0)
(1.01081 -0.352791 0)
(0.870834 -0.273035 -8.42109e-23)
(0.823952 -0.186056 0)
(0.759368 -0.168204 0)
(0.556278 0.0161461 -7.89537e-21)
(0.435328 0.453876 7.49634e-21)
(0.46368 0.698612 1.30023e-20)
(0.753685 0.464118 -1.23697e-20)
(1.11863 0.0619576 0)
(1.2508 -0.276998 -3.53028e-22)
(1.18583 -0.421615 2.69571e-22)
(1.1441 -0.338331 -1.231e-20)
(1.05037 -0.422265 9.95549e-22)
(0.961432 -0.571406 9.99514e-21)
(0.950952 -0.384354 1.95397e-22)
(0.865339 -0.0427841 -2.10278e-22)
(0.819878 0.27786 1.00784e-20)
(0.846883 0.520922 -9.9437e-21)
(0.884432 0.484288 0)
(0.946791 0.14868 0)
(1.09012 -0.185837 -1.37728e-22)
(1.11689 -0.387569 0)
(0.960634 -0.403543 2.72833e-21)
(0.939876 -0.0287307 3.38522e-22)
(1.00703 0.42245 -2.4926e-21)
(1.02545 0.486767 -2.64773e-21)
(0.973119 0.164932 1.76547e-21)
(0.92568 -0.208911 -1.94202e-22)
(0.947274 -0.239892 0)
(0.98019 0.00689848 -3.99431e-23)
(0.958669 0.214794 3.78734e-23)
(0.902953 0.210459 1.828e-22)
(0.846716 0.0714712 2.80495e-22)
(0.839552 -0.100643 -3.10447e-22)
(0.830515 -0.169483 1.20118e-22)
(0.845111 -0.215553 0)
(0.918482 -0.125797 1.62841e-23)
(1.1164 -0.282096 6.09695e-20)
(1.04039 -0.297566 3.41301e-20)
(0.922037 -0.265308 -1.28465e-20)
(0.845777 -0.215478 -2.58641e-20)
(0.848031 -0.198879 6.96258e-21)
(0.713157 -0.0719685 8.18121e-23)
(0.503259 0.31896 0)
(0.469946 0.641759 -3.00856e-23)
(0.780973 0.480388 -1.27392e-22)
(1.16452 0.12126 0)
(1.30082 -0.189585 -1.97901e-20)
(1.22168 -0.372668 1.888e-20)
(1.16527 -0.313932 2.14869e-22)
(1.07643 -0.370148 1.00243e-20)
(0.969082 -0.546359 -9.52345e-21)
(0.93196 -0.4082 1.84304e-22)
(0.833135 -0.088324 2.23178e-22)
(0.765459 0.209132 0)
(0.803717 0.472482 6.84967e-21)
(0.846274 0.497278 -6.49311e-21)
(0.929695 0.182724 -2.18354e-21)
(1.09221 -0.166133 1.92184e-22)
(1.11883 -0.362737 1.92041e-21)
(0.967036 -0.392816 -2.79939e-21)
(0.912952 -0.0759962 -5.43895e-23)
(0.988964 0.380906 5.247e-21)
(1.02666 0.497948 -1.95798e-21)
(0.979139 0.203352 2.15941e-21)
(0.939289 -0.190352 -1.59293e-21)
(0.959772 -0.250176 0)
(0.99055 -0.00795847 0)
(0.969525 0.216895 0)
(0.918641 0.222597 3.08199e-22)
(0.867359 0.0808562 -1.78367e-22)
(0.859368 -0.0971767 4.65571e-22)
(0.850595 -0.169381 -3.09486e-22)
(0.858407 -0.220017 -1.22621e-22)
(0.923016 -0.130192 0)
(1.13864 -0.178169 0)
(1.08018 -0.191285 0)
(0.992581 -0.163577 0)
(0.902269 -0.120716 0)
(0.856121 -0.107677 0)
(0.763854 -0.0201504 0)
(0.659884 0.277571 0)
(0.77402 0.486816 0)
(1.08948 0.289248 0)
(1.31248 0.0327624 0)
(1.34832 -0.145459 0)
(1.23292 -0.312103 0)
(1.17612 -0.260943 0)
(1.10849 -0.285744 0)
(0.988067 -0.515896 0)
(0.911779 -0.443102 0)
(0.800533 -0.0992316 0)
(0.715299 0.206068 0)
(0.756736 0.459058 0)
(0.820638 0.484916 0)
(0.936935 0.166616 0)
(1.10433 -0.164966 0)
(1.12078 -0.344731 0)
(0.966495 -0.38449 0)
(0.894618 -0.0978319 0)
(0.977415 0.350207 0)
(1.0284 0.496381 0)
(0.980376 0.226579 0)
(0.952691 -0.17318 0)
(0.97401 -0.252038 0)
(1.00243 -0.0152596 0)
(0.983091 0.216354 0)
(0.93751 0.227713 0)
(0.893763 0.0871972 0)
(0.885239 -0.0924242 0)
(0.875364 -0.167031 0)
(0.875962 -0.223167 0)
(0.928843 -0.13471 0)
(1.11115 -0.124169 0)
(1.06235 -0.154237 0)
(0.998539 -0.1316 0)
(0.940796 -0.0973027 0)
(0.912214 -0.08762 0)
(0.855954 0.0317445 0)
(0.831284 0.240409 0)
(1.02173 0.331295 0)
(1.23905 0.181729 0)
(1.31811 -0.000819323 0)
(1.29946 -0.143949 0)
(1.1951 -0.268181 0)
(1.11982 -0.244112 0)
(1.04573 -0.302243 0)
(0.953251 -0.469313 0)
(0.858891 -0.335032 0)
(0.702226 -0.00414984 0)
(0.603893 0.235594 0)
(0.681983 0.44503 0)
(0.811713 0.447091 0)
(0.972787 0.0953573 0)
(1.13038 -0.22149 0)
(1.10455 -0.326098 0)
(0.922063 -0.324395 0)
(0.867811 -0.078877 0)
(0.96051 0.337979 0)
(1.01535 0.50095 0)
(0.981044 0.228859 0)
(0.973639 -0.184729 0)
(0.998976 -0.262289 0)
(1.02137 -0.0129489 0)
(0.999073 0.224641 0)
(0.961177 0.237228 0)
(0.929784 0.0914246 0)
(0.920858 -0.0930165 0)
(0.90645 -0.168357 0)
(0.899303 -0.227579 0)
(0.937245 -0.139338 0)
(1.09224 -0.0774874 0)
(1.06335 -0.0916441 0)
(1.0181 -0.0841743 0)
(0.985018 -0.0475303 0)
(0.954177 -0.0335266 0)
(0.925868 0.0391001 0)
(0.938675 0.154061 0)
(1.0881 0.201802 0)
(1.21062 0.0982598 0)
(1.2498 -0.0109115 0)
(1.25242 -0.0915887 0)
(1.15308 -0.215097 0)
(1.10709 -0.182104 0)
(1.08252 -0.204228 0)
(0.967107 -0.402153 0)
(0.80444 -0.289378 0)
(0.597654 0.05273 0)
(0.509334 0.231164 0)
(0.645527 0.363308 0)
(0.858018 0.358591 0)
(1.01983 0.044376 0)
(1.13793 -0.221432 0)
(1.10257 -0.284646 0)
(0.881942 -0.292044 0)
(0.834462 -0.0989241 0)
(0.953844 0.301839 0)
(1.00733 0.490106 0)
(0.990441 0.240854 0)
(0.994357 -0.178613 0)
(1.01793 -0.269183 0)
(1.04073 -0.0157706 0)
(1.02004 0.23201 0)
(0.989647 0.245719 0)
(0.970475 0.0975624 0)
(0.960711 -0.0879648 0)
(0.939012 -0.164679 0)
(0.923516 -0.228414 0)
(0.946398 -0.142673 0)
(1.07451 -0.0447478 0)
(1.06293 -0.0538372 0)
(1.02972 -0.0534841 0)
(1.00732 -0.0274473 0)
(0.988639 -0.0211948 0)
(0.981844 0.0339676 0)
(0.996873 0.0841427 0)
(1.08571 0.110546 0)
(1.16602 0.0672172 0)
(1.17824 -0.0246074 0)
(1.18872 -0.0749047 0)
(1.12489 -0.157414 0)
(1.0598 -0.179397 0)
(1.01668 -0.22099 0)
(0.921372 -0.324158 0)
(0.759397 -0.146318 0)
(0.566384 0.154188 0)
(0.549632 0.197369 0)
(0.7141 0.251807 0)
(0.93821 0.272877 0)
(1.07051 -0.0158445 0)
(1.14108 -0.251833 0)
(1.0787 -0.237289 0)
(0.83084 -0.220815 0)
(0.757198 -0.102021 0)
(0.906474 0.265818 0)
(0.973634 0.481292 0)
(0.996712 0.238733 0)
(1.02185 -0.190155 0)
(1.04003 -0.280295 0)
(1.05877 -0.0177785 0)
(1.03828 0.238466 0)
(1.01805 0.251853 0)
(1.01367 0.100381 0)
(1.00352 -0.0854734 0)
(0.973002 -0.161855 0)
(0.948804 -0.228292 0)
(0.956627 -0.145094 0)
(1.06368 -0.0237981 0)
(1.06103 -0.025992 0)
(1.03894 -0.0323341 0)
(1.02904 -0.0111986 0)
(1.01457 -0.00846187 0)
(1.01466 0.0235756 0)
(1.03168 0.0483283 0)
(1.06824 0.0558577 0)
(1.12574 0.0330368 0)
(1.13215 -0.0244578 0)
(1.1337 -0.0599094 0)
(1.10298 -0.131352 0)
(1.05976 -0.11708 0)
(1.02223 -0.117528 0)
(0.915484 -0.24092 0)
(0.780547 -0.0797789 0)
(0.684584 0.201259 0)
(0.740459 0.153921 0)
(0.868177 0.133867 0)
(1.0309 0.182753 0)
(1.10443 -0.03975 0)
(1.12546 -0.225935 0)
(1.04682 -0.162673 0)
(0.800687 -0.145738 0)
(0.675026 -0.109022 0)
(0.802527 0.219625 0)
(0.913772 0.455332 0)
(1.01729 0.227134 0)
(1.05391 -0.1932 0)
(1.05372 -0.285474 0)
(1.06924 -0.0159737 0)
(1.05384 0.244749 0)
(1.05033 0.254708 0)
(1.06047 0.103175 0)
(1.04707 -0.0781768 0)
(1.00597 -0.153732 0)
(0.972824 -0.224106 0)
(0.966839 -0.14568 0)
(1.0563 -0.00937819 0)
(1.05868 -0.00888831 0)
(1.04531 -0.0169327 0)
(1.03921 -0.00323442 0)
(1.03256 -0.00473572 0)
(1.03183 0.0129463 0)
(1.04623 0.0234251 0)
(1.06085 0.0215859 0)
(1.09584 0.0150611 0)
(1.09693 -0.0294553 0)
(1.10091 -0.0460611 0)
(1.07455 -0.0904745 0)
(1.01643 -0.107985 0)
(1.01525 -0.103288 0)
(0.939904 -0.168483 0)
(0.821801 -0.024784 0)
(0.829818 0.196165 0)
(0.922843 0.100738 0)
(0.989025 0.0650972 0)
(1.08404 0.146761 0)
(1.11023 -0.0524831 0)
(1.08311 -0.223684 0)
(1.01168 -0.100956 0)
(0.81542 -0.0536328 0)
(0.656956 -0.0895446 0)
(0.715837 0.166157 0)
(0.885027 0.400591 0)
(1.06618 0.192413 0)
(1.09731 -0.200427 0)
(1.06336 -0.291341 0)
(1.07099 -0.0216799 0)
(1.06633 0.243446 0)
(1.08218 0.252988 0)
(1.10517 0.104035 0)
(1.08812 -0.0710077 0)
(1.03739 -0.144627 0)
(0.996239 -0.218055 0)
(0.97729 -0.144999 0)
(1.05062 -0.000735572 0)
(1.05451 0.000581934 0)
(1.04811 -0.00743475 0)
(1.04453 0.000177429 0)
(1.04229 -0.00185044 0)
(1.03963 0.00468499 0)
(1.05091 0.0103974 0)
(1.05424 0.00311445 0)
(1.07337 0.00222507 0)
(1.07452 -0.0277248 0)
(1.06775 -0.0395072 0)
(1.06221 -0.0634533 0)
(1.01939 -0.0769249 0)
(1.01071 -0.0516586 0)
(0.957778 -0.0944269 0)
(0.866797 -0.0197774 0)
(0.925696 0.150253 0)
(1.00881 0.0683499 0)
(1.01544 0.018823 0)
(1.08194 0.107664 0)
(1.11361 -0.0338862 0)
(1.04738 -0.176907 0)
(0.984202 -0.0373166 0)
(0.888295 0.031988 0)
(0.756849 -0.0510299 0)
(0.744893 0.101211 0)
(0.938713 0.307039 0)
(1.1382 0.148642 0)
(1.13434 -0.19009 0)
(1.05669 -0.276912 0)
(1.04576 -0.017596 0)
(1.05546 0.240927 0)
(1.10357 0.243864 0)
(1.14287 0.103153 0)
(1.12236 -0.0592021 0)
(1.06417 -0.129902 0)
(1.0174 -0.207519 0)
(0.98736 -0.142049 0)
(1.04615 0.00426365 0)
(1.04999 0.00501743 0)
(1.0481 -0.00156515 0)
(1.04513 0.00164736 0)
(1.0453 -0.00121195 0)
(1.04238 0.000216495 0)
(1.04905 0.00237985 0)
(1.04962 -0.00516763 0)
(1.05677 -0.0049656 0)
(1.05969 -0.0231439 0)
(1.04965 -0.0310598 0)
(1.04716 -0.0410563 0)
(1.01458 -0.0564775 0)
(1.00055 -0.0392133 0)
(0.985566 -0.0508775 0)
(0.918015 -0.0149797 0)
(0.961038 0.096187 0)
(1.03478 0.0472197 0)
(1.01461 0.00826808 0)
(1.05389 0.0807001 0)
(1.09631 -0.0267054 0)
(1.01694 -0.145145 0)
(0.953118 -0.0173187 0)
(0.959779 0.0733798 0)
(0.907228 -0.00955994 0)
(0.864635 0.054729 0)
(1.02189 0.21649 0)
(1.18978 0.114284 0)
(1.15593 -0.166103 0)
(1.03475 -0.254647 0)
(1.00548 -0.0217326 0)
(1.04378 0.221707 0)
(1.12358 0.225058 0)
(1.16972 0.100885 0)
(1.14579 -0.0466741 0)
(1.08484 -0.114488 0)
(1.03616 -0.195518 0)
(0.997327 -0.137867 0)
(1.0424 0.00681623 0)
(1.04551 0.00670281 0)
(1.04549 0.00142499 0)
(1.04365 0.00217691 0)
(1.04409 -0.0009173 0)
(1.04186 -0.00152773 0)
(1.04482 -0.00180429 0)
(1.04476 -0.00743411 0)
(1.04577 -0.00785176 0)
(1.04763 -0.0184896 0)
(1.03838 -0.0232165 0)
(1.03556 -0.0286559 0)
(1.01882 -0.0348645 0)
(1.00289 -0.0231804 0)
(0.997864 -0.020566 0)
(0.959247 -0.00765866 0)
(0.978809 0.056993 0)
(1.03051 0.0375351 0)
(1.01142 0.00425166 0)
(1.03484 0.0469339 0)
(1.07723 -0.0136159 0)
(1.01008 -0.0900224 0)
(0.945849 -0.00659106 0)
(0.994938 0.0701562 0)
(1.0026 0.00829462 0)
(0.96132 0.0275765 0)
(1.05532 0.143558 0)
(1.18529 0.0870348 0)
(1.15225 -0.12318 0)
(1.00506 -0.205635 0)
(0.948461 -0.0213795 0)
(1.00929 0.189939 0)
(1.1107 0.196561 0)
(1.16619 0.0971852 0)
(1.14901 -0.0308204 0)
(1.09314 -0.0946884 0)
(1.04741 -0.179515 0)
(1.0049 -0.131121 0)
(1.03833 0.00758307 0)
(1.0411 0.00721993 0)
(1.04165 0.00263884 0)
(1.04085 0.00266598 0)
(1.04082 -0.000856305 0)
(1.03937 -0.00174485 0)
(1.04018 -0.00325243 0)
(1.03951 -0.00726608 0)
(1.03868 -0.00745115 0)
(1.03868 -0.0143268 0)
(1.03252 -0.0152193 0)
(1.02927 -0.018757 0)
(1.01905 -0.0195155 0)
(1.00701 -0.014623 0)
(1.00434 -0.0077437 0)
(0.986422 -0.00129213 0)
(0.992133 0.0328144 0)
(1.02326 0.0264666 0)
(1.01535 0.00663525 0)
(1.02377 0.028855 0)
(1.05041 -0.0109495 0)
(1.01106 -0.0543135 0)
(0.962267 -0.00730644 0)
(1.00759 0.0441476 0)
(1.03735 0.0111935 0)
(1.00607 0.0176605 0)
(1.04672 0.0965761 0)
(1.14144 0.0635423 0)
(1.1263 -0.0838984 0)
(0.985346 -0.149668 0)
(0.899572 -0.0195741 0)
(0.958771 0.146876 0)
(1.07492 0.157824 0)
(1.14527 0.0862449 0)
(1.1396 -0.0212087 0)
(1.09196 -0.0799101 0)
(1.05241 -0.166105 0)
(1.00945 -0.124781 0)
(1.03439 0.00740337 0)
(1.03685 0.00704712 0)
(1.03744 0.00313605 0)
(1.03717 0.00280044 0)
(1.03691 -0.000454323 0)
(1.03588 -0.00142422 0)
(1.03584 -0.00303931 0)
(1.03485 -0.00592914 0)
(1.03349 -0.00563474 0)
(1.03276 -0.0103133 0)
(1.02834 -0.00889917 0)
(1.02556 -0.0119143 0)
(1.01935 -0.00948629 0)
(1.01198 -0.00713845 0)
(1.00977 0.000169078 0)
(1.00118 0.0032075 0)
(1.00303 0.0210147 0)
(1.0185 0.0196857 0)
(1.01541 0.00643046 0)
(1.02077 0.0180129 0)
(1.03435 -0.00810392 0)
(1.01387 -0.0280374 0)
(0.98487 -0.00296058 0)
(1.01275 0.0242983 0)
(1.03781 0.00877021 0)
(1.02109 0.0162941 0)
(1.0376 0.0653213 0)
(1.09865 0.0417259 0)
(1.09267 -0.046509 0)
(0.984833 -0.0835443 0)
(0.900204 -0.00528427 0)
(0.949277 0.100729 0)
(1.06186 0.11029 0)
(1.12994 0.0700183 0)
(1.12829 -0.0104287 0)
(1.08916 -0.0609454 0)
(1.05764 -0.148431 0)
(1.01453 -0.115751 0)
(1.03074 0.00679878 0)
(1.03278 0.00659531 0)
(1.03325 0.00321672 0)
(1.03333 0.00288979 0)
(1.03291 8.65787e-05 0)
(1.03232 -0.000773341 0)
(1.03178 -0.00206382 0)
(1.03092 -0.00425475 0)
(1.02953 -0.00339984 0)
(1.02857 -0.00679707 0)
(1.02566 -0.00407638 0)
(1.02353 -0.00664588 0)
(1.01978 -0.00248345 0)
(1.01496 -0.00206906 0)
(1.01357 0.00430027 0)
(1.00925 0.00579558 0)
(1.00948 0.0146884 0)
(1.01742 0.0150366 0)
(1.01572 0.00614506 0)
(1.01925 0.0127492 0)
(1.02521 -0.00670297 0)
(1.01477 -0.0155902 0)
(1.00011 -0.00404122 0)
(1.01784 0.00975424 0)
(1.03267 0.00468091 0)
(1.02561 0.0136164 0)
(1.03578 0.0466253 0)
(1.06942 0.0304271 0)
(1.06017 -0.0193301 0)
(0.990986 -0.0373007 0)
(0.938966 0.000883333 0)
(0.981235 0.058622 0)
(1.06595 0.0694239 0)
(1.11325 0.0566012 0)
(1.11002 -0.00337293 0)
(1.07946 -0.0496205 0)
(1.05667 -0.136235 0)
(1.0166 -0.108242 0)
(1.02737 0.00605349 0)
(1.02904 0.00602574 0)
(1.0294 0.00313661 0)
(1.02965 0.00293308 0)
(1.02917 0.000611911 0)
(1.02887 -6.54628e-05 0)
(1.02819 -0.000945654 0)
(1.02762 -0.00258803 0)
(1.02641 -0.00130573 0)
(1.02559 -0.00388529 0)
(1.02371 -0.000470304 0)
(1.02208 -0.00281145 0)
(1.0199 0.00201481 0)
(1.01697 0.00141369 0)
(1.01597 0.00700997 0)
(1.01381 0.00752186 0)
(1.01346 0.0119099 0)
(1.01731 0.0129108 0)
(1.01608 0.00535158 0)
(1.01859 0.00979218 0)
(1.02094 -0.00561824 0)
(1.01705 -0.00869645 0)
(1.00945 -0.00448222 0)
(1.02059 0.00113324 0)
(1.02861 0.00248619 0)
(1.02617 0.0113381 0)
(1.03291 0.0339815 0)
(1.05133 0.0255012 0)
(1.04175 0.00252863 0)
(1.00064 -0.00564938 0)
(0.975259 0.00198501 0)
(1.00837 0.0270996 0)
(1.06213 0.0403871 0)
(1.09119 0.0479798 0)
(1.0892 0.0045367 0)
(1.06845 -0.0369017 0)
(1.05405 -0.121667 0)
(1.01691 -0.0984866 0)
(1.02433 0.00527054 0)
(1.02571 0.00542796 0)
(1.02593 0.00292738 0)
(1.02627 0.0029009 0)
(1.0258 0.000994765 0)
(1.02575 0.000543665 0)
(1.02513 5.72823e-05 0)
(1.02479 -0.00120924 0)
(1.02388 0.000409766 0)
(1.02322 -0.00169038 0)
(1.02212 0.00206733 0)
(1.02095 -9.84651e-05 0)
(1.01976 0.00494591 0)
(1.01793 0.00383378 0)
(1.01725 0.00864034 0)
(1.01622 0.00866737 0)
(1.01561 0.0106503 0)
(1.01761 0.0116912 0)
(1.0167 0.00485441 0)
(1.01861 0.00810156 0)
(1.01899 -0.00510362 0)
(1.01858 -0.00597435 0)
(1.01442 -0.00630588 0)
(1.02175 -0.00490691 0)
(1.02585 0.0002026 0)
(1.02577 0.00879744 0)
(1.03006 0.0262293 0)
(1.03908 0.0241883 0)
(1.03092 0.0160362 0)
(1.00907 0.0096987 0)
(0.99885 -0.00263543 0)
(1.02221 0.00449423 0)
(1.05224 0.0220678 0)
(1.06886 0.0419911 0)
(1.07009 0.0079326 0)
(1.0579 -0.0309728 0)
(1.05033 -0.111269 0)
(1.01631 -0.0905291 0)
(1.02166 0.0044799 0)
(1.02278 0.00482214 0)
(1.02288 0.00260927 0)
(1.02329 0.00278999 0)
(1.02288 0.00121228 0)
(1.023 0.000972429 0)
(1.02246 0.000815054 0)
(1.02234 -0.000222468 0)
(1.02167 0.00172014 0)
(1.02128 -0.000190998 0)
(1.02063 0.00389267 0)
(1.0199 0.00168174 0)
(1.01926 0.00686122 0)
(1.01823 0.00539737 0)
(1.01777 0.00970054 0)
(1.01741 0.00946088 0)
(1.01681 0.0101403 0)
(1.01809 0.0111694 0)
(1.0172 0.00441565 0)
(1.01889 0.00699972 0)
(1.01835 -0.00525908 0)