/*--------------------------------*- C++ -*----------------------------------*\
| =========                 |                                                 |
| \\      /  F ield         | OpenFOAM: The Open Source CFD Toolbox           |
|  \\    /   O peration     | Version:  2312                                  |
|   \\  /    A nd           | Website:  www.openfoam.com                      |
|    \\/     M anipulation  |                                                 |
\*---------------------------------------------------------------------------*/
FoamFile
{
    version     2.0;
    format      ascii;
    arch        "LSB;label=32;scalar=64";
    class       volScalarField;
    location    "195.75";
    object      p;
}
// * * * * * * * * * * * * * * * * * * * * * * * * * * * * * * * * * * * * * //

dimensions      [0 2 -2 0 0 0 0];

internalField   nonuniform List<scalar> 
5478
(
-0.510473
-0.507234
-0.499396
-0.491166
-0.484199
-0.479704
-0.47635
-0.471453
-0.462015
-0.446233
-0.424087
-0.39658
-0.365999
-0.330008
-0.291041
-0.523986
-0.519825
-0.512975
-0.50443
-0.494777
-0.483416
-0.469913
-0.453666
-0.434295
-0.411853
-0.386685
-0.35941
-0.330045
-0.298929
-0.268677
-0.543037
-0.536899
-0.528751
-0.518154
-0.502939
-0.48309
-0.460234
-0.435811
-0.41052
-0.384556
-0.357988
-0.330779
-0.303286
-0.275534
-0.247555
-0.567358
-0.557973
-0.547241
-0.531436
-0.507916
-0.479332
-0.449143
-0.419214
-0.390143
-0.361985
-0.334536
-0.307779
-0.281555
-0.255967
-0.231822
-0.59775
-0.583011
-0.568264
-0.543543
-0.509852
-0.473175
-0.437262
-0.40344
-0.371898
-0.342355
-0.314525
-0.288071
-0.262806
-0.238856
-0.215458
-0.634039
-0.612226
-0.58893
-0.552106
-0.508056
-0.464372
-0.423945
-0.387239
-0.353886
-0.323417
-0.295336
-0.269291
-0.245036
-0.222289
-0.200582
-0.669172
-0.64236
-0.604924
-0.554242
-0.500842
-0.451357
-0.407319
-0.368397
-0.333833
-0.302889
-0.274973
-0.249598
-0.2264
-0.205081
-0.184708
-0.696714
-0.665781
-0.611615
-0.547445
-0.48612
-0.432012
-0.385346
-0.345008
-0.309853
-0.278989
-0.251652
-0.227299
-0.205537
-0.185825
-0.167721
-0.49611
-0.495293
-0.497775
-0.507053
-0.523272
-0.546438
-0.576123
-0.610913
-0.648234
-0.684364
-0.715018
-0.734711
-0.738551
-0.722853
-0.681807
-0.512641
-0.509641
-0.512061
-0.521735
-0.539017
-0.563917
-0.595966
-0.633724
-0.674638
-0.715093
-0.75165
-0.772603
-0.778341
-0.7622
-0.714017
-0.521204
-0.515828
-0.51653
-0.524109
-0.539181
-0.561803
-0.59141
-0.626482
-0.664526
-0.70211
-0.73109
-0.756521
-0.762908
-0.745222
-0.69272
-0.521916
-0.51466
-0.512249
-0.515245
-0.525064
-0.542222
-0.566258
-0.595679
-0.628146
-0.659486
-0.689643
-0.710363
-0.711578
-0.687647
-0.630418
-0.517108
-0.509312
-0.503479
-0.50061
-0.503615
-0.514072
-0.532067
-0.556452
-0.584827
-0.614628
-0.638289
-0.650533
-0.641168
-0.608114
-0.546262
-0.510258
-0.503432
-0.495103
-0.487209
-0.484237
-0.489014
-0.502609
-0.523749
-0.54837
-0.571081
-0.584251
-0.583543
-0.56188
-0.522889
-0.465116
-0.504711
-0.499676
-0.490278
-0.479846
-0.473751
-0.475494
-0.485933
-0.50198
-0.518499
-0.528854
-0.528239
-0.513013
-0.48284
-0.443845
-0.396084
-0.503958
-0.500298
-0.491342
-0.481097
-0.474715
-0.474365
-0.479582
-0.486657
-0.490639
-0.486678
-0.472611
-0.447668
-0.415417
-0.37866
-0.338842
-0.576846
-0.418958
-0.299982
-0.258825
-0.270414
-0.253116
-0.189308
-0.152476
-0.140017
-0.135872
-0.145661
-0.147841
-0.15019
-0.151332
-0.143006
-0.110245
-0.106677
-0.128198
-0.148535
-0.12384
-0.113911
-0.126285
-0.143236
-0.116487
-0.143718
-0.176307
-0.197603
-0.152758
-0.125834
-0.0555043
-0.0406227
-0.025077
-0.0167292
-0.0100713
-0.00657245
-0.00445211
-0.00253011
-0.000811375
-0.597145
-0.417222
-0.270756
-0.197831
-0.187374
-0.170512
-0.147078
-0.14128
-0.144161
-0.151589
-0.173063
-0.176668
-0.161215
-0.151636
-0.145831
-0.114804
-0.11302
-0.136949
-0.152046
-0.123433
-0.106227
-0.108437
-0.13316
-0.11361
-0.153966
-0.200705
-0.203716
-0.134298
-0.115277
-0.0588093
-0.042421
-0.0238057
-0.0160094
-0.010258
-0.00669134
-0.00440329
-0.00250067
-0.000810918
-0.574065
-0.401202
-0.249265
-0.160934
-0.131076
-0.0790749
-0.103429
-0.128095
-0.148143
-0.16739
-0.200934
-0.20921
-0.173197
-0.15136
-0.145353
-0.117408
-0.118041
-0.145312
-0.154135
-0.121484
-0.0978455
-0.0909994
-0.121135
-0.108659
-0.160291
-0.220309
-0.203531
-0.113074
-0.102004
-0.0607138
-0.0436109
-0.0224068
-0.0152242
-0.0103988
-0.00679403
-0.00434819
-0.00246846
-0.000809538
-0.513365
-0.371253
-0.236637
-0.150343
-0.107425
-0.0441657
-0.0655115
-0.109406
-0.144077
-0.174772
-0.218788
-0.229119
-0.183819
-0.149551
-0.140702
-0.118098
-0.121503
-0.152962
-0.155997
-0.119029
-0.0893858
-0.0752782
-0.107577
-0.101602
-0.161618
-0.233875
-0.199378
-0.0919199
-0.0869962
-0.0611072
-0.0441289
-0.0210105
-0.0144116
-0.0104783
-0.00687354
-0.00428996
-0.00243472
-0.000807002
-0.435749
-0.332229
-0.227344
-0.145677
-0.101027
-0.0504578
-0.0484679
-0.105828
-0.138764
-0.163689
-0.217066
-0.233918
-0.190383
-0.146721
-0.133421
-0.117053
-0.123381
-0.159835
-0.156771
-0.115816
-0.0815698
-0.0623836
-0.0934324
-0.0927999
-0.157857
-0.241647
-0.192785
-0.0726203
-0.0711491
-0.0600681
-0.0438844
-0.0196912
-0.0136
-0.0104848
-0.00692209
-0.00423048
-0.00240015
-0.000803103
-0.371595
-0.298243
-0.21649
-0.145496
-0.102826
-0.0636027
-0.0493933
-0.110124
-0.131634
-0.138892
-0.195564
-0.215062
-0.186136
-0.140887
-0.124192
-0.11273
-0.122403
-0.164366
-0.157932
-0.113554
-0.0755572
-0.0524968
-0.0793971
-0.0824217
-0.149458
-0.243976
-0.185251
-0.0567331
-0.0554809
-0.0578649
-0.0429884
-0.0185446
-0.0128186
-0.0104146
-0.00694011
-0.00417336
-0.00236658
-0.000797943
-0.328342
-0.277753
-0.206529
-0.142703
-0.0990165
-0.0679832
-0.0564832
-0.103953
-0.113695
-0.110914
-0.168808
-0.214174
-0.183666
-0.136496
-0.116233
-0.104681
-0.117159
-0.166751
-0.156142
-0.110055
-0.0700153
-0.045566
-0.0663061
-0.0698109
-0.136093
-0.242306
-0.174736
-0.0452444
-0.0403373
-0.0546276
-0.0412919
-0.0175719
-0.0121205
-0.0102776
-0.00691586
-0.00411537
-0.00233196
-0.000790972
-0.299946
-0.265696
-0.209855
-0.15061
-0.10604
-0.0714692
-0.0489614
-0.105657
-0.0870791
-0.0846396
-0.133656
-0.174345
-0.162914
-0.128843
-0.105529
-0.0941876
-0.105838
-0.164547
-0.155079
-0.109809
-0.0671801
-0.0411068
-0.0536114
-0.0568057
-0.118447
-0.237315
-0.163337
-0.03757
-0.0266543
-0.0503072
-0.0392669
-0.0168497
-0.0114401
-0.0100638
-0.00688234
-0.00407096
-0.00230411
-0.000783834
-0.262902
-0.241718
-0.187102
-0.130433
-0.0843473
-0.0437109
-0.000391139
0.0221944
-0.00485868
-0.0389805
-0.108584
-0.161405
-0.139813
-0.11039
-0.085603
-0.0810014
-0.097092
-0.149778
-0.143072
-0.102469
-0.0621344
-0.0378972
-0.0454792
-0.048371
-0.106016
-0.220178
-0.148719
-0.0316902
-0.0178997
-0.0444677
-0.035546
-0.0159896
-0.0108502
-0.00967854
-0.00670474
-0.00398314
-0.0022533
-0.000767242
-0.195685
-0.182459
-0.139293
-0.0935454
-0.0551262
-0.0197961
0.0265023
0.0542022
0.049899
0.00322798
-0.0665278
-0.093945
-0.0941289
-0.0777816
-0.0596199
-0.0567411
-0.0810388
-0.137118
-0.135266
-0.0862334
-0.0463368
-0.0237701
-0.0345901
-0.0324352
-0.0840094
-0.193575
-0.132132
-0.0136952
-0.0108498
-0.0362456
-0.0315412
-0.0142412
-0.00984106
-0.00907113
-0.0064015
-0.00384104
-0.00217681
-0.000741603
-0.152899
-0.147451
-0.118318
-0.0802586
-0.0445054
-0.0108077
0.0347755
0.0665447
0.0636614
0.0259202
-0.0248707
-0.0520927
-0.0576967
-0.0546864
-0.0387239
-0.0309076
-0.0501579
-0.09595
-0.102684
-0.0613397
-0.0277283
-0.0135192
-0.0234287
-0.0181392
-0.0554514
-0.147932
-0.0966236
0.00298055
-0.00444059
-0.026971
-0.0260311
-0.012408
-0.00909032
-0.00835328
-0.00601153
-0.00368799
-0.00209951
-0.000712953
-0.11692
-0.113898
-0.09164
-0.0604172
-0.0306064
-0.00223138
0.0308702
0.0547367
0.0570312
0.0330558
-0.000522978
-0.0200559
-0.0273968
-0.027593
-0.0141275
-0.0045342
-0.0196017
-0.046282
-0.0595048
-0.0408226
-0.0175537
-0.00943371
-0.0112005
-0.00432988
-0.0267039
-0.0940257
-0.0483261
0.0157347
0.00466878
-0.0162588
-0.0199297
-0.0109998
-0.00847756
-0.00749755
-0.00554019
-0.00352386
-0.00201496
-0.000678787
-0.0881612
-0.087014
-0.0722502
-0.049432
-0.0266198
-0.00468754
0.0189834
0.0377374
0.0427701
0.0292537
0.0104779
-0.00363693
-0.0100936
-0.0133651
-0.00388737
0.0114151
0.010995
0.00595549
-0.0157207
-0.0253555
-0.0129532
-0.00812442
-0.00429727
0.00548356
-0.00193478
-0.0390615
0.00227207
0.0258125
0.0142632
-0.0047542
-0.0127756
-0.00963045
-0.00779712
-0.00651782
-0.00499949
-0.00333544
-0.00191684
-0.000638929
-0.0666701
-0.0664356
-0.056552
-0.0400895
-0.0227084
-0.0058134
0.0110425
0.0237682
0.0292142
0.0232124
0.0132655
0.00581763
0.00174943
0.00162145
0.00867167
0.0202006
0.0199048
0.0152882
0.00667114
-0.012818
-0.00751528
-0.000841933
0.00373468
0.0117141
0.00979697
-0.00109588
0.0347821
0.0298843
0.0213314
0.00467706
-0.00614906
-0.00817997
-0.00680032
-0.00547244
-0.00443594
-0.00311248
-0.00179466
-0.000592437
-0.0494745
-0.049838
-0.0435485
-0.0322582
-0.0197736
-0.00759276
0.00382896
0.0131946
0.0184758
0.0172198
0.0132012
0.00935556
0.00763164
0.00691797
0.0117095
0.0215598
0.0235455
0.0222649
0.015956
0.000136653
0.000439927
0.00158925
0.00886699
0.0155641
0.0158298
0.0177413
0.0402244
0.0284537
0.0235479
0.0101559
-0.00165333
-0.00656811
-0.00553398
-0.00451928
-0.00388536
-0.00282593
-0.00163463
-0.00053756
-0.0359971
-0.0369183
-0.0331556
-0.0256161
-0.0168567
-0.00815502
-7.93822e-05
0.00666575
0.0113086
0.0124246
0.0115302
0.0101433
0.0103098
0.0115311
0.0150481
0.0215076
0.0226956
0.0205246
0.0171077
0.00775433
0.00625773
0.00725596
0.0130433
0.0173969
0.0166816
0.0175707
0.0328814
0.0262291
0.0229796
0.010951
0.000513801
-0.00459895
-0.00415401
-0.00368749
-0.00332063
-0.00245791
-0.00143563
-0.000474974
-0.0256917
-0.0268264
-0.0245874
-0.0196409
-0.0136478
-0.00758562
-0.00189597
0.00302768
0.00690096
0.00890579
0.00977321
0.0101201
0.011042
0.0121714
0.014166
0.0185488
0.0200042
0.0186471
0.0165046
0.0113367
0.0100911
0.00937734
0.0133311
0.0175949
0.0172871
0.0182313
0.0267306
0.0232692
0.0208311
0.0114476
0.00237186
-0.00237316
-0.00278559
-0.00282286
-0.0026707
-0.00201666
-0.00120137
-0.000398407
-0.0175415
-0.0186442
-0.017466
-0.0143492
-0.0103157
-0.00610219
-0.00206157
0.00149888
0.00454545
0.00671688
0.00819976
0.0092071
0.010416
0.0120342
0.0137838
0.0165333
0.0177204
0.0168544
0.0154861
0.0128008
0.011974
0.0119238
0.0140992
0.0172756
0.017106
0.0174286
0.0219032
0.02098
0.0187412
0.0115096
0.00396599
-0.00044769
-0.00157786
-0.00197489
-0.00199651
-0.00156357
-0.000962604
-0.000324236
-0.0110992
-0.0122199
-0.0116688
-0.0097063
-0.00701093
-0.00414286
-0.00133511
0.00126604
0.00367731
0.00560291
0.00715293
0.00848762
0.00983137
0.0113697
0.0126683
0.0143401
0.0154594
0.0151748
0.014453
0.0131745
0.0127795
0.0125225
0.0137529
0.0160745
0.0164161
0.0165447
0.0185152
0.0180578
0.0165057
0.0113736
0.00527872
0.00122051
-0.000416073
-0.00111501
-0.00131194
-0.0010936
-0.000698052
-0.000234137
-0.00606417
-0.00707004
-0.00688834
-0.00569056
-0.00391646
-0.00197736
-2.44451e-05
0.00185276
0.00364482
0.00525401
0.00664361
0.00793315
0.00913142
0.0104501
0.0116347
0.0128075
0.0137481
0.0138589
0.0135691
0.0130559
0.0129648
0.0131132
0.0137926
0.015137
0.0154616
0.0154539
0.0161686
0.0158205
0.014521
0.0109448
0.00618281
0.00260227
0.000670629
-0.000294066
-0.000668825
-0.00064624
-0.000441597
-0.000150239
-0.00203089
-0.00289973
-0.00294402
-0.00224556
-0.00109294
0.000208631
0.00153387
0.00284113
0.00413527
0.00538255
0.00651156
0.00759853
0.00864681
0.00974636
0.0107626
0.0116321
0.0123804
0.0127372
0.0127688
0.012649
0.0127184
0.0127959
0.013201
0.0140078
0.0143163
0.0142756
0.0143427
0.0138216
0.0127262
0.0102803
0.00671726
0.00366299
0.0016554
0.000473262
-7.89168e-05
-0.000228893
-0.000193733
-6.58142e-05
0.00116863
0.000435587
0.000288353
0.000680575
0.00140706
0.00225304
0.00312068
0.00401162
0.00492857
0.00584855
0.00671152
0.00755225
0.00839932
0.00926665
0.0100888
0.0107908
0.0114075
0.0118503
0.0120526
0.0121296
0.0123026
0.0124712
0.0127197
0.0131348
0.0132524
0.0131246
0.0129512
0.0123963
0.0113965
0.00959717
0.00697882
0.00445716
0.00253258
0.00121528
0.000486411
0.000165604
4.44167e-05
2.04705e-05
0.00371599
0.00312453
0.00293383
0.00312216
0.00355472
0.00408549
0.00463993
0.00522129
0.00583994
0.00648035
0.0071026
0.00771449
0.00835199
0.00901223
0.00964898
0.0102119
0.0107045
0.0111266
0.0114068
0.0115742
0.0117627
0.0119089
0.0120345
0.0122293
0.0122501
0.0120712
0.0117566
0.0111612
0.0102684
0.00889461
0.00695925
0.00494115
0.0032122
0.0018786
0.00100268
0.000514743
0.000246073
8.84927e-05
0.00575369
0.00527712
0.00507251
0.00513468
0.00537332
0.00568464
0.00601431
0.00636746
0.0067609
0.00718317
0.00760477
0.00802227
0.00846832
0.00894733
0.00941754
0.00984268
0.0102257
0.0105798
0.0108538
0.0110314
0.0111979
0.0113244
0.0113915
0.0114411
0.0113675
0.0111396
0.0107861
0.0102258
0.00942621
0.00830891
0.00684377
0.0052412
0.00373352
0.00245559
0.00149131
0.000853419
0.000441207
0.000156295
0.00735795
0.00698297
0.00678848
0.00677368
0.00687944
0.00703589
0.00720753
0.00740024
0.00762827
0.00788336
0.0081441
0.00840699
0.00869595
0.00901715
0.00933792
0.0096345
0.0099098
0.0101752
0.0103937
0.0105411
0.0106676
0.0107507
0.0107591
0.010722
0.0105943
0.0103417
0.00996653
0.00943227
0.00872161
0.00779581
0.00663749
0.00534729
0.00406206
0.00289104
0.00191074
0.00116298
0.00061616
0.000207443
0.00861642
0.00832422
0.00814535
0.00808259
0.00809942
0.00815065
0.00821343
0.00829323
0.00840068
0.00853022
0.00866655
0.00880834
0.00897205
0.00916334
0.00935971
0.00954395
0.00971872
0.00989015
0.0100339
0.0101281
0.0101966
0.0102258
0.0101904
0.0101016
0.00993371
0.00966555
0.00929447
0.00879953
0.00816549
0.00737534
0.00642672
0.00536864
0.00427178
0.00321363
0.00225658
0.00144473
0.000788156
0.0002601
0.00958855
0.00935968
0.00919799
0.00910736
0.00906592
0.00904615
0.00903445
0.00903593
0.00905778
0.00909632
0.00914078
0.00919089
0.00925821
0.00934643
0.00944085
0.00952944
0.00961481
0.00969943
0.00976632
0.00979895
0.00980809
0.00978476
0.00970688
0.0095777
0.00938394
0.00910931
0.00874639
0.00828344
0.00771193
0.00702416
0.00621911
0.00532266
0.00437191
0.00341826
0.00250735
0.00167482
0.000941756
0.000306595
0.0103206
0.0101385
0.00999222
0.00988551
0.00980652
0.00974017
0.00967932
0.00962788
0.00959043
0.00956432
0.00954295
0.00952605
0.00952143
0.00953112
0.00954591
0.00955806
0.00956907
0.00957999
0.00957788
0.00955267
0.00950722
0.00943439
0.00931821
0.0091579
0.00894354
0.00866268
0.00830946
0.00787527
0.00735314
0.0067398
0.00603416
0.00525172
0.00441169
0.00354456
0.00268241
0.00185083
0.00107007
0.000349172
0.0108488
0.0106991
0.010565
0.0104495
0.0103473
0.0102516
0.0101596
0.0100737
0.00999648
0.00992638
0.0098598
0.00979653
0.00974082
0.00969366
0.00964977
0.0096047
0.00955839
0.00951109
0.00945372
0.00938013
0.0092889
0.00917486
0.00902666
0.00884056
0.00860971
0.00832426
0.0079783
0.00756526
0.00707914
0.00651827
0.00588084
0.00517544
0.00441291
0.00361062
0.00278992
0.00196907
0.00116295
0.00038218
0.0111929
0.011064
0.0109388
0.0108194
0.0107045
0.0105923
0.0104822
0.010376
0.0102744
0.0101768
0.0100817
0.00998914
0.00990041
0.00981594
0.00973301
0.00964941
0.00956385
0.00947569
0.00937951
0.00927073
0.00914631
0.00900208
0.00882982
0.008625
0.0083816
0.00809196
0.00775027
0.00735104
0.00688883
0.00636168
0.00576758
0.00511113
0.00439832
0.00363988
0.00284937
0.00204004
0.00122217
0.000404905
0.011365
0.0112466
0.0111264
0.0110061
0.0108859
0.0107665
0.0106486
0.0105329
0.0104195
0.0103086
0.0101995
0.0100924
0.00998704
0.0098836
0.00978057
0.00967698
0.00957085
0.00946093
0.00934394
0.00921615
0.00907363
0.00891281
0.0087273
0.00851199
0.00826145
0.00796919
0.00762935
0.00723701
0.00678689
0.0062769
0.00570459
0.00507277
0.00438506
0.00364922
0.00287497
0.00207283
0.00125075
0.000416331
-0.145135
-0.157183
-0.170634
-0.181959
-0.197215
-0.206925
-0.222585
-0.235135
-0.120099
-0.127588
-0.136052
-0.143731
-0.152197
-0.157441
-0.164813
-0.175547
-0.0967777
-0.101402
-0.105719
-0.110369
-0.115011
-0.120751
-0.127351
-0.137323
-0.0779594
-0.0803494
-0.0826212
-0.0864477
-0.0906578
-0.0955472
-0.0998789
-0.106344
-0.0616103
-0.0630572
-0.0645596
-0.0673324
-0.0698371
-0.0724185
-0.0749725
-0.0798594
-0.0482625
-0.0488582
-0.049447
-0.0508471
-0.052196
-0.0540403
-0.0562963
-0.0604191
-0.0368856
-0.0369238
-0.0370233
-0.0378459
-0.0388938
-0.0403595
-0.0420168
-0.045006
-0.0275148
-0.0273043
-0.0271856
-0.0276311
-0.028291
-0.0292257
-0.0303396
-0.0325252
-0.0197656
-0.0194262
-0.0191504
-0.0192749
-0.0196094
-0.0202019
-0.0210746
-0.0228871
-0.0133253
-0.012951
-0.0126157
-0.0125785
-0.0127771
-0.0132429
-0.0139974
-0.0154181
-0.00804278
-0.00772073
-0.00742109
-0.00733669
-0.00745596
-0.00777972
-0.00832689
-0.00940441
-0.00372004
-0.00347209
-0.00321933
-0.00310159
-0.00314119
-0.0033573
-0.00379602
-0.00468539
-0.000176291
-5.19298e-06
0.000185122
0.000288201
0.000264997
9.3023e-05
-0.000261936
-0.000957253
0.00270481
0.00279755
0.0029166
0.00298597
0.00296765
0.00283822
0.00256095
0.00201599
0.0050375
0.00506261
0.00511702
0.00514875
0.00512205
0.00501208
0.00478763
0.00436662
0.00690015
0.00687229
0.00687277
0.00686844
0.00683066
0.00673826
0.00656436
0.00624807
0.00837705
0.00831487
0.00827798
0.00824621
0.00819747
0.00811348
0.00797187
0.00773125
0.00953495
0.00945121
0.00938805
0.00933398
0.00927338
0.00919237
0.00907478
0.00889372
0.0104294
0.0103334
0.0102539
0.0101847
0.0101153
0.0100356
0.00993476
0.00979605
0.0111052
0.0110037
0.0109148
0.0108356
0.0107592
0.0106793
0.0105891
0.0104791
0.0115902
0.0114883
0.0113955
0.0113107
0.01123
0.0111499
0.0110664
0.0109747
0.0118988
0.0118015
0.0117096
0.0116232
0.0115406
0.0114604
0.0113805
0.0112992
0.0120448
0.0119554
0.0118676
0.011782
0.0116989
0.0116182
0.0115395
0.0114622
0.0233934
0.0260182
0.0276967
0.0276937
0.0254651
0.0209907
0.0141498
0.00432121
-0.00962753
-0.0293129
-0.0569547
-0.095647
-0.150461
-0.225012
-0.294276
-0.00228055
-0.00234858
-0.00512483
-0.00993623
-0.0166496
-0.0255962
-0.0373902
-0.0529515
-0.0735516
-0.100908
-0.137371
-0.185985
-0.251862
-0.339817
-0.414591
-0.026529
-0.0300299
-0.0373685
-0.0466622
-0.0575308
-0.0706723
-0.0870823
-0.107871
-0.134391
-0.168447
-0.212593
-0.269978
-0.344219
-0.444001
-0.516425
-0.0515428
-0.0584681
-0.0693394
-0.0819905
-0.0962968
-0.113207
-0.1338
-0.15919
-0.190787
-0.230439
-0.280734
-0.345556
-0.42658
-0.529241
-0.598039
-0.0775812
-0.0875389
-0.100834
-0.115767
-0.132714
-0.152768
-0.176883
-0.206042
-0.241667
-0.285689
-0.340304
-0.409919
-0.495345
-0.595134
-0.657978
-0.102636
-0.115494
-0.13066
-0.147402
-0.166559
-0.189172
-0.216043
-0.247963
-0.286432
-0.33331
-0.391002
-0.462495
-0.547965
-0.641573
-0.695883
-0.12619
-0.141421
-0.158024
-0.17638
-0.197504
-0.222138
-0.250977
-0.284895
-0.325118
-0.373366
-0.43182
-0.502403
-0.584366
-0.668192
-0.71312
-0.148071
-0.164574
-0.182632
-0.202789
-0.22568
-0.251884
-0.282043
-0.31699
-0.35782
-0.405955
-0.463126
-0.530345
-0.605332
-0.675784
-0.712517
0.186827
0.201344
0.217667
0.236197
0.256949
0.279788
0.304608
0.331366
0.35998
0.390181
0.421364
0.452327
0.481034
0.503431
0.521702
0.180458
0.19373
0.208972
0.22662
0.246485
0.268245
0.291738
0.31692
0.343704
0.371768
0.400416
0.428323
0.453287
0.471292
0.48524
0.169924
0.181199
0.194781
0.211003
0.22936
0.249283
0.270502
0.292937
0.316454
0.340652
0.3647
0.387108
0.405394
0.415654
0.422344
0.155208
0.163947
0.175408
0.189627
0.20574
0.222994
0.241049
0.259761
0.278885
0.297849
0.315607
0.330427
0.33945
0.338692
0.335737
0.13644
0.142413
0.151694
0.163736
0.177099
0.190861
0.20472
0.218573
0.232104
0.244556
0.254608
0.260218
0.258114
0.244045
0.228643
0.113912
0.116507
0.123417
0.133185
0.143624
0.153612
0.162852
0.171222
0.178312
0.183195
0.184318
0.179349
0.164575
0.135492
0.105588
0.088293
0.0881981
0.0928543
0.0995719
0.106099
0.111563
0.115744
0.118356
0.118697
0.115577
0.107194
0.0909223
0.0626665
0.0179021
-0.0269511
0.0581176
0.0571505
0.061085
0.0648607
0.0669699
0.0672597
0.0657891
0.0621446
0.0553475
0.0439301
0.0258299
-0.00188986
-0.0437948
-0.104089
-0.162786
0.0279981
0.0324068
0.0287475
0.0326793
0.0302461
0.0345459
0.0327889
0.037208
0.0365549
0.04107
0.041828
0.0466373
0.0491724
0.054803
0.0594983
0.0667852
0.074151
0.0840775
0.0950656
0.108982
0.124813
0.1443
0.166607
0.0279687
0.032341
0.0287207
0.0325977
0.0302146
0.0344497
0.0327666
0.037071
0.0364717
0.0409067
0.0416679
0.0463839
0.0489578
0.0545166
0.059095
0.0663416
0.0733986
0.0831995
0.0936867
0.107266
0.122209
0.140944
0.161856
0.0279489
0.0322495
0.0287152
0.032487
0.0302089
0.0343201
0.0327433
0.0368961
0.036426
0.0407424
0.0415481
0.0461338
0.048739
0.054087
0.0586352
0.0657612
0.0724719
0.0820898
0.0918434
0.104872
0.11852
0.135947
0.154281
0.027938
0.0321346
0.0287218
0.0323506
0.0302241
0.0341607
0.032753
0.0366964
0.0364031
0.0405399
0.0414469
0.0458888
0.0485888
0.0538273
0.0582413
0.0652933
0.0714592
0.0808738
0.0895791
0.101827
0.113531
0.128986
0.143633
0.0279357
0.0319998
0.0287423
0.0321926
0.0302569
0.0339783
0.0327863
0.036473
0.0363986
0.0403031
0.0413551
0.0455399
0.0483201
0.0532249
0.0576878
0.064406
0.0700825
0.0789747
0.0866511
0.0977692
0.107298
0.120052
0.129725
0.0279372
0.0318472
0.0287694
0.0320196
0.0303003
0.033782
0.032841
0.0362601
0.0364095
0.0400974
0.0413169
0.0453878
0.0482985
0.0530893
0.0573111
0.0638952
0.0689117
0.0774381
0.0835494
0.0933737
0.0996924
0.109354
0.113186
0.0279494
0.0316798
0.0288067
0.0318383
0.0303513
0.0335745
0.0328846
0.0360134
0.0364102
0.0398188
0.0412104
0.0449821
0.0479663
0.0522909
0.0565285
0.062433
0.0670849
0.0745388
0.0795982
0.0874709
0.0912118
0.0960877
0.0936225
0.0279571
0.0315054
0.0288427
0.0316578
0.0304057
0.0333882
0.0329787
0.0358665
0.0364565
0.0397101
0.0412829
0.0450539
0.0480394
0.0524546
0.0563884
0.0621505
0.0659894
0.0729737
0.0757443
0.0818096
0.0806333
0.0819658
0.070662
0.027966
0.031271
0.0288953
0.0313928
0.0304582
0.0330587
0.0329856
0.0354443
0.0363566
0.0392202
0.0409934
0.0443956
0.0471875
0.0507737
0.0546368
0.0588649
0.062336
0.066642
0.0683299
0.070169
0.0661749
0.0588859
0.040522
0.0279848
0.0309477
0.0289643
0.0310305
0.0304963
0.0325676
0.0329292
0.0348564
0.03607
0.0382492
0.0401954
0.0427911
0.0456032
0.0483321
0.0516606
0.0543462
0.056799
0.0584351
0.0585639
0.0560138
0.0504205
0.039892
0.0252928
0.0280247
0.030549
0.0290528
0.0305911
0.0305538
0.0319922
0.032848
0.0341805
0.0356778
0.0373239
0.0393316
0.041428
0.0438113
0.0457235
0.0482683
0.0496305
0.0508354
0.0504468
0.0488712
0.044245
0.0374154
0.0267445
0.0129461
0.0280865
0.0300652
0.029163
0.0300904
0.0305787
0.0314504
0.0326377
0.0335417
0.035154
0.0363315
0.0382666
0.0397554
0.041693
0.0429468
0.0444777
0.0447936
0.0447031
0.0428444
0.0398819
0.034273
0.0267856
0.0165608
0.00379131
0.0281736
0.0294886
0.0292494
0.0296348
0.0304908
0.0309565
0.0323031
0.0328824
0.0344533
0.0353007
0.0369595
0.0379878
0.0392873
0.0400089
0.0404882
0.0398896
0.0387285
0.0358348
0.0319606
0.0260276
0.0185598
0.00910279
-0.00242915
0.0282808
0.0288914
0.0292295
0.0292278
0.0303106
0.0304752
0.0318315
0.0322073
0.0335784
0.0341798
0.0354531
0.0360669
0.0367088
0.0369117
0.0364841
0.0350872
0.033144
0.0296916
0.0253715
0.0195197
0.0125089
0.00399513
-0.00610882
0.0283597
0.0283191
0.0291003
0.0288586
0.0300167
0.0300012
0.0312232
0.0314934
0.0325391
0.0329528
0.0337944
0.0339958
0.0340488
0.0337296
0.0326032
0.0306312
0.0281875
0.0245419
0.0201301
0.0146197
0.00832343
0.000915565
-0.00768215
0.0283874
0.0277886
0.0288656
0.0285122
0.0296023
0.0295161
0.0304892
0.0307119
0.0313814
0.0316051
0.0320274
0.0318209
0.0313844
0.0306016
0.0289873
0.026686
0.0239774
0.0203843
0.0161723
0.0111898
0.00573055
-0.000506426
-0.00764166
0.0283376
0.0273209
0.0285141
0.0281756
0.0290751
0.0290006
0.0296622
0.0298368
0.0301456
0.0301515
0.0301956
0.0296182
0.0287961
0.0276575
0.025763
0.0233286
0.0205596
0.0171941
0.013378
0.00903804
0.00442972
-0.000691758
-0.00649635
0.0281922
0.0269263
0.0280476
0.0278293
0.0284553
0.0284213
0.0287799
0.0288584
0.0288581
0.0286294
0.0283493
0.0274732
0.0263711
0.0250041
0.022998
0.0205876
0.0179275
0.0148967
0.0115688
0.00790574
0.00410328
-2.5893e-05
-0.00467316
0.0279389
0.0266029
0.0274861
0.0274409
0.0277876
0.0277583
0.0278619
0.0277919
0.0275397
0.0270856
0.0265442
0.0254633
0.0241888
0.0227056
0.0207182
0.0184508
0.0160156
0.013369
0.0105485
0.00753293
0.00445705
0.00117441
-0.00250617
0.0275752
0.0263336
0.0268672
0.026949
0.0270968
0.027016
0.0269181
0.0266747
0.0262186
0.025579
0.0248405
0.0236507
0.0222976
0.020795
0.0189189
0.0168666
0.0147198
0.0124664
0.0101268
0.00768911
0.00523904
0.00265564
-0.000239582
0.0271094
0.0260927
0.0262504
0.026333
0.0263753
0.0262175
0.0259581
0.0255486
0.0249345
0.0241624
0.0232927
0.0220677
0.0207166
0.0192691
0.0175609
0.0157591
0.0139219
0.0120422
0.0101306
0.00818243
0.00625003
0.00423069
0.00196308
0.0265615
0.0258072
0.0256801
0.0256409
0.0256082
0.0253664
0.0249882
0.0244531
0.0237281
0.022874
0.0219331
0.0207312
0.0194415
0.0180981
0.0165877
0.0150439
0.0135058
0.0119626
0.0104171
0.0088705
0.00735533
0.00578488
0.00401783
0.0259622
0.0254268
0.0251479
0.0249713
0.0248153
0.0244855
0.0240238
0.0234093
0.0226254
0.0217355
0.0207756
0.0196375
0.0184484
0.0172386
0.0159329
0.0146328
0.0133642
0.0121124
0.0108732
0.00965033
0.00846467
0.00724632
0.00587615
0.0253418
0.0249555
0.024625
0.0243255
0.0240304
0.0236154
0.0230917
0.022434
0.0216357
0.0207532
0.0198191
0.0187728
0.0177059
0.0166412
0.0155288
0.0144447
0.0134065
0.0123973
0.0114075
0.0104398
0.00950873
0.00856141
0.0075024
0.0247224
0.0244244
0.0240774
0.023695
0.0232847
0.022794
0.0222226
0.0215486
0.0207681
0.0199267
0.019052
0.0181144
0.0171782
0.0162576
0.0153188
0.0144176
0.0135667
0.0127498
0.0119547
0.0111827
0.0104449
0.00970358
0.00888857
0.0241189
0.0238667
0.0235117
0.0230817
0.0225976
0.0220499
0.0214457
0.0207712
0.0200252
0.0192423
0.0184451
0.0176224
0.0168176
0.0160368
0.0152526
0.0145036
0.0137995
0.0131273
0.0124761
0.0118481
0.0112524
0.0106661
0.0100394
0.0235443
0.0233142
0.0229543
0.0225003
0.0219778
0.0213987
0.0207787
0.020116
0.0194134
0.0186961
0.0179815
0.0172677
0.0165811
0.0159195
0.0152622
0.0146334
0.0140415
0.0134787
0.0129376
0.0124193
0.011932
0.0114622
0.0109775
0.0230167
0.0227975
0.0224363
0.0219731
0.0214365
0.0208481
0.0202293
0.0195891
0.0189341
0.018282
0.0176448
0.0170232
0.0164302
0.0158608
0.0153014
0.0147659
0.0142608
0.0137828
0.0133274
0.0128957
0.0124924
0.0121102
0.0117298
0.0225612
0.0223492
0.0219911
0.021529
0.0209936
0.0204101
0.0198028
0.0191877
0.0185753
0.0179778
0.0174024
0.0168489
0.0163232
0.0158222
0.0153378
0.0148769
0.0144435
0.0140362
0.0136515
0.0132877
0.0129471
0.0126281
0.0123231
0.0222102
0.0220016
0.0216492
0.0211946
0.0206693
0.0201
0.019511
0.0189221
0.0183442
0.0177852
0.0172496
0.016739
0.0162571
0.0158025
0.0153704
0.0149617
0.0145778
0.0142187
0.0138826
0.0135683
0.0132759
0.0130051
0.0127537
0.0220196
0.0218161
0.0214651
0.02101
0.0204857
0.0199204
0.0193376
0.0187571
0.0181925
0.017653
0.0171434
0.0166644
0.016215
0.0157926
0.0153934
0.0150162
0.0146625
0.0143335
0.0140295
0.0137503
0.013496
0.0132668
0.0130626
0.0189632
-0.00492085
-0.0284624
-0.0498065
-0.0716347
-0.0928917
-0.113067
-0.130208
0.00930263
-0.0120013
-0.0365473
-0.0555834
-0.0710493
-0.0856336
-0.09938
-0.110658
-0.000286256
-0.0172591
-0.0375387
-0.0523914
-0.0624964
-0.0722708
-0.0818729
-0.0903158
-0.00825784
-0.0218195
-0.0365137
-0.0477869
-0.0552912
-0.0622945
-0.0687047
-0.0742487
-0.0133656
-0.0240825
-0.0338955
-0.0415631
-0.0469043
-0.0517146
-0.0557758
-0.0593192
-0.0157574
-0.0240359
-0.0302105
-0.0350066
-0.0387376
-0.0421505
-0.0448521
-0.0470525
-0.0159231
-0.0221825
-0.0258199
-0.0285437
-0.0310069
-0.0333755
-0.0351448
-0.0364002
-0.0144983
-0.0191732
-0.0211329
-0.0224474
-0.0239457
-0.025547
-0.0267192
-0.0274149
-0.0120815
-0.015544
-0.0164444
-0.0168527
-0.0176529
-0.0186963
-0.0194808
-0.0198582
-0.00914391
-0.0116952
-0.0119652
-0.0118301
-0.0121453
-0.0127817
-0.0132992
-0.013496
-0.00603822
-0.00791275
-0.00783565
-0.00740649
-0.00740484
-0.00775195
-0.00808965
-0.00820288
-0.00300386
-0.00438013
-0.00413615
-0.003576
-0.00338373
-0.00353635
-0.00375492
-0.00383573
-0.000186664
-0.00120001
-0.000899361
-0.000305077
-2.80845e-06
-2.78189e-05
-0.000169107
-0.000241281
0.0023579
0.00161283
0.00191116
0.00246963
0.00280902
0.00286084
0.00277057
0.00269388
0.00460469
0.00405611
0.00431651
0.00479661
0.00511977
0.00520764
0.0051514
0.00507117
0.00654047
0.00613968
0.00634764
0.00673079
0.00700471
0.0070948
0.00705342
0.00696798
0.00817042
0.00787977
0.00803265
0.008317
0.00852594
0.00859596
0.00855539
0.00846566
0.00950938
0.00929961
0.00940241
0.00959738
0.00973918
0.00977839
0.00972977
0.00963564
0.0105869
0.0104327
0.0104918
0.0106111
0.0106914
0.0106968
0.0106355
0.0105366
0.011437
0.0113157
0.011334
0.0113895
0.0114166
0.0113908
0.0113168
0.0112145
0.0120952
0.0119858
0.0119604
0.0119574
0.0119371
0.0118837
0.0117997
0.0116973
0.0125652
0.0124531
0.0123831
0.0123265
0.0122642
0.0121879
0.0120978
0.0119993
0.012899
0.0127665
0.0126387
0.0125223
0.0124171
0.0123198
0.0122266
0.0121352
-0.427021
-0.435366
-0.444259
-0.455936
-0.472039
-0.49286
-0.515622
-0.534526
-0.428138
-0.434036
-0.440191
-0.44915
-0.461521
-0.476888
-0.493899
-0.508242
-0.429173
-0.432485
-0.435757
-0.441215
-0.449563
-0.459415
-0.467396
-0.469571
-0.429285
-0.42973
-0.429316
-0.429926
-0.431628
-0.432826
-0.430527
-0.421755
-0.426205
-0.423106
-0.418
-0.412471
-0.406676
-0.399767
-0.389775
-0.374304
-0.416846
-0.409782
-0.399845
-0.388771
-0.37732
-0.365174
-0.350638
-0.331491
-0.399112
-0.388551
-0.375101
-0.360683
-0.346338
-0.331629
-0.31482
-0.2939
-0.372795
-0.360466
-0.34577
-0.330498
-0.315525
-0.30005
-0.282436
-0.260947
-0.339863
-0.328119
-0.314337
-0.300123
-0.285881
-0.270695
-0.25318
-0.231898
-0.303602
-0.294312