/*--------------------------------*- C++ -*----------------------------------*\
| =========                 |                                                 |
| \\      /  F ield         | OpenFOAM: The Open Source CFD Toolbox           |
|  \\    /   O peration     | Version:  2312                                  |
|   \\  /    A nd           | Website:  www.openfoam.com                      |
|    \\/     M anipulation  |                                                 |
\*---------------------------------------------------------------------------*/
FoamFile
{
    version     2.0;
    format      ascii;
    arch        "LSB;label=32;scalar=64";
    class       volScalarField;
    location    "20";
    object      p;
}
// * * * * * * * * * * * * * * * * * * * * * * * * * * * * * * * * * * * * * //

dimensions      [0 2 -2 0 0 0 0];

internalField   nonuniform List<scalar> 
9200
(
-0.974306
-0.964514
-0.948442
-0.929752
-0.906849
-0.866868
-0.803849
-0.715831
-0.610995
-0.506553
-0.411405
-0.326114
-0.249279
-0.184171
-0.135119
-0.0881297
-0.0494529
-0.00297279
0.0345631
0.0498262
-0.963332
-0.95291
-0.92774
-0.897604
-0.86031
-0.80887
-0.740883
-0.658072
-0.56514
-0.47513
-0.393559
-0.320678
-0.253708
-0.195683
-0.1473
-0.104728
-0.068428
-0.0332496
-0.00318326
0.0199266
-0.975027
-0.968905
-0.939545
-0.891304
-0.835789
-0.773282
-0.70125
-0.623327
-0.542361
-0.462566
-0.389479
-0.323939
-0.265223
-0.213963
-0.166854
-0.127239
-0.0910708
-0.059768
-0.0335042
-0.00894675
-1.0065
-0.986631
-0.950512
-0.885109
-0.815464
-0.744926
-0.673687
-0.600096
-0.526252
-0.456972
-0.391581
-0.331904
-0.278958
-0.230924
-0.190073
-0.153056
-0.121705
-0.0925445
-0.0668935
-0.0430436
-1.0536
-1.00549
-0.935284
-0.86401
-0.789006
-0.714097
-0.643705
-0.575703
-0.509601
-0.447007
-0.389406
-0.336985
-0.288487
-0.245101
-0.204231
-0.169281
-0.138328
-0.112061
-0.0883087
-0.0668965
-1.04415
-1.04181
-0.925084
-0.833784
-0.757025
-0.684753
-0.617337
-0.554916
-0.495604
-0.439245
-0.386461
-0.337885
-0.294761
-0.256139
-0.220151
-0.187708
-0.157728
-0.13063
-0.108731
-0.0880054
-0.970494
-0.999116
-0.896724
-0.796974
-0.722193
-0.657559
-0.597052
-0.538895
-0.483218
-0.431215
-0.382298
-0.336996
-0.295615
-0.259353
-0.226956
-0.19816
-0.172238
-0.147078
-0.124222
-0.105037
-0.903955
-0.881098
-0.83265
-0.757164
-0.689323
-0.626701
-0.569277
-0.515334
-0.465492
-0.418878
-0.375919
-0.335344
-0.29703
-0.261768
-0.230002
-0.201805
-0.177127
-0.154737
-0.13456
-0.114576
-0.887483
-0.840998
-0.798545
-0.731372
-0.665251
-0.602424
-0.546828
-0.495189
-0.446442
-0.402288
-0.362038
-0.324596
-0.291079
-0.259385
-0.230774
-0.204587
-0.180749
-0.15822
-0.140063
-0.12384
-0.908156
-0.835735
-0.775812
-0.70223
-0.637407
-0.577546
-0.523894
-0.473526
-0.4272
-0.384219
-0.344597
-0.308796
-0.27661
-0.247895
-0.221556
-0.197442
-0.176233
-0.155281
-0.137212
-0.121244
-0.881117
-0.850976
-0.867721
-0.885756
-0.910438
-0.939425
-0.970475
-1.00252
-1.03451
-1.06723
-1.10057
-1.13392
-1.1638
-1.19452
-1.22188
-1.23952
-1.24727
-1.22174
-1.17039
-1.10721
-0.882292
-0.869383
-0.882398
-0.902703
-0.924923
-0.946995
-0.968816
-0.987531
-1.00535
-1.02702
-1.05132
-1.0805
-1.11246
-1.14838
-1.18205
-1.21374
-1.22627
-1.20728
-1.1732
-1.12985
-0.880285
-0.883074
-0.902375
-0.924941
-0.944231
-0.958864
-0.965842
-0.965241
-0.964967
-0.968466
-0.975223
-0.988513
-1.01104
-1.03582
-1.0659
-1.0966
-1.11321
-1.10584
-1.08801
-1.05268
-0.900844
-0.916087
-0.94227
-0.968542
-0.984042
-0.98519
-0.970374
-0.944781
-0.918736
-0.896399
-0.876324
-0.865108
-0.870907
-0.87063
-0.885318
-0.903075
-0.904052
-0.896196
-0.876739
-0.827394
-0.945766
-0.971011
-1.0077
-1.03877
-1.04971
-1.03504
-0.995036
-0.936549
-0.876006
-0.818587
-0.763449
-0.720915
-0.7124
-0.676838
-0.668052
-0.675709
-0.663461
-0.649905
-0.629518
-0.57062
-1.01066
-1.04323
-1.08775
-1.12401
-1.13192
-1.1046
-1.04206
-0.951097
-0.850552
-0.752529
-0.659585
-0.578465
-0.563014
-0.48798
-0.453241
-0.456124
-0.425133
-0.405762
-0.389419
-0.347631
-1.07304
-1.10914
-1.15711
-1.1961
-1.20342
-1.16819
-1.09061
-0.973547
-0.835645
-0.69898
-0.572288
-0.462134
-0.438377
-0.337559
-0.293557
-0.286007
-0.230098
-0.202468
-0.185593
-0.154073
-1.09366
-1.12785
-1.17137
-1.20786
-1.2189
-1.17589
-1.09536
-0.966672
-0.805163
-0.644636
-0.494142
-0.375441
-0.336753
-0.207922
-0.195626
-0.18096
-0.104605
-0.0723551
-0.0481511
-0.02723
-1.06158
-1.08187
-1.1128
-1.13396
-1.13114
-1.09334
-1.01892
-0.903208
-0.753103
-0.594287
-0.444945
-0.330408
-0.24999
-0.135496
-0.118445
-0.11585
-0.0363324
-0.0106421
0.018122
0.0323182
-1.00752
-1.01166
-1.0182
-1.01777
-1.00381
-0.966551
-0.900503
-0.803448
-0.680593
-0.549574
-0.428364
-0.322772
-0.231736
-0.149202
-0.0938143
-0.0819687
-0.0228434
0.0182745
0.0586295
0.0570732
-1.00141
-0.851962
-0.722299
-0.642412
-0.624768
-0.653221
-0.725513
-0.847608
-1.00177
-1.06589
-1.01002
-0.847827
-0.663219
-0.498501
-0.369369
-0.276276
-0.210557
-0.162969
-0.127311
-0.0987779
-0.0755258
-0.0575746
-0.04394
-0.0329548
-0.0242501
-0.0181959
-0.0140878
-0.0108638
-0.00834843
-0.00667657
-0.00573713
-0.00505038
-0.00449527
-0.00421712
-0.00439862
-0.00473858
-0.00493239
-0.00492897
-0.00485003
-0.00469833
-0.00448792
-0.00420033
-0.00382636
-0.00340362
-0.00292946
-0.00242739
-0.00191029
-0.00137685
-0.000830953
-0.000283719
-1.04042
-0.893441
-0.774801
-0.715425
-0.711095
-0.763849
-0.864527
-1.00453
-1.16357
-1.23518
-1.15847
-0.97164
-0.754993
-0.562805
-0.411471
-0.302716
-0.227485
-0.173626
-0.134119
-0.103736
-0.0789219
-0.0594427
-0.044911
-0.0336026
-0.0246266
-0.0182891
-0.0141553
-0.0110633
-0.0085347
-0.00672316
-0.00574155
-0.00517794
-0.0046746
-0.00439021
-0.00447836
-0.00471545
-0.00483061
-0.00479247
-0.00470474
-0.00458565
-0.00442107
-0.00416447
-0.00381235
-0.00339949
-0.00293034
-0.00242999
-0.00191417
-0.00137936
-0.000835281
-0.000286902
-0.968272
-0.8621
-0.779772
-0.756046
-0.778857
-0.835184
-0.943985
-1.09625
-1.25174
-1.33263
-1.2669
-1.0724
-0.833764
-0.6218
-0.455137
-0.331794
-0.245392
-0.184404
-0.140409
-0.108025
-0.0823074
-0.0619648
-0.0467687
-0.0349737
-0.0254712
-0.0186152
-0.0143516
-0.0113718
-0.00888422
-0.00695273
-0.00585056
-0.00532408
-0.00494067
-0.0047061
-0.00469007
-0.00476197
-0.00478785
-0.00472741
-0.00462322
-0.00451445
-0.00437494
-0.00414178
-0.00380792
-0.00340345
-0.00293744
-0.00243672
-0.00192025
-0.0013824
-0.000838523
-0.000289241
-0.773802
-0.752243
-0.717902
-0.732367
-0.780285
-0.829464
-0.942055
-1.10267
-1.25907
-1.35588
-1.3179
-1.1365
-0.893306
-0.6695
-0.497702
-0.368396
-0.27223
-0.201213
-0.149876
-0.113682
-0.0863407
-0.0649067
-0.0490861
-0.0369416
-0.0269152
-0.0194001
-0.01482
-0.0118681
-0.00940694
-0.00735217
-0.00608301
-0.00553537
-0.00523521
-0.00503941
-0.00491732
-0.00483535
-0.00478515
-0.00472061
-0.00460499
-0.00449137
-0.00435264
-0.00412824
-0.00380245
-0.00340296
-0.00293876
-0.00243877
-0.00192266
-0.00138342
-0.000839864
-0.000290291
-0.555216
-0.597026
-0.600985
-0.645376
-0.711024
-0.768631
-0.875466
-1.03225
-1.19068
-1.30426
-1.29749
-1.15236
-0.925068
-0.699876
-0.526347
-0.397578
-0.297242
-0.220401
-0.162758
-0.121458
-0.091302
-0.0682181
-0.0515059
-0.0391739
-0.0288752
-0.0207061
-0.0155691
-0.0124931
-0.010039
-0.00783789
-0.00637818
-0.00575905
-0.0054594
-0.00530469
-0.00512675
-0.00494245
-0.00482667
-0.00475357
-0.00463708
-0.00451016
-0.00435753
-0.00413195
-0.00380784
-0.00341085
-0.00294618
-0.00244574
-0.0019279
-0.00138615
-0.000841205
-0.000289713
-0.348969
-0.433918
-0.450956
-0.521862
-0.591357
-0.67181
-0.772925
-0.918897
-1.07145
-1.19754
-1.21526
-1.11225
-0.915184
-0.704439
-0.535617
-0.410993
-0.313798
-0.236834
-0.177117
-0.132286
-0.0989143
-0.0733208
-0.0547526
-0.0416993
-0.0312223
-0.022562
-0.0167682
-0.0133509
-0.0107925
-0.0084217
-0.00672069
-0.00597126
-0.00572208
-0.00559567
-0.00536177
-0.00509689
-0.004921
-0.00483382
-0.00470311
-0.00455901
-0.0043829
-0.00414662
-0.00381674
-0.00341847
-0.00295201
-0.00245051
-0.00193109
-0.00138742
-0.000841877
-0.000292485
-0.16164
-0.262161
-0.284655
-0.382964
-0.450857
-0.549399
-0.662961
-0.814663
-0.976544
-1.10372
-1.15384
-1.08354
-0.911579
-0.714716
-0.544641
-0.41637
-0.319265
-0.245066
-0.187032
-0.142039
-0.1077
-0.0805321
-0.0598219
-0.0451091
-0.0338865
-0.0247023
-0.0182953
-0.0144448
-0.0116964
-0.00917669
-0.00724478
-0.00627616
-0.00594977
-0.00579787
-0.00553151
-0.00523987
-0.0050287
-0.00492812
-0.00479458
-0.00463152
-0.00442717
-0.00417331
-0.00383165
-0.00342966
-0.00296063
-0.00245812
-0.0019371
-0.00139168
-0.000845002
-0.000292651
-0.0114674
-0.0985893
-0.135833
-0.236439
-0.306719
-0.413633
-0.527612
-0.668903
-0.818834
-0.956588
-1.00654
-0.980181
-0.85007
-0.690426
-0.543379
-0.421751
-0.324721
-0.249542
-0.192267
-0.147763
-0.113721
-0.0866147
-0.065108
-0.0492484
-0.0371708
-0.0272523
-0.0200436
-0.0156443
-0.0127191
-0.01011
-0.00797626
-0.00674922
-0.00627787
-0.00604213
-0.0057232
-0.00541722
-0.00517846
-0.00504989
-0.0048881
-0.00471166
-0.00448167
-0.00420839
-0.00385251
-0.00344518
-0.00297218
-0.00246747
-0.00194325
-0.0013955
-0.000846637
-0.00029364
0.0692245
0.0342486
0.00406474
-0.0777743
-0.15689
-0.270077
-0.397768
-0.548692
-0.716797
-0.872502
-0.990121
-0.953299
-0.843421
-0.695754
-0.552731
-0.433276
-0.33626
-0.259986
-0.200859
-0.154912
-0.119695
-0.0917899
-0.0694086
-0.0526714
-0.0402644
-0.0300276
-0.0220543
-0.0168684
-0.0136233
-0.0109212
-0.00867604
-0.00721835
-0.00659099
-0.00628034
-0.00591488
-0.00557675
-0.0053207
-0.00516975
-0.00497175
-0.00479549
-0.00454549
-0.00424871
-0.00387579
-0.00345916
-0.00298166
-0.00247445
-0.00194869
-0.00139989
-0.000849312
-0.00029393
0.095559
0.0941443
0.0838944
0.0387143
-0.0287843
-0.127421
-0.255245
-0.412122
-0.574543
-0.714427
-0.812232
-0.821525
-0.75979
-0.658514
-0.547338
-0.443998
-0.354685
-0.280428
-0.219383
-0.169809
-0.130925
-0.100878
-0.0769967
-0.0582858
-0.0445796
-0.0336896
-0.0249241
-0.0188383
-0.0151086
-0.012091
-0.00951122
-0.00771194
-0.00696388
-0.00662249
-0.00619981
-0.00576922
-0.00545639
-0.0052625
-0.00508604
-0.00488491
-0.00461407
-0.00429627
-0.00391044
-0.0034838
-0.0030011
-0.00248883
-0.00195954
-0.00140802
-0.000853605
-0.000292818
0.112232
0.122575
0.126857
0.108447
0.066486
-0.00867219
-0.122435
-0.267408
-0.438179
-0.607975
-0.721203
-0.730945
-0.661092
-0.567479
-0.473453
-0.388617
-0.31561
-0.255089
-0.204515
-0.161199
-0.125105
-0.0970181
-0.0752034
-0.0578404
-0.0446728
-0.034101
-0.0254621
-0.0193472
-0.0156832
-0.0127637
-0.0100761
-0.00804973
-0.00719615
-0.00690458
-0.00650766
-0.00602796
-0.00562398
-0.00536582
-0.00519043
-0.0049616
-0.004675
-0.0043371
-0.00394095
-0.00350283
-0.00301638
-0.00249854
-0.0019664
-0.00141305
-0.000855089
-0.000290692
0.0975851
0.118756
0.128959
0.118943
0.0854387
0.0196658
-0.082599
-0.2251
-0.395402
-0.554085
-0.63998
-0.619198
-0.551804
-0.477127
-0.406959
-0.341923
-0.282843
-0.231636
-0.188461
-0.151554
-0.119571
-0.0938195
-0.073172
-0.0568071
-0.0445713
-0.0346274
-0.0261912
-0.0200933
-0.0163835
-0.0134527
-0.0106613
-0.00856995
-0.00764186
-0.00728593
-0.00680116
-0.00625605
-0.00578907
-0.00550208
-0.0053319
-0.00509456
-0.00478097
-0.00440967
-0.00398577
-0.00352734
-0.00303151
-0.00250578
-0.00197021
-0.00141515
-0.000853875
-0.000286039
0.0837521
0.108592
0.11904
0.108823
0.0752976
0.0141258
-0.0775444
-0.201483
-0.336418
-0.447945
-0.495896
-0.487638
-0.446871
-0.399708
-0.350977
-0.302318
-0.255709
-0.212925
-0.174607
-0.140385
-0.112161
-0.0901063
-0.0713532
-0.055504
-0.04367
-0.0344081
-0.0264123
-0.0204527
-0.0167294
-0.0138222
-0.0110494
-0.00892794
-0.0079082
-0.00743762
-0.0069716
-0.00641646
-0.00592243
-0.00561709
-0.00540845
-0.0051958
-0.00487233
-0.00448019
-0.00403344
-0.00355711
-0.00304864
-0.00251464
-0.00197307
-0.00141562
-0.000850929
-0.000282269
0.0693876
0.0915235
0.101983
0.093504
0.0651312
0.018659
-0.0453964
-0.130203
-0.226568
-0.311826
-0.359889
-0.368785
-0.353522
-0.327951
-0.294589
-0.25712
-0.22074
-0.188426
-0.159109
-0.131517
-0.107265
-0.0871815
-0.0704038
-0.0559139
-0.0444989
-0.0354115
-0.0274581
-0.0213838
-0.0176292
-0.0147694
-0.0118592
-0.00952794
-0.00839221
-0.00795776
-0.00744613
-0.00677452
-0.00616097
-0.00578801
-0.0055805
-0.00534153
-0.0049904
-0.00456601
-0.00408864
-0.00358989
-0.00306741
-0.0025246
-0.00197735
-0.00141743
-0.000851089
-0.000285883
0.0514141
0.0724861
0.0843084
0.0804705
0.0617011
0.0315277
-0.00953545
-0.0653071
-0.134645
-0.200951
-0.249604
-0.27381
-0.273506
-0.260762
-0.243064
-0.221184
-0.195758
-0.169524
-0.144532
-0.121454
-0.100877
-0.0826906
-0.0668766
-0.0538016
-0.0433207
-0.0346696
-0.0273432
-0.0216896
-0.0178953
-0.0149132
-0.0120355
-0.00976816
-0.00863344
-0.00811444
-0.00756016
-0.00688188
-0.00627868
-0.00590115
-0.00568084
-0.00544857
-0.00508635
-0.00463739
-0.00413751
-0.00362009
-0.00308725
-0.0025359
-0.0019845
-0.00142145
-0.000854024
-0.000289601
0.0394249
0.0578922
0.0693289
0.0674181
0.0538837
0.0326261
0.00455253
-0.0326988
-0.079711
-0.13012
-0.172043
-0.19838
-0.209423
-0.209098
-0.200345
-0.185028
-0.166687
-0.148016
-0.128652
-0.108753
-0.0906695
-0.0759524
-0.0633306
-0.0520359
-0.0426871
-0.0349373
-0.0279428
-0.0221979
-0.018445
-0.0156805
-0.0128591
-0.0104427
-0.00911661
-0.00849568
-0.00790971
-0.0072074
-0.00656512
-0.00614749
-0.00589678
-0.00560934
-0.00520902
-0.0047247
-0.00419528
-0.0036553
-0.0031086
-0.0025468
-0.00198947
-0.00142308
-0.000853452
-0.000285693
0.0315698
0.0446663
0.0533847
0.0521255
0.0415797
0.0262654
0.00755903
-0.0173942
-0.049467
-0.0860261
-0.12058
-0.146183
-0.159754
-0.163566
-0.161833
-0.154352
-0.141386
-0.127254
-0.113242
-0.0998712
-0.0870661
-0.0742706
-0.061679
-0.0505424
-0.0414725
-0.0340961
-0.0275574
-0.0222109
-0.0187061
-0.0160028
-0.0131234
-0.0106702
-0.00943301
-0.00891916
-0.00828161
-0.00745664
-0.00670631
-0.00623027
-0.00597027
-0.00570691
-0.00530612
-0.00480311
-0.00424932
-0.00368853
-0.00312589
-0.00255457
-0.00199036
-0.00142154
-0.000849467
-0.00028079
0.0233801
0.0331968
0.0395968
0.0385685
0.0306616
0.0195494
0.00620303
-0.0107303
-0.032773
-0.0595992
-0.0856747
-0.106629
-0.121133
-0.128214
-0.129215
-0.125806
-0.119557
-0.111092
-0.100349
-0.0875704
-0.0752279
-0.0645586
-0.0553599
-0.0469604
-0.039358
-0.0329621
-0.0273607
-0.0224606
-0.0188913
-0.0162115
-0.0135191
-0.0111269
-0.00973668
-0.00899543
-0.00837261
-0.00760543
-0.00692218
-0.00645913
-0.00616803
-0.00585143
-0.00541421
-0.0048821
-0.0043016
-0.00372177
-0.00314309
-0.00256344
-0.00199173
-0.00141984
-0.000846156
-0.00028004
0.0179986
0.0248057
0.0286769
0.0273297
0.0211177
0.0128307
0.00335061
-0.00834498
-0.023475
-0.0423536
-0.0624069
-0.0793494
-0.0915157
-0.0991614
-0.103568
-0.103984
-0.0995355
-0.0924568
-0.085133
-0.0777199
-0.070277
-0.0624019
-0.053988
-0.0458902
-0.0388688
-0.0328836
-0.0273356
-0.0224794
-0.0191447
-0.016708
-0.0140449
-0.0115749
-0.0102007
-0.00958112
-0.0088737
-0.00797268
-0.00717663
-0.00663976
-0.00630363
-0.00596087
-0.0055091
-0.00495748
-0.0043567
-0.00375793
-0.00316266
-0.0025732
-0.00199299
-0.00141764
-0.000843642
-0.000280102
0.0133594
0.0178223
0.0200072
0.0183001
0.0133343
0.00719813
0.000354397
-0.00764173
-0.018113
-0.0312889
-0.0460977
-0.0592386
-0.0701095
-0.0777802
-0.0823133
-0.0831309
-0.0815345
-0.0791144
-0.074712
-0.0682689
-0.0609946
-0.0538536
-0.0471529
-0.0410103
-0.0352773
-0.0302537
-0.0258135
-0.0217277
-0.018625
-0.0163341
-0.0139347
-0.0116238
-0.0102288
-0.00949786
-0.00883271
-0.00800278
-0.00726219
-0.00674558
-0.00640864
-0.00605814
-0.00559442
-0.00502809
-0.00440879
-0.00379051
-0.0031798
-0.00257928
-0.001992
-0.00141381
-0.000839863
-0.00027842
0.00963016
0.0126344
0.0135947
0.0116251
0.00747638
0.00279785
-0.00213334
-0.0078666
-0.015584
-0.02572
-0.0356884
-0.04554
-0.0538391
-0.0601131
-0.0649557
-0.067754
-0.067834
-0.0658016
-0.0624633
-0.0582145
-0.0537768
-0.0491956
-0.0442306
-0.0392036
-0.0344126
-0.0300319
-0.0258452
-0.0218511
-0.0188634
-0.016763
-0.0144723
-0.0121371
-0.0107106
-0.0100184
-0.00929334
-0.008387
-0.00757489
-0.00699081
-0.00658572
-0.00618384
-0.00568771
-0.00509875
-0.0044558
-0.00381946
-0.00319379
-0.00258213
-0.00198941
-0.00140762
-0.000833904
-0.000275758
0.00738931
0.00887096
0.00885697
0.00682238
0.00330851
-0.000312194
-0.00394509
-0.00803594
-0.0133861
-0.0205135
-0.027887
-0.0349961
-0.0416552
-0.0475032
-0.0519524
-0.0542277
-0.0547917
-0.054535
-0.0530654
-0.0503093
-0.0471082
-0.0434352
-0.0392944
-0.035213
-0.0312041
-0.0274654
-0.0240332
-0.020686
-0.0180227
-0.016143
-0.0141204
-0.0119756
-0.0106109
-0.00991122
-0.00922727
-0.0083577
-0.00758689
-0.0070365
-0.00665104
-0.00625362
-0.00575079
-0.00515143
-0.00449421
-0.00384456
-0.00320416
-0.00258216
-0.00198374
-0.00139811
-0.000825973
-0.000272735
0.00555227
0.00606687
0.00557594
0.00357288
0.000576527
-0.0022893
-0.00505916
-0.00798905
-0.0118999
-0.0168065
-0.0219641
-0.0274971
-0.0328104
-0.0371918
-0.0408912
-0.0436607
-0.0449482
-0.0450758
-0.0442992
-0.0427214
-0.0406492
-0.03797
-0.034838
-0.0317782
-0.0287428
-0.0258284
-0.0230075
-0.0200311
-0.0175839
-0.0159525
-0.0141898
-0.012167
-0.0108105
-0.0101333
-0.00946528
-0.00860515
-0.00782093
-0.00723582
-0.00680116
-0.00635962
-0.00582548
-0.00520746
-0.00453154
-0.00386491
-0.00320976
-0.00257739
-0.00197315
-0.00138541
-0.000815907
-0.000268903
0.00432014
0.00428517
0.00349179
0.00157642
-0.000992442
-0.00335207
-0.0054946
-0.00765335
-0.0104523
-0.0138545
-0.0176317
-0.0217334
-0.0256308
-0.029377
-0.0328649
-0.0351216
-0.0361916
-0.0369268
-0.0370075
-0.0360622
-0.0346713
-0.0329063
-0.0307246
-0.0284866
-0.0260822
-0.0236841
-0.0214155
-0.0189477
-0.0167944
-0.0153617
-0.0138364
-0.0120143
-0.0107409
-0.010087
-0.00944026
-0.00859834
-0.00784113
-0.00728371
-0.0068602
-0.00641944
-0.00587821
-0.00524874
-0.00455708
-0.00387549
-0.00320835
-0.00256579
-0.00195722
-0.00136895
-0.000802663
-0.000263766
0.00373235
0.00327599
0.00230903
0.000516115
-0.00171091
-0.0036811
-0.0054211
-0.00706052
-0.00905178
-0.0114645
-0.0141327
-0.0171837
-0.0203515
-0.0233816
-0.0260169
-0.0279843
-0.0293918
-0.0303281
-0.0304932
-0.0300392
-0.0294536
-0.0283946
-0.026777
-0.0251231
-0.0233384
-0.0215356
-0.0198191
-0.0177787
-0.0158853
-0.0146793
-0.0134221
-0.0117988
-0.0105974
-0.00998251
-0.00940139
-0.00863088
-0.00792175
-0.00738208
-0.00695223
-0.00649262
-0.00592864
-0.00528143
-0.00457297
-0.00387706
-0.00319846
-0.00254637
-0.00193473
-0.00134714
-0.000785495
-0.000257736
0.00353876
0.00284278
0.00180763
0.000144128
-0.00178764
-0.00348283
-0.00494956
-0.00619991
-0.00766954
-0.00934971
-0.0112749
-0.0136436
-0.0160439
-0.0183857
-0.0206831
-0.0224967
-0.0236689
-0.0245089
-0.0249826
-0.0249973
-0.0247939
-0.0241348
-0.0230551
-0.0219846
-0.0207026
-0.0193354
-0.0180693
-0.0164482
-0.014839
-0.0138428
-0.012826
-0.011433
-0.0103661
-0.00981621
-0.0092854
-0.00857075
-0.00791617
-0.00741698
-0.00700167
-0.00653722
-0.00596024
-0.00529951
-0.00457629
-0.00386628
-0.00317718
-0.00251686
-0.00190354
-0.00131813
-0.00076383
-0.000248487
0.00367418
0.0028575
0.00180859
0.000278904
-0.00141055
-0.00289843
-0.00414203
-0.00514689
-0.00624063
-0.00742228
-0.00885701
-0.0106607
-0.0125299
-0.0144873
-0.0163629
-0.0177998
-0.0188695
-0.0197913
-0.0203484
-0.0205015
-0.020599
-0.0203457
-0.0196754
-0.0189946
-0.0181031
-0.017144
-0.0162914
-0.0150236
-0.0136638
-0.0128789
-0.0121093
-0.0109517
-0.0100235
-0.00954138
-0.00907963
-0.00845177
-0.00787495
-0.00742726
-0.00703546
-0.00657134
-0.00597997
-0.00530367
-0.00456443
-0.00384049
-0.00314219
-0.00247565
-0.00186242
-0.00128289
-0.000738115
-0.000245279
0.00406167
0.00319541
0.0021773
0.00078103
-0.000707722
-0.00203047
-0.00311837
-0.00394441
-0.00478346
-0.00564113
-0.00672291
-0.00813923
-0.00962606
-0.0111941
-0.0127269
-0.0139818
-0.0149457
-0.0157703
-0.0163393
-0.0166554
-0.0169675
-0.0169239
-0.0165204
-0.01617
-0.0156119
-0.0149805
-0.014472
-0.0135318
-0.0124351
-0.0118617
-0.0113017
-0.0103404
-0.00954579
-0.00914886
-0.00877653
-0.00825994
-0.00778879
-0.00741268
-0.00704681
-0.00658256
-0.00598174
-0.00528996
-0.00453319
-0.00379518
-0.00308787
-0.00241556
-0.00180282
-0.00123173
-0.000695905
-0.000208167
0.00460527
0.00374079
0.0027743
0.00150079
0.000178811
-0.00099933
-0.00195532
-0.00265787
-0.0033324
-0.00396102
-0.00480994
-0.00594327
-0.00712115
-0.00842224
-0.00970175
-0.010743
-0.0115976
-0.0123911
-0.0129592
-0.0133294
-0.0137588
-0.0138743
-0.0136786
-0.0135602
-0.0132362
-0.0128659
-0.0126421
-0.0119683
-0.0110993
-0.0107385
-0.0104082
-0.00966628
-0.00901623
-0.00869719
-0.008399
-0.00798165
-0.00762048
-0.00733014
-0.00701387
-0.00657873
-0.00596664
-0.00526275
-0.00449376
-0.00374487
-0.00303572
-0.00236247
-0.00175829
-0.00120087
-0.000694778
-0.000253379
0.00525683
0.00443247
0.0035318
0.00237635
0.00119426
0.000131759
-0.000713134
-0.00133467
-0.00189582
-0.00237745
-0.00306982
-0.00398378
-0.00494437
-0.00603633
-0.00710346
-0.00801021
-0.00876815
-0.00945145
-0.0099814
-0.0104281
-0.0109618
-0.011173
-0.0111194
-0.0111756
-0.0110373
-0.0108824
-0.010881
-0.0104033
-0.00971153
-0.00951968
-0.00937321
-0.00883043
-0.00835172
-0.00815689
-0.00798436
-0.00770861
-0.00746102
-0.00724905
-0.00698362
-0.00649733
-0.00587059
-0.00513891
-0.00434723
-0.00358658
-0.00287102
-0.00219646
-0.00159972
-0.00104958
-0.000549792
-0.000130256
0.00596111
0.00519368
0.00436192
0.00330681
0.00224774
0.00129347
0.000545186
-1.78049e-05
-0.000504843
-0.000890946
-0.00147282
-0.00222935
-0.00302801
-0.00395533
-0.00486033
-0.00563603
-0.00629441
-0.00693112
-0.00745903
-0.00791625
-0.00846029
-0.00871417
-0.00877105
-0.00895688
-0.0089531
-0.00898467
-0.00918676
-0.00889115
-0.00837581
-0.00835623
-0.00836584
-0.00795707
-0.00757489
-0.00745412
-0.00738004
-0.00726012
-0.00721114
-0.00713663
-0.00691154
-0.00655306
-0.00590004
-0.00515771
-0.00434521
-0.00357211
-0.00285632
-0.00219046
-0.00161249
-0.0011028
-0.000641249
-0.000252361
0.00668217
0.00597804
0.00520915
0.00425318
0.00330092
0.00244629
0.0017853
0.00126309
0.00082447
0.00049829
-1.14949e-05
-0.000648371
-0.00132351
-0.00212009
-0.00289065
-0.00357382
-0.00417965
-0.00477053
-0.00525354
-0.00570588
-0.00627163
-0.00655227
-0.00666887
-0.00692582
-0.00700662
-0.00716411
-0.00749755
-0.00732333
-0.00695507
-0.00710357
-0.00729723
-0.00708196
-0.0068605
-0.00685993
-0.00688984
-0.0068586
-0.00687264
-0.00687995
-0.00674762
-0.00621301
-0.00555633
-0.0047859
-0.00396662
-0.00319683
-0.00249396
-0.00183069
-0.00127491
-0.000771746
-0.000347179
-4.52302e-05
0.00739222
0.00675346
0.00604897
0.00518353
0.00432375
0.00355993
0.00297613
0.00248312
0.00207984
0.00179079
0.00133239
0.000787267
0.000199571
-0.000494268
-0.00116157
-0.0017671
-0.00229899
-0.0028347
-0.00331006
-0.0037932
-0.00436453
-0.00464056
-0.00480218
-0.00510952
-0.00525328
-0.00552197
-0.00594675
-0.00584451
-0.00557993
-0.00584079
-0.00612231
-0.00599952
-0.00587561
-0.00598345
-0.00620508
-0.00645015
-0.0067539
-0.00689115
-0.00675086
-0.00642577
-0.00568949
-0.00489244
-0.00402153
-0.00324123
-0.00254017
-0.0019024
-0.00138691
-0.000934547
-0.000539901
-0.000224494
0.00805753
0.00748101
0.00684352
0.0060649
0.00528601
0.00460497
0.00408751
0.00361714
0.00323787
0.00296823
0.00254803
0.00207423
0.00155761
0.000956216
0.000376093
-0.000169013
-0.000649953
-0.00114416
-0.00159061
-0.00206666
-0.00262354
-0.00289282
-0.00309246
-0.00343033
-0.00362313
-0.00399843
-0.00449967
-0.00445174
-0.00429392
-0.00467992
-0.00505957
-0.00505255
-0.00503005
-0.00519941
-0.00543767
-0.00568067
-0.00600897
-0.00628089
-0.00634734
-0.00571631
-0.00498349
-0.00417498
-0.00333408
-0.00259577
-0.00192184
-0.00131197
-0.000836788
-0.000418273
-0.000115027
3.69218e-05
0.00865768
0.00813523
0.00756634
0.00687445
0.00616816
0.00556205
0.00510025
0.00464421
0.00428193
0.00401859
0.0036296
0.00321256
0.00274894
0.00222567
0.00170923
0.00121007
0.00076456
0.000297425
-0.000113652
-0.000570437
-0.00110449
-0.00135713
-0.00156955
-0.00189165
-0.00209685
-0.00253779
-0.00305006
-0.00301931
-0.00296287
-0.00346297
-0.00391213
-0.00398197
-0.00406742
-0.00441896
-0.00497999
-0.0055988
-0.00621653
-0.006497
-0.00660856
-0.00597411
-0.00510877
-0.00426896
-0.00336889
-0.00263747
-0.00199246
-0.00142834
-0.00101761
-0.000644357
-0.00035785
-0.000158514
0.0091857
0.00870924
0.00820824
0.00759972
0.00696326
0.00643022
0.00601953
0.0055775
0.00522084
0.00494793
0.00458066
0.00420814
0.00379319
0.00335013
0.00289386
0.002434
0.00201361
0.00155635
0.00115448
0.000709545
0.000211136
-2.51457e-05
-0.000260196
-0.00057298
-0.000802888
-0.00129768
-0.00178707
-0.00174546
-0.00174341
-0.0022641
-0.00267943
-0.00280559
-0.00291378
-0.00324416
-0.00367219
-0.00420036
-0.00484535
-0.00519802
-0.0048438
-0.00459233
-0.00396738
-0.00320181
-0.00239312
-0.00176358
-0.00113985
-0.000672651
-0.000316833
-1.63332e-05
0.000101738
0.000104178
0.00960514
0.00918299
0.00874936
0.00820747
0.00762931
0.00716249
0.00678908
0.00636482
0.0060155
0.00572879
0.00537891
0.00503648
0.00466568
0.00428834
0.00388402
0.00347381
0.00307647
0.00264076
0.00225473
0.0018256
0.00138618
0.00118151
0.000938166
0.000658326
0.000390224
-0.000146782
-0.000582123
-0.000541226
-0.00067403
-0.00129522
-0.00171957
-0.00188461
-0.00214129
-0.00282305
-0.00372521
-0.00464313
-0.00534067
-0.00544807
-0.00543965
-0.00471499
-0.00388753
-0.00305888
-0.00226978
-0.00167282
-0.00113911
-0.000763308
-0.000457965
-0.00022855
-0.000115114
-5.00533e-05
0.00992058
0.0095577
0.00920225
0.0087193
0.00819034
0.00778274
0.00743931
0.00702442
0.006673
0.00637092
0.0060403
0.00571599
0.00537443
0.00504856
0.00466509
0.00429378
0.00390645
0.00348887
0.00313025
0.00271881
0.00231277
0.00214417
0.00189634
0.00167901
0.00141547
0.000917891
0.000566257
0.000671548
0.000553466
7.85692e-05
-0.00022664
-0.000418465
-0.000516922
-0.000973599
-0.00155282
-0.00259289
-0.00356153
-0.00391557
-0.00399403
-0.00337772
-0.00270032
-0.00187626
-0.00124772
-0.000723314
-0.00025131
-2.1149e-05
0.000236378
0.000323833
0.000257331
0.00016143
0.0101646
0.00983125
0.00948142
0.00905374
0.00859815
0.00821578
0.00786446
0.00746654
0.00711651
0.00680714
0.00649923
0.006207
0.00590371
0.00560419
0.00523934
0.00487739
0.00449603
0.00412062
0.00377975
0.00340526
0.00303265
0.00283697
0.00259086
0.00244043
0.00211848
0.00164166
0.00133995
0.00142507
0.00117902
0.000746235
0.000495737
0.000301604
-6.21142e-05
-0.00111646
-0.00222506
-0.00337925
-0.00391665
-0.00427266
-0.00357884
-0.00280448
-0.00209988
-0.00136116
-0.000933251
-0.00045493
-0.000161493
-7.02004e-06
0.000202682
0.000190678
0.00014505
8.36071e-05
0.0102739
0.0101215
0.00965071
0.00916846
0.00885146
0.00852403
0.00810493
0.00771062
0.00737673
0.00706795
0.00675308
0.00647589
0.00620265
0.0059239
0.00558805
0.0052277
0.00480872
0.00449786
0.00413006
0.00382396
0.00352553
0.00331625
0.00304592
0.00300573
0.00265005
0.00231632
0.00216078
0.00231554
0.00217909
0.00197133
0.00198512
0.00215947
0.00252241
0.00201328
0.000820925
-0.00128873
-0.00254583
-0.00301153
-0.00251935
-0.00186014
-0.00122399
-0.000565897
-0.000301448
0.000155423
0.00029945
0.000410074
0.000588599
0.000452257
0.000360758
0.000191035
-0.105902
-0.105528
-0.0948505
-0.0849377
-0.0656574
-0.0452447
-0.0190375
0.0122965
0.0401667
0.0795095
-0.0894526
-0.085402
-0.0783433
-0.0637061
-0.0522698
-0.0310002
-0.0113574
0.0125984
0.0380452
0.0650961
-0.0722277
-0.0697664
-0.0628413
-0.0499218
-0.0430774
-0.0242171
-0.012316
0.00604761
0.0242661
0.0472305
-0.057318
-0.0593161
-0.0481638
-0.0416344
-0.0336381
-0.0184497
-0.0095289
0.00683026
0.0219182
0.0414048
-0.0452719
-0.0490465
-0.0361038
-0.033228
-0.0239234
-0.010943
-0.00302328
0.0080503
0.0194002
0.0311018
-0.0361335
-0.0388831
-0.028363
-0.0245128
-0.0180369
-0.0075291
-0.00127545
0.00430518
0.0138952
0.0237044
-0.0283629
-0.029164
-0.0220293
-0.0172373
-0.013532
-0.00681001
-0.000589951
0.00424721
0.0132426
0.0212854
-0.0217548
-0.0208813
-0.0163971
-0.0117102
-0.00860204
-0.00375738
0.00315116
0.00696552
0.011825
0.0162485
-0.0157292
-0.0139175
-0.0110592
-0.00699771
-0.00380692
-0.000823268
0.00355944
0.0054883
0.00844979
0.012252
-0.0104218
-0.00844535
-0.00672328
-0.0040766
-0.00157802
0.000366393
0.0032601
0.00535098
0.00780314
0.00991329
-0.00608997
-0.00445196
-0.0035252
-0.00199796
0.000217249
0.00212394
0.00394988
0.00510294
0.00621824
0.00720718
-0.00264825
-0.00137639
-0.000804655
6.5366e-05
0.00168877
0.00308663
0.00387217
0.00438439
0.00520748
0.0059402
9.8034e-05
0.00100229
0.00134275
0.0017562
0.00275724
0.00377377
0.00423678
0.00456411
0.00491797
0.00499428
0.00225796
0.00283388
0.00304184
0.00325489
0.00387597
0.00453813
0.00468217
0.00462779
0.00447941
0.00421174
0.00397945
0.00432278
0.00444326
0.00453706
0.00485754
0.00514427
0.00501308
0.00476772
0.00442645
0.0039854
0.00537508
0.00555049
0.00559627
0.00560073
0.00572449
0.00577173
0.00549601
0.00515233
0.00465421
0.00404778
0.00652243
0.00660243
0.00660653
0.00653534
0.00652403
0.00641445
0.00604241
0.00560456
0.00500199
0.00432274
0.00750971
0.00753795
0.00750217
0.00735901
0.00724441
0.00703839
0.00661538
0.00612821
0.00549359
0.00478935
0.00838463
0.0083765
0.00830553
0.00810343
0.00791442
0.00765473
0.00721549
0.00671576
0.00608014
0.00536988
0.00917128
0.00913983
0.00903658
0.00878322
0.0085408
0.00825384
0.00781843
0.0073296
0.00671722
0.00601966
0.0098787
0.00983157
0.0096997
0.00940398
0.00912626
0.00882914
0.00840795
0.0079476
0.00737208
0.00669815
0.0105057
0.0104495
0.010295
0.00996835
0.00966979
0.00937056
0.00896963
0.00854815
0.00801589
0.00737607
0.0110547
0.0109946
0.0108203
0.0104703
0.0101645
0.00986822
0.00948965
0.00911209
0.00862716
0.0080315
0.0115149
0.0114543
0.0112723
0.0109125
0.0106081
0.0103176
0.00996344
0.00962759
0.0091859
0.00863933
0.0119046
0.011836
0.0116417
0.0112892
0.0110002
0.010714
0.010382
0.0100792
0.00967863
0.00918574
0.012229
0.0121491
0.0119384
0.0115944