/*--------------------------------*- C++ -*----------------------------------*\
| =========                 |                                                 |
| \\      /  F ield         | OpenFOAM: The Open Source CFD Toolbox           |
|  \\    /   O peration     | Version:  2312                                  |
|   \\  /    A nd           | Website:  www.openfoam.com                      |
|    \\/     M anipulation  |                                                 |
\*---------------------------------------------------------------------------*/
FoamFile
{
    version     2.0;
    format      ascii;
    arch        "LSB;label=32;scalar=64";
    class       surfaceScalarField;
    location    "20";
    object      phi;
}
// * * * * * * * * * * * * * * * * * * * * * * * * * * * * * * * * * * * * * //

dimensions      [0 3 -1 0 0 0 0];

oriented        oriented;

internalField   nonuniform List<scalar> 
18180
(
0.00398687
-0.0168388
0.0128519
0.00865705
-0.0211361
0.0164659
0.0145282
-0.0291865
0.0233154
0.0238093
-0.0464619
0.0371809
0.0337864
-0.0646746
0.0546975
0.0434818
-0.0806316
0.0709361
0.0516971
-0.0943684
0.0861531
0.056364
-0.102827
0.0981598
0.0582613
-0.105914
0.104016
0.0575191
-0.103472
0.104214
0.0566559
-0.0984527
0.0993159
0.0561046
-0.0937912
0.0943426
0.055255
-0.0872877
0.0881372
0.0641625
-0.0844814
0.0755739
0.0743968
-0.0821589
0.0719246
0.0815618
-0.076101
0.068936
0.0912072
-0.0777066
0.0680613
0.0989605
-0.064519
0.0567657
0.126295
-0.0710555
0.043721
-0.0639919
0.0501191
0.140168
-0.00277987
-0.0140589
-0.00200253
-0.0219135
0.00733437
-0.0385234
0.0219262
-0.0610538
0.0364905
-0.0792389
0.0488562
-0.0929973
0.0559097
-0.101422
0.057235
-0.104152
0.054304
-0.102983
0.0509237
-0.100092
0.0499153
-0.0974443
0.0512713
-0.0951472
0.0573094
-0.0933258
0.0645991
-0.0917711
0.0700473
-0.0876072
0.078858
-0.0849117
0.0851733
-0.0840219
0.10437
-0.0837155
0.119912
-0.0865977
-0.0813344
0.137254
-0.00620594
-0.00785296
-0.00208878
-0.0260306
0.0148485
-0.0554607
0.0326491
-0.0788544
0.0466943
-0.0932842
0.0544715
-0.100774
0.0559268
-0.102877
0.0540906
-0.102316
0.0518941
-0.100786
0.0508075
-0.0990051
0.0513962
-0.098033
0.0558456
-0.0995966
0.0613366
-0.0988169
0.0662957
-0.0967302
0.073731
-0.0950425
0.0819815
-0.0931621
0.0941076
-0.0961481
0.10483
-0.0944382
0.115219
-0.096986
-0.0968097
0.130694
-0.0051151
-0.00273786
0.00847035
-0.0396161
0.02767
-0.0746603
0.0414937
-0.092678
0.0479754
-0.0997659
0.048157
-0.100956
0.046213
-0.100933
0.0452462
-0.101349
0.0468175
-0.102357
0.0502656
-0.102453
0.0554418
-0.103209
0.0596837
-0.103839
0.0624912
-0.101624
0.0672925
-0.101531
0.0728257
-0.100576
0.0824773
-0.102814
0.0900875
-0.103758
0.0997181
-0.104069
0.111014
-0.108282
-0.109129
0.123334
6.32331e-05
-0.00280109
0.019058
-0.0586108
0.0316068
-0.0872092
0.0371937
-0.0982649
0.0376529
-0.100225
0.0377672
-0.10107
0.0397196
-0.102886
0.0429384
-0.104568
0.0457058
-0.105125
0.0485503
-0.105298
0.0510469
-0.105706
0.0536017
-0.106393
0.0569246
-0.104947
0.0611237
-0.105731
0.0677817
-0.107234
0.0725039
-0.107536
0.0792561
-0.11051
0.0876453
-0.112458
0.0961454
-0.116782
-0.120123
0.107139
0.00684505
-0.00964614
0.0240728
-0.0758385
0.0295982
-0.0927346
0.0317787
-0.100445
0.034412
-0.102858
0.0377996
-0.104458
0.0404344
-0.10552
0.0418358
-0.105969
0.0427052
-0.105994
0.0429626
-0.105555
0.0439639
-0.106707
0.0458442
-0.108274
0.0493231
-0.108426
0.0551705
-0.111578
0.0599162
-0.111979
0.0648891
-0.112509
0.0715855
-0.117207
0.0790576
-0.11993
0.0870157
-0.12474
-0.124985
0.0918778
0.0121695
-0.0218156
0.0241663
-0.0878354
0.029952
-0.0985203
0.0331696
-0.103663
0.0349788
-0.104668
0.0351648
-0.104644
0.0343341
-0.10469
0.0335215
-0.105157
0.0334482
-0.105921
0.0352969
-0.107404
0.0378875
-0.109298
0.0407829
-0.111169
0.0448475
-0.112491
0.0475372
-0.114268
0.0508751
-0.115317
0.0544483
-0.116082
0.0602412
-0.123
0.066246
-0.125935
0.0699607
-0.128455
-0.131234
0.0762096
0.0191512
-0.0409668
0.0245065
-0.0931906
0.0275172
-0.101531
0.0273731
-0.103519
0.0252429
-0.102537
0.0240504
-0.103451
0.0246994
-0.105339
0.0268476
-0.107305
0.029519
-0.108592
0.0308259
-0.108711
0.0321644
-0.110636
0.0337733
-0.112778
0.0355027
-0.11422
0.0379415
-0.116706
0.0403333
-0.117709
0.0431564
-0.118905
0.0469728
-0.126816
0.0497443
-0.128706
0.0512753
-0.129986
-0.133772
0.0538132
0.0173026
-0.0582694
0.020058
-0.095946
0.0179865
-0.0994595
0.0176545
-0.103187
0.0190082
-0.103891
0.020855
-0.105298
0.0220998
-0.106584
0.022402
-0.107607
0.0216587
-0.107849
0.0219029
-0.108955
0.0229293
-0.111663
0.0239966
-0.113845
0.0262599
-0.116483
0.0279421
-0.118389
0.0296393
-0.119406
0.0321479
-0.121414
0.0337193
-0.128388
0.0365803
-0.131567
0.0405155
-0.133921
-0.138494
0.0452375
0.0084313
-0.0667007
0.0127734
-0.100288
0.0148961
-0.101582
0.0163627
-0.104654
0.0169245
-0.104453
0.0161614
-0.104535
0.015243
-0.105665
0.0146042
-0.106968
0.0147068
-0.107951
0.014892
-0.10914
0.0151499
-0.111921
0.0158407
-0.114536
0.0160714
-0.116714
0.0169833
-0.1193
0.0174333
-0.119856
0.018025
-0.122005
0.0191091
-0.129472
0.0202629
-0.132721
0.0193563
-0.133015
0.0218133
-0.140951
-0.0031447
-0.0490634
0.0522081
-0.00826328
-0.0604165
0.0655351
-0.0119913
-0.069678
0.073406
-0.0139935
-0.0790643
0.0810665
-0.0154939
-0.0866606
0.088161
-0.0155143
-0.0931445
0.0931648
-0.0135204
-0.0969226
0.0949287
-0.010071
-0.0974109
0.0939616
-0.00467543
-0.0939752
0.0885796
0.00316388
-0.0892476
0.0814083
0.0132974
-0.0815995
0.0714659
0.0258173
-0.0708989
0.058379
0.0404781
-0.056456
0.0417952
0.0549898
-0.0411051
0.0265934
0.0698571
-0.0197846
0.00491724
0.0818987
0.000458835
-0.0125004
0.0939937
0.0353657
-0.0474607
0.107275
0.0668757
-0.0801573
0.121786
0.09633
-0.110841
0.126072
0.135447
-0.139733
-0.00739773
-0.0416657
-0.0149675
-0.0528467
-0.0224646
-0.0621809
-0.0277035
-0.0738254
-0.0308784
-0.0834858
-0.0326523
-0.0913706
-0.0331422
-0.0964327
-0.0323003
-0.0982528
-0.0286805
-0.0975951
-0.0216481
-0.0962799
-0.0125641
-0.0906835
-0.00254223
-0.0809208
0.00949996
-0.0684982
0.0238052
-0.0554104
0.038765
-0.0347444
0.0510824
-0.0118585
0.0671253
0.0193228
0.085837
0.048164
0.101273
0.0808939
0.111869
0.115475
-0.0109757
-0.03069
-0.0212376
-0.0425848
-0.0302634
-0.0531551
-0.0384661
-0.0656227
-0.0447691
-0.0771827
-0.0488047
-0.087335
-0.0507807
-0.0944566
-0.0509957
-0.0980378
-0.0489187
-0.0996721
-0.0446203
-0.100578
-0.0381549
-0.0971489
-0.0317125
-0.0873631
-0.0229255
-0.0772852
-0.0103018
-0.068034
0.00142288
-0.0464691
0.014087
-0.0245227
0.0268473
0.00656254
0.0406215
0.0343899
0.0526539
0.0688614
0.103132
0.0613909
-0.0119601
-0.0187299
-0.0247966
-0.0297483
-0.0362169
-0.0417348
-0.0461311
-0.0557084
-0.0541458
-0.0691681
-0.0598315
-0.0816493
-0.0629863
-0.0913019
-0.0636575
-0.0973666
-0.0625227
-0.100807
-0.0600503
-0.103051
-0.056326
-0.100873
-0.0525938
-0.0910953
-0.0476167
-0.0822623
-0.0353554
-0.0802953
-0.0280748
-0.0537497
-0.0182998
-0.0342977
-0.00570592
-0.0060313
0.00786201
0.0208219
0.019732
0.0569914
0.0883954
0.034469
-0.0118447
-0.00688512
-0.0243693
-0.0172238
-0.0366009
-0.0295032
-0.0476932
-0.0446162
-0.056631
-0.0602303
-0.0632933
-0.074987
-0.0669126
-0.0876826
-0.0677108
-0.0965683
-0.0668474
-0.10167
-0.0653238
-0.104574
-0.0633598
-0.102837
-0.0615306
-0.0929245
-0.059623
-0.0841699
-0.0479948
-0.0919235
-0.047122
-0.0546225
-0.0373724
-0.0440473
-0.0259211
-0.0174826
-0.00928626
0.00418706
0.00601173
0.0416934
0.0578873
0.0365199
-0.00970471
0.00281959
-0.0202203
-0.00670822
-0.0303196
-0.0194038
-0.0401509
-0.0347849
-0.0486038
-0.0517774
-0.0550373
-0.0685535
-0.0588896
-0.0838303
-0.0594933
-0.0959646
-0.0579159
-0.103248
-0.0559887
-0.106502
-0.0543319
-0.104494
-0.0523368
-0.0949195
-0.0506973
-0.0858094
-0.0436102
-0.0990106
-0.05064
-0.0475927
-0.0429773
-0.05171
-0.0340783
-0.0263817
-0.0176666
-0.0122246
-0.000170629
0.0241974
0.0258694
0.0318473
-0.00473869
0.00755829
-0.0104124
-0.00103454
-0.0166023
-0.0132139
-0.0231355
-0.0282518
-0.0293973
-0.0455155
-0.0348068
-0.063144
-0.0386128
-0.0800244
-0.0395951
-0.0949822
-0.0380397
-0.104803
-0.0355126
-0.109029
-0.0323769
-0.10763
-0.0304418
-0.0968546
-0.0263194
-0.0899318
-0.0278148
-0.0975151
-0.0365366
-0.0388708
-0.0302111
-0.0580356
-0.0228837
-0.033709
-0.00664996
-0.0284583
0.00689907
0.0106484
0.00299522
0.0297733
0.00224841
0.00530987
0.00295368
-0.00173981
0.00276832
-0.0130285
0.00214683
-0.0276303
0.00113351
-0.0445022
-0.000721793
-0.0612886
-0.0032446
-0.0775016
-0.00553197
-0.0926949
-0.00685036
-0.103485
-0.00715194
-0.108727
-0.00628525
-0.108496
-0.00677945
-0.0963604
0.000399508
-0.0971108
-0.00819155
-0.0889241
-0.00910131
-0.0379611
-0.00361702
-0.0635199
0.00776126
-0.0450873
0.0290431
-0.0497402
0.0353363
0.00435522
-0.0179923
0.0563238
0.00832037
-0.0030105
0.0147491
-0.00816854
0.0191419
-0.0174213
0.0228982
-0.0313866
0.0268953
-0.0484993
0.0304708
-0.0648642
0.032981
-0.0800117
0.0336706
-0.0933845
0.0320224
-0.101837
0.0287794
-0.105484
0.0235894
-0.103306
0.0225092
-0.0952802
0.0204141
-0.0950158
0.00923318
-0.0777431
0.0245637
-0.0532916
0.0276553
-0.0666115
0.037701
-0.0551329
0.0498571
-0.0618963
0.0673019
-0.0130896
-0.0364436
0.0857533
0.0098414
0.0181388
0.0240328
0.0298271
0.0360253
0.0420973
0.0482386
0.053014
0.0551936
0.0539238
0.0499332
0.0489956
0.0421171
0.0399478
0.0585809
0.0609053
0.0738337
0.0687031
0.0993345
0.11301
0.139944
0.230733
-0.23523
0.135557
0.280504
-0.276117
0.118871
0.308799
-0.292113
0.0925626
0.295901
-0.269593
0.0695976
0.280623
-0.257658
0.049855
0.29062
-0.270878
0.0273086
0.332447
-0.309901
0.0103406
0.30877
-0.291802
0.0166222
0.221345
-0.227627
0.0387521
0.0759872
-0.0981171
0.0594128
-0.0771125
0.0564518
0.0796621
-0.187281
0.167032
0.0987826
-0.24381
0.22469
0.11024
-0.260593
0.249135
0.115265
-0.257444
0.25242
0.119307
-0.243692
0.23965
0.125215
-0.223715
0.217807
0.134285
-0.198037
0.188966
0.142701
-0.171077
0.162661
0.146386
-0.148277
0.144592
0.146632
-0.128439
0.128194
0.147602
-0.110522
0.109551
0.152437
-0.0970494
0.0922151
0.160599
-0.0837734
0.0756109
0.168501
-0.0665819
0.0586801
0.174041
-0.0453322
0.0397916
0.17867
-0.0307167
0.0260882
0.184438
-0.0230981
0.0173302
0.191559
-0.02207
0.014949
0.198492
-0.0133027
0.00636931
0.203975
-0.00465682
-0.000825439
0.207702
0.00398719
-0.00771428
0.210452
-0.00517753
0.00242729
0.21268
-0.0175324
0.015304
0.214358
-0.0347793
0.0331018
0.215094
-0.0345681
0.0338322
0.215107
-0.0271409
0.0271273
0.215059
-0.0043642
0.00441262
0.215225
0.0163463
-0.0165121
0.215561
0.0404527
-0.0407887
0.215807
0.0546727
-0.0549188
0.21589
0.0695927
-0.0696758
0.215722
0.0747815
-0.0746134
0.215391
0.0832647
-0.0829334
0.214877
0.0847884
-0.0842746
0.214262
0.0903708
-0.0897557
0.213555
0.0914565
-0.0907498
0.212766
0.0963051
-0.0955162
0.211927
0.098124
-0.0972846
0.103025
-0.102089
0.123214
0.222994
0.126847
0.276871
0.134249
0.301397
0.120157
0.309993
0.0874625
0.313318
0.0660444
0.312039
0.0605066
0.337985
0.0612595
0.308017
0.0643646
0.21824
0.0752234
0.0651284
0.0846678
-0.0865569
0.0961658
-0.198779
0.111933
-0.259578
0.127515
-0.276174
0.133618
-0.263548
0.130712
-0.240787
0.12853
-0.221533
0.131408
-0.200914
0.137392
-0.177061
0.144613
-0.155499
0.150635
-0.134461
0.152944
-0.112831
0.15392
-0.098025
0.15849
-0.0883433
0.166912
-0.0750038
0.175001
-0.0534212
0.180615
-0.0363311
0.185387
-0.0278697
0.191433
-0.0281165
0.198289
-0.0201581
0.203884
-0.0102525
0.206852
0.00101933
0.208098
-0.00642326
0.209428
-0.0188627
0.21162
-0.0369708
0.213789
-0.0367372
0.21506
-0.0284123
0.215566
-0.00486983
0.215784
0.0161286
0.215988
0.0402481
0.216112
0.0545492
0.216095
0.0696092
0.215871
0.0750056
0.215492
0.0836436
0.214956
0.0853248
0.214314
0.0910122
0.213596
0.0921749
0.212794
0.0971071
0.211945
0.098973
0.103964
0.0812423
0.203142
0.104165
0.253949
0.133379
0.272182
0.155752
0.28762
0.141932
0.327138
0.120334
0.333637
0.113442
0.344877
0.111852
0.309606
0.113054
0.217038
0.111845
0.0663376
0.111708
-0.08642
0.117934
-0.205005
0.127846
-0.269489
0.137736
-0.286064
0.145992
-0.271804
0.144562
-0.239356
0.136227
-0.213199
0.132481
-0.197169
0.13418
-0.178759
0.138929
-0.160248
0.147047
-0.14258
0.15455
-0.120333
0.157474
-0.100949
0.159168
-0.0900371
0.164539
-0.0803754
0.172545
-0.0614273
0.179426
-0.0432117
0.184547
-0.0329904
0.189925
-0.0334946
0.196165
-0.0263985
0.20154
-0.0156269
0.20434
-0.00178142
0.205223
-0.00730547
0.206146
-0.0197865
0.20843
-0.0392547
0.211438
-0.0397452
0.213884
-0.0308574
0.215228
-0.00621379
0.215811
0.0155447
0.216062
0.0399977
0.216133
0.0544778
0.216034
0.0697082
0.215753
0.0752864
0.215331
0.0840663
0.214788
0.0858671
0.214155
0.0916457
0.213469
0.0928607
0.212707
0.097869
0.211911
0.0997691
0.104842
0.0633405
0.174271
0.095508
0.221781
0.120451
0.24724
0.153224
0.254846
0.16668
0.313681
0.157155
0.343163
0.15255
0.349482
0.15472
0.307436
0.156817
0.214941
0.148146
0.0750087
0.139482
-0.0777555
0.138273
-0.203797
0.143603
-0.274818
0.146628
-0.28909
0.149047
-0.274223
0.152739
-0.243048
0.149392
-0.209852
0.142415
-0.190192
0.138761
-0.175105
0.138095
-0.159582
0.141775
-0.14626
0.149741
-0.128299
0.156556
-0.107764
0.160011
-0.0934921
0.163736
-0.0841009
0.169861
-0.0675518
0.176344
-0.0496945
0.181621
-0.0382678
0.186897
-0.0387712
0.19314
-0.0326408
0.199015
-0.0215026
0.202485
-0.00525141
0.203565
-0.00838489
0.204017
-0.0202383
0.205753
-0.0409908
0.208859
-0.0428514
0.212052
-0.034051
0.214172
-0.00833376
0.215164
0.0145532
0.215466
0.0396959
0.215479
0.0544642
0.215326
0.0698615
0.215062
0.0755507
0.214684
0.0844438
0.214228
0.0863233
0.213685
0.092189
0.213111
0.0934345
0.212462
0.098518
0.21179
0.100441
0.105586
0.0760982
0.134693
0.105988
0.191891
0.126793
0.226436
0.145761
0.235878
0.174124
0.285318
0.188042
0.329245
0.198619
0.338905
0.204798
0.301257
0.202209
0.217531
0.187683
0.0895346
0.170068
-0.0601404
0.156576
-0.190306
0.147763
-0.266005
0.141918
-0.283244
0.136811
-0.269116
0.139248
-0.245485
0.145044
-0.215648
0.146435
-0.191583
0.14524
-0.17391
0.143349
-0.15769
0.142557
-0.145468
0.145806
-0.131548
0.151668
-0.113626
0.157132
-0.0989559
0.162379
-0.089348
0.168192
-0.0733649
0.173394
-0.0548966
0.177301
-0.0421752
0.181567
-0.0430369
0.187681
-0.0387543
0.194383
-0.028205
0.198989
-0.0098573
0.200662
-0.0100584
0.200952
-0.0205281
0.202215
-0.0422538
0.205242
-0.0458786
0.209036
-0.0378444
0.21206
-0.0113582
0.213798
0.0128153
0.214466
0.0390285
0.214579
0.0543507
0.214404
0.0700368
0.214135
0.0758196
0.213789
0.0847894
0.213427
0.0866861
0.213006
0.0926092
0.212588
0.0938528
0.212109
0.0989971
0.211623
0.100927
0.10613
0.0734143
0.0931254
0.110638
0.154667
0.137481
0.199593
0.147412
0.225947
0.16841
0.26432
0.190124
0.307531
0.20649
0.322539
0.214013
0.293734
0.215855
0.215688
0.20698
0.0984097
0.192286
-0.0454465
0.175618
-0.173637
0.157674
-0.248062
0.13995
-0.26552
0.125454
-0.25462
0.120711
-0.240742
0.127273
-0.222211
0.136444
-0.200753
0.142939
-0.180405
0.145703
-0.160454
0.146094
-0.145858
0.147199
-0.132654
0.14951
-0.115937
0.152453
-0.101899
0.157405
-0.0943004
0.164541
-0.0805003
0.17098
-0.061336
0.174853
-0.0460482
0.177891
-0.0460748
0.182736
-0.0435993
0.189209
-0.034678
0.194543
-0.0151913
0.197019
-0.0125343
0.19751
-0.0210192
0.198437
-0.0431806
0.20121
-0.0486514
0.205273
-0.0419071
0.208933
-0.0150185
0.211311
0.010437
0.212403
0.0379368
0.212773
0.0539806
0.212755
0.0700549
0.212635
0.0759391
0.21244
0.0849849
0.212259
0.0868666
0.212036
0.0928325
0.211841
0.0940477
0.211598
0.0992399
0.211368
0.101158
0.106409
0.0580549
0.0648438
0.104426
0.108296
0.143741
0.160277
0.168725
0.200964
0.189233
0.243812
0.211517
0.285247
0.233121
0.300936
0.250523
0.276331
0.25159
0.214621
0.23025
0.11975
0.204012
-0.0192084
0.182492
-0.152116
0.163743
-0.229313
0.147802
-0.249579
0.133416
-0.240233
0.121447
-0.228773
0.117379
-0.218144
0.121425
-0.204798
0.129428
-0.188409
0.13637
-0.167396
0.140512
-0.150001
0.144638
-0.136779
0.148659
-0.119958
0.150564
-0.103804
0.152837
-0.0965736
0.158651
-0.0863137
0.165971
-0.0686562
0.171138
-0.0512157
0.174365
-0.0493019
0.178544
-0.0477781
0.184586
-0.0407202
0.1902
-0.0208055
0.193109
-0.0154426
0.193609
-0.0215195
0.194121
-0.0436928
0.196546
-0.0510766
0.20078
-0.0461403
0.205106
-0.0193445
0.208271
0.00727154
0.209918
0.0362895
0.210598
0.0533009
0.210744
0.0699087
0.210784
0.075899
0.21077
0.0849997
0.210818
0.0868179
0.210848
0.0928025
0.210933
0.0939626
0.210988
0.0991855
0.211067
0.101078
0.106356
0.0604988
0.0606687
0.0904705
0.0783241
0.127432
0.123316
0.163259
0.165137
0.194684
0.212386
0.226969
0.252962
0.250919
0.276986
0.260325
0.266925
0.253734
0.221212
0.237342
0.136141
0.22064
-0.00250599
0.196054
-0.12753
0.169172
-0.202432
0.149981
-0.230388
0.141397
-0.23165
0.135837
-0.223213
0.12881
-0.211117
0.122453
-0.198441
0.121776
-0.187732
0.125888
-0.171509
0.129957
-0.154069
0.134625
-0.141448
0.14107
-0.126403
0.145836
-0.10857
0.148589
-0.0993267
0.15311
-0.0908345
0.159612
-0.0751577
0.164735
-0.0563383
0.167993
-0.0525601
0.172216
-0.0520018
0.178577
-0.0470803
0.184636
-0.0268653
0.187735
-0.0185418
0.188154
-0.0219381
0.188515
-0.0440533
0.190932
-0.0534943
0.195392
-0.0505996
0.200251
-0.0242043
0.204142
0.00338075
0.206485
0.0339462
0.207695
0.052091
0.208203
0.0694007
0.20852
0.0755827
0.208759
0.0847605
0.209081
0.0864961
0.209412
0.0924715
0.209825
0.0935493
0.210233
0.0987771
0.210688
0.100624
0.105909
0.0904664
0.0559557
0.102191
0.0665997
0.124352
0.101155
0.154014
0.135475
0.190568
0.175833
0.224267
0.219263
0.245305
0.255948
0.261723
0.250508
0.268619
0.214315
0.255006
0.149755
0.222568
0.0299319
0.192494
-0.0974567
0.169658
-0.179595
0.154316
-0.215046
0.143991
-0.221325
0.138077
-0.217299
0.134162
-0.207202
0.127957
-0.192236
0.121425
-0.1812
0.11996
-0.170044
0.122235
-0.156344
0.125839
-0.145052
0.131194
-0.131758
0.136416
-0.113792
0.140277
-0.103188
0.145297
-0.0958543
0.152057
-0.081918
0.157357
-0.0616381
0.160343
-0.0555459
0.164089
-0.0557476
0.170478
-0.05347
0.177149
-0.0335361
0.180868
-0.0222608
0.181565
-0.0226344
0.181946
-0.0444346
0.184487
-0.0560355
0.189357
-0.0554695
0.194923
-0.0297706
0.199567
-0.00126309
0.202569
0.0309446
0.204284
0.0503759
0.20518
0.0685045
0.205832
0.074931
0.206397
0.0841954
0.207062
0.0858314
0.207759
0.0917745
0.20856
0.0927482
0.209381
0.0979561
0.210262
0.0997426
0.105007
0.122691
0.0462745
0.130222
0.0590685
0.146006
0.0853714
0.168823
0.112657
0.199529
0.145127
0.229561
0.189231
0.261822
0.223687
0.290755
0.221575
0.289557
0.215514
0.262786
0.176525
0.235504
0.057214
0.208239
-0.0701919
0.180258
-0.151614
0.15995
-0.194738
0.14595
-0.207325
0.133303
-0.204652
0.126346
-0.200244
0.123933
-0.189823
0.12103
-0.178297
0.11773
-0.166743
0.116085
-0.1547
0.118193
-0.14716
0.123745
-0.13731
0.128658
-0.118705
0.131373
-0.105903
0.135525
-0.100006
0.142719
-0.0891123
0.14921
-0.0681285
0.152705
-0.0590414
0.15592
-0.0589619
0.161704
-0.0592539
0.168549
-0.0403819
0.173023
-0.0267341
0.174452
-0.024064
0.175097
-0.0450794
0.177667
-0.0586053
0.182678
-0.0604811
0.188771
-0.0358638
0.194134
-0.00662603
0.197897
0.0271814
0.200246
0.0480276
0.20166
0.06709
0.202737
0.0738542
0.203705
0.0832269
0.204764
0.0847729
0.205884
0.090654
0.207119
0.0915134
0.208409
0.0966658
0.209767
0.0983852
0.103588
0.123222
0.0532009
-0.130149
0.113009
0.0692814
0.106354
0.092027
0.102348
0.116663
0.10199
0.145485
0.11314
0.17808
0.142131
0.194697
0.163445
0.200261
0.182338
0.196621
0.228172
0.130691
0.276244
0.00914184
0.300327
-0.0942741
0.294072
-0.145359
0.269459
-0.170125
0.246566
-0.184431
0.22857
-0.186656
0.212793
-0.184467
0.200634
-0.177664
0.193455
-0.171119
0.188714
-0.162001
0.18139
-0.147376
0.173878
-0.139648
0.171306
-0.134737
0.17128
-0.11868
0.169604
-0.104228
0.167608
-0.0980097
0.167645
-0.0891498
0.169254
-0.0697373
0.17063
-0.0604167
0.171904
-0.0602366
0.173803
-0.0611523
0.176507
-0.0430859
0.17891
-0.0291371
0.180574
-0.0257286
0.18174
-0.0462449
0.183188
-0.0600538
0.185121
-0.0624134
0.187196
-0.0379391
0.188775
-0.00820518
0.189524
0.0264328
0.189688
0.0478631
0.189546
0.0672326
0.189412
0.0739882
0.189331
0.0833076
0.189397
0.0847066
0.189521
0.0905307
0.189731
0.0913034
0.189952
0.0964447
0.190223
0.0981137
0.103327
0.1513
0.0536865
-0.151786
0.150354
0.0702274
0.149669
0.0927117
0.148487
0.117845
0.151712
0.142261
0.16576
0.164031
0.184575
0.175882
0.203684
0.181152
0.246342
0.153963
0.301215
0.0758171
0.329113
-0.0187563
0.328724
-0.093885
0.315028
-0.131663
0.29178
-0.146877
0.266266
-0.158917
0.245553
-0.165944
0.22857
-0.167484
0.213429
-0.162523
0.201037
-0.158726
0.196225
-0.15719
0.195189
-0.146341
0.190008
-0.134466
0.183691
-0.12842
0.18147
-0.116459
0.181505
-0.104263
0.181467
-0.0979711
0.181755
-0.0894384
0.182812
-0.0707944
0.184105
-0.0617096
0.185694
-0.0618254
0.187766
-0.0632247
0.190189
-0.0455079
0.192251
-0.0311998
0.193663
-0.0271405
0.194833
-0.0474146
0.196341
-0.0615615
0.198284
-0.0643569
0.20024
-0.0398952
0.201736
-0.00970083
0.202549
0.0256198
0.20278
0.0476317
0.202679
0.0673342
0.202548
0.074119
0.202464
0.0833915
0.202526
0.0846443
0.202659
0.0903985
0.202886
0.0910761
0.20313
0.0962004
0.203428
0.0978158
0.103024
0.180556
0.053321
-0.18019
0.183255
0.067528
0.190181
0.0857858
0.200387
0.107639
0.213894
0.128755
0.232893
0.145032
0.253408
0.155367
0.280887
0.153673
0.322972
0.111878
0.360587
0.0382018
0.3721
-0.0302694
0.355575
-0.0773603
0.330341
-0.106429
0.310432
-0.126968
0.293266
-0.141751
0.276344
-0.149022
0.260845
-0.151984
0.249333
-0.151012
0.238322
-0.147714
0.225882
-0.14475
0.218156
-0.138614
0.214248
-0.130558
0.208462
-0.122635
0.201841
-0.109838
0.197722
-0.100144
0.196491
-0.0967405
0.196914
-0.0898612
0.197667
-0.071547
0.198064
-0.0621071
0.198971
-0.0627324
0.201135
-0.0653887
0.204014
-0.0483868
0.206163
-0.0333483
0.207243
-0.0282203
0.208062
-0.0482339
0.209515
-0.0630149
0.211737
-0.0665782
0.214041
-0.0421997
0.215777
-0.0114371
0.216627
0.0247706
0.216851
0.0474068
0.216727
0.0674584
0.216584
0.0742625
0.21649
0.0834856
0.216555
0.0845783
0.216698
0.0902556
0.216947
0.0908273
0.21722
0.0959272
0.217552
0.0974846
0.10268
0.211187
0.0504426
-0.208309
0.216309
0.0624057
0.225907
0.0761884
0.24272
0.0908251
0.264123
0.107352
0.286712
0.122443
0.313262
0.128817
0.350078
0.116857
0.383022
0.0789341
0.395642
0.0255817
0.390135
-0.0247621
0.371922
-0.0591473
0.349141
-0.0836481
0.327288
-0.105115
0.304924
-0.119387
0.286375
-0.130472
0.272511
-0.13812
0.259818
-0.13832
0.250097
-0.137993
0.240851
-0.135505
0.229569
-0.127332
0.221867
-0.122855
0.21954
-0.120308
0.217934
-0.108232
0.215039
-0.0972488
0.212902
-0.0946036
0.212578
-0.0895367
0.2131
-0.072069
0.213502
-0.0625099
0.214065
-0.0632947
0.215314
-0.0666376
0.217221
-0.0502938
0.219252
-0.0353797
0.221033
-0.0300011
0.222673
-0.0498742
0.224364
-0.0647056
0.226425
-0.0686395
0.228576
-0.0443506
0.230347
-0.0132079
0.231368
0.0237499
0.231722
0.0470527
0.231661
0.0675188
0.231545
0.074379
0.231462
0.083568
0.231539
0.084502
0.231705
0.0900894
0.231974
0.0905586
0.23229
0.0956106
0.23266
0.0971148
0.102296
0.241403
0.0460483
-0.237008
0.248076
0.0557324
0.257652
0.0666119
0.272323
0.0761547
0.293224
0.0864508
0.318312
0.0973553
0.348374
0.0987544
0.380312
0.0849192
0.402032
0.0572139
0.406657
0.0209562
0.39693
-0.0150348
0.381555
-0.0437725
0.363599
-0.0656915
0.344833
-0.0863493
0.326929
-0.101484
0.310307
-0.11385
0.296763
-0.124575
0.282339
-0.123896
0.266974
-0.122628
0.257689
-0.126219
0.252741
-0.122385
0.246786
-0.1169
0.242189
-0.115712
0.240332
-0.106375
0.237939
-0.0948551
0.234661
-0.0913261
0.232885
-0.0877611
0.232703
-0.0718863
0.23272
-0.062527
0.232917
-0.0634917
0.233982
-0.0677032
0.235867
-0.0521786
0.237786
-0.0372983
0.239165
-0.0313806
0.240222
-0.0509306
0.241424
-0.065908
0.243087
-0.0703026
0.244905
-0.0461685
0.24648
-0.0147827
0.247367
0.022863
0.247696
0.0467238
0.247643
0.0675715
0.247537
0.0744845
0.24747
0.0836356
0.247558
0.084414
0.247752
0.0898949
0.248045
0.0902658
0.248409
0.0952467
0.248819
0.0967048
0.101864
0.269921
0.0423622
-0.266235
0.276658
0.0489954
0.286349
0.056921
0.299407
0.0630961
0.316612
0.069246
0.339488
0.0744794
0.36544
0.0728025
0.38778
0.0625793
0.403328
0.0416655
0.407688
0.0165968
0.40174
-0.0090872
0.391355
-0.0333877
0.376522
-0.0508586
0.360321
-0.070148
0.347489
-0.0886517
0.331896
-0.0982573
0.313698
-0.106377
0.301731
-0.111929
0.293373
-0.114271
0.282634
-0.11548
0.271497
-0.111248
0.261597
-0.107
0.253174
-0.107289
0.247519
-0.100719
0.244522
-0.091859
0.243032
-0.0898352
0.242713
-0.0874422
0.243373
-0.0725465
0.24446
-0.0636145
0.24594
-0.0649712
0.247993
-0.0697566
0.250283
-0.054468
0.252153
-0.0391685
0.253499
-0.0327264
0.25491
-0.0523418
0.256721
-0.0677194
0.258991
-0.0725722
0.261224
-0.0484014
0.263036
-0.0165946
0.264135
0.0217632
0.264605
0.0462545
0.264645
0.0675312
0.264595
0.0745344
0.264564
0.0836664
0.264679
0.0842993
0.264906
0.089668
0.265236
0.089936
0.265644
0.094838
0.2661
0.0962488
0.101366
0.298709
0.0373867
-0.293734
0.30549
0.0422153
0.314693
0.0477174
0.326321
0.0514684
0.340268
0.0552992
0.358137
0.0566105
0.377406
0.0535328
0.394018
0.0459677
0.405732
0.0299515
0.41084
0.0114888
0.408625
-0.00687219
0.400376
-0.0251385
0.390163
-0.0406463
0.378121
-0.0581059
0.36315
-0.0736804
0.349611
-0.084718
0.337571
-0.0943372
0.32451
-0.0988678
0.312816
-0.102576
0.304395
-0.107058
0.298211
-0.105065
0.293292
-0.102081
0.288787
-0.102784
0.283954
-0.0958863
0.279245
-0.0871494
0.27583
-0.0864208
0.274088
-0.0857002
0.272926
-0.071384
0.271468
-0.0621566
0.270232
-0.0637354
0.27017
-0.069694
0.271206
-0.0555047
0.272666
-0.0406278
0.273986
-0.034047
0.275203
-0.0535582
0.27644
-0.0689572
0.27797
-0.0741015
0.279615
-0.0500465
0.281136
-0.0181154
0.282124
0.0207747
0.282631
0.0457476
0.282749
0.0674131
0.282774
0.0745099
0.282801
0.0836393
0.282961
0.0841385
0.283232
0.0893978
0.283611
0.0895564
0.284069
0.0943803
0.284584
0.0957337
0.100796
0.327988
0.0324369
-0.323038
0.333956
0.0362473
0.341764
0.039909
0.351807
0.0414256
0.363859
0.0432473
0.377233
0.0432371
0.391191
0.0395745
0.404079
0.0330793
0.413199
0.0208317
0.418104
0.00658427
0.417471
-0.00624014
0.411176
-0.018843
0.403426
-0.0328959
0.394371
-0.0490515
0.382279
-0.0615881
0.369967
-0.0724064
0.359438
-0.0838083
0.348494
-0.0879232
0.336084
-0.0901667
0.324559
-0.0955336
0.314689
-0.095194
0.305934
-0.0933263
0.299342
-0.096192
0.295284
-0.0918281
0.291897
-0.0837622
0.288508
-0.0830318
0.286371
-0.0835637
0.28577
-0.0707826
0.285924
-0.0623108
0.286521
-0.0643326
0.287715
-0.0708883
0.289322
-0.0571111
0.290921
-0.0422271
0.292295
-0.0354207
0.293702
-0.0549655
0.295339
-0.070594
0.297192
-0.0759545
0.298938
-0.0517923
0.30039
-0.0195682
0.301344
0.0198212
0.301871
0.0452209
0.302058
0.0672256
0.302159
0.0744092
0.30226
0.0835377
0.30248
0.0839189
0.302808
0.08907
0.303246
0.0891183
0.303764
0.0938618
0.304352
0.0951465
0.100149
0.355792
0.0283855
-0.351741
0.36108
0.0309598
0.368324
0.032665
0.376982
0.0327669
0.386638
0.0335918
0.397088
0.0327874
0.407205
0.029457
0.416749
0.0235352
0.424853
0.012728
0.428311
0.00312662
0.427801
-0.00573099
0.425121
-0.0161621
0.41844
-0.0262152
0.410189
-0.0408005
0.402644
-0.0540433
0.392237
-0.0619993
0.379432
-0.0710033
0.3685
-0.0769915
0.36022
-0.0818861
0.352696
-0.0880101
0.345067
-0.0875644
0.337362
-0.0856212
0.33052
-0.0893505
0.325083
-0.0863909
0.320535
-0.0792146
0.316801
-0.0792972
0.314438
-0.0812012
0.313066
-0.0694097
0.311904
-0.061149
0.31104
-0.0634686
0.311112
-0.0709604
0.311945
-0.0579442
0.313031
-0.0433131
0.313995
-0.0363848
0.315103
-0.0560737
0.316405
-0.0718958
0.317964
-0.0775131
0.319497
-0.0533259
0.320839
-0.0209095
0.321772
0.0188873
0.322351
0.0446427
0.322634
0.0669422
0.32283
0.0742132
0.323025
0.0833424
0.323317
0.0836276
0.323717
0.0886693
0.324224
0.0886118
0.324818
0.0932672
0.325488
0.0944775
0.0994144
0.383049
0.0241163
-0.37878
0.388339
0.0256703
0.394747
0.0262566
0.40186
0.0256545
0.40932
0.0261315
0.417323
0.0247847
0.425348
0.021432
0.432849
0.016034
0.438703
0.0068736
0.44173
0.000100231
0.441647
-0.00564773
0.438999
-0.0135146
0.435559
-0.0227757
0.429976
-0.0352166
0.421022
-0.0450892
0.411984
-0.052962
0.404143
-0.0631627
0.39533
-0.0681778
0.385001
-0.0715573
0.374902
-0.0779113
0.366469
-0.0791309
0.359491
-0.0786432
0.35328
-0.0831403
0.347804
-0.0809146
0.343231
-0.0746417
0.339596
-0.0756624
0.337069
-0.0786734
0.335399
-0.0677401
0.334209
-0.0599591
0.333526
-0.0627853
0.333599
-0.0710339
0.334268
-0.0586135
0.335266
-0.0443102
0.336386
-0.0375055
0.337692
-0.0573796
0.339101
-0.0733049
0.340559
-0.078971
0.341863
-0.0546297
0.342972
-0.0220188
0.343753
0.0181062
0.344295
0.0441011
0.344624
0.0666127
0.344901
0.0739368
0.345189
0.0830547
0.345563
0.0832529
0.346049
0.0881835
0.346638
0.0880228
0.347324
0.0925817
0.348086
0.0937154
0.0985742
0.410662
0.0199395
-0.406485
0.415733
0.0205993
0.421096
0.0208936
0.426607
0.020143
0.432594
0.0201448
0.439002
0.0183767
0.445405
0.0150287
0.451408
0.0100312
0.455748
0.00253381
0.457545
-0.00169637
0.457718
-0.00582086
0.456646
-0.012443
0.453536
-0.0196659
0.448742
-0.030422
0.443103
-0.0394501
0.435924
-0.045783
0.427075
-0.0543144
0.418095
-0.0591978
0.409956
-0.0634179
0.402574
-0.0705297
0.395242
-0.0717981
0.387729
-0.0711305
0.381108
-0.0765189
0.375943
-0.0757499
0.371412
-0.0701114
0.367155
-0.0714046
0.363943
-0.0754618
0.36189
-0.0656871
0.360427
-0.0584963
0.359351
-0.0617089
0.35903
-0.0707133
0.359312
-0.0588948
0.359965
-0.0449639
0.360733
-0.0382726
0.361789
-0.0584357
0.362991
-0.0745075
0.364284
-0.0802642
0.365426
-0.0557714
0.366384
-0.0229772
0.367113
0.0173774
0.367669
0.0435457
0.36807
0.0662118
0.368445
0.0735612
0.368838
0.082662
0.369315
0.082776
0.369899
0.0875996
0.370587
0.0873342
0.371378
0.0917911
0.372248
0.0928448
0.0976118
0.439124
0.015706
-0.434891
0.44356
0.0161639
0.447843
0.0166104
0.452247
0.0157385
0.456982
0.0154105