/*--------------------------------*- C++ -*----------------------------------*\
| =========                 |                                                 |
| \\      /  F ield         | OpenFOAM: The Open Source CFD Toolbox           |
|  \\    /   O peration     | Version:  2512                                  |
|   \\  /    A nd           | Website:  www.openfoam.com                      |
|    \\/     M anipulation  |                                                 |
\*---------------------------------------------------------------------------*/
FoamFile
{
    version     2.0;
    format      ascii;
    arch        "LSB;label=32;scalar=64";
    class       surfaceScalarField;
    location    "20";
    object      phi;
}
// * * * * * * * * * * * * * * * * * * * * * * * * * * * * * * * * * * * * * //

dimensions      [0 3 -1 0 0 0 0];

oriented        oriented;

internalField   nonuniform List<scalar> 
18180
(
0.000183588
0.00169129
-0.00187488
0.00148621
0.0020163
-0.00331892
0.00449699
-0.000674413
-0.00233637
0.00992746
-0.00662849
0.00119802
0.018546
-0.0160466
0.00742806
0.0307861
-0.028716
0.0164759
0.046311
-0.0437306
0.0282057
0.0639322
-0.0596532
0.0420319
0.0819329
-0.0749515
0.0569508
0.0985695
-0.0883989
0.0717623
0.112516
-0.0992878
0.0853418
0.123136
-0.107475
0.0968551
0.130546
-0.11329
0.105879
0.135453
-0.11734
0.112434
0.138879
-0.120281
0.116855
0.141762
-0.12268
0.119796
0.144864
-0.124736
0.121635
0.148483
-0.126869
0.12325
0.152152
-0.128244
0.124575
-0.129869
0.126487
0.155534
0.000195758
0.00149553
0.00186813
0.000343922
0.00598475
-0.00479103
0.013517
-0.0141608
0.0250568
-0.0275864
0.0402013
-0.0438605
0.057455
-0.0609843
0.0747652
-0.0769634
0.0902402
-0.0904265
0.102669
-0.100827
0.111729
-0.108348
0.117888
-0.113635
0.122082
-0.117484
0.125318
-0.120576
0.128385
-0.123348
0.131691
-0.125986
0.135489
-0.128533
0.139669
-0.13105
0.144742
-0.133316
-0.136202
0.151074
0.000398235
0.0010973
0.00288023
-0.00213807
0.00869829
-0.0106091
0.0187753
-0.0242378
0.0328719
-0.0416829
0.0492898
-0.0602784
0.0656445
-0.077339
0.0798982
-0.0912171
0.0909726
-0.101501
0.0988397
-0.108695
0.10422
-0.113729
0.108112
-0.117527
0.111374
-0.120746
0.114534
-0.123736
0.117806
-0.12662
0.121264
-0.129444
0.124939
-0.132207
0.12888
-0.134992
0.133249
-0.137685
-0.140646
0.137693
0.000757121
0.000340175
0.00441123
-0.00579217
0.0122952
-0.018493
0.0246789
-0.0366216
0.0399264
-0.0569304
0.0553383
-0.0756903
0.0686486
-0.0906493
0.0788106
-0.101379
0.0859593
-0.10865
0.0909124
-0.113648
0.0946026
-0.117419
0.0977158
-0.12064
0.100618
-0.123648
0.103466
-0.126583
0.106357
-0.129511
0.109383
-0.13247
0.112675
-0.1355
0.116335
-0.138651
0.120492
-0.141842
-0.145407
0.125253
0.00122969
-0.00088952
0.00629206
-0.0108545
0.0161926
-0.0283935
0.0298564
-0.0502854
0.0443749
-0.0714489
0.0570791
-0.0883945
0.0667381
-0.100308
0.0734721
-0.108113
0.0780906
-0.113268
0.0814646
-0.117022
0.0842113
-0.120166
0.0866787
-0.123107
0.0890573
-0.126027
0.0914775
-0.129004
0.0940384
-0.132072
0.0968121
-0.135244
0.0998437
-0.138531
0.10311
-0.141918
0.106665
-0.145397
-0.14911
0.110368
0.00178841
-0.00267793
0.00832117
-0.0173873
0.0196573
-0.0397296
0.0331273
-0.0637554
0.0454833
-0.0838049
0.0549977
-0.0979089
0.0615699
-0.106881
0.0659426
-0.112486
0.0689812
-0.116307
0.0713301
-0.119371
0.0733767
-0.122212
0.0753329
-0.125063
0.0773114
-0.128005
0.0793673
-0.13106
0.0815256
-0.13423
0.0838036
-0.137522
0.0862123
-0.14094
0.0887828
-0.144488
0.0915827
-0.148197
-0.152078
0.0945505
0.00239913
-0.00507706
0.0102145
-0.0252027
0.0219825
-0.0514976
0.0339972
-0.0757702
0.043651
-0.0934587
0.0503264
-0.104584
0.0546022
-0.111156
0.0573648
-0.115248
0.0593337
-0.118276
0.0609512
-0.120988
0.0624405
-0.123702
0.0638975
-0.12652
0.0653617
-0.12947
0.0668598
-0.132558
0.0684238
-0.135794
0.0700875
-0.139186
0.0718824
-0.142735
0.0738333
-0.146439
0.0759338
-0.150297
-0.154305
0.0781604
0.00300561
-0.00808267
0.011635
-0.0338321
0.0227802
-0.0626429
0.0326771
-0.085667
0.0397314
-0.100513
0.0441316
-0.108984
0.0467383
-0.113763
0.048368
-0.116878
0.0495452
-0.119453
0.0505321
-0.121975
0.0514385
-0.124608
0.052314
-0.127396
0.0531934
-0.130349
0.0541087
-0.133473
0.0550854
-0.136771
0.0561395
-0.14024
0.0572793
-0.143875
0.0585077
-0.147668
0.05984
-0.151629
-0.155737
0.0612724
0.00353293
-0.0116156
0.0123306
-0.0426297
0.0220974
-0.0724096
0.0297187
-0.0932883
0.0345243
-0.105319
0.0371663
-0.111626
0.0385426
-0.115139
0.0393017
-0.117637
0.0397878
-0.119939
0.0401503
-0.122337
0.0404516
-0.12491
0.0407242
-0.127668
0.040989
-0.130614
0.0412619
-0.133746
0.0415574
-0.137066
0.0418912
-0.140574
0.0422806
-0.144264
0.0427451
-0.148132
0.0432824
-0.152167
-0.156353
0.0438989
0.00390235
-0.0155179
0.0122163
-0.0509437
0.0202354
-0.0804288
0.0257093
-0.0987623
0.0286565
-0.108266
0.0299329
-0.112903
0.030334
-0.115541
0.0303381
-0.117641
0.0301619
-0.119763
0.0298891
-0.122064
0.0295519
-0.124572
0.0291684
-0.127285
0.0287543
-0.1302
0.0283267
-0.133318
0.0279032
-0.136642
0.0274995
-0.14017
0.0271312
-0.143896
0.0268113
-0.147812
0.0265539
-0.151909
0.0263664
-0.156166
-0.000507227
0.00711414
-0.00660691
-0.00188514
0.0119917
-0.0106137
-0.00393922
0.0122766
-0.0102225
-0.00650774
0.0105832
-0.00801471
-0.00948988
0.00811171
-0.00512957
-0.0128717
0.00513874
-0.00175695
-0.0165811
0.00156119
0.00214821
-0.0207067
-0.00271649
0.00684208
-0.0252486
-0.00788644
0.0124284
-0.0301935
-0.0140483
0.0189932
-0.0355135
-0.0212609
0.0265809
-0.0411647
-0.0295233
0.0351745
-0.0470842
-0.0387504
0.0446699
-0.0531803
-0.0487617
0.0548578
-0.05931
-0.0592833
0.065413
-0.0652504
-0.0699511
0.0758915
-0.070671
-0.0803069
0.0857275
-0.0750731
-0.0898352
0.0942372
-0.0777919
-0.097911
0.10063
-0.103876
-0.0781071
0.104191
-0.000183878
0.00729802
-0.00107016
0.0128779
-0.00260182
0.0138082
-0.00462302
0.0126044
-0.00701512
0.0105038
-0.00973873
0.00786234
-0.012802
0.00462448
-0.016136
0.00061753
-0.0198611
-0.00416141
-0.0239084
-0.010001
-0.0282453
-0.016924
-0.0328377
-0.0249309
-0.0376692
-0.0339189
-0.0427615
-0.0436694
-0.0481763
-0.0538685
-0.054002
-0.0641255
-0.0602863
-0.0740225
-0.0669536
-0.0831679
-0.073589
-0.0912755
-0.0981993
-0.0792657
0.000197421
0.0071006
-3.31962e-05
0.0131086
-0.000819035
0.0145941
-0.00202737
0.0138128
-0.00352295
0.0119994
-0.00523868
0.00957807
-0.00715891
0.00654471
-0.00929133
0.00274996
-0.0115527
-0.00190006
-0.013942
-0.00761172
-0.0163761
-0.0144898
-0.0187654
-0.0225417
-0.0210382
-0.0316461
-0.0231916
-0.0415159
-0.025327
-0.0517331
-0.0276335
-0.061819
-0.0305536
-0.0711024
-0.0343529
-0.0793686
-0.0397884
-0.08584
-0.091892
-0.0460957
0.000562835
0.00653776
0.00103923
0.0126322
0.00112369
0.0145096
0.000881688
0.0140548
0.0004653
0.0124158
-1.6277e-05
0.0100597
-0.000512872
0.0070413
-0.000985411
0.0032225
-0.00134116
-0.00154431
-0.00149186
-0.00746102
-0.00131342
-0.0146682
-0.000665878
-0.0231892
0.000562288
-0.0328743
0.00242969
-0.0433833
0.00489463
-0.0541981
0.00763004
-0.0645544
0.0104892
-0.0739615
0.0125309
-0.0814103
0.0141355
-0.0874446
-0.0896614
0.0119049
0.000848265
0.0056895
0.00197674
0.0115037
0.00293135
0.013555
0.0037093
0.0132768
0.0044575
0.0116676
0.00532449
0.00919266
0.006434
0.00593179
0.00788971
0.00176679
0.0098486
-0.0035032
0.0124706
-0.010083
0.0159242
-0.0181218
0.0203474
-0.0276125
0.0258026
-0.0383294
0.0322166
-0.0497973
0.0394011
-0.0613825
0.0470358
-0.0721891
0.0547709
-0.0816967
0.0622956
-0.088935
0.0690651
-0.0942141
-0.0962848
0.0756885
0.00100122
0.00468828
0.00261173
0.00989317
0.00430261
0.0118641
0.00600927
0.0115702
0.00787052
0.00980633
0.0100791
0.00698407
0.0128267
0.00318417
0.0163268
-0.0017333
0.0208262
-0.00800259
0.0265534
-0.0158103
0.0336982
-0.0252665
0.0423371
-0.0362514
0.0523699
-0.0483622
0.0634883
-0.0609158
0.0752565
-0.0731507
0.0870947
-0.0840273
0.0985748
-0.0931768
0.109265
-0.099625
0.118949
-0.103898
-0.105593
0.128257
0.000999201
0.00368908
0.00284262
0.00804975
0.00502952
0.00967721
0.00746642
0.00913328
0.0102892
0.00698354
0.0137384
0.00353484
0.0181116
-0.00118897
0.0237785
-0.0074002
0.0310412
-0.0152654
0.0401661
-0.0249351
0.0512194
-0.0363199
0.0639989
-0.049031
0.0780058
-0.0623691
0.0925472
-0.0754571
0.106831
-0.0874341
0.120176
-0.0973723
0.132195
-0.105197
0.142612
-0.110041
0.152065
-0.113351
-0.113611
0.160083
0.00085322
0.00283586
0.00266405
0.00623892
0.00506698
0.00727429
0.00800665
0.0061936
0.0116627
0.00332749
0.01638
-0.00118248
0.0226462
-0.0074552
0.0308706
-0.0156245
0.0413968
-0.0257916
0.054264
-0.0378024
0.0691111
-0.051167
0.0851926
-0.0651124
0.101494
-0.0786702
0.116993
-0.0909568
0.130743
-0.101184
0.142333
-0.108961
0.15151
-0.114374
0.158665
-0.117196
0.164363
-0.119049
-0.118138
0.16889
0.000609308
0.00222655
0.00219315
0.00465508
0.00462116
0.00484627
0.00797767
0.00283709
0.0125936
-0.00128842
0.0190178
-0.0076067
0.0277788
-0.0162162
0.0392616
-0.0271074
0.0534226
-0.0399525
0.0696803
-0.0540601
0.0869864
-0.068473
0.104037
-0.0821629
0.119577
-0.0942099
0.132648
-0.104028
0.142762
-0.111299
0.150107
-0.116306
0.155028
-0.119295
0.158771
-0.120939
0.161626
-0.121904
-0.121123
0.164611
0.000351675
0.00168783
0.00419774
0.00823286
0.0143725
0.0232417
0.0352312
0.0501558
0.0671541
0.0848563
0.101725
0.116417
0.128086
0.136492
0.142048
0.145538
0.147878
0.150189
0.15286
0.158223
-0.0696558
-0.147781
0.139329
-0.055133
-0.143437
0.128914
-0.0358357
-0.128054
0.108756
-0.0135541
-0.102571
0.0802889
0.00836004
-0.0675845
0.0456703
0.0281441
-0.0265779
0.00679384
0.0444124
0.0205821
-0.0368504
0.0581695
0.0755226
-0.0892796
0.0717464
0.136429
-0.150005
0.0840991
0.192542
-0.204895
0.0943726
0.229608
-0.239882
0.103231
0.239076
-0.247934
0.103531
0.232949
-0.23325
0.0909001
0.236782
-0.224151
0.0777081
0.241546
-0.228354
0.0779292
0.207746
-0.207967
0.0918723
0.120114
-0.134057
0.113512
0.00362049
-0.0252606
0.136026
-0.0988113
0.0762976
0.154532
-0.164131
0.145625
0.166926
-0.190633
0.178238
0.173934
-0.19119
0.184182
0.177083
-0.179738
0.17659
0.178051
-0.16543
0.164461
0.177934
-0.150942
0.151059
0.177055
-0.135455
0.136333
0.175997
-0.120332
0.121391
0.175884
-0.104797
0.104909
0.177475
-0.0883495
0.0867581
0.18063
-0.0677274
0.064573
0.184824
-0.0481398
0.0439453
0.189609
-0.0312288
0.0264438
0.194671
-0.0255404
0.0204781
0.199606
-0.024723
0.0197888
0.203997
-0.0290624
0.0246712
0.207494
-0.0251747
0.0216772
0.210062
-0.0166494
0.0140821
0.21188
0.00238551
-0.00420351
0.21318
0.0209638
-0.0222639
0.214102
0.0420701
-0.0429924
0.214707
0.0558556
-0.0564606
0.215016
0.06955
-0.0698594
0.215056
0.0752694
-0.0753091
0.21487
0.0831249
-0.0829385
0.214496
0.0849868
-0.0846127
0.213974
0.0902948
-0.0897729
0.21335
0.0914575
-0.0908336
0.212617
0.0961882
-0.0954553
0.211825
0.098039
-0.0972471
0.102846
-0.101955
-0.0832947
-0.143752
-0.0800748
-0.146657
-0.0689505
-0.139178
-0.051308
-0.120213
-0.0298861
-0.0890064
-0.00812746
-0.0483365
0.0125964
-0.00014169
0.0325206
0.0555984
0.0520345
0.116915
0.0715754
0.173001
0.0901051
0.211078
0.103374
0.225807
0.103882
0.232441
0.094904
0.245761
0.090276
0.246174
0.0974061
0.200616
0.113049
0.104471
0.131816
-0.0151466
0.149972
-0.116967
0.163779
-0.177938
0.172318
-0.199171
0.176701
-0.195573
0.178345
-0.181382
0.178546
-0.165631
0.178391
-0.150786
0.177972
-0.135035
0.177271
-0.119632
0.177259
-0.104784
0.179007
-0.0900981
0.18241
-0.0711302
0.186585
-0.0523145
0.190868
-0.0355121
0.19515
-0.0298221
0.199428
-0.0290016
0.203524
-0.0331584
0.207044
-0.0286941
0.209776
-0.0193821
0.211764
0.000397985
0.213205
0.0195228
0.214215
0.0410599
0.214861
0.0552096
0.215168
0.0692426
0.215188
0.07525
0.214969
0.0833432
0.21457
0.0853864
0.214024
0.0908408
0.213386
0.0920951
0.212642
0.0969321
0.211846
0.0988354
0.10374
-0.0631819
-0.126665
-0.075629
-0.13421
-0.0794874
-0.13532
-0.0736509
-0.126049
-0.0586359
-0.104021
-0.0378684
-0.0691041
-0.0148046
-0.0232054
0.0100481
0.0307457
0.0366027
0.0903599
0.0631538
0.14645
0.0872742
0.186958
0.102423
0.210658
0.105127
0.229737
0.103566
0.247322
0.10829
0.24145
0.120538
0.188367
0.13569
0.0893191
0.150514
-0.0299709
0.163387
-0.129839
0.172139
-0.186691
0.176629
-0.203661
0.178385
-0.197329
0.178649
-0.181645
0.178156
-0.165138
0.177798
-0.150428
0.177728
-0.134966
0.177521
-0.119425
0.177667
-0.104931
0.179369
-0.0917995
0.182834
-0.0745953
0.187061
-0.0565418
0.191064
-0.0395151
0.194736
-0.0334933
0.19844
-0.0327062
0.202333
-0.0370514
0.206032
-0.0323929
0.209088
-0.0224379
0.211326
-0.00183983
0.212902
0.0179468
0.213956
0.0400052
0.21461
0.0545559
0.214909
0.0689438
0.214927
0.0752317
0.214713
0.0835569
0.214336
0.0857635
0.213821
0.0913561
0.213229
0.0926876
0.212536
0.0976248
0.2118
0.0995713
0.104568
-0.01021
-0.104551
-0.0341645
-0.110256
-0.0546651
-0.114819
-0.0670506
-0.113664
-0.0670274
-0.104044
-0.0555269
-0.0806046
-0.0352512
-0.0434811
-0.00962107
0.00511554
0.0209786
0.0597603
0.0519946
0.115434
0.0791528
0.1598
0.0966664
0.193144
0.105891
0.220512
0.115256
0.237957
0.129576
0.227129
0.144797
0.173146
0.157986
0.0761303
0.168565
-0.0405501
0.176058
-0.137332
0.179648
-0.190281
0.180024
-0.204037
0.179083
-0.196388
0.17795
-0.180512
0.176798
-0.163986
0.176156
-0.149787
0.176258
-0.135068
0.176508
-0.119674
0.176917
-0.105339
0.178578
-0.0934605
0.181999
-0.0780165
0.186254
-0.0607968
0.190101
-0.0433628
0.193308
-0.0366993
0.196489
-0.035888
0.200183
-0.0407449
0.204126
-0.0363356
0.20766
-0.0259727
0.210317
-0.00449675
0.212126
0.0161377
0.213261
0.0388701
0.213931
0.0538862
0.214232
0.0686432
0.214274
0.07519
0.214103
0.0837278
0.213796
0.0860702
0.213366
0.0917864
0.212877
0.0931763
0.212298
0.098204
0.211687
0.100182
0.105262
0.0567889
-0.085651
0.0327552
-0.0862219
0.00369164
-0.0857556
-0.0227709
-0.0872014
-0.0418718
-0.0849435
-0.0478298
-0.0746467
-0.0400122
-0.0512987
-0.0207948
-0.0141018
0.00606278
0.0329027
0.0380091
0.083488
0.0669048
0.130904
0.0894639
0.170585
0.108245
0.201731
0.128813
0.217389
0.150625
0.205317
0.167902
0.15587
0.178552
0.0654802
0.184908
-0.0469058
0.187288
-0.139712
0.185816
-0.188809
0.182181
-0.200402
0.178647
-0.192855
0.176165
-0.178029
0.174386
-0.162206
0.173429
-0.14883
0.173578
-0.135217
0.17419
-0.120286
0.174874
-0.106023
0.176529
-0.0951154
0.179902
-0.0813897
0.184231
-0.0651264
0.188085
-0.0472161
0.191009
-0.0396238
0.193734
-0.0386132
0.197161
-0.0441711
0.20128
-0.0404545
0.205334
-0.0300268
0.208546
-0.00770918
0.210731
0.0139523
0.212044
0.0375572
0.212785
0.0531458
0.213124
0.0683043
0.213224
0.0750893
0.213138
0.0838136
0.212951
0.0862578
0.21266
0.0920771
0.212333
0.0935031
0.211929
0.0986082
0.211508
0.100603
0.105757
0.113636
-0.0710295
0.0970983
-0.0696842
0.0762009
-0.0648582
0.0489551
-0.0599557
0.0191839
-0.0551723
-0.00538051
-0.0500823
-0.0161291
-0.0405501
-0.0116191
-0.0186118
0.00544108
0.0158424
0.03158
0.057349
0.0596666
0.102817
0.0862429
0.144009
0.112915
0.175059
0.141628
0.188677
0.168104
0.17884
0.186804
0.137169
0.1973
0.0549842
0.200466
-0.0500721
0.197448
-0.136693
0.19063
-0.18199
0.183054
-0.192827
0.177059
-0.18686
0.173311
-0.174281
0.170964
-0.15986
0.169677
-0.147543
0.169768
-0.135308
0.170651
-0.121169
0.171584
-0.106956
0.17322
-0.0967523
0.176526
-0.0846958
0.180977
-0.0695768
0.184998
-0.0512377
0.187852
-0.0424774
0.190244
-0.0410054
0.193373
-0.0473003
0.197561
-0.0446419
0.202086
-0.0345517
0.205917
-0.0115404
0.208611
0.0112585
0.210227
0.0359413
0.211127
0.0522453
0.211566
0.0678653
0.211775
0.0748807
0.211822
0.0837661
0.211804
0.086276
0.211708
0.0921732
0.2116
0.0936108
0.211432
0.0987763
0.211264
0.100771
0.105985
0.14808
-0.0590267
0.13664
-0.0582444
0.124757
-0.0529754
0.109981
-0.0451794
0.0905338
-0.035725
0.0669427
-0.0264911
0.0442228
-0.0178303
0.0314465
-0.00583548
0.0328828
0.0144061
0.0473226
0.0429093
0.0698845
0.0802555
0.0955367
0.118357
0.124131
0.146465
0.155155
0.157653
0.182522
0.151473
0.201164
0.118528
0.210871
0.0452773
0.211623
-0.0508241
0.204252
-0.129323
0.193091
-0.170829
0.182333
-0.182068
0.174213
-0.178741
0.169322
-0.169389
0.166507
-0.157045
0.164937
-0.145974
0.164908
-0.135278
0.165998
-0.122259
0.167173
-0.108131
0.168774
-0.0983527
0.171954
-0.0878764
0.176515
-0.074138
0.180809
-0.0555316
0.183771
-0.0454388
0.185978
-0.0432122
0.188842
-0.0501645
0.19303
-0.0488298
0.197953
-0.0394747
0.202421
-0.0160091
0.205719
0.00796116
0.207761
0.0338989
0.208927
0.0510792
0.209546
0.0672465
0.209923
0.0745035
0.210158
0.0835309
0.210362
0.0860727
0.210515
0.09202
0.210682
0.0934434
0.21081
0.0986488
0.210955
0.100626
0.105882
0.158758
-0.0488955
0.149332
-0.0488182
0.141415
-0.0450586
0.135082
-0.0388464
0.128936
-0.0295791
0.119833
-0.0173878
0.106461
-0.00445796
0.0901808
0.0104446
0.0797864
0.0248005
0.0808831
0.0418126
0.0939416
0.067197
0.114487
0.0978111
0.14011
0.120842
0.168608
0.129155
0.19414
0.125941
0.212396
0.100272
0.221632
0.0360417
0.219677
-0.0488688
0.208145
-0.117792
0.193252
-0.155936
0.179965
-0.168781
0.170132
-0.168909
0.1642
-0.163457
0.160976
-0.15382
0.159182
-0.144179
0.158996
-0.135092
0.160254
-0.123518
0.161716
-0.109593
0.163309
-0.0999457
0.166308
-0.0908752
0.170935
-0.0787649
0.175564
-0.0601608
0.178775
-0.0486496
0.180928
-0.0453653
0.18358
-0.0528166
0.187742
-0.0529915
0.193008
-0.0447408
0.198095
-0.0210968
0.202058
0.00399851
0.204633
0.031324
0.206171
0.0495415
0.207058
0.0663593
0.207672
0.0738896
0.208153
0.0830492
0.208631
0.0855951
0.209088
0.091563
0.209585
0.0929463
0.210066
0.0981678
0.210585
0.100107
0.105385
0.156073
-0.0403573
0.148096
-0.0408405
0.142071
-0.0390342
0.13858
-0.0353554
0.137712
-0.0287113
0.138735
-0.0184101
0.139874
-0.00559687
0.138286
0.0120319
0.132687
0.0304003
0.128871
0.0456278
0.133149
0.062919
0.14502
0.0859403
0.162896
0.102966
0.184016
0.108035
0.204316
0.10564
0.220078
0.0845093
0.226683
0.0294372
0.221469
-0.0436552
0.206648
-0.10297
0.189521
-0.138809
0.175013
-0.154273
0.164311
-0.158207
0.157669
-0.156815
0.154184
-0.150336
0.1523
-0.142295
0.151985
-0.134777
0.153387
-0.12492
0.155217
-0.111423
0.156911
-0.101639
0.159718
-0.0936825
0.164345
-0.0833912
0.169334
-0.0651495
0.172921
-0.0522368
0.175146
-0.0475905
0.177635
-0.0553054
0.181738
-0.0570949
0.187285
-0.0502875
0.193001
-0.0268125
0.197678
-0.000678553
0.20087
0.0281321
0.202871
0.0475397
0.204112
0.0651186
0.205031
0.0729708
0.205818
0.0822617
0.206623
0.0847907
0.207437
0.0907488
0.208316
0.0920673
0.209206
0.0972771
0.210154
0.0991592
0.104434
0.151711
-0.0338455
0.145016
-0.0341455
0.13912
-0.0331383
0.13498
-0.0312155
0.133519
-0.0272501
0.135116
-0.020007
0.139178
-0.00965899
0.145688
0.00552223
0.152279
0.0238097
0.157662
0.0402442
0.164105
0.0564766
0.174532
0.0755133
0.187754
0.0897445
0.202378
0.0934112
0.217261
0.0907568
0.229831
0.071939
0.233862
0.0254064
0.224279
-0.0340721
0.205902
-0.0845931
0.186418
-0.119326
0.170662
-0.138517
0.159309
-0.146854
0.151977
-0.149482
0.147868
-0.146227
0.145531
-0.139958
0.144793
-0.134039
0.146058
-0.126185
0.148116
-0.113482
0.149927
-0.10345
0.152523
-0.0962782
0.157039
-0.0879072
0.162323
-0.0704343
0.166338
-0.0562516
0.168733
-0.0499859
0.171118
-0.0576899
0.175169
-0.0611463
0.180975
-0.0560935
0.187259
-0.0330966
0.192614
-0.00603268
0.196494
0.0242517
0.199043
0.044991
0.20072
0.0634409
0.202013
0.0716783
0.203167
0.0811077
0.20435
0.083608
0.205573
0.0895257
0.206883
0.0907567
0.208237
0.0959235
0.209668
0.097728
0.102972
0.206023
-0.02616
-0.213708
0.199285
-0.0274071
0.192693
-0.0265465
0.186029
-0.0245521
0.179653
-0.0208737
0.174254
-0.0146079
0.170411
-0.00581642
0.169187
0.00674635
0.170098
0.0228987
0.171718
0.0386239
0.173867
0.0543281
0.178967
0.0704132
0.188795
0.0799169
0.202256
0.0799493
0.220353
0.0726605
0.241941
0.0503504
0.258135
0.00921291
0.26237
-0.0383068
0.256038
-0.0782614
0.244334
-0.107622
0.231253
-0.125435
0.218763
-0.134364
0.207875
-0.138594
0.198954
-0.137306
0.191647
-0.132652
0.185809
-0.128201
0.181556
-0.121932
0.178475
-0.1104
0.176042
-0.101017
0.174592
-0.0948278
0.174514
-0.0878286
0.1754
-0.0713206
0.176356
-0.0572073
0.17718
-0.0508107
0.178346
-0.0588556
0.180327
-0.0631267
0.182952
-0.0587191
0.185537
-0.0356811
0.187457
-0.00795276
0.188461
0.0232474
0.188848
0.0446045
0.18891
0.0633786
0.188927
0.0716613
0.188974
0.0810602
0.189125
0.0834578
0.18932
0.0893305
0.18958
0.0904969
0.189846
0.0956577
0.190145
0.0974289
0.102682
0.220053
-0.0200863
-0.226126
0.213966
-0.0213201
0.208161
-0.0207419
0.202519
-0.01891
0.197221
-0.0155762
0.192819
-0.0102054
0.189937
-0.00293477
0.189322
0.00736164
0.191881
0.0203399
0.196862
0.0336423
0.204015
0.0471755
0.2143
0.0601285
0.227093
0.0671238
0.241283
0.0657594
0.257535
0.0564081
0.272877
0.0350087
0.281022
0.00106804
0.279248
-0.0365331
0.270194
-0.0692072
0.25747
-0.0948981
0.244057
-0.112022
0.231703
-0.122011
0.221196
-0.128087
0.212613
-0.128722
0.205526
-0.125565
0.199789
-0.122464
0.195509
-0.117652
0.192344
-0.107236
0.189837
-0.0985106
0.18826
-0.0932503
0.187982
-0.0875506
0.188673
-0.0720118
0.189513
-0.0580477
0.190261
-0.0515582
0.191342
-0.0599374
0.193221
-0.0650053
0.19581
-0.0613079
0.198443
-0.0383144
0.200451
-0.00996068
0.201583
0.0221157
0.202024
0.0441639
0.202089
0.0633131
0.202086
0.0716641
0.202114
0.0810326
0.202256
0.083316
0.202456
0.0891297
0.202732
0.0902216
0.203023
0.0953665
0.203351
0.0971004
0.102356
0.235556
-0.0151565
-0.240485
0.230224
-0.0159888
0.225153
-0.0156711
0.220369
-0.0141251
0.216034
-0.0112419
0.212541
-0.006712
0.210198
-0.000592088
0.210088
0.00747216
0.212942
0.0174859
0.218574
0.0280103
0.227134
0.0386148
0.239011
0.0482514
0.252678
0.053457
0.26672
0.0517179
0.280646
0.0424816
0.291494
0.0241605
0.295548
-0.00298601
0.292103
-0.0330877
0.283428
-0.0605323
0.272119
-0.0835885
0.260284
-0.100187
0.249001
-0.110729
0.238812
-0.117897
0.23
-0.119911
0.222435
-0.117999
0.216134
-0.116163
0.211338
-0.112857
0.207776
-0.103674
0.204956
-0.095691
0.203073
-0.091367
0.202511
-0.0869881
0.202985
-0.0724864
0.203706
-0.0587679
0.204375
-0.0522277
0.205368
-0.0609306
0.20713
-0.0667674
0.209631
-0.0638086
0.212258
-0.0409411
0.214349
-0.012052
0.215569
0.0208953
0.21607
0.043663
0.216152
0.0632318
0.216142
0.071674
0.216156
0.0810179
0.216294
0.0831781
0.216503
0.0889211
0.216796
0.0899282
0.217116
0.0950469
0.217478
0.0967387
0.10199
0.251788
-0.0108551
-0.256089
0.247275
-0.0114752
0.242954
-0.011351
0.238971
-0.0101411
0.235469
-0.00774002
0.232831
-0.00407412
0.231432
0.000806735
0.231792
0.00711237
0.234597
0.0146807
0.239871
0.0227366
0.247856
0.0306297
0.258733
0.0373742
0.271264
0.0409257
0.284029
0.0389535
0.295821
0.0306891
0.304226
0.0157551
0.306963
-0.00572246
0.303869
-0.0299936
0.29639
-0.0530531
0.286442
-0.0736413
0.275594
-0.0893385
0.264821
-0.0999562
0.254866
-0.107942
0.246194
-0.111238
0.238748
-0.110554
0.232504
-0.109919
0.227663
-0.108016
0.223992
-0.100003
0.221033
-0.0927313
0.218945
-0.0892795
0.218137
-0.0861798
0.218391
-0.0727401
0.218967
-0.0593441
0.219539
-0.0527997
0.220438
-0.0618295
0.222083
-0.0684128
0.22448
-0.0662057
0.22706
-0.0435204
0.229183
-0.0141758
0.230473
0.0196057
0.231037
0.0430989
0.231149
0.0631199
0.231147
0.0716764
0.231159
0.0810052
0.231299
0.0830379
0.23152
0.0887001
0.231836
0.0896131
0.232188
0.0946948
0.232587
0.0963394
0.101577
0.268916
-0.0073136
-0.272458
0.26531
-0.00786915
0.261793
-0.00783401
0.258584
-0.00693156
0.25589
-0.0050459
0.253991
-0.00217509
0.253197
0.0015999
0.253909
0.00640125
0.256602
0.0119873
0.261386
0.0179524
0.268391
0.0236254
0.277694
0.0280711
0.28845
0.0301695
0.299365
0.0280381
0.309106
0.0209479
0.315945
0.00891635
0.318327
-0.00810445
0.316064
-0.02773
0.310086
-0.0470753
0.301742
-0.0652975
0.292235
-0.0798318
0.282449
-0.0901698
0.273123
-0.0986161
0.264734
-0.10285
0.257289
-0.103108
0.250834
-0.103464
0.24567
-0.102853
0.24168
-0.096012
0.238444
-0.0894957
0.236078
-0.0869129
0.234979
-0.0850815
0.234975
-0.0727357
0.235376
-0.0597449
0.235833
-0.053257
0.236632
-0.0626289
0.238152
-0.0699325
0.240416
-0.0684697
0.242902
-0.0460066
0.245014
-0.0162875
0.246349
0.0182702
0.246976
0.0424721
0.247133
0.0629634
0.247154
0.0716548
0.247179
0.0809804
0.247331
0.0828859
0.247572
0.0884596
0.247914
0.0892709
0.248304
0.0943048
0.248746
0.0958971
0.101113
0.287319
-0.00457806
-0.290055
0.28452
-0.00506918
0.281762
-0.00507672
0.279264
-0.00443384
0.277249
-0.00303033
0.275952
-0.000878469
0.275637
0.00191508
0.276583
0.00545556
0.279129
0.00944144
0.283415
0.0136661
0.289485
0.0175554
0.297268
0.0202878
0.30616
0.0212778
0.315158
0.0190405
0.323139
0.0129669
0.328798
0.00325659
0.331042
-0.010348
0.329576
-0.0262644
0.324856
-0.0423545
0.317778
-0.0582197
0.309327
-0.0713812
0.300344
-0.081187
0.291545
-0.0898164
0.283431
-0.0947361
0.276098
-0.0957753
0.269648
-0.0970135
0.264403
-0.0976081
0.260287
-0.0918956
0.256911
-0.08612
0.254357
-0.084359
0.253021
-0.0837452
0.252774
-0.0724884
0.252992
-0.0599631
0.253324
-0.0535887
0.254017
-0.0633221
0.255404
-0.0713195
0.257512
-0.0705775
0.259864
-0.048359
0.261917
-0.0183401
0.263267
0.0169202
0.263948
0.0417906
0.264159
0.0627521
0.264222
0.0715922
0.264276
0.0809266
0.264452
0.0827095
0.264722
0.0881894
0.265099
0.0888938
0.265535
0.0938695
0.266027
0.0954047
0.100588
0.307134
-0.00254161
-0.309171
0.304999
-0.00293436
0.302905
-0.00298258
0.301052
-0.00258035
0.299624
-0.00160243
0.29883
-8.51488e-05
0.298871
0.00187429
0.299959
0.00436773
0.302328
0.00707266
0.306088
0.00990564
0.311237
0.0124068
0.317652
0.013873
0.3249
0.0140289
0.332236
0.0117048
0.338744
0.00645873
0.343355
-0.00135397
0.345403
-0.0123959
0.344429
-0.0252908
0.340634
-0.0385592
0.334689
-0.0522753
0.327382
-0.0640736
0.319371
-0.0731766
0.311271
-0.0817155
0.303575
-0.0870407
0.296447
-0.0886475
0.290032
-0.0905985
0.28468
-0.0922558
0.280382
-0.0875975
0.276814
-0.0825517
0.274037
-0.081582
0.272434
-0.0821422
0.271912
-0.071967
0.271917
-0.0599678
0.272101
-0.0537729
0.272677
-0.0638978
0.273921
-0.0725641
0.275852
-0.0725084
0.278033
-0.0505394
0.279979
-0.0202862
0.281306
0.0155926
0.282027
0.04107
0.282298
0.0624813
0.282416
0.0714741
0.282516
0.0808265
0.282731
0.0824943
0.283043
0.0878773
0.283465
0.088472
0.283955
0.0933799
0.284506
0.0948533
0.0999946
0.328282
-0.00102675
-0.329796
0.326703
-0.00135534
0.325198
-0.00147759
0.323915
-0.00129783
0.322995
-0.000682202
0.322622
0.000287512
0.322925
0.00157185
0.324079
0.00321352
0.326237
0.00491401
0.329476
0.00666668
0.333791
0.00809247
0.339043
0.00862103
0.344888
0.00818328
0.350775
0.00581778
0.35597
0.00126436
0.359715
-0.00509954
0.36145
-0.0141302
0.360773
-0.0246141
0.357756
-0.0355422
0.352824
-0.0473438
0.3465
-0.0577495
0.339304
-0.0659808
0.33182
-0.0742313
0.324546
-0.0797662
0.317685
-0.0817867
0.311407
-0.0843207
0.306061
-0.08691
0.301678
-0.0832139
0.29799
-0.0788639
0.295047
-0.0786395
0.293215
-0.0803103
0.292432
-0.0711833
0.292216
-0.0597522
0.292242
-0.0537985
0.292691
-0.0643471
0.293784
-0.0736574
0.295521
-0.0742449
0.297498
-0.0525168
0.299295
-0.0220831
0.300564
0.0143243
0.301303
0.0403302
0.301632
0.0621523
0.301817
0.0712898
0.301979
0.0806646
0.302247
0.0822258
0.302614
0.0875103
0.303092
0.0879944
0.303646
0.0928259
0.304266
0.094233
0.0993217
0.350661
-1.87888e-05
-0.351669
0.349629
-0.000323527
0.348666
-0.000514851
0.347877
-0.000508712
0.347388
-0.000193202
0.347332
0.000343252
0.347823
0.00108059
0.348987
0.00204987
0.350928
0.00297349
0.353689
0.003905
0.35726
0.00452163
0.361504
0.00437751
0.36616
0.00352703
0.370819
0.00115907
0.374886
-0.00280264
0.377865
-0.00807856
0.379274
-0.0155393
0.378772
-0.0241122
0.376321
-0.0330914
0.37216
-0.0431828
0.366665
-0.0522542
0.360281
-0.0595967
0.353508
-0.0674586
0.346767
-0.0730249
0.340261
-0.075281
0.33418
-0.0782395
0.328874
-0.0816037
0.324416
-0.0787568
0.320618
-0.0750653
0.317525
-0.0755464
0.315475
-0.0782606
0.314426
-0.0701339
0.313977
-0.0593034
0.313833
-0.0536541
0.314148
-0.0646624
0.315081
-0.074591
0.316607
-0.0757706
0.318354
-0.0542641
0.319967
-0.0236954
0.321141
0.0131497
0.321878
0.0395936
0.322259
0.0617708
0.322516
0.0710334
0.322752
0.0804286
0.323086
0.0818911
0.323521
0.0870758
0.324066
0.0874494
0.324696
0.0921962
0.325396
0.0935325
0.0985577
0.374489
0.000553797
-0.375062
0.373916
0.000249706
0.373384
1.67276e-05
0.37299
-0.00011456
0.372834
-3.72016e-05
0.373018
0.000159187
0.373631
0.000468205
0.374764
0.00091627
0.376485
0.00125311
0.378808
0.00158134
0.381724
0.00160543
0.385112
0.000990173
0.388771
-0.000132355
0.392388
-0.00245743
0.395543
-0.00595836
0.397838
-0.0103734
0.398914
-0.0166146
0.398455
-0.0236537
0.396392
-0.0310282
0.392873
-0.0396642
0.388142
-0.0475233
0.382525
-0.0539796
0.376423
-0.0613565
0.37019
-0.0667918
0.364049
-0.0691401
0.358217
-0.0724071
0.353025
-0.0764116
0.348562
-0.0742942
0.344707
-0.0712098
0.34151
-0.0723497
0.339275
-0.0760257
0.33797
-0.0688291
0.337284
-0.0586168
0.336963
-0.053333
0.33714
-0.0648394
0.337905
-0.0753569
0.339205
-0.0770701
0.340698
-0.0557571
0.342095
-0.025092
0.343145
0.0120997
0.343855
0.0388827
0.34428
0.0613459
0.344611
0.0707029
0.34493
0.0801095
0.345342
0.0814786
0.345857
0.0865616
0.346481
0.0868246
0.347199
0.0914785
0.347992
0.0927392
0.097689
0.399865
0.000807184
-0.400118
0.399609
0.000505447
0.399402
0.000223144
0.399314
-2.5915e-05
0.399411
-0.000134625
0.39977
-0.000199183
0.400449
-0.000211009
0.401516
-0.000150722
0.403013
-0.000244067
0.404943
-0.000348373
0.407304
-0.000756239
0.409987
-0.00169278
0.412811
-0.00295609
0.415576
-0.00522214
0.417955
-0.00833762
0.419655
-0.012073
0.420398
-0.0173577
0.419918
-0.0231742
0.418148
-0.029258
0.415153
-0.0366693
0.411055
-0.0434254
0.406102
-0.0490268
0.40063
-0.055884
0.394924
-0.0610863
0.389203
-0.0634186
0.383683
-0.0668872
0.37866
-0.0713885
0.37423
-0.0698649
0.370351
-0.0673298
0.367084
-0.069083
0.364692
-0.0736341
0.363143
-0.0672804
0.362218
-0.0576912
0.361718
-0.0528333
0.361758
-0.0648788
0.362352
-0.0759515
0.363412
-0.0781298
0.364628
-0.0569734
0.36578