/*--------------------------------*- C++ -*----------------------------------*\
| =========                 |                                                 |
| \\      /  F ield         | OpenFOAM: The Open Source CFD Toolbox           |
|  \\    /   O peration     | Version:  2312                                  |
|   \\  /    A nd           | Website:  www.openfoam.com                      |
|    \\/     M anipulation  |                                                 |
\*---------------------------------------------------------------------------*/
FoamFile
{
    version     2.0;
    format      ascii;
    arch        "LSB;label=32;scalar=64";
    class       volScalarField;
    location    "5";
    object      p;
}
// * * * * * * * * * * * * * * * * * * * * * * * * * * * * * * * * * * * * * //

dimensions      [0 2 -2 0 0 0 0];

internalField   nonuniform List<scalar> 
9200
(
-0.487267
-0.472502
-0.370999
-0.254073
-0.213357
-0.234441
-0.29803
-0.374509
-0.44678
-0.500347
-0.522931
-0.510075
-0.47192
-0.421708
-0.372143
-0.327212
-0.284697
-0.246196
-0.210231
-0.17623
-0.408628
-0.448184
-0.41301
-0.323159
-0.262855
-0.263278
-0.303103
-0.355526
-0.401148
-0.429738
-0.434502
-0.419891
-0.394721
-0.363318
-0.329333
-0.295334
-0.26169
-0.229331
-0.200237
-0.174955
-0.47902
-0.539938
-0.512764
-0.450742
-0.371563
-0.338626
-0.342599
-0.358479
-0.373249
-0.38244
-0.381197
-0.368487
-0.347204
-0.321389
-0.294541
-0.269171
-0.243532
-0.216933
-0.191914
-0.169125
-0.552375
-0.62683
-0.608103
-0.515323
-0.438268
-0.390267
-0.369399
-0.362093
-0.359601
-0.356789
-0.349705
-0.336363
-0.3176
-0.294587
-0.269424
-0.245877
-0.224658
-0.203549
-0.181956
-0.163082
-0.610694
-0.589772
-0.645717
-0.546854
-0.470928
-0.418058
-0.385295
-0.364944
-0.349956
-0.336478
-0.32189
-0.305152
-0.287739
-0.269611
-0.249308
-0.228286
-0.208929
-0.190499
-0.172246
-0.154738
-0.669026
-0.581575
-0.606546
-0.543785
-0.474397
-0.419647
-0.381015
-0.353902
-0.333168
-0.315799
-0.299598
-0.282551
-0.264706
-0.24699
-0.229184
-0.210622
-0.192615
-0.175971
-0.1602
-0.144907
-0.647358
-0.655109
-0.57747
-0.5082
-0.451452
-0.405481
-0.370276
-0.3426
-0.320097
-0.300416
-0.281937
-0.263693
-0.245375
-0.227907
-0.211687
-0.195329
-0.179033
-0.163372
-0.148621
-0.134186
-0.518096
-0.624369
-0.53535
-0.465794
-0.420566
-0.383609
-0.351989
-0.324484
-0.300707
-0.280088
-0.261324
-0.243204
-0.224973
-0.207288
-0.19127
-0.176537
-0.162425
-0.14875
-0.135793
-0.122778
-0.356665
-0.436901
-0.461695
-0.426079
-0.390805
-0.357964
-0.329096
-0.302559
-0.278123
-0.256758
-0.238443
-0.222056
-0.205724
-0.188915
-0.172854
-0.158164
-0.144821
-0.132387
-0.120779
-0.109613
-0.355225
-0.384208
-0.421894
-0.398918
-0.369269
-0.338116
-0.309935
-0.284396
-0.260181
-0.236816
-0.21565
-0.197895
-0.182626
-0.168142
-0.15393
-0.140404
-0.12795
-0.116334
-0.105532
-0.0956174
-0.401568
-0.437393
-0.499514
-0.570392
-0.640339
-0.698412
-0.735748
-0.743223
-0.716293
-0.653471
-0.553059
-0.43161
-0.302579
-0.180077
-0.0757531
0.0054538
0.0589865
0.0952418
0.114123
0.123105
-0.450721
-0.490074
-0.547129
-0.615904
-0.689828
-0.761805
-0.81748
-0.844215
-0.829982
-0.770394
-0.671593
-0.542118
-0.397445
-0.257875
-0.13429
-0.0396983
0.0250215
0.0667583
0.0901202
0.101289
-0.530051
-0.556075
-0.606435
-0.678866
-0.768428
-0.867674
-0.963532
-1.03324
-1.0546
-1.01488
-0.922028
-0.779966
-0.606725
-0.424957
-0.259645
-0.129936
-0.0428161
0.0129043
0.0476235
0.0639419
-0.609834
-0.618814
-0.67025
-0.753749
-0.866657
-1.00693
-1.16422
-1.30049
-1.38059
-1.38098
-1.29677
-1.13632
-0.921671
-0.677657
-0.449897
-0.266789
-0.142711
-0.0647514
-0.0129236
0.0132325
-0.657221
-0.658639
-0.719366
-0.815138
-0.951505
-1.13544
-1.35395
-1.55758
-1.69776
-1.74114
-1.66348
-1.48076
-1.22485
-0.92636
-0.641837
-0.40981
-0.249771
-0.149907
-0.083821
-0.0453362
-0.641444
-0.652201
-0.726505
-0.830728
-0.977737
-1.17421
-1.40523
-1.62554
-1.77879
-1.82717
-1.7454
-1.55627
-1.29429
-0.998072
-0.716763
-0.486809
-0.325713
-0.219152
-0.148549
-0.101168
-0.57213
-0.604819
-0.683336
-0.780291
-0.90575
-1.07409
-1.26999
-1.45383
-1.59096
-1.63917
-1.5642
-1.39136
-1.16102
-0.913062
-0.684915
-0.499216
-0.365222
-0.267169
-0.19865
-0.148438
-0.457565
-0.510468
-0.592113
-0.660933
-0.740779
-0.851951
-0.983301
-1.11053
-1.21919
-1.27653
-1.23844
-1.11534
-0.943448
-0.757594
-0.588894
-0.457201
-0.359314
-0.281317
-0.222493
-0.176332
-0.42753
-0.486723
-0.498319
-0.503221
-0.530876
-0.586077
-0.671409
-0.767029
-0.853381
-0.906784
-0.902529
-0.836937
-0.733163
-0.615933
-0.502571
-0.407932
-0.332599
-0.271353
-0.223405
-0.183355
-0.498073
-0.520416
-0.420883
-0.350105
-0.318076
-0.341592
-0.415164
-0.504657
-0.585908
-0.643605
-0.663743
-0.63494
-0.571248
-0.497494
-0.429454
-0.36856
-0.3117
-0.261895
-0.219649
-0.182382
0.123769
0.116808
0.107384
0.0978475
0.0886997
0.0797504
0.0712812
0.0632623
0.0553809
0.0482734
0.0425487
0.0375906
0.0330106
0.0290513
0.0257505
0.0229282
0.0205005
0.0184267
0.0166497
0.0151276
0.0138289
0.0127204
0.0117731
0.0109647
0.0102756
0.0096886
0.00918861
0.00876241
0.00839829
0.00808547
0.00781329
0.00757282
0.00735708
0.00716027
0.00697621
0.00679645
0.00661339
0.00642148
0.00621492
0.00598584
0.00572778
0.00543
0.00508972
0.00468551
0.0042277
0.00367178
0.003043
0.00230555
0.00142496
0.00049275
0.104663
0.101502
0.0963451
0.0901968
0.0835768
0.0768209
0.0697102
0.0621024
0.0546485
0.0480211
0.0425657
0.0375524
0.0329944
0.0291189
0.0258289
0.0229944
0.0205739
0.0185013
0.0167151
0.0151864
0.0138854
0.0127758
0.0118281
0.0110197
0.0103304
0.0097422
0.00923972
0.00880974
0.00844079
0.00812326
0.00784793
0.00760498
0.0073858
0.00718558
0.00699891
0.00681645
0.00663042
0.00643576
0.00622666
0.00599536
0.00573509
0.00543593
0.00509319
0.0046892
0.00422742
0.00367332
0.00304057
0.00229946
0.00142416
0.000480809
0.0722274
0.0772434
0.0789202
0.0771105
0.0735983
0.0696014
0.0648952
0.058839
0.0523837
0.0467571
0.0418038
0.037019
0.0326942
0.0289798
0.0257374
0.0229449
0.0205747
0.0185285
0.0167526
0.0152319
0.0139361
0.0128277
0.0118788
0.0110689
0.0103785
0.0097898
0.00928691
0.00885586
0.00848513
0.00816399
0.00788354
0.00763672
0.00741615
0.00721549
0.00702725
0.006842
0.00665356
0.00645729
0.00624661
0.00601363
0.00575129
0.0054507
0.00510523
0.00470123
0.00423485
0.00368243
0.00304485
0.00229978
0.0014282
0.000469262
0.0289699
0.0459947
0.0562701
0.0592662
0.059693
0.0592325
0.0574815
0.0538275
0.0490142
0.0446644
0.0400389
0.0358534
0.0319776
0.0284689
0.0253318
0.0226502
0.0203728
0.0183828
0.0166439
0.0151532
0.0138813
0.0127911
0.0118568
0.0110591
0.0103794
0.00980013
0.00930567
0.00888185
0.00851685
0.00820016
0.00792089
0.00767061
0.00744685
0.00724747
0.00706148
0.00687591
0.00668572
0.00648793
0.00627621
0.00604259
0.00577941
0.0054785
0.00513122
0.00472776
0.00425727
0.00370634
0.00306411
0.00231376
0.00144444
0.00046729
-0.0212548
0.00715029
0.0274685
0.0369898
0.0419477
0.0454774
0.0475545
0.0472751
0.0447879
0.041252
0.0376024
0.0343681
0.0311458
0.0279405
0.0249815
0.0224438
0.0202623
0.0183224
0.0166096
0.0151371
0.0138791
0.0127976
0.011868
0.0110723
0.0103935
0.00981493
0.00932139
0.00889974
0.00853845
0.008226
0.00795122
0.00770278
0.00747678
0.00727412
0.00708632
0.00690071
0.0067111
0.00651327
0.0063007
0.00606606
0.00580162
0.0055001
0.00515089
0.00474805
0.00427351
0.00372496
0.00307766
0.00232468
0.00145581
0.000459111
-0.0691771
-0.0338593
-0.00472099
0.0123054
0.0223509
0.0294946
0.034875
0.0382419
0.038802
0.0370453
0.0349361
0.0320706
0.0294522
0.0266554
0.0239582
0.0216436
0.019665
0.0178869
0.016293
0.0149086
0.0137158
0.0126817
0.0117862
0.0110152
0.0103532
0.00978609
0.00930056
0.00888514
0.00853104
0.00822863
0.0079641
0.007725
0.00750823
0.00731093
0.00712282
0.00693603
0.0067476
0.00655213
0.0063414
0.00610784
0.00584361
0.00554236
0.00519192
0.00478949
0.00431149
0.00376332
0.00311217
0.00235293
0.00148327
0.000466747
-0.110189
-0.072119
-0.0377286
-0.0135508
0.00192139
0.0126353
0.020957
0.0272423
0.030904
0.0318004
0.0309345
0.0298075
0.0280634
0.0259863
0.0236348
0.0214432
0.0195197
0.017761
0.0161703
0.0147951
0.0136191
0.0126034
0.0117254
0.0109697
0.0103211
0.00976368
0.00928539
0.00887683
0.00852739
0.00822767
0.00796681
0.00773189
0.00752208
0.00733423
0.0071511
0.00696364
0.00677249
0.00657498
0.0063636
0.00613038
0.00586656
0.005566
0.00521505
0.00481374
0.00433311
0.0037875
0.00313173
0.00237277
0.00149941
0.000465798
-0.138376
-0.103544
-0.0694381
-0.0400973
-0.0194069
-0.00514571
0.00600218
0.0153297
0.0220177
0.0251124
0.0258829
0.0258031
0.0247208
0.0234434
0.0217738
0.0201186
0.0186005
0.017146
0.0157652
0.0145259
0.0134363
0.0124765
0.0116354
0.0109047
0.0102717
0.00972463
0.00925411
0.00885142
0.00850683
0.0082081
0.00795053
0.00772668
0.00752907
0.00735127
0.00717696
0.0069973
0.0068114
0.00661652
0.00640618
0.00617337
0.00590945
0.00560885
0.00525674
0.00485508
0.00437138
0.00382469
0.00316497
0.00240113
0.00152232
0.00047517
-0.149616
-0.122388
-0.0942835
-0.0634901
-0.038531
-0.0209
-0.00770327
0.00356438
0.0127676
0.0188557
0.0217884
0.0228082
0.0232748
0.0224668
0.0210974
0.0195565
0.0181033
0.0167072
0.015385
0.0142056
0.0131761
0.0122703
0.0114735
0.0107773
0.0101722
0.00964913
0.00919838
0.00880993
0.00847601
0.00818877
0.00794176
0.00772759
0.00754122
0.00737018
0.00720008
0.00702467
0.00684275
0.0066513
0.00644401
0.00621398
0.00595239
0.00565369
0.00530285
0.00490204
0.0044183
0.00387116
0.00320981
0.00244377
0.00155965
0.000503301
-0.155395
-0.135871
-0.115323
-0.0894578
-0.0638284
-0.0434503
-0.0282059
-0.0148752
-0.0024215
0.00741579
0.0136228
0.0171276
0.0190118
0.0193404
0.01896
0.01817
0.0172424
0.016189
0.0150667
0.013993
0.013022
0.0121533
0.0113812
0.0107029
0.0101125
0.00960155
0.00915981
0.00877911
0.00845268
0.00817368
0.00793051
0.00771818
0.00753465
0.00736465
0.00719656
0.00702626
0.00685038
0.00666406
0.00646072
0.00623372
0.0059743
0.0056772
0.00532704
0.0049267
0.00444179
0.0038948
0.00322831
0.0024655
0.00157104
0.000513305
-0.14461
-0.136297
-0.115656
-0.0904524
-0.066384
-0.0462344
-0.0318202
-0.0198468
-0.00760554
0.00263271
0.00927297
0.0135382
0.0162006
0.0173046
0.0170061
0.0164749
0.0158799
0.0151425
0.0142817
0.0134102
0.0125922
0.0118367
0.0111477
0.0105309
0.00998622
0.00950758
0.00908842
0.0087247
0.00841073
0.00814184
0.00790822
0.00770495
0.00753249
0.00737858
0.0072275
0.00707091
0.00690471
0.00672498
0.00652638
0.00630299
0.00604657
0.00575121
0.00540311
0.00500116
0.00451827
0.00396356
0.00329837
0.0025225
0.00162377
0.000563364
-0.131508
-0.126489
-0.108268
-0.0856272
-0.0642457
-0.0455171
-0.0325026
-0.0224432
-0.0110637
-0.00114671
0.00467386
0.00876416
0.0123103
0.0142142
0.0145527
0.0144419
0.0142648
0.0138717
0.0132686
0.012606
0.0119637
0.011351
0.0107748
0.0102459
0.00976902
0.0093426
0.00896556
0.00863573
0.00834919
0.00810338
0.00788897
0.00770338
0.00754876
0.00740907
0.00726443
0.0071095
0.00694426
0.00676596
0.00656921
0.00634773
0.00609329
0.00579933
0.00545338
0.00505127
0.00457158
0.00401328
0.00335142
0.00256863
0.00166893
0.00059777
-0.117895
-0.115263
-0.101694
-0.0826081
-0.063975
-0.0472138
-0.0350808
-0.0260725
-0.015394
-0.00524205
0.000829175
0.00517293
0.00926774
0.0116076
0.0121907
0.0123611
0.0125528
0.0124976
0.012162
0.0117215
0.0112647
0.0108009
0.0103426
0.00990801
0.00950717
0.00914327
0.00881744
0.00852888
0.00827647
0.00805714
0.00786657
0.00770278
0.00755779
0.00741604
0.00726819
0.00711388
0.00695144
0.00677574
0.00658063
0.00635976
0.00610538
0.00581051
0.00546433
0.00505983
0.00458133
0.00401954
0.00335864
0.00257831
0.0016641
0.000587002
-0.103446
-0.10301
-0.0933552
-0.0778068
-0.0621994
-0.0471245
-0.034934
-0.0266899
-0.0175872
-0.00823672
-0.0026054
0.00144301
0.00584697
0.00874606
0.0097422
0.0102519
0.0108237
0.0111014
0.0110225
0.0107936
0.0105187
0.0102077
0.00987508
0.00954389
0.00922799
0.00893362
0.00866373
0.00842057
0.00820397
0.00801264
0.00784651
0.00769697
0.00755235
0.00740974
0.00726824
0.00712274
0.00696666
0.00679452
0.00660123
0.00638098
0.0061266
0.00583063
0.0054838
0.00507609
0.00459778
0.00402969
0.00336862
0.00258328
0.00165132
0.000580411
-0.0891161
-0.0905696
-0.0844909
-0.0722844
-0.0590966
-0.0459958
-0.034986
-0.0277078
-0.019774
-0.0110002
-0.00551816
-0.00165175
0.00290566
0.00625713
0.00753918
0.00826808
0.00911095
0.00967809
0.00984517
0.00982451
0.00973363
0.00958111
0.00938034
0.00915747
0.0089303
0.00870804
0.00849672
0.00830075
0.00812171
0.00796084
0.00781565
0.00767605
0.00753914
0.00740934
0.00728179
0.00714578
0.00699504
0.00682628
0.00663537
0.00641659
0.00616307
0.00586683
0.0055199
0.00510979
0.0046312
0.00405755
0.00339508
0.00260107
0.0016606
0.000594403
-0.0762532
-0.0788385
-0.0753736
-0.0661492
-0.0554914
-0.0443836
-0.0343637
-0.0275282
-0.0205182
-0.0127367
-0.00781516
-0.00430783
0.000215841
0.00384813
0.00538868
0.00630369
0.00739621
0.00824453
0.00865278
0.00883358
0.00892143
0.00892484
0.00885501
0.00874092
0.00860408
0.00845662
0.00830692
0.00816102
0.00802267
0.00789284
0.00776877
0.00764719
0.00752963
0.00741642
0.00729967
0.00717052
0.00702506
0.00686067
0.00667311
0.00645655
0.00620447
0.00590855
0.00556193
0.00515008
0.00467116
0.00409346
0.00342787
0.0026287
0.00168189
0.000607981
-0.064889
-0.0678467
-0.0661621
-0.0593745
-0.0508372
-0.0415753
-0.0329489
-0.0269281
-0.0207959
-0.0139624
-0.00962688
-0.00647018
-0.00207336
0.00172473
0.00347031
0.00452714
0.00579202
0.00686106
0.00747877
0.0078417
0.00809415
0.00824504
0.0083028
0.0082975
0.00825295
0.00818318
0.00809812
0.00800544
0.00791002
0.00781347
0.00771657
0.00761998
0.00752295
0.00742305
0.00731529
0.00719406
0.00705559
0.00689661
0.00671291
0.00649884
0.00624836
0.00595282
0.00560642
0.00519285
0.00471318
0.00413142
0.00346193
0.00265925
0.00170148
0.000615472
-0.0537813
-0.0573749
-0.0570965
-0.05222
-0.0457883
-0.0384329
-0.0311379
-0.025845
-0.0204357
-0.0144812
-0.0108195
-0.00809715
-0.00395209
-0.000126125
0.00174956
0.00290824
0.00429692
0.00554125
0.00634067
0.0068663
0.00726769
0.0075561
0.00773671
0.00783843
0.00788606
0.00789483
0.00787595
0.00783827
0.00778783
0.00772836
0.00766272
0.00759167
0.00751368
0.00742757
0.00733113
0.00721982
0.00708937
0.00693632
0.00675685
0.00654557
0.00629685
0.00600181
0.0056555
0.00524016
0.0047592
0.00417318
0.00349935
0.0026916
0.00172064
0.000622837
-0.0441139
-0.0479562
-0.0486007
-0.0454126
-0.0407581
-0.0347789
-0.0286006
-0.0242058
-0.019593
-0.0144448
-0.0114647
-0.00922858
-0.00534891
-0.00162083
0.000298992
0.00150762
0.00296506
0.00432958
0.00527172
0.00593402
0.00646489
0.00687682
0.00717117
0.0073743
0.00751095
0.00759695
0.00764422
0.00766244
0.00765891
0.00763878
0.00760539
0.00756002
0.00750253
0.00743289
0.0073497
0.00724915
0.00712724
0.00698069
0.00680597
0.00659791
0.00635122
0.00605687
0.00571063
0.00529359
0.00481091
0.0042206
0.00354162
0.00272735
0.00174311
0.000631913
-0.0362551
-0.039734
-0.0409527
-0.0388628
-0.035418
-0.0307042
-0.0257409
-0.0222719
-0.0183701
-0.0139361
-0.0116167
-0.00988476
-0.0063481
-0.0027689
-0.000871586
0.000340604
0.0018208
0.0032553
0.00429975
0.00506997
0.00570775
0.00622529
0.00662043
0.00691627
0.0071364
0.0072964
0.00740829
0.00748221
0.00752618
0.00754601
0.00754559
0.00752734
0.00749227
0.00744067
0.00737169
0.00728253
0.00716982
0.00703043
0.006861
0.00665655
0.00641216
0.00611869
0.00577251
0.00535378
0.00486903
0.00427423
0.00358929
0.00276758
0.00176943
0.000642092
-0.0290428
-0.0323097
-0.033762
-0.0324372
-0.0302053
-0.0267315
-0.022773
-0.0200582
-0.0168113
-0.0130449
-0.0113326
-0.01009
-0.0069229
-0.00355692
-0.00174361
-0.000572418
0.000889021
0.00234726
0.00345267
0.00429888
0.00501806
0.00562051
0.00610066
0.00647783
0.00677345
0.0070021
0.0071753
0.00730312
0.00739375
0.0074534
0.00748659
0.00749647
0.00748473
0.00745203
0.0073981
0.00732109
0.00721824
0.00708656
0.00692287
0.00672239
0.00648054
0.0061881
0.00584196
0.00542149
0.00493433
0.00433468
0.00364308
0.00281288
0.00179949
0.000653414
-0.0224542
-0.0256549
-0.0273905
-0.026768
-0.0254322
-0.0228015
-0.0196348
-0.0176329
-0.0150085
-0.0118425
-0.0106789
-0.00990218
-0.00711035
-0.0039936
-0.00231103
-0.00122008
0.000185697
0.00162678
0.00275381
0.00364334
0.00441707
0.00508205
0.00562921
0.00607386
0.00643461
0.00672439
0.00695369
0.00713195
0.00726714
0.00736558
0.0074321
0.00747021
0.00748209
0.00746885
0.00743067
0.00736641
0.00727389
0.00715034
0.00699276
0.00679656
0.00655743
0.00626612
0.00591999
0.00549767
0.00500775
0.00440279
0.00370382
0.00286383
0.00183364
0.000666241
-0.0171523
-0.0200881
-0.0218491
-0.0215797
-0.0208367
-0.0189177
-0.016498
-0.0151334
-0.0130318
-0.0103943
-0.00972968
-0.0093781
-0.00694309
-0.00409447
-0.00257778
-0.00159961
-0.000280972
0.00110806
0.00222145
0.00312295
0.00392429
0.0046286
0.00522331
0.00571971
0.00613326
0.00647474
0.0067531
0.00697675
0.00715305
0.00728805
0.00738653
0.00745216
0.0074874
0.0074937
0.00747158
0.00742038
0.00733845
0.00722328
0.00707207
0.00688034
0.00664407
0.00635394
0.00600773
0.00558338
0.00509037
0.00447952
0.00377241
0.00292124
0.00187244
0.000680862
-0.0124829
-0.0150785
-0.0167754
-0.0168029
-0.0166041
-0.015292
-0.0134772
-0.0126267
-0.010958
-0.00877712
-0.00855166
-0.00858289
-0.00646665
-0.00389036
-0.00256093
-0.00171835
-0.000511168
0.000797647
0.00186751
0.00275273
0.0035561
0.00427688
0.00489922
0.0054306
0.00588319
0.00626535
0.00658415
0.00684663
0.00705918
0.00722723
0.00735527
0.00744682
0.00750445
0.00752977
0.00752348
0.00748531
0.00741396
0.00730722
0.00716244
0.00697524
0.00674185
0.00645286
0.00610646
0.00567982
0.00518335
0.00456593
0.00384985
0.00298602
0.00191644
0.00069754
-0.00826601
-0.0106789
-0.0123564
-0.0126093
-0.0127962
-0.0119272
-0.0105973
-0.0101666
-0.00884833
-0.00704661
-0.00717264
-0.00747532
-0.00570494
-0.00341426
-0.00228616
-0.00159294
-0.000513604
0.000694174
0.00169696
0.00254213
0.00332476
0.00404073
0.0046714
0.0052208
0.00569796
0.00610868
0.00645805
0.00675147
0.00699409
0.00719049
0.00734457
0.00745951
0.00753773
0.00758084
0.00758961
0.00756395
0.00750285
0.0074043
0.00726579
0.00708302
0.0068524
0.00656438
0.00621759
0.0057883
0.00528797
0.00466321
0.00393722
0.00305916
0.00196629
0.000716559
-0.00471514
-0.00690706
-0.00848566
-0.00887511
-0.00934727
-0.00882051
-0.00789113
-0.0078041
-0.00676343
-0.00528156
-0.00572166
-0.00630209
-0.00477932
-0.00273515
-0.00179645
-0.00125126
-0.000305773
0.000788552
0.00170779
0.00249465
0.00323774
0.0039303
0.00455163
0.00510284
0.00559011
0.00601684
0.00638608
0.00670153
0.00696697
0.00718591
0.00736145
0.00749626
0.00759241
0.00765132
0.00767372
0.00765954
0.00760792
0.00751698
0.00738431
0.00720562
0.00697748
0.00669014
0.00634266
0.00591026
0.00540562
0.00477263
0.00403573
0.00314173
0.00202268
0.000738232
-0.00161667
-0.003592
-0.00506124
-0.00555428
-0.00625292
-0.00599719
-0.00539294
-0.00556886
-0.00473406
-0.00351586
-0.00421608
-0.00500975
-0.00370929
-0.00189066
-0.00112824
-0.000723191
8.99815e-05
0.00106584
0.00189191
0.00260808
0.00329749
0.0039516
0.00454843
0.00508683
0.00557056
0.00600092
0.00637907
0.00670705
0.00698724
0.00722197
0.00741347
0.0075637
0.00767424
0.00774619
0.00778008
0.00777575
0.00773236
0.00764804
0.00752044
0.00734521
0.00711906
0.00683192
0.00648333
0.00604722
0.00553777
0.00489554
0.00414662
0.00323487
0.0020864
0.00076289
0.00109187
-0.000711797
-0.00206979
-0.00263353
-0.00349286
-0.00343744
-0.00309883
-0.00347787
-0.00279075
-0.00178498
-0.0026946
-0.00365132
-0.00253789
-0.000920946
-0.0003178
-3.99205e-05
0.000648224
0.0015068
0.00223628
0.0028751
0.00350164
0.00410631
0.00466666
0.00517993
0.005648
0.00607043
0.00644681
0.00677768
0.00706408
0.00730723
0.00750839
0.00766877
0.00778935
0.00787079
0.00791333
0.0079166
0.00787964
0.00780051
0.00767684
0.00750414
0.00727923
0.00699159
0.00664133
0.00620079
0.00568597
0.00503336
0.00427124
0.00333982
0.00215825
0.000790928
0.00344499
0.00179334
0.000554167
-6.16874e-05
-0.00104393
-0.00114092
-0.00101604
-0.00154106
-0.000951794
-0.000118455
-0.00119541
-0.00227008
-0.00130735
0.000133594
0.000597972
0.000766074
0.00134134
0.00208912
0.00272415
0.00328432
0.00384369
0.0043922
0.00490761
0.00538622
0.00582853
0.00623287
0.00659759
0.006922
0.00720601
0.00744981
0.00765377
0.00781834
0.00794388
0.00803055
0.00807819
0.00808613
0.00805322
0.00797734
0.00785603
0.00768458
0.00745987
0.00717079
0.00681814
0.00637223
0.00585145
0.00518715
0.00441063
0.00345745
0.00223878
0.000822348
0.00550232
0.00397965
0.0028544
0.00219776
0.00113037
0.000922501
0.000871348
0.000241256
0.000766951
0.00145714
0.000250485
-0.00089985
-5.35642e-05
0.00123683
0.00158504
0.00166384
0.00214185
0.00278938
0.00333664
0.0038215
0.00431386
0.00480357
0.00526919
0.0057066
0.00611547
0.00649333
0.0068377
0.00714705
0.00742041
0.00765714
0.00785688
0.00801935
0.00814435
0.00823151
0.00828024
0.00828952
0.0082579
0.00818302
0.00806223
0.0078905
0.00766473
0.00737307
0.00701715
0.00656478
0.00603736
0.00535986
0.00456755
0.00359032
0.00232988
0.000859185
0.00731379
0.00589845
0.00487255
0.0041764
0.00305549
0.00276941
0.00257036
0.00187161
0.00236061
0.00292464
0.00161989
0.000433414
0.00119349
0.00235565
0.00261063
0.00262256
0.00302151
0.0035825
0.00405242
0.00446935
0.00489888
0.00533101
0.00574549
0.00613822
0.00650841
0.00685321
0.00716969
0.00745581
0.00771004
0.0079312
0.00811835
0.00827076
0.00838776
0.00846857
0.00851228
0.00851755
0.00848268
0.00840504
0.00828178
0.00810749
0.00787906
0.00758367
0.00722395
0.00676462
0.00623091
0.00553957
0.0047315
0.00372836
0.00242333
0.000890706
0.00892636
0.00760486
0.0066677
0.00592299
0.00475698
0.00440424
0.00407167
0.00333057
0.00380909
0.00427674
0.00292442
0.00171823
0.00241233
0.00346647
0.0036508
0.00361778
0.00395485
0.00444224
0.004845
0.00520185
0.00557437
0.00595335
0.00632041
0.00667192
0.00700701
0.0073227
0.00761577
0.00788364
0.00812415
0.00833532
0.00851543
0.00866291
0.00877629
0.00885408
0.00889468
0.0088962
0.00885649
0.00877254
0.00864135
0.00845726
0.00821756
0.00790858
0.00753534
0.00705812
0.00651064
0.00579398
0.00496581
0.00392163
0.00256492
0.000974987
0.0103277
0.00911031
0.00829306
0.00753722
0.0063599
0.00595485
0.00548888
0.0046855
0.00510393
0.00541713
0.00391714
0.0028531
0.00355062
0.00452812
0.0046666
0.00460575
0.00488708
0.00529752
0.00562242
0.00590144
0.00619203
0.00648629
0.00676852
0.00703654
0.00729046
0.00752832
0.00774783
0.00794717
0.00812473
0.00827898
0.00840852
0.00851197
0.00858798
0.00863508
0.00865166
0.00863575
0.00858508
0.00849651
0.00836688
0.00819026
0.00796372
0.00767323
0.00732321
0.00687457
0.00635597
0.00567978
0.00486502
0.00386642
0.00243045
0.00084676
0.0115138
0.0103348
0.00955861
0.00876149
0.00763183
0.00726625
0.00677508
0.00606447
0.00658094
0.00690594
0.00566258
0.00451981
0.00516723
0.00607851
0.00620881
0.00617912
0.00647466
0.00688579
0.0072175
0.00750823
0.00780901
0.00811152
0.00840133
0.00867632
0.00893629
0.00917923
0.00940285
0.0096053
0.00978488
0.00993997
0.010069
0.0101705
0.0102427
0.010284
0.0102923
0.0102654
0.0102004
0.0100937
0.00994139
0.00973686
0.00947654
0.00914391
0.00874712
0.0082323
0.00766019
0.00687396
0.00602146
0.00485955
0.00337033
0.00138567
0.0127764
0.0116225
0.0108361
0.00985203
0.00857971
0.00805965
0.00732859
0.00645422
0.0068228
0.00693111
0.00534029
0.00439287
0.00504735
0.00588113
0.00598592
0.00595097
0.00620491
0.00654809
0.00680849
0.00702469
0.00724293
0.00745648
0.00765407
0.00783535
0.00800161
0.00815237
0.00828686
0.00840451
0.00850473
0.00858678
0.00864979
0.0086927
0.00871422
0.00871278
0.00868645
0.00863288
0.00854915
0.00843172
0.00827615
0.00807686
0.00782806
0.00751834
0.00714583
0.00667706
0.00613106
0.00542564
0.00456344
0.00354413
0.00210487
0.000647127
0.014106
0.0132211
0.0126558
0.0118602
0.0108428
0.0103686
0.00958062
0.00887094
0.00934885
0.00939928
0.00821175
0.00742676
0.00817155
0.00901044
0.009166
0.00920944
0.0095006
0.00985145
0.0101194
0.0103432
0.0105623
0.0107706
0.0109595
0.0111293
0.0112815
0.0114162
0.0115332
0.0116322
0.011713
0.0117751
0.0118178
0.0118402
0.0118412
0.011819
0.0117716
0.0116967
0.0115905
0.0114501
0.0112681
0.0110427
0.010759
0.0104174
0.00999839
0.00948135
0.00890096
0.00808759
0.00725512
0.00594646
0.00417509
0.00181017
0.0140473
0.0129875
0.0122014
0.0110246
0.00976559
0.00914093
0.00822892
0.00746447
0.00783423
0.0077748
0.00637711
0.00578913
0.00653807
0.00731223
0.00749131
0.00759251
0.00789706
0.00822686
0.00846572
0.00865236
0.00882126
0.00896874
0.0090899
0.00918756
0.00926513
0.00932451
0.00936711
0.00939421
0.00940669
0.00940501
0.00938919
0.00935881
0.00931289
0.00925005
0.00916807
0.00906475
0.00893562
0.00877888
0.00858431
0.00835598
0.00806659
0.00774171
0.00731352
0.00684406
0.00622393
0.00549415
0.00463004
0.00354021
0.00228799
0.000774662
0.0166283
0.0159138
0.0152568
0.0143441
0.0135034
0.012915
0.0119167
0.0112951
0.0116276
0.0115252
0.0104035
0.0100451
0.0108061
0.0115209
0.0117527
0.0119172
0.0122086
0.0124911
0.0126871
0.0128294
0.0129443
0.0130316
0.0130906
0.0131256
0.013141
0.0131396
0.0131238
0.0130954
0.0130557
0.0130054
0.0129446
0.0128729
0.0127891
0.0126921
0.0125784
0.0124476
0.0122903
0.012114
0.0118861
0.0116554
0.0113024
0.0110251
0.0104566
0.01014
0.00930335
0.00871993
0.00777674
0.00614382
0.00476369
0.00195008
0.0158434
0.0151466
0.014469
0.0131863
0.0116821
0.010358
0.00889648
0.0081883
0.00857928
0.00846357
0.00807236
0.0083314
0.00935813
0.0101792
0.0105103
0.0107367
0.0110159
0.0112437
0.0113739
0.0114446
0.0114821
0.0114903
0.0114721
0.0114336
0.0113796
0.0113136
0.0112382
0.0111551
0.0110656
0.0109701
0.0108687
0.0107608
0.010645
0.0105198
0.0103814
0.0102295
0.0100531
0.00986265
0.0096184
0.00938357
0.00900997
0.00875476
0.00813961
0.00792204
0.0069286
0.00660791
0.0053215
0.00421146
0.00335232
0.0010965
0.0191885
0.0190519
0.0185315
0.0175947
0.0167775
0.0157316
0.0142744
0.0132379
0.0127616
0.0122994
0.01199
0.0123825
0.0131565
0.0137105
0.0139558
0.0140978
0.0142088
0.014251
0.0142189
0.0141411
0.0140379
0.0139171
0.013784
0.013644
0.0135009
0.0133572
0.0132142
0.0130728
0.0129331
0.0127945
0.0126558
0.0125161
0.0123724
0.0122242
0.0120636
0.0118979
0.0116948
0.0115107
0.0111975
0.0110456
0.0104384
0.0105457
0.00925019
0.0100929
0.00773118
0.00904706
0.00674634
0.00568716
0.00554154
0.00160482
-0.0869885
-0.0978865
-0.109077
-0.11866
-0.128799
-0.135548
-0.143792
-0.143854
-0.148592
-0.144129
-0.0775493
-0.0855232
-0.094512
-0.101505
-0.110265
-0.113852
-0.119545
-0.118845
-0.122106
-0.125279
-0.0675578
-0.0739289
-0.0806878
-0.0856772
-0.092217
-0.0945048
-0.0999641
-0.103233
-0.106893
-0.112669
-0.059522
-0.0641175
-0.0687757
-0.072669
-0.0772993
-0.0808981
-0.0864706
-0.0912086
-0.0932406
-0.0980369
-0.0512876
-0.0547491
-0.0578273
-0.0617144
-0.0656121
-0.0699469
-0.07401
-0.0770116
-0.0780806
-0.0831894
-0.0444941
-0.0467857
-0.048821
-0.0525617
-0.0553525
-0.0586459
-0.0610726
-0.0627953
-0.0651721
-0.0707067
-0.036798
-0.0390744
-0.0405988
-0.0435814
-0.045223
-0.0476584
-0.049978
-0.0524359
-0.055884
-0.0603576
-0.0308044
-0.0323725
-0.0333239
-0.0356384
-0.036777
-0.0392731
-0.0424072
-0.0448289
-0.0467654
-0.0495863
-0.0249684
-0.026121
-0.0268693
-0.0288721
-0.0299894
-0.032483
-0.0350392
-0.0358166
-0.0368454
-0.0398534
-0.0198021
-0.0206586
-0.0212895
-0.0229249
-0.0236515
-0.0254559
-0.0273001
-0.0277725
-0.0295857
-0.0328747
-0.0151116
-0.0156735
-0.0161486
-0.0173706
-0.0177409
-0.0193887
-0.0213714
-0.0222158
-0.0240748
-0.0264642
-0.0108818
-0.0112269
-0.0116192
-0.0126059
-0.0129351
-0.0146614
-0.016511
-0.0169136
-0.0181867
-0.0201137
-0.00712868
-0.00731781
-0.00766248
-0.00844971
-0.0086371
-0.0101645
-0.0116235
-0.0117565
-0.0131244
-0.0151158
-0.00379582
-0.00386705
-0.00412277
-0.00467022
-0.00470108
-0.00615638
-0.00754307
-0.00777132
-0.00922273
-0.01093
-0.000832571
-0.000810674
-0.000977241
-0.00135113
-0.00135244
-0.00283396
-0.00412717
-0.00424716
-0.00553777
-0.00697409
0.00181205
0.00190073
0.00178897
0.00155767
0.00160579
0.000172636
-0.000966709
-0.00101375
-0.00229649
-0.00363381
0.00420454
0.00433143
0.00423844
0.00413134
0.00423105
0.00282578
0.00176419
0.00170295
0.000422223
-0.000761842
0.00635572
0.0064843
0.00638706
0.0063849
0.00651524
0.00512779
0.00414627
0.00408909
0.00283784
0.00179023
0.00827016
0.00838765
0.00828205
0.00837412
0.00852901
0.00717196
0.00627382
0.00620665
0.0049719
0.00403078
0.00998402
0.0100889
0.00997014
0.0101423
0.0103113
0.00898188
0.00815145
0.00806138
0.00685478
0.00601294
0.0115292
0.0116087
0.0114716
0.0117123
0.0118799
0.0105851
0.00983065
0.00971565
0.00853684
0.00777949
0.0129241
0.0129774
0.0128218
0.0131163
0.0132678
0.0120107
0.0113271
0.011184
0.0100489
0.00937285
0.014171
0.0142017
0.0140304
0.0143704
0.0144999
0.0132857
0.0126687
0.0124877
0.0113919
0.0107774
0.0152971
0.0152814
0.0150957
0.0154767
0.0155767
0.0144254
0.0138895
0.0136701
0.0126065
0.0120202
0.0164151
0.0163572
0.0161329
0.0165142
0.0165402
0.015445
0.0150009
0.0147814
0.0138434
0.0133458
0.0173622
0.0172739
0.0170633
0.017484
0.0174789
0.0164764
0.0160989
0.0158276
0.0149524
0.0145525
0.0180418
0.0179094
0.0177432
0.0182103
0.018123
0.0171792
0.0168551
0.0164835
0.0155267
0.014864
0.0197274
0.0194783
0.0192316
0.0196099
0.019471
0.018716
0.0185161
0.0181912
0.0174818
0.0171101
0.019309
0.019058
0.0189444
0.0193232
0.0191823
0.0186556
0.0184896
0.017969
0.0170946
0.0164995
0.0212104
0.0212294
0.0208799
0.0211444
0.0213502
0.0209736
0.0209895
0.0211326
0.0205725
0.0196745
0.0777476
0.0814404
0.085033
0.0888143
0.092278
0.0950324
0.0969139
0.0978328
0.0978109
0.0968484
0.0944749
0.0903861
0.0840214
0.0752662
0.0620737
0.041372
0.00998912
-0.0308973
-0.0775487
-0.174431
0.062096
0.0655681
0.0668331
0.0670051
0.0672453
0.0673086
0.0666006
0.064753
0.0618184
0.0576483
0.0517388
0.0434568
0.0322107
0.0170838
-0.00232541
-0.0278897
-0.0623295
-0.109919
-0.162586
-0.291359
0.0463015
0.0486158
0.0474573
0.0452479
0.0431278
0.0407845
0.0375467