/*--------------------------------*- C++ -*----------------------------------*\
| =========                 |                                                 |
| \\      /  F ield         | OpenFOAM: The Open Source CFD Toolbox           |
|  \\    /   O peration     | Version:  2312                                  |
|   \\  /    A nd           | Website:  www.openfoam.com                      |
|    \\/     M anipulation  |                                                 |
\*---------------------------------------------------------------------------*/
FoamFile
{
    version     2.0;
    format      ascii;
    arch        "LSB;label=32;scalar=64";
    class       volScalarField;
    location    "23.5";
    object      p;
}
// * * * * * * * * * * * * * * * * * * * * * * * * * * * * * * * * * * * * * //

dimensions      [0 2 -2 0 0 0 0];

internalField   nonuniform List<scalar> 
32230
(
-0.269928
-0.26994
-0.269528
-0.268744
-0.267651
-0.266313
-0.26481
-0.263237
-0.261695
-0.260284
-0.259098
-0.25822
-0.257723
-0.257659
-0.258065
-0.258961
-0.260345
-0.262195
-0.264469
-0.267107
-0.270031
-0.273152
-0.276372
-0.279589
-0.282705
-0.285632
-0.288296
-0.29064
-0.292628
-0.294239
-0.295483
-0.29634
-0.296892
-0.296989
-0.296874
-0.29583
-0.294476
-0.271017
-0.271089
-0.270666
-0.269832
-0.268676
-0.267273
-0.265708
-0.264081
-0.262492
-0.261041
-0.25982
-0.25891
-0.258377
-0.258269
-0.25861
-0.259407
-0.26064
-0.26227
-0.264233
-0.266453
-0.268838
-0.271293
-0.273721
-0.276032
-0.278149
-0.280012
-0.281578
-0.282822
-0.283736
-0.284318
-0.284578
-0.284503
-0.284107
-0.283297
-0.282148
-0.280353
-0.278824
-0.272672
-0.272727
-0.272247
-0.271339
-0.27011
-0.268646
-0.267035
-0.265378
-0.263774
-0.262319
-0.261097
-0.260183
-0.259632
-0.259477
-0.259729
-0.260375
-0.261375
-0.26267
-0.264185
-0.265831
-0.267518
-0.269159
-0.270678
-0.27201
-0.273112
-0.273955
-0.274527
-0.274825
-0.274856
-0.274619
-0.274123
-0.273339
-0.272284
-0.27086
-0.269178
-0.26705
-0.265238
-0.274954
-0.274913
-0.274328
-0.273315
-0.271997
-0.270463
-0.268809
-0.267133
-0.265528
-0.264082
-0.262871
-0.261953
-0.261368
-0.261131
-0.26123
-0.261632
-0.262279
-0.263099
-0.264013
-0.26494
-0.265804
-0.266543
-0.267113
-0.267483
-0.267639
-0.267579
-0.267308
-0.26683
-0.26615
-0.265267
-0.264178
-0.26286
-0.26132
-0.259486
-0.257478
-0.255121
-0.25321
-0.277891
-0.277682
-0.276942
-0.275792
-0.274355
-0.272733
-0.271023
-0.269321
-0.267711
-0.266271
-0.265058
-0.264113
-0.263451
-0.263064
-0.262916
-0.262956
-0.263116
-0.263324
-0.263513
-0.263622
-0.263607
-0.263439
-0.263105
-0.262603
-0.261937
-0.261118
-0.260152
-0.259042
-0.257789
-0.256385
-0.254825
-0.253088
-0.25118
-0.249049
-0.246796
-0.244289
-0.24221
-0.281498
-0.281056
-0.280114
-0.278786
-0.277197
-0.275459
-0.273674
-0.271929
-0.270301
-0.268846
-0.267601
-0.266579
-0.265766
-0.265127
-0.26461
-0.264152
-0.263692
-0.263173
-0.262554
-0.261808
-0.260924
-0.259904
-0.258758
-0.257497
-0.256135
-0.254679
-0.253134
-0.251497
-0.249764
-0.247926
-0.245974
-0.243891
-0.241682
-0.239308
-0.236856
-0.234207
-0.231957
-0.285786
-0.285056
-0.283869
-0.282323
-0.280548
-0.278667
-0.276783
-0.274975
-0.273302
-0.271795
-0.27046
-0.269277
-0.268203
-0.267181
-0.266154
-0.265064
-0.263872
-0.262553
-0.261098
-0.259517
-0.257824
-0.256042
-0.254188
-0.25228
-0.250326
-0.248331
-0.246292
-0.244204
-0.24206
-0.239848
-0.23756
-0.235183
-0.232718
-0.230137
-0.227509
-0.22473
-0.222315
-0.290778
-0.289715
-0.288243
-0.286445
-0.284456
-0.282407
-0.280401
-0.278502
-0.276741
-0.275118
-0.2736
-0.272134
-0.270654
-0.269099
-0.267419
-0.265586
-0.263591
-0.261446
-0.259178
-0.256819
-0.254399
-0.251946
-0.249479
-0.247011
-0.244544
-0.242079
-0.239608
-0.237124
-0.234616
-0.232075
-0.229491
-0.226854
-0.224164
-0.221398
-0.218611
-0.215712
-0.213139
-0.296518
-0.295078
-0.293286
-0.291211
-0.288984
-0.286748
-0.284593
-0.28256
-0.280645
-0.278804
-0.27697
-0.275063
-0.273014
-0.270773
-0.268322
-0.265668
-0.262843
-0.259891
-0.25686
-0.253793
-0.250725
-0.247682
-0.244676
-0.241714
-0.238793
-0.235908
-0.233051
-0.230211
-0.227378
-0.224543
-0.221695
-0.218827
-0.215936
-0.213005
-0.210072
-0.207064
-0.204345
-0.303059
-0.301199
-0.299058
-0.296687
-0.294208
-0.291762
-0.28942
-0.287187
-0.285013
-0.282813
-0.280493
-0.277967
-0.275183
-0.272125
-0.268817
-0.265308
-0.261662
-0.257944
-0.254209
-0.250503
-0.246855
-0.243283
-0.239793
-0.236385
-0.233052
-0.229786
-0.226577
-0.223414
-0.220287
-0.217185
-0.2141
-0.211024
-0.207951
-0.20487
-0.201804
-0.198697
-0.195845
-0.310456
-0.308132
-0.30562
-0.302941
-0.300194
-0.297508
-0.294918
-0.292383
-0.289806
-0.287069
-0.28407
-0.280744
-0.277078
-0.273106
-0.268896
-0.264531
-0.260094
-0.255658
-0.251277
-0.246987
-0.242811
-0.238755
-0.234821
-0.231002
-0.22729
-0.223674
-0.220143
-0.216684
-0.213289
-0.209946
-0.206646
-0.203381
-0.200145
-0.196928
-0.193742
-0.190547
-0.187575
-0.31875
-0.315921
-0.313021
-0.310023
-0.306988
-0.304012
-0.301083
-0.298104
-0.29494
-0.291461
-0.287586
-0.283297
-0.278636
-0.273689
-0.268563
-0.263362
-0.258175
-0.253068
-0.248087
-0.243256
-0.238588
-0.234083
-0.229735
-0.225534
-0.22147
-0.217529
-0.2137
-0.209971
-0.20633
-0.202768
-0.199273
-0.195839
-0.192455
-0.189116
-0.185823
-0.182549
-0.17947
-0.327957
-0.324589
-0.321287
-0.317959
-0.314601
-0.311257
-0.307857
-0.304253
-0.300287
-0.295852
-0.290918
-0.285534
-0.279803
-0.273857
-0.267825
-0.261818
-0.255918
-0.25018
-0.244634
-0.239295
-0.234164
-0.229235
-0.224497
-0.219938
-0.215545
-0.211303
-0.2072
-0.203222
-0.199358
-0.195597
-0.191927
-0.18834
-0.184827
-0.181379
-0.177992
-0.174652
-0.171479
-0.33806
-0.334126
-0.330413
-0.326737
-0.322999
-0.319174
-0.31513
-0.310682
-0.305686
-0.300091
-0.293944
-0.287371
-0.28053
-0.273585
-0.266671
-0.259892
-0.253314
-0.246976
-0.240895
-0.235072
-0.229501
-0.22417
-0.219065
-0.214169
-0.209469
-0.204948
-0.200593
-0.196388
-0.192322
-0.188382
-0.184557
-0.180835
-0.177207
-0.173665
-0.170199
-0.166804
-0.163551
-0.349
-0.344484
-0.340355
-0.336299
-0.332096
-0.327636
-0.322734
-0.317203
-0.310952
-0.304019
-0.296546
-0.288731
-0.280774
-0.272848
-0.265083
-0.257564
-0.250339
-0.243428
-0.236835
-0.23055
-0.22456
-0.218849
-0.213398
-0.208188
-0.203204
-0.198426
-0.193841
-0.189432
-0.185184
-0.181086
-0.177123
-0.173285
-0.16956
-0.165938
-0.162408
-0.158972
-0.155654
-0.360665
-0.355569
-0.351016
-0.346531
-0.341741
-0.336452
-0.330452
-0.323596
-0.31589
-0.307486
-0.298622
-0.289551
-0.280495
-0.271621
-0.263041
-0.254815
-0.246971
-0.239512
-0.232428
-0.225704
-0.219317
-0.213247
-0.207472
-0.201971
-0.196725
-0.191714
-0.186921
-0.182329
-0.177922
-0.173685
-0.169605
-0.165668
-0.161862
-0.158175
-0.154598
-0.151131
-0.147763
-0.372891
-0.367229
-0.362237
-0.357244
-0.351706
-0.345361
-0.338014
-0.329614
-0.3203
-0.310347
-0.300072
-0.289764
-0.279646
-0.269866
-0.260506
-0.251605
-0.243169
-0.235186
-0.227635
-0.220492
-0.213731
-0.207325
-0.201249
-0.19548
-0.189995
-0.184774
-0.179796
-0.175042
-0.170497
-0.166142
-0.161964
-0.157946
-0.154076
-0.150341
-0.146731
-0.143241
-0.139836
-0.385455
-0.379248
-0.373788
-0.368176
-0.361695
-0.354048
-0.345114
-0.334987
-0.323958
-0.312417
-0.30074
-0.28923
-0.27809
-0.267441
-0.257337
-0.24779
-0.238788
-0.230307
-0.222314
-0.214778
-0.207667
-0.200951
-0.1946
-0.188589
-0.182891
-0.177483
-0.172344
-0.167454
-0.162792
-0.158341
-0.154085
-0.150007
-0.146092
-0.142327
-0.138701
-0.1352
-0.131776
-0.3981
-0.391385
-0.385428
-0.379076
-0.37144
-0.362235
-0.351477
-0.339448
-0.326603
-0.313436
-0.300361
-0.287672
-0.275544
-0.264061
-0.253247
-0.243088
-0.233554
-0.224606
-0.216204
-0.208308
-0.200881
-0.193888
-0.187295
-0.181074
-0.175195
-0.169633
-0.164363
-0.159365
-0.154616
-0.150097
-0.14579
-0.141677
-0.137742
-0.133971
-0.130353
-0.126863
-0.123457
-0.241973
-0.244402
-0.245976
-0.24727
-0.248673
-0.250309
-0.252243
-0.254518
-0.257152
-0.260151
-0.263517
-0.267249
-0.271346
-0.275804
-0.280623
-0.285797
-0.291323
-0.297195
-0.303405
-0.309943
-0.316797
-0.323951
-0.331387
-0.339086
-0.347022
-0.355169
-0.363499
-0.37198
-0.380579
-0.389259
-0.397982
-0.406705
-0.415383
-0.423981
-0.432487
-0.440875
-0.449009
-0.24251
-0.244795
-0.246272
-0.247483
-0.248801
-0.250347
-0.252189
-0.254368
-0.256902
-0.259799
-0.263061
-0.266686
-0.270674
-0.275024
-0.279735
-0.284805
-0.29023
-0.296007
-0.302131
-0.308593
-0.315384
-0.32249
-0.329898
-0.337589
-0.345542
-0.353735
-0.362142
-0.370734
-0.379479
-0.388345
-0.397297
-0.406297
-0.415299
-0.424261
-0.433169
-0.442038
-0.450815
-0.243929
-0.245974
-0.247303
-0.248402
-0.249613
-0.251052
-0.252787
-0.254857
-0.257283
-0.260071
-0.263223
-0.266739
-0.270619
-0.274863
-0.279471
-0.284442
-0.289777
-0.295471
-0.301523
-0.307926
-0.314672
-0.321752
-0.329154
-0.336862
-0.344858
-0.353121
-0.361627
-0.370348
-0.379256
-0.388318
-0.3975
-0.406769
-0.416082
-0.425381
-0.434628
-0.443884
-0.453292
-0.246081
-0.247805
-0.248943
-0.249905
-0.250988
-0.252304
-0.253916
-0.255866
-0.258172
-0.26084
-0.263873
-0.267271
-0.271035
-0.275166
-0.279665
-0.284534
-0.289772
-0.295379
-0.301354
-0.307693
-0.314391
-0.321439
-0.328828
-0.336544
-0.344571
-0.352888
-0.361474
-0.370302
-0.379341
-0.388559
-0.397921
-0.407394
-0.41694
-0.426499
-0.43598
-0.44543
-0.455274
-0.24877
-0.250116
-0.251029
-0.251833
-0.252772
-0.253949
-0.255427
-0.257242
-0.259415
-0.26195
-0.264851
-0.268117
-0.271752
-0.275755
-0.280131
-0.28488
-0.290005
-0.295506
-0.301385
-0.307639
-0.314263
-0.321253
-0.328599
-0.336289
-0.344307
-0.352636
-0.361251
-0.370127
-0.379233
-0.388534
-0.397992
-0.407569
-0.417231
-0.426928
-0.436548
-0.446008
-0.455854
-0.25178
-0.252714
-0.25338
-0.25401
-0.254791
-0.255815
-0.257143
-0.25881
-0.260833
-0.263218
-0.265968
-0.269084
-0.272566
-0.276419
-0.280645
-0.285247
-0.290229
-0.295593
-0.30134
-0.307469
-0.313979
-0.320864
-0.328116
-0.335725
-0.343674
-0.351947
-0.360518
-0.369363
-0.378448
-0.387737
-0.39719
-0.406761
-0.41641
-0.426095
-0.43574
-0.445163
-0.454516
-0.254891
-0.255406
-0.255817
-0.256261
-0.256872
-0.257731
-0.258894
-0.260393
-0.262246
-0.264459
-0.267033
-0.269971
-0.273273
-0.276943
-0.280985
-0.285403
-0.290201
-0.295383
-0.300952
-0.306906
-0.313247
-0.319968
-0.327062
-0.33452
-0.342326
-0.350462
-0.358904
-0.367624
-0.376589
-0.385762
-0.395099
-0.404552
-0.414071
-0.423607
-0.433104
-0.442411
-0.451468
-0.257909
-0.258021
-0.25818
-0.258436
-0.258867
-0.259547
-0.260526
-0.261836
-0.263494
-0.265506
-0.267874
-0.2706
-0.273687
-0.277136
-0.280954
-0.285145
-0.289713
-0.294664
-0.300001
-0.305725
-0.311835
-0.318328
-0.325197
-0.332431
-0.340016
-0.347932
-0.356155
-0.364657
-0.373404
-0.382356
-0.39147
-0.400696
-0.409979
-0.419263
-0.428485
-0.437643
-0.446158
-0.260672
-0.260426
-0.260348
-0.260416
-0.260662
-0.261148
-0.261923
-0.263018
-0.264451
-0.266228
-0.268355
-0.270832
-0.273663
-0.276851
-0.280401
-0.28432
-0.288611
-0.293282
-0.298336
-0.303775
-0.309599
-0.315804
-0.322384
-0.329328
-0.336622
-0.344245
-0.352173
-0.360377
-0.368822
-0.377467
-0.386267
-0.395174
-0.404128
-0.413089
-0.421914
-0.430853
-0.4388
-0.263068
-0.262524
-0.262237
-0.262125
-0.262184
-0.262464
-0.263014
-0.263866
-0.265039
-0.266545
-0.26839
-0.270577
-0.273111
-0.275995
-0.279236
-0.28284
-0.286812
-0.29116
-0.295887
-0.300996
-0.306488
-0.312359
-0.318604
-0.32521
-0.332163
-0.339443
-0.347025
-0.354878
-0.362968
-0.371252
-0.379685
-0.388223
-0.396795
-0.405414
-0.413749
-0.422385
-0.429758
-0.265031
-0.264264
-0.263806
-0.263532
-0.263405
-0.263471
-0.263776
-0.264356
-0.265235
-0.26643
-0.267952
-0.269807
-0.272002
-0.274543
-0.277437
-0.28069
-0.284309
-0.288302
-0.292673
-0.297425
-0.302559
-0.308072
-0.313958
-0.320205
-0.326799
-0.333719
-0.34094
-0.348431
-0.356156
-0.364077
-0.372136
-0.380298
-0.388445
-0.39667
-0.404559
-0.412897
-0.41959
-0.26654
-0.265636
-0.265053
-0.264638
-0.264334
-0.264182
-0.264228
-0.264512
-0.265065
-0.265913
-0.267073
-0.268557
-0.270377
-0.272541
-0.275057
-0.277935
-0.281181
-0.284803
-0.288807
-0.293196
-0.297971
-0.303129
-0.308663
-0.314565
-0.320817
-0.3274
-0.334286
-0.341448
-0.348843
-0.356434
-0.364163
-0.372016
-0.379793
-0.387719
-0.395034
-0.403043
-0.408845
-0.267615
-0.26666
-0.266001
-0.265473
-0.265008
-0.264641
-0.264421
-0.264393
-0.264598
-0.265071
-0.265839
-0.266924
-0.268341
-0.270105
-0.272228
-0.274719
-0.277588
-0.280844
-0.284492
-0.288535
-0.292976
-0.297812
-0.303035
-0.308636
-0.314599
-0.320905
-0.327509
-0.334397
-0.341528
-0.348855
-0.356291
-0.363843
-0.371228
-0.378816
-0.385512
-0.393095
-0.397878
-0.268306
-0.267381
-0.266694
-0.266084
-0.265478
-0.264908
-0.264426
-0.264083
-0.263931
-0.264017
-0.264381
-0.265052
-0.266057
-0.267416
-0.269144
-0.271257
-0.273766
-0.27668
-0.280006
-0.283747
-0.287904
-0.292475
-0.297451
-0.302816
-0.308551
-0.314631
-0.321039
-0.327714
-0.334602
-0.341654
-0.348759
-0.355934
-0.362839
-0.369905
-0.375914
-0.382783
-0.386613
-0.268687
-0.267863
-0.267192
-0.266526
-0.265802
-0.265047
-0.264317
-0.263672
-0.263174
-0.262882
-0.262848
-0.263116
-0.263721
-0.26469
-0.266048
-0.267813
-0.269999
-0.272617
-0.275675
-0.279175
-0.283116
-0.28749
-0.292285
-0.297483
-0.303055
-0.308961
-0.315155
-0.321577
-0.328154
-0.334821
-0.341456
-0.34805
-0.354298
-0.36054
-0.36577
-0.371547
-0.37454
-0.268853
-0.268185
-0.267562
-0.266864
-0.266041
-0.265124
-0.264171
-0.263249
-0.262434
-0.261795
-0.261397
-0.261295
-0.261537
-0.26216
-0.263193
-0.264661
-0.266581
-0.268965
-0.27182
-0.275143
-0.27893
-0.283166
-0.287826
-0.292872
-0.298262
-0.303937
-0.309831
-0.315866
-0.321954
-0.328014
-0.333937
-0.339684
-0.345058
-0.350239
-0.354591
-0.359033
-0.361112
-0.268922
-0.268443
-0.267885
-0.267168
-0.266263
-0.265207
-0.264061
-0.262903
-0.261814
-0.260878
-0.26017
-0.259758
-0.259698
-0.260036
-0.26081
-0.262048
-0.263769
-0.265982
-0.268689
-0.271885
-0.275548
-0.279648
-0.284142
-0.288975
-0.29408
-0.29938
-0.304786
-0.310207
-0.315549
-0.320726
-0.325659
-0.330309
-0.334599
-0.338634
-0.342093
-0.345413
-0.346781
-0.269029
-0.268744
-0.268254
-0.267522
-0.266548
-0.265374
-0.26407
-0.26272
-0.261414
-0.260244
-0.259295
-0.258644
-0.258356
-0.258484
-0.259069
-0.260141
-0.261716
-0.263801
-0.266386
-0.269451
-0.272958
-0.276859
-0.281088
-0.28557
-0.290216
-0.294931
-0.299617
-0.304177
-0.308526
-0.312585
-0.316317
-0.319687
-0.322732
-0.32554
-0.328086
-0.330699
-0.331943
-0.269318
-0.269209
-0.268774
-0.268021
-0.266984
-0.265715
-0.264288
-0.262794
-0.261331
-0.259996
-0.258881
-0.258069
-0.257629
-0.257617
-0.258078
-0.259037
-0.260505
-0.262476
-0.264927
-0.267819
-0.271096
-0.274687
-0.278507
-0.28246
-0.286446
-0.290365
-0.294122
-0.29763
-0.300826
-0.303654
-0.306111
-0.308164
-0.309908
-0.311309
-0.312605
-0.313993
-0.315374
-0.458025
-0.467315
-0.475628
-0.482727
-0.488538
-0.492906
-0.495748
-0.496953
-0.496442
-0.494129
-0.489951
-0.483847
-0.47578
-0.465726
-0.453656
-0.439533
-0.423259
-0.404939
-0.384628
-0.361944
-0.336903
-0.309361
-0.279197
-0.246491
-0.211473
-0.174631
-0.136794
-0.099199
-0.0632885
-0.030518
-0.0020688
0.0213748
0.0396784
0.0531753
0.0624903
0.0683568
0.0714923
0.072543
0.0720595
0.0704823
0.0681471
0.0653074
0.0621534
0.0588267
0.0554309
0.0520413
0.0487112
0.0454783
0.0423676
0.0393963
0.0365742
0.0339075
0.0313981
0.0290463
0.0268492
0.0248041
0.0229054
0.0211488
0.0195268
0.0180336
0.0166613
0.0154022
0.0142481
0.0131901
0.0122213
0.0113322
0.0105166
0.00976528
0.00907349
0.00843327
0.00784208
0.00729173
0.00678252
0.00630588
0.00586388
0.00544626
0.00505506
0.00468011
0.00432587
0.00398384
0.00366085
0.00334745
0.00305132
0.00276015
0.00248331
0.00220454
0.00193366
0.00165729
0.00138652
0.00109455
0.000808371
0.000490789
0.000178583
-0.460763
-0.47077
-0.479875
-0.48772
-0.494267
-0.499343
-0.502857
-0.504696
-0.504779
-0.503014
-0.499337
-0.493695
-0.486039
-0.476335
-0.464572
-0.450828
-0.434845
-0.417149
-0.397213
-0.374634
-0.349977
-0.322696
-0.292724
-0.260086
-0.225
-0.187966
-0.149856
-0.111939
-0.0757189
-0.0426625
-0.0139144
0.00989955
0.0286986
0.0428366
0.0529236
0.0596575
0.0637116
0.0656844
0.0660822
0.0653174
0.063716
0.0615296
0.0589492
0.0561205
0.0531534
0.0501306
0.0471125
0.044144
0.0412563
0.0384725
0.0358075
0.033272
0.0308718
0.0286108
0.0264892
0.0245067
0.0226604
0.0209475
0.0193622
0.0179
0.0165539
0.0153172
0.0141822
0.0131407
0.0121859
0.0113091
0.010504
0.00976183
0.00907781
0.00844433
0.00785868
0.00731298
0.00680734
0.00633359
0.00589374
0.00547782
0.00508771
0.00471332
0.00435891
0.00401627
0.00369191
0.00337714
0.00307884
0.00278593
0.00250644
0.00222604
0.00195061
0.00167341
0.00139907
0.00110538
0.000815155
0.000495853
0.00017903
-0.464332
-0.474885
-0.484626
-0.493059
-0.500178
-0.505796
-0.50981
-0.512114
-0.512644
-0.511295
-0.508001
-0.502744
-0.495436
-0.485939
-0.474361
-0.4613
-0.445347
-0.427993
-0.408319
-0.38623
-0.361755
-0.334655
-0.304821
-0.272257
-0.237176
-0.200101
-0.161943
-0.124005
-0.0877986
-0.0547592
-0.0259548
-0.00192807
0.0172919
0.0320602
0.0429471
0.0505925
0.0556103
0.0585468
0.059865
0.059946
0.0591024
0.057587
0.0555947
0.0532765
0.0507491
0.048103
0.0454064
0.0427112
0.0400555
0.0374678
0.0349685
0.0325726
0.0302897
0.0281271
0.026088
0.0241746
0.0223861
0.0207216
0.0191769
0.0177488
0.0164314
0.015219
0.0141045
0.0130805
0.0121406
0.0112768
0.0104826
0.00975013
0.00907428
0.00844801
0.0078683
0.00732778
0.00682615
0.00635584
0.00591853
0.00550484
0.00511626
0.00474303
0.00438894
0.00404625
0.00372094
0.00340518
0.003105
0.0028106
0.00252865
0.00224696
0.00197435
0.00168926
0.00141131
0.00111596
0.000821771
0.000500832
0.000179425
-0.467517
-0.478478
-0.488687
-0.497611
-0.505207
-0.511303
-0.515759
-0.518424
-0.519328
-0.518341
-0.515377
-0.510472
-0.503297
-0.494094
-0.483126
-0.469919
-0.454669
-0.437438
-0.417969
-0.39613
-0.371827
-0.344876
-0.31516
-0.282692
-0.247703
-0.210754
-0.172797
-0.135142
-0.0992688
-0.0665308
-0.0378878
-0.0137892
0.0057764
0.021144
0.0328238
0.0413826
0.0473668
0.0512686
0.0535127
0.0544515
0.0543767
0.0535383
0.0521392
0.0503368
0.0482549
0.0459914
0.0436222
0.0412063
0.0387885
0.0364031
0.0340754
0.0318247
0.0296649
0.0276061
0.0256545
0.0238147
0.0220882
0.0204755
0.0189746
0.017583
0.0162963
0.0151097
0.014017
0.0130115
0.0120873
0.0112368
0.0104541
0.00973164
0.0090643
0.00844557
0.00787215
0.0073372
0.00683993
0.00637346
0.00593901
0.00552796
0.00514125
0.00476966
0.00441631
0.00407404
0.00374816
0.00343178
0.00313
0.00283434
0.00255011
0.0022671
0.00199091
0.00170473
0.00142335
0.00112636
0.000828292
0.000505758
0.000179799
-0.46934
-0.480573
-0.491124
-0.500477
-0.50849
-0.515029
-0.51995
-0.522882
-0.524153
-0.523536
-0.520902
-0.516181
-0.509468
-0.500797
-0.489955
-0.477075
-0.46211
-0.44507
-0.425803
-0.40416
-0.380006
-0.353183
-0.323591
-0.291273
-0.256504
-0.219889
-0.182406
-0.145339
-0.110087
-0.077885
-0.0495682
-0.025499
-0.00564503
0.0102876
0.0227345
0.032182
0.0391075
0.0439493
0.0470973
0.048882
0.0495763
0.0494156
0.0486087
0.0473227
0.0456885
0.0438109
0.0417732
0.0396412
0.0374661
0.0352876
0.0331363
0.0310356
0.0290033
0.0270525
0.0251925
0.0234301
0.0217689
0.0202111
0.0187564
0.0174036
0.0161495
0.0149901
0.0139204
0.0129344
0.0120265
0.0111901
0.0104192
0.00970712
0.00904863
0.00843772
0.00787087
0.00734178
0.00684918
0.00638689
0.00595556
0.00554747
0.0051629
0.00479333
0.00444107
0.00409967
0.00377357
0.00345692
0.00315381
0.00285711
0.00257079
0.00228644
0.00200698
0.00171981
0.00143517
0.00113657
0.000834726
0.000510626
0.00018016
-0.468879
-0.480506
-0.491238
-0.500967
-0.509381
-0.5163
-0.521593
-0.525064
-0.526714
-0.526495
-0.524237
-0.519837
-0.513533
-0.505154
-0.494711
-0.48217
-0.46751
-0.450701
-0.431626
-0.410146
-0.386118
-0.359411
-0.329967
-0.297883
-0.263498
-0.227461
-0.190744
-0.154559
-0.120179
-0.088698
-0.0608333
-0.0368774
-0.0167965
-0.000352284
0.0128098
0.0230951
0.0309133
0.0366516
0.0406643
0.0432644
0.0447134
0.0452291
0.0450131
0.0442422
0.0430566
0.0415675
0.0398649
0.038021
0.036093
0.0341261
0.0321556
0.0302093
0.0283085
0.0264696
0.0247047
0.0230229
0.0214299
0.0199297
0.0185236
0.0172114
0.0159916
0.0148609
0.0138153
0.0128496
0.0119589
0.0111371
0.0103786
0.00967724
0.00902794
0.00842509
0.00786508
0.00734208
0.00685441
0.00639654
0.00596857
0.00556365
0.00518145
0.00481419
0.00446335
0.00412315
0.00379718
0.00348056
0.0031764
0.00287889
0.00259065
0.00230499
0.00202261
0.00173449
0.00144678
0.00114657
0.000841071
0.000515424
0.000180515
-0.465551
-0.477712
-0.488624
-0.498728
-0.507564
-0.514885
-0.520572
-0.524502
-0.526602
-0.526816
-0.52495
-0.521104
-0.515219
-0.507275
-0.497222
-0.485041
-0.4707
-0.454144
-0.435266
-0.413935
-0.390023
-0.363439
-0.334189
-0.302457
-0.268665
-0.233499
-0.197872
-0.162855
-0.129556
-0.0989319
-0.071607
-0.0478308
-0.0275851
-0.0106934
0.00311724
0.0141749
0.0228254
0.0294076
0.0342405
0.0376172
0.0397923
0.0409766
0.0413523
0.0410966
0.0403601
0.0392619
0.0378982
0.0363467
0.0346705
0.0329197
0.0311347
0.0293471
0.0275819
0.0258587
0.0241924
0.0225942
0.0210723
0.0196321
0.0182767
0.0170072
0.0158232
0.0147226
0.0137023
0.0127579
0.0118851
0.0110784
0.0103329
0.00964258
0.0090028
0.00840825
0.00785532
0.0073386
0.00685609
0.00640283
0.00597842
0.00557685
0.0051972
0.00483246
0.00448328
0.00414459
0.00381904
0.00350273
0.00319779
0.00289965
0.00260968
0.00232277
0.00203781
0.00174878
0.00145816
0.00115635
0.000847337
0.000520146
0.000180877
-0.459627
-0.471963
-0.48317
-0.493629
-0.502854
-0.510582
-0.516708
-0.521124
-0.523712
-0.524386
-0.523124
-0.519816
-0.51444
-0.506958
-0.497343
-0.48556
-0.47156
-0.455275
-0.436605
-0.415438
-0.391673
-0.36527
-0.336308
-0.305064
-0.272068
-0.238065
-0.203852
-0.170275
-0.138232
-0.108562
-0.0818377
-0.0582988
-0.0379545
-0.02069
-0.00630794
0.00544782
0.0148635
0.0222322
0.0278394
0.0319543
0.034823
0.0366542
0.0376209
0.0378832
0.0375977
0.0368929
0.0358717
0.0346171
0.0331976
0.0316681
0.0300733
0.0284489
0.0268237
0.02522
0.0236557
0.0221444
0.0206963
0.0193186
0.018016
0.016791
0.0156446
0.0145754
0.0135815
0.0126594
0.0118053
0.0110145
0.0102824
0.00960354
0.00897364
0.00838762
0.00784201
0.00733174
0.00685461
0.00640612
0.00598546
0.00558735
0.00521042
0.00484835
0.00450104
0.00416408
0.00383923
0.00352344
0.00321798
0.00291938
0.00262788
0.0023398
0.00205261
0.00176268
0.00146932
0.0011659
0.000853531
0.000524784
0.000181257
-0.451297
-0.463594
-0.475107
-0.485897
-0.495465
-0.503572
-0.510138
-0.515053
-0.518176
-0.519439
-0.518728
-0.515978
-0.511139
-0.504169
-0.495028
-0.483665
-0.47002
-0.454021
-0.435581
-0.414616
-0.391075
-0.364984
-0.336503
-0.305989
-0.274017
-0.241364
-0.208798
-0.176882
-0.14624
-0.117597
-0.0915176
-0.0682666
-0.0478901
-0.0303298
-0.0154564
-0.00307866
0.0070343
0.015132
0.0214672
0.0262846
0.0298156
0.0322676
0.0338134
0.0345977
0.0347674
0.0344593
0.0337844
0.0328314
0.0316735
0.0303703
0.0289707
0.0275142
0.0260332
0.0245531
0.0230945
0.0216732
0.0203018
0.018989
0.0177416
0.016563
0.0154557
0.0144193
0.0134531
0.0125542
0.0117197
0.0109453
0.0102273
0.00956034
0.00894069
0.00836348
0.00782545
0.0073218
0.00685025
0.00640667
0.00598995
0.00559541
0.00522134
0.00486204
0.00451679
0.00418171
0.0038578
0.00354274
0.00323702
0.00293808
0.00264527
0.00235609
0.00206702
0.00177619
0.00148027
0.00117521
0.000859665
0.000529329
0.000181672
-0.44121
-0.45322
-0.464927
-0.475994
-0.485838
-0.494256
-0.501212
-0.506601
-0.510207
-0.512038
-0.511866
-0.509671
-0.505387
-0.498939
-0.490272
-0.479328
-0.466043
-0.45035
-0.432188
-0.411517
-0.388344
-0.362773
-0.335038
-0.305545
-0.274878
-0.243754
-0.212906
-0.182752
-0.153606
-0.126047
-0.100651
-0.0777356
-0.0573922
-0.039613
-0.0243274
-0.0114027
-0.000659188
0.00811104
0.0151285
0.0206139
0.0247802
0.0278281
0.0299321
0.0312363
0.0318672
0.0319605
0.031636
0.0309891
0.0300978
0.0290258
0.0278264
0.0265426
0.0252102
0.0238576
0.0225084
0.0211804
0.0198886
0.0186433
0.0174532
0.0163229
0.0152564
0.0142544
0.0133171
0.0124423
0.0116283
0.0108711
0.0101676
0.00951312
0.00890412
0.00833601
0.00780583
0.00730899
0.00684322
0.0064047
0.0059921
0.00560123
0.00523015
0.00487369
0.00453066
0.0041976
0.00387485
0.00356065
0.00325491
0.00295578
0.00266187
0.00237164
0.00208109
0.00178933
0.00149099
0.00118425
0.000865749
0.00053377
0.00018214
-0.430106
-0.441591
-0.453257
-0.464485
-0.474498
-0.483091
-0.490347
-0.496411
-0.500249
-0.502427
-0.502712
-0.501033
-0.497254
-0.491284
-0.483064
-0.472529
-0.45962
-0.44429
-0.426513
-0.406301
-0.383727
-0.358958
-0.33228
-0.30411
-0.274991
-0.245545
-0.216411
-0.187988
-0.160362
-0.133928
-0.109254
-0.0867197
-0.0664714
-0.0485465
-0.0329244
-0.0195244
-0.00821435
0.00117393
0.00882936
0.0149483
0.0197251
0.0233476
0.0259901
0.0277992
0.0288952
0.0293966
0.0294274
0.0290911
0.0284711
0.0276352
0.0266405
0.0255339
0.0243545
0.0231335
0.0218972
0.0206658
0.0194564
0.0182813
0.0171507
0.0160707
0.0150468
0.0140804
0.0131732
0.0123238
0.0115311
0.0107919
0.0101036
0.00946195
0.00886402
0.00830533
0.00778328
0.00729345
0.00683368
0.00640038
0.00599208
0.00560497
0.00523702
0.00488345
0.00454277
0.00421182
0.00389043
0.00357724
0.00327169
0.00297249
0.00267768
0.00238643
0.00209494
0.0018021
0.00150148
0.00119301
0.000871792
0.000538093
0.000182685
-0.418517
-0.429151
-0.440491
-0.451757
-0.461795
-0.470331
-0.477538
-0.483266
-0.488067
-0.490631
-0.491329
-0.490083
-0.48673
-0.48119
-0.473399
-0.463295
-0.450832
-0.435994
-0.418793
-0.399291
-0.377615
-0.353969
-0.328655
-0.302059
-0.274654
-0.246956
-0.2195
-0.192693
-0.166545
-0.141252
-0.117337
-0.0952305
-0.0751364
-0.057135
-0.0412483
-0.0274413
-0.0156262
-0.00567272
0.00257717
0.00929519
0.0146571
0.0188359
0.0219987
0.0242956
0.02585
0.0267659
0.0271586
0.027138
0.0267941
0.0261991
0.025414
0.024489
0.0234666
0.022381
0.0212611
0.0201295
0.0190055
0.017903
0.0168341
0.0158064
0.0148266
0.0138975
0.0130217
0.0121986
0.0114281
0.0107076
0.0100351
0.00940691
0.00882046
0.00827155
0.00775791
0.00727531
0.00682177
0.00639383
0.00599002
0.00560677
0.00524207
0.00489144
0.00455326
0.00422447
0.00390463
0.00359253
0.0032874
0.00298822
0.00269274
0.00240047
0.00210878
0.0018145
0.00151172
0.00120147
0.000877808
0.000542281
0.000183337
-0.406471
-0.41574
-0.426552
-0.437801
-0.447689
-0.456028
-0.463495
-0.469364
-0.47393
-0.476667
-0.47768
-0.476774
-0.473801
-0.468689
-0.461371
-0.451796
-0.439938
-0.425808
-0.409453
-0.390969
-0.370507
-0.348281
-0.324569
-0.299707
-0.274084
-0.248129
-0.222284
-0.196954
-0.172196
-0.148039
-0.124915
-0.103283
-0.0833997
-0.0653873
-0.0493043
-0.0351555
-0.0228942
-0.0124267
-0.00362487
0.00365836
0.00957943
0.0142966
0.0179659
0.0207358
0.022734
0.0240654
0.0248271
0.0251283
0.025066
0.0247173
0.0241468
0.0234081
0.022547
0.0216006
0.0206006
0.0195719
0.0185359
0.0175085
0.0165036
0.0155301
0.0145962
0.0137057
0.0128625
0.0120668
0.0113195
0.0106184
0.0099624
0.00934809
0.00877357
0.00823478
0.00772984
0.0072547
0.00680759
0.00638518
0.00598603
0.00560674
0.00524543
0.00489778
0.00456221
0.00423563
0.00391751
0.00360658
0.00330208
0.00300299
0.00270712
0.00241377
0.00212287
0.00182653
0.0015217
0.0012096
0.000883806
0.000546317
0.000184135
-0.393556
-0.400839
-0.411111
-0.422316
-0.431804
-0.439681
-0.446696
-0.453076
-0.457561
-0.460481
-0.461764
-0.461184
-0.458631
-0.454031
-0.447321
-0.43846
-0.427442
-0.414293
-0.399079
-0.381905
-0.362922
-0.342324
-0.320349
-0.297278
-0.273426
-0.249153
-0.224836
-0.200859
-0.177379
-0.154329
-0.13202
-0.110907
-0.0912897
-0.0733273
-0.0571114
-0.0426814
-0.0300285
-0.0190943
-0.00978006
-0.00196314
0.00449298
0.00973157
0.0138966
0.0171294
0.0195606
0.0212986
0.0224339
0.023063
0.0232869
0.0231889
0.0228377
0.0222902
0.0215949
0.0207919
0.0199154
0.0189929
0.0180478
0.0170981
0.0161592
0.0152419
0.0143554
0.0135051
0.0126957
0.0119285
0.0112052
0.0105243
0.00988541
0.00928557
0.00872339
0.0081951
0.00769916
0.00723172
0.00679126
0.00637453
0.00598024
0.005605
0.00524721
0.00490258
0.00456973
0.00424539
0.00392915
0.00361943
0.00331577
0.00301681
0.00272085
0.00242656
0.00213752
0.00183803
0.00153136
0.00121737
0.000889798
0.000550179
0.00018513
-0.379252
-0.384304
-0.394254
-0.405237
-0.414089
-0.421627
-0.428654
-0.43476
-0.439269
-0.442388
-0.443946
-0.443768
-0.44175
-0.437815
-0.431904
-0.423983
-0.414047
-0.402129
-0.388292
-0.372633
-0.355283
-0.336405
-0.316197
-0.29489
-0.272747
-0.250074
-0.227198
-0.204471
-0.182137
-0.160136
-0.138651
-0.118095
-0.0987918
-0.0809349
-0.0646446
-0.0499901
-0.0369979
-0.0256435
-0.0158567
-0.00753879
-0.000573428
0.00516694
0.00981426
0.0135004
0.0163537
0.0184869
0.0199931
0.0209544
0.0214676
0.0216218
0.0214916
0.0211377
0.0206114
0.0199552
0.0192055
0.0183921
0.0175408
0.0166712
0.0158006
0.0149413
0.0141041
0.0132954
0.012521
0.0117835
0.0110851
0.0104253
0.00980412
0.00921931
0.00866994
0.00815254
0.00766591
0.00720642
0.00677283
0.00636196
0.0059727
0.00560163
0.00524752
0.00490594
0.00457594
0.00425385
0.00393964
0.00363115
0.00332852
0.00302972
0.00273395
0.00243903
0.00214979
0.00184896
0.00154067
0.00122479
0.000895797
0.000553849
0.000186384
-0.363136
-0.366839
-0.376713
-0.386983
-0.394966
-0.402176
-0.409116
-0.415065
-0.419722
-0.423088
-0.425008
-0.425344
-0.423988
-0.420862
-0.415911
-0.409094
-0.400404
-0.389862
-0.377517
-0.363449
-0.347761
-0.330587
-0.312091
-0.292465
-0.271935
-0.250761
-0.229239
-0.207685
-0.186372
-0.165341
-0.14467
-0.124704
-0.105766
-0.0880766
-0.071779
-0.0569668
-0.0436986
-0.0319825
-0.0217757
-0.0130025
-0.00556622
0.000644623
0.00574968
0.00987097
0.0131305
0.0156435
0.0175091
0.0188066
0.0196174
0.0200287
0.0201214
0.0199618
0.0196053
0.019097
0.0184757
0.0177735
0.0170176
0.0162301
0.0154295
0.01463
0.0138433
0.0130775
0.0123394
0.0116325
0.0109598
0.0103218
0.00971899
0.00914976
0.0086136
0.00810746
0.00763042
0.00717913
0.00675261
0.00634773
0.00596366
0.00559686
0.00524653
0.00490805
0.004581
0.00426116