/*--------------------------------*- C++ -*----------------------------------*\
| =========                 |                                                 |
| \\      /  F ield         | OpenFOAM: The Open Source CFD Toolbox           |
|  \\    /   O peration     | Version:  2512                                  |
|   \\  /    A nd           | Website:  www.openfoam.com                      |
|    \\/     M anipulation  |                                                 |
\*---------------------------------------------------------------------------*/
FoamFile
{
    version     2.0;
    format      ascii;
    arch        "LSB;label=32;scalar=64";
    class       volScalarField;
    location    "113";
    object      p;
}
// * * * * * * * * * * * * * * * * * * * * * * * * * * * * * * * * * * * * * //

dimensions      [0 2 -2 0 0 0 0];

internalField   nonuniform List<scalar> 
13248
(
-0.622542
-0.620717
-0.617293
-0.613043
-0.60888
-0.605563
-0.603392
-0.601989
-0.600298
-0.596837
-0.590101
-0.578953
-0.562889
-0.542094
-0.517283
-0.489415
-0.459444
-0.428176
-0.396243
-0.364151
-0.332064
-0.300497
-0.267983
-0.235294
-0.630803
-0.62867
-0.625229
-0.621007
-0.6166
-0.612353
-0.608124
-0.603221
-0.596599
-0.587198
-0.574263
-0.557525
-0.53721
-0.513894
-0.488288
-0.461072
-0.432812
-0.403962
-0.374877
-0.345835
-0.317064
-0.28873
-0.260707
-0.233925
-0.64186
-0.639001
-0.635238
-0.630761
-0.625724
-0.619957
-0.61288
-0.603704
-0.591751
-0.576682
-0.558547
-0.537718
-0.514737
-0.490169
-0.464506
-0.438142
-0.411391
-0.384513
-0.357718
-0.331233
-0.305153
-0.279743
-0.254773
-0.230272
-0.655418
-0.651488
-0.647067
-0.641924
-0.635648
-0.627533
-0.616741
-0.602747
-0.585548
-0.56557
-0.543441
-0.519803
-0.495189
-0.47
-0.444516
-0.418943
-0.393445
-0.368165
-0.343246
-0.318806
-0.294969
-0.271905
-0.249418
-0.227934
-0.671339
-0.666091
-0.660727
-0.654424
-0.646111
-0.634657
-0.619354
-0.600322
-0.578337
-0.554382
-0.529327
-0.503794
-0.478169
-0.452672
-0.427428
-0.402521
-0.378023
-0.354012
-0.330559
-0.307749
-0.285659
-0.26435
-0.243724
-0.223892
-0.689612
-0.682905
-0.676323
-0.668234
-0.656869
-0.641009
-0.62058
-0.596588
-0.570432
-0.543334
-0.516117
-0.48924
-0.462913
-0.437213
-0.412165
-0.387779
-0.36407
-0.341061
-0.318782
-0.297268
-0.276554
-0.256675
-0.237571
-0.21937
-0.710162
-0.701917
-0.693763
-0.68306
-0.667459
-0.646221
-0.620361
-0.591729
-0.562036
-0.532441
-0.503567
-0.475668
-0.448804
-0.422951
-0.398064
-0.3741
-0.351028
-0.328827
-0.307488
-0.287007
-0.267385
-0.248606
-0.230661
-0.213544
-0.732616
-0.72279
-0.71258
-0.698208
-0.677176
-0.649893
-0.618639
-0.585827
-0.553149
-0.521518
-0.491299
-0.462562
-0.435248
-0.409258
-0.384497
-0.360878
-0.338334
-0.316808
-0.296254
-0.276636
-0.257917
-0.240075
-0.223098
-0.206882
-0.756211
-0.74476
-0.731849
-0.712617
-0.685172
-0.651601
-0.615275
-0.578792
-0.543588
-0.51025
-0.4789
-0.449455
-0.421764
-0.39567
-0.371034
-0.347732
-0.32566
-0.304731
-0.284868
-0.266003
-0.248077
-0.231046
-0.214864
-0.19935
-0.779738
-0.766605
-0.750176
-0.724945
-0.690486
-0.650766
-0.609851
-0.570188
-0.532828
-0.498036
-0.465723
-0.435682
-0.40769
-0.381538
-0.357046
-0.334056
-0.312436
-0.292071
-0.272859
-0.254708
-0.237539
-0.221292
-0.205875
-0.191086
-0.801606
-0.786703
-0.76579
-0.733602
-0.691918
-0.646425
-0.601443
-0.559041
-0.519849
-0.483837
-0.450739
-0.420246
-0.392066
-0.365946
-0.341667
-0.319039
-0.297902
-0.278119
-0.259565
-0.242132
-0.225733
-0.210288
-0.195667
-0.181707
-0.819977
-0.803167
-0.776788
-0.73692
-0.6881
-0.637336
-0.588823
-0.544121
-0.503442
-0.466486
-0.432836
-0.40209
-0.373895
-0.347952
-0.324006
-0.301838
-0.281267
-0.262132
-0.244289
-0.227621
-0.212038
-0.197464
-0.183764
-0.170835
-0.516418
-0.517233
-0.518594
-0.522494
-0.529522
-0.539593
-0.552428
-0.567625
-0.584603
-0.602569
-0.620542
-0.637435
-0.650758
-0.660206
-0.664308
-0.661853
-0.651963
-0.634263
-0.609052
-0.577367
-0.540948
-0.50207
-0.463661
-0.427945
-0.546053
-0.545821
-0.547374
-0.552255
-0.560854
-0.573019
-0.588405
-0.606547
-0.626787
-0.648221
-0.6697
-0.689829
-0.706943
-0.719508
-0.725956
-0.724794
-0.714799
-0.695254
-0.666083
-0.628094
-0.583157
-0.533719
-0.484135
-0.433583
-0.57126
-0.569697
-0.571115
-0.576342
-0.585671
-0.598906
-0.615622
-0.635285
-0.657188
-0.680349
-0.703557
-0.725378
-0.744133
-0.758114
-0.765542
-0.764642
-0.753814
-0.731854
-0.698335
-0.653952
-0.600845
-0.541981
-0.481736
-0.421505
-0.590773
-0.587871
-0.588701
-0.593579
-0.602705
-0.615878
-0.632628
-0.652365
-0.674343
-0.697591
-0.720911
-0.742896
-0.761795
-0.775973
-0.783503
-0.782361
-0.770559
-0.74643
-0.709209
-0.659491
-0.599796
-0.533375
-0.465454
-0.397549
-0.604231
-0.600187
-0.600091
-0.603946
-0.611944
-0.623968
-0.63956
-0.658109
-0.678861
-0.700879
-0.723007
-0.743838
-0.761949
-0.775451
-0.782341
-0.780383
-0.767289
-0.74111
-0.700992
-0.647639
-0.583984
-0.513568
-0.442042
-0.37141
-0.612148
-0.607339
-0.606169
-0.608484
-0.614592
-0.624564
-0.638043
-0.654448
-0.673053
-0.692968
-0.713098
-0.732139
-0.748606
-0.760593
-0.765928
-0.762143
-0.746783
-0.717943
-0.675155
-0.619702
-0.555101
-0.485104
-0.415029
-0.346396
-0.615688
-0.610611
-0.608414
-0.608937
-0.612685
-0.62
-0.630726
-0.644392
-0.660335
-0.677709
-0.695439
-0.712349
-0.726715
-0.736515
-0.739346
-0.732573
-0.713848
-0.681727
-0.636561
-0.580414
-0.517352
-0.45106
-0.386195
-0.323594
-0.61633
-0.611481
-0.608476
-0.607255
-0.608545
-0.612987
-0.620702
-0.631404
-0.644523
-0.659239
-0.674609
-0.689098
-0.700842
-0.707541
-0.706588
-0.69548
-0.67245
-0.637042
-0.59066
-0.535996
-0.477058
-0.416801
-0.358844
-0.303252
-0.615558
-0.611324
-0.607822
-0.605154
-0.604249
-0.606016
-0.610863
-0.618722
-0.629145
-0.641391
-0.654154
-0.665706
-0.673846
-0.67605
-0.669837
-0.653352
-0.62587
-0.588155
-0.542409
-0.491495
-0.438758
-0.386013
-0.335849
-0.287098
-0.614711
-0.611288
-0.607588
-0.603909
-0.601335
-0.600958
-0.603414
-0.60883
-0.61681
-0.626368
-0.635951
-0.643487
-0.64657
-0.642845
-0.630507
-0.608774
-0.57808
-0.540063
-0.497018
-0.451397
-0.405442
-0.360169
-0.317414
-0.275031
-0.614966
-0.612338
-0.608653
-0.604424
-0.600817
-0.598983
-0.599651
-0.602964
-0.608385
-0.614667
-0.619958
-0.622048
-0.618769
-0.608467
-0.590381
-0.564799
-0.532906
-0.496479
-0.457298
-0.417083
-0.376999
-0.337915
-0.301145
-0.264234
-0.617327
-0.615306
-0.611732
-0.607352
-0.603284
-0.600575
-0.599837
-0.601034
-0.60336
-0.605325
-0.605023
-0.600562
-0.5905
-0.574174
-0.551793
-0.524266
-0.492885
-0.458985
-0.423668
-0.387915
-0.352134
-0.317239
-0.283577
-0.251092
-0.394362
-0.371469
-0.366263
-0.378086
-0.400372
-0.423377
-0.438008
-0.432785
-0.399773
-0.342952
-0.278292
-0.222295
-0.183604
-0.162195
-0.155627
-0.161413
-0.178546
-0.210779
-0.263318
-0.327383
-0.376549
-0.382169
-0.341639
-0.276846
-0.212541
-0.162971
-0.132596
-0.118363
-0.117419
-0.133286
-0.167804
-0.208207
-0.229861
-0.215533
-0.177451
-0.136822
-0.108582
-0.0953767
-0.0989877
-0.119359
-0.143091
-0.149446
-0.132328
-0.106798
-0.086407
-0.0727899
-0.0688342
-0.0683845
-0.0674926
-0.0614063
-0.0543893
-0.048603
-0.0497107
-0.0506808
-0.0475059
-0.0341861
-0.0279633
-0.0171702
-0.0146712
-0.00373796
-0.387129
-0.347388
-0.325431
-0.32176
-0.339704
-0.357865
-0.373616
-0.372028
-0.345318
-0.297568
-0.243179
-0.197039
-0.166015
-0.150433
-0.148758
-0.159043
-0.180704
-0.218012
-0.275547
-0.3432
-0.394845
-0.401634
-0.358977
-0.289657
-0.220514
-0.166587
-0.131854
-0.113408
-0.107815
-0.117434
-0.144404
-0.17845
-0.197003
-0.185076
-0.153668
-0.121195
-0.100591
-0.0944534
-0.105611
-0.134117
-0.164768
-0.173567
-0.152431
-0.119785
-0.0928921
-0.0731283
-0.063646
-0.0582246
-0.0550162
-0.0499851
-0.0460695
-0.0470545
-0.0539538
-0.0599295
-0.0587024
-0.0415149
-0.0305022
-0.0112563
-0.0060551
-0.00110645
-0.362877
-0.310735
-0.27391
-0.256376
-0.260101
-0.272489
-0.287614
-0.291558
-0.274366
-0.239081
-0.197866
-0.162971
-0.140233
-0.130859
-0.134319
-0.148873
-0.174001
-0.214014
-0.273116
-0.342074
-0.39586
-0.407037
-0.36609
-0.295171
-0.22319
-0.166651
-0.128705
-0.106536
-0.0965548
-0.100201
-0.119739
-0.147524
-0.163717
-0.154381
-0.129434
-0.104458
-0.0908832
-0.0917675
-0.110653
-0.147324
-0.184896
-0.196671
-0.171959
-0.131962
-0.0984873
-0.0730705
-0.0586242
-0.0486304
-0.0429865
-0.0386774
-0.0376198
-0.0454092
-0.0578959
-0.0686669
-0.0694496
-0.0486188
-0.0329114
-0.00561925
0.00240741
0.00144242
-0.329437
-0.269167
-0.223129
-0.191857
-0.178363
-0.181451
-0.19299
-0.199763
-0.19296
-0.171944
-0.145046
-0.12162
-0.107214
-0.103975
-0.112339
-0.130451
-0.157454
-0.197421
-0.255044
-0.323611
-0.3801
-0.396681
-0.361674
-0.29256
-0.220351
-0.163051
-0.12338
-0.0985234
-0.0846757
-0.082791
-0.0954538
-0.117336
-0.131483
-0.124764
-0.105568
-0.087012
-0.0794987
-0.0868359
-0.112941
-0.157574
-0.202137
-0.217451
-0.190127
-0.143068
-0.103065
-0.0725509
-0.0538165
-0.0397732
-0.0315468
-0.0276448
-0.0290921
-0.043566
-0.061427
-0.0767513
-0.0795693
-0.0553899
-0.0351758
-0.000424413
0.0106343
0.00391342
-0.29931
-0.233889
-0.180052
-0.138115
-0.113155
-0.103113
-0.104865
-0.111532
-0.112178
-0.102638
-0.0887032
-0.075881
-0.0692789
-0.0718275
-0.0845733
-0.10552
-0.133253
-0.171309
-0.22494
-0.290555
-0.349307
-0.37288
-0.346032
-0.282473
-0.212808
-0.15631
-0.116213
-0.0897717
-0.073261
-0.0664951
-0.0727684
-0.089176
-0.101511
-0.0971181
-0.0826969
-0.0692671
-0.066563
-0.079355
-0.111648
-0.163754
-0.215116
-0.234515
-0.206147
-0.152947
-0.106645
-0.0715836
-0.0492413
-0.0317645
-0.020842
-0.0170281
-0.0205077
-0.041425
-0.0644626
-0.0840476
-0.0889076
-0.0617434
-0.0372826
0.00417749
0.0185437
0.00631014
-0.276279
-0.211234
-0.156045
-0.107378
-0.0698873
-0.0469902
-0.0380509
-0.0379315
-0.0409915
-0.0388327
-0.0346154
-0.0300123
-0.0298537
-0.0375314
-0.0540226
-0.0770052
-0.104546
-0.139589
-0.187709
-0.24833
-0.307623
-0.338316
-0.32134
-0.265856
-0.201224
-0.147125
-0.107643
-0.0805944
-0.0624353
-0.0522037
-0.0528283
-0.0640505
-0.0747331
-0.0724006
-0.0615374
-0.0518087
-0.0524629
-0.069504
-0.106862
-0.165256
-0.222699
-0.246692
-0.21915
-0.161359
-0.10923
-0.0702044
-0.0449228
-0.0247074
-0.0110073
-0.00699088
-0.0119653
-0.038912
-0.0668953
-0.0904408
-0.0973294
-0.0675953
-0.0392142
0.00806686
0.0260543
0.00862371
-0.259416
-0.19863
-0.146576
-0.0983718
-0.0552911
-0.0204686
0.00196933
0.012188
0.0133921
0.0121102
0.0118317
0.0111162
0.00688356
-0.00432139
-0.0232547
-0.04717
-0.0737432
-0.105417
-0.147743
-0.202301
-0.260554
-0.298455
-0.290724
-0.244477
-0.186621
-0.136344
-0.0983976
-0.0714491
-0.0524652
-0.0398377
-0.0360043
-0.0424324
-0.0516634
-0.0548263
-0.0427458
-0.03531
-0.0379468
-0.0578492
-0.0984122
-0.161745
-0.224508
-0.253216
-0.228498
-0.1681
-0.110899
-0.0684823
-0.0408532
-0.018661
-0.00217842
0.00232895
-0.00353106
-0.0359906
-0.068688
-0.0958815
-0.104753
-0.0728677
-0.0409386
0.0111679
0.0330804
0.0108383
-0.246741
-0.192799
-0.145554
-0.0998612
-0.0572506
-0.0195037
0.0125166
0.035936
0.0472729
0.0495096
0.0480788
0.0440716
0.0372851
0.0244394
0.00472832
-0.0187637
-0.0435144
-0.0716785
-0.108159
-0.155915
-0.211705
-0.254972
-0.255269
-0.219371
-0.169746
-0.124513
-0.0889745
-0.0627102
-0.0435374
-0.0294661
-0.0221897
-0.0244419
-0.0317946
-0.0352111
-0.0263692
-0.0204782
-0.0237191
-0.044892
-0.0872543
-0.153205
-0.220155
-0.25357
-0.233416
-0.172835
-0.111704
-0.0664881
-0.0370007
-0.0135981
0.00553454
0.0107967
0.00461589
-0.0326401
-0.0697524
-0.100304
-0.111096
-0.0774801
-0.0424156
0.0134621
0.0395407
0.0129346
-0.237524
-0.190015
-0.147774
-0.105664
-0.0649389
-0.0274652
0.00570035
0.0345107
0.0577368
0.0707328
0.0736486
0.0693727
0.0619135
0.0491473
0.0302972
0.00835381
-0.0143429
-0.0398236
-0.0719282
-0.113949
-0.165801
-0.209958
-0.219339
-0.193082
-0.151755
-0.112101
-0.0796061
-0.0545585
-0.0356734
-0.021007
-0.011319
-0.00999626
-0.0152317
-0.0190623
-0.0130835
-0.00777115
-0.0104415
-0.0313933
-0.0734984
-0.13998
-0.210645
-0.248323
-0.234271
-0.17528
-0.111642
-0.0642585
-0.0333392
-0.00943148
0.0120451
0.0183265
0.0124862
-0.0288445
-0.0701872
-0.103738
-0.116644
-0.0813656
-0.0436405
0.0149448
0.045365
0.0148913
-0.232225
-0.191002
-0.153056
-0.114219
-0.0761047
-0.0398634
-0.00664765
0.0227943
0.0481299
0.0682448
0.0806809
0.0837167
0.0799582
0.0695615
0.053034
0.0335293
0.0132149
-0.0100118
-0.0386682
-0.0753455
-0.122634
-0.166288
-0.180344
-0.164041
-0.132173
-0.0991525
-0.0705143
-0.0472595
-0.0290744
-0.0144965
-0.00340543
0.000883607
-0.00197113
-0.00612008
-0.00279024
0.00263577
0.00113867
-0.0183224
-0.0589419
-0.123852
-0.194815
-0.237318
-0.228824
-0.174571
-0.11074
-0.0619628
-0.0300018
-0.00623707
0.0172843
0.0248221
0.0197578
-0.0246629
-0.0697876
-0.106074
-0.123006
-0.0844613
-0.0446579
0.0155541
0.0504804
0.0166848
-0.228257
-0.193405
-0.158709
-0.122683
-0.0865702
-0.0517183
-0.0185155
0.0124235
0.0400206
0.062557
0.0795024
0.0880225
0.0919725
0.0881172
0.0757507
0.0579908
0.0387686
0.0168249
-0.0102054
-0.0449795
-0.0888419
-0.129544
-0.148974
-0.139896
-0.115607
-0.0882504
-0.0632138
-0.0418132
-0.0243566
-0.0100823
0.00171663
0.00837485
0.0080068
0.00398615
0.00550263
0.0106731
0.0108165
-0.00553217
-0.0433178
-0.105427
-0.176884
-0.222762
-0.224136
-0.171911
-0.109789
-0.0601766
-0.0271879
-0.0039859
0.0209833
0.0303241
0.0266901
-0.019987
-0.0689343
-0.107437
-0.125006
-0.0867055
-0.045396
0.0153952
0.0548009
0.0182887
-0.225544
-0.201625
-0.172469
-0.139384
-0.106335
-0.0738786
-0.0425922
-0.0125259
0.0157881
0.0411229
0.0611792
0.0770427
0.0868124
0.0910463
0.0869497
0.0752767
0.0595737
0.0404542
0.0160108
-0.015467
-0.0541316
-0.0895336
-0.108611
-0.107358
-0.0932983
-0.0737537
-0.0536262
-0.0350535
-0.0189726
-0.00542245
0.00641591
0.0144826
0.0160182
0.0123369
0.0125623
0.0155318
0.0170569
0.00414258
-0.0290299
-0.086265
-0.154863
-0.202938
-0.207331
-0.163564
-0.106593
-0.057583
-0.0238924
-0.00115086
0.0238951
0.0329181
0.0323521
-0.0149576
-0.0670532
-0.107368
-0.125521
-0.0876825
-0.0453156
0.0152326
0.0583093
0.0196771
-0.202121
-0.190619
-0.163456
-0.130882
-0.0989497
-0.0685904
-0.0393777
-0.0112238
0.0154991
0.0399817
0.0605295
0.0749371
0.0854095
0.0925893
0.0931415
0.0854702
0.072903
0.0574886
0.03509
0.0015052
-0.0382788
-0.0709011
-0.0864705
-0.0839486
-0.0724316
-0.0565661
-0.0399022
-0.0242139
-0.0101762
0.00176922
0.0124098
0.0203264
0.0228895
0.0197219
0.0184833
0.0212312
0.0245465
0.0161116
-0.0130771
-0.066853
-0.134197
-0.184809
-0.194151
-0.153088
-0.0982689
-0.0512033
-0.0187106
0.00303444
0.0274331
0.0379217
0.0383955
-0.00913113
-0.0648298
-0.106855
-0.125768
-0.0872349
-0.0441918
0.0154741
0.0611315
0.0207875
-0.180901
-0.172842
-0.148206
-0.117626
-0.088114
-0.0609409
-0.035194
-0.0102574
0.0135146
0.0351877
0.0532686
0.0686608
0.0800034
0.0878207
0.0898791
0.0849182
0.0752356
0.0620792
0.0414852
0.010995
-0.0232132
-0.0489256
-0.0603304
-0.0592821
-0.0514549
-0.0399426
-0.0270915
-0.0145125
-0.00259831
0.00793778
0.0173366
0.0244147
0.0269207
0.0240947
0.0221723
0.0240901
0.0279367
0.0221266
-0.00325065
-0.0520641
-0.116633
-0.166434
-0.17575
-0.139322
-0.0885346
-0.0445872
-0.0136303
0.00681346
0.0300361
0.0396687
0.042346
-0.00489663
-0.0633836
-0.105867
-0.124514
-0.0856909
-0.0424807
0.0154557
0.0626223
0.0215433
-0.162526
-0.155516
-0.134672
-0.107798
-0.081338
-0.0568878
-0.0338095
-0.0114337
0.0101076
0.0301014
0.0475322
0.0619551
0.0729276
0.0805425
0.0833508
0.0803411
0.0727006
0.0611694
0.0436842
0.0197435
-0.00606037
-0.0262029
-0.0370251
-0.0386028
-0.0344429
-0.0264771
-0.0165046
-0.00622633
0.00390372
0.0130474
0.0213178
0.0277868
0.030358
0.027763
0.0252257
0.0262208
0.0298439
0.0248728
0.00172864
-0.0425903
-0.100992
-0.144913
-0.155404
-0.123945
-0.0782664
-0.037988
-0.00890961
0.0101712
0.0320348
0.0419259
0.0450316
-0.00232579
-0.0627877
-0.104042
-0.121873
-0.0831234
-0.0402412
0.0151068
0.0631793
0.0220005
-0.144349
-0.139062
-0.12184
-0.0985088
-0.0748644
-0.0528365
-0.0321708
-0.0122216
0.00707623
0.0251757
0.0411964
0.0545809
0.0650439
0.0725212
0.0760257
0.0747337
0.0691943
0.0601381
0.0467944
0.0287656
0.00873529
-0.007971
-0.0181965
-0.0214144
-0.0196208
-0.0142406
-0.00669584
0.00140883
0.0097776
0.017601
0.0247119
0.0302653
0.0326558
0.0303225
0.0274494
0.0274874
0.030638
0.0264978
0.00505285
-0.0338469
-0.0831721
-0.121109
-0.132655
-0.106454
-0.0668143
-0.0310797
-0.00431569
0.0132915
0.033423
0.0431859
0.0467972
-0.000455835
-0.0618477
-0.101088
-0.11767
-0.079345
-0.0372962
0.0146114
0.0626802
0.022153
-0.127674
-0.124143
-0.109939
-0.0898088
-0.0689109
-0.0492713
-0.0309021
-0.0132584
0.0038348
0.0200246
0.0346174
0.0470385
0.0569963
0.0643476
0.0684237
0.0686349
0.065197
0.058607
0.0484643
0.0346292
0.0190991
0.00551742
-0.00348986
-0.00740892
-0.00729732
-0.00403293
0.00150627
0.00788528
0.0147445
0.0213514
0.0274794
0.0321725
0.0342448
0.0320896
0.0290066
0.0281828
0.0304849
0.0269617
0.00804642
-0.0234147
-0.0634169
-0.0961113
-0.108258
-0.0877225
-0.0547562
-0.0241855
-6.10241e-05
0.0159919
0.0342029
0.0433328
0.0476801
0.00142114
-0.0600248
-0.0968393
-0.111639
-0.0742525
-0.0336588
0.014029
0.0612595
0.0219621
-0.112934
-0.110503
-0.098792
-0.081568
-0.0633066
-0.0459855
-0.0297954
-0.0143
0.000745615
0.0151306
0.0283159
0.0397607
0.0491254
0.0562165
0.060601
0.0618743
0.0600348
0.0553691
0.047797
0.0375059
0.0258472
0.0150492
0.00741481
0.00338056
0.00258067
0.00449138
0.00855451
0.0135301
0.019035
0.024481
0.02968
0.0335369
0.0352042
0.0332069
0.0300976
0.0285574
0.0296694
0.0265638
0.0111422
-0.0125577
-0.0436905
-0.071075
-0.0835811
-0.0684994
-0.0423329
-0.0173018
0.00390235
0.0182323
0.0344312
0.0423196
0.0475863
0.00328635
-0.0571719
-0.091066
-0.103643
-0.0678004
-0.029327
0.0135054
0.0586468
0.0213701
-0.0994136
-0.097862
-0.0883241
-0.0737344
-0.0579516
-0.0428477
-0.0286996
-0.0151577
-0.00197736
0.0107012
0.0224872
0.032893
0.0415619
0.0482931
0.0527949
0.0547914
0.0542032
0.0512127
0.0458734
0.0384437
0.0298398
0.0215324
0.0153108
0.0116341
0.0104501
0.0114394
0.0143119
0.018142
0.0225278
0.0269414
0.0313105
0.0344983
0.0357794
0.0339106
0.0309688
0.029009
0.0288722
0.0256189
0.0136402
-0.00282202
-0.0251054
-0.0470537
-0.0596881
-0.0496781
-0.0300909
-0.0106118
0.00751717
0.0199736
0.0342883
0.040233
0.0463432
0.00482615
-0.0529182
-0.0834222
-0.093566
-0.0600163
-0.0243924
0.0131434
0.0548179
0.0203322
-0.0869805
-0.0862388
-0.0785688
-0.0663235
-0.052819
-0.0397656
-0.0274806
-0.0157105
-0.00424296
0.00684292
0.0172578
0.0266046
0.0345503
0.0408962
0.0454197
0.0479258
0.0483195
0.0467027
0.0431673
0.0379947
0.0318446
0.0256968
0.0208174
0.0176861
0.0164157
0.0168744
0.0189246
0.0218725
0.0253593
0.0288758
0.0324477
0.0350769
0.0360653
0.0343698
0.0317309
0.0296756
0.0287672
0.0243277
0.0153841
0.00556012
-0.00813198
-0.0249613
-0.0378044
-0.032251
-0.0185358
-0.00419052
0.0108091
0.0212941
0.0339961
0.0373676
0.0438667
0.00605694
-0.0466004
-0.0734733
-0.0814652
-0.0510767
-0.0190177
0.0130229
0.0498603
0.0188368
-0.0757349
-0.0756072
-0.0695146
-0.0593194
-0.0478409
-0.0366334
-0.0260482
-0.0159029
-0.00599922
0.00363749
0.0127654
0.0210854
0.0283057
0.0342337
0.0386843
0.0415123
0.04263
0.0420969
0.0400247
0.0366703
0.0324957
0.0280912
0.0244271
0.0219507
0.0208327
0.0210347
0.0225058
0.0247453
0.0275127
0.0303065
0.0331682
0.0353216
0.0361228
0.0346587
0.0324505
0.0305831
0.0294561
0.0240968
0.0176308
0.0132977
0.00651528
-0.00625419
-0.0192084
-0.0171169
-0.00816476
0.00182197
0.0137707
0.0223361
0.0337153
0.0344325
0.0404318
0.00759327
-0.0375282
-0.0608479
-0.0676351
-0.0413407
-0.0134519
0.0131624
0.0439964
0.016919
-0.0655269
-0.0658463
-0.0610745
-0.0526488
-0.0429605
-0.0334183
-0.0243797
-0.0157037
-0.00720983
0.00110927
0.00906182
0.0164096
0.0229094
0.028385
0.0326823
0.0356896
0.0373335
0.0376461
0.0367315
0.0348214
0.0322759
0.029229
0.0266117
0.0247934
0.0239285
0.0240375
0.0251404
0.0268688
0.0290742
0.0313067
0.0335756
0.0353021
0.0360002
0.034811
0.0331191
0.0317424
0.0308155
0.0273174
0.0222874
0.0214292
0.0180169
0.00768642
-0.00464915
-0.00473047
0.00075275
0.00730884
0.0164171
0.0232477
0.0334354
0.032397
0.036687
0.0103397
-0.0254258
-0.0455551
-0.0527361
-0.0313636
-0.00798983
0.0135563
0.0375947
0.0146921
-0.0561813
-0.0568554
-0.0531897
-0.0462975
-0.0381941
-0.0301323
-0.022465
-0.0150964
-0.00786885
-0.000731989
0.00615203
0.0125932
0.0183931
0.0234007
0.027489
0.0305633
0.0325614
0.0334953
0.0334514
0.0326575
0.0316793
0.0294106
0.0276773
0.0264845
0.0259408
0.026087
0.0269766
0.0283456
0.0301082
0.0319086
0.033717
0.0350856
0.0357356
0.034857
0.0337032
0.0329389
0.0324713
0.0313757
0.0287808
0.0294565
0.0262908
0.0171606
0.00633277
0.00508796
0.00813591
0.0121269
0.0187504
0.0241015
0.0330602
0.0317272
0.0334944
0.014941
-0.0110849
-0.0285356
-0.0377953
-0.0218054
-0.00291693
0.0142093
0.031168
0.0123612
-0.0476802
-0.0486157
-0.0458564
-0.0402644
-0.0335315
-0.0267638
-0.0203067
-0.0141063
-0.00795717
-0.00189305
0.00401908
0.00962211
0.0147558
0.0192926
0.0231257
0.0261718
0.028375
0.0297305
0.0302724
0.0300632
0.0290001
0.0286361
0.0278855
0.027304
0.0271013
0.0273501
0.0281254
0.0292586
0.0306932
0.032169
0.0336375
0.0347325
0.0353694
0.0348197
0.0341561
0.0339792
0.0339837
0.0343146
0.034208
0.0353006
0.031652
0.0235188
0.0145101
0.0126388
0.0140022
0.0161739
0.0207829
0.0249062
0.0325006
0.0320132
0.0309716
0.0207906
0.00326575
-0.0117826
-0.0239866
-0.0132593
0.00154371
0.015068
0.0253818
0.0102613
-0.0399758
-0.0410568
-0.0390136
-0.0345163
-0.0289681
-0.023327
-0.0179177
-0.0126799
-0.00754851
-0.00243098
0.00260966
0.0074478
0.0119553
0.0160252
0.0195695
0.0225167
0.024815
0.0264515
0.0274442
0.0278682
0.0278195
0.0277796
0.0276043
0.027498
0.0275992
0.027982
0.0287155
0.0297058
0.0309082
0.0321428
0.0333717
0.0342755
0.0349184
0.0346977
0.0344197
0.0346575
0.0350722
0.0359575
0.0369676
0.0379663
0.0344938
0.0276941
0.0203859
0.0181564
0.0184525
0.0194171
0.0225065
0.0256255
0.0317376
0.032191
0.029551
0.0258671
0.0147214
0.00198041
-0.0123988
-0.00613218
0.0053063
0.0159176
0.0208509
0.00881912
-0.03304
-0.0341565
-0.0326771
-0.0290903
-0.0245462
-0.0198713
-0.0153636
-0.0110219
-0.00672868
-0.00242895
0.00184254
0.00599233
0.00992038
0.0135396
0.0167761
0.0195704
0.0218753
0.0236758
0.0249812
0.0258605
0.0263772
0.0267409
0.0269901
0.0272508
0.0276088
0.0281308
0.0288649
0.0297737
0.0308211
0.0318809
0.0329475
0.0337347
0.0343843
0.0344529
0.0344571
0.0349313
0.0355021
0.0364756
0.0376837
0.0383676
0.0354979
0.0301821
0.0243505
0.0218525
0.0216806
0.0219074
0.0239024
0.0262101
0.0308952
0.031728
0.0291126
0.0284919
0.021733
0.0111656
-0.00370074
-0.000604865
0.00825529
0.0165361
0.0177777
0.00824329
-0.0266446
-0.0278235
-0.026819
-0.0239909
-0.0202931
-0.0164431
-0.0127195
-0.00912197
-0.00555574
-0.00196587
0.00163171
0.00516879
0.00856709
0.0117571
0.0146769
0.0172793
0.0195213
0.02139
0.0228807
0.024037
0.0249068
0.0256004
0.0261698
0.0267096
0.027272
0.0279187
0.0286769
0.0295434
0.0304933
0.0314328
0.0323881
0.0331134
0.0337635
0.0340528
0.0342577
0.0348191
0.0354543
0.0362571
0.037268
0.0376387
0.03539
0.0313986
0.0268606
0.0245248
0.0239557
0.0237438
0.0249624
0.026605
0.0300717
0.0309236
0.0292881
0.0292784
0.0248905
0.015994
0.00246875
0.00356212
0.0103687
0.0165425
0.0156977
0.00810799
-0.0208594
-0.0220491
-0.0214162
-0.0192126
-0.0162235
-0.0130693
-0.0100063
-0.00704417
-0.0041015
-0.0011227
0.0018888
0.00488433
0.00780272
0.0105892
0.0131934
0.0155779
0.0177049
0.0195603
0.0211298
0.0224423
0.0235244
0.0244476
0.0252439
0.0259858
0.0267029
0.027451
0.0282422
0.0290886
0.0299793
0.0308402
0.0317139
0.0324112
0.0330562
0.0334873
0.033828
0.034382
0.0350051
0.0356039
0.0363007
0.0364407
0.0347049
0.0317502
0.0283065
0.0262181
0.0254591
0.025032
0.0256975
0.0268008
0.02933
0.0301618
0.029435
0.0291988
0.0260448
0.0182594
0.00684439
0.00658094
0.0116258
0.0158769
0.0138372
0.0076465
-0.0156731
-0.0168253
-0.0164544
-0.0147446
-0.012342
-0.0097752
-0.00727296
-0.00485014
-0.00243729
1.92079e-05
0.00252458
0.00504482
0.00753199
0.00994466
0.0122414
0.014394
0.0163666
0.0181439
0.0197147
0.0210947
0.0222907
0.0233507
0.0242923
0.0251687
0.0259947
0.0268154
0.0276373
0.0284736
0.0293263
0.0301371
0.0309494
0.0316316
0.0322652
0.0327703
0.0331923
0.0336992
0.0342544
0.0346891
0.0351003
0.0350859
0.0337515
0.031563
0.0289912
0.0271898
0.026355
0.0258538
0.0261421
0.0268115
0.0286354
0.0294184
0.0290307
0.0284399
0.026005
0.0192363
0.00994515
0.00870731
0.0121388
0.0146136
0.0119592
0.00663235
-0.0109939
-0.0120659
-0.0118869
-0.0105805
-0.00866891
-0.00659679
-0.00456611
-0.00259634
-0.000630002
0.00138332
0.00345429
0.00555998
0.00766355
0.00973373
0.0117371
0.0136507
0.0154424
0.0171086
0.0186232
0.0199993
0.0212325
0.0223552
0.0233745
0.0243272
0.0252196
0.0260836
0.0269255
0.0277533
0.0285777
0.029354
0.0301173
0.0307853
0.0314019
0.0319323
0.0323882
0.0328405
0.0333052
0.0336218
0.0338265
0.0337134
0.0326877
0.0310572
0.0291446
0.0276433
0.0267927
0.0262774
0.0263329
0.026655
0.0279068
0.0285517
0.0280867
0.0271868
0.0251994
0.0195254
0.0120673
0.0101567
0.0121201
0.0131497
0.0101804
0.00540396
-0.00674071
-0.0077453
-0.00772001
-0.00673797
-0.00522534
-0.00356013
-0.00192155
-0.000330705
0.00126096
0.00289991
0.00460017
0.00634712
0.00811228
0.0098724
0.0116007
0.013279
0.0148802
0.0164049
0.0178252
0.0191468
0.0203611
0.0214893
0.0225319
0.0235124
0.0244331
0.0253129
0.0261593
0.026974
0.027771
0.0285187
0.0292405
0.029889
0.0304824
0.0310062
0.0314638
0.0318672
0.0322436
0.0324764
0.0325526
0.032383
0.0315922
0.030371
0.0289378
0.0277162
0.0268891
0.02638
0.0262927
0.0263483
0.0270944
0.0275195
0.0268607
0.0257434
0.0239962
0.0193891
0.0134048
0.0110831
0.0118079
0.0117784
0.00867444
0.00427238
-0.00293992
-0.00386198
-0.00393305
-0.00319987
-0.00201061
-0.000682357
0.000629658
0.00190446
0.00318311
0.0045074
0.0058931
0.00733163
0.00880084
0.0102829
0.0117575
0.0132123
0.0146266
0.0159912
0.0172889
0.0185206
0.0196754
0.0207663
0.0217903
0.02276
0.0236761
0.0245469
0.0253803
0.0261737
0.0269399
0.0276581
0.0283406
0.0289622
0.029527
0.0300284
0.030466
0.0308275
0.0311313
0.0313046
0.0313107
0.0311187
0.0305056
0.0295847
0.0284944
0.0275079
0.0267581
0.0262359
0.0260416
0.0259068
0.0262098
0.0263861
0.0255694
0.0242964
0.022654
0.0189696
0.0141379
0.011598
0.0113712
0.010593
0.00746358
0.00337497
0.000465612
-0.000357901
-0.000490833
4.41496e-05
0.000968311
0.00201859
0.00306096
0.00407412
0.00509262
0.00615398
0.00727444
0.00844954
0.00966179
0.0108973
0.0121412
0.013386
0.0146136
0.0158163
0.016978
0.0180985
0.0191668
0.0201899
0.0211634
0.0220927
0.0229771
0.0238177
0.0246212
0.0253828
0.0261122
0.0267959
0.0274383
0.0280265
0.0285585
0.0290291
0.0294332
0.0297587
0.0300087
0.030141
0.0301158
0.0299257
0.0294462
0.0287425
0.0279004
0.0270969
0.0264267
0.0258877
0.0256105
0.0253483
0.025291
0.0252079
0.0243197
0.0229411
0.0213292
0.0183621
0.0144256
0.0118037
0.0108874
0.00960312
0.00652197
0.00271863
0.00352468
0.00279178
0.00261823
0.00299888
0.00370998
0.0045332
0.00535381
0.00615145
0.00695487
0.00779764
0.0086951
0.00964553
0.0106363
0.0116562
0.0126928
0.0137425
0.014793
0.0158364
0.0168574
0.0178552
0.0188203
0.0197557
0.0206565
0.0215234
0.0223548
0.0231477
0.0239063
0.0246254
0.0253107
0.0259534
0.0265529
0.0271031
0.0275979
0.0280332
0.0284024
0.0286941
0.0289043
0.0290088
0.0289745
0.0287991
0.0284205
0.0278721
0.02721
0.0265447
0.0259421
0.0254128
0.025044
0.0246911
0.0243638
0.024035
0.0231262
0.0217099
0.0200979
0.0176408
0.0143932
0.011786
0.0103935
0.00879227
0.00579999
0.002257
0.00625318
0.00560959
0.00541668
0.00567933
0.00621909
0.00685669
0.0074952
0.00811599
0.00874237
0.00940361
0.0101145
0.0108749
0.0116756
0.0125086
0.0133628
0.0142358
0.0151216
0.0160112
0.016893
0.0177641
0.0186174
0.0194534
0.0202672
0.0210569
0.0218198
0.0225515
0.0232531
0.0239199
0.0245535
0.025149
0.0257021
0.0262103
0.0266644
0.0270619
0.0273958
0.0276569
0.0278375
0.0279217
0.0278889
0.0277328
0.0274293
0.0269917
0.0264577
0.0258941
0.0253436
0.0248283
0.0243814
0.0239491
0.0234492
0.0229113
0.0219885
0.0205932
0.0189829
0.0168636
0.0141376
0.011613
0.00991381
0.00812248
0.00524772
0.00193735
0.00868399
0.00812606
0.00792699
0.00809881
0.00850078
0.00898711
0.00947658
0.0099525
0.0104339
0.0109456
0.0115012
0.0121018
0.0127403
0.0134111
0.0141066
0.0148233
0.0155554
0.0163012
0.0170506
0.0177982
0.0185376
0.019269
0.019988
0.0206916
0.021376
0.0220367
0.0226721
0.0232788
0.0238547
0.0243976
0.0249004
0.0253623
0.0257733
0.0261325
0.0264313
0.0266626
0.0268197
0.0268882
0.0268596
0.0267224
0.0264729
0.0261131
0.025667
0.0251789
0.0246655
0.0241605
0.0236565
0.0231507
0.0225476
0.0218575
0.0209097
0.0195693
0.01798
0.0160742
0.0137354
0.0113376
0.00945539
0.00755656
0.00481851
0.00171516
0.0108442
0.0103646
0.0101681
0.0102709
0.0105627
0.0109261
0.011294
0.0116517
0.0120147
0.0124039
0.0128309
0.0132975
0.0137987
0.0143301
0.014887
0.015467
0.0160645
0.0166786
0.0173017
0.0179309
0.0185593
0.0191861
0.0198076
0.020421
0.0210216
0.0216056
0.0221691
0.0227099
0.0232236
0.0237091
0.0241584
0.0245709
0.0249361
0.0252557
0.0255204
0.0257225
0.0258583
0.0259133
0.0258866
0.0257651
0.0255512
0.025246
0.0248584
0.0244229
0.0239364
0.0234352
0.0228974
0.0223294
0.0216618
0.020877
0.0198964
0.0186175
0.0170745
0.0153038
0.0132452
0.0109965
0.00901867
0.00706847
0.00447578
0.00155751
0.0127555
0.0123471
0.0121594
0.0122102
0.0124142
0.012678
0.0129469
0.0132085
0.013475
0.0137639
0.0140851
0.0144402
0.0148258
0.0152389
0.015676
0.0161362
0.016616
0.0171124
0.0176208
0.018138
0.0186608
0.0191869
0.0197126
0.0202356
0.020751
0.0212558
0.0217446
0.0222163
0.0226651
0.0230904
0.0234844
0.0238446
0.0241668
0.024443
0.0246722
0.0248445
0.0249581
0.0249998
0.0249705
0.0248596
0.0246676
0.024398
0.0240488
0.0236465
0.0231814
0.0226797
0.0221222
0.0215091
0.020797
0.0199629
0.0189544
0.0177261
0.0162498
0.0145716
0.0127089
0.0106142