/*--------------------------------*- C++ -*----------------------------------*\
| =========                 |                                                 |
| \\      /  F ield         | OpenFOAM: The Open Source CFD Toolbox           |
|  \\    /   O peration     | Version:  2512                                  |
|   \\  /    A nd           | Website:  www.openfoam.com                      |
|    \\/     M anipulation  |                                                 |
\*---------------------------------------------------------------------------*/
FoamFile
{
    version     2.0;
    format      ascii;
    arch        "LSB;label=32;scalar=64";
    class       volScalarField;
    location    "114";
    object      p;
}
// * * * * * * * * * * * * * * * * * * * * * * * * * * * * * * * * * * * * * //

dimensions      [0 2 -2 0 0 0 0];

internalField   nonuniform List<scalar> 
13248
(
-0.548661
-0.547672
-0.54461
-0.540186
-0.53519
-0.530391
-0.52648
-0.523688
-0.521636
-0.519408
-0.515804
-0.509679
-0.500241
-0.487216
-0.470825
-0.451595
-0.430138
-0.407006
-0.382644
-0.357443
-0.33145
-0.305213
-0.277011
-0.247933
-0.558061
-0.556477
-0.553344
-0.549213
-0.544573
-0.539812
-0.535074
-0.530119
-0.524371
-0.517107
-0.50769
-0.495742
-0.481224
-0.464379
-0.445604
-0.42531
-0.403848
-0.381509
-0.358518
-0.33505
-0.311261
-0.287248
-0.262876
-0.239188
-0.570182
-0.56759
-0.564046
-0.559816
-0.555066
-0.549687
-0.543264
-0.535242
-0.525166
-0.512836
-0.498314
-0.481871
-0.463871
-0.444681
-0.424599
-0.403853
-0.382612
-0.361021
-0.33919
-0.317281
-0.295308
-0.273551
-0.251705
-0.229934
-0.584676
-0.580837
-0.576571
-0.571848
-0.56638
-0.5595
-0.550367
-0.53846
-0.523806
-0.506863
-0.488259
-0.468579
-0.448261
-0.427589
-0.406728
-0.385776
-0.364801
-0.343862
-0.323039
-0.302389
-0.282006
-0.262035
-0.242265
-0.223301
-0.601586
-0.596343
-0.591158
-0.585525
-0.578559
-0.569076
-0.556177
-0.539821
-0.520724
-0.499878
-0.478165
-0.456193
-0.434304
-0.412654
-0.391298
-0.370252
-0.349523
-0.329131
-0.3091
-0.289482
-0.270322
-0.251675
-0.233448
-0.215821
-0.621091
-0.614366
-0.60808
-0.600997
-0.591502
-0.57817
-0.560598
-0.539564
-0.516399
-0.492342
-0.468246
-0.444578
-0.421532
-0.399151
-0.377419
-0.356301
-0.335772
-0.315814
-0.29643
-0.277625
-0.259419
-0.241838
-0.224822
-0.208576
-0.643246
-0.634995
-0.627334
-0.618026
-0.604744
-0.586387
-0.563574
-0.537952
-0.511193
-0.484488
-0.458495
-0.433487
-0.409521
-0.386559
-0.364531
-0.343368
-0.323012
-0.303421
-0.284559
-0.266409
-0.248957
-0.232179
-0.216065
-0.200638
-0.667763
-0.657957
-0.648487
-0.635903
-0.617515
-0.593257
-0.565039
-0.535136
-0.505239
-0.476297
-0.448712
-0.422574
-0.397829
-0.374373
-0.352097
-0.330901
-0.310701
-0.291425
-0.273015
-0.25542
-0.238598
-0.222518
-0.207166
-0.192462
-0.6939
-0.68252
-0.670622
-0.653503
-0.628867
-0.598282
-0.564843
-0.531077
-0.498442
-0.467564
-0.438597
-0.411477
-0.386061
-0.362194
-0.339728
-0.318536
-0.298503
-0.279534
-0.261542
-0.244453
-0.228202
-0.212736
-0.19801
-0.183857
-0.720456
-0.707463
-0.692309
-0.669393
-0.637735
-0.600828
-0.562563
-0.525371
-0.490336
-0.457758
-0.427577
-0.399603
-0.37362
-0.349424
-0.326833
-0.305687
-0.285849
-0.267199
-0.249629
-0.233044
-0.21736
-0.202513
-0.188414
-0.174866
-0.745811
-0.73113
-0.711698
-0.681887
-0.642847
-0.5999
-0.557281
-0.517075
-0.479947
-0.445897
-0.414684
-0.386012
-0.359597
-0.335192
-0.312577
-0.291563
-0.271988
-0.25371
-0.236604
-0.220557
-0.205479
-0.19129
-0.177859
-0.165019
-0.768065
-0.751569
-0.726779
-0.689216
-0.64278
-0.59424
-0.547779
-0.504986
-0.466105
-0.430861
-0.398856
-0.369699
-0.343046
-0.3186
-0.296108
-0.275354
-0.256152
-0.238343
-0.221779
-0.206339
-0.191934
-0.178488
-0.165857
-0.153937
-0.522273
-0.52041
-0.519673
-0.521623
-0.527174
-0.536522
-0.549607
-0.566287
-0.586281
-0.609069
-0.63382
-0.659399
-0.684425
-0.707377
-0.726743
-0.741196
-0.749037
-0.749181
-0.740435
-0.721785
-0.692675
-0.653235
-0.605552
-0.551444
-0.539659
-0.536426
-0.535463
-0.537597
-0.543603
-0.553704
-0.567812
-0.585735
-0.607156
-0.631518
-0.657959
-0.685313
-0.71218
-0.737028
-0.758316
-0.774613
-0.784523
-0.786693
-0.779659
-0.761908
-0.732238
-0.690013
-0.637369
-0.575663
-0.551545
-0.54707
-0.545578
-0.547357
-0.553062
-0.562962
-0.576954
-0.594791
-0.616113
-0.640349
-0.666656
-0.693919
-0.720809
-0.745849
-0.767354
-0.784021
-0.794672
-0.797806
-0.791695
-0.77434
-0.744072
-0.699663
-0.643432
-0.576545
-0.557863
-0.552447
-0.550203
-0.551054
-0.555619
-0.564292
-0.577016
-0.593522
-0.613417
-0.636132
-0.660866
-0.686601
-0.712208
-0.736728
-0.756404
-0.772413
-0.782781
-0.785741
-0.779286
-0.761027
-0.729139
-0.682388
-0.623707
-0.554533
-0.559333
-0.553447
-0.550367
-0.549823
-0.552493
-0.558994
-0.569426
-0.583573
-0.601042
-0.621269
-0.64347
-0.666615
-0.689444
-0.710422
-0.730588
-0.746114
-0.755764
-0.757751
-0.749806
-0.729322
-0.69475
-0.645499
-0.585367
-0.516357
-0.557221
-0.551421
-0.5476
-0.54544
-0.545731
-0.549378
-0.556759
-0.567827
-0.582273
-0.599583
-0.61903
-0.639707
-0.660626
-0.680632
-0.698555
-0.712435
-0.720382
-0.72002
-0.708897
-0.684611
-0.646616
-0.595488
-0.535908
-0.469975
-0.552993
-0.547795
-0.543493
-0.539816
-0.537661
-0.538216
-0.542207
-0.549874
-0.561095
-0.575458
-0.592295
-0.6108
-0.629959
-0.64836
-0.664345
-0.675896
-0.680661
-0.676017
-0.659891
-0.63082
-0.58985
-0.53878
-0.482533
-0.422817
-0.548035
-0.543806
-0.539356
-0.534532
-0.530301
-0.528058
-0.528866
-0.533303
-0.541499
-0.553204
-0.567775
-0.584395
-0.601665
-0.617863
-0.630923
-0.638423
-0.637904
-0.627233
-0.605421
-0.572517
-0.53094
-0.482903
-0.432675
-0.380794
-0.543523
-0.540422
-0.536116
-0.530632
-0.52499
-0.520682
-0.519017
-0.520869
-0.526602
-0.536066
-0.54868
-0.563137
-0.577717
-0.590284
-0.598414
-0.599753
-0.592423
-0.575495
-0.549358
-0.51539
-0.476396
-0.433986
-0.391273
-0.347144
-0.540477
-0.538447
-0.534452
-0.528776
-0.52248
-0.517052
-0.513915
-0.514101
-0.518082
-0.525642
-0.535864
-0.547151
-0.557413
-0.564318
-0.565659
-0.559795
-0.545954
-0.524512
-0.496727
-0.464454
-0.429811
-0.393714
-0.358286
-0.320962
-0.539877
-0.538632
-0.535006
-0.529527
-0.523275
-0.517628
-0.513949
-0.513197
-0.515693
-0.52098
-0.52782
-0.534381
-0.538561
-0.538396
-0.532464
-0.520173
-0.501798
-0.47838
-0.451179
-0.421684
-0.390935
-0.359785
-0.329793
-0.29812
-0.542502
-0.541622
-0.538352
-0.533329
-0.527601
-0.522336
-0.518583
-0.517025
-0.517674
-0.519765
-0.521897
-0.522362
-0.519542
-0.512295
-0.500171
-0.483418
-0.462762
-0.439132
-0.413326
-0.386185
-0.357947
-0.329622
-0.301567
-0.273822
-0.486941
-0.418247
-0.360828
-0.318928
-0.295205
-0.290868
-0.306193
-0.337051
-0.372285
-0.396021
-0.393691
-0.358964
-0.301818
-0.241135
-0.192184
-0.160209
-0.143811
-0.140664
-0.148768
-0.169217
-0.208231
-0.267062
-0.327402
-0.359626
-0.34301
-0.289604
-0.224402
-0.168746
-0.132826
-0.114313
-0.109802
-0.122396
-0.153265
-0.189635
-0.207253
-0.191027
-0.154849
-0.119205
-0.096123
-0.0877138
-0.0956651
-0.114484
-0.127185
-0.119736
-0.103019
-0.084036
-0.0700783
-0.0629771
-0.0608927
-0.0608104
-0.0563763
-0.0487566
-0.0439398
-0.0445717
-0.0460899
-0.0388807
-0.0296275
-0.0194525
-0.0107677
-0.00327894
-0.502335
-0.424383
-0.357543
-0.305861
-0.272229
-0.25816
-0.263947
-0.287104
-0.318639
-0.343235
-0.344436
-0.316432
-0.268054
-0.216505
-0.175331
-0.148836
-0.136719
-0.137522
-0.149565
-0.174537
-0.21914
-0.283521
-0.347991
-0.382501
-0.364602
-0.306974
-0.236423
-0.175282
-0.134165
-0.110874
-0.101312
-0.107484
-0.130849
-0.16111
-0.175795
-0.162353
-0.132949
-0.105538
-0.0899754
-0.0888848
-0.104692
-0.131135
-0.148845
-0.139714
-0.118132
-0.0928744
-0.0728959
-0.0600831
-0.0524521
-0.0498559
-0.0446634
-0.0410075
-0.0418629
-0.0486675
-0.0562673
-0.0492842
-0.0382651
-0.0217422
-0.00506781
-0.000262892
-0.497236
-0.414283
-0.342838
-0.284804
-0.243247
-0.219017
-0.213313
-0.225638
-0.249839
-0.273402
-0.28015
-0.261065
-0.224253
-0.183899
-0.151254
-0.1307
-0.123233
-0.128092
-0.143699
-0.172007
-0.21967
-0.286538
-0.35338
-0.390886
-0.375545
-0.316906
-0.243066
-0.178149
-0.133045
-0.105679
-0.091419
-0.091585
-0.107773
-0.132184
-0.144595
-0.133916
-0.110852
-0.0909221
-0.082372
-0.08874
-0.112745
-0.147078
-0.170162
-0.159815
-0.132736
-0.100962
-0.0751937
-0.0572249
-0.0443317
-0.0392459
-0.0330721
-0.0333054
-0.039616
-0.0524105
-0.065907
-0.0593312
-0.0466365
-0.0241553
0.000577386
0.00261986
-0.47276
-0.390374
-0.320189
-0.260811
-0.21467
-0.182991
-0.166257
-0.16539
-0.178485
-0.196778
-0.20663
-0.196961
-0.173128
-0.144611
-0.120751
-0.106327
-0.103452
-0.111975
-0.130228
-0.159899
-0.207456
-0.273947
-0.342529
-0.383451
-0.37411
-0.318296
-0.243708
-0.177055
-0.129507
-0.0991704
-0.0810467
-0.075752
-0.0854452
-0.104456
-0.11491
-0.106876
-0.0891645
-0.0756069
-0.0732029
-0.0866729
-0.118778
-0.161193
-0.190029
-0.179098
-0.146489
-0.108122
-0.0768726
-0.0544019
-0.0366847
-0.0291658
-0.0217735
-0.0256675
-0.0371427
-0.0556845
-0.0748579
-0.0688581
-0.0546229
-0.0267194
0.00609757
0.00535372
-0.436226
-0.359411
-0.294619
-0.237281
-0.190193
-0.153963
-0.128856
-0.116663
-0.117164
-0.126247
-0.134998
-0.131702
-0.119637
-0.101922
-0.086212
-0.0774719
-0.0786898
-0.090314
-0.110476
-0.140031
-0.184952
-0.247816
-0.315759
-0.361119
-0.359719
-0.310657
-0.238787
-0.17243
-0.123845
-0.0917127
-0.0709062
-0.0610409
-0.0648303
-0.0789454
-0.0877401
-0.0819454
-0.0683757
-0.0597955
-0.0624529
-0.082099
-0.121859
-0.172306
-0.20717
-0.196689
-0.159118
-0.114298
-0.0779188
-0.0516203
-0.0296253
-0.0197799
-0.0109329
-0.0180545
-0.0343987
-0.0583958
-0.0829849
-0.0777142
-0.062124
-0.0294573
0.0114219
0.00793292
-0.395082
-0.327177
-0.270641
-0.217657
-0.171449
-0.133593
-0.103341
-0.081834
-0.070992
-0.0697734
-0.0739982
-0.0771032
-0.0692455
-0.0596414
-0.0505658
-0.0466957
-0.0514091
-0.0655576
-0.0870337
-0.115498
-0.156002
-0.212336
-0.276647
-0.32599
-0.333989
-0.294597
-0.228698
-0.164805
-0.116489
-0.0836022
-0.0611471
-0.0480077
-0.0467182
-0.0563188
-0.0637402
-0.0599622
-0.0490812
-0.0438956
-0.0503431
-0.0751096
-0.121603
-0.17927
-0.220408
-0.211525
-0.170281
-0.119409
-0.0783283
-0.0488942
-0.0232615
-0.011226
-0.000736836
-0.0104836
-0.0313681
-0.060439
-0.0901791
-0.0857603
-0.0690411
-0.0323505
0.0164536
0.0103428
-0.35611
-0.297853
-0.249861
-0.202507
-0.158738
-0.120949
-0.0886833
-0.0618144
-0.0419112
-0.0306377
-0.0270893
-0.0275366
-0.0239948
-0.0204908
-0.0163825
-0.0162779
-0.0237307
-0.0395909
-0.0616292
-0.0884889
-0.123998
-0.172745
-0.231311
-0.282613
-0.300502
-0.272306
-0.214487
-0.154929
-0.108133
-0.0753171
-0.0520931
-0.0366444
-0.0312764
-0.036871
-0.0431768
-0.0424216
-0.0317346
-0.0285053
-0.0375255
-0.0657551
-0.117466
-0.181608
-0.228936
-0.222945
-0.179689
-0.123443
-0.0781391
-0.0462108
-0.0176688
-0.00361589
0.00865292
-0.00296595
-0.0280606
-0.0617848
-0.0963829
-0.0928988
-0.0752803
-0.0353285
0.0210734
0.0125638
-0.323803
-0.274888
-0.23414
-0.192078
-0.151392
-0.114517
-0.0817224
-0.052871
-0.0281733
-0.0089011
0.00302278
0.00782109
0.00887414
0.0123636
0.0136287
0.0113279
0.00214537
-0.0144874
-0.0362026
-0.0610966
-0.0918677
-0.13285
-0.183995
-0.23517
-0.260994
-0.244888
-0.196819
-0.143278
-0.0991996
-0.0672176
-0.0439379
-0.0271111
-0.018534
-0.0206447
-0.0257632
-0.0255788
-0.0165523
-0.014291
-0.0244847
-0.0546304
-0.109777
-0.178661
-0.232152
-0.228795
-0.186867
-0.126357
-0.0773961
-0.0435348
-0.0128618
0.00298088
0.0170744
0.00440919
-0.0245045
-0.0623715
-0.101546
-0.099031
-0.0807516
-0.0382942
0.0251523
0.0145777
-0.298964
-0.25801
-0.223148
-0.185705
-0.148445
-0.11345
-0.0809305
-0.0511893
-0.0246354
-0.00140538
0.017472
0.0296849
0.0353431
0.038624
0.0376097
0.0342012
0.0246704
0.0084535
-0.0121134
-0.0349518
-0.0616998
-0.0957989
-0.139393
-0.18827
-0.222506
-0.215839
-0.177297
-0.13048
-0.0899531
-0.0594452
-0.03668
-0.0193372
-0.00843611
-0.00749357
-0.0113375
-0.0117007
-0.00407594
-0.00177504
-0.0118244
-0.0420642
-0.0982842
-0.1709
-0.230736
-0.245467
-0.19193
-0.128109
-0.0761177
-0.0408544
-0.00880729
0.00854041
0.0244372
0.0116793
-0.0207358
-0.0623027
-0.105684
-0.104146
-0.0853775
-0.0411977
0.0285594
0.0163704
-0.280491
-0.246353
-0.216005
-0.182344
-0.148415
-0.11578
-0.0844433
-0.0548796
-0.0277208
-0.00316863
0.0184784
0.0361701
0.0482295
0.0537458
0.0546993
0.0509141
0.0419141
0.0273174
0.00901513
-0.0114255
-0.0348809
-0.0630086
-0.0985368
-0.143446
-0.181807
-0.182367
-0.15485
-0.116346
-0.0805661
-0.052239
-0.0304815
-0.0133777
-0.00101924
0.00259877
0.000256195
-0.000804857
0.00542423
0.00865233
-0.000309482
-0.029268
-0.0848215
-0.157809
-0.222613
-0.23894
-0.192744
-0.128582
-0.0744249
-0.0383254
-0.00563258
0.0130308
0.030547
0.0186299
-0.0168334
-0.0614499
-0.108715
-0.108073
-0.0890818
-0.0440091
0.0311544
0.0179323
-0.265692
-0.238717
-0.211814
-0.180802
-0.149311
-0.118577
-0.088834
-0.059857
-0.032273
-0.00685266
0.0160677
0.0358802
0.0517806
0.064851
0.0672982
0.0648635
0.0572186
0.0442606
0.0283155
0.010197
-0.0108475
-0.0347328
-0.0648654
-0.105124
-0.142601
-0.154133
-0.135601
-0.10417
-0.0728775
-0.0467637
-0.025975
-0.00938013
0.00381636
0.00977302
0.00912025
0.00739316
0.0119823
0.0168242
0.0102323
-0.0159645
-0.0693462
-0.141922
-0.210454
-0.229579
-0.191113
-0.12846
-0.0729187
-0.0361922
-0.0033425
0.0162223
0.0379568
0.0255043
-0.0127715
-0.0601098
-0.110819
-0.111361
-0.0918471
-0.0464416
0.0328475
0.0192528
-0.252506
-0.235424
-0.212965
-0.185487
-0.157481
-0.129696
-0.101985
-0.074349
-0.0471833
-0.0212596
0.00279898
0.0242367
0.0421867
0.0545696
0.0659831
0.0703136
0.0669476
0.0577376
0.0452309
0.0298313
0.0102711
-0.0107628
-0.0351271
-0.068366
-0.101091
-0.116712
-0.108727
-0.0871467
-0.0623665
-0.0397961
-0.0206005
-0.00495218
0.00823728
0.0156557
0.0164189
0.014194
0.0172742
0.0224388
0.0174098
-0.00466273
-0.0535703
-0.122938
-0.19175
-0.214532
-0.183731
-0.12562
-0.0703964
-0.0333313
-0.000579949
0.0188378
0.0411361
0.0315656
-0.00868915
-0.0579189
-0.111576
-0.112755
-0.0934574
-0.047799
0.0338312
0.020336
-0.22519
-0.220722
-0.19929
-0.171378
-0.143595
-0.117206
-0.0915679
-0.0660264
-0.0407452
-0.0164487
0.0064636
0.0274949
0.0453469
0.0599962
0.0692136
0.0754602
0.0757809
0.0692976
0.0592709
0.0480016
0.0335455
0.0142032
-0.0137929
-0.051185
-0.0844924
-0.0969686
-0.0873372
-0.0683981
-0.0474352
-0.0282423
-0.0115958
0.00214374
0.0139083
0.0212276
0.0226791
0.0202517
0.0218546
0.0289424
0.0266381
0.00868175
-0.0367497
-0.103688
-0.173884
-0.201922
-0.175365
-0.118177
-0.0638587
-0.0280719
0.00327937
0.0221772
0.0450539
0.0376946
-0.00422185
-0.055196
-0.111796
-0.115186
-0.093638
-0.0481586
0.0342776
0.0211551
-0.199324
-0.198341
-0.179319
-0.152924
-0.12693
-0.103033
-0.0803266
-0.0576836
-0.0349571
-0.0128308
0.00798633
0.0270013
0.0432706
0.0554134
0.0672398
0.074873
0.0769819
0.0729759
0.0659521
0.0586322
0.0483168
0.0295863
-0.000527513
-0.0371393
-0.0645682
-0.0720727
-0.0639449
-0.049203
-0.0330133
-0.0177295
-0.00367765
0.00827495
0.0184643
0.0250046
0.0265966
0.0242311
0.0247291
0.0296604
0.0310252
0.016328
-0.0249052
-0.0878624
-0.156897
-0.186425
-0.161962
-0.108663
-0.0567204
-0.0228198
0.00683773
0.0247816
0.0476001
0.0415587
-0.00116483
-0.0530765
-0.111333
-0.113952
-0.0923692
-0.0480469
0.0340387
0.0215907
-0.177548
-0.17706
-0.161388
-0.138273
-0.114846
-0.0931621
-0.0726506
-0.0522196
-0.0315663
-0.0112573
0.00801594
0.0257676
0.0412453
0.0538943
0.0646567
0.072334
0.0754339
0.0733307
0.068557
0.0635769
0.0550726
0.0370957
0.00949716
-0.0205973
-0.0416894
-0.0481914
-0.0435528
-0.0332765
-0.0209334
-0.00868018
0.0031258
0.013412
0.022297
0.0282148
0.0299203
0.0274893
0.0269521
0.0319221
0.0334432
0.020156
-0.0180524
-0.0757436
-0.138351
-0.166535
-0.145933
-0.0979874
-0.0494301
-0.0178371
0.0100866
0.0268
0.0494874
0.0440901
0.000434769
-0.0516319
-0.109881
-0.112064
-0.0899211
-0.0473746
0.0330619
0.0217059
-0.156813
-0.156923
-0.144241
-0.124246
-0.103225
-0.0834962
-0.0649084
-0.0465722
-0.0280774
-0.00972518
0.00786683
0.0241871
0.0386068
0.0506836
0.0608639
0.0685299
0.0724546
0.0720735
0.0691023
0.0653408
0.057988
0.0429296
0.0207338
-0.00318973
-0.0201782
-0.0269816
-0.0253854
-0.0186607
-0.0096151
-0.000249916
0.00937129
0.0180632
0.0255683
0.0305588
0.032233
0.0298396
0.0284713
0.0329232
0.0348265
0.0226189
-0.0126414
-0.0626815
-0.116858
-0.143901
-0.127259
-0.0855847
-0.0416375
-0.0128505
0.0132042
0.0282595
0.0503237
0.0456245
0.00141556
-0.0498194
-0.107147
-0.108975
-0.0861782
-0.0458713
0.0313492
0.0214821
-0.137549
-0.138556
-0.1283
-0.111129
-0.0925195
-0.0748273
-0.0581794
-0.0418662
-0.025422
-0.00897584
0.00694849
0.0218479
0.0352185
0.0467094
0.0563822
0.0639154
0.0684236
0.0694575
0.068017
0.065255
0.0594491
0.047914
0.0306822
0.0119012
-0.00203977
-0.00921237
-0.0100601
-0.0063988
-6.19018e-05
0.00698552
0.0146934
0.021967
0.0283212
0.0323926
0.0338627
0.0314764
0.029422
0.0329601
0.0348975
0.0241671
-0.00646072
-0.0473862
-0.0936709
-0.119009
-0.106582
-0.0719915
-0.033684
-0.00813999
0.0159885
0.0291805
0.0498997
0.0461779
0.00234794
-0.0471836
-0.102956
-0.104488
-0.0810432
-0.043477
0.0289305
0.0208769
-0.12055
-0.121975
-0.113604
-0.0989174
-0.0826157
-0.0669299
-0.0521288
-0.0376729
-0.023124
-0.0085008
0.00579755
0.019317
0.0316083
0.0423531
0.051468
0.0587492
0.0636066
0.0656945
0.0654917
0.0636377
0.0592151
0.0505272
0.0374932
0.0230541
0.0113895
0.00443979
0.0021887
0.00381845
0.00817123
0.0133547
0.0193517
0.0252882
0.0305785
0.0337382
0.0348717
0.0325781
0.0299805
0.0324256
0.0338758
0.0251929
0.000237088
-0.0317522
-0.0701511
-0.0931321
-0.0848041
-0.057596
-0.0256249
-0.00366724
0.0183772
0.0296172
0.0480478
0.0456509
0.00323537
-0.0437226
-0.0971133
-0.0984693
-0.074534
-0.0400874
0.0259248
0.0198576
-0.105205
-0.106786
-0.100011
-0.0875567
-0.0734208
-0.059656
-0.0466123
-0.0338923
-0.0210989
-0.00818207
0.00455807
0.0167186
0.0279009
0.0378146
0.0463165
0.0532512
0.0582301
0.0609691
0.0616431
0.0605807
0.0573437
0.0509563
0.0413309
0.030359
0.0208649
0.0146451
0.0118576
0.0121339
0.0149321
0.018654
0.0232051
0.027939
0.0323448
0.0347731
0.0354586
0.0334076
0.0305074
0.0318444
0.0321736
0.0254022
0.00604282
-0.0171397
-0.0474333
-0.0675364
-0.062998
-0.0430781
-0.0176923
0.000489468
0.0202678
0.0297203
0.0447015
0.043898
0.00387511
-0.0393246
-0.0893673
-0.0907685
-0.0667522
-0.0357193
0.0225038
0.0184097
-0.0911221
-0.0929218
-0.0875366
-0.0770626
-0.0649029
-0.0529276
-0.0415313
-0.0304157
-0.0192291
-0.00789684
0.00335369
0.0141886
0.0242608
0.0333179
0.0411752
0.047703
0.0526337
0.055742
0.0570539
0.0567104
0.0544959
0.0498939
0.0428921
0.0347146
0.0272378
0.0219591
0.0191399
0.0186509
0.0203607
0.0230061
0.0263948
0.0300493
0.0336358
0.035523
0.0357728
0.0340693
0.0312026
0.0316735
0.0305351
0.0248443
0.0107829
-0.00385773
-0.0264116
-0.0435179
-0.0423388
-0.0291685
-0.0100497
0.00436632
0.0216757
0.0296926
0.0400296
0.0409117
0.004343
-0.0336344
-0.0794365
-0.0812844
-0.0579456
-0.0304783
0.0189087
0.0165592
-0.078437
-0.0803846
-0.0761506
-0.067396
-0.0570077
-0.0466663
-0.0367814
-0.0271344
-0.0174236
-0.00755899
0.00229583
0.011863
0.0208341
0.0290424
0.0362506
0.0423384
0.0471135
0.0504002
0.0521508
0.0524027
0.0510497
0.0478657
0.0429131
0.0369777
0.0312966
0.0270125
0.0244779
0.0236464
0.024594
0.0264244
0.0289096
0.0316567
0.0344978
0.0359884
0.0359411
0.0346158
0.0320496
0.0319956
0.029928
0.0242303
0.0150335
0.0078141
-0.00803812
-0.0224427
-0.0240908
-0.0165969
-0.00292812
0.00795657
0.0226894
0.0296882
0.0347581
0.0372034
0.00518446
-0.0261988
-0.0671426
-0.0700325
-0.0485172
-0.0246083
0.015405
0.0143867
-0.067048
-0.0690202
-0.0657395
-0.0584817
-0.0496685
-0.0407966
-0.0322836
-0.0239793
-0.0156188
-0.00709638
0.00147562
0.00986913
0.0178362
0.0251552
0.0316933
0.0373126
0.0418572
0.0451834
0.0472194
0.0479567
0.0473436
0.0453153
0.0419622
0.037792
0.0336485
0.030316
0.0281941
0.0272848
0.0277535
0.0290018
0.0308214
0.032844
0.0350284
0.0362001
0.0360185
0.03506
0.0329578
0.0326696
0.030638
0.025163
0.0198124
0.0176134
0.00658791
-0.00569025
-0.00924216
-0.00584881
0.00348185
0.0112643
0.0234467
0.0296503
0.0303524
0.0337269
0.00732844
-0.0167059
-0.0526198
-0.0572851
-0.0389862
-0.0184697
0.012259
0.012042
-0.0567236
-0.0587033
-0.0562259
-0.0502574
-0.0428295
-0.0352742
-0.0280038
-0.0209125
-0.013766
-0.00645525
0.000943236
0.00824142
0.0152306
0.0217253
0.027604
0.0327418
0.0370099
0.0402902
0.0425029
0.0436254
0.0436287
0.0425221
0.0404137
0.0376274
0.0347343
0.032269
0.0306124
0.0298012
0.0300057
0.0308455
0.0321781
0.0336439
0.035296
0.0362116
0.0360116
0.0353986
0.0338131
0.0335418
0.0322986
0.0285614
0.0259234
0.0254576
0.016992
0.00641271
0.0021948
0.00299451
0.00903398
0.0142778
0.0240339
0.0294247
0.0282365
0.0314984
0.0116898
-0.00545839
-0.0367173
-0.0437724
-0.0299639
-0.0125187
0.00973643
0.00973608
-0.0474084
-0.0493687
-0.0475445
-0.0426746
-0.0364619
-0.030078
-0.0239132
-0.017897
-0.0118296
-0.00560596
0.000725558
0.0070187
0.0131016
0.0188201
0.0240614
0.0287185
0.0326812
0.0358527
0.0381545
0.0395646
0.0400605
0.0396809
0.0385272
0.0368167
0.0349285
0.0332231
0.0320229
0.031391
0.0314796
0.0320535
0.0330479
0.0341077
0.0353505
0.0360855
0.0359163
0.0356142
0.0345426
0.0344032
0.0342296
0.0328448
0.0320558
0.0311996
0.0239356
0.0148781
0.0107679
0.0100658
0.0136514
0.0169979
0.0244793
0.0290481
0.0286318
0.0311199
0.018263
0.00622151
-0.0210716
-0.0305605
-0.0218568
-0.00726377
0.00806911
0.00774175
-0.0390441
-0.0409289
-0.0396285
-0.0356923
-0.0305325
-0.0251723
-0.0199795
-0.0149127
-0.00980162
-0.00454464
0.00083323
0.00621804
0.0114729
0.0164675
0.0211026
0.0252877
0.028927
0.0319442
0.0342653
0.0358712
0.0367429
0.0369224
0.036492
0.0356033
0.0345016
0.0334338
0.0326537
0.0322373
0.0323167
0.0327347
0.033503
0.0342869
0.0352212
0.0358456
0.035743
0.0356778
0.0350896
0.0351106
0.0357091
0.0360026
0.0361364
0.0345868
0.0282971
0.0207296
0.0170427
0.0155336
0.0173346
0.0193784
0.0248193
0.0287186
0.0303584
0.0311509
0.0248294
0.0158977
-0.00775432
-0.0188545
-0.0148445
-0.00310494
0.00727578
0.00630656
-0.0315032
-0.0332886
-0.0324076
-0.0292586
-0.0250075
-0.0205406
-0.0161983
-0.0119616
-0.0076879
-0.00328053
0.00125293
0.00582368
0.0103326
0.0146629
0.0187296
0.0224592
0.0257691
0.0285991
0.0308815
0.0326001
0.0337358
0.0343265
0.0344332
0.0341731
0.0336656
0.0331165
0.0327077
0.0325103
0.0326426
0.0329857
0.0336085
0.0342239
0.0349384
0.0354922
0.0354879
0.0355702
0.0353845
0.0355381
0.0363029
0.0372627
0.0376779
0.0359707
0.0307773
0.0246241
0.0214359
0.0195746
0.0201735
0.0213462
0.0251627
0.0286179
0.0316083
0.0306246
0.0290723
0.021874
0.00174739
-0.00966774
-0.0089104
-0.000148801
0.00712283
0.00550692
-0.0246984
-0.0263842
-0.0258398
-0.0233505
-0.019875
-0.016176
-0.0125669
-0.00904831
-0.00550037
-0.00183106
0.00196367
0.00582063
0.00965527
0.0133809
0.016921
0.0202165
0.0231968
0.0258155
0.0280122
0.0297725
0.0310751
0.0319528
0.0324436
0.0326079
0.0325728
0.0324389
0.0323464
0.0323525
0.0325673
0.0328952
0.0334306
0.0339527
0.0345237
0.0350218
0.0351294
0.0352905
0.0353857
0.035635
0.0362884
0.0373068
0.0376132
0.0360593
0.0319543
0.0270554
0.0243339
0.0224245
0.0222965
0.0228694
0.0255862
0.028649
0.031581
0.0301437
0.0303168
0.0241133
0.0074029
-0.00315177
-0.00400502
0.00181932
0.00707039
0.00505377
-0.0186037
-0.0201698
-0.0198757
-0.0179243
-0.0151028
-0.0120614
-0.00908461
-0.00618491
-0.00326209
-0.000231495
0.00291591
0.00615516
0.00939539
0.0125767
0.0156331
0.0185197
0.0211774
0.0235695
0.0256435
0.0273862
0.0287732
0.0298345
0.0306015
0.0310631
0.0313547
0.0315357
0.0316996
0.0318847
0.0321893
0.0325409
0.0330288
0.0335022
0.0339905
0.0344404
0.0346458
0.0348465
0.0350955
0.0354094
0.0358669
0.036668
0.0367575
0.0354268
0.0322788
0.0284453
0.0261202
0.0243463
0.0238263
0.0239869
0.0260127
0.0286016
0.0306625
0.0296348
0.0299378
0.0244219
0.0106891
0.00129897
-0.000172336
0.00318435
0.00668263
0.00446537
-0.0131442
-0.0145724
-0.0144593
-0.0129432
-0.0106766
-0.00819767
-0.00576216
-0.00339014
-0.00100129
0.001485
0.00409163
0.00678075
0.00949841
0.0121925
0.0148099
0.0173164
0.0196628
0.02182
0.0237429
0.0254191
0.0268227
0.0279681
0.0288539
0.0295688
0.0301022
0.0305138
0.0308739
0.0312068
0.0315945
0.0319868
0.0324546
0.0329049
0.0333495
0.0337593
0.0340314
0.0342554
0.0345517
0.0348317
0.0351537
0.035678
0.0355791
0.0344541
0.032071
0.029113
0.0271213
0.0255541
0.0248699
0.0247633
0.0262712
0.0282903
0.0294022
0.0288605
0.0286931
0.0238608
0.0126801
0.00438101
0.00259029
0.00415348
0.00599058
0.00369744
-0.00826489
-0.00957221
-0.00960448
-0.00844903
-0.0066205
-0.00460155
-0.00261527
-0.000684673
0.00125928
0.00328408
0.00541517
0.00763529
0.00989796
0.0121626
0.0143868
0.0165443
0.0185954
0.0205169
0.0222712
0.0238462
0.0252181
0.026391
0.0273803
0.028206
0.0288871
0.0294529
0.0299521
0.0303984
0.0308541
0.0312895
0.0317531
0.0321928
0.0326148
0.0329951
0.0332999
0.0335396
0.0338094
0.0340739
0.0342589
0.0345327
0.0343093
0.0333563
0.0315449
0.0292822
0.0275758
0.0261484
0.0255057
0.0252356
0.0262305
0.0276131
0.0280481
0.0277247
0.026972
0.0228401
0.0138636
0.00658078
0.00449774
0.00488136
0.00520284
0.00292674
-0.00387977
-0.00505896
-0.00519212
-0.00432617
-0.00288326
-0.00125888
0.000346846
0.00190584
0.00347353
0.00511187
0.00684515
0.00866461
0.0105347
0.0124241
0.0142986
0.016139
0.0179138
0.0196044
0.0211808
0.0226314
0.0239351
0.0250987
0.0261078
0.0269877
0.0277503
0.0284092
0.0289976
0.0295228
0.0300277
0.0304979
0.0309636
0.0313978
0.0318059
0.032165
0.0324755
0.0327213
0.0329512
0.0331706
0.0332572
0.0333418
0.0330485
0.0322392
0.0308418
0.0291104
0.0276679
0.0264506
0.0258039
0.0254231
0.0259072
0.0267224
0.0266884
0.0258115
0.0250544
0.0216031
0.0144651
0.0081442
0.0058129
0.00538184
0.00448933
0.00229946
3.71126e-05
-0.00102385
-0.00122643
-0.000590207
0.000542076
0.00183878
0.00312528
0.00437258
0.0056258
0.00693961
0.00833797
0.00981751
0.0113512
0.0129148
0.014481
0.0160362
0.0175557
0.0190256
0.0204213
0.0217308
0.0229345
0.0240381
0.0250319
0.0259223
0.0267171
0.0274213
0.0280571
0.0286284
0.0291624
0.0296544
0.0301212
0.0305494
0.0309442
0.031287
0.0315874
0.0318267
0.0320181
0.0321808
0.0322009
0.0321611
0.0318369
0.0311475
0.0300485
0.0287071
0.0275004
0.0264407
0.0257971
0.0253391
0.0253889
0.0257374
0.0254237
0.0243707
0.0232343
0.0203148
0.0146487
0.00921078
0.0067167
0.0057546
0.00456376
0.00188566
0.00350983
0.00257449
0.00233753
0.00279511
0.00367258
0.00469593
0.00571568
0.00670343
0.00769503
0.00873817
0.00985597
0.0110486
0.0122957
0.0135783
0.0148747
0.0161754
0.0174622
0.0187241
0.0199408
0.0211021
0.0221944
0.0232117
0.0241526
0.0250147
0.0258024
0.0265143
0.0271635
0.0277521
0.0282955
0.0287941
0.0292557
0.0296743
0.0300535
0.0303805
0.030662
0.0308837
0.0310412
0.0311513
0.0311287
0.0310164
0.0306873
0.0300951
0.0292131
0.0281512
0.0271392
0.0262006
0.025552
0.0250504
0.0247638
0.0247177
0.0242114
0.0230005
0.0215997
0.0190686
0.0145485
0.00989048
0.00731039
0.00595445
0.00420189
0.00160502
0.00660926
0.00579085
0.00553297
0.00584719
0.00651638
0.0073149
0.00811461
0.00888801
0.00966349
0.0104821
0.0113661
0.0123179
0.0133217
0.0143632
0.0154255
0.0165011
0.0175774
0.0186463
0.0196916
0.0207036
0.0216725
0.0225908
0.0234558
0.024263
0.0250136
0.0257034
0.0263388
0.0269202
0.0274551
0.0279455
0.0283933
0.0287965
0.029156
0.029464
0.0297221
0.0299206
0.030049
0.0301164
0.0300676
0.0299175
0.0295984
0.029084
0.0283598
0.027496
0.0266328
0.025797
0.0251272
0.0245778
0.024072
0.0237009
0.0230407
0.0217429
0.0201781
0.0179117
0.014263
0.0102719
0.00767032
0.00604556
0.00400401
0.0014371
0.00936154
0.00864655
0.00838172
0.00858674
0.00908916
0.00970377
0.0103222
0.010919
0.0115169
0.0121505
0.0128404
0.0135905
0.0143891
0.0152249
0.0160853
0.0169644
0.0178527
0.0187448
0.0196289
0.0204962
0.0213382
0.0221487
0.0229241
0.0236587
0.0243511
0.0249969
0.0255971
0.0261516
0.0266619
0.0271304
0.0275553
0.0279365
0.0282717
0.0285561
0.0287886
0.0289615
0.0290652
0.0291
0.0290346
0.0288673
0.0285648
0.0281124
0.0275014
0.0267792
0.0260213
0.0252684
0.0245774
0.0239704
0.0233319
0.0227159
0.021921
0.0206003
0.0189572
0.016865
0.0138604
0.010429
0.00785868
0.00606352
0.00388967
0.00134192
0.0117923
0.0111759
0.0109168
0.0110386
0.0114063
0.0118701
0.0123397
0.0127919
0.0132445
0.0137264
0.014256
0.0148382
0.0154646
0.0161261
0.0168131
0.0175217
0.0182447
0.0189776
0.0197123
0.0204422
0.0211602
0.0218603
0.0225383
0.0231893
0.0238102
0.0243966
0.0249461
0.0254582
0.0259307
0.0263659
0.0267595
0.0271112
0.0274175
0.0276741
0.0278789
0.0280255
0.0281074
0.0281173
0.0280403
0.0278672
0.0275818
0.0271782
0.0266457
0.0260237
0.0253408
0.0246449
0.0239454
0.0232795
0.02256
0.0217806
0.0208674
0.0195583
0.0179064
0.0159331
0.0133895
0.0104216
0.00792262
0.00602315
0.00380996
0.00128884
0.0139391
0.0134115
0.0131637
0.0132219
0.0134816
0.0138228
0.0141707
0.014505
0.0148392
0.0151973
0.0155955
0.0160386
0.0165208
0.0170352
0.0175744
0.0181358
0.0187147
0.0193073
0.019907
0.0205094
0.0211104
0.0217003
0.0222784
0.0228404
0.0233818
0.0238991
0.0243874
0.0248462
0.0252714
0.0256638
0.0260185
0.0263342
0.0266076
0.026832
0.0270092
0.0271286
0.027189
0.0271791
0.0270916
0.026918
0.0266463
0.0262792
0.0258014
0.0252471
0.0246188
0.0239577
0.0232596
0.0225473
0.0217718
0.0208975
0.0198914
0.0186016
0.0169911
0.0151102
0.0128875
0.0102954
0.00789312
0.00593585
0.0037368
0.00125654
0.0158266
0.0153775
0.0151454
0.0151561
0.01533
0.0155717
0.0158205
0.0160589
0.0162971
0.0165547
0.0168455
0.0171741
0.0175364
0.0179271
0.0183411
0.0187765
0.01923
0.0196995
0.0201795
0.0206655
0.0211534
0.0216414
0.0221222
0.022595
0.0230544
0.0234974
0.0239187
0.0243172
0.0246883
0.0250312
0.0253414
0.0256164
0.0258528
0.0260441
0.0261893
0.0262818
0.0263195
0.026292
0.0261938
0.0260199
0.0257582
0.0254157
0.0249761
0.0244647
0.0238763
0.0232375
0.0225434
0.0218023
0.0209849
0.0200619
0.018997
0.0177219
0.01618