/*--------------------------------*- C++ -*----------------------------------*\
| =========                 |                                                 |
| \\      /  F ield         | OpenFOAM: The Open Source CFD Toolbox           |
|  \\    /   O peration     | Version:  2512                                  |
|   \\  /    A nd           | Website:  www.openfoam.com                      |
|    \\/     M anipulation  |                                                 |
\*---------------------------------------------------------------------------*/
FoamFile
{
    version     2.0;
    format      ascii;
    arch        "LSB;label=32;scalar=64";
    class       surfaceScalarField;
    location    "156.05";
    object      phi;
}
// * * * * * * * * * * * * * * * * * * * * * * * * * * * * * * * * * * * * * //

dimensions      [0 3 -1 0 0 0 0];

oriented        oriented;

internalField   nonuniform List<scalar> 
26232
(
-0.000425431
0.00213728
-0.00171185
-0.000890494
0.00434109
-0.00387602
-0.000782251
0.00493732
-0.00504556
0.000456789
0.00395724
-0.00519628
0.00338762
0.00122462
-0.00415545
0.00855475
-0.00351646
-0.00165068
0.0164148
-0.0104506
0.00259051
0.0271631
-0.0195091
0.00876077
0.0405859
-0.0302824
0.0168596
0.0560113
-0.0420641
0.0266387
0.0724011
-0.0540057
0.0376159
0.0885448
-0.0652955
0.0491518
0.103296
-0.075305
0.0605537
0.115797
-0.0836818
0.0711806
0.125641
-0.0903794
0.080536
0.132922
-0.0956252
0.0883434
0.138158
-0.099823
0.0945879
0.142035
-0.103406
0.0995285
0.145207
-0.106696
0.103524
0.147953
-0.109892
0.107147
0.150502
-0.112873
0.110323
0.152545
-0.116033
0.11399
0.153739
-0.118027
0.116834
-0.121328
0.121219
0.153848
-0.000225948
0.00236323
-0.00021123
0.00432637
0.000679671
0.00404642
0.00309289
0.00154402
0.00766795
-0.00335044
0.0149422
-0.0107907
0.0251454
-0.0206538
0.0380027
-0.0323664
0.0526932
-0.0449729
0.0680181
-0.057389
0.0826928
-0.0686804
0.0956463
-0.0782491
0.106242
-0.0859011
0.114366
-0.0918056
0.120359
-0.0963723
0.124821
-0.100087
0.128356
-0.103358
0.131391
-0.10644
0.134129
-0.109434
0.136603
-0.112367
0.138947
-0.115217
0.140977
-0.118063
0.143546
-0.120596
-0.12401
0.146228
-1.59578e-05
0.00237918
0.000565387
0.00374503
0.00241886
0.00219295
0.00624942
-0.00228654
0.0126953
-0.00979633
0.0220845
-0.0201799
0.0341527
-0.0327219
0.0479766
-0.0461903
0.0622196
-0.0592159
0.0755386
-0.0707081
0.0869471
-0.0800888
0.0960107
-0.0873127
0.102842
-0.0927322
0.107923
-0.0968872
0.111853
-0.100302
0.115123
-0.103357
0.118031
-0.106266
0.120712
-0.109121
0.123224
-0.111946
0.125638
-0.114781
0.127973
-0.117552
0.130317
-0.120407
0.132678
-0.122956
-0.125951
0.134619
0.000173762
0.00220542
0.00135521
0.00256358
0.00427882
-0.000730665
0.00967255
-0.00768027
0.0180097
-0.0181334
0.0291274
-0.0312977
0.0420648
-0.0456592
0.0553638
-0.0594894
0.0676115
-0.0714636
0.0778739
-0.0809705
0.0858596
-0.0880745
0.0918182
-0.0932713
0.0962836
-0.0971976
0.099805
-0.100409
0.102784
-0.103281
0.105451
-0.106024
0.107923
-0.108738
0.110263
-0.111461
0.112528
-0.114212
0.114722
-0.116974
0.116916
-0.119746
0.119068
-0.122559
0.121341
-0.125229
-0.128427
0.123817
0.000360106
0.00184532
0.0021891
0.000734591
0.00628371
-0.00482528
0.0132838
-0.0146804
0.0232328
-0.0280824
0.0352343
-0.0432992
0.047731
-0.0581559
0.0591961
-0.0709545
0.0686749
-0.0809424
0.0759325
-0.0882281
0.081277
-0.093419
0.0852505
-0.0972449
0.0883687
-0.100316
0.0909983
-0.103038
0.0933574
-0.10564
0.0955668
-0.108234
0.0976893
-0.110861
0.0997617
-0.113533
0.101792
-0.116242
0.103805
-0.118987
0.105821
-0.121762
0.107835
-0.124574
0.109965
-0.127358
-0.130386
0.111924
0.000576812
0.0012685
0.00313086
-0.00181945
0.00846003
-0.0101545
0.0169065
-0.0231268
0.0278032
-0.0389792
0.0395597
-0.0550557
0.0504814
-0.0690776
0.0594908
-0.0799638
0.0663134
-0.087765
0.0712557
-0.0931704
0.0748578
-0.0970211
0.0776299
-0.100017
0.0799385
-0.102624
0.0820052
-0.105105
0.0839468
-0.107582
0.085815
-0.110102
0.0876309
-0.112676
0.0894013
-0.115303
0.091142
-0.117983
0.0928666
-0.120712
0.0945939
-0.123489
0.0963417
-0.126322
0.098154
-0.129171
-0.132228
0.0999964
0.000841966
0.000426538
0.0041921
-0.00516958
0.0107079
-0.0166702
0.0201558
-0.0325747
0.0310827
-0.049906
0.0416025
-0.0655755
0.0503939
-0.077869
0.0570301
-0.0866
0.0617549
-0.0924898
0.0650975
-0.096513
0.0675803
-0.0995039
0.0695877
-0.102024
0.0713514
-0.104388
0.0729893
-0.106743
0.0745521
-0.109145
0.0760615
-0.111611
0.0775301
-0.114145
0.0789726
-0.116746
0.0804007
-0.119411
0.0818274
-0.122139
0.0832683
-0.12493
0.084724
-0.127778
0.0862332
-0.13068
-0.133699
0.0877036
0.00115117
-0.000724629
0.00531551
-0.00933392
0.012793
-0.0241477
0.0225742
-0.0423559
0.0326741
-0.060006
0.0414139
-0.0743153
0.0480753
-0.0845305
0.0527581
-0.0912828
0.0559574
-0.0956892
0.0582165
-0.0987721
0.059952
-0.101239
0.0614194
-0.103492
0.0627495
-0.105718
0.0640004
-0.107994
0.0651976
-0.110342
0.0663545
-0.112768
0.0674804
-0.115271
0.0685824
-0.117848
0.0696692
-0.120498
0.0707518
-0.123221
0.0718385
-0.126017
0.0729453
-0.128885
0.0740901
-0.131825
-0.134851
0.0752419
0.00148517
-0.0022098
0.00639366
-0.0142424
0.0144333
-0.0321874
0.0238477
-0.0517703
0.0325694
-0.0687276
0.0394232
-0.0811691
0.0442396
-0.0893468
0.0474262
-0.0944694
0.0495406
-0.0978035
0.0510443
-0.100276
0.0522318
-0.102427
0.0532581
-0.104518
0.0541936
-0.106654
0.0550681
-0.108868
0.055895
-0.111169
0.0566824
-0.113556
0.0574378
-0.116026
0.0581705
-0.118581
0.0588909
-0.121218
0.0596084
-0.123939
0.0603334
-0.126742
0.0610728
-0.129624
0.0618317
-0.132584
-0.135607
0.062588
0.00181551
-0.00402531
0.0072975
-0.0197244
0.0154072
-0.0402971
0.0239124
-0.0602756
0.0310374
-0.0758526
0.0361558
-0.0862875
0.0394804
-0.0926714
0.0415489
-0.096538
0.0428742
-0.0991288
0.0438069
-0.101209
0.0445397
-0.10316
0.0451623
-0.105141
0.0457119
-0.107203
0.0462047
-0.109361
0.0466497
-0.111614
0.0470549
-0.113961
0.0474282
-0.1164
0.0477777
-0.11893
0.0481111
-0.121552
0.0484373
-0.124265
0.0487635
-0.127068
0.0490989
-0.129959
0.0494491
-0.132934
-0.135971
0.0498137
0.00210917
-0.00613448
0.00791105
-0.0255263
0.0156221
-0.0480082
0.0229057
-0.0675591
0.0284486
-0.0813955
0.0320799
-0.0899188
0.0342323
-0.0948238
0.0354554
-0.0977611
0.0361714
-0.0998449
0.0366285
-0.101666
0.0369463
-0.103478
0.0371753
-0.105369
0.0373361
-0.107364
0.0374395
-0.109464
0.037493
-0.111667
0.0375036
-0.113971
0.0374783
-0.116374
0.0374246
-0.118876
0.0373509
-0.121478
0.037266
-0.12418
0.0371781
-0.12698
0.0370921
-0.129873
0.0370061
-0.132848
-0.135888
0.0369224
0.00234012
-0.0084746
0.0081695
-0.0313557
0.0151265
-0.0549651
0.0210711
-0.0735038
0.0251671
-0.0854915
0.0275667
-0.0923184
0.0287959
-0.096053
0.0293511
-0.0983162
0.029557
-0.100051
0.0295809
-0.101689
0.0294947
-0.103391
0.0293274
-0.105202
0.0290917
-0.107128
0.0287954
-0.109168
0.0284448
-0.111317
0.0280466
-0.113573
0.0276073
-0.115935
0.0271338
-0.118403
0.0266329
-0.120977
0.0261122
-0.123659
0.0255799
-0.126448
0.0250438
-0.129337
0.024509
-0.132313
0.0239899
-0.135369
6.45957e-05
0.00436042
-0.00442501
-0.000131513
0.0122371
-0.012041
-0.00087914
0.0186507
-0.0179031
-0.00219529
0.0233464
-0.0220303
-0.00392063
0.0267769
-0.0250515
-0.00583892
0.0296133
-0.027695
-0.0077565
0.0323423
-0.0304247
-0.0095251
0.0351515
-0.0333829
-0.011016
0.0379902
-0.0364993
-0.0120951
0.0406847
-0.0396055
-0.0126131
0.0430122
-0.0424941
-0.0124086
0.0447338
-0.0449383
-0.0113209
0.0456146
-0.0467023
-0.00920541
0.0454389
-0.0475544
-0.00594585
0.0440265
-0.047286
-0.00146041
0.0412457
-0.0457311
0.0042936
0.0370253
-0.0427793
0.0112558
0.0313893
-0.0383515
0.0193403
0.0243773
-0.0324618
0.0283768
0.0161095
-0.025146
0.0381508
0.00673594
-0.0165099
0.0484635
-0.00381848
-0.00649423
0.0591291
-0.0154363
0.00477066
-0.0286006
0.0701611
0.0175686
0.000397414
0.003963
0.000964594
0.0116699
0.00124139
0.0183739
0.00104568
0.0235421
0.000473384
0.0273492
-0.000237349
0.030324
-0.000841609
0.0329465
-0.00113571
0.0354456
-0.000962587
0.0378171
-0.000187023
0.0399091
0.00131971
0.0415054
0.00367861
0.0423749
0.00699671
0.0422965
0.011356
0.0410797
0.0168026
0.0385799
0.0233385
0.0347098
0.0309183
0.0294454
0.0394603
0.0228473
0.0488509
0.0149867
0.058837
0.00612336
0.0694292
-0.00385617
0.0802742
-0.0146636
0.0911356
-0.0262977
-0.0397495
0.102285
0.000644504
0.0033185
0.00188414
0.0104303
0.00314997
0.0171081
0.00412214
0.02257
0.0047868
0.0266845
0.00534452
0.0297663
0.00607135
0.0322197
0.00721452
0.0343025
0.00896252
0.0360691
0.0114528
0.0374188
0.0147884
0.0381698
0.0190467
0.0381166
0.0242778
0.0370655
0.0304991
0.0348583
0.0376928
0.0313862
0.0457962
0.0266064
0.0547242
0.0205174
0.0643017
0.0132699
0.0743937
0.00489479
0.0848728
-0.00435577
0.0955673
-0.0145507
0.106348
-0.0254442
0.117321
-0.0372702
-0.0515289
0.1291
0.000770409
0.00254809
0.0024713
0.00872938
0.00455103
0.0150283
0.00660003
0.020521
0.00847672
0.0248078
0.0102901
0.0279529
0.0122848
0.0302249
0.014724
0.0318632
0.0178226
0.0329705
0.0217294
0.0335119
0.0265351
0.0333642
0.0322826
0.032369
0.0389739
0.0303741
0.0465707
0.0272615
0.0549994
0.0229576
0.0641298
0.017476
0.0738312
0.010816
0.0838246
0.00327651
0.0942538
-0.0055344
0.104653
-0.0147549
0.115342
-0.0252399
0.126377
-0.0364792
0.138394
-0.0492868
-0.0649016
0.151766
0.000770377
0.00177771
0.00265614
0.00684362
0.00523118
0.0124533
0.00808878
0.0176634
0.0109923
0.0219043
0.013931
0.0250143
0.0170626
0.0270933
0.0206135
0.0283124
0.024796
0.028788
0.0297661
0.0285419
0.0356117
0.0275186
0.0423573
0.0256234
0.0499718
0.0227596
0.0583716
0.0188618
0.0674392
0.0138899
0.0769939
0.0079212
0.0868381
0.000971812
0.0970261
-0.00691151
0.107423
-0.0159309
0.118065
-0.0253969
0.129754
-0.0369294
0.142471
-0.049196
0.157101
-0.0639172
-0.0803308
0.17253
0.000664328
0.00111338
0.00245089
0.00505706
0.00511947
0.00978471
0.00835853
0.0144243
0.0119118
0.018351
0.0156742
0.0212519
0.0196942
0.0230733
0.0241147
0.0238918
0.0291015
0.0238012
0.0347893
0.0228541
0.0412546
0.0210533
0.0485072
0.0183708
0.0564945
0.0147723
0.0651102
0.010246
0.0742167
0.00478342
0.0837479
-0.00160995
0.0937863
-0.00906662
0.104253
-0.0173779
0.115626
-0.0273038
0.128259
-0.0380299
0.142818
-0.0514887
0.158638
-0.0650166
0.175893
-0.0811723
-0.0959749
0.191538
0.000480987
0.000632396
0.00192842
0.00360963
0.00429584
0.00741729
0.00741962
0.0113005
0.0111001
0.0146705
0.0151986
0.0171535
0.0196784
0.0185935
0.0245882
0.018982
0.0300167
0.0183728
0.0360466
0.0168242
0.0427251
0.0143747
0.0500551
0.0110408
0.0580082
0.00681924
0.0665474
0.00170679
0.0758095
-0.00447868
0.085904
-0.0117045
0.0971066
-0.0202692
0.109864
-0.0301353
0.124432
-0.0418713
0.14089
-0.0544887
0.158627
-0.0692251
0.176296
-0.0826856
0.192816
-0.0976926
-0.108043
0.204884
0.000244459
0.000387937
0.00118356
0.00267053
0.00294295
0.0056579
0.0055112
0.00873229
0.00878673
0.0113949
0.0126553
0.0132849
0.0170444
0.0142044
0.0219376
0.0140887
0.0273606
0.0129497
0.0333618
0.010823
0.0400081
0.00772839
0.0473918
0.00365716
0.0556869
-0.00147591
0.0651719
-0.00777812
0.0761054
-0.0154122
0.0888868
-0.0244859
0.103684
-0.0350668
0.120525
-0.0469757
0.138731
-0.0600776
0.157539
-0.0732968
0.175136
-0.0868215
0.190271
-0.0978209
0.201354
-0.108776
-0.113858
0.207169
-2.55073e-05
0.000413444
0.000319679
0.00232534
0.00130351
0.00467407
0.0030423
0.0069935
0.00553937
0.00889785
0.00874531
0.010079
0.0126151
0.0103346
0.0171478
0.00955596
0.0224094
0.00768816
0.0285417
0.00469078
0.0358037
0.000466369
0.0444898
-0.00502895
0.0549688
-0.0119549
0.0675541
-0.0203634
0.0823645
-0.0302226
0.0992702
-0.0413916
0.117699
-0.0534956
0.136791
-0.0660676
0.155111
-0.0783975
0.171495
-0.0896814
0.184226
-0.0995525
0.193046
-0.10664
0.197343
-0.113073
-0.11512
0.198605
-0.0002894
0.000702844
-0.000515076
0.00255102
-0.000288604
0.0044476
0.000610409
0.00609449
0.00229246
0.0072158
0.00482777
0.00754368
0.00829471
0.00686769
0.0128457
0.00500494
0.0187382
0.00179569
0.0262995
-0.00287051
0.0358712
-0.00910532
0.0477702
-0.016928
0.0620676
-0.0262523
0.078556
-0.0368518
0.096673
-0.0483396
0.115514
-0.0602329
0.133899
-0.0718799
0.150572
-0.0827409
0.164296
-0.0921212
0.174481
-0.0998671
0.180686
-0.105757
0.184108
-0.110062
0.185156
-0.114121
-0.115857
0.185893
-0.000481408
0.00118425
-0.00110315
0.00317276
-0.00138006
0.00472451
-0.000984864
0.00569929
0.00033588
0.00589506
0.00281966
0.0050599
0.00676149
0.00292586
0.0125219
-0.000755484
0.0204456
-0.00612799
0.0308508
-0.0132757
0.0438332
-0.0220877
0.0591906
-0.0322854
0.0763673
-0.0434289
0.0944805
-0.054965
0.112423
-0.0662823
0.128991
-0.0768005
0.143121
-0.0860104
0.154063
-0.0936828
0.161622
-0.0996801
0.166288
-0.104532
0.16882
-0.10829
0.170812
-0.112054
0.172175
-0.115484
-0.11786
0.174178
-0.000527595
-0.00123086
-0.00155192
-0.00104891
0.000690703
0.00409993
0.0096163
0.0176216
0.0283532
0.0417162
0.0572444
0.0741108
0.0912356
0.107451
0.121705
0.133248
0.141825
0.147671
0.151515
0.154129
0.156163
0.158098
0.159449
0.162807
0.0794325
-0.0549782
0.0457067
0.0885006
-0.084431
0.0753629
0.0970852
-0.115114
0.10653
0.104427
-0.141
0.133658
0.109399
-0.157684
0.152712
0.111122
-0.16476
0.163037
0.110708
-0.165727
0.166141
0.109769
-0.162396
0.163334
0.106934
-0.156786
0.159622
0.100546
-0.155713
0.1621
0.0930337
-0.1616
0.169112
0.0900021
-0.163301
0.166332
0.0946396
-0.143184
0.138546
0.105054
-0.0938523
0.0834379
0.118319
-0.0228933
0.00962808
0.131806
0.0547647
-0.0682512
0.143926
0.121203
-0.133324
0.153016
0.16447
-0.173559
0.158024
0.186109
-0.191117
0.160076
0.194416
-0.196468
0.161145
0.194181
-0.19525
0.160999
0.192621
-0.192475
0.158012
0.203338
-0.200352
0.151929
0.228494
-0.22241
0.144405
0.245907
-0.238383
0.137697
0.224381
-0.217673
0.13372
0.149669
-0.145692
0.133653
0.0355722
-0.0355047
0.137084
-0.0821675
0.078736
0.142998
-0.170395
0.164481
0.14904
-0.21674
0.210699
0.152365
-0.23541
0.232085
0.150557
-0.24615
0.247957
0.142655
-0.258257
0.266159
0.130818
-0.263358
0.275195
0.119464
-0.238855
0.250209
0.11294
-0.165278
0.171801
0.11414
-0.0501231
0.0489231
0.122066
0.0711027
-0.0790289
0.131429
0.165337
-0.1747
0.134784
0.227477
-0.230832
0.130086
0.276645
-0.271947
0.122002
0.299822
-0.291737
0.116164
0.270892
-0.265054
0.116012
0.175886
-0.175734
0.120816
0.0380082
-0.0428126
0.124685
-0.0899717
0.0861035
0.12379
-0.211476
0.212371
0.120885
-0.288897
0.291801
0.118557
-0.308706
0.311034
0.117965
-0.237711
0.238303
0.117541
-0.0667169
0.067141
0.115761
0.105156
-0.103375
0.11329
0.296012
-0.293541
0.111912
0.343888
-0.342509
0.109805
0.235818
-0.233712
0.104738
0.0796671
-0.0746001
0.0985401
-0.239376
0.245574
0.0970861
-0.29402
0.295474
-0.0551599
0.0584477
0.108298
-0.0609919
0.114088
-0.0902208
0.118674
-0.1197
0.121091
-0.143417
0.1212
-0.157793
0.118669
-0.16223
0.113841
-0.160899
0.108812
-0.157367
0.103692
-0.151666
0.0958021
-0.147823
0.085386
-0.151184
0.0775697
-0.155485
0.0778936
-0.143508
0.0869078
-0.102867
0.101519
-0.037504
0.118587
0.0376961
0.135024
0.104767
0.14811
0.151383
0.156595
0.177625
0.161682
0.189328
0.165231
0.190633
0.167398
0.190454
0.167172
0.203564
0.164019
0.231647
0.158563
0.251363
0.152281
0.230662
0.147055
0.154895
0.144198
0.0384293
0.144112
-0.0820816
0.146481
-0.172764
0.149412
-0.219672
0.150254
-0.236252
0.146703
-0.242598
0.137499
-0.249054
0.124793
-0.250651
0.113509
-0.227571
0.10823
-0.159999
0.111642
-0.0535351
0.121909
0.0608355
0.132629
0.154618
0.136835
0.223271
0.133066
0.280414
0.125238
0.307649
0.118686
0.277444
0.117326
0.177247
0.121561
0.0337727
0.125288
-0.093699
0.123725
-0.209912
0.120071
-0.285243
0.117331
-0.305965
0.117337
-0.237717
0.117501
-0.0668812
0.116697
0.10596
0.115452
0.297256
0.113963
0.345377
0.111797
0.237983
0.105575
0.0858897
0.0978689
-0.23167
0.0976488
-0.2938
-0.0530856
0.133749
-0.0656405
0.137436
-0.0939079
0.138603
-0.120867
0.136368
-0.141182
0.131205
-0.15263
0.124468
-0.155493
0.1166
-0.153032
0.108698
-0.149465
0.101674
-0.144642
0.0930918
-0.139241
0.0809501
-0.139042
0.0691051
-0.143639
0.0645666
-0.138969
0.0707738
-0.109074
0.0856305
-0.0523607
0.105424
0.017903
0.125599
0.0845912
0.142569
0.134414
0.154641
0.165552
0.162896
0.181074
0.16907
0.184459
0.173799
0.185725
0.176689
0.200675
0.176909
0.231427
0.173934
0.254337
0.168305
0.236292
0.16163
0.161569
0.155607
0.0444529
0.151722
-0.0781969
0.150395
-0.171437
0.150149
-0.219425
0.148629
-0.234733
0.143737
-0.237706
0.133765
-0.239082
0.1204
-0.237286
0.109008
-0.216179
0.104861
-0.155852
0.110115
-0.0587896
0.122252
0.0486987
0.134314
0.142555
0.139704
0.217881
0.137159
0.28296
0.129654
0.315153
0.122268
0.284831
0.119468
0.180046
0.122816
0.0304248
0.126433
-0.0973159
0.12428
-0.207759
0.119764
-0.280727
0.116452
-0.302654
0.11698
-0.238246
0.117933
-0.0678338
0.118167
0.105726
0.118097
0.297327
0.116541
0.346934
0.11438
0.240144
0.107205
0.0930651
0.0980657
-0.22253
0.0987809
-0.294516
-0.0521872
0.155877
-0.0697509
0.157877
-0.0959081
0.156011
-0.119001
0.149896
-0.135068
0.14049
-0.143224
0.129997
-0.144999
0.119586
-0.142621
0.109498
-0.139377
0.100915
-0.136059
0.0924832
-0.130809
0.0806181
-0.127177
0.0662974
-0.129319
0.05676
-0.129432
0.0585483
-0.110862
0.071747
-0.0655594
0.092801
-0.00315097
0.115678
0.0617139
0.136015
0.114077
0.151578
0.149989
0.163021
0.169631
0.171866
0.175614
0.179287
0.178303
0.185562
0.1944
0.189523
0.227466
0.189525
0.254335
0.185023
0.240794
0.176904
0.169688
0.167595
0.0537616
0.15988
-0.0704819
0.154818
-0.166375
0.151365
-0.215972
0.147483
-0.23085
0.141425
-0.231648
0.13118
-0.228837
0.117567
-0.223673
0.105957
-0.204569
0.10241
-0.152305
0.109056
-0.0654354
0.122799
0.0349555
0.136361
0.128993
0.143298
0.210944
0.142179
0.284079
0.135141
0.322191
0.126997
0.292975
0.12257
0.184473
0.124673
0.0283226
0.128097
-0.10074
0.125456
-0.205118
0.119992
-0.275263
0.115934
-0.298596
0.116901
-0.239213
0.118778
-0.0697103
0.120095
0.104409
0.121158
0.296263
0.119572
0.34852
0.117495
0.242221
0.109617
0.100943
0.0990964
-0.21201
0.100478
-0.295897
-0.0524166
0.175428
-0.0726482
0.174602
-0.095082
0.168648
-0.113047
0.158518
-0.124938
0.146116
-0.130822
0.133488
-0.132371
0.121999
-0.131132
0.111101
-0.128479
0.10114
-0.126098
0.0927213
-0.12239
0.0825933
-0.117049
0.0684315
-0.115157
0.0552271
-0.116227
0.051639
-0.107274
0.0614503
-0.0753707
0.081278
-0.0229787
0.10558
0.0374117
0.128381
0.091276
0.146959
0.131412
0.161326
0.155264
0.172749
0.164191
0.182837
0.168215
0.192396
0.18484
0.200194
0.219668
0.203776
0.250753
0.201332
0.243238
0.192724
0.178296
0.180092
0.0663939
0.168366
-0.0587562
0.159436
-0.157444
0.152862
-0.209399
0.146746
-0.224734
0.139692
-0.224593
0.129612
-0.218758
0.116166
-0.210227
0.104253
-0.192655
0.100762
-0.148814
0.108208
-0.0728817
0.123244
0.01992
0.138435
0.113802
0.147374
0.202005
0.148206
0.283247
0.141942
0.328455
0.13312
0.301797
0.126843
0.19075
0.127194
0.0279725
0.130233
-0.10378
0.127208
-0.202093
0.120746
-0.268801
0.115758
-0.293607
0.117073
-0.240529
0.119968
-0.0726046
0.122396
0.101981
0.124568
0.294091
0.122972
0.350116
0.121073
0.244119
0.112768
0.109249
0.100934
-0.200176
0.102711
-0.297673
-0.0537173
0.191208
-0.0723189
0.186184
-0.0900575
0.176132
-0.102996
0.162779
-0.111585
0.148557
-0.1166
0.135033
-0.118848
0.123218
-0.119317
0.112723
-0.117984
0.102552
-0.115926
0.093677
-0.113516
0.0854014
-0.108773
0.0738466
-0.103602
0.0595978
-0.101979
0.050799
-0.0984751
0.0550034
-0.0795751
0.0715947
-0.03957
0.0954479
0.0135585
0.119681
0.0670425
0.140714
0.110379
0.157666
0.138312
0.171315
0.150541
0.183596
0.155935
0.196158
0.172278
0.20788
0.207945
0.215067
0.243566
0.214668
0.243638
0.206246
0.186717
0.191901
0.0807395
0.176602
-0.0434576
0.163945
-0.144787
0.154497
-0.199951
0.146298
-0.216536
0.138249
-0.216543
0.128653
-0.209162
0.115936
-0.19751
0.103768
-0.180487
0.0997063
-0.144753
0.107256
-0.0804315
0.123255
0.00392109
0.140212
0.0968451
0.151505
0.190712
0.154624
0.280128
0.149575
0.333503
0.140454
0.310918
0.132326
0.198878
0.130436
0.0298624
0.132768
-0.106111
0.129458
-0.198784
0.122002
-0.261344
0.115896
-0.287502
0.117438
-0.24207
0.121412
-0.0765793
0.124967
0.0984267
0.128236
0.290822
0.126652
0.3517
0.125012
0.245759
0.116603
0.117658
0.103554
-0.187127
0.105448
-0.299567
-0.0560188
0.199875
-0.0673096
0.190454
-0.0806363
0.177525
-0.0900666
0.162992
-0.0970528
0.14873
-0.102337
0.135623
-0.105741
0.123909
-0.107603
0.113739
-0.107814
0.104172
-0.10636
0.0950705
-0.104413
0.0875434
-0.101246
0.0794441
-0.0955029
0.0676194
-0.0901538
0.0558717
-0.0867274
0.0533361
-0.0770394
0.0642699
-0.0505038
0.0855754
-0.007747
0.109976
0.0426415
0.132781
0.0875749
0.152015
0.119078
0.167746
0.13481
0.18185
0.141831
0.196543
0.157585
0.211327
0.193162
0.222316
0.232576
0.224971
0.240983
0.217409
0.19428
0.201785
0.096363
0.183769
-0.0254416
0.167965
-0.128983
0.156003
-0.187989
0.146024
-0.206556
0.136979
-0.207498
0.127928
-0.200111
0.116493
-0.186076
0.104346
-0.16834
0.0991453
-0.139552
0.105995
-0.087281
0.12252
-0.012604
0.141303
0.0780617
0.155323
0.176692
0.16137
0.274081
0.158279
0.336594
0.149108
0.320089
0.139079
0.208907
0.134406
0.0345346
0.135614
-0.107319
0.13209
-0.195261
0.123711
-0.252965
0.116315
-0.280106
0.117918
-0.243673
0.123021
-0.081683
0.127721
0.0937271
0.132086
0.286457
0.130525
0.353261
0.129209
0.247074
0.12103
0.125837
0.106914
-0.173011
0.108651
-0.301304
-0.0592333
0.198474
-0.058615
0.186757
-0.0689186
0.173335
-0.0766453
0.159722
-0.08344
0.146802
-0.0894167
0.134946
-0.0938846
0.124005
-0.0966624
0.114159
-0.097967
0.105397
-0.0975981
0.0969031
-0.0959196
0.0893088
-0.0936518
0.083231
-0.0894251
0.0756921
-0.0826149
0.0651032
-0.0761385
0.0574811
-0.0694173
0.0610654
-0.0540882
0.076702
-0.0233836
0.0996212
0.0197224
0.123139
0.0640566
0.144069
0.098148
0.161504
0.117375
0.17698
0.126355
0.193314
0.141251
0.210906
0.175569
0.225251
0.218232
0.230427
0.235807
0.22414
0.200567
0.208564
0.111939
0.189191
-0.00606886
0.171144
-0.110936
0.157139
-0.173983
0.145729
-0.195147
0.135732
-0.197501
0.127072
-0.191451
0.117344
-0.176348
0.105802
-0.156798
0.0991517
-0.132902
0.104435
-0.0925643
0.120839
-0.0290082
0.141402
0.0574992
0.158225
0.15987
0.167369
0.264936
0.16687
0.337094
0.158404
0.328555
0.146773
0.220538
0.139129
0.0421788
0.138686
-0.106876
0.134964
-0.191538
0.125808
-0.243809
0.116986
-0.271283
0.118441
-0.245129
0.124696
-0.0879375
0.130545
0.0878777
0.136008
0.280994
0.134501
0.354768
0.133561
0.248015
0.125942
0.133456
0.11096
-0.158029
0.112286
-0.302631
-0.0632528
0.189328
-0.0493377
0.178434
-0.0580245
0.166791
-0.0650027
0.155171
-0.07182
0.143827
-0.0780728
0.133002
-0.0830594
0.122874
-0.0865345
0.113493
-0.088586
0.10526
-0.0893645
0.0979604
-0.0886204
0.0909562
-0.0866476
0.0851966
-0.0836654
0.0807164
-0.0781347
0.0744634
-0.0698855
0.0663791
-0.061333
0.0633317
-0.0510409
0.0715236
-0.0315754
0.0904572
0.000788769
0.113141
0.0413725
0.134845
0.0764446
0.1533
0.0989199
0.169431
0.110224
0.186517
0.124165
0.205955
0.156131
0.223677
0.20051
0.232857
0.226626
0.229019
0.204405
0.213719
0.127239
0.192948
0.0147025
0.173308
-0.0912958
0.157712
-0.158388
0.145249
-0.182684
0.134438
-0.18669
0.125847
-0.182859
0.117932
-0.168433
0.107789
-0.146655
0.0998706
-0.124983
0.102699
-0.0953922
0.118109
-0.0444185
0.140141
0.0354671
0.160067
0.139944
0.172864
0.252139
0.175537
0.334421
0.168385
0.335706
0.155291
0.233632
0.144383
0.0530874
0.141874
-0.104366
0.13791
-0.187575
0.128199
-0.234098
0.117863
-0.260948
0.118923
-0.246188
0.126345
-0.0953595
0.133364
0.0808587
0.139944
0.274413
0.138512
0.356201
0.137959
0.248567
0.131225
0.14019
0.115624
-0.142428
0.116315
-0.303322
-0.0679524
0.178255
-0.0416998
0.16935
-0.0491197
0.159734
-0.0553858
0.149829
-0.061915
0.139816
-0.06806
0.129959
-0.0732026
0.12066
-0.0772358
0.112116
-0.0800411
0.104408
-0.081657
0.0978523
-0.0820647
0.0920663
-0.0808616
0.0866711
-0.0782702
0.0827698
-0.0742334
0.0800295
-0.0671452
0.075714
-0.0570176
0.0707949
-0.0461217
0.0719167
-0.0326972
0.0834995
-0.010794
0.103313
0.0215588
0.12483
0.0549278
0.143964
0.0797858
0.160297
0.0938914
0.17692
0.107542
0.196701
0.13635
0.216732
0.18048
0.228754
0.214604
0.227194
0.205965
0.213797
0.140636
0.194466
0.034033
0.174371
-0.0712006
0.157555
-0.141571
0.144302
-0.169431
0.132914
-0.175303
0.124085
-0.174031
0.117722
-0.16207
0.109714
-0.138647
0.101271
-0.11654
0.101145
-0.0952661
0.11451
-0.0577838
0.137363
0.0126146
0.159928
0.117378
0.176207
0.23586
0.182507
0.328122
0.177927
0.340285
0.164037
0.247522
0.150211
0.0669131
0.145093
-0.0992478
0.140753
-0.183235
0.130757
-0.224102
0.118893
-0.249083
0.119285
-0.24658
0.127873
-0.103948
0.136063
0.0726687
0.143757
0.266719
0.142466
0.357491
0.142311
0.248723
0.136771
0.145731
0.120829
-0.126486
0.120699
-0.303192
-0.0731936
0.168153
-0.0356752
0.160632
-0.0415984
0.152303
-0.0470566
0.143494
-0.0531066
0.13445
-0.0590161
0.125539
-0.0642914
0.117066
-0.0687629
0.109334
-0.0723085
0.10239
-0.0747132
0.0962948
-0.0759696
0.0912952
-0.075862
0.0869907
-0.0739658
0.0833208
-0.0705635
0.0814295
-0.065254
0.0807554
-0.0563434
0.0790591
-0.0444254
0.0779384
-0.0315765
0.0829076
-0.0157632
0.0966196
0.00784682
0.115132
0.0364153
0.13371
0.0612083
0.150051
0.0775504
0.1665
0.091093
0.186715
0.116135
0.208524
0.15867
0.223604
0.199525
0.225174
0.204394
0.213541
0.152269
0.193911
0.0536625
0.173571
-0.0508602
0.156162
-0.124162
0.142581
-0.155849
0.13103
-0.163752
0.121835
-0.164835
0.116478
-0.156713
0.110956
-0.133125
0.103057
-0.108642
0.100093
-0.092302
0.110237
-0.0679279
0.133029
-0.0101777
0.158514
0.091894
0.1788
0.215574
0.188589
0.318333
0.186398
0.342476
0.172973
0.260948
0.156104
0.0837812
0.148188
-0.0913312
0.143327
-0.178375
0.133379
-0.214154
0.12016
-0.235864
0.119453
-0.245874
0.129207
-0.113701
0.138613
0.063262
0.147439
0.257893
0.146334
0.358597
0.146555
0.248501
0.142447
0.149838
0.126486
-0.110525
0.125406
-0.302112
-0.0788303
0.157748
-0.0306162
0.151222
-0.0350718
0.144119
-0.0399545
0.136444
-0.0454308
0.128511
-0.051083
0.120727
-0.0565077
0.113313
-0.0613494
0.106429
-0.0654245
0.100228
-0.0685114
0.0946829
-0.0704248
0.0899365
-0.0711157
0.0861794
-0.0702087
0.0830681
-0.0674522
0.0809273
-0.0631132
0.0808288
-0.0562449
0.0820103
-0.0456069
0.0828471
-0.0324133
0.0850863
-0.0180024
0.0927401
0.000193051
0.106164
0.0229913
0.121522
0.0458501
0.136439
0.062634
0.151728
0.0758038
0.170205
0.0976583
0.192338
0.136537
0.211391
0.180472
0.217012
0.198773
0.208528
0.160753
0.192816
0.069375
0.173668
-0.0317129
0.155446
-0.105939
0.141203
-0.141606
0.129533
-0.152082
0.119829
-0.155131
0.11471
-0.151595
0.11141
-0.129824
0.104836
-0.102068
0.0997856
-0.0872515
0.106243
-0.0743853
0.126919
-0.0308534
0.153707
0.065106
0.177508
0.191773
0.191862
0.303978
0.193438
0.340901
0.18145
0.272935
0.162934
0.102297
0.151606
-0.0800025
0.14588
-0.172649
0.136148
-0.204422
0.121882
-0.221598
0.119695
-0.243687
0.130277
-0.124283
0.140839
0.0526998
0.150804
0.247928
0.150018
0.359383
0.150656
0.247863
0.148156
0.152338
0.132531
-0.0948991
0.130401
-0.299982
-0.084702
0.203891
-0.0264929
-0.208014
0.200591
-0.0317724
0.197133
-0.0364959
0.193102
-0.0413999
0.188404
-0.0463849
0.18312
-0.0512241
0.177378
-0.055607
0.171244
-0.0592912
0.164776
-0.0620429
0.158045
-0.0636943
0.151054
-0.0641242
0.143966
-0.0631213
0.136928
-0.0604141
0.129816
-0.0560013
0.122936
-0.0493649
0.116918
-0.0395881
0.111415
-0.0269103
0.106132
-0.0127194
0.102454
0.00387042
0.102345
0.0231007
0.106573
0.0416217
0.114206
0.0550009
0.123713
0.0662968
0.134444
0.0869278
0.146537
0.124444
0.157998
0.169011
0.169159
0.187612
0.183757
0.146155
0.196522
0.0566099
0.200148
-0.0353387
0.194527
-0.100319
0.184005
-0.131084
0.171807
-0.139884
0.158996
-0.14232
0.148664
-0.141264
0.139988
-0.121148
0.128622
-0.0907017
0.117825
-0.0764542
0.115845
-0.0724057
0.125277
-0.0402856
0.138013
0.0523707
0.149669
0.180117
0.1589
0.294747
0.165752
0.334049
0.168284
0.270403
0.165858
0.104723
0.163412
-0.0775566
0.159809
-0.169046
0.150454
-0.195067
0.134123
-0.205266
0.125867
-0.235431
0.128284
-0.126699
0.130871
0.0501123
0.136218
0.242581
0.13655
0.359051
0.140257
0.244156
0.141982
0.150613
0.12936
-0.0822766
0.124381
-0.295004
-0.087948
0.21192
-0.0232292
-0.215184
0.208369
-0.028221
0.204736
-0.0328632
0.200642
-0.037306
0.195948
-0.0416911
0.190643
-0.045919
0.184806
-0.0497703
0.178557
-0.0530415
0.171987
-0.0554733
0.165229
-0.0569357
0.158406
-0.0573012
0.151614
-0.05633
0.145055
-0.0538545
0.138878
-0.0498246
0.133089
-0.0435757
0.128101
-0.0346002
0.124288
-0.0230977
0.121031
-0.00946236
0.118029
0.00687317
0.116078
0.0250512
0.116685
0.0410143
0.120889
0.0507969
0.128808
0.0583786
0.139853
0.0758824
0.152036
0.112261
0.16324
0.157806
0.17728
0.173572
0.196243
0.127193
0.211161
0.0416912
0.213683
-0.0378605
0.206088
-0.0927232
0.194005
-0.119002
0.181291
-0.12717
0.168289
-0.129318
0.157729
-0.130704
0.150028
-0.113447
0.140062
-0.0807351
0.128711
-0.0651035
0.124738
-0.0684324
0.133603
-0.0491506
0.147793
0.0381801
0.161755
0.166156
0.173541
0.282961
0.182774
0.324816
0.18663
0.266547
0.183791
0.107563
0.179171
-0.0729365
0.17374
-0.163616
0.163354
-0.18468
0.145165
-0.187078
0.135671
-0.225937
0.138926
-0.129953
0.142137
0.0469015
0.148099
0.236619
0.148653
0.358497
0.152797
0.240013
0.156045
0.147365
0.143095
-0.0693269
0.13667
-0.288579
-0.0909434
0.219892
-0.0207149
-0.222407
0.21675
-0.0250789
0.213247
-0.0293603
0.209348
-0.0334067
0.204948
-0.0372911
0.200015
-0.0409854
0.19459
-0.0443461
0.188773
-0.0472243
0.182677
-0.0493772
0.17639
-0.0506486
0.169999
-0.0509101
0.163604
-0.0499353
0.157287
-0.0475375
0.151202
-0.0437391
0.145547
-0.0379215
0.14067
-0.029723
0.137129
-0.0195565
0.135223
-0.00755655
0.134074
0.00802254
0.133094
0.0260306
0.132648
0.0414609
0.133883
0.049561
0.137775
0.0544869
0.14464
0.0690176
0.153938
0.102963
0.166814
0.14493
0.18744
0.152947
0.211519
0.103114
0.226515
0.0266951
0.227266
-0.0386118
0.218357
-0.0838139
0.20589
-0.106535
0.193375