/*--------------------------------*- C++ -*----------------------------------*\
| =========                 |                                                 |
| \\      /  F ield         | OpenFOAM: The Open Source CFD Toolbox           |
|  \\    /   O peration     | Version:  2312                                  |
|   \\  /    A nd           | Website:  www.openfoam.com                      |
|    \\/     M anipulation  |                                                 |
\*---------------------------------------------------------------------------*/
FoamFile
{
    version     2.0;
    format      ascii;
    arch        "LSB;label=32;scalar=64";
    class       surfaceScalarField;
    location    "26";
    object      phi;
}
// * * * * * * * * * * * * * * * * * * * * * * * * * * * * * * * * * * * * * //

dimensions      [0 3 -1 0 0 0 0];

oriented        oriented;

internalField   nonuniform List<scalar> 
1810
(
0.013411
0.0267889
-0.0401999
0.122961
-0.103277
-0.00627283
0.266815
-0.203728
0.0598738
0.41715
-0.305934
0.155599
0.58741
-0.396015
0.225755
-0.457336
0.359039
0.685707
0.0661164
-0.0393274
0.19984
-0.237001
0.312804
-0.316692
0.395785
-0.388916
0.436004
-0.436234
-0.473667
0.452335
0.110441
-0.149768
0.174528
-0.301087
0.201181
-0.343345
0.211442
-0.399177
0.220804
-0.445597
0.246714
-0.499577
-0.0350098
0.0439877
-0.00897789
-0.0714939
0.0436871
-0.00720297
-0.112218
0.0454989
-0.0047749
-0.130463
0.0276175
-0.00937287
-0.151675
0.0424541
-0.0212414
0.00935632
-0.121843
-0.0391888
0.00150322
0.0424845
-0.00058374
0.045774
0.0141372
0.030778
0.0647846
-0.0230299
0.153443
-0.0462047
-0.15134
0.31414
0.00228459
0.0417858
0.132438
0.265007
0.444557
0.652256
-0.0972067
0.0035827
-0.0282187
-0.0669074
0.017249
-0.0475483
-0.0113312
0.0315272
-0.0871034
0.0717839
0.012115
-0.0952301
0.184038
-0.0309273
-0.0813265
0.333219
-0.172157
0.0229762
0.470333
-0.326571
0.189457
0.565342
-0.360284
0.265274
0.623167
-0.322889
0.265064
0.65941
-0.220432
0.184188
0.681639
-0.193623
0.171395
0.690305
-0.128888
0.120222
0.692832
-0.157514
0.154987
0.693765
-0.0913077
0.0903747
0.694916
-0.0998055
0.0986551
0.017377
-0.0142454
0.310019
0.00770381
0.331156
-0.00388838
0.375934
-0.0132501
0.436974
-0.0489251
0.523603
-0.117557
0.608729
-0.257283
0.668237
-0.386078
0.698225
-0.390272
0.717951
-0.342615
0.739705
-0.242186
0.755314
-0.209231
0.753851
-0.127425
0.73562
-0.139284
0.716033
-0.0717206
0.704363
-0.0881359
0.0213062
0.634666
0.0252935
0.624595
0.00618329
0.629946
-0.0186019
0.640922
-0.0599008
0.657888
-0.134523
0.647654
-0.247049
0.59532
-0.333744
0.544131
-0.339083
0.530366
-0.32885
0.551091
-0.262912
0.587784
-0.245924
0.627051
-0.166692
0.655559
-0.167791
0.674941
-0.0911034
0.688739
-0.101933
0.00770922
0.704453
0.0366471
-0.715806
0.696931
0.0137048
0.694776
-0.0164461
0.691255
-0.0563802
0.684077
-0.127345
0.646719
-0.209691
0.591288
-0.278313
0.549029
-0.296824
0.52683
-0.306652
0.520652
-0.256734
0.523748
-0.24902
0.533023
-0.175967
0.543996
-0.178765
0.552126
-0.0992332
0.556067
-0.105874
0.00551145
0.83178
0.0396781
-0.834811
0.829986
0.015499
0.826432
-0.0128927
0.820747
-0.050695
0.802189
-0.108786
0.763508
-0.171011
0.727561
-0.242366
0.70347
-0.272733
0.689587
-0.292769
0.688519
-0.255666
0.692717
-0.253218
0.695185
-0.178434
0.69491
-0.178491
0.694722
-0.0990456
0.694491
-0.105643
0.00383579
1.01125
0.0333998
-1.00497
1.01025
0.0165022
1.00683
-0.0094749
0.998894
-0.0427581
0.982695
-0.0925877
0.9583
-0.146616
0.925785
-0.20985
0.892116
-0.239064
0.866173
-0.266825
0.850872
-0.240366
0.845834
-0.248179
0.848788
-0.181388
0.854512
-0.184214
0.859706
-0.10424
0.862756
-0.108693
0.00119847
1.21856
0.0280812
-1.21324
1.2208
0.0142657
1.22111
-0.00978329
1.21429
-0.0359378
1.20001
-0.0783119
1.17391
-0.120515
1.13922
-0.175156
1.10981
-0.209657
1.09237
-0.249385
1.08075
-0.228746
1.07366
-0.241092
1.07313
-0.180854
1.0751
-0.186186
1.07845
-0.107585
1.07884
-0.109087
-0.00272182
1.49733
0.0201466
-1.48939
1.50125
0.0103447
1.50025
-0.00878915
1.49522
-0.0309046
1.4827
-0.0657948
1.46306
-0.10087
1.43976
-0.151857
1.40935
-0.179253
1.3796
-0.219633
1.36026
-0.209404
1.35196
-0.232796
1.34787
-0.176759
1.34484
-0.183154
1.34451
-0.107258
1.34417
-0.108751
-0.00459042
1.8339
0.0153898
-1.82915
1.83714
0.00710862
1.83798
-0.00962902
1.83324
-0.0261684
1.82289
-0.0554441
1.80564
-0.0836195
1.78124
-0.127453
1.75572
-0.153737
1.73629
-0.200196
1.71879
-0.191913
1.70341
-0.217407
1.69477
-0.168121
1.689
-0.177385
1.68895
-0.10721
1.68541
-0.105211
-0.010264
2.28773
0.0115897
-2.28393
2.28954
0.00529621
2.28835
-0.00844107
2.28404
-0.0218561
2.27543
-0.0468326
2.26167
-0.0698611
2.24416
-0.109946
2.22067
-0.130241
2.19443
-0.173953
2.17069
-0.168179
2.15179
-0.198503
2.13677
-0.153103
2.12178
-0.162392
2.11314
-0.0985755
2.1041
-0.0961673
-0.00965202
2.87471
0.00840939
-2.87153
2.87647
0.00353387
2.87537
-0.00734063
2.87084
-0.0173193
2.86158
-0.0375758
2.84714
-0.0554186
2.82745
-0.0902545
2.80428
-0.107072
2.77823
-0.147902
2.75223
-0.142187
2.72323
-0.169502
2.70037
-0.130239
2.67445
-0.136477
2.66197
-0.0860941
2.64592
-0.0801142
-0.0136958
3.64202
0.00614658
-3.63976
3.64218
0.00337545
3.63844
-0.00359964
3.63146
-0.0103383
3.61953
-0.0256525
3.60176
-0.037648
3.57733
-0.0658254
3.54849
-0.0782301
3.51282
-0.112234
3.47819
-0.107549
3.43667
-0.127982
3.39952
-0.093094
3.3579
-0.0948596
3.33312
-0.0613121
3.30501
-0.0520034
-0.00797189
5.02173
-5.01559
5.02511
5.02151
5.01117
4.98552
4.94787
4.88204
4.80381
4.69158
4.58403
4.45605
4.36296
4.2681
4.20678
4.15478
0.618156
0.229684
-0.601126
0.655561
0.41493
0.625462
0.756983
0.203687
-0.730986
0.784829
0.387084
0.575481
0.922149
0.180368
-0.898831
0.954389
0.354845
0.524896
1.13333
0.158402
-1.11137
1.16615
0.322032
0.477799
1.4036
0.137512
-1.38271
1.43789
0.28775
0.426292
1.7391
0.116482
-1.71807
1.77513
0.251718
0.372282
2.1764
0.0940245
-2.15394
2.22038
0.207738
0.308735
2.74826
0.0708033
-2.72503
2.79785
0.158142
0.235055
3.47791
0.0425356
-3.44964
3.54282
0.0932282
0.138117
4.78424
-4.74171
4.87747
0.242928
0.426532
-0.373278
-0.296182
0.188801
0.405737
-0.351609
0.122224
0.364995
-0.298419
0.065688
0.324477
-0.267941
0.0214804
0.300109
-0.255901
0.239676
-0.218196
0.0897255
0.487773
-0.150966
0.0524992
0.442963
0.0173301
0.400164
-0.00500894
0.346816
-0.0241267
0.319227
0.215549
-0.0857456
0.0739415
-0.0883796
-0.0873918
-0.0839203
-0.065781
0.503401
0.15839
-0.631557
-0.0302334
0.388468
0.139036
-0.0241029
0.280865
0.127863
-0.02026
0.181174
0.116667
-0.0169765
0.0842944
0.110977
-0.0140971
0.0926958
-0.00840146
0.439845
0.284525
-0.56598
0.332409
0.246472
0.245687
0.214585
0.159726
0.202628
0.0766159
0.194087
0.169312
0.364982
-0.453735
0.259845
0.176011
0.110698
0.048884
0.713043
0.575683
-0.592367
0.721588
0.341018
-0.349563
0.736755
0.213071
-0.228237
0.709428
0.1859
-0.158574
0.71464
0.145926
-0.151138
0.692175
0.128887
-0.106422
0.691813
0.094606
-0.094244
0.672111
0.0876786
-0.0679768
0.659099
0.0673914
-0.0543791
0.0665397
-0.0389985
0.69312
0.578921
0.69366
0.340477
0.701832
0.204899
0.66958
0.218152
0.66486
0.150646
0.642886
0.150861
0.636053
0.101439
0.616156
0.107576
0.595952
0.0875945
0.096512
0.661862
0.613418
0.657034
0.345306
0.627951
0.233981
0.590603
0.255501
0.571176
0.170073
0.548407
0.17363
0.527695
0.122151
0.50066
0.134612
0.480479
0.107775
0.123256
0.554175
0.611903
0.564915
0.334565
0.562643
0.236254
0.541757
0.276387
0.544365
0.167464
0.527994
0.190001
0.527447
0.122698
0.516893
0.145165
0.524303
0.100365
0.11548
0.53208
0.694522
0.603434
0.686654
0.342433
0.695728
0.22718
0.683561
0.288554
0.681868
0.169157
0.670735
0.201134
0.66785
0.125583
0.673849
0.139166
0.674984
0.0992298
0.101069
0.689395
0.865316
0.58976
0.84371
0.364038
0.852644
0.218246
0.858543
0.282655
0.853922
0.173778
0.85584
0.199216
0.854477
0.126946
0.862985
0.130658
0.866085
0.0961303
0.0902674
0.876887
1.07236
0.574596
1.05501
0.381395
1.05256
0.22069
1.06836
0.26686
1.07135
0.170792
1.08266
0.187902
1.08421
0.125397
1.09344
0.12143
1.10058
0.0889834
0.0798813
1.11097
1.32762
0.559352
1.32324
0.385776
1.31626
0.227662
1.33859
0.24453
1.34314
0.16624
1.36346
0.167583
1.36991
0.118954
1.3834
0.107937
1.39211
0.0802748
0.0689393
1.40305
1.64656
0.541923
1.65656
0.375781
1.65508
0.229137
1.68175
0.217861
1.69169
0.156301
1.71431
0.144966
1.72531
0.107947
1.73951
0.0937371
1.74951
0.0702776
0.0584031
1.76005
2.04971
0.514561
2.08072
0.344769
2.08868
0.221179
2.12119
0.18535
2.13806
0.139431
2.16337
0.119664
2.17948
0.0918326
2.19676
0.0764617
2.20912
0.0579147
0.046638
2.22088
2.56818
0.456861
2.6224
0.290549
2.65469
0.188883
2.69624
0.143799
2.72646
0.109219
2.75549
0.0906317
2.77654
0.0707767
2.79504
0.0579711
2.80856
0.0443918
0.0354501
2.81975
3.21602
0.357258
3.29767
0.208902
3.35654
0.130016
3.41187
0.0884687
3.45348
0.0676071
3.48987
0.0542442
3.51706
0.0435825
3.54035
0.0346806
3.55746
0.0272823
0.0218309
3.57108
4.22587
4.43478
4.56479
4.65326
4.72087
4.77511
4.8187
4.85338
4.88066
4.90249
0.55498
-0.319082
0.576542
-0.172528
0.0493571
0.706819
-0.336507
0.706718
-0.172427
0.0250892
0.881428
-0.341048
0.880882
-0.171881
0.00714035
1.10329
-0.333364
1.10164
-0.170236
-0.00258514
1.38206
-0.312376
1.37594
-0.16411
-0.00936322
1.72791
-0.280237
1.71442
-0.150624
-0.0130152
2.17704
-0.236392
2.15495
-0.128537
-0.0120091
2.75974
-0.176384
2.72765
-0.096453
-0.0093882
3.49649
-0.101792
3.45557
-0.0555376
-0.0034534
4.8007
4.74516
0.0199942
0.0136713
-0.0336656
-0.0473883
0.0673826
0.11306
-0.160448
-0.107507
0.122486
-0.00130826
-0.245184
0.20506
0.176237
-0.308362
-0.207748
0.272257
0.0579773
-0.323396
0.320708
0.196744
-0.343902
-0.303743
0.419255
0.156745
-0.384534
0.401499
0.202259
-0.390049
-0.385868
0.594317
0.210806
-0.438098
0.453729
0.210575
-0.446413
-0.464715
0.353661
0.70537
-0.483754
0.472767
0.225181
-0.498361
0.0410694
-0.0500473
0.0402817
0.000787768
0.00661612
0.0430282
-0.100278
0.0433117
0.000504284
0.0486195
0.0486702
-0.153724
0.0331457
0.0160288
0.139742
0.0253696
-0.188466
-0.0217933
0.0631917
0.274694
0.0217416
-0.231449
-0.0440795
0.129013
0.441421
-0.0275434
-0.243094
-0.142947
0.244416
0.652135
-0.035432
-0.235881
0.0145845
0.1944
0.621798
0.0449224
-0.0538208
-0.229609
-0.0149501
0.155529
0.584653
0.0221944
-0.0973266
-0.219385
-0.0432021
0.101405
0.545166
-0.00371514
-0.133345
-0.18127
-0.0911839
0.0592436
0.503652
-0.0496695
-0.147993
-0.114604
-0.129922
0.0411729
0.463061
-0.0893316
-0.102251
0.0106231
-0.130375
0.0692967
0.422159
-0.0894725
0.0496998
0.15038
-0.0415489
0.160545
0.425687
-0.0450773
0.124922
0.290733
-0.00778097
0.293248
0.476641
-0.058735
0.1455
0.410297
0.0124738
0.426274
0.543359
-0.0542444
0.0948603
0.499625
-0.00852939
0.529664
0.598362
-0.0635318
0.107166
0.563854
0.0391773
0.597653
0.631517
0.00602188
0.0725716
0.611504
0.0304482
0.639776
0.647831
0.0141345
0.118234
0.648257
0.0934032
0.664607
0.656549
0.0846849
0.065066
0.673566
0.0506125
0.67906
0.664464
0.0426981
0.0853018
0.686919
0.0777481
0.686614
0.675148
0.067064
-0.0149836
-0.0177409
-0.031281
0.0582224
0.706331
-0.719631
0.0567651
0.833921
-0.832463
0.0485122
0.992315
-0.984062
0.0398295
1.18696
-1.17828
0.0323839
1.41357
-1.40612
0.0287318
1.6866
-1.68295
0.0269051
2.00888
-2.00706
0.0270149
2.36693
-2.36704
0.0273215
2.82609
-2.8264
3.01913
-2.9918
0.0336952
0.69483
0.0364964
0.831119
0.0359457
0.992866
0.0366441
1.18627
0.0347775
1.41543
0.0339027
1.68748
0.0331419
2.00964
0.0336369
2.36644
0.0331711
2.82656
3.0523
0.00993759
0.681177
0.0186341
0.822423
0.0264415
0.985058
0.0343276
1.17838
0.0371978
1.41256
0.0391239
1.68555
0.0402662
2.0085
0.0410478
2.36565
0.0392046
2.8284
3.0915
-0.0262062
0.657714
-0.00377566
0.799992
0.0131406
0.968142
0.0280543
1.16347
0.0348438
1.40578
0.0429965
1.6774
0.0474477
2.00405
0.0497999
2.3633
0.0468021
2.8314
3.1383
-0.0646683
0.633051
-0.0346916
0.770016
-0.0101366
0.943587
0.0128115
1.14052
0.0322598
1.38633
0.0491122
1.66055
0.0578996
1.99526
0.0598636
2.36134
0.053119
2.83814
3.19142
-0.0624191
0.605997
-0.0429141
0.750511
-0.022153
0.922826
0.0034003
1.11496
0.0297305
1.36
0.0505461
1.63973
0.0622072
1.9836
0.0649968
2.35855
0.0584923
2.84465
3.24991
-0.0275978
0.588518
-0.0204363
0.743349
-0.00257002
0.90496
0.0213305
1.09106
0.0424293
1.3389
0.0616539
1.62051
0.0723519
1.9729
0.0735316
2.35737
0.0630337
2.85515
3.31295
-0.0519043
0.581687
-0.0295082
0.720953
-0.00241607
0.877868
0.0183881
1.07026
0.0403765
1.31691
0.0572182
1.60367
0.06974
1.96038
0.0709606
2.35615
0.0596527
2.86645
3.3726
-0.0465215
0.573964
-0.0155371
0.689969
0.0132333
0.849097
0.0325245
1.05097
0.0547802
1.29465
0.0698665
1.58858
0.0820375
1.94821
0.0804759
2.35771
0.0667326
2.8802
3.43933
-0.0460597
0.556492
-0.0227206
0.66663
-0.00178814
0.828165
0.01768
1.0315
0.036316
1.27602
0.0503597
1.57454
0.060794
1.93778
0.0591411
2.35936
0.0462859
2.89305
3.48562
0.0212788
0.541235
0.0296126
0.658296
0.0385787
0.819199
0.0518557
1.01822
0.0628175
1.26506
0.0736479
1.56371
0.0799209
1.9315
0.07458
2.3647
0.0587353
2.9089
3.54436
0.0216917
0.533678
0.0217259
0.658262
0.0236297
0.817295
0.0267995
1.01505
0.0319569
1.2599
0.035437
1.56023
0.0389519
1.92799
0.0333592
2.3703
0.0198749
2.92238
3.56423
0.0836977
0.534665
0.0792975
0.662662
0.0764491
0.820143
0.0726256
1.01888
0.0724096
1.26011
0.06933
1.5633
0.0692468
1.92807
0.0588916
2.38065
0.0486008
2.93267
3.61283
0.0391657
0.538197
0.0342493
0.667578
0.0294752
0.824917
0.0243609
1.02399
0.0208397
1.26364
0.0176246
1.56652
0.0150018
1.93069
0.0120118
2.38364
0.0064279
2.93826
3.61926
0.0632405
0.542021
0.0592175
0.671601
0.0537866
0.830348
0.0489714
1.02881
0.0427627
1.26984
0.0378417
1.57144
0.0317131
1.93682
0.0243263
2.39103
0.0161362
2.94645
3.6354
-0.0335892
-0.0358767
-0.0388455
-0.040224
-0.0429524
-0.0403051
-0.0399557
-0.0288077
-0.0196018
0.20655
0.592623
-0.573991
0.184547
0.728689
-0.706686
0.155551
0.890294
-0.861298
0.127239
1.08286
-1.05455
0.103702
1.30972
-1.28618
0.0831016
1.58038
-1.55978
0.0654239
1.89848
-1.8808
0.0523743
2.24905
-2.236
0.0391749
2.69083
-2.67763
2.79474
-2.75556
0.408492
0.656899
0.370535
0.766646
0.335144
0.925684
0.296148
1.12186
0.257636
1.34823
0.217786
1.62023
0.175411
1.94086
0.130909
2.29356
0.0799875
2.74176
2.87473
0.642638
0.576821
0.518443
0.462017
0.404125
0.341406
0.275207
0.201722
0.117078
0.419261
0.302722
-0.358946
-0.363038
0.482687
0.121777
-0.185203
-0.0653066
0.0496331
0.398201
0.221822
-0.317301
0.443945
0.0760327
-0.0677744
0.344335
0.142745
-0.265258
0.387653
0.0327149
-0.0701707
0.313655
0.0811415
-0.252051
0.341377
0.00499273
-0.0726963
0.296027
0.0311939
-0.24608
0.319698
-0.018678
-0.0613604
0.240486
-0.209292
0.221808
0.104911
0.509669
-0.644813
0.237808
0.482029
-0.614926
0.382122
-0.50326
0.0956385
0.389928
0.201398
0.37627
0.266219
0.0953466
0.274321
0.186883
0.284733
0.187845
0.0879339
0.169411
0.188528
0.184138
0.124322
0.080332
0.0749815
0.178038
0.0864327
0.0562797
0.06658
0.153013
-0.612036
0.716027
-0.618738
0.703061
0.683529
-0.605909
-0.359537
0.726001
-0.372099
0.715623
0.682252
-0.370821
-0.240318
0.738083
-0.23269
0.707995
0.652136
-0.202574
-0.133213
0.712722
-0.113744
0.688526
0.648346
-0.109954
-0.163479
0.725064
-0.181091
0.706138
0.651764
-0.18451
-0.0908862
0.709528
-0.087303
0.702555
0.634412
-0.0699511
-0.0953326
0.710616
-0.0921215
0.699344
0.603248
-0.0609567
-0.0478417
0.690481
-0.0236973
0.6752
0.568219
0.0113312
-0.0392071
0.675309
-0.0157471
0.65174
0.539159
0.0133127
-0.00850243
0.0283113
0.0642105
-0.606824
0.553574
-0.608322
0.687551
-0.604021
0.847341
-0.594638
1.04782
-0.580668
1.2984
-0.561105
1.60957
-0.527725
1.98897
-0.468969
2.45172
-0.370817
3.01827
3.4978
-0.351526
0.534279
-0.327255
0.66328
-0.317451
0.837537
-0.315726
1.04609
-0.317842
1.30052
-0.316661
1.60839
-0.3077
1.98001
-0.284031
2.42805
-0.229246
2.96348
3.26855
-0.220084
0.551788
-0.247783
0.690979
-0.259497
0.849251
-0.257181
1.04378
-0.246847
1.29018
-0.233225
1.59477
-0.218809
1.96559
-0.192576
2.40182
-0.150478
2.92138
3.11808
-0.114076
0.555909
-0.116461
0.693364
-0.116455
0.849245
-0.120133
1.04746
-0.123471
1.29352
-0.128889
1.60019
-0.127415
1.96412
-0.116894
2.3913
-0.095044
2.89953
3.02303
-0.173183
0.544583
-0.145421
0.665602
-0.124789
0.828614
-0.113551
1.03622
-0.104813
1.28478
-0.0976804
1.59305
-0.0910915
1.95753
-0.0801495
2.38035
-0.0648032
2.88419
2.95823
-0.0509167
0.525549
-0.0389899
0.653675
-0.0365069
0.826131
-0.0373704
1.03708
-0.0430022
1.29041
-0.0502444
1.6003
-0.0536424
1.96093
-0.0498375
2.37655
-0.03992
2.87427
2.91831
-0.0541004
0.518693
-0.0497381
0.649313
-0.0466541
0.823047
-0.0425189
1.03295
-0.0380502
1.28595
-0.0363913
1.59864
-0.0361544
1.96069
-0.0316778
2.37207
-0.0234827
2.86608
2.89483
0.0150398
0.514984
0.0114197
0.652933
0.00804376
0.826423
0.00237679
1.03861
-0.00651005
1.29483
-0.0141857
1.60631
-0.0189143
1.96542
-0.0173153
2.37047
-0.0109463
2.85971
2.88388
0.0143105
0.513986
0.0131329
0.65411
0.00689465
0.832661
0.0025211
1.04299
-0.00234736
1.2997
-0.00711588
1.61108
-0.0110627
1.96937
-0.00897898
2.36839
-0.00359879
2.85433
2.88028
0.054396
0.523801
0.0370039
0.671502
0.0264798
0.843185
0.017264
1.0522
0.00802518
1.30894
0.000988871
1.61812
-0.00430708
1.97466
-0.003161
2.36724
0.00101174
2.85015
2.88129
-0.364942
0.525705
-0.374544
0.681105
-0.371743
0.840383
-0.361175
1.04163
-0.33824
1.286
-0.300649
1.58053
-0.246198
1.92021
-0.175352
2.2964
-0.0824789
2.75728
2.79881
-0.206898
0.547399
-0.208115
0.682322
-0.205809
0.838077
-0.20555
1.04138
-0.19806
1.27851
-0.178921
1.56139
-0.146654
1.88794
-0.101823
2.25157
-0.0426612
2.69812
2.75615
0.0230415
-0.00132254
-0.0245435
-0.0377155
-0.0453832
-0.0437786
-0.0366371
-0.0210742
-0.000589489
)
;

boundaryField
{
    outlet
    {
        type            calculated;
        value           nonuniform List<scalar> 
26
(
0.691784
0.700434
0.702336
0.558265
0.696167
0.865393
1.08276
1.34604
1.69108
2.10349
2.64996
3.29929
4.14681
0.687657
0.689371
0.688688
0.544329
0.673889
0.833317
1.03019
1.27257
1.56879
1.93647
2.37988
2.93724
3.61579
)
;
    }
    upperWall
    {
        type            symmetryPlane;
        value           uniform 0;
    }
    lowerWall
    {
        type            symmetryPlane;
        value           uniform 0;
    }
    inlet
    {
        type            calculated;
        value           nonuniform List<scalar> 
26
(
-0.696359
-0.696359
-0.696359
-0.55266
-0.686053
-0.851642
-1.0572
-1.31237
-1.62913
-2.02235
-2.51048
-3.11642
-3.86862
-0.696359
-0.696359
-0.696359
-0.55266
-0.686053
-0.851642
-1.0572
-1.31237
-1.62913
-2.02235
-2.51048
-3.11642
-3.86862
)
;
    }
    cylinder
    {
        type            calculated;
        value           uniform 0;
    }
    frontAndBack
    {
        type            empty;
        value           nonuniform List<scalar> 0();
    }
}


// ************************************************************************* //
