/*--------------------------------*- C++ -*----------------------------------*\
| =========                 |                                                 |
| \\      /  F ield         | OpenFOAM: The Open Source CFD Toolbox           |
|  \\    /   O peration     | Version:  2312                                  |
|   \\  /    A nd           | Website:  www.openfoam.com                      |
|    \\/     M anipulation  |                                                 |
\*---------------------------------------------------------------------------*/
FoamFile
{
    version     2.0;
    format      ascii;
    arch        "LSB;label=32;scalar=64";
    class       volVectorField;
    location    "52";
    object      U;
}
// * * * * * * * * * * * * * * * * * * * * * * * * * * * * * * * * * * * * * //

dimensions      [0 1 -1 0 0 0 0];

internalField   nonuniform List<vector> 
5478
(
(-0.0258058 0.0160901 -7.32334e-20)
(-0.0472297 0.021778 0)
(-0.0439232 0.0157863 1.12578e-19)
(-0.00347316 0.00837927 -1.97321e-19)
(0.0846856 0.00306944 1.28485e-19)
(0.222847 0.00305248 -3.93881e-20)
(0.39894 0.0107622 -6.45397e-20)
(0.591223 0.025717 0)
(0.779123 0.0465134 0)
(0.942105 0.069058 7.02791e-20)
(1.07683 0.0889529 -3.4569e-20)
(1.17141 0.109806 -5.13233e-20)
(1.23128 0.112019 -1.98537e-20)
(1.26057 0.127057 0)
(1.26503 0.103855 5.28903e-20)
(-0.0325049 0.0199592 1.46922e-19)
(-0.0439117 0.0272065 0)
(-0.00671177 0.0216643 0)
(0.0916794 0.0165936 -9.87889e-20)
(0.256884 0.0198942 1.30214e-19)
(0.470193 0.034508 3.70563e-20)
(0.695506 0.0578359 -6.11698e-20)
(0.899945 0.0846287 5.42334e-20)
(1.06064 0.109481 1.26651e-19)
(1.17157 0.127295 -1.09597e-19)
(1.23214 0.138865 9.21068e-22)
(1.25226 0.13877 0)
(1.2464 0.135154 1.98176e-20)
(1.22601 0.126147 0)
(1.20419 0.110836 0)
(-0.0345689 0.0184882 -2.70126e-22)
(-0.0243199 0.0229153 -6.78438e-20)
(0.0661467 0.0202608 2.03938e-22)
(0.246761 0.0272707 0)
(0.49463 0.0510391 -4.32081e-20)
(0.752849 0.0855335 3.65612e-20)
(0.971581 0.120266 3.05238e-20)
(1.1251 0.147095 0)
(1.21191 0.161571 -4.27866e-20)
(1.24345 0.165636 3.50434e-20)
(1.24033 0.159292 2.85965e-20)
(1.22351 0.152233 0)
(1.20777 0.140096 0)
(1.19997 0.136654 -5.79473e-20)
(1.20134 0.124758 5.17707e-20)
(-0.0307081 0.0135257 -7.86796e-20)
(0.0199456 0.012821 6.72091e-20)
(0.191492 0.0211005 -5.82679e-20)
(0.466431 0.0544506 5.09735e-20)
(0.76134 0.103373 8.62845e-20)
(0.999609 0.148898 -7.25029e-20)
(1.15107 0.179269 -3.04996e-20)
(1.22309 0.19166 2.33107e-20)
(1.24079 0.191146 -2.25044e-20)
(1.23341 0.182364 0)
(1.22233 0.174574 0)
(1.21555 0.164845 -4.14641e-20)
(1.21316 0.159831 5.35511e-20)
(1.20862 0.152398 -2.99968e-20)
(1.20431 0.14114 0)
(-0.0180487 0.00707527 3.97369e-20)
(0.100621 0.00476577 3.3589e-20)
(0.378082 0.0409592 -1.20344e-19)
(0.715233 0.10707 1.26134e-21)
(0.987164 0.168186 -1.351e-21)
(1.1505 0.206003 -9.40648e-22)
(1.22198 0.219864 2.87138e-20)
(1.23911 0.218571 2.42763e-20)
(1.23533 0.210283 1.71871e-20)
(1.22804 0.202193 -2.97099e-21)
(1.22019 0.1928 -3.8848e-20)
(1.21077 0.184563 0)
(1.19779 0.174811 1.70368e-20)
(1.18593 0.163773 -1.25691e-20)
(1.17379 0.154694 2.26247e-20)
(0.00793014 0.000763873 -8.47132e-20)
(0.227332 0.0105233 9.18762e-20)
(0.600585 0.0897937 -3.16677e-20)
(0.92986 0.174562 2.42431e-20)
(1.12838 0.22729 -4.45368e-20)
(1.21565 0.247823 -3.34515e-20)
(1.24003 0.249019 8.87007e-22)
(1.23895 0.241797 0)
(1.2296 0.232518 3.49598e-20)
(1.21677 0.22132 -3.10889e-20)
(1.20314 0.210585 1.22525e-20)
(1.19073 0.199014 0)
(1.18264 0.189296 7.28581e-21)
(1.17686 0.178936 -1.27771e-20)
(1.17475 0.171732 0)
(0.0529484 -0.00220066 -1.05383e-20)
(0.395308 0.0434058 8.85302e-22)
(0.806111 0.159269 1.53889e-20)
(1.07558 0.241033 2.62639e-20)
(1.20013 0.276437 -2.02548e-20)
(1.23869 0.28313 3.40542e-20)
(1.23942 0.276752 -7.74239e-21)
(1.227 0.265736 0)
(1.21186 0.252711 -2.0437e-20)
(1.19869 0.240298 1.50356e-21)
(1.18828 0.228011 1.67634e-20)
(1.17998 0.216993 0)
(1.17105 0.205908 -1.05573e-20)
(1.16224 0.193985 0)
(1.15085 0.186417 6.2228e-21)
(0.1197 0.00488133 -1.16827e-20)
(0.574017 0.106999 0)
(0.961813 0.236254 1.6346e-20)
(1.1608 0.302889 0)
(1.22941 0.321282 0)
(1.23686 0.316563 0)
(1.22383 0.303797 -6.57141e-21)
(1.20785 0.288949 0)
(1.19395 0.274477 4.12234e-21)
(1.18153 0.260122 0)
(1.16977 0.246446 -5.18987e-21)
(1.15859 0.232806 0)
(1.14998 0.219942 3.26758e-21)
(1.14385 0.208164 0)
(1.14053 0.200154 2.04337e-21)
(0.00122147 -0.114437 -1.06231e-20)
(-0.0130005 -0.191676 0)
(-0.0434798 -0.203284 1.66506e-20)
(-0.0769483 -0.195122 0)
(-0.110427 -0.184658 0)
(-0.143217 -0.17311 0)
(-0.174786 -0.157077 -1.05355e-20)
(-0.204458 -0.133088 0)
(-0.231229 -0.0981076 8.50564e-21)
(-0.254052 -0.049778 0)
(-0.27081 0.0133605 -1.35284e-20)
(-0.280575 0.09003 0)
(-0.283151 0.177202 1.04128e-20)
(-0.278426 0.269099 0)
(-0.261997 0.361728 7.62077e-21)
(0.007465 -0.0968715 5.19662e-20)
(-0.00585395 -0.157594 -3.63047e-20)
(-0.0395719 -0.162556 1.49586e-20)
(-0.076639 -0.15173 5.64782e-20)
(-0.113289 -0.140402 1.31985e-22)
(-0.148843 -0.129216 -4.50719e-20)
(-0.182848 -0.114818 3.05304e-20)
(-0.214633 -0.0941334 0)
(-0.24307 -0.0646565 2.31287e-20)
(-0.266138 -0.0243452 -3.19109e-22)
(-0.282605 0.0278656 -1.12413e-20)
(-0.291123 0.0906419 0)
(-0.289896 0.162157 -2.68091e-20)
(-0.27686 0.239023 0)
(-0.248828 0.312977 -3.34475e-20)
(0.011273 -0.0764129 7.88118e-20)
(-0.000541652 -0.121445 1.73416e-20)
(-0.0337734 -0.121452 -3.15383e-20)
(-0.0695 -0.108883 -8.18485e-20)
(-0.103208 -0.097115 4.77077e-20)
(-0.13401 -0.0867148 4.1768e-20)
(-0.16135 -0.0744577 -7.25882e-20)
(-0.184561 -0.0576602 0)
(-0.202636 -0.0343936 -5.50978e-20)
(-0.21399 -0.0034854 4.8991e-20)
(-0.21698 0.0353869 1.9132e-20)
(-0.211261 0.0838394 0)
(-0.18985 0.1339 1.63916e-20)
(-0.163897 0.195389 -2.20708e-20)
(-0.100666 0.249174 0)
(0.012254 -0.0563763 3.7244e-20)
(0.00136831 -0.0877812 -1.01567e-19)
(-0.0295775 -0.0847787 1.18007e-19)
(-0.0611641 -0.0718778 -1.02814e-19)
(-0.0883092 -0.060686 -4.45016e-20)
(-0.109933 -0.0521379 3.87281e-20)
(-0.125534 -0.0433336 3.55705e-20)
(-0.134368 -0.0316425 2.87102e-20)
(-0.135811 -0.0153434 -7.3599e-20)
(-0.129031 0.00655151 2.55463e-21)
(-0.106975 0.0326049 1.75963e-20)
(-0.0874563 0.0695266 0)
(-0.0311989 0.100861 2.21416e-20)
(0.00468199 0.14857 5.97777e-20)
(0.10918 0.179289 -3.37031e-20)
(0.0101231 -0.0382198 -5.67538e-22)
(-0.00171026 -0.0586937 6.46578e-20)
(-0.0305826 -0.0552499 -5.66925e-20)
(-0.0575614 -0.0444207 5.09237e-20)
(-0.0773652 -0.0357678 8.76792e-20)
(-0.0887806 -0.0306352 -7.61225e-20)
(-0.091276 -0.0266232 -3.21116e-20)
(-0.0839989 -0.0210903 -8.29442e-20)
(-0.0655839 -0.0123195 7.25012e-20)
(-0.0409326 -0.00070066 0)
(0.0128449 0.0170145 0)
(0.0435971 0.0426217 4.95768e-20)
(0.156603 0.060167 -1.06464e-19)
(0.176394 0.0990182 3.58079e-20)
(0.356852 0.108381 0)
(0.00451035 -0.0218467 -1.86656e-22)
(-0.0107671 -0.0339051 -6.47968e-20)
(-0.0384976 -0.0326198 1.68907e-19)
(-0.0610922 -0.0265399 -4.92828e-20)
(-0.0731571 -0.0225827 -4.32065e-20)
(-0.0728586 -0.0220196 3.74196e-20)
(-0.0588363 -0.0229471 3.21294e-20)
(-0.029626 -0.0232179 5.20142e-20)
(0.0179665 -0.0202486 -9.06174e-20)
(0.0765073 -0.0163956 3.67557e-20)
(0.174999 -0.00221837 2.97824e-20)
(0.22761 0.0128807 0)
(0.414345 0.0290985 0)
(0.423589 0.0551846 6.39681e-20)
(0.681603 0.0676043 -5.71148e-20)
(-0.00457695 -0.0067312 7.67515e-23)
(-0.0247849 -0.011981 0)
(-0.0501847 -0.014252 0)
(-0.0651807 -0.0143215 9.66829e-20)
(-0.0633026 -0.0158828 -4.2919e-20)
(-0.0402078 -0.0194956 3.66373e-20)
(0.00759699 -0.0235958 6.11574e-20)
(0.0813196 -0.0258686 -5.42306e-20)
(0.180929 -0.0240357 4.44733e-20)
(0.29551 -0.0172144 -3.67885e-20)
(0.43803 -0.00432466 4.97313e-23)
(0.550814 0.0125467 0)
(0.739696 0.0346792 2.0159e-20)
(0.801988 0.0521574 0)
(1.0344 0.0754856 0)
(-0.0156815 0.00658554 -7.15073e-20)
(-0.0392167 0.00739059 0)
(-0.055951 0.00225095 -1.11445e-19)
(-0.0521261 -0.00287255 1.9533e-19)
(-0.0187344 -0.00829717 -2.12443e-19)
(0.0506648 -0.0133689 -3.46185e-20)
(0.157526 -0.015652 6.40703e-20)
(0.295243 -0.0124697 0)
(0.453759 -0.00410514 0)
(0.617957 0.0137277 -7.04708e-20)
(0.774705 0.0290514 -2.49609e-20)
(0.923321 0.0569089 5.14823e-20)
(1.04853 0.070843 -2.0189e-20)
(1.14207 0.0923932 0)
(1.24957 0.102973 -5.8052e-20)
(-0.24776 0.454264 0)
(-0.206455 0.547194 4.79874e-21)
(-0.168162 0.612947 -4.57751e-21)
(-0.103264 0.633529 0)
(-0.0167245 0.588166 -1.25454e-22)
(0.105491 0.454455 0)
(0.25185 0.218719 2.81965e-22)
(0.41319 -0.100649 0)
(0.579444 -0.407557 -2.19441e-22)
(0.677798 -0.621228 2.02752e-21)
(0.697443 -0.683675 -1.93479e-21)
(0.752316 -0.608494 -8.12404e-23)
(0.753574 -0.623976 0)
(0.663213 -0.726883 1.69154e-22)
(0.630246 -0.600045 2.23154e-22)
(0.699868 -0.183867 0)
(0.767771 0.256434 0)
(0.796546 0.51958 0)
(0.841781 0.573074 -1.19348e-22)
(0.846578 0.589339 0)
(0.726977 0.652977 0)
(0.586519 0.619773 -2.26843e-22)
(0.564061 0.334037 4.27315e-22)
(0.619428 -0.049915 2.49649e-22)
(0.691327 -0.32871 0)
(0.706583 -0.487854 0)
(0.637881 -0.562232 0)
(0.569861 -0.463563 0)
(0.591748 -0.207022 -1.39795e-22)
(0.665466 0.0621531 -1.16914e-22)
(0.738404 0.217693 9.93709e-23)
(0.784115 0.29556 4.41995e-23)
(0.756693 0.310753 -3.10248e-23)
(0.736601 0.277683 0)
(0.748829 0.148105 -1.13615e-23)
(0.805006 0.0298629 1.08838e-23)
(0.841585 -0.0778293 -2.35947e-24)
(0.866127 -0.12843 2.25552e-24)
(-0.226062 0.398563 7.94868e-22)
(-0.16307 0.478647 1.71082e-20)
(-0.091535 0.535153 0)
(0.0134956 0.540517 2.41634e-22)
(0.143864 0.478501 -1.33986e-22)
(0.295237 0.339864 0)
(0.449427 0.107318 -2.84031e-22)
(0.604721 -0.215716 1.64798e-20)
(0.747156 -0.500868 -1.60611e-20)
(0.82188 -0.657626 3.36152e-22)
(0.789043 -0.697028 0)
(0.772754 -0.61454 8.17927e-23)
(0.759758 -0.588668 0)
(0.651423 -0.679124 -3.17698e-22)
(0.574579 -0.598517 -2.24583e-22)
(0.610576 -0.221897 -4.67589e-22)
(0.671416 0.210082 6.54378e-21)
(0.72413 0.485292 -6.24724e-21)
(0.810687 0.55619 -3.41808e-21)
(0.836467 0.597005 3.5773e-21)
(0.712134 0.697766 2.05769e-22)
(0.594771 0.660333 -2.38793e-21)
(0.598285 0.336668 2.6908e-21)
(0.652806 -0.0719867 2.33023e-21)
(0.715383 -0.349367 -3.43081e-21)
(0.728472 -0.482517 1.45683e-21)
(0.671149 -0.540241 2.19717e-22)
(0.5914 -0.45532 0)
(0.593316 -0.221573 3.56837e-22)
(0.663422 0.0397553 1.1725e-22)
(0.737862 0.201236 -9.9622e-23)
(0.77634 0.293583 -3.95801e-22)
(0.743355 0.316182 3.55193e-22)
(0.729022 0.278177 -7.93122e-24)
(0.754205 0.140717 -1.32043e-24)
(0.815944 0.0204872 -1.78786e-22)
(0.855685 -0.0834903 -1.28854e-22)
(0.876341 -0.130708 9.50465e-24)
(-0.0627482 0.320542 2.86093e-20)
(0.00333511 0.386829 -2.7528e-20)
(0.089923 0.430829 0)
(0.206881 0.424767 3.32065e-20)
(0.351485 0.356668 -3.11977e-20)
(0.500702 0.237208 5.66076e-22)
(0.648134 0.0331202 0)
(0.798832 -0.278337 5.97451e-22)
(0.902416 -0.55283 0)
(0.931964 -0.66417 -6.84134e-22)
(0.868801 -0.676826 -1.31528e-20)
(0.802621 -0.604569 1.25479e-20)
(0.777061 -0.545841 9.33589e-21)
(0.663139 -0.615417 -1.89026e-20)
(0.530485 -0.590478 9.38786e-21)
(0.52011 -0.261563 4.7412e-22)
(0.568531 0.154081 0)
(0.657639 0.421674 -4.46575e-21)
(0.795472 0.519847 3.5928e-21)
(0.827209 0.633948 -2.01315e-22)
(0.719668 0.761059 2.41163e-22)
(0.63962 0.691128 5.0413e-21)
(0.65014 0.344727 -4.73607e-21)
(0.699303 -0.0753844 -4.48807e-21)
(0.752922 -0.353255 4.85346e-21)
(0.754719 -0.476023 0)
(0.704468 -0.524918 -2.2157e-22)
(0.624874 -0.448905 -2.62169e-22)
(0.608437 -0.235999 4.90498e-22)
(0.67017 0.0174238 -3.54621e-22)
(0.740614 0.186137 -6.24394e-22)
(0.769428 0.292847 1.63035e-22)
(0.731761 0.321186 4.15401e-22)
(0.724104 0.276861 -1.35325e-22)
(0.762213 0.131952 -2.13131e-22)
(0.828818 0.0106547 3.57068e-22)
(0.870896 -0.0888799 -1.00557e-22)
(0.887051 -0.132555 1.98354e-23)
(0.14844 0.232134 1.74471e-22)
(0.218009 0.285925 2.55781e-20)
(0.303336 0.321927 -5.28137e-20)
(0.415212 0.310947 2.66955e-20)
(0.554392 0.242968 4.84299e-22)
(0.681633 0.144298 -5.81034e-22)
(0.815243 -0.0222165 0)
(0.973846 -0.299552 0)
(1.05398 -0.554222 0)
(1.03641 -0.638732 -1.86653e-20)
(0.946048 -0.630439 1.76765e-20)
(0.840109 -0.582754 3.22291e-22)
(0.799597 -0.511831 -5.22666e-22)
(0.700113 -0.537767 2.51985e-22)
(0.525395 -0.552113 5.29978e-22)
(0.449689 -0.302704 0)
(0.491479 0.0759049 9.08872e-21)
(0.612114 0.341766 -8.40075e-21)
(0.77377 0.473403 4.27309e-22)
(0.824354 0.617235 0)
(0.739697 0.776897 -4.5777e-22)
(0.671158 0.735534 0)
(0.695274 0.374319 -7.16776e-22)
(0.74648 -0.0706143 7.89607e-22)
(0.79726 -0.357201 -5.09127e-22)
(0.789887 -0.466657 0)
(0.73925 -0.507128 0)
(0.666396 -0.441223 1.06399e-21)
(0.637343 -0.249691 -1.16392e-21)
(0.686042 -0.00568469 -7.02269e-24)
(0.746632 0.171554 4.83804e-22)
(0.762834 0.293853 5.7484e-22)
(0.721406 0.326818 -1.10271e-21)
(0.721782 0.2744 2.763e-22)
(0.772849 0.122173 2.46329e-22)
(0.843578 0.000444781 0)
(0.887121 -0.0939177 1.23826e-22)
(0.898199 -0.133939 0)
(0.375267 0.152118 -1.81207e-22)
(0.431354 0.193139 0)
(0.503188 0.221831 3.99587e-22)
(0.602433 0.210641 -4.48894e-22)
(0.727558 0.15531 -9.59016e-22)
(0.835599 0.0741749 5.00868e-22)
(0.965169 -0.0810227 3.61872e-20)
(1.12841 -0.31947 -6.82819e-20)
(1.18396 -0.524721 3.12941e-20)
(1.11925 -0.58497 0)
(1.01959 -0.564423 9.19646e-22)
(0.894383 -0.540954 -3.33006e-22)
(0.831562 -0.482777 -6.90256e-21)
(0.755025 -0.472928 7.00052e-21)
(0.574592 -0.497523 -2.28897e-22)
(0.433074 -0.33147 7.37527e-21)
(0.447244 -0.00853601 -8.7173e-22)
(0.580727 0.242874 -1.2164e-20)
(0.760985 0.4044 5.49683e-21)
(0.825321 0.621166 -7.47577e-21)
(0.759283 0.820369 -2.97702e-21)
(0.729887 0.75125 -3.16883e-21)
(0.758528 0.385718 1.1444e-20)
(0.799455 -0.0611685 -3.05383e-21)
(0.844692 -0.352706 0)
(0.83068 -0.45534 0)
(0.772541 -0.492162 0)
(0.708336 -0.435415 0)
(0.675738 -0.262085 -5.02139e-22)
(0.70876 -0.0256746 3.60511e-22)
(0.754366 0.160711 6.97899e-22)
(0.757236 0.296073 -4.7453e-22)
(0.713511 0.330924 8.48565e-22)
(0.722571 0.269757 -5.3134e-22)
(0.786158 0.111189 -2.61989e-22)
(0.860118 -0.0100381 -1.23377e-22)
(0.904206 -0.0984654 -8.17207e-23)
(0.909687 -0.134793 0)
(0.676898 0.0980605 0)
(0.697651 0.122418 4.72949e-20)
(0.738457 0.143498 -4.48673e-20)
(0.813698 0.128342 -5.68154e-20)
(0.911018 0.0820016 5.45854e-20)
(1.00653 0.0201417 -6.39207e-23)
(1.13347 -0.119686 5.56562e-22)
(1.26373 -0.313315 0)
(1.27979 -0.463773 -4.81622e-20)
(1.17478 -0.514761 4.62905e-20)
(1.07347 -0.497682 -4.67027e-22)
(0.958086 -0.489775 1.76646e-20)
(0.868191 -0.452105 -3.02436e-20)
(0.811965 -0.414288 2.1348e-21)
(0.658038 -0.430655 9.68825e-21)
(0.485521 -0.33656 1.96059e-22)
(0.459494 -0.0900798 2.65325e-22)
(0.580358 0.133249 0)
(0.757299 0.317641 0)
(0.821818 0.564546 4.63464e-23)
(0.784933 0.795536 3.38726e-23)
(0.763262 0.80048 -6.55731e-22)
(0.795213 0.458986 8.48256e-22)
(0.8486 -0.017246 7.581e-22)
(0.893806 -0.338866 -8.28909e-21)
(0.87871 -0.438615 7.88454e-21)
(0.809133 -0.474279 4.64052e-22)
(0.746697 -0.430822 0)
(0.717503 -0.274233 -7.50707e-23)
(0.736965 -0.0463625 0)
(0.765185 0.14853 -6.4461e-22)
(0.752524 0.299071 5.39004e-22)
(0.706555 0.336339 0)
(0.725837 0.264781 2.89579e-22)
(0.801938 0.0998176 -5.30457e-22)
(0.878261 -0.0203198 2.28267e-22)
(0.921953 -0.102381 0)
(0.921405 -0.135096 -4.3671e-23)
(1.02396 0.0877282 -9.76956e-23)
(1.02356 0.0901639 0)
(1.03241 0.0974162 -5.08492e-20)
(1.07788 0.0809026 4.83839e-20)
(1.13601 0.0322919 5.77947e-20)
(1.20185 -0.026885 -5.54784e-20)
(1.30098 -0.144159 0)
(1.36257 -0.289141 -5.57802e-20)
(1.32772 -0.389227 5.30592e-20)
(1.2044 -0.436865 0)
(1.10044 -0.437935 2.21274e-22)
(1.01152 -0.436712 4.90016e-22)
(0.90561 -0.42485 -1.13906e-22)
(0.856135 -0.374988 -8.94195e-21)
(0.745816 -0.364587 8.42636e-21)
(0.568639 -0.32053 6.83611e-21)
(0.520717 -0.15393 -6.4548e-21)
(0.607361 0.0332494 -6.63109e-21)
(0.750706 0.233811 6.30144e-21)
(0.826302 0.534203 4.99069e-22)
(0.814378 0.807771 9.36023e-21)
(0.812056 0.802945 -2.06407e-20)
(0.860166 0.460756 1.20174e-20)
(0.903976 -0.0054922 -1.21121e-20)
(0.937012 -0.331774 4.07772e-21)
(0.924315 -0.425503 8.46087e-21)
(0.847883 -0.457759 2.42632e-21)
(0.78014 -0.429335 -2.86788e-21)
(0.75608 -0.288452 7.68069e-23)
(0.766199 -0.0619667 -2.67246e-23)
(0.775848 0.142914 -4.5419e-22)
(0.748009 0.30382 -3.92161e-22)
(0.703201 0.338214 3.59534e-22)
(0.732877 0.256419 1.5429e-22)
(0.82037 0.0871399 0)
(0.897834 -0.0305891 -7.63692e-23)
(0.940117 -0.105712 2.18293e-22)
(0.93324 -0.134868 -4.33531e-23)
(1.24496 0.0963299 5.4658e-20)
(1.2467 0.0905428 0)
(1.24731 0.0862098 5.00299e-20)
(1.26771 0.069572 -9.80812e-20)
(1.29277 0.0337493 4.78423e-20)
(1.32572 -0.0159895 0)
(1.37468 -0.101171 0)
(1.37022 -0.204765 0)
(1.31663 -0.284684 0)
(1.22299 -0.345402 0)
(1.12755 -0.382946 -2.36494e-22)
(1.06035 -0.391876 -1.92827e-20)
(0.951454 -0.3978 1.82666e-20)
(0.884252 -0.364494 8.38147e-23)
(0.82537 -0.320614 0)
(0.654615 -0.290322 0)
(0.577351 -0.195294 9.02869e-23)
(0.646666 -0.0561348 0)
(0.755765 0.120401 -8.19568e-21)
(0.817258 0.424463 7.61108e-21)
(0.818174 0.74509 -8.34696e-21)
(0.838448 0.84379 -4.30385e-21)
(0.874421 0.579006 1.08713e-20)
(0.944853 0.0821168 0)
(0.984882 -0.296379 -9.979e-21)
(0.971534 -0.406818 1.44683e-20)
(0.890951 -0.437355 -5.37167e-21)
(0.811838 -0.424082 1.16345e-22)
(0.789069 -0.302171 0)
(0.793245 -0.0826618 2.73725e-23)
(0.787837 0.131408 6.75012e-23)
(0.747201 0.306548 6.29311e-22)
(0.700248 0.343202 -3.44562e-22)
(0.741024 0.250718 -1.55922e-22)
(0.84098 0.0757856 0)
(0.918562 -0.04014 1.11893e-22)
(0.958452 -0.108067 0)
(0.945127 -0.133936 4.34835e-23)
(1.25174 0.0938497 0)
(1.26796 0.084859 0)
(1.27765 0.0731559 0)
(1.29596 0.0550676 0)
(1.31377 0.0247605 0)
(1.32503 -0.022153 0)
(1.34157 -0.0800176 0)
(1.31826 -0.149308 0)
(1.27515 -0.211942 0)
(1.22486 -0.256886 0)
(1.1425 -0.299761 0)
(1.09108 -0.313138 0)
(1.00406 -0.320622 0)
(0.901275 -0.322782 0)
(0.884417 -0.274585 0)
(0.759629 -0.232519 0)
(0.614315 -0.201462 0)
(0.657831 -0.118913 0)
(0.767535 0.0564102 0)
(0.823425 0.375865 0)
(0.846534 0.708087 0)
(0.873 0.809923 0)
(0.921865 0.54781 0)
(1.00751 0.0894332 0)
(1.02574 -0.263031 0)
(1.01045 -0.367977 0)
(0.934296 -0.397256 0)
(0.843438 -0.404028 0)
(0.814868 -0.305656 0)
(0.815152 -0.0912844 0)
(0.796639 0.130617 0)
(0.742599 0.312815 0)
(0.69977 0.341411 0)
(0.757431 0.236608 0)
(0.865713 0.060954 0)
(0.939902 -0.0486491 0)
(0.976258 -0.108578 0)
(0.956645 -0.132056 0)
(1.23157 0.0924827 0)
(1.2494 0.0782643 0)
(1.26312 0.0638121 0)
(1.2715 0.0408239 0)
(1.28457 0.0117805 0)
(1.28961 -0.0308754 0)
(1.29131 -0.0819447 0)
(1.27865 -0.137608 0)
(1.23908 -0.201891 0)
(1.19921 -0.245072 0)
(1.12741 -0.28605 0)
(1.05477 -0.305174 0)
(0.991322 -0.289941 0)
(0.881284 -0.294165 0)
(0.835416 -0.256116 0)
(0.790782 -0.17369 0)
(0.654269 -0.153323 0)
(0.6321 -0.12567 0)
(0.737495 0.0387064 0)
(0.80997 0.356502 0)
(0.86717 0.680041 0)
(0.897374 0.783527 0)
(0.970348 0.532747 0)
(1.07601 0.0628525 0)
(1.08194 -0.285243 0)
(1.04271 -0.372537 0)
(0.962206 -0.38361 0)
(0.864118 -0.389448 0)
(0.835153 -0.29751 0)
(0.832717 -0.0821488 0)
(0.802316 0.141456 0)
(0.737207 0.322923 0)
(0.703732 0.338785 0)
(0.7787 0.219193 0)
(0.893624 0.0426353 0)
(0.963337 -0.0595827 0)
(0.994647 -0.110352 0)
(0.968097 -0.130396 0)
(1.21619 0.0855741 0)
(1.23191 0.0687518 0)
(1.24361 0.0517306 0)
(1.24945 0.0282285 0)
(1.256 0.00289435 0)
(1.25854 -0.03114 0)
(1.25299 -0.0745087 0)
(1.24354 -0.115387 0)
(1.21209 -0.166063 0)
(1.17494 -0.196563 0)
(1.1223 -0.220275 0)
(1.05317 -0.242259 0)
(1.01206 -0.224363 0)
(0.937037 -0.230313 0)
(0.863178 -0.225224 0)
(0.843373 -0.134572 0)
(0.73928 -0.10859 0)
(0.625225 -0.143451 0)
(0.697488 -0.00672228 0)
(0.80208 0.328115 0)
(0.873037 0.65855 0)
(0.914903 0.765496 0)
(1.01898 0.499536 0)
(1.14175 0.0509183 0)
(1.13401 -0.264391 0)
(1.07702 -0.338306 0)
(1.00539 -0.344047 0)
(0.894259 -0.367519 0)
(0.853448 -0.295697 0)
(0.845856 -0.0801911 0)
(0.804321 0.154313 0)
(0.73101 0.335572 0)
(0.712902 0.333163 0)
(0.807358 0.196915 0)
(0.927004 0.0235079 0)
(0.989448 -0.0692901 0)
(1.01416 -0.110032 0)
(0.980224 -0.127393 0)
(1.20127 0.0790075 0)
(1.21587 0.0616933 0)
(1.22541 0.045058 0)
(1.22991 0.0227024 0)
(1.23004 -0.00111635 0)
(1.23038 -0.0298974 0)
(1.22187 -0.066896 0)
(1.21181 -0.0976354 0)
(1.18783 -0.141038 0)
(1.14913 -0.170124 0)
(1.11162 -0.190179 0)
(1.04917 -0.221783 0)
(1.00162 -0.207777 0)
(0.950008 -0.198567 0)
(0.872562 -0.210628 0)
(0.849636 -0.118616 0)
(0.824391 -0.0437493 0)
(0.696934 -0.103493 0)
(0.675022 -0.0502999 0)
(0.814624 0.271606 0)
(0.914219 0.625436 0)
(0.948333 0.738274 0)
(1.06559 0.460084 0)
(1.20343 0.0265551 0)
(1.19306 -0.26324 0)
(1.10094 -0.32772 0)
(1.03015 -0.320609 0)
(0.918498 -0.343785 0)
(0.86254 -0.286227 0)
(0.85212 -0.0688982 0)
(0.797955 0.173025 0)
(0.721736 0.348111 0)
(0.729325 0.32158 0)
(0.845562 0.169764 0)
(0.966052 0.00276694 0)
(1.01794 -0.0786121 0)
(1.03438 -0.108652 0)
(0.992805 -0.123607 0)
(1.18541 0.072672 0)
(1.1988 0.0565456 0)
(1.20601 0.0399934 0)
(1.2092 0.0194583 0)
(1.20612 -0.00259378 0)
(1.20493 -0.0262554 0)
(1.1956 -0.0565732 0)
(1.18291 -0.0821943 0)
(1.16617 -0.115165 0)
(1.12978 -0.140566 0)
(1.10252 -0.153284 0)
(1.05444 -0.173903 0)
(1.0045 -0.16343 0)
(0.970006 -0.147517 0)
(0.909536 -0.162642 0)
(0.85149 -0.102947 0)
(0.854468 -0.0159454 0)
(0.807217 -0.0557837 0)
(0.718087 -0.0678785 0)
(0.795077 0.210005 0)
(0.896183 0.592163 0)
(0.947913 0.704048 0)
(1.11716 0.402681 0)
(1.25487 0.000987786 0)
(1.23866 -0.23669 0)
(1.12842 -0.285048 0)
(1.05788 -0.279169 0)
(0.955129 -0.309292 0)
(0.865702 -0.274638 0)
(0.849232 -0.0591913 0)
(0.791809 0.190933 0)
(0.718505 0.355934 0)
(0.759324 0.302098 0)
(0.895197 0.137639 0)
(1.01025 -0.018031 0)
(1.04784 -0.0859937 0)
(1.05464 -0.104936 0)
(1.00559 -0.118391 0)
(1.16887 0.0659579 0)
(1.18068 0.0514441 0)
(1.18653 0.0359723 0)
(1.18869 0.0179211 0)
(1.18506 -0.000964288 0)
(1.1813 -0.0212629 0)
(1.17306 -0.0454718 0)
(1.15954 -0.0663875 0)
(1.14656 -0.0915752 0)
(1.11657 -0.11162 0)
(1.09195 -0.122762 0)
(1.05412 -0.140499 0)
(1.00717 -0.136146 0)
(0.978624 -0.122383 0)
(0.936297 -0.131135 0)
(0.876698 -0.0829221 0)
(0.865904 -0.00914266 0)
(0.870155 -0.0261721 0)
(0.797729 -0.0415564 0)
(0.752925 0.189354 0)
(0.804534 0.551004 0)
(0.948216 0.626163 0)
(1.18993 0.325703 0)
(1.30319 -0.0220045 0)
(1.27032 -0.213682 0)
(1.14586 -0.252475 0)
(1.05997 -0.252428 0)
(0.980792 -0.273179 0)
(0.867034 -0.248597 0)
(0.818464 -0.0446535 0)
(0.765312 0.211638 0)
(0.715916 0.358985 0)
(0.804577 0.27306 0)
(0.955949 0.101077 0)
(1.05791 -0.0376187 0)
(1.07754 -0.0907108 0)
(1.07393 -0.0989193 0)
(1.0182 -0.111909 0)
(1.15327 0.0599191 0)
(1.16339 0.0473556 0)
(1.16846 0.0336925 0)
(1.16945 0.0182158 0)
(1.16576 0.00206976 0)
(1.16077 -0.0150468 0)
(1.15327 -0.0340462 0)
(1.14093 -0.0513023 0)
(1.12927 -0.0703811 0)
(1.10542 -0.0862903 0)
(1.08307 -0.0967248 0)
(1.05507 -0.107755 0)
(1.01528 -0.1046 0)
(0.991224 -0.0922781 0)
(0.957522 -0.0952284 0)
(0.906865 -0.0554423 0)
(0.893461 -0.00129699 0)
(0.896939 -0.0117665 0)
(0.851603 0.000861684 0)
(0.768496 0.201795 0)
(0.803006 0.475526 0)
(1.02665 0.495017 0)
(1.27212 0.238729 0)
(1.32883 -0.0346565 0)
(1.27083 -0.176383 0)
(1.16299 -0.197798 0)
(1.07328 -0.210977 0)
(1.00624 -0.232591 0)
(0.886861 -0.206979 0)
(0.775718 -0.0171652 0)
(0.711844 0.230839 0)
(0.719749 0.345298 0)
(0.872296 0.228517 0)
(1.02711 0.0612877 0)
(1.10584 -0.0536345 0)
(1.10454 -0.0913092 0)
(1.09103 -0.0899377 0)
(1.03026 -0.103897 0)
(1.13916 0.055016 0)
(1.14752 0.0443096 0)
(1.15171 0.0325052 0)
(1.15196 0.0194652 0)
(1.14856 0.00589283 0)
(1.14332 -0.00801154 0)
(1.13632 -0.0230962 0)
(1.12594 -0.036778 0)
(1.11495 -0.0514359 0)
(1.09703 -0.0634736 0)
(1.07777 -0.0716562 0)
(1.05591 -0.0785598 0)
(1.02435 -0.0773072 0)
(1.00254 -0.067191 0)
(0.976387 -0.0658075 0)
(0.935782 -0.035168 0)
(0.927879 0.00748567 0)
(0.92468 0.00634745 0)
(0.88474 0.0358358 0)
(0.836184 0.20434 0)
(0.909152 0.375403 0)
(1.12533 0.351284 0)
(1.3034 0.16797 0)
(1.31984 -0.0223242 0)
(1.24991 -0.133888 0)
(1.16137 -0.154139 0)
(1.07667 -0.177904 0)
(1.00537 -0.197164 0)
(0.907122 -0.154183 0)
(0.767888 0.0277111 0)
(0.70328 0.235711 0)
(0.784202 0.301719 0)
(0.974325 0.169838 0)
(1.1034 0.0235795 0)
(1.14802 -0.0629221 0)
(1.12562 -0.0870086 0)
(1.10475 -0.0783071 0)
(1.04146 -0.0946367 0)
(1.1265 0.0508648 0)
(1.1334 0.0419557 0)
(1.13687 0.0320334 0)
(1.13679 0.0214312 0)
(1.13374 0.0102533 0)
(1.12884 -0.000806934 0)
(1.12255 -0.0126258 0)
(1.11394 -0.0233017 0)
(1.10427 -0.0343625 0)
(1.0907 -0.0432322 0)
(1.07472 -0.0497458 0)
(1.05729 -0.0539282 0)
(1.03376 -0.0534147 0)
(1.0144 -0.0449258 0)
(0.995405 -0.0400589 0)
(0.965318 -0.0173085 0)
(0.957901 0.0152929 0)
(0.95609 0.0256979 0)
(0.924897 0.0577504 0)
(0.913003 0.177123 0)
(1.0061 0.272761 0)
(1.16378 0.243607 0)
(1.27213 0.125905 0)
(1.27743 -0.00492248 0)
(1.21881 -0.0959201 0)
(1.15318 -0.112026 0)
(1.09057 -0.13436 0)
(1.01236 -0.154489 0)
(0.925968 -0.104368 0)
(0.817537 0.0678151 0)
(0.796364 0.222222 0)
(0.922892 0.240575 0)
(1.08928 0.114054 0)
(1.16599 -0.00169043 0)
(1.17554 -0.0624244 0)
(1.13793 -0.0777213 0)
(1.11458 -0.0644066 0)
(1.05179 -0.0842486 0)
(1.11578 0.0474928 0)
(1.12147 0.0402994 0)
(1.12432 0.0321618 0)
(1.12412 0.0237189 0)
(1.12149 0.0147114 0)
(1.1172 0.00604176 0)
(1.11175 -0.00312559 0)
(1.10472 -0.0113098 0)
(1.09673 -0.0195142 0)
(1.08638 -0.0260346 0)
(1.07388 -0.0309682 0)
(1.0602 -0.0331609 0)
(1.04324 -0.0328691 0)
(1.02724 -0.0257442 0)
(1.01313 -0.0197058 0)
(0.993134 -0.00301567 0)
(0.985553 0.0213129 0)
(0.985694 0.0381234 0)
(0.970598 0.0653123 0)
(0.976953 0.138972 0)
(1.05258 0.190669 0)
(1.15349 0.171312 0)
(1.22183 0.096891 0)
(1.23116 0.0103919 0)
(1.19016 -0.0605658 0)
(1.13903 -0.0792146 0)
(1.09481 -0.0996627 0)
(1.02605 -0.112336 0)
(0.946503 -0.0643007 0)
(0.888501 0.0830153 0)
(0.926929 0.187643 0)
(1.05547 0.179599 0)
(1.16539 0.0749754 0)
(1.19437 -0.0113256 0)
(1.18378 -0.0540957 0)
(1.14182 -0.0658515 0)
(1.12125 -0.0499264 0)
(1.06149 -0.0734464 0)
(1.1072 0.0449695 0)
(1.11184 0.0392531 0)
(1.11422 0.0327351 0)
(1.11405 0.0261146 0)
(1.1119 0.0190244 0)
(1.10832 0.0123488 0)
(1.1039 0.00535677 0)
(1.09838 -0.000713538 0)
(1.09205 -0.00675266 0)
(1.08429 -0.0113297 0)
(1.07494 -0.014996 0)
(1.06455 -0.01598 0)
(1.05254 -0.0156933 0)
(1.04033 -0.00999742 0)
(1.03013 -0.00420757 0)
(1.0177 0.00840621 0)
(1.01162 0.0258449 0)
(1.01266 0.0430054 0)
(1.01019 0.0633076 0)
(1.02195 0.105877 0)
(1.07218 0.132344 0)
(1.1349 0.121552 0)
(1.17977 0.0745218 0)
(1.19038 0.0174267 0)
(1.16627 -0.0355345 0)
(1.12953 -0.0523767 0)
(1.09678 -0.0678709 0)
(1.04352 -0.0708299 0)
(0.978147 -0.0335993 0)
(0.954083 0.0754965 0)
(1.01625 0.142048 0)
(1.11809 0.130697 0)
(1.18451 0.0535916 0)
(1.19202 -0.0112306 0)
(1.17929 -0.0426675 0)
(1.14112 -0.0537994 0)
(1.12635 -0.0354756 0)
(1.07101 -0.0621092 0)
(1.10092 0.0427189 0)
(1.10475 0.0382469 0)
(1.10681 0.0331153 0)
(1.10679 0.0280015 0)
(1.10518 0.0224959 0)
(1.10241 0.0174492 0)
(1.09903 0.0121642 0)
(1.09486 0.00770981 0)
(1.09011 0.00323616 0)
(1.08442 0.000124189 0)
(1.07773 -0.00259557 0)
(1.07019 -0.00287456 0)
(1.06197 -0.00260083 0)
(1.05331 0.0018432 0)
(1.04627 0.00662454 0)
(1.03887 0.0160968 0)
(1.03524 0.0279483 0)
(1.03667 0.0422769 0)
(1.03991 0.0559285 0)
(1.05168 0.0798955 0)
(1.08342 0.0923212 0)
(1.12191 0.0862471 0)
(1.15196 0.055996 0)
(1.16135 0.0201485 0)
(1.148 -0.0173895 0)
(1.12265 -0.0309151 0)
(1.09806 -0.0435063 0)
(1.06037 -0.0399239 0)
(1.01531 -0.0138599 0)
(1.00563 0.0599454 0)
(1.05844 0.100903 0)
(1.1299 0.0941395 0)
(1.17486 0.0391243 0)
(1.17803 -0.0106151 0)
(1.17087 -0.0333089 0)
(1.13905 -0.0441458 0)
(1.13073 -0.0229974 0)
(1.08046 -0.051339 0)
(1.09695 0.0413183 0)
(1.10015 0.0378935 0)
(1.10198 0.0339311 0)
(1.10215 0.0300692 0)
(1.10109 0.025876 0)
(1.0991 0.0221472 0)
(1.09666 0.0181842 0)
(1.09369 0.0150035 0)
(1.0904 0.0116966 0)
(1.08649 0.00965711 0)
(1.08203 0.00765159 0)
(1.07686 0.00773552 0)
(1.07152 0.00791064 0)
(1.0658 0.0112616 0)
(1.06135 0.0146823 0)
(1.05717 0.0216553 0)
(1.0556 0.0291397 0)
(1.05719 0.039661 0)
(1.06213 0.0479114 0)
(1.07178 0.0613343 0)
(1.09158 0.0660478 0)
(1.11465 0.0627818 0)
(1.13424 0.0431319 0)
(1.14141 0.0216242 0)
(1.13515 -0.00431034 0)
(1.11874 -0.0132318 0)
(1.1013 -0.0227173 0)
(1.07574 -0.0156278 0)
(1.04857 0.000676495 0)
(1.04442 0.0483767 0)
(1.08043 0.0718439 0)
(1.12759 0.0684637 0)
(1.16116 0.0293228 0)
(1.16418 -0.00947683 0)
(1.16303 -0.0242842 0)
(1.1371 -0.0349919 0)
(1.13519 -0.0100332 0)
(1.09048 -0.0395512 0)
(1.09553 0.0385918 0)
(1.09828 0.0359882 0)
(1.1 0.0329473 0)
(1.10042 0.0300523 0)
(1.09987 0.0268586 0)
(1.09858 0.0241123 0)
(1.09701 0.0211216 0)
(1.09507 0.0188618 0)
(1.093 0.0163737 0)
(1.09047 0.0150103 0)
(1.08773 0.013425 0)
(1.08442 0.0135978 0)
(1.08122 0.0135275 0)
(1.07771 0.0159325 0)
(1.07527 0.0179687 0)
(1.07308 0.0228399 0)
(1.07297 0.0270414 0)
(1.07451 0.0341133 0)
(1.07921 0.0383587 0)
(1.08633 0.0456878 0)
(1.09911 0.0462623 0)
(1.11297 0.0445777 0)
(1.12593 0.0314825 0)
(1.13091 0.0193407 0)
(1.12842 0.00146464 0)
(1.118 -0.0035059 0)
(1.10684 -0.0108624 0)
(1.09029 -0.00275654 0)
(1.0752 0.00666055 0)
(1.07315 0.0371618 0)
(1.09657 0.0487339 0)
(1.12671 0.0465583 0)
(1.1518 0.0184647 0)
(1.15353 -0.0121056 0)
(1.15687 -0.0203141 0)
(1.13592 -0.0308969 0)
(1.13966 -0.00248441 0)
(1.10039 -0.0303686 0)
(1.09618 0.0385271 0)
(1.09856 0.0366041 0)
(1.10018 0.0343186 0)
(1.10078 0.0322083 0)
(1.10066 0.0298229 0)
(1.09998 0.0278725 0)
(1.09914 0.0256585 0)
(1.09804 0.0241248 0)
(1.09697 0.0222709 0)
(1.09556 0.0214239 0)
(1.09418 0.0201815 0)
(1.09234 0.0204232 0)
(1.09077 0.0201504 0)
(1.08889 0.0218788 0)
(1.08791 0.0228275 0)
(1.08698 0.0261407 0)
(1.08771 0.0280762 0)
(1.08908 0.0326112 0)
(1.09306 0.0341306 0)
(1.09786 0.0382778 0)
(1.10614 0.0367967 0)
(1.11396 0.0360958 0)
(1.12229 0.0268627 0)
(1.12533 0.0207272 0)