/*--------------------------------*- C++ -*----------------------------------*\
| =========                 |                                                 |
| \\      /  F ield         | OpenFOAM: The Open Source CFD Toolbox           |
|  \\    /   O peration     | Version:  2312                                  |
|   \\  /    A nd           | Website:  www.openfoam.com                      |
|    \\/     M anipulation  |                                                 |
\*---------------------------------------------------------------------------*/
FoamFile
{
    version     2.0;
    format      ascii;
    arch        "LSB;label=32;scalar=64";
    class       surfaceScalarField;
    location    "145.35";
    object      phi;
}
// * * * * * * * * * * * * * * * * * * * * * * * * * * * * * * * * * * * * * //

dimensions      [0 3 -1 0 0 0 0];

oriented        oriented;

internalField   nonuniform List<scalar> 
10785
(
-0.00107168
0.0054642
-0.00439252
0.000195546
0.00709968
-0.0083669
0.00738381
5.98677e-05
-0.00724813
0.0238835
-0.0173564
0.000856705
0.0507838
-0.0440059
0.0171056
0.0848181
-0.0747664
0.0407321
0.120371
-0.104334
0.0687812
0.151817
-0.129128
0.0976824
0.175193
-0.147602
0.124226
0.189654
-0.160311
0.14585
0.197125
-0.169172
0.161701
0.201731
-0.17647
0.171864
0.206136
-0.184194
0.179789
0.210249
-0.189999
0.185886
-0.197244
0.195371
0.212122
-0.000220837
0.00568504
0.00356146
0.00331738
0.0162867
-0.0126653
0.0404301
-0.0414998
0.0720693
-0.0756451
0.104275
-0.106972
0.131185
-0.131244
0.150011
-0.147954
0.161462
-0.159053
0.168468
-0.167317
0.174028
-0.174732
0.179745
-0.182186
0.184657
-0.189106
0.190186
-0.195527
-0.203043
0.195984
0.000916744
0.0047683
0.00855731
-0.00432319
0.0280329
-0.0321409
0.0565065
-0.0699733
0.0856671
-0.104806
0.10919
-0.130495
0.125114
-0.147168
0.13506
-0.1579
0.141922
-0.165915
0.147676
-0.173071
0.152941
-0.179998
0.157409
-0.186654
0.161571
-0.193268
0.166028
-0.199985
-0.206671
0.169656
0.00220044
0.00256785
0.0147405
-0.0168633
0.0390627
-0.0564631
0.0659482
-0.0968589
0.0876956
-0.126553
0.10229
-0.145089
0.111497
-0.156375
0.117838
-0.164241
0.122795
-0.170872
0.12693
-0.177206
0.1305
-0.183568
0.134055
-0.190209
0.13789
-0.197102
0.142066
-0.204161
-0.211724
0.147119
0.00390756
-0.00133971
0.0210965
-0.0340522
0.0457122
-0.0810788
0.0669623
-0.118109
0.0813208
-0.140912
0.0900812
-0.15385
0.0955915
-0.161885
0.099461
-0.16811
0.102592
-0.174004
0.105483
-0.180097
0.108436
-0.186522
0.111404
-0.193176
0.114227
-0.199926
0.117086
-0.20702
-0.214073
0.119435
0.00610068
-0.0074404
0.0258064
-0.0537579
0.0467965
-0.102069
0.0618099
-0.133122
0.0706819
-0.149784
0.0756271
-0.158795
0.0786314
-0.16489
0.0808827
-0.170361
0.0828752
-0.175996
0.0847247
-0.181946
0.0863795
-0.188177
0.0878902
-0.194687
0.0895464
-0.201582
0.0913202
-0.208794
-0.216417
0.0936639
0.00834872
-0.0157891
0.0274053
-0.0728145
0.0435107
-0.118174
0.0532218
-0.142833
0.0581033
-0.154665
0.0604593
-0.161151
0.061769
-0.166199
0.0626441
-0.171236
0.063264
-0.176616
0.0637063
-0.182388
0.0640913
-0.188562
0.0645335
-0.195129
0.0649603
-0.202009
0.0654423
-0.209276
-0.216703
0.0657291
0.00984278
-0.0256319
0.0260455
-0.0890173
0.037425
-0.129554
0.0429749
-0.148383
0.0449942
-0.156684
0.0454157
-0.161572
0.0451906
-0.165974
0.0446519
-0.170698
0.0439178
-0.175882
0.0430513
-0.181522
0.042063
-0.187573
0.0409439
-0.19401
0.039846
-0.200911
0.0388171
-0.208247
0.0383081
-0.216194
0.000525729
0.0167782
-0.0173039
-0.000758656
0.0354233
-0.0341389
-0.00380413
0.0442437
-0.0411983
-0.00754213
0.0483856
-0.0446476
-0.0110189
0.0509698
-0.0474931
-0.0135242
0.0524057
-0.0499004
-0.0144735
0.0519089
-0.0509596
-0.0133568
0.0486019
-0.0497186
-0.00980085
0.0418037
-0.0453597
-0.0036034
0.0310267
-0.0372241
0.00496703
0.0163124
-0.0248828
0.0161275
-0.00335028
-0.00781022
0.0299071
-0.0268398
0.0130602
0.0482361
-0.057442
0.0391131
-0.0907806
0.0702429
0.0687738
0.00235289
0.0144253
0.00431425
0.0334619
0.00502938
0.0435286
0.0054387
0.0479762
0.0067679
0.0496406
0.00987589
0.0492977
0.0152715
0.0465133
0.0232206
0.0406528
0.03368
0.0313443
0.0465174
0.0181893
0.0605846
0.00224521
0.0776388
-0.0204045
0.0959025
-0.0451035
0.117596
-0.0791353
-0.113612
0.140427
0.00355009
0.0108752
0.00848817
0.0285238
0.0129825
0.0390342
0.0175115
0.0434473
0.0232426
0.0439095
0.0310728
0.0414675
0.0413994
0.0361868
0.0542731
0.0277791
0.0692346
0.0163828
0.0860911
0.00133277
0.104946
-0.0166093
0.126599
-0.0420582
0.150379
-0.0688833
0.177388
-0.106145
-0.140223
0.204
0.0036555
0.00721971
0.010244
0.0219353
0.0175572
0.031721
0.02538
0.0356245
0.0344239
0.0348656
0.0454011
0.0304903
0.058602
0.0229859
0.0739591
0.0124219
0.0912176
-0.000875683
0.111604
-0.0190533
0.135131
-0.0401364
0.162703
-0.0696302
0.19407
-0.100251
0.226393
-0.138467
-0.167966
0.254135
0.00275991
0.0044598
0.00909414
0.0156011
0.0173082
0.0235069
0.0267162
0.0262165
0.0374403
0.0241416
0.0498434
0.0180872
0.0642779
0.0085513
0.0813994
-0.00469954
0.102639
-0.022115
0.128213
-0.0446278
0.159985
-0.0719077
0.194746
-0.104392
0.230239
-0.135744
0.259917
-0.168146
-0.185661
0.277612
0.00132804
0.00313176
0.00582045
0.0111087
0.0128518
0.0164756
0.0217634
0.0173049
0.0325716
0.0133334
0.0459815
0.00467734
0.063421
-0.0088882
0.0863173
-0.0275958
0.115778
-0.0515755
0.150796
-0.0796458
0.189225
-0.110337
0.224783
-0.139949
0.254001
-0.164962
0.270022
-0.184167
-0.190641
0.275003
-0.000152775
0.00328453
0.00193795
0.00901797
0.00684229
0.0115712
0.0148047
0.00934253
0.0270605
0.00107755
0.0453137
-0.0135758
0.0709858
-0.0345603
0.103821
-0.0604308
0.141412
-0.0891667
0.179487
-0.117721
0.212847
-0.143697
0.236465
-0.163567
0.249491
-0.177988
0.25136
-0.186036
-0.19063
0.251348
-0.00110799
-0.000456923
0.00386619
0.0140654
0.0322486
0.0594049
0.0936259
0.130877
0.165937
0.194066
0.21207
0.220366
0.222167
0.222017
0.226758
0.101085
-0.263717
0.232875
0.104863
-0.313991
0.310213
0.0675043
-0.341328
0.378686
0.0603506
-0.340039
0.347192
0.12544
-0.229002
0.163913
0.188635
0.0439029
-0.107098
0.229068
0.232876
-0.273309
0.247291
0.289887
-0.30811
0.227447
0.373159
-0.353315
0.191751
0.40323
-0.367534
0.201011
0.340669
-0.349929
0.239049
0.0557826
-0.0938197
0.269716
-0.129994
0.0993271
0.273785
-0.228344
0.224276
0.275518
-0.447398
0.445665
0.279273
-0.410773
0.407018
0.282713
-0.380792
0.377352
0.290712
-0.0920384
0.0840396
0.296079
0.315418
-0.320785
0.309551
0.428945
-0.442417
0.314142
0.609504
-0.614096
0.305171
0.253142
-0.244171
0.303206
-0.341408
0.343373
0.306127
-0.468097
0.465175
0.315013
-0.666183
0.657298
0.330745
-0.0376149
0.0218824
0.324523
1.01356
-1.00734
0.306764
0.515447
-0.497688
0.287652
-0.590153
0.609264
0.28779
-0.404274
0.404137
0.280014
0.224038
-0.216263
0.271609
0.182475
-0.174071
0.268075
-0.0348858
0.0384195
0.265611
-0.0430785
0.0455424
0.261419
0.00479451
-0.000601962
0.258023
0.0145959
-0.0112
0.255223
0.00450608
-0.00170593
0.00105965
0.00161553
0.147928
-0.271218
0.152213
-0.318275
0.112466
-0.301581
0.0622746
-0.289847
0.0927242
-0.259452
0.165309
-0.0286816
0.221282
0.176902
0.248043
0.263127
0.230737
0.390464
0.198433
0.435534
0.207063
0.332039
0.240355
0.0224907
0.272552
-0.162191
0.272043
-0.227835
0.265541
-0.440896
0.272724
-0.417956
0.275623
-0.38369
0.287302
-0.103718
0.296845
0.305876
0.309729
0.416061
0.317552
0.601681
0.305335
0.265358
0.297742
-0.333815
0.299464
-0.469819
0.303823
-0.670541
0.327056
-0.060848
0.332852
1.00776
0.313022
0.535276
0.285973
-0.563104
0.285625
-0.403926
0.281418
0.228246
0.274239
0.189654
0.270193
-0.0308404
0.267102
-0.0399876
0.262929
0.00896833
0.259805
0.0177199
0.257039
0.00727203
0.00374275
0.190065
-0.257283
0.177081
-0.305292
0.15759
-0.282091
0.101713
-0.23397
0.0851164
-0.242855
0.151612
-0.0951768
0.216712
0.111802
0.252615
0.227223
0.246042
0.397038
0.219724
0.461851
0.222999
0.328764
0.243424
0.00206628
0.27153
-0.190298
0.267168
-0.223473
0.251785
-0.425513
0.261018
-0.427189
0.264972
-0.387644
0.280544
-0.119289
0.294675
0.291744
0.307403
0.403333
0.318017
0.591067
0.303443
0.279932
0.289675
-0.320047
0.288752
-0.468896
0.288291
-0.67008
0.320129
-0.0926858
0.337946
0.989946
0.316773
0.556449
0.282038
-0.528369
0.281064
-0.402952
0.280663
0.228647
0.274977
0.195341
0.2707
-0.0265637
0.267212
-0.0364996
0.263272
0.012909
0.260657
0.0203344
0.258146
0.00978294
0.00624814
0.230197
-0.233345
0.191108
-0.266203
0.172956
-0.263939
0.140662
-0.201677
0.100436
-0.202629
0.150541
-0.145282
0.221366
0.040978
0.255098
0.193491
0.252318
0.399818
0.238662
0.475506
0.240911
0.326515
0.247194
-0.00421606
0.267393
-0.210496
0.262454
-0.218534
0.239809
-0.402869
0.246997
-0.434377
0.252549
-0.393196
0.271756
-0.138496
0.288139
0.275361
0.299946
0.391526
0.313258
0.577755
0.297806
0.295385
0.279198
-0.301439
0.27443
-0.464128
0.269916
-0.665566
0.308535
-0.131305
0.33733
0.961152
0.315375
0.578404
0.276055
-0.489049
0.274411
-0.401308
0.277671
0.225388
0.273673
0.199338
0.269534
-0.0224247
0.265935
-0.0329007
0.262466
0.016378
0.260589
0.0222121
0.258542
0.01183
0.00839234
0.244151
-0.199884
0.197422
-0.219474
0.164599
-0.231116
0.153903
-0.190981
0.120603
-0.169328
0.146468
-0.171147
0.219945
-0.0324994
0.264987
0.148448
0.27928
0.385526
0.27431
0.480476
0.264543
0.336282
0.252168
0.00815927
0.259756
-0.218085
0.25261
-0.211388
0.2253
-0.37556
0.228214
-0.437291
0.235488
-0.40047
0.258859
-0.161867
0.279238
0.254982
0.291871
0.378893
0.306919
0.562707
0.290016
0.312287
0.26705
-0.278473
0.257287
-0.454365
0.248841
-0.65712
0.293577
-0.176042
0.333896
0.920833
0.311125
0.601174
0.268583
-0.446507
0.266249
-0.398974
0.272829
0.218808
0.270532
0.201634
0.266802
-0.0186945
0.263358
-0.0294566
0.260587
0.0191491
0.259644
0.0231554
0.258249
0.0132246
0.00999675
0.234321
-0.159202
0.194055
-0.179208
0.155661
-0.192722
0.145823
-0.181142
0.131458
-0.154963
0.138268
-0.177957
0.198516
-0.0927475
0.249946
0.0970185
0.273159
0.362313
0.277791
0.475844
0.272802
0.341271
0.254651
0.0263098
0.251051
-0.214485
0.241816
-0.202153
0.211422
-0.345165
0.207001
-0.43287
0.214907
-0.408376
0.242194
-0.189154
0.265629
0.231547
0.278977
0.365545
0.295643
0.546041
0.279401
0.32853
0.25379
-0.252862
0.238842
-0.439418
0.227284
-0.645562
0.274938
-0.223695
0.323807
0.871964
0.302315
0.622667
0.259541
-0.403733
0.25667
-0.396104
0.266053
0.209426
0.265524
0.202163
0.262558
-0.0157279
0.259574
-0.0264733
0.257728
0.020995
0.257886
0.0229975
0.257314
0.0137972
0.0108872
0.21702
-0.124874
0.184489
-0.146677
0.154234
-0.162466
0.137882
-0.16479
0.128124
-0.145205
0.125231
-0.175064
0.165799
-0.133315
0.229014
0.0338029
0.278716
0.312611
0.294644
0.459917
0.28229
0.353625
0.250709
0.0578901
0.237436
-0.201211
0.226007
-0.190724
0.195322
-0.314481
0.183809
-0.421356
0.189872
-0.41444
0.22223
-0.221512
0.251794
0.201983
0.267246
0.350093
0.285318
0.527969
0.268044
0.345804
0.240524
-0.225342
0.220462
-0.419356
0.20483
-0.62993
0.255115
-0.27398
0.313626
0.813453
0.292593
0.643699
0.249613
-0.360753
0.246381
-0.392872
0.258093
0.197714
0.259109
0.201147
0.257057
-0.013676
0.254775
-0.024191
0.254033
0.021737
0.255407
0.021623
0.255804
0.0134004
0.0108952
0.202267
-0.100382
0.175667
-0.120078
0.151319
-0.138118
0.134707
-0.148179
0.118617
-0.129115
0.106185
-0.162632
0.123034
-0.150165
0.174465
-0.0176276
0.238214
0.248861
0.269386
0.428746
0.270803
0.352208
0.246335
0.0823576
0.227474
-0.182349
0.21235
-0.175601
0.179763
-0.281894
0.161156
-0.402749
0.163581
-0.416864
0.196444
-0.254375
0.230718
0.167709
0.249059
0.331751
0.269112
0.507916
0.254753
0.360162
0.225798
-0.196386
0.202057
-0.395615
0.182896
-0.610769
0.232125
-0.323209
0.295849
0.749729
0.278644
0.660905
0.238057
-0.320167
0.235223
-0.390038
0.248528
0.184409
0.251236
0.198439
0.250458
-0.0128975
0.249136
-0.0228689
0.249647
0.0212254
0.252305
0.0189652
0.253802
0.0119034
0.00985594
0.46052
-0.0749397
-0.485962
0.435971
-0.0955294
0.407149
-0.109295
0.380361
-0.121391
0.345278
-0.0940317
0.298646
-0.116
0.245195
-0.0967139
0.197028
0.0305388
0.195068
0.250822
0.281489
0.342325
0.407586
0.226111
0.470727
0.0192165
0.472723
-0.184345
0.455986
-0.158864
0.430609
-0.256517
0.402882
-0.375023
0.364435
-0.378417
0.332074
-0.222014
0.309313
0.19047
0.307051
0.334014
0.348545
0.466422
0.405863
0.302844
0.421596
-0.212119
0.400933
-0.374952
0.349085
-0.558921
0.335927
-0.31005
0.381419
0.704237
0.417614
0.62471
0.401661
-0.304214
0.372543
-0.36092
0.369659
0.187294
0.379197
0.188901
0.381323
-0.0150234
0.375652
-0.0171984
0.373008
0.0238695
0.374056
0.0179174
0.372841
0.0131178
0.0120767
0.482425
-0.0531413
-0.504223
0.459361
-0.0724658
0.430108
-0.0800415
0.401206
-0.0924895
0.37518
-0.0680059
0.346805
-0.0876244
0.303568
-0.0534775
0.267258
0.0668497
0.304396
0.213683
0.412493
0.234227
0.510978
0.127626
0.538752
-0.0085574
0.512354
-0.157947
0.481349
-0.127859
0.455887
-0.231056
0.417187
-0.336322
0.369383
-0.330613
0.331769
-0.1844
0.29899
0.223249
0.306834
0.32617
0.374298
0.398958
0.448629
0.228513
0.458677
-0.222167
0.418324
-0.334599
0.352196
-0.492794
0.334633
-0.292487
0.388528
0.650342
0.444298
0.56894
0.431185
-0.291101
0.396227
-0.325963
0.392828
0.190693
0.406128
0.175601
0.409959
-0.0188538
0.404273
-0.0115132
0.402356
0.025787
0.404209
0.0160645
0.4034
0.0139266
0.0141152
0.516306
-0.0379175
-0.53153
0.498171
-0.0543311
0.474003
-0.0558727
0.450956
-0.0694432
0.427958
-0.0450075
0.396305
-0.0559717
0.366277
-0.023449
0.371422
0.0617048
0.434809
0.150296
0.521818
0.147218
0.579051
0.0703925
0.579338
-0.00884365
0.546371
-0.12498
0.522976
-0.104464
0.50165
-0.209729
0.440565
-0.275237
0.368368
-0.258417
0.316537
-0.132568
0.281343
0.258443
0.312524
0.29499
0.40835
0.303132
0.495994
0.140868
0.501344
-0.227516
0.441526
-0.274782
0.350381
-0.401648
0.318848
-0.260954
0.395955
0.573234
0.480687
0.484208
0.463519
-0.273933
0.420142
-0.282586
0.41789
0.192945
0.434945
0.158546
0.439516
-0.0234249
0.433795
-0.00579252
0.432899
0.0266834
0.435597
0.0133666
0.435429
0.0140945
0.0156561
0.5517
-0.0255347
-0.564083
0.535732
-0.0383627
0.516807
-0.0369483
0.496263
-0.0488987
0.479736
-0.0284809
0.459749
-0.0359845
0.4421
-0.00579952
0.461697
0.0421076
0.521201
0.0907914
0.578326
0.0900939
0.60608
0.0426382
0.606737
-0.00950111
0.577431
-0.0956739
0.545119
-0.0721522
0.515383
-0.179994
0.449999
-0.209853
0.366283
-0.174701
0.303092
-0.0693768
0.295131
0.266404
0.358162
0.231959
0.460746
0.200547
0.54604
0.0555749
0.539457
-0.220933
0.465286
-0.200611
0.352059
-0.288422
0.302226
-0.21112
0.413362
0.462098
0.525399
0.372171
0.495182
-0.243716
0.438237
-0.225641
0.441237
0.189944
0.464646
0.135137
0.469663
-0.0284418
0.463835
3.60245e-05
0.464406
0.0261121
0.468119
0.00965392
0.469001
0.0132119
0.0162067
0.592323
-0.016347
-0.60151
0.580305
-0.0263452
0.566187
-0.0228297
0.551434
-0.0341457
0.539153
-0.0162004
0.526029
-0.0228609
0.51886
0.00136961
0.536126
0.0248422
0.575307
0.05161
0.615073
0.0503286
0.632449
0.025262
0.631655
-0.00870746
0.615196
-0.079215
0.593492
-0.0504479
0.559266
-0.145767
0.493286
-0.143873
0.415973
-0.097388
0.360327
-0.0137304
0.388707
0.238024
0.463266
0.1574
0.543218
0.120595
0.602562
-0.00376926
0.581482
-0.199854
0.51207
-0.131198
0.390334
-0.166686
0.314242
-0.135028
0.450019
0.326321
0.578137
0.244053
0.529442
-0.195021
0.45626
-0.152458
0.469791
0.176413
0.502272
0.102656
0.504923
-0.031093
0.497388
0.00757126
0.499661
0.0238385
0.504228
0.00508678
0.506047
0.0113931
0.0155321
0.639335
-0.00957254
-0.646109
0.630123
-0.0171337
0.620524
-0.0132304
0.608912
-0.022534
0.601139
-0.00842708
0.593521
-0.0152429
0.591122
0.00376877
0.604671
0.011293
0.627725
0.0285554
0.652304
0.02575
0.667162
0.0104042
0.667099
-0.00864448
0.645181
-0.057297
0.62845
-0.0337175
0.600514
-0.117831
0.548661
-0.0920201
0.499872
-0.0485993
0.468608
0.0175335
0.528101
0.178531
0.591117
0.0943831
0.632354
0.0793592
0.658192
-0.029608
0.615421
-0.157083
0.565355
-0.0811321
0.473561
-0.0748918
0.383702
-0.0451692
0.511404
0.198618
0.63285
0.122608
0.570309
-0.13248
0.490614
-0.072763
0.517738
0.149289
0.555791
0.0646031
0.552009
-0.0273103
0.542143
0.017437
0.54615
0.019831
0.550359
0.00087778
0.551892
0.00986037
0.0141764
0.69251
-0.00479886
-0.697284
0.685773
-0.0103959
0.679336
-0.00679389
0.67126
-0.0144581
0.666633
-0.00379978
0.662137
-0.0107467
0.661962
0.0039434
0.670436
0.00281877
0.683696
0.0152957
0.699409
0.0100369
0.707517
0.00229595
0.706888
-0.00801493
0.695902
-0.0463109
0.683369
-0.0211843
0.651203
-0.0856657
0.608767
-0.0495841
0.589826
-0.0296579
0.58516
0.0221991
0.644165
0.119526
0.689338
0.0492103
0.706949
0.0617483
0.715854
-0.0385129
0.660699
-0.101928
0.625336
-0.0457689
0.5895
-0.0390556
0.521637
0.0226932
0.607322
0.112933
0.693126
0.0368039
0.63255
-0.071904
0.564555
-0.00476763
0.596966
0.116877
0.6301
0.031469
0.619483
-0.0166925
0.608814
0.0281059
0.612822
0.0158232
0.614507
-0.00080793
0.614023
0.0103442
0.013489
0.751866
-0.00159416
-0.75507
0.74724
-0.00576979
0.743148
-0.00270221
0.737736
-0.0090462
0.734871
-0.000934548
0.732149
-0.00802486
0.732698
0.00339452
0.737449
-0.00193226
0.745277
0.00746744
0.753542
0.00177179
0.758966
-0.00312751
0.757599
-0.00664819
0.745886
-0.0345984
0.736566
-0.0118638
0.713893
-0.0629932
0.68679
-0.022481
0.67877
-0.0216381
0.683798
0.0171713
0.72795
0.0753742
0.754692
0.0224684
0.760747
0.0556931
0.76228
-0.0400451
0.719041
-0.0586897
0.69658
-0.0233077
0.690154
-0.0326294
0.659427
0.0534196
0.709313
0.0630469
0.749889
-0.00377189
0.702137
-0.0241519
0.663053
0.0343168
0.694134
0.0857963
0.713493
0.0121098
0.70012
-0.00331938
0.692803
0.0354225
0.69567
0.0129564
0.694269
0.000592903
0.691929
0.0126842
0.0139705
0.817411
0.000476448
-0.819481
0.81447
-0.0028294
0.811997
-0.000228954
0.808399
-0.00544802
0.806907
0.000557673
0.804804
-0.00592182
0.805718
0.00248012
0.807499
-0.00371361
0.812033
0.00293365
0.81565
-0.00184464
0.818182
-0.00566015
0.816184
-0.00464961
0.808752
-0.0271662
0.802348
-0.00546036
0.783914
-0.0445594
0.768863
-0.0074301
0.76396
-0.0167344
0.769693
0.0114376
0.797351
0.0477163
0.814641
0.00517819
0.823776
0.0465589
0.818961
-0.0352299
0.787965
-0.0276943
0.773688
-0.00903081
0.771713
-0.030654
0.769617
0.0555156
0.800122
0.032542
0.806247
-0.00989696
0.77519
0.00690459
0.767314
0.0421931
0.792526
0.0605843
0.797576
0.00705946
0.785877
0.0083797
0.784144
0.0371558
0.785559
0.0115411
0.782271
0.00388084
0.779697
0.0152583
0.0150333
0.889555
0.00165789
-0.890736
0.887681
-0.000956111
0.886311
0.00114181
0.883897
-0.0030343
0.883225
0.00122953
0.881411
-0.00410766
0.882259
0.00163152
0.882234
-0.00368776
0.884764
0.000403668
0.885682
-0.00276295
0.886479
-0.00645731
0.884912
-0.00308295
0.878002
-0.0202555
0.874329
-0.00178769
0.860354
-0.0305842
0.854045
-0.00112116
0.849531
-0.0122203
0.854313
0.00665578
0.872278
0.0297513
0.880046
-0.00258987
0.88991
0.0366943
0.882197
-0.0275163
0.865447
-0.0109443
0.85912
-0.00270458
0.852924
-0.0244574
0.860242
0.0481973
0.876552
0.0162321
0.871783
-0.00512754
0.858786
0.0199009
0.864429
0.0365502
0.88019
0.0448237
0.877904
0.00934486
0.871781
0.0145033
0.874821
0.0341162
0.874474
0.0118879
0.870858
0.00749625
0.869674
0.0164422
0.0157169
0.968449
0.00220277
-0.968994
0.967237
0.000255956
0.966642
0.00173683
0.964926
-0.00131797
0.96476
0.0013954
0.963114
-0.00246139
0.963778
0.000967324
0.962867
-0.00277739
0.964058
-0.000787187
0.963735
-0.00243952
0.963108
-0.00583045
0.961967
-0.00194156
0.956128
-0.0144174
0.954872
-0.000530972
0.94415
-0.0198627
0.942351
0.00067827
0.938282
-0.008151
0.941454
0.00348341
0.953035
0.0181702
0.955137
-0.00469139
0.966163
0.025668
0.957348
-0.0187015
0.948774
-0.00237038
0.945301
0.000767931
0.936705
-0.0158613
0.948825
0.0360781
0.956268
0.00878897
0.949065
0.00207549
0.946032
0.0229336
0.953639
0.0289433
0.964116
0.0343468
0.960639
0.0128221
0.958348
0.0167941
0.963398
0.0290661
0.962143
0.0131431
0.959251
0.010388
0.959573
0.0161201
0.0157298
1.05465
0.00233235
-1.05478
1.05386
0.00105336
1.05369
0.00189872
1.05248
-0.000105652
1.05251
0.00136962
1.05115
-0.00109973
1.05149
0.000622452
1.05038
-0.00166964
1.05061
-0.00101522
1.04991
-0.00174285
1.04851
-0.00442208
1.048
-0.00143239
1.04298
-0.00940258
1.04287
-0.000422368
1.035
-0.0119854
1.03509
0.000585473
1.03184
-0.00490176
1.03373
0.00159052
1.0413
0.0106005
1.04024
-0.00362648
1.04951
0.0163996
1.04127
-0.010468
1.03819
0.000712336
1.03664
0.00231419
1.02894
-0.00816121
1.03975
0.0252743
1.04096
0.00757579
1.03723
0.00580182
1.03931
0.0208608
1.04458
0.0236735
1.05198
0.0269443
1.04932
0.0154817
1.04903
0.0170882
1.05437
0.023717
1.05305
0.0144718
1.05105
0.0123859
1.05209
0.0150788
0.0153711
1.14878
0.00226653
-1.14872
1.14829
0.00154179
1.14833
0.00186421
1.14748
0.000741537
1.14755
0.00130401
1.1465
-5.01399e-05
1.14658
0.000539126
1.14559
-0.000673685
1.14529
-0.000723363
1.14459
-0.00103534
1.143
-0.00283425
1.14265
-0.00108416
1.13873
-0.00547762
1.13897
-0.000670864
1.13352
-0.00653273
1.13409
1.63823e-05
1.1317
-0.00251199
1.13263
0.000660056
1.13725
0.00598049
1.13532
-0.00169416
1.14228
0.0094413
1.13614
-0.00432933
1.13527
0.00157617
1.13404
0.00355294
1.12829
-0.00242054
1.13706
0.0165049
1.13637
0.00827049
1.13495
0.00722567
1.13778
0.0180275
1.14134
0.0201093
1.14761
0.0206818
1.14596
0.0171247
1.14638
0.0166687
1.15103
0.0190732
1.15012
0.0153752
1.14905
0.0134577
1.15024
0.0138898
0.0148987
1.2516
0.00210871
-1.25144
1.25134
0.00179726
1.25144
0.00176387
1.25091
0.00127633
1.25095
0.00126129
1.25021
0.00068883
1.25013
0.000619526
1.24934
0.000113859
1.24887
-0.000245725
1.24823
-0.000397208
1.24681
-0.00141915
1.2465
-0.000771265
1.24369
-0.00266175
1.24384
-0.000827179
1.24026
-0.00294696
1.24071
-0.00043788
1.23899
-0.000791151
1.23938
0.000268922
1.242
0.00336258
1.24024
6.18965e-05
1.24476
0.00492748
1.24045
-2.63585e-05
1.24066
0.00136415
1.23987
0.00435245
1.23639
0.00105471
1.24226
0.010633
1.24104
0.00948978
1.24136
0.00691131
1.24414
0.0152451
1.24683
0.0174224
1.25188
0.0156279
1.25121
0.0177956
1.25215
0.0157243
1.25585
0.0153809
1.25545
0.0157712
1.25523
0.0136786
1.25639
0.012728
0.0143577
1.36401
0.00192669
-1.36383
1.36392
0.00188599
1.36403
0.00164955
1.36374
0.00157568
1.36376
0.00123629
1.36327
0.00117464
1.36314
0.000749497
1.36256
0.000695649
1.36212
0.000199166
1.36158
0.000145656
1.36052
-0.000359979
1.36017
-0.000424554
1.35829
-0.00077884
1.35828
-0.000821282
1.35598
-0.000645948
1.35624
-0.000702817
1.35501
0.000441746
1.35512
0.00016538
1.35643
0.00204691
1.35513
0.00135946
1.35786
0.00220399
1.35514
0.00269482
1.35569
0.000808561
1.35513
0.00491383
1.35322
0.00296847
1.35703
0.00681666
1.3564
0.0101261
1.35743
0.0058755
1.35952
0.0131601
1.36183
0.0151082
1.36595
0.0115136
1.36619
0.0175534
1.36742
0.0144945
1.3702
0.0125985
1.37036
0.0156154
1.3708
0.0132377
1.37193
0.0115985
0.0137238
1.48695
0.00174048
-1.48676
1.48698
0.00185369
1.4871
0.00152953
1.48698
0.00169702
1.487
0.00121088
1.48673
0.00145071
1.48662
0.000858631
1.48623
0.00108735
1.48589
0.000535377
1.48547
0.000564597
1.48477
0.000345251
1.48443
-8.34461e-05
1.48326
0.000386183
1.48312
-0.000679558
1.48174
0.000734028
1.48179
-0.00075569
1.48097
0.00126787
1.48094
0.000191533
1.4815
0.0014869
1.48072
0.00213989
1.48217
0.000751024
1.48064
0.00422873
1.48115
0.000300644
1.48083
0.00523053
1.48011
0.0036927
1.48239
0.00453064
1.48225
0.0102647
1.48369
0.0044408
1.48541
0.0114363
1.4875
0.0130193
1.49068
0.00833404
1.49152
0.0167172
1.49303
0.0129846
1.49522
0.0104033
1.49593
0.0149053
1.49679
0.0123791
1.49785
0.0105363
0.0128891
1.62146
0.00155133
-1.62128
1.62158
0.00173469
1.62171
0.00140292
1.62172
0.00168437
1.62176
0.00116925
1.62166
0.00155588
1.62159
0.000922773
1.62138
0.00130156
1.62117
0.000745566
1.62088
0.000852726
1.62048
0.000752274
1.62019
0.000204145
1.61956
0.00101444
1.61935
-0.000466856
1.61862
0.00145961
1.61853
-0.000662345
1.61806
0.00173453
1.61798
0.000268215
1.61817
0.00130541
1.61781
0.00249268
1.61843
0.00013069
1.61781
0.0048533
1.61809
2.31477e-05
1.61808
0.00523992
1.61798
0.003793
1.61931
0.00319985
1.6199
0.00967039
1.62122
0.00312367
1.62278
0.00987302
1.62483
0.0109681
1.62712
0.00604818
1.62839
0.0154491
1.62997
0.0113999
1.63189
0.00849033
1.63327
0.0135227
1.63435
0.0113005
1.63527
0.00960973
0.0118612
1.76867
0.00136126
-1.76848
1.76885
0.00155005
1.76898
0.00127155
1.7691
0.00156442
1.76916
0.00111513
1.7692
0.00151709
1.76917
0.000949676
1.76912
0.00135398
1.76901
0.000850759
1.76887
0.000998529
1.76869
0.00092603
1.76847
0.000423478
1.76826
0.00123233
1.76801
-0.000219992
1.7678
0.00166821
1.76761
-0.000471144
1.7675
0.00184349
1.76743
0.000337777
1.76747
0.00126377
1.7675
0.00246052
1.76755
8.52069e-05
1.76764
0.00476649
1.76756
0.000102079
1.76784
0.00495904
1.76812
0.00351176
1.76881
0.0025128
1.7701
0.00837486
1.77113
0.00209515
1.77284
0.00816891
1.77494
0.00885913
1.7763
0.00469353
1.77786
0.0138849
1.77938
0.0098811
1.78119
0.00667933
1.78339
0.0113209
1.78459
0.0101018
1.78529
0.0089089
0.010608
1.92971
0.00115611
-1.92951
1.92998
0.00128664
1.93012
0.00112601
1.93037
0.00132212
1.93043
0.00104737
1.93064
0.00131455
1.93063
0.000952321
1.93076
0.00122458
1.93073
0.000885755
1.93073
0.000996717
1.93073
0.000920691
1.93055
0.000608051
1.93068
0.00110313
1.93031
0.000151383
1.93059
0.00138645
1.93016
-4.0941e-05
1.93048
0.00152669
1.93031
0.000504295
1.93037
0.00120712
1.9308
0.00202535
1.93033
0.00056138
1.93132
0.00377311
1.93067
0.000746828
1.93156
0.00406987
1.93202
0.00305211
1.93212
0.00241824
1.93438
0.00611023
1.93447
0.00201212
1.93653
0.00610592
1.9387
0.00668579
1.9389
0.00449057
1.94157
0.0112161
1.94305
0.00839994
1.94424
0.00549571
1.94726
0.00829665
1.94863
0.00873638
1.94917
0.00836824
0.00909133
2.10591
0.000906087
-2.10566
2.10623
0.000966031
2.10644
0.000912357
2.10677
0.00099636
2.10693
0.000888282
2.10724
0.00100391
2.10735
0.000846414
2.1076
0.000971523
2.10768
0.000802943
2.1078
0.000874487
2.10793
0.000793472
2.10784
0.000702751
2.10809
0.000850826
2.10775
0.000493617
2.10815
0.000978484
2.10771
0.000404012
2.10814
0.00110098
2.10798
0.000660945
2.1081
0.00109013
2.10871
0.0014149
2.10828
0.000985054
2.10967
0.0023877
2.10918
0.00123781
2.11043
0.00281993
2.1111
0.00238331
2.11114
0.00237514
2.11336
0.00388402
2.11299
0.00238621
2.11482
0.00427289
2.1167
0.00480786
2.11688
0.00431341
2.12051
0.00758755
2.1225
0.0064089
2.12308
0.00491639
2.1255
0.0058784
2.12731
0.00692079
2.12863
0.00704933
0.00720813
2.29879
0.000621792
-2.2985
2.2991
0.000647708
2.29938
0.000634299
2.29971
0.000670793
2.29997
0.000629674
2.30029
0.000684754
2.30052
0.000613888
2.30081
0.000683606
2.30101
0.000593851
2.30123
0.000657589
2.30144
0.000587934
2.30154
0.0006015
2.30177
0.000615351
2.30174
0.000525555
2.30203
0.000687446
2.30195
0.000490222
2.30226
0.000785547
2.30233
0.000593344
2.30256
0.000855393
2.30306
0.000923087
2.30315
0.000888591
2.30413
0.00141346
2.30431
0.00105053
2.30535
0.00178554
2.30613
0.00160597
2.30666
0.00184435
2.30811
0.00243579
2.30844
0.00205458
2.3098
0.00290704
2.31139
0.00322535
2.3125
0.00319744
2.31553
0.00456087
2.31779
0.00414346
2.31885
0.00385885
2.32053
0.00420274
2.32271
0.00474098
2.32487
0.00488604
0.00504827
2.50997
0.000322914
-2.50968
2.51029
0.000330896
2.51059
0.000332821
2.51092
0.000343098
2.51122
0.000334926
2.51155
0.00035218
2.51183
0.000331214
2.51216
0.000357141
2.51243
0.000323459
2.51273
0.000355733
2.513
0.000318689
2.51325
0.000346541
2.51354
0.000325818
2.51374
0.000330936
2.51407
0.00035512
2.51424
0.00032444
2.51461
0.000407789
2.51485
0.000357965
2.51523
0.000472296
2.51569
0.000469133
2.51604
0.000535977
2.51679
0.000661227
2.51721
0.000631384
2.51812
0.000871581
2.51889
0.000837164
2.51971
0.00102255
2.52098
0.00116571
2.52184
0.00119837
2.52327
0.00147289
2.52486
0.00164115
2.52632
0.00173926
2.5287
0.00218165
2.53074
0.00209945
2.53249
0.00211236
2.53451
0.00217533
2.53678
0.00247144
2.53909
0.00258322
0.00265317
2.7413
-2.74098
2.74163
2.74197
2.74231
2.74264
2.743
2.74333
2.74368
2.74401
2.74436
2.74468
2.74503
2.74535
2.74569
2.74604
2.74637
2.74677
2.74713
2.7476
2.74807
2.74861
2.74927
2.7499
2.75077
2.75161
2.75263
2.7538
2.755
2.75647
2.75811
2.75985
2.76203
2.76413
2.76624
2.76842
2.77089
2.77347
0.440263
0.0322531
-0.434208
0.448261
0.0577312
0.453502
0.0884223
0.461675
0.111262
0.466818
0.141977
0.474894
0.16158
0.480308
0.190569
0.206469
0.468803
0.0271321
-0.463682
0.474752
0.0517819
0.479582
0.0835928
0.485389
0.105455
0.489684
0.137681
0.49444
0.156824
0.499604
0.185406
0.201849
0.501631
0.0231215
-0.49762
0.505387
0.0480256
0.509173
0.0798069
0.512578
0.10205
0.517183
0.133077
0.521109
0.152897
0.526735
0.17978
0.197054
0.537702
0.0199476
-0.534528
0.540143
0.0455846
0.543892
0.0760582
0.546911
0.0990307
0.551661
0.128327
0.555273
0.149286
0.55995
0.175103
0.192921
0.578381
0.0175079
-0.575941
0.580294
0.0436723
0.583789
0.0725629
0.586249
0.0965706
0.590109
0.124466
0.593229
0.146166
0.597442
0.17089
0.188853
0.623856
0.015605
-0.621953
0.625396
0.0421321
0.628239
0.0697203
0.630462
0.0943475
0.63405
0.120878
0.637423
0.142793
0.641872
0.16644
0.184617
0.674284
0.0142206
-0.672899
0.675725
0.0406912
0.678315
0.0671299
0.680855
0.0918071
0.684565
0.117169
0.688247
0.139111
0.6929
0.161787
0.180232
0.730383
0.0131534
-0.729316
0.731931
0.039144
0.734464
0.0645964
0.737314
0.0889574
0.741162
0.113321
0.745206
0.135067
0.750109
0.156884
0.175271
0.79255
0.0122909
-0.791688
0.7942
0.0374944
0.796721
0.0620754
0.799846
0.0858323
0.803868
0.109298
0.808386
0.13055
0.813807
0.151462
0.169597
0.861173
0.0115492
-0.860431
0.862896
0.0357712
0.8655
0.0594712
0.86894
0.082392
0.873333
0.104906
0.878453
0.12543
0.884401
0.145514
0.163262
0.936761
0.0108399
-0.936051
0.938584
0.0339483
0.941384
0.0566708
0.945159
0.0786171
0.949945
0.10012
0.955504
0.119871
0.961963
0.139054
0.156231
1.01976
0.0101214
-1.01904
1.02167
0.0320402
1.02468
0.0536614
1.02874
0.0745559
1.03392
0.0949434
1.03996
0.113831
1.04703
0.131977
0.148482
1.11071