/*--------------------------------*- C++ -*----------------------------------*\
| =========                 |                                                 |
| \\      /  F ield         | OpenFOAM: The Open Source CFD Toolbox           |
|  \\    /   O peration     | Version:  2312                                  |
|   \\  /    A nd           | Website:  www.openfoam.com                      |
|    \\/     M anipulation  |                                                 |
\*---------------------------------------------------------------------------*/
FoamFile
{
    version     2.0;
    format      ascii;
    arch        "LSB;label=32;scalar=64";
    class       surfaceScalarField;
    location    "9";
    object      phi;
}
// * * * * * * * * * * * * * * * * * * * * * * * * * * * * * * * * * * * * * //

dimensions      [0 3 -1 0 0 0 0];

oriented        oriented;

internalField   nonuniform List<scalar> 
4490
(
-0.00122789
0.00937267
-0.00814479
0.0143915
-0.000574773
-0.0150446
0.0563642
-0.0408273
-0.00114537
0.119837
-0.0943205
0.0308474
0.192782
-0.148051
0.075106
0.261504
-0.194654
0.125932
0.31765
-0.23097
0.174824
0.354301
-0.257726
0.221075
0.365534
-0.27026
0.259027
-0.285512
0.284269
0.366776
0.0017852
0.00758748
0.0351328
-0.0339224
0.0958133
-0.101508
0.161718
-0.160226
0.216106
-0.202439
0.250896
-0.229443
0.267457
-0.247532
0.27141
-0.261678
0.28089
-0.27974
-0.30465
0.300028
0.0125347
-0.00494726
0.0634857
-0.0848733
0.118428
-0.15645
0.157957
-0.199755
0.178709
-0.22319
0.188369
-0.239103
0.196104
-0.255267
0.209287
-0.274861
0.225526
-0.295979
-0.313732
0.234607
0.0262103
-0.0311575
0.0743357
-0.132999
0.10641
-0.188524
0.1216
-0.214945
0.129934
-0.231525
0.137811
-0.24698
0.145897
-0.263353
0.151229
-0.280194
0.152907
-0.297657
-0.317251
0.156426
0.0327577
-0.0639152
0.0633414
-0.163582
0.0776662
-0.202849
0.0833269
-0.220606
0.0855073
-0.233705
0.0852843
-0.246757
0.083466
-0.261534
0.0814924
-0.27822
0.0811005
-0.297265
0.0805737
-0.316724
-0.02793
0.0297564
-0.00182639
-0.0644351
0.037815
-0.00130987
-0.099786
0.0352056
0.000145332
-0.132466
0.0310548
0.00162518
-0.161481
0.0258126
0.00320273
-0.185055
0.0188227
0.00475121
-0.200789
0.00943263
0.00630158
-0.205812
-0.00233506
0.00735813
-0.196999
-0.016648
0.0078348
-0.0375811
-0.16765
0.00823218
-0.00771091
0.0374673
-0.0231957
0.0532998
-0.0384936
0.0505034
-0.0494828
0.042044
-0.0541
0.0304297
-0.0521109
0.0168336
-0.0400517
-0.00262653
-0.0217101
-0.0206767
0.0133996
-0.0517577
-0.0885371
0.0643556
0.0104215
0.0270458
0.0176508
0.0460705
0.0242401
0.0439142
0.0346827
0.0316013
0.0521134
0.0129991
0.0779033
-0.00895628
0.11951
-0.0442336
0.173841
-0.0750071
0.243089
-0.121006
-0.173964
0.328515
0.0137065
0.0133393
0.0314268
0.0283502
0.0499577
0.0253833
0.0727436
0.00881537
0.105183
-0.0194401
0.152352
-0.0561256
0.211147
-0.103028
0.284186
-0.148047
0.36474
-0.20156
-0.245612
0.436388
0.00519446
0.0185
0.042738
0.0824008
0.138067
0.207873
0.279669
0.352698
0.410165
0.448823
-0.107711
-0.0693606
0.00942084
-0.0260605
-0.088527
0.00687697
0.0645762
-0.0973859
0.00674915
0.153489
-0.096106
0.00719361
0.229216
-0.083858
0.00813056
0.288133
-0.0673896
0.00847289
0.332013
-0.052214
0.00833365
0.365188
-0.0407539
0.00757883
0.390325
-0.0310792
0.00594239
0.408572
-0.0220371
0.00378989
0.421015
-0.0139319
0.00148902
0.429
-0.00693102
-0.00105417
0.433826
-0.00056118
-0.00426484
0.436618
0.005434
-0.00822519
0.438014
0.0117119
-0.0131082
0.438426
0.0186128
-0.0190253
0.438092
0.0267346
-0.0264006
0.437178
0.0360254
-0.0351108
0.435747
0.0485211
-0.0470903
0.433951
0.0605715
-0.0587755
0.431654
0.0842453
-0.0819487
0.429179
0.0942065
-0.0917306
0.426155
0.146415
-0.143392
0.422912
0.147119
-0.143876
0.236863
-0.233252
0.0888245
-0.0938295
0.133468
-0.133171
0.191049
-0.154966
0.250525
-0.155583
0.301191
-0.134523
0.338338
-0.104537
0.364423
-0.0782988
0.383207
-0.059538
0.397631
-0.0455037
0.408912
-0.0333173
0.417462
-0.022482
0.423746
-0.0132158
0.428183
-0.00499769
0.431085
0.00253223
0.432883
0.00991319
0.433818
0.0176779
0.434076
0.0264769
0.433815
0.036286
0.433077
0.0492598
0.432017
0.0616309
0.430451
0.0858116
0.42873
0.0959277
0.426378
0.148767
0.423791
0.149706
0.24007
0.329627
-0.0949414
0.332624
-0.136168
0.341079
-0.163421
0.350283
-0.164786
0.359484
-0.143724
0.369235
-0.114288
0.377777
-0.0868411
0.384769
-0.06653
0.391288
-0.0520228
0.397599
-0.0396285
0.403374
-0.0282566
0.408395
-0.0182372
0.412807
-0.00940943
0.416451
-0.00111169
0.419365
0.00699976
0.421582
0.0154602
0.423185
0.0248742
0.424309
0.0351619
0.424986
0.0485824
0.425414
0.0612032
0.425364
0.0858614
0.425258
0.0960343
0.424495
0.149529
0.423579
0.150623
0.241767
0.4243
-0.0828534
0.401938
-0.113805
0.376319
-0.137803
0.355151
-0.143618
0.34293
-0.131503
0.341188
-0.112547
0.34629
-0.0919423
0.354264
-0.0745042
0.3628
-0.0605591
0.371121
-0.0479491
0.378665
-0.0358003
0.385072
-0.0246446
0.390476
-0.0148138
0.395194
-0.00582958
0.399333
0.00286077
0.402994
0.0117993
0.40623
0.0216377
0.409174
0.0322186
0.411815
0.0459414
0.414378
0.0586396
0.41656
0.0836799
0.418868
0.0937266
0.420579
0.147818
0.42229
0.148911
0.24086
0.422532
-0.0565625
0.386041
-0.0773142
0.344864
-0.0966261
0.308915
-0.10767
0.288952
-0.111539
0.285073
-0.108668
0.292092
-0.0989613
0.303778
-0.0861896
0.31643
-0.0732116
0.328605
-0.0601245
0.339696
-0.0468906
0.34949
-0.0344392
0.357917
-0.0232402
0.365195
-0.013108
0.371601
-0.00354502
0.37755
0.00585044
0.383146
0.0160419
0.388568
0.0267967
0.393809
0.0406998
0.399164
0.0532845
0.404282
0.0785622
0.409754
0.0882547
0.414765
0.142807
0.419982
0.143693
0.236306
0.468102
-0.0408971
-0.483767
0.451354
-0.0605663
0.431093
-0.0763654
0.411574
-0.0881497
0.395369
-0.0953351
0.383365
-0.0966639
0.375703
-0.0912996
0.370895
-0.0813815
0.367569
-0.0698856
0.365635
-0.0581897
0.36516
-0.0464165
0.36575
-0.0350291
0.366869
-0.0243587
0.368189
-0.0144277
0.369639
-0.00499542
0.370951
0.00453855
0.37216
0.014833
0.373254
0.0257026
0.374245
0.0397083
0.375155
0.0523754
0.376035
0.0776821
0.376957
0.0873325
0.377779
0.141985
0.37896
0.142512
0.235366
0.520625
-0.029451
-0.532071
0.506498
-0.0464396
0.491567
-0.0614344
0.476595
-0.0731778
0.461397
-0.0801364
0.447186
-0.0824535
0.436001
-0.0801149
0.42875
-0.0741304
0.42464
-0.0657749
0.42238
-0.0559296
0.42157
-0.0456066
0.421934
-0.0353935
0.423032
-0.0254564
0.42442
-0.015816
0.42577
-0.00634493
0.42717
0.00313858
0.428506
0.0134968
0.429743
0.0244651
0.43088
0.0385714
0.431962
0.0512936
0.432995
0.0766495
0.434158
0.0861688
0.435165
0.140979
0.43664
0.141037
0.234108
0.58427
-0.0227185
-0.591003
0.574685
-0.0368541
0.56222
-0.0489693
0.547424
-0.0583824
0.532232
-0.0649441
0.518201
-0.0684227
0.506581
-0.0684952
0.498164
-0.0657132
0.492858
-0.060469
0.489726
-0.0527968
0.488123
-0.0440044
0.487807
-0.0350772
0.488424
-0.0260732
0.489569
-0.0169615
0.491009
-0.00778448
0.492403
0.00174401
0.493734
0.012166
0.495027
0.0231727
0.496275
0.0373226
0.49754
0.0500291
0.498746
0.0754429
0.500208
0.084707
0.501449
0.139738
0.503304
0.139181
0.232459
0.655533
-0.0180976
-0.660153
0.646597
-0.027918
0.635032
-0.0374052
0.622368
-0.0457177
0.609823
-0.0523999
0.597995
-0.0565945
0.587623
-0.0581231
0.579232
-0.0573224
0.57303
-0.0542665
0.568816
-0.048583
0.566184
-0.0413729
0.564998
-0.0338911
0.56495
-0.0260248
0.565591
-0.0176023
0.566515
-0.00870855
0.567656
0.000603003
0.569015
0.010807
0.57041
0.0217773
0.571801
0.0359316
0.573281
0.0485496
0.574698
0.0740257
0.576529
0.0828764
0.57807
0.138196
0.58041
0.136841
0.230297
0.736141
-0.0148264
-0.739412
0.73007
-0.0218476
0.721426
-0.0287609
0.711475
-0.0357671
0.700832
-0.0417565
0.690122
-0.0458843
0.680001
-0.0480023
0.671118
-0.0484401
0.664064
-0.0472121
0.659122
-0.0436407
0.655871
-0.038122
0.653913
-0.031933
0.653068
-0.0251799
0.653136
-0.0176705
0.653878
-0.0094509
0.655105
-0.000623321
0.656303
0.0096089
0.657672
0.020408
0.659136
0.0344678
0.660832
0.0468531
0.662493
0.0723649
0.664778
0.0805918
0.666704
0.13627
0.669674
0.133871
0.227455
0.830229
-0.0127666
-0.832288
0.825798
-0.0174172
0.819468
-0.0224305
0.811529
-0.0278284
0.802541
-0.0327682
0.79328
-0.0366231
0.784392
-0.0391151
0.776237
-0.0402849
0.769156
-0.0401306
0.763631
-0.0381163
0.75974
-0.0342307
0.757184
-0.0293764
0.755791
-0.0237873
0.755307
-0.0171867
0.755414
-0.0095573
0.755763
-0.000972827
0.756865
0.00850713
0.758308
0.0189644
0.759972
0.0328043
0.761994
0.0448314
0.764001
0.0703578
0.766874
0.0777181
0.769308
0.133837
0.773115
0.130064
0.22373
0.940286
-0.0111246
-0.941928
0.937032
-0.0141637
0.932386
-0.0177846
0.92636
-0.0218027
0.919217
-0.0256245
0.911504
-0.0289106
0.903749
-0.0313601
0.896257
-0.0327924
0.88935
-0.0332237
0.88354
-0.032306
0.879095
-0.0297861
0.875838
-0.026119
0.873646
-0.0215961
0.87251
-0.0160502
0.872353
-0.00940033
0.873209
-0.00182858
0.874183
0.00753248
0.875544
0.0176036
0.877185
0.0311637
0.879428
0.0425879
0.88169
0.068096
0.885266
0.0741422
0.88826
0.130843
0.893149
0.125175
0.218775
1.06746
-0.00982837
-1.06876
1.06533
-0.0120315
1.06222
-0.0146775
1.05792
-0.0175051
1.05258
-0.0202792
1.04651
-0.0228405
1.04011
-0.0249594
1.0337
-0.026387
1.02753
-0.0270537
1.02197
-0.0267464
1.01739
-0.0252045
1.01384
-0.0225702
1.01126
-0.0190096
1.00955
-0.0143486
1.00857
-0.00841482
1.00795
-0.0012087
1.00845
0.00702934
1.00978
0.0162792
1.0117
0.0292377
1.01445
0.0398403
1.01739
0.0651581
1.0219
0.0696324
1.026
0.126742
1.03229
0.118886
0.212309
1.21741
-0.00893199
-1.2183
1.21584
-0.0104634
1.21338
-0.012214
1.20996
-0.0140933
1.20575
-0.0160647
1.20088
-0.0179747
1.19557
-0.0196472
1.19004
-0.0208524
1.18449
-0.0215113
1.17927
-0.0215196
1.17469
-0.020627
1.17091
-0.0187895
1.16798
-0.0160769
1.166
-0.0123766
1.16513
-0.00753704
1.16557
-0.00164718
1.16638
0.00621139
1.16782
0.0148444
1.16978
0.0272709
1.17291
0.0367184
1.17609
0.0619705
1.18195
0.0637804
1.18646
0.122224
1.19506
0.11029
0.203229
1.3915
-0.00822147
-1.39221
1.3904
-0.00936836
1.38875
-0.0105653
1.38645
-0.0117931
1.3835
-0.0131114
1.37993
-0.0144044
1.37586
-0.0155831
1.3715
-0.0164872
1.36697
-0.0169793
1.36243
-0.0169839
1.35817
-0.0163623
1.35441
-0.0150373
1.35129
-0.0129495
1.34882
-0.00991349
1.347
-0.005712
1.34555
-0.000200221
1.34551
0.00625003
1.34672
0.0136382
1.34902
0.0249717
1.35281
0.0329242
1.35721
0.057576
1.36439
0.0566014
1.37135
0.115261
1.38178
0.0998563
0.191978
1.59485
-0.00752357
-1.59555
1.59372
-0.00824242
1.5921
-0.0089399
1.58998
-0.00967221
1.58739
-0.0105227
1.58432
-0.0113376
1.58083
-0.0120893
1.57701
-0.0126655
1.57298
-0.0129577
1.569
-0.0130013
1.5653
-0.0126627
1.56201
-0.0117425
1.55923
-0.0101763
1.55718
-0.00785769
1.55614
-0.00467051
1.55652
-0.000584082
1.55748
0.00528656
1.55933
0.01179
1.56221
0.0220942
1.56688
0.0282527
1.57185
0.0526093
1.58175
0.0467016
1.5892
0.107807
1.6047
0.0843637
0.173808
1.83233
-0.00661438
-1.83324
1.83123
-0.00714309
1.82984
-0.0075456
1.82813
-0.00796675
1.8261
-0.00849334
1.82369
-0.00891877
1.82094
-0.0093455
1.81801
-0.00973114
1.8149
-0.00984916
1.81159
-0.00969448
1.80819
-0.0092585
1.8049
-0.00845192
1.80194
-0.00721656
1.79942
-0.00534199
1.79744
-0.00268883
1.79596
0.000895574
1.79601
0.00523535
1.79749
0.0103162
1.80081
0.0187675
1.80615
0.0229136
1.8132
0.0455648
1.82457
0.0353238
1.83614
0.0962366
1.85422
0.0662901
0.1531
2.10844
-0.00516277
-2.10989
2.10674
-0.00544481
2.10482
-0.0056241
2.10269
-0.00583769
2.10032
-0.0061273
2.09773
-0.00633031
2.09492
-0.00653031
2.09184
-0.00665351
2.08855
-0.00655312
2.08524
-0.00638862
2.0822
-0.00622057
2.07955
-0.00580448
2.07739
-0.00505656
2.07582
-0.00376488
2.07529
-0.00216189
2.07577
0.000414328
2.07773
0.00327947
2.08025
0.00779874
2.08585
0.0131618
2.09203
0.016736
2.10237
0.0352241
2.11678
0.0209156
2.13311
0.0799033
2.15808
0.041323
0.115418
2.42727
-0.00321027
-2.42922
2.42513
-0.003306
2.42292
-0.00341119
2.42054
-0.00345968
2.41797
-0.00355336
2.4151
-0.0034668
2.41166
-0.00309099
2.40791
-0.00289678
2.40476
-0.00340848
2.40275
-0.00437361
2.40141
-0.00488037
2.39992
-0.00431986
2.398
-0.00313304
2.39582
-0.00158562
2.39408
-0.000422634
2.39302
0.00147327
2.39407
0.00223261
2.39618
0.00569288
2.40248
0.00686117
2.40902
0.0101941
2.42295
0.0212917
2.43756
0.00630356
2.46119
0.0562797
2.48816
0.0143487
0.0714899
2.80189
-2.8051
2.79858
2.79517
2.79171
2.78816
2.78469
2.7816
2.77871
2.7753
2.77092
2.76604
2.76172
2.75859
2.757
2.75658
2.75806
2.76029
2.76598
2.77284
2.78304
2.80433
2.81063
2.86691
2.88126
0.420821
0.0664823
-0.406729
0.433876
0.14337
0.452916
0.215568
0.46604
0.286904
0.349049
0.474101
0.0539926
-0.461612
0.485806
0.131666
0.502126
0.199248
0.516277
0.272754
0.333254
0.534949
0.0443269
-0.525283
0.545746
0.120868
0.558124
0.18687
0.572507
0.258371
0.314759
0.60429
0.0367924
-0.596755
0.614261
0.110897
0.626177
0.174955
0.643316
0.241231
0.297922
0.68484
0.0309643
-0.679012
0.695431
0.100306
0.707632
0.162753
0.722914
0.225949
0.281424
0.778421
0.02559
-0.773047
0.787992
0.0907358
0.799113
0.151632
0.813839
0.211224
0.262974
0.886498
0.0209939
-0.881902
0.895117
0.0821169
0.906822
0.139927
0.922798
0.195248
0.243845
1.01055
0.0169561
-1.00651
1.01927
0.0733921
1.03185
0.127353
1.04862
0.178479
0.223705
1.15779
0.0130425
-1.15388
1.16642
0.0647695
1.17951
0.114256
1.19703
0.160964
0.202432
1.32281
0.00999904
-1.31977
1.33196
0.055623
1.34686
0.0993563
1.36713
0.140685
0.177359
1.52391
0.00654868
-1.52046
1.53345
0.0460861
1.54885
0.0839534
1.56979
0.11975
0.151598
1.74627
0.00423555
-1.74396
1.75682
0.0355356
1.77516
0.0656103
1.8009
0.0940165
0.119251
2.0195
0.00165904
-2.01693
2.03042
0.0246228
2.04947
0.0465587
2.07625
0.0672388
0.0856074
2.32094
0.000208182
-2.31949
2.33325
0.0123128
2.35587
0.0239473
2.38823
0.0348786
0.0446096
2.68935
-2.68914
2.70167
2.72561
2.76049
0.215186
0.245168
-0.213437
-0.246917
0.183134
0.230893
-0.198841
0.154446
0.216414
-0.187726
0.127382
0.205189
-0.178125
0.100492
0.195745
-0.168855
0.0750783
0.187047
-0.161633
0.0516244
0.179786
-0.156332
0.0289221
0.175594
-0.152891
0.00933226
0.169105
-0.149515
0.121179
-0.111846
0.167143
0.27352
-0.195494
0.140019
0.258017
0.113482
0.242951
0.0903215
0.228349
0.0697763
0.21629
0.0499011
0.206922
0.0309046
0.198783
0.0134047
0.193093
-0.000313046
0.182823
0.120865
0.105293
0.295269
-0.127042
0.0860946
0.277215
0.0683926
0.260653
0.0506261
0.246116
0.0340944
0.232822
0.0195106
0.221506
0.00627222
0.212021
-0.00469523
0.204061
-0.008787
0.186915
0.112078
0.0441841
0.310018
-0.0589335
0.0298694
0.29153
0.0166339
0.273888
0.00548284
0.257267
-0.00440407
0.242709
-0.0133753
0.230477
-0.0210749
0.219721
-0.0250207
0.208007
-0.0191122
0.181006
0.0929663
-0.0291369
0.022431
-0.034872
-0.039204
-0.0434718
-0.0475197
-0.0507474
-0.0516326
-0.0464748
-0.029051
0.341144
0.0364843
-0.388985
0.0113566
0.296019
0.0347216
0.0104029
0.253223
0.0332056
0.00959042
0.212535
0.0317791
0.00890939
0.173713
0.0304557
0.00836582
0.136355
0.0293853
0.00797337
0.100043
0.0286115
0.00769969
0.0643277
0.0281766
0.00753912
0.0283779
0.028429
0.0075207
0.0223852
0.00599273
0.334943
0.0840102
-0.382469
0.290072
0.0795923
0.247663
0.0756141
0.20746
0.0719821
0.169306
0.0686104
0.132822
0.0658692
0.0974421
0.0639914
0.062534
0.0630846
0.0273348
0.0636283
0.04972
0.319276
0.129439
-0.364705
0.276292
0.122576
0.235591
0.116314
0.196961
0.110612
0.159949
0.105623
0.124555
0.101263
0.090712
0.0978345
0.0577687
0.0960279
0.0251631
0.0962339
0.0748831
0.290387
0.173312
-0.33426
0.249743
0.16322
0.212269
0.153789
0.177436
0.145444
0.144394
0.138666
0.112072
0.133585
0.0808144
0.129092
0.0505448
0.126298
0.0214383
0.12534
0.0963214
0.25401
-0.294135
0.21839
0.184453
0.151772
0.121583
0.0935341
0.0662936
0.0396999
0.0155248
0.423483
0.422341
-0.428009
0.427923
0.33377
-0.33821
0.431432
0.194131
-0.197641
0.436676
0.0781355
-0.0833795
0.435344
0.00447239
-0.00314086
0.441715
-0.0304979
0.0241268
0.437082
-0.0330547
0.0376887
0.439589
-0.0451007
0.0425931
0.434618
-0.0340343
0.039006
0.433131
-0.0306233
0.0321101
0.425882
-0.0200301
0.0272785
0.420674
-0.0187265
0.0239343
0.411109
-0.0114659
0.0210311
0.401961
-0.0090279
0.0181758
-0.00246816
0.0154448
0.419693
0.420463
0.422014
0.331449
0.424865
0.191281
0.430189
0.0728121
0.429997
0.00466397
0.435464
-0.0359653
0.431882
-0.0294723
0.43402
-0.0472391
0.42883
-0.0288442
0.427063
-0.0288566
0.420176
-0.0131428
0.415097
-0.0136473
0.405157
-0.00152578
0.395401
0.000727521
0.0104647
0.414328
0.423951
0.413038
0.332739
0.41409
0.190229
0.418083
0.0688189
0.418021
0.00472567
0.421458
-0.0394024
0.417923
-0.0259373
0.419211
-0.0485265
0.412539
-0.0221725
0.409414
-0.0257311
0.402074
-0.00580352
0.396642
-0.00821451
0.386828
0.00828774
0.377732
0.00982379
0.0234914
0.407486
0.43428
0.401186
0.339039
0.399219
0.192196
0.400472
0.067566
0.399784
0.00541346
0.399695
-0.0393135
0.396424
-0.0226663
0.395335
-0.0474378
0.388085
-0.0149225
0.383751
-0.0213965
0.376703
0.00124444
0.369443
-0.00095491
0.358373
0.0193577
0.348138
0.0200588
0.0373696
0.399343
0.452752
0.386862
0.35152
0.380949
0.198108
0.378343
0.0701723
0.375582
0.00817517
0.371797
-0.0355288
0.366548
-0.0174173
0.362933
-0.0438225
0.353324
-0.00531397
0.345592
-0.0136638
0.337698
0.00913831
0.328907
0.0078353
0.316563
0.0317022
0.306149
0.0304723
0.0493839
0.372714
0.452774
0.372906
0.351328
0.372354
0.198661
0.371673
0.0708532
0.370028
0.0098202
0.368723
-0.0342245
0.365881
-0.0145745
0.364708
-0.0426502
0.360912
-0.00151796
0.35843
-0.0111817
0.357175
0.0103931
0.355341
0.00967002
0.356037
0.0310054
0.357769
0.0287406
0.0409823
0.366171
0.428328
0.452764
0.428621
0.351036
0.428345
0.198936
0.427571
0.0716267
0.426048
0.0113432
0.424167
-0.0323431
0.422954
-0.0133614
0.419135
-0.0388316
0.419029
-0.00141203
0.415249
-0.00740098
0.41666
0.0089815
0.414114
0.0122161
0.419329
0.0257909
0.420095
0.0279745
0.0321515
0.428926
0.492333
0.452618
0.492766
0.350603
0.492677
0.199025
0.491732
0.0725721
0.490917
0.0121577
0.488593
-0.0300188
0.488558
-0.0133269
0.483467
-0.0337407
0.485539
-0.00348438
0.482883
-0.00474422
0.484483
0.00738118
0.484059
0.0126401
0.489098
0.0207523
0.493428
0.0236439
0.0250853
0.500495
0.565887
0.452311
0.566563
0.349926
0.566867
0.198722
0.566042
0.0733965
0.565668
0.0125318
0.563048
-0.027399
0.564245
-0.0145231
0.559815
-0.0293111
0.562103
-0.00577196
0.561471
-0.00411249
0.563001
0.00585056
0.565333
0.0103082
0.569839
0.0162465
0.576026
0.0174571
0.0192035
0.581908
0.650537
0.451692
0.65154
0.348923
0.652258
0.198003
0.651627
0.0740276
0.652124
0.0120351
0.64975
-0.0250251
0.651708
-0.016481
0.648356
-0.0259585
0.651077
-0.00849337
0.652338
-0.00537365
0.654668
0.00352078
0.658318
0.00665784
0.66319
0.0113752
0.669121
0.011526
0.0134069
0.674918
0.747678
0.450846
0.749504
0.347096
0.751183
0.196325
0.751251
0.073959
0.752169
0.0111169
0.750689
-0.0235448
0.753104
-0.0188954
0.751811
-0.0246653
0.754765
-0.0114475
0.757313
-0.00792189
0.760422
0.00041131
0.764629
0.0024517
0.769661
0.00634292
0.775032
0.00615491
0.00794315
0.780496
0.859908
0.449134
0.862196
0.344808
0.864426
0.194095
0.865293
0.0730917
0.867784
0.00862639
0.867518
-0.0232792
0.870581
-0.0219582
0.870768
-0.0248523
0.874362
-0.0150422
0.877715
-0.0112746
0.881967
-0.00384106
0.886468
-0.00204894
0.891534
0.00127735
0.8964
0.00128874
0.00304663
0.901296
0.988487
0.446814
0.993293
0.340003
0.997982
0.189407
1.00055
0.0705249
1.00299
0.00618831
1.00425
-0.0245468
1.00775
-0.0254568
1.00962
-0.0267189
1.01367
-0.0190942
1.01735
-0.0149516
1.02171
-0.00819793
1.02577
-0.00611587
1.03032
-0.00326631
1.0344
-0.00279919
-0.00110146
1.03855
1.1373
0.442735
1.14265
0.334654
1.14778
0.184279
1.15213
0.0661718
1.1579
0.000420071
1.16105
-0.027699
1.16559
-0.0299934
1.16863
-0.0297616
1.17309
-0.023555
1.17711
-0.0189755
1.18167
-0.0127554
1.18573
-0.0101755
1.19
-0.00753339
1.19364
-0.00644047
-0.00470479
1.19724
1.30948
0.435459
1.32134
0.322798
1.33167
0.17395
1.33847
0.05937
1.34288
-0.00399
1.34709
-0.0319103
1.35171
-0.0346186
1.35527
-0.0333166
1.35949
-0.0277746
1.363
-0.0224868
1.3667
-0.0164533
1.36978
-0.0132549
1.37284
-0.0105937
1.37532
-0.00891876
-0.00710658
1.37772
1.50723
0.424616
1.52092
0.309105
1.53312
0.161748
1.5439
0.04859
1.55356
-0.0136517
1.56015
-0.0384974
1.5659
-0.0403706
1.5702
-0.0376134
1.57426
-0.0318339
1.57775
-0.0259743
1.58109
-0.0197946
1.58389
-0.0160554
1.58646
-0.0131685
1.5886
-0.0110513
-0.00903563
1.59053
1.74401
0.400128
1.77085
0.282259
1.79027
0.142332
1.80188
0.0369785
1.80963
-0.0213972
1.8152
-0.0440696
1.81983
-0.0450017
1.82272
-0.0404993
1.82534
-0.0344591
1.82705
-0.0276852
1.82865
-0.0213879
1.82964
-0.0170495
1.83061
-0.014134
1.83115
-0.0115978
-0.00956731
1.83168
2.02157
0.354484
2.06334
0.240492
2.09155
0.114122
2.11106
0.0174684
2.12145
-0.0317902
2.12635
-0.0489612
2.12811
-0.0467665
2.12837
-0.0407537
2.12786
-0.0339573
2.12721
-0.0270356
2.12654
-0.0207147
2.12591
-0.0164209
2.12527
-0.0134878
2.12466
-0.0109939
-0.00905675
2.12415
2.35393
0.271125
2.41717
0.177252
2.4558
0.0754937
2.47162
0.00164882
2.47774
-0.0379065
2.47723
-0.0484571
2.47509
-0.0446267
2.47141
-0.0370668
2.46711
-0.0296576
2.46293
-0.022862
2.45957
-0.0173549
2.45651
-0.0133619
2.45371
-0.0106858
2.45121
-0.00849614
-0.00687593
2.44903
2.88028
3.05753
3.13303
3.13467
3.09677
3.04831
3.00368
2.96662
2.93696
2.9141
2.89674
2.88338
2.87269
2.8642
2.85732
0.371272
-0.252018
0.377772
-0.201994
0.385814
-0.135084
0.395835
-0.0689546
0.0115369
0.434596
-0.257688
0.439961
-0.20736
0.44464
-0.139763
0.452689
-0.0770029
0.00261391
0.50368
-0.260873
0.506232
-0.209912
0.510165
-0.143696
0.516656
-0.0834935
-0.00601392
0.582976
-0.261941
0.583547
-0.210483
0.586433
-0.146583
0.589896
-0.086956
-0.0128733
0.672298
-0.259322
0.670377
-0.208562
0.671664
-0.14787
0.672973
-0.0882651
-0.0189123
0.774338
-0.253164
0.769887
-0.204111
0.768916
-0.146899
0.768791
-0.0881409
-0.0231681
0.891609
-0.243477
0.884363
-0.196866
0.880655
-0.14319
0.87912
-0.0866064
-0.0259501
1.02524
-0.230165
1.01492
-0.186542
1.00841
-0.136683
1.00523
-0.0834253
-0.027234
1.18038
-0.213298
1.16711
-0.173275
1.15815
-0.127719
1.15353
-0.0788076
-0.0275877
1.35659
-0.192169
1.33962
-0.156302
1.32756
-0.115663
1.32095
-0.0721953
-0.0264059
1.56541
-0.167051
1.54526
-0.136151
1.53079
-0.101196
1.52226
-0.0636666
-0.0246069
1.80116
-0.136529
1.77634
-0.111331
1.75831
-0.0831615
1.74746
-0.0528219
-0.021099
2.0875
-0.0998766
2.05768
-0.0815153
2.03546
-0.0609346
2.02167
-0.0390338
-0.0163583
2.40515
-0.0559958
2.36934
-0.0457071
2.34273
-0.0343172
2.32601
-0.0223129
-0.00984531
2.80133
2.75562
2.7213
2.69899
0.0101286
-0.00117026
-0.00895833
0.0104721
-0.000343472
0.00182699
0.00864507
-0.0201495
0.0219765
0.0315882
-0.0517377
0.00753468
0.0111518
-0.0198568
-0.0194509
0.0266421
-0.0663525
0.0555466
-0.117184
0.0728084
0.0678602
-0.153456
-0.0235044
0.0471688
-0.0125126
-0.08068
0.0838177
-0.139629
0.114496
-0.178502
0.111682
0.0869593
-0.197602
-0.0719468
0.105564
0.0135514
-0.140483
0.152354
-0.188441
0.162453
-0.209035
0.132276
0.0955482
-0.217624
-0.125234
0.178046
0.0527531
-0.187522
0.214642
-0.216025
0.190956
-0.226617
0.142869
0.100261
-0.23133
-0.175037
0.251492
0.101591
-0.219851
0.259456
-0.233149
0.204254
-0.241965
0.151684
0.102628
-0.244332
-0.216296
0.316154
0.151633
-0.241244
0.284404
-0.248594
0.211604
-0.258463
0.161553
0.102718
-0.258552
-0.248769
0.363414
0.201509
-0.255854
0.29149
-0.267245
0.222994
-0.275354
0.169662
0.101821
-0.274457
-0.26491
0.383079
0.245246
-0.272223
0.298802
-0.288668
0.23944
-0.292443
0.173436
0.102336
-0.292958
-0.280055
0.27703
0.386104
-0.29538
0.314127
-0.306628
0.250688
-0.31107
0.177878
0.10326
-0.311994
0.0276278
-0.0294542
0.038781
-0.0111531
0.0303913
0.00838963
0.0158953
0.014496
0.00693699
0.0366375
-0.0674016
0.0559187
-0.0304344
0.0519584
0.01235
0.0342786
0.0321758
0.0213589
0.0368037
-0.10406
0.0555312
-0.0491618
0.0519889
0.0158922
0.0341733
0.0499913
0.0430196
0.0359821
-0.138417
0.0500975
-0.0632772
0.0418279
0.0241618
0.020849
0.0709702
0.07742
0.0338832
-0.169097
0.0414962
-0.0708902
0.0255429
0.0401151
-0.00278342
0.0992966
0.12739
0.0298103
-0.194157
0.0304406
-0.0715205
0.00671242
0.0638433
-0.0357009
0.14171
0.19328
0.0231936
-0.211049
0.0135627
-0.0618896
-0.0251009
0.102507
-0.0799343
0.196543
0.264979
0.0132956
-0.216986
-0.00342679
-0.0451673
-0.0533938
0.152474
-0.124185
0.267335
0.342302
-0.00181839
-0.207333
-0.0331217
-0.013864
-0.0990454
0.218398
-0.180019
0.348308
0.40753
-0.0216761
-0.177425
-0.0709523
0.0354123
-0.154528
0.301973
-0.231119
0.4249
0.453441
-0.0533513
-0.114652
-0.0827206
0.0647816
-0.0833357
0.302588
-0.071316
0.41288
0.426041
-0.0439162
-0.0761403
-0.0316351
-0.125433
0.114075
-0.129938
0.307092
-0.106153
0.389096
0.38696
-0.0670726
-0.0858996
0.0610137
-0.148413
0.176588
-0.159705
0.318384
-0.133454
0.362845
0.342682
-0.0891755
-0.0830049
0.151212
-0.146112
0.239695
-0.1591
0.331372
-0.138896
0.342641
0.305331
-0.101545
-0.0685322
0.227875
-0.121816
0.292978
-0.134185
0.343741
-0.123708
0.332164
0.285553
-0.10393
-0.0512748
0.287623
-0.0910766
0.33278
-0.103666
0.356331
-0.102767
0.331264
0.281154
-0.0983676
-0.0362525
0.332209
-0.0648527
0.36138
-0.076329
0.367807
-0.0824842
0.33742
0.287277
-0.0886074
-0.0258735
0.365661
-0.0460753
0.381582
-0.0554814
0.377213
-0.0648234
0.346762
0.298823
-0.0763698
-0.0188341
0.390438
-0.0333514
0.3961
-0.0410416
0.384904
-0.0504429
0.356163
0.311498
-0.0631177
-0.0138995
0.408127
-0.0246244
0.406824
-0.0312634
0.391543
-0.0396572
0.364557
0.323218
-0.0513769
-0.0105286
0.420145
-0.0184823
0.414778
-0.0244131
0.397473
-0.0316115
0.371755
0.333323
-0.041717
-0.00880755
0.427898
-0.0145449
0.420515
-0.0196476
0.402576
-0.0255494
0.377657
0.341834
-0.0340597
-0.00895913
0.432592
-0.012819
0.424375
-0.0169634
0.406721
-0.0217625
0.382456
0.348937
-0.028866
-0.0108562
0.435223
-0.0132667
0.426786
-0.016389
0.409843
-0.0202919
0.386359
0.354944
-0.0262984
-0.0143303
0.436445
-0.0156474
0.428103
-0.0178453
0.412041
-0.0210465
0.38956
0.360144
-0.0262473
-0.0192646
0.436685
-0.0197609
0.428599
-0.021205
0.413485
-0.0238725
0.392227
0.364801
-0.0285289
-0.0259188
0.436203
-0.0257927
0.428473
-0.026676
0.414368
-0.0289782
0.39453
0.369162
-0.0333395
-0.0340763
0.435168
-0.0334594
0.427856
-0.0339164
0.414825
-0.035954
0.396567
0.373383
-0.0401752
-0.0455824
0.43366
-0.0445746
0.426848
-0.0447479
0.414999
-0.0466834
0.398503
0.377687
-0.0509869
-0.0569257
0.431811
-0.0556199
0.425543
-0.0555755
0.414954
-0.0574298
0.400357
0.382067
-0.0618095
-0.0796647
0.429527
-0.0780675
0.423945
-0.0779233
0.41481
-0.079933
0.402367
0.386898
-0.0847643
-0.0892966
0.427093
-0.0875892
0.422238
-0.0874155
0.414636
-0.0895202
0.404471
0.391982
-0.0946042
-0.140534
0.424235
-0.138655
0.420358
-0.138604
0.414586
-0.141184
0.407052
0.397936
-0.147139
-0.140822
0.421181
-0.138865
0.418401
-0.138919
0.41464
-0.141853
0.409985
0.404547
-0.148463
-0.230082
-0.228396
-0.229153
-0.233221
-0.241361
-0.0262776
0.468373
-0.486011
-0.0144422
0.515452
-0.527288
-0.00772223
0.576211
-0.582931
-0.00269629
0.642709
-0.647735
0.000368362
0.718356
-0.721421
0.00255895
0.805698
-0.807889
0.0041346
0.906898
-0.908474
0.0050508
1.0236
-1.02452
0.00572655
1.15918
-1.15986
0.00590247
1.31246
-1.31263
0.0058883
1.49317
-1.49315
0.00536992
1.69496
-1.69444
0.00429247
1.93222
-1.93114
0.00254031
2.2025
-2.20075
2.51467
-2.51213
-0.0476437
0.448944
-0.0323566
0.500165
-0.0218944
0.565749
-0.0127071
0.633522
-0.00640911
0.712058
-0.00222252
0.801512
0.000892665
0.903783
0.00289311
1.0216
0.00437671
1.1577
0.00503619
1.3118
0.00533193
1.49287
0.00500046
1.69529
0.00404296
1.93318
0.00248052
2.20406
2.51715
-0.066195
0.425963
-0.0500068
0.483977
-0.0360971
0.551839
-0.0238447
0.62127
-0.0147761
0.70299
-0.00812175
0.794857
-0.00326318
0.898924
-5.8539e-05
1.0184
0.00244404
1.15519
0.00362924
1.31061
0.00438156
1.49212
0.00427913
1.69539
0.00360738
1.93385
0.00225603
2.20542
2.51941
-0.0797827
0.404201
-0.0631591
0.467353
-0.0470427
0.535723
-0.0333411
0.607568
-0.0227044
0.692353
-0.0140695
0.786222
-0.00769061
0.892545
-0.00316026
1.01387
0.000212651
1.15182
0.00194096
1.30888
0.00329507
1.49077
0.00351253
1.69517
0.00316865
1.93419
0.00191024
2.20667
2.52132
-0.0866735
0.386944
-0.0701225
0.450802
-0.0539733
0.519574
-0.0404881
0.594083
-0.0289696
0.680834
-0.019399
0.776652
-0.0119866
0.885133
-0.00644091
1.00832
-0.00232601
1.14771
7.75196e-05
1.30648
0.00213114
1.48871
0.00267082
1.69463
0.00268307
1.93418
0.00151742
2.20784
2.52284
-0.086106
0.374683
-0.0716705
0.436367
-0.0570407
0.504944
-0.0448155
0.581858
-0.0334442
0.669463
-0.0238325
0.76704
-0.0159641
0.877265
-0.00974924
1.00211
-0.00497526
1.14293
-0.00179047
1.3033
0.000691618
1.48623
0.00155316
1.69377
0.0020301
1.9337
0.00083142
2.20904
2.52367
-0.0804792
0.366555
-0.0693978
0.425285
-0.0575352
0.493081
-0.0469411
0.571263
-0.0363945
0.658916
-0.0272238
0.757869
-0.0193326
0.869373
-0.012809
0.995584
-0.00761599
1.13774
-0.00386374
1.29954
-0.000975234
1.48334
0.000327473
1.69247
0.001281
1.93275
6.64277e-05
2.21025
2.52374
-0.0712804
0.361465
-0.0638505
0.417856
-0.0555122
0.484743
-0.0470212
0.562772
-0.0380099
0.649905
-0.0296667
0.749526
-0.0220898
0.861796
-0.0155634
0.989058
-0.0101856
1.13236
-0.00605768
1.29542
-0.00281856
1.4801
-0.000947685
1.6906
0.000360175
1.93144
-9.2679e-05
2.21071
2.52364
-0.0603191
0.358667
-0.0560573
0.413594
-0.0508964
0.479582
-0.0448574
0.556733
-0.038096
0.643144
-0.0311759
0.742606
-0.0244141
0.855035
-0.0182235
0.982867
-0.0128468
1.12698
-0.00849394
1.29106
-0.00492907
1.47654
-0.00255321
1.68822
-0.000847378
1.92974
0.000383325
2.20947
2.52403
-0.0502774
0.357567
-0.0484958
0.411812
-0.0457402
0.476826
-0.0417431
0.552736
-0.0370514
0.638452
-0.0317276
0.737282
-0.0261281
0.849435
-0.0205862
0.977325
-0.0154313
1.12183
-0.0110093
1.28664
-0.00714517
1.47267
-0.00435508
1.68543
-0.00208353
1.92746
0.000711868
2.20668
2.52474
-0.0418804
0.357731
-0.0418127
0.411745