/*--------------------------------*- C++ -*----------------------------------*\
| =========                 |                                                 |
| \\      /  F ield         | OpenFOAM: The Open Source CFD Toolbox           |
|  \\    /   O peration     | Version:  2312                                  |
|   \\  /    A nd           | Website:  www.openfoam.com                      |
|    \\/     M anipulation  |                                                 |
\*---------------------------------------------------------------------------*/
FoamFile
{
    version     2.0;
    format      ascii;
    arch        "LSB;label=32;scalar=64";
    class       surfaceScalarField;
    location    "68";
    object      phi;
}
// * * * * * * * * * * * * * * * * * * * * * * * * * * * * * * * * * * * * * //

dimensions      [0 3 -1 0 0 0 0];

oriented        oriented;

internalField   nonuniform List<scalar> 
4490
(
0.000615425
0.0099797
-0.0105951
0.0136012
0.00287436
-0.0158602
0.0498594
-0.0323932
-0.00386501
0.108396
-0.0838705
0.0253341
0.178449
-0.138304
0.0682508
0.247856
-0.187475
0.118068
0.304585
-0.225435
0.168706
0.344014
-0.252702
0.213274
0.363913
-0.268338
0.248438
-0.278482
0.274587
0.367808
0.00145049
0.00852921
0.0298834
-0.0255586
0.0869059
-0.0894156
0.153044
-0.150009
0.211468
-0.196728
0.251867
-0.227873
0.273892
-0.24746
0.282317
-0.261128
0.289277
-0.275298
-0.292735
0.30353
0.00962916
-0.00109995
0.0571222
-0.0730516
0.115144
-0.147437
0.161328
-0.196193
0.188178
-0.223578
0.200511
-0.240206
0.207878
-0.254827
0.218343
-0.271593
0.233748
-0.290704
-0.30889
0.249904
0.0225545
-0.0236545
0.0733782
-0.123875
0.1116
-0.185659
0.131523
-0.216116
0.14148
-0.233535
0.149766
-0.248492
0.159156
-0.264217
0.168538
-0.280975
0.176003
-0.298168
-0.314625
0.181738
0.0319432
-0.0555977
0.0681197
-0.160052
0.0868155
-0.204355
0.0949867
-0.224288
0.0996609
-0.238209
0.102364
-0.251195
0.103358
-0.265212
0.103642
-0.281259
0.104365
-0.298891
0.107144
-0.317404
-0.00773831
0.0245928
-0.0168545
-0.0213843
0.0332045
-0.0195585
-0.0376455
0.0314598
-0.0151985
-0.0551237
0.0263549
-0.00887673
-0.0730309
0.0172973
0.000609858
-0.0884503
0.00164621
0.0137732
-0.101967
-0.0188635
0.0323799
-0.108715
-0.0487473
0.0554958
-0.111978
-0.0784732
0.081736
-0.114725
-0.107727
0.110474
-0.0014395
0.0260323
-0.00695712
0.0387221
-0.0141923
0.0386949
-0.0215115
0.0336741
-0.0283211
0.024107
-0.033849
0.00717404
-0.0354172
-0.0172953
-0.032522
-0.0516424
-0.0253015
-0.0856937
-0.121908
-0.0181185
0.00472549
0.0213068
0.00869372
0.0347539
0.0127771
0.0346115
0.0188789
0.0275723
0.0296494
0.0133365
0.0459376
-0.0091141
0.0720764
-0.0434341
0.106729
-0.0862954
0.146439
-0.125403
-0.165791
0.190322
0.00672339
0.0145834
0.0161078
0.0253695
0.0280067
0.0227126
0.0456504
0.00992859
0.0749837
-0.0159967
0.117889
-0.0520199
0.172837
-0.0983812
0.235649
-0.149108
0.302741
-0.192495
-0.231864
0.368814
0.00398828
0.0134976
0.0323452
0.0676078
0.119862
0.18591
0.256235
0.320401
0.376344
0.419067
-0.0929385
-0.189182
0.174393
-0.0617234
-0.217694
0.186479
-0.0206823
-0.213709
0.172668
0.0467098
-0.163113
0.095721
0.135837
-0.0485582
-0.0405686
0.253073
0.143353
-0.26059
0.347003
0.279189
-0.373119
0.327649
0.415379
-0.396025
0.252742
0.554904
-0.479997
0.272999
0.3339
-0.354156
0.346539
-0.0228441
-0.0506967
0.366128
-0.234
0.214412
0.357405
-0.456697
0.465419
0.393018
-0.502532
0.466919
0.471259
-0.395767
0.317526
0.51399
-0.173672
0.13094
0.500652
0.611985
-0.598647
0.483917
1.076
-1.05926
0.443082
0.224337
-0.183502
0.420851
-0.715373
0.737603
0.451471
-0.518052
0.487433
0.453016
0.360574
-0.362119
0.414037
0.20304
-0.164062
0.367529
-0.325801
0.372309
-0.111605
0.132981
-0.0497635
-0.157537
-0.0692755
-0.198182
-0.0735947
-0.20939
-0.0467994
-0.189908
0.0248761
-0.120234
0.154397
0.0138326
0.263183
0.170403
0.268309
0.410253
0.248878
0.574334
0.300846
0.281931
0.375807
-0.0978054
0.394225
-0.252418
0.37476
-0.437232
0.390788
-0.518561
0.442481
-0.447459
0.483181
-0.214372
0.499665
0.595501
0.505859
1.0698
0.455193
0.275003
0.419699
-0.679878
0.447027
-0.54538
0.453515
0.354085
0.416231
0.240324
0.366425
-0.275994
-0.0889161
0.145061
-0.112276
0.0875423
-0.140663
0.0258205
-0.147668
-0.0131906
-0.150897
0.00160616
-0.135031
0.0868681
-0.0714294
0.184551
0.0727196
0.239159
0.355645
0.281652
0.531841
0.334947
0.228636
0.389115
-0.151973
0.412007
-0.27531
0.382548
-0.407773
0.377366
-0.513378
0.400999
-0.471092
0.438821
-0.252193
0.482845
0.551477
0.505299
1.04735
0.457329
0.322973
0.412629
-0.635179
0.435567
-0.568318
0.44726
0.342392
0.413968
0.273616
0.363386
-0.225412
-0.0662842
0.339818
-0.0832796
0.294644
-0.0954897
0.242809
-0.0958324
0.174739
-0.0828276
0.11327
-0.073561
0.113044
-0.0712039
0.177595
0.00816864
0.26657
0.26667
0.348026
0.450385
0.372545
0.204117
0.377864
-0.157293
0.37945
-0.276895
0.341984
-0.370307
0.331364
-0.502758
0.345171
-0.4849
0.383054
-0.290076
0.470278
0.464253
0.50647
1.01116
0.452546
0.376897
0.396352
-0.578985
0.415257
-0.587223
0.435862
0.321787
0.408092
0.301386
0.358492
-0.175812
-0.0451759
0.389434
-0.0536464
0.355555
-0.0616112
0.331792
-0.0720695
0.313373
-0.0644087
0.272219
-0.0324066
0.226514
-0.0254987
0.22243
0.0122528
0.28712
0.20198
0.376092
0.361414
0.414362
0.165848
0.396538
-0.139469
0.367359
-0.247717
0.317799
-0.320748
0.28118
-0.466138
0.287412
-0.491132
0.324241
-0.326906
0.42629
0.362205
0.47612
0.961329
0.431868
0.421149
0.379834
-0.526951
0.391791
-0.59918
0.418118
0.295461
0.398581
0.320923
0.352491
-0.129722
-0.0269508
0.446245
-0.0313685
-0.468523
0.421582
-0.0369484
0.399867
-0.0503541
0.379861
-0.0444031
0.362822
-0.0153672
0.333248
0.00407523
0.288785
0.0567156
0.290046
0.200719
0.377544
0.273915
0.467039
0.0763532
0.478297
-0.150727
0.451058
-0.220478
0.421798
-0.291488
0.370466
-0.414807
0.332106
-0.452771
0.306186
-0.300987
0.32306
0.345331
0.378008
0.906381
0.417599
0.381558
0.399004
-0.508356
0.37153
-0.571706
0.371871
0.295119
0.361089
0.331705
0.318436
-0.0870693
-0.00557092
0.492814
-0.0135363
-0.510647
0.473844
-0.0179782
0.455152
-0.0316615
0.432742
-0.0219931
0.421712
-0.0043372
0.417618
0.00816915
0.409969
0.0643644
0.451961
0.158727
0.535193
0.190684
0.57436
0.0371857
0.549953
-0.126319
0.504642
-0.175167
0.471508
-0.258354
0.411739
-0.355037
0.343235
-0.384267
0.320793
-0.278545
0.354943
0.311181
0.426811
0.834513
0.484778
0.323591
0.461329
-0.484908
0.416538
-0.526915
0.415498
0.296159
0.410883
0.33632
0.364969
-0.0411556
0.0181005
0.561681
-0.000318052
-0.574899
0.547205
-0.00350227
0.530495
-0.0149519
0.514273
-0.0057707
0.505757
0.00417891
0.497449
0.0164767
0.505847
0.0559665
0.562202
0.102372
0.628599
0.124287
0.647308
0.0184766
0.618417
-0.0974281
0.576901
-0.133651
0.545616
-0.227069
0.479037
-0.288458
0.363247
-0.268477
0.29818
-0.213478
0.349246
0.260114
0.476421
0.707338
0.56411
0.235902
0.531453
-0.45225
0.467283
-0.462745
0.467068
0.296375
0.472225
0.331163
0.42203
0.00903867
0.0443342
0.640063
0.00906083
-0.649442
0.629048
0.00751288
0.61538
-0.00128388
0.603923
0.00568634
0.5992
0.00890114
0.595812
0.0198653
0.607651
0.0441274
0.651561
0.0584623
0.697972
0.0778755
0.708696
0.00775337
0.683059
-0.0717919
0.642509
-0.0931012
0.600163
-0.184723
0.543842
-0.232138
0.431417
-0.156052
0.316038
-0.0980986
0.367235
0.208917
0.556291
0.518282
0.664959
0.127234
0.608799
-0.39609
0.516633
-0.370579
0.519912
0.293095
0.537248
0.313827
0.490308
0.0559789
0.068295
0.730643
0.0141026
-0.735685
0.724269
0.0138866
0.715256
0.00772916
0.70856
0.0123824
0.704897
0.0125641
0.705068
0.0196949
0.716157
0.0330385
0.741754
0.0328649
0.772881
0.0467482
0.780522
0.000112783
0.761015
-0.0522853
0.738371
-0.0704569
0.692326
-0.138678
0.623721
-0.163533
0.552858
-0.0851886
0.469556
-0.0147963
0.504022
0.174452
0.68124
0.341064
0.773163
0.0353104
0.686947
-0.309873
0.550934
-0.234566
0.549255
0.294774
0.597181
0.265901
0.584311
0.0688488
0.076423
0.834117
0.0165931
-0.836608
0.831139
0.0168646
0.826254
0.0126145
0.822977
0.0156588
0.821522
0.0140198
0.823292
0.0179246
0.831971
0.024359
0.846488
0.0183481
0.865336
0.0279007
0.869993
-0.00454426
0.851822
-0.0341145
0.827159
-0.0457935
0.78802
-0.0995387
0.727955
-0.103468
0.691854
-0.049088
0.672571
0.00448727
0.712681
0.134342
0.828144
0.2256
0.872506
-0.00905083
0.762348
-0.199716
0.607633
-0.0798506
0.615575
0.286832
0.688348
0.193128
0.709798
0.0473981
0.0631618
0.954728
0.0174601
-0.955595
0.95401
0.0175835
0.951421
0.0152028
0.950929
0.0161507
0.950012
0.0149374
0.952484
0.0154523
0.9583
0.0185427
0.96473
0.0119182
0.976728
0.0159031
0.975663
-0.00347966
0.964759
-0.0232099
0.948692
-0.0297271
0.914377
-0.0652236
0.869694
-0.0587855
0.84486
-0.0242542
0.844213
0.00513504
0.890623
0.0879313
0.96481
0.151414
0.976441
-0.0206827
0.884721
-0.107995
0.774707
0.0301632
0.80516
0.256379
0.865694
0.132595
0.884586
0.0285054
0.046779
1.09727
0.0172109
-1.09702
1.09771
0.0171446
1.09705
0.0158593
1.0974
0.0158066
1.09763
0.0147071
1.09919
0.0138874
1.1032
0.0145304
1.10573
0.00939028
1.11167
0.00996556
1.10926
-0.0010752
1.09935
-0.0132922
1.08517
-0.015553
1.05839
-0.0384439
1.02893
-0.0293179
1.01684
-0.0121675
1.01492
0.0070566
1.05113
0.0517162
1.10048
0.102061
1.09379
-0.0139901
1.03194
-0.0461395
0.990576
0.0715235
1.04913
0.19782
1.0856
0.0961316
1.08307
0.0310354
0.0413606
1.2614
0.0160489
-1.26024
1.26262
0.0159274
1.26307
0.0154047
1.264
0.0148821
1.26458
0.0141216
1.2656
0.0128691
1.26782
0.0123081
1.26817
0.0090455
1.27096
0.00717288
1.26777
0.00211403
1.26104
-0.00655987
1.25184
-0.00635512
1.23331
-0.019916
1.21529
-0.0112952
1.20851
-0.0053904
1.20172
0.0138517
1.22623
0.0272005
1.26307
0.0652272
1.2477
0.00137606
1.21055
-0.00899273
1.21151
0.0705701
1.27271
0.136621
1.29256
0.0762781
1.2802
0.0433921
0.0407161
1.45605
0.014148
-1.45415
1.45789
0.0140837
1.45945
0.0138483
1.46089
0.013439
1.46226
0.0127515
1.4632
0.0119298
1.46475
0.0107622
1.46456
0.00923606
1.46497
0.00676612
1.46184
0.00524435
1.45646
-0.00118159
1.44899
0.00111231
1.43797
-0.00889178
1.42622
0.000449908
1.42291
-0.00207804
1.42066
0.0160994
1.43258
0.0152772
1.45521
0.0426045
1.44441
0.01217
1.42807
0.00735416
1.4388
0.0598312
1.48471
0.0907149
1.50116
0.0598321
1.49373
0.0508161
0.0405357
1.68156
0.0119067
-1.67932
1.68366
0.0119805
1.68562
0.0118928
1.68735
0.0117077
1.68902
0.0110799
1.69018
0.0107675
1.69157
0.00937095
1.69167
0.00913941
1.69217
0.00627094
1.69047
0.00694151
1.68809
0.00120077
1.68402
0.00517567
1.67824
-0.00311204
1.67212
0.00657076
1.67085
-0.000801545
1.67035
0.0165958
1.67585
0.00978174
1.69128
0.027169
1.68552
0.0179309
1.68146
0.0114115
1.69255
0.048741
1.72294
0.060326
1.73919
0.0435841
1.7386
0.0514093
0.0375201
1.95667
0.00944394
-1.95421
1.95902
0.00962959
1.96142
0.00949849
1.9635
0.00962692
1.9656
0.00897558
1.96713
0.00924213
1.96873
0.007769
1.96932
0.00854868
1.96991
0.00567837
1.96907
0.00777926
1.96761
0.00266335
1.96533
0.00745806
1.96217
4.69996e-05
1.96004
0.00869831
1.95797
0.00126919
1.96162
0.0129435
1.9623
0.00910792
1.97344
0.0160304
1.97189
0.0194755
1.97305
0.0102488
1.98686
0.0349301
2.00594
0.0412472
2.02105
0.0284755
2.02909
0.0433725
0.0331951
2.30511
0.00668041
-2.30235
2.30775
0.00699437
2.31048
0.00676202
2.31294
0.0071711
2.31556
0.00635481
2.31763
0.00716974
2.32003
0.00536577
2.32146
0.00712821
2.32346
0.00367537
2.32406
0.00717759
2.32526
0.00146428
2.32534
0.00738079
2.32543
-4.501e-05
2.32663
0.0074955
2.32571
0.00218873
2.33136
0.00729218
2.33068
0.00978563
2.34034
0.00637604
2.34241
0.0174074
2.34479
0.00786508
2.35955
0.0201758
2.37141
0.0293867
2.38456
0.0153183
2.39851
0.0294263
0.0253509
2.70498
0.00337956
-2.70168
2.70814
0.00383382
2.71151
0.00340094
2.71462
0.00405798
2.71778
0.00318991
2.72078
0.00417365
2.72342
0.00272679
2.7264
0.00414774
2.728
0.00207045
2.73127
0.00390912
2.73126
0.00147585
2.73524
0.00339971
2.73374
0.00145475
2.73868
0.00256131
2.73806
0.00280433
2.74346
0.00189709
2.74772
0.0055241
2.75123
0.00286781
2.76147
0.00716294
2.76301
0.0063225
2.77624
0.00695298
2.79141
0.0142115
2.799
0.00773042
2.81629
0.0121316
0.012985
3.4158
-3.41242
3.41963
3.42303
3.42709
3.43028
3.43446
3.43718
3.44133
3.4434
3.44731
3.44879
3.45219
3.45364
3.4562
3.45901
3.4609
3.46643
3.4693
3.47646
3.48278
3.48973
3.50395
3.51168
3.52381
0.420429
0.0970886
-0.410374
0.433994
0.168174
0.445389
0.238508
0.450011
0.298909
0.349296
0.476478
0.0858403
-0.46523
0.483169
0.161482
0.498718
0.22296
0.501033
0.296593
0.339683
0.538904
0.075379
-0.528442
0.543207
0.15718
0.555
0.211167
0.565115
0.286478
0.329898
0.608183
0.0681166
-0.600921
0.61559
0.149773
0.624842
0.201915
0.640146
0.271174
0.320602
0.690563
0.0634759
-0.685922
0.701494
0.138842
0.709338
0.19407
0.723515
0.256997
0.308433
0.788194
0.0594882
-0.784206
0.798778
0.128257
0.807215
0.185634
0.821053
0.243159
0.292879
0.903104
0.0556064
-0.899222
0.913137
0.118224
0.923911
0.174859
0.938734
0.228337
0.276017
1.03809
0.0506291
-1.03311
1.04828
0.108034
1.06133
0.161815
1.0777
0.211965
0.256694
1.19411
0.0451414
-1.18862
1.20458
0.0975642
1.21925
0.14714
1.23799
0.193224
0.23445
1.37827
0.0392712
-1.3724
1.38996
0.0858715
1.40675
0.130355
1.42828
0.171686
0.208583
1.59596
0.0328564
-1.58955
1.60856
0.0732777
1.62692
0.111989
1.65062
0.147989
0.179885
1.85612
0.0262614
-1.84953
1.87038
0.0590186
1.89189
0.0904753
1.92021
0.119671
0.14589
2.19135
0.0185711
-2.18366
2.20764
0.0427295
2.23198
0.0661279
2.26391
0.0877415
0.107456
2.56665
0.0100912
-2.55817
2.58591
0.0234768
2.61524
0.0367916
2.65427
0.0487182
0.0600392
3.24339
-3.2333
3.26687
3.30366
3.35238
0.194923
0.260934
-0.235128
-0.22073
0.166123
0.248088
-0.219288
0.137387
0.233624
-0.204887
0.111029
0.220627
-0.194269
0.0871705
0.210054
-0.186196
0.0647223
0.201128
-0.17868
0.0433266
0.193417
-0.172021
0.0227194
0.188977
-0.16837
0.00549522
0.181371
-0.164147
0.126741
-0.121245
0.137594
0.2873
-0.163959
0.115069
0.270613
0.0939146
0.254778
0.0743049
0.240237
0.0557219
0.228637
0.0378573
0.218992
0.0212284
0.210046
0.00655608
0.203649
-0.00359302
0.191521
0.123148
0.0791795
0.304153
-0.0960329
0.0625296
0.287263
0.0467617
0.270546
0.0319805
0.255018
0.0187899
0.241828
0.00702251
0.23076
-0.00405299
0.221122
-0.0126615
0.212258
-0.0128653
0.191724
0.110282
0.0138932
0.31592
-0.0256607
0.00394239
0.297214
-0.0051435
0.279632
-0.0132528
0.263128
-0.0205293
0.249104
-0.0269867
0.237217
-0.0320901
0.226225
-0.0328431
0.213011
-0.0230265
0.181908
0.0872557
-0.0556353
0.0541518
-0.0573131
-0.05894
-0.061024
-0.063115
-0.0641072
-0.0621699
-0.0535141
-0.031658
0.33915
0.065692
-0.387242
-0.0175997
0.293998
0.061804
-0.0166521
0.251311
0.0585767
-0.0158894
0.21072
0.0558364
-0.0152453
0.171911
0.0535169
-0.0147084
0.13458
0.0516683
-0.0143369
0.0984435
0.0502758
-0.0141394
0.0631059
0.0494716
-0.0141341
0.0277233
0.0497431
-0.0143605
0.0392673
-0.0115439
0.328051
0.112636
-0.374995
0.283846
0.106009
0.242319
0.100104
0.20339
0.094765
0.166456
0.0904504
0.130663
0.0874619
0.0956476
0.085291
0.0611293
0.08399
0.0265989
0.0842735
0.0658661
0.306614
0.156304
-0.350282
0.264817
0.147806
0.224649
0.140273
0.18658
0.132834
0.151457
0.125573
0.118574
0.120344
0.0866542
0.117211
0.0550746
0.11557
0.0239136
0.115435
0.0897797
0.273099
0.196893
-0.313689
0.236295
0.18461
0.202259
0.17431
0.168311
0.166781
0.134782
0.159103
0.103496
0.15163
0.0744144
0.146293
0.046063
0.143921
0.0190406
0.142457
0.10882
0.231179
-0.269414
0.196501
0.165923
0.138435
0.111342
0.0842927
0.0585642
0.0341153
0.012425
0.420446
0.379546
-0.382177
0.431585
0.316179
-0.327318
0.43091
0.233348
-0.232673
0.438733
0.184279
-0.192102
0.435858
0.137177
-0.134303
0.441758
0.117223
-0.123123
0.437371
0.0928218
-0.0884344
0.439667
0.076444
-0.0787398
0.434079
0.0667023
-0.061114
0.432276
0.0543663
-0.0525637
0.424875
0.0503945
-0.0429936
0.419465
0.0425511
-0.0371407
0.409642
0.0410769
-0.0312544
0.400216
0.0365194
-0.027093
0.0364537
-0.0234803
0.415972
0.381389
0.424796
0.307355
0.422553
0.235591
0.429432
0.1774
0.425906
0.140703
0.430596
0.112533
0.426157
0.097261
0.427743
0.0748574
0.422147
0.0722988
0.420268
0.056245
0.413159
0.0575034
0.407504
0.0482064
0.397643
0.0509377
0.388174
0.0459882
0.0496326
0.410605
0.3886
0.414716
0.303244
0.409595
0.240712
0.413709
0.173287
0.408788
0.145624
0.411277
0.110045
0.405913
0.102624
0.405997
0.0747741
0.39943
0.078865
0.396737
0.0589382
0.388818
0.0654225
0.382737
0.0542869
0.372434
0.0612414
0.363171
0.0552513
0.0625214
0.404403
0.402012
0.402213
0.305434
0.39266
0.250264
0.392969
0.172978
0.38521
0.153384
0.384388
0.110867
0.378019
0.108994
0.375459
0.077334
0.368848
0.0854757
0.363875
0.0639111
0.355525
0.0737723
0.347788
0.0620242
0.337011
0.0720184
0.327266
0.0649959
0.0760991
0.396786
0.423042
0.387522
0.314697
0.373114
0.264672
0.367632
0.178459
0.356997
0.164019
0.351117
0.116747
0.342797
0.117314
0.336796
0.0833354
0.32798
0.094291
0.320495
0.0713969
0.30996
0.0843066
0.301254
0.0707309
0.289642
0.08363
0.280802
0.073836
0.0874873
0.369598
0.42618
0.372865
0.31143
0.369931
0.267607
0.372537
0.175853
0.36938
0.167176
0.370207
0.11592
0.367275
0.120246
0.366402
0.0842083
0.362746
0.0979468
0.362706
0.0714375
0.35835
0.0886626
0.359319
0.0697622
0.357507
0.085441
0.36298
0.0683637
0.0804128
0.370054
0.42577
0.428728
0.428912
0.308288
0.424611
0.271908
0.42943
0.171034
0.424527
0.172079
0.426096
0.114351
0.42342
0.122922
0.422012
0.0856169
0.41997
0.0999885
0.418998
0.0724091
0.418161
0.0894998
0.418401
0.0695219
0.42224
0.0816021
0.425166
0.0654376
0.0723272
0.433252
0.489045
0.43187
0.495247
0.302086
0.488327
0.278828
0.494368
0.164993
0.48974
0.176706
0.489236
0.114855
0.488953
0.123205
0.488056
0.0865141
0.488137
0.0999079
0.485768
0.0747778
0.48786
0.0874079
0.488263
0.0691191
0.493686
0.0761787
0.497718
0.061406
0.0645775
0.505467
0.559696
0.437754
0.568459
0.293323
0.564763
0.282525
0.568201
0.161554
0.567653
0.177254
0.563967
0.118541
0.56503
0.122141
0.564793
0.0867514
0.567701
0.0970001
0.564393
0.0780858
0.567215
0.0845857
0.569358
0.0669758
0.575616
0.0699213
0.581194
0.0558275
0.0570958
0.588676
0.643796
0.443875
0.649475
0.287644
0.651752
0.280248
0.651566
0.16174
0.656069
0.172752
0.653372
0.121238
0.65471
0.120803
0.653724
0.0877378
0.657827
0.0928972
0.657149
0.0787636
0.660582
0.0811522
0.663858
0.0637005
0.670167
0.0636115
0.675689
0.0503056
0.0498323
0.682953
0.744228
0.446479
0.746336
0.285536
0.751877
0.274707
0.748932
0.164685
0.754779
0.166904
0.755625
0.120392
0.758717
0.117711
0.757875
0.0885801
0.762225
0.0885473
0.764953
0.0760351
0.770284
0.0758218
0.774064
0.05992
0.78001
0.0576656
0.784615
0.045701
0.0434692
0.790978
0.858938
0.445737
0.860397
0.284077
0.867266
0.267838
0.86426
0.167692
0.870586
0.160578
0.873075
0.117903
0.878343
0.112443
0.879301
0.0876215
0.884013
0.0838358
0.888784
0.0712638
0.895928
0.0686781
0.900602
0.0552456
0.906652
0.051616
0.910649
0.0417039
0.0383845
0.915734
0.990201
0.441704
0.990017
0.284261
1.0007
0.257153
0.999622
0.168772
1.0072
0.152997
1.01035
0.114757
1.01675
0.106045
1.01988
0.0844928
1.02555
0.0781629
1.0312
0.065612
1.0389
0.0609768
1.04432
0.0498276
1.05046
0.0454727
1.05504
0.0371276
0.0333158
1.06011
1.14029
0.434637
1.14159
0.282958
1.155
0.243739
1.157
0.16678
1.16551
0.144478
1.17013
0.110145
1.1773
0.0988724
1.18249
0.0792971
1.18907
0.0715827
1.19536
0.059324
1.20269
0.05365
1.20844
0.0440763
1.21443
0.0394856
1.21902
0.0325368
0.0288198
1.22352
1.31341
0.42343
1.31893
0.277442
1.33592
0.226748
1.3421
0.160603
1.35248
0.13409
1.3593
0.103327
1.36825
0.0899225
1.37518
0.0723723
1.38305
0.063706
1.38985
0.0525232
1.39719
0.0463108
1.40308
0.0381863
1.40907
0.0334963
1.41386
0.0277528
0.0242322
1.41844
1.5122
0.407618
1.52334
0.266301
1.54267
0.207413
1.55482
0.148459
1.5678
0.121102
1.57829
0.0928433
1.58934
0.0788707
1.59873
0.062987
1.60792
0.0545077
1.61585
0.0445921
1.62338
0.0387844
1.62962
0.0319447
1.63539
0.027733
1.64016
0.0229815
0.0199229
1.64447
1.74782
0.379313
1.76908
0.245043
1.79393
0.182563
1.81178
0.130609
1.82965
0.103236
1.84343
0.079068
1.85701
0.0652898
1.8679
0.0520907
1.87843
0.0439755
1.88705
0.0359802
1.89511
0.0307199
1.90163
0.0254224
1.90758
0.0217863
1.91241
0.0181491
0.0156045
1.91673
2.02351
0.331729
2.06245
0.206104
2.09868
0.146335
2.12815
0.10114
2.15414
0.0772499
2.17521
0.0579938
2.19336
0.0471429
2.20809
0.0373583
2.22087
0.0311964
2.2314
0.0254463
2.24055
0.0215684
2.24815
0.0178247
2.25471
0.0152301
2.2602
0.0126557
0.0108582
2.26495
2.35248
0.249826
2.40775
0.150835
2.45705
0.0970273
2.49479
0.0634081
2.52701
0.0450308
2.55202
0.0329839
2.57346
0.0257
2.59066
0.020155
2.60535
0.0165109
2.61728
0.0135089
2.62755
0.0113012
2.63597
0.00940306
2.64325
0.00795185
2.64926
0.0066421
0.00566843
2.65445
2.85898
3.00981
3.10684
3.17025
3.21528
3.24827
3.27397
3.29412
3.31063
3.32414
3.33544
3.34484
3.3528
3.35944
3.36511
0.372599
-0.223275
0.382159
-0.173519
0.38904
-0.102913
0.399821
-0.0364422
0.0435988
0.440015
-0.230038
0.44395
-0.177454
0.449355
-0.108319
0.456769
-0.0438564
0.0351385
0.510261
-0.234831
0.51085
-0.178043
0.516488
-0.113957
0.521693
-0.0490619
0.0283892
0.589569
-0.235724
0.589516
-0.17799
0.592944
-0.117384
0.595455
-0.051573
0.0229238
0.679849
-0.232621
0.67845
-0.176591
0.678951
-0.117886
0.680545
-0.053167
0.0175468
0.784511
-0.226153
0.780786
-0.172866
0.778978
-0.116077
0.779553
-0.0537426
0.0128937
0.906054
-0.216473
0.899633
-0.166445
0.895836
-0.112281
0.895239
-0.0531457
0.00891103
1.0471
-0.203464
1.03791
-0.157253
1.03219
-0.106568
1.03036
-0.0513117
0.00615659
1.20772
-0.18767
1.1961
-0.145628
1.18868
-0.0991482
1.18601
-0.0486502
0.00355062
1.39922
-0.168448
1.38469
-0.131094
1.3752
-0.0896603
1.37129
-0.0447402
0.00244495
1.62181
-0.145796
1.6045
-0.113776
1.5929
-0.0780635
1.58761
-0.0394538
0.000508522
1.8902
-0.119269
1.86967
-0.0932439
1.85604
-0.0644344
1.84943
-0.0328409
0.000413336
2.23288
-0.087206
2.208
-0.0683551
2.19082
-0.0472586
2.18245
-0.0244663
-0.000798756
2.61723
-0.0499827
2.58823
-0.0393568
2.56835
-0.0273797
2.55824
-0.0143541
-0.000729804
3.31512
3.27577
3.24839
3.23403
0.0098322
-0.00206397
-0.00776823
0.00753579
0.00229641
-0.00371002
0.0112458
-0.0272721
0.0235621
0.0306013
-0.0578734
4.42711e-06
0.00760474
-0.00967314
-0.0286242
0.030925
-0.0750153
0.0576369
-0.121785
0.0703317
0.0618893
-0.153073
-0.0366076
0.0414796
0.00273274
-0.0907689
0.0850863
-0.143828
0.110696
-0.177088
0.103592
0.0770805
-0.192279
-0.0851301
0.0969467
0.029663
-0.146358
0.146314
-0.187095
0.151433
-0.203731
0.120228
0.0833152
-0.209966
-0.132341
0.164269
0.0650188
-0.186905
0.200878
-0.210792
0.17532
-0.21988
0.129316
0.0865866
-0.223152
-0.17271
0.233568
0.103411
-0.213251
0.241418
-0.22634
0.18841
-0.234985
0.137961
0.088259
-0.236657
-0.204766
0.298105
0.14023
-0.231261
0.267913
-0.241254
0.198403
-0.251251
0.147958
0.0880858
-0.251078
-0.230391
0.351181
0.177314
-0.245026
0.282548
-0.258431
0.211808
-0.267529
0.157055
0.0873407
-0.266784
-0.249262
0.391777
0.208666
-0.26015
0.293437
-0.279123
0.230781
-0.284889
0.162821
0.0881728
-0.285721
-0.265053
0.247289
0.409542
-0.280373
0.308757
-0.300154
0.250562
-0.304533
0.167199
0.0894799
-0.30584
-0.00861168
-0.0082428
-0.00357369
-0.005038
-0.00060228
-0.00297141
0.00320539
-0.00380767
-0.00456285
-0.00607834
-0.021723
0.0017447
-0.012861
0.00515238
-0.00637909
0.00848355
-0.00713883
-0.00575244
0.000376126
-0.0372976
0.00878181
-0.0212667
0.0105013
-0.00809862
0.0091983
-0.0058358
0.0061786
0.0072167
-0.0533911
0.0138453
-0.0278954
0.012001
-0.00625429
0.00137303
0.00479218
0.0372146
0.0154215
-0.0682027
0.0183851
-0.030859
0.0090525
0.00307834
-0.0153712
0.0292159
0.0868622
0.0251047
-0.0795342
0.0204465
-0.0262008
0.00232499
0.0211998
-0.0381625
0.0697034
0.152111
0.0396681
-0.0868225
0.0284735
-0.0150062
-0.00291868
0.0525921
-0.061982
0.128767
0.230358
0.0509711
-0.0822977
0.0240287
0.0119362
-0.0271241
0.103745
-0.099756
0.201399
0.307916
0.070594
-0.0711557
0.0324216
0.0501086
-0.0291021
0.165269
-0.12031
0.292606
0.396273
0.0820371
-0.0427187
0.018951
0.113195
-0.0716387
0.255858
-0.172968
0.393936
0.470593
0.128123
0.00355119
0.0751684
0.16615
0.0322433
0.298783
0.0106839
0.415495
0.473345
0.00793147
0.129064
0.0609664
0.0710136
0.2242
0.0207539
0.349043
-0.00252454
0.438774
0.477217
-0.00639636
0.106981
0.126653
0.0493001
0.281881
0.00214919
0.396194
-0.0219488
0.462872
0.473456
-0.0181878
0.0204312
0.201943
-0.0364828
0.338795
-0.0688697
0.428581
-0.0815319
0.475534
0.456873
-0.064949
-0.122494
0.283868
-0.174625
0.390925
-0.18851
0.442466
-0.159032
0.446056
0.412926
-0.115085
-0.317501
0.340779
-0.323662
0.397086
-0.299016
0.41782
-0.234366
0.381407
0.337881
-0.159321
-0.427374
0.395035
-0.395216
0.364928
-0.324523
0.347127
-0.26642
0.323303
0.287639
-0.216178
-0.398349
0.39736
-0.376438
0.343016
-0.309051
0.27974
-0.247792
0.262044
0.248833
-0.208986
-0.402755
0.320118
-0.373133
0.313394
-0.353357
0.259964
-0.319178
0.227866
0.199889
-0.270235
-0.328735
0.294697
-0.317597
0.302256
-0.317694
0.260062
-0.314592
0.224763
0.175483
-0.290186
-0.111418
0.355418
-0.171835
0.362673
-0.2151
0.303326
-0.232571
0.242234
0.16272
-0.219808
0.193823
0.376008
0.153442
0.403054
0.1125
0.344268
0.0601961
0.294538
0.203356
0.019561
0.487382
0.354045
0.523111
0.367324
0.544308
0.323072
0.527162
0.311683
0.278022
0.452496
0.442937
0.378027
0.456174
0.354087
0.456656
0.32259
0.442167
0.326172
0.32591
0.394279
0.234038
0.461515
0.154175
0.43395
0.0745104
0.402255
0.0171219
0.383561
0.369402
-0.0263703
0.0796013
0.512854
0.014001
0.499551
-0.0511995
0.467455
-0.0990091
0.43137
0.400058
-0.129665
-0.571449
0.485656
-0.52573
0.453832
-0.468451
0.410176
-0.407129
0.370048
0.343554
-0.350625
-1.02818
0.454568
-0.982527
0.408183
-0.927135
0.354784
-0.860255
0.303168
0.264613
-0.781314
-0.150226
0.421292
-0.13404
0.391996
-0.130506
0.351251
-0.139055
0.311717
0.269894
-0.144336
0.748448
0.410447
0.743679
0.396766
0.724817
0.370113
0.690091
0.346443
0.314244
0.645741
0.4532
0.44468
0.417394
0.432572
0.376225
0.411281
0.333065
0.389603
0.364025
0.283284
-0.362825
0.445386
-0.363503
0.433249
-0.367558
0.415337
-0.374129
0.396173
0.374695
-0.384799
-0.126329
0.407654
-0.091906
0.398826
-0.0628108
0.386242
-0.0383463
0.371709
0.355096
-0.018747
0.413925
0.366038
0.449902
0.36285
0.478822
0.357322
0.500185
0.350346
0.341634
0.513647
0.151425
0.166048
0.175454
0.178763
0.174866
0.00745849
0.482237
-0.481764
0.00387852
0.534347
-0.530767
0.000317082
0.593929
-0.590368
-0.00246285
0.661494
-0.658714
-0.00489966
0.736492
-0.734055
-0.00661346
0.821217
-0.819503
-0.00782898
0.917814
-0.916599
-0.00843421
1.02742
-1.02681
-0.00844593
1.15262
-1.1526
-0.00820102
1.29205
-1.2923
-0.00726563
1.44798
-1.44892
-0.00631342
1.60926
-1.61021
-0.0047054
1.76927
-1.77088
-0.00224442
1.93446
-1.93692
1.78335
-1.78559
-0.0109904
0.486831
-0.0121764
0.535533
-0.0139278
0.595681
-0.0145659
0.662132
-0.0141017
0.736028
-0.0134288
0.820544
-0.0122202
0.916606
-0.0112284
1.02643
-0.0101318
1.15152
-0.00917384
1.2911
-0.00787079
1.44668
-0.00664947
1.60803
-0.00489167
1.76751
-0.00227992
1.93185
1.78107
-0.0227115
0.491354
-0.0254555
0.538277
-0.024841
0.595066
-0.0229398
0.660231
-0.0206974
0.733785
-0.0182621
0.818109
-0.0161883
0.914532
-0.0141309
1.02437
-0.0123423
1.14973
-0.0107211
1.28948
-0.00901281
1.44497
-0.00740472
1.60643
-0.00536353
1.76547
-0.00248407
1.92897
1.77858
-0.0581249
0.48453
-0.0528881
0.53304
-0.0477604
0.589938
-0.0412358
0.653706
-0.0344324
0.726982
-0.0281538
0.81183
-0.0225076
0.908886
-0.0181565
1.02002
-0.0146932
1.14627
-0.0120721
1.28685
-0.00975062
1.44265
-0.00777964
1.60446
-0.00551357
1.7632
-0.00253191
1.92598
1.77605
-0.0945069
0.463952
-0.0803202
0.518854
-0.0688398
0.578458
-0.0560193
0.640886
-0.045226
0.716188
-0.0360867
0.802691
-0.0283951
0.901194
-0.0223675
1.01399
-0.0177415
1.14164
-0.014211
1.28332
-0.0113075
1.43974
-0.00883426
1.60198
-0.00615908
1.76053
-0.00285148
1.92268
1.7732
-0.130811
0.435442
-0.113361
0.501404
-0.0918085
0.556905
-0.073392
0.622469
-0.0577806
0.700577
-0.044219
0.789129
-0.0336713
0.890646
-0.0257749
1.0061
-0.0198071
1.13567
-0.0154412
1.27896
-0.0119165
1.43622
-0.00909848
1.59916
-0.0062156
1.75764
-0.00293665
1.9194
1.77026
-0.189808
0.409073
-0.156793
0.468389
-0.125565
0.525677
-0.0972344
0.594139
-0.0749237
0.678266
-0.0563617
0.770567
-0.0417908
0.876075
-0.0311684
0.995473
-0.0234129
1.12792
-0.0179407
1.27349
-0.0137757
1.43205
-0.0104184
1.59581
-0.00704701
1.75427
-0.00341795
1.91577
1.76684
-0.187594
0.387681
-0.153659
0.434453
-0.12504
0.497058
-0.0965339
0.565632
-0.0734576
0.65519
-0.0539843
0.751094
-0.0408855
0.862976
-0.0307404
0.985328
-0.0235772
1.12075
-0.0181383
1.26805
-0.0138162
1.42773
-0.0103054
1.5923
-0.00688894
1.75086
-0.00353047
1.91241
1.76331
-0.230724
0.34817
-0.189876
0.393606
-0.144036
0.451219
-0.112805
0.534401
-0.0864171
0.628802
-0.0649213
0.729598
-0.0482939
0.846349
-0.0357268
0.972761
-0.02695
1.11198
-0.0205779
1.26167
-0.0157426
1.4229
-0.0118014
1.58836
-0.00792685
1.74698
-0.00431842
1.9088
1.759
-0.233789
0.291774
-0.189216
0.349032
-0.138506
0.400509
-0.0975674
0.493463
-0.0655131
0.596748
-0.0475417
0.711627
-0.0364553
0.835263
-0.0289849
0.965291
-0.0235636
1.10656
-0.0188835
1.25699
-0.014748
1.41876
-0.0110262
1.58463
-0.00735648
1.74331
-0.00421638
1.90566
1.75478
-0.125731
0.197696
-0.0597745
0.283076
-0.0396031
0.380337
-0.0352934
0.489153
-0.0350954
0.59655
-0.0338346
0.710366
-0.0310132
0.832441
-0.0277618
0.962039
-0.0241129
1.10291
-0.0202677
1.25315
-0.0163031
1.4148
-0.0125619
1.58089
-0.00868052
1.73943
-0.00534572
1.90233
1.74943
0.0759103
0.141347
0.113233
0.245754
0.0997379
0.393832
0.0616326
0.527258
0.0244229
0.633759
0.000339217
0.73445
-0.0127874
0.845568
-0.0181779
0.96743
-0.0189678
1.1037
-0.0172219
1.2514
-0.0141972
1.41177
-0.0107817
1.57748
-0.0072308
1.73588
-0.00454255
1.89964
1.74489
0.375301
0.218542
0.274672
0.346383
0.176913
0.491591
0.107757
0.596414
0.0634828
0.678034