/*--------------------------------*- C++ -*----------------------------------*\
| =========                 |                                                 |
| \\      /  F ield         | OpenFOAM: The Open Source CFD Toolbox           |
|  \\    /   O peration     | Version:  2312                                  |
|   \\  /    A nd           | Website:  www.openfoam.com                      |
|    \\/     M anipulation  |                                                 |
\*---------------------------------------------------------------------------*/
FoamFile
{
    version     2.0;
    format      ascii;
    arch        "LSB;label=32;scalar=64";
    class       volVectorField;
    location    "68";
    object      U;
}
// * * * * * * * * * * * * * * * * * * * * * * * * * * * * * * * * * * * * * //

dimensions      [0 1 -1 0 0 0 0];

internalField   nonuniform List<vector> 
2300
(
(-0.0601277 0.0429259 0)
(-0.0486341 0.0636398 2.09462e-19)
(0.121809 0.0585011 -1.14095e-19)
(0.427863 0.0507236 -4.65311e-20)
(0.762377 0.0464062 0)
(1.05742 0.0418081 -6.47723e-20)
(1.25879 0.0372269 2.52583e-19)
(1.3485 0.00112968 -4.61033e-20)
(1.36015 0.00290616 1.06684e-19)
(1.28967 -0.0653309 -1.28022e-19)
(-0.0713854 0.0262533 8.95226e-20)
(0.0554173 0.00976912 -7.05332e-20)
(0.450168 0.0337525 1.13377e-19)
(0.859284 0.0712577 4.3406e-20)
(1.16157 0.100848 6.86897e-20)
(1.32804 0.115507 -1.80848e-19)
(1.36409 0.0958992 -5.76212e-21)
(1.32615 0.0768189 -4.96479e-21)
(1.25487 0.0407747 0)
(1.18513 0.0160344 2.13054e-20)
(-0.0456476 0.000119038 9.32111e-20)
(0.345708 0.0131637 -3.60209e-21)
(0.871375 0.101046 -1.73537e-19)
(1.19652 0.15845 9.37782e-20)
(1.32569 0.177298 -6.65354e-20)
(1.3224 0.16009 1.56077e-19)
(1.27702 0.133814 -1.26434e-19)
(1.2373 0.10629 -8.7626e-20)
(1.22416 0.0881842 4.68665e-20)
(1.21819 0.0769336 8.94829e-20)
(0.060936 -0.0139149 2.50441e-20)
(0.739541 0.112503 -7.52685e-20)
(1.15902 0.207778 6.18854e-20)
(1.2985 0.232113 0)
(1.30043 0.216156 1.54316e-20)
(1.28066 0.19487 4.53443e-20)
(1.268 0.175287 -3.78509e-20)
(1.26095 0.161294 4.91529e-20)
(1.23704 0.142426 -5.43119e-21)
(1.19964 0.130942 -7.06314e-20)
(0.281614 0.0439522 2.5763e-20)
(1.00702 0.24034 0)
(1.25932 0.297958 0)
(1.30181 0.288611 0)
(1.29492 0.269621 -1.54772e-20)
(1.26976 0.248069 0)
(1.23515 0.223433 0)
(1.19614 0.198038 -1.05171e-20)
(1.16976 0.174037 8.82105e-21)
(1.14631 0.161382 -5.46414e-21)
(-0.0301362 0.150417 1.81023e-20)
(-0.0873801 0.171592 0)
(-0.152321 0.132993 0)
(-0.204275 0.0845646 0)
(-0.246637 0.023666 -1.91922e-20)
(-0.273193 -0.05467 0)
(-0.282542 -0.149455 0)
(-0.26604 -0.258649 2.07411e-20)
(-0.265085 -0.35366 -1.7393e-20)
(-0.187959 -0.450634 1.27485e-20)
(-0.0419748 0.186667 -5.61956e-20)
(-0.0763279 0.239723 6.4436e-20)
(-0.102603 0.208779 -5.30135e-20)
(-0.116672 0.158948 0)
(-0.121371 0.0944571 1.91356e-20)
(-0.110516 0.00783666 -7.34106e-20)
(-0.0971564 -0.0975049 6.12679e-20)
(-0.0217849 -0.219995 -1.00895e-19)
(-0.0328534 -0.334168 8.46095e-20)
(0.103638 -0.408901 2.54375e-20)
(-0.0498782 0.17282 -8.22299e-20)
(-0.0640035 0.253006 -1.02052e-21)
(-0.0474676 0.24072 1.73625e-19)
(-0.0137392 0.200035 -9.68222e-20)
(0.0297675 0.141139 8.97835e-20)
(0.115264 0.0684775 -2.31951e-19)
(0.178133 -0.0463636 6.52649e-20)
(0.365476 -0.132711 5.3099e-20)
(0.381262 -0.259724 -8.97702e-20)
(0.616744 -0.285197 -5.30242e-20)
(-0.0497882 0.123686 -8.50684e-20)
(-0.0575752 0.209293 -6.93475e-20)
(-0.013901 0.213878 -1.17656e-19)
(0.0578374 0.184458 4.4486e-20)
(0.167714 0.124833 -9.24424e-20)
(0.336371 0.0672724 7.40944e-20)
(0.509763 -0.0326937 4.37625e-21)
(0.761897 -0.101485 4.26455e-21)
(0.863462 -0.192574 1.52947e-19)
(1.07875 -0.202468 -1.0443e-19)
(-0.049826 0.072285 0)
(-0.0606794 0.134585 6.9523e-20)
(0.00651768 0.139788 1.14871e-19)
(0.149502 0.114343 -1.43642e-19)
(0.385835 0.0760161 0)
(0.641807 0.0232173 2.13555e-19)
(0.921525 -0.0165282 -1.70167e-19)
(1.11394 -0.0653278 1.45608e-19)
(1.25089 -0.109758 -1.30852e-19)
(1.31106 -0.110462 5.52466e-20)
(-0.213237 -0.50606 -9.04549e-21)
(-0.120641 -0.510693 0)
(-0.0842164 -0.445214 1.85032e-22)
(0.0374649 -0.274739 0)
(0.172688 -0.00644074 1.69728e-22)
(0.413406 0.373486 0)
(0.627676 0.523503 3.0684e-21)
(0.783364 0.597897 -2.85446e-21)
(0.566557 0.732033 0)
(0.465227 0.453384 -1.04735e-22)
(0.695396 0.00506882 0)
(0.816488 -0.269948 1.72577e-21)
(0.834402 -0.495684 -2.74363e-22)
(0.800698 -0.483188 -9.03702e-22)
(0.953333 -0.331105 -1.39421e-22)
(1.13738 -0.140185 2.75556e-22)
(1.14476 0.464225 0)
(1.03655 0.785024 0)
(1.07072 0.13424 0)
(0.956336 -0.469278 0)
(0.979598 -0.302242 0)
(1.06153 0.193381 -3.20462e-23)
(1.01835 0.090424 2.99667e-23)
(0.899585 -0.165744 -3.06295e-23)
(0.813785 -0.0544735 0)
(0.00858374 -0.497714 -3.91982e-20)
(0.00301578 -0.544451 2.49345e-20)
(-0.0819242 -0.499762 -2.33623e-20)
(-0.0622852 -0.385054 1.82292e-20)
(-0.0365717 -0.17316 -1.29076e-21)
(0.154 0.139276 -2.7123e-20)
(0.398845 0.385779 1.15747e-20)
(0.524101 0.655383 0)
(0.362862 0.823881 2.9809e-22)
(0.509223 0.413113 1.0663e-22)
(0.78649 -0.070529 0)
(0.940564 -0.280283 -2.14785e-22)
(0.952171 -0.492669 -1.68441e-22)
(0.910113 -0.518772 2.8479e-21)
(0.97224 -0.39447 -4.47834e-21)
(1.08252 -0.157625 1.55389e-21)
(1.06418 0.494281 -3.41575e-21)
(1.0401 0.79318 1.17021e-22)
(1.10631 0.166214 2.26384e-22)
(1.00789 -0.445662 2.50296e-21)
(0.989685 -0.312353 -7.04014e-22)
(1.05874 0.19311 0)
(1.02547 0.110535 0)
(0.903894 -0.142678 1.73847e-23)
(0.809194 -0.0455555 8.27649e-24)
(0.515104 -0.357545 1.47724e-19)
(0.450323 -0.438916 -1.85654e-20)
(0.291025 -0.451214 -3.78021e-20)
(0.152685 -0.41527 0)
(0.048045 -0.29569 -1.32971e-20)
(0.10597 -0.0854282 1.2308e-20)
(0.23321 0.189866 0)
(0.290667 0.620535 0)
(0.266497 0.837009 -3.10286e-22)
(0.637717 0.34036 0)
(0.888321 -0.163839 -6.5572e-22)
(1.06038 -0.302462 0)
(1.06317 -0.449354 -4.47498e-21)
(1.0037 -0.507639 8.2037e-22)
(0.990827 -0.419991 -1.56239e-21)
(1.01157 -0.205384 5.07685e-21)
(0.985806 0.443002 7.62851e-22)
(1.00024 0.768 4.82462e-22)
(1.11699 0.200418 0)
(1.0518 -0.425163 3.65504e-22)
(0.99957 -0.33431 4.39186e-23)
(1.0457 0.182024 0)
(1.02641 0.124583 2.48083e-23)
(0.903999 -0.120404 4.95295e-23)
(0.803118 -0.0363251 -8.25268e-24)
(1.02926 -0.271376 6.07805e-22)
(0.956752 -0.288907 0)
(0.825011 -0.252769 0)
(0.637653 -0.213918 -4.34808e-21)
(0.439423 -0.217007 4.16226e-21)
(0.307938 -0.158362 0)
(0.274418 0.073294 -8.90112e-23)
(0.249077 0.511341 9.70983e-23)
(0.381292 0.704196 0)
(0.820804 0.25231 2.59523e-20)
(1.03373 -0.235049 -2.33391e-20)
(1.10255 -0.349473 0)
(1.08813 -0.433759 -3.20994e-22)
(0.994283 -0.506184 0)
(0.994385 -0.429097 1.00058e-20)
(0.902823 -0.217347 -9.65389e-21)
(0.913354 0.404633 -5.95541e-21)
(1.00743 0.741628 7.82537e-21)
(1.12369 0.224163 -3.25152e-21)
(1.0736 -0.385527 0)
(0.992753 -0.338085 6.15347e-22)
(1.02352 0.17525 -7.1652e-22)
(1.02394 0.139739 -3.09639e-22)
(0.899552 -0.0954919 6.11897e-23)
(0.79576 -0.0262911 0)
(1.2708 -0.196868 6.8637e-20)
(1.18919 -0.208872 -6.35563e-20)
(1.13959 -0.215446 0)
(1.03843 -0.167962 -1.22295e-22)
(0.912651 -0.101387 -3.08592e-23)
(0.776733 -0.119671 1.07491e-20)
(0.592542 -0.0491662 -9.83922e-21)
(0.377095 0.339429 3.68651e-21)
(0.438426 0.622317 1.15554e-20)
(0.914015 0.300216 -1.39023e-20)
(1.20995 -0.161018 -1.96925e-20)
(1.1877 -0.302678 1.81698e-20)
(1.1542 -0.369411 9.34199e-21)
(0.999874 -0.474529 -1.47398e-20)
(0.963947 -0.427151 5.93999e-21)
(0.853892 -0.261313 -4.11334e-22)
(0.82558 0.298369 -9.03858e-21)
(0.947784 0.691766 6.07956e-21)
(1.08171 0.274384 2.73305e-21)
(1.09545 -0.339361 -1.63195e-21)
(0.994058 -0.345981 1.65988e-21)
(0.991123 0.160061 2.61535e-22)
(1.01464 0.150909 -2.62541e-22)
(0.892595 -0.0708607 -4.37255e-23)
(0.788563 -0.0161649 0)
(1.21762 -0.0911129 0)
(1.15387 -0.0954172 0)
(1.0999 -0.111635 0)
(1.02103 -0.10121 0)
(0.967336 -0.0278348 0)
(0.94913 0.0223993 0)
(0.841111 0.0845908 0)
(0.693227 0.292308 0)
(0.79703 0.413789 0)
(1.19076 0.129182 0)
(1.32442 -0.184877 0)
(1.21076 -0.257354 0)
(1.1757 -0.298374 0)
(1.05745 -0.417917 0)
(0.886926 -0.437344 0)
(0.832716 -0.266115 0)
(0.806175 0.259359 0)
(0.910093 0.658579 0)
(1.08893 0.272014 0)
(1.11323 -0.312211 0)
(0.992019 -0.336033 0)
(0.968327 0.150021 0)
(1.00948 0.160164 0)
(0.888181 -0.0484093 0)
(0.785297 -0.00682754 0)
(1.15644 -0.0563157 0)
(1.11719 -0.0657342 0)
(1.08511 -0.0966898 0)
(1.01585 -0.0687435 0)
(0.96618 -0.0252297 0)
(0.982813 -0.00594666 0)
(0.954299 0.0940869 0)
(0.93474 0.280135 0)
(1.11183 0.325848 0)
(1.34053 0.0663257 0)
(1.3343 -0.166309 0)
(1.19986 -0.222793 0)
(1.1252 -0.299897 0)
(1.05179 -0.374459 0)
(0.824415 -0.373009 0)
(0.719493 -0.238072 0)
(0.776498 0.251971 0)
(0.868143 0.625797 0)
(1.09485 0.232192 0)
(1.12903 -0.309067 0)
(0.98332 -0.310506 0)
(0.929401 0.158594 0)
(0.995861 0.165127 0)
(0.88376 -0.0291046 0)
(0.785014 0.0027606 0)
(1.13645 -0.0139725 0)
(1.11782 -0.0207043 0)
(1.09099 -0.0441424 0)
(1.04299 -0.0216057 0)
(1.01228 0.00938605 0)
(1.01165 0.0320233 0)
(0.992629 0.107413 0)
(1.03556 0.196978 0)
(1.19127 0.203973 0)
(1.3181 0.0318624 0)
(1.28898 -0.136144 0)
(1.18725 -0.169945 0)
(1.12815 -0.231986 0)
(1.06958 -0.292386 0)
(0.832075 -0.290101 0)
(0.585005 -0.211405 0)
(0.62456 0.232348 0)
(0.790804 0.566952 0)
(1.11614 0.19161 0)
(1.14156 -0.286579 0)
(0.9739 -0.285373 0)
(0.891986 0.156315 0)
(0.993478 0.164469 0)
(0.887539 -0.00700687 0)
(0.7918 0.0134077 0)
(1.11766 0.0145183 0)
(1.1107 0.00757072 0)
(1.09251 -0.0160312 0)
(1.0612 0.00138268 0)
(1.04572 0.00807794 0)
(1.04187 0.0299903 0)
(1.03776 0.0775171 0)
(1.08106 0.106169 0)
(1.17244 0.131957 0)
(1.25273 0.0123656 0)
(1.22468 -0.0965051 0)
(1.15514 -0.118779 0)
(1.08705 -0.231208 0)
(1.01296 -0.263236 0)
(0.868455 -0.181576 0)
(0.604597 -0.12735 0)
(0.50811 0.177838 0)
(0.777355 0.439827 0)
(1.16578 0.11409 0)
(1.15662 -0.261613 0)
(0.946281 -0.238875 0)
(0.850041 0.154451 0)
(0.977567 0.160203 0)
(0.88715 0.0170099 0)
(0.811447 0.0248181 0)
(1.10273 0.0311363 0)
(1.10714 0.0273444 0)
(1.09659 0.0118371 0)
(1.0808 0.0213145 0)
(1.07203 0.0243037 0)
(1.06537 0.0365281 0)
(1.07301 0.0629321 0)
(1.09782 0.0646721 0)
(1.14032 0.0781321 0)
(1.19914 0.00679742 0)
(1.16922 -0.0772608 0)
(1.13339 -0.0908778 0)
(1.11082 -0.151192 0)
(0.993817 -0.1795 0)
(0.883676 -0.0901505 0)
(0.779826 -0.0238663 0)
(0.653113 0.135763 0)
(0.874003 0.283306 0)
(1.19451 0.0479591 0)
(1.16041 -0.216294 0)
(0.901656 -0.174998 0)
(0.760612 0.157547 0)
(0.920302 0.146921 0)
(0.892255 0.0349016 0)
(0.871992 0.033544 0)
(1.09448 0.0388901 0)
(1.10138 0.0372808 0)
(1.09701 0.023229 0)
(1.08978 0.0306914 0)
(1.08637 0.0242904 0)
(1.08174 0.0335594 0)
(1.09031 0.0444405 0)
(1.10411 0.0331622 0)
(1.12256 0.0486656 0)
(1.15807 -0.00802468 0)
(1.13884 -0.04823 0)
(1.10536 -0.0620388 0)
(1.08323 -0.129031 0)
(0.99804 -0.129801 0)
(0.909901 -0.0622917 0)
(0.910236 -0.000839805 0)
(0.87548 0.120594 0)
(1.00165 0.187623 0)
(1.18261 -0.00446802 0)
(1.12908 -0.156467 0)
(0.863878 -0.0816041 0)
(0.727143 0.156496 0)
(0.908712 0.108247 0)
(0.916206 0.0260392 0)
(0.95184 0.0301513 0)
(1.08957 0.0444475 0)
(1.09693 0.0417378 0)
(1.09623 0.032654 0)
(1.09323 0.033447 0)
(1.09427 0.0293668 0)
(1.08835 0.0296523 0)
(1.09851 0.035109 0)
(1.10103 0.0224104 0)
(1.1101 0.028229 0)
(1.13116 -0.00340845 0)
(1.10992 -0.0336115 0)
(1.10206 -0.0402821 0)
(1.08011 -0.0770265 0)
(1.02079 -0.0676057 0)
(0.965844 -0.0237419 0)
(0.971579 0.00878063 0)
(0.97564 0.0817635 0)
(1.06542 0.126108 0)
(1.14813 -0.00883222 0)
(1.10295 -0.0847875 0)
(0.914934 -0.00264139 0)
(0.851169 0.145186 0)
(1.00337 0.0776149 0)
(0.995084 0.0164588 0)
(1.03185 0.0230554 0)
(1.09051 0.0423622 0)
(1.09616 0.0392766 0)
(1.09833 0.0324794 0)
(1.09709 0.0308048 0)
(1.09882 0.0258305 0)
(1.09576 0.0231971 0)
(1.1004 0.0235313 0)
(1.10353 0.0122435 0)
(1.10393 0.0144303 0)
(1.11619 -0.00649463 0)
(1.10068 -0.0226395 0)
(1.0947 -0.0254864 0)
(1.07643 -0.0548347 0)
(1.0388 -0.0422761 0)
(1.00954 -0.0191293 0)
(1.01891 -0.00186522 0)
(1.0156 0.048242 0)
(1.08306 0.0842649 0)
(1.11602 -0.0197543 0)
(1.07358 -0.0471287 0)
(0.977497 0.0373382 0)
(0.995413 0.120062 0)
(1.10328 0.051278 0)
(1.07487 0.00889271 0)
(1.0852 0.0154095 0)
(1.09146 0.0454594 0)
(1.09655 0.0421333 0)
(1.09894 0.0379082 0)
(1.09959 0.0344492 0)
(1.10062 0.030868 0)
(1.09947 0.026588 0)
(1.10124 0.0247321 0)
(1.10273 0.0172559 0)
(1.10081 0.0141795 0)
(1.108 0.00486107 0)
(1.09679 -0.00746307 0)
(1.09527 -0.00745661 0)
(1.08238 -0.0230469 0)
(1.06221 -0.0125762 0)
(1.04618 -0.00166107 0)
(1.05242 0.0150788 0)
(1.0401 0.0304325 0)
(1.09175 0.0586239 0)
(1.10488 0.00199163 0)
(1.0669 -0.00723229 0)
(1.03021 0.0460131 0)
(1.0726 0.0877806 0)
(1.14219 0.0438666 0)
(1.11151 0.0207574 0)
(1.11152 0.0201994 0)
(1.09697 0.0333264 0)
(1.1015 0.0302719 0)
(1.10395 0.0269774 0)
(1.10587 0.0236018 0)
(1.10639 0.0201251 0)
(1.1072 0.0163943 0)
(1.10691 0.0132062 0)
(1.10892 0.00839993 0)
(1.10627 0.00435376 0)
(1.1097 -0.000107054 0)
(1.10219 -0.00905551 0)
(1.10129 -0.00728671 0)
(1.09149 -0.0185828 0)
(1.0844 -0.0092556 0)
(1.07119 -0.00858468 0)
(1.07962 0.00666407 0)
(1.07046 0.00903071 0)
(1.09827 0.0315331 0)
(1.10325 -0.000392583 0)
(1.08254 -0.00368549 0)
(1.07257 0.0319521 0)
(1.1019 0.0522493 0)
(1.14593 0.0287104 0)
(1.12955 0.0177968 0)
(1.12882 0.0132105 0)
(1.10301 0.0401156 0)
(1.1068 0.0377975 0)
(1.10877 0.0353593 0)
(1.11126 0.032751 0)
(1.11161 0.0297093 0)
(1.11321 0.0271502 0)
(1.1125 0.0234474 0)
(1.11452 0.021233 0)
(1.11224 0.01615 0)
(1.11506 0.0153984 0)
(1.11035 0.00768848 0)
(1.11202 0.0112863 0)
(1.10519 0.00226103 0)
(1.10483 0.0117135 0)
(1.09602 0.00606161 0)
(1.1029 0.0214807 0)
(1.09585 0.0154328 0)
(1.11095 0.0296893 0)
(1.11505 0.017737 0)
(1.10447 0.0141302 0)
(1.10553 0.0372588 0)
(1.12051 0.0436821 0)
(1.14922 0.0306594 0)
(1.143 0.0298937 0)
(1.14543 0.0219731 0)
(1.11763 0.0168841 0)
(1.12131 0.0152604 0)
(1.12263 0.0133645 0)
(1.1254 0.0116599 0)
(1.12521 0.00909807 0)
(1.12755 0.00775855 0)
(1.12636 0.00441279 0)
(1.12906 0.00394345 0)
(1.12669 -0.000685906 0)
(1.12984 0.000701751 0)
(1.12578 -0.00608236 0)
(1.12865 -0.00122671 0)
(1.12296 -0.00994038 0)
(1.12557 -0.000495057 0)
(1.11953 -0.00863935 0)
(1.12406 0.0040667 0)
(1.12211 -0.00210378 0)
(1.1269 0.00671321 0)
(1.13276 0.00462796 0)
(1.12629 -0.00157676 0)
(1.13179 0.0159266 0)
(1.1424 0.0172445 0)
(1.15667 0.00979855 0)
(1.15967 0.0151375 0)
(1.16456 0.00837141 0)
(1.14628 0.0333885 0)
(1.14933 0.0325046 0)
(1.15013 0.030523 0)
(1.15319 0.0297773 0)
(1.15309 0.0269731 0)
(1.15597 0.0268584 0)
(1.15499 0.0229584 0)
(1.1581 0.0240691 0)
(1.15622 0.0185967 0)
(1.1599 0.0216946 0)
(1.15692 0.0143531 0)
(1.16113 0.0200068 0)
(1.15712 0.0115843 0)
(1.16144 0.0191697 0)
(1.1579 0.0125838 0)
(1.16125 0.0189529 0)
(1.16228 0.0179043 0)
(1.16191 0.0173866 0)
(1.17042 0.0228002 0)
(1.1649 0.0156689 0)
(1.17158 0.0250516 0)
(1.17901 0.0276097 0)
(1.18572 0.0192072 0)
(1.19187 0.025512 0)
(1.19929 0.0207577 0)
(1.17114 -0.00324894 0)
(1.17441 -0.00326367 0)
(1.17456 -0.0045498 0)
(1.17797 -0.00415711 0)
(1.17732 -0.00634498 0)
(1.18087 -0.00500062 0)
(1.17957 -0.00854679 0)
(1.18331 -0.00555109 0)
(1.18166 -0.010976 0)
(1.18517 -0.0057906 0)
(1.18385 -0.013058 0)
(1.18609 -0.00604218 0)
(1.18637 -0.0134639 0)
(1.18604 -0.00717739 0)
(1.18942 -0.0105406 0)
(1.18665 -0.00931036 0)
(1.19312 -0.00490624 0)
(1.19073 -0.010583 0)
(1.19619 -0.00198864 0)
(1.19883 -0.00792616 0)
(1.19811 -0.00464538 0)
(1.20895 0.00105849 0)
(1.21274 -0.00635017 0)
(1.21585 -0.00104709 0)
(1.227 -0.00108538 0)
(1.28745 0.0227387 0)
(1.29049 0.0237467 0)
(1.29048 0.0217483 0)
(1.29339 0.0230248 0)
(1.29378 0.0206727 0)
(1.29587 0.021922 0)
(1.29714 0.0197214 0)
(1.2977 0.0202493 0)
(1.30051 0.0191449 0)
(1.29894 0.0179483 0)
(1.30371 0.0190626 0)
(1.29994 0.0154407 0)
(1.30618 0.0189187 0)
(1.30156 0.0137989 0)
(1.30719 0.0177214 0)
(1.30507 0.0142625 0)
(1.30698 0.0150166 0)
(1.31078 0.0167337 0)
(1.30796 0.0127112 0)
(1.31632 0.017636 0)
(1.31353 0.0140698 0)
(1.31941 0.0151697 0)
(1.32635 0.0156135 0)
(1.32478 0.0132603 0)
(1.33505 0.0131216 0)
(1.16082 0.139277 7.09319e-22)
(1.14635 0.114105 3.46948e-20)
(1.21273 0.0737802 -8.10968e-20)
(1.16248 0.0419376 -3.67021e-22)
(1.19411 -0.0419697 0)
(1.16272 0.126934 2.87796e-21)
(1.11598 0.111952 -1.3651e-20)
(1.16843 0.0652707 3.16048e-20)
(1.15137 0.0549277 2.81e-20)
(1.13967 -0.0139635 -3.42656e-20)
(1.13623 0.0987394 0)
(1.11264 0.103 2.51885e-22)
(1.12515 0.0538415 1.54449e-20)
(1.13407 0.0587956 -2.49007e-20)
(1.12379 0.013125 7.16221e-21)
(1.10626 0.0852816 7.12763e-23)
(1.10879 0.101628 4.18503e-21)
(1.10228 0.0559418 -1.36008e-20)
(1.11751 0.0647969 1.12947e-20)
(1.11255 0.0359088 1.96562e-20)
(1.08994 0.0771983 0)
(1.10131 0.0904082 -3.57667e-21)
(1.09403 0.0604541 2.23458e-22)
(1.10121 0.0613849 -1.6465e-20)
(1.0986 0.0461286 0)
(1.08422 0.0723346 -2.89453e-22)
(1.09205 0.0787296 1.44346e-22)
(1.08745 0.0604793 1.13568e-23)
(1.08991 0.0570801 5.58763e-21)
(1.08882 0.0487015 -1.4923e-22)
(1.08358 0.0686867 2.53584e-22)
(1.08701 0.0686225 0)
(1.08526 0.0601838 2.94347e-22)
(1.08665 0.0554094 0)
(1.08601 0.0515145 -1.43217e-21)
(1.08471 0.06104 6.55281e-23)
(1.08691 0.0589344 -3.77509e-22)
(1.08578 0.0542418 -2.56505e-22)
(1.08807 0.0503139 0)
(1.08638 0.0473057 1.23426e-21)
(1.08609 0.058089 -8.75563e-23)
(1.0882 0.0553333 3.98655e-22)
(1.08688 0.0529253 6.48381e-22)
(1.08912 0.0498724 -5.55035e-23)
(1.08778 0.0485604 1.2861e-21)
(1.09169 0.0436138 0)
(1.09356 0.0412306 0)
(1.09226 0.0391947 -1.58347e-21)
(1.0947 0.0369472 0)
(1.09357 0.0356009 -2.88026e-21)
(1.10008 0.0476033 0)
(1.10195 0.0455946 2.45762e-22)
(1.10078 0.0442536 -7.32559e-22)
(1.10239 0.0424904 -8.1272e-22)
(1.10083 0.0417855 1.56622e-21)
(1.11449 0.0224873 0)
(1.11618 0.0209835 2.55154e-22)
(1.11496 0.0199509 -1.32567e-22)
(1.11674 0.0186299 9.3335e-22)
(1.11556 0.0181415 -8.41716e-22)
(1.14498 0.0383004 -2.74987e-22)
(1.14649 0.0371143 5.56408e-22)
(1.14589 0.036314 1.56868e-21)
(1.14679 0.0351774 2.42302e-24)
(1.14554 0.0347109 9.33199e-22)
(1.16801 -0.00199299 2.5661e-22)
(1.16955 -0.00274996 -4.88208e-24)
(1.16984 -0.00254351 -1.20632e-21)
(1.17082 -0.00321102 4.86083e-22)
(1.17055 -0.00250274 -4.71194e-22)
(1.28498 0.0258683 0)
(1.28514 0.0249802 0)
(1.28698 0.0251819 -2.24302e-22)
(1.28669 0.0239255 0)
(1.28776 0.0243048 0)
(0.988322 0.24718 9.02138e-21)
(0.989884 0.271552 -1.07385e-20)
(0.971823 0.297893 4.90703e-21)
(0.954356 0.333194 -1.084e-20)
(0.947203 0.38176 -2.18479e-22)
(0.948002 0.439624 0)
(0.943104 0.511259 0)
(0.942738 0.599481 -3.23272e-20)
(0.931572 0.691776 4.18899e-21)
(0.66303 0.613526 0)
(1.00389 0.231589 2.10079e-21)
(1.01026 0.262383 0)
(1.01867 0.296432 -5.76505e-21)
(1.02778 0.335626 -7.77725e-21)
(1.03592 0.381903 -2.01709e-20)
(1.0423 0.433202 8.17571e-21)
(1.04861 0.496841 -1.153e-20)
(1.06904 0.582834 4.49907e-20)
(1.072 0.646538 3.50002e-20)
(0.747 0.532846 -8.08153e-20)
(1.07598 0.236805 -2.0851e-20)
(1.07999 0.26078 1.27673e-20)
(1.08206 0.28471 -9.46506e-21)
(1.08117 0.316774 -2.05618e-20)
(1.09463 0.35945 5.87201e-20)
(1.12146 0.409538 -2.75885e-20)
(1.14922 0.464623 5.65102e-20)
(1.17668 0.533358 -1.13453e-19)
(1.16453 0.565476 -1.68135e-20)
(0.762594 0.417188 8.7103e-20)
(1.07848 0.210216 -1.25769e-21)
(1.10237 0.233596 -3.84724e-21)
(1.12402 0.263586 2.51101e-20)
(1.14876 0.295557 -2.19505e-20)
(1.17024 0.330518 2.62981e-20)
(1.19227 0.367927 -1.17126e-20)
(1.21965 0.410992 0)
(1.25212 0.464869 5.41999e-20)
(1.19882 0.464007 -6.58817e-20)
(0.696021 0.285764 -2.62859e-20)
(1.1539 0.20143 8.33182e-21)
(1.16696 0.214375 7.14371e-21)
(1.17803 0.234191 -8.51758e-21)
(1.18334 0.257807 0)
(1.20612 0.287379 0)
(1.2441 0.321278 1.17369e-20)
(1.28389 0.355384 0)
(1.28816 0.38341 0)
(1.14828 0.352267 0)
(0.531805 0.15898 -2.6459e-20)
(0.81326 0.0869894 -2.83285e-23)
(0.785194 0.0916208 1.01265e-20)
(0.749244 0.0979764 -1.20755e-20)
(0.70684 0.105792 0)
(0.652078 0.115379 0)
(0.588035 0.127423 -1.44211e-20)
(0.50353 0.143181 0)
(0.406482 0.162933 0)
(0.265494 0.191859 0)
(0.0986159 0.175282 2.1066e-20)
(0.829248 0.129614 2.03226e-20)
(0.804687 0.140864 -3.6676e-20)
(0.771747 0.156145 4.3735e-20)
(0.732838 0.175079 -3.22254e-20)
(0.684864 0.198868 3.86116e-20)
(0.629355 0.227439 1.4384e-20)
(0.554125 0.264275 0)
(0.466916 0.309292 4.88279e-20)
(0.337071 0.375607 -5.933e-20)
(0.158689 0.349604 -5.89226e-20)
(0.855463 0.170183 -2.22034e-20)
(0.837251 0.186051 3.06416e-20)
(0.808504 0.207236 -5.31538e-20)
(0.76981 0.232829 -7.45007e-20)
(0.723558 0.266571 9.78274e-20)
(0.679298 0.310153 -4.1566e-20)
(0.621401 0.366314 5.76232e-20)
(0.556372 0.433426 -1.05417e-19)
(0.451282 0.530591 1.46462e-21)
(0.258791 0.49696 5.09536e-20)
(0.887938 0.202833 2.65603e-20)
(0.877726 0.226099 -4.38103e-20)
(0.8637 0.25665 1.66267e-20)
(0.842517 0.290393 7.17551e-21)
(0.802589 0.327793 -6.65279e-20)
(0.759344 0.375128 2.81987e-20)
(0.714405 0.442562 4.11188e-22)
(0.673137 0.523938 4.31556e-20)
(0.601091 0.637789 -1.00592e-20)
(0.391548 0.598259 -1.59061e-20)
(0.934257 0.219427 -2.34936e-20)
(0.914877 0.238855 2.79614e-20)
(0.89225 0.272711 -1.77787e-20)
(0.886271 0.317528 5.72557e-20)
(0.879026 0.368285 -7.45907e-21)
(0.858101 0.421705 0)
(0.82497 0.491499 1.11156e-20)
(0.804246 0.580651 -1.34496e-20)
(0.767223 0.691877 1.00822e-20)
(0.534164 0.637812 0)
(0.980655 0.154636 5.5138e-22)
(0.982255 0.150163 2.95476e-22)
(0.986527 0.124497 1.76185e-22)
(0.980757 0.115911 -1.99564e-22)
(0.979844 0.0953729 2.33808e-22)
(0.97296 0.0973404 0)
(0.970645 0.084023 0)
(0.960301 0.0826204 -2.14293e-22)
(0.952723 0.0779851 1.10994e-21)
(0.939926 0.0751972 -2.6765e-21)
(0.92607 0.0752021 -1.98096e-22)
(0.908404 0.0739858 4.38644e-21)
(0.889347 0.0770624 -2.48134e-21)
(0.865904 0.0780415 2.20217e-22)
(0.840684 0.0839589 -5.08494e-21)
(0.980171 0.156577 -1.06e-21)
(0.978159 0.146536 -3.34322e-22)
(0.986518 0.12765 1.44638e-21)
(0.979147 0.112657 -3.88945e-22)
(0.981762 0.10068 7.77454e-22)
(0.974134 0.0947083 -8.48496e-22)
(0.972631 0.0910142 -3.51132e-22)
(0.96366 0.0828737 2.17484e-22)
(0.956198 0.0875294 -2.65775e-22)
(0.944795 0.079764 -5.99402e-21)
(0.93122 0.0891969 6.46042e-21)
(0.915056 0.0857298 8.88244e-21)
(0.896893 0.09943 -2.22855e-20)
(0.875465 0.102164 -1.73008e-21)
(0.852475 0.121635 -1.35874e-21)
(0.981434 0.158518 5.41252e-22)
(0.97566 0.143706 0)
(0.984885 0.129362 -7.15315e-22)
(0.977902 0.110231 -4.56508e-22)
(0.980544 0.103137 0)
(0.975507 0.0933129 -3.12633e-22)
(0.972507 0.0953689 3.613e-22)
(0.966146 0.0834704 0)
(0.957396 0.0956291 -9.55639e-21)
(0.948356 0.0854114 1.13093e-20)
(0.934351 0.102718 0)
(0.921145 0.09947 2.77208e-22)
(0.904864 0.122327 0)
(0.888339 0.127183 -2.80566e-20)
(0.870227 0.158903 6.59823e-20)
(0.982439 0.160395 0)
(0.97628 0.140852 5.79541e-23)
(0.983094 0.131602 8.16913e-22)
(0.976799 0.106443 0)
(0.980689 0.106723 2.23915e-21)
(0.973809 0.0902267 -2.24127e-21)
(0.973807 0.100126 0)
(0.967238 0.0819782 -4.78133e-22)
(0.959737 0.102134 8.65901e-22)
(0.951881 0.0860466 1.15277e-20)
(0.939563 0.112783 -1.36509e-20)
(0.929925 0.106339 -1.79323e-20)
(0.916075 0.140953 -1.12916e-21)
(0.90574 0.144543 2.48888e-20)
(0.894906 0.189394 1.98239e-22)
(0.983105 0.162005 0)
(0.976925 0.138648 -7.71703e-22)
(0.983269 0.132093 0)
(0.978283 0.103463 0)
(0.978561 0.107426 0)
(0.978033 0.0896215 -3.53669e-22)
(0.968799 0.101743 0)
(0.972532 0.0847363 5.12612e-22)
(0.956667 0.107335 1.00275e-20)
(0.956678 0.0953176 -1.19431e-20)
(0.941887 0.123926 -1.5125e-20)
(0.939322 0.122049 1.74375e-20)
(0.929159 0.158354 2.03657e-20)
(0.928022 0.163929 -4.55646e-20)
(0.927817 0.211601 2.52137e-20)
(0.983585 0.162913 0)
(0.978275 0.137216 0)
(0.980908 0.133815 0)
(0.983615 0.101945 0)
(0.976349 0.109187 0)
(0.982371 0.0879374 0)
(0.968955 0.102563 0)
(0.975208 0.0822614 0)
(0.959071 0.108896 0)
(0.963547 0.0914301 0)
(0.950308 0.129744 0)
(0.953026 0.116906 0)
(0.94732 0.167944 0)
(0.95426 0.156905 0)
(0.968739 0.222904 0)
(0.982054 0.163957 0)
(0.983971 0.136145 0)
(0.97818 0.135197 0)
(0.983352 0.100224 0)
(0.983239 0.111772 0)
(0.975371 0.0863876 0)
(0.980251 0.105592 0)
(0.968263 0.0833327 0)
(0.975083 0.112289 0)
(0.958702 0.0927042 0)
(0.97127 0.132813 0)
(0.956817 0.118716 0)
(0.973443 0.164141 0)
(0.967147 0.152239 0)
(0.995506 0.196446 0)
(0.979565 0.164876 0)
(0.985158 0.13446 0)
(0.986447 0.138622 0)
(0.976815 0.0961892 0)
(0.993682 0.115796 0)
(0.971467 0.0854311 0)
(0.986109 0.106641 0)
(0.967925 0.0855728 0)
(0.989375 0.113849 0)
(0.964415 0.0950625 0)
(0.983173 0.131924 0)
(0.971181 0.119551 0)
(0.987684 0.155153 0)
(0.989056 0.14359 0)
(1.00724 0.174852 0)
(0.983157 0.16649 0)
(0.974118 0.130454 0)
(0.994845 0.142292 0)
(0.979862 0.0930317 0)
(0.9935 0.117689 0)
(0.984335 0.0882218 0)
(0.984555 0.105693 0)
(0.978766 0.0860572 0)
(0.993035 0.111791 0)
(0.98353 0.100073 0)
(0.986466 0.128083 0)
(0.990773 0.117126 0)
(0.996811 0.143144 0)
(1.00953 0.131776 0)
(1.01848 0.156143 0)
(0.98913 0.169383 0)
(0.969833 0.126506 0)
(0.989383 0.142473 0)
(0.99011 0.0925245 0)
(0.986348 0.115593 0)
(0.997637 0.0915328 0)
(0.988345 0.104947 0)
(0.991878 0.0863042 0)
(0.994201 0.107402 0)
(0.999539 0.103003 0)
(0.996804 0.124114 0)
(1.00609 0.111873 0)
(1.01007 0.130384 0)
(1.02255 0.11847 0)
(1.02973 0.136595 0)
(0.987634 0.171011 0)
(0.980653 0.125468 0)
(0.982094 0.139773 0)
(0.997376 0.0942281 0)
(0.983166 0.111552 0)
(1.00209 0.0919425 0)
(0.995709 0.103278 0)
(1.00312 0.0874685 0)
(0.999659 0.102693 0)
(1.01059 0.101676 0)
(1.01123 0.117694 0)
(1.0209 0.105928 0)
(1.02398 0.118314 0)
(1.03511 0.10683 0)
(1.03912 0.118438 0)
(0.980928 0.171618 0)
(0.9922 0.12471 0)
(0.981619 0.136623 0)
(1.00238 0.0958702 0)
(0.987446 0.107907 0)
(1.00562 0.0897492 0)
(1.00202 0.0997495 0)
(1.01298 0.0876069 0)
(1.00811 0.0983862 0)
(1.02047 0.0963876 0)
(1.02318 0.108405 0)
(1.0339 0.0991243 0)
(1.03559 0.107499 0)
(1.04677 0.0983352 0)
(1.04802 0.104745 0)
(0.976354 0.170281 0)
(0.997405 0.125048 0)
(0.984769 0.131817 0)
(1.00676 0.0976429 0)
(0.995565 0.102929 0)
(1.01203 0.0876232 0)
(1.00873 0.0936227 0)
(1.02161 0.0850097 0)
(1.01802 0.0908486 0)
(1.02992 0.0881004 0)
(1.0325 0.0948303 0)
(1.04351 0.0885371 0)
(1.04465 0.0932175 0)
(1.05533 0.0868436 0)
(1.05639 0.0896868 0)
(0.975354 0.168157 0)
(1.00003 0.124321 0)
(0.989784 0.126349 0)
(1.01116 0.0977087 0)
(1.00414 0.0995285 0)
(1.01926 0.0867068 0)
(1.01664 0.0909046 0)
(1.02951 0.0835635 0)
(1.02787 0.0876496 0)
(1.03873 0.0835186 0)
(1.04077 0.087672 0)
(1.0508 0.0823988 0)
(1.05167 0.0853635 0)
(1.06092 0.0803367 0)
(1.06181 0.082071 0)
(0.97555 0.164761 0)
(1.00298 0.12313 0)
(0.997117 0.116624 0)
(1.0181 0.0925087 0)
(1.01459 0.0886219 0)
(1.0296 0.0773582 0)
(1.02847 0.0775942 0)
(1.04093 0.0711755 0)
(1.04075 0.0721756 0)
(1.05115 0.0680723 0)
(1.05251 0.069182 0)
(1.06188 0.0650564 0)
(1.06248 0.0656909 0)
(1.07068 0.0620673 0)
(1.07129 0.0622214 0)
(0.977163 0.159763 0)
(1.00459 0.122685 0)
(1.004 0.113542 0)
(1.02363 0.0949845 0)
(1.02358 0.0907334 0)
(1.03867 0.0811321 0)
(1.03998 0.080209 0)
(1.05215 0.0743698 0)
(1.05339 0.0744635 0)
(1.06321 0.0704464 0)
(1.0646 0.0706108 0)
(1.07303 0.0670446 0)
(1.07377 0.0669415 0)
(1.08079 0.0638599 0)
(1.08128 0.0636146 0)
(0.977817 0.149257 0)
(1.01264 0.106926 0)
(1.01665 0.0903403 0)
(1.03817 0.0714603 0)
(1.03926 0.0644995 0)
(1.05515 0.0549147 0)
(1.05686 0.052033 0)
(1.06947 0.0463929 0)
(1.07078 0.0451353 0)
(1.08073 0.0414603 0)
(1.08157 0.0408115 0)
(1.08967 0.0379542 0)
(1.08997 0.0374063 0)
(1.09659 0.0350583 0)
(1.09653 0.0345903 0)
(0.979089 0.146202 0)
(1.02304 0.113169 0)
(1.03526 0.0976366 0)
(1.05874 0.0830844 0)
(1.06449 0.0753682 0)
(1.08127 0.0680231 0)
(1.08586 0.0641442 0)
(1.09844 0.0599212 0)
(1.10168 0.0575458 0)
(1.11118 0.0548518 0)
(1.11324 0.053256 0)
(1.12053 0.0512813 0)
(1.12168 0.0501027 0)
(1.12736 0.0485042 0)
(1.12789 0.0475907 0)
(0.981042 0.0968221 0)
(1.03927 0.0593664 0)
(1.05544 0.0417589 0)
(1.07917 0.0263605 0)
(1.08664 0.0200699 0)
(1.10328 0.0135922 0)
(1.10882 0.0118034 0)
(1.12097 0.00878591 0)
(1.12483 0.00818328 0)
(1.13375 0.00639956 0)
(1.13632 0.00622703 0)
(1.14295 0.00488082 0)
(1.14447 0.00487948 0)
(1.14943 0.00369142 0)
(1.15013 0.00375778 0)
(0.983594 0.105471 0)
(1.13125 0.0793032 0)
(1.16013 0.0607941 0)
(1.18773 0.0510805 0)
(1.20378 0.0429834 0)
(1.22022 0.0396631 0)
(1.23061 0.0356479 0)
(1.24052 0.0340261 0)
(1.24708 0.0319266 0)
(1.25329 0.031338 0)
(1.25779 0.0298858 0)
(1.26193 0.0296765 0)
(1.26496 0.0285547 0)
(1.26772 0.0284332 0)
(1.26972 0.0275816 0)
(0.982389 0.210089 0)
(1.03394 0.192288 -4.90328e-23)
(1.06909 0.192856 2.1459e-20)
(1.09765 0.173673 -9.21116e-21)
(1.12838 0.166544 -4.84432e-22)
(0.994416 0.184056 -4.27292e-21)
(1.06057 0.182712 -2.64345e-21)
(1.05717 0.176713 -9.15626e-21)
(1.12274 0.16447 6.16192e-21)
(1.09292 0.154377 -2.38312e-21)
(1.01738 0.163068 1.25904e-21)
(1.06257 0.163627 2.22675e-21)
(1.0629 0.149833 -6.23703e-21)
(1.11636 0.136918 -5.24951e-21)
(1.08868 0.130371 0)
(1.03597 0.143649 2.10984e-21)
(1.0615 0.144803 -1.72238e-21)
(1.07451 0.132107 5.28775e-21)
(1.09783 0.12144 -2.80464e-21)
(1.09427 0.119651 5.57635e-23)
(1.04652 0.125748 0)
(1.06261 0.125432 2.33851e-21)
(1.07852 0.115046 6.21862e-23)
(1.08396 0.105303 2.4741e-21)
(1.09505 0.104649 0)
(1.05426 0.109716 1.17218e-23)
(1.06555 0.108096 -8.28746e-22)
(1.07849 0.100261 -2.62143e-23)
(1.07896 0.0921534 8.62178e-23)
(1.0905 0.0916097 1.73456e-22)
(1.06121 0.0979048 -1.81754e-21)
(1.06917 0.0948549 0)
(1.07907 0.0885767 1.70969e-22)
(1.0788 0.0822128 -2.24515e-23)
(1.08684 0.0797622 -2.01056e-22)
(1.06775 0.0843567 1.56599e-21)
(1.07416 0.0808446 -1.53908e-21)
(1.08116 0.0758093 -1.48986e-22)
(1.08119 0.0707822 5.31152e-22)
(1.08615 0.0677037 -9.44406e-23)
(1.07134 0.0773507 1.32615e-22)
(1.07694 0.0736019 1.21008e-21)
(1.08256 0.069119 -9.91888e-22)
(1.08304 0.065248 -3.59257e-22)
(1.08674 0.0619082 9.77441e-23)
(1.07957 0.058832 2.85554e-21)