/*--------------------------------*- C++ -*----------------------------------*\
| =========                 |                                                 |
| \\      /  F ield         | OpenFOAM: The Open Source CFD Toolbox           |
|  \\    /   O peration     | Version:  2512                                  |
|   \\  /    A nd           | Website:  www.openfoam.com                      |
|    \\/     M anipulation  |                                                 |
\*---------------------------------------------------------------------------*/
FoamFile
{
    version     2.0;
    format      ascii;
    arch        "LSB;label=32;scalar=64";
    class       surfaceScalarField;
    location    "54.35";
    object      phi;
}
// * * * * * * * * * * * * * * * * * * * * * * * * * * * * * * * * * * * * * //

dimensions      [0 3 -1 0 0 0 0];

oriented        oriented;

internalField   nonuniform List<scalar> 
26232
(
-0.000288984
0.00174185
-0.00145287
-0.00049029
0.00356908
-0.00336778
-0.000132336
0.0040378
-0.00439575
0.00119393
0.00314798
-0.00447425
0.00392104
0.000746975
-0.00347408
0.00849508
-0.00336439
-0.00120965
0.0153433
-0.00934988
0.00250162
0.0247412
-0.0172065
0.00780861
0.0366756
-0.0266853
0.0147509
0.0507648
-0.0372927
0.0232036
0.0662779
-0.0483789
0.0328658
0.0822481
-0.0592623
0.0432921
0.097637
-0.0693456
0.0539568
0.111511
-0.0782002
0.0643263
0.123198
-0.0856144
0.0739268
0.1324
-0.0916029
0.0824018
0.139233
-0.0963817
0.0895488
0.144138
-0.100295
0.0953896
0.14781
-0.103704
0.100032
0.150779
-0.106957
0.103988
0.153594
-0.110022
0.107208
0.156052
-0.113389
0.110931
0.157733
-0.115571
0.11389
-0.119049
0.118784
0.157998
-0.000194738
0.00193659
-0.000125659
0.0035
0.000747335
0.0031648
0.00296258
0.000932732
0.00706032
-0.00335076
0.0135365
-0.00984053
0.0226836
-0.018497
0.0344175
-0.0289404
0.0481938
-0.0404615
0.0630832
-0.0521821
0.0779678
-0.0632635
0.0917784
-0.0730729
0.103703
-0.0812706
0.113327
-0.0878234
0.120666
-0.0929533
0.126104
-0.0970411
0.130221
-0.100499
0.133593
-0.103667
0.136629
-0.106739
0.139455
-0.109783
0.142183
-0.112751
0.144502
-0.115708
0.147221
-0.11829
-0.121756
0.149927
-4.58263e-05
0.00198242
0.000453461
0.00300071
0.00210931
0.00150895
0.00554879
-0.00250675
0.0113583
-0.00916032
0.019903
-0.0183852
0.0310898
-0.0296837
0.0442583
-0.042109
0.0583116
-0.0545148
0.0720132
-0.0658836
0.0843033
-0.0755536
0.0945247
-0.0832943
0.102509
-0.0892551
0.108519
-0.0938333
0.113076
-0.0975106
0.116744
-0.100709
0.119953
-0.103708
0.122935
-0.106649
0.125751
-0.109555
0.12843
-0.112462
0.130966
-0.115287
0.133475
-0.118217
0.136025
-0.12084
-0.12398
0.138249
0.000128903
0.00185352
0.00116061
0.001969
0.00378156
-0.00111199
0.00866811
-0.00739329
0.0163062
-0.0167984
0.0266789
-0.028758
0.0390792
-0.042084
0.0522749
-0.0553047
0.0649239
-0.0671638
0.0759799
-0.0769397
0.0849217
-0.0844954
0.0917674
-0.09014
0.0969171
-0.0944048
0.100916
-0.0978321
0.104243
-0.100838
0.107206
-0.103672
0.109953
-0.106456
0.112537
-0.109233
0.115012
-0.112031
0.117397
-0.114847
0.119797
-0.117687
0.122167
-0.120587
0.12466
-0.123334
-0.126607
0.127288
0.000314751
0.00153876
0.00196115
0.000322604
0.0056864
-0.00483724
0.0121193
-0.0138262
0.0214131
-0.0260922
0.0329146
-0.0402595
0.045297
-0.0544664
0.0570983
-0.0671059
0.0672431
-0.0773087
0.075283
-0.0849795
0.0813394
-0.0905518
0.0858684
-0.094669
0.0893959
-0.0979323
0.092339
-0.100775
0.0949554
-0.103454
0.097383
-0.106099
0.099695
-0.108768
0.101947
-0.111485
0.104166
-0.114249
0.106378
-0.117059
0.108591
-0.1199
0.110787
-0.122782
0.113079
-0.125626
-0.128742
0.115214
0.000527823
0.00101094
0.00287052
-0.00202009
0.00778674
-0.00975347
0.0156754
-0.0217149
0.0260833
-0.0365001
0.0376667
-0.0518429
0.0488183
-0.0656181
0.058357
-0.0766446
0.0658182
-0.0847699
0.0713509
-0.0905122
0.0754257
-0.0946266
0.0785552
-0.0977985
0.0811367
-0.100514
0.0834211
-0.10306
0.0855493
-0.105582
0.0875941
-0.108144
0.0895916
-0.110765
0.091551
-0.113444
0.0934797
-0.116178
0.0953822
-0.118962
0.0972792
-0.121797
0.0991908
-0.124694
0.101172
-0.127608
-0.130739
0.10317
0.000781791
0.000229151
0.0038922
-0.00513049
0.00998388
-0.0158452
0.0189704
-0.0307014
0.0296528
-0.0471825
0.0402805
-0.0624705
0.0494666
-0.0748042
0.0566209
-0.0837989
0.0618455
-0.0899945
0.0656005
-0.0942672
0.0684002
-0.0974264
0.0706499
-0.100048
0.0726095
-0.102473
0.0744217
-0.104872
0.0761535
-0.107314
0.0778317
-0.109822
0.0794659
-0.112399
0.0810674
-0.115046
0.0826501
-0.117761
0.0842324
-0.120544
0.0858316
-0.123396
0.0874449
-0.126307
0.0891086
-0.129271
-0.132358
0.0907273
0.00107647
-0.00084732
0.0049825
-0.00903652
0.012072
-0.0229347
0.0215543
-0.0401837
0.0316393
-0.0572675
0.0406436
-0.0714748
0.0477171
-0.0818778
0.0528261
-0.0889079
0.0563907
-0.093559
0.0589353
-0.0968118
0.0608909
-0.099382
0.0625381
-0.101695
0.0640291
-0.103964
0.0654337
-0.106276
0.066781
-0.108661
0.0680853
-0.111127
0.0693585
-0.113673
0.0706104
-0.116298
0.0718497
-0.119
0.0730839
-0.121778
0.0743177
-0.12463
0.0755651
-0.127555
0.0768469
-0.130553
-0.133641
0.0781304
0.00139878
-0.0022461
0.00604891
-0.0136867
0.0137832
-0.030669
0.023073
-0.0494735
0.0319314
-0.0661259
0.0390968
-0.0786403
0.0442746
-0.0870556
0.0477882
-0.0924215
0.0501644
-0.0959353
0.0518718
-0.0985192
0.0532256
-0.100736
0.0543994
-0.102869
0.0554745
-0.105039
0.0564859
-0.107288
0.0574496
-0.109625
0.0583751
-0.112052
0.0592689
-0.114566
0.0601381
-0.117167
0.0609914
-0.119853
0.0618388
-0.122626
0.0626923
-0.125484
0.0635601
-0.128423
0.0644482
-0.131441
-0.134525
0.0653314
0.00172248
-0.00396858
0.00696958
-0.0189338
0.0148825
-0.0385819
0.0234013
-0.0579923
0.0307352
-0.0734597
0.0361511
-0.0840563
0.0397691
-0.0906736
0.0420824
-0.0947347
0.0435999
-0.0974529
0.0446881
-0.0996074
0.0455567
-0.101604
0.0463069
-0.103619
0.0469822
-0.105715
0.0476008
-0.107906
0.048172
-0.110196
0.0487026
-0.112583
0.0492003
-0.115064
0.0496736
-0.11764
0.0501309
-0.12031
0.05058
-0.123075
0.0510265
-0.12593
0.051478
-0.128874
0.0519392
-0.131902
-0.134996
0.0524104
0.00201618
-0.00598476
0.00762743
-0.024545
0.0152486
-0.0462031
0.0226322
-0.0653758
0.0284019
-0.0792295
0.0322923
-0.0879466
0.0346756
-0.0930568
0.0360839
-0.0961431
0.0369482
-0.0983171
0.037532
-0.100191
0.0379673
-0.10204
0.0383113
-0.103963
0.0385871
-0.10599
0.0388055
-0.108125
0.038974
-0.110365
0.0390995
-0.112708
0.039189
-0.115154
0.0392492
-0.1177
0.0392875
-0.120349
0.0393112
-0.123099
0.0393289
-0.125948
0.0393461
-0.128891
0.0393613
-0.131917
-0.135012
0.0393772
0.00225347
-0.00823823
0.00794819
-0.0302397
0.0148998
-0.0531546
0.0209882
-0.0714643
0.0253008
-0.083542
0.0279168
-0.0905626
0.0293277
-0.0944678
0.0300282
-0.0968435
0.0303552
-0.0986442
0.0304887
-0.100325
0.0305085
-0.102059
0.0304465
-0.103902
0.0303166
-0.105861
0.0301264
-0.107935
0.0298822
-0.110121
0.0295898
-0.112416
0.0292551
-0.114819
0.0288849
-0.11733
0.0284863
-0.11995
0.0280668
-0.122679
0.0276335
-0.125515
0.0271929
-0.128451
0.0267477
-0.131472
0.0263112
-0.134575
2.15243e-05
0.00430721
-0.00432874
-0.00020093
0.010984
-0.0107615
-0.000821962
0.0158466
-0.0152255
-0.00184445
0.0190911
-0.0180686
-0.00318872
0.0212201
-0.0198759
-0.00475133
0.0227845
-0.0212219
-0.00643952
0.0241947
-0.0225065
-0.00818187
0.0256682
-0.0239259
-0.0099201
0.0272624
-0.0255242
-0.0115953
0.0289346
-0.0272594
-0.013137
0.0305873
-0.0290456
-0.0144587
0.0320902
-0.0307685
-0.0154577
0.0332885
-0.0322895
-0.0160189
0.0340093
-0.0334481
-0.016035
0.0340814
-0.0340653
-0.0153896
0.0333052
-0.0339505
-0.0139934
0.0315207
-0.0329169
-0.0117857
0.0285837
-0.0307914
-0.00874329
0.024382
-0.0274244
-0.00488202
0.0188385
-0.0226998
-0.000265803
0.0119201
-0.0165364
0.00506743
0.00355285
-0.00888608
0.0110252
-0.00619963
0.000241873
-0.0173898
0.0177737
0.0106412
0.000237873
0.00406934
0.00049622
0.0107256
0.000507597
0.0158352
0.000185431
0.0194133
-0.000417283
0.0218229
-0.00117995
0.0235471
-0.00197337
0.0249881
-0.00268465
0.0263795
-0.003219
0.0277968
-0.00349013
0.0292057
-0.00341093
0.0305081
-0.00289016
0.0315694
-0.00183564
0.032234
-0.000160234
0.0323339
0.00223355
0.0316876
0.00538843
0.0301503
0.00933324
0.0275759
0.0140622
0.0238548
0.0195285
0.0189157
0.0256496
0.0127174
0.0322805
0.00528926
0.0393369
-0.00350355
0.0466453
-0.0135081
-0.0251113
0.0543669
0.000420443
0.0036489
0.00113344
0.0100126
0.00178527
0.0151834
0.00221681
0.0189817
0.00243857
0.0216011
0.00256517
0.0234205
0.00274955
0.0248037
0.00313939
0.0259897
0.00386143
0.0270747
0.00502339
0.0280438
0.00672055
0.0288109
0.00903931
0.0292507
0.0120559
0.0292174
0.0158314
0.0285585
0.0203938
0.0271252
0.0257578
0.0247863
0.0318985
0.0214352
0.0387535
0.0169998
0.0462251
0.0114441
0.0541504
0.00479199
0.0625081
-0.00306843
0.0712414
-0.0122368
0.0801066
-0.0223733
-0.0345522
0.0895475
0.000543065
0.00310583
0.00162087
0.00893482
0.00284821
0.013956
0.00400763
0.0178223
0.00505557
0.0205532
0.00607904
0.0223971
0.00723084
0.0236519
0.00867612
0.0245444
0.010563
0.0251878
0.0130138
0.025593
0.0161258
0.025699
0.0199739
0.0254026
0.0246102
0.024581
0.0300608
0.0231078
0.0363224
0.0208636
0.0433573
0.0177514
0.0511039
0.0136886
0.0594397
0.00866391
0.0682509
0.00263294
0.0775692
-0.00452634
0.0872788
-0.012778
0.0974557
-0.0224137
0.107958
-0.0328758
-0.0461604
0.119566
0.000591484
0.00251435
0.00189314
0.00763316
0.00354912
0.0123
0.00531647
0.016055
0.00710103
0.0187686
0.00894371
0.0205544
0.0109707
0.0216249
0.0133401
0.0221751
0.0162034
0.0223245
0.0196869
0.0221095
0.0238851
0.0215008
0.0288601
0.0204276
0.0346419
0.0187993
0.0412276
0.0165221
0.0485836
0.0135076
0.0566385
0.00969657
0.0653286
0.00499847
0.0745195
-0.000527068
0.0844168
-0.00726432
0.0947332
-0.0148428
0.105786
-0.0238311
0.117641
-0.0342681
0.130398
-0.0456327
-0.0602388
0.144476
0.000565501
0.00194885
0.00192363
0.00627503
0.00379886
0.0104248
0.00596532
0.0138885
0.00829899
0.0164349
0.0107919
0.0180615
0.0135252
0.0188917
0.0166254
0.0190748
0.0202264
0.0187235
0.0244434
0.0178924
0.0293612
0.0165831
0.0350292
0.0147596
0.0414636
0.0123649
0.0486513
0.0093344
0.0565647
0.0055942
0.0651247
0.00113661
0.074458
-0.00433489
0.0845234
-0.0105924
0.0955121
-0.018253
0.107399
-0.0267292
0.120783
-0.0372156
0.135234
-0.0487187
0.151188
-0.061587
-0.076677
0.167626
0.000475684
0.00147316
0.00172518
0.00502553
0.00358422
0.0085658
0.00588219
0.0115905
0.00849619
0.0138209
0.0113837
0.0151739
0.0145781
0.0156973
0.0181614
0.0154914
0.0222333
0.0146517
0.026886
0.0132397
0.0321921
0.011277
0.0382017
0.00874995
0.0449505
0.00561618
0.0524581
0.00182675
0.0608286
-0.00277627
0.0701937
-0.00822851
0.080644
-0.0147852
0.09241
-0.0223584
0.105744
-0.031587
0.120597
-0.0415824
0.13723
-0.0538486
0.154477
-0.0659654
0.172689
-0.0797994
-0.0930508
0.189063
0.000337245
0.00113592
0.00133947
0.00402331
0.00296381
0.00694145
0.00511823
0.00943613
0.00770965
0.0112295
0.010685
0.0121986
0.0140443
0.0123381
0.0178309
0.0117048
0.022115
0.0103676
0.0269798
0.00837486
0.0325182
0.00573861
0.0388353
0.0024328
0.0460887
-0.00163725
0.0544836
-0.0065681
0.064205
-0.0124977
0.0755305
-0.019554
0.0886077
-0.0278624
0.1036
-0.037351
0.120243
-0.0482295
0.138245
-0.0595845
0.156767
-0.0723704
0.174501
-0.0836995
0.191067
-0.0963658
-0.105323
0.20334
0.000166033
0.000969886
0.000825142
0.0033642
0.00205226
0.00571433
0.00384115
0.00764723
0.0061486
0.00892205
0.00893945
0.0094077
0.0122131
0.00906442
0.0160138
0.00790415
0.0204341
0.00594724
0.0256186
0.00319033
0.0317704
-0.000413159
0.0391553
-0.00495207
0.0480477
-0.0105297
0.0587291
-0.0172496
0.0713852
-0.0251537
0.0860772
-0.034246
0.102571
-0.0443565
0.120519
-0.055299
0.138966
-0.0666765
0.157275
-0.0778932
0.173794
-0.0888898
0.187912
-0.0978168
0.198477
-0.106932
-0.111215
0.204369
-1.83441e-05
0.00098823
0.000261194
0.00308466
0.00102201
0.00495351
0.0023442
0.00632505
0.0042529
0.00701334
0.00677237
0.00688823
0.00996487
0.00587192
0.013959
0.00391006
0.0189632
0.000942993
0.0252622
-0.00310871
0.033181
-0.00833195
0.04302
-0.014791
0.0549782
-0.0224878
0.0690708
-0.0313422
0.0850704
-0.0411533
0.102486
-0.0516614
0.120557
-0.0624279
0.138382
-0.0731237
0.154806
-0.0831009
0.169095
-0.0921822
0.17999
-0.0997844
0.18789
-0.105717
0.191888
-0.11093
-0.112938
0.193611
-0.000182611
0.00117084
-0.000233714
0.00313577
0.000129948
0.00458985
0.00107832
0.00537668
0.00274156
0.0053501
0.0052628
0.004367
0.00884384
0.00229087
0.0137662
-0.00101229
0.0203652
-0.00565601
0.0289695
-0.0117131
0.0398025
-0.0191649
0.052888
-0.0278765
0.0679888
-0.0375886
0.0845877
-0.0479411
0.101931
-0.0584964
0.11908
-0.0688109
0.135062
-0.0784093
0.148942
-0.0870044
0.160046
-0.0942047
0.168121
-0.100257
0.173161
-0.104824
0.17643
-0.108985
0.177848
-0.112348
-0.114763
0.179672
-0.000282029
-0.000514039
-0.000319938
0.000582488
0.00245851
0.00561586
0.0104083
0.0172047
0.0262995
0.03779
0.0514908
0.0669064
0.0832746
0.0996597
0.11509
0.128681
0.139821
0.148206
0.154033
0.157764
0.160148
0.162093
0.163635
0.167656
0.02509
-0.0395614
0.0322451
0.0326089
-0.0636626
0.0561438
0.0406517
-0.0891202
0.0810774
0.0489812
-0.113508
0.105178
0.0570157
-0.134087
0.126053
0.0638531
-0.148179
0.141342
0.0678556
-0.154707
0.150704
0.0666995
-0.155385
0.156541
0.0601554
-0.155654
0.162198
0.0528547
-0.159176
0.166477
0.0515739
-0.16032
0.161601
0.0597069
-0.146753
0.138619
0.0745285
-0.110586
0.095765
0.0915297
-0.0546184
0.0376172
0.108438
0.0123824
-0.0292905
0.123999
0.0790487
-0.09461
0.137059
0.131435
-0.144494
0.146225
0.162724
-0.17189
0.151076
0.177091
-0.181941
0.153377
0.181094
-0.183395
0.154992
0.178121
-0.179736
0.155187
0.177119
-0.177314
0.152207
0.191123
-0.188143
0.146404
0.217976
-0.212173
0.140889
0.230273
-0.224759
0.139112
0.194304
-0.192527
0.142553
0.102613
-0.106054
0.149836
-0.0161481
0.00886492
0.157295
-0.123425
0.115966
0.162885
-0.19726
0.19167
0.167619
-0.230791
0.226057
0.171719
-0.233945
0.229844
0.172523
-0.241502
0.240699
0.168317
-0.277201
0.281408
0.161109
-0.312577
0.319784
0.153777
-0.28869
0.296021
0.147995
-0.179818
0.185601
0.144772
-0.0167141
0.0199371
0.14385
0.141888
-0.140967
0.142435
0.255417
-0.254001
0.13571
0.326266
-0.319541
0.123364
0.364288
-0.351943
0.109524
0.357449
-0.343609
0.0977711
0.291593
-0.27984
0.0906361
0.176136
-0.169001
0.0899904
0.0371351
-0.0364894
0.0949868
-0.089643
0.0846465
0.100784
-0.181208
0.175411
0.103593
-0.244201
0.241393
0.103147
-0.276174
0.27662
0.102425
-0.280261
0.280983
0.103943
-0.222677
0.221159
0.108775
-0.142877
0.138045
0.11569
-0.0274787
0.0205634
0.122834
0.0544634
-0.0616066
0.128872
0.122132
-0.12817
0.132337
0.16624
-0.169705
0.130383
0.162407
-0.160454
0.130329
0.185955
-0.185901
0.0849508
-0.0894819
0.0586304
-0.0438249
0.0631695
-0.0682017
0.0677796
-0.0937303
0.0722018
-0.11793
0.0760824
-0.137968
0.0791097
-0.151207
0.0807695
-0.156367
0.0792847
-0.1539
0.0718155
-0.148184
0.0592574
-0.146618
0.0484378
-0.149501
0.0468245
-0.145139
0.0560944
-0.119856
0.0722927
-0.0708167
0.0914177
-0.0067426
0.110862
0.0596043
0.128296
0.114001
0.141497
0.149523
0.149885
0.168703
0.155227
0.175751
0.159255
0.174094
0.161665
0.174708
0.161361
0.191428
0.158548
0.220789
0.155272
0.233549
0.153824
0.195753
0.155324
0.101112
0.159367
-0.0201906
0.163413
-0.127471
0.165637
-0.199484
0.167129
-0.232283
0.168438
-0.235254
0.166507
-0.239571
0.159104
-0.269798
0.149126
-0.302599
0.141093
-0.280657
0.136969
-0.175693
0.137438
-0.0171833
0.14055
0.138776
0.141976
0.253991
0.137023
0.331219
0.12591
0.375402
0.112532
0.370827
0.100179
0.303946
0.0913985
0.184916
0.0889382
0.0395953
0.0930524
-0.0937571
0.0991243
-0.18728
0.102644
-0.247721
0.103317
-0.276848
0.103494
-0.280438
0.105482
-0.224665
0.110352
-0.147747
0.117342
-0.0344683
0.12439
0.0474156
0.129612
0.116909
0.132045
0.163807
0.129146
0.165307
0.129573
0.185528
0.079637
0.0921722
-0.0464496
0.094635
-0.0706644
0.0966993
-0.0957946
0.0980534
-0.119284
0.0980924
-0.138007
0.0960849
-0.149199
0.0926817
-0.152963
0.0889403
-0.150158
0.0823499
-0.141594
0.0693179
-0.133586
0.052851
-0.133034
0.0419424
-0.134231
0.0432327
-0.121147
0.0559671
-0.0835512
0.0755785
-0.026354
0.0979211
0.0372617
0.119043
0.0928788
0.135934
0.132632
0.147846
0.15679
0.15632
0.167277
0.162932
0.167482
0.16789
0.16975
0.170646
0.188672
0.171138
0.220297
0.170313
0.234374
0.169068
0.196997
0.16823
0.10195
0.168631
-0.0205912
0.169148
-0.127988
0.168069
-0.198406
0.166354
-0.230568
0.164981
-0.233881
0.160765
-0.235355
0.150769
-0.259802
0.138199
-0.290029
0.129431
-0.271888
0.127027
-0.17329
0.130965
-0.0211206
0.137924
0.131816
0.142203
0.249712
0.139267
0.334155
0.129674
0.384995
0.116895
0.383606
0.103794
0.317047
0.0932179
0.195492
0.0886489
0.0441643
0.0915952
-0.0967034
0.0977993
-0.193485
0.101899
-0.25182
0.103495
-0.278444
0.104678
-0.281621
0.107317
-0.227303
0.112253
-0.152684
0.119246
-0.0414616
0.126106
0.0405557
0.130296
0.112719
0.131568
0.162535
0.128047
0.168828
0.129245
0.18433
0.0735596
0.122214
-0.0490978
0.123985
-0.0724353
0.124257
-0.0960659
0.122685
-0.117712
0.119088
-0.134411
0.113269
-0.143379
0.105254
-0.144949
0.0970985
-0.142003
0.0902234
-0.134719
0.0802456
-0.123608
0.0635565
-0.116345
0.046177
-0.116851
0.0384874
-0.113457
0.0450527
-0.0901165
0.0626514
-0.0439527
0.0860897
0.0138235
0.109696
0.0692725
0.129705
0.112623
0.144948
0.141547
0.156455
0.155771
0.165595
0.158341
0.173048
0.162297
0.178816
0.182904
0.182714
0.216399
0.184642
0.232446
0.183956
0.197683
0.180741
0.105165
0.177518
-0.0173686
0.174525
-0.124995
0.170225
-0.194106
0.16547
-0.225813
0.161565
-0.229977
0.15546
-0.22925
0.14354
-0.247882
0.128784
-0.275273
0.119067
-0.262172
0.118454
-0.172677
0.125626
-0.0282923
0.135993
0.121449
0.143013
0.242692
0.142275
0.334893
0.134355
0.392915
0.122248
0.395713
0.108462
0.330832
0.0961072
0.207847
0.0892646
0.051007
0.0906664
-0.0981052
0.096811
-0.199629
0.101426
-0.256435
0.103672
-0.28069
0.105828
-0.283776
0.109372
-0.230847
0.114518
-0.15783
0.12142
-0.0483633
0.127899
0.0340762
0.130869
0.109748
0.130939
0.162465
0.127146
0.172621
0.129376
0.1821
0.0667604
0.147349
-0.0519705
0.148459
-0.0735458
0.146862
-0.0944685
0.142139
-0.112989
0.134561
-0.126833
0.125312
-0.134131
0.115026
-0.134663
0.103921
-0.130898
0.0945804
-0.125378
0.0871373
-0.116165
0.0754747
-0.104682
0.0576673
-0.0990438
0.0426768
-0.0984665
0.0408071
-0.0882468
0.0534824
-0.0566279
0.0755669
-0.00826106
0.100034
0.0448053
0.12235
0.0903074
0.140596
0.123301
0.155005
0.141362
0.166606
0.146741
0.176416
0.152487
0.185028
0.174292
0.192234
0.209194
0.196787
0.227893
0.196814
0.197656
0.192161
0.109818
0.185656
-0.010864
0.179144
-0.118482
0.171857
-0.186819
0.164373
-0.218329
0.158211
-0.223815
0.150725
-0.221763
0.137647
-0.234804
0.121185
-0.258811
0.110231
-0.251218
0.110633
-0.173078
0.120699
-0.038358
0.134413
0.107734
0.144365
0.23274
0.14615
0.333108
0.140164
0.398901
0.128705
0.407172
0.114174
0.345363
0.100095
0.221926
0.0908773
0.0602251
0.0903387
-0.0975666
0.0961114
-0.205402
0.101248
-0.261572
0.103894
-0.283337
0.106796
-0.286678
0.111443
-0.235494
0.117044
-0.163431
0.123792
-0.0551109
0.129663
0.0282048
0.131294
0.108118
0.130216
0.163543
0.126496
0.176341
0.129957
0.178639
0.0592983
0.169852
-0.0541964
0.169349
-0.0730429
0.165135
-0.0902542
0.157189
-0.105044
0.146079
-0.115723
0.133251
-0.121302
0.120897
-0.12231
0.109294
-0.119295
0.0984055
-0.11449
0.0905561
-0.108316
0.0838228
-0.0979486
0.0716345
-0.0868555
0.0549542
-0.0817862
0.0446989
-0.0779915
0.0493007
-0.0612298
0.0666953
-0.0256556
0.0903362
0.0211643
0.113832
0.0668117
0.134429
0.102703
0.151361
0.12443
0.165091
0.133011
0.176889
0.140689
0.188009
0.163172
0.198244
0.198958
0.205253
0.220885
0.206148
0.196761
0.200693
0.115272
0.192008
-0.00217825
0.182682
-0.109156
0.172887
-0.177024
0.16311
-0.208552
0.154969
-0.215674
0.146474
-0.213269
0.13305
-0.22138
0.115607
-0.241367
0.103266
-0.238877
0.103863
-0.173675
0.116109
-0.0506048
0.132913
0.0909308
0.145809
0.219844
0.150164
0.328753
0.146273
0.402793
0.135777
0.417668
0.120811
0.360329
0.105137
0.2376
0.0935631
0.0717987
0.0907414
-0.0947449
0.0956845
-0.210345
0.101318
-0.267205
0.104236
-0.286255
0.107515
-0.289956
0.113271
-0.241251
0.1196
-0.16976
0.12621
-0.0617206
0.131285
0.0231303
0.131549
0.107853
0.129474
0.165618
0.126137
0.179678
0.130956
0.17382
0.0512442
0.188621
-0.0537541
0.184856
-0.0692785
0.177116
-0.0825139
0.165861
-0.0937889
0.152352
-0.102213
0.137854
-0.106804
0.123983
-0.108439
0.112205
-0.107516
0.101787
-0.104071
0.0929336
-0.0994626
0.0875061
-0.0925211
0.0820144
-0.0813638
0.0706212
-0.070393
0.0568242
-0.0641944
0.0519028
-0.0563084
0.0614315
-0.0351843
0.0818394
0.000756396
0.105347
0.0433039
0.127647
0.0804032
0.146635
0.105441
0.161941
0.117705
0.17491
0.127721
0.18768
0.150401
0.200415
0.186223
0.20984
0.21146
0.21195
0.194651
0.206297
0.120926
0.196262
0.00785671
0.184951
-0.0978456
0.173178
-0.165251
0.161571
-0.196945
0.151822
-0.205925
0.142652
-0.204099
0.129493
-0.208221
0.111888
-0.223762
0.0982677
-0.225257
0.0982477
-0.173655
0.111784
-0.064141
0.131163
0.071552
0.147217
0.20379
0.154765
0.321204
0.153163
0.404395
0.143551
0.42728
0.128097
0.375783
0.110975
0.254721
0.097182
0.0855923
0.0919429
-0.0895059
0.0955698
-0.213972
0.101555
-0.273191
0.104755
-0.289455
0.10802
-0.293221
0.114639
-0.24787
0.121889
-0.17701
0.12847
-0.0683009
0.132655
0.0189445
0.131633
0.108876
0.128787
0.168463
0.126107
0.182359
0.132338
0.167588
0.0426771
0.199104
-0.0495178
0.191544
-0.061719
0.180686
-0.0716562
0.167329
-0.0804313
0.15282
-0.0877047
0.138672
-0.092656
0.12553
-0.0952966
0.114052
-0.0960386
0.104582
-0.0946011
0.0961558
-0.0910364
0.0896496
-0.0860149
0.0864492
-0.0781635
0.0824873
-0.0664311
0.073085
-0.0547921
0.0629937
-0.0462171
0.0625786
-0.0347693
0.0754943
-0.0121593
0.096981
0.0218173
0.120186
0.0571982
0.140908
0.0847196
0.15753
0.101083
0.171248
0.114003
0.184878
0.136771
0.199103
0.171998
0.210285
0.200278
0.213765
0.191171
0.20878
0.12591
0.198403
0.0182343
0.18594
-0.0853827
0.172729
-0.15204
0.159729
-0.183945
0.148712
-0.194908
0.139091
-0.194478
0.12666
-0.19579
0.109705
-0.206807
0.0951285
-0.210681
0.0937461
-0.172272
0.107574
-0.0779687
0.128943
0.0501832
0.147891
0.184842
0.158625
0.31047
0.159658
0.403361
0.151605
0.435334
0.136228
0.391159
0.117695
0.273254
0.101706
0.101582
0.0939816
-0.0817815
0.0958558
-0.215846
0.101888
-0.279223
0.105449
-0.293015
0.108416
-0.296188
0.11544
-0.254894
0.123633
-0.185203
0.130349
-0.0750169
0.133681
0.0156124
0.131548
0.111009
0.128221
0.17179
0.126434
0.184145
0.134075
0.159948
0.0336809
0.197477
-0.0426263
0.18787
-0.0521118
0.17611
-0.0598962
0.163153
-0.067474
0.1498
-0.0743518
0.136997
-0.0798536
0.12539
-0.0836895
0.114988
-0.0856369
0.106095
-0.0857075
0.0987434
-0.0836849
0.0923974
-0.0796689
0.0881828
-0.0739489
0.0870007
-0.0652489
0.0850152
-0.0528065
0.0785538
-0.0397557
0.0723962
-0.0286117
0.0753831
-0.0151462
0.0900532
0.00714714
0.111095
0.0361568
0.13227
0.063544
0.149968
0.0833855
0.164647
0.0993235
0.179299
0.122119
0.194981
0.156316
0.20778
0.187479
0.212548
0.186403
0.208517
0.129942
0.19829
0.0284614
0.185451
-0.0725444
0.171404
-0.137992
0.157463
-0.170004
0.145553
-0.182999
0.135627
-0.184551
0.12413
-0.184294
0.108474
-0.191151
0.0935499
-0.195756
0.0903196
-0.169042
0.103345
-0.0909938
0.126053
0.0274751
0.148056
0.162839
0.162677
0.295849
0.166695
0.399344
0.15979
0.442238
0.144245
0.406704
0.1246
0.2929
0.106735
0.119446
0.0967099
-0.0717562
0.0966011
-0.215737
0.102258
-0.28488
0.106234
-0.296991
0.108803
-0.298758
0.115691
-0.261781
0.124638
-0.19415
0.131654
-0.0820334
0.134287
0.0129792
0.131309
0.113987
0.127825
0.175275
0.127143
0.184827
0.136144
0.150947
0.0243432
0.186586
-0.0356012
0.177589
-0.0431144
0.167303
-0.0496107
0.15641
-0.0565811
0.145366
-0.0633075
0.134541
-0.0690281
0.124335
-0.0734833
0.115068
-0.0763704
0.106825
-0.0774644
0.0999211
-0.0767811
0.0944239
-0.0741718
0.0900332
-0.0695582
0.0879426
-0.0631584
0.0887074
-0.0535713
0.0888158
-0.0398641
0.0854838
-0.0252796
0.0827936
-0.012456
0.088057
0.0018837
0.101952
0.0222622
0.11972
0.0457751
0.136732
0.0663739
0.152545
0.0835109
0.16911
0.105553
0.186261
0.139165
0.200147
0.173594
0.206669
0.17988
0.204951
0.131659
0.196589
0.0368231
0.183936
-0.0598915
0.169345
-0.123401
0.154712
-0.15537
0.142154
-0.170441
0.132079
-0.174477
0.121576
-0.17379
0.107641
-0.177217
0.0931304
-0.181245
0.0879851
-0.163897
0.0991525
-0.102161
0.122241
0.004387
0.146528
0.138552
0.1646
0.277776
0.172324
0.39162
0.168052
0.44651
0.153418
0.421339
0.132649
0.313668
0.112559
0.139537
0.100138
-0.0593352
0.0978162
-0.213416
0.1026
-0.289663
0.106973
-0.301364
0.109224
-0.301009
0.115506
-0.268064
0.12483
-0.203474
0.132251
-0.0894545
0.134421
0.0108092
0.130924
0.117484
0.127627
0.178573
0.128243
0.184211
0.138529
0.140661
0.0147541
0.17408
-0.0300085
0.166788
-0.035823
0.158518
-0.0413404
0.149594
-0.0476568
0.140245
-0.0539587
0.13085
-0.0596333
0.121702
-0.0643347
0.113159
-0.0678276
0.105543
-0.0698484
0.0990597
-0.070298
0.0940822
-0.0691943
0.0905024
-0.0659785
0.0881029
-0.0607589
0.0880529
-0.0535213
0.090737
-0.0425482
0.0934707
-0.0280133
0.0940391
-0.0130245
0.095213
0.000709796
0.100416
0.017059
0.110537
0.0356545
0.122748
0.054163
0.136816
0.0694427
0.154452
0.0879172
0.174405
0.119213
0.191182
0.156817
0.199754
0.171309
0.199868
0.131545
0.192656
0.0440353
0.180575
-0.0478104
0.166044
-0.10887
0.151286
-0.140612
0.138444
-0.157599
0.128392
-0.164426
0.118854
-0.164251
0.106781
-0.165144
0.0933851
-0.167849
0.0867241
-0.157236
0.0951629
-0.1106
0.117841
-0.0182907
0.144736
0.111657
0.166809
0.255703
0.178064
0.380364
0.175727
0.448848
0.161181
0.435885
0.139749
0.335101
0.118316
0.16097
0.103885
-0.0449042
0.0994714
-0.209002
0.103136
-0.293328
0.107739
-0.305967
0.109792
-0.303062
0.11511
-0.273382
0.124288
-0.212651
0.132087
-0.0972538
0.134061
0.00883533
0.130423
0.121122
0.127658
0.181338
0.129739
0.182129
0.141206
0.129194
0.00500962
0.163138
-0.02549
0.157076
-0.0297614
0.150291
-0.034555
0.142706
-0.0400724
0.134593
-0.0458457
0.126369
-0.0514092
0.118384
-0.0563494
0.110907
-0.0603508
0.104252
-0.0631931
0.098566
-0.064612
0.0939311
-0.0645594
0.0905828
-0.0626302
0.0883344
-0.0585105
0.0874457
-0.0526326
0.0891054
-0.0442079
0.0931904
-0.0320984
0.0975442
-0.0173783
0.100528
-0.00227432
0.104137
0.0134504
0.108958
0.0308331
0.115405
0.0477161
0.124679
0.0601687
0.139094
0.0735029
0.157596
0.10071
0.174507
0.139906
0.186038
0.159779
0.191669
0.125914
0.189212
0.0464921
0.178056
-0.0366543
0.163216
-0.0940301
0.148186
-0.125582
0.135066
-0.144478
0.125002
-0.154361
0.116268
-0.155517
0.105816
-0.154693
0.0936917
-0.155725
0.0862812
-0.149825
0.0919253
-0.116244
0.111782
-0.0381472
0.139406
0.0840333
0.164983
0.230125
0.181123
0.364224
0.183504
0.446467
0.171244
0.448145
0.149173
0.357171
0.125377
0.184766
0.108414
-0.027941
0.102061
-0.20265
0.104441
-0.295708
0.108783
-0.310309
0.110664
-0.304943
0.114774
-0.277491
0.123268
-0.221145
0.131219
-0.105205
0.133221
0.00683279
0.129804
0.124539
0.127893
0.183249
0.131603
0.178419
0.144142
0.116655
-0.00479508
0.204665
-0.0216673
-0.208488
0.201692
-0.0267885
0.198523
-0.0313854
0.194683
-0.0362333
0.19007
-0.0412327
0.184764
-0.0461027
0.178922
-0.0505068
0.172673
-0.0541024
0.166134
-0.0566538
0.159399
-0.0578768
0.152532
-0.0576932
0.14573
-0.0558276
0.139149
-0.0519293
0.13283
-0.0463135
0.127003
-0.038381
0.122431
-0.0275266
0.119622
-0.0145695
0.117329
1.85843e-05
0.113993
0.0167871
0.110339
0.0344864
0.108298
0.0497572
0.109484
0.0589827
0.113676
0.069311
0.119739
0.0946467
0.130469
0.129175
0.152092
0.138156
0.18011
0.0978956
0.199408
0.0271938
0.204667
-0.0419124
0.199563
-0.0889261
0.189162
-0.115182
0.177011
-0.132327
0.165405
-0.142756
0.154475
-0.144587
0.142384
-0.142601
0.127643
-0.140983
0.113314
-0.135497
0.106226
-0.109156
0.109348
-0.0412696
0.118362
0.0750202
0.128228
0.220259
0.13535
0.357102
0.138079
0.443737
0.136121
0.450103
0.130693
0.362599
0.125175
0.190284
0.122825
-0.0255917
0.123406
-0.203231
0.124907
-0.297208
0.125692
-0.311094
0.123495
-0.302746
0.121798
-0.275794
0.123177
-0.222525
0.124917
-0.106945
0.122549
0.00920133
0.117462
0.129626
0.116377
0.184333
0.121667
0.173129
0.13393
0.104392
-0.0126372
0.212691
-0.0186568
-0.215702
0.209419
-0.0235166
0.206072
-0.0280381
0.202238
-0.032399
0.197755
-0.0367503
0.192605
-0.0409521
0.186885
-0.0447871
0.180719
-0.0479363
0.174243
-0.0501777
0.167624
-0.0512582
0.160995
-0.0510635
0.154586
-0.0494194
0.148605
-0.0459484
0.143216
-0.0409237
0.138537
-0.0337025
0.134804
-0.0237932
0.132557
-0.0123223
0.131518
0.00105674
0.130749
0.0175563
0.129687
0.035549
0.128809
0.0506344
0.12857
0.0592227
0.129597
0.0682833
0.134254
0.0899899
0.148311
0.115118
0.174203
0.112264
0.201214
0.0708847
0.216246
0.0121619
0.217052
-0.042718
0.20934
-0.0812142
0.197708
-0.10355
0.185154
-0.119773
0.173453
-0.131054
0.162204
-0.133339
0.150021
-0.130418
0.13618
-0.127142
0.122795
-0.122112
0.115521
-0.101881
0.117932
-0.0436815
0.127624
0.0653286
0.138988
0.208895
0.14791
0.34818
0.152268
0.439379
0.15152
0.450852
0.146259
0.36786
0.140598
0.195945
0.13786
-0.0228538
0.137443
-0.202813
0.137507
-0.297273
0.137122
-0.310709
0.13415
-0.299774
0.131113
-0.272756
0.131047
-0.22246
0.131925
-0.107823
0.129057
0.0120699
0.124204
0.134479
0.124409
0.184128
0.131539
0.166
0.144893
0.0910374
-0.0204688
0.220642
-0.0163846
-0.222915
0.217769
-0.0206427
0.21455
-0.0248196
0.210914
-0.028763
0.206737
-0.032573
0.201976
-0.0361914
0.196682
-0.0394928
0.190964
-0.0422181
0.184954
-0.0441686
0.178814
-0.0451173
0.172631
-0.0448806
0.166607
-0.043396
0.160915
-0.0402559
0.155678
-0.0356868
0.151239
-0.0292635
0.147799
-0.0203527
0.145755
-0.0102791
0.14527
0.00154192
0.146184
0.0166429
0.148264
0.0334687
0.15073
0.0481687
0.152224
0.0577279
0.153598
0.0669096
0.159635
0.0839532
0.176066
0.098687
0.200837
0.0874929
0.222206
0.0495151
0.230946
0.00342196