/*--------------------------------*- C++ -*----------------------------------*\
| =========                 |                                                 |
| \\      /  F ield         | OpenFOAM: The Open Source CFD Toolbox           |
|  \\    /   O peration     | Version:  2512                                  |
|   \\  /    A nd           | Website:  www.openfoam.com                      |
|    \\/     M anipulation  |                                                 |
\*---------------------------------------------------------------------------*/
FoamFile
{
    version     2.0;
    format      ascii;
    arch        "LSB;label=32;scalar=64";
    class       surfaceScalarField;
    location    "98.5";
    object      phi;
}
// * * * * * * * * * * * * * * * * * * * * * * * * * * * * * * * * * * * * * //

dimensions      [0 3 -1 0 0 0 0];

oriented        oriented;

internalField   nonuniform List<scalar> 
19380
(
0.874546
-4.38554e-05
0.874677
-0.000130098
0.87489
-0.00021323
0.875183
-0.00029352
0.875553
-0.000369835
0.875994
-0.000440574
0.876498
-0.000504376
0.877058
-0.000559969
0.877665
-0.000606815
0.87831
-0.000644964
0.878985
-0.00067489
0.879682
-0.000697303
0.880395
-0.000713002
0.881118
-0.000722785
0.881845
-0.000727399
0.882573
-0.000727529
0.883297
-0.000723792
0.884013
-0.000716742
0.88472
-0.000706869
0.885415
-0.000694606
0.886095
-0.000680333
0.886759
-0.000664379
0.887406
-0.000647031
0.888035
-0.000628534
0.888644
-0.000609107
0.889233
-0.000588943
0.889801
-0.000568217
0.890348
-0.000547091
0.890874
-0.000525717
0.891378
-0.000504238
0.891861
-0.000482738
0.892322
-0.00046129
0.892762
-0.000440023
0.893181
-0.000419051
0.89358
-0.000398467
0.893958
-0.000378352
0.894317
-0.000358773
0.894657
-0.000339787
0.894978
-0.000321441
-0.000303815
0.895282
0.844005
-8.58367e-05
0.84413
-0.00025482
0.844335
-0.000417856
0.844617
-0.000575488
0.844972
-0.000725478
0.845397
-0.000864641
0.845883
-0.000990376
0.846423
-0.00110011
0.847009
-0.00119278
0.847632
-0.00126844
0.848285
-0.001328
0.848961
-0.00137285
0.849652
-0.00140453
0.850354
-0.00142457
0.851061
-0.00143444
0.851769
-0.00143546
0.852474
-0.00142883
0.853173
-0.00141563
0.853863
-0.00139682
0.854542
-0.00137323
0.855207
-0.00134561
0.855857
-0.0013146
0.856491
-0.00128076
0.857107
-0.00124457
0.857704
-0.00120647
0.858282
-0.00116684
0.85884
-0.00112602
0.859377
-0.00108434
0.859894
-0.00104212
0.860389
-0.000999625
0.860863
-0.000957048
0.861316
-0.000914539
0.861749
-0.000872356
0.86216
-0.000830725
0.862552
-0.000789838
0.862923
-0.000749861
0.863276
-0.000710933
0.863609
-0.000673172
0.863924
-0.00063667
-0.000601594
0.864222
0.814531
-0.000125621
0.814649
-0.000373302
0.814844
-0.000612748
0.815113
-0.000844777
0.815454
-0.0010661
0.815861
-0.00127174
0.816329
-0.00145799
0.81685
-0.00162096
0.817416
-0.001759
0.818019
-0.00187215
0.818653
-0.0019617
0.81931
-0.00202962
0.819984
-0.00207816
0.820669
-0.00210955
0.82136
-0.0021259
0.822054
-0.00212916
0.822746
-0.00212105
0.823433
-0.00210313
0.824113
-0.00207679
0.824783
-0.00204324
0.825441
-0.00200358
0.826085
-0.00195871
0.826714
-0.00190947
0.827326
-0.00185656
0.82792
-0.00180062
0.828496
-0.00174223
0.829052
-0.0016819
0.829587
-0.00162013
0.830103
-0.00155738
0.830597
-0.0014941
0.831071
-0.00143061
0.831523
-0.00136713
0.831955
-0.00130405
0.832366
-0.00124171
0.832757
-0.00118042
0.833127
-0.00112044
0.833478
-0.001062
0.83381
-0.00100527
0.834124
-0.000950403
-0.000897657
0.83442
0.786085
-0.000162972
0.786197
-0.000484953
0.786381
-0.000797086
0.786637
-0.00110049
0.786961
-0.00139086
0.787351
-0.00166128
0.7878
-0.00190681
0.788301
-0.00212244
0.788848
-0.00230581
0.789433
-0.0024569
0.790048
-0.00257727
0.790688
-0.00266945
0.791346
-0.00273628
0.792017
-0.00278066
0.792697
-0.00280531
0.79338
-0.0028127
0.794064
-0.00280506
0.794746
-0.00278437
0.795421
-0.00275239
0.796089
-0.0027107
0.796746
-0.00266067
0.79739
-0.00260348
0.798021
-0.0025402
0.798636
-0.00247173
0.799235
-0.00239894
0.799815
-0.00232255
0.800376
-0.00224331
0.800918
-0.00216184
0.80144
-0.0020788
0.80194
-0.00199477
0.80242
-0.00191031
0.802879
-0.00182573
0.803316
-0.00174149
0.803732
-0.00165809
0.804128
-0.00157598
0.804503
-0.00149552
0.804858
-0.00141703
0.805194
-0.00134078
0.80551
-0.00126698
-0.001196
0.805808
0.758632
-0.000197685
0.758736
-0.000589228
0.758909
-0.000970105
0.759151
-0.00134171
0.759459
-0.00169873
0.75983
-0.00203252
0.760259
-0.0023361
0.760741
-0.00260402
0.761268
-0.00283297
0.761834
-0.00302276
0.762432
-0.00317518
0.763055
-0.0032932
0.763699
-0.00338023
0.764358
-0.00343974
0.765028
-0.00347499
0.765704
-0.00348894
0.766383
-0.00348423
0.767062
-0.00346321
0.767738
-0.003428
0.768408
-0.00338044
0.769069
-0.00332216
0.76972
-0.00325456
0.770359
-0.00317892
0.770983
-0.00309634
0.771592
-0.00300786
0.772184
-0.00291442
0.772758
-0.00281692
0.773312
-0.00271618
0.773846
-0.00261303
0.77436
-0.00250824
0.774852
-0.00240258
0.775323
-0.00229656
0.775772
-0.0021907
0.7762
-0.00208564
0.776606
-0.001982
0.776991
-0.00188027
0.777354
-0.0017809
0.777698
-0.00168426
0.778022
-0.00159064
-0.0015005
0.778326
0.732138
-0.000229572
0.732234
-0.000685619
0.732395
-0.00113105
0.732621
-0.00156748
0.732911
-0.0019886
0.733263
-0.00238432
0.733671
-0.00274487
0.734132
-0.00306476
0.734639
-0.00333965
0.735185
-0.0035691
0.735765
-0.00375505
0.736373
-0.00390082
0.737003
-0.0040103
0.73765
-0.0040875
0.738312
-0.00413613
0.738982
-0.00415955
0.739659
-0.00416074
0.740338
-0.00414238
0.741017
-0.00410684
0.741692
-0.0040562
0.742363
-0.00399227
0.743025
-0.00391663
0.743676
-0.00383071
0.744316
-0.00373581
0.744941
-0.00363314
0.745551
-0.0035238
0.746143
-0.00340888
0.746716
-0.0032894
0.747269
-0.00316638
0.747802
-0.00304079
0.748313
-0.00291363
0.748802
-0.0027857
0.749269
-0.00265758
0.749713
-0.00253007
0.750135
-0.00240395
0.750535
-0.00227992
0.750912
-0.00215854
0.751268
-0.00204032
0.751603
-0.00192566
-0.00181515
0.751918
0.706568
-0.000258464
0.706656
-0.000773658
0.706805
-0.00127919
0.707014
-0.00177688
0.707285
-0.00225938
0.707616
-0.0027151
0.708003
-0.00313204
0.708441
-0.00350327
0.708926
-0.00382448
0.709452
-0.00409467
0.710012
-0.00431576
0.710603
-0.00449139
0.711219
-0.00462587
0.711855
-0.00472368
0.712507
-0.00478887
0.713173
-0.00482512
0.713848
-0.00483568
0.714529
-0.00482348
0.715213
-0.00479109
0.715898
-0.0047407
0.71658
-0.00467427
0.717257
-0.00459345
0.717926
-0.00449984
0.718585
-0.00439486
0.719232
-0.00427988
0.719864
-0.00415614
0.72048
-0.00402492
0.721078
-0.00388742
0.721656
-0.00374491
0.722214
-0.00359857
0.72275
-0.00344962
0.723264
-0.0032992
0.723754
-0.00314811
0.724221
-0.00299719
0.724665
-0.00284747
0.725085
-0.00269984
0.725481
-0.00255507
0.725855
-0.00241381
0.726206
-0.00227659
-0.00214417
0.726535
0.681892
-0.000284213
0.681971
-0.000852914
0.682106
-0.00141383
0.682298
-0.00196895
0.682548
-0.00250985
0.682856
-0.00302337
0.68322
-0.00349597
0.683635
-0.00391794
0.684096
-0.00428572
0.684599
-0.00459765
0.685139
-0.0048555
0.685711
-0.00506319
0.68631
-0.00522544
0.686934
-0.00534704
0.687577
-0.00543232
0.688237
-0.00548516
0.688911
-0.00550903
0.689594
-0.00550705
0.690285
-0.00548186
0.69098
-0.00543567
0.691676
-0.00537046
0.692371
-0.00528794
0.693061
-0.00518981
0.693743
-0.00507755
0.694416
-0.00495264
0.695076
-0.00481643
0.695722
-0.0046704
0.69635
-0.00451594
0.69696
-0.00435456
0.697549
-0.00418768
0.698116
-0.00401679
0.69866
-0.00384328
0.699181
-0.00366841
0.699677
-0.00349307
0.700148
-0.00331848
0.700593
-0.00314579
0.701014
-0.00297599
0.701411
-0.00280995
0.701782
-0.00264836
-0.00249218
0.70213
0.658077
-0.000306693
0.658147
-0.000923011
0.658267
-0.00153435
0.658441
-0.00214278
0.65867
-0.00273889
0.658955
-0.00330778
0.659293
-0.0038344
0.659682
-0.00430712
0.660118
-0.00472128
0.660596
-0.00507575
0.661112
-0.00537187
0.661663
-0.00561385
0.662244
-0.00580672
0.662853
-0.00595551
0.663485
-0.00606463
0.664138
-0.00613817
0.664809
-0.00617977
0.665494
-0.0061926
0.666192
-0.00617923
0.666898
-0.00614179
0.667609
-0.00608219
0.668324
-0.00600214
0.669037
-0.00590333
0.669747
-0.00578724
0.67045
-0.00565539
0.671142
-0.00550923
0.671822
-0.00535039
0.672487
-0.00518045
0.673133
-0.00500118
0.67376
-0.00481425
0.674365
-0.00462146
0.674946
-0.00442445
0.675502
-0.00422494
0.676033
-0.00402411
0.676538
-0.00382329
0.677016
-0.00362393
0.677468
-0.00342728
0.677892
-0.00323449
0.67829
-0.00304642
-0.00286431
0.678662
0.635093
-0.000325801
0.635154
-0.000983661
0.635259
-0.00164018
0.635414
-0.00229757
0.635621
-0.00294544
0.63588
-0.00356691
0.636191
-0.00414539
0.636552
-0.00466853
0.63696
-0.00512899
0.637411
-0.00552636
0.637901
-0.00586202
0.638427
-0.00614042
0.638987
-0.00636678
0.639578
-0.00654618
0.640196
-0.00668307
0.64084
-0.00678171
0.641506
-0.00684587
0.642192
-0.00687858
0.642895
-0.00688224
0.643612
-0.00685872
0.64434
-0.00680983
0.645075
-0.00673714
0.645814
-0.00664227
0.646553
-0.00652654
0.647289
-0.00639149
0.648018
-0.00623856
0.648737
-0.00606955
0.649443
-0.00588619
0.650133
-0.00569052
0.650803
-0.00548444
0.651451
-0.00527008
0.652076
-0.00504941
0.652676
-0.00482452
0.653249
-0.00459716
0.653794
-0.00436876
0.654312
-0.00414101
0.6548
-0.00391553
0.655259
-0.00369377
0.655689
-0.00347687
-0.00326635
0.656092
0.612912
-0.000341472
0.612963
-0.00103465
0.613053
-0.00173086
0.613188
-0.00243269
0.613371
-0.00312852
0.613604
-0.00379936
0.613886
-0.00442739
0.614217
-0.00499942
0.614594
-0.0055066
0.615015
-0.00594667
0.615476
-0.00632277
0.615975
-0.00663956
0.61651
-0.00690212
0.617079
-0.00711545
0.61768
-0.00728408
0.618311
-0.00741246
0.618969
-0.00750433
0.619653
-0.00756243
0.62036
-0.00758881
0.621086
-0.00758502
0.621829
-0.00755266
0.622585
-0.00749305
0.62335
-0.00740756
0.624121
-0.00729726
0.624893
-0.00716357
0.625662
-0.00700789
0.626425
-0.00683214
0.627177
-0.00663814
0.627915
-0.00642819
0.628635
-0.00620442
0.629334
-0.00596929
0.63001
-0.00572513
0.630659
-0.00547445
0.631282
-0.00521954
0.631875
-0.00496225
0.632439
-0.0047044
0.632971
-0.00444799
0.633472
-0.0041949
0.633942
-0.00394653
-0.00370484
0.63438
0.591505
-0.000353694
0.591546
-0.0010758
0.591621
-0.00180608
0.591736
-0.00254769
0.591895
-0.00328732
0.592099
-0.00400387
0.592351
-0.00467888
0.59265
-0.00529796
0.592994
-0.00585086
0.593381
-0.00633394
0.593809
-0.00675089
0.594277
-0.00710768
0.594784
-0.00740877
0.595328
-0.00765913
0.595907
-0.00786342
0.596521
-0.0080263
0.597168
-0.00815125
0.597846
-0.00824054
0.598553
-0.00829578
0.599286
-0.00831813
0.600042
-0.0083089
0.600818
-0.00826891
0.60161
-0.00819914
0.602413
-0.00810024
0.603222
-0.00797344
0.604035
-0.00782
0.604844
-0.00764187
0.605647
-0.00744091
0.606438
-0.00721961
0.607214
-0.00698029
0.607971
-0.00672582
0.608705
-0.00645885
0.609412
-0.00618238
0.610092
-0.00589914
0.610742
-0.00561176
0.611359
-0.00532216
0.611944
-0.0050327
0.612495
-0.00474576
0.613011
-0.00446311
-0.00418721
0.613494
0.570845
-0.000362497
0.570877
-0.00110699
0.570936
-0.00186569
0.571031
-0.00264238
0.571165
-0.0034211
0.57134
-0.00417939
0.57156
-0.0048987
0.571825
-0.00556251
0.572133
-0.00615889
0.572484
-0.00668485
0.572876
-0.00714328
0.573309
-0.00754103
0.573783
-0.00788245
0.574296
-0.00817255
0.574849
-0.0084163
0.575441
-0.00861838
0.576072
-0.00878184
0.57674
-0.00890829
0.577443
-0.00899891
0.578179
-0.00905438
0.578946
-0.00907556
0.579739
-0.00906256
0.580556
-0.00901574
0.581391
-0.00893522
0.582239
-0.00882193
0.583096
-0.00867683
0.583956
-0.00850179
0.584814
-0.00829858
0.585664
-0.00806983
0.586502
-0.00781802
0.587322
-0.00754642
0.588122
-0.007258
0.588896
-0.00695629
0.589641
-0.00664447
0.590355
-0.00632591
0.591036
-0.00600308
0.591682
-0.00567852
0.592291
-0.00535515
0.592863
-0.00503524
-0.00472182
0.593398
0.550908
-0.000367941
0.550929
-0.00112814
0.550973
-0.00190985
0.551047
-0.00271673
0.551155
-0.00352925
0.551301
-0.0043253
0.551489
-0.00508601
0.551718
-0.0057915
0.551987
-0.00642859
0.552298
-0.00699589
0.552652
-0.00749672
0.553047
-0.00793592
0.553483
-0.00831872
0.553961
-0.00865085
0.554482
-0.00893753
0.555047
-0.00918327
0.555656
-0.00939048
0.556308
-0.00956009
0.557002
-0.00969288
0.557736
-0.00978893
0.558509
-0.00984842
0.559317
-0.00987053
0.560156
-0.00985485
0.561022
-0.00980075
0.561909
-0.00970874
0.562811
-0.00957931
0.563723
-0.00941407
0.564639
-0.00921454
0.565553
-0.00898344
0.566458
-0.00872331
0.56735
-0.00843779
0.568222
-0.00813016
0.56907
-0.00780451
0.56989
-0.00746445
0.570678
-0.00711407
0.571432
-0.00675672
0.572148
-0.00639518
0.572826
-0.00603284
0.573463
-0.00567257
-0.00531813
0.57406
0.531666
-0.000370065
0.531677
-0.00113918
0.531706
-0.00193905
0.53176
-0.00277074
0.531842
-0.00361138
0.531958
-0.00444155
0.532113
-0.00524032
0.532305
-0.00598339
0.532534
-0.00665807
0.532803
-0.00726497
0.533114
-0.00780727
0.533466
-0.00828863
0.533861
-0.00871324
0.534299
-0.00908912
0.534783
-0.00942166
0.535315
-0.00971499
0.535895
-0.00997084
0.536525
-0.0101895
0.537203
-0.0103714
0.53793
-0.0105158
0.538704
-0.010622
0.539521
-0.010688
0.540379
-0.0107125
0.541272
-0.010694
0.542196
-0.0106323
0.543144
-0.0105272
0.544109
-0.0103798
0.545086
-0.0101913
0.546067
-0.00996438
0.547045
-0.00970142
0.548014
-0.00940644
0.548967
-0.00908292
0.549898
-0.00873557
0.550802
-0.00836843
0.551674
-0.0079863
0.552511
-0.00759341
0.553309
-0.0071933
0.554065
-0.00678959
0.554779
-0.00638587
-0.00598674
0.555447
0.513096
-0.000368796
0.513097
-0.00114028
0.513112
-0.00195409
0.513146
-0.00280429
0.513202
-0.00366763
0.513289
-0.00452877
0.51341
-0.00536119
0.513563
-0.00613692
0.513751
-0.0068459
0.513977
-0.00749035
0.514242
-0.00807218
0.514548
-0.00859467
0.514896
-0.00906186
0.51529
-0.00948264
0.515731
-0.00986316
0.516223
-0.0102072
0.516769
-0.010516
0.517369
-0.0107893
0.518024
-0.0110272
0.518736
-0.0112278
0.519504
-0.0113894
0.520324
-0.0115087
0.521195
-0.0115833
0.522112
-0.0116106
0.523069
-0.0115895
0.524061
-0.0115188
0.52508
-0.0113989
0.526119
-0.0112304
0.52717
-0.0110157
0.528226
-0.010757
0.529278
-0.0104585
0.530318
-0.0101238
0.531341
-0.00975819
0.532339
-0.00936611
0.533306
-0.00895322
0.534237
-0.00852435
0.535128
-0.00808444
0.535975
-0.00763724
0.536777
-0.00718706
-0.00673949
0.537529
0.495174
-0.000363851
0.495166
-0.00113197
0.495167
-0.00195583
0.49518
-0.00281716
0.495212
-0.00369898
0.495271
-0.00458796
0.495358
-0.00544812
0.495472
-0.00625127
0.495617
-0.00699131
0.495798
-0.00767066
0.496015
-0.0082893
0.496271
-0.00885059
0.496569
-0.00935994
0.496913
-0.0098269
0.497307
-0.0102566
0.497753
-0.0106536
0.498256
-0.0110189
0.498818
-0.0113519
0.499443
-0.0116522
0.500132
-0.0119167
0.500885
-0.0121425
0.501702
-0.0123248
0.502578
-0.0124602
0.503512
-0.0125445
0.504498
-0.0125755
0.50553
-0.0125507
0.506601
-0.0124697
0.507703
-0.0123318
0.508826
-0.0121393
0.509963
-0.0118937
0.511104
-0.0115994
0.51224
-0.0112599
0.513363
-0.010881
0.514464
-0.0104675
0.515537
-0.0100259
0.516574
-0.00956161
0.517571
-0.00908111
0.518522
-0.00858871
0.519424
-0.00808928
-0.00758948
0.520274
0.477877
-0.000354668
0.477861
-0.00111534
0.47785
-0.00194481
0.477842
-0.00280936
0.47785
-0.00370752
0.477882
-0.00461994
0.477935
-0.00550056
0.47801
-0.00632639
0.478113
-0.00709407
0.478247
-0.00780487
0.478414
-0.00845679
0.478618
-0.00905408
0.478862
-0.00960382
0.479152
-0.0101168
0.479492
-0.0105965
0.479886
-0.0110478
0.480339
-0.0114723
0.480856
-0.0118692
0.481442
-0.0122377
0.482099
-0.0125733
0.482828
-0.012872
0.48363
-0.0131273
0.484505
-0.0133344
0.485448
-0.0134878
0.486456
-0.0135837
0.487523
-0.0136178
0.488642
-0.0135885
0.489804
-0.013494
0.491001
-0.0133356
0.492221
-0.0131142
0.493456
-0.0128339
0.494694
-0.0124979
0.495925
-0.0121126
0.497141
-0.0116827
0.498331
-0.0112159
0.499487
-0.0107179
0.500603
-0.0101968
0.501672
-0.00965806
0.50269
-0.00910698
-0.00855124
0.503651
0.461184
-0.000340391
0.46116
-0.00109203
0.461136
-0.00192094
0.461109
-0.0027818
0.461097
-0.00369615
0.461102
-0.00462475
0.46112
-0.00551843
0.461157
-0.00636302
0.461217
-0.00715427
0.461305
-0.00789243
0.461421
-0.0085734
0.46157
-0.00920336
0.461758
-0.0097911
0.461989
-0.0103479
0.46227
-0.0108773
0.462606
-0.011384
0.463003
-0.0118691
0.463467
-0.0123331
0.464003
-0.0127746
0.464618
-0.0131877
0.465313
-0.0135673
0.466091
-0.0139053
0.466952
-0.0141957
0.467895
-0.0144309
0.468917
-0.0146052
0.470012
-0.0147126
0.471173
-0.0147498
0.472392
-0.0147133
0.47366
-0.0146034
0.474966
-0.0144195
0.476297
-0.0141655
0.477643
-0.0138438
0.478991
-0.013461
0.480331
-0.0130219
0.48165
-0.0125351
0.482939
-0.0120067
0.484188
-0.0114463
0.485391
-0.0108605
0.48654
-0.010256
-0.00964077
0.487629
0.445072
-0.00031986
0.445044
-0.00106417
0.445006
-0.00188344
0.444961
-0.00273701
0.444933
-0.00366757
0.444909
-0.00460141
0.444894
-0.00550274
0.444893
-0.00636237
0.444911
-0.00717233
0.444952
-0.00793348
0.445017
-0.00863852
0.445111
-0.00929746
0.44524
-0.00991991
0.44541
-0.0105175
0.445626
-0.011094
0.445898
-0.0116556
0.446232
-0.0122028
0.446634
-0.0127357
0.447113
-0.0132534
0.447675
-0.0137493
0.448325
-0.014217
0.449066
-0.0146471
0.449903
-0.0150319
0.450833
-0.0153618
0.451857
-0.0156291
0.45297
-0.0158254
0.454166
-0.0159456
0.455436
-0.0159839
0.456772
-0.0159391
0.458162
-0.0158089
0.459592
-0.0155962
0.461051
-0.0153022
0.462523
-0.0149339
0.463997
-0.0144951
0.465457
-0.0139958
0.466893
-0.013442
0.468292
-0.0128452
0.469644
-0.0122127
0.470941
-0.0115537
-0.0108757
0.472176
0.42952
-0.000291536
0.42949
-0.00103427
0.429438
-0.00183109
0.429381
-0.00267946
0.429336
-0.00362278
0.429283
-0.00454869
0.429236
-0.00545594
0.429199
-0.00632545
0.429176
-0.0071493
0.429172
-0.00792888
0.429185
-0.00865216
0.429224
-0.00933629
0.429293
-0.00998893
0.429399
-0.0106232
0.429549
-0.0112436
0.42975
-0.0118575
0.430014
-0.0124661
0.430347
-0.0130693
0.430759
-0.0136652
0.431257
-0.0142473
0.431849
-0.014809
0.432541
-0.0153395
0.433339
-0.0158293
0.434244
-0.0162667
0.435257
-0.0166418
0.436375
-0.0169438
0.437594
-0.017165
0.438907
-0.0172971
0.440305
-0.0173366
0.441775
-0.0172792
0.443305
-0.017126
0.44488
-0.0168767
0.446483
-0.0165376
0.4481
-0.016112
0.449715
-0.0156105
0.451311
-0.0150387
0.452877
-0.0144103
0.454397
-0.0137327
0.455862
-0.0130191
-0.0122757
0.457262
0.41451
-0.000253177
0.414481
-0.00100596
0.414412
-0.00176208
0.414348
-0.00261549
0.414285
-0.00355942
0.414203
-0.00446698
0.414129
-0.00538125
0.414056
-0.00625296
0.413994
-0.00708737
0.413945
-0.00787986
0.413908
-0.00861506
0.413893
-0.00932074
0.413901
-0.00999743
0.413942
-0.0106642
0.414022
-0.0113236
0.414151
-0.0119863
0.414338
-0.012653
0.414594
-0.0133256
0.41493
-0.0140008
0.415354
-0.0146713
0.415876
-0.015331
0.416505
-0.0159684
0.417248
-0.0165726
0.418111
-0.0171297
0.419097
-0.0176276
0.420206
-0.0180525
0.421435
-0.0183941
0.422779
-0.0186411
0.424229
-0.0187869
0.425774
-0.0188245
0.427401
-0.0187525
0.429093
-0.0185686
0.430833
-0.0182777
0.432603
-0.0178817
0.434384
-0.0173915
0.436157
-0.0168123
0.437906
-0.0161596
0.439614
-0.0154407
0.441269
-0.0146732
-0.0138624
0.442855
0.400019
-0.000201261
0.399999
-0.000985543
0.39991
-0.00167305
0.399847
-0.00255292
0.399759
-0.00347085
0.399653
-0.00436073
0.399552
-0.0052806
0.399445
-0.00614634
0.399348
-0.00698969
0.399255
-0.00778763
0.399169
-0.00852891
0.399101
-0.00925249
0.399049
-0.00994524
0.399025
-0.0106407
0.399034
-0.0113324
0.399087
-0.0120396
0.399194
-0.0127595
0.399366
-0.013498
0.399616
-0.0142506
0.399955
-0.0150106
0.400395
-0.0157707
0.400946
-0.0165195
0.401619
-0.0172457
0.402423
-0.0179334
0.403363
-0.0185681
0.404444
-0.0191335
0.405666
-0.0196158
0.407025
-0.0200005
0.408516
-0.0202773
0.410127
-0.0204355
0.411845
-0.0204706
0.413653
-0.0203771
0.415533
-0.0201579
0.417464
-0.0198125
0.419424
-0.0193516
0.421391
-0.0187792
0.423344
-0.0181125
0.425262
-0.0173589
0.427129
-0.0165398
-0.0156605
0.428927
0.38603
-0.000130781
0.386027
-0.000983223
0.385912
-0.00155762
0.38586
-0.00250093
0.385735
-0.00334589
0.385615
-0.00424109
0.385486
-0.00515136
0.38535
-0.00601058
0.385219
-0.00685827
0.385085
-0.00765412
0.384953
-0.00839618
0.384834
-0.0091339
0.384722
-0.0098328
0.384636
-0.010555
0.384572
-0.0112683
0.38455
-0.0120173
0.384572
-0.0127814
0.384656
-0.0135823
0.384812
-0.0144063
0.385055
-0.0152543
0.3854
-0.0161156
0.385859
-0.0169782
0.386445
-0.0178317
0.38717
-0.0186586
0.388045
-0.019443
0.389077
-0.0201656
0.390271
-0.0208094
0.391626
-0.0213559
0.39314
-0.0217907
0.394803
-0.0220988
0.396604
-0.0222712
0.398525
-0.0222984
0.400547
-0.0221796
0.402646
-0.0219116
0.404797
-0.021503
0.406975
-0.0209568
0.409153
-0.0202904
0.411305
-0.0195117
0.413411
-0.0186454
-0.0176981
0.415449
0.372522
-3.61723e-05
0.372552
-0.00101244
0.372399
-0.00140535
0.372369
-0.00247066
0.372193
-0.00316942
0.372079
-0.00412753
0.371911
-0.00498293
0.371758
-0.00585834
0.37159
-0.00668952
0.371421
-0.00748538
0.371243
-0.00821788
0.371078
-0.00896912
0.370906
-0.00966049
0.370762
-0.0104116
0.370623
-0.0111294
0.370528
-0.0119222
0.370461
-0.0127142
0.370456
-0.0135775
0.37051
-0.0144604
0.370651
-0.0153951
0.370887
-0.0163517
0.371239
-0.0173305
0.371721
-0.0183137
0.372348
-0.0192856
0.373135
-0.0202302
0.374095
-0.021125
0.375236
-0.0219503
0.376563
-0.0226836
0.378078
-0.0233056
0.379775
-0.0237961
0.381645
-0.0241407
0.383671
-0.0243244
0.385833
-0.0243414
0.388105
-0.0241842
0.39046
-0.023858
0.392867
-0.0233633
0.395294
-0.022717
0.397709
-0.0219271
0.400084
-0.0210205
-0.0200074
0.402393
0.359482
8.67211e-05
0.359556
-0.00108655
0.359353
-0.00120277
0.359358
-0.00247561
0.359114
-0.00292524
0.359032
-0.00404531
0.358805
-0.00475616
0.358659
-0.00571238
0.358439
-0.00646952
0.358251
-0.0072972
0.358021
-0.00798821
0.35782
-0.00876819
0.357585
-0.00942557
0.357392
-0.0102187
0.357174
-0.0109111
0.357014
-0.0117621
0.35685
-0.0125503
0.356761
-0.0134885
0.356703
-0.0144022
0.35674
-0.0154318
0.356852
-0.0164637
0.357086
-0.0175644
0.357444
-0.018672
0.357954
-0.0197953
0.35863
-0.0209062
0.35949
-0.0219856
0.360551
-0.0230108
0.361822
-0.023955
0.363311
-0.0247944
0.365018
-0.0255029
0.366937
-0.0260593
0.369054
-0.0264421
0.371351
-0.0266376
0.3738
-0.0266332
0.376369
-0.0264277
0.379024
-0.0260183
0.381726
-0.0254189
0.384436
-0.0246373
0.387118
-0.0237017
-0.0226268
0.389737
0.346895
0.000238314
0.347022
-0.00121307
0.346757
-0.000938582
0.34681
-0.0025282
0.346487
-0.00260212
0.346459
-0.00401764
0.346152
-0.00444896
0.346041
-0.00560177
0.345747
-0.00617471
0.345567
-0.00711747
0.345269
-0.00768998
0.345053
-0.00855282
0.344744
-0.00911642
0.344519
-0.00999403
0.344211
-0.0106025
0.344002
-0.0115536
0.343727
-0.0122755
0.343569
-0.0133304
0.343381
-0.0142136
0.343324
-0.015375
0.34329
-0.0164301
0.343406
-0.0176801
0.343611
-0.0188774
0.343991
-0.0201744
0.344526
-0.0214416
0.345263
-0.0227224
0.346211
-0.0239586
0.347393
-0.0251379
0.348823
-0.0262241
0.350508
-0.0271877
0.352449
-0.028
0.354637
-0.0286305
0.357056
-0.0290564
0.359679
-0.0292569
0.362473
-0.0292213
0.365396
-0.0289417
0.368403
-0.0284259
0.371446
-0.0276805
0.374478
-0.0267332
-0.0256031
0.377454
0.334753
0.000412162
0.334927
-0.00138696
0.334602
-0.000612957
0.334705
-0.00263143
0.334303
-0.0022007
0.334341
-0.00405559
0.33394
-0.00404807
0.333889
-0.00555025
0.333497
-0.00578252
0.333357
-0.006978
0.332966
-0.00729844
0.332768
-0.00835469
0.332362
-0.00871084
0.332135
-0.00976725
0.331715
-0.0101818
0.331488
-0.0113269
0.331076
-0.0118636
0.330881
-0.0131352
0.330528
-0.0138612
0.330408
-0.0152549
0.330189
-0.0162112
0.33021
-0.0177007
0.330218
-0.0188853
0.330472
-0.0204284
0.330817
-0.0217869
0.331417
-0.0233225
0.332207
-0.0247486
0.333271
-0.0262019
0.334599
-0.0275519
0.336224
-0.0288133
0.338151
-0.0299268
0.34038
-0.0308594
0.342901
-0.0315772
0.34569
-0.0320462
0.348713
-0.032244
0.351924
-0.0321529
0.355269
-0.0317708
0.35869
-0.0311009
0.362125
-0.0301685
-0.0289953
0.365517
0.323047
0.000596072
0.32325
-0.00158994
0.32288
-0.00024294
0.323021
-0.00277254
0.322558
-0.00173741
0.322653
-0.00415081
0.322166
-0.00356057
0.322177
-0.00556189
0.321683
-0.00528819
0.321602
-0.00689668
0.321101
-0.00679795
0.320947
-0.00820058
0.320423
-0.00818738
0.320226
-0.00957004
0.319668
-0.00962346
0.319461
-0.0111197
0.318878
-0.0112808
0.318693
-0.0129507
0.318129
-0.0132965
0.318003
-0.0151295
0.317533
-0.0157405
0.317518
-0.0176861
0.317249
-0.0186159
0.317427
-0.0206064
0.31749
-0.0218502
0.317979
-0.0238112
0.318522
-0.0252921
0.319462
-0.0271417
0.320615
-0.0287051
0.322152
-0.0303499
0.324011
-0.0317863
0.326245
-0.0330927
0.328836
-0.0341689
0.331772
-0.0349821
0.335023
-0.0354948
0.338539
-0.035669
0.342258
-0.03549
0.346109
-0.0349512
0.350012
-0.0340718
-0.0328769
0.353893
0.311763
0.000776123
0.311969
-0.00179564
0.311584
0.000142249
0.311736
-0.0029252
0.311243
-0.00124435
0.311368
-0.00427527
0.310823
-0.00301627
0.310877
-0.0056157
0.310303
-0.00471369
0.31027
-0.00686377
0.309671
-0.00619928
0.309563
-0.00809221
0.308922
-0.00754699
0.308766
-0.00941385
0.308063
-0.00891993
0.307897
-0.0109536
0.307124
-0.0105078
0.306987
-0.0128137
0.30617
-0.0124796
0.306099
-0.0150588
0.305306
-0.0149472
0.305345
-0.0177248
0.304687
-0.0179586
0.304897
-0.0208164
0.304531
-0.0214835
0.30501
-0.0242912
0.305128
-0.0254096
0.306015
-0.0280291
0.306828
-0.0295182
0.308297
-0.0318187
0.309972
-0.0334611
0.312194
-0.0353142
0.314797
-0.036772
0.317854
-0.0380397
0.321324
-0.0389643
0.325154
-0.0394995
0.329288
-0.0396239
0.333632
-0.0392945
0.338083
-0.038523
-0.037344
0.34255
0.300883
0.000942325
0.301066
-0.00197848
0.300698
0.000510803
0.30083
-0.00305754
0.300348
-0.000762348
0.300462
-0.0043891
0.299906
-0.00246054
0.299962
-0.00567194
0.299352
-0.00410315
0.299332
-0.00684402
0.298674
-0.00554111
0.298582
-0.00800053
0.297859
-0.00682358
0.29772
-0.00927486
0.296901
-0.0081015
0.296758
-0.0108097
0.295819
-0.00956955
0.29572
-0.0127142
0.294662
-0.0114217
0.294655
-0.0150516
0.29352
-0.0138123
0.293653
-0.0178584
0.292538
-0.0168431
0.292871
-0.0211496
0.291933
-0.020546
0.292553
-0.0249103
0.292013
-0.0248704
0.293041
-0.0290569
0.293189
-0.0296664
0.294765
-0.0333948
0.295933
-0.0346292
0.298238
-0.0376187
0.30066
-0.0391938
0.303866
-0.0412456
0.307508
-0.0426067
0.311655
-0.0436466
0.31625
-0.0442188
0.321152
-0.0441966
0.326265
-0.0436356
-0.0425302
0.331451
0.290386
0.00109229
0.290528
-0.00212022
0.290203
0.000835717
0.290288
-0.00314178
0.289856
-0.000330553
0.289919
-0.00445261
0.2894
-0.00194157
0.289414
-0.00568559
0.28882
-0.00350928
0.288767
-0.00679052
0.288103
-0.00487743
0.287981
-0.00787828
0.287231
-0.00607352
0.287058
-0.00910274
0.286189
-0.00723188
0.286008
-0.0106292
0.284981
-0.00854186
0.284848
-0.0125814
0.283635
-0.0102091
0.283613
-0.0150289
0.282221
-0.0124202
0.282376
-0.0180137
0.280859
-0.0153267
0.281272
-0.0215618
0.279755
-0.0190296
0.280528
-0.0256832
0.279221
-0.0235632
0.280494
-0.0303303
0.279707
-0.0288796
0.281644
-0.035331
0.281814
-0.0347992
0.284545
-0.0403503
0.286203
-0.0408521
0.28983
-0.0448718
0.293345
-0.0461224
0.297924
-0.0482253
0.302999
-0.0492941
0.308508
-0.0497056
0.314463
-0.0495903
-0.0486047
0.320537
0.280253
0.00122928
0.280345
-0.00221172
0.280081
0.00109954
0.2801
-0.00316089
0.279749
2.11108e-05
0.279732
-0.00443563
0.279289
-0.00149929
0.279223
-0.00561919
0.278692
-0.00297886
0.278563
-0.00666155
0.277946
-0.00425969
0.277748
-0.00768038
0.277029
-0.0053547
0.276771
-0.00884469
0.275923
-0.00638372
0.275634
-0.0103406
0.274617
-0.00752498
0.274347
-0.0123116
0.273119
-0.00898097
0.272935
-0.0148442
0.271466
-0.0109518
0.271452
-0.0179999
0.269745
-0.0136196
0.270013
-0.0218294
0.268126
-0.0171429
0.268824
-0.0263806
0.266899
-0.0216387
0.268234
-0.0316652
0.266533
-0.0271785
0.268764
-0.0375615
0.267716
-0.0337515
0.271075
-0.0437091
0.271326
-0.0411036
0.275913
-0.0494583
0.278359
-0.0485688
0.284034
-0.0538998
0.28923
-0.0544902
0.295555
-0.0560306
0.302606
-0.0566416
-0.0556857
0.309687
0.270472
0.00135554
0.27051
-0.00224904
0.270316
0.0012932
0.270264
-0.00310921
0.27001
0.000275429
0.269896
-0.00432158
0.269556
-0.00115962
0.269386
-0.00544909
0.268953
-0.00254558
0.268721
-0.00642956
0.268188
-0.00372636
0.267885
-0.00737729
0.267241
-0.00471101
0.266862
-0.00846583
0.266093
-0.00561477
0.265643
-0.00989074
0.264727
-0.00660849
0.264226
-0.0118108
0.263128
-0.00788295
0.262621
-0.0143377
0.261299
-0.00962897
0.260871
-0.0175722
0.259277
-0.012026
0.259066
-0.0216179
0.257183
-0.0152607
0.257384
-0.0265813
0.255265
-0.0195196
0.256142
-0.0325425
0.253952
-0.0249881
0.255936
-0.0395461
0.253966
-0.0317807
0.25756
-0.0473038
0.256365
-0.0399084
0.261932
-0.0550252
0.262527
-0.0491641
0.270096
-0.0614687
0.274035
-0.0584291
0.282604
-0.0645996
0.290554
-0.0645919
-0.0638801
0.298749
0.261039
0.00146583
0.261025
-0.00223583
0.260898
0.00142114
0.260782
-0.00299402
0.260618
0.00043993
0.260414
-0.00411809
0.260176
-0.000921665
0.259905
-0.00517818
0.259576
-0.00221573
0.25924
-0.00609387
0.258802
-0.00328824
0.258393
-0.00696869
0.257837
-0.0041546
0.257341
-0.00796967
0.256663
-0.00493739
0.256059
-0.00928602
0.255263
-0.00581294
0.254527
-0.011075
0.253615
-0.00697077
0.252736
-0.0134583
0.2517
-0.00859348
0.250696
-0.016568
0.249512
-0.0108415
0.248463
-0.020569
0.247079
-0.013877
0.246181
-0.0256838
0.244538
-0.0178761
0.244208
-0.0322129
0.242275
-0.023055
0.243115
-0.0403859
0.241024
-0.0296893
0.2438
-0.0500798
0.241895
-0.0380039
0.247585
-0.060715
0.246595
-0.0481738
0.2558
-0.0706742
0.257458
-0.0600871
0.269859
-0.0770001
0.276975
-0.0717076
-0.0752023
0.288297
0.251952
0.00154288
0.251886
-0.0021693
0.25182
0.00148672
0.251647
-0.00282059
0.251557
0.000529949
0.251283
-0.00384435
0.251126
-0.000764607
0.25078
-0.00483225
0.250529
-0.00196518
0.250121
-0.00568548
0.249752
-0.00291945
0.249276
-0.00649214
0.248776
-0.00365525
0.248212
-0.00740579
0.247584
-0.00430865
0.246898
-0.00860021
0.246152
-0.00506766
0.245298