/*--------------------------------*- C++ -*----------------------------------*\
| =========                 |                                                 |
| \\      /  F ield         | OpenFOAM: The Open Source CFD Toolbox           |
|  \\    /   O peration     | Version:  2512                                  |
|   \\  /    A nd           | Website:  www.openfoam.com                      |
|    \\/     M anipulation  |                                                 |
\*---------------------------------------------------------------------------*/
FoamFile
{
    version     2.0;
    format      ascii;
    arch        "LSB;label=32;scalar=64";
    class       volVectorField;
    location    "36.8";
    object      U;
}
// * * * * * * * * * * * * * * * * * * * * * * * * * * * * * * * * * * * * * //

dimensions      [0 1 -1 0 0 0 0];

internalField   nonuniform List<vector> 
13248
(
(-0.0110115 0.00781262 3.03225e-20)
(-0.0245983 0.0131853 0)
(-0.0326839 0.0117194 -5.29649e-20)
(-0.0332521 0.00772795 4.90451e-20)
(-0.0246287 0.00323207 4.53678e-20)
(-0.00516744 -0.000735029 0)
(0.0267461 -0.0034637 0)
(0.0724055 -0.00432271 1.04076e-19)
(0.132427 -0.00268739 -1.36694e-21)
(0.20642 0.00197043 -8.72134e-20)
(0.292814 0.010019 7.72307e-20)
(0.388904 0.0215768 -4.75742e-20)
(0.491137 0.0364503 0)
(0.59555 0.0541227 -7.31969e-20)
(0.698167 0.073839 1.33431e-19)
(0.795537 0.0945973 -3.09816e-20)
(0.884608 0.115502 -5.2268e-20)
(0.963553 0.135301 4.87253e-20)
(1.03095 0.153577 0)
(1.08611 0.168815 0)
(1.13048 0.181627 0)
(1.16244 0.190183 0)
(1.18648 0.195826 1.55074e-20)
(1.20417 0.197584 5.99511e-20)
(-0.0143548 0.0100631 -9.12761e-20)
(-0.0285883 0.0176819 5.78912e-20)
(-0.0316891 0.0174988 -1.31705e-22)
(-0.022581 0.0141557 -7.43221e-20)
(0.000200278 0.010215 -4.53042e-20)
(0.0383215 0.00727215 -4.20378e-20)
(0.0932592 0.00650577 -7.61948e-20)
(0.165619 0.00884507 7.0959e-20)
(0.254534 0.014959 0)
(0.357322 0.0251721 7.96376e-22)
(0.46963 0.0393715 1.77508e-21)
(0.586016 0.0569765 4.77099e-20)
(0.700746 0.0770074 0)
(0.808544 0.0982223 0)
(0.905161 0.119321 4.88061e-20)
(0.987693 0.139033 -9.07991e-20)
(1.0546 0.156447 5.25752e-20)
(1.10596 0.170636 -4.90145e-20)
(1.1423 0.181615 -2.16848e-20)
(1.16657 0.188586 -3.90875e-20)
(1.17951 0.192839 -1.72357e-20)
(1.18666 0.193166 -3.25329e-20)
(1.18695 0.191921 4.61036e-20)
(1.18899 0.188517 1.39851e-20)
(-0.0165117 0.010802 0)
(-0.0290499 0.0190792 0)
(-0.0242149 0.0198051 2.6747e-20)
(-0.00155134 0.0175352 2.45124e-20)
(0.0402184 0.0152379 -3.73216e-22)
(0.102488 0.0150187 -4.2743e-20)
(0.185762 0.0184005 0)
(0.288565 0.0263629 -3.5143e-20)
(0.406809 0.0392252 3.20717e-20)
(0.534045 0.0565554 4.04849e-23)
(0.662508 0.0772243 -5.2133e-20)
(0.784495 0.0996234 -4.5917e-20)
(0.893545 0.12197 1.69776e-21)
(0.985194 0.142619 -3.50416e-20)
(1.05726 0.160289 8.4865e-20)
(1.10971 0.174187 0)
(1.14443 0.184103 -5.24233e-20)
(1.16436 0.190094 2.5054e-20)
(1.17358 0.193064 2.16613e-20)
(1.17561 0.192929 0)
(1.17452 0.192037 1.78974e-20)
(1.17232 0.188224 -6.42762e-20)
(1.17198 0.186729 6.0024e-20)
(1.1727 0.181527 4.08095e-20)
(-0.0172841 0.0102053 -3.1628e-20)
(-0.0250875 0.0175495 -3.01856e-20)
(-0.00861921 0.018729 2.72738e-20)
(0.0321971 0.0180593 0)
(0.098325 0.0188711 0)
(0.19003 0.023606 -3.90396e-22)
(0.305153 0.0337909 0)
(0.437938 0.0498246 -1.05375e-19)
(0.579335 0.070871 9.61391e-20)
(0.718764 0.095069 -1.16582e-19)
(0.846357 0.120021 2.60306e-20)
(0.954716 0.143361 0)
(1.03979 0.163221 4.06994e-20)
(1.10093 0.178504 -7.41691e-20)
(1.14031 0.188927 1.73982e-20)
(1.16212 0.194934 4.32038e-20)
(1.17136 0.197368 -2.12345e-21)
(1.17316 0.197359 -4.78718e-20)
(1.17142 0.195821 0)
(1.1695 0.193508 0)
(1.16805 0.191123 -1.70949e-20)
(1.16901 0.187876 1.54827e-20)
(1.16949 0.186171 5.68109e-20)
(1.17286 0.181376 -5.30251e-20)
(-0.0165077 0.00864003 -3.28445e-20)
(-0.0156918 0.0138347 -3.05363e-20)
(0.0171717 0.0154109 8.44363e-20)
(0.0817119 0.0174714 -5.09527e-20)
(0.177809 0.0235721 4.72025e-20)
(0.302693 0.0360979 8.51934e-20)
(0.448821 0.0556976 -5.90549e-20)
(0.604045 0.0810748 -7.01488e-20)
(0.754346 0.10943 1.91273e-21)
(0.887378 0.13739 8.74831e-20)
(0.994986 0.16197 0)
(1.07408 0.181218 2.28656e-20)
(1.12613 0.194445 0)
(1.15583 0.202073 -3.57307e-20)
(1.16946 0.205273 4.96594e-20)
(1.17325 0.205455 2.98042e-22)
(1.17233 0.203953 -1.27694e-20)
(1.16998 0.201629 2.3397e-20)
(1.16802 0.199083 2.04423e-20)
(1.16658 0.19623 -1.8351e-20)
(1.16584 0.193476 1.70871e-20)
(1.16501 0.189684 -1.54755e-20)
(1.16387 0.186991 0)
(1.16423 0.181557 -1.22131e-20)
(-0.013851 0.00647585 3.28363e-20)
(0.000550974 0.00904452 3.17077e-20)
(0.0556884 0.0118486 -2.82572e-20)
(0.150082 0.0187152 5.18196e-20)
(0.280543 0.0330402 -4.80031e-20)
(0.438057 0.056096 4.29386e-20)
(0.607072 0.0862049 -2.02096e-20)
(0.769322 0.119411 5.27352e-20)
(0.909337 0.151108 -3.25296e-20)
(1.01808 0.17759 5.61123e-20)
(1.09365 0.196896 -1.2745e-19)
(1.13986 0.208879 4.60818e-20)
(1.16375 0.214725 -3.94003e-20)
(1.1731 0.216238 3.66778e-20)
(1.17455 0.215165 3.1095e-20)
(1.17264 0.212826 2.69495e-20)
(1.16977 0.209929 -7.47685e-20)
(1.16695 0.206814 4.60099e-20)
(1.16423 0.203432 -2.04391e-20)
(1.16174 0.199838 5.3743e-20)
(1.15929 0.195976 -1.72021e-20)
(1.15734 0.191588 -4.28943e-20)
(1.15594 0.18816 3.95808e-20)
(1.15539 0.182312 1.22087e-20)
(-0.00870856 0.00403653 0)
(0.0253594 0.00444091 2.39172e-22)
(0.10935 0.0104287 5.84564e-20)
(0.238913 0.0251347 -5.38834e-20)
(0.404317 0.0506843 -4.80698e-20)
(0.586905 0.0854516 8.80292e-20)
(0.763263 0.124207 -4.03197e-20)
(0.91355 0.160714 5.28599e-20)
(1.02707 0.190256 -1.30648e-21)
(1.10285 0.21077 -2.90138e-20)
(1.14684 0.222644 6.20167e-20)
(1.16809 0.227769 -9.02258e-20)
(1.17545 0.22846 0)
(1.17564 0.226667 -1.71936e-20)
(1.17277 0.22367 -4.54154e-20)
(1.16888 0.22011 1.4211e-20)
(1.16484 0.216263 5.06032e-22)
(1.16095 0.21219 -3.08555e-20)
(1.15749 0.20796 1.7131e-21)
(1.15454 0.203615 3.53525e-20)
(1.15223 0.199137 -1.58332e-20)
(1.15061 0.194644 -6.27156e-21)
(1.14903 0.190394 1.86791e-20)
(1.14875 0.184834 0)
(-0.000278924 0.00165857 0)
(0.06042 0.00139526 1.60382e-20)
(0.179517 0.0136005 -7.58205e-20)
(0.346648 0.0395867 2.71916e-20)
(0.541317 0.0781228 -2.51871e-20)
(0.734467 0.122942 -2.26362e-20)
(0.899886 0.165662 -3.93921e-20)
(1.02344 0.199938 1.9454e-20)
(1.10409 0.223232 1.67007e-20)
(1.14949 0.236298 0)
(1.17051 0.241649 3.6566e-20)
(1.17707 0.242083 -5.35737e-20)
(1.17629 0.239797 3.95059e-20)
(1.17237 0.236164 1.7201e-20)
(1.16745 0.231895 -1.39563e-20)
(1.1625 0.227332 -1.15703e-20)
(1.15794 0.222617 -1.07695e-20)
(1.15396 0.217836 3.19437e-20)
(1.15054 0.213004 0)
(1.14763 0.208121 1.60824e-20)
(1.14512 0.20315 1.37015e-20)
(1.14283 0.198162 -3.35493e-20)
(1.14095 0.193116 -2.34203e-20)
(1.13941 0.187553 2.14871e-20)
(0.0122535 -0.000212871 -1.87112e-20)
(0.106872 0.0014532 -7.28237e-22)
(0.265562 0.0236553 1.5439e-20)
(0.467667 0.0637238 4.25057e-20)
(0.679427 0.114515 1.21301e-20)
(0.865914 0.165023 -2.30251e-20)
(1.00637 0.206228 2.07558e-20)
(1.09767 0.234337 -1.79069e-20)
(1.14845 0.250104 3.14563e-20)
(1.17144 0.256607 1.3177e-20)
(1.17814 0.257235 -3.69083e-20)
(1.17668 0.254616 1.07574e-20)
(1.17183 0.250394 1.81039e-20)
(1.16602 0.245451 -8.85026e-21)
(1.16032 0.240211 0)
(1.1551 0.234853 1.29496e-20)
(1.15043 0.229445 2.1771e-20)
(1.14625 0.223992 3.73971e-21)
(1.14253 0.218495 -1.79544e-20)
(1.13925 0.212957 7.48451e-21)
(1.13642 0.207383 0)
(1.13413 0.201913 -5.89468e-21)
(1.13212 0.196211 -5.66943e-21)
(1.13062 0.190845 0)
(0.0294973 -0.000952967 0)
(0.16477 0.00635196 9.10531e-21)
(0.364223 0.0424303 1.65906e-20)
(0.592946 0.0975336 -4.34332e-20)
(0.806247 0.157162 1.38412e-20)
(0.972086 0.208007 0)
(1.08157 0.243605 1.98538e-20)
(1.14285 0.264035 -2.73134e-20)
(1.17063 0.272833 -1.56614e-20)
(1.17874 0.274187 7.00283e-21)
(1.17706 0.271427 -1.09117e-20)
(1.17141 0.266662 2.63086e-20)
(1.16469 0.261023 1.30215e-20)
(1.15811 0.255039 -8.99806e-21)
(1.15204 0.248919 -8.47207e-22)
(1.14655 0.242744 -2.40957e-20)
(1.14162 0.236545 1.08901e-20)
(1.13725 0.230347 -3.17147e-22)
(1.13346 0.224177 0)
(1.13023 0.21805 -7.49196e-21)
(1.12749 0.212001 0)
(1.12506 0.205993 1.69641e-20)
(1.1229 0.199786 -2.01667e-20)
(1.12082 0.194478 9.1789e-21)
(0.0516602 0.000208269 -5.27745e-21)
(0.232681 0.0178223 -2.31814e-20)
(0.469683 0.070866 2.60617e-20)
(0.712472 0.139458 1.49263e-20)
(0.913173 0.203003 -7.02155e-21)
(1.05085 0.249703 1.14251e-20)
(1.13 0.277608 -5.49979e-21)
(1.16686 0.290408 8.89704e-21)
(1.17842 0.293306 0)
(1.17728 0.290685 1.94444e-20)
(1.17096 0.28539 -8.27343e-22)
(1.16322 0.278949 -1.53005e-20)
(1.15558 0.272066 6.46488e-21)
(1.14854 0.265029 -7.20056e-21)
(1.14221 0.257954 -2.68187e-21)
(1.13657 0.250899 3.13104e-21)
(1.1316 0.243901 -2.359e-21)
(1.12724 0.236979 -1.28514e-20)
(1.12344 0.230144 7.8071e-21)
(1.12015 0.223411 1.57626e-21)
(1.11729 0.216779 1.38394e-21)
(1.1148 0.21019 1.21781e-21)
(1.11252 0.203607 0)
(1.11027 0.198094 0)
(0.078494 0.00411565 5.28385e-21)
(0.307714 0.0372829 -4.86377e-21)
(0.574753 0.108734 -8.72911e-21)
(0.818141 0.187206 0)
(0.996638 0.249826 -3.49381e-21)
(1.10445 0.28946 -3.07846e-21)
(1.15731 0.309023 -5.10574e-21)
(1.17584 0.314866 0)
(1.17664 0.312878 0)
(1.17002 0.307077 0)
(1.16122 0.299668 0)
(1.1524 0.291671 0)
(1.14429 0.28351 -4.02548e-21)
(1.13705 0.27535 1.81015e-21)
(1.13064 0.26726 3.12362e-21)
(1.12497 0.259275 1.45665e-21)
(1.11999 0.251413 3.53452e-21)
(1.11563 0.243691 0)
(1.1119 0.23613 -8.28733e-22)
(1.10874 0.22875 -8.05561e-22)
(1.10607 0.221548 -1.38612e-21)
(1.1037 0.214444 -1.21973e-21)
(1.10148 0.207549 0)
(1.0992 0.201639 8.66756e-22)
(0.000783736 -0.0612735 4.63104e-21)
(-0.00256155 -0.128785 -4.4081e-21)
(-0.0126387 -0.160676 -8.16655e-21)
(-0.0261804 -0.170495 0)
(-0.0413761 -0.16833 -1.06108e-20)
(-0.0572607 -0.160679 3.32514e-21)
(-0.0732745 -0.150969 -6.08553e-21)
(-0.08914 -0.140529 0)
(-0.104762 -0.129555 0)
(-0.120145 -0.117797 0)
(-0.135337 -0.104912 0)
(-0.150405 -0.0905806 0)
(-0.165415 -0.0745224 1.65896e-22)
(-0.180427 -0.0564807 -3.9726e-21)
(-0.195474 -0.0362122 7.25044e-21)
(-0.210514 -0.0134602 1.04044e-20)
(-0.225502 0.0119472 3.07864e-21)
(-0.240576 0.0401432 0)
(-0.255762 0.0710742 3.02382e-21)
(-0.270901 0.104765 -8.18684e-21)
(-0.285873 0.141091 -5.05531e-21)
(-0.300632 0.179874 -4.76307e-21)
(-0.315333 0.220955 0)
(-0.330202 0.263842 0)
(0.00378414 -0.0561356 -1.37209e-20)
(0.00267245 -0.116518 2.1833e-20)
(-0.00765685 -0.143863 -7.84955e-21)
(-0.0224492 -0.150981 -1.4843e-20)
(-0.0392395 -0.147355 2.07691e-20)
(-0.0567887 -0.139011 -1.28044e-20)
(-0.0744272 -0.129046 1.79564e-20)
(-0.0918439 -0.118572 1.08401e-20)
(-0.108935 -0.107652 0)
(-0.125695 -0.0959567 -9.96594e-21)
(-0.142159 -0.0831036 -1.04816e-22)
(-0.158375 -0.0687609 8.66316e-21)
(-0.17438 -0.0526472 1.17372e-20)
(-0.190184 -0.0345021 1.48728e-20)
(-0.205726 -0.014093 -7.15679e-21)
(-0.220999 0.00874593 -1.97934e-20)
(-0.235994 0.0341105 5.83688e-21)
(-0.25062 0.0620597 -2.22714e-20)
(-0.264794 0.0926755 0)
(-0.278377 0.125906 5.35809e-21)
(-0.291112 0.161588 5.04803e-21)
(-0.3026 0.19948 4.75614e-21)
(-0.312866 0.239391 0)
(-0.323552 0.280951 0)
(0.00612845 -0.0497759 0)
(0.00684701 -0.102344 4.15256e-20)
(-0.00334644 -0.125287 -1.54222e-20)
(-0.0186527 -0.130092 1.45273e-20)
(-0.0361201 -0.125361 -3.94683e-20)
(-0.0542878 -0.11658 0)
(-0.0723889 -0.106543 -2.2792e-20)
(-0.0900726 -0.0962085 1.03277e-20)
(-0.107212 -0.0855508 -1.92186e-20)
(-0.123778 -0.0741847 8.43355e-21)
(-0.139771 -0.0616915 5.05778e-20)
(-0.155199 -0.0477225 -2.34761e-20)
(-0.170032 -0.031986 -3.70598e-20)
(-0.184226 -0.0142573 -1.31495e-20)
(-0.197769 0.00564079 3.71412e-23)
(-0.210582 0.0278156 4.73617e-20)
(-0.222525 0.0523854 -2.2048e-20)
(-0.23344 0.0793925 1.14229e-21)
(-0.243148 0.108825 0)
(-0.251459 0.140595 -1.66803e-20)
(-0.258082 0.174516 0)
(-0.262338 0.210289 -1.65387e-20)
(-0.263611 0.247528 5.81099e-20)
(-0.264542 0.285813 4.97426e-22)
(0.00772449 -0.0428223 0)
(0.0098022 -0.087419 -5.27945e-22)
(5.85216e-05 -0.10624 1.46662e-20)
(-0.015105 -0.10911 -1.35191e-20)
(-0.0324135 -0.103593 1.30257e-20)
(-0.0502288 -0.0945973 7.04301e-20)
(-0.0676943 -0.0846553 -2.18843e-20)
(-0.0844155 -0.0746256 -1.98507e-20)
(-0.100236 -0.0644404 3.75509e-20)
(-0.115091 -0.0536785 -5.24481e-20)
(-0.128942 -0.0418874 1.56644e-20)
(-0.141737 -0.0286945 1.44206e-20)
(-0.153433 -0.0138257 0)
(-0.163966 0.00290701 1.31689e-20)
(-0.173229 0.0216501 0)
(-0.181098 0.0425262 2.06082e-20)
(-0.187404 0.065594 -3.94726e-20)
(-0.19194 0.0908554 1.01e-20)
(-0.194457 0.118252 3.39369e-20)
(-0.194698 0.147661 1.66635e-20)
(-0.192449 0.178894 0)
(-0.187246 0.211708 -4.13151e-20)
(-0.177585 0.245719 1.33287e-20)
(-0.163658 0.279753 0)
(0.00856166 -0.0358008 0)
(0.0114535 -0.0726844 -4.7001e-20)
(0.00229953 -0.0877939 -1.42716e-20)
(-0.0122623 -0.0891566 -2.66516e-20)
(-0.0287725 -0.0832203 2.46951e-20)
(-0.045456 -0.0742971 -2.31964e-20)
(-0.0613752 -0.0646769 4.20078e-20)
(-0.076093 -0.0551641 1.96088e-20)
(-0.0894264 -0.0456955 -5.43352e-20)
(-0.101286 -0.0358468 3.29034e-20)
(-0.111601 -0.0251417 -4.59826e-20)
(-0.120293 -0.0131875 9.65434e-20)
(-0.127276 0.000294076 -5.17033e-20)
(-0.132443 0.0155093 2.2762e-20)
(-0.135666 0.0325912 6.33901e-20)
(-0.136791 0.0516192 -2.13662e-20)
(-0.135637 0.0726171 -1.79118e-20)
(-0.131991 0.0955504 -1.75296e-20)
(-0.125599 0.120316 0)
(-0.116177 0.146767 -2.73306e-20)
(-0.103428 0.174672 -2.49733e-20)
(-0.0871885 0.203802 3.60609e-20)
(-0.0675294 0.233787 4.53029e-20)
(-0.0369226 0.265262 -4.10211e-20)
(0.00866428 -0.0290608 0)
(0.0117305 -0.0587664 -6.02562e-20)
(0.00307039 -0.0706905 4.36954e-22)
(-0.0106958 -0.0710649 5.19135e-20)
(-0.0260368 -0.0651909 0)
(-0.0410832 -0.056759 0)
(-0.054829 -0.0478118 0)
(-0.0668013 -0.0391215 -1.88583e-20)
(-0.076804 -0.0306708 3.83323e-22)
(-0.0847399 -0.0220687 3.18692e-20)
(-0.0905268 -0.0128404 -4.396e-20)
(-0.0940723 -0.00257374 3.51013e-22)
(-0.0952682 0.00904371 0)
(-0.0939915 0.0222288 -2.27531e-20)
(-0.0901059 0.0371173 1.86746e-20)
(-0.0834597 0.0537776 -5.41875e-20)
(-0.0738855 0.0722204 6.52755e-20)
(-0.0612058 0.0923866 1.28452e-20)
(-0.0451874 0.114168 -1.40252e-21)
(-0.0255963 0.137358 -4.96878e-20)
(-0.002249 0.161759 -2.13674e-20)
(0.025487 0.186799 7.22942e-20)
(0.0544805 0.212342 -4.69113e-20)
(0.101745 0.239799 0)
(0.00803992 -0.0227455 3.07532e-20)
(0.0105263 -0.0459305 2.99468e-20)
(0.00202796 -0.0552838 -2.71385e-20)
(-0.01101 -0.0552909 -5.05434e-20)
(-0.0250835 -0.0501007 4.68323e-20)
(-0.0382821 -0.0427523 -4.29141e-20)
(-0.0495537 -0.0350096 5.94157e-20)
(-0.0583997 -0.0276052 -1.86934e-20)
(-0.0646188 -0.0205771 3.36074e-20)
(-0.0681225 -0.0136016 0)
(-0.0688451 -0.00624225 2.66471e-20)
(-0.0667059 0.00191353 -5.01392e-20)
(-0.0616055 0.0111988 4.52517e-20)
(-0.0534336 0.0218568 -4.21218e-20)
(-0.0420767 0.0340493 0)
(-0.0274066 0.047857 3.37993e-20)
(-0.00930035 0.063297 5.83452e-20)
(0.0123707 0.0803145 -5.54398e-20)
(0.0376441 0.0988203 -2.36035e-20)
(0.0670861 0.118458 -2.25993e-20)
(0.0992799 0.139397 6.23529e-20)
(0.139361 0.160262 1.77204e-20)
(0.173225 0.182651 -1.64861e-20)
(0.237487 0.201997 1.58941e-20)
(0.00664627 -0.0168206 -3.07608e-20)
(0.00769015 -0.0341241 8.69197e-20)
(-0.00113497 -0.0415435 -2.66096e-20)
(-0.0136755 -0.0418535 4.95776e-20)
(-0.0265583 -0.0380558 -4.59374e-20)
(-0.0379009 -0.032511 -1.29542e-22)
(-0.0466413 -0.0266607 1.9363e-20)
(-0.0522601 -0.0211533 6.98044e-20)
(-0.0545499 -0.0160683 -1.13172e-21)
(-0.0534372 -0.0111608 -3.05481e-20)
(-0.048875 -0.00605286 0)
(-0.0408036 -0.000353702 -2.316e-20)
(-0.0291448 0.0062791 4.46613e-20)
(-0.0138083 0.0141181 3.87928e-20)
(0.00527601 0.023354 -1.87786e-20)
(0.028169 0.0341224 -8.5702e-22)
(0.0549359 0.0464757 -1.464e-20)
(0.0857804 0.0603966 2.46344e-20)
(0.119918 0.0758259 2.36069e-20)
(0.160302 0.0923209 -2.13289e-20)
(0.198867 0.110428 1.81673e-20)
(0.254746 0.127752 -1.66853e-20)
(0.288476 0.148346 0)
(0.375068 0.161879 -1.58923e-20)
(0.00440481 -0.0111626 3.00378e-20)
(0.00310385 -0.0231094 -2.8845e-20)
(-0.00651678 -0.0291478 2.63998e-20)
(-0.0187397 -0.0303482 0)
(-0.0304404 -0.0285767 0)
(-0.0398392 -0.025497 4.08394e-20)
(-0.0458855 -0.0221831 -3.83733e-20)
(-0.0480346 -0.0191447 3.40035e-20)
(-0.0460348 -0.0164571 -1.59031e-19)
(-0.0397729 -0.0139136 5.23642e-22)
(-0.0291604 -0.0111816 2.60239e-20)
(-0.0141013 -0.00787699 0)
(0.00550941 -0.00363311 -4.17381e-20)
(0.0297724 0.0018681 7.61509e-20)
(0.0587798 0.00889146 -5.20873e-20)
(0.0925612 0.0176323 -7.46605e-20)
(0.130966 0.0281515 2.46932e-21)
(0.174694 0.0405829 4.81092e-20)
(0.220481 0.0545083 0)
(0.277719 0.0703874 0)
(0.322908 0.0869412 -1.81742e-20)
(0.404226 0.104864 1.66915e-20)
(0.433242 0.123233 -6.20085e-20)
(0.555598 0.139657 5.78711e-20)
(0.0012773 -0.00568704 0)
(-0.00314604 -0.012664 0)
(-0.0137458 -0.0176655 -7.89643e-20)
(-0.0254507 -0.0200744 2.44331e-20)
(-0.0354915 -0.0206447 2.88384e-22)
(-0.0422317 -0.0203386 4.11049e-20)
(-0.0446113 -0.0198186 0)
(-0.0419744 -0.0193817 -3.449e-20)
(-0.0338974 -0.0190117 3.1687e-20)
(-0.0200697 -0.0184961 -5.61108e-20)
(-0.00023445 -0.0174666 6.06855e-22)
(0.0258526 -0.0154903 4.56815e-20)
(0.0583561 -0.012146 -1.63123e-21)
(0.0973243 -0.00705872 3.48421e-20)
(0.142649 7.1195e-05 -5.13538e-20)
(0.194108 0.00944234 0)
(0.250888 0.0210176 5.12474e-20)
(0.314194 0.03515 -7.14366e-20)
(0.377252 0.0504991 2.09221e-20)
(0.456032 0.0692697 0)
(0.512067 0.0863234 1.74008e-20)
(0.618193 0.108875 6.45392e-20)
(0.646282 0.125046 -6.02598e-20)
(0.796045 0.149718 -7.41226e-20)
(-0.00261512 -0.000473625 8.92645e-20)
(-0.0105635 -0.00280129 -1.13207e-19)
(-0.0217447 -0.00681912 4.35199e-23)
(-0.0319769 -0.0103348 2.42581e-20)
(-0.0389013 -0.0130455 -4.47463e-20)
(-0.0409724 -0.0152101 -4.11808e-20)
(-0.0370009 -0.0170281 7.48358e-20)
(-0.0260593 -0.018522 -1.1761e-21)
(-0.0074209 -0.0195446 -6.3397e-20)
(0.019516 -0.0197525 1.1321e-19)
(0.0551792 -0.018671 -1.55585e-21)
(0.0997212 -0.0158269 -4.70695e-20)
(0.152955 -0.0107836 0)
(0.21431 -0.00320491 0)
(0.282815 0.00710115 -1.65281e-20)
(0.35731 0.0201497 -2.93517e-20)
(0.435945 0.0357144 -5.10422e-20)
(0.518651 0.0536909 4.75806e-20)
(0.599443 0.0728663 -2.09382e-20)
(0.688509 0.0943427 3.77173e-20)
(0.758509 0.113989 -1.77269e-20)
(0.86036 0.137405 3.29909e-20)
(0.898981 0.153633 -7.67792e-20)
(1.03045 0.178406 1.46129e-20)
(-0.00690163 0.00417213 2.9798e-20)
(-0.0181556 0.0060674 0)
(-0.0287517 0.00322301 5.25996e-20)
(-0.0355788 -0.00087967 -4.87075e-20)
(-0.0366599 -0.00498809 4.48044e-20)
(-0.0304257 -0.00867652 0)
(-0.0154369 -0.0116849 0)
(0.00954797 -0.0137472 -3.40113e-20)
(0.0454982 -0.0144681 1.35414e-21)
(0.0929756 -0.0133343 2.93476e-20)
(0.151956 -0.00985214 -2.50342e-20)
(0.221705 -0.00359629 4.72619e-20)
(0.300766 0.00570847 0)
(0.387081 0.0181189 7.26933e-20)
(0.478154 0.0334749 -1.32421e-19)
(0.571373 0.0512822 8.96814e-20)
(0.664192 0.0711282 5.15898e-20)
(0.754053 0.0918341 -4.80914e-20)
(0.839491 0.113324 0)
(0.918541 0.133584 0)
(0.98873 0.153354 0)
(1.05689 0.17024 0)
(1.10031 0.185123 1.55924e-20)
(1.17238 0.197252 -6.18064e-20)
(-0.347669 0.314168 -3.17587e-21)
(-0.365443 0.373663 3.17396e-21)
(-0.377886 0.430904 -9.34424e-23)
(-0.388237 0.486383 0)
(-0.391037 0.53424 -3.06177e-21)
(-0.38617 0.572103 6.01869e-21)
(-0.369254 0.594406 9.89776e-23)
(-0.338545 0.597067 -2.96793e-21)
(-0.291664 0.575662 0)
(-0.229238 0.528401 0)
(-0.153531 0.455524 -2.0859e-22)
(-0.0703189 0.36247 -2.13751e-22)
(0.0136805 0.25513 -3.66336e-21)
(0.0920163 0.140368 3.34661e-21)
(0.160879 0.02064 0)
(0.219274 -0.104025 0)
(0.266706 -0.240167 3.08614e-21)
(0.306872 -0.395124 -2.26242e-22)
(0.347288 -0.559876 -2.52957e-21)
(0.385683 -0.691587 -1.30181e-22)
(0.414423 -0.753079 0)
(0.419098 -0.749753 0)
(0.417904 -0.692331 0)
(0.420559 -0.609006 0)
(0.365051 -0.566619 0)
(0.25485 -0.557236 0)
(0.189886 -0.485954 1.83999e-22)
(0.217954 -0.31144 -2.75304e-22)
(0.300675 -0.0924205 0)
(0.40265 0.105549 0)
(0.499456 0.245502 -1.0905e-22)
(0.581367 0.322272 1.05958e-22)
(0.642299 0.347988 2.07403e-23)
(0.677409 0.345215 0)
(0.692826 0.323708 0)
(0.704757 0.289437 3.92051e-24)
(0.703138 0.252875 -3.81042e-24)
(0.674717 0.222922 0)
(0.643311 0.18347 1.79943e-24)
(0.647757 0.123163 -4.44637e-24)
(0.694339 0.0485223 1.90135e-24)
(0.758389 -0.0168976 0)
(0.817143 -0.0634492 6.73655e-24)
(0.860399 -0.0872689 -6.55022e-24)
(0.887831 -0.096147 0)
(0.902562 -0.0932455 0)
(0.905114 -0.0870931 5.15059e-24)
(0.898748 -0.0772546 -1.47493e-23)
(0.887656 -0.0664468 0)
(0.882677 -0.0497936 0)
(0.885679 -0.0311373 2.48545e-24)
(0.899576 -0.00999429 8.85367e-26)
(0.913885 0.00670515 2.90839e-25)
(0.930546 0.0199611 -1.45488e-24)
(0.938997 0.0264244 0)
(0.949733 0.0297501 0)
(0.950971 0.0288729 0)
(0.958876 0.0269522 0)
(0.957281 0.0243218 0)
(0.965146 0.0209088 0)
(-0.337964 0.329401 -2.64586e-22)
(-0.346197 0.38447 -1.16028e-20)
(-0.348767 0.437111 -2.45796e-22)
(-0.345838 0.485876 1.10988e-20)
(-0.333204 0.525431 1.76063e-22)
(-0.310839 0.553081 0)
(-0.275351 0.563633 -1.22204e-20)
(-0.226701 0.553989 2.48741e-20)
(-0.164234 0.521301 -1.26573e-20)
(-0.0908689 0.465315 1.37464e-20)
(-0.00892906 0.38848 -1.3139e-20)
(0.0757918 0.295822 1.41761e-20)
(0.156839 0.193445 -1.37746e-20)
(0.231039 0.0855725 -4.53569e-22)
(0.297277 -0.0263219 -1.4178e-20)
(0.353202 -0.142406 1.37686e-20)
(0.396334 -0.269865 -1.28236e-20)
(0.432834 -0.421767 1.20719e-20)
(0.470813 -0.587437 -9.81982e-21)
(0.500539 -0.719226 1.70263e-20)
(0.514892 -0.77226 -7.30005e-21)
(0.510886 -0.753483 -2.81598e-22)
(0.484014 -0.6947 -2.77179e-21)
(0.470013 -0.60273 4.71907e-21)
(0.437856 -0.52621 -1.9687e-21)
(0.335914 -0.502808 7.67801e-23)
(0.231417 -0.465569 1.37164e-21)
(0.213071 -0.334945 6.63571e-23)
(0.270698 -0.138979 -2.43708e-21)
(0.361861 0.0528427 2.05805e-21)
(0.457912 0.197823 -8.93194e-22)
(0.544667 0.285414 4.84086e-23)
(0.609123 0.32482 -2.07846e-23)
(0.647573 0.333348 1.45497e-23)
(0.672956 0.316828 0)
(0.689416 0.287867 0)
(0.677365 0.261124 -2.14982e-23)
(0.64049 0.235425 1.20797e-23)
(0.623002 0.186258 2.20555e-23)
(0.655387 0.1104 4.80487e-25)
(0.723496 0.0269198 -3.15157e-23)
(0.795241 -0.0383557 3.43959e-24)
(0.852277 -0.0796793 0)
(0.889472 -0.0975884 0)
(0.910246 -0.101826 0)
(0.92019 -0.0955163 0)
(0.921535 -0.0865856 -2.01422e-23)
(0.915862 -0.0747906 9.74969e-24)
(0.904073 -0.0637186 0)
(0.894343 -0.0485579 0)
(0.889847 -0.0322169 0)
(0.896333 -0.0126994 4.02024e-24)
(0.905612 0.00342421 -5.46463e-25)
(0.920237 0.017158 3.04616e-24)
(0.928562 0.0242259 0)
(0.940775 0.0282996 0)
(0.943403 0.0277925 -1.51085e-24)
(0.953329 0.0261674 -3.54509e-24)
(0.952626 0.0236408 0)
(0.962095 0.0200803 0)
(-0.271893 0.330522 9.06773e-22)
(-0.271922 0.380136 -2.0088e-20)
(-0.264816 0.427642 2.17545e-20)
(-0.250535 0.468983 -2.03264e-20)
(-0.22613 0.500833 -1.77327e-22)
(-0.191749 0.518728 0)
(-0.14507 0.519467 -2.52439e-20)
(-0.0869479 0.500902 2.47224e-20)
(-0.0177734 0.461256 2.04663e-22)
(0.0586785 0.401577 4.33925e-22)
(0.139201 0.325648 4.49499e-22)
(0.219202 0.236667 4.50655e-22)
(0.294518 0.140151 -3.00401e-20)
(0.36311 0.0390827 2.96259e-20)
(0.424437 -0.0646911 0)
(0.475145 -0.17092 8.83097e-22)
(0.513396 -0.287547 -2.62166e-20)
(0.550033 -0.434851 2.5843e-20)
(0.591002 -0.599833 0)
(0.617154 -0.728775 0)
(0.612783 -0.778878 -1.15168e-20)
(0.594195 -0.749148 1.91047e-20)
(0.556641 -0.684328 -1.28488e-20)
(0.517463 -0.597662 1.62885e-21)
(0.496191 -0.501366 6.07397e-21)
(0.422581 -0.450012 -4.56467e-21)
(0.302313 -0.427103 3.54146e-21)
(0.235038 -0.342869 -1.11576e-22)
(0.25898 -0.179179 -1.58468e-21)
(0.334318 0.00256125 0)
(0.425226 0.14956 0)
(0.511025 0.247752 1.56936e-22)
(0.57629 0.300765 -2.23992e-22)
(0.622182 0.318676 -7.97935e-24)
(0.657855 0.308179 5.82333e-23)
(0.670695 0.289505 -5.65836e-23)
(0.645782 0.273456 0)
(0.610991 0.245727 8.85246e-24)
(0.618932 0.180935 1.35423e-22)
(0.67968 0.090238 -2.64613e-22)
(0.762214 0.00224275 1.04439e-22)
(0.834831 -0.0592844 9.29214e-24)
(0.886157 -0.0938485 2.77338e-23)
(0.915899 -0.105633 -2.65107e-23)
(0.929855 -0.105678 -1.59044e-23)
(0.934578 -0.096846 -1.87251e-23)
(0.933784 -0.086106 2.01958e-23)
(0.928847 -0.0727324 0)
(0.918618 -0.0609123 0)
(0.907877 -0.0463468 5.75562e-23)
(0.899145 -0.031772 -2.6815e-23)
(0.89951 -0.0139696 2.03788e-23)
(0.903474 0.00106033 -2.42151e-23)
(0.91484 0.014722 -2.59243e-23)
(0.922055 0.0219828 5.83443e-24)
(0.934803 0.0266025 -9.02278e-24)
(0.938555 0.0263972 7.01463e-24)
(0.949994 0.0251071 -2.98639e-24)
(0.95026 0.0227352 0)
(0.960837 0.0191181 0)
(-0.16226 0.319871 -3.69322e-20)
(-0.156759 0.363473 -2.03062e-21)
(-0.141759 0.405006 3.67503e-20)
(-0.119418 0.439529 -3.25733e-22)
(-0.0881922 0.463531 0)
(-0.0480739 0.474415 0)
(0.00403942 0.4692 -5.05255e-20)
(0.0654447 0.446054 -4.85274e-21)
(0.134677 0.403749 7.9991e-20)
(0.208322 0.34412 1.55536e-21)
(0.28337 0.270484 -2.87549e-20)
(0.356197 0.18639 -2.95803e-20)
(0.423976 0.0960048 2.96245e-20)
(0.485989 0.00172327 0)
(0.541407 -0.0952086 -2.94924e-20)
(0.586258 -0.192574 2.68553e-20)
(0.621246 -0.300317 0)
(0.662171 -0.444207 0)
(0.708389 -0.609087 1.99236e-20)
(0.732241 -0.73103 -3.89657e-21)
(0.715233 -0.772869 -1.45966e-20)
(0.674087 -0.738572 -7.97654e-21)
(0.628817 -0.666722 7.8495e-21)
(0.570528 -0.586964 -3.52889e-21)
(0.538819 -0.489441 1.21401e-21)
(0.498519 -0.408339 2.11123e-21)
(0.393953 -0.375942 1.39119e-22)
(0.28796 -0.329171 4.62703e-23)
(0.267138 -0.208725 0)
(0.319478 -0.0446896 5.33006e-22)
(0.400131 0.102205 -5.27749e-22)
(0.481362 0.209982 2.51651e-23)
(0.549156 0.27427 0)
(0.604816 0.300471 -6.69137e-24)
(0.644317 0.299928 1.04155e-22)
(0.645978 0.295523 -2.53889e-22)
(0.612638 0.287079 -1.20571e-22)
(0.59302 0.249984 -9.00371e-23)
(0.632695 0.16687 2.75509e-22)
(0.717078 0.0649902 3.70608e-23)
(0.806412 -0.0230442 -1.92152e-22)
(0.874584 -0.0781647 1.73897e-22)
(0.917442 -0.10541 -3.24938e-24)
(0.939068 -0.111453 -4.90541e-23)
(0.946731 -0.10788 6.36555e-23)
(0.946769 -0.0971879 1.29922e-22)
(0.943387 -0.0854573 -3.62552e-23)
(0.938395 -0.0711454 -7.28115e-23)
(0.930117 -0.0585889 1.36358e-22)
(0.920645 -0.0440047 -9.38335e-23)
(0.910846 -0.0304917 2.13553e-23)
(0.907492 -0.0140973 -2.76783e-23)
(0.907212 -0.000348315 -2.08772e-23)
(0.915079 0.0128248 4.08452e-23)
(0.92066 0.0198832 -1.30968e-24)
(0.933028 0.0247945 9.39379e-24)
(0.937502 0.0247873 0)
(0.949663 0.0238364 3.02216e-24)
(0.950809 0.0216635 -3.80321e-24)
(0.961748 0.018082 0)
(-0.0272766 0.299428 3.33782e-20)
(-0.0173343 0.337692 -6.75293e-20)
(0.00233819 0.373189 3.37793e-20)
(0.0286921 0.402131 3.98289e-20)
(0.063651 0.420463 -8.18481e-20)
(0.106847 0.427506 -4.28458e-21)
(0.159048 0.419424 4.5265e-20)
(0.218728 0.394613 5.31215e-20)
(0.284101 0.352524 -5.19933e-20)
(0.352227 0.295052 0)
(0.420452 0.225166 -6.05197e-20)
(0.486054 0.146083 1.20243e-19)
(0.546728 0.0616426 -5.9708e-20)
(0.601473 -0.0257694 0)
(0.65011 -0.116575 0)
(0.689501 -0.20678 9.00624e-22)
(0.723902 -0.309401 -5.29961e-20)
(0.770784 -0.450131 5.1448e-20)
(0.820083 -0.610198 0)
(0.835943 -0.723297 3.19775e-20)
(0.809056 -0.75399 -5.23828e-20)
(0.751254 -0.717992 3.71252e-20)
(0.694669 -0.645011 -2.55169e-20)
(0.632451 -0.568179 3.43155e-21)
(0.57905 -0.483443 1.02106e-20)
(0.552764 -0.387418 -3.75696e-21)
(0.487164 -0.327767 -5.1663e-23)
(0.372403 -0.294302 -7.20163e-23)
(0.301576 -0.21926 1.00484e-22)
(0.317777 -0.0856687 -1.45423e-25)
(0.38385 0.056053 1.01557e-23)
(0.461059 0.170484 1.70377e-22)
(0.533044 0.24392 -2.98084e-22)
(0.593973 0.28023 1.4933e-22)
(0.627482 0.294349 0)
(0.615722 0.304859 -2.3369e-22)
(0.584071 0.298039 2.40246e-22)
(0.591182 0.245704 -4.01172e-22)
(0.663018 0.145166 5.00603e-22)
(0.763697 0.0372452 -5.92447e-23)
(0.852863 -0.0467878 0)
(0.912686 -0.0940014 -2.24147e-23)
(0.94549 -0.114069 1.42072e-23)
(0.958869 -0.115159 0)
(0.960906 -0.108706 -1.50738e-22)
(0.957197 -0.0966842 5.28607e-23)
(0.951448 -0.0845123 -3.76644e-23)
(0.945745 -0.0698564 -3.58033e-23)
(0.938791 -0.0568759 0)
(0.931289 -0.0420554 0)
(0.922522 -0.0290487 7.41083e-23)
(0.917926 -0.0136007 -1.09037e-22)
(0.915252 -0.00102375 5.70676e-23)
(0.920304 0.0114608 -1.72062e-23)
(0.924322 0.0180389 -2.61228e-23)
(0.935663 0.0230067 -9.40392e-24)
(0.940453 0.0230936 1.43983e-23)
(0.952469 0.0224579 0)
(0.954283 0.0205167 6.24474e-24)
(0.964786 0.0170483 1.50619e-24)
(0.114665 0.270544 3.05821e-20)
(0.131094 0.305496 -3.02188e-20)
(0.153623 0.336592 2.71093e-22)
(0.182091 0.361427 -2.69905e-22)
(0.217838 0.377097 3.14195e-22)
(0.260749 0.381673 -3.40651e-22)
(0.310758 0.372606 7.02528e-22)
(0.366715 0.348518 0)
(0.426855 0.308996 -8.15211e-22)
(0.488796 0.255483 8.624e-22)
(0.550019 0.190518 8.99148e-22)
(0.608324 0.116999 -9.50106e-22)
(0.661832 0.0386403 0)
(0.709301 -0.0433269 0)
(0.751431 -0.128998 9.11883e-22)
(0.786384 -0.214927 0)
(0.823242 -0.316688 -8.33225e-22)
(0.877653 -0.456418 0)
(0.928656 -0.606242 -3.81525e-20)
(0.934058 -0.706231 6.79658e-20)
(0.892007 -0.727996 -5.14779e-20)
(0.824152 -0.691072 2.17767e-20)
(0.754293 -0.623022 1.02445e-20)
(0.69362 -0.546292 -9.9445e-21)
(0.629651 -0.472632 -3.65331e-21)
(0.591406 -0.382584 3.47853e-21)
(0.560465 -0.297845 0)
(0.473649 -0.250651 -2.57092e-23)
(0.371461 -0.205531 0)
(0.336901 -0.112324 0)
(0.376422 0.0127232 -1.04337e-21)
(0.447381 0.128299 1.1106e-21)
(0.521486 0.210393 -6.91505e-23)
(0.580401 0.260578 -2.08029e-23)
(0.602656 0.29236 1.0087e-23)
(0.583156 0.314838 -2.56607e-22)
(0.566266 0.302772 2.49116e-22)
(0.607431 0.232266 -6.37198e-22)
(0.707139 0.118109 5.6082e-22)
(0.815969 0.00934588 1.30632e-22)
(0.899023 -0.0676168 -2.88867e-22)
(0.947788 -0.106262 1.21886e-22)
(0.969937 -0.119797 1.13542e-22)
(0.975473 -0.11694 0)
(0.972586 -0.108433 4.87139e-23)
(0.966024 -0.095565 -1.03489e-22)
(0.958475 -0.0832849 1.32883e-22)
(0.95188 -0.0686864 3.60432e-23)
(0.945463 -0.0556526 0)
(0.93962 -0.0406724 -2.73076e-23)
(0.932693 -0.0278871 5.56429e-23)