/*--------------------------------*- C++ -*----------------------------------*\
| =========                 |                                                 |
| \\      /  F ield         | OpenFOAM: The Open Source CFD Toolbox           |
|  \\    /   O peration     | Version:  2312                                  |
|   \\  /    A nd           | Website:  www.openfoam.com                      |
|    \\/     M anipulation  |                                                 |
\*---------------------------------------------------------------------------*/
FoamFile
{
    version     2.0;
    format      ascii;
    arch        "LSB;label=32;scalar=64";
    class       surfaceScalarField;
    location    "15";
    object      phi;
}
// * * * * * * * * * * * * * * * * * * * * * * * * * * * * * * * * * * * * * //

dimensions      [0 3 -1 0 0 0 0];

oriented        oriented;

internalField   nonuniform List<scalar> 
10785
(
-0.000737208
0.00314645
-0.00240924
0.000342578
0.00444509
-0.00552487
0.00532846
0.000674058
-0.00565994
0.0163882
-0.00930992
-0.00174977
0.0351305
-0.025705
0.00696263
0.0613777
-0.0467199
0.0204727
0.093091
-0.069731
0.0380178
0.127279
-0.092414
0.0582263
0.160376
-0.11297
0.0798725
0.190024
-0.13065
0.101002
0.213196
-0.144962
0.12179
0.230024
-0.15592
0.139093
0.240188
-0.165724
0.155561
0.244404
-0.171739
0.167523
-0.181765
0.179216
0.246952
-0.000400618
0.00354707
0.00209263
0.00195184
0.0108378
-0.00807108
0.0284083
-0.0268804
0.0542426
-0.0515393
0.0849248
-0.0774021
0.116094
-0.1009
0.143888
-0.120208
0.165987
-0.135069
0.181569
-0.146232
0.191506
-0.1549
0.198648
-0.163062
0.204239
-0.171316
0.212893
-0.180392
-0.192142
0.22327
0.000527062
0.00302
0.00598184
-0.00350294
0.0204359
-0.0225251
0.0440582
-0.0505028
0.0722924
-0.0797735
0.0995974
-0.104707
0.122063
-0.123365
0.138304
-0.13645
0.149168
-0.145932
0.156811
-0.153875
0.16388
-0.161969
0.171377
-0.17056
0.179841
-0.179779
0.188424
-0.188975
-0.19801
0.194292
0.00168153
0.00133847
0.011175
-0.0129964
0.0310738
-0.0424239
0.0565454
-0.0759744
0.080684
-0.103912
0.0994328
-0.123456
0.112282
-0.136214
0.121019
-0.145186
0.127933
-0.152847
0.134622
-0.160563
0.141141
-0.168488
0.147254
-0.176673
0.15246
-0.184984
0.156974
-0.193489
-0.203031
0.161995
0.00314348
-0.00180501
0.0169714
-0.0268244
0.0392572
-0.0647097
0.0613348
-0.098052
0.0781301
-0.120707
0.0892669
-0.134593
0.0967212
-0.143669
0.102475
-0.15094
0.107532
-0.157903
0.111953
-0.164985
0.115914
-0.172449
0.11965
-0.180409
0.123548
-0.188882
0.128054
-0.197996
-0.207226
0.13225
0.00500746
-0.00681247
0.0218804
-0.0436973
0.0423173
-0.0851466
0.0584985
-0.114233
0.0689738
-0.131183
0.0754471
-0.141066
0.0798259
-0.148047
0.0832104
-0.154325
0.0860654
-0.160758
0.0887721
-0.167691
0.0914895
-0.175166
0.0941916
-0.183111
0.0967601
-0.19145
0.0987886
-0.200025
-0.208885
0.100447
0.00701164
-0.0138241
0.0242996
-0.0609853
0.0404008
-0.101248
0.0510334
-0.124866
0.057001
-0.13715
0.0602928
-0.144358
0.0623565
-0.150111
0.063923
-0.155891
0.0652957
-0.162131
0.0664566
-0.168852
0.0673403
-0.17605
0.067966
-0.183737
0.0683683
-0.191852
0.0687718
-0.200428
-0.209317
0.0692046
0.00846357
-0.0222877
0.0236278
-0.0761495
0.0351264
-0.112746
0.0413014
-0.131041
0.0439612
-0.13981
0.0449393
-0.145336
0.0452298
-0.150402
0.0451666
-0.155828
0.0447866
-0.161751
0.0441411
-0.168207
0.0433071
-0.175216
0.0423102
-0.18274
0.0411796
-0.190722
0.0397758
-0.199024
0.0382496
-0.207791
-0.0050277
0.00994984
-0.00492214
-0.0141075
0.0174539
-0.0083741
-0.0247435
0.0203257
-0.00968962
-0.0360385
0.0217085
-0.0104135
-0.0477289
0.0225926
-0.0109022
-0.0596593
0.0230553
-0.0111249
-0.0716623
0.023037
-0.011034
-0.0835603
0.0224989
-0.0106009
-0.0951642
0.0214119
-0.00980801
-0.106262
0.0197447
-0.00864691
-0.116631
0.0174826
-0.00711322
-0.126115
0.0146714
-0.00518743
-0.134338
0.0110394
-0.00281631
-0.141448
0.0070344
7.47881e-05
0.00153506
-0.14593
0.00294774
-0.00255535
0.0125052
-0.00830591
0.0232044
-0.01553
0.0275498
-0.0231103
0.0292887
-0.0305048
0.0299871
-0.0374259
0.0299764
-0.0436241
0.0292352
-0.0488474
0.0277223
-0.0528569
0.0254214
-0.0554259
0.0223136
-0.0560995
0.0181562
-0.0550602
0.0136322
-0.0512631
0.00724227
-0.0454851
0.00125641
-0.00747185
-0.0364782
0.000288674
0.0122165
-0.00122181
0.0247149
-0.00408294
0.0304109
-0.00715845
0.0323642
-0.00962159
0.0324502
-0.0109984
0.0313532
-0.0109734
0.0292101
-0.00928271
0.0260316
-0.00561468
0.0217534
0.000181166
0.0165178
0.00839487
0.00994246
0.0189948
0.00303229
0.0329867
-0.00674967
0.0493927
-0.0151495
-0.0287265
0.0706473
0.00245931
0.0097572
0.00504625
0.022128
0.00681796
0.0286392
0.00841738
0.0307648
0.0107611
0.0301065
0.0145128
0.0276015
0.0200872
0.0236357
0.0277248
0.0183941
0.0376632
0.0118151
0.0498698
0.00431116
0.0650152
-0.00520301
0.0825588
-0.0145113
0.104624
-0.0288145
0.128681
-0.0392072
-0.0601261
0.160081
0.00328299
0.00647421
0.00852965
0.0168813
0.0140747
0.0230941
0.01983
0.0250096
0.0263672
0.0235693
0.0342854
0.0196834
0.0439862
0.0139349
0.0557028
0.0066775
0.0696115
-0.00209367
0.0865093
-0.0125866
0.106621
-0.0253146
0.130612
-0.0385027
0.158916
-0.057118
0.191526
-0.0718179
-0.0981711
0.229571
0.00272979
0.00374442
0.00833201
0.0112791
0.015383
0.0160431
0.0233541
0.0170385
0.0323179
0.0146054
0.0426288
0.00937253
0.0547175
0.00184617
0.0694609
-0.0080659
0.0876777
-0.0203105
0.109878
-0.0347868
0.13636
-0.051797
0.168643
-0.0707852
0.203571
-0.0920457
0.24419
-0.112437
-0.137529
0.283548
0.00137209
0.00237233
0.00533112
0.00732008
0.011367
0.0100072
0.0190869
0.00931866
0.0286553
0.00503697
0.0408313
-0.00280344
0.0568094
-0.014132
0.0773099
-0.0285664
0.1032
-0.0462007
0.13386
-0.0654462
0.168898
-0.0868354
0.206398
-0.108285
0.243698
-0.129346
0.280906
-0.149645
-0.166017
0.309393
-3.69104e-05
0.00175829
0.00610553
0.0136744
0.025674
0.0433433
0.0672291
0.096889
0.130561
0.166116
0.201071
0.231878
0.258093
0.275971
0.28917
-0.14185
-0.0126628
0.00858259
-0.133416
-0.0239849
0.0155505
-0.120717
-0.0348899
0.0221914
-0.103331
-0.0467154
0.0293287
-0.0815423
-0.058227
0.0364387
-0.0547379
-0.0677189
0.0409145
-0.0231412
-0.0760585
0.0444618
0.0128422
-0.0807633
0.0447799
0.0523745
-0.0822613
0.042729
0.0919816
-0.0796688
0.0400618
0.128394
-0.0733101
0.0368982
0.159587
-0.0648722
0.0336793
0.184603
-0.0559538
0.0309373
0.20378
-0.0478683
0.0286913
0.218191
-0.0412727
0.0268619
0.228983
-0.0361066
0.025314
0.23713
-0.032032
0.0238849
0.243418
-0.0288712
0.0225835
0.248525
-0.0266245
0.0215175
0.253006
-0.0249958
0.0205145
0.257168
-0.0235265
0.0193651
0.260999
-0.0214109
0.0175801
0.26431
-0.0189361
0.0156244
0.266902
-0.0153685
0.0127763
0.268749
-0.0126093
0.0107627
0.269877
-0.00777406
0.00664587
0.270484
-0.00592947
0.00532252
0.270608
0.00134391
-0.0014674
0.270459
0.00118668
-0.00103778
0.27002
0.0125647
-0.0121262
0.26942
0.0099016
-0.00930107
0.268645
0.0258948
-0.0251206
0.26772
0.0227154
-0.0217897
0.2667
0.041702
-0.0406818
0.265552
0.0408646
-0.0397174
0.2643
0.0637044
-0.0624524
0.262962
0.0646317
-0.0632938
0.0945778
-0.0931371
-0.0314415
-0.0176994
-0.0235145
-0.0319119
-0.0121427
-0.0462616
0.0025814
-0.0614395
0.0206096
-0.0762552
0.042701
-0.0898103
0.0680983
-0.101456
0.096542
-0.109207
0.126601
-0.112321
0.156004
-0.109071
0.182171
-0.0994771
0.203569
-0.0862703
0.220354
-0.0727388
0.232812
-0.0603272
0.2417
-0.0501598
0.247918
-0.0423252
0.252274
-0.0363879
0.255332
-0.0319292
0.257559
-0.0288517
0.259422
-0.0268581
0.261281
-0.0253855
0.263236
-0.0233666
0.265168
-0.0208681
0.266858
-0.0170585
0.268197
-0.0139476
0.269102
-0.00867933
0.269669
-0.00649666
0.26985
0.00116272
0.269814
0.00122334
0.269503
0.0128756
0.269043
0.0103614
0.268398
0.0265401
0.267614
0.0234988
0.266709
0.0426071
0.265695
0.0418791
0.264539
0.0648597
0.263311
0.0658596
0.0959531
0.0739491
-0.0210012
0.0795474
-0.0375102
0.087181
-0.0538952
0.0971079
-0.0713664
0.109933
-0.0890801
0.125872
-0.10575
0.144483
-0.120067
0.164751
-0.129476
0.184747
-0.132316
0.202819
-0.127143
0.217832
-0.11449
0.229621
-0.0980598
0.238697
-0.081815
0.245585
-0.0672153
0.250657
-0.0552312
0.254388
-0.046056
0.257161
-0.0391615
0.259151
-0.0339193
0.260474
-0.0301747
0.261373
-0.0277569
0.262175
-0.0261879
0.263084
-0.0242746
0.264115
-0.0219
0.265145
-0.0180881
0.26609
-0.0148923
0.266836
-0.00942564
0.267423
-0.0070834
0.267737
0.000848925
0.267904
0.00105586
0.267825
0.0129543
0.267623
0.0105637
0.267232
0.0269312
0.266724
0.0240066
0.266076
0.0432559
0.265342
0.0426128
0.26444
0.065762
0.263486
0.0668135
0.0970887
0.162257
-0.0231774
0.165328
-0.0405806
0.16907
-0.0576375
0.173837
-0.0761331
0.18051
-0.0957539
0.189249
-0.114488
0.199277
-0.130095
0.209398
-0.139596
0.217777
-0.140696
0.223789
-0.133155
0.228024
-0.118725
0.231413
-0.101449
0.234693
-0.0850945
0.238381
-0.0709036
0.242172
-0.0590224
0.245847
-0.049731
0.249269
-0.0425832
0.252241
-0.0368914
0.254591
-0.0325246
0.256338
-0.029504
0.257702
-0.0275521
0.258898
-0.0254701
0.260034
-0.0230359
0.261089
-0.019144
0.262074
-0.0158764
0.262922
-0.0102736
0.263693
-0.00785446
0.264262
0.000279867
0.264741
0.000576189
0.265004
0.0126918
0.265174
0.0103933
0.265162
0.0269436
0.265059
0.0241093
0.264807
0.043508
0.264498
0.0429216
0.264005
0.066255
0.263486
0.0673325
0.0978103
0.231457
-0.0250631
0.232704
-0.0418277
0.233425
-0.0583587
0.234209
-0.0769169
0.234789
-0.0963333
0.234685
-0.114384
0.233586
-0.128996
0.231677
-0.137688
0.228043
-0.137062
0.223516
-0.128628
0.22
-0.115209
0.218829
-0.100278
0.220067
-0.0863325
0.22335
-0.0741863
0.227809
-0.0634813
0.232561
-0.0544835
0.237162
-0.0471838
0.241338
-0.0410675
0.244872
-0.0360589
0.247691
-0.0323224
0.249933
-0.0297946
0.251799
-0.0273364
0.253443
-0.024679
0.254894
-0.0205959
0.256221
-0.0172032
0.257393
-0.0114449
0.258509
-0.00897061
0.259454
-0.000664977
0.260355
-0.00032504
0.261067
0.0119796
0.261721
0.00973897
0.262209
0.0264563
0.262635
0.0236828
0.262917
0.0432258
0.263172
0.0426666
0.263243
0.0661846
0.263315
0.0672603
0.0979455
0.283149
-0.0246646
0.280627
-0.0393052
0.276394
-0.0541263
0.270974
-0.0714969
0.263915
-0.0892743
0.254948
-0.105417
0.243829
-0.117877
0.230467
-0.124325
0.217938
-0.124534
0.208247
-0.118937
0.202837
-0.109798
0.201933
-0.099374
0.204536
-0.0889353
0.209263
-0.0789131
0.214801
-0.0690192
0.220402
-0.0600847
0.225633
-0.0524149
0.230335
-0.0457696
0.234416
-0.0401397
0.237805
-0.035712
0.240589
-0.0325785
0.242945
-0.029692
0.24505
-0.0267839
0.246953
-0.0224988
0.248732
-0.0189824
0.250357
-0.0130698
0.251935
-0.0105487
0.253374
-0.00210442
0.254803
-0.00175359
0.256061
0.0107217
0.257304
0.00849548
0.258407
0.0253539
0.25948
0.0226095
0.260429
0.0422766
0.261381
0.0417153
0.262164
0.0654009
0.262977
0.0664475
0.0973258
0.305829
-0.0211005
0.298788
-0.0322637
0.289259
-0.0445972
0.27736
-0.0595977
0.263113
-0.0750277
0.246994
-0.0892977
0.229763
-0.100646
0.212916
-0.107477
0.199531
-0.111149
0.191363
-0.110769
0.188414
-0.106849
0.189572
-0.100532
0.193227
-0.0925902
0.198027
-0.083713
0.203388
-0.0743794
0.208788
-0.0654853
0.214021
-0.0576481
0.218854
-0.0506025
0.223167
-0.0444522
0.226869
-0.0394147
0.23
-0.0357094
0.232711
-0.0324025
0.235203
-0.029276
0.237537
-0.0248334
0.239803
-0.0212485
0.241941
-0.0152077
0.244072
-0.012679
0.246082
-0.00411497
0.248137
-0.003808
0.250042
0.00881614
0.251975
0.00656308
0.253802
0.0235269
0.255631
0.0207798
0.257373
0.0405347
0.259145
0.0399437
0.260785
0.0637608
0.262479
0.0647534
0.0957881
0.284479
-0.0164094
0.276606
-0.024391
0.266452
-0.0344427
0.253617
-0.046763
0.238721
-0.0601316
0.222838
-0.0734153
0.20725
-0.085058
0.193871
-0.0940986
0.183032
-0.10031
0.176217
-0.103955
0.173846
-0.104478
0.174675
-0.101362
0.177778
-0.0956935
0.182376
-0.0883106
0.187871
-0.0798744
0.193628
-0.0712428
0.199166
-0.0631857
0.204351
-0.055788
0.209127
-0.0492274
0.213386
-0.0436741
0.217118
-0.039441
0.220428
-0.0357128
0.223521
-0.0323688
0.226469
-0.0277817
0.22937
-0.0241497
0.232157
-0.0179941
0.234953
-0.0154749
0.237652
-0.0068141
0.24041
-0.00656648
0.24307
0.0061565
0.245789
0.00384435
0.248447
0.0208684
0.251135
0.0180917
0.253789
0.0378804
0.256495
0.0372378
0.259127
0.0611289
0.261832
0.0620491
0.0931761
0.321157
-0.0138566
-0.32371
0.319615
-0.0228492
0.317249
-0.032077
0.312997
-0.0425108
0.306726
-0.05386
0.298835
-0.0655248
0.290196
-0.0764186
0.281618
-0.0855205
0.273342
-0.0920338
0.265384
-0.0959968
0.258146
-0.0972394
0.252011
-0.0952267
0.247016
-0.0906986
0.243276
-0.0845701
0.240797
-0.0773958
0.239436
-0.0698823
0.238952
-0.0627017
0.239126
-0.0559612
0.239721
-0.0498231
0.24052
-0.0444724
0.241302
-0.0402236
0.241941
-0.0363516
0.242427
-0.0328552
0.242843
-0.0281979
0.243238
-0.0245438
0.243661
-0.018417
0.24407
-0.0158841
0.244519
-0.0072638
0.244948
-0.00699511
0.24535
0.0057545
0.245766
0.00342886
0.246119
0.0205146
0.246515
0.0176964
0.246849
0.0375458
0.247239
0.036848
0.247589
0.0607786
0.24802
0.061618
0.0927477
0.344932
-0.0122526
-0.346536
0.342799
-0.020717
0.340263
-0.0295409
0.336558
-0.0388059
0.331334
-0.0486356
0.324549
-0.0587396
0.316571
-0.0684413
0.307893
-0.0768425
0.299141
-0.0832816
0.290531
-0.0873864
0.282462
-0.0891705
0.275591
-0.0883562
0.270124
-0.0852316
0.266113
-0.0805588
0.263551
-0.0748334
0.262227
-0.0685587
0.261788
-0.0622625
0.261966
-0.0561394
0.262545
-0.0504024
0.263321
-0.0452482
0.264103
-0.0410057
0.264769
-0.0370169
0.265291
-0.0333776
0.265734
-0.0286411
0.266151
-0.0249602
0.266588
-0.0188547
0.267033
-0.0163288
0.267493
-0.00772408
0.267942
-0.00744355
0.268376
0.00532008
0.268825
0.00298033
0.269214
0.0201256
0.26965
0.0172601
0.270026
0.0371701
0.27046
0.0364134
0.270866
0.0603727
0.27135
0.0611344
0.0922423
0.3687
-0.0118462
-0.369106
0.367142
-0.0191594
0.364769
-0.027168
0.361333
-0.0353698
0.356589
-0.0438917
0.350474
-0.0526241
0.343108
-0.0610755
0.334964
-0.0686988
0.326566
-0.0748837
0.318347
-0.0791672
0.310642
-0.0814657
0.303955
-0.0816693
0.298545
-0.0798214
0.294429
-0.0764425
0.291586
-0.0719905
0.289842
-0.0668147
0.288921
-0.0613419
0.28862
-0.055838
0.288776
-0.0505588
0.289202
-0.0456739
0.289712
-0.0415162
0.290187
-0.037491
0.290591
-0.0337819
0.290965
-0.0290151
0.291348
-0.0253432
0.291765
-0.0192721
0.292208
-0.0167714
0.292672
-0.0081882
0.293158
-0.00792946
0.293605
0.0048729
0.294091
0.00249421
0.294508
0.0197089
0.294988
0.0167803
0.295407
0.0367507
0.295894
0.0359268
0.296363
0.0599033
0.29691
0.0605874
0.0916499
0.394296
-0.0119726
-0.39417
0.393179
-0.0180425
0.390987
-0.0249762
0.387804
-0.0321859
0.383493
-0.0395811
0.377946
-0.047077
0.371289
-0.0544187
0.363823
-0.061233
0.355997
-0.0670574
0.34829
-0.0714604
0.341019
-0.0741943
0.334533
-0.0751836
0.329117
-0.0744049
0.324788
-0.0721136
0.32154
-0.0687432
0.319334
-0.0646082
0.317994
-0.0600017
0.317341
-0.0551857
0.317208
-0.0504251
0.317396
-0.0458627
0.31772
-0.0418393
0.318056
-0.0378272
0.318369
-0.0340955
0.318682
-0.0293275
0.319031
-0.0256918
0.319422
-0.0196634
0.319863
-0.0172124
0.320313
-0.00863856
0.320809
-0.00842533
0.321262
0.0044197
0.321781
0.00197593
0.322225
0.0192645
0.322748
0.0162577
0.323216
0.0362821
0.323759
0.0353841
0.324301
0.0593612
0.324921
0.0599673
0.0909564
0.422153
-0.0121799
-0.421946
0.421358
-0.0172473
0.419502
-0.0231205
0.41667
-0.0293539
0.412826
-0.0357363
0.407946
-0.0421973
0.402094
-0.0485669
0.395473
-0.0546116
0.388446
-0.0600311
0.381371
-0.0643855
0.374542
-0.067365
0.36824
-0.0688818
0.36276
-0.0689242
0.358205
-0.0675589
0.35461
-0.0651478
0.351985
-0.0619839
0.350216
-0.0582321
0.349143
-0.0541129
0.348624
-0.0499066
0.348483
-0.0457213
0.348543
-0.0418995
0.34869
-0.0379742
0.348886
-0.0342916
0.349127
-0.0295687
0.349437
-0.0260011
0.349791
-0.0200182
0.350215
-0.0176361
0.350643
-0.00906606
0.351147
-0.00892933
0.351597
0.00396888
0.352142
0.00143151
0.352611
0.0187958
0.353174
0.0156944
0.353697
0.0357591
0.3543
0.0347811
0.354924
0.0587369
0.355627
0.059264
0.090144
0.452741
-0.0125023
-0.452418
0.452229
-0.0167356
0.450763
-0.0216543
0.448348
-0.0269392
0.445007
-0.0323951
0.440753
-0.0379432
0.435636
-0.0434498
0.429819
-0.0487948
0.42348
-0.0536926
0.416899
-0.057804
0.410428
-0.0608937
0.404344
-0.062798
0.398897
-0.0634776
0.394256
-0.0629172
0.390469
-0.0613617
0.387552
-0.0590662
0.385443
-0.0561232
0.384022
-0.0526922
0.383168
-0.0490526
0.382721
-0.045274
0.382518
-0.0416971
0.382456
-0.0379118
0.382501
-0.0343361
0.382629
-0.0296971
0.382861
-0.0262333
0.383152
-0.0203094
0.383544
-0.0180281
0.383934
-0.00945567
0.384431
-0.00942621
0.384869
0.00353053
0.385434
0.000866457
0.385926
0.0183041
0.386531
0.0150899
0.387113
0.0351764
0.387782
0.0341121
0.3885
0.0580191
0.3893
0.0584643
0.0891943
0.486543
-0.0129119
-0.486134
0.48622
-0.0164127
0.485063
-0.0204969
0.483052
-0.0249286
0.480202
-0.0295448
0.476532
-0.0342727
0.472091
-0.0390097
0.466967
-0.0436703
0.461305
-0.0480303
0.45534
-0.0518396
0.449365
-0.0549188
0.443624
-0.0570571
0.438351
-0.0582043
0.433733
-0.0582993
0.429824
-0.0574526
0.426648
-0.0558902
0.424195
-0.0536697
0.422392
-0.0508895
0.421156
-0.0478164
0.420359
-0.0444776
0.419859
-0.0411967
0.419556
-0.0376089
0.419425
-0.0342056
0.419427
-0.0296991
0.419574
-0.0263801
0.419788
-0.0205237
0.420128
-0.0183678
0.420462
-0.00978919
0.420949
-0.00991324
0.421367
0.00311172
0.42195
0.000283794
0.422463
0.0177913
0.423108
0.0144444
0.423757
0.0345278
0.424499
0.0333702
0.425324
0.0571943
0.426236
0.0575519
0.0880873
0.523857
-0.0133135
-0.523455
0.523653
-0.0162091
0.522747
-0.0195905
0.521102
-0.0232834
0.518712
-0.0271547
0.515587
-0.0311475
0.511766
-0.035189
0.507308
-0.0392122
0.502335
-0.0430577
0.497022
-0.0465265
0.491579
-0.0494758
0.48623
-0.0517083
0.48118
-0.0531542
0.47662
-0.0537391
0.472635
-0.0534677
0.469263
-0.052518
0.466529
-0.050936
0.464405
-0.0487654
0.462834
-0.0462456
0.461719
-0.0433627
0.460937
-0.0404142
0.460393
-0.0370649
0.460066
-0.0338794
0.459902
-0.0295351
0.459919
-0.0263964
0.460023
-0.0206283
0.460303
-0.0186475
0.460576
-0.0100623
0.461023
-0.01036
0.461417
0.00271766
0.461998
-0.000297452
0.462537
0.017253
0.463226
0.013755
0.463948
0.0338055
0.464772
0.0325466
0.46572
0.0562465
0.466764
0.056508
0.0867983
0.565053
-0.0137009
-0.564666
0.564948
-0.0161039
0.564256
-0.0188987
0.562932
-0.0219588
0.560958
-0.0251812
0.558338
-0.0285276
0.555096
-0.0319472
0.551271
-0.0353865
0.546949
-0.0387363
0.542265
-0.0418424
0.537371
-0.0445812
0.532455
-0.0467926
0.527693
-0.0483921
0.523261
-0.0493073
0.519282
-0.0494887
0.515808
-0.0490435
0.512874
-0.048002
0.510478
-0.0463692
0.508596
-0.0443641
0.507168
-0.0419342
0.506094
-0.0393405
0.505286
-0.0362568
0.504737
-0.0333308
0.504391
-0.0291891
0.504266
-0.026271
0.504234
-0.020597
0.504397
-0.0188105
0.50457
-0.010235
0.505009
-0.0107994
0.505345
0.0023817
0.505985
-0.000937482
0.506518
0.0167209
0.507246
0.0130267
0.508046
0.0330057
0.50896
0.0316319
0.510048
0.0551592
0.511244
0.0553112
0.0852962
0.610653
-0.0140752
-0.610278
0.610615
-0.0160668
0.61009
-0.018373
0.609029
-0.0208981
0.607414
-0.0235658
0.605237
-0.0263514
0.60251
-0.0292201
0.59926
-0.0321364
0.595548
-0.0350236
0.591457
-0.0377516
0.587106
-0.0402302
0.582647
-0.0423343
0.578229
-0.043974
0.574004
-0.0450816
0.570104
-0.045589
0.566597
-0.0455369
0.563531
-0.0449352
0.560921
-0.0437601
0.558768
-0.0422104
0.557041
-0.0402078
0.555681
-0.0379803
0.554607
-0.0351825
0.553822
-0.0325464
0.553265
-0.0286321
0.552973
-0.0259791
0.552803
-0.0204264
0.552908
-0.0189155
0.552983
-0.0103105
0.553322
-0.0111383
0.553623
0.00208137
0.554148
-0.00146333
0.554746
0.0161238
0.55553
0.0122422
0.556427
0.0321084
0.557451
0.030608
0.5587
0.0539103
0.560076
0.0539349
0.0835443
0.661123
-0.0144248
-0.660774
0.661136
-0.0160793
0.660744
-0.0179815
0.659905
-0.0200591
0.6586
-0.0222601
0.656816
-0.0245675
0.654553
-0.0269578
0.651824
-0.0294074
0.648656
-0.0318551
0.645113
-0.0342087
0.641289
-0.0364065
0.637298
-0.0383431
0.633257
-0.0399331
0.629292
-0.0411159
0.625526
-0.0418235
0.622043
-0.0420537
0.618904
-0.0417962
0.616141
-0.0409974
0.613765
-0.0398346
0.611776
-0.0382189
0.610151
-0.036355
0.608816
-0.0338477
0.607784
-0.0315142
0.606993
-0.0278404
0.606493
-0.0254791
0.606113
-0.0200468
0.60601
-0.0188123
0.605964
-0.0102645
0.606301
-0.0114759
0.606543
0.00183997
0.607259
-0.00217985
0.607781
0.0156024
0.608604
0.0114193
0.60957
0.0311425
0.610699
0.0294786
0.612125
0.0524842
0.613704
0.0523565
0.0814952
0.717136
-0.0147228
-0.716838
0.71716
-0.0161036
0.716852
-0.0176736
0.716174
-0.0193807
0.715104
-0.0211904
0.713627
-0.0230902
0.711734
-0.0250653
0.709429
-0.0271022
0.706729
-0.0291549
0.703674
-0.0311541
0.700328
-0.0330602
0.696779
-0.0347939
0.693118
-0.036272
0.689443
-0.0374414
0.685863
-0.0382432
0.682461
-0.0386513
0.679308
-0.0386434
0.676452
-0.0381413
0.673918
-0.0373011
0.671721
-0.036022
0.66987
-0.0345034
0.668305
-0.0322833
0.667053
-0.0302619
0.666044
-0.026831
0.665372
-0.0248073
0.664835
-0.0195103
0.664686
-0.0186635
0.664457
-0.0100356
0.664658
-0.011676
0.664742
0.00175537
0.665157
-0.00259469
0.665799
0.0149604
0.666654
0.0105646
0.667804
0.0299922
0.669087
0.0281958
0.670755
0.0508156
0.672595
0.0505169
0.0791139
0.779118
-0.0149858
-0.778855
0.779158
-0.0161432
0.778927
-0.0174421
0.778392
-0.0188457
0.777533
-0.0203319
0.776335
-0.0218923
0.774786
-0.0235164
0.772879
-0.0251954
0.770616
-0.0268917
0.768016
-0.0285541
0.765119
-0.0301628
0.761985
-0.0316596
0.758686
-0.0329735
0.755303
-0.0340579
0.751923
-0.0348639
0.748626
-0.0353536
0.745485
-0.0355029
0.742561
-0.0352174
0.739888
-0.0346275
0.737482
-0.0336164
0.735381
-0.0324026
0.733548
-0.0304503
0.732023
-0.0287367
0.730734
-0.0255421
0.729793
-0.0238665
0.72899
-0.0187067
0.728573
-0.0182469
0.728247
-0.00970974
0.728423
-0.0118518
0.728578
0.00160055
0.729371
-0.00338766
0.729887
0.0144439
0.730873
0.00957881
0.732013
0.0288526
0.73344
0.0267688
0.735267
0.0489882
0.737348
0.0484359
0.0762609
0.848165
-0.015165
-0.847985
0.84815
-0.0161284
0.847906
-0.0171979
0.847407
-0.0183467
0.846634
-0.0195591
0.845572
-0.0208301
0.844208
-0.022153
0.842535
-0.0235219
0.840549
-0.0249065
0.838265
-0.0262694
0.835706
-0.0276037
0.832914
-0.0288681
0.829944
-0.0300036
0.826858
-0.0309719
0.823728
-0.0317338
0.820617
-0.0322424
0.817588
-0.0324746
0.814702
-0.0323305
0.812001
-0.031927
0.809507
-0.0311229
0.807275
-0.0301703
0.80528
-0.0284548
0.803589
-0.0270461
0.802107
-0.0240604
0.80102
-0.0227795
0.800033
-0.0177189
0.799559
-0.0177734
0.798917
-0.00906723
0.798942
-0.0118774
0.798686
0.00185706
0.798979
-0.00368121
0.799613
0.0138101
0.800483
0.00870873
0.801983
0.0273522
0.803542
0.0252108
0.805861
0.0466689
0.808307
0.04599
0.0730703
0.924513
-0.0152901
-0.924387
0.924492
-0.0161077
0.924293
-0.0169994
0.923887
-0.0179407
0.92325
-0.0189219
0.922362
-0.0199416
0.921206
-0.0209977
0.919774
-0.0220896
0.918063
-0.0231952
0.916077
-0.0242838
0.913828
-0.0253542
0.911336
-0.026376
0.908632
-0.0272997
0.90576
-0.0281004
0.90278
-0.0287534
0.899747
-0.0292091
0.89672
-0.0294485
0.89376
-0.0293705
0.890921
-0.029088
0.888232
-0.0284332
0.885758
-0.0276964
0.883489
-0.0261856
0.881512
-0.02507
0.879732
-0.0222799
0.878347
-0.0213942
0.87708
-0.0164526
0.876349
-0.0170421
0.875677
-0.00839551
0.875704
-0.0119045
0.875717
0.00184451
0.876583
-0.00454729
0.877131
0.0132623
0.878354
0.00748595
0.879764
0.0259418
0.881587
0.0233876
0.88395
0.0443063
0.886742
0.0431983
0.0689776
1.00984
-0.0152457
-1.00989
1.00966
-0.0159257
1.00932
-0.0166561
1.0088
-0.0174192
1.00808
-0.0182075
1.00716
-0.0190202
1.00602
-0.0198549
1.00464
-0.0207113
1.00301
-0.0215716
1.00115
-0.0224154
0.999045
-0.0232525
0.99673
-0.0240613
0.994232
-0.0248011
0.991583
-0.0254517
0.988818
-0.0259882
0.985972
-0.0263632
0.983101
-0.0265776
0.980258
-0.0265272
0.977491
-0.0263215
0.974821
-0.025763
0.972319
-0.025194
0.969959
-0.023826
0.967872
-0.0229826
0.965913
-0.0203207
0.964402
-0.0198837
0.962885
-0.014936
0.962061
-0.0162173
0.960896
-0.00723078
0.960713
-0.0117212
0.96006
0.00249728
0.960245
-0.0047325
0.960863
0.0126443
0.961684
0.00666527
0.963642
0.0239836
0.965544
0.021486
0.968696
0.0411543
0.971941
0.0399531
0.0647266
1.10445
-0.0151218
-1.10457
1.1042
-0.0156813
1.10381
-0.0162689
1.10326
-0.0168662
1.10253
-0.0174708
1.10159
-0.0180868
1.10045
-0.0187175
1.09911
-0.0193676
1.09756
-0.0200188
1.09579
-0.0206465
1.09379
-0.0212569
1.09157
-0.0218381
1.08913
-0.0223624
1.0865
-0.0228193
1.08371
-0.0232013
1.08082
-0.0234696
1.07786
-0.0236151
1.07486
-0.0235264
1.07186
-0.0233304
1.06892
-0.0228169
1.06611
-0.0223817
1.06343
-0.0211498
1.06104
-0.0205965
1.0588
-0.0180782
1.05703
-0.0181144
1.05529
-0.0131901
1.0543
-0.015232
1.05319
-0.0061243
1.05318
-0.0117059
1.05287
0.00280087
1.05385
-0.00571054
1.05446
0.012035
1.05593
0.00519985
1.05791
0.0220051
1.06011
0.0192778
1.06343
0.03784
1.0672
0.0361848
0.0588488
1.21022
-0.0146819
-1.21066
1.20967
-0.0151271
1.20898
-0.0155872
1.20816
-0.0160473
1.2072
-0.0165034
1.20607
-0.0169548
1.20475
-0.0174045
1.20324
-0.0178575
1.20153
-0.0183022
1.19961
-0.0187289
1.1975
-0.0191491
1.19522
-0.0195553
1.19277
-0.019919
1.19018
-0.0202285
1.18746
-0.0204757
1.18462
-0.020629
1.1817
-0.0206984
1.17876
-0.0205823
1.17583
-0.0204035
1.17295
-0.0199332
1.17018
-0.0196203
1.16749
-0.01846
1.16503
-0.0181312
1.16257
-0.0156171
1.16061
-0.0161579
1.15848
-0.011062
1.15732
-0.0140654
1.15551
-0.00432147
1.15516
-0.0113553
1.15411
0.00385639
1.15428
-0.00587912
1.15492
0.0113944
1.15569
0.00442396
1.15823
0.0194648
1.16056
0.0169471
1.16474
0.0336602
1.16901
0.0319137
0.0530401
1.3286
-0.0139611
-1.32932
1.32775
-0.0142771
1.32676
-0.0145959
1.32562
-0.0149045
1.32431
-0.0152
1.32284
-0.0154874
1.32121
-0.0157742
1.31942
-0.0160604
1.31745
-0.0163358
1.31531
-0.0165859
1.31297
-0.0168146
1.31045
-0.0170311
1.30774
-0.0172094
1.30486
-0.017353
1.30184
-0.017455
1.29871
-0.0174927
1.29548
-0.0174692
1.29221
-0.0173179
1.28892
-0.0171066
1.28562
-0.0166334
1.28234
-0.0163461
1.27915
-0.0152715
1.27623
-0.0152091
1.27348
-0.0128648
1.27133
-0.0140101
1.26909
-0.00882439
1.26795
-0.0129164
1.26629
-0.00266531
1.26637
-0.0114368
1.2655
0.00472923
1.2666
-0.00697738
1.26738
0.0106068
1.26889
0.00292252
1.27199
0.0163644
1.27453
0.0144042
1.27936
0.0288301
1.28447
0.026803
0.0447708
1.45996
-0.0126682
-1.46126
1.45855
-0.0128663
1.45702
-0.0130588
1.45535
-0.0132327
1.45353
-0.0133863
1.45157
-0.0135211
1.44943
-0.0136439
1.44714
-0.0137645
1.44468
-0.0138727
1.44205
-0.0139624
1.43928
-0.014045
1.43638
-0.0141245
1.43334
-0.0141691
1.43019
-0.0142036
1.42692
-0.0141921
1.42357
-0.0141386
1.42014
-0.0140433
1.41671
-0.0138863
1.41325
-0.0136446
1.40985
-0.013236
1.40654
-0.0130389
1.40342
-0.0121496
1.40048
-0.0122709
1.39761
-0.0099919
1.39516
-0.0115619
1.39251
-0.00616773
1.39096
-0.0113708
1.38849
-0.000190361
1.38803
-0.0109813
1.38659
0.00616529
1.38691
-0.00729458
1.38763
0.00988702
1.38837
0.0021811
1.39179
0.0129436
1.39452
0.0116798
1.40014
0.0232102
1.40569
0.0212498
0.0365768
1.61109
-0.0103378
-1.61342
1.60862
-0.0103984
1.60601
-0.0104507
1.60327
-0.0104869
1.60039
-0.0105055
1.59737
-0.0105074
1.59423
-0.0105054
1.59097
-0.0105043
1.58759
-0.0104897
1.5841
-0.0104678
1.58048
-0.010429
1.57675
-0.0103965
1.57292
-0.0103346
1.56901
-0.0102932
1.56501
-0.0101942
1.561
-0.0101282
1.55691
-0.00995561
1.55289
-0.00986257
1.5488
-0.0095572
1.54493
-0.00936985
1.54092
-0.00902256
1.53724
-0.00847068
1.53337
-0.0083983
1.53017
-0.00679952
1.52702
-0.00840479
1.5246
-0.00375228
1.52259
-0.00935419
1.52094
0.00145791
1.52033
-0.0103775
1.51959
0.00691289
1.51992
-0.00763224
1.52172
0.00808562
1.52262
0.00128319
1.52735
0.00821221
1.53043
0.00860156
1.53702
0.0166211
1.54385
0.0144217
0.0252343
1.7716
-0.00702917
-1.77491
1.76816
-0.00696671
1.76461
-0.00689082
1.76093
-0.00680915
1.75713
-0.00670872
1.75322
-0.00660024
1.74922
-0.00649901
1.7451
-0.00638757
1.74089
-0.00627532
1.7366
-0.00618083
1.73223
-0.00606507
1.72781
-0.00597305
1.72333
-0.00585019
1.71882
-0.00578446
1.71428
-0.00566009
1.70972
-0.00556681
1.70506
-0.00529011
1.70058
-0.00538738
1.6962
-0.00517279
1.69189
-0.0050624
1.68704
-0.00417262
1.68256
-0.00398999
1.67828
-0.00411515
1.67557
-0.00409582
1.6728
-0.005628
1.67117
-0.00212999
1.66854
-0.00672263
1.6671
0.00289899
1.66475
-0.00802603
1.66457
0.00709396
1.66323
-0.00629823
1.66547
0.00584982
1.66543
0.00132762
1.67026
0.00338213
1.67351
0.00534521
1.68081
0.00932145
1.68802
0.00721851
0.0136909
1.96854
-1.97557
1.96157
1.95468
1.94787
1.94117
1.93457
1.92807
1.92168
1.9154
1.90922
1.90316
1.89719
1.89133
1.88555
1.87989
1.87432
1.86903
1.86365
1.85847
1.85341
1.84924
1.84525
1.84113
1.83704
1.83141
1.82928
1.82256
1.82546
1.81743
1.82452
1.81823
1.82408
1.8254
1.82878
1.83413
1.84345
1.85067
0.270774
0.0327391
-0.265264
0.276617
0.0633619
0.282853
0.094211
0.29012
0.124983
0.296806
0.155309
0.307235
0.183863
0.316074
0.21443
0.239317
0.293565
0.0276756
-0.288501
0.299564
0.0573628
0.305398
0.0883765
0.313005
0.117377
0.320127
0.148187
0.328719
0.175271
0.338448
0.204701
0.23123
0.318587
0.0229434
-0.313855
0.324106
0.0518434
0.32988
0.0826028
0.336328
0.110929
0.343587
0.140928
0.350599
0.16826
0.35974
0.19556
0.221863
0.345561
0.0183333
-0.340951
0.350436
0.0469676
0.356192
0.0768468
0.36196
0.105161
0.369076
0.133812
0.376186
0.161149
0.384801
0.186945
0.212494
0.374924
0.0140769
-0.370667
0.379426
0.0424654
0.384979
0.071294
0.390705
0.0994353
0.397603
0.126913
0.404936
0.153816
0.413031
0.17885
0.20358
0.406927
0.0101646
-0.403015
0.411218
0.0381739
0.416448
0.0660643
0.422145
0.093738
0.428671
0.120388
0.435827
0.146661
0.443645
0.171032
0.194807
0.441819
0.00666645
-0.438321
0.445906
0.0340871
0.450779
0.0611912
0.456323
0.0881933
0.46258
0.114131
0.469653
0.139587
0.47744
0.163246
0.186113
0.479941
0.00353737
-0.476812
0.4838
0.0302279
0.488421
0.0565707
0.49385
0.082764
0.500028
0.107953
0.507084
0.132531
0.51484
0.15549
0.177497
0.5217
0.00073
-0.518893