/*--------------------------------*- C++ -*----------------------------------*\
| =========                 |                                                 |
| \\      /  F ield         | OpenFOAM: The Open Source CFD Toolbox           |
|  \\    /   O peration     | Version:  2312                                  |
|   \\  /    A nd           | Website:  www.openfoam.com                      |
|    \\/     M anipulation  |                                                 |
\*---------------------------------------------------------------------------*/
FoamFile
{
    version     2.0;
    format      ascii;
    arch        "LSB;label=32;scalar=64";
    class       volVectorField;
    location    "122";
    object      U;
}
// * * * * * * * * * * * * * * * * * * * * * * * * * * * * * * * * * * * * * //

dimensions      [0 1 -1 0 0 0 0];

internalField   nonuniform List<vector> 
5478
(
(-0.0256452 0.0257495 -1.3455e-19)
(-0.016996 0.0393454 0)
(0.0553101 0.0291479 2.05883e-19)
(0.196385 0.00354769 -3.62672e-19)
(0.407713 -0.0274092 2.40188e-19)
(0.659702 -0.0560841 -7.10207e-20)
(0.903586 -0.0792443 -1.23578e-19)
(1.09879 -0.0976132 0)
(1.22324 -0.112798 0)
(1.27904 -0.124793 1.3375e-19)
(1.27987 -0.133466 -6.77242e-20)
(1.24576 -0.135439 -9.40441e-20)
(1.20162 -0.138409 -3.29954e-20)
(1.15595 -0.124894 0)
(1.10502 -0.128909 6.6738e-20)
(-0.0231825 0.0162536 2.6948e-19)
(0.0109121 0.0129174 0)
(0.139245 -0.00547125 0)
(0.36773 -0.0261786 -1.79923e-19)
(0.656978 -0.0389139 2.38117e-19)
(0.933822 -0.0439281 6.92716e-20)
(1.14399 -0.0468365 -1.13429e-19)
(1.26733 -0.0524789 1.00588e-19)
(1.31326 -0.0616324 2.31897e-19)
(1.30596 -0.0724912 -2.00105e-19)
(1.27175 -0.0810263 3.45667e-21)
(1.23373 -0.0867858 0)
(1.19854 -0.0872901 3.29356e-20)
(1.16887 -0.078994 0)
(1.14625 -0.0825976 0)
(-0.0170857 0.0091435 -6.99687e-22)
(0.0656387 -0.00941281 -1.23467e-19)
(0.286473 -0.0268887 2.04399e-22)
(0.609696 -0.027535 0)
(0.925776 -0.0162694 -7.73368e-20)
(1.15579 -0.00529187 6.51087e-20)
(1.28112 -0.00229295 5.42254e-20)
(1.32273 -0.00789959 0)
(1.31541 -0.0182063 -7.77867e-20)
(1.28889 -0.0284985 6.30634e-20)
(1.26128 -0.0359775 5.05519e-20)
(1.2351 -0.0400409 0)
(1.21026 -0.0398285 0)
(1.18652 -0.0395531 -9.09136e-20)
(1.16093 -0.0376873 8.10062e-20)
(-0.00190143 0.00156583 -1.42562e-19)
(0.161129 -0.0262984 1.21978e-19)
(0.497914 -0.0234745 -1.05497e-19)
(0.867808 0.00316906 9.10806e-20)
(1.13716 0.027962 1.53445e-19)
(1.27993 0.0394807 -1.2813e-19)
(1.32906 0.0383029 -5.41975e-20)
(1.32903 0.0302494 4.112e-20)
(1.3108 0.0206497 -3.96619e-20)
(1.2883 0.0121914 0)
(1.26295 0.00547103 0)
(1.23596 0.000371883 -7.05875e-20)
(1.2086 -0.00349963 9.01009e-20)
(1.18265 -0.00409888 -5.0129e-20)
(1.1572 -0.0088297 0)
(0.028338 -0.007416 7.18892e-20)
(0.30661 -0.0295894 6.08106e-20)
(0.735586 0.0095855 -2.15998e-19)
(1.07755 0.0536079 2.32675e-21)
(1.2638 0.0773224 -3.17142e-21)
(1.33379 0.0826453 -1.46846e-21)
(1.34304 0.077867 4.96829e-20)
(1.32763 0.0693081 4.24298e-20)
(1.30356 0.0599281 2.9804e-20)
(1.2758 0.0506745 -5.20212e-21)
(1.24823 0.0423816 -6.7695e-20)
(1.22286 0.0351707 0)
(1.20084 0.0311908 2.90166e-20)
(1.18108 0.0253351 -2.07581e-20)
(1.16534 0.0250057 3.82309e-20)
(0.079791 -0.0144687 -1.50855e-19)
(0.49312 -0.00593125 1.63738e-19)
(0.945485 0.0650975 -5.53322e-20)
(1.21786 0.111679 4.24141e-20)
(1.33061 0.128012 -7.73644e-20)
(1.35475 0.127 -5.76043e-20)
(1.34126 0.118537 1.291e-21)
(1.31564 0.107588 0)
(1.2881 0.096226 6.09313e-20)
(1.26295 0.0856738 -5.41843e-20)
(1.24039 0.0764127 2.13986e-20)
(1.21967 0.0688953 0)
(1.19947 0.061977 1.30425e-20)
(1.18012 0.0561264 -2.21405e-20)
(1.15901 0.0529252 0)
(0.154776 -0.0122511 -1.87566e-20)
(0.684903 0.0483781 1.1081e-21)
(1.10394 0.133809 2.76672e-20)
(1.30227 0.173783 4.53125e-20)
(1.35909 0.180438 -3.4451e-20)
(1.35299 0.172172 5.80469e-20)
(1.32748 0.15935 -1.31954e-20)
(1.29965 0.145905 0)
(1.27386 0.133057 -3.58689e-20)
(1.24954 0.120986 2.40332e-21)
(1.22627 0.109885 2.98862e-20)
(1.20431 0.0995366 0)
(1.18442 0.0908662 -1.9121e-20)
(1.16615 0.0821595 0)
(1.15082 0.0789111 1.15137e-20)
(0.248699 0.00614601 -1.9932e-20)
(0.848008 0.123905 0)
(1.21051 0.210316 2.77905e-20)
(1.34284 0.238321 0)
(1.35987 0.233647 0)
(1.33762 0.21836 0)
(1.30781 0.201365 -1.12601e-20)
(1.27905 0.184674 0)
(1.25246 0.168648 7.24013e-21)
(1.22857 0.153653 0)
(1.20768 0.140034 -9.36873e-21)
(1.18955 0.128073 0)
(1.17318 0.117192 6.07214e-21)
(1.15822 0.107922 0)
(1.14287 0.102657 3.92232e-21)
(-0.0115457 0.0142985 -1.25934e-20)
(-0.0425479 -0.0416273 0)
(-0.0916014 -0.0974468 2.00356e-20)
(-0.142708 -0.145481 0)
(-0.191799 -0.198239 0)
(-0.237457 -0.26031 0)
(-0.277389 -0.329656 -1.31804e-20)
(-0.308685 -0.402374 0)
(-0.328286 -0.47302 1.06587e-20)
(-0.333571 -0.534403 0)
(-0.32273 -0.577874 -1.66714e-20)
(-0.294558 -0.59491 0)
(-0.248265 -0.578403 1.26879e-20)
(-0.187672 -0.522972 0)
(-0.106038 -0.431532 9.64265e-21)
(-0.017472 0.0441491 6.45596e-20)
(-0.0480287 0.0125724 -4.71231e-20)
(-0.093831 -0.0343665 2.28617e-20)
(-0.140188 -0.0797349 7.60531e-20)
(-0.184075 -0.132271 8.07348e-22)
(-0.224592 -0.196207 -6.07335e-20)
(-0.260136 -0.270752 4.03801e-20)
(-0.288811 -0.352875 0)
(-0.309078 -0.437616 3.35721e-20)
(-0.320254 -0.518027 -6.81109e-22)
(-0.321924 -0.585631 -1.77474e-20)
(-0.313338 -0.630915 0)
(-0.293715 -0.645367 -3.63794e-20)
(-0.267541 -0.621871 0)
(-0.205417 -0.56103 -4.38825e-20)
(-0.0246178 0.0696552 1.10859e-19)
(-0.0511536 0.0626759 2.57894e-20)
(-0.0863199 0.0252076 -4.28022e-20)
(-0.119599 -0.0159645 -1.19411e-19)
(-0.147637 -0.0654799 7.14296e-20)
(-0.169917 -0.127893 6.70198e-20)
(-0.185237 -0.20263 -1.21708e-19)
(-0.191944 -0.286974 0)
(-0.189932 -0.375945 -9.53902e-20)
(-0.181466 -0.462799 8.48191e-20)
(-0.170359 -0.540101 3.58551e-20)
(-0.159992 -0.600363 0)
(-0.143259 -0.635685 2.36778e-20)
(-0.152938 -0.637265 -3.39902e-20)
(-0.0916509 -0.609153 0)
(-0.0314176 0.0841453 6.01068e-20)
(-0.0525463 0.0990676 -1.56901e-19)
(-0.0717631 0.0720338 1.88213e-19)
(-0.0859527 0.0361558 -1.7056e-19)
(-0.0923066 -0.0093888 -7.90502e-20)
(-0.0883228 -0.0684475 7.21672e-20)
(-0.0720798 -0.140375 6.22918e-20)
(-0.0423883 -0.222529 5.89819e-20)
(0.00010031 -0.308494 -1.52558e-19)
(0.0507477 -0.390177 4.70979e-21)
(0.101695 -0.459258 3.9705e-20)
(0.138948 -0.514407 0)
(0.194892 -0.536566 4.15141e-20)
(0.161618 -0.554646 8.95189e-20)
(0.249635 -0.521124 -4.97017e-20)
(-0.0356138 0.0853315 1.45503e-21)
(-0.0516105 0.116948 1.11538e-19)
(-0.0535909 0.100909 -9.94171e-20)
(-0.0455394 0.0702958 8.67408e-20)
(-0.0251492 0.0284454 1.60339e-19)
(0.0113892 -0.0270128 -1.46151e-19)
(0.0667184 -0.0965353 -6.70227e-20)
(0.141025 -0.176677 -1.77924e-19)
(0.230983 -0.259626 1.57461e-19)
(0.328807 -0.335845 0)
(0.422351 -0.393602 0)
(0.494952 -0.437035 1.02547e-19)
(0.580049 -0.437141 -2.06905e-19)
(0.571463 -0.441985 6.6025e-20)
(0.675944 -0.381201 0)
(-0.0359087 0.0749741 -1.87744e-22)
(-0.047602 0.115319 -1.12445e-19)
(-0.0334542 0.108934 3.01423e-19)
(-0.00233253 0.0831395 -8.96615e-20)
(0.0477759 0.0438022 -8.13413e-20)
(0.121535 -0.00895049 7.40307e-20)
(0.222835 -0.0748944 6.70394e-20)
(0.348971 -0.148669 1.18177e-19)
(0.489033 -0.222512 -2.0638e-19)
(0.628414 -0.28632 8.44391e-20)
(0.74474 -0.333253 6.76651e-20)
(0.837902 -0.359984 0)
(0.905958 -0.360431 0)
(0.91346 -0.344687 9.78397e-20)
(0.977624 -0.307343 -8.70906e-20)
(-0.0328092 0.0578315 8.39041e-22)
(-0.0406974 0.0971093 0)
(-0.0123257 0.0956691 0)
(0.0424707 0.0717375 1.84034e-19)
(0.127221 0.0334523 -8.09431e-20)
(0.248515 -0.0170761 7.30014e-20)
(0.405711 -0.0771214 1.31493e-19)
(0.584712 -0.139274 -1.16591e-19)
(0.762829 -0.1968 1.01531e-19)
(0.915682 -0.240793 -8.45081e-20)
(1.02524 -0.272175 -4.54616e-21)
(1.09884 -0.281545 0)
(1.11827 -0.278646 3.66916e-20)
(1.11865 -0.26165 0)
(1.10494 -0.230528 0)
(-0.028666 0.0398767 -1.31512e-19)
(-0.0314609 0.0690216 0)
(0.0124554 0.0657896 -2.05948e-19)
(0.0989602 0.0416422 3.64245e-19)
(0.23496 0.00482331 -4.05856e-19)
(0.420632 -0.0401094 -7.3602e-20)
(0.636587 -0.0863748 1.27904e-19)
(0.849253 -0.128365 0)
(1.02762 -0.162409 0)
(1.14921 -0.18726 -1.45063e-19)
(1.2149 -0.201885 -4.80927e-20)
(1.22791 -0.204684 1.01548e-19)
(1.20194 -0.2014 -3.67622e-20)
(1.16961 -0.188701 0)
(1.11348 -0.165905 -6.90713e-20)
(-0.00637469 -0.237929 0)
(0.256867 0.224314 4.19376e-21)
(0.403488 0.613869 -3.88059e-21)
(0.556744 0.7295 0)
(0.652192 0.732728 0)
(0.474524 0.797381 -1.02943e-22)
(0.450559 0.556553 0)
(0.64393 0.0750516 0)
(0.822264 -0.37347 9.68155e-23)
(0.903823 -0.468345 0)
(0.924401 -0.486916 0)
(0.836068 -0.584967 -8.9027e-23)
(0.813049 -0.481722 0)
(0.845973 -0.363531 -6.62888e-23)
(0.927481 0.0301673 -7.83956e-23)
(0.940419 0.292094 0)
(0.997581 0.491784 -5.55971e-22)
(1.02354 0.615719 6.49786e-22)
(0.995347 0.299074 0)
(1.01776 0.0350827 5.22801e-22)
(1.10951 -0.344159 -6.23643e-22)
(1.0647 -0.65922 1.22838e-22)
(1.09047 -0.266905 -2.24022e-22)
(1.07601 0.00683743 2.14061e-22)
(1.11564 0.416486 -2.22322e-22)
(1.18324 0.716954 0)
(1.14239 -0.0439566 -2.50808e-22)
(1.01227 -0.63729 2.39809e-22)
(1.09774 -0.134895 -1.01318e-22)
(1.01624 0.293603 0)
(1.00588 0.133384 -9.00247e-23)
(0.97308 -0.0926912 0)
(0.950879 -0.054652 -2.97535e-23)
(0.98296 0.030726 -1.31144e-23)
(0.96134 0.0166772 1.41814e-24)
(0.954866 -0.00750534 -9.80884e-24)
(0.971204 -0.00401921 0)
(0.943932 0.00423405 2.90392e-24)
(-0.216544 -0.393469 1.57476e-20)
(0.0556816 0.0404969 -1.25948e-22)
(0.261013 0.427375 -8.99184e-21)
(0.510135 0.617585 8.57553e-21)
(0.555727 0.759492 0)
(0.406712 0.849421 1.03761e-22)
(0.517395 0.512394 -2.52268e-22)
(0.769181 -0.00775122 0)
(0.912008 -0.43399 -9.75345e-23)
(0.957142 -0.502596 0)
(0.979524 -0.464132 0)
(0.864524 -0.566007 8.96562e-23)
(0.876276 -0.488001 0)
(0.883441 -0.383821 2.42861e-21)
(0.91795 0.0109305 -2.02071e-21)
(0.923467 0.268327 2.58983e-21)
(0.957033 0.469851 -2.47218e-21)
(0.999797 0.612881 -1.19689e-22)
(0.978421 0.306544 0)
(1.02055 0.0217055 0)
(1.13571 -0.34561 -1.24497e-22)
(1.05075 -0.658869 1.07182e-21)
(1.09819 -0.267469 -1.88853e-21)
(1.05798 -0.00181892 9.3082e-22)
(1.08401 0.39603 6.91848e-22)
(1.19896 0.711802 0)
(1.16191 -0.0175643 4.54624e-22)
(1.02004 -0.63626 0)
(1.08708 -0.13859 1.01673e-22)
(1.0113 0.297316 -2.45037e-22)
(1.01676 0.136775 4.09417e-22)
(0.984669 -0.0881114 -4.28019e-23)
(0.952108 -0.0559223 6.54287e-23)
(0.98743 0.0299101 1.93725e-24)
(0.969786 0.0185174 1.56107e-23)
(0.957483 -0.00790885 -8.18593e-24)
(0.97305 -0.00345958 -8.15238e-25)
(0.948484 0.0056991 8.88087e-25)
(-0.215007 -0.500708 1.9236e-20)
(-0.039585 -0.17969 -3.2979e-20)
(0.155941 0.228081 1.26649e-21)
(0.395028 0.529884 1.22384e-20)
(0.398471 0.792135 1.71337e-22)
(0.35723 0.859069 -2.08835e-22)
(0.604489 0.446134 2.56622e-22)
(0.901541 -0.0645334 -5.54795e-22)
(1.01231 -0.453076 0)
(1.00645 -0.521024 8.25352e-21)
(1.02808 -0.434461 -7.87298e-21)
(0.880157 -0.542335 -1.8302e-22)
(0.918159 -0.50722 0)
(0.925227 -0.402148 -4.776e-21)
(0.914983 -0.00381361 4.40024e-21)
(0.91319 0.257022 -2.57864e-21)
(0.919698 0.453009 2.46065e-21)
(0.979962 0.605274 1.88897e-21)
(0.965986 0.314539 -1.59332e-21)
(1.02218 0.0128547 0)
(1.15343 -0.334631 0)
(1.03155 -0.651698 1.97191e-21)
(1.0959 -0.272962 -1.88276e-21)
(1.03882 -0.00761499 -2.0447e-21)
(1.04324 0.369781 -1.36542e-23)
(1.20327 0.703421 1.8901e-21)
(1.17192 0.0175548 -9.45859e-23)
(1.02205 -0.622424 -6.98114e-22)
(1.07146 -0.143462 1.2469e-21)
(1.00255 0.299097 -1.0678e-21)
(1.02348 0.140976 5.51707e-23)
(0.993676 -0.0813141 -1.34274e-22)
(0.95063 -0.0564931 4.64301e-23)
(0.988756 0.0284365 -4.43938e-23)
(0.975862 0.0204984 -1.08937e-23)
(0.95769 -0.0077945 -5.62167e-24)
(0.972184 -0.00302018 1.9955e-23)
(0.950951 0.00698324 3.21532e-24)
(0.0744906 -0.502041 0)
(0.00892652 -0.337108 5.85242e-21)
(0.0958683 0.0347801 -5.77821e-21)
(0.2629 0.426637 0)
(0.263478 0.754849 -1.76145e-22)
(0.35918 0.790007 2.14612e-22)
(0.700293 0.355431 0)
(1.02329 -0.11356 1.52473e-23)
(1.12052 -0.448439 -4.4035e-22)
(1.05674 -0.533564 0)
(1.08735 -0.406926 -6.58598e-21)
(0.927012 -0.505047 6.46696e-21)
(0.940642 -0.528271 -3.09528e-22)
(0.963942 -0.422904 -5.04264e-21)
(0.932067 -0.0250949 4.80939e-21)
(0.912259 0.230577 3.36147e-22)
(0.874502 0.423984 0)
(0.940302 0.595464 -2.24038e-22)
(0.946438 0.326252 3.00782e-21)
(1.01838 0.00861049 4.87014e-22)
(1.16398 -0.320711 3.48945e-22)
(1.01561 -0.642045 -2.94059e-21)
(1.08675 -0.284485 -3.83945e-21)
(1.02017 -0.0173001 4.70557e-21)
(0.994397 0.332594 -4.94019e-22)
(1.18928 0.685573 0)
(1.17062 0.0519816 -3.69381e-22)
(1.02199 -0.604785 7.07271e-22)
(1.05239 -0.152875 -1.27665e-21)
(0.989296 0.295736 1.09351e-21)
(1.02504 0.143403 -1.46307e-22)
(0.999736 -0.0737805 0)
(0.94675 -0.0567802 -4.79253e-23)
(0.987171 0.0261493 9.11769e-23)
(0.979523 0.0224954 3.15051e-23)
(0.95566 -0.00718445 3.27881e-23)
(0.968823 -0.00272881 -1.9969e-23)
(0.951446 0.00805079 1.75645e-25)
(0.523281 -0.35657 1.61789e-22)
(0.301865 -0.324393 1.01234e-22)
(0.180979 -0.123646 0)
(0.244599 0.291613 0)
(0.259051 0.687832 0)
(0.445324 0.711313 0)
(0.817941 0.277814 1.73241e-20)
(1.1301 -0.148987 -3.28613e-20)
(1.21969 -0.414197 1.6569e-20)
(1.0987 -0.523439 0)
(1.11445 -0.385542 -6.33167e-21)
(0.982757 -0.452354 6.23293e-21)
(0.94865 -0.539415 5.5257e-21)
(0.97875 -0.45424 -4.64007e-21)
(0.949619 -0.047717 5.73071e-21)
(0.910432 0.229684 -5.8082e-21)
(0.83695 0.413548 -2.99694e-22)
(0.908554 0.580662 -2.94208e-21)
(0.934134 0.332774 2.80283e-21)
(1.01517 0.00595196 3.63803e-22)
(1.16648 -0.299137 3.63016e-22)
(1.00346 -0.628719 3.52773e-21)
(1.06824 -0.299765 -3.80508e-21)
(0.999852 -0.0213918 -1.12603e-21)
(0.942154 0.296857 -5.10208e-22)
(1.17011 0.671073 -4.11608e-22)
(1.16214 0.0929225 0)
(1.02034 -0.581771 0)
(1.03023 -0.162354 0)
(0.973337 0.291783 0)
(1.02283 0.146131 3.90202e-22)
(1.00343 -0.0647024 -2.30564e-22)
(0.941203 -0.0562794 9.80427e-23)
(0.983192 0.0232777 -2.84871e-22)
(0.980884 0.0245314 3.15103e-23)
(0.951706 -0.00606439 6.67277e-24)
(0.96334 -0.00257868 -2.4937e-23)
(0.950196 0.00887989 -8.01104e-24)
(0.871525 -0.254105 -1.70197e-22)
(0.727002 -0.193601 -4.31554e-21)
(0.51761 -0.141918 4.08092e-21)
(0.377586 0.148701 1.13262e-20)
(0.360275 0.541787 -1.07891e-20)
(0.570027 0.598627 2.32534e-20)
(0.95703 0.218503 -2.1543e-20)
(1.22688 -0.158784 4.82624e-22)
(1.29358 -0.359149 -4.41278e-22)
(1.14591 -0.490541 0)
(1.1197 -0.374778 -2.19503e-22)
(1.03316 -0.398631 1.11763e-20)
(0.954877 -0.528451 -1.06384e-20)
(0.962882 -0.48422 -3.34112e-22)
(0.959201 -0.0869815 0)
(0.913574 0.198343 -5.89673e-21)
(0.802676 0.381738 9.85493e-21)
(0.852013 0.56434 -3.86487e-21)
(0.906181 0.347972 0)
(1.0116 0.0145471 2.54461e-21)
(1.16369 -0.272779 4.41453e-23)
(0.997415 -0.611503 -3.04325e-21)
(1.04529 -0.318617 -5.09343e-21)
(0.977624 -0.0322203 4.91634e-21)
(0.892863 0.254012 -3.81575e-21)
(1.12972 0.641831 1.1482e-21)
(1.14281 0.129907 2.57494e-21)
(1.02058 -0.558292 -2.07839e-21)
(1.0076 -0.17527 1.97698e-21)
(0.953956 0.28214 -4.64777e-22)
(1.01627 0.147123 4.41891e-22)
(1.00464 -0.0553224 0)
(0.934625 -0.0553584 9.93467e-23)
(0.977365 0.0197109 -1.43122e-23)
(0.98012 0.0264715 0)
(0.946246 -0.00450228 -3.11179e-23)
(0.956242 -0.00259943 1.68634e-23)
(0.947521 0.00945042 -3.28831e-24)
(1.02223 -0.203954 0)
(0.932122 -0.130343 0)
(0.862365 -0.0750203 6.96534e-24)
(0.674895 0.124329 0)
(0.545013 0.455454 0)
(0.74606 0.511154 1.61397e-20)
(1.12045 0.166506 -1.54168e-20)
(1.31433 -0.162484 2.84736e-20)
(1.33799 -0.309964 -2.71988e-20)
(1.19231 -0.449098 0)
(1.12204 -0.369031 -2.08202e-22)
(1.06312 -0.355378 1.76602e-22)
(0.97225 -0.494607 -1.10768e-20)
(0.934457 -0.521941 -2.22065e-21)
(0.953575 -0.134921 1.19962e-20)
(0.907709 0.202113 1.89964e-22)
(0.769952 0.386317 -1.60139e-22)
(0.819548 0.550915 5.41667e-21)
(0.894139 0.345686 -5.35044e-21)
(1.01551 0.0126803 0)
(1.15977 -0.241999 0)
(0.992275 -0.589509 -1.81021e-22)
(1.01745 -0.337661 0)
(0.950394 -0.0356005 4.8965e-21)
(0.843664 0.22022 -2.93823e-22)
(1.1025 0.630069 -3.59359e-21)
(1.12695 0.170376 -1.99039e-21)
(1.02372 -0.52995 1.35266e-21)
(0.98622 -0.186253 -2.23546e-22)
(0.935256 0.274554 0)
(1.00775 0.147664 -2.08681e-22)
(1.00443 -0.0457585 1.97835e-22)
(0.92814 -0.0538461 5.64622e-23)
(0.970472 0.0159054 2.59542e-23)
(0.977583 0.0284278 -4.21858e-23)
(0.939854 -0.00251622 1.20197e-23)
(0.948157 -0.00274555 0)
(0.943819 0.00976839 6.54543e-24)
(1.05397 -0.171605 4.23381e-20)
(0.997745 -0.130603 1.21277e-20)
(0.975296 -0.103716 -1.58078e-20)
(0.878288 0.0338579 1.87305e-20)
(0.745093 0.3194 -1.39286e-20)
(0.908834 0.422336 -1.27931e-23)
(1.22559 0.194561 0)
(1.35337 -0.0787866 -2.15354e-22)
(1.3538 -0.213606 -1.90792e-22)
(1.2248 -0.375362 0)
(1.136 -0.349417 -1.28676e-20)
(1.08045 -0.31903 1.22382e-20)
(0.997005 -0.444857 1.54799e-22)
(0.91107 -0.529998 1.29698e-20)
(0.921415 -0.210287 -1.2288e-20)
(0.889183 0.147578 2.04715e-22)
(0.747027 0.345295 1.6948e-22)
(0.762132 0.528852 0)
(0.847752 0.370417 4.82601e-21)
(1.01416 0.0372604 -4.58287e-21)
(1.16347 -0.205728 -2.72723e-21)
(0.987218 -0.560425 -8.06077e-22)
(0.985037 -0.354781 3.39403e-21)
(0.918126 -0.0497639 -4.99578e-21)
(0.802579 0.16827 8.53996e-22)
(1.05124 0.589569 6.24287e-21)
(1.0998 0.210793 -1.92005e-21)
(1.02749 -0.498629 1.92689e-21)
(0.968013 -0.199062 -1.38556e-21)
(0.91324 0.259385 0)
(0.995399 0.147952 0)
(1.00288 -0.0352553 0)
(0.922777 -0.0517401 4.24632e-23)
(0.963269 0.0114026 -5.3763e-23)
(0.973659 0.0300811 4.05135e-23)
(0.933203 -0.000245448 -2.50089e-23)
(0.939758 -0.00308652 -1.24765e-23)
(0.939515 0.00981861 0)
(1.07104 -0.101677 0)
(1.03062 -0.0621954 0)
(0.977133 -0.0439896 0)
(0.94009 0.0645684 0)
(0.925471 0.207775 0)
(1.12009 0.254015 0)
(1.32743 0.11053 0)
(1.33984 -0.0895406 0)
(1.32778 -0.145318 0)
(1.23285 -0.289283 0)
(1.14274 -0.30655 0)
(1.09545 -0.250401 0)
(1.03776 -0.387277 0)
(0.900676 -0.547817 0)
(0.88283 -0.267294 0)
(0.846776 0.153126 0)
(0.697535 0.371393 0)
(0.72221 0.521595 0)
(0.849577 0.334392 0)
(1.03455 0.0189716 0)
(1.18242 -0.170603 0)
(0.977818 -0.533357 0)
(0.946565 -0.383251 0)
(0.873446 -0.0501883 0)
(0.776266 0.141523 0)
(1.00375 0.575085 0)
(1.09552 0.240421 0)
(1.03525 -0.475406 0)
(0.952088 -0.204244 0)
(0.89208 0.25191 0)
(0.983927 0.144624 0)
(1.00127 -0.0251217 0)
(0.91808 -0.0476292 0)
(0.9546 0.00703956 0)
(0.967765 0.0325611 0)
(0.925522 0.00294219 0)
(0.929741 -0.00350359 0)
(0.934009 0.00968281 0)
(1.07683 -0.054375 0)
(1.05788 -0.0298355 0)
(1.01707 -0.0267343 0)
(1.00225 0.0507062 0)
(1.03343 0.14098 0)
(1.15146 0.142295 0)
(1.26702 0.0648392 0)
(1.27963 -0.0645246 0)
(1.24608 -0.144686 0)
(1.18494 -0.268391 0)
(1.10192 -0.266205 0)
(1.02552 -0.268545 0)
(1.00024 -0.382886 0)
(0.863715 -0.464359 0)
(0.829475 -0.187669 0)
(0.752445 0.218715 0)
(0.619341 0.402438 0)
(0.703907 0.488297 0)
(0.87843 0.258799 0)
(1.07367 -0.0664081 0)
(1.17238 -0.20005 0)
(0.934101 -0.484457 0)
(0.900258 -0.321108 0)
(0.791933 0.000176947 0)
(0.698549 0.132228 0)
(0.960145 0.534913 0)
(1.09526 0.194219 0)
(1.04176 -0.46095 0)
(0.937489 -0.165076 0)
(0.857782 0.256692 0)
(0.965922 0.126529 0)
(0.9985 -0.0204449 0)
(0.912252 -0.0418742 0)
(0.942731 0.00253248 0)
(0.958639 0.0349725 0)
(0.9174 0.00663347 0)
(0.919386 -0.00444665 0)
(0.928022 0.00903232 0)
(1.07842 -0.0226314 0)
(1.07341 -0.00835274 0)
(1.05355 0.00126227 0)
(1.04168 0.0365716 0)
(1.07255 0.077023 0)
(1.13422 0.0809192 0)
(1.19771 0.0251494 0)
(1.21435 -0.0713202 0)
(1.20019 -0.0930437 0)
(1.16067 -0.206894 0)
(1.08037 -0.209715 0)
(1.06118 -0.188377 0)
(1.03147 -0.294085 0)
(0.833473 -0.417822 0)
(0.737108 -0.171125 0)
(0.632793 0.278951 0)
(0.579892 0.399418 0)
(0.739264 0.389795 0)
(0.947898 0.161539 0)
(1.09134 -0.0969893 0)
(1.16636 -0.144539 0)
(0.951044 -0.427652 0)
(0.845071 -0.310863 0)
(0.701922 0.0253403 0)
(0.606681 0.0877083 0)
(0.925121 0.459789 0)
(1.12242 0.189884 0)
(1.04983 -0.422748 0)
(0.922626 -0.147382 0)
(0.829819 0.245484 0)
(0.954716 0.1066 0)
(0.996737 -0.0124649 0)
(0.90742 -0.0341652 0)
(0.931823 -0.00290889 0)
(0.949573 0.0369648 0)
(0.91176 0.0109394 0)
(0.912113 -0.00553444 0)
(0.923836 0.0079846 0)
(1.07883 -0.000846274 0)
(1.07569 0.00570116 0)
(1.07016 0.00497422 0)
(1.06776 0.0248738 0)
(1.08187 0.0378127 0)
(1.11773 0.0328979 0)
(1.15451 0.00724364 0)
(1.1616 -0.0619069 0)
(1.144 -0.089874 0)
(1.12865 -0.174527 0)
(1.04285 -0.176917 0)
(1.00757 -0.221974 0)
(0.973816 -0.268636 0)
(0.822721 -0.285457 0)
(0.661933 -0.0653117 0)
(0.567779 0.311791 0)
(0.663331 0.335942 0)
(0.853028 0.291586 0)
(1.04728 0.0909787 0)
(1.10895 -0.148239 0)
(1.1316 -0.149034 0)
(0.968531 -0.345725 0)
(0.773611 -0.220461 0)
(0.611824 0.0932631 0)
(0.552643 0.0435484 0)
(0.881917 0.36256 0)
(1.13138 0.139017 0)
(1.05702 -0.383744 0)
(0.887328 -0.0998039 0)
(0.789904 0.240428 0)
(0.945756 0.0784908 0)
(0.99589 -0.00761249 0)
(0.90472 -0.0248516 0)
(0.923848 -0.00773285 0)
(0.941651 0.0390829 0)
(0.909575 0.0151671 0)
(0.909613 -0.00695042 0)
(0.922741 0.00660184 0)
(1.07494 0.00921273 0)
(1.07711 0.0120287 0)
(1.0764 0.00658306 0)
(1.07478 0.0155933 0)
(1.08585 0.0149379 0)
(1.10116 0.00824039 0)
(1.11742 -0.00855354 0)
(1.1276 -0.0613586 0)
(1.1084 -0.0647966 0)
(1.10062 -0.143891 0)
(1.04302 -0.125294 0)
(1.02389 -0.13824 0)
(0.945356 -0.18124 0)
(0.837815 -0.199151 0)
(0.697474 -0.0142752 0)
(0.669516 0.285792 0)
(0.845762 0.23826 0)
(0.988058 0.173706 0)
(1.12185 0.0313526 0)
(1.11366 -0.135177 0)
(1.09939 -0.0969581 0)
(1.01287 -0.265573 0)
(0.756168 -0.147531 0)
(0.624042 0.12699 0)
(0.603171 -0.0187557 0)
(0.836136 0.244553 0)
(1.13277 0.106872 0)
(1.07017 -0.333072 0)
(0.835062 -0.0528839 0)
(0.753658 0.226908 0)
(0.953721 0.0432946 0)
(0.99837 -0.00111031 0)
(0.90227 -0.0134121 0)
(0.918486 -0.0129318 0)
(0.936308 0.040496 0)
(0.91223 0.01879 0)
(0.913503 -0.00870817 0)
(0.926331 0.00504919 0)
(1.0698 0.0141212 0)
(1.07317 0.0134896 0)
(1.07541 0.00565048 0)
(1.07413 0.00862689 0)
(1.08194 0.00258734 0)
(1.08514 -0.00645428 0)
(1.09628 -0.0143825 0)
(1.09621 -0.0556651 0)
(1.08187 -0.0514312 0)
(1.0775 -0.114965 0)
(1.01229 -0.0996044 0)
(1.01031 -0.126999 0)
(0.951875 -0.142865 0)
(0.885519 -0.113068 0)
(0.783321 0.03006 0)
(0.823669 0.210395 0)
(0.992834 0.140807 0)
(1.06626 0.117337 0)
(1.14402 0.0235463 0)
(1.09424 -0.131312 0)
(1.03999 -0.0932736 0)
(1.01678 -0.191191 0)
(0.77797 -0.0552637 0)
(0.744692 0.16761 0)
(0.771256 -0.0394458 0)
(0.83416 0.131082 0)
(1.1191 0.0400874 0)
(1.06846 -0.271515 0)
(0.778215 0.0219608 0)
(0.760004 0.199531 0)
(0.98425 -0.00293703 0)
(0.996857 0.00787921 0)
(0.900077 0.000476821 0)
(0.92021 -0.0186555 0)
(0.93685 0.0411914 0)
(0.921376 0.0214498 0)
(0.925195 -0.0108911 0)
(0.935811 0.00347699 0)
(1.06331 0.014589 0)
(1.06665 0.0126442 0)
(1.07088 0.00515375 0)
(1.06799 0.00316601 0)
(1.07465 -0.00225607 0)
(1.07137 -0.0139489 0)
(1.07801 -0.0155215 0)
(1.07341 -0.0493754 0)
(1.06096 -0.0411795 0)
(1.06051 -0.0868524 0)
(1.01178 -0.0703349 0)
(1.01639 -0.0839763 0)
(0.956702 -0.0829503 0)
(0.917746 -0.0627186 0)
(0.866244 0.023828 0)
(0.928576 0.140069 0)
(1.03782 0.0827789 0)
(1.0603 0.0674921 0)
(1.12745 0.0134482 0)
(1.08582 -0.0860994 0)
(1.01463 -0.0455418 0)
(1.01798 -0.127001 0)
(0.826799 -0.0170423 0)
(0.885132 0.151641 0)
(0.961539 -0.0463653 0)
(0.901111 0.0726591 0)
(1.09902 0.00917331 0)
(1.05912 -0.207159 0)
(0.774614 0.0773341 0)
(0.831953 0.14972 0)
(1.02278 -0.0441882 0)
(0.991979 0.0255018 0)
(0.914381 0.013816 0)
(0.939586 -0.0267265 0)
(0.947286 0.0409381 0)
(0.940925 0.0229106 0)
(0.946121 -0.0133428 0)
(0.950673 0.00219981 0)
(1.05714 0.0140519 0)
(1.05881 0.0106656 0)
(1.06434 0.0049716 0)
(1.05973 4.05613e-05 0)
(1.06608 -0.00375521 0)
(1.05921 -0.0153481 0)
(1.0637 -0.0150645 0)
(1.05765 -0.0396796 0)
(1.04764 -0.0311256 0)
(1.04682 -0.0634042 0)
(1.00988 -0.0493893 0)
(1.01214 -0.0636849 0)
(0.97011 -0.0552086 0)
(0.95657 -0.0354223 0)
(0.924463 0.0152057 0)
(0.97063 0.0814224 0)
(1.03937 0.0479508 0)
(1.04335 0.0490059 0)
(1.08895 0.0099938 0)
(1.05603 -0.065688 0)
(1.0062 -0.0344542 0)
(1.01968 -0.0854819 0)
(0.890552 0.00190042 0)
(0.97238 0.112549 0)
(1.0358 -0.040021 0)
(0.959754 0.0504842 0)
(1.07352 -0.0196313 0)
(1.0231 -0.149223 0)
(0.823598 0.122689 0)
(0.933548 0.10307 0)
(1.04441 -0.0688445 0)
(0.981246 0.0463116 0)
(0.949439 0.0219715 0)
(0.969745 -0.0333058 0)
(0.962258 0.0415638 0)
(0.969794 0.022838 0)
(0.972235 -0.0148817 0)
(0.968363 0.00201065 0)
(1.05063 0.0128595 0)
(1.0512 0.00869947 0)
(1.05652 0.0051021 0)
(1.05204 -0.00130366 0)
(1.05666 -0.00297176 0)
(1.04977 -0.0142839 0)
(1.0523 -0.0120709 0)
(1.04568 -0.030833 0)
(1.03877 -0.0232597 0)
(1.03614 -0.0451855 0)
(1.01241 -0.0340981 0)
(1.01439 -0.0426378 0)
(0.984311 -0.0320201 0)
(0.981036 -0.0185615 0)
(0.96272 0.00593705 0)
(0.990467 0.0478223 0)
(1.0272 0.0277505 0)
(1.03059 0.0276441 0)
(1.06362 0.00769989 0)
(1.04234 -0.0409553 0)
(1.00706 -0.0121533 0)
(1.01677 -0.0501424 0)
(0.932322 -0.00177201 0)
(1.00669 0.0760204 0)
(1.04079 -0.0364251 0)
(0.990029 0.0427146 0)
(1.06306 -0.0116209 0)
(0.987381 -0.104443 0)
(0.890294 0.128314 0)
(1.01993 0.0630732 0)
(1.04511 -0.0699148 0)
(0.976184 0.0654243 0)
(0.999328 0.0219273 0)
(0.996973 -0.035605 0)
(0.980632 0.0427449 0)
(1.00447 0.0211093 0)
(0.998391 -0.0141847 0)
(0.988435 0.00332286 0)
(1.0441 0.0115401 0)
(1.04415 0.00716546 0)
(1.04868 0.0053014 0)
(1.0448 -0.00135137 0)
(1.04778 -0.00158609 0)
(1.04235 -0.0115007 0)
(1.04292 -0.00873288 0)
(1.03815 -0.0226941 0)
(1.0322 -0.0161127 0)
(1.03052 -0.0311127 0)
(1.01457 -0.0220261 0)
(1.01573 -0.0284167 0)
(0.995563 -0.0204555 0)
(0.997015 -0.0105381 0)
(0.986348 0.000806149 0)
(1.00015 0.0256145 0)
(1.02241 0.0148682 0)
(1.02339 0.0162523 0)
(1.04217 0.00565342 0)
(1.03134 -0.0275593 0)
(1.00486 -0.00768867 0)
(1.02183 -0.0296531 0)
(0.960889 -0.00493364 0)
(1.01732 0.0524573 0)
(1.0304 -0.026455 0)
(0.991698 0.032201 0)
(1.05882 -0.00777028 0)
(0.976404 -0.0734534 0)
(0.942007 0.111065 0)
(1.06305 0.0393262 0)
(1.02586 -0.0572951 0)
(0.982464 0.0694958 0)
(1.04294 0.0165076 0)
(1.00787 -0.0308038 0)
(0.99755 0.0410392 0)
(1.03329 0.0177897 0)
(1.01608 -0.0109696 0)
(1.00548 0.00520954 0)
(1.03796 0.0102353 0)
(1.03802 0.00614168 0)
(1.04117 0.00545049 0)
(1.0386 -0.000709536 0)
(1.03999 0.000163714 0)
(1.03658 -0.00837995 0)
(1.03566 -0.00515917 0)
(1.03285 -0.0159458 0)
(1.02765 -0.0102898 0)
(1.02703 -0.0208075 0)
(1.01593 -0.0140893 0)
(1.01742 -0.0184272 0)
(1.00432 -0.0128347 0)
(1.00619 -0.00603407 0)
(1.00058 -0.00191316 0)
(1.0068 0.013605 0)
(1.01842 0.00728345 0)
(1.01976 0.00806869 0)
(1.02893 0.00357381 0)
(1.02647 -0.0155132 0)
(1.00561 -0.00326629 0)
(1.02251 -0.013082 0)
(0.979541 -0.00629663 0)
(1.01615 0.0345181 0)
(1.02614 -0.0180306 0)
(0.992547 0.0221954 0)
(1.05281 0.00315966 0)
(0.978555 -0.0470089 0)
(0.966963 0.081132 0)
(1.07245 0.0273699 0)
(1.00824 -0.0370854 0)
(0.995346 0.0601864 0)
(1.06158 0.0125246 0)
(1.00713 -0.0202597 0)
(1.01028 0.034557 0)
(1.04726 0.0146646 0)
(1.02321 -0.00514116 0)
(1.01582 0.00720968 0)
(1.03247 0.00912741 0)
(1.03267 0.00556132 0)
(1.03477 0.00557065 0)
(1.03327 0.000347079 0)
(1.03361 0.00163632 0)
(1.03172 -0.00532455 0)
(1.03008 -0.00224786 0)
(1.02892 -0.0105544 0)
(1.02435 -0.00574591 0)
(1.02474 -0.0136075 0)
(1.01696 -0.00822385 0)
(1.01846 -0.0118209 0)
(1.00991 -0.00785508 0)
(1.01165 -0.00400126 0)
(1.00809 -0.00254491 0)
(1.01103 0.0065888 0)
(1.01654 0.00255606 0)
(1.01805 0.00480262 0)
(1.02061 0.00109867 0)
(1.02262 -0.0075901 0)
(1.00622 -0.00279804 0)
(1.02097 -0.00568639 0)
(0.994134 -0.00490221 0)
(1.01313 0.0214367 0)
(1.02472 -0.00945284 0)
(0.992679 0.014154 0)
(1.04226 0.00571902 0)
(0.990803 -0.0272689 0)
(0.98144 0.0539286 0)
(1.06315 0.021819 0)
(1.00144 -0.0198199 0)
(1.00696 0.0436259 0)
(1.0592 0.0113621 0)
(1.0071 -0.00993275 0)
(1.01878 0.0245254 0)
(1.04777 0.012464 0)
(1.02449 0.000739012 0)
(1.02108 0.00807852 0)
(1.02782 0.00818368 0)
(1.02814 0.00524635 0)
(1.02949 0.00560319 0)
(1.02862 0.00134545 0)
(1.02856 0.00274545 0)
(1.02757 -0.00280535 0)
(1.026 1.14384e-05 0)
(1.02559 -0.00646841 0)
(1.0221 -0.0024095 0)
(1.0228 -0.00854262 0)
(1.01743 -0.00417675 0)
(1.01885 -0.00754083 0)
(1.01314 -0.00442512 0)
(1.01466 -0.00278461 0)
(1.01192 -0.00237718 0)
(1.01375 0.00341504 0)
(1.01525 -0.000126522 0)
(1.01695 0.00346665 0)
(1.01645 -0.000733789 0)
(1.01981 -0.00231357 0)
(1.00825 -0.00181085 0)
(1.01903 -0.00124664 0)
(1.00273 -0.00181996 0)
(1.01173 0.0121227 0)
(1.02231 -0.00278666 0)
(0.9977 0.00909563 0)
(1.03288 0.0074828 0)
(1.0003 -0.0106818 0)
(0.992299 0.0328023 0)
(1.0494 0.0183354 0)
(1.00314 -0.00581444 0)
(1.01414 0.0292992 0)
(1.04859 0.012596 0)
(1.01041 -0.00172627 0)
(1.02327 0.0156374 0)
(1.04228 0.0119743 0)
(1.0244 0.00599091 0)
(1.02391 0.00868382 0)
(1.02397 0.00737035 0)
(1.02428 0.00503935 0)
(1.0252 0.00549879 0)
(1.0247 0.00218452 0)
(1.02459 0.00347222 0)
(1.02407 -0.000831863 0)
(1.02288 0.00156999 0)
(1.02277 -0.00351357 0)
(1.02028 -7.06614e-05 0)
(1.021 -0.00514305 0)
(1.0174 -0.00134475 0)
(1.01862 -0.00477999 0)
(1.01471 -0.00196385 0)
(1.01601 -0.00194098 0)
(1.01374 -0.00174415 0)
(1.01493 0.00208736 0)
(1.0148 -0.00152585 0)
(1.01602 0.00349131 0)
(1.01476 -0.00201817 0)
(1.01756 0.00108069 0)
(1.00989 -0.00141266 0)
(1.01725 0.000404086 0)
(1.00761 0.000774665 0)
(1.01228 0.00584741 0)
(1.01914 0.00216818 0)
(1.00318 0.00559853 0)
(1.0251 0.00651318 0)
(1.0069 -0.000590857 0)
(1.00189 0.018271 0)
(1.03696 0.0160526 0)
(1.00707 0.00220497 0)
(1.01826 0.017649 0)
(1.03848 0.0137374 0)
(1.01468 0.00288204 0)
(1.02524 0.0083325 0)
(1.03644 0.0118411 0)
(1.02443 0.0091872 0)
(1.02561 0.00833948 0)
(1.02077 0.00661658 0)
(1.02104 0.00482883 0)
(1.02174 0.00527444 0)
(1.02145 0.00277018 0)
(1.02142 0.00384681 0)
(1.02112 0.000569187 0)
(1.02034 0.00253391 0)
(1.02037 -0.00145367 0)
(1.01869 0.0014374 0)
(1.01935 -0.00281861 0)
(1.01688 0.00053778 0)
(1.018 -0.00289934 0)
(1.01515 -0.000205761 0)