/*--------------------------------*- C++ -*----------------------------------*\
| =========                 |                                                 |
| \\      /  F ield         | OpenFOAM: The Open Source CFD Toolbox           |
|  \\    /   O peration     | Version:  2312                                  |
|   \\  /    A nd           | Website:  www.openfoam.com                      |
|    \\/     M anipulation  |                                                 |
\*---------------------------------------------------------------------------*/
FoamFile
{
    version     2.0;
    format      ascii;
    arch        "LSB;label=32;scalar=64";
    class       surfaceScalarField;
    location    "40";
    object      phi;
}
// * * * * * * * * * * * * * * * * * * * * * * * * * * * * * * * * * * * * * //

dimensions      [0 3 -1 0 0 0 0];

oriented        oriented;

internalField   nonuniform List<scalar> 
10785
(
0.00078035
0.00315037
-0.00393072
0.00357097
0.00295653
-0.00574715
0.00977531
-0.00351274
-0.0026916
0.021461
-0.0167383
0.00505258
0.0399696
-0.0363002
0.0177917
0.0645826
-0.0599419
0.0353288
0.0926313
-0.084384
0.0563354
0.120798
-0.106797
0.0786305
0.145984
-0.125283
0.100097
0.166439
-0.139188
0.118732
0.181643
-0.148975
0.133771
0.19219
-0.155194
0.144647
0.200074
-0.159879
0.151995
0.205464
-0.162649
0.157259
-0.165593
0.159748
0.211309
0.000673334
0.00247704
0.00460445
-0.000974591
0.0143617
-0.01327
0.0319849
-0.0343615
0.0565467
-0.060862
0.0842988
-0.0876939
0.110904
-0.110989
0.133056
-0.128948
0.149328
-0.141556
0.160221
-0.15008
0.167179
-0.155933
0.172821
-0.160837
0.178502
-0.16556
0.186146
-0.170293
-0.176121
0.196675
0.000987086
0.00148995
0.00717801
-0.00716552
0.0219519
-0.0280439
0.0449724
-0.057382
0.0714193
-0.0873089
0.0958603
-0.112135
0.114895
-0.130025
0.127805
-0.141858
0.13602
-0.149771
0.14174
-0.1558
0.147199
-0.161392
0.153528
-0.167166
0.160973
-0.173005
0.169723
-0.179043
-0.185221
0.178823
0.00183663
-0.000346671
0.0115301
-0.016859
0.0311893
-0.047703
0.0557008
-0.0818935
0.0782456
-0.109854
0.0950966
-0.128986
0.106085
-0.141013
0.113169
-0.148942
0.118595
-0.155197
0.123879
-0.161084
0.129487
-0.167
0.135283
-0.172962
0.141282
-0.179003
0.147648
-0.185409
-0.191906
0.154332
0.00317241
-0.00351908
0.0168556
-0.0305422
0.0385908
-0.0694383
0.0598049
-0.103107
0.0756144
-0.125663
0.0857605
-0.139132
0.0922386
-0.147491
0.0970499
-0.153753
0.10129
-0.159437
0.105289
-0.165082
0.109151
-0.170863
0.113134
-0.176944
0.117536
-0.183405
0.12243
-0.190303
-0.197565
0.128089
0.00495217
-0.00847125
0.0214888
-0.0470788
0.0414456
-0.089395
0.0571525
-0.118814
0.0671742
-0.135685
0.0731741
-0.145132
0.0770761
-0.151393
0.0800427
-0.15672
0.0826375
-0.162032
0.0851938
-0.167639
0.0879895
-0.173659
0.0911375
-0.180092
0.0946255
-0.186893
0.0984392
-0.194117
-0.201517
0.102391
0.00686831
-0.0153396
0.0238635
-0.064074
0.0397813
-0.105313
0.0502901
-0.129323
0.0561198
-0.141515
0.0592399
-0.148252
0.0611352
-0.153288
0.0626102
-0.158195
0.0640137
-0.163435
0.0654685
-0.169093
0.0669579
-0.175148
0.068477
-0.181611
0.0700833
-0.188499
0.0717518
-0.195786
-0.203369
0.0736037
0.00830901
-0.0236486
0.0234084
-0.0791734
0.0349872
-0.116892
0.0412564
-0.135592
0.0439688
-0.144227
0.044975
-0.149258
0.0453443
-0.153657
0.0454681
-0.158319
0.045443
-0.16341
0.0453008
-0.168951
0.0451251
-0.174972
0.0450143
-0.181501
0.0450357
-0.188521
0.0452483
-0.195998
0.0457623
-0.203883
-0.00150142
0.000680517
0.000820908
-0.00466166
-0.00303078
0.00619101
-0.00899296
-0.00687537
0.0112067
-0.0141016
-0.00984317
0.0149518
-0.0196388
-0.0127197
0.0182569
-0.0253359
-0.0163435
0.0220406
-0.0309529
-0.0210838
0.0267008
-0.0362082
-0.0270424
0.0322977
-0.0407568
-0.034201
0.0387496
-0.0442081
-0.0424139
0.0458652
-0.046157
-0.0513834
0.0533324
-0.0461878
-0.0606672
0.0606979
-0.0439243
-0.0696439
0.0673805
-0.0391648
-0.0773296
0.0725701
-0.0835393
-0.0312548
0.0756294
-0.001861
0.00254152
-0.00568036
0.00078858
-0.0106978
-0.00185789
-0.0164444
-0.00409658
-0.0226553
-0.00650878
-0.0291455
-0.0098533
-0.0357149
-0.0145145
-0.0421033
-0.020654
-0.0480059
-0.0282984
-0.053108
-0.0373118
-0.0571419
-0.0473496
-0.0598708
-0.0579383
-0.0611212
-0.0683935
-0.0610554
-0.0773955
-0.0858492
-0.0587455
-0.00180096
0.00434248
-0.00558883
0.00457644
-0.0104443
0.00299757
-0.0158438
0.00130296
-0.0215649
-0.00078768
-0.0274153
-0.00400293
-0.0331603
-0.00876948
-0.0384973
-0.015317
-0.043118
-0.0236777
-0.0467584
-0.0336715
-0.0493142
-0.0447938
-0.0508333
-0.0564191
-0.0508051
-0.0684217
-0.0509151
-0.0772854
-0.0882675
-0.0484969
-0.00129177
0.00563425
-0.0042754
0.00756007
-0.00808842
0.00681059
-0.0121478
0.00536233
-0.0160322
0.00309673
-0.0194338
-0.000601367
-0.0220871
-0.00611619
-0.0235348
-0.0138693
-0.0234306
-0.0237818
-0.0215635
-0.0355386
-0.0179077
-0.0484496
-0.0130217
-0.0613051
-0.00728319
-0.0741602
-0.000723849
-0.0838448
-0.092546
0.0035547
-0.00048582
0.00612007
-0.00209459
0.00916885
-0.00411002
0.00882602
-0.00581371
0.00706602
-0.00664594
0.00392896
-0.00610254
-0.00114477
-0.0035738
-0.00864493
0.00145781
-0.0189009
0.00934678
-0.0316708
0.0202517
-0.0464435
0.0333764
-0.0615743
0.0486562
-0.0765848
0.0646424
-0.0901464
0.0802935
-0.0994959
-0.108863
0.09661
0.00033599
0.00578408
0.00030785
0.00919699
0.000396106
0.00873777
0.00147479
0.00598734
0.00436605
0.0010377
0.00988265
-0.00666137
0.0188212
-0.0175835
0.031634
-0.0317137
0.0482846
-0.0483214
0.0682941
-0.066453
0.0906847
-0.0839649
0.114291
-0.100191
0.13793
-0.113785
0.161406
-0.122972
-0.131795
0.184338
0.000873319
0.00491076
0.00216955
0.00790076
0.00429935
0.00660796
0.0082241
0.00206259
0.0151744
-0.00591256
0.0262654
-0.0177524
0.0421594
-0.0334775
0.0626631
-0.0522174
0.0868338
-0.0724921
0.112902
-0.0925207
0.139396
-0.110459
0.164821
-0.125616
0.187606
-0.13657
0.209808
-0.145174
-0.14853
0.226543
0.00098004
0.00313365
0.00705
0.0141652
0.0260443
0.0436207
0.0664785
0.0928916
0.120497
0.146708
0.170021
0.189051
0.204476
0.21656
0.227778
-0.00676204
-0.177551
0.153058
0.0294231
-0.136131
0.0999458
0.074322
-0.0517577
0.00685882
0.119793
0.102671
-0.148142
0.164089
0.263808
-0.308103
0.195198
0.368629
-0.399738
0.18292
0.453848
-0.44157
0.15026
0.568018
-0.535358
0.156784
0.474227
-0.480751
0.176914
0.129926
-0.150056
0.188258
-0.205032
0.193688
0.193813
-0.391068
0.385513
0.18743
-0.428388
0.434771
0.178053
-0.416654
0.426031
0.175606
-0.347454
0.3499
0.159078
-0.249943
0.266471
0.141192
-0.179595
0.197482
0.140217
-0.0934129
0.0943882
0.151486
-0.0398879
0.028618
0.168335
5.72435e-06
-0.0168544
0.182733
0.0102812
-0.024679
0.197639
-0.0114712
-0.00343539
0.211274
-0.00710645
-0.00652854
0.222201
-0.0280339
0.0171068
0.233978
-0.0139936
0.00221745
0.243988
-0.00393234
-0.00607792
0.251922
0.017692
-0.0256257
0.259036
0.0173865
-0.0245006
0.263336
0.0750415
-0.0793416
0.265252
0.0346387
-0.0365553
0.267284
0.0779436
-0.0799751
0.267042
0.111767
-0.111525
0.266626
0.0429851
-0.0425688
0.267029
0.118215
-0.118619
0.266024
0.112622
-0.111617
0.264926
0.0782543
-0.0771561
0.264288
0.101228
-0.10059
0.124188
-0.123002
-0.0463467
-0.18995
-0.0179837
-0.164494
0.0259475
-0.0956889
0.0822215
0.0463965
0.137121
0.208908
0.176817
0.328934
0.176286
0.454379
0.165188
0.579116
0.183017
0.456398
0.199951
0.112992
0.203109
-0.20819
0.201062
-0.389021
0.195179
-0.422505
0.1813
-0.402774
0.17873
-0.344884
0.176749
-0.247962
0.162546
-0.165393
0.153872
-0.084738
0.159029
-0.0450456
0.173605
-0.0145701
0.189278
-0.00539218
0.2046
-0.0267929
0.216193
-0.0186992
0.223874
-0.0357153
0.231725
-0.0218445
0.238775
-0.0109818
0.245431
0.0110352
0.252814
0.0100036
0.25788
0.0699761
0.260558
0.0319604
0.26381
0.0746918
0.264308
0.111269
0.264576
0.0427171
0.265749
0.117042
0.26523
0.113141
0.264485
0.0789996
0.264118
0.101595
0.125218
-0.0547492
-0.183698
-0.0429797
-0.176263
-0.0102266
-0.128442
0.0452394
-0.00906952
0.101101
0.153046
0.147397
0.282638
0.16718
0.434596
0.183742
0.562554
0.209086
0.431054
0.219456
0.102622
0.217716
-0.20645
0.206475
-0.37778
0.195366
-0.411396
0.181911
-0.38932
0.176568
-0.339541
0.184385
-0.255779
0.18561
-0.166618
0.181344
-0.0804723
0.184373
-0.0480749
0.195912
-0.0261086
0.210422
-0.0199022
0.223556
-0.0399272
0.231416
-0.0265591
0.234559
-0.0388578
0.236601
-0.0238867
0.238557
-0.0129381
0.241707
0.00788526
0.247197
0.00451323
0.251651
0.0655222
0.254554
0.0290577
0.258755
0.0704907
0.260152
0.109871
0.261416
0.0414537
0.263605
0.114853
0.263819
0.112927
0.263657
0.0791614
0.263754
0.101498
0.125912
-0.0238538
-0.156289
-0.0354491
-0.164668
-0.0223768
-0.141514
0.0158012
-0.0472476
0.0657881
0.103059
0.118064
0.230362
0.162258
0.390401
0.204557
0.520255
0.234817
0.400794
0.237316
0.100123
0.227526
-0.19666
0.211621
-0.361875
0.196064
-0.395839
0.182806
-0.376061
0.175189
-0.331923
0.181941
-0.262531
0.196042
-0.180718
0.205384
-0.0898145
0.213856
-0.0565466
0.224694
-0.0369463
0.235951
-0.0311592
0.244897
-0.0488738
0.248732
-0.0303937
0.248123
-0.0382487
0.245561
-0.0213251
0.242885
-0.0102619
0.241982
0.00878804
0.244163
0.00233225
0.246675
0.0630101
0.248948
0.0267847
0.253296
0.0661432
0.255369
0.107798
0.257654
0.0391689
0.260864
0.111643
0.261929
0.111862
0.26251
0.0785804
0.263225
0.100783
0.126104
0.0499592
-0.109638
0.00912198
-0.123831
-0.00440915
-0.127983
0.0127162
-0.0643729
0.048784
0.0669916
0.10004
0.179106
0.163237
0.327204
0.225259
0.458234
0.257607
0.368446
0.255508
0.102222
0.23606
-0.177212
0.212489
-0.338304
0.192614
-0.375964
0.178501
-0.361949
0.172471
-0.325893
0.176253
-0.266313
0.193453
-0.197919
0.212996
-0.109357
0.229096
-0.072647
0.242583
-0.0504325
0.252064
-0.0406407
0.257697
-0.0545065
0.259087
-0.0317844
0.256851
-0.0360121
0.252579
-0.0170532
0.247791
-0.00547344
0.24431
0.0122689
0.243508
0.00313416
0.243754
0.0627639
0.244832
0.0257065
0.248525
0.0624506
0.250827
0.105496
0.253875
0.0361208
0.257879
0.107639
0.259754
0.109987
0.261139
0.0771955
0.262569
0.0993524
0.125649
0.147775
-0.0730746
0.0949536
-0.0710101
0.0489005
-0.0819299
0.0370551
-0.0525276
0.0583079
0.0457388
0.103282
0.134133
0.172896
0.25759
0.24178
0.38935
0.272788
0.337437
0.268186
0.106824
0.243801
-0.152826
0.214185
-0.308688
0.190353
-0.352132
0.17341
-0.345006
0.166365
-0.318848
0.169287
-0.269235
0.184822
-0.213454
0.207224
-0.13176
0.226776
-0.0921992
0.242624
-0.0662802
0.252392
-0.0504087
0.257454
-0.0595682
0.258991
-0.0333213
0.257353
-0.034375
0.253849
-0.0135487
0.24946
-0.00108489
0.245516
0.0162131
0.2433
0.00535058
0.242068
0.0639959
0.242048
0.025726
0.244804
0.0596948
0.246968
0.103332
0.250418
0.0326708
0.25491
0.103147
0.25745
0.107447
0.259622
0.0750241
0.261823
0.0971514
0.124425
0.206153
-0.0526846
0.174433
-0.0392901
0.129393
-0.0368894
0.0967508
-0.0198857
0.0906925
0.0517971
0.118564
0.106261
0.185909
0.190245
0.25639
0.318869
0.280952
0.312875
0.269541
0.118235
0.240089
-0.123375
0.206662
-0.275261
0.181157
-0.326626
0.163946
-0.327796
0.156629
-0.31153
0.159029
-0.271635
0.172602
-0.227026
0.194264
-0.153422
0.214115
-0.112051
0.230717
-0.0828816
0.241278
-0.06097
0.24735
-0.0656401
0.25052
-0.0364911
0.250696
-0.0345512
0.249206
-0.0120592
0.246587
0.0015342
0.243596
0.0192041
0.241571
0.00737622
0.240075
0.0654917
0.239559
0.0262421
0.241702
0.0575519
0.243655
0.101379
0.247249
0.0290766
0.252015
0.0983805
0.255078
0.104385
0.257995
0.0721068
0.261004
0.0941424
0.122321
0.213462
-0.0383677
0.198853
-0.0246818
0.17952
-0.0175564
0.158116
0.00151905
0.14354
0.0663723
0.148677
0.101124
0.191843
0.14708
0.250028
0.260683
0.278659
0.284244
0.274268
0.122626
0.243707
-0.0928139
0.204528
-0.236083
0.174379
-0.296477
0.155897
-0.309313
0.147113
-0.302746
0.147079
-0.271601
0.15814
-0.238087
0.17788
-0.173162
0.196889
-0.13106
0.213613
-0.0996054
0.225001
-0.0723581
0.232449
-0.0730876
0.237424
-0.0414665
0.239502
-0.0366295
0.240147
-0.0127042
0.239584
0.00209749
0.238144
0.0206444
0.237305
0.00821524
0.236566
0.06623
0.236269
0.0265398
0.238457
0.0553638
0.240399
0.0994367
0.244077
0.0253983
0.249082
0.093376
0.252603
0.100863
0.256252
0.0684572
0.260117
0.0902777
0.119229
0.40923
-0.0156956
-0.431902
0.388701
-0.00415296
0.368376
0.00276924
0.34191
0.0279842
0.316974
0.0913091
0.30056
0.117538
0.3033
0.14434
0.349296
0.214687
0.435715
0.197825
0.506168
0.0521727
0.516936
-0.103581
0.486826
-0.205973
0.445808
-0.25546
0.405709
-0.269214
0.373706
-0.270744
0.351284
-0.249179
0.341644
-0.228447
0.347169
-0.178687
0.360188
-0.144079
0.375511
-0.114929
0.387466
-0.0843124
0.394755
-0.0803767
0.397713
-0.0444246
0.397063
-0.0359796
0.394197
-0.00983803
0.389966
0.00632822
0.385832
0.0247778
0.38111
0.0129374
0.377331
0.0700096
0.374962
0.0289088
0.373379
0.0569464
0.373726
0.0990898
0.375838
0.0232865
0.378217
0.0909974
0.380184
0.0988964
0.382221
0.0664197
0.38413
0.0883692
0.11813
0.44529
0.00208839
-0.463074
0.431361
0.00977616
0.418007
0.0161233
0.409799
0.0361924
0.417333
0.0837747
0.428176
0.106696
0.443252
0.129264
0.492459
0.165479
0.557078
0.133206
0.585812
0.023439
0.566975
-0.0847447
0.522993
-0.161991
0.474794
-0.207261
0.434419
-0.228839
0.406307
-0.242632
0.389522
-0.232394
0.383211
-0.222136
0.387933
-0.183409
0.398814
-0.154959
0.411831
-0.127946
0.422438
-0.0949194
0.428936
-0.0868747
0.431467
-0.0469558
0.430881
-0.0353932
0.428201
-0.00715838
0.424741
0.00978833
0.421501
0.0280174
0.418144
0.0162942
0.41571
0.0724444
0.414155
0.0304634
0.413238
0.0578635
0.413224
0.0991038
0.414498
0.0220126
0.415947
0.0895485
0.417041
0.097802
0.418585
0.0648758
0.420179
0.0867754
0.117113
0.491331
0.0135033
-0.502746
0.482583
0.0185246
0.473094
0.0256121
0.47004
0.0392466
0.48454
0.0692744
0.50357
0.0876656
0.528819
0.104014
0.575595
0.118704
0.617958
0.0908436
0.626876
0.0145206
0.604569
-0.0624374
0.567868
-0.12529
0.529672
-0.169066
0.496572
-0.195739
0.469228
-0.215287
0.448792
-0.211958
0.437084
-0.210428
0.436245
-0.182571
0.442631
-0.161345
0.452431
-0.137746
0.46125
-0.103739
0.466944
-0.092569
0.469197
-0.0492084
0.468533
-0.0347294
0.46624
-0.00486542
0.463048
0.01298
0.459967
0.0310992
0.457288
0.0189729
0.455675
0.0740569
0.454861
0.0312779
0.454857
0.0578675
0.454908
0.0990524
0.4557
0.0212207
0.456621
0.0886276
0.457085
0.097338
0.458217
0.0637443
0.459552
0.08544
0.116149
0.539624
0.0203899
-0.546511
0.534459
0.0236901
0.530269
0.0298022
0.530421
0.039094
0.542813
0.0568826
0.560494
0.0699844
0.584745
0.0797634
0.621279
0.0821701
0.650027
0.0620959
0.652654
0.0118934
0.633192
-0.0429752
0.601993
-0.0940904
0.568609
-0.135683
0.537414
-0.164543
0.51131
-0.189184
0.493137
-0.193785
0.483619
-0.20091
0.483123
-0.182075
0.488346
-0.166568
0.496192
-0.145591
0.503465
-0.111012
0.508383
-0.0974875
0.510496
-0.0513214
0.510209
-0.0344418
0.5082
-0.00285668
0.5053
0.01588
0.50231
0.0340888
0.499869
0.0214141
0.498588
0.0753381
0.498078
0.0317875
0.498694
0.0572517
0.498867
0.0988793
0.499442
0.0206456
0.500185
0.0878849
0.500341
0.0971821
0.50125
0.0628357
0.502464
0.0842259
0.115165
0.591139
0.0230023
-0.593751
0.589277
0.0255512
0.588706
0.0303736
0.591069
0.0367315
0.600838
0.0471128
0.615786
0.055037
0.635015
0.0605346
0.659275
0.0579098
0.677666
0.0437048
0.680535
0.00902412
0.668379
-0.0308191
0.646993
-0.0727047
0.62133
-0.110019
0.595133
-0.138346
0.571724
-0.165774
0.553219
-0.17528
0.5413
-0.188991
0.537485
-0.17826
0.539602
-0.168685
0.545069
-0.151059
0.550825
-0.116768
0.55476
-0.101422
0.556292
-0.0528537
0.555792
-0.0339415
0.55399
-0.00105543
0.551382
0.0184885
0.548587
0.0368835
0.546393
0.0236082
0.545237
0.0764947
0.544765
0.0322591
0.545595
0.0564216
0.545784
0.0986906
0.546274
0.0201558
0.547035
0.0871238
0.54714
0.0970765
0.548
0.0619761
0.549238
0.082988
0.114073
0.646868
0.0228882
-0.646754
0.647093
0.025326
0.648603
0.0288634
0.65227
0.0330647
0.660091
0.0392921
0.671723
0.0434042
0.685962
0.0462959
0.702154
0.0417174
0.714697
0.0311619
0.717029
0.00669262
0.708607
-0.0223969
0.69142
-0.0555179
0.669407
-0.0880068
0.64674
-0.115679
0.626748
-0.145782
0.611083
-0.159615
0.600483
-0.17839
0.59592
-0.173697
0.59601
-0.168774
0.598946
-0.153994
0.602311
-0.120133
0.604718
-0.103829
0.605709
-0.0538452
0.605161
-0.0333933
0.603695
0.00041125
0.601559
0.0206242
0.5991
0.0393425
0.59721
0.0254984
0.596183
0.0775213
0.595656
0.032786
0.596551
0.0555267
0.596676
0.0985656
0.597101
0.0197308
0.597958
0.0862668
0.598105
0.096929
0.598978
0.0611038
0.600328
0.0816379
0.112809
0.706124
0.0213412
-0.704577
0.707952
0.0234987
0.710663
0.0261516
0.714803
0.0289253
0.721244
0.0328509
0.730041
0.0346069
0.740251
0.0360863
0.750728
0.0312405
0.758559
0.0233304
0.760101
0.0051514
0.753938
-0.0162341
0.741594
-0.043174
0.72575
-0.0721629
0.708136
-0.0980651
0.690894
-0.128541
0.675934
-0.144655
0.66472
-0.167177
0.658571
-0.167548
0.656547
-0.16675
0.657472
-0.154919
0.659414
-0.122075
0.660784
-0.1052
0.660928
-0.0539893
0.659915
-0.0323803
0.65829
0.00203641
0.656305
0.0226095
0.654036
0.0416113
0.65247
0.0270646
0.651574
0.0784172
0.650977
0.0333834
0.65192
0.0545836
0.651951
0.0985341
0.652355
0.0193267
0.653447
0.0851755
0.653703
0.0966728
0.654638
0.060169
0.656183
0.0800922
0.111313
0.76968
0.0188102
-0.767149
0.772435
0.0207437
0.775657
0.0229301
0.779739
0.0248428
0.78503
0.0275601
0.791547
0.0280904
0.79872
0.0289133
0.805657
0.0243029
0.810523
0.0184649
0.811207
0.00446665
0.806878
-0.0119047
0.797781
-0.0340774
0.785063
-0.0594444
0.770221
-0.0832232
0.755624
-0.113943
0.742824
-0.131855
0.732793
-0.157146
0.726461
-0.161217
0.723137
-0.163426
0.722078
-0.153861
0.721677
-0.121674
0.721111
-0.104634
0.720296
-0.0531741
0.718936
-0.0310202
0.717443
0.00352929
0.715821
0.024232
0.713875
0.0435573
0.712702
0.0282372
0.712003
0.0791163
0.711378
0.0340087
0.712489
0.0534719
0.712444
0.0985794
0.712838
0.0189326
0.714234
0.0837801
0.714556
0.09635
0.715533
0.059192
0.717317
0.0783083
0.109558
0.838005
0.0159174
-0.835112
0.841063
0.0176855
0.844403
0.0195897
0.848176
0.0210696
0.852522
0.0232149
0.857382
0.0232298
0.862359
0.0239367
0.866806
0.0198561
0.869668
0.0156026
0.869799
0.00433599
0.866425
-0.00853125
0.85941
-0.0270627
0.849751
-0.0497854
0.838432
-0.0719043
0.82679
-0.102301
0.815835
-0.120899
0.806464
-0.147775
0.799531
-0.154284
0.794619
-0.158513
0.791702
-0.150944
0.789777
-0.119749
0.788096
-0.102952
0.786327
-0.0514057
0.784222
-0.0289147
0.782446
0.00530531
0.780845
0.0258328
0.779073
0.0453293
0.778221
0.0290896
0.777725
0.0796117
0.777063
0.0346713
0.778391
0.052144
0.778293
0.0986771
0.778739
0.018486
0.780557
0.0819625
0.781
0.0959074
0.782083
0.0581088
0.784168
0.0762231
0.107451
0.911652
0.0129898
-0.908725
0.914701
0.014637
0.917888
0.016403
0.921239
0.0177182
0.924766
0.0196881
0.928392
0.0196034
0.931844
0.0204846
0.934719
0.0169809
0.93635
0.013972
0.936047
0.00463918
0.933377
-0.00586172
0.928174
-0.0218592
0.920945
-0.0425568
0.91211
-0.0630694
0.902604
-0.0927942
0.893222
-0.111518
0.884661
-0.139213
0.877733
-0.147356
0.872164
-0.152944
0.867926
-0.146707
0.864088
-0.115911
0.860587
-0.099451
0.857605
-0.048424
0.854916
-0.0262254
0.852957
0.00726416
0.851513
0.0272772
0.849961
0.0468808
0.849502
0.0295486
0.849285
0.079829
0.848685
0.0352709
0.850411
0.0504182
0.850389
0.0986991
0.850874
0.018001
0.853186
0.0796502
0.853726
0.0953674
0.854903
0.0569321
0.85734
0.073786
0.105042
0.991348
0.0102215
-0.98858
0.994181
0.0118049
0.997051
0.0135331
0.99994
0.0148284
1.0028
0.0168321
1.00554
0.0168616
1.00796
0.0180675
1.00981
0.0151256
1.01069
0.0130876
1.01022
0.00511204
1.00813
-0.00377081
1.00421
-0.0179373
0.998739
-0.0370862
0.991911
-0.0562414
0.984373
-0.085257
0.976604
-0.103748
0.969089
-0.131699
0.962246
-0.140514
0.955691
-0.146389
0.949897
-0.140912
0.944466
-0.11048
0.939682
-0.0946675
0.935755
-0.0444967
0.932309
-0.0227797
0.930118
0.00945477
0.928659
0.0287369
0.927332
0.048208
0.927202
0.0296787
0.927281
0.0797501
0.926784
0.0357671
0.92885
0.0483524
0.928899
0.0986506
0.929569
0.0173306
0.932395
0.0768239
0.933135
0.0946282
0.934488
0.0555782
0.937319
0.0709552
0.102081
1.07786
0.00772763
-1.07536
1.08038
0.00928808
1.08287
0.011036
1.08531
0.0123917
1.08761
0.0145269
1.08972
0.014756
1.09147
0.0163213
1.09272
0.0138735
1.0932
0.0126065
1.09271
0.00560561
1.09108
-0.00214173
1.08813
-0.0149954
1.08404
-0.0329939
1.07881
-0.0510099
1.07289
-0.0793326
1.06633
-0.097193
1.05938
-0.124749
1.0525
-0.133634
1.04545
-0.13934
1.03878
-0.134234
1.03205
-0.103753
1.02588
-0.0884998
1.02077
-0.0393822
1.01651
-0.0185222
1.01399
0.0119735
1.01259
0.0301389
1.01144
0.0493566
1.01171
0.029407
1.01224
0.0792188
1.01185
0.0361606
1.01452
0.0456781
1.01492
0.0982536
1.01555
0.0166996
1.01906
0.0733106
1.02002
0.0936691
1.02154
0.0540571
1.02482
0.0676819
0.0988166
1.17199
0.00555025
-1.16981
1.17416
0.00711539
1.17629
0.00891164
1.17832
0.0103644
1.18018
0.0126578
1.18183
0.0131152
1.18314
0.0150112
1.18401
0.0129971
1.18431
0.0123107
1.18389
0.00602787
1.18267
-0.000924144
1.18048
-0.0128047
1.17746
-0.0299776
1.17352
-0.047066
1.16879
-0.074606
1.16321
-0.0916143
1.15686
-0.118396
1.14992
-0.126697
1.14198
-0.131402
1.13389
-0.126139
1.1256
-0.0954629
1.11807
-0.080973
1.11227
-0.033576
1.10768
-0.0139368
1.10512
0.0145297
1.10381
0.0314526
1.10299
0.0501815
1.10369
0.0286982
1.10464
0.0782691
1.10463
0.0361714
1.10778
0.0425333
1.10841
0.0976252
1.10949
0.0156155
1.11361
0.0691916
1.1149
0.0923778
1.11671
0.0522475
1.12052
0.0638689
0.0946677
1.27464
0.00370152
-1.27279
1.27647
0.00528642
1.27824
0.00714228
1.27991
0.00869256
1.28143
0.0111427
1.28274
0.0118004
1.28377
0.013988
1.28445
0.0123161
1.28467
0.0120909
1.28435
0.0063463
1.28345
-2.32787e-05
1.2818
-0.0111565
1.2795
-0.0276774
1.27632
-0.0438881
1.27239
-0.0706702
1.26748
-0.0867101
1.26142
-0.11233
1.25433
-0.119613
1.24587
-0.122943
1.23695
-0.117214
1.22764
-0.0861547
1.21912
-0.0724566
1.21229
-0.0267415
1.20685
-0.00849955
1.20417
0.0172076
1.20318
0.0324433
1.20279
0.0505795
1.20397
0.0275116
1.20572
0.0765205
1.20581
0.0360849
1.20978
0.038559
1.21121
0.0961923
1.21202
0.0148064
1.21703
0.0641859
1.21876
0.0906431
1.22077
0.0502459
1.22507
0.0595662
0.0902444
1.38654
0.00218626
-1.38503
1.38804
0.00378762
1.3895
0.00568792
1.39087
0.00731797
1.39213
0.00988058
1.39323
0.0106986
1.39414
0.0130801
1.39478
0.0116733
1.39511
0.0117615
1.39504
0.00642023
1.39454
0.000476751
1.39341
-0.0100229
1.39169
-0.0259566
1.38906
-0.041266
1.38543
-0.0670341
1.38041
-0.0816975
1.37371
-0.105621
1.36544
-0.111343
1.35534
-0.112843
1.3447
-0.106574
1.334
-0.0754612
1.3245
-0.0629549
1.31771
-0.0199537
1.31284
-0.00362993
1.31071
0.0193417
1.31022
0.0329336
1.31054
0.0502625
1.31248
0.0255699
1.31497
0.0740306
1.31583
0.0352201
1.32043
0.0339631
1.32241
0.0942081
1.32397
0.0132443
1.32977
0.0583916
1.33211
0.0882977
1.33453
0.0478288
1.33957
0.0545276
0.0844419
1.50881
0.00100348
-1.50763
1.50998
0.0026154
1.51114
0.00453264
1.51225
0.00620785
1.5133
0.00882818
1.51425
0.00974765
1.51508
0.0122492
1.51572
0.011042
1.51612
0.0113575
1.51618
0.00636102
1.51582
0.000832793
1.51492
-0.00912091
1.51339
-0.0244256
1.51094
-0.0388131
1.50724
-0.0633406
1.502
-0.0764508
1.49472
-0.0983476
1.48552
-0.10214
1.47431
-0.101629
1.46249
-0.0947635
1.45081
-0.0637738
1.44078
-0.0529244
1.43364
-0.0128122
1.42851
0.00149673
1.42705
0.0208048
1.42757
0.0324058
1.42899
0.0488455
1.43157
0.0229923
1.43529
0.0703128
1.4363
0.034201
1.44191
0.0283593
1.44548
0.0906357
1.44646
0.0122622
1.45324
0.0516163
1.45633
0.0852103
1.45888
0.0452789
1.46438
0.0490251
0.0783912
1.64115
0.000283601
-1.64043
1.64194
0.00181956
1.64282
0.00365514
1.64378
0.00524592
1.64485
0.00775833
1.64598
0.00862132
1.6472
0.0110316
1.64834
0.00989382
1.64945
0.0102511
1.65021
0.00559875
1.65053
0.000510183
1.64996
-0.00854926
1.64824
-0.022698
1.64487
-0.0354457
1.63919
-0.057663
1.63108
-0.0683432
1.62012
-0.0873813
1.60725
-0.0892694
1.59285
-0.0872313
1.57882
-0.0807328
1.56656
-0.0515202
1.55671
-0.0430695
1.55155
-0.00765683
1.54874
0.00431009
1.54942
0.0201208
1.55183
0.0300039
1.55508
0.0455941
1.55905
0.0190246
1.56453
0.0648315
1.56672
0.0320059
1.57287
0.02221
1.57819
0.08532
1.57979
0.0106591
1.58735
0.0440584
1.59203
0.0805293
1.59491
0.0423967
1.60104
0.0428941
0.0703201
1.78537
9.20237e-05
-1.78518
1.78573
0.00146497
1.78631
0.00307317
1.78715
0.00440906
1.7883
0.00660931
1.78973
0.00718306
1.79151
0.00925757
1.79339
0.00801299
1.79542
0.00822362
1.79703
0.00398269
1.79809
-0.000543281
1.79796
-0.00842317
1.79603
-0.0207687
1.79183
-0.031249
1.78383
-0.0496621
1.77256
-0.0570721
1.75786
-0.0726807
1.74126
-0.0726643
1.72437
-0.0703404
1.70937
-0.0657391
1.69743
-0.0395804
1.68889
-0.0345299
1.68581
-0.00457858
1.68472
0.00540894
1.6871
0.0177382
1.69136
0.0257405
1.69686
0.0400927
1.70128
0.0146042
1.70796
0.0581496
1.71023
0.0297447
1.71744
0.0149981
1.72586
0.0768937
1.72649
0.0100318
1.73493
0.0356207
1.74067
0.0747854
1.74345
0.0396205
1.74999
0.0363554
0.0618541
1.93302
0.00118054
-1.9341
1.93261
0.00186753
1.9331
0.00258229
1.93451
0.00300071
1.93712
0.00399768
1.94064
0.00366442
1.94545
0.00445376
1.95064
0.00282156
1.9566
0.00226637
1.96172
-0.00114357
1.96581
-0.00463405
1.96714
-0.00975128
1.96366
-0.0172888
1.95518
-0.0227648
1.93813
-0.0326173
1.9164
-0.035339
1.88971
-0.0459899
1.86343
-0.0463884
1.84052
-0.0474281
1.82275
-0.0479662
1.81362
-0.0304533
1.80821
-0.0291168
1.81223
-0.00860632
1.81805
-0.000411007
1.82458
0.011217
1.83401
0.0163033
1.8452
0.0289002
1.84952
0.0102878
1.86014
0.0475346
1.86479
0.0250883
1.86938
0.0104143
1.88643
0.059842
1.88685
0.0096129
1.89069
0.0317827
1.90213
0.0633369
1.90572
0.0360346
1.91026
0.0318198
0.0512142
2.10919
0.00201356
-2.11002
2.10898
0.00207499
2.10953
0.00203926
2.11075
0.00178066
2.11304
0.00170077
2.1158
0.000908565
2.11969
0.000560932
2.12343
-0.000912049
2.12766
-0.00196583
2.1307
-0.004185
2.13252
-0.00645796
2.13196
-0.00918417
2.12717
-0.0125046
2.11913
-0.014724
2.10487
-0.0183608
2.08891
-0.0193759
2.06788
-0.0249633
2.04796
-0.0264669
2.02948
-0.028942
2.01268
-0.0311688
2.00555
-0.0233192
1.99915
-0.0227204
2.00174
-0.0111975
2.00767
-0.00633631
2.01435
0.00453534
2.02427
0.00638388
2.0365
0.0166671
2.03849
0.0082968
2.0557
0.0303296
2.06215
0.0186358
2.06072
0.0118474
2.08299
0.0375667
2.08082
0.0117819
2.08315
0.0294561
2.10331
0.043177
2.10937
0.0299727
2.11176
0.0294306
0.0408723
2.31669
0.00141971
-2.3161
2.31734
0.00143172
2.31798
0.00139842
2.31851
0.0012453
2.31908
0.00112986
2.31931
0.000684761
2.3195
0.000371484
2.3191
-0.00051019
2.31838
-0.00125238
2.31684
-0.00264305
2.31446
-0.00408199
2.31121
-0.00593203
2.30692
-0.00821426
2.30244
-0.0102398
2.29731
-0.0132311
2.29271
-0.0147765
2.28538
-0.0176309
2.27709
-0.0181792
2.26669
-0.0185381
2.25401
-0.0184913
2.24504
-0.0143565
2.23583
-0.0135055
2.23138
-0.00674882
2.22993
-0.00488791
2.23198
0.00249049
2.23556
0.00279989
2.2417
0.0105326
2.24361
0.00638326
2.25653
0.0174083
2.26235
0.0128149
2.26364
0.0105547
2.27747
0.0237387
2.27876
0.0104989
2.28685
0.0213607
2.30349
0.0265414
2.31235
0.0211073
2.31972
0.0220581
0.0283884
2.52679
0.000891848
-2.52626
2.52736
0.000854968
2.52797
0.000794712
2.52855
0.000660004
2.52915
0.000527191
2.52959
0.00024404
2.52997
-5.57642e-06
2.52993
-0.000464085
2.52956
-0.000890556
2.52847
-0.00154453
2.52661
-0.0022225
2.52368
-0.00300778
2.5194
-0.00393568
2.51384
-0.00468029
2.50637
-0.00576152
2.49792
-0.00632423
2.48769
-0.00740387
2.47729
-0.00777362
2.46688
-0.00812397
2.45673
-0.00835037
2.4494
-0.00702426
2.44277
-0.0068769
2.44011
-0.00408991
2.43878
-0.00355839
2.44114
0.000133287
2.44386
7.95739e-05
2.45029
0.00410009
2.45396
0.00271619
2.46401
0.00735591
2.47056
0.00626867
2.47546
0.00565877
2.48825
0.0109407
2.49241
0.00634272
2.50268
0.0110884
2.51642
0.0128048
2.526
0.0115265
2.53593
0.0121326
0.0150576
2.7604
-2.75951
2.76126
2.76205
2.76271
2.76324
2.76348
2.76348
2.76302
2.76212
2.76058
2.75836
2.75535
2.75141
2.74673
2.74097
2.73465
2.72724
2.71947
2.71135
2.703
2.69597
2.6891
2.68501
2.68145
2.68158
2.68166
2.68576
2.68848
2.69583
2.7021
2.70776
2.7187
2.72504
2.73613
2.74894
2.76046
2.7726
0.416415
0.0402221
-0.410875
0.421785
0.0682336
0.427088
0.0970887
0.431074
0.124102
0.434076
0.15133
0.437826
0.175072
0.433426
0.201076
0.212832
0.446839
0.0356415
-0.442259
0.451323
0.0637499
0.454908
0.0935035
0.459038
0.119972
0.460244
0.150125
0.463665
0.171651
0.464801
0.19994
0.214559
0.482373
0.0321382
-0.47887
0.486009
0.0601142
0.488822
0.0906907
0.492124
0.11667
0.495198
0.147051
0.49803
0.168819
0.502407
0.195563
0.21422
0.521659
0.0289422
-0.518463
0.524593
0.0571801
0.528348
0.0869356
0.53179
0.113229
0.53683
0.14201
0.540082
0.165567
0.544344
0.1913
0.212054
0.566318
0.0259145
-0.563291
0.569243
0.0542558
0.573505
0.0826735
0.576961
0.109772
0.581712
0.13726
0.585023
0.162256
0.589662
0.186661
0.207964
0.615595
0.0230404
-0.612721
0.618469
0.0513817
0.622412
0.0787308
0.62601
0.106175
0.630825
0.132445
0.635621
0.15746
0.641496
0.180786
0.202707
0.669779
0.0205061
-0.667245
0.672809
0.0483515
0.67676
0.0747805
0.681112
0.101822
0.686523
0.127034
0.692138
0.151844
0.698373
0.174551
0.196503
0.729506
0.0180895
-0.72709
0.732734
0.0451231
0.736782
0.0707334
0.741526
0.0970779
0.747061
0.121499
0.753105
0.1458
0.759911
0.167745
0.189265
0.794951
0.0157793
-0.792641
0.798235
0.0418389
0.802325
0.0666438
0.807317
0.0920854
0.813139
0.115678
0.819756
0.139182
0.827133
0.160368
0.181286
0.866463
0.0135552
-0.864239
0.869766
0.0385362
0.873952
0.0624574
0.879186
0.0868521
0.885294
0.10957
0.892323
0.132153
0.90013
0.152562
0.172691
0.944527
0.0114427
-0.942415
0.94781
0.0352535
0.952077
0.0581905
0.957482
0.0814463
0.963833
0.103219
0.971212
0.124773
0.979439
0.144335
0.16355
1.02965
0.00945267
-1.02766
1.03289
0.0320098
1.03723
0.0538489
1.04279
0.0758876
1.04939
0.096624
1.0571
0.117064
1.06573
0.135702
0.153914
1.12241
0.00759727
-1.12056
1.12561
0.0288154
1.13002
0.0494395
1.13573
0.0701785
1.14258
0.0897747
1.15062
0.10902
1.15968
0.126647