/*--------------------------------*- C++ -*----------------------------------*\
| =========                 |                                                 |
| \\      /  F ield         | OpenFOAM: The Open Source CFD Toolbox           |
|  \\    /   O peration     | Version:  2312                                  |
|   \\  /    A nd           | Website:  www.openfoam.com                      |
|    \\/     M anipulation  |                                                 |
\*---------------------------------------------------------------------------*/
FoamFile
{
    version     2.0;
    format      ascii;
    arch        "LSB;label=32;scalar=64";
    class       volScalarField;
    location    "8.5";
    object      p;
}
// * * * * * * * * * * * * * * * * * * * * * * * * * * * * * * * * * * * * * //

dimensions      [0 2 -2 0 0 0 0];

internalField   nonuniform List<scalar> 
940
(
-0.417083
-0.370888
-0.374459
-0.374043
-0.334934
-0.247171
-0.40264
-0.367359
-0.330289
-0.292812
-0.250079
-0.198874
-0.412622
-0.327767
-0.277886
-0.217444
-0.180247
-0.133363
-0.305983
-0.389541
-0.472918
-0.493993
-0.433913
-0.274654
-0.473265
-0.503982
-0.571444
-0.610856
-0.562805
-0.382204
-0.40734
-0.383848
-0.457956
-0.501072
-0.481713
-0.352894
-0.129929
-0.0272174
0.043325
0.0663744
0.0618791
0.0484136
0.0359145
0.0261554
0.0195905
0.0150198
0.0118935
0.00966324
0.00799598
0.00625785
0.00450155
0.00198198
-0.235185
-0.11337
-0.00902998
0.0415458
0.0531209
0.0465677
0.0360294
0.0266841
0.020229
0.0157314
0.0125695
0.0102794
0.00847487
0.00664119
0.00471629
0.00194675
-0.256518
-0.168344
-0.085267
-0.0210888
0.0132655
0.0268234
0.02855
0.0253756
0.0210009
0.0173754
0.0136529
0.0110817
0.0090285
0.00708273
0.00497647
0.00201235
-0.188382
-0.153964
-0.0869777
-0.0339515
-0.00206485
0.0150465
0.0216676
0.0219652
0.0195542
0.0163122
0.0138459
0.0114753
0.00943129
0.00740158
0.00518928
0.00217471
-0.130194
-0.112666
-0.0661395
-0.0263791
-0.00095178
0.0125193
0.0183356
0.0196126
0.0185712
0.0163081
0.0140235
0.0117744
0.00975465
0.00765193
0.00536032
0.0022741
-0.0877605
-0.0869056
-0.0624312
-0.0346645
-0.0118261
0.00299292
0.0112
0.0151135
0.0161893
0.015411
0.0136096
0.0117453
0.009825
0.00777131
0.00540374
0.00229732
-0.0458881
-0.0482484
-0.0367221
-0.0193017
-0.00356215
0.00725629
0.0125446
0.0151637
0.0163427
0.0157957
0.0145877
0.0126733
0.0107351
0.0084788
0.0060419
0.00253216
-0.0201568
-0.0263379
-0.0239929
-0.0160882
-0.006526
0.00223711
0.00748672
0.0106076
0.0129618
0.0140161
0.0130179
0.0116832
0.00993012
0.00790806
0.00535975
0.00222878
0.00560823
0.000561483
-0.000227512
0.00197732
0.00621317
0.0113352
0.0142007
0.0151397
0.0159278
0.0160744
0.0155456
0.0139868
0.0120712
0.00977996
0.00706619
0.00296518
0.0161334
0.010675
0.00825771
0.00811313
0.00958468
0.0120357
0.0129745
0.0128687
0.0134162
0.0140186
0.0129872
0.0117024
0.0098696
0.00791637
0.00523373
0.00197265
0.0346363
0.0302524
0.0273021
0.0249732
0.0232198
0.0232579
0.0228567
0.0211121
0.019548
0.0184486
0.0172741
0.0157831
0.0132869
0.0112673
0.00780308
0.00302846
0.0377456
0.0340277
0.0309036
0.0280752
0.025866
0.0249907
0.0233875
0.0207159
0.0185465
0.0170767
0.0149856
0.0132366
0.0105378
0.00888645
0.00527677
0.00198304
0.0489556
0.0451932
0.0414375
0.0377216
0.0345443
0.0326801
0.0303597
0.0270839
0.0237339
0.0217158
0.0185104
0.0173204
0.0126638
0.012098
0.00677125
0.00255461
-0.100498
-0.141058
-0.166601
-0.0712087
-0.0848308
-0.105136
-0.042742
-0.0487063
-0.0661384
-0.0201637
-0.0253847
-0.0341353
-0.00131308
-0.00507218
-0.00947094
0.0150039
0.0123797
0.0110972
0.026476
0.0235937
0.0218996
0.0405882
0.0384612
0.0378083
0.046221
0.0422382
0.0403621
0.0567389
0.053357
0.0515358
0.0649413
0.0632802
0.0559119
0.0263636
0.00685986
-0.181274
0.00266115
-0.019456
-0.0390015
-0.109443
-0.146521
-0.399315
-0.0727017
-0.111843
-0.139799
-0.215302
-0.267476
-0.457928
0.208588
0.248996
0.300887
0.365283
0.434963
0.492621
0.187741
0.217946
0.257869
0.302469
0.343426
0.352844
0.126588
0.144643
0.167449
0.183114
0.19102
0.105221
0.0426461
0.0442497
0.0497535
0.0529638
0.0707335
0.0729729
0.0993932
0.115433
0.14222
0.174037
0.0490981
0.0495113
0.0549987
0.0568462
0.0725738
0.0761887
0.0969539
0.112828
0.138989
0.162892
0.055318
0.0544646
0.0593447
0.0617402
0.0755758
0.0831006
0.100893
0.114473
0.128938
0.130372
0.060949
0.0590601
0.0633855
0.0645015
0.0748149
0.0827294
0.0903894
0.0988942
0.0933231
0.0862019
0.066663
0.0634419
0.0666461
0.0672762
0.0728606
0.0812164
0.0800414
0.0856557
0.0767654
0.0661118
0.0737765
0.0686986
0.0706802
0.0691451
0.0722644
0.0770216
0.0719325
0.0712188
0.0618362
0.0484243
0.0826402
0.0754765
0.0758249
0.0730235
0.0714945
0.0739641
0.0663843
0.0596408
0.0519649
0.0413704
0.094138
0.0830139
0.0805182
0.0730172
0.0706407
0.0700963
0.0603683
0.0528523
0.0461199
0.0375138
0.109317
0.0952089
0.0900844
0.0814304
0.0746242
0.0713351
0.0616223
0.0533048
0.0473289
0.0410902
0.128653
0.104736
0.0950882
0.0832086
0.07565
0.0714421
0.0617506
0.0540654
0.049487
0.0452218
0.166249
0.130953
0.11422
0.098911
0.0879534
0.0811867
0.071698
0.0640721
0.0596174
0.055929
0.19376
0.139337
0.117623
0.103294
0.091765
0.0842729
0.075805
0.0683917
0.0639872
0.0612701
0.343515
0.189311
0.157787
0.131894
0.113419
0.101251
0.0906662
0.0820885
0.0766701
0.072994
0.0597402
0.00202335
-0.059954
0.0442818
-0.00398134
-0.0457061
0.0316569
0.00206165
-0.0254646
0.026671
0.00580098
-0.00932725
0.0254103
0.0116248
0.00458564
0.0317716
0.022082
0.0184922
0.0382747
0.0313605
0.0292125
0.0502917
0.0443487
0.0425409
0.0570285
0.051587
0.0491781
0.0684469
0.0631545
0.0599556
-0.412383
-0.411528
-0.41609
-0.363091
-0.374522
-0.345179
-0.38331
-0.34055
-0.296358
-0.393098
-0.310961
-0.239697
-0.362013
-0.273314
-0.203787
-0.271646
-0.223925
-0.160354
-0.306614
-0.473499
-0.418469
-0.389644
-0.50495
-0.393959
-0.475194
-0.577236
-0.470487
-0.500858
-0.632584
-0.525641
-0.442434
-0.597644
-0.518099
-0.281657
-0.404533
-0.380651
-0.137876
-0.255379
-0.279576
-0.0306938
-0.129756
-0.187092
0.0409267
-0.0182986
-0.0997387
0.0637176
0.0332032
-0.0332618
0.0586753
0.0442439
0.000955049
0.0447972
0.0386784
0.0151873
0.032151
0.0293996
0.0185421
0.0238099
0.0217238
0.0169712
0.01781
0.016016
0.0140345
0.0137088
0.0122559
0.0111717
0.0109277
0.00985506
0.00906994
0.00890781
0.00812802
0.00747801
0.00745227
0.00693171
0.00644244
0.00584524
0.00547107
0.00510063
0.00426924
0.00408614
0.00387854
0.00202962
0.0020692
0.00200562
-0.213346
-0.151491
-0.111391
-0.0764558
-0.0534299
-0.0430814
-0.0323341
-0.0347518
-0.0289074
-0.0340217
-0.174678
-0.13228
-0.107951
-0.0760436
-0.0551758
-0.0434997
-0.0308644
-0.0330189
-0.0270762
-0.031865
-0.103793
-0.0850092
-0.0837805
-0.0645308
-0.0521841
-0.0422463
-0.0300549
-0.0317849
-0.0256112
-0.0297454
-0.048396
-0.0439591
-0.0543563
-0.0451685
-0.0419981
-0.036514
-0.0277474
-0.029407
-0.0236206
-0.0273097
-0.0158892
-0.0185312
-0.0305018
-0.0280203
-0.0305123
-0.0292767
-0.0245071
-0.0265298
-0.0218716
-0.025354
0.00170838
-0.00444072
-0.0155521
-0.0176331
-0.0221162
-0.0240443
-0.0217542
-0.0247683
-0.0208588
-0.0241706
0.00959359
0.00342615
-0.00525849
-0.0100033
-0.0148586
-0.0188798
-0.0176254
-0.0221532
-0.0185266
-0.0221259
0.0115406
0.00690181
0.0010721
-0.00387437
-0.00798367
-0.0132382
-0.0127245
-0.018306
-0.0151443
-0.0191135
0.0107104
0.00754141
0.00371922
-0.000502773
-0.00347949
-0.00896034
-0.00875478
-0.0147365
-0.0120145
-0.0159558
0.0090906
0.00699114
0.00450374
0.00111129
-0.000852992
-0.00602018
-0.00568168
-0.0118374
-0.00933917
-0.013474
0.00772801
0.00634651
0.00472965
0.00216149
0.00101993
-0.00353848
-0.00282346
-0.00877071
-0.0062512
-0.0100181
0.00660012
0.00568555
0.00461478
0.00272355
0.00217023
-0.00174037
-0.000659884
-0.0064207
-0.00385946
-0.00821417
0.00583104
0.00521576
0.00449753
0.00312415
0.00304641
-0.000182564
0.00138516
-0.00351285
-0.000722201
-0.00368056
0.00472119
0.00433407
0.00384442
0.00290851
0.00302653
0.000346015
0.00207343
-0.00266561
0.000294231
-0.00353071
0.00367278
0.00344753
0.00316811
0.00253792
0.00306475
0.000902019
0.00302275
-0.000211835
0.00222184
0.000986836
0.00190439
0.00180907
0.00168993
0.00152481
0.0017345
0.000842373
0.0021422
0.000414188
0.00251779
0.00101777
-0.127805
-0.101028
-0.0755879
-0.0589351
-0.0455106
-0.0382961
-0.0325679
-0.0342105
-0.0319818
-0.0367354
-0.167421
-0.11354
-0.0800679
-0.0612115
-0.0461568
-0.038405
-0.0319785
-0.0339885
-0.0302309
-0.0354951
-0.188819
-0.130602
-0.0959628
-0.0692494
-0.0494773
-0.0411572
-0.0330748
-0.0353983
-0.0300915
-0.0354037
0.0292784
-0.0338725
-0.106461
0.0256774
-0.0575574
-0.142448
0.0177798
-0.0756125
-0.171944
-0.021035
-0.153955
-0.243785
-0.0403332
-0.189245
-0.296097
-0.249264
-0.444247
-0.470764
0.200534
0.166647
0.0945185
0.240659
0.194971
0.112691
0.292334
0.232682
0.132317
0.355211
0.272744
0.141177
0.42119
0.306346
0.14212
0.4722
0.301653
0.0298382
0.0360275
0.029328
0.0225989
0.0387733
0.0333522
0.0280808
0.0443598
0.0379314
0.0328167
0.0488445
0.0443754
0.0422085
0.066804
0.0599426
0.0548118
0.068206
0.0620967
0.0600732
0.0951336
0.0848514
0.0811719
0.109419
0.0986468
0.0872311
0.136719
0.123387
0.102405
0.167486
0.144242
0.101532
0.0164455
0.0101868
0.00225221
-0.00774675
-0.0207609
-0.0375138
-0.0584301
-0.0959163
-0.118866
-0.255151
0.0228539
0.0178425
0.0112474
0.00257492
-0.00804467
-0.0241419
-0.0380004
-0.0681767
-0.0813431
-0.124919
0.0269281
0.0208699
0.0132215
0.00331131
-0.00727309
-0.0233066
-0.0310075
-0.0587988
-0.0683361
-0.104857
0.0375262
0.03268
0.0260166
0.0171153
0.00608914
-0.00888265
-0.0223001
-0.0443729
-0.0566183
-0.0823302
0.0474439
0.0382224
0.0296271
0.0176759
0.00579536
-0.00858295
-0.0207504
-0.038905
-0.0487179
-0.0673248
0.0515578
0.0437919
0.0330463
0.0189983
0.00495648
-0.0102051
-0.0221976
-0.0372017
-0.0450152
-0.0588421
0.0652616
0.0491875
0.033902
0.0192313
0.00511126
-0.00909307
-0.0198846
-0.0333933
-0.0405575
-0.0521326
0.0692515
0.049766
0.0310464
0.013322
0.000241685
-0.012029
-0.0203672
-0.0319962
-0.0374319
-0.0476027
0.0644228
0.0399495
0.0216962
0.00402472
-0.00718067
-0.017602
-0.0235704
-0.0330212
-0.0367173
-0.0454029
0.0541645
0.0300793
0.0103993
-0.00498336
-0.0137354
-0.0220697
-0.0260745
-0.0335121
-0.0365008
-0.0437621
0.0246627
0.00820107
-0.00355495
-0.0140665
-0.019144
-0.0245754
-0.0262775
-0.0323207
-0.0347542
-0.0412857
-0.0310066
-0.0390162
-0.0332374
-0.0336791
-0.0295749
-0.0295247
-0.0278927
-0.0322351
-0.0329989
-0.0391524
-0.0910748
-0.0797778
-0.0610653
-0.0514666
-0.041023
-0.0364234
-0.032065
-0.0342582
-0.0332699
-0.0383129
)
;

boundaryField
{
    outlet
    {
        type            fixedValue;
        value           uniform 0;
    }
    upperWall
    {
        type            symmetryPlane;
    }
    lowerWall
    {
        type            symmetryPlane;
    }
    inlet
    {
        type            zeroGradient;
    }
    cylinder
    {
        type            zeroGradient;
    }
    frontAndBack
    {
        type            empty;
    }
}


// ************************************************************************* //
