/*--------------------------------*- C++ -*----------------------------------*\
| =========                 |                                                 |
| \\      /  F ield         | OpenFOAM: The Open Source CFD Toolbox           |
|  \\    /   O peration     | Version:  2312                                  |
|   \\  /    A nd           | Website:  www.openfoam.com                      |
|    \\/     M anipulation  |                                                 |
\*---------------------------------------------------------------------------*/
FoamFile
{
    version     2.0;
    format      ascii;
    arch        "LSB;label=32;scalar=64";
    class       volScalarField;
    location    "56.5";
    object      p;
}
// * * * * * * * * * * * * * * * * * * * * * * * * * * * * * * * * * * * * * //

dimensions      [0 2 -2 0 0 0 0];

internalField   nonuniform List<scalar> 
32230
(
-0.479684
-0.479623
-0.478703
-0.477061
-0.474857
-0.472242
-0.469411
-0.466589
-0.464001
-0.461855
-0.460322
-0.459513
-0.45947
-0.460156
-0.461445
-0.463131
-0.464934
-0.466524
-0.467547
-0.467662
-0.466572
-0.464054
-0.459975
-0.454293
-0.447051
-0.43835
-0.428329
-0.417137
-0.404923
-0.391819
-0.377944
-0.363375
-0.34822
-0.332351
-0.316
-0.297834
-0.278637
-0.482398
-0.482341
-0.481415
-0.479786
-0.477625
-0.47508
-0.472329
-0.469575
-0.467011
-0.464814
-0.463115
-0.461983
-0.461415
-0.461324
-0.461545
-0.46184
-0.461929
-0.46151
-0.460298
-0.458052
-0.454603
-0.449859
-0.443803
-0.436482
-0.427986
-0.418425
-0.407913
-0.396557
-0.384451
-0.371675
-0.358299
-0.344367
-0.329919
-0.314929
-0.299435
-0.283084
-0.266671
-0.486218
-0.486042
-0.485039
-0.483384
-0.481246
-0.478765
-0.476098
-0.47341
-0.470861
-0.468578
-0.466644
-0.465076
-0.463819
-0.462743
-0.461661
-0.460339
-0.458536
-0.456023
-0.452621
-0.448209
-0.442732
-0.436197
-0.428654
-0.420181
-0.410864
-0.40079
-0.390036
-0.378671
-0.366755
-0.354338
-0.341471
-0.32818
-0.314528
-0.300471
-0.286168
-0.27131
-0.256337
-0.491113
-0.490705
-0.489542
-0.48781
-0.485649
-0.483192
-0.480568
-0.477904
-0.475308
-0.47285
-0.470554
-0.468379
-0.466225
-0.46394
-0.461343
-0.458246
-0.454484
-0.449934
-0.444526
-0.438245
-0.431118
-0.423202
-0.414567
-0.405286
-0.395423
-0.385037
-0.374175
-0.362882
-0.351195
-0.339151
-0.326786
-0.314133
-0.301238
-0.288113
-0.274902
-0.261374
-0.248107
-0.497016
-0.496273
-0.494888
-0.493001
-0.49075
-0.48825
-0.4856
-0.482878
-0.480133
-0.477369
-0.474544
-0.471565
-0.468305
-0.464619
-0.460372
-0.455456
-0.449807
-0.443408
-0.436281
-0.42848
-0.420072
-0.411126
-0.401705
-0.39186
-0.381633
-0.371057
-0.360162
-0.348973
-0.337517
-0.32582
-0.313915
-0.301832
-0.289617
-0.277289
-0.264961
-0.252465
-0.240199
-0.503874
-0.502712
-0.501027
-0.498916
-0.496498
-0.493876
-0.491113
-0.488228
-0.4852
-0.481961
-0.478405
-0.474407
-0.469842
-0.464612
-0.458661
-0.451981
-0.444608
-0.436608
-0.428064
-0.419059
-0.409666
-0.399945
-0.38994
-0.379681
-0.369191
-0.358487
-0.347587
-0.336506
-0.325264
-0.313882
-0.302386
-0.290803
-0.279171
-0.267509
-0.255909
-0.244229
-0.232836
-0.511646
-0.510011
-0.507959
-0.505557
-0.502901
-0.500076
-0.497099
-0.49392
-0.490437
-0.486513
-0.481997
-0.476761
-0.470726
-0.463874
-0.456249
-0.447939
-0.439057
-0.429721
-0.420035
-0.410085
-0.399932
-0.389617
-0.379165
-0.368591
-0.357905
-0.347113
-0.336225
-0.32525
-0.314202
-0.303097
-0.291954
-0.280797
-0.269654
-0.258542
-0.247525
-0.236493
-0.225756
-0.520343
-0.518185
-0.515719
-0.512974
-0.510018
-0.506906
-0.503595
-0.499955
-0.495803
-0.490945
-0.485223
-0.478551
-0.470932
-0.462451
-0.453246
-0.44348
-0.43331
-0.422871
-0.412265
-0.401562
-0.390804
-0.380015
-0.369204
-0.358376
-0.347531
-0.33667
-0.325796
-0.314915
-0.304036
-0.293169
-0.28233
-0.271534
-0.260802
-0.250148
-0.239615
-0.229122
-0.218931
-0.530005
-0.527283
-0.524368
-0.521242
-0.517928
-0.514434
-0.510639
-0.506326
-0.501246
-0.495184
-0.48802
-0.479756
-0.470502
-0.460442
-0.449789
-0.438748
-0.427488
-0.416135
-0.404774
-0.393453
-0.382198
-0.371016
-0.359906
-0.348865
-0.337887
-0.32697
-0.316112
-0.305316
-0.294584
-0.283924
-0.273345
-0.262857
-0.252473
-0.242204
-0.232076
-0.222032
-0.212284
-0.540679
-0.537356
-0.533968
-0.530432
-0.526697
-0.5227
-0.51823
-0.512988
-0.50669
-0.499152
-0.490347
-0.480391
-0.469506
-0.457957
-0.445999
-0.433846
-0.421654
-0.409529
-0.39753
-0.385685
-0.374003
-0.362482
-0.351112
-0.339886
-0.328793
-0.317827
-0.306983
-0.296259
-0.285655
-0.275174
-0.264819
-0.254595
-0.24451
-0.234571
-0.22479
-0.215131
-0.20576
-0.552399
-0.548442
-0.544565
-0.540587
-0.536348
-0.531691
-0.526307
-0.519842
-0.512028
-0.502772
-0.492176
-0.480487
-0.46802
-0.455088
-0.441958
-0.428827
-0.415825
-0.403028
-0.390472
-0.378167
-0.366109
-0.354287
-0.342687
-0.331297
-0.320102
-0.309093
-0.298263
-0.287604
-0.277114
-0.26679
-0.256631
-0.246639
-0.236814
-0.227161
-0.217683
-0.208359
-0.199309
-0.565158
-0.560543
-0.556163
-0.5517
-0.546845
-0.541323
-0.534744
-0.526742
-0.517128
-0.505957
-0.493482
-0.480068
-0.466093
-0.451888
-0.437701
-0.423697
-0.409973
-0.396575
-0.383517
-0.370797
-0.358399
-0.346305
-0.334498
-0.32296
-0.311675
-0.300629
-0.289812
-0.279212
-0.268824
-0.25864
-0.248656
-0.238869
-0.229276
-0.219876
-0.210667
-0.201641
-0.192871
-0.578896
-0.573611
-0.568713
-0.563702
-0.558078
-0.551441
-0.543352
-0.533498
-0.521842
-0.508618
-0.494231
-0.479136
-0.463742
-0.448364
-0.433212
-0.418414
-0.404032
-0.390084
-0.376568
-0.363466
-0.350757
-0.338416
-0.326422
-0.314752
-0.303388
-0.292312
-0.281509
-0.270967
-0.260673
-0.250619
-0.240795
-0.231196
-0.221813
-0.212643
-0.20368
-0.194923
-0.1864
-0.593492
-0.587538
-0.582104
-0.576453
-0.569861
-0.561816
-0.551887
-0.539895
-0.526008
-0.510654
-0.494371
-0.477666
-0.460943
-0.444479
-0.42844
-0.41291
-0.397918
-0.383461
-0.369519
-0.356066
-0.343072
-0.330507
-0.318344
-0.306559
-0.295127
-0.284029
-0.273246
-0.262761
-0.25256
-0.242629
-0.232957
-0.223533
-0.214348
-0.205392
-0.19666
-0.188152
-0.179857
-0.608754
-0.60215
-0.59615
-0.589734
-0.581933
-0.57216
-0.560073
-0.545705
-0.529465
-0.511968
-0.493845
-0.475617
-0.457655
-0.440185
-0.423323
-0.407113
-0.391554
-0.376623
-0.362288
-0.348512
-0.335259
-0.322493
-0.310183
-0.298299
-0.286815
-0.275706
-0.264951
-0.254528
-0.244421
-0.234612
-0.225087
-0.215833
-0.206836
-0.198087
-0.189577
-0.181306
-0.173231
-0.624418
-0.617199
-0.610592
-0.603249
-0.593963
-0.582137
-0.567615
-0.550706
-0.53207
-0.512475
-0.492601
-0.472951
-0.453841
-0.435439
-0.417814
-0.400971
-0.384885
-0.369517
-0.35482
-0.34075
-0.327265
-0.314323
-0.301887
-0.289925
-0.278405
-0.267298
-0.25658
-0.246228
-0.236219
-0.226534
-0.217156
-0.208068
-0.199255
-0.190706
-0.182412
-0.174365
-0.166508
-0.640152
-0.632361
-0.625084
-0.616614
-0.605545
-0.591367
-0.574201
-0.55467
-0.533667
-0.512066
-0.490554
-0.469587
-0.449417
-0.430154
-0.411821
-0.394391
-0.377819
-0.362049
-0.347024
-0.332692
-0.319003
-0.305911
-0.293373
-0.281353
-0.269814
-0.258726
-0.248058
-0.237784
-0.22788
-0.218324
-0.209095
-0.200174
-0.191543
-0.183189
-0.175104
-0.167267
-0.159618
-0.655563
-0.647243
-0.639203
-0.629376
-0.616225
-0.599435
-0.579477
-0.557302
-0.533995
-0.510491
-0.48745
-0.465261
-0.44411
-0.424049
-0.405061
-0.387093
-0.370077
-0.353944
-0.338629
-0.32407
-0.31021
-0.296997
-0.284385
-0.272331
-0.260795
-0.249742
-0.23914
-0.228959
-0.219172
-0.209754
-0.200681
-0.191932
-0.183488
-0.175334
-0.167455
-0.15982
-0.152378
-0.670231
-0.661439
-0.652544
-0.641122
-0.625593
-0.605941
-0.583052
-0.558202
-0.532636
-0.507309
-0.482826
-0.459498
-0.437438
-0.416645
-0.397062
-0.37861
-0.361202
-0.344758
-0.3292
-0.314458
-0.300469
-0.287176
-0.274525
-0.26247
-0.250968
-0.239979
-0.229468
-0.219403
-0.209752
-0.20049
-0.191591
-0.183032
-0.174792
-0.166853
-0.159198
-0.151783
-0.144584
-0.436156
-0.436229
-0.436007
-0.435757
-0.435836
-0.436496
-0.43788
-0.440051
-0.443035
-0.446845
-0.451497
-0.457014
-0.46342
-0.470739
-0.478985
-0.488156
-0.498227
-0.50914
-0.5208
-0.533069
-0.545758
-0.558629
-0.571394
-0.583724
-0.595256
-0.605613
-0.614409
-0.621276
-0.625732
-0.627453
-0.626136
-0.621532
-0.613467
-0.601863
-0.586777
-0.568357
-0.546791
-0.446491
-0.44609
-0.445676
-0.44538
-0.445525
-0.446348
-0.447994
-0.450531
-0.453985
-0.458374
-0.463722
-0.470058
-0.477416
-0.485828
-0.495317
-0.505887
-0.517515
-0.530131
-0.543632
-0.557868
-0.572632
-0.58766
-0.602636
-0.6172
-0.630955
-0.643484
-0.654363
-0.663197
-0.669664
-0.673035
-0.673072
-0.669481
-0.661998
-0.65044
-0.634739
-0.61492
-0.591075
-0.455875
-0.454999
-0.454369
-0.454024
-0.454198
-0.455135
-0.456984
-0.459809
-0.463638
-0.468492
-0.474394
-0.48138
-0.489487
-0.49875
-0.509193
-0.520827
-0.533654
-0.547536
-0.56239
-0.578058
-0.594319
-0.610892
-0.627444
-0.643594
-0.658923
-0.672985
-0.685293
-0.695323
-0.704115
-0.708446
-0.709459
-0.706676
-0.699691
-0.688185
-0.671944
-0.650902
-0.625003
-0.464081
-0.462742
-0.461886
-0.461457
-0.461618
-0.462609
-0.464576
-0.467584
-0.471662
-0.476828
-0.483106
-0.490532
-0.499139
-0.508963
-0.520017
-0.532286
-0.546023
-0.560643
-0.576317
-0.592851
-0.610009
-0.627499
-0.644982
-0.662071
-0.678348
-0.693375
-0.706706
-0.71791
-0.726642
-0.73211
-0.733982
-0.731833
-0.725217
-0.713727
-0.696995
-0.674921
-0.647078
-0.470952
-0.469185
-0.468102
-0.467554
-0.467647
-0.46861
-0.470591
-0.473657
-0.477835
-0.483141
-0.489596
-0.497231
-0.506079
-0.516173
-0.527532
-0.540158
-0.554041
-0.569039
-0.585056
-0.60192
-0.619398
-0.637205
-0.655
-0.672406
-0.68901
-0.704382
-0.718075
-0.729641
-0.738617
-0.744479
-0.746738
-0.744893
-0.738413
-0.726812
-0.70955
-0.686614
-0.657112
-0.476404
-0.474271
-0.472966
-0.472268
-0.472231
-0.473076
-0.474955
-0.477938
-0.482053
-0.487316
-0.493742
-0.501354
-0.510181
-0.520248
-0.531569
-0.544137
-0.557911
-0.572803
-0.588687
-0.605387
-0.622676
-0.640271
-0.657846
-0.675031
-0.69143
-0.70662
-0.720158
-0.731608
-0.740497
-0.746327
-0.748573
-0.74668
-0.740035
-0.728109
-0.710179
-0.686432
-0.655501
-0.480438
-0.478018
-0.476508
-0.475634
-0.475407
-0.476042
-0.477698
-0.480453
-0.484341
-0.489376
-0.49557
-0.502939
-0.511502
-0.521277
-0.532268
-0.544462
-0.557812
-0.572234
-0.587602
-0.603741
-0.62043
-0.637399
-0.654334
-0.670887
-0.686679
-0.701272
-0.714294
-0.725283
-0.733769
-0.739248
-0.741159
-0.738906
-0.73179
-0.719276
-0.70047
-0.675817
-0.643508
-0.483127
-0.480515
-0.478829
-0.477762
-0.477293
-0.477635
-0.478953
-0.48134
-0.48484
-0.489473
-0.495247
-0.502174
-0.510263
-0.519523
-0.529951
-0.541525
-0.554196
-0.56788
-0.582453
-0.597746
-0.613549
-0.629605
-0.645621
-0.661268
-0.676145
-0.689945
-0.70221
-0.712501
-0.720342
-0.725202
-0.726474
-0.723516
-0.715554
-0.70208
-0.682096
-0.656326
-0.622661
-0.484608
-0.481907
-0.480086
-0.478822
-0.478076
-0.478055
-0.478935
-0.480828
-0.483796
-0.487868
-0.493059
-0.499374
-0.506819
-0.515392
-0.525083
-0.535865
-0.547684
-0.560458
-0.574065
-0.588347
-0.603103
-0.618094
-0.633041
-0.647616
-0.661534
-0.674376
-0.685732
-0.695156
-0.702137
-0.706101
-0.70638
-0.702291
-0.693016
-0.678119
-0.656626
-0.629531
-0.594641
-0.485065
-0.482378
-0.480472
-0.479024
-0.477983
-0.477552
-0.477919
-0.479217
-0.481533
-0.484915
-0.489386
-0.494956
-0.501627
-0.509392
-0.518234
-0.528121
-0.538998
-0.55078
-0.563352
-0.576563
-0.590225
-0.604113
-0.617962
-0.631495
-0.644358
-0.656171
-0.666512
-0.674894
-0.680753
-0.683456
-0.68228
-0.67653
-0.665416
-0.648648
-0.625436
-0.597016
-0.56132
-0.48471
-0.482134
-0.480199
-0.478593
-0.477262
-0.4764
-0.476209
-0.476845
-0.478425
-0.48102
-0.484673
-0.489403
-0.495214
-0.502098
-0.510034
-0.518987
-0.528897
-0.539683
-0.551234
-0.563402
-0.576006
-0.588839
-0.601646
-0.61412
-0.625915
-0.636631
-0.645797
-0.652869
-0.657219
-0.658164
-0.654964
-0.646988
-0.633588
-0.614706
-0.589875
-0.560502
-0.524765
-0.483764
-0.481386
-0.479478
-0.477751
-0.476153
-0.47487
-0.474111
-0.474059
-0.474859
-0.476615
-0.479393
-0.48323
-0.488138
-0.494113
-0.501134
-0.509162
-0.518137
-0.527977
-0.538572
-0.549773
-0.561415
-0.573265
-0.585057
-0.596472
-0.60713
-0.616575
-0.624272
-0.629612
-0.631921
-0.630523
-0.624749
-0.61414
-0.598303
-0.577491
-0.551581
-0.522052
-0.487294
-0.482447
-0.480339
-0.478509
-0.476705
-0.474879
-0.473208
-0.471907
-0.471181
-0.471205
-0.472117
-0.474012
-0.476948
-0.480954
-0.486034
-0.492172
-0.499327
-0.507427
-0.516396
-0.526121
-0.536458
-0.547201
-0.558104
-0.568868
-0.579126
-0.588432
-0.596265
-0.602029
-0.605087
-0.604787
-0.600553
-0.5919
-0.578649
-0.560716
-0.538656
-0.512595
-0.483955
-0.451191
-0.480968
-0.479183
-0.477477
-0.475636
-0.47363
-0.471624
-0.469837
-0.46849
-0.467788
-0.4679
-0.468952
-0.471027
-0.474174
-0.47841
-0.48373
-0.490113
-0.497393
-0.505579
-0.51452
-0.52403
-0.533879
-0.543775
-0.553356
-0.562184
-0.569746
-0.575472
-0.578757
-0.57901
-0.575709
-0.568482
-0.557122
-0.541747
-0.522545
-0.500258
-0.47508
-0.448276
-0.418219
-0.479527
-0.478099
-0.476546
-0.474706
-0.472568
-0.470292
-0.468095
-0.466213
-0.464874
-0.464274
-0.464568
-0.465865
-0.468233
-0.471701
-0.476257
-0.481847
-0.488494
-0.495979
-0.504155
-0.512807
-0.521648
-0.530318
-0.538384
-0.545347
-0.550661
-0.553764
-0.55413
-0.551316
-0.54502
-0.535137
-0.521742
-0.505175
-0.485774
-0.464286
-0.440804
-0.416403
-0.3893
-0.478319
-0.477259
-0.475872
-0.474058
-0.471835
-0.469358
-0.466842
-0.464534
-0.462675
-0.461486
-0.461145
-0.461784
-0.46349
-0.466302
-0.470217
-0.475187
-0.481125
-0.487863
-0.495182
-0.5028
-0.510357
-0.517426
-0.523526
-0.528139
-0.530756
-0.530913
-0.528246
-0.522528
-0.51371
-0.501913
-0.487418
-0.470644
-0.451965
-0.431999
-0.410671
-0.388879
-0.364612
-0.477541
-0.476831
-0.475606
-0.473833
-0.471566
-0.468957
-0.46622
-0.463604
-0.461363
-0.459729
-0.458898
-0.459017
-0.460183
-0.462439
-0.465772
-0.47011
-0.475315
-0.48118
-0.487423
-0.493692
-0.499571
-0.5046
-0.5083
-0.510212
-0.509939
-0.507186
-0.50179
-0.493738
-0.483164
-0.470313
-0.455535
-0.4392
-0.421683
-0.403431
-0.384364
-0.365239
-0.343663
-0.47739
-0.476984
-0.475901
-0.474174
-0.471896
-0.469221
-0.46636
-0.463559
-0.461074
-0.45914
-0.457959
-0.457683
-0.458406
-0.460158
-0.462904
-0.466531
-0.470852
-0.475602
-0.480444
-0.484981
-0.488783
-0.491412
-0.492462
-0.491598
-0.488584
-0.483309
-0.475782
-0.466127
-0.454555
-0.441317
-0.426715
-0.411001
-0.39452
-0.37753
-0.360266
-0.343403
-0.32464
-0.478055
-0.477876
-0.476899
-0.475213
-0.472956
-0.470276
-0.467381
-0.464508
-0.461905
-0.459802
-0.458391
-0.457814
-0.458147
-0.459394
-0.46148
-0.464246
-0.467453
-0.470787
-0.473882
-0.47634
-0.47777
-0.477818
-0.476205
-0.47275
-0.467377
-0.460117
-0.451079
-0.440434
-0.42838
-0.415114
-0.400839
-0.385695
-0.369915
-0.353487
-0.336887
-0.320283
-0.303656
-0.518538
-0.482011
-0.444209
-0.406907
-0.372195
-0.341671
-0.31746
-0.300139
-0.290599
-0.289337
-0.29615
-0.309732
-0.327542
-0.34642
-0.363387
-0.376064
-0.382406
-0.380437
-0.367708
-0.343037
-0.308213
-0.268183
-0.228907
-0.194873
-0.168137
-0.14887
-0.136324
-0.12951
-0.127623
-0.130164
-0.136929
-0.148283
-0.16541
-0.189555
-0.220011
-0.252451
-0.279532
-0.293682
-0.290052
-0.269716
-0.237906
-0.202309
-0.169453
-0.142753
-0.122778
-0.108901
-0.100597
-0.0975483
-0.0995519
-0.107139
-0.122312
-0.147843
-0.18429
-0.225874
-0.26007
-0.272832
-0.26278
-0.231021
-0.192778
-0.16146
-0.142297
-0.134975
-0.140029
-0.159201
-0.191363
-0.229828
-0.263189
-0.27988
-0.273815
-0.248752
-0.214229
-0.179639
-0.150378
-0.128416
-0.113657
-0.105015
-0.100813
-0.0989866
-0.096624
-0.0915659
-0.0831399
-0.0726231
-0.0616635
-0.0516722
-0.0432891
-0.0362257
-0.0302844
-0.024656
-0.0191799
-0.0141162
-0.00841701
-0.00418971
-0.000222943
-0.560013
-0.518207
-0.4746
-0.431298
-0.390637
-0.354563
-0.324643
-0.301797
-0.286798
-0.280245
-0.282204
-0.291941
-0.307549
-0.325964
-0.343782
-0.358002
-0.365909
-0.365412
-0.35407
-0.331043
-0.298128
-0.260053
-0.222567
-0.19011
-0.164806
-0.146932
-0.135791
-0.130425
-0.130079
-0.134288
-0.142898
-0.156426
-0.176261
-0.203645
-0.237537
-0.273016
-0.302237
-0.317294
-0.31305
-0.290881
-0.256146
-0.217203
-0.181198
-0.15191
-0.129983
-0.114658
-0.105233
-0.101288
-0.102549
-0.109478
-0.124023
-0.148925
-0.184797
-0.2261
-0.260476
-0.273187
-0.26364
-0.231975
-0.194128
-0.163391
-0.144865
-0.138284
-0.14428
-0.164683
-0.198457
-0.238809
-0.273884
-0.291553
-0.28499
-0.257938
-0.220166
-0.181837
-0.148952
-0.123731
-0.106139
-0.0951254
-0.0890665
-0.0860437
-0.0833888
-0.0790864
-0.0722789
-0.0638539
-0.0549954
-0.0469285
-0.040177
-0.0344605
-0.0295696
-0.0247334
-0.0197679
-0.014914
-0.00917834
-0.00462243
-0.000334627
-0.591406
-0.545314
-0.496279
-0.447392
-0.401149
-0.35971
-0.324616
-0.296862
-0.277077
-0.265732
-0.263175
-0.268943
-0.281715
-0.298962
-0.317138
-0.332745
-0.342742
-0.343715
-0.334123
-0.313131
-0.28263
-0.247151
-0.212161
-0.181929
-0.1586
-0.142544
-0.133118
-0.129412
-0.130732
-0.136661
-0.147115
-0.162754
-0.18511
-0.215334
-0.252009
-0.289842
-0.320855
-0.337054
-0.33296
-0.30956
-0.272495
-0.23066
-0.191812
-0.160107
-0.136307
-0.119553
-0.108986
-0.104085
-0.104511
-0.110623
-0.124251
-0.148063
-0.182708
-0.223053
-0.257459
-0.274627
-0.261516
-0.23029
-0.193321
-0.163519
-0.145844
-0.140105
-0.147036
-0.168574
-0.203778
-0.245735
-0.282336
-0.301094
-0.294443
-0.265889
-0.225295
-0.183533
-0.147275
-0.119032
-0.0988308
-0.0856705
-0.0779672
-0.0739211
-0.071055
-0.0674592
-0.0621067
-0.0555501
-0.0485876
-0.0422986
-0.0371033
-0.0327034
-0.0288699
-0.0248614
-0.0204417
-0.0158034
-0.0100227
-0.00512115
-0.000466448
-0.6113
-0.56263
-0.509629
-0.456025
-0.404762
-0.358344
-0.318558
-0.286399
-0.26234
-0.246661
-0.239663
-0.241361
-0.25073
-0.26584
-0.28349
-0.299855
-0.311394
-0.314694
-0.307556
-0.289365
-0.262048
-0.229903
-0.198057
-0.170593
-0.14968
-0.135769
-0.128269
-0.126322
-0.129313
-0.136901
-0.149057
-0.166543
-0.190946
-0.223335
-0.262112
-0.301872
-0.33462
-0.35223
-0.348929
-0.325107
-0.286424
-0.242266
-0.200996
-0.167149
-0.14163
-0.123523
-0.11183
-0.105934
-0.10544
-0.110586
-0.123041
-0.145365
-0.178282
-0.217102
-0.250835
-0.267305
-0.256077
-0.226126
-0.190534
-0.161975
-0.145291
-0.140408
-0.148184
-0.170662
-0.207001
-0.250294
-0.288353
-0.308324
-0.301964
-0.272414
-0.229485
-0.184666
-0.145332
-0.114334
-0.0917633
-0.0766775
-0.0675277
-0.0626089
-0.05959
-0.0566479
-0.0525956
-0.0476953
-0.042437
-0.0377883
-0.0340747
-0.0309597
-0.0281923
-0.0250488
-0.0212113
-0.0167962
-0.0109599
-0.00569512
-0.000624483
-0.619598
-0.56947
-0.514357
-0.457492
-0.402399
-0.352036
-0.308311
-0.272262
-0.24434
-0.224672
-0.213365
-0.210587
-0.215962
-0.227935
-0.243927
-0.260182
-0.272962
-0.27864
-0.274392
-0.25981
-0.236549
-0.208513
-0.180449
-0.156256
-0.138124
-0.126581
-0.121109
-0.120927
-0.125529
-0.134625
-0.148236
-0.167179
-0.193067
-0.22697
-0.267268
-0.308562
-0.342912
-0.36218
-0.360386
-0.337113
-0.297677
-0.251855
-0.208636
-0.172961
-0.145911
-0.12655
-0.113763
-0.10685
-0.105368
-0.10943
-0.120512
-0.141023
-0.171766
-0.208557
-0.241153
-0.257269
-0.247835
-0.219752
-0.185972
-0.158884
-0.143249
-0.139163
-0.147622
-0.170762
-0.207917
-0.252347
-0.291799
-0.313064
-0.307402
-0.277404
-0.232681
-0.185223
-0.143135
-0.109657
-0.0849561
-0.0681549
-0.0577401
-0.0520847
-0.0489616
-0.0466118
-0.0437104
-0.0402663
-0.0365343
-0.0333976
-0.0310925
-0.0292308
-0.0275417
-0.0253023
-0.0220847
-0.0179029
-0.0119989
-0.00635238
-0.000814391
-0.616473
-0.565407
-0.509956
-0.45196
-0.394891
-0.342125
-0.29569
-0.256609
-0.225341
-0.202003
-0.186618
-0.179241
-0.179895
-0.187716
-0.200774
-0.215755
-0.228858
-0.236617
-0.235364
-0.225035
-0.206489
-0.183195
-0.159467
-0.138982
-0.123926
-0.1149
-0.111491
-0.113055
-0.119202
-0.129676
-0.144511
-0.164548
-0.191416
-0.226212
-0.267382
-0.309689
-0.345396
-0.366573
-0.367003
-0.345257
-0.305986
-0.259221
-0.21458
-0.177443
-0.149096
-0.128624
-0.114811
-0.106886
-0.104365
-0.107253
-0.116803
-0.135262
-0.163513
-0.197889
-0.229005
-0.244912
-0.237225
-0.211423
-0.179804
-0.154333
-0.13976
-0.136387
-0.145343
-0.168859
-0.206528
-0.251863
-0.292582
-0.315212
-0.310657
-0.280744
-0.234806
-0.185178
-0.140689
-0.105018
-0.078428
-0.0601117
-0.0485958
-0.0423201
-0.0391325
-0.0373115
-0.0354126
-0.0332363
-0.0308668
-0.0291224
-0.0281536
-0.027515
-0.0269208
-0.0256262
-0.0230676
-0.0191324
-0.013149
-0.0071004
-0.00104144
-0.602893
-0.551683
-0.497583
-0.440417
-0.383264
-0.329782
-0.282068
-0.241089
-0.207285
-0.180775
-0.161589
-0.149816
-0.145507
-0.148344
-0.157192
-0.169572
-0.181896
-0.190841
-0.192473
-0.186386
-0.17276
-0.15455
-0.135511
-0.119028
-0.107235
-0.100811
-0.0994751
-0.102767
-0.110404
-0.122152
-0.138031
-0.158849
-0.18619
-0.221187
-0.262506
-0.305301
-0.342174
-0.365399
-0.368631
-0.349354
-0.311201
-0.26425
-0.218745
-0.180552
-0.151179
-0.129764
-0.115022
-0.106118
-0.102534
-0.104192
-0.11211
-0.128349
-0.15387
-0.185551
-0.214917
-0.230645
-0.224665
-0.201427
-0.172195
-0.148435
-0.134925
-0.132183
-0.141454
-0.16508
-0.202932
-0.248858
-0.290686
-0.314738
-0.311675
-0.28235
-0.235804
-0.184522
-0.138007
-0.100431
-0.0721888
-0.0525464
-0.0400785
-0.0332831
-0.0300609
-0.0287183
-0.0276639
-0.0265804
-0.0254227
-0.0249576
-0.0252539
-0.0258105
-0.0263323
-0.0260238
-0.024165
-0.0204935
-0.0144198
-0.00794634
-0.00131034
-0.580505
-0.529891
-0.478661
-0.424109
-0.368636
-0.316073
-0.268516
-0.226838
-0.191479
-0.162566
-0.140106
-0.124209
-0.1151
-0.112775
-0.116577
-0.125041
-0.135315
-0.144331
-0.148812
-0.145685
-0.136735
-0.123592
-0.109322
-0.0969334
-0.0884553
-0.0846437
-0.0853605
-0.0903384
-0.0993914
-0.112302
-0.129046
-0.150333
-0.177652
-0.212196
-0.252992
-0.295735
-0.333591
-0.358952
-0.365207
-0.349262
-0.313162
-0.266811
-0.221054
-0.182265
-0.152166
-0.130002
-0.114459
-0.104639
-0.099998
-0.100402
-0.106642
-0.120572
-0.143227
-0.172018
-0.199401
-0.21489
-0.210567
-0.190058
-0.163358
-0.141366
-0.128907
-0.126711
-0.136128
-0.159593
-0.197253
-0.243411
-0.286149
-0.311684
-0.310465
-0.282153
-0.235618
-0.183242
-0.1351
-0.0959105
-0.0662452
-0.0454534
-0.0321659
-0.0249372
-0.0217017
-0.0210211
-0.0204268
-0.0202766
-0.0201923
-0.0208987
-0.0223893
-0.0241161
-0.0257784
-0.0264978
-0.0253816
-0.0219947
-0.0158214
-0.00889671
-0.00162514
-0.551219
-0.501933
-0.454814
-0.40435
-0.352061
-0.301841
-0.255728
-0.214471
-0.178517
-0.148077
-0.123144
-0.103757
-0.090206
-0.0827734
-0.0813694
-0.0850969
-0.0920585
-0.0995191
-0.104923
-0.104792
-0.100083
-0.0916071
-0.0818858
-0.073462
-0.0681953
-0.0668975
-0.0695731
-0.0761369
-0.0864907
-0.100426
-0.117855
-0.139342
-0.166245
-0.19983
-0.239537
-0.281734
-0.320217
-0.347684
-0.35711
-0.34513
-0.311827
-0.266869
-0.221522
-0.182608
-0.152099
-0.129391
-0.113194
-0.102546
-0.0968953
-0.0960505
-0.100615
-0.112213
-0.131954
-0.15774
-0.182973
-0.198105
-0.19531
-0.177636
-0.153548
-0.133342
-0.121901
-0.120158
-0.129551
-0.152574
-0.18967
-0.235678
-0.27909
-0.306133
-0.30717
-0.280094
-0.234204
-0.181334
-0.131978
-0.0914645
-0.0605976
-0.0388208
-0.0248304
-0.0172401
-0.0139928
-0.0136143
-0.0136549
-0.0143057
-0.0151671
-0.0169408
-0.0195556
-0.0224308
-0.0252616
-0.0270509
-0.0267217
-0.0236436
-0.0173637
-0.00995637
-0.00198911
-0.517279
-0.470133
-0.428005
-0.382652
-0.334644
-0.287833
-0.244159
-0.204247
-0.168544
-0.137367
-0.110802
-0.0888371
-0.0716317
-0.0595609
-0.0529651
-0.0516241
-0.0544316
-0.0593528
-0.064382
-0.0663361
-0.0643555
-0.0599267
-0.0543041
-0.0494868
-0.0471558
-0.0481362
-0.0525846
-0.0605719
-0.0720737
-0.0868851
-0.104838
-0.126328
-0.152546
-0.184815
-0.223022
-0.264249
-0.302995
-0.33242
-0.344749
-0.337382
-0.307398
-0.264524
-0.220205
-0.181634
-0.151036
-0.127996
-0.111302
-0.0999475
-0.0933647
-0.0913052
-0.0942378
-0.10355
-0.120392
-0.143151
-0.166121
-0.18072
-0.179262
-0.164489
-0.143026
-0.124585
-0.114111
-0.112716
-0.12192
-0.144239
-0.18042
-0.225895
-0.269707
-0.298219
-0.302675
-0.276126
-0.231541
-0.178792
-0.128653
-0.0871015
-0.0552436
-0.0326329
-0.0180411
-0.0101475
-0.00688686
-0.00673104
-0.00732086
-0.00865038
-0.0103388
-0.0130791
-0.0167489
-0.0207537
-0.0247829
-0.0276845
-0.0281888
-0.0254471
-0.0190565
-0.011129
-0.00240431
-0.481101
-0.436969
-0.400284
-0.360499
-0.317366
-0.274613
-0.234023
-0.19612
-0.16136
-0.130141
-0.102664
-0.0789831
-0.059149
-0.0434053
-0.0321957
-0.0258469
-0.0240567
-0.0256022
-0.0287689
-0.0314596
-0.0308187
-0.0299333
-0.0276835
-0.025884
-0.026051
-0.0289556
-0.0349123
-0.0441078
-0.0565738
-0.0721018
-0.0904386
-0.111788
-0.137146
-0.167874
-0.204301
-0.244224
-0.282939
-0.314217
-0.328683
-0.326566
-0.300162
-0.259937
-0.217208
-0.179424
-0.149059
-0.125897
-0.10886
-0.0969403
-0.0895242
-0.0863315
-0.087702
-0.0948257
-0.108851
-0.12863
-0.149288
-0.163176
-0.162761
-0.150936
-0.132043
-0.115312
-0.105738
-0.104589
-0.113455
-0.134842
-0.169788
-0.214355
-0.258263
-0.288027
-0.293923
-0.27024
-0.227649
-0.175618
-0.125136
-0.0828294
-0.0501797
-0.0268725
-0.0117658
-0.00361563
-0.000339034
-0.000361935
-0.00139886
-0.00329532
-0.00570065
-0.00930944
-0.0139661
-0.019084
-0.0243426
-0.0283994
-0.0297857
-0.0274111
-0.0209091
-0.012419
-0.00287305
-0.445201
-0.404847
-0.373575
-0.339264
-0.301094
-0.262615
-0.225407
-0.189896
-0.15657
-0.125886
-0.0981205
-0.0734217
-0.0518607
-0.0335521
-0.0187868
-0.00803699
-0.00162199
0.000815976
0.000389572
-0.00130745
-0.000741318
-0.00276057
-0.00294588
-0.00344974
-0.00555402
-0.00996194
-0.017102
-0.0272392
-0.0404453
-0.0565063
-0.0750838
-0.0961844
-0.120588
-0.149667
-0.18416
-0.222564
-0.260968
-0.294367
-0.318581
-0.313514
-0.29043
-0.253308
-0.212663
-0.176082
-0.146264
-0.12319
-0.105957
-0.0936097
-0.0854879
-0.081283
-0.0811813
-0.0862386
-0.0975899
-0.114489
-0.132849
-0.145879
-0.146096
-0.137281
-0.120832
-0.105731
-0.0969835
-0.0959879
-0.104391
-0.124654
-0.158073
-0.201374
-0.245049
-0.275809
-0.283251
-0.262682
-0.222586
-0.171818
-0.121436
-0.0786571
-0.0454023
-0.0215226
-0.00597356
0.00239779
0.00569357
0.00552727
0.00413586
0.00177181
-0.00124758
-0.00562851
-0.011205
-0.0174206
-0.0239396
-0.0291952
-0.0315145
-0.0295408
-0.0229275
-0.0138365
-0.0033997
-0.411789
-0.375654
-0.349304
-0.319917
-0.286406
-0.252084
-0.218277
-0.185318
-0.153724
-0.124003
-0.0964719
-0.0713347
-0.048727
-0.0287499
-0.0115635
0.00250957
0.0129822
0.0195196
0.0223621
0.022111
0.0192184
0.0204199
0.0191201
0.0170998
0.0136941
0.00825792
0.000308638
-0.0104603
-0.0241431
-0.0405241
-0.0591891
-0.0799518
-0.10336
-0.130771
-0.163269
-0.199963
-0.2376
-0.271675
-0.295759
-0.29716
-0.278417
-0.244844
-0.206731
-0.171734
-0.142759
-0.119983
-0.10269
-0.0900326
-0.0813419
-0.0762574
-0.074828
-0.0779493
-0.0867836
-0.10096
-0.117094
-0.129205
-0.129484
-0.123827
-0.109603
-0.0960368
-0.0880383
-0.0871222
-0.0949615
-0.113947
-0.145595
-0.187297
-0.230382
-0.261885
-0.271081
-0.253699
-0.216426
-0.167408
-0.117562
-0.0745863
-0.0409014
-0.0165624
-0.000633533
0.00793262
0.011252
0.0109722
0.00930369
0.00656113
0.00302458
-0.00203392
-0.00846433
-0.0157625
-0.0235714
-0.0300698
-0.0333762
-0.03184
-0.0251168
-0.0156131
-0.00398852
-0.382298
-0.350437
-0.328234
-0.302971
-0.27358
-0.243092
-0.212528
-0.18212
-0.152405
-0.123925
-0.0970198
-0.0719196
-0.0488062
-0.0278131
-0.00906852
0.00723501
0.020742
0.0309337
0.0374351
0.0403299
0.0405322
0.0410201
0.0383179
0.035297
0.0311466
0.0251624
0.0168178
0.00577488
-0.00807659
-0.0245283
-0.0431072
-0.0634477
-0.0858654
-0.111667
-0.142208
-0.177121
-0.213671
-0.247701
-0.272682
-0.278841
-0.264525
-0.234786
-0.199581
-0.166505
-0.138639
-0.116357
-0.0991351
-0.0862642
-0.0771213
-0.071297
-0.0687492
-0.0701108
-0.0765877
-0.0881944
-0.102229
-0.113567
-0.113065
-0.110839
-0.0985292
-0.0864013
-0.0790735
-0.0781831
-0.0853815
-0.102972
-0.132645
-0.17244
-0.214614
-0.246634
-0.257665
-0.243508
-0.209257
-0.162401
-0.1135
-0.0705969
-0.0366501
-0.0119592
0.00429104
0.0130282
0.0163738
0.0160044
0.0141227
0.0110814
0.007119
0.00147562
-0.00574369
-0.0141081
-0.0232348
-0.0310202
-0.0353712
-0.0343119
-0.0274759
-0.0173352
-0.00463461
-0.357165
-0.329359
-0.310482
-0.288494
-0.262622
-0.235579
-0.208022
-0.18008
-0.152292
-0.125205
-0.0991738
-0.0744522
-0.0512553
-0.029756
-0.0100824
0.00763892
0.0231805
0.0361237
0.0459428
0.0522904
0.0555836
0.0580268
0.0542937
0.050891
0.046456
0.0403236
0.0319672
0.0210181
0.00733497
-0.00890415
-0.0271965
-0.0470168
-0.0684529
-0.092718
-0.12139
-0.15445
-0.189621
-0.223304
-0.249407
-0.259123
-0.249094
-0.223338
-0.191321
-0.160446
-0.133918
-0.112318
-0.0953078
-0.0823299
-0.0728465
-0.0664354
-0.0629705
-0.0628619
-0.0672131
-0.0763896
-0.0883846
-0.0994082
-0.109691
-0.0986892
-0.0877617
-0.0769757
-0.0702475
-0.0693448
-0.0758531
-0.0919803
-0.119539
-0.157175
-0.198082
-0.230385
-0.243237
-0.232354
-0.201175
-0.156813
-0.109234
-0.0666674
-0.0326257
-0.00768582
0.00883463
0.0177255
0.0210948
0.0206514
0.0186099
0.0153404
0.011038
0.00490032
-0.00304397
-0.0124556
-0.0229244
-0.0320414
-0.0374985
-0.0369589
-0.0300092
-0.019191
-0.00533768
-0.336146
-0.312102
-0.295803
-0.276282
-0.25335
-0.229362
-0.20456
-0.178968
-0.153106
-0.127499
-0.102495
-0.0783573
-0.0553348
-0.033664
-0.0135248
0.00497454
0.0217363
0.0365086
0.0488159
0.0580957
0.0641198
0.0680653
0.066416
0.0637764
0.059569
0.053609
0.045535
0.0350039
0.0218268
0.00610522
-0.0116798
-0.0308699
-0.0513418
-0.0742102
-0.101192
-0.132562
-0.16644
-0.199449
-0.226274
-0.238897
-0.232621
-0.210748
-0.182091
-0.153653
-0.128679
-0.107959
-0.0913257
-0.0783711
-0.0686642
-0.0618045
-0.0575872
-0.0562762
-0.0588007
-0.0657766
-0.0757093
-0.0855432
-0.0931905
-0.086415
-0.0773481
-0.067843
-0.0616714
-0.0607384
-0.0665319
-0.0811496
-0.106493
-0.141766
-0.181176
-0.21354
-0.228087
-0.220849
-0.192292
-0.150711
-0.104836
-0.0628856
-0.0289029
-0.00378862
0.0129823
0.0220401
0.0254455
0.0249392
0.0227807
0.0193449
0.0147826
0.00823902
-0.000365802