/*--------------------------------*- C++ -*----------------------------------*\
| =========                 |                                                 |
| \\      /  F ield         | OpenFOAM: The Open Source CFD Toolbox           |
|  \\    /   O peration     | Version:  2312                                  |
|   \\  /    A nd           | Website:  www.openfoam.com                      |
|    \\/     M anipulation  |                                                 |
\*---------------------------------------------------------------------------*/
FoamFile
{
    version     2.0;
    format      ascii;
    arch        "LSB;label=32;scalar=64";
    class       volVectorField;
    location    "172.6";
    object      U;
}
// * * * * * * * * * * * * * * * * * * * * * * * * * * * * * * * * * * * * * //

dimensions      [0 1 -1 0 0 0 0];

internalField   nonuniform List<vector> 
5478
(
(-0.0261209 0.0256335 -1.34304e-19)
(-0.018419 0.0395888 0)
(0.0534055 0.0299539 2.05298e-19)
(0.194682 0.00495584 -3.61584e-19)
(0.406955 -0.0252595 2.39434e-19)
(0.660469 -0.0532352 -7.0713e-20)
(0.906268 -0.0759185 -1.23363e-19)
(1.10349 -0.0941429 0)
(1.2296 -0.109727 0)
(1.28639 -0.122608 1.35287e-19)
(1.28726 -0.132647 -6.80982e-20)
(1.25302 -0.136031 -9.55357e-20)
(1.20815 -0.140898 -3.36634e-20)
(1.16225 -0.127819 0)
(1.111 -0.13546 6.90165e-20)
(-0.0240559 0.0165585 2.69011e-19)
(0.00931159 0.0133975 0)
(0.137806 -0.00484682 0)
(0.3674 -0.0252089 -1.79529e-19)
(0.658152 -0.0374548 2.37555e-19)
(0.936395 -0.0420225 6.9131e-20)
(1.14767 -0.0446473 -1.13536e-19)
(1.27174 -0.0503202 1.00684e-19)
(1.31808 -0.0598234 2.33206e-19)
(1.31091 -0.0714078 -2.01409e-19)
(1.27696 -0.0807682 3.62797e-21)
(1.23917 -0.087635 0)
(1.20422 -0.08889 3.36024e-20)
(1.17452 -0.0819238 0)
(1.15129 -0.0858997 0)
(-0.0181613 0.00965207 -7.00269e-22)
(0.0642071 -0.00874489 -1.23368e-19)
(0.286066 -0.0261613 2.33824e-22)
(0.61099 -0.0265702 0)
(0.928325 -0.0150586 -7.72819e-20)
(1.15895 -0.00392624 6.50997e-20)
(1.28447 -0.000919907 5.42732e-20)
(1.32618 -0.00667042 0)
(1.31908 -0.0173148 -7.81406e-20)
(1.293 -0.0280156 6.35179e-20)
(1.26581 -0.0360987 5.10572e-20)
(1.23979 -0.0406872 0)
(1.21472 -0.0413154 0)
(1.19046 -0.0414217 -9.24275e-20)
(1.16396 -0.0406175 8.2356e-20)
(-0.00301967 0.00207171 -1.42506e-19)
(0.160143 -0.025673 1.21874e-19)
(0.498713 -0.0227144 -1.05401e-19)
(0.870123 0.00407395 9.10655e-20)
(1.14005 0.0289016 1.53395e-19)
(1.28285 0.0403809 -1.28156e-19)
(1.33198 0.0391342 -5.42454e-20)
(1.33212 0.0309539 4.12732e-20)
(1.31419 0.0211836 -3.97616e-20)
(1.29189 0.0123985 0)
(1.2665 0.00531053 0)
(1.23932 -0.000332252 -7.12691e-20)
(1.21174 -0.00463868 9.1066e-20)
(1.18554 -0.0057477 -5.06951e-20)
(1.15993 -0.0109338 0)
(0.0273045 -0.00704772 7.18722e-20)
(0.306388 -0.0291093 6.07947e-20)
(0.737308 0.010307 -2.16012e-19)
(1.08019 0.0543779 2.35216e-21)
(1.26659 0.0780323 -3.1311e-21)
(1.33656 0.0832879 -1.47357e-21)
(1.34584 0.0784383 4.97662e-20)
(1.33051 0.0697784 4.25319e-20)
(1.30644 0.0601989 2.99369e-20)
(1.27867 0.050711 -5.15992e-21)
(1.25112 0.042099 -6.80563e-20)
(1.2258 0.0346208 0)
(1.20375 0.0303329 2.92937e-20)
(1.18384 0.0241723 -2.10001e-20)
(1.16777 0.0235807 3.86207e-20)
(0.078978 -0.0142581 -1.5095e-19)
(0.493792 -0.00547713 1.63825e-19)
(0.947673 0.0657701 -5.53821e-20)
(1.22054 0.112345 4.24436e-20)
(1.33333 0.128606 -7.743e-20)
(1.3574 0.127512 -5.76932e-20)
(1.34385 0.118964 1.28629e-21)
(1.3182 0.107896 0)
(1.29071 0.096408 6.11542e-20)
(1.26563 0.0856834 -5.43825e-20)
(1.24308 0.0762471 2.15166e-20)
(1.22221 0.0684884 0)
(1.20176 0.061314 1.31269e-20)
(1.18209 0.0552318 -2.23355e-20)
(1.16064 0.0517814 0)
(0.154302 -0.0121423 -1.87735e-20)
(0.68625 0.0488966 1.11932e-21)
(1.10637 0.134463 2.76786e-20)
(1.30495 0.174402 4.53575e-20)
(1.36169 0.180973 -3.45029e-20)
(1.3555 0.172624 5.81432e-20)
(1.32995 0.159728 -1.32162e-20)
(1.30213 0.146203 0)
(1.27632 0.133238 -3.59883e-20)
(1.25189 0.121029 2.39579e-21)
(1.22849 0.10975 3.001e-20)
(1.20641 0.0992393 0)
(1.18642 0.0904191 -1.92397e-20)
(1.16806 0.0815597 0)
(1.15267 0.0782368 1.16044e-20)
(0.248645 0.0062318 -1.996e-20)
(0.849767 0.124497 0)
(1.21303 0.210988 2.78292e-20)
(1.34544 0.238941 0)
(1.36237 0.234186 0)
(1.34005 0.218828 0)
(1.31017 0.201764 -1.1284e-20)
(1.28133 0.18498 0)
(1.25467 0.168849 7.26229e-21)
(1.23075 0.153746 0)
(1.20982 0.140026 -9.40887e-21)
(1.19159 0.127952 0)
(1.17505 0.116941 6.10632e-21)
(1.15986 0.107563 0)
(1.14423 0.1022 3.94941e-21)
(-0.0120605 0.0271183 -1.26328e-20)
(-0.0431317 -0.0183275 0)
(-0.0913149 -0.0708585 2.00765e-20)
(-0.141449 -0.11757 0)
(-0.189867 -0.168742 0)
(-0.235399 -0.229679 0)
(-0.275886 -0.299085 -1.3234e-20)
(-0.308582 -0.373719 0)
(-0.330526 -0.44864 1.07072e-20)
(-0.339129 -0.516839 0)
(-0.332547 -0.569586 -1.67047e-20)
(-0.309148 -0.598045 0)
(-0.267769 -0.594186 1.26007e-20)
(-0.212655 -0.551485 0)
(-0.133728 -0.472959 9.44424e-21)
(-0.0181918 0.0556441 6.48061e-20)
(-0.0482386 0.0339496 -4.73057e-20)
(-0.0921323 -0.00966227 2.29933e-20)
(-0.136061 -0.053024 7.63344e-20)
(-0.17759 -0.103641 8.76064e-22)
(-0.216401 -0.165738 -6.10524e-20)
(-0.250625 -0.239159 4.05911e-20)
(-0.278565 -0.321623 0)
(-0.298788 -0.408742 3.39522e-20)
(-0.310717 -0.493855 -6.63852e-22)
(-0.314242 -0.568502 -1.80697e-20)
(-0.309082 -0.623043 0)
(-0.29344 -0.649185 -3.67139e-20)
(-0.273552 -0.637538 0)
(-0.216598 -0.5892 -4.30571e-20)
(-0.0253945 0.0784971 1.11385e-19)
(-0.0510114 0.080373 2.58379e-20)
(-0.0830385 0.046459 -4.29737e-20)
(-0.113529 0.0074121 -1.20207e-19)
(-0.139093 -0.0399486 7.19745e-20)
(-0.158633 -0.0998046 6.74885e-20)
(-0.171394 -0.172418 -1.22507e-19)
(-0.175795 -0.255707 0)
(-0.171466 -0.34518 -9.68692e-20)
(-0.160476 -0.434241 8.61341e-20)
(-0.14682 -0.515584 3.66739e-20)
(-0.13598 -0.581678 0)
(-0.116187 -0.625601 2.40979e-20)
(-0.130008 -0.636308 -3.4961e-20)
(-0.0706541 -0.617955 0)
(-0.0319651 0.0898016 6.02705e-20)
(-0.0523492 0.112256 -1.57361e-19)
(-0.0685607 0.0886645 1.88691e-19)
(-0.0796716 0.0546385 -1.70856e-19)
(-0.0834276 0.0114624 -7.91673e-20)
(-0.0772122 -0.044914 7.22908e-20)
(-0.0587126 -0.11482 6.26764e-20)
(-0.0266494 -0.195915 5.93865e-20)
(0.0187519 -0.28235 -1.54755e-19)
(0.0732498 -0.366062 4.32349e-21)
(0.130112 -0.438012 4.04819e-20)
(0.169413 -0.498386 0)
(0.233422 -0.522975 4.43131e-20)
(0.20832 -0.544467 9.31889e-20)
(0.297386 -0.514743 -5.20962e-20)
(-0.0357766 0.0880732 1.39833e-21)
(-0.0515176 0.125536 1.11511e-19)
(-0.0511701 0.112958 -9.92808e-20)
(-0.0405326 0.0843903 8.68325e-20)
(-0.0180045 0.0446349 1.60431e-19)
(0.0198982 -0.00861481 -1.46224e-19)
(0.0763896 -0.0761706 -6.7082e-20)
(0.152578 -0.155266 -1.79294e-19)
(0.245266 -0.238973 1.58933e-19)
(0.347033 -0.317985 0)
(0.445432 -0.380138 0)
(0.522854 -0.429619 1.07254e-19)
(0.611845 -0.433298 -2.18254e-19)
(0.609388 -0.442279 6.99105e-20)
(0.716091 -0.390019 0)
(-0.0357328 0.0756253 -1.2834e-22)
(-0.047619 0.119971 -1.12312e-19)
(-0.0322511 0.116652 3.00948e-19)
(0.00030623 0.0927137 -8.94824e-20)
(0.051435 0.0550684 -8.13172e-20)
(0.125813 0.00411107 7.39807e-20)
(0.227665 -0.0600347 6.70999e-20)
(0.355284 -0.133091 1.18878e-19)
(0.498191 -0.207708 -2.07809e-19)
(0.64182 -0.273708 8.56964e-20)
(0.762715 -0.324645 6.92286e-20)
(0.860044 -0.355032 0)
(0.930153 -0.36159 0)
(0.939815 -0.348846 1.0476e-19)
(1.00149 -0.317603 -9.32425e-20)
(-0.0325491 0.0574283 7.92616e-22)
(-0.041069 0.0989345 0)
(-0.0125215 0.0996871 0)
(0.0425945 0.0773145 1.83343e-19)
(0.12758 0.040465 -8.06523e-20)
(0.249122 -0.00855438 7.27577e-20)
(0.407109 -0.0674637 1.31521e-19)
(0.588125 -0.129348 -1.16616e-19)
(0.769615 -0.187678 1.0234e-19)
(0.92645 -0.233595 -8.57676e-20)
(1.03948 -0.267726 -4.89249e-21)
(1.11532 -0.280612 0)
(1.1345 -0.280527 3.79497e-20)
(1.13531 -0.267945 0)
(1.11569 -0.238451 0)
(-0.0286704 0.0393573 -1.31303e-19)
(-0.0323814 0.0694584 0)
(0.0110549 0.0675438 -2.05273e-19)
(0.097361 0.044512 3.62966e-19)
(0.233536 0.00879676 -4.04339e-19)
(0.420009 -0.0350819 -7.35307e-20)
(0.637632 -0.0806621 1.2759e-19)
(0.852891 -0.122513 0)
(1.03433 -0.157058 0)
(1.15864 -0.183155 -1.47118e-19)
(1.22607 -0.199744 -4.97762e-20)
(1.23894 -0.204607 1.0359e-19)
(1.21264 -0.204159 -3.80232e-20)
(1.17758 -0.193561 0)
(1.12036 -0.172136 -7.23426e-20)
(-0.0382806 -0.296362 0)
(0.217186 0.144473 4.21667e-21)
(0.40431 0.565168 -3.9037e-21)
(0.526207 0.722112 0)
(0.67109 0.708801 0)
(0.515259 0.808053 -9.9884e-23)
(0.453501 0.599505 0)
(0.608318 0.154933 0)
(0.818538 -0.329316 9.9359e-23)
(0.902887 -0.46783 0)
(0.933314 -0.465639 0)
(0.852201 -0.602037 -9.20184e-23)
(0.83279 -0.488014 0)
(0.850284 -0.388996 -6.71658e-23)
(0.939138 -0.011152 -7.74232e-23)
(0.941058 0.293062 0)
(1.00162 0.463676 -5.59957e-22)
(1.02844 0.634928 6.55066e-22)
(1.00333 0.309082 0)
(1.02762 0.0468195 5.179e-22)
(1.10499 -0.332655 -6.20684e-22)
(1.07986 -0.660201 1.2234e-22)
(1.08971 -0.28799 -2.21601e-22)
(1.07751 -0.00235601 2.11748e-22)
(1.12543 0.396462 -2.21992e-22)
(1.16772 0.70559 0)
(1.18435 -0.0173757 -2.45221e-22)
(1.06001 -0.661976 2.34467e-22)
(1.08488 -0.144184 -1.17717e-22)
(1.03892 0.328233 0)
(1.00965 0.106514 -9.27335e-23)
(0.987863 -0.0959155 0)
(0.984692 -0.0288535 -3.46914e-23)
(0.97969 0.0230371 -1.31923e-23)
(0.977743 0.00810956 1.32236e-24)
(0.972564 -0.000904181 -8.9169e-24)
(0.973461 0.00236341 0)
(0.971169 0.00351789 2.45824e-24)
(-0.239252 -0.440437 1.54579e-20)
(0.0191553 -0.0473353 -1.24593e-22)
(0.253315 0.380243 -8.91056e-21)
(0.477098 0.593452 8.498e-21)
(0.580502 0.713027 0)
(0.426764 0.865672 1.00679e-22)
(0.498766 0.572661 -2.37953e-22)
(0.732873 0.0722702 0)
(0.911452 -0.392976 -1.00097e-22)
(0.955472 -0.506786 0)
(0.991826 -0.446597 0)
(0.882039 -0.581935 9.26686e-23)
(0.886871 -0.494449 0)
(0.893671 -0.407202 2.44701e-21)
(0.927051 -0.030128 -2.03674e-21)
(0.928713 0.270679 2.61927e-21)
(0.958792 0.440031 -2.50027e-21)
(1.00493 0.630272 -1.21171e-22)
(0.986184 0.315658 0)
(1.03197 0.0352979 0)
(1.12927 -0.33554 -1.23064e-22)
(1.07051 -0.659274 1.06174e-21)
(1.09473 -0.287468 -1.86749e-21)
(1.06166 -0.011748 9.20634e-22)
(1.09303 0.378091 6.92753e-22)
(1.17547 0.696733 0)
(1.2028 0.00107335 3.95321e-22)
(1.06229 -0.653742 0)
(1.06968 -0.145765 1.18129e-22)
(1.03254 0.329898 -2.76808e-22)
(1.01688 0.110436 4.42869e-22)
(0.994347 -0.0940772 -4.41429e-23)
(0.987706 -0.0285866 7.10247e-23)
(0.98283 0.0235016 2.6311e-24)
(0.981377 0.00850358 1.56031e-23)
(0.97709 -0.000655976 -7.53793e-24)
(0.977729 0.0024068 -6.59381e-25)
(0.976474 0.0036224 6.39409e-25)
(-0.197822 -0.537452 1.9208e-20)
(-0.0552367 -0.275135 -3.27794e-20)
(0.151916 0.172013 1.6384e-21)
(0.384513 0.491361 1.17152e-20)
(0.424396 0.734333 1.64037e-22)
(0.350294 0.887985 -1.9686e-22)
(0.567748 0.517231 2.42064e-22)
(0.867056 0.00962089 -5.37671e-22)
(1.01468 -0.41377 0)
(1.00593 -0.52843 8.50647e-21)
(1.04215 -0.423144 -8.11431e-21)
(0.902365 -0.55349 -1.86461e-22)
(0.918647 -0.513029 0)
(0.938972 -0.424415 -4.89877e-21)
(0.919274 -0.0442204 4.51568e-21)
(0.922017 0.2601 -2.62048e-21)
(0.919811 0.42392 2.50055e-21)
(0.985565 0.621005 1.88409e-21)
(0.972416 0.322912 -1.58659e-21)
(1.03467 0.0286159 0)
(1.14518 -0.32587 0)
(1.05463 -0.650952 1.93877e-21)
(1.0893 -0.291237 -1.85111e-21)
(1.04359 -0.0194407 -2.03809e-21)
(1.05346 0.355607 5.79064e-23)
(1.17012 0.684643 1.81752e-21)
(1.21097 0.0275523 -9.20264e-23)
(1.05827 -0.631578 -6.88134e-22)
(1.04849 -0.148754 1.44248e-21)
(1.02308 0.329897 -1.24603e-21)
(1.0204 0.115924 5.31707e-23)
(0.997489 -0.0902713 -1.32701e-22)
(0.987595 -0.028036 5.17027e-23)
(0.982946 0.0238772 -4.94351e-23)
(0.981833 0.00890908 -1.02549e-23)
(0.978598 -0.000415909 -5.09022e-24)
(0.9789 0.00241214 1.58983e-23)
(0.978737 0.00366613 2.47805e-24)
(0.127592 -0.511262 0)
(0.0296994 -0.409848 6.19148e-21)
(0.0850935 -0.029475 -6.11251e-21)
(0.270336 0.384156 0)
(0.277419 0.697476 -1.68639e-22)
(0.324338 0.825225 2.02309e-22)
(0.650997 0.428305 0)
(0.988616 -0.0501528 1.18648e-23)
(1.12434 -0.411378 -4.4649e-22)
(1.06005 -0.541448 0)
(1.09736 -0.402938 -6.67603e-21)
(0.954063 -0.510152 6.55631e-21)
(0.936067 -0.531497 -3.12622e-22)
(0.97795 -0.444291 -5.1875e-21)
(0.930964 -0.0645114 4.94751e-21)
(0.923368 0.232866 3.44552e-22)
(0.874067 0.394888 0)
(0.945772 0.607746 -2.26255e-22)
(0.950005 0.332693 2.88398e-21)
(1.03073 0.026176 4.79602e-22)
(1.15363 -0.313146 3.67414e-22)
(1.03997 -0.640409 -2.85639e-21)
(1.07663 -0.300506 -3.7809e-21)
(1.0243 -0.0309486 4.63274e-21)
(1.0073 0.323254 -4.97204e-22)
(1.14685 0.662965 0)
(1.20718 0.0534146 -3.1128e-22)
(1.05255 -0.607885 6.97161e-22)
(1.02253 -0.156358 -1.4695e-21)
(1.00873 0.324208 1.26883e-21)
(1.01884 0.119726 -1.38945e-22)
(0.997103 -0.0861378 0)
(0.98451 -0.0277949 -5.34013e-23)
(0.980199 0.0239578 9.8111e-23)
(0.979264 0.0092355 3.13945e-23)
(0.977199 -0.000224418 3.01884e-23)
(0.977115 0.00236937 -1.59094e-23)
(0.978034 0.00364674 6.56722e-27)
(0.570167 -0.355761 1.84114e-22)
(0.360387 -0.357413 1.4857e-22)
(0.179873 -0.179199 0)
(0.251591 0.240696 0)
(0.256751 0.637536 0)
(0.392479 0.74799 0)
(0.76216 0.348017 1.65859e-20)
(1.09598 -0.0964375 -3.20143e-20)
(1.22389 -0.381618 1.64589e-20)
(1.10945 -0.528242 0)
(1.11885 -0.38794 -6.38228e-21)
(1.00804 -0.45415 6.2828e-21)
(0.944787 -0.538351 5.58207e-21)
(0.990335 -0.473211 -4.68822e-21)
(0.942955 -0.0875822 5.89607e-21)
(0.921438 0.229632 -5.97461e-21)
(0.835308 0.386072 -3.06406e-22)
(0.913279 0.59147 -2.86396e-21)
(0.934597 0.338066 2.72839e-21)
(1.02678 0.0253146 3.45224e-22)
(1.15432 -0.292325 3.42208e-22)
(1.02724 -0.626004 3.42627e-21)
(1.05454 -0.312704 -3.6978e-21)
(1.0005 -0.0388761 -1.1147e-21)
(0.96027 0.294731 -5.16939e-22)
(1.11875 0.646381 -3.58659e-22)
(1.19533 0.0865053 0)
(1.04663 -0.578954 0)
(0.993247 -0.164277 0)
(0.992908 0.318358 0)
(1.01414 0.125016 3.75483e-22)
(0.994103 -0.0804342 -2.23646e-22)
(0.979061 -0.0272629 1.09488e-22)
(0.975014 0.0240013 -2.99044e-22)
(0.974037 0.00957814 3.14303e-23)
(0.973188 -2.93138e-05 5.85767e-24)
(0.972696 0.00230384 -2.02765e-23)
(0.974599 0.003574 -6.21398e-24)
(0.891944 -0.270701 -1.937e-22)
(0.767198 -0.214372 -2.31743e-21)
(0.546834 -0.172644 2.15495e-21)
(0.385314 0.10223 1.26785e-20)
(0.351683 0.49751 -1.20774e-20)
(0.510526 0.630022 2.04998e-20)
(0.899105 0.280547 -1.89813e-20)
(1.19775 -0.116891 4.7343e-22)
(1.29736 -0.332555 -4.46092e-22)
(1.16274 -0.490663 0)
(1.12172 -0.379299 -2.21317e-22)
(1.05277 -0.401123 1.1182e-20)
(0.955155 -0.524208 -1.06439e-20)
(0.97198 -0.500008 -3.36669e-22)
(0.948069 -0.125069 0)
(0.922435 0.196194 -6.04159e-21)
(0.800809 0.354763 1.00508e-20)
(0.855541 0.571426 -3.92228e-21)
(0.902883 0.350524 0)
(1.02128 0.0348966 2.39482e-21)
(1.1501 -0.266504 4.74192e-23)
(1.01972 -0.607832 -2.87287e-21)
(1.02796 -0.328192 -4.99031e-21)
(0.973342 -0.0533954 4.82587e-21)
(0.914793 0.257391 -3.62037e-21)
(1.07367 0.615894 1.46671e-21)
(1.17241 0.115241 2.02726e-21)
(1.04358 -0.5499 -2.07912e-21)
(0.963333 -0.175517 1.97767e-21)
(0.972779 0.305547 -5.02875e-22)
(1.00456 0.128461 4.78105e-22)
(0.988332 -0.0748744 0)
(0.971604 -0.0270832 1.11437e-22)
(0.967752 0.0237561 -2.40393e-23)
(0.966585 0.00982948 0)
(0.966973 0.000101594 -2.92143e-23)
(0.966094 0.00219974 1.33662e-23)
(0.968794 0.00345008 -2.36326e-24)
(1.03296 -0.219761 0)
(0.938671 -0.151762 0)
(0.876639 -0.10201 -8.3985e-25)
(0.686097 0.093359 0)
(0.537796 0.420112 0)
(0.685881 0.540755 1.3202e-20)
(1.06769 0.221483 -1.2621e-20)
(1.29441 -0.128945 2.82682e-20)
(1.34248 -0.289055 -2.70006e-20)
(1.21038 -0.445824 0)
(1.12585 -0.372658 -2.08186e-22)
(1.07687 -0.359312 1.76355e-22)
(0.976667 -0.488448 -1.09343e-20)
(0.942204 -0.530782 -2.40866e-21)
(0.937589 -0.173919 1.20464e-20)
(0.913773 0.194939 1.95758e-22)
(0.7679 0.359641 -1.64222e-22)
(0.821661 0.558733 5.1595e-21)
(0.887701 0.347255 -5.10587e-21)
(1.02314 0.0340491 0)
(1.14546 -0.236191 0)
(1.01353 -0.584586 -1.6738e-22)
(0.997182 -0.342545 0)
(0.938908 -0.0623389 4.89028e-21)
(0.870638 0.23059 -4.98162e-22)
(1.04179 0.603924 -3.395e-21)
(1.15143 0.147095 -1.37878e-21)
(1.04142 -0.516882 9.54853e-22)
(0.93495 -0.184862 -2.52627e-22)
(0.953993 0.295949 0)
(0.993639 0.132762 -1.99048e-22)
(0.981241 -0.0686126 1.88702e-22)
(0.963045 -0.0265904 6.75769e-23)
(0.959087 0.023667 2.49493e-23)
(0.95754 0.0101446 -4.34418e-23)
(0.959089 0.000253033 1.10029e-23)
(0.957864 0.00210991 0)
(0.961084 0.00329864 4.90407e-24)
(1.05959 -0.184703 4.43461e-20)
(0.996645 -0.144039 1.4181e-20)
(0.97291 -0.127548 -1.60045e-20)
(0.879859 0.00798446 1.67425e-20)
(0.734378 0.286307 -1.36175e-20)
(0.853989 0.440164 1.26683e-23)
(1.18252 0.236985 0)
(1.3404 -0.0511459 -2.07914e-22)
(1.35801 -0.193982 -1.90124e-22)
(1.241 -0.367706 0)
(1.14175 -0.34989 -1.28055e-20)
(1.09096 -0.323231 1.21799e-20)
(1.00405 -0.438813 1.53859e-22)
(0.917462 -0.53242 1.28574e-20)
(0.90492 -0.243515 -1.21837e-20)
(0.889461 0.138608 2.0887e-22)
(0.742464 0.318247 1.7383e-22)
(0.763172 0.532208 0)
(0.837726 0.369319 4.38457e-21)
(1.01917 0.0587205 -4.16319e-21)
(1.14813 -0.200161 -2.47668e-21)
(1.00807 -0.55501 -8.08806e-22)
(0.965244 -0.353948 3.15791e-21)
(0.900481 -0.0814547 -4.97246e-21)
(0.831114 0.182883 1.05046e-21)
(0.98874 0.563788 5.42367e-21)
(1.12281 0.180244 -1.46644e-21)
(1.03683 -0.481292 1.80477e-21)
(0.910809 -0.196311 -1.28252e-21)
(0.931181 0.276543 0)
(0.978098 0.136825 0)
(0.9724 -0.0616274 0)
(0.953767 -0.0263055 4.42372e-23)
(0.949472 0.0230878 -6.47622e-23)
(0.947481 0.0102723 3.84944e-23)
(0.950079 0.00029454 -2.47998e-23)
(0.948569 0.00195649 -1.08732e-23)
(0.95198 0.00310005 0)
(1.0762 -0.112708 0)
(1.03292 -0.0679789 0)
(0.974394 -0.0599422 0)
(0.931539 0.0478993 0)
(0.904089 0.190619 0)
(1.07872 0.266489 0)
(1.30773 0.138528 0)
(1.33886 -0.0735177 0)
(1.33037 -0.132909 0)
(1.24597 -0.281351 0)
(1.14814 -0.304799 0)
(1.10256 -0.255672 0)
(1.04531 -0.378047 0)
(0.906706 -0.545935 0)
(0.868954 -0.298801 0)
(0.845749 0.137255 0)
(0.693626 0.343343 0)
(0.719892 0.528959 0)
(0.833644 0.331139 0)
(1.03945 0.0394681 0)
(1.16447 -0.166164 0)
(0.999803 -0.527868 0)
(0.929589 -0.37775 0)
(0.85395 -0.0874521 0)
(0.800004 0.161949 0)
(0.94075 0.554592 0)
(1.12395 0.200179 0)
(1.03036 -0.454056 0)
(0.889392 -0.201668 0)
(0.90857 0.266519 0)
(0.961791 0.138796 0)
(0.961284 -0.05601 0)
(0.941943 -0.0250284 0)
(0.937319 0.0236048 0)
(0.934625 0.0107953 0)
(0.93815 0.000435871 0)
(0.936348 0.0019353 0)
(0.93967 0.0029202 0)
(1.07892 -0.0637552 0)
(1.05572 -0.0358695 0)
(1.0159 -0.0396495 0)
(0.991334 0.0388821 0)
(1.01734 0.132134 0)
(1.12708 0.151532 0)
(1.25695 0.0798766 0)
(1.27961 -0.0505533 0)
(1.24906 -0.132495 0)
(1.19486 -0.262447 0)
(1.10732 -0.263043 0)
(1.03407 -0.272409 0)
(1.00082 -0.374833 0)
(0.867492 -0.459758 0)
(0.808801 -0.213102 0)
(0.74399 0.203409 0)
(0.60646 0.376438 0)
(0.694298 0.500032 0)
(0.861659 0.253063 0)
(1.07353 -0.044518 0)
(1.15564 -0.200188 0)
(0.958576 -0.478365 0)
(0.876006 -0.308541 0)
(0.770772 -0.0456994 0)
(0.719516 0.163836 0)
(0.894848 0.507816 0)
(1.12548 0.146889 0)
(1.01209 -0.422585 0)
(0.858431 -0.163869 0)
(0.873914 0.264464 0)
(0.939997 0.126424 0)
(0.947169 -0.0541471 0)
(0.924992 -0.0216258 0)
(0.920286 0.0243706 0)
(0.91786 0.0104778 0)
(0.92253 9.87868e-05 0)
(0.920487 0.00173784 0)
(0.923387 0.00261614 0)
(1.07982 -0.0296971 0)
(1.06913 -0.0121858 0)
(1.05313 -0.00724849 0)
(1.03099 0.0319767 0)
(1.06331 0.0718292 0)
(1.11762 0.0868712 0)
(1.19209 0.0350828 0)
(1.21057 -0.062495 0)
(1.2019 -0.0861747 0)
(1.16782 -0.201727 0)
(1.08158 -0.207612 0)
(1.06711 -0.191402 0)
(1.03152 -0.283439 0)
(0.845274 -0.408762 0)
(0.717844 -0.190995 0)
(0.621972 0.261083 0)
(0.565436 0.372795 0)
(0.723821 0.400767 0)
(0.937906 0.152421 0)
(1.08455 -0.0753681 0)
(1.15536 -0.148419 0)
(0.969394 -0.419874 0)
(0.816178 -0.289108 0)
(0.679302 -0.0289016 0)
(0.625677 0.130427 0)
(0.860037 0.43131 0)
(1.14495 0.137886 0)
(1.00601 -0.372543 0)
(0.823781 -0.151344 0)
(0.841815 0.243951 0)
(0.924505 0.115414 0)
(0.934258 -0.0498795 0)
(0.907173 -0.0188469 0)
(0.903678 0.0243188 0)
(0.902084 0.0103602 0)
(0.906723 1.18118e-05 0)
(0.904177 0.00175505 0)
(0.906347 0.00240594 0)
(1.07954 -0.00621113 0)
(1.07081 0.00374486 0)
(1.06955 -0.00138426 0)
(1.05806 0.0234575 0)
(1.07791 0.0338909 0)
(1.1045 0.0375397 0)
(1.15244 0.0112828 0)
(1.15699 -0.0541973 0)
(1.1468 -0.0855206 0)
(1.13168 -0.170211 0)
(1.04665 -0.171727 0)
(1.01334 -0.223535 0)
(0.967943 -0.263001 0)
(0.838753 -0.276204 0)
(0.655236 -0.0768253 0)
(0.566703 0.292106 0)
(0.656702 0.311521 0)
(0.83585 0.300625 0)
(1.04762 0.0801663 0)
(1.09386 -0.125261 0)
(1.12833 -0.158146 0)
(0.975713 -0.33425 0)
(0.743409 -0.191073 0)
(0.600753 0.0282794 0)
(0.561739 0.0987697 0)
(0.824815 0.329593 0)
(1.14397 0.084907 0)
(0.996178 -0.312846 0)
(0.765523 -0.108486 0)
(0.796322 0.226371 0)
(0.915535 0.0968778 0)
(0.924739 -0.0468399 0)
(0.887997 -0.0144219 0)
(0.886901 0.0246688 0)
(0.888774 0.00993294 0)
(0.892812 -0.000249808 0)
(0.889796 0.00183127 0)
(0.891473 0.00221854 0)
(1.07542 0.00546077 0)
(1.07222 0.0111453 0)
(1.07685 0.00229217 0)
(1.06617 0.0160941 0)
(1.0852 0.0118707 0)
(1.09039 0.0123355 0)
(1.1182 -0.00736277 0)
(1.12149 -0.0556551 0)
(1.11192 -0.0630123 0)
(1.10073 -0.140596 0)
(1.04507 -0.124422 0)
(1.03181 -0.136538 0)
(0.9417 -0.17419 0)
(0.85368 -0.19219 0)
(0.700449 -0.0215255 0)
(0.676984 0.266428 0)
(0.845677 0.220534 0)
(0.970108 0.182036 0)
(1.12851 0.0198444 0)
(1.09155 -0.11158 0)
(1.10542 -0.109895 0)
(1.00856 -0.251192 0)
(0.736253 -0.114633 0)
(0.637453 0.054442 0)
(0.591889 0.0446912 0)
(0.805428 0.210906 0)
(1.13926 0.0570079 0)
(0.997514 -0.243161 0)
(0.716072 -0.071197 0)
(0.775254 0.195931 0)
(0.931959 0.0757906 0)
(0.928317 -0.0393209 0)
(0.877022 -0.00842932 0)
(0.879738 0.0236784 0)
(0.887425 0.00894543 0)
(0.888847 -0.000217598 0)
(0.885188 0.00207664 0)
(0.886016 0.00207365 0)
(1.07009 0.0116188 0)
(1.06923 0.0133076 0)
(1.07608 0.00261464 0)
(1.06744 0.0100121 0)
(1.0827 -0.000375453 0)
(1.07692 -0.00232105 0)
(1.09824 -0.0161974 0)
(1.09062 -0.0498746 0)
(1.08513 -0.053253 0)
(1.07745 -0.110042 0)
(1.01365 -0.0998407 0)
(1.01552 -0.124978 0)
(0.94935 -0.138929 0)
(0.898326 -0.112125 0)
(0.788175 0.0271803 0)
(0.828283 0.193402 0)
(0.992899 0.131733 0)
(1.04736 0.124661 0)
(1.15238 0.0116474 0)
(1.06968 -0.105663 0)
(1.0526 -0.110001 0)
(1.00574 -0.17429 0)
(0.769213 -0.0253859 0)
(0.772961 0.0964838 0)
(0.74214 0.0298736 0)
(0.833925 0.0960876 0)
(1.12167 0.00103796 0)
(0.999537 -0.161177 0)
(0.71078 -0.0186525 0)
(0.801075 0.148878 0)
(0.965924 0.047632 0)
(0.944296 -0.0287713 0)
(0.885935 5.69291e-05 0)
(0.893214 0.0213762 0)
(0.9062 0.00736824 0)
(0.903165 0.000307412 0)
(0.899511 0.00256379 0)
(0.898625 0.00205872 0)
(1.06314 0.0131058 0)
(1.06424 0.012893 0)
(1.07106 0.00289469 0)
(1.06403 0.00523025 0)
(1.07508 -0.00531508 0)
(1.06637 -0.00953617 0)
(1.07942 -0.0191589 0)
(1.06958 -0.0433989 0)
(1.06327 -0.0453121 0)
(1.05931 -0.0816343 0)
(1.01356 -0.0729379 0)
(1.01934 -0.0815926 0)
(0.956787 -0.0795456 0)
(0.925087 -0.065327 0)
(0.870206 0.0249154 0)
(0.927935 0.125378 0)
(1.03643 0.0793747 0)
(1.0448 0.0741178 0)
(1.1333 0.000631799 0)
(1.06504 -0.0600581 0)
(1.02841 -0.0659001 0)
(1.00366 -0.109543 0)
(0.826533 0.00611118 0)
(0.908968 0.0829143 0)
(0.931586 0.0250118 0)
(0.917681 0.0383191 0)
(1.09445 -0.0187889 0)
(1.01191 -0.0865614 0)
(0.78306 0.015296 0)
(0.872379 0.0954563 0)
(1.00592 0.0251684 0)
(0.974003 -0.0135276 0)
(0.923325 0.0080674 0)
(0.931723 0.0173467 0)
(0.945348 0.00575586 0)
(0.937741 0.0015455 0)
(0.934897 0.00333791 0)
(0.931502 0.00236671 0)
(1.05617 0.0130337 0)
(1.05817 0.011227 0)
(1.06352 0.00295848 0)
(1.05835 0.00249486 0)
(1.06551 -0.00720279 0)
(1.05713 -0.010633 0)
(1.06415 -0.0199434 0)
(1.05544 -0.0335222 0)
(1.04933 -0.0367096 0)
(1.04514 -0.05795 0)
(1.01231 -0.0527016 0)
(1.01183 -0.0620599 0)
(0.972068 -0.0526586 0)
(0.959222 -0.040336 0)
(0.92734 0.0196571 0)
(0.969332 0.0697682 0)
(1.03615 0.0472819 0)
(1.03555 0.0547862 0)
(1.09027 -0.00340418 0)
(1.0419 -0.0401454 0)
(1.01895 -0.056129 0)
(1.00293 -0.0695555 0)
(0.900315 0.0215104 0)
(0.980112 0.0527328 0)
(1.01222 0.0297616 0)
(0.984082 0.0155866 0)
(1.06013 -0.0420353 0)
(1.00073 -0.0337767 0)
(0.879126 0.0472367 0)
(0.9526 0.0597342 0)
(1.03024 0.00887271 0)
(0.997274 -0.000360545 0)
(0.968003 0.015197 0)
(0.976429 0.0142979 0)
(0.985932 0.00503462 0)
(0.97669 0.00332875 0)
(0.975469 0.00441642 0)
(0.971052 0.00307942 0)
(1.04914 0.0119859 0)
(1.05177 0.00947451 0)
(1.05496 0.00313796 0)
(1.05231 0.00122174 0)
(1.05539 -0.00645182 0)
(1.04948 -0.0097763 0)
(1.05216 -0.0170798 0)
(1.04447 -0.0251652 0)
(1.04025 -0.0287935 0)
(1.03389 -0.0404249 0)
(1.01524 -0.0374175 0)
(1.01214 -0.0418162 0)
(0.987163 -0.0297104 0)
(0.980856 -0.0238051 0)
(0.964119 0.0112154 0)
(0.990543 0.0393842 0)
(1.02277 0.0278384 0)
(1.0285 0.0334399 0)
(1.06221 -0.00520287 0)
(1.03266 -0.0187195 0)
(1.01996 -0.0310808 0)
(0.996639 -0.0393807 0)
(0.950775 0.0176548 0)
(1.00134 0.0258662 0)
(1.02332 0.0238825 0)
(1.02015 0.0125525 0)
(1.03575 -0.0298921 0)
(0.983041 -0.00497289 0)
(0.951823 0.0442864 0)
(1.00848 0.0331959 0)
(1.03563 0.00700307 0)
(1.00901 0.0102676 0)
(1.00214 0.0166059 0)
(1.00997 0.0110356 0)
(1.01364 0.00514681 0)
(1.00573 0.00492751 0)
(1.00608 0.00516698 0)
(1.00234 0.00378407 0)
(1.04253 0.0107152 0)
(1.04518 0.00801435 0)
(1.04699 0.00343767 0)
(1.04568 0.000986998 0)
(1.04645 -0.00483092 0)
(1.04263 -0.00753581 0)
(1.04274 -0.0133208 0)
(1.03721 -0.0178338 0)
(1.03366 -0.0210363 0)
(1.02807 -0.027183 0)
(1.01746 -0.0248904 0)
(1.01273 -0.027962 0)
(0.998183 -0.0187352 0)
(0.995892 -0.0149875 0)
(0.986146 0.00538143 0)
(1.00158 0.019911 0)
(1.01734 0.0151452 0)
(1.02427 0.0211953 0)
(1.04074 -0.00472977 0)
(1.02256 -0.0103881 0)
(1.01968 -0.021477 0)
(0.999068 -0.0243669 0)
(0.982427 0.0125791 0)
(1.00802 0.0130874 0)
(1.01522 0.0207004 0)
(1.02472 0.00901236 0)
(1.02294 -0.0237553 0)
(0.987555 0.00537453 0)
(0.992319 0.0368087 0)
(1.02382 0.0217357 0)
(1.02827 0.00872759 0)
(1.01626 0.0135573 0)
(1.02065 0.0148544 0)
(1.0252 0.00959849 0)
(1.02513 0.00603219 0)
(1.02037 0.00585486 0)
(1.02162 0.00547275 0)
(1.01917 0.00429594 0)
(1.03667 0.00944438 0)
(1.03895 0.00695758 0)
(1.0398 0.00378499 0)
(1.03939 0.00125359 0)
(1.03895 -0.00263233 0)
(1.03682 -0.0051717 0)
(1.03561 -0.00900234 0)
(1.03196 -0.0120391 0)
(1.02899 -0.0143511 0)
(1.02476 -0.0176027 0)
(1.01836 -0.0165843 0)
(1.01463 -0.0178746 0)
(1.00626 -0.0119394 0)
(1.00499 -0.0090356 0)
(0.999807 0.00133615 0)
(1.00812 0.00998538 0)
(1.01435 0.00781575 0)
(1.02053 0.0113678 0)
(1.0288 -0.00314874 0)
(1.0184 -0.00461708 0)
(1.01933 -0.0108168 0)
(1.00268 -0.0122489 0)
(0.997601 0.00872147 0)
(1.00946 0.00675952 0)
(1.01171 0.0144226 0)
(1.02511 0.008548 0)
(1.01696 -0.0102331 0)
(0.994655 0.00937591 0)
(1.00726 0.0257388 0)
(1.02363 0.0160916 0)
(1.02315 0.0117771 0)
(1.02012 0.0143335 0)
(1.02589 0.0127971 0)
(1.02835 0.00905554 0)
(1.02768 0.00683136 0)
(1.02546 0.00629261 0)
(1.02664 0.00563049 0)
(1.02525 0.00471854 0)
(1.03156 0.00837609 0)
(1.0333 0.00630342 0)
(1.03381 0.00412633 0)
(1.03377 0.00193911 0)
(1.03291 -0.000680648 0)
(1.03178 -0.00279014 0)
(1.0301 -0.00537953 0)
(1.02811 -0.00744668 0)
(1.02536 -0.00907739 0)
(1.0229 -0.0109122 0)
(1.01872 -0.0104858 0)
(1.01623 -0.010933 0)
(1.01128 -0.00773498 0)
(1.01041 -0.00564649 0)
(1.00751 -0.000460055 0)
(1.01153 0.00412802 0)
(1.01419 0.00361204 0)
(1.0178 0.00602439 0)
(1.02183 -0.00185604 0)
(1.01561 -0.00205684 0)
(1.01713 -0.00581247 0)
(1.00672 -0.00645693 0)
(1.00565 0.00560962 0)
(1.01117 0.00442882 0)
(1.01081 0.0104239 0)
(1.02048 0.00689631 0)
(1.01431 -0.00432382 0)
(1.00362 0.00851222 0)
(1.01322 0.01868 0)
(1.02022 0.0136254 0)
(1.02053 0.0115709 0)
(1.02189 0.0125764 0)
(1.02622 0.0108997 0)
(1.02776 0.0085115 0)
(1.02755 0.00684852 0)
(1.02668 0.00607273 0)
(1.0275 0.00540767 0)
(1.02674 0.00477124 0)
(1.02719 0.00748175 0)
(1.0285 0.00591054 0)
(1.02884 0.00436911 0)
(1.02889 0.00264414 0)
(1.02808 0.000840691 0)
(1.0275 -0.000786788 0)
(1.026 -0.00253266 0)
(1.02492 -0.003953 0)
(1.02275 -0.00517577 0)
(1.02141 -0.00617997 0)
(1.01858 -0.00626866 0)
(1.01714 -0.00635195 0)
(1.01407 -0.00482446 0)
(1.01346 -0.00351711 0)
(1.01174 -0.000936397 0)
(1.0135 0.0014668 0)
(1.01431 0.00158356 0)
(1.01595 0.00287347 0)
(1.01813 -0.000846595 0)
(1.01445 -0.000577884 0)
(1.01586 -0.00221159 0)
(1.00979 -0.00214044 0)
(1.00947 0.00412517 0)
(1.0121 0.00377649 0)
(1.01158 0.00732745 0)
(1.01818 0.00640394 0)
(1.014 0.00134911 0)
(1.00863 0.00852935 0)
(1.01484 0.0137371 0)
(1.01866 0.011837 0)
(1.01987 0.0114498 0)
(1.02194 0.0117982 0)
(1.02493 0.0100533 0)
(1.02651 0.0083076 0)
(1.02682 0.00703764 0)
(1.02658 0.00616292 0)
(1.02707 0.00555381 0)
(1.02675 0.00504052 0)
(1.02354 0.00673052 0)
(1.02446 0.00563249 0)
(1.02475 0.00444863 0)
(1.02481 0.00325757 0)
(1.02425 0.00189952 0)
(1.02394 0.000813024 0)
(1.02282 -0.000517672 0)
(1.02222 -0.00140391 0)
(1.02065 -0.00241064 0)
(1.01997 -0.0029987 0)
(1.01811 -0.00329427 0)
(1.01732 -0.00338511 0)
(1.01534 -0.0026591 0)
(1.01496 -0.0021072 0)
(1.01377 -0.000661832 0)
(1.0144 0.00031138 0)
(1.01454 0.000743677 0)
(1.01501 0.00147967 0)
(1.01617 -9.85582e-05 0)
(1.01395 0.00036835 0)
(1.01474 -0.000391367 0)
(1.01164 3.07562e-05 0)
(1.01155 0.00311536 0)
(1.01289 0.00352476 0)
(1.01238 0.00556371 0)
(1.01602 0.00543676 0)
(1.0139 0.00314267 0)
(1.01218 0.00719624 0)
(1.01576 0.0105778 0)
(1.01773 0.0101266 0)
(1.01919 0.00998138 0)
(1.02144 0.0101671 0)
(1.02366 0.00889642 0)
(1.02527 0.00762373 0)
(1.02585 0.00658099 0)
(1.02608 0.00573976 0)
(1.02636 0.00523911 0)
(1.02639 0.0048869 0)
(1.02046 0.00606418 0)
(1.02114 0.00535919 0)
(1.0214 0.00440418 0)
(1.02147 0.00366642 0)
(1.02114 0.00256719 0)
(1.02097 0.00192359 0)
(1.02026 0.00082152 0)
(1.01991 0.000335277 0)
(1.01889 -0.000548881 0)
(1.01853 -0.000872912 0)
(1.01736 -0.00126936 0)
(1.01695 -0.00142209 0)
(1.01566 -0.00107917 0)