/*--------------------------------*- C++ -*----------------------------------*\
| =========                 |                                                 |
| \\      /  F ield         | OpenFOAM: The Open Source CFD Toolbox           |
|  \\    /   O peration     | Version:  2312                                  |
|   \\  /    A nd           | Website:  www.openfoam.com                      |
|    \\/     M anipulation  |                                                 |
\*---------------------------------------------------------------------------*/
FoamFile
{
    version     2.0;
    format      ascii;
    arch        "LSB;label=32;scalar=64";
    class       volScalarField;
    location    "5";
    object      p;
}
// * * * * * * * * * * * * * * * * * * * * * * * * * * * * * * * * * * * * * //

dimensions      [0 2 -2 0 0 0 0];

internalField   nonuniform List<scalar> 
2300
(
-0.456705
-0.432368
-0.422177
-0.436555
-0.452759
-0.437363
-0.379945
-0.306851
-0.234333
-0.172118
-0.471994
-0.4437
-0.428089
-0.416487
-0.401744
-0.370623
-0.321409
-0.265902
-0.213009
-0.169864
-0.517111
-0.479661
-0.442179
-0.403198
-0.364034
-0.323243
-0.279388
-0.234244
-0.191504
-0.152445
-0.539876
-0.506818
-0.443794
-0.383973
-0.332078
-0.285928
-0.243168
-0.203633
-0.167635
-0.135062
-0.553857
-0.510234
-0.429495
-0.356071
-0.295948
-0.246411
-0.204779
-0.169147
-0.138253
-0.110405
-0.319688
-0.371701
-0.437037
-0.486192
-0.485757
-0.427252
-0.319566
-0.188904
-0.0724297
0.0149282
-0.401294
-0.443721
-0.510408
-0.572083
-0.592053
-0.550905
-0.444268
-0.296051
-0.163112
-0.0592941
-0.476806
-0.503353
-0.563305
-0.632922
-0.677428
-0.654864
-0.550288
-0.397573
-0.256683
-0.145658
-0.496069
-0.500848
-0.535198
-0.588598
-0.635784
-0.632624
-0.54452
-0.409397
-0.28471
-0.184429
-0.473921
-0.45549
-0.45673
-0.489563
-0.532414
-0.529881
-0.460982
-0.359549
-0.263915
-0.185939
0.0691583
0.0900664
0.0893922
0.0783594
0.0640152
0.050727
0.0402515
0.0323274
0.0272487
0.0233104
0.0202509
0.0179577
0.0162078
0.014855
0.013788
0.012917
0.0121669
0.0114699
0.0107599
0.00998385
0.00904041
0.00790267
0.00633531
0.0043823
0.00173666
0.0145703
0.0536713
0.0684653
0.0667386
0.0585272
0.0489977
0.0406697
0.0343678
0.028769
0.0247349
0.0214215
0.0189628
0.0170629
0.0155848
0.0144201
0.0134706
0.0126506
0.0118877
0.0111144
0.0102733
0.00927593
0.00807336
0.0064669
0.00443675
0.00169647
-0.0673378
-0.0067004
0.0295508
0.0433184
0.0448567
0.0411698
0.0360796
0.0314532
0.0276126
0.0244511
0.0216052
0.0194074
0.0175827
0.0161267
0.0149512
0.013967
0.0131002
0.0122848
0.0114609
0.0105671
0.00952867
0.0082719
0.0066287
0.00452652
0.00168856
-0.114997
-0.0589164
-0.0111279
0.0173818
0.0312402
0.035538
0.0344428
0.0314533
0.028179
0.0249597
0.0221465
0.0201414
0.0182703
0.0167607
0.0155339
0.0144945
0.0135728
0.0127011
0.0118268
0.0108794
0.00979488
0.00848448
0.00680434
0.0046329
0.00170893
-0.139384
-0.0981181
-0.0570228
-0.0211944
0.00272082
0.0168847
0.0234969
0.0255901
0.0253143
0.0239366
0.022498
0.0205639
0.0187544
0.0172956
0.0160664
0.0149953
0.0140282
0.0131115
0.0121851
0.011193
0.0100752
0.00871834
0.00700186
0.00476726
0.00177488
-0.126306
-0.103352
-0.0631187
-0.0288128
-0.00465311
0.0102481
0.0181359
0.0217479
0.0230842
0.0229587
0.0219765
0.0213537
0.0190689
0.017687
0.0165021
0.0154343
0.0144494
0.0135034
0.0125419
0.0115185
0.010359
0.00896834
0.00719425
0.00491939
0.00188669
-0.099622
-0.0850117
-0.0550753
-0.0279204
-0.00752355
0.00609932
0.0137125
0.0177951
0.0201253
0.0210111
0.0206672
0.0191263
0.0187451
0.017772
0.0167478
0.0157517
0.014788
0.0138331
0.0128482
0.0117902
0.010584
0.00915579
0.00733125
0.00502911
0.00195566
-0.0757629
-0.06952
-0.0496995
-0.0284361
-0.0107107
0.00231905
0.00987135
0.0143315
0.0176079
0.01953
0.0198794
0.019262
0.0187231
0.0179355
0.0170369
0.0161006
0.015156
0.0141931
0.0131826
0.0120828
0.010821
0.00934584
0.00746464
0.00512057
0.00200079
-0.0527038
-0.0517659
-0.0394984
-0.0241936
-0.0102539
0.00119552
0.00807431
0.0121704
0.0156288
0.0180889
0.0189491
0.0188436
0.0185842
0.0180809
0.0173351
0.0164789
0.015563
0.0145947
0.0135536
0.0124071
0.0110899
0.00956607
0.00762599
0.00523183
0.00205781
-0.0317569
-0.0342087
-0.0278925
-0.0179915
-0.00772181
0.00178831
0.00769124
0.0110373
0.0142512
0.0170773
0.0184769
0.0187809
0.0187719
0.0183365
0.0176962
0.016904
0.0160124
0.0150356
0.0139606
0.0127676
0.0113954
0.00981867
0.00781751
0.00536622
0.00212555
-0.014435
-0.018152
-0.015657
-0.0100755
-0.00324565
0.00409735
0.00884495
0.0112638
0.0138406
0.0164641
0.0179424
0.0184907
0.0184605
0.0183646
0.0179501
0.0172958
0.0164678
0.0155003
0.0143999
0.0131625
0.0117332
0.0100985
0.00803401
0.0055176
0.00219623
0.000517389
-0.00354611
-0.00323684
-0.000804321
0.00312484
0.00844881
0.011991
0.0133997
0.0151824
0.0174589
0.0188812
0.0193522
0.0197233
0.0195183
0.0189903
0.018209
0.0172542
0.0161728
0.0149723
0.0136464
0.0121349
0.0104265
0.00828979
0.00569636
0.00227915
0.0117981
0.0075065
0.0066235
0.00712643
0.00891997
0.0125011
0.0148198
0.0151621
0.0159663
0.0175324
0.0185467
0.0186461
0.018812
0.0187716
0.0184307
0.0178564
0.0170885
0.0161494
0.0150485
0.0137877
0.0123156
0.0106166
0.00847715
0.00582946
0.002327
0.0247738
0.0210766
0.0195396
0.0183565
0.018198
0.0202907
0.0215892
0.021004
0.0209176
0.0218611
0.0226621
0.0232772
0.0227817
0.0222319
0.0215263
0.0206093
0.0195141
0.0182701
0.0168842
0.015351
0.0136114
0.0116574
0.00923866
0.00642915
0.00258812
0.0279489
0.0240784
0.0227185
0.0217859
0.0214366
0.0228721
0.0234726
0.0222258
0.0213702
0.0214549
0.0212019
0.0207161
0.0203534
0.0198703
0.019234
0.0184526
0.0175322
0.0164663
0.0152468
0.0138591
0.0122735
0.010442
0.00823528
0.00546851
0.00216496
0.0435536
0.0404654
0.038389
0.0356323
0.0332771
0.0334467
0.0333849
0.0314747
0.0298537
0.0294019
0.0292919
0.028388
0.027388
0.0263723
0.0252483
0.0239863
0.0225993
0.021093
0.0194769
0.0177148
0.0158009
0.0136289
0.0110465
0.00792572
0.00329569
0.0394652
0.0361726
0.0348859
0.033506
0.0322961
0.0326641
0.0323264
0.0301838
0.0281558
0.0271495
0.0260412
0.0247658
0.0234844
0.0222656
0.0210487
0.0197965
0.0184942
0.0171073
0.0156313
0.0139854
0.012245
0.0101643
0.00795785
0.0052173
0.00188543
0.0558144
0.0529025
0.0505001
0.0474629
0.0446428
0.0438952
0.0431618
0.0408112
0.0384906
0.0369993
0.0356229
0.034013
0.032327
0.0306489
0.0289443
0.0271852
0.0253899
0.0235084
0.0216423
0.0195046
0.0176095
0.0148176
0.0126078
0.00868448
0.00333837
0.0502593
0.0477057
0.046114
0.0440178
0.0418883
0.0412487
0.04038
0.038012
0.0355139
0.0336516
0.0319223
0.0300184
0.02811
0.0262761
0.0244843
0.0226996
0.0209319
0.0191002
0.0173279
0.0152477
0.0135602
0.0108233
0.00923144
0.0054973
0.00193548
0.0589619
0.0564658
0.0541471
0.0513511
0.0488923
0.0477992
0.0465959
0.0441921
0.041645
0.0395747
0.0376309
0.0355613
0.0334553
0.0313731
0.0293182
0.0272273
0.0252132
0.0229498
0.0211867
0.0182132
0.0177364
0.012501
0.0138421
0.00672941
0.00240699
-0.0852582
-0.10347
-0.112954
-0.127021
-0.12112
-0.0619079
-0.0720667
-0.0773895
-0.0859969
-0.0934351
-0.0402952
-0.0453228
-0.0518305
-0.0591718
-0.069528
-0.0235949
-0.0259475
-0.0325691
-0.0380951
-0.0453793
-0.00878237
-0.0100719
-0.015071
-0.018992
-0.0240447
0.00380288
0.00333605
-1.32935e-05
-0.00369519
-0.00777691
0.0149117
0.0146702
0.0121359
0.00870509
0.00578901
0.0241714
0.0241103
0.0220105
0.0190442
0.0166536
0.0333991
0.0332889
0.0314878
0.02927
0.0280084
0.039418
0.0397025
0.0379965
0.0349774
0.0323307
0.0495834
0.0494164
0.047742
0.0460275
0.0456138
0.0507549
0.050552
0.0487339
0.0458463
0.0432548
0.0624734
0.0621784
0.0606792
0.0589018
0.057928
0.0603764
0.0594705
0.0575853
0.0550406
0.0529363
0.0675937
0.0668455
0.0652377
0.0631536
0.0612915
0.073973
0.0758085
0.0755018
0.0727783
0.0654004
0.051432
0.0263251
-0.0153564
-0.081296
-0.209701
0.0354142
0.030793
0.0212707
0.00792571
-0.0111699
-0.0387718
-0.0798581
-0.142323
-0.226411
-0.378622
-0.00547118
-0.0169724
-0.0339655
-0.0551986
-0.0831634
-0.121012
-0.174021
-0.251564
-0.350994
-0.494232
-0.0432812
-0.0619687
-0.0848863
-0.112218
-0.147097
-0.192062
-0.252516
-0.336351
-0.43939
-0.555324
-0.0795977
-0.102879
-0.129578
-0.161254
-0.200635
-0.249821
-0.312818
-0.394924
-0.490251
-0.567535
0.212883
0.236804
0.264624
0.297097
0.334596
0.376816
0.422463
0.470189
0.512629
0.545993
0.20524
0.225932
0.250674
0.280198
0.314051
0.351328
0.39056
0.430208
0.462085
0.482561
0.186256
0.201316
0.221003
0.245222
0.272282
0.300569
0.328011
0.352454
0.363449
0.359263
0.157644
0.166416
0.180174
0.196864
0.213811
0.229271
0.240745
0.245256
0.230123
0.187736
0.117793
0.121481
0.130135
0.138276
0.143428
0.144033
0.137063
0.118557
0.0760696
-0.0114506
0.0513567
0.0524856
0.0543891
0.0574362
0.0609378
0.0664783
0.0713131
0.080177
0.087775
0.100097
0.112631
0.128568
0.146177
0.166944
0.189592
0.0550682
0.0560974
0.057693
0.0605435
0.0638422
0.069168
0.0737791
0.0822428
0.0893524
0.101241
0.112827
0.128344
0.145706
0.165427
0.18534
0.0587037
0.0596256
0.0609146
0.0635565
0.0666808
0.0718084
0.0763136
0.0846136
0.0918395
0.104093
0.114614
0.129291
0.142619
0.159116
0.173017
0.0622728
0.0630529
0.0640511
0.0664652
0.0693348
0.0740866
0.0782187
0.085628
0.0917288
0.102624
0.112234
0.124753
0.134903
0.146809
0.153398
0.0657819
0.0663271
0.0669941
0.0691671
0.0719437
0.0765657
0.0807185
0.0881325
0.094948
0.104885
0.111804
0.122535
0.124721
0.130577
0.123778
0.069154
0.0695137
0.0699788
0.0717685
0.0740772
0.0781419
0.08189
0.0881339
0.0937578
0.100343
0.105282
0.11061
0.108838
0.10408
0.0912009
0.0726372
0.0727273
0.0728535
0.0742054
0.0760431
0.079516
0.0824312
0.087308
0.0918677
0.0949141
0.098916
0.098976
0.0951171
0.0874061
0.0762339
0.0766174
0.0763788
0.0761317
0.0770031
0.078223
0.0809947
0.0829645
0.0865164
0.0895638
0.0898231
0.0920372
0.0892856
0.0828683
0.0748505
0.064005
0.0811884
0.0805993
0.0798847
0.0801173
0.0805878
0.0824995
0.0832926
0.0853373
0.0868685
0.0846491
0.0851581
0.0809658
0.0723812
0.065031
0.0557377
0.086483
0.0854591
0.0841255
0.0836843
0.0832491
0.0842217
0.0837025
0.0843338
0.0842973
0.0801982
0.0792261
0.0742408
0.064941
0.058388
0.0505369
0.0926632
0.0910989
0.088981
0.0874761
0.0860351
0.0858784
0.0839673
0.0833836
0.0816915
0.076246
0.0742206
0.0689913
0.0597423
0.0540314
0.0476535
0.0998811
0.0976511
0.0946558
0.0924068
0.0896877
0.088382
0.0851559
0.0832281
0.0806756
0.0744194
0.0717454
0.0666369
0.0578702
0.0530293
0.0479886
0.108572
0.105241
0.100833
0.0968441
0.0930544
0.0904843
0.0859742
0.0829621
0.0791869
0.0724675
0.0694906
0.0647027
0.0566533
0.052669
0.0488051
0.119021
0.114851
0.109208
0.104306
0.0988165
0.0949091
0.089384
0.0854475
0.0812874
0.0744048
0.071363
0.0669951
0.0596064
0.0563005
0.0532454
0.132126
0.124808
0.116488
0.109395
0.103006
0.0978907
0.0913734
0.086658
0.0819793
0.0752128
0.0720732
0.0679205
0.0613272
0.0586818
0.0563671
0.149579
0.141111
0.130332
0.1214
0.112615
0.105808
0.098326
0.0926252
0.0874089
0.0805814
0.0771506
0.0734283
0.0673316
0.0648011
0.0628683
0.170499
0.152819
0.136752
0.126798
0.117561
0.109696
0.101512
0.0952693
0.0898395
0.0832438
0.0799084
0.0762712
0.0707003
0.068441
0.0666235
0.212705
0.185743
0.165531
0.147383
0.1333
0.122443
0.112531
0.104816
0.098329
0.091533
0.087427
0.0834923
0.0783881
0.075859
0.0739528
0.241253
0.193985
0.166779
0.150861
0.137274
0.125692
0.115457
0.107279
0.10066
0.0940604
0.0895844
0.0857064
0.0809118
0.0780702
0.0760639
0.39521
0.245271
0.202512
0.176642
0.155738
0.139284
0.126165
0.116127
0.108141
0.100999
0.0957988
0.0913134
0.0866966
0.083615
0.0811638
0.0688496
0.034376
-0.00356996
-0.0341912
-0.0635925
0.0583327
0.0276619
-0.00624785
-0.0295426
-0.0488187
0.0487056
0.0257952
-0.000681831
-0.0182439
-0.0308451
0.0415287
0.0231778
0.00441125
-0.0091701
-0.0174111
0.0376313
0.0231351
0.0108016
0.00155968
-0.00397557
0.036266
0.0250334
0.0171751
0.0113474
0.00738135
0.0381881
0.0294619
0.0242987
0.0206531
0.0177169
0.0404883
0.0338106
0.0306159
0.0284596
0.0263205
0.0460235
0.0405571
0.0382748
0.0367529
0.0351226
0.0503455
0.0459095
0.0439469
0.0422619
0.0406435
0.0576623
0.0538338
0.0526104
0.0517852
0.0507261
0.0619486
0.0583249
0.0562688
0.0541351
0.0521057
0.0701457
0.0671558
0.0657574
0.0645568
0.0633931
0.0726621
0.0695746
0.0673456
0.0647934
0.0621949
0.0779995
0.0751501
0.0729036
0.0706945
0.068805
-0.467041
-0.485709
-0.532163
-0.556373
-0.573353
-0.444086
-0.457302
-0.495035
-0.524048
-0.529995
-0.432738
-0.442011
-0.457826
-0.461499
-0.449099
-0.445759
-0.42962
-0.418729
-0.401918
-0.375507
-0.460504
-0.41353
-0.379326
-0.350107
-0.315453
-0.444205
-0.381759
-0.338623
-0.304135
-0.266319
-0.387468
-0.333461
-0.295499
-0.261984
-0.225317
-0.316442
-0.279738
-0.251606
-0.223404
-0.190606
-0.246471
-0.228647
-0.21059
-0.188896
-0.16086
-0.186921
-0.187544
-0.173437
-0.157988
-0.134256
-0.327946
-0.418423
-0.490298
-0.505557
-0.48322
-0.379094
-0.45833
-0.513706
-0.507037
-0.463237
-0.444474
-0.524547
-0.571162
-0.536712
-0.461818
-0.494457
-0.587806
-0.640257
-0.587046
-0.492972
-0.495351
-0.611385
-0.685763
-0.634456
-0.53451
-0.437499
-0.574322
-0.665331
-0.632516
-0.531326
-0.329991
-0.469726
-0.560757
-0.546077
-0.463656
-0.198231
-0.311502
-0.408491
-0.414235
-0.365518
-0.080772
-0.179679
-0.269895
-0.293702
-0.273428
0.00825329
-0.075169
-0.160376
-0.196928
-0.198564
0.0630562
-0.00135069
-0.0834607
-0.12935
-0.153257
0.0850696
0.0397525
-0.023599
-0.0753332
-0.113506
0.0851429
0.0569023
0.0141188
-0.0277049
-0.0732329
0.074629
0.0567391
0.0294371
0.00162821
-0.0373408
0.0610493
0.0500198
0.0326237
0.016161
-0.0135985
0.0484353
0.0419424
0.0308735
0.0219098
0.000902833
0.0386011
0.0347903
0.0276534
0.0227972
0.00921501
0.031412
0.0289724
0.0242487
0.0214775
0.0131565
0.0262416
0.0244079
0.0211299
0.0193508
0.0141917
0.0223204
0.020858
0.0184815
0.0171761
0.0138224
0.019341
0.0181465
0.0163623
0.0152597
0.013092
0.0171106
0.0161026
0.0147226
0.0137633
0.0122777
0.0154266
0.0145585
0.013457
0.0126172
0.0115167
0.0141442
0.0133878
0.0124841
0.011749
0.01088
0.0131502
0.0124887
0.0117344
0.0110948
0.0103806
0.0123513
0.0117749
0.0111399
0.0105878
0.00999164
0.0116707
0.0111716
0.0106383
0.0101662
0.00966524
0.0110423
0.0106151
0.0101675
0.00977002
0.00935817
0.0103985
0.0100412
0.0096719
0.00934628
0.00900543
0.00968639
0.00939647
0.00910582
0.00884908
0.00856552
0.00879887
0.00856478
0.00834081
0.00814296
0.00791524
0.00772927
0.00756079
0.00740322
0.00726283
0.00709094
0.00620332
0.00607388
0.0059551
0.00584982
0.00573517
0.00433152
0.00428086
0.00422799
0.00416749
0.00409704
0.00178242
0.001824
0.00184789
0.00183862
0.00179051
-0.142465
-0.11647
-0.0946234
-0.0746251
-0.0579507
-0.0450325
-0.0352412
-0.0281424
-0.0255358
-0.0193897
-0.0241422
-0.0154952
-0.0253642
-0.0176544
-0.0237139
-0.119398
-0.101802
-0.0874213
-0.0721716
-0.0581097
-0.0458745
-0.0360152
-0.02821
-0.0253058
-0.018169
-0.0233852
-0.0139332
-0.0241066
-0.0163116
-0.0224059
-0.0802342
-0.0733489
-0.0694552
-0.061658
-0.0528135
-0.0438073
-0.0357154
-0.028432
-0.0255828
-0.0181599
-0.0232442
-0.0136708
-0.0231306
-0.0156715
-0.0211594
-0.0458186
-0.0454865
-0.0477492
-0.0454649
-0.041613
-0.0365704
-0.0313663
-0.025726
-0.0235727
-0.0168457
-0.0213581
-0.0126679
-0.0211705
-0.0143342
-0.0193806
-0.0219492
-0.0252824
-0.029798
-0.0306231
-0.030141
-0.0282257
-0.0256338
-0.0219162
-0.0209055
-0.0154109
-0.0193455
-0.0120282
-0.0195719
-0.0133063
-0.0181614
-0.00748934
-0.0131706
-0.0186427
-0.0214181
-0.0229623
-0.0231046
-0.0223545
-0.020178
-0.0201951
-0.0155984
-0.019428
-0.0127154
-0.0197107
-0.0135118
-0.0180794
0.00173919
-0.00447815
-0.0102091
-0.0142591
-0.0170688
-0.0185463
-0.0190217
-0.0179487
-0.0187793
-0.0148022
-0.0189491
-0.0123451
-0.019424
-0.0131526
-0.0176028
0.00745112
0.00217081
-0.0028851
-0.00714615
-0.0104706
-0.0127634
-0.0141312
-0.0139694
-0.0155391
-0.0122139
-0.0166747
-0.0104444
-0.0176284
-0.0115607
-0.0161017
0.0101145
0.00596378
0.00182175
-0.00200291
-0.00528677
-0.00793133
-0.00986575
-0.0104123
-0.0125945
-0.0098924
-0.0145234
-0.00882373
-0.015812
-0.0100528
-0.014542
0.0108993
0.00763258
0.00426528
0.000976291
-0.00205783
-0.00473228
-0.00691935
-0.00791334
-0.0105208
-0.00832325
-0.0130849
-0.00781123
-0.0145657
-0.0090128
-0.0133237
0.010927
0.00841573
0.00574429
0.00301526
0.000340677
-0.00216668
-0.00438671
-0.00560424
-0.00846589
-0.00665972
-0.0115649
-0.00662806
-0.0132962
-0.00789563
-0.012093
0.0106623
0.00877491
0.00670627
0.00452093
0.00226333
4.23635e-05
-0.00206033
-0.00333375
-0.00630004
-0.00477554
-0.00978925
-0.00514674
-0.0117932
-0.00654829
-0.0106978
0.0102816
0.00885156
0.00724622
0.00551319
0.0036493
0.00174615
-0.00015578
-0.00137312
-0.00431897
-0.00296884
-0.00802021
-0.00361302
-0.0102247
-0.00511806
-0.00922375
0.00990458
0.00880226
0.00753872
0.00615647
0.00462832
0.00302257
0.00135229
0.000250839
-0.00258332
-0.00132047
-0.00634238
-0.0020999
-0.00866343
-0.00365692
-0.00771352
0.00959252
0.00872712
0.00771985
0.00660966
0.00536038
0.00401831
0.00258272
0.00162078
-0.00104009
0.000197671
-0.00473875
-0.000595605
-0.00710386
-0.00215691
-0.00617137
0.00934466
0.00865323
0.00784152
0.00694296
0.00592239
0.00480856
0.00359608
0.00277527
0.000329184
0.00158306
-0.00321904
0.000883528
-0.00555383
-0.000622361
-0.00458275
0.00913169
0.0085722
0.00791179
0.00718091
0.0063479
0.00542944
0.00442092
0.00372959
0.00152626
0.00281829
-0.00180901
0.00230187
-0.00405102
0.000905528
-0.00301937
0.00891896
0.00846077
0.00792174
0.00732796
0.0066505
0.00590012
0.00507461
0.00449551
0.00255587
0.00389273
-0.000522117
0.0036401
-0.00259203
0.0024427
-0.00134528
0.00864532
0.00827234
0.00783888
0.00736103
0.00681615
0.00621264
0.00555024
0.00506549
0.00340549
0.00477554
0.000599117
0.00482888
-0.00129606
0.0038257
-3.72398e-06
0.00826915
0.00797209
0.00762868
0.00724994
0.00682039
0.00634686
0.00583097
0.00543001
0.00406887
0.00545609
0.00156608
0.00589768
1.15105e-05
0.00529953
0.00194529
0.00768574
0.00745946
0.007196
0.00690656
0.00657969
0.00622107
0.00583457
0.00550747
0.00445411
0.00580124
0.0021998
0.00655094
0.000720125
0.00602104
0.0019808
0.00691111
0.00673809
0.00653691
0.00632113
0.00608089
0.00582239
0.00555146
0.00530926
0.0045845
0.00588739
0.00268253
0.00713547
0.00195426
0.00743407
0.0052279
0.00562727
0.00551688
0.00538387
0.00524056
0.00507829
0.00490367
0.00472157
0.0045408
0.00411721
0.00521089
0.00239106
0.00649011
0.00123024
0.00634295
0.0019199
0.00402714
0.00394716
0.00385612
0.00376711
0.00367117
0.003576
0.00348704
0.00340563
0.00321903
0.00426884
0.00200856
0.00590058
0.00244741
0.00675946
0.0066388
0.00173728
0.00168956
0.00163558
0.00159362
0.00155046
0.00151605
0.00149206
0.00148307
0.0014602
0.00186302
0.00098462
0.00295909
0.00115034
0.00410318
0.0025599
-0.110807
-0.089343
-0.0701995
-0.0562535
-0.0448475
-0.0359715
-0.0295384
-0.0248719
-0.0224722
-0.0201819
-0.0222469
-0.0194643
-0.0255722
-0.02232
-0.0269743
-0.128527
-0.0993684
-0.0755759
-0.0595198
-0.0473118
-0.0381663
-0.0318408
-0.02721
-0.0245001
-0.0221962
-0.0237076
-0.0206174
-0.0265087
-0.0225323
-0.0272364
-0.13607
-0.1033
-0.0810425
-0.0643707
-0.049689
-0.0390145
-0.0321354
-0.0271794
-0.0244561
-0.0220582
-0.023454
-0.0199758
-0.0262016
-0.0216318
-0.0266383
-0.146771
-0.10888
-0.0852601
-0.0662467
-0.0503471
-0.039647
-0.0322282
-0.0267664
-0.0242538
-0.0212394
-0.0233696
-0.0187816
-0.0259228
-0.0204067
-0.025799
-0.138347
-0.113517
-0.0922078
-0.0709786
-0.0541177
-0.0425368
-0.0340444
-0.0279854
-0.0255146
-0.0209844
-0.0244578
-0.0177351
-0.026181
-0.0193886
-0.0250165
0.049331
0.0095741
-0.0306605
-0.0680923
-0.104357
0.0511514
0.00497439
-0.0414681
-0.0853232
-0.126117
0.0511161
-0.00425355
-0.0580926
-0.107326
-0.151559
0.0483708
-0.0176718
-0.0794232
-0.134292
-0.182373
0.0405383
-0.0371372
-0.107719
-0.169052
-0.221321
0.0258255
-0.065299
-0.146227
-0.214734
-0.270501
-0.000372085
-0.107159
-0.199906
-0.27588
-0.333762
-0.0436414
-0.170966
-0.278536
-0.360682
-0.41652
-0.111052
-0.256386
-0.379519
-0.464925
-0.512801
-0.24304
-0.410646
-0.523463
-0.581249
-0.590346
0.209609
0.195514
0.17099
0.137593
0.0942318
0.233409
0.216194
0.186346
0.146782
0.098811
0.261295
0.241258
0.206544
0.161202
0.108055
0.293877
0.270929
0.230881
0.177941
0.116178
0.331373
0.304597
0.257552
0.194359
0.12083
0.373466
0.341481
0.285134
0.208965
0.120595
0.418832
0.380051
0.311511
0.219229
0.112364
0.4661
0.418635
0.334399
0.222074
0.0921129
0.507937
0.448992
0.343263
0.204746
0.0476715
0.540612
0.467642
0.336313
0.158668
-0.0438672
0.047578
0.0437613
0.0399268
0.0360797
0.0322256
0.0487924
0.0450528
0.0413046
0.0376149
0.0339689
0.0509891
0.0475411
0.0441082
0.0406639
0.0374558
0.0542205
0.0509302
0.0477485
0.0444436
0.041616
0.0579241
0.054855
0.0519467
0.0489313
0.0464644
0.0636349
0.0605536
0.0576098
0.0543269
0.0518858
0.0685663
0.0656216
0.0630944
0.0602299
0.0585044
0.0778068
0.0746774
0.0721675
0.068109
0.0661737
0.0851177
0.0816017
0.0786787
0.0745209
0.0724853
0.0976006
0.0939397
0.0916675
0.0860922
0.0840252
0.110027
0.105487
0.101248
0.0942882
0.0895835
0.126125
0.121073
0.116211
0.106851
0.0999326
0.143366
0.136741
0.128132
0.115993
0.101777
0.164446
0.156502
0.145085
0.128007
0.108146
0.186681
0.176016
0.158151
0.133883
0.100418
0.0285404
0.0247544
0.0203612
0.0152343
0.00921179
0.00211143
-0.00628202
-0.0164102
-0.0284978
-0.0434196
-0.0623273
-0.0847844
-0.124557
-0.148937
-0.289134
0.0303825
0.0267714
0.0225247
0.0175406
0.011715
0.00481899
-0.00325694
-0.012731
-0.0244563
-0.0367967
-0.0553775
-0.0704324
-0.101481
-0.114288
-0.157282
0.0339501
0.0304905
0.0263634
0.0215414
0.0158479
0.00926547
0.00122042
-0.00746718
-0.0193182
-0.0275166
-0.0474525
-0.0571443
-0.0832452
-0.0925083
-0.124427
0.0382533
0.0347862
0.0306725
0.0258752
0.0202323
0.0137873
0.00598138
-0.0022328
-0.0130564
-0.0224971
-0.0378746
-0.0481855
-0.0681931
-0.077023
-0.0988643
0.0433618
0.0399608
0.0358817
0.0310638
0.0253659
0.0187953
0.0110406
0.00267673
-0.00751092
-0.0172119
-0.0304134
-0.0405018
-0.05679
-0.0647578
-0.0799733
0.0485424
0.044619
0.0399281
0.0345445
0.0283355
0.0213939
0.013464
0.00508142
-0.00474399
-0.0140393
-0.0259364
-0.0351153
-0.0488924
-0.055692
-0.0669574
0.0553353
0.0512786
0.0465015
0.0407944
0.0340519
0.0264325
0.0178413
0.00893479
-0.00108357
-0.0103024
-0.0215941
-0.03014
-0.0423988
-0.0485266
-0.0575793
0.0615135
0.0560007
0.0495247
0.042403
0.0346375
0.0263691
0.0175155
0.00863387
-0.000981842
-0.00967872
-0.0199241
-0.0276232
-0.0383246
-0.0435498
-0.0510931
0.0677527
0.0616495
0.0544264
0.0462689
0.037126
0.0275747
0.01782
0.00853243
-0.00100948
-0.0093054
-0.0187341
-0.0257679
-0.0351673
-0.0398327
-0.0462248
0.0762566
0.0670658
0.0581744
0.0485547
0.0383948
0.0283562
0.0184103
0.00922912
7.80555e-06
-0.00781902
-0.0166474
-0.0231018
-0.0319284
-0.036182
-0.0420818
0.0791381
0.0689886
0.0575946
0.0454683
0.0338711
0.0233169
0.0134481
0.0048932
-0.00342344
-0.0103271
-0.0178969
-0.0235023
-0.03105
-0.0343887
-0.0395126
0.0845143
0.0695837
0.0552445
0.0424425
0.0304096
0.0197526
0.0101515
0.00225339
-0.00524839
-0.0112801
-0.0179321
-0.0229077
-0.0295623
-0.0325999
-0.0371199
0.0847633
0.067961
0.052782
0.0394385
0.0276295
0.0178426
0.00904462
0.00201967
-0.00470889
-0.0100574
-0.0161511
-0.0206594
-0.0272692
-0.0300277
-0.0346373
0.0791181
0.0585999
0.0431469
0.0292276
0.0182289
0.00967698
0.00226148
-0.00323033
-0.00860773
-0.0128488
-0.0178209
-0.0215443
-0.0273173
-0.0292298
-0.033437
0.0650349
0.0476758
0.032141
0.0191813
0.0095018
0.00222433
-0.00368235
-0.00767622
-0.0117598
-0.0148682
-0.0189105
-0.0219781
-0.0269721
-0.0285819
-0.0322678
0.0440403
0.0325651
0.021499
0.0118741
0.00413202
-0.00132336
-0.00576073
-0.00843275
-0.0114899
-0.0136866
-0.0173651
-0.0198858
-0.0250793
-0.0266911
-0.0305122
0.00917943
-3.80907e-06
-0.00314552
-0.00693003
-0.00929278
-0.0105854
-0.0119421
-0.0123695
-0.0137877
-0.0147484
-0.0178752
-0.0192496
-0.0245337
-0.0254628
-0.0293267
-0.0295414
-0.0339108
-0.0308002
-0.0288638
-0.025566
-0.0224814
-0.020242
-0.0181363
-0.017677
-0.0171243
-0.0197356
-0.0196308
-0.0248053
-0.0248096
-0.028453
-0.0608797
-0.057969
-0.0495302
-0.0436505
-0.0364403
-0.0301438
-0.0253382
-0.0215281
-0.0200406
-0.0183228
-0.0208258
-0.0193822
-0.0248649
-0.0237268
-0.0275117
-0.0899457
-0.0769711
-0.0620489
-0.0515238
-0.0415725
-0.0336917
-0.027791
-0.0232773
-0.0213263
-0.0190055
-0.0214772
-0.0190251
-0.0250342
-0.022641
-0.0269314
)
;

boundaryField
{
    outlet
    {
        type            fixedValue;
        value           uniform 0;
    }
    upperWall
    {
        type            symmetryPlane;
    }
    lowerWall
    {
        type            symmetryPlane;
    }
    inlet
    {
        type            zeroGradient;
    }
    cylinder
    {
        type            zeroGradient;
    }
    frontAndBack
    {
        type            empty;
    }
}


// ************************************************************************* //
