/*--------------------------------*- C++ -*----------------------------------*\
| =========                 |                                                 |
| \\      /  F ield         | OpenFOAM: The Open Source CFD Toolbox           |
|  \\    /   O peration     | Version:  2512                                  |
|   \\  /    A nd           | Website:  www.openfoam.com                      |
|    \\/     M anipulation  |                                                 |
\*---------------------------------------------------------------------------*/
FoamFile
{
    version     2.0;
    format      ascii;
    arch        "LSB;label=32;scalar=64";
    class       surfaceScalarField;
    location    "6";
    object      phi;
}
// * * * * * * * * * * * * * * * * * * * * * * * * * * * * * * * * * * * * * //

dimensions      [0 3 -1 0 0 0 0];

oriented        oriented;

internalField   nonuniform List<scalar> 
19380
(
0.874558
-5.53206e-05
0.87472
-0.000161787
0.874976
-0.000255807
0.875311
-0.000335382
0.875715
-0.000403688
0.876175
-0.000459953
0.876679
-0.000503997
0.87722
-0.000541606
0.877793
-0.00057268
0.87839
-0.000597294
0.879008
-0.000618188
0.879643
-0.000635149
0.880293
-0.00064941
0.880954
-0.000660767
0.881622
-0.000668433
0.882296
-0.000673584
0.882972
-0.000676191
0.883648
-0.000676098
0.884322
-0.000673716
0.884991
-0.00066905
0.885652
-0.000661609
0.886304
-0.000651377
0.886943
-0.000638979
0.887567
-0.000624453
0.888175
-0.000607961
0.888765
-0.000590084
0.889336
-0.000570972
0.889887
-0.00055086
0.890417
-0.000530139
0.890926
-0.000508864
0.891413
-0.000487147
0.891878
-0.000465332
0.892322
-0.000443676
0.892744
-0.000422286
0.893146
-0.000401272
0.893526
-0.000380741
0.893887
-0.00036077
0.894229
-0.000341416
0.894551
-0.00032278
-0.000304977
0.894856
0.844017
-0.000108977
0.844172
-0.000317044
0.844418
-0.000501633
0.844743
-0.000659659
0.845132
-0.00079283
0.845574
-0.000902541
0.846062
-0.000992003
0.846586
-0.00106543
0.847139
-0.00112553
0.847718
-0.00117591
0.848316
-0.00121714
0.848932
-0.00125046
0.849561
-0.00127878
0.850201
-0.00130104
0.85085
-0.00131687
0.851504
-0.00132817
0.852163
-0.00133444
0.852822
-0.00133527
0.85348
-0.00133132
0.854133
-0.00132223
0.854779
-0.00130762
0.855415
-0.00128789
0.85604
-0.00126383
0.856651
-0.00123569
0.857247
-0.00120364
0.857825
-0.00116849
0.858385
-0.00113073
0.858925
-0.00109079
0.859444
-0.00104942
0.859943
-0.00100715
0.86042
-0.000964298
0.860876
-0.000921239
0.86131
-0.000878337
0.861724
-0.0008359
0.862117
-0.000794192
0.86249
-0.000753391
0.862843
-0.000713718
0.863176
-0.000675384
0.863492
-0.000638509
-0.000603209
0.86379
0.814543
-0.000160615
0.814691
-0.000465584
0.814927
-0.000737873
0.815241
-0.000972988
0.815616
-0.001168
0.816042
-0.00132864
0.816512
-0.00146229
0.817017
-0.00157069
0.817552
-0.00166014
0.818112
-0.00173619
0.818694
-0.00179859
0.819293
-0.00184936
0.819905
-0.00189155
0.82053
-0.00192544
0.821164
-0.00195093
0.821805
-0.00196941
0.822451
-0.00198035
0.823099
-0.00198291
0.823745
-0.001978
0.824389
-0.00196546
0.825026
-0.00194503
0.825655
-0.00191706
0.826273
-0.00188205
0.826878
-0.00184065
0.827468
-0.00179364
0.828042
-0.00174198
0.828597
-0.00168625
0.829134
-0.00162719
0.82965
-0.0015658
0.830146
-0.00150282
0.83062
-0.00143883
0.831074
-0.00137442
0.831505
-0.00131018
0.831916
-0.00124665
0.832306
-0.00118429
0.832676
-0.00112338
0.833027
-0.00106416
0.833358
-0.00100681
0.833671
-0.000951576
-0.000898691
0.833967
0.786097
-0.000209675
0.78624
-0.000609283
0.786467
-0.000964615
0.786766
-0.0012721
0.787126
-0.00152819
0.787537
-0.00173941
0.78799
-0.00191475
0.788478
-0.0020589
0.788996
-0.0021788
0.789539
-0.00227922
0.790104
-0.00236267
0.790686
-0.00243221
0.791285
-0.00248987
0.791896
-0.00253658
0.792518
-0.00257338
0.793149
-0.00260046
0.793786
-0.00261733
0.794427
-0.00262398
0.795069
-0.00261997
0.795709
-0.00260514
0.796344
-0.00258023
0.796973
-0.00254536
0.797591
-0.00250044
0.798197
-0.00244677
0.798789
-0.00238555
0.799365
-0.00231759
0.799922
-0.00224409
0.800461
-0.00216617
0.80098
-0.00208482
0.801479
-0.00200112
0.801956
-0.00191603
0.802412
-0.00183034
0.802846
-0.0017448
0.80326
-0.00166007
0.803652
-0.00157671
0.804024
-0.00149518
0.804376
-0.00141592
0.804708
-0.00133926
0.805022
-0.00126542
-0.00119466
0.805318
0.758644
-0.000256266
0.75878
-0.000745714
0.758998
-0.00118232
0.759284
-0.00155813
0.759629
-0.00187335
0.760024
-0.00213433
0.76046
-0.00235011
0.76093
-0.00252919
0.76143
-0.00267897
0.761956
-0.00280466
0.762503
-0.00291045
0.763071
-0.003
0.763656
-0.00307478
0.764256
-0.0031367
0.76487
-0.00318688
0.765493
-0.00322415
0.766125
-0.00324904
0.766763
-0.00326157
0.767403
-0.0032604
0.768044
-0.00324571
0.768681
-0.00321796
0.769313
-0.0031772
0.769937
-0.00312388
0.770549
-0.00305925
0.771148
-0.00298466
0.771732
-0.00290135
0.772299
-0.00281068
0.772846
-0.00271402
0.773374
-0.00261277
0.773882
-0.00250835
0.774368
-0.00240198
0.774832
-0.00229461
0.775274
-0.00218722
0.775695
-0.00208072
0.776094
-0.00197585
0.776472
-0.00187321
0.776829
-0.00177333
0.777167
-0.00167657
0.777485
-0.00158328
-0.00149389
0.777784
0.73215
-0.000300831
0.73228
-0.000874881
0.732486
-0.00138874
0.732759
-0.00183138
0.733088
-0.00220251
0.733466
-0.00251187
0.733884
-0.00276834
0.734337
-0.0029816
0.734819
-0.00316087
0.735326
-0.00331258
0.735858
-0.00344177
0.736411
-0.00355278
0.736982
-0.00364652
0.737571
-0.00372576
0.738176
-0.00379169
0.738794
-0.00384183
0.739422
-0.00387759
0.74006
-0.00389872
0.740702
-0.00390297
0.741347
-0.00389053
0.741991
-0.00386206
0.742631
-0.00381757
0.743265
-0.00375766
0.74389
-0.00368369
0.744502
-0.00359678
0.745099
-0.00349856
0.745679
-0.00339109
0.746241
-0.00327604
0.746784
-0.00315497
0.747305
-0.00302956
0.747804
-0.00290146
0.748282
-0.00277198
0.748737
-0.00264223
0.749169
-0.00251324
0.749579
-0.00238599
0.749967
-0.00226123
0.750334
-0.00213968
0.750679
-0.00202187
0.751004
-0.00190827
-0.00179934
0.751309
0.706581
-0.000342629
0.706705
-0.000998332
0.706899
-0.00158279
0.707157
-0.00208915
0.70747
-0.00251631
0.70783
-0.00287099
0.708228
-0.00316647
0.70866
-0.00341419
0.709123
-0.00362373
0.709613
-0.00380223
0.710127
-0.00395631
0.710665
-0.00409044
0.711224
-0.00420543
0.711802
-0.00430407
0.712399
-0.00438813
0.713012
-0.0044553
0.713639
-0.00450484
0.714277
-0.00453683
0.714924
-0.00454946
0.715576
-0.00454257
0.71623
-0.0045162
0.716883
-0.00447008
0.71753
-0.00440532
0.71817
-0.00432339
0.718799
-0.00422565
0.719414
-0.00411399
0.720014
-0.00399051
0.720595
-0.00385734
0.721157
-0.00371665
0.721697
-0.0035703
0.722216
-0.00342003
0.722712
-0.00326751
0.723184
-0.00311423
0.723632
-0.00296154
0.724057
-0.00281074
0.724458
-0.00266282
0.724837
-0.00251861
0.725194
-0.00237863
0.725529
-0.00224349
-0.0021138
0.725844
0.681905
-0.000381758
0.68202
-0.00111333
0.682203
-0.00176545
0.682446
-0.00233203
0.682742
-0.00281215
0.683082
-0.00321124
0.683459
-0.00354386
0.683871
-0.00382566
0.684313
-0.00406563
0.684782
-0.00427154
0.685278
-0.004452
0.685798
-0.00461094
0.686343
-0.00475003
0.68691
-0.00487184
0.687499
-0.00497677
0.688107
-0.0050635
0.688733
-0.00513083
0.689374
-0.0051775
0.690027
-0.0052023
0.690688
-0.00520417
0.691354
-0.00518231
0.692022
-0.00513748
0.692687
-0.0050707
0.693347
-0.00498293
0.693997
-0.0048761
0.694636
-0.00475236
0.695259
-0.00461382
0.695865
-0.00446302
0.696451
-0.00430253
0.697015
-0.00413466
0.697556
-0.00396164
0.698074
-0.00378548
0.698568
-0.00360794
0.699037
-0.00343063
0.699482
-0.00325512
0.699901
-0.00308256
0.700297
-0.00291405
0.700669
-0.00275035
0.701017
-0.00259222
-0.00244035
0.701344
0.65809
-0.000417708
0.658197
-0.00121993
0.658368
-0.00193649
0.658595
-0.00255913
0.65887
-0.00308773
0.659189
-0.00352994
0.659545
-0.00389963
0.659933
-0.00421414
0.660352
-0.00448453
0.6608
-0.00471919
0.661275
-0.00492761
0.661778
-0.00511327
0.662307
-0.00527882
0.662861
-0.00542668
0.663441
-0.00555592
0.664043
-0.00566581
0.664667
-0.00575486
0.66531
-0.00582041
0.665969
-0.00586108
0.66664
-0.00587571
0.667321
-0.00586279
0.668006
-0.00582296
0.668692
-0.00575707
0.669376
-0.00566605
0.670052
-0.00555203
0.670717
-0.00541759
0.671368
-0.00526522
0.672003
-0.00509765
0.672618
-0.00491785
0.673212
-0.00472848
0.673783
-0.00453224
0.674329
-0.00433165
0.67485
-0.00412891
0.675345
-0.00392567
0.675813
-0.00372384
0.676256
-0.00352491
0.676672
-0.00333029
0.677063
-0.00314091
0.677428
-0.00295777
-0.00278175
0.67777
0.635106
-0.00045032
0.635205
-0.00131813
0.635363
-0.00209471
0.635572
-0.00276872
0.635827
-0.00334279
0.636123
-0.00382543
0.636455
-0.00423177
0.636819
-0.00457847
0.637213
-0.00487853
0.637637
-0.00514267
0.638089
-0.00537936
0.638569
-0.00559359
0.639079
-0.00578909
0.639619
-0.00596607
0.640186
-0.00612363
0.640782
-0.00626144
0.641403
-0.00637627
0.642048
-0.00646532
0.642714
-0.00652668
0.643396
-0.00655813
0.644092
-0.00655839
0.644796
-0.00652751
0.645505
-0.00646601
0.646215
-0.00637522
0.64692
-0.0062571
0.647616
-0.00611431
0.648301
-0.00594971
0.64897
-0.00576644
0.64962
-0.00556792
0.650248
-0.00535726
0.650854
-0.00513756
0.651434
-0.0049117
0.651987
-0.00468246
0.652514
-0.00445182
0.653012
-0.00422193
0.653481
-0.00399461
0.653923
-0.00377171
0.654336
-0.0035544
0.654722
-0.00334398
-0.00314148
0.655082
0.612926
-0.000480372
0.613015
-0.00140673
0.613158
-0.00223798
0.613349
-0.00296027
0.613583
-0.00357665
0.613856
-0.0040979
0.614162
-0.00453836
0.6145
-0.00491604
0.614867
-0.00524522
0.615263
-0.00553872
0.615689
-0.00580575
0.616146
-0.00605061
0.616634
-0.0062775
0.617155
-0.00648672
0.617708
-0.00667671
0.618293
-0.00684645
0.618909
-0.00699253
0.619555
-0.00711062
0.620226
-0.00719757
0.620919
-0.0072513
0.62163
-0.00726967
0.622355
-0.00725242
0.623089
-0.00719994
0.623827
-0.00711319
0.624564
-0.00699414
0.625296
-0.00684589
0.626018
-0.00667168
0.626726
-0.00647473
0.627416
-0.00625859
0.628086
-0.00602688
0.628732
-0.00578338
0.629352
-0.00553143
0.629943
-0.00527432
0.630506
-0.00501461
0.631039
-0.00475482
0.631542
-0.00449705
0.632013
-0.00424356
0.632455
-0.00399578
0.632866
-0.00375539
-0.0035237
0.633248
0.591519
-0.000507136
0.591599
-0.00148596
0.591727
-0.00236641
0.5919
-0.00313321
0.592111
-0.00378784
0.592358
-0.00434429
0.592637
-0.00481761
0.592945
-0.0052243
0.593282
-0.0055825
0.593649
-0.00590565
0.594047
-0.00620319
0.594476
-0.00648034
0.59494
-0.00674087
0.595439
-0.00698588
0.595975
-0.00721284
0.596548
-0.00741909
0.597156
-0.00760094
0.597799
-0.00775326
0.598473
-0.00787158
0.599175
-0.00795345
0.599901
-0.00799583
0.600646
-0.00799779
0.601406
-0.00795949
0.602175
-0.00788181
0.602947
-0.00776675
0.603718
-0.00761698
0.604482
-0.00743577
0.605235
-0.00722689
0.605971
-0.00699453
0.606686
-0.00674267
0.607379
-0.00647557
0.608044
-0.00619699
0.608681
-0.00591092
0.609287
-0.00562056
0.609861
-0.00532893
0.610402
-0.00503833
0.61091
-0.00475157
0.611385
-0.00447043
0.611826
-0.00419706
-0.003933
0.612236
0.57086
-0.000530331
0.57093
-0.00155616
0.571043
-0.00247948
0.571196
-0.00328567
0.571384
-0.00397605
0.571604
-0.00456457
0.571854
-0.00506732
0.572131
-0.0055011
0.572435
-0.00588722
0.57277
-0.00624007
0.573135
-0.00656845
0.573534
-0.00687932
0.573969
-0.00717621
0.574443
-0.00745985
0.574958
-0.00772768
0.575514
-0.00797534
0.576111
-0.00819776
0.576748
-0.0083898
0.577422
-0.00854581
0.57813
-0.00866198
0.57887
-0.00873488
0.579635
-0.00876297
0.580421
-0.00874534
0.581221
-0.00868258
0.582031
-0.00857645
0.582844
-0.00842956
0.583653
-0.0082454
0.584454
-0.00802794
0.585242
-0.00778175
0.58601
-0.00751124
0.586756
-0.0072213
0.587475
-0.00691608
0.588164
-0.00660022
0.588821
-0.00627753
0.589444
-0.00595193
0.590032
-0.00562594
0.590583
-0.00530295
0.591098
-0.00498517
0.591576
-0.00467525
-0.00437513
0.592018
0.550922
-0.000550155
0.550982
-0.00161641
0.55108
-0.00257696
0.551212
-0.00341776
0.551376
-0.00414035
0.551569
-0.00475708
0.551787
-0.00528561
0.552031
-0.00574557
0.552302
-0.00615821
0.552601
-0.00653917
0.552932
-0.00689885
0.553297
-0.00724456
0.5537
-0.00757961
0.554145
-0.00790456
0.554634
-0.00821638
0.555168
-0.00850962
0.555748
-0.00877787
0.556374
-0.00901553
0.557044
-0.00921594
0.557756
-0.00937379
0.558506
-0.00948456
0.559289
-0.00954594
0.560099
-0.00955599
0.560932
-0.00951511
0.56178
-0.00942445
0.562636
-0.00928623
0.563495
-0.00910431
0.56435
-0.00888271
0.565195
-0.00862621
0.566023
-0.00833946
0.566829
-0.008028
0.56761
-0.00769658
0.56836
-0.00735053
0.569077
-0.00699419
0.569757
-0.00663242
0.5704
-0.00626833
0.571003
-0.0059058
0.571565
-0.00554758
0.572087
-0.00519707
-0.00485662
0.572568
0.53168
-0.000566116
0.53173
-0.00166689
0.531813
-0.00265934
0.531924
-0.00352887
0.532063
-0.00427996
0.532227
-0.00492133
0.532413
-0.00547161
0.532623
-0.00595461
0.532856
-0.00639216
0.533118
-0.00680081
0.533411
-0.00719202
0.533739
-0.00757271
0.534107
-0.00794701
0.534518
-0.00831535
0.534975
-0.00867406
0.535483
-0.00901687
0.536041
-0.00933628
0.536651
-0.0096259
0.537313
-0.00987736
0.538023
-0.0100844
0.53878
-0.0102408
0.539577
-0.0103434
0.54041
-0.0103892
0.541274
-0.0103784
0.54216
-0.0103111
0.543063
-0.0101892
0.543975
-0.0100162
0.544888
-0.009796
0.545796
-0.00953372
0.546691
-0.00923424
0.547566
-0.00890366
0.548417
-0.00854713
0.549237
-0.00817086
0.550023
-0.00777988
0.550771
-0.00737995
0.551477
-0.00697512
0.552141
-0.00656972
0.552761
-0.00616707
0.553335
-0.0057714
-0.00538563
0.553864
0.513109
-0.000578377
0.51315
-0.00170779
0.513216
-0.00272557
0.513307
-0.00361899
0.513422
-0.00439498
0.513557
-0.0050569
0.513711
-0.00562524
0.513884
-0.00612819
0.514081
-0.00658852
0.514303
-0.00702301
0.514555
-0.00744399
0.514841
-0.00785926
0.515168
-0.008274
0.515541
-0.00868755
0.515963
-0.0090959
0.516438
-0.00949218
0.516969
-0.0098676
0.517558
-0.010215
0.518205
-0.0105238
0.518908
-0.0107874
0.519665
-0.0109981
0.520472
-0.011151
0.521325
-0.0112422
0.522218
-0.0112705
0.523142
-0.0112358
0.524092
-0.011139
0.525059
-0.0109831
0.526034
-0.0107715
0.52701
-0.0105096
0.527978
-0.0102023
0.528931
-0.00985615
0.52986
-0.00947681
0.530761
-0.00907135
0.531626
-0.00864542
0.532452
-0.00820582
0.533235
-0.00775756
0.533971
-0.00730586
0.534658
-0.0068544
0.535295
-0.00640855
-0.00597195
0.535882
0.495188
-0.000587073
0.495219
-0.00173898
0.495268
-0.00277516
0.495338
-0.0036889
0.495429
-0.00448596
0.495536
-0.00516344
0.495656
-0.00574571
0.495793
-0.00626524
0.495951
-0.00674586
0.496132
-0.00720395
0.49634
-0.00765266
0.496583
-0.00810177
0.496866
-0.00855721
0.497195
-0.0090165
0.497575
-0.0094764
0.498013
-0.00992938
0.49851
-0.0103648
0.49907
-0.0107753
0.499695
-0.0111484
0.500384
-0.0114764
0.501136
-0.0117499
0.501948
-0.011963
0.502815
-0.0121098
0.503733
-0.012188
0.504693
-0.0121963
0.505689
-0.0121348
0.506712
-0.0120059
0.507753
-0.011812
0.508801
-0.0115584
0.509849
-0.01125
0.510887
-0.0108936
0.511905
-0.0104953
0.512896
-0.0100628
0.513854
-0.00960257
0.51477
-0.00912243
0.515641
-0.0086283
0.516462
-0.00812706
0.51723
-0.00762252
0.517943
-0.0071212
-0.00662766
0.518599
0.477891
-0.000592104
0.477913
-0.00176062
0.477946
-0.00280769
0.477997
-0.0037399
0.478064
-0.00455381
0.478141
-0.00523979
0.478228
-0.00583288
0.478329
-0.00636598
0.478446
-0.00686357
0.478585
-0.00734201
0.478748
-0.00781593
0.478944
-0.00829774
0.47918
-0.00879297
0.479461
-0.00929821
0.479795
-0.00981061
0.480188
-0.0103221
0.480645
-0.0108214
0.481169
-0.0112998
0.481764
-0.0117434
0.482431
-0.0121435
0.48317
-0.0124888
0.483979
-0.0127721
0.484855
-0.0129854
0.485792
-0.0131253
0.486785
-0.0131888
0.487825
-0.0131748
0.488903
-0.0130844
0.49001
-0.0129191
0.491136
-0.012684
0.492269
-0.0123833
0.4934
-0.0120242
0.494517
-0.0116126
0.495611
-0.0111571
0.496673
-0.0106646
0.497695
-0.0101441
0.498669
-0.00960241
0.49959
-0.00904829
0.500454
-0.00848626
0.501257
-0.00792383
-0.00736666
0.501996
0.461199
-0.00059351
0.461211
-0.00177226
0.461227
-0.00282346
0.461261
-0.00377421
0.461305
-0.00459795
0.461352
-0.0052862
0.461406
-0.00588737
0.46147
-0.00643029
0.461548
-0.00694144
0.461642
-0.00743618
0.46176
-0.00793309
0.461907
-0.00844553
0.462092
-0.00897777
0.462322
-0.00952838
0.462605
-0.0100937
0.462948
-0.0106646
0.463357
-0.0112303
0.463837
-0.0117805
0.464394
-0.0123
0.46503
-0.0127797
0.465746
-0.0132051
0.466543
-0.0135687
0.467418
-0.0138602
0.468367
-0.0140747
0.469385
-0.014207
0.470465
-0.0142542
0.471597
-0.0142162
0.472771
-0.0140933
0.473976
-0.0138896
0.475201
-0.0136082
0.476433
-0.0132563
0.47766
-0.0128394
0.47887
-0.0123668
0.480051
-0.0118458
0.481193
-0.0112865
0.482288
-0.0106967
0.483326
-0.0100869
0.484304
-0.00946339
0.485214
-0.00883408
-0.008206
0.486053
0.44509
-0.000591033
0.445091
-0.00177334
0.445091
-0.00282347
0.445111
-0.00379421
0.44513
-0.00461721
0.445147
-0.00530372
0.44517
-0.00591024
0.445199
-0.00645853
0.445237
-0.00697978
0.445287
-0.00748651
0.445358
-0.00800378
0.445455
-0.00854309
0.445587
-0.00910967
0.445763
-0.00970385
0.44599
-0.0103205
0.446276
-0.010951
0.44663
-0.0115847
0.447059
-0.0122094
0.447569
-0.0128094
0.448163
-0.0133745
0.448847
-0.0138881
0.44962
-0.0143422
0.450484
-0.014724
0.451436
-0.0150265
0.452471
-0.0152422
0.453583
-0.0153665
0.454764
-0.0153973
0.456004
-0.015333
0.457291
-0.0151762
0.458611
-0.0149286
0.459952
-0.0145968
0.461298
-0.0141856
0.462636
-0.0137046
0.463951
-0.0131613
0.465232
-0.0125669
0.466465
-0.0119301
0.467641
-0.0112631
0.468752
-0.0105741
0.46979
-0.00987223
-0.00916566
0.47075
0.429541
-0.000583487
0.429532
-0.00176415
0.429518
-0.00280949
0.429526
-0.00380191
0.429518
-0.00460955
0.429509
-0.00529512
0.429501
-0.00590216
0.429494
-0.00645168
0.429494
-0.00697955
0.429501
-0.00749343
0.429525
-0.00802804
0.429572
-0.00858954
0.42965
-0.00918756
0.429768
-0.00982171
0.429934
-0.0104871
0.43016
-0.0111763
0.430452
-0.0118776
0.430821
-0.012578
0.431273
-0.0132617
0.431816
-0.0139173
0.432455
-0.0145266
0.433193
-0.0150808
0.434034
-0.0155642
0.434976
-0.0159686
0.436017
-0.0162835
0.437153
-0.0165025
0.438376
-0.0166204
0.439677
-0.0166335
0.441043
-0.0165423
0.442461
-0.0163467
0.443916
-0.0160515
0.445391
-0.0156608
0.44687
-0.0151836
0.448336
-0.0146274
0.449773
-0.0140042
0.451167
-0.0133236
0.452503
-0.0125994
0.45377
-0.0118416
0.45496
-0.0110622
-0.0102693
0.456064
0.414533
-0.000568203
0.414516
-0.00174709
0.414489
-0.00278306
0.414486
-0.00379895
0.414449
-0.00457254
0.41442
-0.00526528
0.41438
-0.00586234
0.41434
-0.00641238
0.414303
-0.00694178
0.414267
-0.00745791
0.414246
-0.00800667
0.414241
-0.00858476
0.414264
-0.00921048
0.414322
-0.00988002
0.414426
-0.0105906
0.414585
-0.0113355
0.41481
-0.0121026
0.415111
-0.0128787
0.415497
-0.0136476
0.415976
-0.0143971
0.416558
-0.0151081
0.417248
-0.0157706
0.41805
-0.0163668
0.418969
-0.016887
0.420002
-0.0173174
0.42115
-0.0176496
0.422404
-0.017875
0.423758
-0.0179874
0.4252
-0.0179838
0.426715
-0.0178619
0.428287
-0.0176241
0.4299
-0.017273
0.431532
-0.0168162
0.433165
-0.0162607
0.43478
-0.0156187
0.436357
-0.0149005
0.437879
-0.0141213
0.43933
-0.0132931
0.440699
-0.0124313
-0.0115445
0.441974
0.400044
-0.000540789
0.400025
-0.0017283
0.399986
-0.00274354
0.399974
-0.00378697
0.399904
-0.00450289
0.39986
-0.00522119
0.399785
-0.00578744
0.399719
-0.00634662
0.399643
-0.00686568
0.399568
-0.00738283
0.399502
-0.0079407
0.399447
-0.0085293
0.399415
-0.00917867
0.399412
-0.00987754
0.399451
-0.010629
0.39954
-0.0114251
0.399692
-0.012254
0.399917
-0.0131039
0.400227
-0.0139577
0.400633
-0.0148027
0.401144
-0.0156196
0.401771
-0.0163971
0.40252
-0.017116
0.403398
-0.0177651
0.404408
-0.0183273
0.40555
-0.0187922
0.406823
-0.0191472
0.408218
-0.0193831
0.409727
-0.0194928
0.411336
-0.0194707
0.413028
-0.019316
0.414784
-0.0190287
0.416582
-0.018614
0.418399
-0.0180779
0.420212
-0.0174316
0.421997
-0.0166858
0.423733
-0.0158571
0.425399
-0.0149593
0.426979
-0.0140114
-0.0130235
0.428458
0.386055
-0.000495474
0.386045
-0.00171814
0.385987
-0.00268613
0.38597
-0.00376969
0.385864
-0.00439661
0.385815
-0.00517248
0.385699
-0.00567105
0.385617
-0.00626479
0.385497
-0.00674628
0.38539
-0.00727535
0.385278
-0.00782865
0.385175
-0.00842611
0.385088
-0.00909222
0.385025
-0.00981446
0.384997
-0.0106008
0.385014
-0.0114426
0.385088
-0.0123276
0.385232
-0.0132475
0.385457
-0.0141828
0.385777
-0.0151232
0.386206
-0.016048
0.386754
-0.0169452
0.387433
-0.0177949
0.388252
-0.0185843
0.389218
-0.0192939
0.390337
-0.0199113
0.391609
-0.0204189
0.393031
-0.020805
0.394595
-0.0210568
0.39629
-0.0211652
0.398098
-0.0211248
0.400001
-0.0209315
0.401974
-0.0205869
0.403991
-0.020095
0.406025
-0.0194649
0.408046
-0.0187071
0.410027
-0.0178387
0.411944
-0.0168755
0.413772
-0.0158394
-0.014744
0.415492
0.372548
-0.000426605
0.37256
-0.00172966
0.372475
-0.00260136
0.37246
-0.00375437
0.372311
-0.00424782
0.37227
-0.00513122
0.372102
-0.0055032
0.372019
-0.00618238
0.371846
-0.00657276
0.37172
-0.00714982
0.371555
-0.00766321
0.371413
-0.00828424
0.371269
-0.0089479
0.371149
-0.00969448
0.371052
-0.0105039
0.370997
-0.0113879
0.370989
-0.0123192
0.371047
-0.0133057
0.371179
-0.0143148
0.371405
-0.0153494
0.371737
-0.0163798
0.372191
-0.0173997
0.372782
-0.0183856
0.373522
-0.0193244
0.374424
-0.0201957
0.375496
-0.0209838
0.376745
-0.0216674
0.378172
-0.0222322
0.379774
-0.0226581
0.381541
-0.0229323
0.383459
-0.0230431
0.385508
-0.0229806
0.387663
-0.0227418
0.389895
-0.0223271
0.392171
-0.021741
0.394458
-0.0209937
0.39672
-0.0201013
0.398926
-0.0190811
0.401044
-0.0179576
-0.0167499
0.40305
0.359509
-0.000330783
0.359554
-0.00177468
0.35943
-0.00247753
0.359427
-0.00375154
0.359229
-0.00404928
0.359208
-0.00511085
0.358977
-0.00527178
0.358913
-0.00611881
0.358669
-0.00632863
0.358548
-0.00702877
0.358313
-0.00742838
0.358152
-0.00812274
0.357938
-0.00873446
0.357774
-0.00952978
0.357601
-0.0103314
0.35748
-0.0112668
0.357383
-0.0122224
0.357357
-0.0132793
0.357387
-0.0143446
0.357513
-0.0154761
0.357734
-0.0166001
0.358081
-0.0177474
0.358564
-0.0188684
0.359205
-0.019965
0.360017
-0.0210084
0.361018
-0.021984
0.362216
-0.022866
0.363623
-0.0236386
0.365237
-0.0242721
0.367056
-0.024752
0.36907
-0.0250569
0.371259
-0.0251697
0.373599
-0.0250816
0.376058
-0.0247863
0.378599
-0.0242818
0.381182
-0.0235767
0.383765
-0.0226839
0.386305
-0.0216214
0.388763
-0.0204156
-0.0190927
0.391106
0.346925
-0.000209226
0.347009
-0.00185838
0.346838
-0.00230635
0.346857
-0.003771
0.346604
-0.00379602
0.346616
-0.00512263
0.34631
-0.00496644
0.346284
-0.00609294
0.345951
-0.00599581
0.345862
-0.0069394
0.345535
-0.00710077
0.345383
-0.00797133
0.345078
-0.00842944
0.344894
-0.00934599
0.344628
-0.0100655
0.344459
-0.0110974
0.344259
-0.0120229
0.344159
-0.0131788
0.344072
-0.0142572
0.344102
-0.0155067
0.344192
-0.0166898
0.344427
-0.0179826
0.344776
-0.0192171
0.3453
-0.0204895
0.345995
-0.0217028
0.346896
-0.0228852
0.348012
-0.0239824
0.349366
-0.0249926
0.350961
-0.0258669
0.352806
-0.0265967
0.354892
-0.0271436
0.357207
-0.0274841
0.359728
-0.0276028
0.362422
-0.0274806
0.365248
-0.0271077
0.36816
-0.0264886
0.371106
-0.0256296
0.374032
-0.0245481
0.376889
-0.0232717
-0.0218336
0.379629
0.334787
-6.91597e-05
0.334904
-0.00197527
0.334687
-0.00208958
0.334731
-0.0038151
0.334426
-0.00349026
0.334473
-0.00516982
0.334091
-0.00458512
0.334114
-0.00611518
0.333682
-0.00556374
0.333646
-0.00690366
0.333204
-0.00665882
0.333095
-0.00786248
0.33267
-0.00800425
0.332504
-0.00917967
0.332114
-0.00967635
0.331931
-0.0109136
0.3316
-0.0116924
0.331453
-0.013032
0.331221
-0.0140247
0.331175
-0.0154613
0.331103
-0.0166177
0.331237
-0.0181163
0.331413
-0.0193928
0.331818
-0.0208952
0.33235
-0.0222339
0.333133
-0.0236689
0.334123
-0.0249716
0.335393
-0.0262628
0.336925
-0.0273992
0.33876
-0.0284321
0.340886
-0.0292689
0.343301
-0.0298997
0.345991
-0.0302924
0.34892
-0.0304098
0.352048
-0.0302357
0.355322
-0.0297624
0.358678
-0.0289854
0.362051
-0.0279215
0.365375
-0.0265956
-0.0250471
0.368588
0.323085
7.72592e-05
0.323219
-0.00210993
0.32297
-0.00184047
0.323031
-0.00387571
0.322685
-0.00314486
0.322758
-0.00524295
0.322313
-0.00413998
0.322377
-0.00617938
0.321853
-0.00503925
0.321875
-0.00692539
0.321313
-0.00609758
0.321266
-0.00781461
0.320702
-0.00744055
0.320585
-0.00906266
0.320044
-0.00913504
0.319886
-0.0107556
0.319389
-0.0111955
0.319238
-0.0128818
0.318819
-0.0136053
0.31874
-0.0153823
0.318455
-0.0163328
0.318525
-0.0181868
0.318465
-0.0193328
0.318781
-0.0212106
0.319071
-0.0225239
0.319748
-0.0243465
0.32053
-0.0257534
0.321704
-0.0274369
0.323102
-0.0287966
0.324899
-0.0302292
0.327008
-0.0313779
0.329494
-0.0323856
0.332324
-0.0331229
0.335478
-0.033563
0.338919
-0.0336769
0.342583
-0.0334271
0.3464
-0.0328021
0.350291
-0.0318119
0.354166
-0.0304712
-0.0288258
0.357945
0.311804
0.000216353
0.311937
-0.00224242
0.311675
-0.00157884
0.311736
-0.00393703
0.311373
-0.00278168
0.311451
-0.00532064
0.310969
-0.00365774
0.31105
-0.00626076
0.310461
-0.00445049
0.310519
-0.00698283
0.309861
-0.00543955
0.309863
-0.00781677
0.309171
-0.00674922
0.309108
-0.00899937
0.308411
-0.00843764
0.308299
-0.0106435
0.307616
-0.010513
0.307496
-0.0127621
0.306855
-0.012964
0.306789
-0.0153161
0.306236
-0.0157797
0.306303
-0.0182535
0.305923
-0.0189528
0.306218
-0.0215056
0.306147
-0.0224534
0.306786
-0.0249858
0.307208
-0.0261755
0.308337
-0.0285652
0.309446
-0.029906
0.311222
-0.0320053
0.313195
-0.0333509
0.315742
-0.0349322
0.318651
-0.036032
0.322015
-0.0369269
0.32577
-0.0374317
0.329844
-0.0375015
0.334178
-0.0371361
0.338667
-0.0363007
0.343196
-0.0350003
-0.0332884
0.347659
0.300928
0.000338352
0.301042
-0.00235643
0.300786
-0.00132311
0.300832
-0.00398329
0.300475
-0.00242425
0.300531
-0.00537697
0.300046
-0.0031729
0.300108
-0.00632235
0.299499
-0.00384159
0.299549
-0.00703284
0.298842
-0.00473281
0.298853
-0.00782734
0.298079
-0.00597571
0.298036
-0.00895611
0.29722
-0.00762145
0.297132
-0.0105556
0.296289
-0.00966997
0.296192
-0.0126648
0.295337
-0.012109
0.295291
-0.0152709
0.294453
-0.0149414
0.294547
-0.018347
0.293789
-0.0181955
0.294128
-0.0218443
0.293579
-0.0219047
0.294286
-0.0256926
0.294147
-0.0260362
0.295373
-0.0297919
0.295906
-0.0304384
0.297809
-0.0339088
0.299343
-0.034885
0.302049
-0.037638
0.304838
-0.0388212
0.308463
-0.0405516
0.312485
-0.0414531
0.316985
-0.0420024
0.321904
-0.0420552
0.327076
-0.0414726
0.332392
-0.0403158
-0.0385912
0.337695
0.290434
0.00044078
0.290523
-0.00244522
0.290283
-0.0010831
0.290307
-0.00400749
0.289971
-0.00208857
0.289986
-0.0053919
0.28953
-0.00271617
0.289535
-0.0063279
0.288953
-0.00325966
0.288946
-0.00702523
0.28825
-0.00403744
0.288211
-0.00778821
0.287423
-0.00518794
0.287339
-0.00887174
0.286475
-0.006758
0.28635
-0.0104305
0.285419
-0.00873888
0.285283
-0.0125291
0.284285
-0.011111
0.284202
-0.0151876
0.283141
-0.0138799
0.283209
-0.0184152
0.28211
-0.0170964
0.282462
-0.022197
0.281414
-0.0208563
0.282205
-0.026483
0.28139
-0.0252212
0.28281
-0.0312127
0.282487
-0.0301156
0.284758
-0.0361793
0.285361
-0.0354878
0.288557
-0.0408343
0.290655
-0.0409187
0.294843
-0.0447399
0.298814
-0.0454243
0.303897
-0.0470856
0.309441
-0.0475984
0.315369
-0.0474009
0.321681
-0.0466283
-0.0449207
0.328011
0.280304
0.000527475
0.28037
-0.00251108
0.280146
-0.000859832
0.280152
-0.004013
0.279843
-0.00177974
0.279809
-0.00535806
0.279399
-0.00230628
0.279325
-0.00625412
0.278808
-0.00274172
0.278702
-0.00691947
0.278073
-0.00340825
0.277929
-0.00764481
0.277197
-0.0044553
0.277006
-0.00868102
0.276177
-0.00592922
0.275939
-0.0101928
0.275016
-0.00781503
0.274752
-0.0122659
0.273724
-0.0100827
0.273492
-0.0149558
0.272342
-0.0127293
0.272246
-0.0183193
0.270957
-0.0158076
0.271157
-0.0223969
0.269758
-0.0194581
0.270452
-0.0271768
0.269067
-0.0238364
0.270529
-0.0326742
0.269339
-0.028926
0.271946
-0.0387857
0.271328
-0.0348697
0.275288
-0.044795
0.275957
-0.041587
0.281311
-0.0500947
0.284228
-0.0483409
0.290644
-0.0535019
0.296438
-0.0533923
0.303366
-0.054329
0.310988
-0.0542497
-0.0523981
0.318465
0.270524
0.000602567
0.27057
-0.00255759
0.270363
-0.000652629
0.270356
-0.00400636
0.270073
-0.00149671
0.269993
-0.00527801
0.269637
-0.00195017
0.269478
-0.00609522
0.269045
-0.00230826
0.268821
-0.00669574
0.268295
-0.00288255
0.268013
-0.007362
0.267389
-0.00383131
0.267044
-0.00833601
0.266318
-0.00520361
0.265908
-0.00978239
0.265076
-0.0069836
0.264608
-0.0117977
0.26366
-0.0091351
0.26317
-0.0144652
0.262084
-0.0116433
0.261656
-0.0178914
0.260394
-0.0145457
0.260188
-0.0221907
0.25873
-0.018
0.258973
-0.0274201
0.257368
-0.0222314
0.258401
-0.0337074
0.256726
-0.027251
0.259138
-0.0411974
0.257576
-0.0333074
0.261937
-0.0491565
0.261047
-0.0406972
0.26771
-0.0567578
0.268547
-0.0491773
0.277328
-0.0622829
0.281806
-0.0578701
0.291295
-0.063818
0.300043
-0.062998
-0.0611174
0.308762
0.261087
0.000664524
0.261112
-0.00258297
0.260926
-0.000466399
0.260907
-0.00398729
0.260649
-0.00123903
0.260532
-0.00516049
0.260224
-0.00164239
0.259996
-0.00586693
0.25964
-0.00195237
0.259313
-0.0063687
0.25889
-0.00246002
0.258475
-0.00694679
0.257971
-0.00332705
0.257469
-0.00783422
0.25687
-0.00460489
0.256276
-0.00918781
0.255574
-0.0062822
0.254879
-0.0111019
0.254071
-0.00832708
0.253275
-0.0136697
0.252356
-0.0107244
0.251491
-0.0170267
0.25045
-0.0135042
0.2496
-0.0213407
0.248427
-0.0168275
0.24776
-0.0267525
0.246464
-0.0209354
0.246376
-0.0336199
0.24492
-0.0257949
0.246182
-0.042459
0.244541
-0.0316668
0.248142
-0.052757
0.246503
-0.0390583
0.253538
-0.0637929
0.252538
-0.0481767
0.263556
-0.0733011
0.265246
-0.0595602
0.279363
-0.0779354
0.287199
-0.0708333
-0.073208
0.299289
0.251991
0.000703159
0.251984
-0.00257672
0.251833
-0.000314934
0.251785
-0.00393905
0.251568
-0.00102197
0.251407
-0.00499969
0.251153
-0.00138871
0.250865
-0.00557891
0.250578
-0.00166498
0.250173
-0.00596428
0.24983
-0.00211711
0.249323
-0.00643942
0.248903
-0.00290659
0.248298
-0.00722944
0.247778
-0.00408504
0.24707
-0.00847963
0.246435
-0.00564728
0.245606
-0.0102735
0.244852