/*--------------------------------*- C++ -*----------------------------------*\
| =========                 |                                                 |
| \\      /  F ield         | OpenFOAM: The Open Source CFD Toolbox           |
|  \\    /   O peration     | Version:  2512                                  |
|   \\  /    A nd           | Website:  www.openfoam.com                      |
|    \\/     M anipulation  |                                                 |
\*---------------------------------------------------------------------------*/
FoamFile
{
    version     2.0;
    format      ascii;
    arch        "LSB;label=32;scalar=64";
    class       volVectorField;
    location    "31";
    object      U;
}
// * * * * * * * * * * * * * * * * * * * * * * * * * * * * * * * * * * * * * //

dimensions      [0 1 -1 0 0 0 0];

internalField   nonuniform List<vector> 
13248
(
(-0.0137739 0.0111646 3.5709e-20)
(-0.0335836 0.0279015 0)
(-0.0437835 0.0400879 -6.17912e-20)
(-0.0426907 0.0490629 5.72162e-20)
(-0.0295152 0.0555842 5.24489e-20)
(-0.00358497 0.0602705 0)
(0.0359148 0.0638877 0)
(0.0898925 0.0673309 1.22215e-19)
(0.159073 0.0715218 6.27422e-23)
(0.243531 0.0772556 -1.05481e-19)
(0.342235 0.084994 9.93221e-20)
(0.452734 0.0948533 -6.17315e-20)
(0.571325 0.106531 0)
(0.6934 0.119335 -1.12486e-19)
(0.813892 0.132322 2.11521e-19)
(0.927969 0.144347 -5.01113e-20)
(1.03099 0.154444 -9.59713e-20)
(1.11999 0.161234 8.94677e-20)
(1.19163 0.165228 0)
(1.24635 0.162805 0)
(1.28237 0.161298 0)
(1.30344 0.145287 0)
(1.30983 0.144466 3.10533e-20)
(1.30741 0.108257 1.18915e-19)
(-0.0167767 0.0117259 -1.07254e-19)
(-0.0367004 0.0255649 6.76143e-20)
(-0.0430456 0.0331461 -4.31449e-22)
(-0.0343907 0.0375936 -8.63403e-20)
(-0.0095267 0.0406763 -5.23784e-20)
(0.0329054 0.0436889 -4.84669e-20)
(0.0942516 0.0478094 -8.83127e-20)
(0.175205 0.0540869 8.22289e-20)
(0.275041 0.0633044 0)
(0.391057 0.0757837 -1.05683e-22)
(0.518545 0.0912537 -4.98769e-22)
(0.651314 0.108864 6.13079e-20)
(0.782563 0.127315 0)
(0.905758 0.145054 0)
(1.0154 0.160583 7.80421e-20)
(1.10741 0.172532 -1.45572e-19)
(1.17968 0.180095 9.12932e-20)
(1.23159 0.182763 -8.51124e-20)
(1.26482 0.180623 -3.8724e-20)
(1.28193 0.174473 -7.43191e-20)
(1.28687 0.164597 -3.30063e-20)
(1.2843 0.152605 -6.31848e-20)
(1.27704 0.140975 8.81286e-20)
(1.27161 0.12487 2.6286e-20)
(-0.0197102 0.0122807 0)
(-0.0377839 0.0239707 0)
(-0.0362709 0.0286005 3.09999e-20)
(-0.0142058 0.0305585 2.82216e-20)
(0.0298478 0.0325286 -5.57406e-22)
(0.0974288 0.0364989 -4.95536e-20)
(0.189119 0.0439785 0)
(0.30326 0.0559075 -4.0972e-20)
(0.435174 0.0724376 3.8187e-20)
(0.57742 0.0928077 1.50542e-22)
(0.721008 0.115449 -6.55256e-20)
(0.856973 0.138301 -6.12202e-20)
(0.977736 0.159211 -2.31861e-22)
(1.07802 0.176328 -5.36349e-20)
(1.15519 0.188392 1.24805e-19)
(1.20936 0.194796 0)
(1.24285 0.195926 -8.66586e-20)
(1.25988 0.192036 4.14932e-20)
(1.26528 0.185491 3.86844e-20)
(1.26418 0.175109 0)
(1.2604 0.166518 3.33608e-20)
(1.25687 0.153019 -1.17887e-19)
(1.25428 0.147325 1.1009e-19)
(1.25294 0.131965 7.39774e-20)
(-0.0216815 0.0121455 -3.6914e-20)
(-0.03475 0.0217496 -3.52532e-20)
(-0.0204913 0.0247979 3.17619e-20)
(0.0214688 0.0263473 0)
(0.0923332 0.0298951 0)
(0.192453 0.0379211 -7.80478e-22)
(0.319239 0.0518608 0)
(0.465816 0.071827 -1.24749e-19)
(0.621547 0.0965018 1.1519e-19)
(0.77424 0.123448 -1.41655e-19)
(0.912762 0.149737 3.27144e-20)
(1.02898 0.172641 0)
(1.11871 0.190168 5.60033e-20)
(1.18166 0.201364 -1.04023e-19)
(1.22086 0.206277 2.4628e-20)
(1.24149 0.205904 6.7118e-20)
(1.24965 0.201447 -6.21155e-22)
(1.25094 0.194714 -7.4728e-20)
(1.2496 0.186364 0)
(1.24802 0.177828 0)
(1.24666 0.169156 -2.90572e-20)
(1.24577 0.159474 2.66896e-20)
(1.24289 0.153201 1.00606e-19)
(1.2419 0.13995 -9.39032e-20)
(-0.0219205 0.0109895 -3.84051e-20)
(-0.0257357 0.0181235 -3.57027e-20)
(0.00697556 0.0207878 9.87128e-20)
(0.0756508 0.024224 -5.94873e-20)
(0.180106 0.0324497 5.51078e-20)
(0.316956 0.0479209 9.95703e-20)
(0.477084 0.0710055 -6.93912e-20)
(0.646143 0.0998282 -8.42402e-20)
(0.80811 0.130911 9.33935e-22)
(0.949454 0.160326 1.06719e-19)
(1.06181 0.184794 0)
(1.14267 0.20237 2.97067e-20)
(1.1946 0.212623 0)
(1.22353 0.216367 -5.03146e-20)
(1.23672 0.215203 7.05447e-20)
(1.24092 0.210782 8.81226e-22)
(1.24108 0.20466 -1.92573e-20)
(1.23998 0.197507 3.72298e-20)
(1.23855 0.190117 3.24141e-20)
(1.23663 0.182031 -2.97175e-20)
(1.23403 0.174234 2.90443e-20)
(1.23032 0.164987 -2.66777e-20)
(1.22638 0.158385 0)
(1.22272 0.146742 -2.08751e-20)
(-0.0197634 0.00890157 3.83955e-20)
(-0.00888199 0.0132762 3.71838e-20)
(0.0487323 0.0170269 -3.30654e-20)
(0.150823 0.0251642 6.0812e-20)
(0.293339 0.0416012 -5.6332e-20)
(0.465308 0.0675255 5.07415e-20)
(0.648292 0.100659 -2.39061e-20)
(0.821476 0.13628 6.31682e-20)
(0.968204 0.169221 -3.92254e-20)
(1.07971 0.19559 7.02281e-20)
(1.15536 0.213577 -1.61461e-19)
(1.20051 0.223388 5.90735e-20)
(1.22352 0.226576 -5.33265e-20)
(1.23284 0.225205 4.96422e-20)
(1.23509 0.221084 4.45339e-20)
(1.23431 0.215511 4.03445e-20)
(1.23235 0.209057 -1.11603e-19)
(1.22976 0.202131 6.94904e-20)
(1.22663 0.194629 -3.24095e-20)
(1.22318 0.186913 8.67736e-20)
(1.21949 0.178928 -2.77238e-20)
(1.21628 0.170576 -7.09676e-20)
(1.21286 0.163912 6.57719e-20)
(1.21059 0.153533 2.08677e-20)
(-0.014592 0.00621005 0)
(0.0176187 0.00820795 3.43562e-22)
(0.107096 0.0152991 6.88332e-20)
(0.247963 0.0316169 -6.3386e-20)
(0.428219 0.0596117 -5.68785e-20)
(0.625591 0.0971477 1.04457e-19)
(0.813259 0.138116 -4.79838e-20)
(0.969887 0.175678 6.3999e-20)
(1.08536 0.205029 -9.92337e-22)
(1.16044 0.224407 -3.58067e-20)
(1.20294 0.234622 7.94073e-20)
(1.22314 0.237884 -1.16592e-19)
(1.23033 0.236626 0)
(1.23099 0.232744 -2.34306e-20)
(1.2288 0.227423 -6.40293e-20)
(1.22546 0.221225 1.97518e-20)
(1.2217 0.214481 4.08509e-22)
(1.21786 0.207285 -4.74197e-20)
(1.21419 0.19987 1.39271e-21)
(1.21069 0.192267 5.4892e-20)
(1.20743 0.184581 -2.55335e-20)
(1.20404 0.176871 -1.03159e-20)
(1.20044 0.169727 3.02031e-20)
(1.1973 0.160588 0)
(-0.00569665 0.00340995 0)
(0.0553995 0.00445919 1.88828e-20)
(0.183262 0.0181147 -8.92873e-20)
(0.36482 0.0463595 3.2185e-20)
(0.575376 0.0877121 -2.98118e-20)
(0.781243 0.134888 -2.70584e-20)
(0.953859 0.178731 -4.75946e-20)
(1.0796 0.212843 2.31731e-20)
(1.15945 0.235116 2.02345e-20)
(1.20314 0.246804 0)
(1.22281 0.250725 4.69003e-20)
(1.22877 0.249735 -7.00207e-20)
(1.22798 0.245942 5.19501e-20)
(1.22436 0.24062 2.3441e-20)
(1.21981 0.234427 -1.98114e-20)
(1.21519 0.227722 -1.73027e-20)
(1.21081 0.220667 -1.65319e-20)
(1.20671 0.213405 4.72876e-20)
(1.20277 0.205952 0)
(1.19892 0.198382 2.51487e-20)
(1.19502 0.190687 2.22095e-20)
(1.19123 0.183053 -5.35344e-20)
(1.18754 0.175528 -3.84357e-20)
(1.18414 0.167327 3.52034e-20)
(0.00771608 0.00104435 -2.20041e-20)
(0.10554 0.00383258 -8.87385e-22)
(0.276297 0.0280971 1.82127e-20)
(0.494816 0.0711791 5.04582e-20)
(0.721383 0.124851 1.4631e-20)
(0.917063 0.176951 -2.76626e-20)
(1.0609 0.218263 2.49681e-20)
(1.15188 0.245504 -2.18155e-20)
(1.20094 0.26004 3.89373e-20)
(1.22227 0.265309 1.68123e-20)
(1.22794 0.264779 -4.69648e-20)
(1.22604 0.261006 1.40141e-20)
(1.22116 0.255535 2.43319e-20)
(1.2155 0.249181 -1.17687e-20)
(1.20995 0.242342 0)
(1.20473 0.235187 1.84084e-20)
(1.19983 0.227809 3.18807e-20)
(1.19516 0.22024 6.14553e-21)
(1.19073 0.212549 -2.68451e-20)
(1.18655 0.20478 1.1535e-20)
(1.18268 0.197012 0)
(1.17902 0.189396 -9.42216e-21)
(1.17541 0.181604 -9.21493e-21)
(1.17207 0.174264 0)
(0.0262379 -0.000111066 0)
(0.167946 0.00839313 1.0705e-20)
(0.382368 0.0473536 1.95976e-20)
(0.627869 0.106035 -5.16516e-20)
(0.853344 0.168176 1.64604e-20)
(1.02482 0.219766 0)
(1.13511 0.25481 2.42238e-20)
(1.19496 0.274134 -3.34153e-20)
(1.22089 0.281774 -1.94351e-20)
(1.22759 0.282087 8.78485e-21)
(1.2251 0.278369 -1.43021e-20)
(1.21908 0.272631 3.41671e-20)
(1.21221 0.265912 1.75763e-20)
(1.2055 0.258689 -1.17998e-20)
(1.19924 0.251157 -7.77668e-22)
(1.19344 0.243416 -3.4164e-20)
(1.18809 0.235526 1.56086e-20)
(1.18317 0.22756 -4.53565e-22)
(1.17863 0.219562 0)
(1.17443 0.211582 -1.15465e-20)
(1.17046 0.203669 0)
(1.1666 0.195811 2.72775e-20)
(1.16289 0.187824 -3.27909e-20)
(1.1591 0.180944 1.50504e-20)
(0.0500059 0.000768914 -6.2172e-21)
(0.240909 0.0200056 -2.74015e-20)
(0.494921 0.0768535 3.08495e-20)
(0.753311 0.149208 1.78129e-20)
(0.963062 0.214645 -8.34348e-21)
(1.10361 0.26142 1.38493e-20)
(1.18211 0.288451 -6.62071e-21)
(1.21716 0.300142 1.09454e-20)
(1.22702 0.302026 0)
(1.2247 0.298528 2.47922e-20)
(1.21766 0.292404 -8.11118e-22)
(1.20945 0.285082 -1.99691e-20)
(1.20144 0.277202 8.65938e-21)
(1.19404 0.269032 -9.94016e-21)
(1.18731 0.260698 -3.95263e-21)
(1.1812 0.252273 4.35149e-21)
(1.17563 0.243813 -3.45483e-21)
(1.17052 0.235354 -1.92321e-20)
(1.16582 0.226934 1.17361e-20)
(1.16149 0.218596 2.46589e-21)
(1.15749 0.210375 2.21165e-21)
(1.15376 0.20224 1.98669e-21)
(1.15013 0.194186 0)
(1.14647 0.187456 0)
(0.0787438 0.0045784 6.22473e-21)
(0.321196 0.0401669 -5.74665e-21)
(0.606132 0.116261 -1.03493e-20)
(0.863003 0.198326 0)
(1.04772 0.262198 -4.1664e-21)
(1.15652 0.301463 -3.71005e-21)
(1.20799 0.320033 -6.23526e-21)
(1.22467 0.324847 0)
(1.22395 0.321977 0)
(1.21627 0.315398 0)
(1.20671 0.307215 0)
(1.19729 0.298377 0)
(1.18865 0.289273 -5.45193e-21)
(1.18086 0.280063 2.46927e-21)
(1.17385 0.270822 4.37946e-21)
(1.16752 0.261597 2.0576e-21)
(1.16179 0.252427 5.16648e-21)
(1.15662 0.243352 0)
(1.15197 0.234412 -1.29206e-21)
(1.14778 0.22565 -1.26432e-21)
(1.14395 0.217076 -2.21514e-21)
(1.14034 0.208626 -1.98983e-21)
(1.13681 0.200472 0)
(1.13315 0.193494 1.50245e-21)
(-0.00348814 0.0530298 3.98932e-21)
(-0.0133877 0.118645 -3.80163e-21)
(-0.0297145 0.155983 -7.05678e-21)
(-0.0490362 0.174388 0)
(-0.0695928 0.181735 -9.15088e-21)
(-0.0904963 0.183654 2.81163e-21)
(-0.111227 0.183422 -5.37884e-21)
(-0.131527 0.182507 0)
(-0.151295 0.181317 0)
(-0.1705 0.179787 0)
(-0.189128 0.177702 0)
(-0.207174 0.174824 0)
(-0.224631 0.170929 -2.86279e-23)
(-0.241496 0.165809 -3.64835e-21)
(-0.257774 0.159276 7.27196e-21)
(-0.273477 0.151164 1.04618e-20)
(-0.288635 0.141334 3.51768e-21)
(-0.303291 0.129678 0)
(-0.3175 0.116126 3.0966e-21)
(-0.331327 0.100645 -8.9604e-21)
(-0.344892 0.0832197 -5.86527e-21)
(-0.358401 0.0638237 -5.6645e-21)
(-0.372071 0.0424111 0)
(-0.385847 0.0193063 0)
(-0.00644397 0.0576114 -1.2086e-20)
(-0.01823 0.130865 1.90949e-20)
(-0.0329948 0.174096 -7.21514e-21)
(-0.0494371 0.196499 -1.33168e-20)
(-0.0666225 0.206166 1.84495e-20)
(-0.0839145 0.209184 -1.16646e-20)
(-0.100836 0.209305 1.61926e-20)
(-0.11708 0.208353 1.04065e-20)
(-0.132471 0.206948 0)
(-0.146915 0.205126 -9.32435e-21)
(-0.160353 0.202712 -4.48815e-22)
(-0.172749 0.199481 8.04236e-21)
(-0.184075 0.195221 1.21227e-20)
(-0.194317 0.189737 1.57048e-20)
(-0.203474 0.182859 -6.76332e-21)
(-0.211562 0.174442 -2.10763e-20)
(-0.218616 0.164373 7.3521e-21)
(-0.224691 0.15257 -2.67914e-20)
(-0.229855 0.138987 0)
(-0.234202 0.123619 6.06145e-21)
(-0.237887 0.106487 5.85556e-21)
(-0.241102 0.0876743 5.65505e-21)
(-0.243908 0.0674112 0)
(-0.246195 0.0461342 0)
(-0.00943271 0.0590007 0)
(-0.0231785 0.137116 3.95282e-20)
(-0.0359838 0.185678 -1.4609e-20)
(-0.0487869 0.212469 1.35305e-20)
(-0.061609 0.225066 -3.8041e-20)
(-0.0741647 0.22965 0)
(-0.086083 0.230342 -2.24887e-20)
(-0.0970349 0.22936 1.04802e-20)
(-0.106781 0.227614 -2.0143e-20)
(-0.115167 0.225312 9.80306e-21)
(-0.122095 0.222358 5.4965e-20)
(-0.127507 0.21857 -2.56003e-20)
(-0.13137 0.213759 -4.1929e-20)
(-0.133676 0.207753 -1.72324e-20)
(-0.134438 0.200406 -1.08651e-21)
(-0.133693 0.191601 5.95042e-20)
(-0.131502 0.181255 -2.82334e-20)
(-0.127953 0.16931 -4.52494e-22)
(-0.123147 0.155748 0)
(-0.117213 0.14058 -2.6435e-20)
(-0.11032 0.123859 0)
(-0.102584 0.105717 -2.49905e-20)
(-0.0937676 0.0864461 9.44376e-20)
(-0.0838129 0.066387 1.46473e-21)
(-0.0120034 0.0570993 0)
(-0.0276104 0.136736 3.14909e-22)
(-0.0384228 0.189532 1.50327e-20)
(-0.0473334 0.22084 -1.40631e-20)
(-0.0552699 0.236969 1.258e-20)
(-0.0623935 0.243725 7.26803e-20)
(-0.0685396 0.245384 -2.25606e-20)
(-0.0734238 0.244531 -2.1567e-20)
(-0.0767793 0.242432 4.05561e-20)
(-0.0784098 0.239541 -5.82918e-20)
(-0.0781928 0.235911 1.81417e-20)
(-0.0760651 0.231438 1.77454e-20)
(-0.0720086 0.225977 0)
(-0.0660425 0.219393 1.61386e-20)
(-0.058218 0.21157 0)
(-0.0486136 0.202423 3.05463e-20)
(-0.0373451 0.191894 -5.99609e-20)
(-0.0245568 0.179953 1.19217e-20)
(-0.0104057 0.166599 5.41428e-20)
(0.00493888 0.151842 2.64051e-20)
(0.0212687 0.135737 0)
(0.0383802 0.118299 -7.55535e-20)
(0.0560273 0.0998433 2.32857e-20)
(0.0779689 0.0805089 0)
(-0.0137728 0.0523141 0)
(-0.0309592 0.129912 -4.89973e-20)
(-0.0400952 0.185225 -1.51684e-20)
(-0.0453699 0.220667 -2.81567e-20)
(-0.0484499 0.240697 2.60883e-20)
(-0.0499512 0.250245 -2.43031e-20)
(-0.0500063 0.253431 4.63236e-20)
(-0.0484798 0.253074 2.23303e-20)
(-0.0451507 0.250793 -6.10705e-20)
(-0.0398246 0.247352 3.95361e-20)
(-0.0323761 0.243019 -5.59036e-20)
(-0.0227528 0.237824 1.25386e-19)
(-0.0109645 0.231702 -6.73433e-20)
(0.00292807 0.224566 3.28602e-20)
(0.0188219 0.216342 9.62844e-20)
(0.0365778 0.206976 -2.82829e-20)
(0.0560251 0.196435 -2.73531e-20)
(0.0769713 0.184712 -2.77084e-20)
(0.0991822 0.171833 0)
(0.122539 0.157768 -5.46894e-20)
(0.146527 0.142682 -5.4656e-20)
(0.172063 0.12626 7.37056e-20)
(0.195174 0.108878 9.83101e-20)
(0.229604 0.0918148 -9.17107e-20)
(-0.0145326 0.0454487 0)
(-0.0328165 0.11767 -6.63932e-20)
(-0.0408438 0.173238 -1.324e-22)
(-0.0432206 0.211707 5.66821e-20)
(-0.0420193 0.235466 0)
(-0.0382381 0.248191 0)
(-0.0323545 0.253478 0)
(-0.0244818 0.254142 -2.21815e-20)
(-0.0145437 0.252053 -8.23173e-22)
(-0.0024196 0.248286 3.86223e-20)
(0.0119743 0.243371 -5.70252e-20)
(0.0286558 0.237521 -8.07008e-22)
(0.0475755 0.230794 0)
(0.068625 0.223182 -3.28448e-20)
(0.0916505 0.214657 3.26313e-20)
(0.116466 0.205201 -9.01208e-20)
(0.142845 0.194812 1.18703e-19)
(0.170654 0.183478 3.14758e-20)
(0.199398 0.171283 3.95762e-21)
(0.22991 0.158037 -1.04576e-19)
(0.259318 0.144101 -5.09092e-20)
(0.294628 0.129177 1.74818e-19)
(0.319632 0.112843 -1.17384e-19)
(0.370837 0.0978862 0)
(-0.0142993 0.0375294 3.55304e-20)
(-0.0330784 0.10173 3.32762e-20)
(-0.0406552 0.154989 -3.08261e-20)
(-0.0411956 0.194631 -5.69856e-20)
(-0.0367619 0.221165 5.27975e-20)
(-0.0285645 0.236873 -4.94334e-20)
(-0.0173943 0.244542 6.87994e-20)
(-0.00366924 0.246705 -2.2265e-20)
(0.0124495 0.245293 4.0521e-20)
(0.0309178 0.241596 0)
(0.0517105 0.236388 3.75936e-20)
(0.0747701 0.230091 -6.88327e-20)
(0.0999907 0.222916 6.83592e-20)
(0.127222 0.214958 -6.36307e-20)
(0.156288 0.206257 0)
(0.187036 0.196843 5.98273e-20)
(0.219184 0.186717 1.17139e-19)
(0.253178 0.175889 -1.09794e-19)
(0.28721 0.164416 -5.32716e-20)
(0.32613 0.152354 -5.46642e-20)
(0.359241 0.139513 1.49885e-19)
(0.410057 0.126578 4.94742e-20)
(0.435122 0.11128 -4.46994e-20)
(0.511268 0.0976733 4.39237e-20)
(-0.0133137 0.0295992 -3.55392e-20)
(-0.0320269 0.0841862 1.00403e-19)
(-0.0397705 0.132683 -3.10504e-20)
(-0.0396283 0.171127 5.69805e-20)
(-0.033286 0.198667 -5.27922e-20)
(-0.0219522 0.21634 -3.08052e-22)
(-0.00662203 0.22603 2.26468e-20)
(0.0119992 0.229778 8.57155e-20)
(0.0334677 0.229362 1.2305e-21)
(0.0575074 0.226132 -3.78431e-20)
(0.0839259 0.221017 0)
(0.112562 0.214613 -3.5031e-20)
(0.143269 0.207285 6.49835e-20)
(0.175919 0.199253 6.41536e-20)
(0.210469 0.190587 -2.98347e-20)
(0.247024 0.181443 -8.18669e-22)
(0.285184 0.171821 -2.85621e-20)
(0.327149 0.162031 5.35466e-20)
(0.368246 0.151482 5.32791e-20)
(0.421581 0.141457 -5.14138e-20)
(0.460644 0.129283 4.8124e-20)
(0.537375 0.119105 -4.61928e-20)
(0.563736 0.104473 0)
(0.67806 0.0934936 -4.39174e-20)
(-0.0120036 0.0225437 3.56174e-20)
(-0.0303322 0.0671067 -3.35404e-20)
(-0.0387495 0.108915 3.08708e-20)
(-0.0389307 0.143715 0)
(-0.0319742 0.169967 0)
(-0.0189134 0.187832 4.83812e-20)
(-0.000806565 0.198403 -4.52167e-20)
(0.021443 0.203169 4.23575e-20)
(0.0471529 0.203614 -1.97914e-19)
(0.0758421 0.201003 -5.16357e-22)
(0.107202 0.196306 3.49071e-20)
(0.141068 0.19023 0)
(0.177458 0.183243 -6.50243e-20)
(0.216446 0.175661 1.22854e-19)
(0.258367 0.16778 -8.79603e-20)
(0.304176 0.159877 -1.44133e-19)
(0.353484 0.151722 -3.69894e-21)
(0.410073 0.143961 1.01913e-19)
(0.466136 0.134906 0)
(0.541702 0.127901 0)
(0.596191 0.116705 -4.81416e-20)
(0.703825 0.111317 4.62085e-20)
(0.738374 0.0971701 -1.76043e-19)
(0.889264 0.0925414 1.64179e-19)
(-0.0109202 0.0169941 0)
(-0.0289445 0.0521844 0)
(-0.0383929 0.086174 -9.24814e-20)
(-0.039532 0.115297 2.87193e-20)
(-0.0328512 0.137975 2.59338e-22)
(-0.0191214 0.153946 4.81097e-20)
(0.000681021 0.163775 0)
(0.0256286 0.168492 -4.13655e-20)
(0.0549971 0.169282 3.92862e-20)
(0.0883328 0.167259 -7.28688e-20)
(0.125527 0.163349 -5.91872e-22)
(0.166715 0.15832 6.62062e-20)
(0.21239 0.152787 1.57525e-21)
(0.263387 0.147241 6.21885e-20)
(0.320356 0.141917 -8.448e-20)
(0.384164 0.136827 0)
(0.454483 0.131948 1.07596e-19)
(0.533742 0.127521 -1.52173e-19)
(0.615 0.122487 4.81236e-20)
(0.711855 0.119312 0)
(0.791371 0.11205 4.42675e-20)
(0.910948 0.111535 1.76061e-19)
(0.962611 0.0990264 -1.6439e-19)
(1.11367 0.100995 -1.96454e-19)
(-0.0106354 0.013291 1.06418e-19)
(-0.0288221 0.0405198 -1.34136e-19)
(-0.0393872 0.0664331 3.67155e-22)
(-0.0414695 0.0886512 2.85649e-20)
(-0.0350574 0.10608 -5.21768e-20)
(-0.0206063 0.11846 -4.82483e-20)
(0.00119568 0.126148 8.87059e-20)
(0.0297325 0.129927 5.11143e-22)
(0.064671 0.13078 -7.64982e-20)
(0.106026 0.129689 1.44011e-19)
(0.154257 0.127609 1.67996e-21)
(0.210148 0.125351 -6.33423e-20)
(0.274384 0.123436 0)
(0.347433 0.122154 0)
(0.429292 0.121684 -2.82111e-20)
(0.519304 0.12175 -5.25507e-20)
(0.615835 0.122876 -1.03952e-19)
(0.717048 0.123323 9.69023e-20)
(0.819688 0.125045 -4.81639e-20)
(0.922636 0.124378 9.13579e-20)
(1.01701 0.123855 -4.23929e-20)
(1.11566 0.122492 8.46626e-20)
(1.17801 0.113862 -1.9257e-19)
(1.27937 0.114422 3.82112e-20)
(-0.0115659 0.0114556 3.55305e-20)
(-0.0304816 0.0325231 0)
(-0.0416522 0.050933 6.16242e-20)
(-0.0435553 0.0660745 -5.70614e-20)
(-0.0357886 0.0776994 5.22481e-20)
(-0.0183494 0.0858794 0)
(0.00870151 0.0910662 0)
(0.0454986 0.0940185 -4.0641e-20)
(0.0924888 0.0956598 -2.00923e-22)
(0.150356 0.0969592 3.49665e-20)
(0.219674 0.0987219 -3.34994e-20)
(0.300575 0.101484 6.23368e-20)
(0.392486 0.105555 0)
(0.493823 0.110944 1.14978e-19)
(0.601998 0.117503 -2.16858e-19)
(0.713882 0.1244 1.54887e-19)
(0.825486 0.131827 1.00159e-19)
(0.933187 0.137058 -9.33679e-20)
(1.03331 0.14321 0)
(1.12169 0.142507 0)
(1.19811 0.145661 0)
(1.25711 0.13622 0)
(1.30124 0.132892 3.75973e-20)
(1.33582 0.119609 -1.36035e-19)
(-0.401134 -0.00896364 -3.67022e-21)
(-0.425185 -0.046807 3.67724e-21)
(-0.445141 -0.0852683 -1.20813e-22)
(-0.467749 -0.127268 0)
(-0.48889 -0.169171 -3.63944e-21)
(-0.511482 -0.212356 7.07029e-21)
(-0.533257 -0.254754 -2.79955e-23)
(-0.554747 -0.296077 -3.30743e-21)
(-0.574119 -0.334675 0)
(-0.589989 -0.368995 0)
(-0.599773 -0.39665 -1.72887e-22)
(-0.600501 -0.414727 -1.58387e-22)
(-0.588875 -0.419924 -2.41209e-21)
(-0.561782 -0.408864 2.2028e-21)
(-0.517188 -0.378654 0)
(-0.454948 -0.327476 0)
(-0.377623 -0.255528 1.60504e-21)
(-0.289981 -0.164401 -1.09545e-22)
(-0.196704 -0.0575622 -1.33192e-21)
(-0.0997523 0.0613516 -6.37568e-23)
(0.000719822 0.180772 0)
(0.104617 0.283343 0)
(0.202324 0.349604 0)
(0.287583 0.374728 0)
(0.35482 0.36303 0)
(0.39993 0.330082 0)
(0.413107 0.290479 -7.28981e-23)
(0.402768 0.250816 1.14601e-22)
(0.397389 0.20196 0)
(0.423418 0.139242 0)
(0.484244 0.0668847 8.85238e-23)
(0.562664 0.000220787 -8.60139e-23)
(0.641847 -0.0526107 -3.88048e-23)
(0.708832 -0.0856438 0)
(0.760468 -0.103438 0)
(0.796224 -0.107488 -6.32307e-23)
(0.819165 -0.104601 6.14547e-23)
(0.83104 -0.0956608 0)
(0.834103 -0.0859891 -4.37917e-23)
(0.831792 -0.0733577 6.26756e-23)
(0.828948 -0.060568 -1.72921e-23)
(0.83149 -0.0434316 0)
(0.840945 -0.026363 2.30548e-23)
(0.857373 -0.00715851 -2.24173e-23)
(0.875853 0.00758168 0)
(0.894437 0.0207692 0)
(0.909364 0.0274682 6.40137e-24)
(0.9214 0.032798 -1.80633e-23)
(0.929495 0.0324981 0)
(0.936205 0.0325865 0)
(0.940916 0.0286477 3.44449e-24)
(0.945874 0.0270203 -1.908e-26)
(0.949548 0.0226301 4.3684e-25)
(0.954322 0.0216373 -1.87754e-24)
(0.958141 0.0184453 0)
(0.964245 0.0190509 0)
(0.968751 0.0174095 0)
(0.97634 0.019246 0)
(0.979755 0.0185844 0)
(0.98794 0.0208888 0)
(-0.248757 0.0201095 -3.79335e-22)
(-0.270203 -0.0196841 -1.63337e-20)
(-0.284032 -0.0580794 -2.14982e-22)
(-0.302388 -0.100174 1.54758e-20)
(-0.320572 -0.142127 2.4835e-22)
(-0.341667 -0.185114 0)
(-0.364495 -0.228017 -1.41859e-20)
(-0.389636 -0.270362 2.76679e-20)
(-0.416696 -0.311341 -1.34794e-20)
(-0.444943 -0.349749 1.1856e-20)
(-0.472932 -0.383744 -1.134e-20)
(-0.498398 -0.410679 9.61061e-21)
(-0.518246 -0.427273 -9.34225e-21)
(-0.528301 -0.429631 -2.45531e-22)
(-0.523828 -0.413761 -6.82471e-21)
(-0.50062 -0.376146 6.62772e-21)
(-0.456367 -0.315156 -5.33935e-21)
(-0.391988 -0.231296 5.04911e-21)
(-0.311384 -0.1278 -4.07542e-21)
(-0.217856 -0.0112148 7.15836e-21)
(-0.114811 0.106239 -3.11761e-21)
(-0.00710152 0.210382 -9.3523e-23)
(0.0951012 0.284704 -6.50972e-22)
(0.18478 0.32352 6.76037e-22)
(0.25107 0.329476 -4.24924e-23)
(0.289412 0.317215 -3.2299e-23)
(0.302942 0.291958 -7.11324e-22)
(0.316432 0.250912 -5.53132e-23)
(0.358068 0.187038 1.35798e-21)
(0.433779 0.107714 -1.30045e-21)
(0.530358 0.0266603 6.2581e-22)
(0.625616 -0.0394952 -7.17702e-23)
(0.707419 -0.0857762 3.88855e-23)
(0.768867 -0.110396 -7.05936e-23)
(0.811991 -0.120258 0)
(0.839148 -0.118069 0)
(0.855619 -0.110537 2.24195e-22)
(0.86379 -0.0980558 -1.66092e-22)
(0.865813 -0.0856453 -1.29663e-22)
(0.862215 -0.0715101 -2.12854e-24)
(0.855658 -0.0589134 1.6576e-22)
(0.850326 -0.0435189 -3.00893e-23)
(0.849915 -0.0287599 0)
(0.856467 -0.0113781 0)
(0.8678 0.00262981 0)
(0.882131 0.0160782 0)
(0.895785 0.0235716 -2.78519e-23)
(0.908277 0.0298264 1.18495e-23)
(0.918047 0.03027 0)
(0.926756 0.0308677 0)
(0.933583 0.0272274 0)
(0.940297 0.0258097 5.28333e-24)
(0.945381 0.0215249 -9.35987e-25)
(0.951124 0.0205773 4.16767e-24)
(0.955624 0.0173008 0)
(0.962261 0.0178674 0)
(0.967169 0.0161291 -1.69144e-24)
(0.975241 0.0181013 -3.87145e-24)
(0.978917 0.0174479 0)
(0.9876 0.0200838 0)
(-0.0771233 0.0421164 1.47571e-21)
(-0.0928143 0.00306296 -3.35168e-20)
(-0.102581 -0.0351929 3.46732e-20)
(-0.115606 -0.0757168 -3.2366e-20)
(-0.129459 -0.116812 -2.50108e-22)
(-0.145902 -0.158492 0)
(-0.164666 -0.200236 -3.03363e-20)
(-0.186135 -0.241161 2.96868e-20)
(-0.210743 -0.281014 2.08762e-22)
(-0.238594 -0.318896 3.9422e-22)
(-0.269622 -0.353425 3.57359e-22)
(-0.30366 -0.382986 3.18961e-22)
(-0.339917 -0.405298 -1.68589e-20)
(-0.376135 -0.417167 1.66184e-20)
(-0.407852 -0.414843 0)
(-0.428898 -0.393476 3.18241e-22)
(-0.432197 -0.349373 -8.50113e-21)
(-0.412258 -0.280778 8.39266e-21)
(-0.366999 -0.189125 0)
(-0.298891 -0.0794911 0)
(-0.211239 0.0350098 -3.1334e-21)
(-0.111344 0.140762 4.82766e-21)
(-0.0135746 0.223377 -2.25897e-21)
(0.0725783 0.2784 8.54671e-22)
(0.138644 0.30202 -1.12727e-21)
(0.186698 0.30367 2.00647e-21)
(0.229664 0.279763 -2.22281e-21)
(0.290306 0.227381 7.76834e-23)
(0.382059 0.148474 1.10969e-21)
(0.493537 0.0603832 0)
(0.606157 -0.0203539 0)
(0.70168 -0.0791814 -4.20596e-22)
(0.774824 -0.115424 5.4055e-22)
(0.824429 -0.130555 4.05151e-24)
(0.856067 -0.132847 -5.22418e-22)
(0.873664 -0.125404 5.07619e-22)
(0.883098 -0.114524 0)
(0.886955 -0.09988 -5.20254e-23)
(0.887963 -0.0857206 -3.96427e-22)
(0.885465 -0.0701096 7.27715e-22)
(0.880243 -0.0567774 -2.98222e-22)
(0.873413 -0.0418742 -3.07576e-23)
(0.868432 -0.028641 2.48553e-22)
(0.867849 -0.0130915 -1.90645e-22)
(0.872327 -0.000464026 -3.84757e-23)
(0.881054 0.0124385 -3.31036e-23)
(0.891636 0.0200337 2.79262e-23)
(0.902855 0.0267419 0)
(0.91303 0.027679 0)
(0.922761 0.028702 6.8526e-23)
(0.931008 0.0253878 -3.21617e-23)
(0.93888 0.0242673 2.4874e-23)
(0.944883 0.0201905 -3.07346e-23)
(0.951104 0.019377 -3.18934e-23)
(0.955814 0.0160734 7.5104e-24)
(0.962464 0.0166319 -1.05187e-23)
(0.967301 0.0148048 7.91487e-24)
(0.975346 0.0169193 -3.32118e-24)
(0.978967 0.0162721 0)
(0.987714 0.01925 0)
(0.087964 0.0560206 -7.13109e-20)
(0.0803692 0.0215344 -1.37951e-21)
(0.0743683 -0.0162579 6.86359e-20)
(0.0651324 -0.0553002 -5.34062e-22)
(0.0542236 -0.0954454 0)
(0.041335 -0.136174 0)
(0.027121 -0.176925 -6.25277e-20)
(0.0109703 -0.217275 1.29367e-21)
(-0.00772444 -0.256423 8.43668e-20)
(-0.0286227 -0.292976 -1.99038e-21)
(-0.0520761 -0.325505 -2.44115e-20)
(-0.0791348 -0.352673 -1.86987e-20)
(-0.111165 -0.373014 1.87744e-20)
(-0.149564 -0.384725 0)
(-0.193611 -0.387127 -1.09527e-20)
(-0.240093 -0.37608 1.00314e-20)
(-0.28213 -0.34786 0)
(-0.310208 -0.298546 0)
(-0.314895 -0.226192 3.57529e-21)
(-0.291695 -0.132809 -1.02187e-21)
(-0.239997 -0.0266094 -2.29119e-21)
(-0.166168 0.0774335 -4.9924e-22)
(-0.0819374 0.166484 4.0481e-22)
(-0.00028522 0.231751 7.77493e-22)
(0.0741822 0.267155 2.66169e-22)
(0.147129 0.273808 -1.00914e-21)
(0.229766 0.24484 -1.27112e-22)
(0.33344 0.182004 -1.79622e-23)
(0.457797 0.0954559 0)
(0.583777 0.00733013 -8.46989e-22)
(0.694847 -0.0661452 8.71515e-22)
(0.779284 -0.113863 -6.41758e-23)
(0.837358 -0.13899 0)
(0.872418 -0.145237 6.73858e-23)
(0.892035 -0.14124 -1.00926e-21)
(0.900785 -0.129805 1.80693e-21)
(0.904044 -0.116642 5.8278e-23)
(0.903805 -0.100859 -6.01246e-23)
(0.902947 -0.0860073 -6.69225e-22)
(0.900912 -0.0696534 -8.09537e-23)
(0.898049 -0.0555687 5.36005e-22)
(0.893293 -0.0403773 -4.5955e-22)
(0.888608 -0.0276582 4.33065e-25)
(0.885432 -0.0132562 -1.71919e-22)
(0.885876 -0.00193125 2.05745e-22)
(0.890046 0.0100526 2.27486e-22)
(0.89728 0.0172235 -6.5064e-23)
(0.906316 0.023921 -9.26932e-23)
(0.915777 0.0250466 1.68907e-22)
(0.925425 0.0263508 -1.12177e-22)
(0.934079 0.0233411 2.56985e-23)
(0.942231 0.0225664 -3.29613e-23)
(0.948414 0.018773 -2.42805e-23)
(0.954485 0.0181651 4.85961e-23)
(0.958855 0.0148843 -1.45534e-24)
(0.964971 0.0154574 1.04689e-23)
(0.969253 0.0135432 0)
(0.976746 0.0157862 3.30579e-24)
(0.97999 0.0151328 -4.34288e-24)
(0.988332 0.0184316 0)
(0.238396 0.0670537 7.25664e-20)
(0.239343 0.035134 -1.43188e-19)
(0.237331 -0.00029952 6.99424e-20)
(0.233064 -0.0368773 7.08845e-20)
(0.22628 -0.0754655 -1.38472e-19)
(0.217862 -0.114984 9.53436e-22)
(0.207942 -0.154912 6.52251e-20)
(0.196485 -0.195319 5.98089e-20)
(0.183465 -0.234852 -5.85075e-20)
(0.168951 -0.271887 0)
(0.152734 -0.304686 -4.4732e-20)
(0.134248 -0.331208 8.21051e-20)
(0.112537 -0.349423 -3.75552e-20)
(0.0843612 -0.358198 0)
(0.0485706 -0.356785 0)
(0.00459297 -0.34431 2.86233e-22)
(-0.0467244 -0.320648 -1.04229e-20)
(-0.0991797 -0.283795 1.01193e-20)
(-0.141583 -0.230059 0)
(-0.163183 -0.157098 1.41001e-21)
(-0.155677 -0.0677922 -9.75504e-22)
(-0.118065 0.0267418 -1.95966e-21)
(-0.0565886 0.113563 3.89694e-21)
(0.0160291 0.179685 3.22103e-22)
(0.0987268 0.220874 -4.99986e-21)
(0.192417 0.227566 2.42933e-21)
(0.302833 0.193639 5.85223e-23)
(0.43024 0.125583 5.20274e-22)
(0.565361 0.0388956 -2.66724e-24)
(0.687933 -0.0431038 -5.32155e-22)
(0.785337 -0.105244 -4.94352e-23)
(0.851764 -0.140867 9.08153e-22)
(0.891879 -0.155623 -1.86142e-21)
(0.912093 -0.154503 1.07016e-21)
(0.92063 -0.145889 0)
(0.921939 -0.131855 1.03843e-21)
(0.920383 -0.117362 -1.00339e-21)
(0.917065 -0.101077 6.72195e-22)
(0.914267 -0.0861626 -8.39348e-22)
(0.911674 -0.0697608 7.94397e-23)
(0.909978 -0.0554145 0)
(0.907569 -0.0398916 6.15758e-23)
(0.905232 -0.027134 -1.60758e-22)
(0.902907 -0.0131677 0)
(0.902591 -0.00264934 -3.82913e-22)
(0.904637 0.00854445 1.56717e-22)
(0.909627 0.0151216 -5.8288e-23)
(0.916672 0.021543 -5.02225e-23)
(0.924904 0.0226332 0)
(0.933693 0.0240869 0)
(0.941846 0.0213344 8.59089e-23)
(0.949485 0.0209121 -1.25436e-22)
(0.955167 0.0174357 6.53981e-23)
(0.960572 0.0170728 -1.96093e-23)
(0.964173 0.0138472 -2.96088e-23)
(0.969359 0.0144453 -1.04801e-23)
(0.972733 0.0124402 1.57263e-23)
(0.979266 0.0147811 0)
(0.981886 0.0141017 7.06338e-24)
(0.989422 0.0176713 1.71548e-24)
(0.376872 0.0745802 7.29662e-20)
(0.382849 0.0439738 -7.21144e-20)
(0.38753 0.011976 5.6605e-22)
(0.389757 -0.0217973 -5.51832e-22)
(0.38871 -0.058473 5.49036e-22)
(0.386679 -0.0968324 -5.33057e-22)
(0.383545 -0.136122 1.01375e-21)
(0.379051 -0.176022 0)
(0.373229 -0.215474 -8.99517e-22)
(0.365916 -0.252851 8.25283e-22)
(0.356592 -0.286155 7.40502e-22)
(0.344509 -0.313135 -6.53053e-22)
(0.328851 -0.331599 0)
(0.307645 -0.340214 0)
(0.280442 -0.336407 3.46174e-22)
(0.245764 -0.319913 0)
(0.202698 -0.292379 -1.68792e-22)
(0.152381 -0.256302 0)
(0.100925 -0.211239 -1.39011e-21)
(0.0574918 -0.154832 4.54328e-22)
(0.0327143 -0.0861439 3.30808e-21)
(0.0351049 -0.00776032 -2.40169e-21)
(0.069685 0.0670859 -3.6378e-21)
(0.128135 0.12992 3.53103e-21)
(0.208689 0.16962 2.74481e-21)
(0.308028 0.173665 -2.64768e-21)
(0.427137 0.136929 0)
(0.558372 0.0683626 -1.4762e-23)
(0.686928 -0.0134848 0)
(0.793574 -0.0851851 0)
(0.869791 -0.134786 -1.26157e-21)
(0.914925 -0.159162 1.28537e-21)
(0.936894 -0.16548 -1.02984e-22)
(0.943694 -0.159044 -1.20497e-22)
(0.943058 -0.147548 1.13381e-22)
(0.938632 -0.132186 8.91795e-22)
(0.933539 -0.117171 -8.65773e-22)
(0.928159 -0.100817 8.58576e-22)
(0.923913 -0.086117 -7.36902e-22)
(0.920468 -0.0700182 -1.59094e-22)
(0.918735 -0.0558567 5.37891e-22)
(0.917514 -0.0403155 9.85436e-24)
(0.917185 -0.02749 -3.49078e-22)
(0.916859 -0.0136059 0)
(0.917721 -0.00343149 1.62877e-22)
(0.919829 0.00730271 -1.92673e-22)
(0.924101 0.0134115 2.54433e-22)
(0.930056 0.0195408 5.0559e-23)
(0.937189 0.0205305 0)
(0.944899 0.0220745 -3.11699e-23)
(0.952064 0.0195415 6.53934e-23)
(0.958761 0.0194517 1.67266e-26)
(0.963563 0.01629 2.05439e-23)
(0.96807 0.0161811 -3.04441e-23)
(0.970727 0.0130276 2.96194e-23)
(0.974837 0.0136532 0)
(0.977167 0.0115541 -1.57357e-23)
(0.982534 0.0139545 0)
(0.98441 0.0132294 0)
(0.990876 0.0170018 -2.25002e-24)
(0.515517 0.0762527 -7.27427e-20)