/*--------------------------------*- C++ -*----------------------------------*\
| =========                 |                                                 |
| \\      /  F ield         | OpenFOAM: The Open Source CFD Toolbox           |
|  \\    /   O peration     | Version:  2312                                  |
|   \\  /    A nd           | Website:  www.openfoam.com                      |
|    \\/     M anipulation  |                                                 |
\*---------------------------------------------------------------------------*/
FoamFile
{
    version     2.0;
    format      ascii;
    arch        "LSB;label=32;scalar=64";
    class       volVectorField;
    location    "160.4";
    object      U;
}
// * * * * * * * * * * * * * * * * * * * * * * * * * * * * * * * * * * * * * //

dimensions      [0 1 -1 0 0 0 0];

internalField   nonuniform List<vector> 
5478
(
(-0.0270692 0.0216259 -9.38974e-20)
(-0.0344798 0.0249006 0)
(-0.00466102 0.011683 1.45704e-19)
(0.0760972 -0.00591781 -2.56231e-19)
(0.216975 -0.0226214 1.68081e-19)
(0.407755 -0.0333718 -5.13164e-20)
(0.619005 -0.0359574 -8.42582e-20)
(0.819017 -0.0311952 0)
(0.984498 -0.0201735 0)
(1.10315 -0.00771349 8.24333e-20)
(1.1812 0.00596156 -4.30592e-20)
(1.21008 0.0187542 -5.72199e-20)
(1.21989 0.0235862 -2.05786e-20)
(1.20518 0.0357508 0)
(1.17504 0.0278019 4.523e-20)
(-0.0277872 0.0201328 1.88366e-19)
(-0.0179916 0.0227708 0)
(0.0568432 0.010765 0)
(0.210034 -0.00192469 -1.27231e-19)
(0.433212 -0.00601554 1.68132e-19)
(0.682497 0.000182873 4.80627e-20)
(0.908433 0.0124468 -7.71837e-20)
(1.07982 0.0259442 6.84376e-20)
(1.1858 0.036354 1.53002e-19)
(1.23598 0.0425304 -1.31336e-19)
(1.23939 0.0453815 8.84879e-22)
(1.22271 0.0436027 0)
(1.198 0.0430569 2.05423e-20)
(1.17157 0.0420282 0)
(1.16588 0.0355545 0)
(-0.0242494 0.0143059 -4.2016e-22)
(0.0174047 0.0101609 -8.63371e-20)
(0.161259 0.00164635 7.22832e-23)
(0.406968 0.00541073 0)
(0.694842 0.0241593 -5.45363e-20)
(0.948613 0.0480411 4.57687e-20)
(1.12607 0.0674497 3.78027e-20)
(1.22103 0.0775322 0)
(1.25236 0.0789072 -5.19614e-20)
(1.24352 0.0751013 4.15009e-20)
(1.22321 0.0689236 3.29014e-20)
(1.20403 0.0652868 0)
(1.19074 0.0616753 0)
(1.18738 0.0616763 -6.03956e-20)
(1.18361 0.0573322 5.37802e-20)
(-0.0144185 0.00720733 -9.97993e-20)
(0.083614 -0.00445654 8.54692e-20)
(0.326414 0.00216705 -7.40664e-20)
(0.652749 0.0346374 6.40617e-20)
(0.943781 0.0735281 1.08223e-19)
(1.1371 0.101824 -9.0154e-20)
(1.23171 0.114107 -3.77785e-20)
(1.25838 0.113694 2.81055e-20)
(1.25107 0.107206 -2.73936e-20)
(1.23669 0.0993172 0)
(1.22322 0.0940754 0)
(1.21101 0.0881772 -4.69718e-20)
(1.19996 0.084998 5.98886e-20)
(1.1836 0.0791098 -3.32762e-20)
(1.16624 0.072008 0)
(0.00612011 -0.000274838 5.0334e-20)
(0.193276 -0.011335 4.25046e-20)
(0.54343 0.0285856 -1.51405e-19)
(0.889076 0.0866116 1.50456e-21)
(1.11854 0.12864 -2.23726e-21)
(1.22896 0.14713 -1.10005e-21)
(1.26254 0.14862 3.48112e-20)
(1.26083 0.142335 2.94188e-20)
(1.24888 0.133972 2.03636e-20)
(1.23319 0.126324 -3.89845e-21)
(1.21555 0.11783 -4.58326e-20)
(1.19794 0.110459 0)
(1.18037 0.103103 1.92858e-20)
(1.16809 0.0952936 -1.37671e-20)
(1.16226 0.0912939 2.5256e-20)
(0.0435389 -0.00668666 -1.06146e-19)
(0.349946 0.00246181 1.15062e-19)
(0.764839 0.0811837 -3.91346e-20)
(1.06407 0.146703 2.99118e-20)
(1.21381 0.178149 -5.47251e-20)
(1.26486 0.185123 -4.05058e-20)
(1.26896 0.180282 1.03202e-21)
(1.25589 0.171048 0)
(1.23688 0.160708 4.17127e-20)
(1.2176 0.149682 -3.70939e-20)
(1.20097 0.140021 1.44326e-20)
(1.18727 0.130751 0)
(1.17739 0.123029 8.56846e-21)
(1.16743 0.114572 -1.45858e-20)
(1.15337 0.109195 0)
(0.102739 -0.00699001 -1.31822e-20)
(0.533078 0.0464728 9.50569e-22)
(0.944777 0.148095 1.93777e-20)
(1.17279 0.206183 3.2146e-20)
(1.25903 0.224433 -2.43792e-20)
(1.27309 0.222057 4.09306e-20)
(1.25971 0.211622 -9.32702e-21)
(1.23944 0.198893 0)
(1.22047 0.185904 -2.44113e-20)
(1.20406 0.17408 1.82124e-21)
(1.18908 0.162566 2.00076e-20)
(1.1751 0.152021 0)
(1.16072 0.141689 -1.24898e-20)
(1.14758 0.131673 0)
(1.13866 0.125889 7.32725e-21)
(0.182753 0.00586936 -1.42873e-20)
(0.704244 0.115982 0)
(1.0718 0.221213 1.98431e-20)
(1.23147 0.265007 0)
(1.27078 0.269567 0)
(1.2621 0.258315 0)
(1.24135 0.242991 -7.84947e-21)
(1.22075 0.227279 0)
(1.20175 0.212226 4.92732e-21)
(1.18416 0.197465 0)
(1.16868 0.183773 -6.20877e-21)
(1.15573 0.170844 0)
(1.14623 0.15915 3.91686e-21)
(1.13806 0.148462 0)
(1.12718 0.141138 2.4616e-21)
(0.00690684 -0.185533 -1.26111e-20)
(-0.00590955 -0.336426 0)
(-0.0464322 -0.378647 1.97616e-20)
(-0.091255 -0.38653 0)
(-0.134497 -0.390207 0)
(-0.173455 -0.390533 0)
(-0.205452 -0.380438 -1.325e-20)
(-0.22818 -0.354194 0)
(-0.240037 -0.308195 1.11731e-20)
(-0.24035 -0.240729 0)
(-0.229345 -0.152143 -1.83996e-20)
(-0.207925 -0.0438566 0)
(-0.176034 0.0817348 1.42442e-20)
(-0.136713 0.218168 0)
(-0.0820641 0.359774 1.00942e-20)
(0.0151299 -0.163244 6.17215e-20)
(0.000789797 -0.288515 -4.31517e-20)
(-0.0485373 -0.320182 1.79178e-20)
(-0.102777 -0.324815 6.79329e-20)
(-0.155832 -0.329609 5.94554e-22)
(-0.206495 -0.334949 -5.55689e-20)
(-0.253022 -0.334005 3.81201e-20)
(-0.293286 -0.321179 0)
(-0.324986 -0.292526 3.0442e-20)
(-0.346265 -0.245491 9.75028e-23)
(-0.355508 -0.179285 -1.46412e-20)
(-0.350766 -0.0947005 0)
(-0.331977 0.00741024 -3.48852e-20)
(-0.297875 0.124116 0)
(-0.248035 0.245428 -4.17538e-20)
(0.0196735 -0.131092 9.37651e-20)
(0.00535779 -0.230757 2.07948e-20)
(-0.0461431 -0.255356 -3.75981e-20)
(-0.101057 -0.25803 -9.88125e-20)
(-0.152675 -0.262824 5.77566e-20)
(-0.200427 -0.27074 5.18849e-20)
(-0.243383 -0.275801 -9.05588e-20)
(-0.280168 -0.272883 0)
(-0.308924 -0.258246 -7.01693e-20)
(-0.328175 -0.229331 6.23919e-20)
(-0.337186 -0.184942 2.34323e-20)
(-0.331463 -0.126897 0)
(-0.304653 -0.0608414 2.06365e-20)
(-0.28153 0.0299122 -2.14869e-20)
(-0.201304 0.110374 0)
(0.0190748 -0.0954198 4.47131e-20)
(0.00448002 -0.171291 -1.21858e-19)
(-0.0451946 -0.191788 1.42351e-19)
(-0.0954938 -0.19444 -1.25203e-19)
(-0.13896 -0.199682 -5.51713e-20)
(-0.174864 -0.209524 4.85625e-20)
(-0.202434 -0.219122 4.45732e-20)
(-0.220726 -0.223819 3.62936e-20)
(-0.228426 -0.220046 -9.14719e-20)
(-0.223517 -0.205162 4.52332e-21)
(-0.207591 -0.177142 2.08629e-20)
(-0.192426 -0.136538 0)
(-0.114903 -0.0967138 2.07167e-20)
(-0.108429 -0.0210189 4.98605e-20)
(0.0273352 0.0123188 -2.53814e-20)
(0.0127707 -0.0604027 -4.53362e-22)
(-0.00388264 -0.114984 7.91065e-20)
(-0.0498866 -0.134153 -6.99007e-20)
(-0.0929108 -0.13964 6.23907e-20)
(-0.124926 -0.147468 1.09731e-19)
(-0.144294 -0.160348 -9.63672e-20)
(-0.149604 -0.174584 -4.13256e-20)
(-0.13978 -0.18602 -1.04676e-19)
(-0.115156 -0.191404 9.11655e-20)
(-0.0760186 -0.187148 0)
(-0.0134977 -0.166184 0)
(0.0225726 -0.144874 4.77985e-20)
(0.162034 -0.120257 -9.52044e-20)
(0.157163 -0.0508287 2.84475e-20)
(0.368127 -0.0233181 0)
(0.00164772 -0.028503 -4.74805e-22)
(-0.0181016 -0.0640597 -7.9831e-20)
(-0.0575747 -0.0832279 2.09626e-19)
(-0.088748 -0.0933838 -6.1684e-20)
(-0.102538 -0.105564 -5.45925e-20)
(-0.0950502 -0.122536 4.7833e-20)
(-0.0639091 -0.141299 4.13424e-20)
(-0.00921115 -0.157805 6.67637e-20)
(0.0665938 -0.168408 -1.15982e-19)
(0.156077 -0.16966 4.47142e-20)
(0.262818 -0.153636 3.39732e-20)
(0.345217 -0.136746 0)
(0.518092 -0.107355 0)
(0.534029 -0.0685094 3.96425e-20)
(0.756534 -0.0270925 -3.52867e-20)
(-0.0113479 -0.00219266 8.58449e-22)
(-0.0321308 -0.0205458 0)
(-0.0578374 -0.0388555 0)
(-0.065918 -0.0532794 1.25225e-19)
(-0.0457749 -0.0699365 -5.48932e-20)
(0.00832144 -0.0901481 4.85189e-20)
(0.0969177 -0.110205 8.083e-20)
(0.213458 -0.125742 -7.16704e-20)
(0.348653 -0.133539 5.67409e-20)
(0.488924 -0.128751 -4.47435e-20)
(0.622558 -0.114998 2.27205e-22)
(0.752211 -0.0931416 0)
(0.875349 -0.0615842 1.90338e-20)
(0.950647 -0.0349479 0)
(1.08461 0.00583748 0)
(-0.0217235 0.0149994 -9.024e-20)
(-0.0386458 0.0106156 0)
(-0.0410988 -0.00518878 -1.44146e-19)
(-0.0121282 -0.0224217 2.54149e-19)
(0.0597364 -0.041911 -2.79269e-19)
(0.17814 -0.0612822 -4.61519e-20)
(0.334237 -0.0762086 8.4962e-20)
(0.50871 -0.083504 0)
(0.683093 -0.0818826 0)
(0.837768 -0.069606 -8.34574e-20)
(0.966704 -0.0549787 -2.40383e-20)
(1.07281 -0.029001 5.7072e-20)
(1.13225 -0.0117515 -1.90643e-20)
(1.19193 0.012388 0)
(1.20573 0.0294432 -4.17646e-20)
(0.0203492 0.568559 0)
(0.137544 0.767711 3.22156e-21)
(0.0659004 0.903129 -2.98223e-21)
(0.164656 0.694403 0)
(0.464784 0.195713 0)
(0.743796 -0.315099 -1.53232e-22)
(0.808967 -0.574832 0)
(0.860211 -0.562213 0)
(0.847138 -0.601191 5.49202e-23)
(0.706045 -0.575693 0)
(0.625917 -0.508714 0)
(0.774091 -0.125819 -7.84147e-23)
(0.877534 0.15859 0)
(0.924911 0.341657 -9.28608e-23)
(0.951647 0.607262 -8.11347e-23)
(0.951309 0.489914 0)
(0.958134 0.416054 -4.96975e-22)
(1.01488 0.0741512 5.98092e-22)
(1.0221 -0.373675 0)
(1.08307 -0.438731 4.49514e-22)
(1.05467 -0.586095 -5.43945e-22)
(1.09164 -0.166126 9.07083e-23)
(1.07495 0.3515 -2.18343e-22)
(1.08012 0.408998 2.08632e-22)
(1.13832 0.519742 -2.08595e-22)
(1.19341 0.00399493 0)
(1.07598 -0.731772 -2.13553e-22)
(1.12589 -0.265808 2.04195e-22)
(1.09003 0.439421 -1.54724e-22)
(1.03466 0.24171 0)
(1.01729 -0.14832 -1.1622e-22)
(0.998817 -0.0945696 0)
(0.995215 0.0420448 -3.89513e-23)
(0.986946 0.0301032 -1.67593e-23)
(0.987067 -0.00455667 1.52197e-24)
(0.978269 -0.00206435 -9.91218e-24)
(0.981078 0.0047304 0)
(0.971222 0.00296371 3.10565e-24)
(-0.177299 0.458318 1.45736e-20)
(-0.0141527 0.724516 -9.56477e-23)
(0.0199859 0.846925 -1.12572e-20)
(0.319079 0.539664 1.07348e-20)
(0.647649 0.0342574 0)
(0.893079 -0.400631 1.54413e-22)
(0.925579 -0.614982 -2.22367e-22)
(0.934645 -0.576197 0)
(0.897423 -0.571286 -5.53282e-23)
(0.768631 -0.531362 0)
(0.698586 -0.522189 0)
(0.779016 -0.179202 7.89727e-23)
(0.872749 0.119854 0)
(0.89469 0.30798 2.91008e-21)
(0.929284 0.585769 -2.45048e-21)
(0.912855 0.485524 1.81268e-21)
(0.928976 0.405821 -1.73026e-21)
(1.03431 0.0696776 -1.24357e-22)
(1.02674 -0.378914 0)
(1.11213 -0.447016 0)
(1.06609 -0.587203 -1.05879e-22)
(1.07676 -0.169378 1.16549e-21)
(1.07316 0.345018 -1.90105e-21)
(1.04924 0.393538 8.62e-22)
(1.12753 0.505924 5.86189e-22)
(1.21329 0.0147679 0)
(1.07622 -0.719568 4.48008e-22)
(1.10682 -0.272118 0)
(1.07961 0.441173 1.55273e-22)
(1.0444 0.245973 -2.81708e-22)
(1.02919 -0.144734 4.94695e-22)
(1.0013 -0.0940838 -4.37746e-23)
(0.998185 0.0427146 7.38956e-23)
(0.992934 0.0306068 3.94092e-24)
(0.993621 -0.00407826 1.87273e-23)
(0.984703 -0.00171665 -8.6336e-24)
(0.988601 0.00509215 -7.80915e-25)
(0.979182 0.00352816 7.22644e-25)
(-0.164502 0.320825 1.38604e-20)
(0.0193725 0.599977 -2.86316e-20)
(0.166044 0.711571 -6.4594e-21)
(0.521862 0.399345 2.03939e-20)
(0.842392 -0.0764957 3.98542e-22)
(1.04757 -0.438322 -3.29926e-22)
(1.03475 -0.616937 2.26172e-22)
(0.998041 -0.562503 -2.9103e-22)
(0.939824 -0.527072 0)
(0.815926 -0.49229 5.57591e-21)
(0.781583 -0.532741 -5.31855e-21)
(0.810917 -0.235068 -1.30488e-22)
(0.876535 0.0957378 0)
(0.857571 0.304131 -5.50744e-21)
(0.900272 0.582271 5.09652e-21)
(0.873707 0.489712 -1.70711e-21)
(0.901426 0.391691 1.62885e-21)
(1.04683 0.0708037 2.21169e-21)
(1.03339 -0.371393 -1.9083e-21)
(1.13115 -0.450235 0)
(1.06729 -0.584182 0)
(1.05387 -0.179226 2.26136e-21)
(1.06753 0.340686 -2.15919e-21)
(1.01937 0.384638 -1.47621e-21)
(1.10978 0.491709 -6.39208e-23)
(1.22204 0.0320702 1.36684e-21)
(1.07064 -0.696131 -5.13129e-23)
(1.0794 -0.280814 -8.01542e-22)
(1.06517 0.440187 1.68351e-21)
(1.0498 0.252738 -1.23733e-21)
(1.03671 -0.137045 5.48656e-23)
(1.00021 -0.0925618 -1.57014e-22)
(0.99753 0.0428677 5.84746e-23)
(0.995432 0.0310175 -5.59095e-23)
(0.996606 -0.00346915 -1.19033e-23)
(0.987888 -0.00143464 -6.04712e-24)
(0.992801 0.0053469 1.8554e-23)
(0.984265 0.00405435 3.02966e-24)
(0.0386162 0.168931 0)
(0.199142 0.416843 9.41374e-21)
(0.392038 0.550343 -9.26804e-21)
(0.724311 0.285954 0)
(1.02279 -0.157736 -4.09606e-22)
(1.17789 -0.451712 3.38972e-22)
(1.12042 -0.593481 0)
(1.03313 -0.548239 6.43438e-24)
(0.979438 -0.486539 -2.19729e-22)
(0.857091 -0.458998 0)
(0.828789 -0.546741 -4.85404e-21)
(0.856955 -0.283224 4.76241e-21)
(0.914318 0.0649504 -3.37194e-22)
(0.848876 0.26945 -5.43142e-21)
(0.86065 0.558128 5.17989e-21)
(0.821584 0.492233 2.04523e-22)
(0.86844 0.377588 0)
(1.04841 0.0725415 -2.1642e-22)
(1.04415 -0.361895 3.85259e-21)
(1.14214 -0.452462 1.78966e-23)
(1.06177 -0.577443 8.99637e-22)
(1.02852 -0.195499 -3.58619e-21)
(1.05587 0.322306 -3.20886e-21)
(0.985898 0.367517 3.95651e-21)
(1.08347 0.472659 -3.43895e-22)
(1.21773 0.0505453 0)
(1.06459 -0.671144 -4.06439e-22)
(1.04631 -0.292968 8.12078e-22)
(1.0433 0.42965 -1.69042e-21)
(1.04795 0.255425 1.23797e-21)
(1.0393 -0.128817 -1.82095e-22)
(0.99577 -0.0912109 0)
(0.993519 0.0420782 -5.94657e-23)
(0.994529 0.0311334 1.0647e-22)
(0.996056 -0.00285319 3.55739e-23)
(0.987875 -0.00126333 3.46359e-23)
(0.993658 0.00546682 -1.85671e-23)
(0.986403 0.00451668 -4.62777e-26)
(0.36271 0.0661569 6.38617e-23)
(0.438206 0.253046 9.79998e-23)
(0.589133 0.393187 0)
(0.913319 0.185885 0)
(1.18961 -0.194908 0)
(1.27893 -0.421924 0)
(1.20207 -0.529974 1.1715e-20)
(1.06281 -0.516803 -1.98293e-20)
(1.01461 -0.45201 8.6157e-21)
(0.919071 -0.413795 0)
(0.841424 -0.554266 -5.02616e-21)
(0.892753 -0.356889 4.94757e-21)
(0.959733 0.0360925 6.27298e-21)
(0.8462 0.272777 -5.27442e-21)
(0.832879 0.558946 4.14156e-21)
(0.791502 0.494611 -4.15704e-21)
(0.848801 0.354308 -1.74484e-22)
(1.04685 0.0724487 -3.55422e-21)
(1.05616 -0.345602 3.3857e-21)
(1.14083 -0.447799 4.00872e-22)
(1.04986 -0.568782 4.52104e-22)
(0.993683 -0.217214 4.50324e-21)
(1.0372 0.313027 -4.90057e-21)
(0.957206 0.361028 -6.95797e-22)
(1.05772 0.455684 -2.78844e-22)
(1.20512 0.0737788 -2.00702e-22)
(1.05832 -0.640608 0)
(1.00783 -0.306203 0)
(1.02046 0.420064 0)
(1.04288 0.261169 0)
(1.0383 -0.117321 4.83546e-22)
(0.988807 -0.0888624 -2.84984e-22)
(0.986819 0.0409339 1.20509e-22)
(0.9906 0.0311869 -3.23794e-22)
(0.992261 -0.00214326 3.46973e-23)
(0.984921 -0.00114539 6.90081e-24)
(0.991343 0.00546177 -2.38594e-23)
(0.985676 0.00490065 -7.55979e-24)
(0.763212 0.0205344 -6.71623e-23)
(0.748722 0.140898 8.66762e-21)
(0.813324 0.253896 -8.28913e-21)
(1.10855 0.0981066 -3.65942e-20)
(1.33263 -0.202957 3.48362e-20)
(1.34036 -0.37585 3.18225e-20)
(1.25766 -0.456709 -2.96244e-20)
(1.10032 -0.473443 2.8553e-22)
(1.02761 -0.432511 -2.30758e-22)
(0.991123 -0.36409 0)
(0.85674 -0.528275 -1.73307e-22)
(0.875386 -0.42516 1.17741e-20)
(0.981766 -0.00961208 -1.12126e-20)
(0.850774 0.240076 -3.87439e-22)
(0.790129 0.533817 0)
(0.737109 0.505779 -3.36862e-21)
(0.821939 0.348923 6.20618e-21)
(1.03961 0.0830645 -2.684e-21)
(1.07067 -0.325909 0)
(1.13218 -0.438928 3.0738e-21)
(1.03712 -0.557247 9.5894e-22)
(0.9568 -0.243333 -4.51736e-21)
(1.01012 0.280763 -4.56476e-21)
(0.923357 0.343879 4.10667e-21)
(1.02592 0.438184 -1.84119e-21)
(1.18463 0.0976268 -5.61202e-23)
(1.05193 -0.608194 2.01905e-21)
(0.968503 -0.321046 -3.24666e-21)
(0.990905 0.397194 3.08865e-21)
(1.03009 0.262671 -3.88176e-22)
(1.03283 -0.106658 3.69032e-22)
(0.979754 -0.0868798 0)
(0.97788 0.0388939 1.21801e-22)
(0.983986 0.0309572 -3.00301e-23)
(0.985627 -0.00149047 0)
(0.979411 -0.00114922 -3.51906e-23)
(0.986182 0.00531469 1.57022e-23)
(0.982304 0.00518631 -2.92412e-24)
(1.09586 0.0230712 0)
(1.06052 0.0834441 0)
(1.08201 0.159319 -4.61012e-23)
(1.28876 0.0436486 0)
(1.41762 -0.169948 0)
(1.35539 -0.309194 2.8749e-20)
(1.26528 -0.384661 -2.74012e-20)
(1.13583 -0.419079 1.71586e-20)
(1.02768 -0.424803 -1.63636e-20)
(1.0296 -0.330232 0)
(0.910538 -0.472048 -1.4765e-22)
(0.831876 -0.504063 1.85211e-22)
(0.986449 -0.0747265 -1.40291e-20)
(0.856511 0.247573 1.01177e-21)
(0.755257 0.553894 1.15348e-20)
(0.72358 0.503556 1.09019e-22)
(0.824743 0.318347 -8.83e-23)
(1.03941 0.0787035 6.36178e-21)
(1.08399 -0.306312 -6.22729e-21)
(1.12164 -0.419534 0)
(1.02463 -0.542918 0)
(0.914878 -0.272021 -3.66025e-22)
(0.978166 0.265779 0)
(0.893352 0.337335 2.6112e-21)
(1.00223 0.425059 -4.82287e-22)
(1.16655 0.120876 -1.58034e-21)
(1.04288 -0.570157 -3.09604e-21)
(0.929246 -0.336299 2.10604e-21)
(0.963812 0.380989 -3.38324e-22)
(1.01707 0.26646 0)
(1.0254 -0.0935789 -2.62824e-22)
(0.970065 -0.0840848 2.49189e-22)
(0.967685 0.0369767 7.77506e-23)
(0.975383 0.0308192 2.87286e-23)
(0.976807 -0.000795613 -4.35284e-23)
(0.971894 -0.00114677 1.39108e-23)
(0.97866 0.0050794 0)
(0.97664 0.00537617 5.94115e-24)
(1.21344 0.0282518 2.55914e-20)
(1.2013 0.0514933 1.53532e-20)
(1.22659 0.0911834 1.93734e-21)
(1.3313 0.0360654 -3.78211e-20)
(1.3862 -0.0931649 2.10659e-20)
(1.32416 -0.210772 -2.28066e-22)
(1.25687 -0.307096 0)
(1.17167 -0.35571 -1.5089e-22)
(1.04202 -0.406119 -1.21433e-22)
(1.03969 -0.320584 0)
(0.964458 -0.401708 -1.11507e-20)
(0.807558 -0.524629 1.05492e-20)
(0.926911 -0.177307 2.26039e-22)
(0.839383 0.177836 1.34617e-20)
(0.7323 0.513719 -1.2751e-20)
(0.683305 0.52183 1.15145e-22)
(0.798843 0.334309 9.34786e-23)
(1.03243 0.106235 0)
(1.09595 -0.269968 5.99531e-21)
(1.11767 -0.398402 -5.6876e-21)
(1.00735 -0.519375 -4.70441e-21)
(0.879654 -0.303792 -9.92416e-22)
(0.932279 0.216656 5.50977e-21)
(0.860131 0.315741 -2.60296e-21)
(0.962145 0.406293 8.25845e-22)
(1.14872 0.151232 2.88333e-21)
(1.03317 -0.526745 -9.65004e-22)
(0.897704 -0.351811 3.61002e-21)
(0.931178 0.347366 -2.6387e-21)
(0.995933 0.268469 0)
(1.01438 -0.0798844 0)
(0.959993 -0.0810537 0)
(0.956584 0.0339734 4.4464e-23)
(0.965241 0.0302983 -7.49925e-23)
(0.96645 -0.000201989 4.4633e-23)
(0.962931 -0.00133636 -2.82106e-23)
(0.969317 0.00467805 -1.31186e-23)
(0.969121 0.00543044 0)
(1.17839 0.0329349 0)
(1.19658 0.0381892 0)
(1.23073 0.0434946 0)
(1.27142 0.0132948 0)
(1.31188 -0.0748376 0)
(1.27843 -0.153584 0)
(1.22925 -0.233614 0)
(1.1994 -0.261751 0)
(1.06566 -0.344605 0)
(1.04514 -0.274443 0)
(1.01501 -0.328754 0)
(0.816702 -0.53235 0)
(0.840166 -0.262066 0)
(0.809276 0.169727 0)
(0.701605 0.54493 0)
(0.678931 0.511993 0)
(0.84408 0.273987 0)
(1.06231 0.0844059 0)
(1.10818 -0.240549 0)
(1.12642 -0.371741 0)
(0.975119 -0.518302 0)
(0.849053 -0.327975 0)
(0.884485 0.200301 0)
(0.811712 0.30977 0)
(0.938456 0.393077 0)
(1.16771 0.172683 0)
(1.02476 -0.496029 0)
(0.870934 -0.359389 0)
(0.89818 0.32684 0)
(0.975863 0.269824 0)
(1.00145 -0.0708736 0)
(0.948036 -0.0767477 0)
(0.9433 0.0325615 0)
(0.952199 0.0304156 0)
(0.952616 0.000546991 0)
(0.950648 -0.00144747 0)
(0.956144 0.00429154 0)
(0.958153 0.0054531 0)
(1.17651 0.0355605 0)
(1.18447 0.0213608 0)
(1.20754 0.0188762 0)
(1.2258 -0.0233948 0)
(1.24052 -0.0859993 0)
(1.23106 -0.136516 0)
(1.17627 -0.242881 0)
(1.12964 -0.256601 0)
(1.05146 -0.304982 0)
(0.96724 -0.290614 0)
(0.933059 -0.321057 0)
(0.80597 -0.439877 0)
(0.753608 -0.179078 0)
(0.687691 0.23565 0)
(0.62915 0.578396 0)
(0.706137 0.462899 0)
(0.912143 0.191214 0)
(1.10194 -0.00102597 0)
(1.12686 -0.284645 0)
(1.10486 -0.356323 0)
(0.891223 -0.438189 0)
(0.781977 -0.263867 0)
(0.807687 0.232497 0)
(0.723454 0.303006 0)
(0.91168 0.331556 0)
(1.16808 0.119911 0)
(1.0039 -0.458921 0)
(0.833145 -0.313051 0)
(0.857177 0.329584 0)
(0.947856 0.247205 0)
(0.984439 -0.0693273 0)
(0.929982 -0.0678023 0)
(0.923103 0.0329083 0)
(0.933436 0.0290392 0)
(0.933763 0.000368619 0)
(0.93358 -0.0019411 0)
(0.937618 0.00349391 0)
(0.942335 0.00514079 0)
(1.16055 0.0316477 0)
(1.16855 0.0119803 0)
(1.18422 -0.00611735 0)
(1.19617 -0.0232545 0)
(1.19053 -0.0844328 0)
(1.18744 -0.110393 0)
(1.1612 -0.168954 0)
(1.09861 -0.189383 0)
(1.07356 -0.231568 0)
(1.00022 -0.19615 0)
(0.96435 -0.227714 0)
(0.819664 -0.382847 0)
(0.659279 -0.151271 0)
(0.569399 0.267779 0)
(0.608247 0.555709 0)
(0.826721 0.366875 0)
(1.01063 0.0847926 0)
(1.13324 -0.03235 0)
(1.13794 -0.2321 0)
(1.08708 -0.28861 0)
(0.850712 -0.388055 0)
(0.701048 -0.259619 0)
(0.706119 0.234184 0)
(0.656029 0.262831 0)
(0.885332 0.254409 0)
(1.17174 0.119285 0)
(1.01233 -0.398909 0)
(0.785136 -0.297922 0)
(0.808369 0.303292 0)
(0.924565 0.223966 0)
(0.970207 -0.0636545 0)
(0.911184 -0.060387 0)
(0.902342 0.0305634 0)
(0.914825 0.0276019 0)
(0.91425 0.000830398 0)
(0.915063 -0.00221341 0)
(0.917259 0.00262226 0)
(0.924338 0.00459825 0)
(1.13894 0.0244971 0)
(1.15442 0.00791646 0)
(1.1569 -0.012155 0)
(1.16198 -0.0344106 0)
(1.1614 -0.0748337 0)
(1.13642 -0.0962468 0)
(1.12617 -0.156887 0)
(1.06967 -0.16392 0)
(1.03912 -0.210026 0)
(0.960406 -0.204943 0)
(0.942329 -0.210892 0)
(0.846582 -0.259595 0)
(0.657065 -0.0240306 0)
(0.590634 0.264969 0)
(0.717313 0.420919 0)
(0.996565 0.240099 0)
(1.10718 0.0383905 0)
(1.15424 -0.0658164 0)
(1.12408 -0.247697 0)
(1.03297 -0.234794 0)
(0.839135 -0.28092 0)
(0.615988 -0.185445 0)
(0.592811 0.253387 0)
(0.643834 0.213487 0)
(0.862936 0.156632 0)
(1.15044 0.0676025 0)
(1.01787 -0.33139 0)
(0.719364 -0.234916 0)
(0.73289 0.282835 0)
(0.912034 0.187766 0)
(0.96261 -0.0615316 0)
(0.890137 -0.0492989 0)
(0.878273 0.0300865 0)
(0.896195 0.0258622 0)
(0.896125 0.000775977 0)
(0.89758 -0.00258895 0)
(0.897723 0.0016344 0)
(0.90636 0.00376651 0)
(1.1195 0.0198771 0)
(1.13134 0.00244545 0)
(1.13487 -0.0157958 0)
(1.13349 -0.0337936 0)
(1.13016 -0.0667731 0)
(1.1088 -0.0787728 0)
(1.10438 -0.122548 0)
(1.05272 -0.119534 0)
(1.04557 -0.151764 0)
(0.973721 -0.132322 0)
(0.941788 -0.128902 0)
(0.854445 -0.175328 0)
(0.729557 0.0208852 0)
(0.751746 0.213307 0)
(0.892656 0.288533 0)
(1.11255 0.137201 0)
(1.13223 -0.00644329 0)
(1.14611 -0.0521307 0)
(1.11883 -0.179748 0)
(1.01049 -0.15764 0)
(0.899576 -0.190648 0)
(0.63436 -0.124988 0)
(0.58876 0.225552 0)
(0.729774 0.136934 0)
(0.863315 0.0642868 0)
(1.12913 0.0456558 0)
(1.03763 -0.256484 0)
(0.676542 -0.178569 0)
(0.688563 0.246475 0)
(0.934698 0.145045 0)
(0.969184 -0.0520436 0)
(0.875539 -0.0345718 0)
(0.863005 0.0282748 0)
(0.888956 0.0227352 0)
(0.889431 0.00078338 0)
(0.889251 -0.00264309 0)
(0.886878 0.000753808 0)
(0.894783 0.00277297 0)
(1.101 0.0149158 0)
(1.11144 -7.47463e-05 0)
(1.11232 -0.0144245 0)
(1.1103 -0.0311875 0)
(1.10526 -0.054118 0)
(1.08687 -0.063432 0)
(1.08257 -0.0973115 0)
(1.03625 -0.0921196 0)
(1.03317 -0.123692 0)
(0.966342 -0.108746 0)
(0.960025 -0.0979745 0)
(0.898603 -0.108357 0)
(0.82326 0.041151 0)
(0.88464 0.147318 0)
(0.985981 0.169483 0)
(1.13652 0.0823368 0)
(1.11572 0.0144705 0)
(1.11302 -0.048016 0)
(1.07961 -0.169125 0)
(0.965022 -0.121858 0)
(0.940487 -0.0994424 0)
(0.732381 -0.0377104 0)
(0.711677 0.199363 0)
(0.896421 0.0921379 0)
(0.908418 -0.0102717 0)
(1.09255 -0.00916962 0)
(1.0519 -0.170137 0)
(0.682921 -0.0928265 0)
(0.71059 0.188244 0)
(0.976057 0.0890543 0)
(0.981833 -0.0399446 0)
(0.88033 -0.0152478 0)
(0.8742 0.025359 0)
(0.903992 0.0180926 0)
(0.903822 0.000886484 0)
(0.899656 -0.00203348 0)
(0.895209 0.000394397 0)
(0.899221 0.00192641 0)
(1.08447 0.0120414 0)
(1.09249 -0.0018685 0)
(1.09251 -0.0124154 0)
(1.08975 -0.0263048 0)
(1.08463 -0.0433089 0)
(1.06894 -0.0495271 0)
(1.06479 -0.074735 0)
(1.02987 -0.0676555 0)
(1.0308 -0.0876617 0)
(0.978728 -0.0723253 0)
(0.977319 -0.0591667 0)
(0.932 -0.0566794 0)
(0.893547 0.0253911 0)
(0.956974 0.0876064 0)
(1.00659 0.10771 0)
(1.09738 0.0467873 0)
(1.083 0.00444685 0)
(1.09541 -0.028592 0)
(1.0679 -0.102326 0)
(0.949603 -0.0725473 0)
(0.961394 -0.0514325 0)
(0.845247 -0.00357352 0)
(0.860251 0.139667 0)
(1.03906 0.0549765 0)
(0.984474 -0.0225653 0)
(1.05163 -0.0223704 0)
(1.05894 -0.0995846 0)
(0.771699 -0.0268135 0)
(0.802638 0.122269 0)
(1.01862 0.0436781 0)
(1.00213 -0.0199199 0)
(0.916186 0.00252292 0)
(0.918013 0.0199753 0)
(0.942086 0.013373 0)
(0.940928 0.00208925 0)
(0.932338 -0.000374005 0)
(0.927446 0.00100413 0)
(0.92556 0.00179667 0)
(1.06979 0.00996578 0)
(1.07632 -0.00238163 0)
(1.07477 -0.00902989 0)
(1.07364 -0.020901 0)
(1.06749 -0.0319597 0)
(1.05673 -0.0371274 0)
(1.05163 -0.0539618 0)
(1.02683 -0.0471838 0)
(1.02656 -0.063649 0)
(0.989527 -0.0474785 0)
(0.988715 -0.0448446 0)
(0.963122 -0.0296435 0)
(0.946543 0.0134288 0)
(0.982878 0.0483156 0)
(1.01019 0.0620721 0)
(1.06901 0.0274816 0)
(1.05527 0.0109425 0)
(1.06193 -0.0279671 0)
(1.04512 -0.0737245 0)
(0.965817 -0.0509601 0)
(0.979835 -0.0317485 0)
(0.926511 0.0154073 0)
(0.954177 0.089003 0)
(1.06778 0.0346045 0)
(1.01751 -0.0150626 0)
(1.0285 -0.0405086 0)
(1.03285 -0.0570853 0)
(0.870996 0.0296931 0)
(0.913419 0.081633 0)
(1.04044 0.0111862 0)
(1.01155 -0.00318513 0)
(0.960034 0.0168938 0)
(0.969525 0.016191 0)
(0.982572 0.0101442 0)
(0.981064 0.00381592 0)
(0.971342 0.00187172 0)
(0.968369 0.00243322 0)
(0.963066 0.00249117 0)
(1.05734 0.00876323 0)
(1.06291 -0.00164668 0)
(1.06045 -0.00552875 0)
(1.06076 -0.0150611 0)
(1.05377 -0.022513 0)
(1.04806 -0.0262016 0)
(1.04074 -0.0381017 0)
(1.02674 -0.0320045 0)
(1.02296 -0.0446729 0)
(1.00097 -0.0294532 0)
(1.00066 -0.0315922 0)
(0.983087 -0.0133645 0)
(0.980045 0.00409339 0)
(0.996331 0.0253691 0)
(1.01313 0.036059 0)
(1.04299 0.0133995 0)
(1.04101 0.00600987 0)
(1.04696 -0.0195678 0)
(1.0298 -0.0390222 0)
(0.985656 -0.0284561 0)
(0.988159 -0.0182756 0)
(0.964186 0.0143223 0)
(0.99146 0.0490847 0)
(1.05236 0.0205692 0)
(1.02846 -0.000713269 0)
(1.02379 -0.0259594 0)
(1.00242 -0.0307719 0)
(0.937095 0.0369936 0)
(0.991867 0.047539 0)
(1.04118 0.00317563 0)
(1.01093 0.0125391 0)
(0.995005 0.0210363 0)
(1.008 0.0113007 0)
(1.01117 0.00885481 0)
(1.00971 0.00580301 0)
(1.00199 0.00369938 0)
(1.00126 0.00367268 0)
(0.995981 0.00347852 0)
(1.04725 0.00802147 0)
(1.05213 -0.000365554 0)
(1.04877 -0.00247573 0)
(1.05056 -0.00998442 0)
(1.04329 -0.0146779 0)
(1.04163 -0.0174565 0)
(1.03343 -0.0255998 0)
(1.02689 -0.0204007 0)
(1.02141 -0.0305148 0)
(1.00953 -0.0171219 0)
(1.00817 -0.0229653 0)
(0.996876 -0.00656009 0)
(0.999683 -0.00105262 0)
(1.00287 0.0121406 0)
(1.0167 0.0182029 0)
(1.02904 0.00571891 0)
(1.03131 0.00515482 0)
(1.03209 -0.0159754 0)
(1.01983 -0.0227592 0)
(0.99948 -0.0193248 0)
(0.99618 -0.0123114 0)
(0.986541 0.0116577 0)
(1.00488 0.0279539 0)
(1.03233 0.0135198 0)
(1.02269 0.00329997 0)
(1.02215 -0.0199199 0)
(0.998075 -0.0173261 0)
(0.976789 0.0348907 0)
(1.0183 0.0304479 0)
(1.02766 0.00283762 0)
(1.01218 0.0177128 0)
(1.01697 0.0193291 0)
(1.02463 0.0090242 0)
(1.02315 0.00899841 0)
(1.02329 0.00688902 0)
(1.01859 0.00467927 0)
(1.01879 0.00441228 0)
(1.01531 0.0042192 0)
(1.03915 0.00741928 0)
(1.04313 0.00115104 0)
(1.03988 -0.000107191 0)
(1.04241 -0.00552403 0)
(1.03568 -0.00862081 0)
(1.03652 -0.0106112 0)
(1.02841 -0.0161501 0)
(1.02676 -0.012492 0)
(1.02044 -0.0197405 0)
(1.0151 -0.0102148 0)
(1.01324 -0.0158138 0)
(1.00596 -0.00349344 0)
(1.00997 -0.00344733 0)
(1.00767 0.00542994 0)
(1.01871 0.00814682 0)
(1.0199 0.00153913 0)
(1.02565 0.00236034 0)
(1.02386 -0.01103 0)
(1.01627 -0.0108305 0)
(1.00769 -0.0111671 0)
(1.00176 -0.00549683 0)
(0.99874 0.00810371 0)
(1.00892 0.0153448 0)
(1.02279 0.00904868 0)
(1.02011 0.00522543 0)
(1.02009 -0.00771272 0)
(0.99924 -0.00616468 0)
(0.99473 0.0246844 0)
(1.0233 0.0199027 0)
(1.01959 0.00705478 0)
(1.01442 0.0190469 0)
(1.02453 0.0163582 0)
(1.02733 0.00823382 0)
(1.02614 0.00926008 0)
(1.02736 0.0075218 0)
(1.02464 0.00540099 0)
(1.02491 0.00490752 0)
(1.02322 0.0047743 0)
(1.03275 0.00687659 0)
(1.03588 0.00258294 0)
(1.03327 0.00165955 0)
(1.03563 -0.00208067 0)
(1.03022 -0.00418595 0)
(1.03189 -0.00570467 0)
(1.02514 -0.00931623 0)
(1.02566 -0.00714906 0)
(1.01996 -0.012007 0)
(1.01825 -0.00593939 0)
(1.01586 -0.0102595 0)
(1.01182 -0.00233767 0)
(1.01474 -0.00371533 0)
(1.01089 0.00180385 0)
(1.01921 0.00257181 0)
(1.0161 -0.000312263 0)
(1.02202 0.00107683 0)
(1.0184 -0.00724377 0)
(1.0149 -0.00534651 0)
(1.01079 -0.00663542 0)
(1.00596 -0.00271416 0)
(1.00675 0.00507821 0)
(1.01032 0.00900034 0)
(1.01796 0.00649894 0)
(1.01614 0.00442067 0)
(1.01723 -0.00300058 0)
(1.00533 -0.00124505 0)
(1.00476 0.0176331 0)
(1.02115 0.0147868 0)
(1.01594 0.00825117 0)
(1.01667 0.0158358 0)
(1.02595 0.0135472 0)
(1.02622 0.0080968 0)
(1.02618 0.00863207 0)
(1.02777 0.00715285 0)
(1.02625 0.00551415 0)
(1.02638 0.00488258 0)
(1.02566 0.00482323 0)
(1.02782 0.00641014 0)
(1.03001 0.00369247 0)
(1.02824 0.00280596 0)
(1.03004 0.000398891 0)
(1.02623 -0.00114267 0)
(1.0278 -0.00225229 0)
(1.02287 -0.00457146 0)
(1.02395 -0.00358658 0)
(1.01953 -0.00653522 0)
(1.01934 -0.00332956 0)
(1.01714 -0.00604059 0)
(1.01499 -0.00167895 0)
(1.01654 -0.0029597 0)
(1.01328 7.79062e-05 0)
(1.01859 0.000339094 0)
(1.0147 -0.00105768 0)
(1.01926 9.62206e-05 0)
(1.01576 -0.00436015 0)
(1.01471 -0.00249665 0)
(1.01244 -0.00317006 0)
(1.00922 -0.00059339 0)
(1.01058 0.00370799 0)
(1.01105 0.00554973 0)
(1.01624 0.00509469 0)
(1.01486 0.00457262 0)
(1.01594 0.00141655 0)
(1.00903 0.00292798 0)
(1.00921 0.0125598 0)
(1.01946 0.0113808 0)
(1.01597 0.00954585 0)
(1.01774 0.0137835 0)
(1.02451 0.012037 0)
(1.02465 0.00835335 0)
(1.02563 0.00828369 0)
(1.027 0.00718305 0)
(1.02621 0.00589581 0)
(1.0263 0.00513208 0)
(1.02609 0.00507094 0)
(1.0239 0.00598751 0)
(1.02535 0.00439428 0)
(1.02434 0.00350882 0)
(1.02553 0.00206905 0)
(1.02316 0.000846148 0)
(1.02423 8.22316e-05 0)
(1.02099 -0.00147373 0)
(1.02189 -0.00117223 0)
(1.0189 -0.00292532 0)
(1.01917 -0.00153386 0)
(1.01741 -0.00302083 0)
(1.01634 -0.0011324 0)
(1.01687 -0.00172654 0)
(1.01468 -0.000587307 0)
(1.01757 -0.000184697 0)
(1.01457 -0.00112888 0)
(1.01739 -5.91661e-05 0)
(1.01466 -0.00223107 0)
(1.01459 -0.00109296 0)
(1.01298 -0.000893903 0)
(1.01127 4.97257e-05 0)
(1.01249 0.00308822 0)
(1.01183 0.00374696 0)
(1.01517 0.00420731 0)
(1.01374 0.00422017 0)
(1.01496 0.00242421 0)
(1.0119 0.00419841 0)
(1.01225 0.00933425 0)
(1.01791 0.00918905 0)
(1.01613 0.00894801 0)
(1.01819 0.010833 0)
(1.02299 0.0103036 0)
(1.02333 0.00803824 0)
(1.02479 0.00737696 0)
(1.02588 0.00659487 0)
(1.02574 0.00568193 0)
(1.02581 0.00490406 0)
(1.02591 0.00490545 0)
(1.02072 0.00554135 0)
(1.02167 0.00473426 0)
(1.02118 0.00382996 0)
(1.02193 0.00309149 0)
(1.02057 0.00201803 0)
(1.02123 0.00157011 0)
(1.01928 0.00044497 0)
(1.01986 0.000418404 0)
(1.018 -0.00059316 0)
(1.0183 -0.000295835 0)
(1.01706 -0.00090315 0)