/*--------------------------------*- C++ -*----------------------------------*\
| =========                 |                                                 |
| \\      /  F ield         | OpenFOAM: The Open Source CFD Toolbox           |
|  \\    /   O peration     | Version:  2512                                  |
|   \\  /    A nd           | Website:  www.openfoam.com                      |
|    \\/     M anipulation  |                                                 |
\*---------------------------------------------------------------------------*/
FoamFile
{
    version     2.0;
    format      ascii;
    arch        "LSB;label=32;scalar=64";
    class       surfaceScalarField;
    location    "180.9";
    object      phi;
}
// * * * * * * * * * * * * * * * * * * * * * * * * * * * * * * * * * * * * * //

dimensions      [0 3 -1 0 0 0 0];

oriented        oriented;

internalField   nonuniform List<scalar> 
26232
(
0.000214321
0.00118981
-0.00140413
0.000694301
0.00188507
-0.00236505
0.00157891
0.00117105
-0.00205566
0.00314878
-0.000845683
-0.000724184
0.0057435
-0.00418839
0.00159366
0.00970311
-0.00894647
0.00498686
0.0153167
-0.0151935
0.00957989
0.0227437
-0.0228683
0.0154414
0.0319331
-0.031707
0.0225176
0.042586
-0.0412456
0.0305927
0.0541871
-0.0508973
0.0392962
0.0660971
-0.0600667
0.0481568
0.0776746
-0.0682589
0.0566814
0.0883894
-0.0751534
0.0644386
0.0978986
-0.080629
0.0711198
0.106081
-0.0847513
0.0765685
0.113021
-0.0877189
0.0807796
0.118957
-0.0898129
0.0838769
0.124236
-0.0913207
0.0860417
0.1292
-0.092529
0.0875645
0.13419
-0.0935989
0.0886091
0.139527
-0.0947894
0.0894523
0.145203
-0.0960823
0.0904067
-0.0975257
0.0911622
0.151566
0.000245366
0.000944444
0.000972022
0.00115841
0.00237317
-0.00023009
0.00478512
-0.00325763
0.00858657
-0.00798984
0.0141398
-0.0144997
0.0216533
-0.022707
0.03106
-0.032275
0.0419624
-0.0426094
0.0536901
-0.0529732
0.0654459
-0.0626531
0.0764814
-0.0711022
0.0862431
-0.0780206
0.0944545
-0.0833648
0.101128
-0.0873029
0.106512
-0.0901348
0.110998
-0.0922048
0.115024
-0.0938386
0.118978
-0.0952756
0.123164
-0.0967143
0.127766
-0.0982012
0.132881
-0.0999041
0.138431
-0.101632
-0.10372
0.144625
0.00024691
0.000697534
0.00118769
0.000217632
0.00314162
-0.00218402
0.0065042
-0.00662021
0.0116983
-0.0131839
0.0189918
-0.0217933
0.0283189
-0.0320341
0.0391921
-0.0431482
0.0507891
-0.0542064
0.0621687
-0.0643529
0.0725097
-0.0729941
0.0812852
-0.0798777
0.0883316
-0.085067
0.0938159
-0.0888492
0.0981278
-0.0916148
0.101742
-0.0937487
0.105099
-0.0955616
0.10852
-0.0972599
0.112207
-0.0989628
0.116227
-0.100735
0.120604
-0.102578
0.125277
-0.104577
0.130244
-0.1066
-0.108938
0.135462
0.000274775
0.000422759
0.00150283
-0.00101042
0.00413047
-0.00481166
0.00863297
-0.0111227
0.0153597
-0.0199106
0.0242876
-0.0307211
0.0348743
-0.0426208
0.0461631
-0.0544371
0.0570821
-0.0651254
0.0667569
-0.0740277
0.0747072
-0.0809444
0.080884
-0.0860545
0.0855768
-0.0897598
0.0892495
-0.0925218
0.0923759
-0.0947413
0.0953302
-0.0967029
0.0983439
-0.0985754
0.10153
-0.100446
0.104927
-0.102359
0.108535
-0.104343
0.112367
-0.10641
0.116421
-0.108631
0.120728
-0.110906
-0.113503
0.125293
0.000365874
5.68855e-05
0.00201025
-0.0026548
0.00549202
-0.00829343
0.0112731
-0.0169037
0.0194442
-0.0280818
0.0294809
-0.0407578
0.0403252
-0.0534651
0.0507737
-0.0648856
0.0598866
-0.0742382
0.0672091
-0.0813502
0.0727706
-0.0865059
0.0769294
-0.0902132
0.0801663
-0.0929968
0.0829179
-0.0952734
0.0854932
-0.0973166
0.0880706
-0.0992803
0.0907393
-0.101244
0.0935441
-0.103251
0.0965155
-0.10533
0.0996791
-0.107506
0.103064
-0.109795
0.10666
-0.112227
0.110491
-0.114737
-0.117538
0.114526
0.000528389
-0.000471504
0.00273024
-0.00485665
0.00720112
-0.0127643
0.0142261
-0.0239287
0.0234188
-0.0372745
0.0336894
-0.0510284
0.0436973
-0.063473
0.0523926
-0.0735809
0.0592918
-0.0811374
0.0644481
-0.0865065
0.0682431
-0.090301
0.0711515
-0.0931216
0.0735787
-0.095424
0.0758022
-0.0974968
0.0779848
-0.0994992
0.0802174
-0.101513
0.082553
-0.10358
0.0850248
-0.105723
0.0876532
-0.107959
0.0904443
-0.110297
0.0933979
-0.112749
0.0964917
-0.115321
0.0997483
-0.117993
-0.120886
0.103096
0.000751832
-0.00122334
0.00361417
-0.00771899
0.00909302
-0.0182432
0.0170848
-0.0319205
0.0266033
-0.046793
0.0361863
-0.0606114
0.044607
-0.0718936
0.0512703
-0.0802442
0.0561889
-0.086056
0.0597345
-0.0900521
0.0623745
-0.092941
0.0645061
-0.0952532
0.0664021
-0.0973201
0.0682262
-0.0993209
0.0700695
-0.101343
0.0719807
-0.103424
0.0739841
-0.105583
0.0760914
-0.10783
0.0783067
-0.110174
0.0806338
-0.112625
0.0830754
-0.11519
0.0856296
-0.117875
0.0883098
-0.120674
-0.123647
0.0910709
0.0010183
-0.00224164
0.00457842
-0.0112791
0.0109281
-0.0245929
0.0193935
-0.0403859
0.0284827
-0.0558822
0.036729
-0.0688577
0.043319
-0.0784836
0.048146
-0.0850712
0.0515399
-0.0894499
0.0539657
-0.0924779
0.0558326
-0.0948079
0.0574262
-0.0968468
0.0589167
-0.0988105
0.0603944
-0.100799
0.0619033
-0.102851
0.0634645
-0.104985
0.0650902
-0.107209
0.0667906
-0.109531
0.0685757
-0.111959
0.0704532
-0.114502
0.0724246
-0.117161
0.074483
-0.119934
0.0766289
-0.12282
-0.125832
0.0788139
0.00130738
-0.00354902
0.00552217
-0.0154939
0.0124501
-0.0315208
0.0208037
-0.0487395
0.0288797
-0.0639582
0.0355237
-0.0755018
0.040402
-0.0833619
0.0437517
-0.0884208
0.0460293
-0.0917275
0.047669
-0.0941176
0.0489819
-0.0961209
0.0501531
-0.098018
0.051278
-0.0999354
0.0524017
-0.101922
0.0535468
-0.103997
0.0547278
-0.106166
0.055956
-0.108437
0.0572405
-0.110815
0.0585868
-0.113306
0.0599962
-0.115911
0.0614656
-0.118631
0.0629931
-0.121461
0.0645772
-0.124404
-0.127451
0.0661967
0.00159494
-0.00514396
0.00633561
-0.0202346
0.0134453
-0.0386305
0.0211686
-0.0564628
0.0279186
-0.0707082
0.0329841
-0.0805673
0.0364158
-0.0867936
0.0386304
-0.0906354
0.0400898
-0.0931869
0.0411451
-0.0951728
0.0420093
-0.0969851
0.0427927
-0.0988014
0.0435473
-0.10069
0.0442983
-0.102673
0.0450601
-0.104758
0.0458427
-0.106949
0.0466536
-0.109248
0.0474989
-0.11166
0.0483834
-0.11419
0.0493101
-0.116838
0.0502794
-0.1196
0.051291
-0.122473
0.0523414
-0.125454
-0.128532
0.0534223
0.00185396
-0.00699792
0.00691694
-0.0252975
0.0137954
-0.045509
0.020537
-0.0632044
0.0258826
-0.0760537
0.0295382
-0.084223
0.031803
-0.0890584
0.0331502
-0.0919826
0.0339825
-0.0940192
0.0345584
-0.0957487
0.0350147
-0.0974414
0.0354155
-0.0992022
0.0357895
-0.101064
0.0361513
-0.103035
0.0365101
-0.105117
0.0368734
-0.107312
0.0372482
-0.109623
0.037641
-0.112053
0.0380566
-0.114606
0.0384969
-0.117278
0.0389612
-0.120065
0.0394474
-0.122959
0.0399501
-0.125957
-0.129051
0.0404686
0.00206138
-0.00905931
0.00719995
-0.0304361
0.0135021
-0.0518112
0.0190877
-0.06879
0.0230951
-0.0800611
0.0255525
-0.0866804
0.0268862
-0.0903921
0.0275491
-0.0926454
0.0278628
-0.0943329
0.0280068
-0.0958927
0.0280655
-0.0975001
0.0280753
-0.099212
0.0280526
-0.101041
0.028007
-0.102989
0.0279458
-0.105056
0.0278753
-0.107242
0.0278013
-0.109549
0.0277283
-0.11198
0.02766
-0.114537
0.0275987
-0.117217
0.0275465
-0.120012
0.027504
-0.122916
0.0274676
-0.12592
0.027443
-0.129026
-1.83099e-05
-0.00604157
0.00605988
-0.000514599
-0.0149165
0.0154128
-0.001704
-0.0208206
0.02201
-0.00351557
-0.02443
0.0262415
-0.00576304
-0.0267986
0.0290461
-0.00825395
-0.0288174
0.0313083
-0.0108388
-0.0309564
0.0335413
-0.0134039
-0.0333136
0.0358787
-0.0158405
-0.0357799
0.0382166
-0.0180233
-0.0381654
0.0403481
-0.0198047
-0.0402543
0.0420357
-0.021022
-0.0418226
0.0430399
-0.0215096
-0.0426479
0.0431355
-0.0211146
-0.0425245
0.0421295
-0.0197293
-0.0412751
0.0398897
-0.0172753
-0.0387668
0.0363129
-0.0137436
-0.0349199
0.0313882
-0.00918861
-0.0297044
0.0251495
-0.00371917
-0.0231187
0.0176492
0.00247901
-0.0151547
0.00895657
0.00918842
-0.00579544
-0.000913972
0.0164164
0.00468952
-0.0119175
0.024285
0.0165268
-0.0243955
0.0296871
0.032987
-0.038389
-0.0004101
-0.00563147
-0.0016561
-0.0136705
-0.00368556
-0.0187911
-0.00633704
-0.0217785
-0.00942898
-0.0237067
-0.0128232
-0.0254232
-0.01643
-0.0273496
-0.0201788
-0.0295648
-0.0239864
-0.0319723
-0.0277392
-0.0344125
-0.0312899
-0.0367037
-0.0344624
-0.0386501
-0.0370632
-0.0400471
-0.0388979
-0.0406898
-0.0397878
-0.0403853
-0.0395873
-0.0389673
-0.0382035
-0.0363037
-0.0356057
-0.0323022
-0.0318201
-0.0269043
-0.0268935
-0.0200813
-0.0208663
-0.0118226
-0.0141014
-0.00207541
-0.00611895
0.00854433
0.0206373
0.00293084
-0.000750776
-0.00488069
-0.00259577
-0.0118256
-0.00525839
-0.0161285
-0.00850355
-0.0185333
-0.0121684
-0.0200418
-0.0161664
-0.0214251
-0.0204579
-0.0230581
-0.0250105
-0.0250123
-0.0297698
-0.027213
-0.0346463
-0.029536
-0.0395118
-0.0318382
-0.0442012
-0.0339607
-0.0485193
-0.035729
-0.0522517
-0.0369574
-0.0551788
-0.0374582
-0.0570937
-0.0370525
-0.0578167
-0.0355808
-0.0572085
-0.0329103
-0.0551741
-0.0289387
-0.0516598
-0.0235957
-0.046632
-0.0168504
-0.0400218
-0.00868562
-0.0321984
0.00072093
0.0112818
-0.0228429
-0.00100374
-0.00387696
-0.00326384
-0.00956546
-0.00633011
-0.0130622
-0.00991526
-0.0149482
-0.0138698
-0.0160873
-0.0181395
-0.0171554
-0.0227126
-0.0184849
-0.0275778
-0.0201471
-0.0327013
-0.0220895
-0.0380187
-0.0242186
-0.0434325
-0.0264244
-0.0488115
-0.0285817
-0.0539925
-0.030548
-0.0587839
-0.0321659
-0.0629733
-0.0332688
-0.0663368
-0.033689
-0.0686506
-0.0332669
-0.0697009
-0.03186
-0.0692907
-0.0293489
-0.0672478
-0.0256385
-0.0634403
-0.0206579
-0.0577645
-0.0143614
-0.0503885
-0.00665508
0.00226483
-0.0413715
-0.0011482
-0.00272875
-0.00362694
-0.00708672
-0.00687242
-0.00981672
-0.0105612
-0.0112594
-0.014547
-0.0121015
-0.0187875
-0.0129149
-0.0232765
-0.0139959
-0.0280013
-0.0154224
-0.0329253
-0.0171655
-0.0379861
-0.0191578
-0.0430967
-0.0213139
-0.0481479
-0.0235305
-0.0530106
-0.0256852
-0.057538
-0.0276385
-0.0615668
-0.02924
-0.0649196
-0.0303362
-0.0674053
-0.0307812
-0.0688224
-0.0304429
-0.0689609
-0.0292103
-0.0675945
-0.027005
-0.0644862
-0.0237662
-0.0594641
-0.0193835
-0.0525059
-0.0136133
-0.00704715
-0.0431939
-0.0011767
-0.00155206
-0.00367775
-0.00458566
-0.00688807
-0.00660641
-0.0104615
-0.00768598
-0.0142455
-0.00831753
-0.0181932
-0.00896715
-0.0222884
-0.00990071
-0.0265018
-0.011209
-0.0307768
-0.0128904
-0.0350306
-0.014904
-0.0391589
-0.0171855
-0.0430429
-0.0196466
-0.0465554
-0.0221727
-0.0495669
-0.0246271
-0.0519505
-0.0268565
-0.0535822
-0.0287046
-0.0543372
-0.0300262
-0.0540841
-0.030696
-0.0526792
-0.0306152
-0.0499744
-0.0297099
-0.045812
-0.0279286
-0.0395594
-0.025636
-0.0318449
-0.0213278
-0.018245
-0.0206471
-0.00109072
-0.000461339
-0.00342312
-0.00225326
-0.00639027
-0.00363926
-0.00963453
-0.00444172
-0.0129873
-0.00496474
-0.0163826
-0.00557189
-0.0197806
-0.00650265
-0.0231253
-0.00786436
-0.026331
-0.00968472
-0.0292856
-0.0119494
-0.0318585
-0.0146126
-0.0339113
-0.0175938
-0.0353072
-0.0207767
-0.0359205
-0.0240138
-0.0356442
-0.0271328
-0.034388
-0.0299607
-0.0320756
-0.0323386
-0.0286318
-0.0341398
-0.023991
-0.035256
-0.017997
-0.0357038
-0.0107293
-0.0351963
-0.00179119
-0.0345742
0.00910755
-0.0322266
-0.0317342
0.0225968
-0.000903479
0.00044214
-0.00288828
-0.000268454
-0.00540964
-0.0011179
-0.00810623
-0.00174514
-0.0107848
-0.00228614
-0.0133421
-0.00301461
-0.0156997
-0.00414509
-0.0177626
-0.00580146
-0.0194083
-0.00803895
-0.0204934
-0.0108643
-0.020864
-0.0142421
-0.0203731
-0.0180847
-0.0188953
-0.0222545
-0.0163251
-0.026584
-0.012601
-0.0308569
-0.00769507
-0.0348666
-0.00160425
-0.0384294
0.00566365
-0.0414077
0.014111
-0.0437034
0.0237993
-0.0453921
0.0346669
-0.0460639
0.0472393
-0.0471466
0.0606737
-0.045661
-0.0480408
0.0769803
-0.000644019
0.00108616
-0.00213873
0.00122626
-0.00403624
0.000779604
-0.00598152
0.000200142
-0.00776151
-0.000506146
-0.00921584
-0.00156029
-0.010217
-0.00314391
-0.010625
-0.00539343
-0.0102811
-0.00838293
-0.00902443
-0.0121209
-0.00669458
-0.0165719
-0.00316529
-0.021614
0.0016457
-0.0270655
0.00774373
-0.032682
0.0150993
-0.0382124
0.0236468
-0.0434142
0.0332848
-0.0480674
0.0439157
-0.0520386
0.0554682
-0.0552559
0.0678431
-0.057767
0.0811608
-0.0593816
0.0951952
-0.061181
0.110404
-0.0608703
-0.0637933
0.126157
-0.00034896
0.00143512
-0.00126744
0.00214474
-0.0024298
0.00194196
-0.00351473
0.00128507
-0.0042383
0.000217426
-0.00442037
-0.00137821
-0.00388144
-0.00368284
-0.0024401
-0.00683477
8.16519e-05
-0.0109047
0.00385717
-0.0158965
0.00899092
-0.0217057
0.0155271
-0.0281502
0.0234255
-0.0349639
0.0325714
-0.0418279
0.0427793
-0.0484204
0.0538296
-0.0544644
0.0655027
-0.0597405
0.0776158
-0.0641517
0.0900248
-0.0676649
0.102576
-0.0703183
0.115486
-0.072292
0.128094
-0.0737888
0.141733
-0.074509
-0.0764603
0.1544
-8.26421e-05
0.00151776
-0.000433133
0.00249523
-0.000836657
0.00234549
-0.000996921
0.00144533
-0.000637587
-0.000141908
0.000496887
-0.00251269
0.00263777
-0.00582373
0.00598611
-0.0101831
0.0107175
-0.015636
0.0169368
-0.0221158
0.024657
-0.0294259
0.0337633
-0.0372565
0.0440204
-0.0452209
0.0551086
-0.0529161
0.0666713
-0.0599831
0.0783638
-0.0661569
0.089902
-0.0712788
0.101091
-0.0753408
0.111803
-0.0783763
0.122053
-0.0805686
0.131887
-0.0821257
0.141189
-0.0830912
0.150689
-0.0840085
-0.0846582
0.158886
0.00011363
0.000243812
0.000533635
0.00125478
0.00270654
0.00518071
0.00893687
0.0141951
0.0210767
0.0295536
0.0394239
0.0503241
0.0617845
0.073307
0.0844438
0.0948554
0.104356
0.112892
0.120558
0.127554
0.134037
0.140398
0.146796
0.1533
0.0439056
0.0645887
-0.0755073
0.0545812
0.0931829
-0.103858
0.0655723
0.118338
-0.129329
0.0757353
0.137627
-0.14779
0.0844283
0.149755
-0.158448
0.0912466
0.15481
-0.161629
0.0943335
0.156285
-0.159372
0.0925029
0.159781
-0.15795
0.0886122
0.166099
-0.162208
0.0885781
0.166622
-0.166588
0.0961419
0.149151
-0.156715
0.109147
0.109489
-0.122494
0.123346
0.0516436
-0.0658427
0.136774
-0.018219
0.00479059
0.148359
-0.0890515
0.0774669
0.156877
-0.145668
0.13715
0.161746
-0.178468
0.173599
0.16291
-0.190023
0.188859
0.161466
-0.191502
0.192946
0.159488
-0.189604
0.191582
0.15704
-0.186379
0.188827
0.152001
-0.190501
0.19554
0.143665
-0.208107
0.216443
0.134073
-0.223955
0.233547
0.126282
-0.208665
0.216456
0.122598
-0.145603
0.149287
0.124246
-0.0448203
0.0431723
0.129774
0.0644434
-0.0699714
0.138035
0.150333
-0.158593
0.146815
0.198273
-0.207054
0.153247
0.220628
-0.22706
0.154734
0.23936
-0.240847
0.150115
0.263566
-0.258947
0.140655
0.2825
-0.27304
0.129903
0.270601
-0.259848
0.121862
0.205778
-0.197737
0.119291
0.0887692
-0.0861983
0.122863
-0.0475271
0.0439549
0.130647
-0.159049
0.151265
0.1362
-0.223039
0.217486
0.133743
-0.255438
0.257895
0.12511
-0.279057
0.287691
0.116919
-0.273942
0.282133
0.114039
-0.216035
0.218915
0.11743
-0.104634
0.101243
0.122821
0.0282298
-0.0336211
0.124841
0.151085
-0.153104
0.123014
0.261983
-0.260156
0.120481
0.309931
-0.307398
0.119308
0.287708
-0.286536
0.118891
0.172048
-0.171631
0.118067
-0.0118603
0.0126848
0.115058
-0.175826
0.178835
0.112169
-0.331859
0.334748
0.110774
-0.315817
0.317212
0.108275
-0.169463
0.171961
0.103929
0.0244005
-0.0200543
0.100305
0.317407
-0.313784
0.0965525
0.267012
-0.263259
0.0251935
-0.020676
0.018619
0.0489005
0.0341027
0.0776992
0.0501769
0.102264
0.065178
0.122626
0.0783298
0.136603
0.0879924
0.145148
0.0926551
0.151622
0.0934904
0.158945
0.0949572
0.164632
0.101919
0.15966
0.114913
0.136157
0.129655
0.094746
0.142622
0.0386767
0.153289
-0.0288861
0.161286
-0.0970484
0.165597
-0.149978
0.166271
-0.179142
0.164061
-0.187813
0.159912
-0.187353
0.155647
-0.18534
0.15143
-0.182162
0.144629
-0.1837
0.134214
-0.197693
0.123063
-0.212804
0.115154
-0.200757
0.112662
-0.143111
0.116208
-0.0483663
0.124565
0.0560864
0.135703
0.139194
0.14713
0.186846
0.156046
0.211712
0.159952
0.235454
0.157614
0.265903
0.149933
0.290181
0.139986
0.280549
0.131506
0.214257
0.126716
0.09356
0.126849
-0.0476604
0.131577
-0.163777
0.135863
-0.227325
0.132857
-0.252432
0.123585
-0.269785
0.11553
-0.265887
0.113529
-0.214033
0.117665
-0.108771
0.123272
0.0226225
0.125795
0.148562
0.124756
0.263021
0.122463
0.312224
0.121214
0.288957
0.120278
0.172985
0.118921
-0.0105036
0.114912
-0.171817
0.110972
-0.32792
0.110032
-0.314877
0.107849
-0.16728
0.105186
0.0270638
0.10254
0.320054
0.0971748
0.272377
0.030775
-0.00469327
0.0307509
0.0154212
0.0575848
0.0352238
0.0824613
0.0538596
0.10399
0.06983
0.120632
0.0815235
0.133454
0.0889045
0.144241
0.0945053
0.153344
0.102576
0.156561
0.115967
0.14627
0.132771
0.119353
0.148155
0.079362
0.159577
0.0272543
0.167637
-0.0369461
0.172447
-0.101858
0.172997
-0.150528
0.169815
-0.175961
0.164647
-0.182645
0.158307
-0.181012
0.152024
-0.179057
0.146388
-0.176525
0.138629
-0.175941
0.126761
-0.185825
0.113944
-0.199987
0.10548
-0.192292
0.104034
-0.141666
0.10938
-0.0537121
0.120031
0.045436
0.133592
0.125633
0.147492
0.172946
0.158986
0.200219
0.165633
0.228807
0.166029
0.265508
0.160535
0.295675
0.151582
0.289501
0.142594
0.223245
0.135538
0.100617
0.13207
-0.0441922
0.133277
-0.164984
0.136071
-0.230119
0.132793
-0.249154
0.122939
-0.259931
0.114588
-0.257537
0.113125
-0.21257
0.118001
-0.113647
0.124093
0.016531
0.12732
0.145335
0.127075
0.263266
0.124906
0.314393
0.123467
0.290396
0.122061
0.17439
0.120307
-0.00874966
0.115411
-0.16692
0.11033
-0.322839
0.109783
-0.314329
0.108012
-0.165509
0.106986
0.0280892
0.10535
0.321689
0.0985658
0.279161
0.037396
-0.0228927
0.0122721
-0.00259126
0.0372833
0.0190389
0.0608312
0.0396751
0.0833536
0.0578964
0.102411
0.0726919
0.118659
0.0847769
0.132156
0.0965477
0.141574
0.111053
0.142056
0.129233
0.128089
0.147959
0.100627
0.163155
0.0641659
0.173722
0.016687
0.18016
-0.0433834
0.182126
-0.103824
0.179114
-0.147517
0.172432
-0.169279
0.164577
-0.17479
0.156498
-0.172932
0.148605
-0.171165
0.141652
-0.169573
0.133509
-0.167797
0.121218
-0.173534
0.107157
-0.185926
0.0976443
-0.18278
0.0964427
-0.140464
0.10309
-0.0603598
0.115661
0.0328658
0.131298
0.109996
0.147389
0.156855
0.161471
0.186136
0.171298
0.21898
0.174982
0.261823
0.17198
0.298678
0.164044
0.297436
0.1545
0.23279
0.145363
0.109754
0.138463
-0.0372925
0.135839
-0.16236
0.136722
-0.231002
0.133342
-0.245774
0.123103
-0.249692
0.114137
-0.24857
0.112804
-0.211237
0.118404
-0.119246
0.125216
0.00971877
0.129316
0.141235
0.129874
0.262708
0.127745
0.316523
0.125996
0.292145
0.124177
0.176209
0.122188
-0.00676002
0.116561
-0.161294
0.11028
-0.316558
0.109998
-0.314047
0.108716
-0.164227
0.109307
0.0274979
0.108719
0.322278
0.100714
0.287166
0.0449979
-0.0289151
-0.00200671
-0.0109316
0.0192999
0.00815483
0.0417447
0.0290692
0.0624392
0.048998
0.0824823
0.0674003
0.100256
0.0845895
0.114967
0.101976
0.124187
0.121209
0.122823
0.141875
0.107424
0.160683
0.0818186
0.175011
0.0498378
0.184887
0.00681164
0.190131
-0.0486272
0.189554
-0.103247
0.183371
-0.141334
0.173794
-0.159702
0.163776
-0.164772
0.154443
-0.1636
0.145523
-0.162245
0.137612
-0.161661
0.129401
-0.159587
0.117428
-0.161561
0.102661
-0.171158
0.0918055
-0.171925
0.0901394
-0.138798
0.097494
-0.0677143
0.111439
0.0189211
0.128567
0.0928672
0.146352
0.139071
0.162871
0.169616
0.176053
0.205798
0.183474
0.254402
0.18374
0.298413
0.177352
0.303824
0.167073
0.243068
0.155856
0.120971
0.145766
-0.0272023
0.1392
-0.155794
0.137731
-0.229533
0.134314
-0.242357
0.123961
-0.239339
0.114148
-0.238757
0.112517
-0.209606
0.11877
-0.125499
0.12653
0.00195854
0.131714
0.136051
0.133144
0.261279
0.130955
0.318711
0.128765
0.294336
0.126568
0.178405
0.124515
-0.00470655
0.118348
-0.155127
0.110832
-0.309042
0.110686
-0.313901
0.109908
-0.163448
0.11207
0.0253352
0.112603
0.321746
0.1036
0.29617
0.0535007
-0.0132458
-0.00940801
-0.00151316
0.00756726
0.0144301
0.0258014
0.0325723
0.044297
0.0521904
0.0628642
0.072368
0.0800788
0.092676
0.094659
0.113297
0.103566
0.134537
0.101583
0.155088
0.0868727
0.172248
0.0646587
0.185013
0.0370731
0.194007
-0.00218221
0.197767
-0.0523881
0.194669
-0.100149
0.185746
-0.132411
0.173969
-0.147924
0.162347
-0.15315
0.152145
-0.153398
0.142607
-0.152707
0.133928
-0.152983
0.125871
-0.151529
0.114994
-0.150685
0.100399
-0.156563
0.0881649
-0.159691
0.0852624
-0.135895
0.0925842
-0.0750362
0.107221
0.00428408
0.125194
0.0748945
0.14409
0.120175
0.162655
0.151051
0.179212
0.189241
0.190765
0.242849
0.194557
0.29462
0.19006
0.308321
0.179455
0.253674
0.166423
0.134003
0.153608
-0.014388
0.143248
-0.145434
0.138977
-0.225261
0.13545
-0.23883
0.125326
-0.229216
0.114578
-0.228009
0.112204
-0.207232
0.118996
-0.132291
0.127911
-0.00695629
0.13435
0.129612
0.13673
0.258899
0.134452
0.320989
0.131734
0.297054
0.129186
0.180953
0.127232
-0.00275308
0.12074
-0.148635
0.111977
-0.300279
0.111822
-0.313746
0.111524
-0.163151
0.115175
0.0216845
0.116936
0.319985
0.107187
0.305919
0.062803
0.0243061
-0.0111173
0.0303522
0.00152121
0.0397956
0.0163581
0.0530685
0.031024
0.069505
0.0464277
0.088345
0.0612388
0.108693
0.0743114
0.129627
0.082631
0.150147
0.0810634
0.168376
0.0686444
0.182751
0.0502832
0.19373
0.0260939
0.201471
-0.00992312
0.203319
-0.0542361
0.197528
-0.0943576
0.186142
-0.121025
0.172786
-0.134569
0.16014
-0.140504
0.149395
-0.142654
0.139741
-0.143052
0.130636
-0.143878
0.12259
-0.143482
0.113195
-0.14129
0.0998287
-0.143196
0.0867429
-0.146605
0.082006
-0.131158
0.0884148
-0.081445
0.102977
-0.0102783
0.12119
0.0566821
0.140529
0.100835
0.160489
0.131091
0.180108
0.169623
0.195945
0.227012
0.20403
0.286536
0.202377
0.309973
0.192304
0.263747
0.17738
0.148927
0.161855
0.00113684
0.147863
-0.131442
0.140395
-0.217793
0.136536
-0.234972
0.126991
-0.21967
0.115382
-0.2164
0.111831
-0.203681
0.118942
-0.139403
0.1292
-0.0172138
0.137133
0.121678
0.140634
0.255398
0.138244
0.32338
0.134896
0.300401
0.131997
0.183852
0.130277
-0.00103314
0.123678
-0.142035
0.113682
-0.290283
0.11336
-0.313424
0.113501
-0.163291
0.118523
0.0166621
0.121641
0.316867
0.111425
0.316134
0.0727835
0.0735218
-0.00765884
0.0732749
0.00176814
0.0768381
0.0127948
0.0841332
0.0237289
0.0952461
0.0353148
0.109945
0.0465397
0.127463
0.056794
0.146331
0.0637631
0.164493
0.0629008
0.179773
0.053364
0.191745
0.0383114
0.201313
0.0165259
0.207312
-0.0159222
0.206404
-0.0533279
0.197785
-0.0857389
0.184473
-0.107712
0.170263
-0.120359
0.157249
-0.127489
0.146217
-0.131622
0.136658
-0.133493
0.127577
-0.134797
0.119468
-0.135373
0.11141
-0.133232
0.100174
-0.131961
0.0873075
-0.133738
0.0806187
-0.12447
0.0852277
-0.0860539
0.0986926
-0.0237432
0.11651
0.0388646
0.135622
0.0817231
0.15631
0.110403
0.178456
0.147478
0.198333
0.207134
0.21061
0.274259
0.211719
0.308865
0.202506
0.27296
0.187237
0.164195
0.169853
0.0185211
0.152688
-0.114277
0.141864
-0.20697
0.137374
-0.230482
0.128724
-0.211019
0.1165
-0.204176
0.111388
-0.198569
0.118494
-0.14651
0.130207
-0.0289264
0.139831
0.112054
0.144633
0.250595
0.142269
0.325744
0.138266
0.304405
0.134995
0.187122
0.133599
0.000362872
0.127081
-0.135517
0.115896
-0.279098
0.115245
-0.312773
0.11577
-0.163816
0.122006
0.0104264
0.12661
0.312262
0.116238
0.326507
0.0832944
0.12133
-0.00283228
0.118491
0.00460803
0.118556
0.0127292
0.121198
0.0210875
0.127205
0.0293075
0.136571
0.0371735
0.149084
0.0442811
0.163753
0.0490945
0.178325
0.0483283
0.190629
0.0410599
0.200496
0.0284444
0.207995
0.00902665
0.210929
-0.0188559
0.206445
-0.0488437
0.195273
-0.0745674
0.180864
-0.0933031
0.166499
-0.105994
0.153643
-0.114633
0.142627
-0.120607
0.133243
-0.124109
0.124516
-0.126069
0.116443
-0.127301
0.109244
-0.126033
0.100377
-0.123094
0.088999
-0.12236
0.0809917
-0.116462
0.0830774
-0.0881396
0.0947328
-0.0353987
0.111476
0.0221213
0.129767
0.0634319
0.150179
0.0899908
0.173799
0.123858
0.197651
0.183282
0.215058
0.256853
0.220092
0.30383
0.21217
0.280882
0.196335
0.18003
0.176909
0.0379469
0.157378
-0.094746
0.143294
-0.192885
0.137818
-0.225006
0.1303
-0.203502
0.11786
-0.191736
0.110907
-0.191616
0.117507
-0.15311
0.130745
-0.0421641
0.142361
0.100438
0.148749
0.244207
0.146527
0.327966
0.141819
0.309112
0.138163
0.190778
0.137122
0.00140457
0.130858
-0.129252
0.118544
-0.266784
0.117412
-0.311641
0.118267
-0.164672
0.125535
0.0031584
0.131756
0.306041
0.121543
0.33672
0.0941702
0.151937
-0.000368891
0.150981
0.00556348
0.151787
0.0119231
0.154124
0.0187505
0.158266
0.0251652
0.164428
0.0310122
0.172697
0.0360113
0.182642
0.03915
0.19272
0.0382499
0.201264
0.0325167
0.207947
0.021761
0.211983
0.00499026
0.210531
-0.0174037
0.202535
-0.0408476
0.189797
-0.0618297
0.175372
-0.0788781
0.161535
-0.0921562
0.149216
-0.102315
0.138479
-0.109869
0.129277
-0.114907
0.121052
-0.117845
0.113309
-0.119558
0.106565
-0.119289
0.0996349
-0.116164
0.0905799
-0.113305
0.0825287
-0.108411
0.0821866
-0.0877975
0.0913097
-0.0445219
0.106182
0.00724905
0.12307
0.0465441
0.142532
0.0705285
0.166639
0.0997503
0.192952
0.156969
0.214427
0.235378
0.223715
0.294543
0.218191
0.286406
0.202477
0.195743
0.182886
0.0575378
0.161716
-0.0735758
0.144555
-0.175725
0.137684
-0.218135
0.131455
-0.197272
0.119334
-0.179615
0.110434
-0.182716
0.115933
-0.158609
0.130526
-0.0567565
0.144301
0.0866633
0.152644
0.235864
0.151018
0.329592
0.145695
0.314435
0.141536
0.194937
0.140818
0.00212277
0.134923
-0.123358
0.12154
-0.253401
0.119777
-0.309878
0.120935
-0.165829
0.129013
-0.00492009
0.136937
0.298117
0.127221
0.346436
0.105213
0.15858
-6.27251e-05
0.159997
0.00414702
0.16288
0.00903944
0.167019
0.0146124
0.171963
0.0202208
0.178067
0.0249079
0.18527
0.0288088
0.193061
0.0313588
0.200262
0.031049
0.205831
0.026948
0.209129
0.0184622
0.208693
0.00542707
0.203882
-0.0125931
0.194249
-0.0312149
0.181671
-0.0492512
0.168287
-0.0654943
0.155474
-0.0793427
0.143888
-0.090729
0.133642
-0.099623
0.124682
-0.105947
0.116891
-0.110053
0.109725
-0.112392
0.103361
-0.112925
0.0976637
-0.110466
0.0909586
-0.1066
0.084085
-0.101537
0.082297
-0.0860095
0.0889085
-0.0511334
0.101629
-0.0054716
0.11643
0.0317428
0.133922
0.053037
0.157259
0.0764136
0.185991
0.128236
0.212637
0.208732
0.226472
0.280707
0.222954
0.289924
0.207448
0.211249
0.187075
0.0779111
0.16499
-0.0514905
0.145479
-0.156214
0.136892
-0.209548
0.131969
-0.19235
0.120829
-0.168475
0.110108
-0.171994
0.113702
-0.162203
0.129481
-0.0725361
0.145783
0.0703615
0.156382
0.225265
0.155556
0.330418
0.149642
0.320349
0.145032
0.199547
0.144556
0.00259893
0.139183
-0.117986
0.124819
-0.239036
0.122289
-0.307348
0.123719
-0.16726
0.132396
-0.013597
0.142084
0.288429
0.133179
0.355341
0.116219
0.153205
3.25399e-05
0.154382
0.00296968
0.156885
0.00653667
0.160876
0.010621
0.166192
0.0149049
0.172354
0.0187467
0.179077
0.022085
0.186116
0.0243206
0.192427
0.0247375
0.197043
0.022332
0.199257
0.0162484
0.198467
0.00621689
0.193027
-0.00715244
0.184223
-0.0224115
0.173204
-0.0382318
0.161375
-0.0536655
0.149719
-0.0676864
0.138834
-0.0798442
0.129093
-0.089882
0.120453
-0.0973078
0.112944
-0.102544
0.106327
-0.105775
0.100402
-0.107001
0.0953294
-0.105393
0.0903183
-0.101589
0.0851948
-0.0964139
0.0831942
-0.0840089
0.0877657
-0.0557049
0.0974183
-0.0151242
0.110053
0.0191078
0.125036
0.0380541
0.145681
0.0557693
0.173292
0.100625
0.202614
0.179411
0.222747
0.260573
0.224812
0.28786
0.210948
0.225113
0.19096
0.0978991
0.16849
-0.0290211
0.14694
-0.134664
0.136164
-0.198771
0.132127
-0.188314
0.122438
-0.158785
0.110325
-0.159882
0.111448
-0.163325
0.127252
-0.0883408
0.145824
0.0517899
0.159408
0.211681
0.160392
0.329434
0.154196
0.326545
0.148833
0.204911
0.148572
0.0028597
0.143598
-0.113012
0.128384
-0.223822
0.124972
-0.303936
0.126658
-0.168946
0.135569
-0.0225078
0.147026
0.276972
0.139264
0.363103
0.126944
0.176401
0.00177074
-0.178139
0.175337
0.00403366
0.175353
0.00652031
0.176424
0.00955043
0.178558
0.012771
0.181567
0.0157376
0.185524
0.018128
0.190373
0.0194716
0.195939
0.0191709
0.201734
0.0165371
0.206968
0.0110145
0.210649
0.00253568
0.212187
-0.00869011
0.211419
-0.021644
0.208495
-0.0353069
0.203859
-0.0490298
0.197927
-0.0617543
0.190955
-0.0728729
0.183367
-0.0822939
0.175323
-0.0892632
0.167076
-0.0942972
0.158891
-0.0975902
0.150561
-0.098671
0.142085
-0.096917
0.133682
-0.0931859
0.124446
-0.0871777
0.114451
-0.0740136
0.106958
-0.0482116
0.105182
-0.0133482
0.109402
0.014887
0.118741
0.0287158
0.131437
0.0430728
0.146006
0.0860559
0.161406
0.164011
0.174726
0.247253
0.183246
0.27934
0.188263
0.220096
0.190253
0.0959082
0.186458
-0.0252256
0.175696
-0.123902
0.165503
-0.188578
0.157049
-0.17986
0.144877
-0.146613
0.129447
-0.144451
0.122725
-0.156604
0.127385
-0.0930005
0.134448
0.0447268
0.140059
0.20607
0.13964
0.329853
0.139111
0.327075
0.142857
0.201165
0.149141
-0.0034249
0.147869
-0.11174
0.133758
-0.209711
0.126538
-0.296717
0.123112
-0.16552
0.126551
-0.0259461
0.136119
0.267403
0.131073
0.36815
0.136144
0.18785
0.00295866
-0.189038
0.187376
0.00450847
0.187453
0.00644309
0.188351
0.0086524
0.190183
0.0109392
0.192932
0.0129884
0.196557
0.014503
0.200915
0.0151136
0.205727
0.0143587
0.21052
0.0117439
0.214729
0.00680541
0.217692
-0.000427026
0.218848
-0.0098465
0.218059
-0.0208542
0.215365
-0.0326131
0.210949
-0.0446137
0.205129
-0.0559344
0.198166
-0.0659097
0.190534
-0.0746627
0.182612
-0.0813413
0.174511
-0.0861957
0.166432
-0.0895112
0.15844
-0.0906786
0.150118
-0.0885955
0.141808
-0.0848757
0.133805
-0.0791754
0.125751
-0.0659594
0.119145
-0.041605
0.116526
-0.0107294
0.119786
0.011627
0.127949
0.0205532
0.13984
0.0311813
0.154348
0.0715476
0.171021
0.147339
0.186595
0.231679
0.197009
0.268926
0.202513
0.214592
0.204877
0.0935451
0.201062
-0.0214112
0.189206
-0.112046
0.17718
-0.176552
0.167916
-0.170596
0.156125
-0.134822
0.140083
-0.128409
0.131829
-0.148349
0.136479
-0.0976509
0.145261
0.0359452
0.153028
0.198303
0.153803
0.329078
0.153444
0.327434
0.157297
0.197312
0.163925
-0.0100525
0.1624
-0.110215
0.146214
-0.193526
0.137718
-0.28822
0.134056
-0.161858
0.137338
-0.0292278
0.148398
0.256344
0.144237
0.37231
0.145483
0.200296
0.00398445
-0.201322
0.199822
0.00498218
0.199915
0.00635006
0.200719
0.00784884
0.202317
0.00934067
0.20469
0.0106159
0.207767
0.0114257
0.211407
0.0114733
0.215382
0.0103835
0.21931
0.00781651
0.22271
0.00340518
0.225062
-0.00277863
0.225967
-0.010752
0.225244
-0.0201309