/*--------------------------------*- C++ -*----------------------------------*\
| =========                 |                                                 |
| \\      /  F ield         | OpenFOAM: The Open Source CFD Toolbox           |
|  \\    /   O peration     | Version:  2512                                  |
|   \\  /    A nd           | Website:  www.openfoam.com                      |
|    \\/     M anipulation  |                                                 |
\*---------------------------------------------------------------------------*/
FoamFile
{
    version     2.0;
    format      ascii;
    arch        "LSB;label=32;scalar=64";
    class       volVectorField;
    location    "188.7";
    object      U;
}
// * * * * * * * * * * * * * * * * * * * * * * * * * * * * * * * * * * * * * //

dimensions      [0 1 -1 0 0 0 0];

internalField   nonuniform List<vector> 
13248
(
(-0.0141419 0.00855842 3.48024e-20)
(-0.0342745 0.0139822 0)
(-0.0485939 0.0114483 -6.08724e-20)
(-0.0512655 0.00687897 5.63675e-20)
(-0.0379112 0.00245636 5.19183e-20)
(-0.00486836 -0.00104537 0)
(0.0508789 -0.00314801 0)
(0.130929 -0.00334016 1.15382e-19)
(0.234623 -0.000945367 -2.66417e-21)
(0.358607 0.00438272 -9.461e-20)
(0.496798 0.0126957 8.12169e-20)
(0.641321 0.0235876 -4.97633e-20)
(0.783691 0.0361836 0)
(0.916005 0.0492618 -7.32572e-20)
(1.03183 0.0614507 1.33083e-19)
(1.12683 0.0714826 -3.08047e-20)
(1.19893 0.0783111 -5.16472e-20)
(1.24836 0.0813418 4.81506e-20)
(1.27767 0.0807256 0)
(1.29089 0.0755159 0)
(1.29272 0.070322 0)
(1.29136 0.0557394 0)
(1.28316 0.0533682 1.37527e-20)
(1.28522 0.0244889 5.02045e-20)
(-0.0193019 0.0131118 -1.04767e-19)
(-0.0394812 0.0232296 6.64999e-20)
(-0.0443201 0.0232225 -1.96683e-22)
(-0.030074 0.019318 -8.52827e-20)
(0.00692874 0.0146083 -5.18424e-20)
(0.0699149 0.0108306 -4.78765e-20)
(0.160751 0.00925827 -8.56976e-20)
(0.278426 0.0108704 7.9965e-20)
(0.418038 0.0162247 0)
(0.570951 0.0252499 1.30377e-21)
(0.726278 0.0371908 3.11926e-21)
(0.873018 0.0507169 5.06046e-20)
(1.00195 0.0642036 0)
(1.10686 0.0760549 0)
(1.18508 0.0850525 4.87849e-20)
(1.23731 0.0904128 -9.07137e-20)
(1.26715 0.0921076 5.146e-20)
(1.28017 0.0903383 -4.79789e-20)
(1.28245 0.0858882 -2.05875e-20)
(1.27987 0.0795563 -3.64482e-20)
(1.27622 0.0713415 -1.48035e-20)
(1.27349 0.0625774 -2.76207e-20)
(1.27009 0.0532513 4.04397e-20)
(1.26995 0.0401825 1.13299e-20)
(-0.0220737 0.014476 0)
(-0.0388737 0.0260575 0)
(-0.0306776 0.02752 3.06578e-20)
(0.00493707 0.0246202 2.79982e-20)
(0.0709441 0.021067 -5.90033e-22)
(0.169296 0.0194053 -4.88029e-20)
(0.298735 0.0214165 0)
(0.452783 0.0280055 -3.93788e-20)
(0.619766 0.0389637 3.56413e-20)
(0.785257 0.0530038 1.96901e-22)
(0.935533 0.0681379 -5.61118e-20)
(1.0604 0.0822403 -4.82845e-20)
(1.15464 0.0935657 2.50345e-21)
(1.21812 0.101101 -3.49921e-20)
(1.25489 0.104616 8.61728e-20)
(1.27166 0.104569 0)
(1.27589 0.101828 -5.07169e-20)
(1.27408 0.0970432 2.45943e-20)
(1.2706 0.0915619 2.0567e-20)
(1.26739 0.0841284 0)
(1.26413 0.0783116 1.62517e-20)
(1.26085 0.0681623 -5.46346e-20)
(1.25518 0.0637056 5.10207e-20)
(1.25074 0.0510648 3.1125e-20)
(-0.0226422 0.0134914 -3.64217e-20)
(-0.0319378 0.0235494 -3.47446e-20)
(-0.00622886 0.0252328 3.13158e-20)
(0.0561125 0.0237712 0)
(0.156942 0.0233353 0)
(0.294853 0.0269125 -4.96039e-22)
(0.461908 0.0360306 0)
(0.643025 0.0503352 -1.18151e-19)
(0.819553 0.0677893 1.06982e-19)
(0.974661 0.0855183 -1.28396e-19)
(1.09736 0.100822 2.80934e-20)
(1.18396 0.111911 0)
(1.2373 0.118192 4.20875e-20)
(1.26456 0.120111 -7.6015e-20)
(1.27458 0.118717 1.78604e-20)
(1.27531 0.115209 4.21257e-20)
(1.27226 0.110393 -3.10723e-21)
(1.26821 0.105044 -4.55719e-20)
(1.26385 0.0988434 0)
(1.25904 0.0926646 0)
(1.25355 0.0856055 -1.48162e-20)
(1.24792 0.077898 1.29667e-20)
(1.24145 0.0721811 4.52142e-20)
(1.23762 0.0603026 -4.22073e-20)
(-0.0211181 0.0111291 -3.79763e-20)
(-0.0177112 0.0177107 -3.51339e-20)
(0.0315641 0.0192826 9.71822e-20)
(0.127312 0.0206794 -5.84015e-20)
(0.268259 0.0262817 5.40995e-20)
(0.445603 0.0386608 9.70755e-20)
(0.640781 0.0574459 -6.7189e-20)
(0.83008 0.0796433 -7.85978e-20)
(0.992732 0.101199 3.0423e-21)
(1.11664 0.118698 9.6513e-20)
(1.19967 0.130349 0)
(1.24746 0.136093 2.42123e-20)
(1.2697 0.137072 0)
(1.27639 0.134855 -3.6144e-20)
(1.27523 0.130827 5.00994e-20)
(1.2708 0.125822 3.77846e-22)
(1.26516 0.120349 -1.22022e-20)
(1.25901 0.114325 2.20318e-20)
(1.25267 0.108159 1.85535e-20)
(1.24645 0.101308 -1.61716e-20)
(1.24058 0.0946781 1.48097e-20)
(1.23511 0.0870991 -1.29609e-20)
(1.22937 0.0811913 0)
(1.22477 0.0714347 -9.24444e-21)
(-0.0171231 0.00810527 3.79668e-20)
(0.00555928 0.0106916 3.67201e-20)
(0.0857918 0.0132308 -3.25332e-20)
(0.221538 0.020189 5.95796e-20)
(0.404178 0.035399 -5.51879e-20)
(0.612525 0.0589949 4.89871e-20)
(0.817002 0.0869736 -2.31443e-20)
(0.991367 0.1137 5.91671e-20)
(1.1213 0.134721 -3.64155e-20)
(1.20558 0.148115 6.09515e-20)
(1.25217 0.154322 -1.37214e-19)
(1.27269 0.155123 4.91157e-20)
(1.27795 0.152537 -4.04981e-20)
(1.27556 0.148124 3.77007e-20)
(1.26988 0.142778 3.06606e-20)
(1.263 0.13696 2.56423e-20)
(1.2559 0.130765 -7.08286e-20)
(1.24908 0.124422 4.32713e-20)
(1.24268 0.117759 -1.85507e-20)
(1.23662 0.111132 4.66695e-20)
(1.23064 0.104275 -1.51459e-20)
(1.22464 0.097233 -3.44838e-20)
(1.21833 0.0911246 3.13969e-20)
(1.2129 0.0819342 9.2415e-21)
(-0.0098268 0.00484065 0)
(0.0398971 0.00423998 3.2326e-22)
(0.158736 0.0103731 6.77191e-20)
(0.338295 0.0266449 -6.23599e-20)
(0.556818 0.0542207 -5.52972e-20)
(0.778871 0.0885203 1.00936e-19)
(0.970415 0.121867 -4.6079e-20)
(1.11254 0.148126 5.9213e-20)
(1.20352 0.164836 -1.98049e-21)
(1.25292 0.172736 -3.19401e-20)
(1.27413 0.17418 6.61636e-20)
(1.27902 0.171649 -9.55431e-20)
(1.27575 0.166984 0)
(1.26903 0.161262 -1.73873e-20)
(1.26124 0.155041 -4.46793e-20)
(1.25344 0.148545 1.40658e-20)
(1.246 0.141938 7.6909e-22)
(1.2389 0.135176 -2.7522e-20)
(1.23202 0.128397 2.59118e-21)
(1.22531 0.121468 3.11142e-20)
(1.21881 0.114498 -1.33214e-20)
(1.21261 0.107549 -4.56116e-21)
(1.20652 0.100838 1.47198e-20)
(1.20114 0.0927129 0)
(0.00175763 0.00173363 0)
(0.086924 5.80864e-05 1.86264e-20)
(0.250419 0.0136373 -8.82903e-20)
(0.471935 0.042851 3.15436e-20)
(0.712279 0.0831375 -2.92172e-20)
(0.927187 0.124514 -2.60226e-20)
(1.08917 0.158115 -4.4526e-20)
(1.19335 0.180109 2.23764e-20)
(1.24993 0.191154 1.87809e-20)
(1.27418 0.194108 0)
(1.27975 0.192048 3.89115e-20)
(1.27606 0.187283 -5.60355e-20)
(1.26861 0.181211 4.1118e-20)
(1.26007 0.174563 1.7395e-20)
(1.25156 0.167661 -1.34155e-20)
(1.24339 0.160651 -1.04783e-20)
(1.23558 0.153546 -9.55422e-21)
(1.22814 0.146414 2.94904e-20)
(1.2211 0.139219 0)
(1.21448 0.132054 1.35273e-20)
(1.20817 0.124932 1.06133e-20)
(1.20201 0.11791 -2.70806e-20)
(1.19589 0.11094 -1.7431e-20)
(1.19002 0.103568 1.59185e-20)
(0.0184838 -0.000657768 -2.19801e-20)
(0.147209 6.40733e-06 -9.54098e-22)
(0.357866 0.0254546 1.80303e-20)
(0.612337 0.0696539 4.95653e-20)
(0.855902 0.12003 1.3862e-20)
(1.04692 0.163458 -2.64604e-20)
(1.17267 0.193276 2.37261e-20)
(1.24213 0.209345 -2.00765e-20)
(1.27257 0.214925 3.46842e-20)
(1.28026 0.213878 1.40813e-20)
(1.27672 0.20923 -3.95818e-20)
(1.26865 0.202862 1.12817e-20)
(1.25928 0.195749 1.84032e-20)
(1.2499 0.188328 -9.10448e-21)
(1.2409 0.180777 0)
(1.2324 0.17316 1.2445e-20)
(1.22441 0.165541 2.00219e-20)
(1.2169 0.157932 2.81309e-21)
(1.2098 0.150393 -1.60098e-20)
(1.20303 0.14292 6.29222e-21)
(1.19652 0.135546 0)
(1.19026 0.128296 -4.55614e-21)
(1.18418 0.121005 -4.25978e-21)
(1.17838 0.114124 0)
(0.0408111 -0.00155152 0)
(0.219724 0.0061083 1.07144e-20)
(0.474954 0.0474261 1.95287e-20)
(0.747831 0.10603 -5.07121e-20)
(0.97763 0.161976 1.62176e-20)
(1.136 0.203015 0)
(1.22661 0.226799 2.23364e-20)
(1.26809 0.236656 -3.06359e-20)
(1.28021 0.237435 -1.72428e-20)
(1.27766 0.233198 7.60868e-21)
(1.26912 0.226554 -1.13707e-20)
(1.2588 0.218876 2.76661e-20)
(1.24842 0.210781 1.31481e-20)
(1.23854 0.20253 -9.38186e-21)
(1.2293 0.194238 -1.1622e-21)
(1.22068 0.185971 -2.29585e-20)
(1.2126 0.177759 1.0231e-20)
(1.20502 0.169642 -3.28634e-22)
(1.19792 0.161631 0)
(1.19127 0.153766 -6.29848e-21)
(1.18498 0.146079 0)
(1.17892 0.138518 1.28286e-20)
(1.17298 0.131048 -1.46869e-20)
(1.16709 0.124465 6.50326e-21)
(0.0686304 -3.80499e-05 -6.24286e-21)
(0.301609 0.0201914 -2.73519e-20)
(0.593498 0.0798817 3.07554e-20)
(0.868827 0.149888 1.74094e-20)
(1.07347 0.206649 -8.24644e-21)
(1.19738 0.242234 1.29973e-20)
(1.25774 0.259045 -6.31238e-21)
(1.27831 0.263019 9.91604e-21)
(1.27832 0.259697 0)
(1.26969 0.252824 2.08623e-20)
(1.25838 0.244442 -1.09716e-21)
(1.24686 0.235484 -1.60233e-20)
(1.23596 0.226339 6.58608e-21)
(1.22582 0.21717 -7.08255e-21)
(1.21643 0.208055 -2.42436e-21)
(1.20771 0.199035 3.05212e-21)
(1.19962 0.190151 -2.14652e-21)
(1.19212 0.181431 -1.12864e-20)
(1.18515 0.172912 6.7997e-21)
(1.17861 0.164614 1.27657e-21)
(1.1724 0.156531 1.06865e-21)
(1.16643 0.148614 8.91813e-22)
(1.16062 0.140967 0)
(1.1549 0.134294 0)
(0.101276 0.00481432 6.25042e-21)
(0.388518 0.0435068 -5.75163e-21)
(0.705364 0.121939 -1.02942e-20)
(0.969649 0.199067 0)
(1.14366 0.252669 -4.07738e-21)
(1.23548 0.28097 -3.53642e-21)
(1.27162 0.290625 -5.75306e-21)
(1.27738 0.289222 0)
(1.2697 0.282313 0)
(1.25755 0.273061 0)
(1.24476 0.262968 0)
(1.23263 0.252642 0)
(1.22146 0.242314 -4.05689e-21)
(1.21121 0.232091 1.81052e-21)
(1.20181 0.222025 3.01805e-21)
(1.19316 0.212156 1.39297e-21)
(1.18521 0.202512 3.2269e-21)
(1.17788 0.193122 0)
(1.17113 0.184002 -6.78052e-22)
(1.16487 0.175173 -6.45979e-22)
(1.15901 0.166621 -1.07034e-21)
(1.15342 0.158315 -8.93218e-22)
(1.14795 0.150442 0)
(1.14258 0.143458 5.23127e-22)
(0.00199798 -0.135592 7.135e-21)
(-0.00578997 -0.257876 -6.79365e-21)
(-0.0284673 -0.295329 -1.25898e-20)
(-0.0573575 -0.290616 0)
(-0.0884395 -0.269122 -1.6642e-20)
(-0.120055 -0.241849 5.30145e-21)
(-0.151179 -0.211027 -9.64727e-21)
(-0.181092 -0.17548 0)
(-0.209267 -0.13364 0)
(-0.235204 -0.0844235 0)
(-0.258304 -0.0272732 0)
(-0.278219 0.0379416 0)
(-0.294922 0.110244 5.33643e-22)
(-0.30824 0.188714 -6.83641e-21)
(-0.31777 0.271825 1.17664e-20)
(-0.323228 0.357648 1.66332e-20)
(-0.324316 0.443848 4.40716e-21)
(-0.320704 0.527715 0)
(-0.312077 0.606266 4.24597e-21)
(-0.298136 0.676404 -1.1036e-20)
(-0.278386 0.735042 -6.28411e-21)
(-0.251497 0.779141 -5.59343e-21)
(-0.215886 0.805894 0)
(-0.170815 0.81368 0)
(0.00805957 -0.124037 -2.09045e-20)
(0.00300699 -0.231238 3.34077e-20)
(-0.021854 -0.260196 -1.16724e-20)
(-0.054525 -0.250881 -2.25588e-20)
(-0.0899964 -0.22705 3.18148e-20)
(-0.126425 -0.198999 -1.97056e-20)
(-0.162764 -0.168669 2.79169e-20)
(-0.198259 -0.134719 1.64249e-20)
(-0.232241 -0.0954639 0)
(-0.263995 -0.049722 -1.64066e-20)
(-0.29273 0.00309497 -2.52013e-22)
(-0.317978 0.0628085 1.43419e-20)
(-0.33929 0.128848 1.84246e-20)
(-0.355916 0.20031 2.32235e-20)
(-0.367198 0.275699 -1.20695e-20)
(-0.37245 0.353047 -3.06422e-20)
(-0.370949 0.429953 7.70718e-21)
(-0.361923 0.50363 -3.08549e-20)
(-0.344534 0.570983 0)
(-0.317971 0.628755 7.06442e-21)
(-0.281624 0.673799 6.27454e-21)
(-0.234653 0.703275 5.58467e-21)
(-0.175651 0.71455 0)
(-0.103039 0.707124 0)
(0.0129564 -0.109404 0)
(0.0108544 -0.201014 6.05033e-20)
(-0.0140335 -0.222472 -2.2528e-20)
(-0.0477045 -0.2093 2.15707e-20)
(-0.0844314 -0.183243 -5.71465e-20)
(-0.122147 -0.154164 0)
(-0.159731 -0.124089 -3.34241e-20)
(-0.196343 -0.0917147 1.46192e-20)
(-0.231164 -0.0552839 -2.74003e-20)
(-0.263356 -0.0136481 1.09532e-20)
(-0.292211 0.0336638 7.32567e-20)
(-0.316901 0.0865371 -3.38661e-20)
(-0.336457 0.14461 -5.38553e-20)
(-0.349923 0.206931 -1.7106e-20)
(-0.356337 0.272053 9.30074e-22)
(-0.354724 0.338067 6.4126e-20)
(-0.344113 0.402647 -2.93993e-20)
(-0.323569 0.463115 2.78856e-21)
(-0.292278 0.51656 0)
(-0.249458 0.559932 -1.9089e-20)
(-0.194522 0.590289 0)
(-0.128183 0.605336 -1.89224e-20)
(-0.0499725 0.603108 6.64209e-20)
(0.0445761 0.580845 1.14091e-21)
(0.0165461 -0.0938466 0)
(0.0174356 -0.170598 -1.55258e-21)
(-0.00576876 -0.185677 2.02625e-20)
(-0.0381601 -0.169392 -1.84733e-20)
(-0.0734615 -0.141275 1.87017e-20)
(-0.109316 -0.110943 9.74084e-20)
(-0.144508 -0.0808321 -3.04363e-20)
(-0.178112 -0.0499262 -2.6771e-20)
(-0.209279 -0.0165064 5.1928e-20)
(-0.23715 0.0205695 -7.24491e-20)
(-0.2608 0.0617896 2.0453e-20)
(-0.279259 0.107218 1.85263e-20)
(-0.291462 0.156431 0)
(-0.296314 0.208555 1.7859e-20)
(-0.292725 0.262272 0)
(-0.27964 0.315846 2.38549e-20)
(-0.256103 0.367167 -4.57589e-20)
(-0.22128 0.413851 1.32389e-20)
(-0.174543 0.453337 3.83343e-20)
(-0.115859 0.483106 1.90666e-20)
(-0.0449086 0.500852 0)
(0.038894 0.503707 -4.72861e-20)
(0.125789 0.493652 1.49202e-20)
(0.240789 0.459169 0)
(0.018881 -0.0789764 0)
(0.0224209 -0.142429 -6.43179e-20)
(0.00174348 -0.1525 -1.9027e-20)
(-0.0280414 -0.134209 -3.58645e-20)
(-0.0601904 -0.104692 3.32324e-20)
(-0.0919757 -0.0732846 -3.16262e-20)
(-0.1221 -0.0430745 5.53518e-20)
(-0.149666 -0.0135938 2.5941e-20)
(-0.17379 0.0167213 -7.14968e-20)
(-0.193585 0.0491375 4.17317e-20)
(-0.208115 0.0842669 -5.83077e-20)
(-0.21641 0.122168 1.16497e-19)
(-0.217451 0.162451 -6.2853e-20)
(-0.210203 0.204334 2.55739e-20)
(-0.193682 0.246677 7.01212e-20)
(-0.16702 0.288012 -2.59135e-20)
(-0.129469 0.326509 -1.9419e-20)
(-0.0805494 0.360183 -1.9222e-20)
(-0.020198 0.38706 0)
(0.0523764 0.404553 -2.91082e-20)
(0.131928 0.412528 -2.86057e-20)
(0.229865 0.40506 3.9563e-20)
(0.315701 0.391428 5.58708e-20)
(0.441331 0.349937 -5.07148e-20)
(0.0200436 -0.0656079 0)
(0.0253752 -0.117664 -7.87283e-20)
(0.00705625 -0.124332 1.49847e-21)
(-0.0199015 -0.105652 6.7934e-20)
(-0.0483546 -0.0761774 0)
(-0.0751893 -0.0446645 0)
(-0.0989502 -0.0148164 0)
(-0.118802 0.0131339 -2.36871e-20)
(-0.134001 0.040353 1.2342e-21)
(-0.143775 0.0680803 3.8922e-20)
(-0.147287 0.0970633 -5.24069e-20)
(-0.143687 0.127491 9.24597e-22)
(-0.132151 0.159079 0)
(-0.11188 0.191207 -2.55599e-20)
(-0.0821119 0.222927 1.79209e-20)
(-0.0424022 0.252978 -5.48656e-20)
(0.00741525 0.279915 6.46372e-20)
(0.0680258 0.30207 1.20471e-20)
(0.136417 0.318442 -4.77664e-22)
(0.219247 0.325491 -4.95772e-20)
(0.298483 0.327003 -2.26162e-20)
(0.404218 0.311668 8.33566e-20)
(0.481345 0.297721 -5.53857e-20)
(0.608554 0.254262 0)
(0.0199685 -0.0537463 3.87467e-20)
(0.0256435 -0.0961649 3.88694e-20)
(0.00860945 -0.101125 -3.40899e-20)
(-0.016281 -0.0840895 -6.37501e-20)
(-0.0415875 -0.0568934 5.90694e-20)
(-0.063869 -0.0273105 -5.30238e-20)
(-0.0814706 0.000803554 7.29105e-20)
(-0.09359 0.0265029 -2.32306e-20)
(-0.099749 0.0503312 4.01719e-20)
(-0.099439 0.0732758 0)
(-0.0920825 0.0961028 2.81257e-20)
(-0.0771123 0.119173 -5.40463e-20)
(-0.0539599 0.14241 4.66792e-20)
(-0.0221971 0.165393 -4.34479e-20)
(0.0184515 0.187389 0)
(0.068141 0.207485 3.23239e-20)
(0.126352 0.224494 5.36397e-20)
(0.194455 0.237576 -5.16316e-20)
(0.266201 0.245633 -2.2238e-20)
(0.355376 0.246084 -2.37197e-20)
(0.430276 0.2436 6.43825e-20)
(0.545854 0.22507 2.16823e-20)
(0.612443 0.213211 -1.85692e-20)
(0.755476 0.170545 2.078e-20)
(0.0183513 -0.0428037 -3.87562e-20)
(0.0223875 -0.0768264 1.07414e-19)
(0.00504582 -0.0815973 -3.25803e-20)
(-0.0190547 -0.0682652 6.08871e-20)
(-0.0424323 -0.0459121 -5.64164e-20)
(-0.0614015 -0.0209321 -3.815e-22)
(-0.0741814 0.00312311 2.30981e-20)
(-0.0800193 0.0248511 7.95593e-20)
(-0.0786253 0.044259 -3.16885e-21)
(-0.0698021 0.0619504 -3.54048e-20)
(-0.0532816 0.0786051 0)
(-0.0287937 0.0946663 -2.25934e-20)
(0.00391036 0.110238 4.56063e-20)
(0.0450839 0.125161 3.68049e-20)
(0.0948861 0.139046 -1.83099e-20)
(0.153439 0.151431 -1.24837e-21)
(0.220624 0.161215 -1.34057e-20)
(0.297284 0.168772 2.23614e-20)
(0.379494 0.171239 2.2241e-20)
(0.478895 0.170417 -2.10481e-20)
(0.565222 0.164412 1.9496e-20)
(0.698842 0.149164 -1.93632e-20)
(0.770667 0.136641 0)
(0.943789 0.0999334 -2.07828e-20)
(0.0147491 -0.0319964 3.63079e-20)
(0.0149294 -0.0581799 -3.5378e-20)
(-0.00418646 -0.0637651 3.15826e-20)
(-0.028531 -0.0556366 0)
(-0.0509167 -0.040157 0)
(-0.0676881 -0.0221378 4.68359e-20)
(-0.0769568 -0.00453665 -4.50125e-20)
(-0.0779138 0.0112482 3.72892e-20)
(-0.070253 0.0249532 -1.76429e-19)
(-0.0537571 0.0369119 1.35382e-21)
(-0.0281727 0.0477487 2.69161e-20)
(0.00689941 0.0578802 0)
(0.0519219 0.0675962 -3.97593e-20)
(0.107397 0.0769976 7.13991e-20)
(0.173681 0.0859665 -4.79921e-20)
(0.250947 0.094195 -6.67162e-20)
(0.3392 0.101005 1.73364e-21)
(0.437182 0.106563 4.37461e-20)
(0.545073 0.107961 0)
(0.661155 0.108885 0)
(0.77638 0.101805 -1.9502e-20)
(0.912685 0.09413 1.93691e-20)
(1.00513 0.0792056 -7.84326e-20)
(1.16702 0.0557288 7.30956e-20)
(0.00892555 -0.0208349 0)
(0.00343132 -0.0391108 0)
(-0.0179298 -0.0456396 -9.3702e-20)
(-0.0422932 -0.043053 2.89043e-20)
(-0.0630745 -0.0350889 7.92477e-22)
(-0.0767641 -0.0249855 4.71309e-20)
(-0.081258 -0.0148515 0)
(-0.0752803 -0.00572321 -3.83846e-20)
(-0.0580431 0.00222947 3.48965e-20)
(-0.0286471 0.00926903 -5.8143e-20)
(0.0136885 0.0158605 1.30013e-21)
(0.0695226 0.0224676 4.45447e-20)
(0.139214 0.0295017 -2.80979e-21)
(0.222588 0.0371245 3.12473e-20)
(0.318696 0.0453173 -4.72859e-20)
(0.426162 0.0534747 0)
(0.542414 0.0616277 4.75252e-20)
(0.664582 0.067995 -6.62033e-20)
(0.790686 0.0728289 2.08193e-20)
(0.912423 0.0750169 0)
(1.03425 0.0716259 1.89095e-20)
(1.14043 0.0680499 7.60177e-20)
(1.23218 0.0532162 -7.09794e-20)
(1.32129 0.0395884 -8.68572e-20)
(0.00129551 -0.00956367 1.04032e-19)
(-0.0104961 -0.0195731 -1.31894e-19)
(-0.0327965 -0.0261568 1.55325e-22)
(-0.0547125 -0.0280201 2.8067e-20)
(-0.0704152 -0.0265017 -5.15109e-20)
(-0.0763552 -0.0233104 -4.74278e-20)
(-0.0699046 -0.0195642 8.36813e-20)
(-0.048916 -0.0157004 -2.68011e-21)
(-0.0118042 -0.0118921 -6.94461e-20)
(0.0423502 -0.00782981 1.1878e-19)
(0.114091 -0.00296654 -3.27098e-21)
(0.202845 0.0032229 -4.75916e-20)
(0.306805 0.0109645 0)
(0.423124 0.0201816 0)
(0.547926 0.0306128 -1.5296e-20)
(0.677139 0.0411683 -2.80449e-20)
(0.805368 0.051909 -4.91315e-20)
(0.929297 0.0597072 4.57979e-20)
(1.04239 0.0671267 -2.08358e-20)
(1.14265 0.0678025 3.99574e-20)
(1.22662 0.0675602 -1.82757e-20)
(1.28626 0.0601981 3.67199e-20)
(1.33543 0.0474945 -8.36607e-20)
(1.34792 0.0351517 1.67637e-20)
(-0.00691188 0.000703891 3.44744e-20)
(-0.0240206 -0.00104648 0)
(-0.0442268 -0.00618313 6.06805e-20)
(-0.0591451 -0.01041 -5.61914e-20)
(-0.0636662 -0.013025 5.15764e-20)
(-0.0540535 -0.0143313 0)
(-0.0271417 -0.0145878 0)
(0.0193542 -0.0139452 -3.6981e-20)
(0.0869184 -0.0121308 2.86729e-21)
(0.175466 -0.00852005 3.20214e-20)
(0.282933 -0.00274102 -2.55921e-20)
(0.405564 0.00537074 4.85354e-20)
(0.538082 0.0156377 0)
(0.674354 0.0274748 7.09347e-20)
(0.80804 0.0399939 -1.28961e-19)
(0.933236 0.0519172 8.6677e-20)
(1.0448 0.0623955 5.08356e-20)
(1.13911 0.0692766 -4.73899e-20)
(1.21282 0.0740513 0)
(1.26714 0.0712459 0)
(1.29869 0.0696538 0)
(1.31635 0.0558901 0)
(1.31888 0.0482366 1.63255e-20)
(1.30933 0.0313967 -5.78233e-20)
(-0.114137 0.800077 -3.17312e-21)
(-0.018918 0.736987 3.17836e-21)
(0.0871516 0.628592 -1.01686e-22)
(0.209771 0.478765 0)
(0.334067 0.301981 -3.47289e-21)
(0.446914 0.112036 6.86099e-21)
(0.541009 -0.0920789 -1.01641e-23)
(0.62162 -0.315691 -3.27976e-21)
(0.691161 -0.532809 0)
(0.740823 -0.696436 0)
(0.766093 -0.778927 -1.16422e-22)
(0.774887 -0.790063 -8.96375e-23)
(0.770799 -0.765479 -1.12352e-21)
(0.757467 -0.7316 1.02224e-21)
(0.744748 -0.695596 0)
(0.729816 -0.677012 0)
(0.699691 -0.69875 9.94571e-22)
(0.652351 -0.734071 1.97853e-22)
(0.607985 -0.698456 -1.05709e-21)
(0.593268 -0.522458 -8.72336e-23)
(0.612172 -0.224027 0)
(0.651755 0.109016 0)
(0.702108 0.3791 0)
(0.750348 0.545347 0)
(0.785046 0.619686 0)
(0.811448 0.624617 0)
(0.833551 0.60427 1.82391e-22)
(0.836476 0.61938 -2.94489e-22)
(0.81324 0.671617 0)
(0.769108 0.687451 0)
(0.719028 0.594219 -3.83991e-22)
(0.680024 0.378127 3.73119e-22)
(0.668148 0.0883083 2.2887e-22)
(0.681477 -0.191107 0)
(0.710607 -0.390215 0)
(0.746811 -0.491761 1.95859e-22)
(0.770955 -0.52949 -1.90358e-22)
(0.749355 -0.549045 0)
(0.690633 -0.548806 1.36314e-22)
(0.62567 -0.474667 -1.98213e-22)
(0.591931 -0.300065 7.3093e-23)
(0.599518 -0.0651048 0)
(0.647439 0.14953 -1.23682e-22)
(0.687383 0.302516 1.20262e-22)
(0.692026 0.419133 0)
(0.663897 0.473476 0)
(0.64601 0.440869 -4.18228e-23)
(0.638664 0.298528 1.31198e-22)
(0.65674 0.0787348 0)
(0.665996 -0.135866 0)
(0.663103 -0.341574 -2.65193e-23)
(0.639873 -0.420481 1.38872e-24)
(0.640076 -0.377785 -2.07877e-24)
(0.632616 -0.199108 1.19046e-23)
(0.627046 0.104873 0)
(0.598197 0.284675 0)
(0.599373 0.405316 0)
(0.581066 0.283442 0)
(0.547084 -0.0988621 0)
(0.518175 -0.13926 0)
(-0.0166273 0.681928 -2.92131e-22)
(0.10256 0.606263 -1.32301e-20)
(0.228277 0.491748 -7.71531e-22)
(0.358954 0.34465 1.31054e-20)
(0.482403 0.182256 2.22133e-22)
(0.587815 0.0150627 0)
(0.676214 -0.169869 -1.37499e-20)
(0.75547 -0.382638 2.63337e-20)
(0.820176 -0.588468 -1.25816e-20)
(0.856248 -0.733575 8.77453e-21)
(0.860403 -0.796109 -8.4042e-21)
(0.845435 -0.791711 5.20423e-21)
(0.821126 -0.755873 -5.07234e-21)
(0.789853 -0.7165 -1.17754e-22)
(0.760909 -0.678939 -3.37381e-21)
(0.734538 -0.654244 3.27661e-21)
(0.695454 -0.664547 -3.59011e-21)
(0.637447 -0.694129 3.37907e-21)
(0.577538 -0.669398 -4.94239e-21)
(0.54283 -0.517302 1.03714e-20)
(0.547493 -0.244077 -5.39543e-21)
(0.584957 0.0697073 -3.22429e-22)
(0.641044 0.335087 -4.41952e-21)
(0.698324 0.509728 7.74634e-21)
(0.745848 0.594792 -3.3546e-21)
(0.787704 0.607337 1.36572e-22)
(0.823494 0.595925 1.97799e-21)
(0.83882 0.622938 1.13609e-22)
(0.82892 0.686887 -4.0409e-21)
(0.798383 0.711269 4.8287e-21)
(0.760776 0.620594 -2.63567e-21)
(0.730298 0.396859 4.67054e-22)
(0.721487 0.092881 -2.2935e-22)
(0.731828 -0.199295 4.43901e-22)
(0.750234 -0.405244 0)
(0.771675 -0.505456 0)
(0.786345 -0.530778 -6.07144e-22)
(0.759315 -0.533939 4.63601e-22)
(0.694186 -0.525603 3.68253e-22)
(0.623552 -0.456472 1.16764e-22)
(0.588101 -0.296264 -5.71923e-22)
(0.59673 -0.0766312 1.15482e-22)
(0.644464 0.132858 0)
(0.681986 0.294162 0)
(0.68713 0.421733 0)
(0.662569 0.480441 0)
(0.646888 0.445274 1.82069e-22)
(0.640922 0.298621 -9.06148e-23)
(0.662908 0.0753089 0)
(0.676115 -0.136881 0)
(0.672202 -0.338454 0)
(0.643685 -0.417978 -3.70358e-23)
(0.639841 -0.376788 1.4977e-23)
(0.630943 -0.198161 -3.06879e-23)
(0.627004 0.107509 0)
(0.60245 0.286771 0)
(0.60947 0.406668 2.27259e-23)
(0.592019 0.289644 9.12781e-23)
(0.549235 -0.0917572 0)
(0.518959 -0.137494 0)
(0.140825 0.548573 1.97986e-21)
(0.264215 0.472457 -2.43588e-20)
(0.390667 0.362003 2.81761e-20)
(0.515342 0.225817 -2.63081e-20)
(0.626522 0.0821288 -2.23715e-22)
(0.717529 -0.0610524 0)
(0.799047 -0.22653 -2.81568e-20)
(0.878893 -0.425446 2.75319e-20)
(0.939446 -0.615322 1.84764e-22)
(0.961841 -0.739998 2.95903e-22)
(0.947159 -0.785275 2.32223e-22)
(0.911426 -0.77248 1.83173e-22)
(0.870185 -0.73318 -8.45847e-21)
(0.825397 -0.693448 8.33266e-21)
(0.782132 -0.65737 0)
(0.745549 -0.62756 1.78188e-22)
(0.701254 -0.62546 -6.27734e-21)
(0.635464 -0.649729 6.20473e-21)
(0.562002 -0.63869 0)
(0.51074 -0.514814 0)
(0.500619 -0.270234 -1.00173e-20)
(0.531774 0.0236133 1.91747e-20)
(0.589524 0.283771 -1.65851e-20)
(0.652721 0.465969 1.57975e-21)
(0.711047 0.561374 1.0592e-20)
(0.766464 0.582994 -8.75654e-21)
(0.815464 0.580762 7.28434e-21)
(0.84396 0.617681 3.46847e-23)
(0.848234 0.693358 -3.68442e-21)
(0.832023 0.73072 0)
(0.807104 0.647433 0)
(0.786069 0.420268 3.08825e-21)
(0.780653 0.106255 -3.93131e-21)
(0.787839 -0.196564 2.57048e-23)
(0.796116 -0.409641 2.49076e-21)
(0.801967 -0.512346 -2.42017e-21)
(0.806548 -0.529603 0)
(0.77587 -0.517825 1.27029e-22)
(0.705453 -0.502137 9.24453e-22)
(0.628804 -0.439934 -1.81423e-21)
(0.591455 -0.295252 8.15182e-22)
(0.599975 -0.0902236 6.33061e-23)
(0.646247 0.115785 -8.21945e-22)
(0.681436 0.285726 6.48703e-22)
(0.687794 0.423713 1.34007e-22)
(0.666203 0.487252 1.56778e-22)
(0.651571 0.450287 -1.82558e-22)
(0.646105 0.299496 0)
(0.672037 0.0724929 0)
(0.689817 -0.136927 -7.38316e-22)
(0.685455 -0.333655 3.29652e-22)
(0.651354 -0.414765 -1.9014e-22)
(0.642842 -0.375719 1.79448e-22)
(0.632598 -0.198571 9.90183e-23)
(0.630871 0.109069 -5.15852e-23)
(0.610409 0.287866 4.67005e-23)
(0.622937 0.407057 -7.76829e-23)
(0.606903 0.297221 7.28653e-23)
(0.556532 -0.0833061 0)
(0.523679 -0.136129 0)
(0.331192 0.424592 -4.80516e-20)
(0.444729 0.352565 -4.50067e-21)
(0.560138 0.252262 4.97105e-20)
(0.669867 0.131203 -4.36279e-22)
(0.7636 0.00672152 0)
(0.84053 -0.119064 0)
(0.917633 -0.273231 -5.47539e-20)
(0.998096 -0.459987 3.02077e-21)
(1.05238 -0.630237 6.92489e-20)
(1.05861 -0.731941 -3.75085e-21)
(1.02472 -0.759997 -1.67029e-20)
(0.97048 -0.741113 -9.98119e-21)
(0.914345 -0.701386 1.00286e-20)
(0.860579 -0.662603 0)
(0.807678 -0.630775 -5.88009e-21)
(0.761265 -0.600358 5.36792e-21)
(0.713902 -0.585206 0)
(0.646602 -0.598039 0)
(0.563776 -0.597992 6.59273e-21)
(0.497265 -0.507427 1.1423e-21)
(0.472724 -0.298357 -7.05104e-21)
(0.494039 -0.0268761 -7.97063e-21)
(0.548064 0.22649 7.87338e-21)
(0.613374 0.414882 -5.47305e-21)
(0.680157 0.520026 1.10027e-21)
(0.747311 0.550657 4.05577e-21)
(0.808237 0.55697 4.07009e-22)
(0.849702 0.6031 2.0382e-23)
(0.869105 0.690326 0)
(0.867323 0.741404 5.76284e-21)
(0.85507 0.669436 -5.9968e-21)
(0.844501 0.445417 4.92848e-22)
(0.843248 0.125122 0)
(0.848087 -0.186797 -4.75296e-22)
(0.847927 -0.4064 5.2317e-21)
(0.838033 -0.513104 -8.13859e-21)
(0.830486 -0.526523 7.34572e-22)
(0.79722 -0.501729 6.4697e-22)
(0.723613 -0.477747 1.47452e-21)
(0.640598 -0.423241 1.82691e-22)
(0.600199 -0.295866 -1.30382e-21)
(0.607719 -0.105632 1.08677e-21)
(0.652279 0.0977618 4.28831e-23)
(0.685767 0.275721 4.95675e-22)
(0.693554 0.424025 -6.164e-22)
(0.674098 0.494198 -1.19164e-21)
(0.659997 0.456569 2.90171e-22)
(0.654422 0.301573 9.98299e-22)
(0.684106 0.0699483 -1.90105e-21)
(0.706974 -0.136709 1.30534e-21)
(0.702737 -0.327499 -1.87869e-22)
(0.662886 -0.410451 3.90233e-22)
(0.649042 -0.374253 1.77821e-22)
(0.637433 -0.200277 -7.23227e-23)
(0.638431 0.109364 -4.62588e-24)
(0.621697 0.287966 -3.18929e-24)
(0.639459 0.40653 0)
(0.625577 0.305931 -5.95203e-23)
(0.569062 -0.0735386 2.66377e-22)
(0.532368 -0.134891 0)
(0.519905 0.316156 4.51179e-20)
(0.617136 0.252499 -9.29525e-20)
(0.716251 0.16625 4.71845e-20)
(0.808901 0.0620808 5.42889e-20)
(0.886598 -0.0453289 -1.08082e-19)
(0.956244 -0.162172 -4.92286e-22)
(1.03597 -0.31115 5.31038e-20)
(1.11464 -0.481499 4.65944e-20)
(1.15433 -0.622534 -4.55807e-20)
(1.13914 -0.698133 0)
(1.08668 -0.713273 -2.53253e-20)
(1.01941 -0.694525 4.44093e-20)
(0.953102 -0.661234 -1.92651e-20)
(0.893626 -0.626713 0)
(0.836708 -0.599505 0)
(0.78391 -0.573109 1.64083e-22)
(0.733739 -0.55008 -9.05817e-21)
(0.668328 -0.549 8.79447e-21)
(0.58162 -0.55319 0)
(0.501513 -0.494386 1.1969e-20)
(0.461789 -0.325167 -2.3969e-20)
(0.470375 -0.0801329 2.45617e-20)
(0.516494 0.164492 -2.30964e-20)
(0.580764 0.357415 1.69974e-21)
(0.653007 0.471554 1.56755e-20)
(0.728711 0.51171 -6.94988e-21)
(0.800118 0.525741 -1.921e-22)
(0.85489 0.577583 -3.10329e-21)
(0.888952 0.674677 -9.67509e-22)
(0.901653 0.743706 4.05202e-21)
(0.903407 0.690794 4.03963e-22)
(0.903573 0.476135 -8.48223e-21)
(0.906982 0.152598 1.67214e-20)
(0.91 -0.16781 -9.23682e-21)
(0.903081 -0.394039 0)
(0.878958 -0.506164 -4.20094e-21)
(0.857699 -0.520266 3.91005e-21)
(0.822325 -0.48564 -1.3274e-21)
(0.747963 -0.453016 1.66918e-21)
(0.658579 -0.405934 -1.14325e-22)
(0.613081 -0.297247 0)
(0.618578 -0.12289 -9.16833e-23)
(0.661695 0.0778313 2.60604e-22)
(0.694356 0.264187 0)
(0.704628 0.423166 1.2224e-21)
(0.687261 0.500482 -4.03557e-22)
(0.673052 0.463425 4.19399e-22)
(0.666477 0.304674 5.59674e-22)
(0.699259 0.0677308 0)
(0.727411 -0.136262 0)
(0.723852 -0.319847 -8.64846e-22)
(0.678182 -0.40486 9.99549e-22)
(0.658332 -0.37229 -3.53308e-22)
(0.645202 -0.203293 1.23816e-23)
(0.649353 0.108163 -4.34167e-23)
(0.635962 0.286976 3.19274e-24)
(0.658679 0.404887 -1.1039e-22)
(0.647782 0.315474 0)
(0.586769 -0.0624913 -3.71039e-22)
(0.545022 -0.133556 -7.36797e-23)
(0.675823 0.225578 4.16979e-20)
(0.757266 0.173223 -4.12857e-20)
(0.842493 0.101257 3.81814e-22)
(0.925671 0.0125164 -3.67187e-22)
(0.999034 -0.0849632 4.14701e-22)
(1.07265 -0.199416 -4.1453e-22)
(1.15627 -0.341497 7.25955e-22)
(1.22324 -0.488613 0)
(1.23928 -0.59763 -5.82472e-22)
(1.20211 -0.650535 4.85755e-22)
(1.13561 -0.65858 3.93094e-22)
(1.06118 -0.642794 -3.36806e-22)
(0.989492 -0.617334 0)
(0.926231 -0.588713 0)
(0.867419 -0.564822 1.59335e-22)
(0.810672 -0.543554 0)
(0.758812 -0.518209 -1.12691e-22)
(0.698395 -0.50326 0)
(0.61386 -0.503936 -7.52973e-21)
(0.522999 -0.471784 1.58276e-20)
(0.466001 -0.345746 -1.75412e-20)
(0.459081 -0.1327 9.12912e-21)
(0.494458 0.0999964 8.37281e-21)
(0.554623 0.294987 -8.12759e-21)
(0.628987 0.417101 -5.74362e-21)
(0.710769 0.46589 5.54155e-21)
(0.791096 0.486006 0)
(0.857161 0.542878 1.41136e-22)
(0.905394 0.649146 0)
(0.932965 0.734406 0)
(0.946918 0.702198 1.33054e-20)
(0.957796 0.504694 -1.36098e-20)
(0.967629 0.185817 1.04738e-21)
(0.97061 -0.141497 1.01078e-21)
(0.959517 -0.374091 -7.90387e-22)
(0.923951 -0.492109 -3.68327e-21)
(0.887497 -0.511028 3.5758e-21)
(0.849361 -0.470191 -1.63427e-21)
(0.776965 -0.427943 1.37109e-21)
(0.682267 -0.386885 2.01887e-22)
(0.629294 -0.298042 -6.5997e-22)
(0.631285 -0.141165 1.00409e-22)
(0.673674 0.0558848 3.56764e-22)
(0.707008 0.249254 0)
(0.720197 0.418696 -3.25416e-22)
(0.704287 0.5068 1.20974e-21)
(0.690318 0.472568 -1.4642e-21)
(0.682737 0.309742 -5.63432e-22)
(0.717697 0.0661144 0)
(0.750951 -0.135873 3.54559e-22)
(0.748535 -0.310875 -8.43583e-22)
(0.697083 -0.397763 -4.30984e-26)
(0.670565 -0.369584 -4.69797e-23)
(0.65561 -0.207502 -1.73009e-22)
(0.663232 0.105397 1.09697e-22)
(0.652783 0.285028 0)
(0.680145 0.402178 1.10456e-22)
(0.673123 0.325508 0)
(0.60946 -0.0502514 0)
(0.561603 -0.131941 1.01916e-22)
(0.81374 0.148692 -3.85826e-20)
(0.884448 0.10548 3.79075e-20)
(0.964017 0.0436273 -3.1682e-22)
(1.04596 -0.0327926 3.76428e-22)
(1.12207 -0.124282 0)