/*--------------------------------*- C++ -*----------------------------------*\
| =========                 |                                                 |
| \\      /  F ield         | OpenFOAM: The Open Source CFD Toolbox           |
|  \\    /   O peration     | Version:  2512                                  |
|   \\  /    A nd           | Website:  www.openfoam.com                      |
|    \\/     M anipulation  |                                                 |
\*---------------------------------------------------------------------------*/
FoamFile
{
    version     2.0;
    format      ascii;
    arch        "LSB;label=32;scalar=64";
    class       volScalarField;
    location    "35";
    object      p;
}
// * * * * * * * * * * * * * * * * * * * * * * * * * * * * * * * * * * * * * //

dimensions      [0 2 -2 0 0 0 0];

internalField   nonuniform List<scalar> 
9800
(
0.0631002
0.063
0.0628092
0.0625367
0.0621901
0.0617762
0.0613013
0.0607712
0.0601907
0.0595647
0.0588981
0.0581958
0.0574625
0.0567031
0.0559224
0.0551252
0.0543161
0.0534995
0.0526796
0.0518603
0.0510453
0.0502378
0.0494408
0.0486572
0.0478893
0.047139
0.0464082
0.0456982
0.0450101
0.0443448
0.0437028
0.0430845
0.0424902
0.0419199
0.0413734
0.0408505
0.0403507
0.0398736
0.0394186
0.0389851
0.0632002
0.0631008
0.0629113
0.0626406
0.0622962
0.0618848
0.0614124
0.0608845
0.0603061
0.0596816
0.0590159
0.0583137
0.0575797
0.0568188
0.0560357
0.055235
0.0544216
0.0535997
0.0527737
0.0519475
0.0511248
0.050309
0.0495031
0.0487102
0.0479325
0.0471724
0.0464314
0.0457112
0.0450129
0.0443375
0.0436856
0.0430576
0.0424539
0.0418744
0.0413191
0.0407878
0.04028
0.0397953
0.0393331
0.0388928
0.0633891
0.0632911
0.0631042
0.0628372
0.0624972
0.0620906
0.0616231
0.0610999
0.0605255
0.0599042
0.0592405
0.0585389
0.057804
0.0570405
0.056253
0.0554462
0.0546248
0.0537932
0.0529557
0.0521164
0.0512791
0.0504475
0.0496247
0.0488139
0.0480176
0.0472382
0.0464778
0.0457379
0.0450199
0.0443249
0.0436537
0.0430069
0.0423848
0.0417876
0.0412152
0.0406674
0.040144
0.0396445
0.0391682
0.0387147
0.0636559
0.0635601
0.0633772
0.0631157
0.0627823
0.062383
0.061923
0.0614071
0.0608392
0.0602231
0.059563
0.0588631
0.0581277
0.0573612
0.0565682
0.0557532
0.0549209
0.0540758
0.0532222
0.0523645
0.0515066
0.0506523
0.0498052
0.0489686
0.0481453
0.0473381
0.0465492
0.0457805
0.0450337
0.0443099
0.0436104
0.0429358
0.0422866
0.041663
0.0410652
0.0404931
0.0399464
0.0394248
0.0389277
0.0384545
0.0639902
0.0638974
0.0637199
0.0634658
0.0631415
0.0627523
0.0623028
0.0617971
0.0612384
0.0606302
0.059976
0.0592794
0.0585446
0.0577756
0.0569767
0.0561524
0.0553072
0.0544458
0.0535725
0.0526918
0.0518079
0.0509249
0.0500467
0.0491768
0.0483186
0.0474752
0.0466492
0.0458427
0.0450579
0.0442962
0.0435592
0.0428476
0.0421624
0.0415038
0.0408721
0.0402674
0.0396896
0.0391384
0.0386132
0.0381136
0.0643819
0.0642928
0.0641222
0.0638778
0.0635652
0.0631892
0.0627535
0.0622614
0.0617154
0.0611183
0.0604728
0.0597822
0.0590499
0.0582797
0.0574757
0.056642
0.055783
0.0549033
0.0540075
0.0531002
0.0521858
0.0512686
0.050353
0.0494429
0.0485423
0.0476546
0.0467827
0.0459295
0.0450975
0.0442885
0.0435045
0.0427466
0.0420159
0.041313
0.0406385
0.0399926
0.0393752
0.0387863
0.0382254
0.037692
0.0648212
0.0647367
0.0645747
0.0643422
0.0640444
0.0636849
0.0632667
0.0627921
0.0622628
0.0616806
0.0610476
0.0603662
0.0596395
0.0588707
0.0580632
0.0572211
0.0563485
0.0554498
0.0545298
0.0535932
0.0526444
0.0516884
0.0507298
0.0497731
0.0488227
0.0478826
0.0469564
0.0460474
0.0451586
0.0442926
0.0434516
0.0426373
0.0418512
0.0410942
0.0403671
0.0396704
0.0390043
0.0383688
0.0377637
0.0371885
0.065299
0.0652201
0.0650684
0.0648503
0.0645703
0.0642311
0.0638345
0.0633816
0.0628735
0.0623109
0.0616949
0.0610272
0.06031
0.0595461
0.0587382
0.0578898
0.0570049
0.0560878
0.0551431
0.0541754
0.0531896
0.0521908
0.0511843
0.050175
0.0491679
0.0481677
0.0471784
0.0462043
0.0452489
0.0443156
0.043407
0.0425255
0.0416731
0.0408511
0.0400607
0.0393028
0.0385778
0.0378858
0.037227
0.0366009
0.0658066
0.0657342
0.0655946
0.0653936
0.0651346
0.0648195
0.0644488
0.0640226
0.0635408
0.063003
0.0624093
0.0617605
0.0610581
0.0603038
0.0594997
0.0586487
0.0577542
0.0568204
0.0558517
0.0548526
0.0538281
0.0527837
0.0517251
0.0506579
0.0495876
0.0485195
0.0474586
0.0464098
0.0453776
0.044366
0.0433785
0.0424182
0.0414875
0.0405887
0.0397232
0.0388923
0.0380968
0.0373373
0.036614
0.0359266
0.0663359
0.0662709
0.0661453
0.0659639
0.0657293
0.0654423
0.0651021
0.0647078
0.0642579
0.0637508
0.0631855
0.0625619
0.0618804
0.0611418
0.060347
0.0594982
0.0585984
0.0576514
0.0566609
0.0556313
0.0545677
0.0534759
0.0523622
0.0512325
0.050093
0.0489496
0.0478084
0.0466753
0.0455556
0.0444542
0.0433756
0.0423237
0.0413017
0.0403127
0.0393588
0.0384418
0.0375629
0.0367232
0.035923
0.0351626
0.0668793
0.0668227
0.0667128
0.0665537
0.0663469
0.0660919
0.065787
0.0654301
0.0650182
0.0645481
0.0640179
0.0634267
0.0627736
0.0620577
0.061279
0.0604388
0.0595398
0.0585846
0.0575761
0.0565183
0.0554167
0.0542774
0.0531066
0.0519109
0.0506968
0.0494712
0.0482413
0.047014
0.0457957
0.0445924
0.0434095
0.0422521
0.0411244
0.0400304
0.0389732
0.0379552
0.0369783
0.0360438
0.0351527
0.0343057
0.0674297
0.0673824
0.0672901
0.0671558
0.0669801
0.0667611
0.0664962
0.0661823
0.0658145
0.0653881
0.0649006
0.06435
0.0637336
0.0630486
0.0622941
0.0614709
0.0605802
0.0596234
0.0586024
0.057521
0.0563844
0.0551989
0.0539706
0.0527064
0.0514133
0.0500994
0.0487728
0.0474415
0.0461132
0.044795
0.0434937
0.0422156
0.0409663
0.039751
0.0385737
0.0374378
0.0363459
0.0353001
0.0343019
0.0333525
0.0679809
0.0679437
0.0678705
0.0677636
0.067622
0.0674427
0.0672228
0.0669574
0.0666397
0.0662642
0.0658277
0.0653265
0.0647557
0.0641109
0.0633904
0.0625939
0.0617209
0.060771
0.0597451
0.0586464
0.05748
0.0562516
0.0549671
0.0536334
0.0522584
0.0508509
0.0494202
0.0479754
0.0465254
0.0450788
0.043644
0.0422287
0.0408404
0.0394853
0.038169
0.036896
0.03567
0.0344938
0.0333699
0.0322999
0.0685269
0.0685006
0.0684482
0.0683709
0.068266
0.0681301
0.0679599
0.0677482
0.0674864
0.0671691
0.0667925
0.0663501
0.0658345
0.0652403
0.0645649
0.0638065
0.0629623
0.0620297
0.0610085
0.0599014
0.0587127
0.057447
0.0561097
0.0547076
0.0532493
0.0517443
0.050203
0.0486355
0.0470522
0.0454633
0.0438789
0.0423089
0.0407622
0.039247
0.0377704
0.0363384
0.0349562
0.0336278
0.0323566
0.031145
0.0690626
0.0690479
0.0690179
0.0689721
0.0689059
0.0688171
0.0687012
0.0685476
0.0683472
0.0680957
0.0677879
0.067414
0.0669638
0.0664315
0.0658138
0.0651064
0.0643035
0.0634006
0.0623963
0.0612923
0.0600914
0.0587965
0.0574123
0.0559453
0.0544044
0.0528
0.0511429
0.0494445
0.0477164
0.045971
0.0442203
0.0424763
0.0407501
0.0390521
0.0373913
0.0357756
0.034212
0.0327062
0.0312626
0.029885
0.0695833
0.069581
0.0695749
0.0695617
0.0695363
0.0694983
0.0694402
0.0693484
0.0692149
0.069037
0.0688066
0.0685103
0.0681363
0.0676785
0.0671321
0.0664896
0.0657422
0.0648836
0.063911
0.0628243
0.061624
0.0603111
0.0588888
0.0573633
0.0557435
0.0540398
0.0522635
0.0504271
0.0485437
0.0466276
0.0446931
0.0427548
0.0408262
0.0389201
0.0370481
0.0352207
0.0334469
0.0317345
0.0300897
0.0285175
0.070085
0.0700961
0.0701151
0.070135
0.0701524
0.0701685
0.0701706
0.0701434
0.0700826
0.0699857
0.0698406
0.0696307
0.069344
0.0689741
0.0685133
0.0679506
0.0672746
0.0664769
0.0655533
0.064501
0.0633173
0.0620006
0.0605527
0.0589787
0.0572868
0.055487
0.0535906
0.051611
0.0495628
0.0474623
0.0453265
0.0431723
0.0410163
0.0388743
0.0367609
0.0346897
0.0326726
0.0307201
0.0288404
0.0270405
0.0705642
0.07059
0.0706349
0.0706877
0.0707502
0.070823
0.0708861
0.0709261
0.0709437
0.0709345
0.0708816
0.0707664
0.0705782
0.0703096
0.0699493
0.0694823
0.0688949
0.0681771
0.0673224
0.0663242
0.0651761
0.0638738
0.0624168
0.0608084
0.0590552
0.0571659
0.0551518
0.0530265
0.050806
0.0485085
0.0461535
0.0437609
0.0413506
0.0389419
0.0365534
0.0342022
0.031904
0.0296724
0.0275186
0.0254522
0.071018
0.0710602
0.071131
0.0712164
0.0713268
0.0714568
0.0715804
0.0716907
0.0717921
0.0718761
0.0719211
0.0719087
0.07183
0.0716755
0.0714303
0.0710757
0.0705957
0.0699786
0.0692146
0.0682931
0.0672033
0.0659376
0.0644924
0.0628683
0.0610692
0.0591018
0.0569763
0.0547063
0.0523087
0.0498034
0.0472121
0.0445579
0.0418646
0.0391556
0.0364541
0.0337818
0.0311589
0.028603
0.0261295
0.0237511
0.0714438
0.0715048
0.0716006
0.0717188
0.0718796
0.072065
0.0722481
0.0724324
0.0726218
0.0728029
0.0729508
0.073049
0.0730899
0.0730613
0.0729449
0.0727197
0.0723674
0.0718735
0.0712242
0.0704043
0.0693989
0.0681963
0.0667888
0.0651729
0.0633487
0.0613199
0.0590947
0.0566858
0.0541101
0.0513886
0.0485452
0.0456063
0.0425996
0.0395537
0.0364969
0.0334568
0.0304588
0.0275263
0.0246795
0.0219356
0.0718399
0.0719225
0.0720416
0.0721939
0.0724059
0.0726424
0.0728853
0.0731469
0.073427
0.0737079
0.0739627
0.0741785
0.0743478
0.0744557
0.0744813
0.0744021
0.0741979
0.0738507
0.0733419
0.0726514
0.0717599
0.0706511
0.0693122
0.0677343
0.0659121
0.0638453
0.0615385
0.0590022
0.0562524
0.0533103
0.0502016
0.0469555
0.0436041
0.0401815
0.0367224
0.0332611
0.0298301
0.0264596
0.0231763
0.0200035
0.0722043
0.0723125
0.072453
0.0726413
0.0729021
0.0731843
0.0734892
0.0738303
0.0742024
0.0745847
0.0749492
0.0752885
0.0755935
0.075847
0.076027
0.0761098
0.0760733
0.0758964
0.0755553
0.0750245
0.0742798
0.0732997
0.0720654
0.0705613
0.0687756
0.0667017
0.0643392
0.0616946
0.0587814
0.0556198
0.0522361
0.0486621
0.0449341
0.0410923
0.0371787
0.0332356
0.0293042
0.0254238
0.0216293
0.0179519
0.0725359
0.072675
0.0728344
0.0730607
0.0733641
0.0736879
0.0740583
0.0744789
0.0749432
0.0754273
0.0759032
0.0763706
0.0768163
0.0772236
0.077569
0.0778284
0.0779782
0.0779941
0.0778482
0.0775094
0.0769477
0.0761353
0.0750468
0.0736589
0.0719516
0.0699104
0.0675275
0.064803
0.0617457
0.0583729
0.0547103
0.0507909
0.0466552
0.0423493
0.0379233
0.0334293
0.0289194
0.0244439
0.020049
0.0157763
0.0728334
0.0730111
0.0731862
0.0734516
0.0737874
0.0741528
0.0745913
0.0750893
0.0756459
0.0762299
0.0768182
0.0774167
0.078006
0.078574
0.0790937
0.079543
0.0798957
0.0801261
0.0802017
0.0800874
0.0797474
0.0791458
0.0782495
0.0770266
0.0754479
0.0734888
0.0711315
0.068367
0.0651962
0.0616307
0.0576931
0.0534164
0.0488438
0.044027
0.0390251
0.0339015
0.0287216
0.02355
0.0184476
0.0134698
0.0730965
0.0733217
0.0735079
0.0738125
0.0741685
0.0745807
0.0750865
0.0756596
0.076307
0.0769875
0.0776884
0.0784192
0.0791531
0.0798877
0.0805875
0.0812386
0.081808
0.0822729
0.0825947
0.0827369
0.0826571
0.0823125
0.0816604
0.0806581
0.0792664
0.0774491
0.0751756
0.0724244
0.0691847
0.0654585
0.0612615
0.0566238
0.0515893
0.0462147
0.0405676
0.0347245
0.0287671
0.0227781
0.0168377
0.0110203
0.0733276
0.073608
0.073798
0.0741411
0.0745058
0.074975
0.0755411
0.0761894
0.0769229
0.0776961
0.0785093
0.0793711
0.0802492
0.0811544
0.0820368
0.0829002
0.0836959
0.0844144
0.0850035
0.0854335
0.0856507
0.0856103
0.0852577
0.084539
0.0834022
0.0817968
0.0796782
0.0770087
0.0737615
0.0699237
0.0654991
0.0605099
0.054997
0.0490197
0.0426536
0.0359891
0.0291271
0.0221734
0.0152339
0.00840889
0.073531
0.0738686
0.0740537
0.0744356
0.074801
0.0753387
0.0759523
0.0766797
0.0774886
0.0783541
0.0792759
0.0802669
0.0812868
0.0823647
0.0834286
0.0845137
0.0855398
0.0865307
0.0874022
0.0881515
0.0886976
0.0890097
0.0890107
0.0886451
0.0878396
0.0865294
0.0846514
0.0821485
0.0789739
0.0750941
0.0704942
0.0651816
0.0591879
0.0525703
0.0454097
0.0378101
0.0298942
0.0217967
0.0136568
0.00561091
0.0737134
0.0740994
0.0742731
0.0746949
0.0750581
0.0756731
0.0763187
0.0771313
0.0779999
0.078962
0.0799828
0.0811033
0.0822585
0.0835105
0.0847505
0.0860659
0.0873199
0.0886023
0.0897622
0.0908643
0.0917618
0.0924784
0.0928802
0.0929431
0.0925473
0.0916323
0.0900963
0.0878666
0.0848667
0.0810383
0.0763397
0.0707549
0.0642975
0.0570147
0.0489871
0.0403291
0.0311862
0.0217273
0.0121357
0.00259679
0.0738808
0.074294
0.0744571
0.0749181
0.0752828
0.0759762
0.0766421
0.0775431
0.0784555
0.0795202
0.0806259
0.081878
0.0831574
0.0845848
0.0859917
0.0875441
0.0890172
0.0906099
0.0920536
0.0935447
0.0948021
0.0959813
0.0968167
0.0973936
0.0974766
0.0970762
0.0959917
0.0941757
0.0914784
0.0878302
0.0831395
0.0773625
0.0704822
0.0625253
0.0535636
0.0437156
0.0331457
0.0220613
0.0107021
-0.00067864
0.0740384
0.0744472
0.0746092
0.0751045
0.0754816
0.0762437
0.0769268
0.0779109
0.0788589
0.0800266
0.0812053
0.0825881
0.08398
0.0855809
0.0871444
0.0889353
0.0906168
0.0925331
0.0942493
0.0961638
0.097774
0.09948
0.10076
0.101951
0.102559
0.102815
0.102279
0.101066
0.0988154
0.0955436
0.0910065
0.0851726
0.0779418
0.0693242
0.0593659
0.0481819
0.0359504
0.0229153
0.00938422
-0.00429602
0.0741888
0.0745565
0.0747333
0.0752542
0.0756602
0.076471
0.0771785
0.0782293
0.0792161
0.0804756
0.0817252
0.0832276
0.0847283
0.0864895
0.0882074
0.0902237
0.0921123
0.0943463
0.0963324
0.0986845
0.100643
0.102927
0.104649
0.10656
0.107708
0.108791
0.108862
0.108494
0.106811
0.104219
0.100005
0.0943827
0.0869253
0.0777342
0.0667271
0.0540405
0.03986
0.0244611
0.00823181
-0.00837148
0.0743319
0.074624
0.0748333
0.075368
0.0758216
0.076656
0.077402
0.0784949
0.0795337
0.0808619
0.0821913
0.0837887
0.0854069
0.0872993
0.0891842
0.0913899
0.0935048
0.0960172
0.0982993
0.101057
0.103395
0.106251
0.10845
0.111131
0.112858
0.114914
0.115638
0.116384
0.115342
0.113836
0.110058
0.105146
0.0975983
0.0881873
0.0761099
0.0618052
0.0453071
0.0269969
0.00737063
-0.013026
0.0744653
0.0746545
0.0749115
0.0754492
0.0759674
0.0768001
0.0776001
0.0787088
0.0798157
0.0811845
0.0826081
0.0842679
0.0860198
0.0880029
0.0900778
0.092419
0.0947967
0.0975164
0.100151
0.103227
0.106026
0.109364
0.112151
0.115534
0.117983
0.121012
0.122558
0.124564
0.124327
0.124267
0.12104
0.117474
0.109867
0.101077
0.0878112
0.0722689
0.0529146
0.0310377
0.00702309
-0.0184211
0.074584
0.0746552
0.0749702
0.0755026
0.0760968
0.0769071
0.0777727
0.0788753
0.080063
0.0814476
0.0829762
0.0846695
0.0865664
0.0886035
0.0908855
0.0933106
0.095982
0.0988348
0.101878
0.105169
0.108525
0.112206
0.115737
0.119654
0.123063
0.12689
0.129608
0.132743
0.133803
0.135204
0.133019
0.131133
0.12369
0.116416
0.101725
0.0863518
0.0630765
0.0375688
0.0073475
-0.0249257
0.0746826
0.0746338
0.0750117
0.0755328
0.076203
0.076982
0.0779175
0.0790014
0.0802729
0.0816585
0.0832921
0.0850015
0.0870411
0.0891104
0.0915973
0.0940753
0.0970442
0.0999822
0.103454
0.106887
0.11085
0.114771
0.119146
0.123461
0.128026
0.132466
0.136732
0.140735
0.143769
0.146341
0.146289
0.145757
0.139705
0.133872
0.118113
0.104039
0.0757515
0.0489025
0.00820401
-0.0327245
0.0747579
0.0745975
0.0750378
0.0755439
0.0762863
0.07703
0.0780328
0.0790933
0.0804436
0.0818239
0.083553
0.085272
0.0874392
0.0895344
0.0922033
0.094728
0.0979634
0.100978
0.104845
0.108401
0.112952
0.117069
0.122316
0.126936
0.132777
0.137689
0.143776
0.148498
0.154026
0.157597
0.160771
0.161221
0.158799
0.153304
0.139165
0.124751
0.0919953
0.0654292
0.00908753
-0.0392473
0.0748095
0.0745516
0.0750496
0.0755392
0.0763454
0.0770558
0.0781178
0.0791566
0.080574
0.0819499
0.0837574
0.0854886
0.0877575
0.0898853
0.0926964
0.0952821
0.098723
0.101842
0.106012
0.109742
0.11475
0.119142
0.125091
0.130133
0.137074
0.142601
0.150443
0.155984
0.164282
0.16875
0.176162
0.177403
0.180797
0.175341
0.167335
0.14883
0.117394
0.0847543
0.0122262
-0.0387757
0.0748385
0.0744995
0.0750476
0.075521
0.0763808
0.0770624
0.0781736
0.0791945
0.0806654
0.0820403
0.0839075
0.0856558
0.0879997
0.090168
0.0930816
0.0957426
0.0993296
0.102579
0.106963
0.11091
0.116238
0.120992
0.127429
0.133059
0.140766
0.147226
0.156304
0.163251
0.173619
0.180013
0.191122
0.194486
0.204571
0.199504
0.202844
0.179477
0.158519
0.106059
0.0284112
-0.0379635
0.0748466
0.0744434
0.0750324
0.0754912
0.0763934
0.0770521
0.0782017
0.0792095
0.0807202
0.0820977
0.084007
0.0857764
0.0881709
0.0903852
0.0933667
0.0961098
0.0997949
0.103182
0.107714
0.111889
0.117443
0.122575
0.129363
0.135625
0.143884
0.151407
0.161359
0.170094
0.181855
0.191217
0.2046
0.212547
0.2267
0.227521
0.240238
0.218738
0.218988
0.136406
0.065975
-0.0986204
0.0748358
0.0743837
0.0750049
0.075451
0.0763852
0.0770263
0.0782042
0.0792029
0.0807412
0.0821238
0.0840601
0.0858525
0.0882765
0.0905386
0.0935586
0.0963846
0.100127
0.103649
0.108273
0.112666
0.118375
0.123858
0.130908
0.137745
0.146451
0.154936
0.165645
0.176034
0.189043
0.201349
0.216675
0.230089
0.247016
0.258181
0.274502
0.270885
0.282607
0.213187
0.179037
-0.224475
0.0385828
0.0382036
0.0378298
0.0374619
0.0371001
0.0367446
0.0363956
0.0360535
0.0357183
0.0353905
0.0384844
0.0380994
0.0377202
0.0373469
0.03698
0.0366197
0.0362662
0.0359198
0.0355807
0.0352492
0.0382942
0.0378981
0.037508
0.0371244
0.0367476
0.0363779
0.0360155
0.0356608
0.035314
0.0349754
0.038016
0.0376031
0.037197
0.0367979
0.0364063
0.0360225
0.0356468
0.0352796
0.0349212
0.034572
0.0376509
0.0372156
0.0367877
0.0363678
0.0359562
0.0355535
0.0351599
0.0347759
0.0344019
0.0340382
0.0371983
0.0367343
0.0362786
0.0358319
0.0353948
0.0349678
0.0345512
0.0341456
0.0337516
0.0333694
0.0366564
0.0361567
0.0356664
0.0351865
0.0347176
0.0342602
0.033815
0.0333825
0.0329634
0.0325582
0.036022
0.0354787
0.0349463
0.0344257
0.0339178
0.0334233
0.032943
0.0324776
0.0320278
0.0315944
0.0352914
0.0346956
0.0341121
0.0335424
0.0329874
0.032448
0.0319251
0.0314197
0.0309327
0.030465
0.0344601
0.0338013
0.0331568
0.032528
0.0319164
0.031323
0.030749
0.0301955
0.0296637
0.0291548
0.033523
0.0327894
0.032072
0.0313729
0.0306936
0.0300356
0.0294004
0.0287894
0.0282041
0.0276458
0.032475
0.0316526
0.0308487
0.0300659
0.0293061
0.0285713
0.0278631
0.0271836
0.0265344
0.0259173
0.0313106
0.030383
0.0294767
0.0285947
0.0277394
0.0269133
0.0261186
0.0253576
0.0246325
0.0239456
0.0300238
0.0289724
0.027945
0.0269456
0.0259772
0.025043
0.0241457
0.0232881
0.0224731
0.0217035
0.0286088
0.0274114
0.0262412
0.0251031
0.0240012
0.0229392
0.0219205
0.0209487
0.0200275
0.0191602
0.0270594
0.0256902
0.0243517
0.0230501
0.0217906
0.0205777
0.0194158
0.0183094
0.017263
0.0162806
0.0253689
0.0237977
0.0222611
0.020767
0.0193217
0.017931
0.0166005
0.0153357
0.0141421
0.0130246
0.0235302
0.0217217
0.0199521
0.0182313
0.0165673
0.0149675
0.0134388
0.011988
0.0106218
0.00934641
0.0215351
0.0194478
0.017404
0.0154165
0.0134955
0.01165
0.0098888
0.00822026
0.00665258
0.00519334
0.0193744
0.0169591
0.0145928
0.0122916
0.0100684
0.00793492
0.00590161
0.00397914
0.00217716
0.000504986
0.0170363
0.0142348
0.0114887
0.00881854
0.00624059
0.00376979
0.00141904
-0.000798514
-0.00287133
-0.00478847
0.0145059
0.0112486
0.00805467
0.00495024
0.00195605
-0.000909002
-0.00362887
-0.00618744
-0.00857133
-0.0107675
0.0117639
0.00796704
0.00424347
0.000627109
-0.00285546
-0.00618024
-0.00932746
-0.0122776
-0.0150151
-0.0175256
0.00878443
0.00434606
-5.98912e-06
-0.00422736
-0.0082832
-0.0121432
-0.0157826
-0.0191783
-0.022313
-0.0251712
0.0055314
0.00032668
-0.00477423
-0.00971261
-0.014442
-0.0189236
-0.0231265
-0.027024
-0.0305973
-0.0338318
0.00195298
-0.00417342
-0.0101713
-0.0159619
-0.0214827
-0.0266835
-0.0315256
-0.0359789
-0.0400248
-0.0436531
-0.0020215
-0.00926805
-0.0163495
-0.023158
-0.0296089
-0.0356366
-0.0411933
-0.0462468
-0.0507823
-0.0547992
-0.00648322
-0.0151083
-0.0235142
-0.0315492
-0.039096
-0.0460682
-0.0524075
-0.0580837
-0.063093
-0.0674545
-0.0115581
-0.0218992
-0.0319429
-0.0414696
-0.0503115
-0.0583523
-0.0655236
-0.0718054
-0.0772192
-0.081822
-0.017443
-0.0299477
-0.0420379
-0.0533893
-0.0637574
-0.0729821
-0.0809883
-0.0877841
-0.0934453
-0.0980981
-0.0244383
-0.039725
-0.0544107
-0.0680091
-0.0801559
-0.090633
-0.099374
-0.106456
-0.112063
-0.116438
-0.0329349
-0.0518895
-0.0699556
-0.0863622
-0.100547
-0.112234
-0.121423
-0.12835
-0.133392
-0.136969
-0.0434159
-0.0673268
-0.089952
-0.109917
-0.126347
-0.13898
-0.148043
-0.154096
-0.157818
-0.159844
-0.056653
-0.0875078
-0.116411
-0.140753
-0.159355
-0.172229
-0.180169
-0.184299
-0.185682
-0.185162
-0.0743961
-0.115646
-0.152712
-0.181743
-0.201749
-0.21343
-0.218607
-0.219257
-0.216899
-0.212626
-0.102502
-0.159762
-0.205134
-0.237512
-0.256981
-0.264946
-0.264606
-0.259162
-0.250775
-0.240899
-0.152624
-0.232764
-0.284447
-0.315565
-0.329191
-0.329109
-0.319484
-0.304124
-0.286021
-0.267379
-0.222805
-0.332836
-0.398113
-0.418335
-0.414458
-0.401358
-0.381085
-0.353526
-0.322341
-0.292035
-0.308777
-0.409955
-0.544343
-0.53815
-0.482475
-0.433582
-0.394311
-0.35957
-0.327075
-0.295811
-0.743932
-0.451192
-0.564415
-0.557476
-0.52679
-0.469656
-0.415299
-0.368351
-0.330724
-0.299963
0.0350519
0.0347006
0.0343512
0.0340045
0.0336614
0.0333227
0.0329892
0.0326618
0.0323415
0.032029
0.0317252
0.0314309
0.0311468
0.0308738
0.0306121
0.0303625
0.0301252
0.0299005
0.0296881
0.0294883
0.0293002
0.0291235
0.0289569
0.0287995
0.0286493
0.0285052
0.028364
0.0282241
0.0280817
0.0279347
0.0277787
0.0276111
0.0274269
0.027223
0.0269938
0.0267362
0.0264445
0.0261153
0.0257426
0.0253234
0.0248516
0.0243243
0.0237353
0.0230822
0.0223584
0.0215623
0.0206868
0.0197311
0.0186878
0.0175572
0.0163319
0.0150141
0.0135973
0.0120853
0.0104747
0.00877069
0.00697287
0.00508724
0.00311347
0.00105589
0.0349072
0.0345525
0.0342002
0.033851
0.0335059
0.0331657
0.0328312
0.0325036
0.0321836
0.0318722
0.0315702
0.0312786
0.030998
0.0307292
0.0304727
0.0302292
0.0299987
0.0297818
0.0295781
0.0293877
0.0292098
0.029044
0.0288887
0.0287434
0.0286056
0.028474
0.0283455
0.0282183
0.0280884
0.0279536
0.0278094
0.0276531
0.0274794
0.0272851
0.0270647
0.0268149
0.02653
0.0262065
0.0258386
0.0254231
0.0249541
0.0244289
0.0238411
0.0231885
0.0224645
0.0216676
0.0207906
0.0198327
0.0187864
0.0176519
0.0164216
0.015098
0.0136737
0.0121537
0.0105337
0.00881966
0.0070114
0.00511489
0.00313015
0.0010615
0.0346264
0.0342653
0.0339073
0.0335532
0.0332041
0.032861
0.0325248
0.0321966
0.0318773
0.0315681
0.0312697
0.0309832
0.0307093
0.030449
0.0302026
0.029971
0.0297541
0.0295525
0.0293657
0.0291938
0.0290357
0.0288912
0.0287583
0.0286363
0.0285225
0.0284154
0.0283116
0.028209
0.0281033
0.0279922
0.0278708
0.0277361
0.0275823
0.0274064
0.0272025
0.0269674
0.0266951
0.0263824
0.0260232
0.0256144
0.0251506
0.0246289
0.0240433
0.0233915
0.0226669
0.0218685
0.0209885
0.0200265
0.0189744
0.0178326
0.016593
0.015258
0.0138197
0.012284
0.010646
0.00891274
0.0070846
0.00516739
0.00316219
0.0010722
0.0342128
0.033842
0.0334754
0.0331141
0.0327591
0.0324116
0.0320728
0.0317438
0.0314256
0.0311196
0.0308267
0.0305481
0.0302844
0.0300368
0.0298057
0.0295919
0.0293954
0.0292167
0.0290553
0.028911
0.0287827
0.0286697
0.0285702
0.0284828
0.0284046
0.0283337
0.0282663
0.0281999
0.0281298
0.0280534
0.0279651
0.0278615
0.0277364
0.0275867
0.0274063
0.0271918
0.0269371
0.0266389
0.0262915
0.0258917
0.0254346
0.0249173
0.0243342
0.0236831
0.0229575
0.0221567
0.0212724
0.0203048
0.0192446
0.0180924
0.0168394
0.0154881
0.0140296
0.012471
0.0108069
0.00904566
0.00718882
0.00524189
0.0032076
0.00108722
0.0336652
0.0332813
0.0329032
0.0325321
0.0321692
0.0318159
0.0314735
0.0311435
0.030827
0.0305256
0.0302402
0.0299722
0.0297225
0.0294922
0.0292819
0.0290923
0.0289235
0.0287758
0.0286487
0.0285418
0.0284535
0.028383
0.0283282
0.0282871
0.0282563
0.0282337
0.0282147
0.0281962
0.028173
0.0281421
0.0280967
0.0280331
0.0279449
0.0278286
0.0276776
0.0274883
0.0272549
0.026974
0.0266405
0.026251
0.0258011
0.0252881
0.0247074
0.0240565
0.0233291
0.0225252
0.0216352
0.0206607
0.0195906
0.0184256
0.0171559
0.0157835
0.0142988
0.0127102
0.0110119
0.00921427
0.00732048
0.00533552
0.00326416
0.00110566
0.0329786
0.0325781
0.0321852
0.0318015
0.0314285
0.0310679
0.0307211
0.0303899
0.0300757
0.0297802
0.0295047
0.0292506
0.0290191
0.0288114
0.028628
0.0284697
0.0283366
0.0282289
0.0281459
0.0280873
0.0280505
0.0280344
0.028036
0.0280537
0.0280831
0.0281215
0.0281625
0.0282044
0.0282397
0.0282648
0.0282719
0.0282569
0.0282131
0.0281361
0.0280195
0.027859
0.0276496
0.0273872
0.0270682
0.026689
0.026246
0.0257362
0.025157
0.0245053
0.0237752
0.0229675
0.0220706
0.0210886
0.0200067
0.0188272
0.0175383
0.0161405
0.0146237
0.0129979
0.0112571
0.00941434
0.00747589
0.00544516
0.00332943
0.00112666
0.0321453
0.0317239
0.0313126
0.0309133
0.0305278
0.030158
0.0298059
0.0294733
0.0291622
0.0288744
0.0286115
0.0283752
0.0281668
0.0279875
0.0278381
0.0277193
0.0276309
0.0275729
0.0275461
0.0275464
0.0275727
0.027624
0.0276963
0.0277869
0.0278905
0.0280034
0.0281187
0.0282327
0.0283385
0.0284299
0.0284987
0.0285408
0.0285479
0.0285154
0.0284367
0.0283073
0.0281229
0.027879
0.0275735
0.027203
0.0267653
0.0262569
0.0256774
0.0250232
0.0242895
0.0234771
0.0225724
0.0215833
0.0204882
0.0192934
0.0179828
0.0165559
0.0150013
0.0133305
0.0115388
0.00964166
0.00765143
0.00556703
0.00340048
0.00114941
0.0311543
0.0307072
0.0302735
0.0298551
0.0294543
0.0290735
0.028715
0.0283811
0.028074
0.027796
0.027549
0.0273349
0.0271553
0.0270116
0.0269048
0.0268354
0.0268038
0.0268084
0.0268457
0.0269178
0.0270217
0.0271553
0.0273132
0.0274921
0.0276848
0.0278871
0.0280909
0.0282922
0.0284795
0.0286478
0.0287875
0.0288943
0.028958
0.0289739
0.0289352
0.0288373
0.0286772
0.0284497
0.0281556
0.0277903
0.027355
0.0268451
0.026263
0.0256039
0.0248655
0.0240474
0.0231346
0.0221394
0.0210306
0.0198215
0.0184876
0.017028
0.0154287
0.0137048
0.011853
0.00989189
0.00784373
0.00569643
0.00347392
0.00117332
0.029992
0.029514
0.029053
0.0286115
0.0281924
0.0277984
0.0274324
0.0270971
0.0267953
0.0265296
0.0263023
0.0261157
0.0259715
0.0258715
0.0258173
0.0258074
0.0258404
0.0259178
0.0260376
0.0261987
0.0263973
0.0266302
0.0268909
0.0271751
0.0274735
0.0277816
0.0280898
0.0283916
0.0286731
0.0289301
0.0291503
0.0293291
0.0294539
0.0295207
0.0295223
0.0294541
0.0293153
0.0291
0.0288131
0.0284477
0.02801
0.0274948
0.0269069
0.0262402
0.025496
0.0246711
0.0237508
0.0227512
0.0216288
0.0204085
0.0190512
0.0175567
0.015904
0.0141178
0.0121946
0.0101601
0.00804879
0.00582763
0.00354679
0.00119812
0.0286422
0.028127
0.0276332
0.0271641
0.0267231
0.0263135
0.0259388
0.0256023
0.0253073
0.025057
0.0248541
0.0247013
0.0246007
0.0245541
0.0245598
0.02462
0.0247341
0.024902
0.0251207
0.0253887
0.0257004
0.0260517
0.0264344
0.0268427
0.0272658
0.0276984
0.0281273
0.0285439
0.0289334
0.0292913
0.0296012
0.0298583
0.0300473
0.0301663
0.0302061
0.0301634
0.0300404
0.0298301
0.0295438
0.0291708
0.0287253
0.0281992
0.0276009
0.0269244
0.0261733
0.0253401
0.024414
0.0234122
0.0222779
0.0210512
0.0196723
0.0181418
0.0164258
0.0145671
0.0125584
0.0104415
0.00826068
0.00595317
0.00361724
0.00122391
0.0270859
0.0265261
0.0259933
0.0254913
0.0250243
0.0245963
0.0242116
0.0238742
0.0235881
0.0233568
0.023184
0.0230724
0.0230244
0.0230393
0.0231192
0.0232652
0.0234771
0.0237536
0.0240907
0.0244859
0.0249317
0.025423
0.0259493
0.0265033
0.0270726
0.0276499
0.0282174
0.0287655
0.0292779
0.0297486
0.0301566
0.0304977
0.0307529
0.0309229
0.0309956
0.030971
0.0308535
0.0306392
0.0303451
0.029955
0.0294948
0.0289512
0.0283381
0.0276476
0.0268874
0.0260453
0.0251166
0.0241146
0.0229719
0.0217463
0.02035
0.0187824
0.0169908
0.0150488
0.0129382
0.0107308
0.00847085
0.00606431
0.00368434
0.00125043
0.025301
0.0246882
0.024109
0.0235681
0.0230704
0.022621
0.0222249
0.021887
0.0216122
0.0214047
0.0212687
0.0212067
0.0212194
0.0213099
0.0214797
0.0217298
0.0220589
0.0224647
0.0229425
0.0234882
0.0240923
0.0247481
0.0254425
0.0261669
0.026906
0.0276497
0.0283763
0.029075
0.0297255
0.0303207
0.0308349
0.0312646
0.0315863
0.0318045
0.0319015
0.0318831
0.0317529
0.0315255
0.0312131
0.030793
0.03031
0.02974
0.0291058
0.0284
0.0276261
0.0267761
0.0258495
0.0248485
0.0237034
0.0224896
0.0210849
0.019478
0.0175928
0.0155552
0.0133268
0.0110213
0.00866738
0.00615183
0.00374664
0.00127589
0.0232622
0.0225866
0.0219526
0.0213657
0.0208321
0.0203577
0.0199489
0.0196114
0.019351
0.0191727
0.0190805
0.019076
0.0191633
0.0193454
0.0196236
0.0199983
0.0204669
0.0210263
0.0216705
0.0223935
0.0231834
0.0240318
0.0249222
0.0258444
0.0267791
0.0277128
0.0286207
0.0294948
0.0302965
0.0310277
0.0316564
0.0321785
0.0325658
0.0328265
0.0329363
0.0329083
0.0327252
0.032489
0.0321424
0.0316757
0.0311602
0.0305533
0.0298945
0.0291735
0.0283869
0.0275223
0.0266008
0.0256005
0.0244625
0.0232749
0.0218775
0.0202272
0.0182236
0.0160754
0.0137126
0.0113008
0.00883605
0.00620725
0.00379921
0.0012954
0.0209409
0.0201911
0.0194924
0.0188515
0.0182759
0.0177728
0.0173498
0.0170135
0.0167712
0.0166275
0.0165869
0.0166532
0.016831
0.0171231
0.0175309
0.0180537
0.0186877
0.0194287
0.0202688
0.0211999
0.022207
0.0232797
0.0243972
0.0255479
0.0267061
0.0278551
0.0289652
0.0300241
0.0310068
0.0318902
0.0326432
0.0332608
0.033711
0.0340048
0.034116
0.03408
0.0339099
0.0335483
0.0331254
0.0325904
0.0320314
0.0313752
0.0306899
0.029953
0.029137
0.0282667
0.0273537
0.026352
0.025236
0.0240925
0.022727
0.0210234
0.0188694
0.0165962
0.0140789
0.0115461
0.00895963
0.00622297
0.00383218
0.00130087
0.0183042
0.0174669
0.0166923
0.0159882
0.0153638
0.0148277
0.014389
0.0140554
0.0138345
0.0137334
0.0137556
0.013907
0.0141933
0.0146172
0.015179
0.0158771
0.0167062
0.0176612
0.0187312
0.0199054
0.0211655
0.022498
0.0238779
0.0252908
0.0267035
0.0280982
0.0294401
0.0307154
0.0318875
0.032935
0.0338203
0.0345348
0.0350417
0.0353517
0.0354374
0.0353441
0.0350664
0.0346468
0.0341347
0.0335165
0.0329043
0.0321866
0.0314791
0.0307247
0.0298699
0.0290013
0.0280917
0.0270807
0.0260049
0.0249252
0.0236274
0.0218495
0.0195079
0.0170973
0.0143993
0.0117221
0.00901749
0.00618594
0.00382819
0.00128298
0.0153147
0.0143749
0.0135115
0.0127338
0.012053
0.011479
0.0110228
0.0106948
0.0105026
0.0104512
0.0105486
0.0108021
0.0112181
0.0117985
0.0125426
0.0134474
0.0145063
0.0157121
0.0170507
0.0185078
0.0200611
0.0216933
0.0233743
0.0250856
0.0267876
0.0284611
0.0300631
0.0315779
0.0329596
0.0341867
0.0352132
0.0360263
0.0365813
0.0368869
0.0369158
0.0367238
0.0363141