/*--------------------------------*- C++ -*----------------------------------*\
| =========                 |                                                 |
| \\      /  F ield         | OpenFOAM: The Open Source CFD Toolbox           |
|  \\    /   O peration     | Version:  2512                                  |
|   \\  /    A nd           | Website:  www.openfoam.com                      |
|    \\/     M anipulation  |                                                 |
\*---------------------------------------------------------------------------*/
FoamFile
{
    version     2.0;
    format      ascii;
    arch        "LSB;label=32;scalar=64";
    class       surfaceScalarField;
    location    "40";
    object      phi;
}
// * * * * * * * * * * * * * * * * * * * * * * * * * * * * * * * * * * * * * //

dimensions      [0 3 -1 0 0 0 0];

oriented        oriented;

internalField   nonuniform List<scalar> 
19380
(
0.874552
-4.93161e-05
0.874687
-0.000134908
0.874895
-0.000207694
0.875166
-0.000271327
0.875494
-0.000328363
0.875875
-0.000380646
0.876305
-0.000429886
0.876781
-0.000476733
0.877303
-0.000521389
0.877866
-0.000563607
0.878469
-0.000602815
0.879108
-0.000638291
0.879777
-0.000669321
0.880472
-0.000695318
0.881188
-0.000715906
0.881919
-0.00073094
0.88266
-0.000740491
0.883404
-0.000744805
0.884149
-0.000744257
0.884888
-0.000739305
0.885618
-0.000730451
0.886337
-0.000718205
0.88704
-0.000703068
0.887725
-0.000685521
0.888391
-0.000666013
0.889036
-0.00064496
0.889659
-0.000622737
0.890259
-0.000599684
0.890835
-0.000576102
0.891387
-0.000552265
0.891915
-0.000528392
0.89242
-0.000504658
0.892901
-0.0004812
0.893359
-0.00045816
0.893795
-0.000435655
0.894209
-0.00041378
0.894601
-0.000392601
0.894974
-0.000372169
0.895326
-0.000352518
-0.000333711
0.89566
0.844011
-9.67406e-05
0.844141
-0.000264523
0.84434
-0.000407099
0.8446
-0.000531726
0.844916
-0.000643518
0.845281
-0.000746115
0.845694
-0.000842924
0.846152
-0.000935211
0.846654
-0.00102337
0.847198
-0.00110692
0.84778
-0.00118469
0.848397
-0.00125523
0.849044
-0.00131709
0.849718
-0.00136909
0.850413
-0.00141046
0.851123
-0.0014409
0.851843
-0.00146052
0.852568
-0.00146981
0.853293
-0.00146947
0.854014
-0.0014604
0.854727
-0.00144358
0.855429
-0.00141998
0.856116
-0.00139061
0.856787
-0.0013564
0.85744
-0.00131825
0.858072
-0.00127696
0.858682
-0.0012333
0.85927
-0.00118793
0.859836
-0.00114147
0.860378
-0.00109445
0.860897
-0.00104732
0.861393
-0.00100043
0.861865
-0.000954051
0.862316
-0.000908471
0.862744
-0.000863923
0.863151
-0.000820594
0.863537
-0.00077862
0.863903
-0.000738106
0.864249
-0.000699121
-0.000661793
0.864578
0.814536
-0.000142104
0.81466
-0.000388271
0.81485
-0.000597315
0.815099
-0.000780083
0.815399
-0.000944312
0.815749
-0.00109528
0.816144
-0.0012381
0.816583
-0.00137471
0.817065
-0.00150566
0.817589
-0.00163016
0.81815
-0.00174645
0.818748
-0.00185228
0.819376
-0.00194547
0.820031
-0.00202421
0.820708
-0.0020873
0.821401
-0.00213424
0.822106
-0.00216518
0.822817
-0.00218075
0.823529
-0.00218199
0.824239
-0.00217017
0.824942
-0.0021467
0.825635
-0.00211303
0.826315
-0.00207063
0.82698
-0.00202088
0.827627
-0.0019651
0.828254
-0.00190452
0.828861
-0.00184024
0.829446
-0.00177329
0.83001
-0.00170456
0.83055
-0.00163489
0.831068
-0.00156493
0.831562
-0.00149524
0.832035
-0.00142624
0.832484
-0.00135834
0.832912
-0.0012919
0.833319
-0.00122722
0.833705
-0.00116451
0.834071
-0.00110393
0.834417
-0.00104559
-0.000989696
0.834745
0.786091
-0.000185283
0.786208
-0.000505744
0.786388
-0.000777637
0.786624
-0.00101543
0.786909
-0.00122959
0.787241
-0.00142707
0.787617
-0.00161431
0.788037
-0.0017943
0.788499
-0.00196759
0.789002
-0.00213306
0.789543
-0.00228826
0.790121
-0.00243016
0.790732
-0.00255578
0.79137
-0.0026626
0.792032
-0.002749
0.792712
-0.00281419
0.793405
-0.00285829
0.794106
-0.00288207
0.794811
-0.00288679
0.795515
-0.00287407
0.796214
-0.00284572
0.796904
-0.00280365
0.797583
-0.00274974
0.798248
-0.00268583
0.798897
-0.00261365
0.799527
-0.00253482
0.800138
-0.00245083
0.800728
-0.00236304
0.801296
-0.00227265
0.801842
-0.00218076
0.802365
-0.00208828
0.802866
-0.00199599
0.803344
-0.00190447
0.8038
-0.00181426
0.804234
-0.00172586
0.804646
-0.00163967
0.805038
-0.001556
0.805409
-0.00147509
0.80576
-0.0013971
-0.00132231
0.806093
0.758638
-0.00022615
0.758749
-0.000616522
0.758919
-0.000947373
0.75914
-0.00123684
0.759409
-0.00149817
0.759722
-0.00174034
0.760078
-0.00197034
0.760477
-0.00219284
0.760917
-0.00240822
0.761399
-0.00261491
0.761921
-0.00280979
0.762479
-0.00298895
0.763072
-0.00314854
0.763695
-0.00328533
0.764343
-0.00339713
0.765012
-0.00348288
0.765696
-0.00354256
0.766391
-0.00357698
0.767092
-0.0035876
0.767794
-0.00357631
0.768494
-0.00354531
0.769187
-0.00349689
0.76987
-0.00343335
0.770542
-0.00335696
0.771198
-0.00326984
0.771837
-0.00317401
0.772457
-0.00307134
0.773058
-0.00296353
0.773637
-0.00285209
0.774195
-0.00273839
0.77473
-0.00262363
0.775243
-0.00250882
0.775733
-0.00239475
0.776201
-0.00228209
0.776647
-0.00217146
0.777071
-0.00206342
0.777473
-0.00195836
0.777855
-0.00185664
0.778216
-0.00175846
-0.00166421
0.778558
0.732144
-0.000264567
0.732248
-0.000720176
0.732406
-0.00110582
0.732613
-0.00144335
0.732864
-0.00174888
0.733157
-0.00203367
0.733492
-0.00230498
0.733868
-0.00256904
0.734286
-0.00282628
0.734746
-0.00307462
0.735246
-0.00331014
0.735785
-0.00352805
0.73636
-0.00372354
0.736967
-0.00389256
0.737602
-0.00403234
0.738261
-0.00414141
0.738938
-0.00421956
0.739629
-0.00426756
0.740328
-0.00428697
0.741032
-0.00427994
0.741735
-0.00424897
0.742435
-0.00419671
0.743128
-0.00412583
0.74381
-0.00403898
0.744478
-0.00393867
0.745132
-0.00382734
0.745768
-0.0037072
0.746384
-0.00358032
0.746981
-0.00344852
0.747556
-0.00331349
0.748109
-0.00317667
0.74864
-0.00303938
0.749147
-0.00290262
0.749633
-0.00276727
0.750095
-0.00263402
0.750535
-0.00250362
0.750954
-0.00237658
0.75135
-0.00225336
0.751726
-0.00213427
-0.00201977
0.752082
0.706575
-0.000300381
0.706671
-0.000816284
0.706818
-0.00125227
0.707009
-0.00163404
0.70724
-0.00198058
0.707512
-0.00230543
0.707824
-0.00261696
0.708176
-0.00292138
0.70857
-0.00322025
0.709006
-0.00351067
0.709484
-0.00378795
0.710002
-0.00404625
0.710559
-0.00427979
0.71115
-0.00448363
0.711772
-0.00465433
0.71242
-0.00478991
0.713091
-0.00488988
0.713778
-0.00495484
0.714477
-0.00498643
0.715184
-0.00498697
0.715895
-0.0049592
0.716604
-0.00490606
0.717309
-0.00483056
0.718005
-0.00473568
0.718691
-0.00462432
0.719363
-0.0044993
0.720019
-0.00436319
0.720657
-0.00421841
0.721276
-0.00406711
0.721873
-0.0039113
0.722449
-0.00375272
0.723003
-0.003593
0.723534
-0.00343338
0.724042
-0.00327499
0.724526
-0.00311865
0.724988
-0.00296526
0.725427
-0.00281548
0.725843
-0.00266993
0.726238
-0.002529
-0.0023933
0.726612
0.681899
-0.000333445
0.681987
-0.00090442
0.682121
-0.00138604
0.682295
-0.00180799
0.682506
-0.00219211
0.682755
-0.00255425
0.683043
-0.00290457
0.68337
-0.00324834
0.683738
-0.00358833
0.684149
-0.00392124
0.684602
-0.00424139
0.685098
-0.00454183
0.685633
-0.00481568
0.686207
-0.0050571
0.686814
-0.00526192
0.687452
-0.00542757
0.688115
-0.00555308
0.688799
-0.00563884
0.689499
-0.00568648
0.690211
-0.00569841
0.690929
-0.00567753
0.69165
-0.005627
0.69237
-0.00555006
0.693084
-0.00545005
0.69379
-0.0053302
0.694484
-0.00519369
0.695165
-0.00504344
0.695828
-0.00488222
0.696474
-0.00471251
0.697099
-0.00453669
0.697703
-0.00435678
0.698285
-0.00417474
0.698844
-0.00399214
0.699379
-0.00381034
0.699891
-0.00363038
0.700379
-0.00345328
0.700843
-0.00327991
0.701284
-0.00311103
0.701702
-0.00294718
-0.00278912
0.702098
0.658084
-0.000363622
0.658164
-0.000984166
0.658285
-0.00150652
0.658441
-0.00196431
0.658631
-0.00238238
0.658856
-0.00277893
0.659117
-0.0031658
0.659417
-0.00354835
0.659757
-0.00392861
0.66014
-0.00430423
0.660567
-0.00466829
0.661038
-0.00501252
0.661551
-0.00532895
0.662105
-0.00561084
0.662696
-0.00585322
0.663321
-0.00605271
0.663976
-0.00620781
0.664656
-0.00631861
0.665356
-0.00638664
0.666072
-0.00641431
0.666799
-0.00640457
0.667533
-0.00636066
0.668269
-0.00628603
0.669003
-0.00618432
0.669732
-0.00605904
0.670452
-0.00591373
0.67116
-0.00575158
0.671853
-0.00557576
0.67253
-0.00538904
0.673187
-0.00519422
0.673824
-0.00499362
0.674439
-0.00478956
0.675031
-0.00458389
0.675599
-0.00437835
0.676143
-0.0041742
0.676662
-0.00397264
0.677157
-0.00377471
0.677627
-0.0035814
0.678073
-0.0033934
-0.00321166
0.678496
0.635101
-0.000390783
0.635172
-0.00105516
0.635279
-0.00161315
0.635416
-0.00210223
0.635584
-0.00255037
0.635784
-0.00297828
0.636017
-0.00339913
0.636288
-0.00381923
0.636599
-0.00423927
0.636952
-0.00465746
0.63735
-0.00506616
0.637793
-0.00545562
0.638281
-0.00581685
0.638812
-0.00614213
0.639384
-0.00642556
0.639995
-0.00666283
0.640639
-0.00685182
0.641312
-0.00699225
0.642011
-0.0070855
0.642731
-0.00713378
0.643466
-0.00713994
0.644212
-0.00710725
0.644966
-0.0070393
0.645721
-0.00693994
0.646475
-0.00681292
0.647224
-0.00666205
0.647963
-0.00649078
0.64869
-0.00630264
0.649401
-0.00610074
0.650095
-0.00588827
0.65077
-0.00566789
0.651422
-0.00544229
0.652052
-0.00521364
0.652658
-0.00498407
0.653239
-0.00475515
0.653795
-0.00452835
0.654325
-0.00430483
0.654829
-0.00408586
0.655308
-0.00387234
-0.00366544
0.655762
0.61292
-0.000414799
0.612982
-0.00111712
0.613074
-0.00170548
0.613193
-0.00222107
0.613338
-0.00269524
0.613511
-0.00315131
0.613715
-0.00360333
0.613955
-0.00405861
0.614234
-0.00451838
0.614555
-0.00497875
0.614921
-0.00543233
0.615334
-0.00586813
0.615793
-0.00627617
0.616299
-0.00664771
0.616849
-0.00697567
0.617441
-0.00725468
0.618071
-0.00748204
0.618736
-0.00765704
0.619431
-0.00778073
0.620152
-0.00785496
0.620894
-0.00788235
0.621653
-0.0078661
0.622424
-0.00780985
0.623201
-0.00771759
0.623982
-0.00759319
0.62476
-0.00744067
0.625533
-0.00726367
0.626297
-0.0070661
0.627047
-0.00685135
0.627782
-0.00662304
0.628498
-0.00638413
0.629194
-0.00613777
0.629866
-0.0058864
0.630515
-0.00563265
0.631138
-0.00537841
0.631736
-0.00512556
0.632306
-0.00487538
0.63285
-0.00462943
0.633366
-0.00438888
-0.00415514
0.633856
0.591513
-0.000435565
0.591566
-0.00116985
0.591644
-0.00178315
0.591743
-0.00232027
0.591864
-0.00281642
0.59201
-0.00329717
0.592184
-0.00377716
0.59239
-0.00426509
0.592635
-0.00476328
0.592922
-0.00526601
0.593254
-0.00576406
0.593633
-0.00624684
0.59406
-0.00670348
0.594536
-0.00712391
0.59506
-0.00749967
0.59563
-0.00782433
0.596243
-0.00809464
0.596895
-0.00830939
0.597583
-0.00846908
0.598303
-0.00857503
0.599051
-0.00862952
0.59982
-0.00863558
0.600607
-0.00859679
0.601407
-0.00851717
0.602214
-0.00840052
0.603024
-0.00825102
0.603833
-0.00807241
0.604636
-0.00786898
0.605429
-0.00764433
0.606208
-0.00740252
0.606971
-0.00714681
0.607714
-0.00688081
0.608435
-0.0066073
0.609132
-0.0063294
0.609803
-0.0060494
0.610447
-0.00576966
0.611063
-0.00549172
0.611651
-0.00521737
0.61221
-0.00494812
-0.0046857
0.612741
0.570854
-0.000453
0.570898
-0.00121329
0.57096
-0.00184584
0.571039
-0.00239947
0.571137
-0.00291367
0.571255
-0.00341521
0.571397
-0.0039195
0.57157
-0.00443754
0.571778
-0.00497214
0.572029
-0.00551641
0.572323
-0.00605871
0.572665
-0.00658862
0.573057
-0.00709522
0.5735
-0.00756673
0.573993
-0.0079932
0.574536
-0.00836725
0.575127
-0.00868513
0.575762
-0.00894491
0.57644
-0.00914641
0.577155
-0.0092902
0.577903
-0.00937818
0.578681
-0.00941311
0.579482
-0.00939833
0.580303
-0.00933768
0.581137
-0.00923476
0.58198
-0.00909383
0.582826
-0.00891861
0.583671
-0.00871372
0.584509
-0.00848286
0.585338
-0.0082306
0.586151
-0.00796035
0.586947
-0.00767631
0.587721
-0.00738158
0.588471
-0.00707984
0.589196
-0.00677379
0.589892
-0.00646636
0.59056
-0.00615953
0.591198
-0.00585527
0.591805
-0.0055555
-0.00526233
0.592382
0.550916
-0.000467073
0.55095
-0.00124743
0.550998
-0.00189325
0.551057
-0.00245867
0.55113
-0.00298703
0.55122
-0.00350488
0.55133
-0.00402956
0.551468
-0.00457512
0.551639
-0.00514382
0.55185
-0.00572713
0.552105
-0.00631336
0.552407
-0.00689053
0.552759
-0.00744784
0.553164
-0.00797193
0.553623
-0.00845151
0.554134
-0.00887844
0.554697
-0.00924838
0.555311
-0.00955847
0.555972
-0.00980765
0.556677
-0.00999571
0.557423
-0.0101241
0.558205
-0.0101951
0.559019
-0.0102116
0.559858
-0.0101772
0.560718
-0.0100949
0.561594
-0.00996907
0.562478
-0.00980323
0.563367
-0.00960225
0.564254
-0.00936981
0.565134
-0.00911093
0.566003
-0.00882914
0.566856
-0.00852927
0.567689
-0.00821471
0.568499
-0.0078898
0.569283
-0.00755764
0.570038
-0.00722184
0.570764
-0.00688491
0.571457
-0.00654915
0.572119
-0.0062169
-0.00589066
0.572747
0.531674
-0.000477846
0.531699
-0.00127226
0.531731
-0.00192516
0.531771
-0.00249833
0.531821
-0.00303673
0.531881
-0.00356575
0.531959
-0.00410705
0.532061
-0.00467743
0.532195
-0.00527715
0.532364
-0.00589646
0.532575
-0.00652471
0.532834
-0.00714965
0.533144
-0.00775793
0.533508
-0.00833528
0.533926
-0.00886973
0.5344
-0.00935257
0.534931
-0.00977875
0.535516
-0.0101442
0.536155
-0.0104469
0.536846
-0.0106859
0.537584
-0.010862
0.538365
-0.0109769
0.539187
-0.0110328
0.540042
-0.0110326
0.540926
-0.0109789
0.541833
-0.0108759
0.542756
-0.0107265
0.54369
-0.010536
0.544628
-0.0103076
0.545564
-0.010047
0.546492
-0.00975756
0.547408
-0.00944485
0.548306
-0.00911247
0.549181
-0.00876552
0.550031
-0.00840753
0.550852
-0.00804283
0.551642
-0.0076746
0.552398
-0.00730566
0.55312
-0.00693874
-0.00657684
0.553806
0.513105
-0.000485491
0.51312
-0.00128752
0.513136
-0.00194154
0.513158
-0.00251944
0.513184
-0.00306294
0.513216
-0.00359767
0.513261
-0.00415236
0.513328
-0.00474435
0.513422
-0.00537108
0.513548
-0.006023
0.513715
-0.00669103
0.513928
-0.00736254
0.514192
-0.00802201
0.514509
-0.00865262
0.514882
-0.00924299
0.515314
-0.00978416
0.515805
-0.0102702
0.516357
-0.0106956
0.516967
-0.0110575
0.517635
-0.0113541
0.518359
-0.0115856
0.519135
-0.0117527
0.519959
-0.0118568
0.520826
-0.0118999
0.521731
-0.0118838
0.522667
-0.0118123
0.523629
-0.0116879
0.524608
-0.0115156
0.525599
-0.0112983
0.526594
-0.011042
0.527586
-0.0107499
0.52857
-0.0104284
0.529538
-0.010081
0.530487
-0.00971375
0.53141
-0.00933062
0.532304
-0.00893677
0.533165
-0.00853609
0.533992
-0.00813217
0.534781
-0.00772821
-0.0073277
0.535532
0.495184
-0.000490247
0.495189
-0.00129262
0.49519
-0.00194293
0.495194
-0.00252334
0.495197
-0.00306568
0.4952
-0.00360119
0.495214
-0.00416646
0.495246
-0.0047758
0.4953
-0.00542482
0.495382
-0.00610587
0.495503
-0.00681121
0.495667
-0.00752699
0.495881
-0.00823596
0.496148
-0.00891988
0.496472
-0.00956666
0.496856
-0.0101677
0.497302
-0.0107163
0.497812
-0.0112056
0.498386
-0.0116322
0.499025
-0.011993
0.499727
-0.0122876
0.50049
-0.0125155
0.50131
-0.0126771
0.502184
-0.0127733
0.503105
-0.012805
0.504068
-0.0127753
0.505066
-0.0126856
0.506091
-0.012541
0.507136
-0.0123433
0.508193
-0.0120989
0.509254
-0.0118105
0.510311
-0.0114853
0.511356
-0.0111267
0.512384
-0.0107419
0.513389
-0.0103349
0.514364
-0.00991202
0.515306
-0.00947788
0.516211
-0.0090371
0.517076
-0.00859349
-0.00815105
0.517899
0.477888
-0.000492262
0.477882
-0.00128661
0.47787
-0.00193068
0.477858
-0.00251128
0.477837
-0.00304486
0.477814
-0.00357783
0.477798
-0.00415056
0.477794
-0.00477171
0.477807
-0.00543822
0.477846
-0.00614487
0.47792
-0.00688454
0.478034
-0.00764148
0.478195
-0.00839689
0.478408
-0.00913245
0.478677
-0.00983617
0.479007
-0.0104979
0.479402
-0.0111107
0.479863
-0.0116671
0.480394
-0.0121629
0.480995
-0.0125942
0.481667
-0.0129596
0.482409
-0.0132571
0.483218
-0.0134861
0.48409
-0.0136461
0.485022
-0.0137368
0.486007
-0.0137604
0.487039
-0.0137169
0.488109
-0.013611
0.489208
-0.0134431
0.49033
-0.01322
0.491462
-0.0129434
0.492598
-0.0126213
0.493728
-0.0122568
0.494845
-0.0118579
0.495939
-0.0114292
0.497005
-0.0109781
0.498037
-0.0105097
0.49903
-0.0100302
0.49998
-0.00954406
-0.00905594
0.500885
0.461197
-0.000491276
0.461179
-0.00126843
0.461155
-0.0019072
0.461128
-0.00248397
0.461084
-0.00300086
0.461036
-0.00353009
0.460991
-0.00410544
0.460952
-0.00473224
0.460925
-0.00541194
0.460921
-0.00614043
0.460947
-0.00691075
0.46101
-0.00770473
0.461116
-0.0085028
0.461271
-0.00928711
0.461481
-0.0100464
0.461753
-0.0107693
0.462089
-0.0114472
0.462495
-0.0120727
0.462973
-0.0126416
0.463528
-0.0131487
0.46416
-0.0135922
0.464871
-0.013968
0.46566
-0.0142745
0.466523
-0.0145096
0.467458
-0.0146718
0.468459
-0.0147615
0.46952
-0.0147774
0.470632
-0.014723
0.471786
-0.0145973
0.472973
-0.014407
0.474182
-0.0141524
0.475403
-0.0138421
0.476624
-0.0134785
0.477837
-0.0130709
0.479032
-0.0126237
0.4802
-0.0121458
0.481333
-0.011643
0.482425
-0.0111228
0.483472
-0.0105911
-0.0100531
0.48447
0.445087
-0.000486158
0.445056
-0.00123765
0.445025
-0.00187572
0.444982
-0.00244123
0.444916
-0.00293521
0.444847
-0.00346084
0.444773
-0.00403111
0.444699
-0.00465848
0.444634
-0.00534734
0.444587
-0.00609346
0.444567
-0.00689006
0.444578
-0.00771595
0.444627
-0.00855221
0.444722
-0.00938165
0.444869
-0.0101936
0.445076
-0.010976
0.445348
-0.0117194
0.44569
-0.0124152
0.446109
-0.0130598
0.446607
-0.0136473
0.44719
-0.0141751
0.44786
-0.0146375
0.448617
-0.0150319
0.449461
-0.0153538
0.45039
-0.0156007
0.451399
-0.0157707
0.452483
-0.0158608
0.453633
-0.0158729
0.45484
-0.0158041
0.456093
-0.0156604
0.457381
-0.0154404
0.458692
-0.0151532
0.460013
-0.0147997
0.461333
-0.0143906
0.462639
-0.0139297
0.463921
-0.0134277
0.465169
-0.0128908
0.466375
-0.0123285
0.467531
-0.011748
-0.0111554
0.468634
0.429537
-0.000474347
0.429495
-0.00119563
0.429459
-0.00183939
0.4294
-0.00238222
0.429315
-0.00285091
0.429227
-0.00337217
0.429123
-0.00392713
0.429017
-0.00455303
0.428916
-0.00524594
0.428828
-0.00600551
0.428761
-0.00682307
0.42872
-0.00767489
0.428712
-0.00854443
0.428745
-0.00941438
0.428826
-0.0102752
0.428964
-0.0111135
0.429165
-0.0119206
0.429437
-0.0126876
0.429787
-0.0134094
0.43022
-0.0140805
0.430743
-0.0146978
0.431359
-0.0152542
0.432074
-0.0157461
0.432887
-0.0161668
0.433798
-0.0165122
0.434805
-0.0167778
0.435903
-0.0169586
0.437085
-0.0170544
0.43834
-0.0170598
0.439659
-0.0169795
0.441029
-0.0168099
0.442435
-0.0165597
0.443864
-0.0162284
0.445301
-0.0158275
0.446731
-0.0153599
0.448142
-0.0148383
0.44952
-0.0142689
0.450855
-0.0136636
0.452138
-0.0130309
-0.0123786
0.453361
0.414525
-0.000451349
0.414477
-0.00114711
0.414437
-0.00179964
0.414361
-0.00230652
0.414262
-0.00275181
0.414154
-0.00326449
0.414021
-0.00379383
0.413888
-0.00441995
0.413751
-0.00510871
0.413624
-0.00587915
0.413512
-0.00671039
0.413419
-0.00758219
0.413354
-0.00847951
0.413324
-0.00938431
0.413338
-0.0102892
0.413403
-0.0111787
0.413529
-0.0120459
0.413723
-0.012882
0.413996
-0.013682
0.414354
-0.0144386
0.414805
-0.0151492
0.415357
-0.0158058
0.416015
-0.0164041
0.416783
-0.0169349
0.417663
-0.0173928
0.418656
-0.0177702
0.419757
-0.0180599
0.420961
-0.0182585
0.42226
-0.0183582
0.423642
-0.0183613
0.425093
-0.0182613
0.426599
-0.018066
0.428144
-0.0177726
0.429709
-0.0173929
0.431278
-0.0169286
0.432833
-0.0163941
0.43436
-0.0157954
0.435844
-0.0151474
0.437272
-0.0144593
-0.013742
0.438636
0.400031
-0.00041053
0.399985
-0.00110199
0.399939
-0.00175358
0.399849
-0.00221614
0.399738
-0.00264053
0.399611
-0.00313726
0.39945
-0.00363315
0.399294
-0.00426399
0.399121
-0.00493564
0.39896
-0.00571864
0.398802
-0.00655177
0.39866
-0.00744024
0.398538
-0.00835772
0.398445
-0.00929157
0.398391
-0.0102347
0.398381
-0.0111691
0.398427
-0.012092
0.398538
-0.012993
0.398725
-0.0138688
0.398998
-0.0147121
0.399368
-0.0155183
0.399841
-0.0162795
0.400429
-0.0169914
0.401137
-0.0176429
0.401971
-0.018227
0.402933
-0.0187327
0.404024
-0.0191506
0.405239
-0.0194734
0.406571
-0.0196904
0.40801
-0.0198002
0.409542
-0.0197933
0.411151
-0.019675
0.412818
-0.0194397
0.414524
-0.0190986
0.416247
-0.0186515
0.417967
-0.0181141
0.419663
-0.0174921
0.421319
-0.0168029
0.422917
-0.0160572
-0.0152693
0.424444
0.386033
-0.000343637
0.386007
-0.00107571
0.385945
-0.00169199
0.385847
-0.0021179
0.385722
-0.00251514
0.385577
-0.0029922
0.385391
-0.0034475
0.385217
-0.00409033
0.385007
-0.00472565
0.384819
-0.00553051
0.384613
-0.00634501
0.384427
-0.00725467
0.384247
-0.00817814
0.384095
-0.00913873
0.383971
-0.0101108
0.383885
-0.0110838
0.38385
-0.0120564
0.383873
-0.0130162
0.383968
-0.0139637
0.384146
-0.0148907
0.384422
-0.0157938
0.384805
-0.0166626
0.385307
-0.0174934
0.385938
-0.0182742
0.386708
-0.0189968
0.387622
-0.0196471
0.388685
-0.0202132
0.389895
-0.0206833
0.391248
-0.0210433
0.392735
-0.0212871
0.394343
-0.0214014
0.396055
-0.0213874
0.397851
-0.021236
0.399709
-0.0209563
0.401603
-0.0205457
0.403509
-0.02002
0.405401
-0.0193841
0.407256
-0.0186581
0.409053
-0.0178536
-0.0169899
0.410773
0.372516
-0.000242488
0.372527
-0.00108692
0.372434
-0.00159907
0.372341
-0.00202525
0.372192
-0.00236609
0.372039
-0.00283838
0.371827
-0.00323595
0.371643
-0.0039061
0.371393
-0.00447558
0.371187
-0.00532444
0.370926
-0.00608467
0.370708
-0.00703636
0.370466
-0.00793601
0.370261
-0.00893349
0.370064
-0.00991424
0.369906
-0.0109258
0.369786
-0.011936
0.369719
-0.0129495
0.369717
-0.0139615
0.369793
-0.0149672
0.369963
-0.0159635
0.370242
-0.0169413
0.370643
-0.0178947
0.37118
-0.0188112
0.371866
-0.0196826
0.372712
-0.0204927
0.373725
-0.0212265
0.37491
-0.0218681
0.376266
-0.0223993
0.377787
-0.0228082
0.379462
-0.0230767
0.381275
-0.0232004
0.383205
-0.0231655
0.385225
-0.0229771
0.387309
-0.022629
0.389425
-0.0221358
0.391541
-0.0215007
0.393629
-0.020746
0.39566
-0.0198842
-0.0189401
0.39761
0.359464
-0.000101413
0.359529
-0.0011527
0.359385
-0.00145511
0.359318
-0.00195782
0.359129
-0.00217686
0.358984
-0.0026941
0.358739
-0.00299021
0.358556
-0.0037236
0.358258
-0.00417785
0.358049
-0.00511503
0.357725
-0.00576042
0.357492
-0.00680387
0.357175
-0.00761924
0.356935
-0.00869291
0.356656
-0.00963493
0.356436
-0.0107064
0.356224
-0.0117237
0.356071
-0.0127968
0.355965
-0.0138551
0.355936
-0.0149381
0.355989
-0.0160174
0.356151
-0.0171027
0.356434
-0.018178
0.356859
-0.0192357
0.357439
-0.0202634
0.358193
-0.021246
0.359132
-0.0221655
0.360267
-0.023003
0.361602
-0.0237351
0.363138
-0.0243436
0.364866
-0.0248047
0.366772
-0.0251064
0.368835
-0.0252287
0.371028
-0.0251702
0.373319
-0.0249195
0.375671
-0.0244879
0.378046
-0.0238758
0.380406
-0.0231062
0.382714
-0.0221924
-0.0211651
0.384939
0.346865
7.97245e-05
0.346994
-0.00128158
0.346784
-0.00124459
0.346761
-0.00193488
0.346515
-0.00193123
0.346402
-0.00258096
0.346107
-0.00269525
0.345945
-0.00356102
0.345586
-0.00381929
0.345394
-0.00492281
0.34499
-0.00535619
0.34477
-0.00658422
0.344357
-0.00720624
0.344112
-0.00844774
0.343726
-0.00924945
0.343473
-0.0104528
0.343148
-0.0113991
0.342927
-0.0125757
0.3427
-0.0136285
0.342572
-0.0148097
0.342495
-0.0159403
0.342534
-0.0171422
0.342678
-0.0183216
0.342973
-0.0195305
0.343424
-0.0207143
0.34406
-0.0218825
0.344896
-0.0230015
0.345952
-0.024059
0.347238
-0.0250207
0.348761
-0.0258665
0.35052
-0.0265633
0.352504
-0.0270906
0.354695
-0.0274203
0.357066
-0.027541
0.359581
-0.0274342
0.362197
-0.0271044
0.364869
-0.0265474
0.367548
-0.025785
0.370186
-0.0248307
-0.0237205
0.372741
0.334715
0.000292254
0.3349
-0.0014669
0.334621
-0.000966122
0.334651
-0.00196444
0.334342
-0.00162205
0.334275
-0.00251421
0.333918
-0.0023377
0.333793
-0.00343604
0.33336
-0.0033865
0.333206
-0.00476939
0.332705
-0.00485451
0.332528
-0.00640774
0.331992
-0.0066698
0.331783
-0.00823914
0.331255
-0.00872169
0.331015
-0.0102127
0.330538
-0.0109223
0.330292
-0.0123296
0.329908
-0.0132441
0.32971
-0.0146113
0.329469
-0.0156999
0.329399
-0.0170723
0.329373
-0.018295
0.329532
-0.0196901
0.329815
-0.0209969
0.330315
-0.0223824
0.33101
-0.023697
0.331956
-0.0250052
0.333154
-0.0262179
0.334631
-0.0273439
0.336388
-0.0283204
0.338427
-0.0291291
0.340733
-0.0297264
0.34328
-0.0300883
0.346033
-0.0301867
0.348942
-0.0300142
0.351953
-0.0295584
0.355006
-0.0288373
0.358037
-0.027862
-0.0266749
0.360991
0.323003
0.000519786
0.323223
-0.00168676
0.322893
-0.000636201
0.322966
-0.00203739
0.322601
-0.00125673
0.32258
-0.00249338
0.32216
-0.00191803
0.322078
-0.00335373
0.32157
-0.00287809
0.321465
-0.0046649
0.32086
-0.00424932
0.320746
-0.00629374
0.320068
-0.00599209
0.319932
-0.00810238
0.319227
-0.00801731
0.319053
-0.0100387
0.318374
-0.0102433
0.318168
-0.0121235
0.317565
-0.0126413
0.317363
-0.0144086
0.316894
-0.0152309
0.316764
-0.016943
0.316505
-0.0180353
0.316555
-0.0197406
0.316606
-0.0210474
0.31697
-0.0227465
0.317459
-0.0241862
0.318275
-0.0258219
0.319326
-0.0272685
0.320725
-0.028743
0.322433
-0.030028
0.324494
-0.0311908
0.326888
-0.0321203
0.329601
-0.0328009
0.332599
-0.0331848
0.335828
-0.0332436
0.339226
-0.0329561
0.342716
-0.0323278
0.346218
-0.0313633
-0.0301137
0.349656
0.311721
0.000741602
0.311945
-0.00191001
0.311591
-0.000283006
0.311684
-0.00212964
0.311285
-0.000857847
0.311291
-0.00249981
0.310828
-0.0014547
0.310774
-0.00330033
0.310209
-0.00231287
0.310142
-0.00459718
0.309452
-0.00355935
0.309392
-0.0062338
0.308585
-0.00518562
0.308524
-0.00804151
0.30764
-0.00713302
0.307557
-0.00995581
0.306649
-0.00933492
0.306532
-0.012007
0.305658
-0.0117667
0.305522
-0.0142732
0.304748
-0.0144566
0.304646
-0.0168405
0.304055
-0.0174446
0.304079
-0.0197643
0.303784
-0.0207532
0.304069
-0.0230309
0.304224
-0.0243413
0.304935
-0.0265335
0.30572
-0.0280534
0.307035
-0.0300581
0.3086
-0.0315926
0.310663
-0.0332543
0.313091
-0.0345475
0.315952
-0.0356618
0.319191
-0.0364239
0.322759
-0.0368115
0.326594
-0.0367915
0.330597
-0.0363305
0.334664
-0.0354301
-0.0341474
0.338697
0.300854
0.000937627
0.301047
-0.00210352
0.300702
6.16966e-05
0.300783
-0.0022106
0.300381
-0.000455584
0.300386
-0.00250462
0.299909
-0.000977648
0.299857
-0.00324864
0.29927
-0.00172543
0.299207
-0.00453425
0.298475
-0.00282806
0.29843
-0.00618855
0.297546
-0.00430108
0.29752
-0.00801568
0.296504
-0.00611716
0.296481
-0.00993261
0.295376
-0.00823031
0.295338
-0.011969
0.294198
-0.0106263
0.294148
-0.0142232
0.293037
-0.0133458
0.293012
-0.0168154
0.292017
-0.0164494
0.292097
-0.0198444
0.291337
-0.0199938
0.291652
-0.0233455
0.291296
-0.0239855
0.29202
-0.0272575
0.292298
-0.0283313
0.29362
-0.0313799
0.29481
-0.0327825
0.296922
-0.0353664
0.299231
-0.0368568
0.302261
-0.0386913
0.305697
-0.0398602
0.309621
-0.0407351
0.313947
-0.0411181
0.318538
-0.0409209
0.323295
-0.0401878
-0.0389246
0.328072
0.290381
0.00109308
0.290517
-0.00223992
0.290208
0.000370621
0.290252
-0.0022537
0.289873
-7.68058e-05
0.28985
-0.00248146
0.289388
-0.000515737
0.28931
-0.00317093
0.288738
-0.00115322
0.288641
-0.00443785
0.287923
-0.00210985
0.287836
-0.00610176
0.286949
-0.0034141
0.286884
-0.0079506
0.285829
-0.00506177
0.28578
-0.0098841
0.284577
-0.00702734
0.284533
-0.0119244
0.283218
-0.0093113
0.28318
-0.014185
0.281801
-0.0119676
0.281803
-0.016817
0.280433
-0.0150792
0.280552
-0.019964
0.279297
-0.0187384
0.279669
-0.0237174
0.278694
-0.0230103
0.279514
-0.0280775
0.279063
-0.0278809
0.280568
-0.0328841
0.280998
-0.0332127
0.283382
-0.0377504
0.285136
-0.0386108
0.288528
-0.0420836
0.291923
-0.0432547
0.296321
-0.0451329
0.301157
-0.0459545
0.306409
-0.0461732
0.312042
-0.0458209
-0.0446216
0.317739
0.280284
0.00119998
0.280345
-0.00230138
0.280091
0.000624909
0.28008
-0.00224282
0.279743
0.000260207
0.279676
-0.00241489
0.279248
-8.71851e-05
0.279128
-0.00305087
0.278597
-0.000622706
0.278439
-0.00427995
0.277781
-0.00145144
0.277601
-0.00592212
0.276788
-0.00260133
0.276603
-0.00776525
0.275616
-0.00407525
0.275433
-0.00970085
0.274267
-0.00586124
0.274085
-0.011742
0.272749
-0.00797573
0.272576
-0.014012
0.271094
-0.0104856
0.270967
-0.0166894
0.269381
-0.0134938
0.269382
-0.0199651
0.267766
-0.0171224
0.268047
-0.0239985
0.266528
-0.0214906
0.26733
-0.0288799
0.266125
-0.026676
0.267777
-0.0345363
0.267227
-0.0326621
0.270062
-0.0405852
0.270702
-0.0392516
0.274882
-0.0462634
0.277494
-0.0458661
0.282914
-0.0505534
0.287963
-0.0510032
0.294121
-0.0523314
0.300876
-0.0525756
-0.0513713
0.307625
0.270542
0.00125633
0.270521
-0.00228014
0.270333
0.000812559
0.270264
-0.00217305
0.269978
0.000546292
0.269862
-0.00229904
0.269477
0.000297538
0.269309
-0.0028826
0.268833
-0.000147148
0.268602
-0.00404905
0.268031
-0.00088058
0.267729
-0.00561991
0.267048
-0.00191969
0.26668
-0.00739804
0.26586
-0.00325494
0.26544
-0.0092812
0.264452
-0.00487296
0.263991
-0.0112812
0.262815
-0.00679963
0.262333
-0.0135295
0.26096
-0.00911257
0.260496
-0.016226
0.258937
-0.011934
0.258575
-0.0196032
0.256866
-0.0154135
0.256761
-0.0238938
0.25498
-0.0197095
0.255406
-0.0293058
0.253712
-0.0249819
0.25513
-0.0359546
0.253768
-0.0313003
0.256776
-0.0435934
0.256167
-0.0386418
0.261248
-0.0513448
0.262267
-0.046885
0.269491
-0.0577775
0.273588
-0.0551005
0.281897
-0.0606397
0.289646
-0.0603255
-0.0593146
0.29759
0.261141
0.00126448
0.261044
-0.00218382
0.260925
0.000932435
0.260798
-0.00204663
0.260565
0.0007794
0.260403
-0.00213682
0.260062
0.000638865
0.259852
-0.00267277
0.259426
0.000278091
0.259136
-0.00375892
0.258642
-0.000386209
0.258239
-0.00521645
0.257678
-0.00135902
0.257146
-0.00686588
0.256502
-0.00261094
0.255838
-0.00861721
0.255082
-0.0041176
0.254289
-0.0104875
0.253393
-0.00590419
0.252481
-0.0126171
0.25142
-0.00805143
0.250416
-0.0152226
0.249173
-0.0106905
0.248142
-0.0185728
0.246711
-0.013982
0.245808
-0.0229909
0.244218
-0.0181197
0.243752
-0.02884
0.242071
-0.0233008
0.242578
-0.0364609
0.240978
-0.0297012
0.243314
-0.045929
0.242008
-0.0373362
0.247273
-0.0566091
0.246796
-0.0464083
0.255754
-0.0667358
0.257658
-0.0570043
0.269882
-0.0728636
0.276989
-0.0674327
-0.0702834
0.287958
0.252067
0.00122676
0.251912
-0.00202891
0.251852
0.000992718
0.251676
-0.00187118
0.251493
0.000962903
0.251289
-0.00193334
0.250993
0.000935578
0.250745
-0.0024248
0.250368
0.000655069
0.25003
-0.00342149
0.249597
4.65264e-05
0.249127
-0.00474582
0.248647
-0.000879608
0.248017
-0.00623595
0.247478
-0.00207146
0.246674
-0.00781333
0.246049
-0.00349258
0.245061