/*--------------------------------*- C++ -*----------------------------------*\
| =========                 |                                                 |
| \\      /  F ield         | OpenFOAM: The Open Source CFD Toolbox           |
|  \\    /   O peration     | Version:  2512                                  |
|   \\  /    A nd           | Website:  www.openfoam.com                      |
|    \\/     M anipulation  |                                                 |
\*---------------------------------------------------------------------------*/
FoamFile
{
    version     2.0;
    format      ascii;
    arch        "LSB;label=32;scalar=64";
    class       volVectorField;
    location    "40";
    object      U;
}
// * * * * * * * * * * * * * * * * * * * * * * * * * * * * * * * * * * * * * //

dimensions      [0 1 -1 0 0 0 0];

internalField   nonuniform List<vector> 
9800
(
(1 -2.81435e-05 0)
(1.00011 -7.97892e-05 0)
(1.00031 -0.000127393 0)
(1.00059 -0.000172555 0)
(1.00093 -0.000216558 0)
(1.00134 -0.000260408 0)
(1.0018 -0.00030485 0)
(1.00232 -0.000350348 0)
(1.00289 -0.000397029 0)
(1.00351 -0.000444662 0)
(1.00417 -0.00049272 0)
(1.00488 -0.000540476 0)
(1.00563 -0.000587113 0)
(1.00641 -0.00063182 0)
(1.00721 -0.000673883 0)
(1.00804 -0.00071273 0)
(1.00888 -0.000747957 0)
(1.00973 -0.000779307 0)
(1.01058 -0.000806663 0)
(1.01143 -0.000830026 0)
(1.01227 -0.000849485 0)
(1.0131 -0.000865187 0)
(1.01392 -0.000877316 0)
(1.01471 -0.000886089 0)
(1.01549 -0.000891741 0)
(1.01624 -0.000894517 0)
(1.01697 -0.000894665 0)
(1.01767 -0.000892433 0)
(1.01834 -0.000888059 0)
(1.01899 -0.000881787 0)
(1.01961 -0.000873843 0)
(1.0202 -0.00086445 0)
(1.02076 -0.000853807 0)
(1.0213 -0.000842108 0)
(1.02181 -0.000829523 0)
(1.0223 -0.000816215 0)
(1.02276 -0.000802324 0)
(1.0232 -0.000787982 0)
(1.02361 -0.0007733 0)
(1.024 -0.000758382 0)
(1 -8.33444e-05 0)
(1.00011 -0.000236239 0)
(1.00031 -0.000377114 0)
(1.00059 -0.000510751 0)
(1.00093 -0.000641004 0)
(1.00133 -0.000770893 0)
(1.0018 -0.000902645 0)
(1.00231 -0.00103765 0)
(1.00288 -0.00117631 0)
(1.0035 -0.00131794 0)
(1.00416 -0.00146099 0)
(1.00487 -0.00160329 0)
(1.00562 -0.00174239 0)
(1.0064 -0.00187585 0)
(1.00721 -0.00200153 0)
(1.00804 -0.00211773 0)
(1.00889 -0.00222321 0)
(1.00974 -0.00231723 0)
(1.0106 -0.00239942 0)
(1.01146 -0.00246977 0)
(1.01231 -0.00252851 0)
(1.01315 -0.00257605 0)
(1.01398 -0.00261293 0)
(1.01478 -0.00263976 0)
(1.01557 -0.00265723 0)
(1.01633 -0.00266606 0)
(1.01707 -0.002667 0)
(1.01778 -0.00266078 0)
(1.01847 -0.00264812 0)
(1.01912 -0.00262977 0)
(1.01975 -0.00260639 0)
(1.02035 -0.00257865 0)
(1.02093 -0.00254716 0)
(1.02148 -0.00251248 0)
(1.022 -0.00247512 0)
(1.02249 -0.00243557 0)
(1.02296 -0.00239423 0)
(1.02341 -0.0023515 0)
(1.02383 -0.00230771 0)
(1.02423 -0.00226316 0)
(1 -0.000136291 0)
(1.00011 -0.000386094 0)
(1.00031 -0.000616123 0)
(1.00058 -0.000834349 0)
(1.00092 -0.0010472 0)
(1.00132 -0.00125977 0)
(1.00178 -0.00147577 0)
(1.00229 -0.00169753 0)
(1.00285 -0.00192573 0)
(1.00347 -0.0021593 0)
(1.00413 -0.00239565 0)
(1.00484 -0.00263117 0)
(1.00559 -0.00286177 0)
(1.00638 -0.00308341 0)
(1.0072 -0.00329252 0)
(1.00804 -0.00348623 0)
(1.00889 -0.0036625 0)
(1.00976 -0.00382002 0)
(1.01064 -0.00395816 0)
(1.01151 -0.00407681 0)
(1.01238 -0.0041763 0)
(1.01324 -0.00425723 0)
(1.01408 -0.00432045 0)
(1.01491 -0.00436695 0)
(1.01572 -0.00439783 0)
(1.0165 -0.00441427 0)
(1.01726 -0.00441747 0)
(1.01799 -0.00440866 0)
(1.0187 -0.00438904 0)
(1.01938 -0.00435982 0)
(1.02003 -0.00432211 0)
(1.02065 -0.00427702 0)
(1.02125 -0.00422554 0)
(1.02181 -0.00416863 0)
(1.02235 -0.00410713 0)
(1.02287 -0.00404184 0)
(1.02335 -0.00397344 0)
(1.02381 -0.00390259 0)
(1.02425 -0.00382984 0)
(1.02467 -0.00375572 0)
(1 -0.000186819 0)
(1.00011 -0.000528775 0)
(1.0003 -0.000843417 0)
(1.00057 -0.00114197 0)
(1.00091 -0.00143353 0)
(1.0013 -0.00172531 0)
(1.00175 -0.0020226 0)
(1.00226 -0.00232869 0)
(1.00282 -0.00264456 0)
(1.00343 -0.00296873 0)
(1.00409 -0.00329759 0)
(1.0048 -0.00362606 0)
(1.00555 -0.00394843 0)
(1.00635 -0.00425903 0)
(1.00717 -0.00455286 0)
(1.00802 -0.00482584 0)
(1.0089 -0.00507505 0)
(1.00978 -0.00529855 0)
(1.01068 -0.00549534 0)
(1.01158 -0.00566516 0)
(1.01247 -0.00580833 0)
(1.01335 -0.00592562 0)
(1.01423 -0.00601812 0)
(1.01508 -0.00608717 0)
(1.01592 -0.00613422 0)
(1.01674 -0.00616088 0)
(1.01753 -0.00616877 0)
(1.01829 -0.0061596 0)
(1.01903 -0.00613502 0)
(1.01974 -0.00609668 0)
(1.02042 -0.00604613 0)
(1.02107 -0.00598491 0)
(1.0217 -0.00591439 0)
(1.02229 -0.00583594 0)
(1.02286 -0.00575072 0)
(1.0234 -0.0056599 0)
(1.02391 -0.00556443 0)
(1.0244 -0.00546526 0)
(1.02485 -0.00536319 0)
(1.02529 -0.00525897 0)
(1 -0.000234778 0)
(1.00011 -0.00066379 0)
(1.0003 -0.00105815 0)
(1.00056 -0.00143241 0)
(1.00089 -0.00179856 0)
(1.00127 -0.0021659 0)
(1.00172 -0.00254149 0)
(1.00221 -0.00292965 0)
(1.00276 -0.00333163 0)
(1.00337 -0.00374553 0)
(1.00403 -0.00416671 0)
(1.00474 -0.00458866 0)
(1.00549 -0.00500401 0)
(1.00629 -0.00540546 0)
(1.00713 -0.00578648 0)
(1.008 -0.00614176 0)
(1.00889 -0.0064674 0)
(1.00979 -0.00676075 0)
(1.01071 -0.00702033 0)
(1.01164 -0.00724561 0)
(1.01256 -0.00743683 0)
(1.01348 -0.00759484 0)
(1.01439 -0.00772092 0)
(1.01529 -0.00781665 0)
(1.01616 -0.00788381 0)
(1.01702 -0.00792435 0)
(1.01785 -0.00794032 0)
(1.01866 -0.00793384 0)
(1.01943 -0.00790698 0)
(1.02019 -0.00786184 0)
(1.02091 -0.00780037 0)
(1.0216 -0.00772456 0)
(1.02226 -0.00763616 0)
(1.02289 -0.00753695 0)
(1.0235 -0.00742848 0)
(1.02407 -0.00731225 0)
(1.02462 -0.00718955 0)
(1.02513 -0.00706163 0)
(1.02562 -0.00692955 0)
(1.02609 -0.00679433 0)
(1 -0.00028002 0)
(1.00011 -0.00079063 0)
(1.00029 -0.00125946 0)
(1.00055 -0.00170452 0)
(1.00086 -0.00214078 0)
(1.00124 -0.00257986 0)
(1.00167 -0.00303065 0)
(1.00215 -0.0034986 0)
(1.00269 -0.00398525 0)
(1.00329 -0.00448825 0)
(1.00394 -0.00500198 0)
(1.00465 -0.0055185 0)
(1.00541 -0.00602878 0)
(1.00621 -0.00652377 0)
(1.00706 -0.00699542 0)
(1.00794 -0.00743709 0)
(1.00885 -0.00784384 0)
(1.00978 -0.00821215 0)
(1.01073 -0.00853995 0)
(1.01169 -0.00882631 0)
(1.01265 -0.00907134 0)
(1.01361 -0.00927583 0)
(1.01456 -0.00944112 0)
(1.0155 -0.00956895 0)
(1.01643 -0.00966132 0)
(1.01733 -0.00972053 0)
(1.01821 -0.00974894 0)
(1.01907 -0.00974909 0)
(1.0199 -0.00972342 0)
(1.0207 -0.00967445 0)
(1.02147 -0.00960454 0)
(1.02222 -0.00951612 0)
(1.02293 -0.00941135 0)
(1.0236 -0.00929245 0)
(1.02425 -0.00916133 0)
(1.02487 -0.0090199 0)
(1.02546 -0.00886977 0)
(1.02601 -0.00871256 0)
(1.02654 -0.00854959 0)
(1.02704 -0.0083822 0)
(1 -0.000322381 0)
(1.0001 -0.000908794 0)
(1.00028 -0.00144649 0)
(1.00053 -0.00195709 0)
(1.00083 -0.00245866 0)
(1.00119 -0.00296544 0)
(1.0016 -0.00348812 0)
(1.00207 -0.00403343 0)
(1.0026 -0.00460324 0)
(1.00318 -0.0051948 0)
(1.00383 -0.00580152 0)
(1.00453 -0.00641405 0)
(1.00529 -0.00702165 0)
(1.0061 -0.00761351 0)
(1.00695 -0.00818 0)
(1.00785 -0.00871307 0)
(1.00878 -0.00920657 0)
(1.00974 -0.00965601 0)
(1.01072 -0.0100586 0)
(1.01171 -0.0104129 0)
(1.01272 -0.0107188 0)
(1.01372 -0.0109769 0)
(1.01472 -0.0111884 0)
(1.01572 -0.0113551 0)
(1.01669 -0.0114791 0)
(1.01766 -0.011563 0)
(1.0186 -0.0116094 0)
(1.01952 -0.0116212 0)
(1.02041 -0.0116011 0)
(1.02127 -0.011552 0)
(1.0221 -0.0114769 0)
(1.0229 -0.0113784 0)
(1.02367 -0.0112592 0)
(1.02441 -0.0111221 0)
(1.02511 -0.0109691 0)
(1.02578 -0.0108028 0)
(1.02642 -0.0106251 0)
(1.02703 -0.010438 0)
(1.0276 -0.0102431 0)
(1.02814 -0.0100422 0)
(1 -0.000361682 0)
(1.0001 -0.00101779 0)
(1.00027 -0.00161839 0)
(1.0005 -0.00218895 0)
(1.00079 -0.00275072 0)
(1.00113 -0.00332077 0)
(1.00153 -0.00391172 0)
(1.00198 -0.00453171 0)
(1.00248 -0.00518301 0)
(1.00305 -0.00586251 0)
(1.00368 -0.00656269 0)
(1.00437 -0.00727275 0)
(1.00513 -0.00798027 0)
(1.00594 -0.0086727 0)
(1.0068 -0.0093388 0)
(1.00771 -0.00996898 0)
(1.00866 -0.0105557 0)
(1.00965 -0.0110934 0)
(1.01066 -0.0115785 0)
(1.0117 -0.0120089 0)
(1.01274 -0.012384 0)
(1.0138 -0.0127041 0)
(1.01485 -0.0129701 0)
(1.01591 -0.0131838 0)
(1.01695 -0.0133473 0)
(1.01798 -0.0134632 0)
(1.01899 -0.0135345 0)
(1.01997 -0.0135641 0)
(1.02093 -0.0135551 0)
(1.02187 -0.0135108 0)
(1.02277 -0.0134345 0)
(1.02364 -0.0133293 0)
(1.02448 -0.0131984 0)
(1.02528 -0.0130448 0)
(1.02605 -0.0128713 0)
(1.02679 -0.0126807 0)
(1.02749 -0.0124753 0)
(1.02815 -0.0122578 0)
(1.02878 -0.0120299 0)
(1.02938 -0.0117939 0)
(1 -0.000397761 0)
(1.00009 -0.00111713 0)
(1.00025 -0.00177436 0)
(1.00047 -0.00239895 0)
(1.00074 -0.0030155 0)
(1.00106 -0.00364399 0)
(1.00143 -0.00429935 0)
(1.00186 -0.00499091 0)
(1.00234 -0.0057216 0)
(1.00289 -0.00648816 0)
(1.0035 -0.00728213 0)
(1.00418 -0.00809119 0)
(1.00492 -0.00890124 0)
(1.00573 -0.00969806 0)
(1.0066 -0.0104688 0)
(1.00752 -0.0112023 0)
(1.00849 -0.0118895 0)
(1.0095 -0.0125234 0)
(1.01055 -0.0130997 0)
(1.01162 -0.0136154 0)
(1.01271 -0.0140694 0)
(1.01382 -0.0144612 0)
(1.01494 -0.0147916 0)
(1.01606 -0.0150619 0)
(1.01717 -0.0152741 0)
(1.01827 -0.015431 0)
(1.01936 -0.0155354 0)
(1.02042 -0.0155904 0)
(1.02147 -0.0155994 0)
(1.02248 -0.0155659 0)
(1.02347 -0.0154935 0)
(1.02442 -0.015386 0)
(1.02534 -0.0152467 0)
(1.02622 -0.0150793 0)
(1.02707 -0.014887 0)
(1.02788 -0.0146731 0)
(1.02865 -0.0144404 0)
(1.02938 -0.0141919 0)
(1.03008 -0.0139301 0)
(1.03074 -0.0136574 0)
(1 -0.000430483 0)
(1.00009 -0.00120631 0)
(1.00024 -0.00191369 0)
(1.00044 -0.00258606 0)
(1.00069 -0.0032516 0)
(1.00098 -0.00393342 0)
(1.00132 -0.00464886 0)
(1.00172 -0.00540842 0)
(1.00217 -0.00621589 0)
(1.00269 -0.00706819 0)
(1.00328 -0.00795594 0)
(1.00394 -0.00886513 0)
(1.00467 -0.0097801 0)
(1.00547 -0.0106851 0)
(1.00634 -0.0115657 0)
(1.00726 -0.0124089 0)
(1.00825 -0.0132041 0)
(1.00928 -0.0139429 0)
(1.01036 -0.0146199 0)
(1.01147 -0.0152314 0)
(1.01261 -0.0157751 0)
(1.01378 -0.01625 0)
(1.01496 -0.016656 0)
(1.01615 -0.0169941 0)
(1.01733 -0.0172662 0)
(1.01852 -0.0174746 0)
(1.01969 -0.017622 0)
(1.02084 -0.0177117 0)
(1.02198 -0.0177469 0)
(1.02309 -0.0177317 0)
(1.02417 -0.0176697 0)
(1.02521 -0.0175653 0)
(1.02623 -0.017422 0)
(1.0272 -0.0172443 0)
(1.02814 -0.0170356 0)
(1.02903 -0.0167999 0)
(1.02989 -0.0165404 0)
(1.03071 -0.0162608 0)
(1.03148 -0.0159639 0)
(1.03222 -0.0156528 0)
(1 -0.000459697 0)
(1.00008 -0.00128497 0)
(1.00022 -0.00203575 0)
(1.0004 -0.00274937 0)
(1.00062 -0.00345775 0)
(1.00089 -0.00418758 0)
(1.0012 -0.00495819 0)
(1.00156 -0.00578164 0)
(1.00198 -0.00666273 0)
(1.00246 -0.00759889 0)
(1.00302 -0.00857977 0)
(1.00365 -0.00958965 0)
(1.00436 -0.0106115 0)
(1.00515 -0.0116283 0)
(1.006 -0.0126239 0)
(1.00693 -0.0135832 0)
(1.00792 -0.0144941 0)
(1.00898 -0.015347 0)
(1.01008 -0.0161352 0)
(1.01123 -0.0168538 0)
(1.01242 -0.0174994 0)
(1.01365 -0.0180699 0)
(1.01489 -0.0185644 0)
(1.01615 -0.0189834 0)
(1.01742 -0.019328 0)
(1.01869 -0.0196004 0)
(1.01996 -0.0198026 0)
(1.02122 -0.0199381 0)
(1.02245 -0.0200097 0)
(1.02367 -0.0200219 0)
(1.02485 -0.0199783 0)
(1.02601 -0.0198838 0)
(1.02712 -0.0197422 0)
(1.0282 -0.0195586 0)
(1.02924 -0.0193366 0)
(1.03024 -0.0190812 0)
(1.0312 -0.018796 0)
(1.03211 -0.0184852 0)
(1.03297 -0.0181525 0)
(1.0338 -0.0178013 0)
(1 -0.00048526 0)
(1.00007 -0.00135284 0)
(1.00019 -0.00214006 0)
(1.00035 -0.00288809 0)
(1.00055 -0.003633 0)
(1.00078 -0.00440518 0)
(1.00105 -0.00522554 0)
(1.00137 -0.00610803 0)
(1.00175 -0.00705922 0)
(1.0022 -0.00807666 0)
(1.00272 -0.00914902 0)
(1.00332 -0.0102593 0)
(1.004 -0.0113895 0)
(1.00476 -0.0125212 0)
(1.0056 -0.0136364 0)
(1.00652 -0.0147181 0)
(1.00751 -0.0157525 0)
(1.00858 -0.0167289 0)
(1.00971 -0.0176393 0)
(1.01089 -0.0184773 0)
(1.01213 -0.019238 0)
(1.01341 -0.019918 0)
(1.01472 -0.0205155 0)
(1.01606 -0.0210303 0)
(1.01741 -0.0214624 0)
(1.01878 -0.0218134 0)
(1.02015 -0.0220844 0)
(1.02151 -0.0222788 0)
(1.02286 -0.022399 0)
(1.02419 -0.0224497 0)
(1.0255 -0.0224344 0)
(1.02677 -0.0223583 0)
(1.02801 -0.0222254 0)
(1.02922 -0.0220414 0)
(1.03037 -0.0218104 0)
(1.03149 -0.021538 0)
(1.03256 -0.0212286 0)
(1.03358 -0.0208871 0)
(1.03455 -0.0205177 0)
(1.03547 -0.0201247 0)
(1 -0.000507077 0)
(1.00006 -0.00140972 0)
(1.00017 -0.00222625 0)
(1.0003 -0.00300159 0)
(1.00046 -0.0037768 0)
(1.00066 -0.00458524 0)
(1.00089 -0.00544923 0)
(1.00117 -0.00638543 0)
(1.0015 -0.00740272 0)
(1.0019 -0.00849805 0)
(1.00237 -0.00965904 0)
(1.00293 -0.0108683 0)
(1.00357 -0.0121076 0)
(1.0043 -0.0133567 0)
(1.00511 -0.0145955 0)
(1.00602 -0.0158051 0)
(1.00701 -0.0169707 0)
(1.00807 -0.0180802 0)
(1.00922 -0.0191243 0)
(1.01043 -0.0200945 0)
(1.01171 -0.0209844 0)
(1.01304 -0.0217893 0)
(1.01442 -0.0225062 0)
(1.01584 -0.0231336 0)
(1.01728 -0.0236702 0)
(1.01875 -0.0241166 0)
(1.02023 -0.0244728 0)
(1.02171 -0.0247418 0)
(1.02318 -0.0249253 0)
(1.02465 -0.025028 0)
(1.02609 -0.0250528 0)
(1.0275 -0.0250056 0)
(1.02887 -0.0248901 0)
(1.03021 -0.0247127 0)
(1.03151 -0.0244781 0)
(1.03276 -0.0241925 0)
(1.03395 -0.023861 0)
(1.0351 -0.0234894 0)
(1.03619 -0.0230828 0)
(1.03723 -0.0226461 0)
(1 -0.00052506 0)
(1.00005 -0.00145562 0)
(1.00014 -0.00229398 0)
(1.00025 -0.00308962 0)
(1.00037 -0.003889 0)
(1.00053 -0.00472706 0)
(1.00071 -0.00562779 0)
(1.00094 -0.00661224 0)
(1.00122 -0.00769094 0)
(1.00156 -0.00885965 0)
(1.00198 -0.0101052 0)
(1.00249 -0.0114112 0)
(1.00308 -0.0127593 0)
(1.00376 -0.0141272 0)
(1.00454 -0.0154926 0)
(1.00542 -0.0168349 0)
(1.00639 -0.0181388 0)
(1.00746 -0.0193909 0)
(1.0086 -0.02058 0)
(1.00984 -0.0216956 0)
(1.01115 -0.0227298 0)
(1.01253 -0.0236762 0)
(1.01397 -0.0245304 0)
(1.01547 -0.0252894 0)
(1.017 -0.0259498 0)
(1.01858 -0.0265111 0)
(1.02017 -0.0269716 0)
(1.02178 -0.0273338 0)
(1.02339 -0.027598 0)
(1.025 -0.0277689 0)
(1.02659 -0.0278484 0)
(1.02815 -0.0278428 0)
(1.02968 -0.0277554 0)
(1.03118 -0.0275936 0)
(1.03263 -0.0273621 0)
(1.03403 -0.0270682 0)
(1.03538 -0.0267175 0)
(1.03667 -0.0263169 0)
(1.0379 -0.0258726 0)
(1.03907 -0.02539 0)
(1 -0.000539205 0)
(1.00004 -0.00149059 0)
(1.00011 -0.00234292 0)
(1.00019 -0.00315236 0)
(1.00027 -0.00396986 0)
(1.00038 -0.00483 0)
(1.00052 -0.00576033 0)
(1.00069 -0.00678746 0)
(1.00091 -0.00792207 0)
(1.00119 -0.00915812 0)
(1.00155 -0.0104834 0)
(1.002 -0.0118828 0)
(1.00253 -0.0133382 0)
(1.00316 -0.0148247 0)
(1.00389 -0.0163181 0)
(1.00473 -0.0177972 0)
(1.00567 -0.0192459 0)
(1.00671 -0.0206493 0)
(1.00786 -0.0219945 0)
(1.0091 -0.0232688 0)
(1.01043 -0.0244629 0)
(1.01186 -0.0255688 0)
(1.01336 -0.02658 0)
(1.01493 -0.0274913 0)
(1.01656 -0.0282973 0)
(1.01824 -0.0289956 0)
(1.01995 -0.0295826 0)
(1.0217 -0.0300598 0)
(1.02346 -0.0304255 0)
(1.02522 -0.030684 0)
(1.02698 -0.0308358 0)
(1.02871 -0.0308874 0)
(1.03042 -0.0308416 0)
(1.03209 -0.0307064 0)
(1.03372 -0.0304866 0)
(1.03529 -0.0301905 0)
(1.03681 -0.0298246 0)
(1.03827 -0.0293965 0)
(1.03966 -0.028914 0)
(1.04099 -0.0283833 0)
(1 -0.00054964 0)
(1.00003 -0.00151455 0)
(1.00008 -0.00237285 0)
(1.00012 -0.00319068 0)
(1.00017 -0.00401984 0)
(1.00023 -0.00489358 0)
(1.00032 -0.00584676 0)
(1.00042 -0.00691083 0)
(1.00058 -0.00809444 0)
(1.00079 -0.00939065 0)
(1.00109 -0.0107901 0)
(1.00146 -0.0122791 0)
(1.00192 -0.0138383 0)
(1.00248 -0.015441 0)
(1.00315 -0.0170623 0)
(1.00393 -0.0186808 0)
(1.00483 -0.0202799 0)
(1.00584 -0.0218424 0)
(1.00696 -0.0233539 0)
(1.0082 -0.0248001 0)
(1.00955 -0.0261702 0)
(1.01101 -0.0274543 0)
(1.01255 -0.0286434 0)
(1.01419 -0.0297301 0)
(1.01591 -0.0307058 0)
(1.0177 -0.0315664 0)
(1.01954 -0.0323054 0)
(1.02143 -0.0329231 0)
(1.02335 -0.0334147 0)
(1.02528 -0.0337843 0)
(1.02722 -0.0340296 0)
(1.02915 -0.0341578 0)
(1.03105 -0.03417 0)
(1.03293 -0.0340753 0)
(1.03475 -0.0338779 0)
(1.03653 -0.0335876 0)
(1.03825 -0.0332113 0)
(1.03989 -0.032758 0)
(1.04147 -0.032237 0)
(1.04298 -0.0316552 0)
(1 -0.000556607 0)
(1.00002 -0.00152708 0)
(1.00004 -0.00238391 0)
(1.00005 -0.00320613 0)
(1.00006 -0.00403919 0)
(1.00007 -0.00491783 0)
(1.0001 -0.00588797 0)
(1.00014 -0.00698248 0)
(1.00022 -0.00820664 0)
(1.00037 -0.00955509 0)
(1.00058 -0.0110226 0)
(1.00087 -0.012596 0)
(1.00125 -0.0142542 0)
(1.00173 -0.0159687 0)
(1.00233 -0.0177158 0)
(1.00304 -0.0194747 0)
(1.00388 -0.0212278 0)
(1.00483 -0.0229558 0)
(1.00592 -0.0246429 0)
(1.00714 -0.0262734 0)
(1.00849 -0.0278356 0)
(1.00996 -0.0293171 0)
(1.01154 -0.0307064 0)
(1.01324 -0.0319929 0)
(1.01505 -0.0331651 0)
(1.01694 -0.0342166 0)
(1.01891 -0.0351369 0)
(1.02095 -0.0359247 0)
(1.02304 -0.0365712 0)
(1.02516 -0.0370797 0)
(1.02729 -0.0374444 0)
(1.02943 -0.0376727 0)
(1.03156 -0.0377634 0)
(1.03366 -0.0377265 0)
(1.03572 -0.0375653 0)
(1.03772 -0.0372908 0)
(1.03966 -0.0369106 0)
(1.04153 -0.036435 0)
(1.04332 -0.0358752 0)
(1.04503 -0.0352391 0)
(1 -0.000560395 0)
(1.00001 -0.00152728 0)
(1 -0.0023771 0)
(0.999972 -0.00320058 0)
(0.999941 -0.00402782 0)
(0.99991 -0.00490379 0)
(0.999871 -0.00588579 0)
(0.999842 -0.00700254 0)
(0.999854 -0.00825776 0)
(0.999921 -0.00965041 0)
(1.00005 -0.0111793 0)
(1.00024 -0.0128304 0)
(1.00052 -0.0145806 0)
(1.00092 -0.0164008 0)
(1.00142 -0.0182698 0)
(1.00205 -0.0201678 0)
(1.0028 -0.0220762 0)
(1.00369 -0.0239739 0)
(1.00473 -0.0258446 0)
(1.00591 -0.027671 0)
(1.00723 -0.0294407 0)
(1.0087 -0.0311386 0)
(1.01031 -0.0327509 0)
(1.01206 -0.0342636 0)
(1.01393 -0.0356616 0)
(1.01593 -0.0369356 0)
(1.01803 -0.0380706 0)
(1.02022 -0.0390628 0)
(1.02248 -0.0398983 0)
(1.0248 -0.0405789 0)
(1.02716 -0.0410942 0)
(1.02953 -0.0414516 0)
(1.0319 -0.0416461 0)
(1.03426 -0.0416888 0)
(1.03658 -0.0415811 0)
(1.03884 -0.0413355 0)
(1.04104 -0.0409599 0)
(1.04317 -0.040466 0)
(1.04521 -0.0398673 0)
(1.04715 -0.0391728 0)
(1 -0.000561068 0)
(0.999997 -0.00151385 0)
(0.999959 -0.0023546 0)
(0.999891 -0.00317557 0)
(0.999823 -0.00398559 0)
(0.999741 -0.0048541 0)
(0.999635 -0.00584212 0)
(0.999535 -0.00697106 0)
(0.999472 -0.00824786 0)
(0.999454 -0.00967684 0)
(0.999483 -0.0112594 0)
(0.999575 -0.0129797 0)
(0.999756 -0.0148128 0)
(1.00004 -0.0167314 0)
(1.00045 -0.018717 0)
(1.00097 -0.02075 0)
(1.00162 -0.0228118 0)
(1.00242 -0.0248808 0)
(1.00338 -0.0269407 0)
(1.00449 -0.0289731 0)
(1.00577 -0.0309647 0)
(1.00722 -0.0328974 0)
(1.00883 -0.0347557 0)
(1.01061 -0.0365218 0)
(1.01254 -0.0381773 0)
(1.01463 -0.0397089 0)
(1.01685 -0.0410963 0)
(1.0192 -0.0423322 0)
(1.02164 -0.0433964 0)
(1.02417 -0.0442887 0)
(1.02677 -0.0449924 0)
(1.0294 -0.0455142 0)
(1.03205 -0.0458442 0)
(1.03469 -0.045994 0)
(1.03731 -0.0459619 0)
(1.03987 -0.0457623 0)
(1.04238 -0.0454023 0)
(1.04479 -0.044896 0)
(1.04712 -0.0442587 0)
(1.04934 -0.0435012 0)
(1 -0.00055801 0)
(0.999983 -0.00148567 0)
(0.999908 -0.00231994 0)
(0.999805 -0.0031316 0)
(0.999704 -0.00391321 0)
(0.999566 -0.00477274 0)
(0.999392 -0.00575801 0)
(0.999223 -0.0068885 0)
(0.999082 -0.00817836 0)
(0.998971 -0.00963557 0)
(0.998898 -0.0112631 0)
(0.99888 -0.0130418 0)
(0.99895 -0.0149476 0)
(0.99912 -0.0169556 0)
(0.999399 -0.0190502 0)
(0.999796 -0.0212117 0)
(1.00033 -0.0234219 0)
(1.00102 -0.0256605 0)
(1.00187 -0.0279124 0)
(1.0029 -0.0301582 0)
(1.0041 -0.0323841 0)
(1.0055 -0.034569 0)
(1.00709 -0.0366959 0)
(1.00888 -0.0387432 0)
(1.01085 -0.0406897 0)
(1.01301 -0.0425167 0)
(1.01535 -0.0441985 0)
(1.01784 -0.0457229 0)
(1.02048 -0.0470621 0)
(1.02323 -0.048213 0)
(1.02608 -0.0491506 0)
(1.02899 -0.0498805 0)
(1.03195 -0.0503852 0)
(1.03492 -0.0506769 0)
(1.03787 -0.050749 0)
(1.04078 -0.0506178 0)
(1.04364 -0.0502886 0)
(1.0464 -0.0497783 0)
(1.04907 -0.0491033 0)
(1.05161 -0.0482778 0)
(1 -0.000549341 0)
(0.999965 -0.00144283 0)
(0.999847 -0.00227736 0)
(0.999719 -0.00306784 0)
(0.999585 -0.00381329 0)
(0.999386 -0.00466389 0)
(0.999148 -0.00563319 0)
(0.998909 -0.00675695 0)
(0.998685 -0.00805168 0)
(0.998478 -0.00952859 0)
(0.998296 -0.0111908 0)
(0.998163 -0.013016 0)
(0.998111 -0.0149829 0)
(0.998151 -0.0170696 0)
(0.998292 -0.0192633 0)
(0.998549 -0.021544 0)
(0.998942 -0.023895 0)
(0.999492 -0.0262983 0)
(1.00021 -0.028741 0)
(1.00112 -0.0312041 0)
(1.00223 -0.0336736 0)
(1.00355 -0.0361258 0)
(1.00508 -0.038543 0)
(1.00685 -0.0408993 0)
(1.00883 -0.0431711 0)
(1.01105 -0.0453337 0)
(1.01348 -0.047356 0)
(1.01612 -0.0492192 0)
(1.01894 -0.0508873 0)
(1.02192 -0.0523518 0)
(1.02504 -0.0535784 0)
(1.02826 -0.0545692 0)
(1.03156 -0.0552978 0)
(1.03489 -0.0557755 0)
(1.03823 -0.0559888 0)
(1.04154 -0.0559557 0)
(1.0448 -0.0556777 0)
(1.04797 -0.0551758 0)
(1.05103 -0.0544657 0)
(1.05395 -0.0535671 0)
(1 -0.000531244 0)
(0.99994 -0.00138825 0)
(0.999776 -0.00223026 0)
(0.999633 -0.00298293 0)
(0.999462 -0.0036908 0)
(0.999202 -0.00453018 0)
(0.998906 -0.00546694 0)
(0.998594 -0.00658093 0)
(0.998285 -0.00787019 0)
(0.997977 -0.00935885 0)
(0.997683 -0.0110438 0)
(0.99743 -0.0129024 0)
(0.997249 -0.0149181 0)
(0.997147 -0.0170708 0)
(0.997136 -0.0193515 0)
(0.997233 -0.0217391 0)
(0.997466 -0.0242208 0)
(0.997853 -0.026781 0)
(0.998417 -0.0294092 0)
(0.999176 -0.0320886 0)
(1.00015 -0.0348066 0)
(1.00135 -0.0375379 0)
(1.0028 -0.0402645 0)
(1.0045 -0.0429563 0)
(1.00647 -0.0455881 0)
(1.00871 -0.0481282 0)
(1.01122 -0.0505407 0)
(1.01398 -0.0527984 0)
(1.01697 -0.054857 0)
(1.02019 -0.0566995 0)
(1.02358 -0.058281 0)
(1.02714 -0.0595976 0)
(1.03081 -0.0606113 0)
(1.03456 -0.0613312 0)
(1.03834 -0.0617337 0)
(1.04211 -0.0618382 0)
(1.04584 -0.0616397 0)
(1.04948 -0.0611638 0)
(1.05301 -0.0604242 0)
(1.05639 -0.0594477 0)
(1.00001 -0.000497515 0)
(0.999901 -0.00132957 0)
(0.999695 -0.00217846 0)
(0.999549 -0.00287687 0)
(0.999335 -0.00355118 0)
(0.99902 -0.00437179 0)
(0.998667 -0.00525987 0)
(0.998279 -0.00636729 0)
(0.997885 -0.00763502 0)
(0.997473 -0.0091313 0)
(0.997065 -0.0108228 0)
(0.996688 -0.0127031 0)
(0.99637 -0.0147537 0)
(0.996115 -0.0169583 0)
(0.995939 -0.0193117 0)
(0.995863 -0.0217913 0)
(0.995914 -0.0243907 0)
(0.996115 -0.0270962 0)
(0.996491 -0.0299008 0)
(0.997066 -0.0327909 0)
(0.997864 -0.0357567 0)
(0.998912 -0.0387736 0)
(1.00023 -0.0418246 0)
(1.00184 -0.044876 0)
(1.00375 -0.047901 0)
(1.00597 -0.0508612 0)
(1.00851 -0.0537163 0)
(1.01137 -0.0564294 0)
(1.01452 -0.0589475 0)
(1.01796 -0.0612428 0)
(1.02165 -0.0632577 0)
(1.02556 -0.0649787 0)
(1.02963 -0.0663544 0)
(1.03384 -0.0673875 0)
(1.03812 -0.0680423 0)
(1.04243 -0.0683367 0)
(1.04671 -0.068257 0)
(1.05091 -0.0678332 0)
(1.055 -0.0670745 0)
(1.05891 -0.066017 0)
(1.00001 -0.000439757 0)
(0.999843 -0.00128104 0)
(0.999608 -0.00211534 0)
(0.999467 -0.00275426 0)
(0.999202 -0.00339645 0)
(0.998842 -0.00418833 0)
(0.998431 -0.00501473 0)
(0.997965 -0.00612387 0)
(0.997488 -0.00734537 0)
(0.996968 -0.00885419 0)
(0.996449 -0.0105266 0)
(0.995943 -0.012424 0)
(0.995483 -0.0144901 0)
(0.995067 -0.0167339 0)
(0.994715 -0.0191427 0)
(0.994451 -0.021697 0)
(0.994302 -0.0243986 0)
(0.994293 -0.0272334 0)
(0.994454 -0.0302012 0)
(0.994811 -0.0332915 0)
(0.995397 -0.0364983 0)
(0.996245 -0.0398011 0)
(0.997383 -0.043185 0)
(0.998841 -0.0466152 0)
(1.00064 -0.0500636 0)
(1.0028 -0.0534858 0)
(1.00533 -0.0568373 0)
(1.00825 -0.0600709 0)
(1.01153 -0.0631249 0)
(1.01518 -0.0659579 0)
(1.01916 -0.0684987 0)
(1.02343 -0.0707194 0)
(1.02795 -0.0725523 0)
(1.03267 -0.073989 0)
(1.03751 -0.0749783 0)
(1.04244 -0.0755329 0)
(1.04736 -0.0756272 0)
(1.05223 -0.0752933 0)
(1.05698 -0.0745343 0)
(1.06155 -0.0733957 0)
(1.00003 -0.000347844 0)
(0.999765 -0.00126376 0)
(0.999523 -0.002026 0)
(0.999384 -0.00262765 0)
(0.999067 -0.00322061 0)
(0.998672 -0.00398398 0)
(0.998198 -0.004734 0)
(0.997656 -0.00585927 0)
(0.997098 -0.00699812 0)
(0.996468 -0.00854015 0)
(0.995844 -0.0101498 0)
(0.995201 -0.0120778 0)
(0.9946 -0.0141237 0)
(0.994013 -0.0164051 0)
(0.993479 -0.018842 0)
(0.993015 -0.0214572 0)
(0.992648 -0.0242395 0)
(0.992409 -0.0271851 0)
(0.992326 -0.0302977 0)
(0.992433 -0.0335728 0)
(0.992767 -0.0370078 0)
(0.993367 -0.0405898 0)
(0.994273 -0.0443066 0)
(0.995524 -0.0481276 0)
(0.997152 -0.0520235 0)
(0.999189 -0.0559463 0)
(1.00166 -0.0598474 0)
(1.00458 -0.0636694 0)
(1.00795 -0.0673423 0)
(1.01177 -0.0708086 0)
(1.01602 -0.0739823 0)
(1.02066 -0.0768163 0)
(1.02565 -0.0792238 0)
(1.03092 -0.0811786 0)
(1.03641 -0.0826096 0)
(1.04204 -0.0835182 0)
(1.04772 -0.083863 0)
(1.05338 -0.0836742 0)
(1.05893 -0.0829463 0)
(1.06429 -0.0817333 0)
(1.00005 -0.000211164 0)
(0.999664 -0.00130145 0)
(0.999451 -0.00188797 0)
(0.999297 -0.00251889 0)
(0.998938 -0.003007 0)
(0.99851 -0.00377401 0)
(0.997968 -0.00441373 0)
(0.997358 -0.00558587 0)
(0.99672 -0.006586 0)
(0.995979 -0.00820751 0)
(0.99526 -0.00967986 0)
(0.994469 -0.011688 0)
(0.993737 -0.0136419 0)
(0.992963 -0.0159914 0)
(0.992252 -0.0184002 0)
(0.99157 -0.0210824 0)
(0.990976 -0.0239056 0)
(0.990485 -0.0269504 0)
(0.990135 -0.0301783 0)
(0.989958 -0.0336209 0)
(0.99 -0.0372623 0)
(0.990305 -0.0411113 0)
(0.990921 -0.0451505 0)
(0.991899 -0.0493655 0)
(0.993286 -0.0537225 0)
(0.995125 -0.0581788 0)
(0.997455 -0.0626785 0)
(1.00031 -0.0671581 0)
(1.0037 -0.0715372 0)
(1.00765 -0.0757423 0)
(1.01214 -0.0796711 0)
(1.01714 -0.0832529 0)
(1.02261 -0.086378 0)
(1.02849 -0.0889942 0)
(1.03469 -0.0910056 0)
(1.04113 -0.0923933 0)
(1.0477 -0.0930943 0)
(1.05429 -0.0931299 0)
(1.06081 -0.0924827 0)
(1.06713 -0.0912123 0)
(1.00009 -2.64931e-05 0)
(0.999539 -0.00141331 0)
(0.999411 -0.00167716 0)
(0.9992 -0.00245505 0)
(0.998829 -0.00273111 0)
(0.998352 -0.00358738 0)
(0.997752 -0.00403852 0)
(0.997071 -0.0053251 0)
(0.996363 -0.00609454 0)
(0.995506 -0.00788284 0)
(0.994709 -0.0090953 0)
(0.993751 -0.0112923 0)
(0.992911 -0.0130164 0)
(0.991925 -0.0155333 0)
(0.991058 -0.0177897 0)
(0.990128 -0.0206045 0)
(0.989316 -0.0233746 0)
(0.988543 -0.0265454 0)
(0.987913 -0.0298225 0)
(0.987417 -0.0334333 0)
(0.987133 -0.0372346 0)
(0.98709 -0.0413429 0)
(0.98736 -0.0456749 0)
(0.987992 -0.0502833 0)
(0.989058 -0.0550966 0)
(0.99061 -0.0601118 0)
(0.992712 -0.0652484 0)
(0.995409 -0.0704536 0)
(0.998743 -0.0756278 0)
(1.00274 -0.0806868 0)
(1.00741 -0.085508 0)
(1.01274 -0.0899946 0)
(1.01869 -0.0940093 0)
(1.0252 -0.0974656 0)
(1.03219 -0.100235 0)
(1.03955 -0.102267 0)
(1.04715 -0.103469 0)
(1.05487 -0.103842 0)
(1.06255 -0.103352 0)
(1.07006 -0.102057 0)
(1.00017 0.000200924 0)
(0.999381 -0.00160202 0)
(0.999434 -0.00137941 0)
(0.999074 -0.00245745 0)
(0.998768 -0.00237103 0)
(0.998178 -0.00345615 0)
(0.997573 -0.00358552 0)
(0.996787 -0.00510651 0)
(0.996045 -0.00550288 0)
(0.995045 -0.00760122 0)
(0.99421 -0.00836774 0)
(0.993044 -0.0109419 0)
(0.992151 -0.0122028 0)
(0.990894 -0.0150977 0)
(0.989933 -0.0169555 0)
(0.98869 -0.0200932 0)
(0.987711 -0.0225921 0)
(0.986592 -0.0260255 0)
(0.985706 -0.0291824 0)
(0.98483 -0.0330388 0)
(0.98421 -0.0368783 0)
(0.983753 -0.0412828 0)
(0.98363 -0.045824 0)
(0.983832 -0.0508474 0)
(0.984497 -0.0560694 0)
(0.985653 -0.0616751 0)
(0.987421 -0.0674547 0)
(0.989844 -0.073456 0)
(0.993007 -0.0795034 0)
(0.996949 -0.0855435 0)
(1.00171 -0.091407 0)
(1.00731 -0.0969819 0)
(1.01371 -0.102092 0)
(1.02087 -0.106609 0)
(1.02871 -0.110363 0)
(1.0371 -0.113258 0)
(1.0459 -0.115157 0)
(1.05494 -0.116029 0)
(1.06404 -0.115808 0)
(1.07301 -0.114546 0)
(1.00036 0.000458202 0)
(0.999152 -0.00185028 0)
(0.999573 -0.00100126 0)
(0.998876 -0.00252694 0)
(0.998801 -0.00192243 0)
(0.997943 -0.00339596 0)
(0.997479 -0.00303903 0)
(0.996462 -0.00495257 0)
(0.99581 -0.00479408 0)
(0.994557 -0.00739387 0)
(0.993804 -0.00747289 0)
(0.992313 -0.0106872 0)
(0.991502 -0.0111543 0)
(0.989837 -0.0147645 0)
(0.988932 -0.0158231 0)
(0.987225 -0.0196557 0)
(0.986226 -0.021463 0)
(0.984608 -0.0255062 0)
(0.983587 -0.0281566 0)
(0.982187 -0.0325355 0)
(0.981302 -0.0360948 0)
(0.980299 -0.0409899 0)
(0.979797 -0.0454976 0)
(0.979437 -0.0510686 0)
(0.979653 -0.0565283 0)
(0.980265 -0.0628269 0)
(0.981598 -0.0691563 0)
(0.983582 -0.0760644 0)
(0.986443 -0.0830035 0)
(0.990178 -0.0901831 0)
(0.994917 -0.0972302 0)
(1.00066 -0.104116 0)
(1.00746 -0.110563 0)
(1.01525 -0.116416 0)
(1.02397 -0.121444 0)
(1.03351 -0.125485 0)
(1.04369 -0.128348 0)
(1.05431 -0.129946 0)
(1.06513 -0.130163 0)
(1.07589 -0.129028 0)
(1.00074 0.000722692 0)
(0.998772 -0.00212522 0)
(0.999915 -0.000571382 0)
(0.998518 -0.00264142 0)
(0.999013 -0.00140798 0)
(0.997552 -0.00339453 0)
(0.997558 -0.00240729 0)
(0.995997 -0.00486005 0)
(0.995754 -0.00397304 0)
(0.993941 -0.00726484 0)
(0.993589 -0.00641139 0)
(0.99146 -0.0105463 0)
(0.99106 -0.00985286 0)
(0.988662 -0.0145852 0)
(0.988159 -0.0143376 0)
(0.985641 -0.0193914 0)
(0.984975 -0.0198856 0)
(0.982502 -0.0251343 0)
(0.98168 -0.0266005 0)
(0.979409 -0.0320982 0)
(0.978542 -0.0347114 0)
(0.976669 -0.0406325 0)
(0.975985 -0.0445076 0)
(0.974769 -0.0510718 0)
(0.974632 -0.0562706 0)
(0.974423 -0.0636237 0)
(0.97531 -0.0701277 0)
(0.976579 -0.0782514 0)
(0.979036 -0.0858721 0)
(0.982308 -0.0944879 0)
(0.986883 -0.102735 0)
(0.992595 -0.111258 0)
(0.999673 -0.11928 0)
(1.00803 -0.126833 0)
(1.01765 -0.133504 0)
(1.02842 -0.139067 0)
(1.04017 -0.143258 0)
(1.05264 -0.145897 0)
(1.06556 -0.146795 0)
(1.07856 -0.145938 0)
(1.00144 0.000969398 0)
(0.998127 -0.00238697 0)
(1.00057 -0.000133379 0)
(0.997871 -0.00276393 0)
(0.999527 -0.000867833 0)
(0.99686 -0.00341547 0)
(0.997956 -0.00172806 0)
(0.995219 -0.00479661 0)
(0.996043 -0.00307982 0)
(0.993003 -0.0071794 0)
(0.993747 -0.00522952 0)
(0.990282 -0.0104812 0)
(0.991021 -0.00834422 0)
(0.987165 -0.0145345 0)
(0.987812 -0.0125231 0)
(0.983737 -0.0193133 0)
(0.984166 -0.0178347 0)
(0.980073 -0.0249849 0)
(0.980209 -0.0244175 0)
(0.976297 -0.0318776 0)
(0.976171 -0.0325483 0)
(0.972673 -0.0404301 0)
(0.972449 -0.0425944 0)
(0.96966 -0.0511127 0)
(0.969676 -0.0549651 0)
(0.967987 -0.0643097 0)
(0.968757 -0.0699789 0)
(0.968708 -0.0801975 0)
(0.970902 -0.0876622 0)
(0.973166 -0.09852 0)
(0.977556 -0.107456 0)
(0.982811 -0.11833 0)
(0.990093 -0.127891 0)
(0.998796 -0.137769 0)
(1.00931 -0.146473 0)
(1.02138 -0.154094 0)
(1.03488 -0.16013 0)
(1.04954 -0.164236 0)
(1.06499 -0.166176 0)
(1.08079 -0.165824 0)
(1.00253 0.00117641 0)
(0.997125 -0.00259665 0)
(1.00163 0.000274781 0)
(0.996827 -0.0028542 0)
(1.00046 -0.000344225 0)