/*--------------------------------*- C++ -*----------------------------------*\
| =========                 |                                                 |
| \\      /  F ield         | OpenFOAM: The Open Source CFD Toolbox           |
|  \\    /   O peration     | Version:  2312                                  |
|   \\  /    A nd           | Website:  www.openfoam.com                      |
|    \\/     M anipulation  |                                                 |
\*---------------------------------------------------------------------------*/
FoamFile
{
    version     2.0;
    format      ascii;
    arch        "LSB;label=32;scalar=64";
    class       surfaceScalarField;
    location    "3";
    object      phi;
}
// * * * * * * * * * * * * * * * * * * * * * * * * * * * * * * * * * * * * * //

dimensions      [0 3 -1 0 0 0 0];

oriented        oriented;

internalField   nonuniform List<scalar> 
18180
(
0.0101017
0.0534988
-0.0636005
0.0183278
0.0635188
-0.071745
0.0323978
0.0383421
-0.0524121
0.0535126
-0.0446984
0.0235835
0.0675237
-0.10144
0.0874288
0.0741189
-0.124975
0.118379
0.0766771
-0.131751
0.129193
0.0779356
-0.130557
0.129298
0.0796996
-0.128394
0.12663
0.0821406
-0.126033
0.123592
0.0855416
-0.12415
0.120749
0.08949
-0.123242
0.119294
0.0941969
-0.123076
0.118369
0.0994607
-0.122888
0.117624
0.104971
-0.122759
0.117249
0.110893
-0.124346
0.118424
0.11663
-0.125882
0.120145
0.124542
-0.127892
0.119979
0.131781
-0.128576
0.121337
-0.129706
0.122464
0.139023
0.0240739
0.0294249
0.0217727
0.0658201
0.044691
0.0154238
0.0672966
-0.067304
0.0776443
-0.111788
0.0797402
-0.12707
0.0790977
-0.131109
0.0784213
-0.129881
0.0786043
-0.128577
0.0800535
-0.127482
0.0826369
-0.126734
0.0855351
-0.12614
0.0891489
-0.12669
0.0935634
-0.127302
0.0984447
-0.127641
0.102934
-0.128836
0.108134
-0.131081
0.114298
-0.134056
0.121133
-0.135411
-0.136601
0.128029
0.0113386
0.0180863
0.0182414
0.0589172
0.0557632
-0.022098
0.07523
-0.0867708
0.0802524
-0.11681
0.0795081
-0.126326
0.0774448
-0.129045
0.0758975
-0.128333
0.0755153
-0.128195
0.0761299
-0.128096
0.0776512
-0.128255
0.0797976
-0.128287
0.0826201
-0.129512
0.0861617
-0.130844
0.0901531
-0.131632
0.0940693
-0.132752
0.0982898
-0.135302
0.102733
-0.1385
0.108677
-0.141355
-0.143208
0.115284
-0.0123564
0.0304427
0.0176115
0.0289493
0.059418
-0.0639045
0.0753635
-0.102716
0.0772803
-0.118727
0.0749601
-0.124006
0.0723485
-0.126434
0.0707762
-0.126761
0.0702317
-0.127651
0.0701599
-0.128025
0.0712347
-0.12933
0.0727211
-0.129773
0.0745744
-0.131366
0.0771338
-0.133403
0.0806537
-0.135152
0.0841683
-0.136267
0.0872481
-0.138382
0.090554
-0.141806
0.0952863
-0.146087
-0.148612
0.10069
-0.00639662
0.0368393
0.0397531
-0.0172005
0.0597555
-0.0839068
0.0686398
-0.111601
0.0692192
-0.119306
0.0672666
-0.122053
0.0651108
-0.124278
0.0637081
-0.125358
0.0630189
-0.126961
0.0628747
-0.127881
0.0636132
-0.130068
0.064559
-0.130719
0.0656969
-0.132504
0.0672761
-0.134982
0.06967
-0.137546
0.0725918
-0.139188
0.0753561
-0.141146
0.0776842
-0.144134
0.0801271
-0.14853
-0.152767
0.0842817
0.0017779
0.0350614
0.0482085
-0.0636311
0.061547
-0.0972453
0.0624041
-0.112458
0.0605953
-0.117498
0.0586845
-0.120143
0.0568545
-0.122448
0.0555394
-0.124043
0.0548145
-0.126237
0.0543333
-0.127399
0.0546045
-0.130339
0.0554188
-0.131533
0.0562831
-0.133368
0.057003
-0.135702
0.0583504
-0.138893
0.0605961
-0.141434
0.062818
-0.143368
0.0645867
-0.145902
0.0661283
-0.150072
-0.154601
0.0679626
0.0250866
0.00997481
0.0470675
-0.085612
0.0540294
-0.104207
0.0533674
-0.111796
0.0510282
-0.115158
0.0492262
-0.118341
0.047754
-0.120976
0.0467205
-0.12301
0.0459035
-0.12542
0.0450613
-0.126557
0.0447782
-0.130056
0.044931
-0.131686
0.0455206
-0.133957
0.045724
-0.135905
0.0463684
-0.139538
0.047578
-0.142644
0.0496053
-0.145395
0.0514421
-0.147739
0.0519785
-0.150608
-0.155078
0.0524549
0.0400455
-0.0300707
0.0439896
-0.089556
0.0424727
-0.10269
0.0418253
-0.111148
0.0407036
-0.114037
0.0395166
-0.117154
0.0382858
-0.119745
0.0372839
-0.122008
0.036583
-0.124719
0.0358157
-0.12579
0.0348936
-0.129134
0.0344291
-0.131222
0.0344947
-0.134023
0.0341543
-0.135565
0.0337606
-0.139144
0.034068
-0.142951
0.035297
-0.146624
0.0370256
-0.149468
0.0385365
-0.152119
-0.155285
0.0387436
0.0234665
-0.0535372
0.0317234
-0.0978129
0.0322804
-0.103247
0.0318212
-0.110689
0.0310318
-0.113247
0.0301557
-0.116278
0.0289507
-0.11854
0.0277612
-0.120818
0.0268083
-0.123766
0.0258393
-0.124821
0.0246883
-0.127983
0.0237034
-0.130237
0.0232422
-0.133562
0.0225868
-0.13491
0.0215157
-0.138073
0.0201484
-0.141584
0.0198
-0.146276
0.0203433
-0.150011
0.0215549
-0.153331
-0.156501
0.022771
0.0146445
-0.0681817
0.0213066
-0.104475
0.0234965
-0.105437
0.0235431
-0.110736
0.0225503
-0.112254
0.0213804
-0.115108
0.0200679
-0.117227
0.0184126
-0.119163
0.0168108
-0.122164
0.0155285
-0.123538
0.0139355
-0.12639
0.0123432
-0.128644
0.0114756
-0.132694
0.0106801
-0.134114
0.00956751
-0.13696
0.00747999
-0.139496
0.00506696
-0.143863
0.00326435
-0.148208
0.00270055
-0.152767
0.00247139
-0.156272
-0.0164308
0.0142437
0.00218716
-0.0316052
0.013968
0.00120641
-0.0423313
0.0102743
0.000451788
-0.0476981
0.00456623
0.000800569
-0.0471912
-0.00155978
0.00105287
-0.0405171
-0.00828669
0.00161259
-0.0299379
-0.0123809
0.00180166
-0.0162798
-0.0162046
0.00254648
-0.00158319
-0.0173602
0.00266364
0.0152787
-0.0192683
0.00240647
0.0318022
-0.0192242
0.00270066
0.0489491
-0.0198869
0.00273994
0.0655589
-0.0191094
0.0024997
0.0824722
-0.0190581
0.00214477
0.0990759
-0.0184305
0.00182683
0.11591
-0.0177493
0.000915437
0.132497
-0.0165272
-6.04291e-05
0.149237
-0.0154159
-0.00132384
0.165506
-0.0134333
-0.00283538
-0.0120304
0.18196
-0.00442405
-0.0158974
0.0301411
-0.030429
0.0284995
-0.0400602
0.0199055
-0.0435778
0.00808387
-0.0413269
-0.00381069
-0.0329244
-0.0166892
-0.0205307
-0.0247746
-0.00572198
-0.0310133
0.0100915
-0.0331738
0.0270994
-0.0362761
0.0436954
-0.0358202
0.0600226
-0.036214
0.0758967
-0.0349836
0.0917679
-0.0349293
0.107301
-0.0339639
0.123242
-0.0336899
0.139246
-0.032531
0.155604
-0.0317738
0.171667
-0.0294966
-0.0281916
0.187828
-0.014903
0.0450441
-0.0285468
0.0421433
-0.0369308
0.0282895
-0.0381447
0.00929779
-0.0333582
-0.00859728
-0.0230301
-0.0270173
-0.00900876
-0.0387959
0.00677587
-0.0467979
0.0236785
-0.0500764
0.0400519
-0.0526495
0.056383
-0.0521514
0.0716798
-0.0515108
0.086731
-0.0500349
0.10124
-0.0494386
0.115102
-0.0478257
0.129428
-0.0480156
0.144139
-0.0472423
0.159723
-0.047358
0.175399
-0.0451724
-0.0441408
0.191348
-0.0139463
0.0589904
-0.0267558
0.0549528
-0.0346712
0.036205
-0.0344758
0.00910232
-0.027291
-0.015782
-0.0151544
-0.0391539
0.000111834
-0.0540621
0.0160854
-0.0627714
0.0328037
-0.0667947
0.0478857
-0.0677315
0.0627798
-0.0670455
0.0767449
-0.0654759
0.0908282
-0.0641181
0.104196
-0.0628065
0.116905
-0.0605346
0.129707
-0.0608182
0.142623
-0.0601579
0.157034
-0.0617684
0.172115
-0.0602541
-0.0605473
0.188522
-0.012553
0.0715434
-0.0238642
0.066264
-0.0317131
0.0440539
-0.0304882
0.00787737
-0.0209552
-0.025315
-0.0068538
-0.0532553
0.00925671
-0.0701726
0.0253323
-0.0788471
0.0406175
-0.0820799
0.0546651
-0.0817791
0.0679853
-0.0803657
0.0804787
-0.0779693
0.0930275
-0.0766668
0.105258
-0.0750371
0.117725
-0.0730016
0.129639
-0.0727317
0.140851
-0.0713703
0.153253
-0.0741701
0.16642
-0.0734216
-0.0760156
0.181889
-0.0101911
0.0817345
-0.0186934
0.0747663
-0.0259296
0.0512901
-0.0236438
0.00559156
-0.0125373
-0.0364215
0.00276765
-0.0685602
0.0188668
-0.0862718
0.0341462
-0.0941265
0.0477907
-0.0957244
0.0605448
-0.0945332
0.0724436
-0.0922645
0.0837566
-0.0892823
0.0946797
-0.0875899
0.105521
-0.0858785
0.117672
-0.0851525
0.129107
-0.0841669
0.140054
-0.0823173
0.150946
-0.085062
0.162059
-0.0845343
-0.0891822
0.175225
-0.00295697
0.0846914
-0.00964342
0.0814528
-0.015461
0.0571077
-0.0119452
0.0020758
0.000560022
-0.0489267
0.0148897
-0.0828899
0.0296194
-0.101002
0.0430221
-0.107529
0.0549695
-0.107672
0.0655094
-0.105073
0.0754992
-0.102254
0.0855664
-0.0993495
0.0952783
-0.0973019
0.104655
-0.0952553
0.11529
-0.0957874
0.125525
-0.0944024
0.136802
-0.0935935
0.146796
-0.0950567
0.156978
-0.0947163
-0.100083
0.167879
0.00102763
0.0836638
-0.000746705
0.0832271
-0.00198723
0.0583482
0.0027069
-0.00261833
0.0153704
-0.0615903
0.0294601
-0.0969796
0.0421238
-0.113665
0.0528324
-0.118238
0.0621792
-0.117019
0.0704908
-0.113385
0.0786029
-0.110366
0.08704
-0.107787
0.0955506
-0.105812
0.10394
-0.103644
0.112688
-0.104535
0.121481
-0.103196
0.132144
-0.104257
0.140889
-0.103802
0.150631
-0.104458
-0.108875
0.159423
0.00852742
0.0751364
0.0131675
0.078587
0.013022
0.0584936
0.0207457
-0.010342
0.0334028
-0.0742474
0.0454148
-0.108992
0.0550719
-0.123322
0.0623648
-0.125531
0.0684333
-0.123087
0.0746535
-0.119605
0.0808482
-0.116561
0.0874415
-0.11438
0.0943981
-0.112769
0.102004
-0.111251
0.109074
-0.111605
0.117103
-0.111224
0.126135
-0.113289
0.134174
-0.11184
0.143283
-0.113567
-0.116059
0.150467
0.0115359
0.018378
0.0244595
0.0377011
0.0508826
0.0602704
0.0661412
0.0699089
0.0734523
0.077439
0.0816271
0.086541
0.0921411
0.0985143
0.104158
0.111358
0.118214
0.126353
0.134123
0.140528
0.190946
-0.000492372
-0.00849318
0.197972
0.00383426
-0.0108602
0.203274
0.0074905
-0.0127926
0.207387
0.0105183
-0.0146312
0.21087
0.0127561
-0.0162388
0.21384
0.01474
-0.0177102
0.216233
0.0167726
-0.0191653
0.218204
0.0184963
-0.0204678
0.219892
0.0199152
-0.0216033
0.221315
0.0213029
-0.022726
0.222517
0.022664
-0.0238653
0.223543
0.0239546
-0.0249807
0.22441
0.0252218
-0.0260895
0.225137
0.0264799
-0.0272061
0.225741
0.0277166
-0.0283212
0.226237
0.0289387
-0.029435
0.226636
0.0301585
-0.0305565
0.226945
0.0313825
-0.0316922
0.227175
0.0326165
-0.0328466
0.227333
0.033867
-0.0340249
0.227425
0.0351406
-0.0352327
0.227457
0.0364442
-0.0364763
0.227434
0.0377851
-0.0377618
0.227359
0.0391711
-0.0390965
0.227237
0.0406102
-0.0404877
0.227069
0.0421119
-0.0419442
0.226859
0.0436861
-0.0434761
0.226609
0.0453454
-0.0450956
0.226322
0.0471035
-0.0468164
0.225999
0.0489772
-0.0486543
0.225642
0.0509853
-0.050628
0.225251
0.05315
-0.052759
0.224826
0.0554978
-0.0550731
0.224369
0.0580551
-0.0575977
0.223879
0.0608529
-0.0603635
0.223358
0.0639292
-0.063408
0.222805
0.0673261
-0.0667732
0.222221
0.0710908
-0.0705061
0.221604
0.0752768
-0.0746604
0.220956
0.0799449
-0.0792965
0.220275
0.0851629
-0.0844824
0.219562
0.0910074
-0.0902942
0.218816
0.0975592
-0.0968131
0.218036
0.10493
-0.10415
0.217223
0.11313
-0.112317
0.216373
0.122667
-0.121817
0.215491
0.132193
-0.131312
0.214566
0.146455
-0.145529
0.213598
0.153836
-0.152868
0.177572
-0.17653
0.195512
-0.00817636
0.201231
-0.00188471
0.205759
0.00296288
0.209399
0.00687798
0.212468
0.00968676
0.21509
0.0121181
0.217297
0.014566
0.219157
0.0166356
0.220728
0.0183448
0.222068
0.0199625
0.223236
0.0214962
0.224241
0.0229493
0.225086
0.0243769
0.225792
0.0257741
0.226379
0.0271293
0.22686
0.0284579
0.227245
0.0297738
0.227543
0.0310842
0.227763
0.0323965
0.227912
0.0337184
0.227995
0.0350571
0.22802
0.0364201
0.227989
0.0378154
0.227909
0.0392517
0.227782
0.0407372
0.227611
0.0422824
0.2274
0.0438976
0.227149
0.0455961
0.226861
0.047391
0.22654
0.0492989
0.226185
0.0513398
0.225798
0.0535369
0.225378
0.0559176
0.224927
0.0585065
0.224445
0.0613353
0.223931
0.064443
0.223385
0.0678717
0.222807
0.0716686
0.222197
0.0758877
0.221552
0.0805897
0.220872
0.085843
0.220155
0.091724
0.2194
0.098314
0.218605
0.105725
0.217769
0.113966
0.216889
0.123548
0.215968
0.133114
0.214996
0.147427
0.213973
0.154858
0.178691
0.198062
-0.0148899
0.202854
-0.00667719
0.206486
-0.000668912
0.209748
0.00361564
0.212495
0.00694016
0.214755
0.00985783
0.216726
0.0125958
0.218465
0.0148966
0.219932
0.0168772
0.221192
0.0187027
0.222316
0.0203718
0.223302
0.0219635
0.224146
0.0235333
0.224864
0.0250562
0.225466
0.0265272
0.225959
0.0279646
0.226354
0.0293784
0.226663
0.0307753
0.226895
0.0321645
0.227058
0.0335556
0.227158
0.0349572
0.2272
0.0363776
0.22719
0.0378257
0.227132
0.0393101
0.227029
0.0408402
0.226884
0.0424267
0.226702
0.0440802
0.226483
0.0458146
0.226231
0.0476438
0.225945
0.0495843
0.22563
0.0516551
0.225285
0.0538816
0.224911
0.056292
0.224508
0.0589095
0.224077
0.0617663
0.223617
0.0649026
0.223128
0.0683606
0.222609
0.0721877
0.222059
0.0764383
0.221475
0.0811734
0.220856
0.0864618
0.220199
0.0923807
0.219502
0.0990115
0.21876
0.106467
0.217971
0.114755
0.217129
0.124389
0.216238
0.134006
0.215287
0.148377
0.214278
0.155868
0.179816
0.196269
-0.0226375
0.201475
-0.0118828
0.205141
-0.00433502
0.208157
0.00059998
0.210695
0.00440171
0.2127
0.00785272
0.214505
0.0107913
0.216166
0.0132349
0.217583
0.0154607
0.218822
0.0174639
0.21994
0.0192535
0.220915
0.0209883
0.221749
0.0226999
0.222465
0.0243401
0.223079
0.0259128
0.223601
0.0274431
0.224036
0.0289431
0.22439
0.0304209
0.224669
0.0318857
0.224879
0.0333461
0.225025
0.0348107
0.225115
0.036288
0.225153
0.0377876
0.225144
0.0393186
0.225093
0.0408911
0.225004
0.0425155
0.224881
0.044204
0.224724
0.0459713
0.224538
0.04783
0.224323
0.0497986
0.224082
0.0518967
0.223814
0.0541498
0.22352
0.0565854
0.223203
0.0592262
0.222863
0.0621068
0.222498
0.0652676
0.222108
0.0687505
0.221692
0.0726037
0.221249
0.0768818
0.220775
0.0816468
0.220269
0.086968
0.219727
0.0929232
0.219144
0.0995945
0.218515
0.107096
0.217835
0.115435
0.217098
0.125127
0.216303
0.134802
0.21544
0.149239
0.214512
0.156796
0.180874
0.190289
-0.031038
0.196715
-0.0183086
0.201163
-0.00878272
0.204386
-0.00262351
0.206822
0.00196563
0.20882
0.00585514
0.210655
0.00895634
0.212296
0.0115935
0.21367
0.0140873
0.214881
0.0162524
0.216004
0.0181306
0.217035
0.019957
0.217963
0.0217723
0.218773
0.0235298
0.21946
0.0252262
0.220032
0.0268715
0.220504
0.0284708
0.220893
0.0300321
0.221211
0.0315678
0.221467
0.0330901
0.221667
0.03461
0.221818
0.0361376
0.221922
0.0376829
0.221986
0.0392553
0.222012
0.0408653
0.222004
0.0425236
0.221965
0.0442425
0.2219
0.0460365
0.221809
0.0479204
0.221698
0.0499103
0.221566
0.0520287
0.22141
0.0543055
0.221233
0.0567628
0.221038
0.0594206
0.220827
0.0623181
0.220598
0.065497
0.220349
0.0689994
0.220079
0.0728733
0.219787
0.0771738
0.21947
0.0819635
0.219126
0.0873126
0.218749
0.0933
0.218335
0.100009
0.217876
0.107555
0.217366
0.115944
0.216795
0.125697
0.216162
0.135435
0.215453
0.149947
0.214676
0.157574
0.181794
0.182291
-0.0381033
0.189182
-0.0252
0.194746
-0.0143468
0.198602
-0.00647932
0.201206
-0.000638322
0.203334
0.00372679
0.205213
0.00707713
0.206856
0.00995123
0.208315
0.0126281
0.209609
0.0149579
0.210736
0.0170045
0.211725
0.0189676
0.212613
0.0208845
0.213419
0.0227234
0.214154
0.024491
0.214818
0.0262079
0.215405
0.0278835
0.215915
0.0295221
0.216352
0.0311311
0.216722
0.03272
0.217033
0.034299
0.217292
0.0358788
0.217505
0.03747
0.217677
0.0390829
0.217814
0.0407286
0.21792
0.0424177
0.217998
0.0441638
0.218054
0.0459812
0.218089
0.0478852
0.218109
0.0498899
0.218118
0.0520197
0.218112
0.0543116
0.218089
0.0567856
0.218053
0.059457
0.218005
0.0623663
0.217946
0.0655554
0.217877
0.0690683
0.217796
0.0729546
0.2177
0.0772698
0.217586
0.0820772
0.217451
0.0874478
0.217289
0.0934617
0.217095
0.100203
0.21686
0.107789
0.216577
0.116227
0.216233
0.126042
0.215824
0.135845
0.215333
0.150438
0.214772
0.158134
0.182502
0.172589
-0.0428129
0.179556
-0.0321674
0.186035
-0.020825
0.190624
-0.0110692
0.19376
-0.00377366
0.196137
0.00134993
0.198149
0.00506486
0.199861
0.00823954
0.201338
0.0111505
0.202692
0.013604
0.203976
0.0157201
0.205198
0.0177464
0.206316
0.0197663
0.207296
0.0217434
0.208139
0.023648
0.208864
0.0254831
0.209493
0.0272546
0.210045
0.0289699
0.210534
0.0306424
0.210968
0.0322859
0.211354
0.0339128
0.211698
0.0355343
0.212007
0.0371615
0.212285
0.0388053
0.212536
0.0404768
0.212766
0.0421884
0.212977
0.043953
0.213172
0.0457853
0.213357
0.0477003
0.213537
0.0497106
0.213714
0.0518421
0.213887
0.0541393
0.214054
0.0566185
0.214217
0.0592932
0.214376
0.0622073
0.214531
0.0654003
0.214683
0.0689172
0.214829
0.0728077
0.214971
0.0771285
0.215104
0.0819441
0.215225
0.0873269
0.215328
0.0933584
0.215407
0.100124
0.215452
0.107745
0.215454
0.116225
0.215397
0.126099
0.215276
0.135966
0.215069
0.150644
0.214794
0.15841
0.182929
0.161448
-0.0448386
0.167759
-0.0384785
0.17499
-0.0280557
0.180843
-0.0169215
0.184687
-0.00761825
0.187176
-0.00113893
0.189337
0.0029038
0.191316
0.00626067
0.193044
0.00942244
0.194451
0.0121973
0.195645
0.0145255
0.196748
0.016644
0.197818
0.0186963
0.198866
0.0206945
0.199874
0.0226406
0.20081
0.0245464
0.20166
0.0264047
0.202424
0.0282062
0.203111
0.0299556
0.203733
0.0316641
0.204301
0.0333445
0.204825
0.0350103
0.205312
0.0366742
0.205769
0.0383486
0.2062
0.0400454
0.206611
0.0417777
0.207006
0.0435581
0.207391
0.0454003
0.20777
0.0473211
0.208146
0.0493351
0.208524
0.0514635
0.208903
0.0537607
0.209284
0.0562373
0.209672
0.058905
0.210066
0.0618137
0.210467
0.0649994
0.210875
0.0685088
0.21129
0.0723929
0.211709
0.0767093
0.21213
0.0815234
0.212548
0.0869086
0.212958
0.0929482
0.213353
0.0997291
0.213723
0.107375
0.214057
0.115891
0.214337
0.125819
0.214559
0.135744
0.21469
0.150514
0.214759
0.15834
0.183002
0.149921
-0.044293
0.154055
-0.0426124
0.160789
-0.0347899
0.167745
-0.0238772
0.173207
-0.0130802
0.177063
-0.00499505
0.180023
-5.67652e-05
0.182147
0.00413733
0.183888
0.00768092
0.185451
0.010635
0.186951
0.0130252
0.188342
0.0152533
0.189585
0.017453
0.190697
0.0195821
0.191711
0.0216269
0.192648
0.0236092
0.193522
0.0255312
0.194338
0.0273897
0.195103
0.0291914
0.195819
0.0309474
0.196494
0.0326697
0.197133
0.0343709
0.197744
0.0360635
0.198333
0.0377598
0.198906
0.0394723
0.19947
0.0412138
0.20003
0.0429979
0.200592
0.0448389
0.201157
0.0467555
0.201731
0.0487618
0.202319
0.0508747
0.202923
0.0531572
0.203548
0.0556119
0.204199
0.0582546
0.204872
0.0611407
0.205563
0.0643086
0.206271
0.0678006
0.206997
0.071667
0.207739
0.0759665
0.208497
0.0807659
0.209265
0.0861403
0.210038
0.0921749
0.210809
0.0989585
0.211566
0.106618
0.212298
0.115159
0.212982
0.125134
0.213617
0.13511
0.214157
0.149974
0.214643
0.157854
0.182646
0.138549
-0.0423146
0.140245
-0.0443079
0.145684
-0.0402296
0.152511
-0.030704
0.158496
-0.0190652
0.163001
-0.00949947
0.166508
-0.00356449
0.169634
0.00101182
0.171805
0.00551003
0.173234
0.00920567
0.174542
0.0117174
0.176058
0.0137374
0.177716
0.0157949
0.179344
0.0179537
0.180832
0.0201391
0.182162
0.0222791
0.183358
0.0243358
0.184446
0.026301
0.185453
0.0281846
0.186397
0.0300033
0.187293
0.0317741
0.188151
0.0335126
0.188982
0.0352326
0.189794
0.0369477
0.190595
0.0386711
0.191393
0.0404162
0.192192
0.0421984
0.192999
0.0440321
0.193818
0.0459365
0.194659
0.0479208
0.195527
0.0500071
0.196424
0.0522598
0.197347
0.0546896
0.198288
0.0573132
0.199253
0.0601758
0.200247
0.0633149
0.201272
0.066775
0.20233
0.0706091
0.203419
0.0748775
0.204537
0.0796483
0.205679
0.0849979
0.20684
0.0910138
0.208013
0.0977862
0.209184
0.105447
0.210344
0.113998
0.211466
0.124012
0.21255
0.134026
0.213536
0.148988
0.214476
0.156914
0.181804
0.199775
-0.0393681
-0.202721
0.197349
-0.0418826
0.19522
-0.0381006
0.193493
-0.0289772
0.192087
-0.0176586
0.190562
-0.00797461
0.189021
-0.00202394
0.188073
0.00196013
0.187662
0.00592135
0.187372
0.00949491
0.187019
0.0120712
0.186698
0.014058
0.186513
0.0159803
0.186477
0.0179897
0.186564
0.0200518
0.186736
0.0221072
0.18696
0.0241116
0.187214
0.0260469
0.187484
0.0279148
0.187761
0.0297264
0.188038
0.0314964
0.188313
0.0332376
0.188584
0.0349625
0.188848
0.0366835
0.189105
0.0384134
0.189356
0.0401654
0.189601
0.0419541
0.189839
0.043794
0.190074
0.0457016
0.190303
0.0476915
0.190514
0.049796
0.190723
0.0520509
0.190935
0.0544774
0.191145
0.057103
0.191355
0.0599655
0.191566
0.0631038
0.191779
0.0665625
0.191993
0.0703951
0.192209
0.0746617
0.192426
0.0794305
0.192646
0.0847781
0.192868
0.0907921
0.193091
0.0975633
0.193314
0.105223
0.193536
0.113777
0.193757
0.123791
0.193968
0.133814
0.194158
0.148799
0.194361
0.156711
0.181685
0.215082
-0.038629
-0.215821
0.213546
-0.040347
0.21104
-0.0355948
0.208545
-0.0264814
0.206869
-0.0159829
0.205412
-0.00651772
0.203511
-0.000122758
0.201812
0.00365884
0.200939
0.00679487
0.200659
0.00977499
0.200506
0.0122236
0.200318
0.0142462
0.20013
0.0161686
0.200012
0.0181079
0.200001
0.0200626
0.200092
0.0220164
0.200257
0.0239467
0.200469
0.025835
0.200708
0.027675
0.200964
0.029471
0.201227
0.0312326
0.201495
0.0329703
0.201763
0.0346947
0.202029
0.0364174
0.202292
0.0381504
0.202551
0.0399063
0.202806
0.0416987
0.203058
0.0435425
0.203307
0.0454526
0.203547
0.0474509
0.203777
0.049566
0.204008
0.0518203
0.204241
0.0542441
0.204475
0.0568698
0.204709
0.0597311
0.204945
0.0628676
0.205183
0.0663244
0.205424
0.0701544
0.205668
0.0744182
0.205914
0.0791838
0.206164
0.0845284
0.206416
0.0905396
0.206671
0.0973088
0.206927
0.104968
0.20718
0.113523
0.207432
0.123539
0.207676
0.13357
0.207889
0.148586
0.208128
0.156471
0.181539
0.232203
-0.0362836
-0.234548
0.229651
-0.0377953
0.227001
-0.0329451
0.224246
-0.0237265
0.222031
-0.0137675
0.220583
-0.00507025
0.219155
0.00130568
0.217598
0.00521563
0.216376
0.00801726
0.215607
0.0105434
0.215112
0.0127192
0.214768
0.0145901
0.214537
0.0163996
0.214401
0.0182436
0.214356
0.0201081
0.214395
0.0219767
0.214507
0.0238355
0.214672
0.0256697
0.214875
0.0274715
0.215104
0.0292419
0.21535
0.0309868
0.215607
0.0327139
0.215869
0.0344323
0.216135
0.0361519
0.216401
0.0378837
0.216668
0.0396397
0.216934
0.0414329
0.217198
0.043278
0.21746
0.045191
0.217716
0.0471951
0.217969
0.0493127
0.218224
0.051565
0.218481
0.0539868
0.21874
0.0566113
0.219001
0.0594704
0.219264
0.0626038
0.219531
0.0660572
0.219803
0.0698834
0.220078
0.0741429
0.220357
0.0789043
0.220641
0.0842446
0.220929
0.0902521
0.221219
0.0970185
0.221511
0.104676
0.221802
0.113233
0.222089
0.123252
0.222369
0.13329
0.222615
0.148341
0.222888
0.156197
0.181377
0.249158
-0.0338555
-0.251586
0.24631
-0.034948
0.243476
-0.0301104
0.240906
-0.0211567
0.238675
-0.0115369
0.236842
-0.00323725
0.235283
0.00286552
0.233724
0.00677377
0.232407
0.00933507
0.231487
0.0114626
0.230856
0.0133509
0.230398
0.0150482
0.230073
0.0167242
0.22986
0.0184568
0.229744
0.0202239
0.229718
0.0220028
0.22977
0.0237832
0.229886
0.0255545
0.230048
0.0273086
0.230246
0.0290441
0.230469
0.0307636
0.230711
0.0324726
0.230965
0.0341781
0.231228
0.0358887
0.231498
0.0376143
0.231771
0.039366
0.232048
0.0411565
0.232326
0.0430001
0.232603
0.0449137
0.23288
0.046918
0.233159
0.0490341
0.233439
0.051285
0.233721
0.0537044
0.234007
0.0563253
0.234297
0.0591802
0.234592
0.0623088
0.234892
0.065757
0.235198
0.0695777
0.23551
0.0738315
0.235827
0.078587
0.23615
0.0839219
0.236477
0.0899243
0.236809
0.096687
0.237143
0.104342
0.237475
0.1129
0.237803
0.122925
0.238126
0.132967
0.238407
0.148059
0.238715
0.15589
0.18119
0.266124
-0.0319935
-0.267986
0.263778
-0.0326022
0.261035
-0.027367
0.25832
-0.0184423
0.25583
-0.00904683
0.253848
-0.00125492
0.252232
0.00448136
0.250781
0.00822448
0.249508
0.0106089
0.248516
0.0124541
0.247762
0.0141048
0.247174
0.0156362
0.246733
0.0171657
0.246424
0.0187653
0.246229
0.0204192
0.246132
0.0220997
0.246121
0.0237945
0.246181
0.0254943
0.246298
0.0271913
0.24646
0.0288821
0.246657
0.030567
0.24688
0.0322492
0.247124
0.0339344
0.247383
0.0356295
0.247654
0.0373433
0.247934
0.039086
0.248221
0.0408695
0.248513
0.0427081
0.248809
0.044618
0.249108
0.0466183
0.249412
0.0487307
0.249718
0.0509787
0.250029
0.0533934
0.250346
0.0560081
0.25067
0.0588566
0.251
0.0619783
0.251338
0.0654194
0.251683
0.0692327
0.252036
0.0734788
0.252396
0.0782268
0.252763
0.0835544
0.253137
0.0895504
0.253516
0.0963081
0.253898
0.10396
0.254279
0.112518
0.254654
0.122551
0.255025
0.132596
0.255347
0.147737
0.255697
0.15554
0.180972
0.284284
-0.0307118
-0.285565
0.282003
-0.0303219
0.279219
-0.0245829
0.276492
-0.0157149
0.274053
-0.00660826
0.272005
0.000793653
0.270333
0.00615307
0.26889
0.00966738
0.267621
0.0118779
0.266578
0.0134975
0.265746
0.0149367
0.265072
0.0163095
0.26454
0.0176975
0.264144
0.0191613
0.263869
0.0206942
0.2637
0.0222691
0.263624
0.0238709
0.263627
0.0254911
0.263696
0.0271218
0.26382
0.0287584
0.263988
0.0303995
0.26419
0.0320467
0.264421
0.0337038
0.264674
0.0353765
0.264945
0.0370722
0.26523
0.0388004
0.265528
0.0405721
0.265835
0.042401
0.26615
0.0443027
0.266473
0.0462954
0.266803
0.0484011
0.267138
0.0506428
0.267482
0.0530499
0.267834
0.0556559
0.268195
0.0584954
0.268566
0.0616079
0.268946
0.0650394
0.269336
0.068843
0.269735
0.0730793
0.270144
0.0778176
0.270563
0.0831361
0.270989
0.0891238
0.271422
0.095875
0.271859
0.103523
0.272297
0.112081
0.272725
0.122122
0.273152
0.132169
0.273521
0.147368
0.273922
0.155139
0.18072
0.303114
-0.0291279
-0.304698
0.300748
-0.0279553
0.298155
-0.0219898
0.295636
-0.0131959
0.293313
-0.00428518
0.291278
0.00282843
0.289569
0.00786173
0.288122
0.011115
0.286859
0.0131402
0.285786
0.0145701
0.284898
0.0158252
0.284158
0.0170491
0.283553
0.0183034
0.283079
0.0196345
0.28273
0.0210435
0.282492
0.0225076
0.282352
0.0240109
0.282298
0.0255445
0.282319
0.027101
0.282402
0.0286748
0.282538
0.0302636
0.282718
0.0318674
0.282933
0.0334884
0.283178
0.0351313
0.283448
0.0368022
0.283739
0.0385096
0.284047
0.040264
0.284371
0.0420779
0.284707
0.0439665
0.285054
0.0459477
0.285413
0.0480424
0.285782
0.0502738
0.286162
0.0526701
0.286553
0.0552644
0.286957
0.058092
0.287372
0.0611923
0.2878
0.0646115
0.28824
0.0684026
0.288693
0.0726265
0.289158
0.0773526
0.289635
0.0826594
0.290122
0.0886368
0.290617
0.0953796
0.291118
0.103023
0.29162
0.111579
0.292111
0.12163
0.292602
0.131678
0.293026
0.146944
0.293484
0.154681
0.18043
0.322393
-0.0275603
-0.32396
0.320408
-0.0259706
0.318108
-0.0196896
0.315766
-0.010854
0.313578
-0.00209714
0.31163
0.00477646
0.309967
0.00952449
0.308543
0.012539
0.307294
0.014389
0.306207
0.0156571
0.30528
0.0167531
0.304491
0.017838
0.303828
0.0189657
0.303292
0.0201708
0.302878
0.0214575
0.302577
0.0228091
0.302377
0.0242103
0.302269
0.0256523
0.302242
0.0271279
0.302286
0.0286316
0.302389
0.03016
0.302545
0.0317121
0.302744
0.0332893
0.30298
0.0348947
0.303249
0.0365336
0.303545
0.0382137
0.303864
0.0399444
0.304205
0.0417376
0.304563
0.0436079
0.304939
0.0455724
0.30533
0.0476515
0.305735
0.0498682
0.306155
0.0522499
0.306591
0.054829
0.307042
0.057641
0.307508
0.0607258
0.30799
0.0641293
0.308488
0.0679046
0.309002
0.0721129
0.309531
0.0768237
0.310074
0.0821161
0.310631
0.0880805
0.311197
0.0948128
0.311771
0.102449
0.312347
0.111003
0.312911
0.121066
0.313475
0.131114
0.313963
0.146457
0.314489
0.154154
0.180096
0.342999
-0.0264157
-0.344143
0.341234
-0.0242057
0.339118
-0.0175736
0.336948
-0.00868395
0.334935
-8.45348e-05
0.333127
0.00658437
0.331556
0.0110959
0.330187
0.0139074
0.328974
0.0156025
0.327896
0.0167347
0.326953
0.0176967
0.326134
0.0186568
0.325433
0.019667
0.324849
0.0207542
0.324383
0.0219239
0.324028
0.0231642
0.323776
0.0244623
0.323619
0.0258096
0.323547
0.0271995
0.323552
0.0286268
0.323624
0.0300877
0.323755
0.0315807
0.323939
0.0331062
0.324167
0.0346665
0.324434
0.0362662
0.324736
0.0379118
0.325068
0.0396121
0.325428
0.0413784
0.325811
0.0432244
0.326217
0.0451666
0.326644
0.0472249
0.32709
0.0494218
0.327556
0.0517843
0.328041
0.054344
0.328545
0.0571363
0.32907
0.0602014
0.329614
0.0635853
0.330177
0.0673411
0.33076
0.07153
0.331362
0.0762219
0.331982
0.0814965
0.332617
0.0874448
0.333266
0.0941638
0.333924
0.101792
0.334585
0.110342
0.335233
0.120418
0.335883
0.130465
0.336445
0.145895
0.33705
0.153548
0.179711
0.364767
-0.0253542
-0.365829
0.363173
-0.022611
0.361279
-0.0156798
0.359328
-0.00673287
0.357497
0.00174611
0.355849
0.00823253
0.354399
0.0125464
0.353116
0.0151899
0.351962
0.0167568
0.350917
0.0177789
0.349983
0.0186317
0.349155
0.019484
0.348434
0.0203883
0.347821
0.0213675
0.347317
0.0224278
0.34692
0.0235611
0.346625
0.0247572
0.346426
0.0260087
0.346315
0.02731
0.346286
0.0286562
0.34633
0.0300438
0.34644
0.031471
0.346608
0.0329376
0.346829
0.0344454
0.347097
0.0359984
0.347407
0.0376022
0.347754
0.0392651
0.348135
0.0409976
0.348546
0.0428127
0.348986
0.0447265
0.349453
0.046758
0.349945
0.0489296
0.350462
0.0512675
0.351003
0.0538028
0.351569
0.0565707
0.352159
0.0596114
0.352773
0.062971
0.353412
0.0667028
0.354074
0.0708679
0.354759
0.0755367
0.355466
0.0807894
0.356193
0.0867179
0.356936
0.0934204
0.357691
0.101038
0.358451
0.109581
0.359197
0.119671
0.359945
0.129717
0.360593
0.145247
0.361292
0.152849
0.179265
0.387847
-0.0244333
-0.388768
0.386475
-0.0212395
0.38479
-0.0139948
0.383034
-0.00497675
0.381385
0.00339565
0.379903
0.00971425
0.378588
0.0138611
0.37741
0.0163686
0.376333
0.0178333
0.375343
0.0187689
0.37444
0.019535
0.373626
0.0202977
0.372905
0.0211097
0.37228
0.0219923
0.371755
0.0229525
0.371331
0.0239851
0.371005
0.0250828
0.370775
0.0262397
0.370633
0.0274512
0.370576
0.0287133
0.370597
0.030023
0.37069
0.0313786
0.370847
0.0327798
0.371064
0.0342282
0.371336
0.0357271
0.371656
0.0372819
0.372021
0.0389
0.372427
0.0405914
0.372871
0.0423688
0.37335
0.0442473
0.373863
0.0462455
0.374407
0.0483854
0.374982
0.0506928
0.375587
0.0531978
0.376222
0.0559358
0.376886
0.0589467
0.377581
0.0622767
0.378304
0.0659791
0.379057
0.0701153
0.379838
0.0747559
0.380645
0.0799818
0.381477
0.0858861
0.382329
0.0925681
0.383196
0.100171
0.38407
0.108707
0.38493
0.118812
0.385793
0.128854
0.386542
0.144498
0.38735
0.152041
0.178749
0.412459
-0.023684
-0.413208
0.411245
-0.0200257
0.409742
-0.0124913
0.408178
-0.00341316
0.406712
0.00486121
0.405397
0.0110302
0.404222
0.015036
0.403157
0.0174328
0.402173
0.0188174
0.401255
0.0196872
0.400403
0.0203866
0.399624
0.0210772
0.398922
0.0218114
0.398305
0.0226097
0.397777
0.0234801
0.397342
0.0244201
0.397
0.0254246
0.39675
0.0264897
0.39659
0.027612
0.396514
0.0287887
0.39652
0.0300174
0.396601
0.0312969
0.396754
0.0326272
0.396973
0.0340097
0.397252
0.0354476
0.397588
0.0369459
0.397976
0.0385119
0.398413
0.0401548
0.398895
0.0418869
0.399419
0.0437229