/*--------------------------------*- C++ -*----------------------------------*\
| =========                 |                                                 |
| \\      /  F ield         | OpenFOAM: The Open Source CFD Toolbox           |
|  \\    /   O peration     | Version:  2512                                  |
|   \\  /    A nd           | Website:  www.openfoam.com                      |
|    \\/     M anipulation  |                                                 |
\*---------------------------------------------------------------------------*/
FoamFile
{
    version     2.0;
    format      ascii;
    arch        "LSB;label=32;scalar=64";
    class       volVectorField;
    location    "3";
    object      U;
}
// * * * * * * * * * * * * * * * * * * * * * * * * * * * * * * * * * * * * * //

dimensions      [0 1 -1 0 0 0 0];

internalField   nonuniform List<vector> 
9200
(
(-0.0400322 0.0320766 9.06421e-20)
(-0.0556452 0.0680323 -1.61702e-19)
(0.0196466 0.0710793 7.32838e-20)
(0.193707 0.0333785 1.31592e-19)
(0.458075 -0.0342933 -1.19864e-19)
(0.759246 -0.112545 0)
(1.02378 -0.184062 0)
(1.20743 -0.240298 1.70948e-19)
(1.30602 -0.27887 -1.20222e-20)
(1.33955 -0.30104 -1.32084e-19)
(1.33346 -0.310152 -5.03291e-20)
(1.30814 -0.310085 7.76504e-20)
(1.27616 -0.304076 -9.27604e-21)
(1.24368 -0.294332 -5.68539e-20)
(1.21336 -0.282138 0)
(1.18637 -0.269973 7.78285e-20)
(1.1628 -0.256149 -1.04058e-19)
(1.14121 -0.244334 2.7648e-20)
(1.12276 -0.226273 1.79714e-20)
(1.1025 -0.215432 1.25613e-20)
(-0.0391472 0.0268147 3.34075e-21)
(-0.0230178 0.0378324 8.39205e-20)
(0.107997 0.0180363 1.49429e-19)
(0.353661 -0.0296408 0)
(0.66865 -0.088478 0)
(0.966938 -0.143401 0)
(1.18659 -0.187681 0)
(1.31365 -0.220097 -1.217e-19)
(1.36574 -0.241407 1.4942e-19)
(1.37007 -0.253387 5.50326e-20)
(1.3498 -0.258166 -5.40018e-20)
(1.31987 -0.257788 3.96628e-20)
(1.28802 -0.253937 -3.22804e-20)
(1.25736 -0.247476 -2.31545e-20)
(1.22882 -0.239146 1.45494e-19)
(1.20309 -0.230129 -8.93221e-20)
(1.1803 -0.220632 -1.36367e-20)
(1.1604 -0.212727 -2.78862e-21)
(1.14097 -0.197361 -2.04054e-20)
(1.1218 -0.192481 -1.25338e-20)
(-0.0324234 0.020845 -9.3037e-20)
(0.0307415 0.0108954 -8.80591e-20)
(0.234993 -0.0238374 7.7439e-20)
(0.549655 -0.0700411 -1.39369e-19)
(0.880489 -0.112381 0)
(1.14009 -0.145542 0)
(1.29977 -0.169991 0)
(1.37392 -0.187223 -4.1634e-20)
(1.39168 -0.198658 0)
(1.37923 -0.205533 5.87209e-20)
(1.35366 -0.208793 -4.69625e-20)
(1.32401 -0.209223 -1.52354e-19)
(1.29441 -0.207535 1.31871e-19)
(1.26622 -0.204028 2.29945e-20)
(1.23964 -0.19886 -4.51466e-20)
(1.21512 -0.192549 -8.14341e-20)
(1.19344 -0.186813 2.09333e-20)
(1.17409 -0.180546 1.11011e-19)
(1.15646 -0.173366 -5.62811e-20)
(1.13797 -0.167047 0)
(-0.0172283 0.0123708 9.90389e-20)
(0.108966 -0.015031 1.80218e-19)
(0.394594 -0.0534096 1.61992e-19)
(0.754109 -0.0870292 -2.13841e-19)
(1.0648 -0.111076 4.89629e-21)
(1.26921 -0.128041 2.19906e-19)
(1.37337 -0.140412 -9.76295e-20)
(1.4083 -0.149626 3.96082e-20)
(1.40456 -0.156444 0)
(1.38303 -0.161241 -2.75682e-20)
(1.35502 -0.164188 1.34948e-19)
(1.32573 -0.165449 -1.52193e-19)
(1.29741 -0.165358 -5.56494e-20)
(1.27078 -0.164107 5.45382e-20)
(1.2457 -0.161419 -6.07113e-20)
(1.22218 -0.157657 5.35354e-20)
(1.20095 -0.153581 0)
(1.18285 -0.151022 0)
(1.16681 -0.146414 8.85308e-21)
(1.14994 -0.144419 0)
(0.00815076 0.0020142 1.03297e-19)
(0.212424 -0.0371203 -1.42572e-19)
(0.572837 -0.0665097 -1.6737e-19)
(0.942771 -0.0817602 0)
(1.21003 -0.0903415 -6.52214e-20)
(1.35763 -0.0968401 -5.12726e-20)
(1.41624 -0.10267 1.40597e-19)
(1.42321 -0.108136 -1.2164e-19)
(1.40592 -0.113131 6.25239e-20)
(1.3797 -0.11748 -2.96673e-20)
(1.35142 -0.121005 0)
(1.32355 -0.123538 5.60484e-20)
(1.29699 -0.125172 3.10077e-20)
(1.27209 -0.126039 4.78019e-20)
(1.24857 -0.125892 -4.38949e-20)
(1.22607 -0.124334 -3.20174e-20)
(1.20528 -0.122541 2.94315e-20)
(1.18709 -0.120748 -1.11893e-20)
(1.17188 -0.12101 9.15587e-21)
(1.15741 -0.121767 2.77717e-20)
(0.0446011 -0.00810848 2.19164e-19)
(0.337804 -0.0494456 -1.13798e-21)
(0.751353 -0.0599186 0)
(1.10224 -0.0573681 1.13643e-19)
(1.31683 -0.0555529 -3.58481e-20)
(1.41415 -0.0568577 -5.53676e-20)
(1.43895 -0.0605152 3.97558e-21)
(1.42826 -0.0653926 4.27886e-20)
(1.40385 -0.0706292 3.16255e-20)
(1.37571 -0.0757149 -2.61565e-20)
(1.34755 -0.0803324 -4.17576e-20)
(1.3204 -0.0842091 -4.89968e-20)
(1.29466 -0.087336 7.78942e-20)
(1.27071 -0.0899476 5.878e-20)
(1.2484 -0.0918587 -6.13041e-20)
(1.2271 -0.0926849 3.52106e-20)
(1.2067 -0.0921457 0)
(1.18834 -0.0921407 1.14317e-21)
(1.17292 -0.0930057 -2.3806e-20)
(1.15952 -0.0961032 3.14578e-20)
(0.0919479 -0.0154422 -5.95842e-20)
(0.476399 -0.0464887 2.50496e-21)
(0.91473 -0.0338995 -4.68108e-20)
(1.22827 -0.0177635 -1.15168e-19)
(1.39045 -0.010715 1.0247e-19)
(1.44685 -0.0109374 5.28341e-20)
(1.44775 -0.0151261 -9.43181e-20)
(1.42589 -0.0209967 -3.39331e-20)
(1.39726 -0.0273957 6.51582e-20)
(1.36804 -0.0338132 7.53019e-20)
(1.34014 -0.0399896 -1.06411e-19)
(1.31382 -0.045622 3.71262e-20)
(1.28904 -0.0505531 -4.21718e-20)
(1.26609 -0.0549729 1.31047e-20)
(1.24512 -0.058981 -1.98986e-20)
(1.22542 -0.061958 3.04346e-20)
(1.2062 -0.0636027 -3.06275e-21)
(1.18777 -0.0642692 -3.38502e-20)
(1.17128 -0.0657463 8.92582e-21)
(1.15738 -0.06909 0)
(0.148882 -0.0174335 5.96276e-20)
(0.616224 -0.0253165 -1.35202e-19)
(1.05402 0.00920786 9.56227e-20)
(1.32175 0.0334172 1.83287e-20)
(1.43686 0.0411535 -9.87096e-20)
(1.46194 0.0389362 5.80212e-20)
(1.44691 0.0323027 0)
(1.41869 0.0241415 0)
(1.38822 0.0156255 -3.0846e-20)
(1.35887 0.00725279 0)
(1.33142 -0.00078941 5.99353e-20)
(1.30576 -0.0082778 -6.7808e-20)
(1.28157 -0.014998 5.5723e-20)
(1.25906 -0.0211049 -2.41598e-20)
(1.23879 -0.0268653 0)
(1.22057 -0.032084 0)
(1.20322 -0.0359214 0)
(1.18589 -0.0382149 -1.94143e-20)
(1.16899 -0.0395506 2.1906e-20)
(1.15373 -0.0411275 0)
(0.212531 -0.0118814 3.12574e-20)
(0.745792 0.0136775 -9.56467e-22)
(1.16512 0.066084 0)
(1.38541 0.0930343 -8.22969e-21)
(1.46092 0.0978869 1.87183e-20)
(1.4631 0.091644 2.55674e-20)
(1.43785 0.0814668 -2.33443e-20)
(1.40598 0.0703125 -8.23565e-21)
(1.37453 0.0591554 8.4145e-21)
(1.34518 0.048405 0)
(1.31826 0.0381446 1.85425e-20)
(1.29358 0.028506 -2.08537e-20)
(1.27055 0.0197442 -1.24277e-20)
(1.24891 0.0118452 1.39805e-20)
(1.22922 0.00438611 4.11252e-21)
(1.212 -0.00287649 -7.64312e-21)
(1.19659 -0.0095133 0)
(1.18154 -0.0146097 0)
(1.16611 -0.0177784 -1.13929e-20)
(1.1508 -0.0190857 6.76171e-21)
(0.278727 0.00283637 0)
(0.856876 0.0678592 0)
(1.24663 0.133182 0)
(1.42225 0.158577 -6.07977e-22)
(1.46607 0.157811 1.18176e-22)
(1.45233 0.146112 8.15303e-22)
(1.42106 0.131522 5.63028e-21)
(1.38767 0.116649 -8.74807e-21)
(1.35631 0.102223 1.3652e-20)
(1.32752 0.0886032 -5.98134e-21)
(1.30131 0.0757836 0)
(1.27759 0.0637914 3.865e-21)
(1.25582 0.0528628 0)
(1.23531 0.0431258 -2.57998e-21)
(1.21618 0.0342381 4.21414e-21)
(1.19928 0.0255439 0)
(1.1849 0.0168094 0)
(1.17206 0.00852849 0)
(1.15934 0.00204041 0)
(1.14614 -0.00219575 -1.33626e-21)
(-0.0328551 0.00910961 -3.33316e-21)
(-0.121692 0.00815677 0)
(-0.232426 0.00255595 0)
(-0.321273 -0.00436595 -1.2168e-20)
(-0.385338 -0.0138982 2.27225e-20)
(-0.423156 -0.0265926 -9.76059e-23)
(-0.432859 -0.0416408 -4.59264e-21)
(-0.414871 -0.0573426 -7.78604e-21)
(-0.37079 -0.0725225 9.76457e-22)
(-0.303723 -0.0853168 4.64958e-21)
(-0.218381 -0.094269 0)
(-0.120273 -0.0986528 1.40197e-21)
(-0.0154154 -0.0984492 0)
(0.0910867 -0.0940726 3.2889e-22)
(0.194975 -0.0859262 -1.54172e-21)
(0.293727 -0.0752593 0)
(0.384314 -0.0619316 0)
(0.466901 -0.0479594 0)
(0.539164 -0.0318686 0)
(0.603961 -0.0179124 -1.74588e-21)
(-0.0380491 0.0884852 -1.45087e-20)
(-0.122972 0.129631 2.79312e-20)
(-0.22459 0.118602 0)
(-0.304624 0.0904458 4.50132e-20)
(-0.360106 0.0528845 -3.49437e-20)
(-0.388957 0.00716881 -2.16462e-20)
(-0.38857 -0.04461 1.1256e-21)
(-0.360245 -0.0987868 3.99427e-20)
(-0.306352 -0.150961 -1.98928e-20)
(-0.230422 -0.196152 0)
(-0.138148 -0.229997 0)
(-0.0358299 -0.250641 -1.39949e-21)
(0.070032 -0.25814 6.55139e-22)
(0.174761 -0.2544 -9.29379e-22)
(0.274158 -0.240948 4.91712e-21)
(0.367259 -0.221853 -3.10298e-21)
(0.450613 -0.196624 0)
(0.527293 -0.171024 0)
(0.591928 -0.139911 -4.14323e-21)
(0.652446 -0.114975 7.02883e-21)
(-0.0470691 0.150961 3.40543e-20)
(-0.123627 0.23385 -1.56919e-20)
(-0.205534 0.22347 2.29664e-21)
(-0.265818 0.179087 -4.17144e-20)
(-0.30178 0.117488 7.96387e-20)
(-0.311053 0.0424369 -4.89712e-20)
(-0.291054 -0.042831 0)
(-0.243469 -0.13315 0)
(-0.171214 -0.220241 -3.38029e-20)
(-0.079308 -0.29559 0)
(0.0242369 -0.350483 -8.27808e-21)
(0.13161 -0.383366 3.93575e-20)
(0.236174 -0.394981 -2.01532e-20)
(0.334026 -0.388818 5.85518e-21)
(0.421758 -0.368643 0)
(0.500825 -0.340844 0)
(0.567934 -0.30547 0)
(0.62999 -0.270165 -1.32594e-20)
(0.679316 -0.227445 8.69033e-21)
(0.72909 -0.192872 0)
(-0.0559779 0.186473 -3.40273e-20)
(-0.121659 0.308449 -3.48867e-21)
(-0.176503 0.307818 -3.06368e-20)
(-0.208528 0.25536 3.12132e-20)
(-0.21628 0.176151 -2.69149e-20)
(-0.197574 0.0775325 0)
(-0.150623 -0.03597 -5.36822e-20)
(-0.0770519 -0.157356 4.72773e-20)
(0.0181109 -0.274182 -5.75521e-21)
(0.128509 -0.372677 -2.0273e-20)
(0.243762 -0.443282 6.45179e-20)
(0.351637 -0.483233 -3.27951e-20)
(0.447658 -0.494443 3.02885e-21)
(0.530425 -0.482456 -1.74804e-20)
(0.598707 -0.454078 -5.37275e-21)
(0.656096 -0.417949 3.35833e-21)
(0.70072 -0.375752 3.49055e-21)
(0.741988 -0.335889 -3.87937e-21)
(0.772603 -0.288102 -2.84517e-21)
(0.807364 -0.249486 0)
(-0.0610575 0.190904 -1.60868e-19)
(-0.116513 0.34409 1.48943e-19)
(-0.142382 0.362477 0)
(-0.141953 0.311917 -3.65778e-20)
(-0.116794 0.223629 9.73778e-20)
(-0.0654219 0.109315 -6.22618e-20)
(0.0128145 -0.025229 2.22626e-19)
(0.117143 -0.169107 -2.45067e-19)
(0.240919 -0.306817 1.27442e-19)
(0.369235 -0.420532 -3.10148e-20)
(0.48875 -0.500063 4.42626e-20)
(0.589523 -0.541609 1.00203e-21)
(0.668491 -0.549028 -4.55641e-20)
(0.727662 -0.530297 -1.71528e-20)
(0.770252 -0.494597 3.8185e-20)
(0.801798 -0.451825 -1.09344e-20)
(0.822608 -0.405699 0)
(0.842478 -0.366383 -3.7623e-21)
(0.855044 -0.32038 -2.55971e-21)
(0.874792 -0.286411 6.95829e-21)
(-0.0601879 0.1683 -8.58394e-20)
(-0.108477 0.337193 -3.95324e-20)
(-0.110125 0.378809 -7.41535e-20)
(-0.0793657 0.339591 0)
(-0.0213608 0.251829 -6.55493e-20)
(0.0631419 0.130298 1.90317e-19)
(0.176972 -0.0156477 -2.91643e-19)
(0.317575 -0.171713 5.38657e-20)
(0.470104 -0.319801 -8.5235e-20)
(0.613433 -0.439778 1.14955e-19)
(0.730971 -0.519013 0)
(0.815712 -0.556073 6.09047e-20)
(0.869946 -0.557843 2.98368e-20)
(0.900696 -0.534562 -3.22047e-20)
(0.916002 -0.496425 2.95703e-20)
(0.922787 -0.45202 1.22157e-20)
(0.923439 -0.405627 -1.12287e-20)
(0.926581 -0.368588 -7.67636e-22)
(0.925125 -0.327526 1.88048e-21)
(0.934045 -0.302194 9.55182e-22)
(-0.0541589 0.129928 -8.88425e-20)
(-0.0989572 0.293115 1.61773e-19)
(-0.084897 0.352571 -1.51165e-21)
(-0.0306811 0.328727 2.11423e-19)
(0.0561556 0.248408 5.35343e-21)
(0.174768 0.127478 -2.50628e-19)
(0.328889 -0.0209079 -7.31152e-22)
(0.509791 -0.179815 1.59858e-19)
(0.689611 -0.326031 0)
(0.839485 -0.438485 -3.69594e-20)
(0.944543 -0.507418 -4.78789e-20)
(1.0051 -0.534971 1.77072e-19)
(1.03097 -0.530515 -7.78109e-20)
(1.03448 -0.505465 -5.13587e-20)
(1.0268 -0.470145 1.04426e-20)
(1.01469 -0.430267 -1.31407e-20)
(1.00176 -0.389285 0)
(0.993737 -0.355008 0)
(0.983397 -0.319639 1.55973e-20)
(0.985803 -0.299868 -9.0214e-21)
(-0.0462505 0.0899756 -8.94567e-20)
(-0.0896434 0.227909 -8.14951e-20)
(-0.0680059 0.291192 -2.22278e-19)
(0.00278173 0.27797 1.35516e-19)
(0.116421 0.205925 0)
(0.275044 0.0902759 1.22375e-19)
(0.477619 -0.053235 -1.117e-19)
(0.69751 -0.201893 -5.00355e-20)
(0.892219 -0.330621 0)
(1.03242 -0.422637 7.17363e-20)
(1.11275 -0.473816 -5.81153e-20)
(1.14425 -0.489983 -7.26508e-21)
(1.1438 -0.48119 -8.25584e-21)
(1.12667 -0.457496 -6.92697e-20)
(1.104 -0.427744 -2.57884e-20)
(1.08088 -0.395335 9.3823e-20)
(1.06088 -0.363511 7.67361e-22)
(1.04542 -0.332929 -3.95048e-20)
(1.03044 -0.304909 1.41266e-20)
(1.02798 -0.286221 0)
(-0.0405594 0.0592283 -3.66016e-22)
(-0.0816676 0.161607 -8.18911e-20)
(-0.0545153 0.212926 1.46005e-19)
(0.0333903 0.199729 0)
(0.182129 0.132007 0)
(0.393072 0.0233901 0)
(0.644368 -0.105709 0)
(0.885437 -0.229283 2.40297e-19)
(1.07005 -0.327877 -1.73928e-19)
(1.18149 -0.392636 -7.18112e-20)
(1.22915 -0.424797 5.49306e-20)
(1.23344 -0.431693 4.41587e-20)
(1.21419 -0.421857 -3.35153e-20)
(1.18555 -0.402439 7.22752e-20)
(1.15591 -0.379194 -9.57716e-20)
(1.12849 -0.354486 5.02001e-20)
(1.10561 -0.331069 2.97533e-20)
(1.08518 -0.304926 -9.87122e-20)
(1.06815 -0.284868 4.03799e-20)
(1.06024 -0.264334 -9.67456e-21)
(-0.0391023 0.0409953 9.50817e-22)
(-0.0726876 0.107534 2.42204e-19)
(-0.031097 0.136354 -2.18597e-19)
(0.0884283 0.113193 -1.31374e-19)
(0.289858 0.0447221 1.19674e-19)
(0.556828 -0.0529075 0)
(0.834612 -0.155977 0)
(1.06263 -0.245112 -1.80034e-19)
(1.21048 -0.310518 1.20532e-20)
(1.28185 -0.350224 1.39646e-19)
(1.29826 -0.367854 -5.50203e-20)
(1.2832 -0.369559 -7.95976e-20)
(1.25425 -0.361093 1.06095e-20)
(1.22159 -0.346829 5.72693e-20)
(1.19037 -0.329615 0)
(1.1625 -0.312 -4.29223e-20)
(1.13879 -0.294174 9.80976e-20)
(1.1163 -0.274466 1.0418e-20)
(1.09838 -0.258465 -4.4371e-20)
(1.08345 -0.237374 9.69834e-21)
(0.667255 0.00186052 1.1966e-21)
(0.725292 0.0209805 -3.13079e-23)
(0.770948 0.0365363 2.66127e-23)
(0.806841 0.0486346 -2.25508e-23)
(0.835156 0.0575837 0)
(0.858245 0.0645524 4.86476e-22)
(0.877593 0.0702125 -4.6955e-22)
(0.893568 0.0744946 3.36644e-22)
(0.906719 0.0775829 -3.36169e-22)
(0.917918 0.0799839 1.70397e-23)
(0.927637 0.081937 0)
(0.936044 0.0834812 -1.9141e-22)
(0.943339 0.0846903 3.51963e-22)
(0.949713 0.0856296 -3.1808e-22)
(0.955297 0.0863301 2.72029e-22)
(0.960203 0.0868292 -1.25625e-22)
(0.964526 0.0871684 0)
(0.968347 0.0873808 1.00364e-22)
(0.971732 0.0874928 -9.09935e-23)
(0.974739 0.0875276 -7.8786e-23)
(0.977417 0.0875052 7.6079e-23)
(0.979806 0.0874439 -5.89706e-23)
(0.981943 0.0873595 5.72435e-23)
(0.983858 0.0872673 0)
(0.985578 0.087182 0)
(0.987127 0.0871195 0)
(0.988523 0.0870974 0)
(0.989783 0.0871329 -2.40312e-23)
(0.990923 0.0872424 1.16307e-23)
(0.991957 0.0874416 0)
(0.992897 0.0877474 1.05714e-23)
(0.993754 0.088179 0)
(0.994536 0.0887587 9.48421e-24)
(0.995253 0.0895096 -2.77181e-23)
(0.99591 0.0904546 -1.74014e-23)
(0.996513 0.0916188 2.51839e-23)
(0.997069 0.0930294 1.56619e-23)
(0.997583 0.0947153 -1.49681e-25)
(0.99806 0.096707 7.17576e-24)
(0.998505 0.0990372 -3.19245e-26)
(0.998922 0.10174 -2.841e-25)
(0.999314 0.104851 -1.69891e-23)
(0.999687 0.108404 0)
(1.00004 0.112452 0)
(1.00038 0.116951 0)
(1.0007 0.122281 8.15179e-24)
(1.00103 0.127192 -3.01997e-25)
(1.0013 0.135685 6.61434e-24)
(1.00158 0.137738 4.64039e-24)
(1.00181 0.152902 9.79638e-26)
(0.706258 -0.075754 -4.3277e-21)
(0.755025 -0.0376896 4.25566e-21)
(0.792874 -0.00790275 -3.28312e-21)
(0.822049 0.0145611 3.3438e-22)
(0.845614 0.0314289 4.97847e-21)
(0.865918 0.044183 -2.22258e-21)
(0.883245 0.0542226 0)
(0.897496 0.0617233 1.16832e-23)
(0.909439 0.0672092 0)
(0.919876 0.0714708 1.75008e-23)
(0.929024 0.0748672 9.03549e-22)
(0.936994 0.0775568 -8.46281e-22)
(0.943989 0.0797104 0)
(0.950149 0.0814287 2.95151e-23)
(0.955571 0.08277 1.74604e-23)
(0.960356 0.0838023 0)
(0.964592 0.0845879 -4.12465e-22)
(0.968349 0.0851739 7.90853e-22)
(0.97169 0.0856003 -3.72089e-22)
(0.974667 0.0859018 0)
(0.977328 0.0861077 0)
(0.97971 0.0862432 -8.69976e-24)
(0.981848 0.0863299 2.8196e-22)
(0.983771 0.0863872 -6.97565e-24)
(0.985505 0.086432 -2.33345e-22)
(0.987074 0.0864807 0)
(0.988496 0.0865502 -1.02321e-22)
(0.98979 0.0866599 8.65185e-23)
(0.990967 0.0868312 1.16218e-23)
(0.992042 0.0870854 -2.23843e-23)
(0.993026 0.0874421 1.07709e-23)
(0.993931 0.0879186 2.04128e-23)
(0.994766 0.088537 1.06382e-22)
(0.995538 0.0893208 -4.67806e-23)
(0.996255 0.0902941 0)
(0.996921 0.0914829 -9.17826e-23)
(0.997543 0.0929151 1.73103e-23)
(0.998126 0.0946196 4.58816e-23)
(0.998675 0.0966274 1.42234e-23)
(0.999194 0.0989714 -1.32818e-23)
(0.999688 0.101686 0)
(1.00016 0.104807 3.30397e-23)
(1.00061 0.108368 -2.10861e-23)
(1.00105 0.112422 1.72508e-23)
(1.00147 0.116924 -8.92209e-25)
(1.00187 0.122258 -6.63687e-24)
(1.00227 0.127166 -1.05998e-23)
(1.00261 0.135664 7.71493e-24)
(1.00297 0.137709 -5.14331e-24)
(1.00324 0.152877 3.87924e-25)
(0.768576 -0.138043 0)
(0.801517 -0.0852209 6.85411e-21)
(0.825825 -0.0452989 -6.60882e-21)
(0.845633 -0.0155717 5.34885e-21)
(0.8624 0.00717597 -5.15894e-21)
(0.877722 0.0251426 -3.28597e-23)
(0.891714 0.0389869 0)
(0.903453 0.0493262 2.90807e-21)
(0.913627 0.0570946 -2.76173e-21)
(0.922855 0.0631264 -6.9802e-23)
(0.931113 0.0678773 0)
(0.938445 0.0716865 -5.23975e-23)
(0.944997 0.0747904 -1.42407e-21)
(0.950835 0.07729 1.33238e-21)
(0.956022 0.0792697 -1.07365e-21)
(0.96064 0.0808285 1.99508e-21)
(0.964754 0.0820482 -1.82652e-21)
(0.968422 0.0829931 8.68504e-22)
(0.9717 0.0837195 0)
(0.974636 0.0842738 -2.11808e-23)
(0.97727 0.0846946 1.94758e-23)
(0.979639 0.0850138 -1.80206e-23)
(0.981774 0.0852593 -1.65727e-23)
(0.983702 0.085456 0)
(0.985447 0.085625 2.32246e-22)
(0.987032 0.0857857 -2.24264e-22)
(0.988475 0.0859547 0)
(0.989795 0.0861489 -1.26563e-23)
(0.991008 0.0863865 2.38575e-23)
(0.992124 0.08669 4.52775e-23)
(0.993153 0.087087 -2.15116e-23)
(0.994105 0.0876019 1.43408e-22)
(0.994992 0.0882571 -2.16103e-23)
(0.995819 0.0890727 -1.69779e-22)
(0.996594 0.0900725 -3.58427e-23)
(0.997323 0.0912846 1.69275e-23)
(0.998011 0.0927375 7.88846e-23)
(0.998663 0.0944606 -9.24723e-23)
(0.999284 0.0964853 1.31821e-25)
(0.999878 0.0988444 2.65832e-23)
(1.00045 0.101573 2.47288e-23)
(1.001 0.104707 -2.2677e-23)
(1.00153 0.10828 -8.04118e-23)
(1.00205 0.112345 3.43153e-24)
(1.00255 0.116858 1.76688e-23)
(1.00303 0.122202 0)
(1.00351 0.127115 3.18362e-23)
(1.00391 0.135624 -1.22997e-23)
(1.00437 0.137671 -3.06034e-24)
(1.00467 0.152851 -3.10826e-24)
(0.833377 -0.184908 3.6134e-23)
(0.851833 -0.121953 -3.6816e-23)
(0.862831 -0.0744661 4.66383e-23)
(0.872513 -0.0393813 4.24428e-23)
(0.882626 -0.0126794 0)
(0.892908 0.00875537 -5.9033e-23)
(0.902504 0.0253392 0)
(0.911174 0.0378524 -4.72399e-23)
(0.919195 0.0475115 2.46521e-21)
(0.926831 0.0550481 -4.48569e-21)
(0.933938 0.0609717 2.03688e-21)
(0.940469 0.0657834 -2.63921e-23)
(0.946435 0.0697627 2.33044e-23)
(0.951828 0.0730158 4.10463e-23)
(0.956689 0.075649 -1.15372e-21)
(0.961073 0.0777691 1.45845e-22)
(0.965019 0.0794585 9.62331e-22)
(0.968567 0.0807908 7.83609e-22)
(0.97176 0.0818349 -7.81276e-22)
(0.974638 0.0826497 2.14745e-23)
(0.977235 0.0832848 -1.97406e-23)
(0.979583 0.0837814 1.82605e-23)
(0.98171 0.0841754 3.4334e-23)
(0.98364 0.0844972 4.72508e-22)
(0.985396 0.0847744 -4.87094e-22)
(0.986997 0.085032 -4.49039e-22)
(0.988462 0.0852912 4.33481e-22)
(0.989806 0.0855711 -2.31694e-25)
(0.991046 0.085888 3.61106e-22)
(0.992196 0.0862573 -7.85233e-22)
(0.993269 0.0866987 3.54479e-22)
(0.994271 0.087243 3.33704e-22)
(0.99521 0.0879255 -3.22235e-22)
(0.996092 0.0887686 0)
(0.996925 0.0897932 -1.07701e-22)
(0.997716 0.0910263 1.38926e-22)
(0.99847 0.0924974 6.5198e-23)
(0.999191 0.0942371 -3.06556e-23)
(0.999884 0.0962771 -2.87785e-23)
(1.00055 0.0986509 0)
(1.0012 0.101393 -1.21983e-22)
(1.00183 0.104541 1.16626e-22)
(1.00245 0.108129 4.12113e-23)
(1.00304 0.11221 0)
(1.00363 0.116736 -2.97874e-23)
(1.00419 0.122098 2.87918e-23)
(1.00475 0.127024 -1.1903e-23)
(1.00522 0.135552 -9.03696e-24)
(1.00575 0.137612 0)
(1.0061 0.152818 3.10351e-24)
(0.888608 -0.221946 -7.43807e-21)
(0.895394 -0.154232 7.19878e-21)
(0.896841 -0.100545 5.60648e-23)
(0.899288 -0.0596173 0)
(0.903637 -0.0286789 0)
(0.909192 -0.00515007 6.03964e-23)
(0.914784 0.0132723 0)
(0.920275 0.0275011 -5.47882e-21)
(0.925968 0.0387405 5.32703e-21)
(0.931748 0.0475848 0)
(0.937463 0.0545934 3.09888e-23)
(0.943017 0.0603458 -3.19563e-21)
(0.948273 0.0651273 3.18653e-21)
(0.95314 0.0690589 -2.39888e-25)
(0.957614 0.0722694 -1.14558e-21)
(0.961709 0.0748766 2.09604e-21)
(0.965434 0.0769756 -9.87823e-22)
(0.968816 0.0786545 0)
(0.97189 0.0799919 7.58016e-22)
(0.974684 0.081054 -6.86732e-22)
(0.977226 0.0818959 0)
(0.97954 0.0825649 5.93463e-22)
(0.98165 0.0831018 -5.72273e-22)
(0.983577 0.083542 -2.88557e-25)
(0.98534 0.0839179 0)
(0.986958 0.0842579 0)
(0.988445 0.0845885 -4.6392e-22)
(0.989818 0.0849358 4.46989e-22)
(0.991088 0.0853199 0)
(0.992269 0.0857598 2.35251e-23)
(0.993375 0.0862687 0)
(0.994421 0.0868596 0)
(0.995414 0.0875671 -3.2453e-22)
(0.996352 0.0884276 3.52223e-22)
(0.997244 0.0894716 0)
(0.998097 0.0907248 -3.12697e-22)
(0.998916 0.0922136 2.34841e-22)
(0.999706 0.0939681 3.13305e-23)
(1.00047 0.0960213 1.15127e-22)
(1.00122 0.0984075 -1.11133e-22)
(1.00194 0.101163 0)
(1.00265 0.104324 0)
(1.00335 0.107925 0)
(1.00403 0.112023 -3.32159e-23)
(1.0047 0.116566 1.00202e-22)
(1.00534 0.121949 -2.70123e-23)
(1.00598 0.126894 -2.65706e-24)
(1.00652 0.135446 -2.45307e-23)
(1.00713 0.137528 6.151e-24)
(1.00754 0.152776 0)
(0.936952 -0.249296 2.02456e-21)
(0.933104 -0.18503 -7.65053e-21)
(0.927326 -0.126924 4.7437e-21)
(0.924689 -0.0796001 6.95867e-21)
(0.924148 -0.0437013 -6.67032e-21)
(0.925475 -0.017361 0)
(0.927808 0.00225099 -5.74882e-21)
(0.930519 0.0177779 5.50014e-21)
(0.933871 0.0301589 4.75973e-21)
(0.93767 0.0399607 -4.55488e-21)
(0.941815 0.0478248 0)
(0.946182 0.0543675 -5.47199e-23)
(0.95053 0.0598942 0)
(0.954712 0.0645421 -2.66638e-21)
(0.95869 0.0684232 4.8733e-21)
(0.962431 0.0716283 -2.2597e-21)
(0.965905 0.0742407 0)
(0.969107 0.0763497 -2.76171e-23)
(0.972051 0.0780425 0)
(0.974753 0.0793959 2.74284e-25)
(0.977231 0.0804763 0)
(0.979504 0.0813402 0)
(0.981591 0.0820359 1.06862e-21)
(0.983509 0.0826055 -1.60077e-21)
(0.985275 0.0830858 1.01735e-21)
(0.986905 0.0835087 -4.84326e-22)
(0.988415 0.0839066 2.81708e-23)
(0.989816 0.0843054 -4.52768e-22)
(0.99112 0.0847354 4.10662e-22)
(0.992339 0.0852194 3.85543e-22)
(0.993482 0.0857824 -4.59011e-24)
(0.994564 0.0864363 -3.54086e-22)
(0.9956 0.0871929 3.32452e-22)
(0.996593 0.0880753 -3.60216e-22)
(0.997545 0.0891277 0)
(0.998461 0.0903898 -2.477e-22)
(0.999345 0.0918912 3.99677e-23)
(1.0002 0.0936596 2.57892e-22)
(1.00104 0.0957265 0)
(1.00186 0.098126 5.56808e-23)
(1.00267 0.100895 -9.98818e-23)
(1.00346 0.10407 9.63221e-23)
(1.00424 0.107687 0)
(1.005 0.111802 -3.73846e-23)
(1.00575 0.116365 -9.31052e-23)
(1.00648 0.121772 6.08501e-23)
(1.00721 0.12674 4.54348e-23)
(1.00782 0.135322 0)
(1.00851 0.13743 0)
(1.00898 0.15273 6.12278e-24)
(0.981463 -0.263879 -1.91708e-21)
(0.969204 -0.211013 1.85303e-21)
(0.956756 -0.153108 0)
(0.949254 -0.100627 -2.07634e-23)
(0.944514 -0.0596062 3.20371e-23)
(0.941438 -0.0298427 0)
(0.940592 -0.00785716 0)
(0.941213 0.00974491 -3.61507e-23)
(0.942442 0.0235092 -4.1898e-24)
(0.944313 0.0343083 -4.14577e-21)
(0.946854 0.0428923 3.93869e-21)
(0.949976 0.0500075 0)
(0.953372 0.0560327 0)
(0.956818 0.0611361 -4.26596e-23)
(0.960223 0.0654316 3.84455e-23)
(0.963518 0.0690085 0)
(0.966646 0.0719537 -1.95603e-21)
(0.969587 0.0743575 1.9137e-21)
(0.972339 0.0763074 1.59318e-21)
(0.974903 0.0778822 -1.60775e-21)
(0.977287 0.0791508 0)
(0.979497 0.0801732 1.26872e-21)
(0.981545 0.0810017 -1.22286e-21)
(0.983443 0.0816816 1.07068e-21)
(0.985205 0.0822527 6.36545e-24)
(0.986842 0.0827506 -1.03217e-21)
(0.988367 0.0832077 -9.26625e-22)
(0.989794 0.0836527 9.20396e-22)
(0.991131 0.0841176 0)
(0.992388 0.0846289 0)
(0.993575 0.08522 0)
(0.994701 0.0859105 -4.53471e-23)
(0.995776 0.0867208 0)
(0.996813 0.0876554 3.24287e-22)
(0.997821 0.0887405 -5.80703e-22)
(0.998801 0.0900174 3.3272e-22)
(0.999753 0.0915253 -6.91717e-23)
(1.00068 0.0932987 -3.23894e-23)
(1.00159 0.0953712 -2.6968e-22)
(1.00249 0.0977781 1.73989e-22)
(1.00337 0.100556 0)
(1.00425 0.103743 -4.78426e-23)
(1.00511 0.107375 -4.31268e-23)
(1.00596 0.111509 0)
(1.0068 0.116094 0)
(1.00761 0.121531 0)
(1.00842 0.126528 -1.91753e-23)
(1.00911 0.135149 2.14348e-23)
(1.00988 0.13729 1.24899e-23)
(1.01044 0.152658 -6.10413e-24)
(1.02015 -0.266297 6.56673e-21)
(1.0036 -0.229489 -6.34254e-21)
(0.985788 -0.177257 -5.69508e-22)
(0.972986 -0.122512 5.25257e-22)
(0.964114 -0.0770081 -3.34892e-23)
(0.95804 -0.0433354 0)
(0.954817 -0.0190679 2.99011e-23)
(0.953119 -0.00122221 6.89476e-23)
(0.951983 0.0136143 4.07903e-21)
(0.951674 0.0257553 -3.99399e-21)
(0.952359 0.0353486 3.69127e-21)
(0.954035 0.0432961 -2.02785e-22)
(0.956318 0.0501163 -3.17382e-21)
(0.958914 0.0560168 4.43894e-23)
(0.961687 0.0610759 -3.99798e-23)
(0.964522 0.0653405 -2.25883e-21)
(0.96732 0.068876 4.19159e-21)
(0.970021 0.0717734 -1.06109e-22)
(0.972595 0.0741328 -1.74262e-21)
(0.975031 0.0760476 1.51783e-21)
(0.977322 0.077599 -1.48538e-21)
(0.97947 0.0788565 0)
(0.98148 0.0798798 -1.18975e-21)
(0.983358 0.0807201 2.33187e-21)
(0.985114 0.0814227 -1.14035e-21)
(0.986757 0.0820271 1.04858e-21)
(0.988298 0.0825697 -9.78633e-22)
(0.989748 0.0830828 9.09847e-22)
(0.991116 0.0835988 -8.48514e-22)
(0.992412 0.0841456 -8.20209e-22)
(0.993643 0.0847562 7.64787e-22)
(0.994817 0.0854598 -3.00799e-22)
(0.995943 0.0862784 3.12222e-22)
(0.997027 0.0872336 0)
(0.998084 0.0883471 -3.97098e-23)
(0.999119 0.08965 -3.75265e-23)
(1.00014 0.0911782 3.15961e-22)
(1.00113 0.0929671 -3.03368e-22)
(1.00212 0.0950525 -2.138e-22)
(1.00309 0.0974713 2.64468e-22)
(1.00405 0.100261 0)
(1.00501 0.103462 2.36552e-22)
(1.00596 0.107109 -2.21411e-22)
(1.0069 0.111263 7.28141e-24)
(1.00783 0.115869 7.06396e-23)
(1.00873 0.121334 0)
(1.00963 0.12636 -1.94349e-23)
(1.0104 0.135015 1.88829e-23)
(1.01124 0.137191 9.81968e-24)
(1.0119 0.152612 0)
(1.05018 -0.258291 1.09816e-20)
(1.03365 -0.239498 -1.057e-20)
(1.01341 -0.198473 -2.84648e-21)
(0.995845 -0.144835 2.7905e-21)
(0.982822 -0.0938594 1.8606e-21)
(0.973145 -0.0542815 -1.82064e-21)
(0.966539 -0.0262226 -3.14841e-23)
(0.963444 -0.00525646 -3.28423e-23)
(0.961868 0.0113005 3.23667e-23)
(0.960024 0.0235431 -1.30732e-23)
(0.958937 0.0331116 -2.91745e-23)
(0.959217 0.0409491 2.70311e-23)
(0.960413 0.0476315 -3.00736e-21)
(0.96209 0.0534922 2.89579e-21)
(0.964063 0.0586379 0)
(0.966234 0.0630849 1.90033e-23)
(0.96851 0.0668485 -1.71253e-23)
(0.970817 0.0699812 0)
(0.973104 0.0725626 1.75249e-21)
(0.975333 0.0746767 -1.66047e-21)
(0.977479 0.0764 -2.369e-23)
(0.979527 0.0778009 -1.37934e-21)
(0.98147 0.0789402 1.3268e-21)
(0.983307 0.0798721 1.88571e-23)
(0.985042 0.0806454 1.14421e-21)
(0.98668 0.081304 -1.08317e-21)
(0.988228 0.0818871 0)
(0.989695 0.0824314 0)
(0.991087 0.082967 8.69092e-22)
(0.992414 0.0835313 -8.75894e-22)
(0.993684 0.0841431 -1.42651e-25)
(0.9949 0.0848531 -2.4053e-23)
(0.996072 0.0856743 -6.59645e-22)
(0.997209 0.0866344 7.21543e-22)
(0.998322 0.0877588 3.26214e-22)
(0.999417 0.0890746 -3.13363e-22)
(1.0005 0.0906136 0)
(1.00156 0.0924109 -2.35993e-22)
(1.00262 0.0945038 2.59365e-22)
(1.00367 0.0969307 2.42579e-25)
(1.00471 0.0997306 -2.12431e-22)
(1.00575 0.102945 1.78984e-22)
(1.00679 0.10661 0)
(1.00782 0.110787 0)
(1.00884 0.115423 6.35735e-23)
(1.00984 0.12093 -6.0984e-23)
(1.01082 0.125996 -1.97339e-23)
(1.01168 0.134719 2.75834e-24)
(1.01258 0.136935 -4.8128e-24)
(1.01337 0.152463 0)
(1.06921 -0.243136 -2.95089e-23)
(1.05582 -0.239534 0)
(1.0385 -0.216178 6.93908e-21)
(1.02032 -0.174253 -1.03596e-20)
(1.00455 -0.125583 3.51718e-21)
(0.991397 -0.0823488 5.05702e-24)
(0.981183 -0.0489254 0)
(0.974264 -0.0234691 0)
(0.969604 -0.00412126 0)
(0.966395 0.0112994 1.38534e-23)
(0.964441 0.0233418 3.22858e-21)
(0.963689 0.0327999 -3.10574e-21)
(0.96399 0.0407659 -2.98865e-21)
(0.964933 0.0477172 2.87348e-21)
(0.966278 0.0538018 0)
(0.967913 0.0590575 1.91392e-23)
(0.969743 0.0635026 2.15117e-21)
(0.97169 0.0671964 -4.07677e-21)
(0.973693 0.0702342 8.26828e-23)
(0.975704 0.0727187 3.44959e-21)
(0.977686 0.074744 -1.5981e-21)
(0.979614 0.0763932 -1.44853e-21)
(0.981474 0.0777384 1.39169e-21)
(0.983257 0.078842 1.98956e-23)
(0.984962 0.0797588 -1.8616e-23)
(0.986588 0.0805374 1.11066e-21)
(0.988139 0.0812206 -1.06652e-21)
(0.98962 0.0818484 0)
(0.991037 0.0824544 9.36054e-22)
(0.992396 0.0830797 -1.77128e-21)
(0.993706 0.0837468 8.77339e-22)
(0.994973 0.0845071 0)
(0.996194 0.0853696 -2.36839e-23)
(0.99738 0.0863505 -2.24337e-23)
(0.998545 0.0874835 -6.75126e-22)
(0.999697 0.0888032 6.47395e-22)
(1.00084 0.090344 0)
(1.00197 0.0921429 2.78288e-22)
(1.0031 0.0942381 -2.66715e-22)
(1.00423 0.0966684 -2.68577e-22)
(1.00536 0.0994738 2.283e-22)
(1.00648 0.102696 2.52703e-23)
(1.00761 0.106373 0)
(1.00873 0.110569 0)
(1.00984 0.115224 6.47733e-23)
(1.01093 0.120766 -6.1994e-23)
(1.012 0.125857 0)
(1.01297 0.134629 0)
(1.01391 0.136893 -8.39421e-24)
(1.01485 0.15244 3.25018e-24)
(1.08057 -0.211118 0)
(1.0699 -0.214694 0)
(1.05368 -0.202944 0)
(1.03746 -0.169813 0)
(1.02428 -0.123801 0)
(1.01129 -0.0795483 0)
(0.997912 -0.046046 0)
(0.987485 -0.0219753 0)
(0.980906 -0.00304202 0)
(0.976125 0.0118822 0)
(0.972396 0.0227702 0)
(0.970188 0.0310962 0)
(0.969202 0.0382286 0)
(0.969027 0.0447326 0)
(0.969489 0.0506907 0)
(0.970457 0.0560265 0)
(0.971778 0.0606695 0)
(0.973322 0.0646158 0)
(0.975 0.0679205 0)
(0.976747 0.0706652 0)
(0.978514 0.0729352 0)
(0.980271 0.0748092 0)
(0.981995 0.0763563 0)
(0.983673 0.0776376 0)
(0.985298 0.0787072 0)
(0.986866 0.079614 0)
(0.988378 0.0804024 0)
(0.989836 0.0811126 0)
(0.991245 0.0817851 0)
(0.992607 0.082453 0)
(0.993932 0.0831569 0)
(0.995219 0.0839238 0)
(0.996463 0.0847683 0)
(0.997677 0.0857241 0)
(0.998881 0.0868382 0)
(1.00008 0.0881461 0)
(1.00127 0.0896798 0)
(1.00246 0.0914747 0)
(1.00366 0.093568 0)
(1.00485 0.0959989 0)
(1.00605 0.0988081 0)
(1.00725 0.102039 0)
(1.00845 0.10573 0)
(1.00965 0.109947 0)
(1.01085 0.114633 0)
(1.01202 0.120217 0)
(1.01317 0.125362 0)
(1.01423 0.134205 0)
(1.01519 0.136531 0)
(1.01629 0.152261 0)
(1.08559 -0.197364 0)
(1.07808 -0.202976 0)
(1.06251 -0.187286 0)
(1.04459 -0.151231 0)
(1.03066 -0.106107 0)
(1.01807 -0.0645877 0)
(1.00511 -0.0339214 0)
(0.994814 -0.0126405 0)
(0.98763 0.00350619 0)
(0.982135 0.0159245 0)