/*--------------------------------*- C++ -*----------------------------------*\
| =========                 |                                                 |
| \\      /  F ield         | OpenFOAM: The Open Source CFD Toolbox           |
|  \\    /   O peration     | Version:  2312                                  |
|   \\  /    A nd           | Website:  www.openfoam.com                      |
|    \\/     M anipulation  |                                                 |
\*---------------------------------------------------------------------------*/
FoamFile
{
    version     2.0;
    format      ascii;
    arch        "LSB;label=32;scalar=64";
    class       volScalarField;
    location    "37.5";
    object      p;
}
// * * * * * * * * * * * * * * * * * * * * * * * * * * * * * * * * * * * * * //

dimensions      [0 2 -2 0 0 0 0];

internalField   nonuniform List<scalar> 
940
(
-0.306475
-0.277778
-0.264758
-0.249761
-0.228289
-0.216523
-0.318264
-0.293406
-0.252523
-0.220091
-0.196317
-0.174169
-0.309002
-0.266017
-0.223941
-0.178506
-0.152568
-0.126692
-0.240575
-0.254699
-0.278405
-0.280723
-0.294114
-0.272908
-0.278893
-0.272839
-0.306155
-0.272028
-0.305018
-0.255516
-0.283189
-0.262535
-0.290262
-0.27094
-0.264467
-0.267546
-0.259552
-0.267229
-0.262438
-0.254801
-0.230279
-0.185516
-0.168336
-0.125029
-0.0413401
-0.0108944
-0.00702103
-0.00252705
-0.000345991
0.000948372
0.000930425
0.00092887
-0.223816
-0.265197
-0.266738
-0.289109
-0.302388
-0.179544
-0.0670987
-0.0511752
-0.0362741
-0.0312057
-0.018455
-0.00642279
-0.00293199
-0.00106471
-0.000298815
-1.70678e-05
-0.242548
-0.246274
-0.259326
-0.270747
-0.30379
-0.223599
-0.0830072
-0.0435864
-0.0463951
-0.0418428
-0.0253649
-0.0111943
-0.00504886
-0.00148044
-0.000318696
0.000209896
-0.218754
-0.233756
-0.240353
-0.242566
-0.26478
-0.212051
-0.0967136
-0.0551951
-0.0519386
-0.0443803
-0.0266305
-0.0133403
-0.00688609
-0.00266896
-0.000809606
0.000210252
-0.181434
-0.199255
-0.204731
-0.20037
-0.200221
-0.167822
-0.0946633
-0.0587035
-0.0522641
-0.0416342
-0.026112
-0.0150692
-0.00873042
-0.00426364
-0.00161619
-0.000108801
-0.144236
-0.164124
-0.173089
-0.171246
-0.16753
-0.15102
-0.101823
-0.0676702
-0.0566271
-0.0459692
-0.0306948
-0.0180831
-0.0103413
-0.00483099
-0.00189482
-0.000180939
-0.10893
-0.126142
-0.133732
-0.131166
-0.123787
-0.11087
-0.0863812
-0.0631592
-0.0520589
-0.0411897
-0.0276789
-0.0179209
-0.0118107
-0.00633211
-0.00256172
-0.00017555
-0.0775555
-0.0925542
-0.102358
-0.105809
-0.104494
-0.0992043
-0.0848477
-0.0671572
-0.0555298
-0.0467315
-0.0353015
-0.0242268
-0.0157875
-0.00892399
-0.00417221
-0.00094612
-0.049946
-0.0608008
-0.0683117
-0.0710043
-0.0696857
-0.0656172
-0.0590709
-0.0514728
-0.0444016
-0.0370737
-0.0279874
-0.019724
-0.0135901
-0.00777741
-0.00308229
-0.000189026
-0.0336075
-0.0424266
-0.0497441
-0.0546374
-0.0571216
-0.05761
-0.0561696
-0.0523789
-0.0474187
-0.0424909
-0.0362473
-0.0289323
-0.0210907
-0.0134483
-0.00691435
-0.00184654
-0.0105591
-0.0166209
-0.0222837
-0.0266643
-0.0294746
-0.0309167
-0.0312779
-0.0307993
-0.0297548
-0.027866
-0.0244687
-0.0197171
-0.0141264
-0.00805771
-0.00285587
2.26465e-07
-0.00524106
-0.0102722
-0.0153182
-0.0198765
-0.0236786
-0.0267862
-0.0292626
-0.0309399
-0.031592
-0.0313398
-0.0300794
-0.0278057
-0.022825
-0.0151444
-0.00727673
-0.00176899
0.00879746
0.00459796
-1.97645e-07
-0.0044665
-0.0085081
-0.0119508
-0.0151445
-0.018122
-0.0200856
-0.0212297
-0.0216089
-0.0198722
-0.014898
-0.00755672
-0.00125232
0.000644352
-0.110202
-0.148205
-0.192816
-0.093742
-0.114968
-0.149472
-0.0727625
-0.0889379
-0.112237
-0.0570759
-0.0695556
-0.084942
-0.0414224
-0.0498176
-0.060296
-0.025501
-0.0313514
-0.0385796
-0.0144682
-0.0189394
-0.0250132
0.00121572
-0.00180865
-0.00540566
0.0073725
0.00367381
-0.000441404
0.0194314
0.0157325
0.0124349
0.0524817
0.0522851
0.0491253
0.0225389
0.00295285
-0.165873
-0.00783346
-0.0251632
-0.0391293
-0.100539
-0.131688
-0.331532
-0.073634
-0.0984252
-0.122308
-0.178438
-0.221383
-0.345103
0.201335
0.241745
0.291738
0.35041
0.403651
0.436088
0.173365
0.201205
0.235673
0.278021
0.320433
0.326688
0.118995
0.131409
0.145688
0.154658
0.156999
0.0682184
0.0393267
0.0261497
0.0480618
0.038392
0.0616849
0.0642246
0.0887791
0.108598
0.137614
0.16761
0.046058
0.0314295
0.0528691
0.0421126
0.0634044
0.0654708
0.0858505
0.102682
0.129311
0.149572
0.052272
0.0370515
0.0563158
0.0464247
0.0654502
0.0697901
0.089176
0.100888
0.118679
0.117021
0.0574099
0.0421665
0.0589956
0.049453
0.0646802
0.0686649
0.0786251
0.0844839
0.0840002
0.0718506
0.0626654
0.047204
0.0609219
0.0520761
0.0610682
0.0655106
0.0669844
0.068567
0.0611478
0.0493247
0.0693143
0.053007
0.0630772
0.0545877
0.0583016
0.0603805
0.0578901
0.0531105
0.0434835
0.0309325
0.0773987
0.0609999
0.0654537
0.0587173
0.0560448
0.0551264
0.0494455
0.0408709
0.0304205
0.0189633
0.0873237
0.0725845
0.068062
0.0624742
0.0547715
0.0501989
0.0418505
0.0320468
0.0214558
0.0112565
0.100981
0.0873105
0.0746339
0.0681668
0.0573802
0.0490908
0.0397059
0.0302308
0.0209853
0.0123962
0.11912
0.101399
0.0803012
0.0713879
0.0589443
0.0483227
0.038235
0.0291082
0.0208115
0.0132816
0.155926
0.126441
0.100026
0.0847815
0.0704919
0.0581506
0.0477488
0.0389475
0.0313525
0.024635
0.183752
0.137516
0.10681
0.0898232
0.07422
0.0610409
0.0505244
0.0421364
0.0352444
0.0292615
0.332143
0.185553
0.143235
0.117898
0.0962668
0.0787036
0.0652704
0.0551554
0.0475664
0.0416993
0.0463557
-0.00851174
-0.063998
0.028764
-0.0205171
-0.0607701
0.0149186
-0.0173824
-0.0481642
0.00549828
-0.0162734
-0.039196
-0.000534443
-0.016063
-0.0307711
0.00278044
-0.00842411
-0.0182365
0.0051186
-0.00329985
-0.00975663
0.0175431
0.0103725
0.0050291
0.023109
0.0167876
0.0114892
0.0358719
0.0296073
0.0240466
-0.326586
-0.32105
-0.328815
-0.292127
-0.29923
-0.270722
-0.27072
-0.261159
-0.230535
-0.265278
-0.230974
-0.185626
-0.251065
-0.207965
-0.161486
-0.236032
-0.185352
-0.138119
-0.253094
-0.299325
-0.291019
-0.26473
-0.284091
-0.264779
-0.291661
-0.327833
-0.289438
-0.294503
-0.30739
-0.294026
-0.322074
-0.346894
-0.294248
-0.297484
-0.33813
-0.29918
-0.290271
-0.294349
-0.284086
-0.278549
-0.283502
-0.269045
-0.260332
-0.263158
-0.252224
-0.223932
-0.21822
-0.229279
-0.180963
-0.156983
-0.186653
-0.184816
-0.167331
-0.167033
-0.238002
-0.251783
-0.197381
-0.190678
-0.222027
-0.191146
-0.0503049
-0.0412195
-0.0854369
0.000970713
0.0448631
-0.00519151
0.00388523
0.0345289
0.0243812
0.00122949
0.00623557
0.0122796
0.00217295
0.00224175
0.0019745
0.00299053
0.00207436
0.00035843
0.00156496
0.00115901
0.000548707
0.00126999
0.000777161
0.000325423
-0.247123
-0.188051
-0.156892
-0.123666
-0.0997298
-0.0860938
-0.0738072
-0.0722238
-0.0682353
-0.0697724
-0.253294
-0.201885
-0.173962
-0.135749
-0.110012
-0.0919568
-0.0768961
-0.0732412
-0.0687162
-0.069175
-0.229237
-0.195045
-0.172862
-0.140586
-0.116208
-0.0960659
-0.0797844
-0.0740989
-0.0690722
-0.0684954
-0.207142
-0.181795
-0.163201
-0.137431
-0.116444
-0.0973226
-0.0814404
-0.0743336
-0.0690511
-0.0677594
-0.180091
-0.165858
-0.151334
-0.130321
-0.112816
-0.0956976
-0.0813767
-0.0736995
-0.0685635
-0.0667349
-0.157354
-0.148108
-0.136711
-0.120596
-0.106142
-0.0915841
-0.0793627
-0.0720477
-0.0673269
-0.0651962
-0.17398
-0.145066
-0.130194
-0.110344
-0.0978395
-0.085168
-0.0754441
-0.0690822
-0.0650012
-0.0628233
-0.161347
-0.128519
-0.118015
-0.0953095
-0.0876398
-0.0759667
-0.0695865
-0.064478
-0.0612233
-0.0592447
-0.0814259
-0.0731152
-0.0740175
-0.0665913
-0.0681365
-0.0629286
-0.0612108
-0.0582935
-0.0561125
-0.0544041
-0.0148306
-0.0210065
-0.0312815
-0.0358861
-0.0448861
-0.0469618
-0.0504543
-0.0500892
-0.04938
-0.0478709
0.00705422
0.00398374
-0.00969142
-0.0158707
-0.0272168
-0.0324232
-0.03899
-0.040793
-0.0415385
-0.0401028
0.00555998
0.000986197
-0.00529727
-0.0110938
-0.0179264
-0.023137
-0.028511
-0.0311462
-0.0326086
-0.0313874
-0.000116499
-0.00241399
-0.00516778
-0.00845313
-0.0125453
-0.0161117
-0.020045
-0.0222045
-0.0237096
-0.0228924
-0.00121284
-0.00248954
-0.00377011
-0.00559271
-0.00789075
-0.0101939
-0.0128715
-0.0145167
-0.0159253
-0.0154208
-0.000140385
-0.000981138
-0.00172137
-0.00296507
-0.00413074
-0.00550704
-0.00697112
-0.00806774
-0.00897629
-0.00879146
4.58418e-05
-0.000239071
-0.00035166
-0.000882033
-0.00108727
-0.00168353
-0.00203927
-0.00248996
-0.00279367
-0.0028086
-0.124156
-0.110203
-0.0933959
-0.085146
-0.07548
-0.0709404
-0.0663727
-0.0682052
-0.0662067
-0.071002
-0.163227
-0.131247
-0.108539
-0.0961623
-0.0828272
-0.0762398
-0.0695871
-0.0700546
-0.0672047
-0.0706848
-0.207491
-0.157855
-0.128258
-0.107404
-0.0893511
-0.0803811
-0.0715717
-0.0712801
-0.0678197
-0.0702708
0.0464006
-0.0146738
-0.0793695
0.0496533
-0.026723
-0.102228
0.0484211
-0.0400677
-0.124138
0.0246691
-0.0973113
-0.183526
0.00837293
-0.12497
-0.225712
-0.159818
-0.33685
-0.374203
0.199155
0.169186
0.109997
0.239668
0.199547
0.12783
0.289393
0.237299
0.147673
0.348718
0.279457
0.159791
0.410102
0.321652
0.16481
0.4567
0.332976
0.0887857
0.032343
0.0252171
0.0178363
0.0211554
0.0169538
0.0133013
0.0420752
0.0350151
0.0293272
0.0347413
0.032205
0.0298199
0.0576755
0.0495953
0.0477469
0.0606344
0.0549888
0.0540325
0.0871369
0.0764962
0.0789902
0.105305
0.0934911
0.085422
0.135217
0.1223
0.109417
0.164687
0.144857
0.101943
0.0106704
0.00321501
-0.00569187
-0.0167563
-0.0306725
-0.0480533
-0.0691999
-0.10721
-0.128373
-0.26535
0.00947413
0.00581476
0.00065342
-0.0061299
-0.0156706
-0.0292028
-0.0434129
-0.072311
-0.0828769
-0.128549
0.0226447
0.0147571
0.00585909
-0.00440372
-0.0159785
-0.0316848
-0.0434682
-0.0695241
-0.078594
-0.118938
0.0261912
0.0217806
0.0150901
0.00607206
-0.00510848
-0.0231031
-0.0370121
-0.0634039
-0.0726612
-0.100797
0.0397909
0.0306855
0.0196068
0.0068876
-0.00631757
-0.0238028
-0.03562
-0.0592471
-0.0671761
-0.0884462
0.0475576
0.0394331
0.0276387
0.0117108
-0.00357679
-0.0240512
-0.0364511
-0.0575361
-0.0643083
-0.0815441
0.0618856
0.0459367
0.0290274
0.00992172
-0.00696571
-0.0269686
-0.0388346
-0.0575877
-0.0632837
-0.07765
0.0662672
0.0488176
0.027772
0.00559476
-0.0122554
-0.0310334
-0.0418441
-0.0583381
-0.0632091
-0.0753806
0.0704522
0.0449002
0.020799
-0.00200851
-0.0188493
-0.0356113
-0.0448869
-0.0590513
-0.0633222
-0.0738889
0.0607823
0.0358129
0.0109118
-0.0107496
-0.0257269
-0.0401138
-0.0477945
-0.0596699
-0.0633906
-0.0729642
0.0388843
0.0169011
-0.0023607
-0.0209634
-0.0334227
-0.044993
-0.0509672
-0.0604877
-0.0635761
-0.0721894
-0.019897
-0.0358581
-0.0368785
-0.0437413
-0.0473677
-0.0532453
-0.0558157
-0.062702
-0.0642231
-0.07156
-0.0745933
-0.0788173
-0.069442
-0.0675811
-0.0633829
-0.0631762
-0.0616622
-0.0657277
-0.0651834
-0.0711796
)
;

boundaryField
{
    outlet
    {
        type            fixedValue;
        value           uniform 0;
    }
    upperWall
    {
        type            symmetryPlane;
    }
    lowerWall
    {
        type            symmetryPlane;
    }
    inlet
    {
        type            zeroGradient;
    }
    cylinder
    {
        type            zeroGradient;
    }
    frontAndBack
    {
        type            empty;
    }
}


// ************************************************************************* //
