/*--------------------------------*- C++ -*----------------------------------*\
| =========                 |                                                 |
| \\      /  F ield         | OpenFOAM: The Open Source CFD Toolbox           |
|  \\    /   O peration     | Version:  2312                                  |
|   \\  /    A nd           | Website:  www.openfoam.com                      |
|    \\/     M anipulation  |                                                 |
\*---------------------------------------------------------------------------*/
FoamFile
{
    version     2.0;
    format      ascii;
    arch        "LSB;label=32;scalar=64";
    class       surfaceScalarField;
    location    "161.9";
    object      phi;
}
// * * * * * * * * * * * * * * * * * * * * * * * * * * * * * * * * * * * * * //

dimensions      [0 3 -1 0 0 0 0];

oriented        oriented;

internalField   nonuniform List<scalar> 
10785
(
0.000935665
0.00298466
-0.00392032
0.00395206
0.00216151
-0.00517791
0.0107744
-0.00557102
-0.00125129
0.0237394
-0.0210129
0.00804794
0.0439868
-0.0435122
0.0232648
0.0699463
-0.0698761
0.0439167
0.0981128
-0.0959444
0.0677779
0.124682
-0.118444
0.0918756
0.146867
-0.135619
0.113434
0.163736
-0.147471
0.130602
0.175438
-0.15485
0.143148
0.183942
-0.159299
0.150795
0.191121
-0.162817
0.155637
0.197577
-0.16502
0.158565
-0.168299
0.15953
0.206345
0.00082556
0.0021591
0.00519732
-0.00221025
0.0160127
-0.0163864
0.0352736
-0.0402739
0.0611588
-0.0693975
0.0889374
-0.0976547
0.11391
-0.120917
0.133182
-0.137716
0.146316
-0.148753
0.154629
-0.155784
0.160509
-0.16073
0.166413
-0.165203
0.173309
-0.169713
0.182691
-0.174403
-0.180559
0.194952
0.00112802
0.00103108
0.00796975
-0.00905198
0.0241356
-0.0325523
0.0484573
-0.0645955
0.0749861
-0.0959263
0.098023
-0.120692
0.11473
-0.137625
0.125376
-0.148362
0.132082
-0.155459
0.137377
-0.161078
0.143097
-0.16645
0.149804
-0.171909
0.157538
-0.177447
0.166381
-0.183246
-0.189048
0.174869
0.00200643
-0.000975349
0.0126084
-0.0196539
0.0335284
-0.0534723
0.0583254
-0.0893925
0.0798613
-0.117462
0.0950356
-0.135866
0.104528
-0.147117
0.110708
-0.154543
0.115761
-0.160512
0.120819
-0.166136
0.126059
-0.17169
0.131477
-0.177327
0.137196
-0.183166
0.143298
-0.189348
-0.196087
0.150337
0.00343188
-0.00440722
0.0181225
-0.0343446
0.0404373
-0.075787
0.0610966
-0.110052
0.0757632
-0.132129
0.0848646
-0.144967
0.0906335
-0.152886
0.0949481
-0.158858
0.0987269
-0.164291
0.102287
-0.169696
0.105925
-0.175329
0.109934
-0.181336
0.114511
-0.187742
0.119869
-0.194707
-0.201953
0.125736
0.00533557
-0.0097428
0.0226595
-0.0516685
0.042509
-0.0956364
0.0574719
-0.125015
0.0666855
-0.141343
0.0720413
-0.150323
0.0754405
-0.156285
0.0780126
-0.16143
0.0803431
-0.166621
0.0828057
-0.172158
0.0855673
-0.17809
0.0886363
-0.184405
0.0919942
-0.1911
0.0954342
-0.198147
-0.205381
0.0988616
0.00732269
-0.0170655
0.0246802
-0.069026
0.040219
-0.111175
0.0500818
-0.134878
0.0553211
-0.146582
0.0579978
-0.153
0.0595875
-0.157875
0.0608504
-0.162693
0.0620837
-0.167855
0.0633339
-0.173409
0.0646058
-0.179362
0.0659605
-0.18576
0.0674627
-0.192602
0.0691916
-0.199876
-0.207457
0.0712683
0.00873321
-0.0257987
0.0238615
-0.0841543
0.0350069
-0.122321
0.0407503
-0.140621
0.0430454
-0.148877
0.0437602
-0.153714
0.0438985
-0.158013
0.0438083
-0.162602
0.0435814
-0.167628
0.0432953
-0.173123
0.0430472
-0.179114
0.0429002
-0.185613
0.0428911
-0.192593
0.0429953
-0.19998
0.04323
-0.207692
-0.00225877
-0.00367386
0.00593263
-0.00713729
-0.011913
0.0167916
-0.013797
-0.0176222
0.0242819
-0.0216478
-0.0222405
0.0300913
-0.0302884
-0.0277358
0.0363764
-0.0393455
-0.0347306
0.0437877
-0.0482817
-0.0430127
0.0519489
-0.0563299
-0.0521337
0.0601819
-0.0625196
-0.0614206
0.0676103
-0.0657378
-0.0699423
0.0731605
-0.0648758
-0.0765143
0.0756523
-0.0590343
-0.0796723
0.0738308
-0.0477869
-0.0777107
0.0664632
-0.0309851
-0.0690847
0.0522829
-0.0535434
-0.00924375
0.0318021
-0.00293166
-0.000742204
-0.00876842
-0.00607628
-0.0162988
-0.0100918
-0.0250494
-0.0134899
-0.034872
-0.0179132
-0.0456093
-0.0239934
-0.0569304
-0.0316915
-0.0683023
-0.0407618
-0.0789986
-0.0507243
-0.0881095
-0.0608314
-0.0945219
-0.0701019
-0.0970104
-0.0771838
-0.0945091
-0.080212
-0.0863354
-0.0772585
-0.069428
-0.0704508
-0.00287581
0.00213361
-0.00853027
-0.000421815
-0.0156104
-0.00301171
-0.0236115
-0.00548883
-0.0324363
-0.00908832
-0.0419308
-0.0144989
-0.0517977
-0.0218246
-0.0616634
-0.0308962
-0.0711463
-0.0412414
-0.0798695
-0.0521081
-0.0874582
-0.0625132
-0.092926
-0.071716
-0.0947226
-0.0784154
-0.0934991
-0.078482
-0.0789482
-0.0839788
-0.00223865
0.00437226
-0.00686282
0.00420236
-0.0125075
0.002633
-0.0185348
0.000538403
-0.0247971
-0.00282597
-0.0309076
-0.00838836
-0.0363444
-0.0163878
-0.0405619
-0.0266787
-0.0431986
-0.0386047
-0.0441731
-0.0511336
-0.0434828
-0.0632036
-0.0418555
-0.0733432
-0.0385836
-0.0816873
-0.0343337
-0.0827319
-0.086594
-0.0266879
-0.00119893
0.00557118
-0.00412321
0.00712664
-0.00758824
0.00609804
-0.0108385
0.00378869
-0.0131885
-0.000475973
-0.0142151
-0.00736181
-0.0131252
-0.0174776
-0.00926005
-0.0305439
-0.00221879
-0.045646
0.00802217
-0.0613745
0.0202133
-0.0753947
0.0350727
-0.0882027
0.0505616
-0.0971762
0.0678992
-0.10007
-0.10685
0.0881552
-0.000106269
0.00567745
-0.0010632
0.00808357
-0.00192419
0.00695902
-0.00168886
0.00355336
0.000543633
-0.00270846
0.00585453
-0.0126727
0.0149687
-0.0265918
0.0281616
-0.0437368
0.0452145
-0.0626989
0.0652282
-0.0813882
0.0875533
-0.0977198
0.110806
-0.111456
0.134449
-0.120819
0.159443
-0.125063
-0.132642
0.185235
0.000716612
0.00496084
0.00153652
0.00726367
0.00323903
0.0052565
0.00706807
-0.000275685
0.014489
-0.0101294
0.0265581
-0.0247418
0.043673
-0.0437068
0.0652058
-0.0652696
0.0897052
-0.0871983
0.115137
-0.10682
0.140462
-0.123045
0.164003
-0.134997
0.185543
-0.14236
0.207601
-0.147121
-0.1497
0.224659
0.00104052
0.00312628
0.0071315
0.0149038
0.0280392
0.047214
0.0712851
0.0978911
0.124127
0.147909
0.168012
0.183811
0.197088
0.208532
0.218362
0.0495081
-0.0278444
-0.0309075
0.104662
0.146742
-0.201896
0.155966
0.27295
-0.324254
0.162656
0.329729
-0.336419
0.131114
0.399455
-0.367913
0.141208
0.361405
-0.371498
0.187862
0.0870222
-0.133676
0.23453
-0.150431
0.103762
0.260061
-0.306251
0.28072
0.258974
-0.297385
0.298472
0.236219
-0.330917
0.353672
0.227851
-0.405409
0.413777
0.240551
-0.259641
0.246941
0.265353
-0.142298
0.117496
0.274766
0.165933
-0.175347
0.284298
0.344857
-0.354389
0.294352
0.448533
-0.458587
0.294438
0.499903
-0.499988
0.291652
0.115952
-0.113166
0.303992
-0.138142
0.125803
0.307033
-0.510275
0.507234
0.309299
-0.670566
0.6683
0.303761
-0.123695
0.129233
0.314467
0.184008
-0.194714
0.331309
0.642248
-0.65909
0.333679
0.756916
-0.759286
0.30388
-0.37031
0.400109
0.302809
-0.94653
0.947601
0.296664
0.0604096
-0.054265
0.285518
0.585743
-0.574596
0.276533
0.0757101
-0.0667253
0.273111
-0.206113
0.209535
0.270331
-0.0254272
0.028207
0.267662
0.0673366
-0.0646669
0.265252
0.0181789
-0.0157693
0.263005
-0.0037912
0.00603836
0.260676
0.00838254
-0.00605407
0.00966662
-0.00682495
-0.0104689
-0.0878264
0.0737775
0.0624959
0.135364
0.211363
0.139488
0.325605
0.132303
0.406639
0.171534
0.322174
0.217937
0.0406192
0.248522
-0.181016
0.261471
-0.319199
0.25811
-0.294024
0.233277
-0.306085
0.227447
-0.399578
0.241678
-0.273872
0.260892
-0.161512
0.274364
0.152461
0.284905
0.334316
0.295444
0.437994
0.297513
0.497833
0.291239
0.122227
0.300737
-0.14764
0.297287
-0.506825
0.298804
-0.672083
0.299358
-0.124249
0.311726
0.17164
0.335456
0.618518
0.338743
0.75363
0.299665
-0.331233
0.293497
-0.940362
0.294795
0.0591116
0.288666
0.591871
0.278147
0.086229
0.272871
-0.200837
0.270704
-0.0232601
0.268823
0.0692179
0.266549
0.0204522
0.264481
-0.0017228
0.262506
0.0103574
0.012279
-0.0450979
-0.126707
0.0378028
-0.0204049
0.101086
0.148081
0.121899
0.304792
0.148372
0.380166
0.204681
0.265865
0.245795
-0.000494494
0.259032
-0.194253
0.257288
-0.317455
0.252946
-0.289682
0.224493
-0.277632
0.21866
-0.393745
0.239847
-0.295059
0.255266
-0.176931
0.272379
0.135349
0.284062
0.322634
0.294947
0.427109
0.298397
0.494383
0.288757
0.131866
0.293612
-0.152495
0.282869
-0.496082
0.283452
-0.672666
0.291636
-0.132433
0.305193
0.158083
0.334438
0.589273
0.33883
0.749237
0.29404
-0.286442
0.281066
-0.927387
0.290538
0.0496389
0.289413
0.592997
0.277798
0.0978445
0.270744
-0.193783
0.269337
-0.0218524
0.268396
0.0701581
0.266436
0.0224125
0.264734
-2.06273e-05
0.263321
0.0117702
0.0144312
-0.0316685
-0.121727
0.0194983
-0.0715717
0.0872646
0.0803144
0.132144
0.259912
0.179873
0.332437
0.236567
0.209171
0.268464
-0.0323924
0.268567
-0.194355
0.252713
-0.301602
0.249965
-0.286933
0.21924
-0.246908
0.204268
-0.378773
0.233274
-0.324066
0.250999
-0.194656
0.268463
0.117884
0.276803
0.314293
0.28704
0.416872
0.293431
0.487992
0.283103
0.142194
0.282769
-0.152161
0.265463
-0.478776
0.265032
-0.672234
0.280682
-0.148084
0.294575
0.14419
0.327611
0.556236
0.333696
0.743153
0.284769
-0.237516
0.266616
-0.909234
0.283385
0.0328697
0.287151
0.589231
0.275198
0.109797
0.266799
-0.185383
0.266306
-0.02136
0.266417
0.070047
0.264945
0.023885
0.263783
0.00114081
0.26312
0.0124334
0.0159046
0.05059
-0.0841613
0.0488956
-0.0698773
0.102292
0.0269177
0.165731
0.196473
0.222273
0.275895
0.267317
0.164127
0.28681
-0.0518858
0.275014
-0.182559
0.245276
-0.271865
0.241275
-0.282932
0.215677
-0.22131
0.188059
-0.351155
0.217243
-0.353249
0.241866
-0.219279
0.26335
0.0964002
0.270901
0.306742
0.279879
0.407894
0.28713
0.480741
0.275401
0.153923
0.269325
-0.146084
0.24564
-0.455091
0.243633
-0.670227
0.266383
-0.170834
0.281859
0.128714
0.318065
0.52003
0.325427
0.735791
0.272534
-0.184623
0.250935
-0.887635
0.27435
0.0094543
0.282895
0.580687
0.270785
0.121906
0.261355
-0.175953
0.261836
-0.021841
0.263021
0.068862
0.262177
0.024729
0.261712
0.00160561
0.261951
0.0121943
0.0165041
0.154968
-0.0538944
0.127041
-0.0419497
0.146201
0.00775754
0.197367
0.145307
0.255309
0.217953
0.291093
0.128343
0.294514
-0.0553066
0.273261
-0.161305
0.234293
-0.232897
0.224931
-0.27357
0.208879
-0.205258
0.172323
-0.314599
0.191556
-0.372482
0.225883
-0.253605
0.253158
0.0691252
0.259434
0.300466
0.266557
0.400771
0.275412
0.471885
0.265374
0.163961
0.254524
-0.135234
0.225185
-0.425752
0.221294
-0.666335
0.248733
-0.198273
0.265926
0.11152
0.30387
0.482087
0.312806
0.726855
0.258988
-0.130805
0.235012
-0.863659
0.262831
-0.0183655
0.275793
0.567725
0.264356
0.133343
0.254607
-0.166205
0.256101
-0.0233346
0.258364
0.0665991
0.258279
0.0248144
0.258647
0.00123681
0.259908
0.0109336
0.0160636
0.210146
-0.0393814
0.19673
-0.0285329
0.204329
0.00015815
0.239499
0.110137
0.288214
0.169239
0.310347
0.10621
0.295223
-0.0401822
0.264636
-0.130719
0.222329
-0.19059
0.205614
-0.256855
0.196261
-0.195905
0.158215
-0.276552
0.160958
-0.375226
0.201903
-0.29455
0.241497
0.0295313
0.250877
0.291086
0.257182
0.394466
0.265026
0.464041
0.254087
0.1749
0.239272
-0.120419
0.204742
-0.391223
0.198229
-0.659822
0.228859
-0.228903
0.249376
0.0910031
0.29112
0.440343
0.300798
0.717177
0.24602
-0.0760264
0.219589
-0.837228
0.250682
-0.0494579
0.267658
0.550749
0.256719
0.144282
0.247035
-0.156521
0.249437
-0.0257366
0.252692
0.0633445
0.253454
0.024052
0.254763
-7.1843e-05
0.257123
0.00857372
0.0144516
0.211378
-0.0323976
0.206548
-0.0237029
0.213662
-0.00695579
0.24989
0.0739092
0.295713
0.123416
0.310987
0.0909354
0.286976
-0.0161717
0.253443
-0.0971857
0.211483
-0.14863
0.189185
-0.234557
0.180904
-0.187623
0.144861
-0.24051
0.131621
-0.361985
0.16912
-0.33205
0.217325
-0.0186738
0.233763
0.274648
0.241426
0.386803
0.248947
0.45652
0.242114
0.181733
0.223863
-0.102167
0.185364
-0.352724
0.174611
-0.649069
0.206498
-0.26079
0.228873
0.068628
0.27249
0.396727
0.282549
0.707118
0.232954
-0.0264314
0.204516
-0.80879
0.236655
-0.081597
0.256785
0.530619
0.247643
0.153425
0.238745
-0.147624
0.24203
-0.0290212
0.246224
0.0591504
0.247922
0.0223535
0.250245
-0.00239461
0.25375
0.00506934
0.0115707
0.414379
-0.0158707
-0.430906
0.398243
-0.0075668
0.390274
0.00101358
0.411928
0.0522556
0.466908
0.0684354
0.508745
0.0490984
0.510816
-0.018243
0.496861
-0.0832302
0.472606
-0.124375
0.437705
-0.199656
0.419941
-0.169859
0.391388
-0.211956
0.355895
-0.326492
0.330943
-0.307098
0.314085
-0.00181599
0.276521
0.312212
0.277765
0.385558
0.333772
0.400513
0.398638
0.116868
0.431047
-0.134576
0.410091
-0.331769
0.358047
-0.597025
0.336905
-0.239648
0.321127
0.0844065
0.35412
0.363733
0.409565
0.651673
0.418899
-0.0357653
0.359976
-0.749867
0.346252
-0.067873
0.37057
0.506301
0.38038
0.143614
0.369292
-0.136535
0.366143
-0.0258725
0.368319
0.0569744
0.368483
0.0221894
0.368684
-0.00259573
0.370219
0.00353407
0.01086
0.458355
-0.00469147
-0.469534
0.448756
0.00203268
0.447564
0.00220511
0.468477
0.0313424
0.501865
0.0350475
0.528402
0.0225619
0.531161
-0.0210018
0.515183
-0.067252
0.493966
-0.103158
0.459902
-0.165592
0.430294
-0.140251
0.407617
-0.18928
0.371202
-0.290076
0.336234
-0.27213
0.3012
0.0332178
0.271257
0.342155
0.297651
0.359164
0.379363
0.318801
0.449112
0.0471191
0.470879
-0.156344
0.428537
-0.289427
0.368529
-0.537017
0.336249
-0.207367
0.316425
0.104231
0.365233
0.314925
0.444958
0.571947
0.451734
-0.0425412
0.38216
-0.680293
0.36249
-0.0482033
0.393274
0.475517
0.407735
0.129153
0.396058
-0.124858
0.392173
-0.0219882
0.394492
0.0546556
0.394931
0.0217508
0.395263
-0.00292811
0.397055
0.00174247
0.0096082
0.505802
0.00179393
-0.512288
0.501457
0.00637838
0.500297
0.00336421
0.514664
0.0169756
0.535643
0.0140692
0.550712
0.00749198
0.555731
-0.0260207
0.546097
-0.0576176
0.526783
-0.0838441
0.500664
-0.139473
0.482206
-0.121793
0.45741
-0.164484
0.392986
-0.225653
0.325006
-0.20415
0.284109
0.0741153
0.281829
0.344435
0.347487
0.293507
0.44373
0.222558
0.502945
-0.0120955
0.5148
-0.168199
0.463546
-0.238172
0.381366
-0.454837
0.328471
-0.154473
0.303825
0.128876
0.375805
0.242945
0.487826
0.459926
0.493503
-0.0482185
0.404587
-0.591376
0.380299
-0.0239156
0.418626
0.43719
0.437638
0.110142
0.424538
-0.111758
0.419597
-0.0170475
0.422121
0.0521319
0.422749
0.0211228
0.423
-0.00317934
0.424853
-0.000110754
0.00783328
0.552392
0.00591508
-0.556513
0.55128
0.00749021
0.552302
0.00234206
0.559716
0.00956176
0.573019
0.00076607
0.582561
-0.00205001
0.582406
-0.0258663
0.573801
-0.0490127
0.558096
-0.068139
0.527899
-0.109276
0.502377
-0.0962704
0.477573
-0.13968
0.417569
-0.165649
0.334129
-0.12071
0.303238
0.105007
0.351728
0.295945
0.443653
0.201581
0.529234
0.136977
0.562039
-0.0449008
0.553172
-0.159332
0.498203
-0.183203
0.39208
-0.348715
0.315608
-0.0780003
0.300071
0.144413
0.390631
0.152385
0.526424
0.324134
0.53262
-0.0544145
0.421602
-0.480358
0.387877
0.00980879
0.445066
0.380001
0.47197
0.0832383
0.455152
-0.0949395
0.447887
-0.00978273
0.451454
0.0485646
0.452952
0.0196253
0.45317
-0.00339789
0.454844
-0.00178455
0.00568418
0.601538
0.00710266
-0.602726
0.601829
0.00719942
0.602792
0.00137959
0.607638
0.00471503
0.614066
-0.00566131
0.618801
-0.00678469
0.618906
-0.0259714
0.610907
-0.0410138
0.597775
-0.0550067
0.577498
-0.0889996
0.553769
-0.0725417
0.515151
-0.101061
0.460471
-0.110969
0.400775
-0.0610147
0.399466
0.106316
0.479089
0.216322
0.557533
0.123137
0.611633
0.0828776
0.61864
-0.0519081
0.598272
-0.138964
0.551063
-0.135995
0.435223
-0.232875
0.355581
0.0016411
0.347009
0.152986
0.427879
0.0715144
0.570219
0.181794
0.578763
-0.0629587
0.44384
-0.345435
0.40581
0.0478387
0.487474
0.298336
0.518251
0.0524618
0.493033
-0.069722
0.482651
0.000599776
0.488324
0.042891
0.490977
0.0169726
0.49062
-0.00304101
0.491316
-0.00247978
0.00377901
0.653015
0.00705599
-0.652968
0.654037
0.00617799
0.654735
0.000681367
0.657569
0.00188064
0.660115
-0.00820733
0.662078
-0.00874783
0.659732
-0.0236249
0.651856
-0.0331386
0.639713
-0.0428629
0.615943
-0.0652297
0.599147
-0.0557456
0.571578
-0.0734928
0.53117
-0.0705607
0.496232
-0.026077
0.519232
0.083316
0.599831
0.135723
0.648767
0.0742015
0.675029
0.0566152
0.662119
-0.0389983
0.629428
-0.106272
0.592305
-0.0988719
0.501518
-0.142088
0.45315
0.050009
0.466982
0.139154
0.508843
0.0296542
0.62056
0.0700767
0.626774
-0.0691731
0.484787
-0.203447
0.454262
0.0783642
0.550942
0.201656
0.577519
0.0258849
0.544936
-0.0371391
0.533673
0.0118624
0.541547
0.0350175
0.544479
0.0140401
0.54274
-0.00130162
0.541545
-0.00128544
0.00308833
0.707789
0.00637286
-0.707106
0.708886
0.00508137
0.709237
0.000330576
0.710801
0.000316375
0.71084
-0.00824617
0.710596
-0.00850392
0.707242
-0.020271
0.699525
-0.0254212
0.690743
-0.0340812
0.671898
-0.0463852
0.658461
-0.0423081
0.633416
-0.0484475
0.604087
-0.0412324
0.592257
-0.0142463
0.621092
0.0544804
0.677073
0.079742
0.703813
0.0474613
0.724651
0.0357769
0.714547
-0.0288934
0.677167
-0.0688924
0.645742
-0.0674465
0.584416
-0.0807624
0.577338
0.0570876
0.61808
0.0984117
0.626565
0.021169
0.680518
0.0161238
0.682183
-0.0708381
0.567028
-0.088293
0.548499
0.0968938
0.634265
0.115889
0.650923
0.00922745
0.61835
-0.00456601
0.60903
0.0211827
0.616788
0.0272587
0.618439
0.0123899
0.615022
0.00211464
0.611745
0.00199195
0.00431673
0.766718
0.00554836
-0.765893
0.767699
0.00409998
0.767691
0.00033851
0.768219
-0.000211513
0.767128
-0.00715517
0.765673
-0.00704924
0.762219
-0.0168166
0.754951
-0.0181534
0.747379
-0.0265091
0.73171
-0.0307166
0.720354
-0.0309515
0.703919
-0.0320124
0.68686
-0.0241738
0.681735
-0.00912095
0.703154
0.0330613
0.740229
0.0426662
0.755903
0.0317877
0.76856
0.0231203
0.759605
-0.0199392
0.733058
-0.0423455
0.712444
-0.0468318
0.675524
-0.0438428
0.688607
0.0440047
0.727492
0.059527
0.724775
0.0238856
0.740416
0.000483141
0.733319
-0.0637414
0.663916
-0.0188897
0.66544
0.0953696
0.723425
0.057904
0.726581
0.00607221
0.702503
0.0195118
0.698631
0.0250549
0.704552
0.0213374
0.704429
0.012513
0.700498
0.00604552
0.696732
0.00575838
0.00668371
0.830692
0.0047608
-0.829905
0.831366
0.0034259
0.831176
0.000528702
0.831078
-0.000113401
0.829483
-0.00556064
0.827583
-0.00514829
0.8237
-0.0129342
0.817816
-0.0122689
0.811124
-0.0198171
0.800196
-0.0197894
0.791555
-0.02231
0.780065
-0.0205229
0.770031
-0.0141394
0.767799
-0.00688948
0.782104
0.0187573
0.802918
0.0218522
0.814369
0.0203363
0.825497
0.0119918
0.818381
-0.0128231
0.799938
-0.0239019
0.782781
-0.0296754
0.761808
-0.0228696
0.777944
0.0278686
0.804891
0.0325802
0.806892
0.0218844
0.805764
0.0016119
0.787357
-0.0453347
0.758383
0.0100845
0.778638
0.0751145
0.807433
0.0291092
0.800313
0.0131914
0.788882
0.0309432
0.790731
0.023206
0.794172
0.0178957
0.792759
0.0139263
0.789488
0.00931628
0.78667
0.00857644
0.00895903
0.900419
0.00409199
-0.89975
0.900881
0.00296351
0.900571
0.000838539
0.900221
0.000237403
0.898457
-0.00379688
0.896629
-0.00332072
0.892968
-0.00927317
0.888553
-0.00785326
0.882838
-0.0141026
0.875404
-0.0123551
0.8684
-0.0153059
0.860778
-0.0129009
0.85549
-0.00885177
0.853777
-0.00517647
0.862719
0.00981578
0.87488
0.00969042
0.882559
0.0126582
0.88911
0.00544043
0.883471
-0.00718473
0.872892
-0.0133228
0.861469
-0.0182519
0.849854
-0.0112546
0.861271
0.0164518
0.875127
0.0187234
0.878727
0.0182849
0.876742
0.00359641
0.859231
-0.0278237
0.851837
0.0174786
0.87252
0.054432
0.882197
0.0194316
0.876159
0.0192303
0.875369
0.0317332
0.878426
0.0201489
0.879579
0.0167421
0.878399
0.0151065
0.876421
0.0112948
0.874829
0.0101676
0.0105059
0.97694
0.00354187
-0.97639
0.977216
0.00268725
0.976865
0.00118935
0.976434
0.000668899
0.974786
-0.00214953
0.973316
-0.00185052
0.970043
-0.00599986
0.966967
-0.00477766
0.96216
-0.00929517
0.957268
-0.00746296
0.952058
-0.0100964
0.94708
-0.00792267
0.944041
-0.00581279
0.942662
-0.0037975
0.948
0.0044779
0.954003
0.00368677
0.959406
0.00725525
0.963221
0.0016262
0.959729
-0.0036928
0.953679
-0.00727301
0.945438
-0.010011
0.938961
-0.00477796
0.945683
0.00973072
0.95299
0.0114161
0.958196
0.0130785
0.95599
0.00580211
0.940745
-0.0125786
0.941505
0.0167193
0.958333
0.0376039
0.960674
0.0170905
0.958233
0.0216714
0.96148
0.0284864
0.963607
0.0180211
0.964163
0.0161867
0.963888
0.0153815
0.962823
0.0123593
0.962028
0.0109631
0.0113045
1.061
0.00314085
-1.0606
1.06116
0.00252733
1.06083
0.001512
1.06043
0.00106955
1.05907
-0.000786058
1.05793
-0.000707393
1.05531
-0.00337785
1.05316
-0.00263411
1.04945
-0.00558741
1.04633
-0.00434074
1.04244
-0.00620526
1.03925
-0.00473372
1.03723
-0.00379571
1.03612
-0.00268225
1.03891
0.00168384
1.04176
0.000837706
1.04526
0.00376114
1.04668
0.000199793
1.04475
-0.00175795
1.04103
-0.00355347
1.03597
-0.00495061
1.03267
-0.00147487
1.03625
0.00614123
1.03979
0.00787716
1.04299
0.00988177
1.04236
0.00642975
1.03298
-0.00319917
1.03531
0.0143953
1.04632
0.0265892
1.04675
0.0166619
1.04763
0.020797
1.05172
0.0243949
1.05274
0.0169982
1.05331
0.0156199
1.05375
0.014933
1.05328
0.0128341
1.05288
0.0113581
0.0116739
1.15339
0.00281622
-1.15306
1.15349
0.00241906
1.15326
0.00174388
1.15294
0.00139553
1.15192
0.000227034
1.15108
0.000138664
1.14915
-0.00144711
1.14768
-0.00117174
1.14499
-0.0028896
1.14295
-0.00230681
1.14016
-0.00340925
1.13813
-0.00270949
1.13658
-0.00223893
1.13571
-0.00181726
1.13691
0.000483572
1.13788
-0.000129875
1.13993
0.00170683
1.14021
-8.17452e-05
1.13933
-0.000873219
1.13707
-0.00129173
1.13414
-0.00202167
1.13213
0.000529657
1.13387
0.00440108
1.13594
0.00580902
1.13809
0.0077326
1.13812
0.00640618
1.13228
0.0026362
1.1342
0.0124729
1.14186
0.0189273
1.14271
0.0158142
1.14471
0.0187957
1.14823
0.0208793
1.14897
0.0162561
1.14984
0.0147509
1.15062
0.0141508
1.15054
0.0129121
1.15042
0.0114859
0.0117869
1.25496
0.00254185
-1.25469
1.25506
0.00232391
1.25493
0.00186738
1.2547
0.0016273
1.25401
0.000916929
1.25339
0.000757898
1.25208
-0.000136168
1.25108
-0.000167417
1.24922
-0.00103126
1.2479
-0.000989954
1.24594
-0.00144486
1.24464
-0.00141055
1.24339
-0.000992124
1.24268
-0.00110669
1.24298
0.000182655
1.24311
-0.000258555
1.24414
0.000681806
1.24384
0.000212108
1.24343
-0.000461785
1.24187
0.000268559
1.24036
-0.000511017
1.23923
0.00165487
1.24004
0.00359645
1.24119
0.0046579
1.24213
0.00679764
1.24265
0.00587827
1.23999
0.00530294
1.24175
0.0107103
1.24639
0.0142849
1.24755
0.014652
1.25017
0.0161761
1.25332
0.0177361
1.25408
0.0154947
1.25505
0.0137813
1.25596
0.013237
1.25624
0.012634
1.25638
0.0113457
0.0116731
1.36648
0.00229132
-1.36623
1.36659
0.00221335
1.36657
0.00188899
1.36644
0.00175715
1.36603
0.00132445
1.36563
0.00116067
1.36479
0.000704114
1.36412
0.000494113
1.36292
0.00017345
1.36207
-0.000136241
1.36073
-0.000113487
1.35988
-0.000555544
1.35891
-1.97172e-05
1.35832
-0.000522846
1.35819
0.000315893
1.35794
-9.38262e-06
1.35829
0.00032947
1.35786
0.000647602
1.35762
-0.000225886
1.35664
0.00125396
1.3559
0.000222447
1.35521
0.00235246
1.35557
0.00323106
1.3563
0.00392548
1.35691
0.00618926
1.35765
0.00513768
1.35641
0.00654289
1.35789
0.00923104
1.36109
0.0110811
1.3626
0.0131506
1.36512
0.0136504
1.36777
0.0150913
1.36884
0.0144246
1.3699
0.0127218
1.37084
0.0122884
1.37144
0.01204
1.37186
0.0109208
0.0113566
1.48882
0.00204234
-1.48857
1.48897
0.00206784
1.48903
0.00182471
1.489
0.00178718
1.48881
0.00151633
1.48858
0.00138676
1.4881
0.00118643
1.48769
0.000903255
1.48695
0.000911485
1.48641
0.000404884
1.48556
0.000734742
1.48499
1.61473e-05
1.4843
0.000671208
1.48383
-5.73169e-05
1.48354
0.000610316
1.48322
0.000309786
1.48322
0.00032968
1.48282
0.0010447
1.48263
-3.59668e-05
1.48201
0.00188051
1.48167
0.000557699
1.48131
0.00271787
1.48154
0.00300105
1.48203
0.0034336
1.4824
0.00581931
1.48315
0.0043897
1.48298
0.00670859
1.48437
0.00784304
1.48664
0.00881319
1.48809
0.0116922
1.49047
0.0112712
1.49286
0.0127036
1.49421
0.0130745
1.49527
0.0116667
1.49633
0.01123
1.49722
0.0111443
1.49786
0.010279
0.0107913
1.62293
0.0017923
-1.62268
1.62312
0.00188231
1.62325
0.0016942
1.62331
0.0017252
1.62328
0.00155042
1.6232
0.00146699
1.62298
0.00140609
1.62276
0.00112018
1.62238
0.0012976
1.62205
0.000728817
1.62157
0.00121588
1.6212
0.000383883
1.62076
0.00111223
1.62042
0.000281984
1.62014
0.000887909
1.61987
0.000582475
1.61973
0.00047078
1.61946
0.00131373
1.61928
0.000142731
1.61897
0.00219298
1.61882
0.000710804
1.61869
0.00284638
1.61889
0.00279561
1.61926
0.00306885
1.61971
0.00536823
1.62041
0.00368593
1.62077
0.00635681
1.62198
0.00662948
1.6238
0.00699414
1.62539
0.0101028
1.62745
0.00920795
1.62959
0.0105686
1.63102
0.0116398
1.63214
0.0105435
1.63345
0.00992383
1.63464
0.00995195
1.63543
0.00949298
0.0100427
1.76984
0.00153594
-1.76959
1.77007
0.00165227
1.77026
0.00151039
1.7704
0.00158029
1.77049
0.00146465
1.77053
0.00142664
1.77051
0.00142718
1.77044
0.00119029
1.77032
0.00141448
1.77015
0.000897651
1.76997
0.00139959
1.76974
0.00061661
1.76954
0.00130784
1.76931
0.00051271
1.76914
0.00105825
1.76897
0.000752317
1.76881
0.000631667
1.76872
0.00139969
1.76854
0.000323337
1.76852
0.00221457
1.76844
0.0007919
1.76853
0.00275306
1.76879
0.00253837
1.76909
0.00276958
1.76966
0.00479947
1.77022
0.00312797
1.77094
0.00563073
1.77209
0.00547758
1.77362
0.00546838
1.7753
0.00842466
1.77707
0.00743463
1.77909
0.00855073
1.78048
0.0102509
1.78157
0.00945092
1.78328
0.00821263
1.78482
0.00840897
1.78568
0.00863588
0.00912348
1.93066
0.00127509
-1.9304
1.93094
0.00136836
1.93117
0.00128447
1.9314
0.00134826
1.93158
0.00128126
1.93174
0.00127314
1.93188
0.00128193
1.93193
0.00113935
1.93205
0.00129462
1.93199
0.000961336
1.93209
0.00129747
1.93193
0.000780955
1.932
0.00123702
1.93181
0.000701915
1.93181
0.00106094
1.93171
0.000847335
1.93157
0.000772796
1.93169
0.00128042
1.93143
0.00058586
1.93177
0.00187617
1.93161
0.000948664
1.93201
0.00234741
1.93233
0.0022232
1.93261
0.00249061
1.93351
0.00390077
1.93382
0.00281316
1.93491
0.00454592
1.93593
0.0044528
1.93712
0.00428467
1.93901
0.00653231
1.94045
0.00599417
1.94232
0.00668046
1.94393
0.00864264
1.94511
0.0082634
1.947
0.00632587
1.94872
0.00669017
1.94972
0.0076358
0.00798164
2.10676
0.000995945
-2.10648
2.10708
0.00104731
2.10735
0.00101472
2.10764
0.0010524
2.1079
0.00102145
2.10815
0.00102834
2.1084
0.00102444
2.10857
0.000974134
2.10883
0.00103011
2.1089
0.000897586
2.10917
0.00103057
2.10913
0.000816065
2.10936
0.00100495
2.10929
0.000777708
2.10942
0.000931512
2.10942
0.000842035
2.10937
0.000822245
2.1096
0.00105629
2.1094
0.000786294
2.10988
0.00139393
2.10978
0.00104666
2.11036
0.00176344
2.11079
0.00179477
2.11121
0.00206793
2.11233
0.00278537
2.11267
0.00247779
2.1139
0.00331408
2.11488
0.0034743
2.11572
0.0034444
2.11755
0.00469718
2.11885
0.00469191
2.12048
0.00505507
2.1227
0.00642337
2.12453
0.00643008
2.12593
0.00493143
2.12731
0.00530784
2.12878
0.00616509
0.00637814
2.29964
0.000688682
-2.29934
2.29997
0.000716589
2.30028
0.000707261
2.3006
0.00073007
2.30091
0.000717012
2.30121
0.00072929
2.30151
0.000722023
2.30177
0.000714166
2.30207
0.000726979
2.30228
0.000688363
2.30258
0.000730405
2.30274
0.00065795
2.30302
0.000726391
2.30315
0.000645178
2.30338
0.000708803
2.30354
0.000676368
2.30368
0.00068613
2.30395
0.000784954
2.30403
0.00070893
2.30445
0.000970835
2.30462
0.000872232
2.30517
0.00121228
2.30571
0.00126025
2.3063
0.0014753
2.3073
0.00179079
2.30796
0.0018179
2.30907
0.00220455
2.31013
0.00240528
2.31106
0.00252359
2.31264
0.00311228
2.31408
0.00324725
2.31563
0.00350919
2.31795
0.00410477
2.32015
0.00423264
2.32141
0.00366911
2.32278
0.00393518
2.32467
0.00427842
0.00442862
2.51083
0.000358216
-2.5105
2.51118
0.000370136
2.51152
0.000370498
2.51187
0.000380896
2.51221
0.000377878
2.51255
0.000385998
2.51289
0.000381621
2.51322
0.000385501
2.51356
0.000383969
2.51387
0.000380742
2.51421
0.000385344
2.5145
0.000372901
2.51484
0.000385824
2.51511
0.000369897
2.51544
0.000386901
2.51573
0.000381371
2.51603
0.000392274
2.51639
0.000424727
2.51667
0.000421954
2.51714
0.000507868
2.5175
0.000504434
2.51808
0.00063231
2.51868
0.000667316
2.51937
0.000785984
2.52026
0.000894065
2.5211
0.000977468
2.52219
0.00111797
2.52334
0.00125065
2.52452
0.00134444
2.52606
0.00157228
2.52762
0.00169423
2.52931
0.00181916
2.53136
0.0020482
2.53344
0.00215531
2.53515
0.00196133
2.53697
0.00211119
2.53901
0.00224483
0.00231962
2.74218
-2.74182
2.74255
2.74292
2.7433
2.74368
2.74406
2.74445
2.74483
2.74522
2.7456
2.74598
2.74635
2.74674
2.74711
2.7475
2.74788
2.74827
2.7487
2.74912
2.74963
2.75013
2.75076
2.75143
2.75222
2.75311
2.75409
2.75521
2.75646
2.7578
2.75937
2.76107
2.76289
2.76493
2.76709
2.76905
2.77116
2.77341
0.423537
0.0375447
-0.417851
0.428686
0.0661192
0.43339
0.0941572
0.437621
0.121505
0.438548
0.149409
0.441706
0.171712
0.436211
0.200447
0.211649
0.453376
0.0329963
-0.448827
0.457765
0.0617297
0.461091
0.0908313
0.46513
0.117467
0.466699
0.14784
0.469414
0.168997
0.471652
0.198208
0.213767
0.488333
0.0294936
-0.48483
0.491842
0.0582205
0.49501
0.0876633
0.498525
0.113951
0.502825
0.14354
0.505831
0.165991
0.511673
0.192366
0.213153
0.527023
0.0264777
-0.524007
0.53014
0.055103
0.534161
0.0836428
0.537856
0.110256
0.54353
0.137866
0.547293
0.162228
0.552619
0.18704
0.209259
0.57079
0.0237382
-0.568051
0.573903
0.0519901
0.578029
0.0795165
0.58179
0.106495
0.586814
0.132842
0.591115
0.157928
0.596886
0.181269
0.203419
0.618952
0.0212803
-0.616494
0.621981
0.0489608
0.625715
0.0757828
0.6297
0.10251
0.634683
0.127858
0.640159
0.152452
0.646485
0.174943
0.196936
0.67188
0.0191313
-0.669731
0.674859
0.0459821
0.678407
0.0722351
0.682773
0.0981436
0.687862
0.12277
0.693705
0.146609
0.700098
0.16855
0.189928
0.729887
0.0172208
-0.727977
0.73277
0.0430993
0.736223
0.0687819
0.740689
0.0936782
0.745825
0.117633
0.751827
0.140606
0.758475
0.161902
0.18251
0.793295
0.0155203
-0.791595
0.796018
0.0403767
0.799499
0.0653002
0.804008
0.0891695
0.809243
0.112398
0.815369
0.134481
0.822235
0.155036
0.174841
0.862731
0.0139746
-0.861185
0.865315
0.0377924
0.868814
0.0618019
0.873243
0.0847399
0.878527
0.107115
0.884761
0.128247
0.89183
0.147966
0.166921
0.938634
0.0125937
-0.937253
0.941029
0.0353979
0.944483
0.0583474
0.948919
0.0803045
0.954401
0.101632
0.960855
0.121793
0.968174