/*--------------------------------*- C++ -*----------------------------------*\
| =========                 |                                                 |
| \\      /  F ield         | OpenFOAM: The Open Source CFD Toolbox           |
|  \\    /   O peration     | Version:  2512                                  |
|   \\  /    A nd           | Website:  www.openfoam.com                      |
|    \\/     M anipulation  |                                                 |
\*---------------------------------------------------------------------------*/
FoamFile
{
    version     2.0;
    format      ascii;
    arch        "LSB;label=32;scalar=64";
    class       volVectorField;
    location    "39.5";
    object      U;
}
// * * * * * * * * * * * * * * * * * * * * * * * * * * * * * * * * * * * * * //

dimensions      [0 1 -1 0 0 0 0];

internalField   nonuniform List<vector> 
9200
(
(-0.0175378 0.0185865 1.05781e-19)
(-0.0197204 0.0349401 -1.93516e-19)
(0.0128943 0.03615 8.783e-20)
(0.0778454 0.0247294 1.5985e-19)
(0.176754 0.00518368 -1.45638e-19)
(0.31088 -0.0187627 0)
(0.475613 -0.0439232 0)
(0.657715 -0.0677233 2.19274e-19)
(0.837944 -0.0885115 -4.59312e-21)
(0.996966 -0.10569 -1.79254e-19)
(1.12059 -0.119307 -7.49256e-20)
(1.20233 -0.129549 1.27411e-19)
(1.24381 -0.136435 -9.80996e-21)
(1.25174 -0.140113 -9.8239e-20)
(1.23717 -0.14006 0)
(1.20939 -0.137561 1.48787e-19)
(1.17744 -0.129889 -2.03051e-19)
(1.14561 -0.123291 5.24101e-20)
(1.11949 -0.108436 3.68919e-20)
(1.08995 -0.10144 2.51414e-20)
(-0.0149858 0.0121915 1.45381e-21)
(-0.00588592 0.0175619 9.78425e-20)
(0.0464516 0.0120019 1.76656e-19)
(0.143203 -0.0019551 0)
(0.286171 -0.0195486 0)
(0.469364 -0.0363538 0)
(0.674219 -0.0497385 0)
(0.874448 -0.0592633 -1.58925e-19)
(1.04566 -0.0661382 1.937e-19)
(1.17236 -0.0720138 8.1449e-20)
(1.25008 -0.0779421 -7.47789e-20)
(1.28412 -0.0839518 6.05155e-20)
(1.28541 -0.0894463 -5.1271e-20)
(1.26713 -0.0933254 -4.10897e-20)
(1.23996 -0.0949756 2.52643e-19)
(1.21136 -0.0937962 -1.58865e-19)
(1.1852 -0.0894106 -2.45248e-20)
(1.16197 -0.0840321 -4.8322e-21)
(1.14275 -0.0721303 -3.7517e-20)
(1.12174 -0.0687617 -2.50833e-20)
(-0.0119506 0.00765503 -1.06677e-19)
(0.0159495 0.0032718 -9.93649e-20)
(0.100705 -0.00791745 8.87991e-20)
(0.244356 -0.0217244 -1.61419e-19)
(0.441328 -0.0323596 0)
(0.667796 -0.0367582 0)
(0.888139 -0.0358846 0)
(1.07116 -0.0330714 -5.28489e-20)
(1.20016 -0.031624 0)
(1.27394 -0.0332373 8.17659e-20)
(1.30261 -0.0376934 -6.71236e-20)
(1.30115 -0.0435965 -2.31027e-19)
(1.28403 -0.04919 2.03757e-19)
(1.26126 -0.0532413 3.73635e-20)
(1.23806 -0.0550482 -7.52254e-20)
(1.21629 -0.0546021 -1.40367e-19)
(1.1956 -0.0519851 3.48851e-20)
(1.17611 -0.0481692 2.00499e-19)
(1.15703 -0.0419057 -1.02369e-19)
(1.13884 -0.0396192 0)
(-0.00612131 0.00369404 1.09153e-19)
(0.0510457 -0.0086745 2.00351e-19)
(0.182841 -0.0217935 1.80596e-19)
(0.385103 -0.0295116 -2.42695e-19)
(0.631731 -0.0273843 2.62144e-21)
(0.875787 -0.0175742 2.59522e-19)
(1.07568 -0.00600175 -1.16931e-19)
(1.21201 0.00216531 4.98558e-20)
(1.28687 0.00471802 0)
(1.31521 0.00229663 -3.73062e-20)
(1.31515 -0.00298097 1.93589e-19)
(1.30139 -0.00891059 -2.21063e-19)
(1.28252 -0.014061 -8.76176e-20)
(1.26214 -0.0178093 8.38357e-20)
(1.24141 -0.0200299 -9.92708e-20)
(1.22046 -0.0209286 8.83432e-20)
(1.20016 -0.0202476 0)
(1.18058 -0.0193651 0)
(1.1636 -0.015003 1.64551e-20)
(1.14617 -0.0163397 0)
(0.00493465 -0.000575631 1.10978e-19)
(0.104193 -0.0185054 -1.53772e-19)
(0.296102 -0.0273717 -1.83096e-19)
(0.557295 -0.0217268 0)
(0.830252 -0.00410516 -7.31919e-20)
(1.0566 0.0162063 -6.22348e-20)
(1.20939 0.0314688 1.69835e-19)
(1.29224 0.0387729 -1.50657e-19)
(1.32439 0.039161 8.24209e-20)
(1.32685 0.0353481 -3.81426e-20)
(1.31496 0.029849 0)
(1.29709 0.0242027 8.07676e-20)
(1.27689 0.019097 4.6448e-20)
(1.25606 0.0148364 7.40567e-20)
(1.23547 0.0114901 -6.80049e-20)
(1.21612 0.00935897 -5.25928e-20)
(1.19822 0.00803821 4.83458e-20)
(1.18244 0.00815792 -1.90637e-20)
(1.16761 0.00917612 1.625e-20)
(1.15418 0.00742473 5.09398e-20)
(0.0233012 -0.0050035 2.2827e-19)
(0.178615 -0.0244948 -6.40769e-22)
(0.437589 -0.0210198 0)
(0.741195 0.00297906 1.23719e-19)
(1.00697 0.0332078 -3.80645e-20)
(1.18998 0.057205 -6.42515e-20)
(1.29061 0.0705376 3.0449e-21)
(1.33157 0.0744832 5.13984e-20)
(1.33777 0.0724151 4.03221e-20)
(1.32704 0.0673631 -3.44575e-20)
(1.30933 0.0612269 -5.79665e-20)
(1.28937 0.0550035 -7.17245e-20)
(1.26934 0.0492375 1.11843e-19)
(1.25013 0.044194 8.92104e-20)
(1.23215 0.0401015 -9.48292e-20)
(1.21522 0.03682 5.5292e-20)
(1.19939 0.0345187 0)
(1.18417 0.0328638 1.52754e-21)
(1.1699 0.0317068 -4.28478e-20)
(1.15631 0.0295192 5.55906e-20)
(0.0504786 -0.00855732 -5.98674e-20)
(0.274735 -0.0229885 1.41016e-21)
(0.59614 0.000815918 -4.82463e-20)
(0.913086 0.0425342 -1.24353e-19)
(1.1449 0.0788125 1.11833e-19)
(1.27752 0.100855 6.14863e-20)
(1.33485 0.109762 -1.11031e-19)
(1.34745 0.109896 -4.27791e-20)
(1.33826 0.105349 8.0841e-20)
(1.3205 0.0988015 9.98179e-20)
(1.30045 0.0917084 -1.43682e-19)
(1.28059 0.0848001 5.09869e-20)
(1.26153 0.0783812 -6.15026e-20)
(1.24335 0.0725913 1.87854e-20)
(1.22591 0.0673964 -3.06791e-20)
(1.20937 0.0628976 4.88828e-20)
(1.19375 0.0589744 -3.64298e-21)
(1.17937 0.0557954 -5.6458e-20)
(1.16607 0.0527605 1.55531e-20)
(1.15361 0.0502961 0)
(0.0871626 -0.00958231 5.99109e-20)
(0.388641 -0.00962011 -1.36655e-19)
(0.754575 0.0388438 9.77236e-20)
(1.05667 0.0927718 2.01048e-20)
(1.24267 0.128786 -1.08738e-19)
(1.32962 0.145636 6.47462e-20)
(1.35474 0.149156 0)
(1.34919 0.145351 0)
(1.3317 0.138307 -3.90011e-20)
(1.31106 0.130179 0)
(1.29048 0.121914 8.15119e-20)
(1.27075 0.113893 -9.40598e-20)
(1.25202 0.106291 7.98574e-20)
(1.23435 0.0991957 -3.52202e-20)
(1.21793 0.0927439 0)
(1.20276 0.0869562 0)
(1.18882 0.0819257 0)
(1.17577 0.0774506 -3.33874e-20)
(1.16339 0.0732548 3.78677e-20)
(1.15168 0.0706652 0)
(0.132878 -0.00604878 3.09588e-20)
(0.511631 0.0188519 -6.9406e-22)
(0.897115 0.0907935 0)
(1.16625 0.15002 -9.36599e-21)
(1.30565 0.181256 1.97018e-20)
(1.35547 0.191161 2.95363e-20)
(1.35836 0.189005 -2.69673e-20)
(1.34217 0.181402 -1.03266e-20)
(1.32051 0.171864 1.02201e-20)
(1.29849 0.16186 0)
(1.27759 0.151957 2.53613e-20)
(1.2581 0.142435 -2.86492e-20)
(1.24004 0.133442 -1.81874e-20)
(1.22333 0.125072 2.05597e-20)
(1.20784 0.117351 6.49937e-21)
(1.19343 0.110319 -1.19893e-20)
(1.17991 0.103891 0)
(1.16722 0.0979846 0)
(1.15532 0.0926816 -2.05163e-20)
(1.14392 0.089181 1.22938e-20)
(0.185777 0.00403472 0)
(0.632268 0.0631677 0)
(1.01444 0.153506 0)
(1.24244 0.211812 -4.42597e-22)
(1.34 0.235246 1.38652e-22)
(1.36184 0.237376 6.61725e-22)
(1.35031 0.229572 6.53275e-21)
(1.32812 0.218146 -1.06823e-20)
(1.30443 0.205813 1.74127e-20)
(1.28204 0.19354 -7.7064e-21)
(1.26147 0.181677 0)
(1.24259 0.170392 5.41311e-21)
(1.22519 0.159743 0)
(1.20915 0.149752 -3.87557e-21)
(1.19441 0.14048 6.56203e-21)
(1.18092 0.131951 0)
(1.16861 0.124147 0)
(1.1573 0.117007 0)
(1.14671 0.110763 0)
(1.13684 0.106298 -2.63976e-21)
(-0.00494715 -0.0138845 -4.69439e-21)
(-0.0214543 -0.0803119 0)
(-0.0518383 -0.141591 0)
(-0.0879537 -0.188219 -1.48055e-20)
(-0.125382 -0.228231 2.71788e-20)
(-0.16185 -0.270423 7.31443e-23)
(-0.196144 -0.317979 -5.67278e-21)
(-0.227375 -0.370076 -1.09659e-20)
(-0.254498 -0.42445 2.39711e-22)
(-0.276219 -0.478273 9.12459e-21)
(-0.291089 -0.528206 0)
(-0.297633 -0.570473 8.24744e-21)
(-0.294501 -0.601084 0)
(-0.28065 -0.616158 -7.12441e-21)
(-0.255493 -0.612339 1.32315e-20)
(-0.219074 -0.587116 0)
(-0.172317 -0.539263 0)
(-0.116901 -0.469075 0)
(-0.055386 -0.378365 0)
(0.0132384 -0.269007 9.96814e-21)
(-0.00744683 0.00467831 -1.9646e-20)
(-0.0256886 -0.0429168 3.68824e-20)
(-0.0586868 -0.0945433 0)
(-0.096834 -0.136677 5.41076e-20)
(-0.135749 -0.175272 -4.18741e-20)
(-0.173646 -0.217798 -2.64018e-20)
(-0.209724 -0.266908 -4.21544e-22)
(-0.243414 -0.321941 5.61825e-20)
(-0.273986 -0.38107 -3.10625e-20)
(-0.300511 -0.441887 0)
(-0.321961 -0.501384 0)
(-0.337276 -0.555991 -8.23581e-21)
(-0.345433 -0.60175 3.09748e-20)
(-0.345507 -0.634554 -2.13097e-20)
(-0.336752 -0.650425 -3.91723e-20)
(-0.318769 -0.645888 2.38468e-20)
(-0.291561 -0.618459 0)
(-0.255244 -0.566861 0)
(-0.210314 -0.490688 1.97904e-20)
(-0.160437 -0.391052 -3.32468e-20)
(-0.0118039 0.0250342 4.21306e-20)
(-0.031084 -0.00170689 -1.95488e-20)
(-0.0626981 -0.0436984 1.13805e-21)
(-0.0981041 -0.0817045 -4.8424e-20)
(-0.133425 -0.118413 9.03386e-20)
(-0.16715 -0.159875 -5.52564e-20)
(-0.198638 -0.208598 0)
(-0.227486 -0.264315 0)
(-0.253219 -0.325641 -4.67999e-20)
(-0.275324 -0.390523 0)
(-0.293374 -0.456218 -3.72874e-20)
(-0.307106 -0.519377 1.40918e-19)
(-0.316404 -0.576254 -1.27495e-19)
(-0.321193 -0.622948 5.79375e-20)
(-0.321339 -0.655548 0)
(-0.316631 -0.67026 0)
(-0.306596 -0.663581 0)
(-0.289402 -0.63269 6.48826e-20)
(-0.264585 -0.575882 -4.34331e-20)
(-0.234243 -0.495085 0)
(-0.0173308 0.0430856 -4.20991e-20)
(-0.0369798 0.0370207 -2.03621e-21)
(-0.0638014 0.0049481 -3.61144e-20)
(-0.0922593 -0.0286459 3.39897e-20)
(-0.119319 -0.0629049 -3.03302e-20)
(-0.1436 -0.102268 0)
(-0.164377 -0.148901 -5.7109e-20)
(-0.181087 -0.203002 5.34213e-20)
(-0.193298 -0.263474 -3.04257e-21)
(-0.200751 -0.32843 -4.36038e-20)
(-0.203537 -0.395198 1.24018e-19)
(-0.202265 -0.460473 -7.4904e-20)
(-0.198074 -0.520727 3.11301e-20)
(-0.19242 -0.57251 -8.86516e-20)
(-0.186729 -0.612626 -4.94135e-20)
(-0.181911 -0.638157 -7.93117e-20)
(-0.178408 -0.646213 8.26967e-21)
(-0.172464 -0.633912 3.39012e-20)
(-0.167334 -0.599661 1.93744e-20)
(-0.143507 -0.543641 0)
(-0.0228708 0.055486 -1.82057e-19)
(-0.0421965 0.0679633 1.68929e-19)
(-0.0614623 0.0462226 0)
(-0.0798836 0.0175326 -3.76965e-20)
(-0.0954316 -0.0138248 1.02216e-19)
(-0.106215 -0.0504094 -6.39993e-20)
(-0.11135 -0.094485 2.35731e-19)
(-0.110391 -0.146309 -2.72756e-19)
(-0.102629 -0.20492 1.51151e-19)
(-0.0878887 -0.268382 -4.60538e-20)
(-0.0665899 -0.333726 8.55984e-20)
(-0.0400641 -0.397229 3.44975e-20)
(-0.0104151 -0.455129 -1.05952e-19)
(0.019681 -0.503592 -8.30797e-20)
(0.0472789 -0.539712 2.44872e-19)
(0.0702967 -0.561674 -8.49273e-20)
(0.0841804 -0.569618 0)
(0.0984133 -0.560688 8.93479e-20)
(0.0864813 -0.540115 -4.74274e-22)
(0.125123 -0.491974 -5.27944e-20)
(-0.0270288 0.0604344 -9.52711e-20)
(-0.0455902 0.0874984 -4.5022e-20)
(-0.0558418 0.0760601 -8.24935e-20)
(-0.0617603 0.0528403 0)
(-0.0626919 0.024836 -6.84975e-20)
(-0.057109 -0.00878074 1.962e-19)
(-0.0433233 -0.049892 -3.04242e-19)
(-0.0203835 -0.0986353 5.5243e-20)
(0.0120753 -0.154431 -1.06719e-19)
(0.054026 -0.21533 1.46971e-19)
(0.104469 -0.278104 0)
(0.160788 -0.338795 1.18593e-19)
(0.219569 -0.392896 6.87802e-20)
(0.277241 -0.435914 -1.11049e-19)
(0.329876 -0.464939 1.01959e-19)
(0.375719 -0.477138 6.96939e-20)
(0.405677 -0.476329 -6.40584e-20)
(0.442779 -0.455017 -2.20677e-20)
(0.430214 -0.43256 1.38458e-20)
(0.487073 -0.375086 -2.64473e-20)
(-0.0287453 0.0579578 -9.84876e-20)
(-0.0461152 0.0940796 1.82293e-19)
(-0.0473517 0.0920554 -1.87612e-21)
(-0.0400814 0.0744542 2.3304e-19)
(-0.0249862 0.0496016 2.92382e-21)
(-0.00071407 0.0183802 -2.67974e-19)
(0.0344548 -0.0198885 -2.66147e-21)
(0.0819616 -0.0656012 1.73174e-19)
(0.142082 -0.118147 0)
(0.214219 -0.17538 -4.93033e-20)
(0.296004 -0.233832 -8.73323e-20)
(0.383117 -0.28933 3.14517e-19)
(0.469893 -0.337129 -1.46277e-19)
(0.550369 -0.373292 -1.20333e-19)
(0.620479 -0.395405 4.09052e-20)
(0.677583 -0.400792 -4.36425e-20)
(0.715327 -0.393643 0)
(0.755494 -0.36652 0)
(0.74991 -0.337513 5.98779e-20)
(0.803598 -0.28132 -4.217e-20)
(-0.0277418 0.0497829 -1.0206e-19)
(-0.0432984 0.0885723 -9.24953e-20)
(-0.036472 0.0935034 -2.58297e-19)
(-0.0165791 0.0807697 1.56718e-19)
(0.0146902 0.0585201 0)
(0.0586404 0.0290622 1.36665e-19)
(0.117123 -0.00726156 -1.24762e-19)
(0.191664 -0.0505229 -5.80688e-20)
(0.282318 -0.0996084 0)
(0.386768 -0.151955 9.69943e-20)
(0.499649 -0.203832 -8.88956e-20)
(0.613188 -0.25111 -4.27527e-21)
(0.71886 -0.289614 -5.28174e-21)
(0.809092 -0.316562 -1.58421e-19)
(0.880824 -0.329831 -6.92618e-20)
(0.929451 -0.329701 2.47287e-19)
(0.960952 -0.317499 5.23752e-21)
(0.976411 -0.292707 -1.20945e-19)
(0.972071 -0.264078 3.76543e-20)
(0.987443 -0.220458 0)
(-0.024673 0.0386953 -1.57116e-21)
(-0.0375668 0.0739521 -9.51973e-20)
(-0.0236761 0.081865 1.73233e-19)
(0.00821134 0.0720757 0)
(0.0563629 0.0515055 0)
(0.122258 0.0233334 0)
(0.208142 -0.0113724 0)
(0.314919 -0.0516644 2.89383e-19)
(0.440197 -0.0955768 -2.11457e-19)
(0.577131 -0.140043 -9.70779e-20)
(0.71519 -0.181528 8.32827e-20)
(0.842696 -0.216769 7.5919e-20)
(0.949419 -0.243072 -6.4877e-20)
(1.02942 -0.259173 1.53569e-19)
(1.08101 -0.26438 -2.07675e-19)
(1.10504 -0.259871 1.13798e-19)
(1.11078 -0.247136 7.05391e-20)
(1.09645 -0.226132 -2.43733e-19)
(1.07865 -0.204716 9.8333e-20)
(1.05646 -0.170195 -2.27195e-20)
(-0.0208622 0.0276022 -4.05526e-22)
(-0.0297132 0.0546241 2.88672e-19)
(-0.00839404 0.061036 -2.62007e-19)
(0.0368915 0.0515845 -1.60067e-19)
(0.105707 0.0317896 1.45843e-19)
(0.200193 0.00496384 0)
(0.321634 -0.0268597 0)
(0.466989 -0.0614456 -2.25885e-19)
(0.62692 -0.0961375 2.64508e-21)
(0.787197 -0.128262 1.86571e-19)
(0.932521 -0.15567 -8.33911e-20)
(1.05037 -0.176935 -1.35698e-19)
(1.13361 -0.191184 1.04159e-20)
(1.18167 -0.19849 1.04644e-19)
(1.19775 -0.198751 0)
(1.1909 -0.193768 -8.86546e-20)
(1.16787 -0.183094 2.08354e-19)
(1.13643 -0.168716 2.67541e-20)
(1.10633 -0.153987 -9.94299e-20)
(1.07538 -0.126877 2.2776e-20)
(0.0844331 -0.13604 -6.82816e-21)
(0.180747 0.0675055 1.95629e-22)
(0.263708 0.277085 -1.80313e-22)
(0.346353 0.496415 1.59323e-22)
(0.424419 0.682565 0)
(0.4871 0.803458 -3.21373e-21)
(0.524938 0.853404 3.10182e-21)
(0.557022 0.831463 -2.07652e-21)
(0.585654 0.776989 2.06796e-21)
(0.576258 0.765026 -1.21916e-22)
(0.531049 0.789632 0)
(0.506276 0.735005 2.65994e-21)
(0.544385 0.508381 -5.54901e-21)
(0.622981 0.145896 6.06224e-21)
(0.706509 -0.228889 -5.49643e-21)
(0.774317 -0.494659 2.52036e-21)
(0.815072 -0.623661 0)
(0.824893 -0.652566 -1.15032e-21)
(0.827541 -0.620657 1.03669e-21)
(0.827624 -0.595411 7.35601e-22)
(0.795903 -0.628015 -7.10336e-22)
(0.726395 -0.657339 7.4888e-22)
(0.651042 -0.572772 -7.03093e-22)
(0.605854 -0.347226 0)
(0.605077 -0.0524773 0)
(0.645844 0.205376 0)
(0.725833 0.351235 0)
(0.816185 0.41365 2.23832e-22)
(0.850041 0.486333 -1.19352e-22)
(0.81062 0.580283 0)
(0.75571 0.576084 -1.24304e-22)
(0.74099 0.385276 0)
(0.763296 0.0825976 -1.30456e-22)
(0.780987 -0.198589 4.18617e-22)
(0.76051 -0.397902 1.75081e-22)
(0.717915 -0.48371 -2.39822e-22)
(0.670813 -0.432554 -1.09512e-22)
(0.618308 -0.268422 1.3671e-23)
(0.569388 -0.0496448 -3.86639e-23)
(0.541964 0.161051 -1.03275e-23)
(0.530042 0.296194 -3.28393e-24)
(0.53124 0.339641 1.91507e-22)
(0.536616 0.257422 0)
(0.56587 0.133785 0)
(0.610363 -0.0511651 0)
(0.67335 -0.137461 -7.39062e-23)
(0.721215 -0.219159 4.22878e-24)
(0.780453 -0.186729 -3.70054e-23)
(0.789322 -0.170858 -2.15564e-23)
(0.833624 -0.130463 -4.0836e-25)
(-0.119538 -0.25904 2.32677e-20)
(-0.0115038 -0.0500022 -2.28417e-20)
(0.0668977 0.153713 2.04732e-20)
(0.164042 0.38328 -2.08656e-21)
(0.256652 0.577777 -3.03454e-20)
(0.345175 0.720239 1.31601e-20)
(0.425112 0.790206 0)
(0.502092 0.788388 -6.6245e-23)
(0.553684 0.767784 0)
(0.555491 0.787515 -1.10111e-22)
(0.535685 0.813411 -9.51435e-21)
(0.554556 0.731364 8.87383e-21)
(0.629891 0.477567 0)
(0.730617 0.100906 -5.95158e-22)
(0.820858 -0.276034 -3.73926e-22)
(0.87525 -0.533441 0)
(0.894917 -0.643931 5.91925e-21)
(0.883053 -0.657384 -1.02387e-20)
(0.860085 -0.619035 4.23613e-21)
(0.840433 -0.582565 0)
(0.798692 -0.596495 0)
(0.719265 -0.614349 8.54693e-23)
(0.62756 -0.536735 -3.59768e-21)
(0.564446 -0.332891 -4.78075e-22)
(0.555305 -0.0674415 3.56874e-21)
(0.603627 0.164457 0)
(0.70191 0.303654 9.58935e-22)
(0.807598 0.384278 -8.33583e-22)
(0.851675 0.48581 -9.71944e-23)
(0.821141 0.597187 1.99767e-22)
(0.777367 0.591148 -1.38113e-22)
(0.772057 0.388243 -3.30515e-22)
(0.797841 0.0781232 -1.77051e-21)
(0.814832 -0.198925 7.91764e-22)
(0.788414 -0.388828 0)
(0.736461 -0.469929 6.84409e-22)
(0.685458 -0.417908 -1.91961e-22)
(0.633576 -0.25441 -2.53888e-22)
(0.583764 -0.0394289 -4.62698e-23)
(0.552292 0.166943 6.79569e-23)
(0.535037 0.298838 0)
(0.529974 0.340057 -3.89831e-22)
(0.532084 0.25388 2.53034e-22)
(0.560791 0.125347 -2.12198e-22)
(0.610227 -0.063845 7.77495e-24)
(0.675338 -0.150219 6.17411e-23)
(0.725976 -0.230705 8.8987e-23)
(0.7867 -0.194419 -5.01661e-23)
(0.798544 -0.175743 2.37314e-23)
(0.840498 -0.13482 -1.69465e-24)
(-0.238044 -0.380172 0)
(-0.143085 -0.192406 -3.20992e-20)
(-0.0708553 0.0130848 3.08812e-20)
(0.0344193 0.239059 -2.55003e-20)
(0.131558 0.441007 2.45265e-20)
(0.245059 0.600046 1.6502e-22)
(0.356836 0.692343 0)
(0.455303 0.724796 -1.39185e-20)
(0.51315 0.745563 1.32566e-20)
(0.526756 0.78939 4.37307e-22)
(0.541031 0.806705 0)
(0.604981 0.703412 6.01346e-22)
(0.712186 0.443151 2.54074e-20)
(0.832281 0.0704579 -2.37763e-20)
(0.930458 -0.298784 2.19005e-20)
(0.973828 -0.54451 -3.81088e-20)
(0.971968 -0.640497 2.92069e-20)
(0.940821 -0.644814 -1.22372e-20)
(0.89703 -0.606657 0)
(0.860072 -0.563705 1.63211e-22)
(0.81068 -0.560196 -1.30079e-22)
(0.724225 -0.568213 1.14229e-22)
(0.618955 -0.500379 1.65158e-22)
(0.538388 -0.321027 0)
(0.519155 -0.0872702 -2.69287e-21)
(0.572846 0.116586 2.60035e-21)
(0.685872 0.248016 0)
(0.80422 0.3459 5.48724e-23)
(0.858237 0.477858 -1.53994e-22)
(0.839507 0.612718 -3.94083e-22)
(0.808445 0.610396 2.64495e-22)
(0.811506 0.397162 -2.51981e-21)
(0.839244 0.0805708 4.26457e-22)
(0.854402 -0.191297 2.8794e-21)
(0.821585 -0.372965 4.23975e-22)
(0.759053 -0.454399 -1.36827e-22)
(0.703092 -0.405881 -3.3343e-22)
(0.651982 -0.243508 4.54543e-22)
(0.602101 -0.0308765 4.76452e-23)
(0.567078 0.172664 -1.80832e-22)
(0.544613 0.30235 -2.01344e-22)
(0.532824 0.342054 2.60137e-22)
(0.53125 0.251775 1.1401e-21)
(0.559309 0.117354 -5.2963e-23)
(0.613634 -0.0765128 -2.69024e-22)
(0.680464 -0.163243 0)
(0.732769 -0.24247 -2.8472e-22)
(0.793883 -0.20257 7.62426e-23)
(0.808142 -0.180678 1.76879e-23)
(0.847404 -0.138921 1.13994e-23)
(-0.196108 -0.461013 -1.3331e-22)
(-0.169239 -0.314312 1.11954e-22)
(-0.137456 -0.122724 -1.8933e-22)
(-0.0502693 0.0779953 -1.71427e-22)
(0.041976 0.284287 0)
(0.15841 0.453984 1.24035e-22)
(0.27891 0.572837 0)
(0.380239 0.646098 1.85056e-22)
(0.443086 0.705465 -1.13972e-20)
(0.480584 0.761415 2.38806e-20)
(0.542414 0.764318 -1.24387e-20)
(0.652183 0.653239 2.06399e-22)
(0.783766 0.406502 -3.58107e-22)
(0.920731 0.0497888 -7.23693e-22)
(1.03135 -0.306816 2.23624e-20)
(1.06985 -0.539612 -5.2133e-21)
(1.048 -0.624486 -1.62376e-20)
(0.99861 -0.621508 -8.17493e-21)
(0.937639 -0.584955 8.19043e-21)
(0.884099 -0.542874 -1.65464e-22)
(0.82928 -0.525836 1.3184e-22)
(0.742035 -0.520272 -1.15743e-22)
(0.628176 -0.459836 -1.77653e-22)
(0.531569 -0.307983 -4.16164e-21)
(0.49977 -0.109783 4.2272e-21)
(0.55338 0.0627169 3.11329e-21)
(0.674565 0.184715 -3.00538e-21)
(0.803369 0.300223 -3.85256e-23)
(0.870691 0.460482 -2.54934e-21)
(0.864059 0.615731 6.74857e-21)
(0.843614 0.620608 -3.63255e-21)
(0.855438 0.405236 -5.92513e-21)
(0.884461 0.0858202 5.721e-21)
(0.89754 -0.181459 0)
(0.859731 -0.353601 9.61983e-22)
(0.78593 -0.435235 -1.342e-21)
(0.723193 -0.39386 -2.78947e-22)
(0.672878 -0.235156 9.98108e-23)
(0.623876 -0.0247583 9.86106e-23)
(0.586019 0.178281 0)
(0.558773 0.308513 1.12645e-21)
(0.539901 0.347191 -1.15418e-21)
(0.534406 0.251692 -5.88402e-22)
(0.561836 0.109943 0)
(0.620878 -0.0892154 4.11096e-22)
(0.68892 -0.176458 -3.97349e-22)
(0.74185 -0.254276 1.17422e-22)
(0.802067 -0.21103 7.58396e-23)
(0.818167 -0.185585 0)
(0.854422 -0.142734 -1.13817e-23)
(0.0336372 -0.447858 2.15832e-20)
(-0.0366719 -0.364256 -2.08123e-20)
(-0.0737783 -0.22187 -4.22534e-23)
(-0.0455193 -0.0512602 0)
(0.00716725 0.133988 0)
(0.0903245 0.305398 -1.26906e-22)
(0.192023 0.445816 0)
(0.284226 0.553386 1.23356e-20)
(0.35603 0.639628 -1.19428e-20)
(0.430128 0.696491 0)
(0.545236 0.688258 -1.94953e-22)
(0.693153 0.585516 3.37365e-20)
(0.846455 0.363501 -3.34245e-20)
(1.00333 0.0317396 9.06111e-23)
(1.12379 -0.301231 2.02647e-20)
(1.15607 -0.513844 -3.49174e-20)
(1.11581 -0.590098 1.53924e-20)
(1.04987 -0.586938 0)
(0.977736 -0.553529 -5.73349e-21)
(0.91114 -0.515049 5.25238e-21)
(0.851659 -0.493126 0)
(0.769601 -0.477264 -2.52442e-21)
(0.654936 -0.419435 2.49516e-21)
(0.546088 -0.291804 -7.65851e-23)
(0.499075 -0.130054 0)
(0.5445 0.00958278 0)
(0.666972 0.115541 1.74816e-21)
(0.804248 0.242279 -1.71378e-21)
(0.883419 0.431035 0)
(0.890845 0.61512 -1.82199e-22)
(0.885976 0.635837 0)
(0.905265 0.423284 0)
(0.932759 0.0991459 5.60743e-21)
(0.942639 -0.165257 -6.02511e-21)
(0.900776 -0.328796 0)
(0.815766 -0.412532 1.70095e-21)
(0.744614 -0.382079 -1.28702e-21)
(0.695069 -0.229242 -3.5227e-23)
(0.648435 -0.0200608 -2.44842e-22)
(0.609194 0.182866 2.36362e-22)
(0.5776 0.313535 0)
(0.55126 0.352702 0)
(0.541866 0.252778 0)
(0.56882 0.102989 5.24063e-22)
(0.632197 -0.10181 -1.74613e-21)
(0.700758 -0.189619 3.82767e-22)
(0.75333 -0.265822 6.27615e-23)
(0.811301 -0.21959 2.04435e-22)
(0.828613 -0.190373 -3.92795e-23)
(0.861588 -0.14623 0)
(0.391355 -0.345891 1.16784e-20)
(0.270164 -0.302243 8.58909e-21)
(0.167481 -0.230431 -7.3584e-23)
(0.108642 -0.121974 6.12271e-21)
(0.0884062 0.0147097 -5.83003e-21)
(0.116379 0.171559 0)
(0.176148 0.319625 -1.17137e-21)
(0.246894 0.447272 1.17536e-21)
(0.322411 0.543782 -6.84495e-21)
(0.427173 0.59217 6.59826e-21)
(0.576342 0.580226 0)
(0.739059 0.500628 4.17641e-22)
(0.904882 0.314121 0)
(1.08034 0.0151231 4.07604e-20)
(1.20666 -0.287025 -7.55074e-20)
(1.23054 -0.476802 3.55327e-20)
(1.17555 -0.545217 0)
(1.09543 -0.545825 2.63584e-22)
(1.0161 -0.518529 0)
(0.941042 -0.484361 2.83268e-23)
(0.875902 -0.461238 0)
(0.802179 -0.439153 0)
(0.696187 -0.380922 -3.24869e-21)
(0.581808 -0.271089 5.24097e-21)
(0.519918 -0.143323 -4.07704e-21)
(0.548904 -0.0400689 2.01709e-21)
(0.661844 0.0439605 -9.11359e-23)
(0.802552 0.177899 1.31929e-21)
(0.894871 0.389377 -1.22408e-21)
(0.917884 0.595138 -3.26999e-21)
(0.92352 0.636907 -1.68857e-21)
(0.949478 0.438482 4.6686e-21)
(0.978161 0.117111 -5.52701e-21)
(0.986712 -0.145534 5.95262e-21)
(0.94351 -0.300733 0)
(0.848597 -0.385764 1.09735e-21)
(0.766949 -0.369343 -8.84783e-22)
(0.717985 -0.226097 -4.51013e-22)
(0.675311 -0.0191604 0)
(0.635944 0.185749 -6.67548e-23)
(0.600874 0.321594 8.67082e-22)
(0.567391 0.362774 -8.36186e-22)
(0.554252 0.256485 0)
(0.58074 0.0970409 7.01263e-22)
(0.64781 -0.114056 1.58695e-21)
(0.716007 -0.202507 -1.03808e-21)
(0.767259 -0.276833 -5.4846e-22)
(0.821645 -0.22802 0)
(0.839461 -0.194939 0)
(0.868904 -0.149382 -2.62271e-23)
(0.738093 -0.243719 -9.29143e-21)
(0.637478 -0.196909 8.97795e-21)
(0.518723 -0.14951 0)
(0.413529 -0.0892484 1.47952e-23)
(0.328608 -0.0091513 1.26139e-22)
(0.281307 0.0947749 0)
(0.279106 0.219998 0)
(0.312318 0.34826 -9.42799e-23)
(0.378169 0.44512 5.42204e-23)
(0.493089 0.483718 5.41591e-21)
(0.644486 0.474324 -5.1231e-21)
(0.798048 0.418807 0)
(0.969519 0.261244 0)
(1.15828 -0.00263931 4.71574e-22)
(1.28046 -0.265307 -4.85728e-22)
(1.28957 -0.427677 0)
(1.22333 -0.489208 2.00221e-20)
(1.13449 -0.49749 -1.95699e-20)
(1.05137 -0.479702 -9.87054e-21)
(0.974171 -0.450871 9.94585e-21)
(0.903003 -0.430272 0)
(0.834529 -0.407602 -2.81577e-21)
(0.744469 -0.348145 2.68417e-21)
(0.634621 -0.247874 -2.49288e-21)
(0.561753 -0.146632 -4.47041e-22)
(0.570647 -0.0798791 2.78923e-21)
(0.662771 -0.0239348 1.38919e-21)
(0.796976 0.10339 -1.38976e-21)
(0.899883 0.335468 0)
(0.940477 0.57553 0)
(0.964404 0.642332 0)
(1.00053 0.459405 6.04277e-22)
(1.025 0.140635 0)
(1.02846 -0.122176 -4.05547e-21)
(0.985385 -0.269803 6.01701e-21)
(0.883355 -0.355081 -2.60685e-21)
(0.78965 -0.354862 1.67564e-22)
(0.740062 -0.224997 1.15039e-23)
(0.703118 -0.0195631 -8.23936e-23)
(0.665675 0.188346 1.08436e-22)
(0.628367 0.326867 0)
(0.58811 0.370011 5.61191e-22)
(0.571666 0.26017 8.07603e-22)
(0.597843 0.0914959 0)
(0.667809 -0.125818 0)
(0.734621 -0.214849 0)
(0.783587 -0.287067 1.95002e-22)
(0.833121 -0.236106 -2.23899e-22)
(0.850678 -0.199187 -8.64087e-23)
(0.876348 -0.152165 2.61465e-23)
(0.94345 -0.187339 1.64617e-20)
(0.884508 -0.14206 -1.59003e-20)
(0.812766 -0.0900347 -6.15266e-21)
(0.733817 -0.0308997 5.85825e-21)
(0.64949 0.0274077 -1.31833e-22)
(0.574275 0.0850125 0)
(0.517832 0.163471 1.41003e-22)
(0.495521 0.264447 2.24452e-22)
(0.529704 0.344319 6.31271e-21)
(0.626171 0.372445 -6.2191e-21)
(0.749365 0.370461 -8.37292e-21)
(0.879154 0.335913 -8.9611e-21)
(1.05138 0.207769 1.63658e-20)
(1.23816 -0.0129897 -4.90664e-22)
(1.34091 -0.230132 5.05081e-22)
(1.33113 -0.367359 2.37488e-20)
(1.25808 -0.426256 -4.09395e-20)
(1.16746 -0.444541 4.12678e-21)
(1.08189 -0.439752 1.26554e-20)
(1.00666 -0.416844 -6.29645e-21)
(0.933518 -0.398809 6.17295e-21)
(0.864849 -0.381429 0)
(0.791262 -0.324484 1.16426e-21)
(0.695995 -0.226854 -2.63135e-21)
(0.620308 -0.141148 1.45201e-21)
(0.612151 -0.103857 -1.58791e-21)
(0.675993 -0.0809413 1.45934e-21)
(0.790503 0.0281971 -1.2658e-21)
(0.89784 0.26648 1.17171e-21)
(0.952461 0.524702 4.85396e-21)
(0.989632 0.62802 -4.50069e-21)
(1.03181 0.480633 4.14302e-21)
(1.05906 0.174345 -4.22172e-21)
(1.06397 -0.0906777 0)
(1.02494 -0.235522 3.92406e-22)
(0.919612 -0.320614 2.07704e-22)
(0.813011 -0.337693 -2.979e-22)
(0.760881 -0.225546 1.9167e-22)
(0.731314 -0.0261211 -2.22343e-22)
(0.698144 0.18607 2.78805e-22)
(0.66021 0.335132 0)
(0.614073 0.385433 -3.44087e-21)
(0.594758 0.268478 3.70725e-21)
(0.620486 0.0878091 -5.25215e-23)
(0.692304 -0.136597 -1.57568e-21)
(0.756527 -0.226493 0)
(0.802165 -0.296521 2.07616e-22)
(0.845719 -0.243806 -2.05823e-22)
(0.862232 -0.203103 -5.62436e-23)
(0.883888 -0.154582 0)
(1.02201 -0.15092 2.41326e-20)
(0.983448 -0.119206 -2.32288e-20)
(0.941539 -0.0740092 -1.02517e-21)
(0.899085 -0.0151683 -7.1581e-21)
(0.859147 0.0521902 2.21585e-20)
(0.827686 0.111969 -1.38189e-20)
(0.792526 0.169022 -1.48447e-22)
(0.754243 0.240588 -1.32618e-22)
(0.757477 0.298569 9.31369e-23)
(0.821794 0.311845 -3.21768e-23)
(0.906703 0.302091 1.49641e-23)
(1.01135 0.266122 -7.98046e-23)
(1.16615 0.150366 1.9952e-20)
(1.31684 -0.0295895 -1.91522e-20)
(1.38106 -0.197406 0)
(1.35189 -0.310823 -2.32392e-22)
(1.27688 -0.368802 1.81114e-22)
(1.19242 -0.394722 0)
(1.10805 -0.402521 -9.06177e-21)
(1.03538 -0.387546 8.60106e-21)
(0.966155 -0.369612 7.21712e-23)
(0.894134 -0.359836 2.04771e-21)
(0.830762 -0.313211 -1.96986e-21)
(0.756479 -0.215234 -1.88685e-23)
(0.686942 -0.131578 -1.27145e-21)
(0.667852 -0.111607 1.21187e-21)
(0.704105 -0.121763 0)
(0.784293 -0.0432875 0)
(0.88501 0.195918 -1.96154e-21)
(0.960132 0.485826 1.96862e-21)
(1.0173 0.618292 -3.90703e-23)
(1.07266 0.490057 2.74377e-22)
(1.09773 0.196532 8.30021e-21)
(1.09509 -0.0674224 -9.08932e-21)
(1.0594 -0.204979 -2.21917e-21)
(0.955425 -0.285121 2.13171e-21)
(0.837287 -0.31892 0)
(0.779338 -0.228248 -3.8125e-22)
(0.758267 -0.0321533 3.86327e-22)
(0.731522 0.185084 2.53737e-23)
(0.694295 0.339121 1.54849e-21)
(0.644143 0.391969 -1.19917e-21)
(0.622652 0.272643 0)
(0.648429 0.0840153 0)
(0.721051 -0.14685 -1.31861e-21)
(0.781483 -0.237725 1.26488e-21)
(0.822749 -0.305149 2.20017e-22)
(0.859415 -0.250997 -7.86827e-23)
(0.87411 -0.206613 2.72547e-23)
(0.891497 -0.156623 0)
(1.04738 -0.129327 -6.64473e-23)
(1.02342 -0.111608 0)
(0.997778 -0.0852643 1.26406e-20)
(0.967287 -0.0497931 -1.51031e-20)
(0.941984 -0.000281269 2.77922e-21)
(0.933227 0.0535489 4.92024e-23)
(0.93317 0.110438 0)
(0.930025 0.175635 0)
(0.943001 0.231396 0)
(0.988115 0.254819 3.40771e-23)
(1.04589 0.257706 1.31389e-21)
(1.12705 0.232727 -1.26388e-21)
(1.24776 0.145956 1.10833e-20)
(1.35281 0.015733 -1.07116e-20)
(1.38583 -0.116938 0)
(1.35325 -0.224137 -1.5775e-22)
(1.28684 -0.29525 -1.4162e-20)
(1.2132 -0.336381 2.51723e-20)
(1.13372 -0.359202 -2.46605e-21)
(1.06051 -0.357992 -1.41122e-20)
(0.99859 -0.341253 5.61822e-21)
(0.925581 -0.335577 1.92249e-21)
(0.862143 -0.306176 -1.84708e-21)
(0.808966 -0.214826 -3.27873e-24)
(0.752662 -0.124569 1.17747e-23)
(0.72487 -0.106803 -9.13185e-22)
(0.739351 -0.137908 8.76886e-22)
(0.788923 -0.101388 0)
(0.866244 0.100161 -1.72434e-21)
(0.942389 0.396477 4.70517e-21)
(1.0156 0.583223 -3.10491e-21)
(1.08404 0.523889 0)
(1.11296 0.25612 2.80774e-22)
(1.11533 -0.0196106 2.52758e-22)
(1.08979 -0.168337 4.08581e-21)
(0.990647 -0.246736 -3.91794e-21)
(0.863005 -0.293698 0)
(0.797048 -0.230673 4.89394e-22)
(0.783107 -0.049961 -4.69078e-22)
(0.766036 0.174023 -3.55465e-23)
(0.734164 0.34469 -1.63971e-23)
(0.679643 0.412804 -2.9127e-22)
(0.65605 0.288238 0)
(0.682039 0.084641 0)
(0.753963 -0.155118 -1.41167e-21)
(0.809289 -0.246987 1.35094e-21)
(0.845111 -0.311315 0)
(0.874164 -0.256562 0)
(0.886276 -0.209197 4.74884e-23)
(0.89915 -0.158147 -1.77763e-23)
(1.06327 -0.0862623 0)
(1.04586 -0.0681552 0)
(1.02178 -0.0475438 0)
(0.996544 -0.0204439 0)
(0.977879 0.0178876 0)
(0.976462 0.0610218 0)
(0.9885 0.106273 0)
(1.00751 0.149502 0)
(1.04337 0.183009 0)
(1.09508 0.1969 0)
(1.15372 0.192455 0)
(1.22714 0.162779 0)
(1.30884 0.0932361 0)
(1.36022 -0.00156314 0)
(1.36363 -0.0966785 0)
(1.33311 -0.176363 0)
(1.2788 -0.236847 0)
(1.21899 -0.27628 0)
(1.15266 -0.302548 0)
(1.07996 -0.313294 0)
(1.02547 -0.300866 0)
(0.960131 -0.295934 0)
(0.888511 -0.286511 0)
(0.845699 -0.213662 0)
(0.808765 -0.119698 0)
(0.776946 -0.0982981 0)
(0.766228 -0.145418 0)
(0.788266 -0.13332 0)
(0.854391 0.0518313 0)
(0.939597 0.346912 0)
(1.02826 0.54415 0)
(1.10567 0.500417 0)
(1.13271 0.256533 0)
(1.12778 -0.00232174 0)
(1.10992 -0.135452 0)
(1.02268 -0.20182 0)
(0.888793 -0.259195 0)
(0.812026 -0.221079 0)
(0.803883 -0.0556205 0)
(0.798054 0.166903 0)
(0.770899 0.342224 0)
(0.715378 0.412995 0)
(0.694501 0.285705 0)
(0.719984 0.0804888 0)
(0.789706 -0.159133 0)
(0.838763 -0.25022 0)
(0.868073 -0.313071 0)
(0.889062 -0.259423 0)
(0.897981 -0.210421 0)
(0.906376 -0.159057 0)
(1.07472 -0.0589514 0)
(1.06129 -0.0473354 0)
(1.03966 -0.0318395 0)