/*--------------------------------*- C++ -*----------------------------------*\
| =========                 |                                                 |
| \\      /  F ield         | OpenFOAM: The Open Source CFD Toolbox           |
|  \\    /   O peration     | Version:  2512                                  |
|   \\  /    A nd           | Website:  www.openfoam.com                      |
|    \\/     M anipulation  |                                                 |
\*---------------------------------------------------------------------------*/
FoamFile
{
    version     2.0;
    format      ascii;
    arch        "LSB;label=32;scalar=64";
    class       surfaceScalarField;
    location    "173.3";
    object      phi;
}
// * * * * * * * * * * * * * * * * * * * * * * * * * * * * * * * * * * * * * //

dimensions      [0 3 -1 0 0 0 0];

oriented        oriented;

internalField   nonuniform List<scalar> 
26232
(
-3.08106e-05
0.00132431
-0.0012935
0.000533083
0.00198305
-0.00254695
0.00211186
0.000803687
-0.00238246
0.00509318
-0.00235211
-0.00062921
0.0099015
-0.00768891
0.00288058
0.0169361
-0.0153393
0.00830462
0.0263888
-0.0251871
0.0157345
0.0380387
-0.0367389
0.025089
0.0511787
-0.0491556
0.0360156
0.0647375
-0.0614411
0.0478823
0.077542
-0.0726804
0.0598759
0.0886079
-0.0822301
0.0711642
0.0973571
-0.0898085
0.0810593
0.103702
-0.0954865
0.0891419
0.10798
-0.0995901
0.095312
0.110776
-0.102553
0.0997565
0.112711
-0.104778
0.102843
0.114276
-0.106556
0.104991
0.115801
-0.108049
0.106524
0.117434
-0.109354
0.10772
0.119273
-0.110427
0.108588
0.121303
-0.111459
0.10943
0.123066
-0.11186
0.110097
-0.112402
0.111108
0.12436
1.17353e-05
0.00131257
0.000758003
0.00123679
0.00281513
-0.00125344
0.00673063
-0.00626761
0.0130008
-0.0139591
0.0218761
-0.0242146
0.0331134
-0.0364245
0.0458939
-0.0495194
0.0590097
-0.0622714
0.0712138
-0.0736452
0.0815559
-0.0830226
0.0895801
-0.0902543
0.0953447
-0.095573
0.0992837
-0.0994255
0.101988
-0.102294
0.104004
-0.104569
0.105726
-0.1065
0.107388
-0.108218
0.109121
-0.109782
0.110985
-0.111218
0.113097
-0.112539
0.115448
-0.113811
0.118497
-0.114908
-0.116483
0.122578
0.000143919
0.00116866
0.00130674
7.39607e-05
0.00416711
-0.00411381
0.00935434
-0.0114548
0.0172573
-0.021862
0.027712
-0.0346692
0.0398569
-0.0485694
0.0523679
-0.0620304
0.0639169
-0.0738204
0.0735712
-0.0832995
0.0809731
-0.0904244
0.086289
-0.0955703
0.0900048
-0.0992888
0.0926833
-0.102104
0.0947911
-0.104402
0.0966368
-0.106415
0.098398
-0.108261
0.100179
-0.11
0.102053
-0.111656
0.104097
-0.113261
0.106364
-0.114806
0.108912
-0.116359
0.111796
-0.117792
-0.119395
0.114708
0.000338011
0.000830645
0.00207681
-0.00166484
0.00595892
-0.00799591
0.0125579
-0.0180538
0.021911
-0.0312152
0.0332277
-0.0459859
0.0451034
-0.060445
0.0561023
-0.0730293
0.0652559
-0.082974
0.0722413
-0.0902849
0.0772708
-0.095454
0.0808348
-0.0991343
0.0834537
-0.101908
0.0855351
-0.104185
0.0873441
-0.106211
0.089041
-0.108112
0.0907287
-0.109949
0.0924802
-0.111751
0.0943588
-0.113535
0.0964045
-0.115306
0.09867
-0.117072
0.101186
-0.118875
0.104023
-0.120628
-0.122658
0.107286
0.000566662
0.000263983
0.00298911
-0.00408729
0.00799805
-0.0130048
0.01592
-0.0259758
0.0261932
-0.0414883
0.0374052
-0.057198
0.0479743
-0.0710141
0.0568104
-0.0818654
0.0635431
-0.0897067
0.068375
-0.0951168
0.071786
-0.098865
0.0742781
-0.101626
0.0762428
-0.103872
0.07794
-0.105883
0.0795287
-0.1078
0.0811055
-0.109688
0.0827295
-0.111573
0.0844416
-0.113463
0.0862702
-0.115363
0.0882433
-0.11728
0.0903957
-0.119224
0.0927275
-0.121207
0.0952919
-0.123192
-0.125353
0.0979861
0.000824979
-0.000560996
0.00399515
-0.00725746
0.0101124
-0.0191221
0.0190148
-0.0348783
0.0294414
-0.0519149
0.0396558
-0.0674124
0.0483452
-0.0797035
0.0549924
-0.0885126
0.0597356
-0.0944499
0.0630371
-0.0984183
0.0654016
-0.10123
0.0672302
-0.103455
0.0687883
-0.105431
0.0702315
-0.107326
0.0716441
-0.109212
0.0730712
-0.111115
0.0745422
-0.113044
0.0760825
-0.115003
0.0777192
-0.117
0.0794816
-0.119042
0.0813942
-0.121137
0.0834794
-0.123292
0.0857846
-0.125498
-0.127862
0.0882936
0.00111274
-0.00167373
0.00504724
-0.011192
0.0121009
-0.0261757
0.0214296
-0.044207
0.0312407
-0.061726
0.0399049
-0.0760765
0.0466307
-0.0864293
0.0514134
-0.0932953
0.0546745
-0.0977109
0.0569301
-0.100674
0.0586065
-0.102906
0.0599868
-0.104835
0.0612321
-0.106676
0.0624255
-0.108519
0.0636104
-0.110397
0.0648159
-0.112321
0.0660665
-0.114295
0.0673861
-0.116323
0.0687965
-0.11841
0.0703149
-0.120561
0.0719569
-0.122779
0.0737286
-0.125064
0.0756502
-0.127419
-0.12989
0.0776781
0.00142179
-0.00309552
0.00606919
-0.0158394
0.0137311
-0.0338376
0.0228625
-0.0533384
0.0315078
-0.0703714
0.0384497
-0.0830184
0.0434177
-0.0913973
0.0467378
-0.0966155
0.048931
-0.0999041
0.0504616
-0.102205
0.0516473
-0.104092
0.0526694
-0.105857
0.0536201
-0.107627
0.0545459
-0.109445
0.0554741
-0.111325
0.0564247
-0.113272
0.0574149
-0.115285
0.05846
-0.117368
0.0595741
-0.119524
0.0607713
-0.121758
0.0620627
-0.12407
0.0634609
-0.126462
0.0649845
-0.128943
-0.13152
0.0666145
0.00173268
-0.0048282
0.00695844
-0.0210651
0.0148
-0.0416792
0.0232089
-0.0617472
0.0304221
-0.0775846
0.0357237
-0.08832
0.0392356
-0.0949092
0.0414471
-0.0988269
0.0428653
-0.101322
0.0438599
-0.103199
0.0446486
-0.10488
0.0453416
-0.10655
0.0459914
-0.108276
0.0466249
-0.110078
0.0472594
-0.11196
0.047909
-0.113921
0.0485878
-0.115964
0.0493098
-0.11809
0.0500886
-0.120303
0.0509354
-0.122604
0.0518591
-0.124994
0.0528674
-0.127471
0.0539615
-0.130037
-0.132682
0.0551237
0.00201821
-0.00684641
0.00760919
-0.0266561
0.0151948
-0.0492648
0.0225426
-0.0690951
0.0282807
-0.0833226
0.0321399
-0.0921792
0.0344882
-0.0972576
0.035858
-0.100197
0.036685
-0.102149
0.0372414
-0.103756
0.0376681
-0.105307
0.0380303
-0.106912
0.0383581
-0.108604
0.0386687
-0.110389
0.0389755
-0.112267
0.039291
-0.114237
0.0396275
-0.1163
0.0399964
-0.118459
0.0404077
-0.120714
0.0408696
-0.123066
0.0413899
-0.125514
0.0419754
-0.128056
0.0426305
-0.130692
-0.13341
0.0433589
0.00225067
-0.00909708
0.00794537
-0.0323508
0.0149185
-0.056238
0.0210452
-0.0752217
0.0253954
-0.0876728
0.0280377
-0.0948216
0.0294634
-0.0986832
0.030174
-0.100907
0.0305159
-0.102491
0.0306789
-0.103919
0.0307509
-0.105379
0.0307704
-0.106932
0.0307564
-0.10859
0.0307216
-0.110354
0.0306767
-0.112222
0.0306318
-0.114192
0.0305966
-0.116265
0.0305803
-0.118443
0.0305921
-0.120726
0.0306409
-0.123115
0.0307348
-0.125608
0.0308796
-0.128201
0.0310749
-0.130887
-0.133659
0.0313237
0.00241078
-0.0115079
0.00794477
-0.0378848
0.0140659
-0.0623591
0.0189424
-0.0800983
0.02205
-0.0907804
0.0236817
-0.0964533
0.0243626
-0.0993641
0.0245268
-0.101071
0.0244365
-0.102401
0.0242191
-0.103701
0.0239289
-0.105089
0.023589
-0.106592
0.0232125
-0.108214
0.022809
-0.109951
0.0223872
-0.1118
0.0219557
-0.11376
0.0215227
-0.115832
0.021096
-0.118016
0.0206835
-0.120314
0.0202931
-0.122725
0.0199332
-0.125248
0.0196121
-0.12788
0.0193342
-0.130609
0.0191097
-0.133435
-0.00040665
0.00768897
-0.00728232
-0.00163345
0.0150741
-0.0138473
-0.00350975
0.017788
-0.0159117
-0.00584744
0.0180302
-0.0156925
-0.0084974
0.0171538
-0.0145038
-0.0113585
0.015739
-0.0128779
-0.0143651
0.0138777
-0.0108711
-0.0174698
0.0114658
-0.00836113
-0.0206344
0.00836611
-0.00520151
-0.023845
0.00445491
-0.00124434
-0.0269233
-0.000296576
0.00337491
-0.0299455
-0.00588641
0.00890858
-0.0328324
-0.0124213
0.0153083
-0.0355272
-0.0198287
0.0225235
-0.0379715
-0.0280167
0.0304611
-0.0401045
-0.0368413
0.0389743
-0.0418638
-0.0460983
0.0478576
-0.0431849
-0.0555236
0.0568447
-0.0439828
-0.0648148
0.0656126
-0.044129
-0.0736474
0.0737937
-0.0434255
-0.0816923
0.0809888
-0.0415717
-0.0886202
0.0867664
-0.0381182
-0.0941313
0.0906778
-0.0978484
-0.032632
0.0923622
-4.40087e-05
0.00773298
-0.000662537
0.0156926
-0.00187216
0.0189976
-0.0035092
0.0196673
-0.00539695
0.0190416
-0.00740845
0.0177505
-0.00946906
0.0159383
-0.0115359
0.0135327
-0.0135814
0.0104115
-0.0155909
0.00646449
-0.0174834
0.00159589
-0.0192824
-0.00408739
-0.0209553
-0.0107484
-0.0224726
-0.0183114
-0.0238008
-0.0266886
-0.0249093
-0.0357327
-0.025789
-0.0452186
-0.0264685
-0.0548441
-0.027034
-0.0642494
-0.027611
-0.0730704
-0.0283046
-0.0809987
-0.0291063
-0.0878185
-0.0298105
-0.0934271
-0.0978722
-0.0297867
0.00034614
0.00738684
0.000451398
0.0155874
8.08214e-05
0.0193682
-0.000659111
0.0204072
-0.00158369
0.0199661
-0.00254291
0.0187097
-0.00344692
0.0168423
-0.00425231
0.0143381
-0.00494275
0.011102
-0.00551486
0.00703661
-0.00599873
0.00207976
-0.00631736
-0.00376876
-0.00650118
-0.0105646
-0.00652764
-0.018285
-0.00634726
-0.0268689
-0.00589457
-0.0361854
-0.00510434
-0.0460088
-0.0039842
-0.0559642
-0.00265866
-0.0655749
-0.00141071
-0.0743184
-0.000633268
-0.0817761
-0.000812015
-0.0876398
-0.00209645
-0.0921427
-0.0949703
-0.00499836
0.000693185
0.00669366
0.00152553
0.014755
0.00206802
0.0188257
0.00231893
0.0201563
0.00244186
0.0198432
0.00260036
0.0185512
0.00289663
0.0165461
0.00337611
0.0138586
0.00404931
0.0104288
0.00489976
0.00618616
0.0058931
0.00108643
0.00706171
-0.00493738
0.00838692
-0.0118898
0.00989627
-0.0197943
0.0116571
-0.0286298
0.013769
-0.0382974
0.0163088
-0.0485485
0.0193057
-0.0589611
0.0226925
-0.0689617
0.0262532
-0.0778791
0.0296673
-0.0851902
0.0323877
-0.0903601
0.033927
-0.093682
-0.0942128
0.0331696
0.000941211
0.00575244
0.00240496
0.0132913
0.00380409
0.0174265
0.00502447
0.0189359
0.00617471
0.018693
0.00740791
0.017318
0.00883563
0.0151183
0.0105104
0.0121838
0.0124383
0.00850098
0.0145945
0.00402993
0.016977
-0.00129614
0.0195758
-0.00753617
0.0224062
-0.0147202
0.0255243
-0.0229124
0.0290147
-0.0321201
0.0329513
-0.042234
0.0373574
-0.0529546
0.0421558
-0.0637596
0.0471931
-0.073999
0.0522351
-0.0829211
0.057104
-0.0900591
0.0615777
-0.0948338
0.0654558
-0.0975602
-0.097416
0.068659
0.00105693
0.00469552
0.00295687
0.0113913
0.00504446
0.015339
0.00709921
0.0168811
0.00915285
0.0166393
0.0113247
0.0151462
0.0137223
0.0127207
0.0164074
0.00949869
0.0194006
0.00550784
0.022669
0.000761512
0.0263025
-0.0049296
0.0302819
-0.0115156
0.0346945
-0.0191328
0.0396462
-0.0278641
0.0452269
-0.0377009
0.0514436
-0.0484506
0.0581701
-0.0596811
0.0651249
-0.0707144
0.0719408
-0.080815
0.0782057
-0.0891859
0.083672
-0.0955255
0.0881405
-0.0993023
0.0918072
-0.101227
-0.100595
0.0949862
0.0010386
0.00365692
0.00312718
0.00930276
0.0056428
0.0128233
0.00829701
0.0142269
0.0110418
0.0138946
0.0139449
0.0122431
0.0170959
0.00956972
0.0205632
0.0060314
0.0243791
0.00169186
0.0286726
-0.00353195
0.0334337
-0.00969073
0.0388154
-0.0168972
0.0449593
-0.0252767
0.0519739
-0.0348787
0.0598493
-0.0455763
0.0683909
-0.0569922
0.0772097
-0.0684999
0.0857938
-0.0792984
0.0936312
-0.0886524
0.10032
-0.0958751
0.105693
-0.100898
0.109692
-0.103301
0.112701
-0.104236
-0.102571
0.114677
0.000909635
0.00274729
0.00293715
0.00727524
0.00557628
0.0101842
0.00852787
0.0112753
0.0116871
0.0107354
0.0150725
0.00885766
0.0187565
0.00588571
0.0228229
0.00196496
0.0274213
-0.00290653
0.0326687
-0.00877936
0.0387467
-0.0157687
0.0458546
-0.0240052
0.054119
-0.0335411
0.0634939
-0.0442535
0.0736839
-0.0557663
0.0841488
-0.0674572
0.0941904
-0.0785415
0.103129
-0.0882368
0.110443
-0.0959662
0.115941
-0.101373
0.119713
-0.104671
0.122173
-0.105761
0.123851
-0.105914
-0.103877
0.125158
0.000705684
0.0020416
0.00246616
0.00551476
0.00494392
0.00770645
0.00788813
0.00833114
0.0111824
0.00744106
0.0148296
0.00521056
0.0189147
0.00180053
0.0236172
-0.00273751
0.029143
-0.0084323
0.0357469
-0.0153833
0.0436727
-0.0236945
0.0530394
-0.0333719
0.0637289
-0.0442306
0.0753168
-0.0558415
0.0871003
-0.0675499
0.0982314
-0.0785882
0.107904
-0.0882136
0.115562
-0.0958953
0.12099
-0.101394
0.124395
-0.104778
0.126183
-0.10646
0.127044
-0.106622
0.127484
-0.106354
-0.104475
0.128081
0.000465245
0.00157636
0.00183159
0.00414842
0.0039518
0.00558625
0.00667475
0.00560818
0.00993647
0.00417934
0.0137898
0.00135726
0.0184193
-0.00282898
0.0240888
-0.00840705
0.0311114
-0.0154549
0.0397475
-0.0240193
0.0500665
-0.0340135
0.0618317
-0.0451371
0.0744598
-0.0568586
0.0870917
-0.0684734
0.0987656
-0.0792238
0.108634
-0.0884564
0.116162
-0.0957413
0.121247
-0.100981
0.124191
-0.104337
0.125623
-0.106211
0.126195
-0.107031
0.126623
-0.107051
0.127233
-0.106963
-0.105783
0.128541
0.000230468
0.00134589
0.00118347
0.00319541
0.00290547
0.00386426
0.00539122
0.00312243
0.00870267
0.000867885
0.0130296
-0.00296963
0.018667
-0.00846642
0.0259528
-0.0156928
0.0351242
-0.0246263
0.0461581
-0.0350533
0.0586639
-0.0465193
0.0718886
-0.0583618
0.0848436
-0.0698137
0.0965165
-0.0801464
0.106105
-0.0888119
0.113191
-0.0955429
0.117822
-0.100372
0.120438
-0.103597
0.121701
-0.1056
0.122327
-0.106837
0.122841
-0.107545
0.123792
-0.108002
0.125175
-0.108346
-0.107802
0.127194
5.23906e-05
0.000700853
0.00218265
0.00467586
0.00842433
0.0137593
0.0210274
0.0304236
0.0418129
0.0546419
0.0679986
0.080801
0.0920467
0.101042
0.107542
0.111756
0.114227
0.11562
0.116545
0.117428
0.118471
0.119899
0.121649
0.124956
-0.0207856
-0.134916
0.12307
-0.00418265
-0.12861
0.112007
0.0160245
-0.113161
0.0929542
0.038019
-0.0886446
0.0666501
0.059178
-0.0562472
0.0350881
0.077662
-0.0172957
-0.00118828
0.0937379
0.0269781
-0.0430539
0.10825
0.073981
-0.0884928
0.120886
0.117183
-0.129819
0.130776
0.148772
-0.158662
0.137232
0.166043
-0.1725
0.140308
0.172945
-0.176021
0.141359
0.174087
-0.175138
0.141587
0.17181
-0.172037
0.140329
0.17203
-0.170772
0.136581
0.182508
-0.17876
0.13157
0.199452
-0.194441
0.128523
0.201864
-0.198817
0.129254
0.167073
-0.167803
0.133343
0.0909515
-0.0950408
0.139975
-0.0090351
0.00240253
0.147977
-0.103529
0.0955275
0.15506
-0.169166
0.162083
0.159095
-0.203356
0.199322
0.160811
-0.215511
0.213795
0.161271
-0.213587
0.213127
0.158985
-0.212152
0.214438
0.152549
-0.226621
0.233058
0.142723
-0.24685
0.256677
0.13162
-0.241336
0.252439
0.122317
-0.18896
0.198262
0.118671
-0.0936755
0.0973212
0.121834
0.0200717
-0.0232347
0.129765
0.121744
-0.129675
0.13898
0.192044
-0.201258
0.144645
0.233734
-0.2394
0.142893
0.264335
-0.262584
0.134374
0.289699
-0.281179
0.12347
0.290095
-0.279192
0.115176
0.233919
-0.225625
0.113896
0.116746
-0.115466
0.12015
-0.024235
0.0179813
0.128087
-0.138397
0.130459
0.13003
-0.211774
0.209832
0.125567
-0.269285
0.273748
0.120361
-0.292777
0.297983
0.118188
-0.262624
0.264797
0.119008
-0.160672
0.159852
0.121068
-0.0102188
0.00815877
0.120909
0.139845
-0.139685
0.118933
0.282542
-0.280565
0.117335
0.321725
-0.320127
0.116799
0.26998
-0.269443
0.114185
0.114978
-0.112364
0.110326
-0.130931
0.134791
0.107116
-0.266902
0.270112
0.104513
-0.353006
0.355609
0.100259
-0.208239
0.212492
0.0952985
0.141128
-0.136167
0.14395
-0.140819
-0.0290121
-0.135691
-0.0223367
-0.135285
-0.00978128
-0.125717
0.00821887
-0.106645
0.0290194
-0.0770477
0.0499753
-0.0382516
0.0701547
0.00679869
0.0892896
0.0548461
0.106857
0.0996158
0.121733
0.133896
0.132788
0.154989
0.139907
0.165826
0.144453
0.169541
0.147546
0.168716
0.148895
0.170681
0.148209
0.183193
0.146779
0.200882
0.146539
0.202104
0.147831
0.165781
0.150075
0.0887077
0.153121
-0.0120814
0.156878
-0.107286
0.160136
-0.172423
0.160945
-0.204165
0.159751
-0.214318
0.157866
-0.211702
0.153642
-0.207928
0.145107
-0.218086
0.133483
-0.235227
0.121867
-0.22972
0.113554
-0.180646
0.111665
-0.0917863
0.117539
0.014197
0.12839
0.110894
0.140106
0.180328
0.147657
0.226184
0.147568
0.264423
0.140501
0.296766
0.130288
0.300308
0.121394
0.242813
0.117891
0.120249
0.121709
-0.0280538
0.128571
-0.145258
0.130175
-0.213379
0.124953
-0.264063
0.119349
-0.287173
0.117342
-0.260617
0.118825
-0.162155
0.12124
-0.0126338
0.1219
0.139185
0.120831
0.283611
0.119389
0.323166
0.118809
0.27056
0.115369
0.118418
0.110475
-0.126037
0.106412
-0.262839
0.1032
-0.349795
0.101055
-0.206093
0.0968892
0.145293
0.147828
-0.0154103
-0.125279
-0.021621
-0.129074
-0.0206011
-0.126737
-0.0116159
-0.11563
0.00373662
-0.0924002
0.0242446
-0.0587596
0.0464337
-0.0153904
0.0696709
0.0316088
0.0922213
0.0770654
0.112239
0.113879
0.128029
0.139198
0.139375
0.154481
0.147563
0.161353
0.153622
0.162657
0.157705
0.166598
0.160159
0.180739
0.16218
0.198862
0.164557
0.199726
0.166197
0.16414
0.166155
0.0887493
0.165636
-0.0115625
0.165385
-0.107035
0.164892
-0.171931
0.162617
-0.20189
0.158734
-0.210435
0.154673
-0.207641
0.14901
-0.202265
0.139123
-0.208199
0.12609
-0.222194
0.113885
-0.217515
0.106286
-0.173048
0.106084
-0.0915844
0.114175
0.0061066
0.127516
0.097553
0.141598
0.166246
0.151191
0.21659
0.153195
0.262419
0.148012
0.301949
0.138807
0.309514
0.129454
0.252165
0.123571
0.126132
0.124339
-0.0288212
0.129631
-0.15055
0.130929
-0.214677
0.124977
-0.25811
0.118683
-0.280879
0.116659
-0.258593
0.118818
-0.164315
0.121816
-0.0156312
0.123417
0.137584
0.123217
0.283811
0.121879
0.324504
0.121245
0.271194
0.117136
0.122528
0.111288
-0.12019
0.106388
-0.257939
0.102547
-0.345954
0.102358
-0.205903
0.0990994
0.148551
0.152372
0.0176522
-0.109762
0.000856406
-0.112279
-0.011015
-0.114865
-0.0145629
-0.112082
-0.00868103
-0.0982821
0.00609992
-0.0735405
0.0272067
-0.0364972
0.052022
0.00679363
0.077647
0.0514404
0.101525
0.0900009
0.121511
0.119212
0.137018
0.138974
0.148946
0.149425
0.158088
0.153515
0.164943
0.159743
0.170425
0.175258
0.175711
0.193575
0.180529
0.194908
0.182681
0.161988
0.181042
0.0903883
0.177453
-0.0079735
0.173576
-0.103157
0.169381
-0.167736
0.164144
-0.196653
0.157837
-0.204129
0.151785
-0.201588
0.144939
-0.195419
0.134353
-0.197612
0.120544
-0.208385
0.107882
-0.204854
0.100619
-0.165784
0.101486
-0.0924517
0.111283
-0.00368988
0.126723
0.0821132
0.143071
0.149898
0.155063
0.204598
0.159572
0.25791
0.156508
0.305013
0.148535
0.317487
0.139004
0.261696
0.130847
0.134289
0.128144
-0.0261181
0.131278
-0.153684
0.13221
-0.215609
0.125618
-0.251518
0.11842
-0.273682
0.116155
-0.256327
0.118957
-0.167117
0.122741
-0.0194147
0.125375
0.13495
0.126019
0.283166
0.124729
0.325795
0.124045
0.271878
0.119434
0.127138
0.11276
-0.113515
0.107062
-0.252241
0.102547
-0.341439
0.104197
-0.207554
0.101901
0.150848
0.157505
0.0570448
-0.0981474
0.0405459
-0.0957798
0.0200324
-0.0943516
0.00233998
-0.0943898
-0.0044415
-0.0915006
-0.000369776
-0.0776122
0.0157347
-0.0526017
0.0385604
-0.016032
0.0646638
0.025337
0.0903165
0.0643482
0.1132
0.0963281
0.132285
0.119889
0.14767
0.13404
0.159671
0.141515
0.169018
0.150396
0.177254
0.167022
0.185592
0.185237
0.192652
0.187849
0.195392
0.159248
0.193114
0.0926665
0.187678
-0.00253789
0.180729
-0.0962083
0.173196
-0.160202
0.165275
-0.188732
0.156919
-0.195773
0.149205
-0.193874
0.141568
-0.187782
0.13084
-0.186885
0.116797
-0.194341
0.103842
-0.191899
0.0966413
-0.158584
0.0980499
-0.0938603
0.108622
-0.0142618
0.125649
0.0650859
0.144049
0.131497
0.158639
0.190008
0.16614
0.250409
0.165868
0.305285
0.159541
0.323814
0.149866
0.271371
0.139541
0.144615
0.133104
-0.0196812
0.133473
-0.154053
0.133899
-0.216035
0.126807
-0.244427
0.118549
-0.265423
0.115796
-0.253574
0.119203
-0.170524
0.123936
-0.0241479
0.127691
0.131194
0.129177
0.281681
0.127857
0.327115
0.127144
0.27259
0.1222
0.132083
0.114859
-0.106174
0.108431
-0.245813
0.103166
-0.336173
0.106516
-0.210904
0.105249
0.152114
0.163132
0.0856715
-0.0888326
0.0754098
-0.0855181
0.0603744
-0.0793162
0.0402651
-0.0742805
0.0208739
-0.0721094
0.011337
-0.0680753
0.0150078
-0.0562725
0.0309318
-0.0319561
0.0544963
0.00177255
0.0803123
0.0385322
0.105086
0.0715546
0.127018
0.0979571
0.145243
0.115814
0.159443
0.127315
0.1705
0.139339
0.180681
0.15684
0.191387
0.174531
0.200361
0.178874
0.203892
0.155718
0.201477
0.0950815
0.195214
0.00372437
0.186338
-0.0873315
0.176185
-0.15005
0.165951
-0.178499
0.155927
-0.185749
0.146806
-0.184752
0.138523
-0.1795
0.128193
-0.176555
0.114566
-0.180714
0.10158
-0.178913
0.094219
-0.151222
0.0955031
-0.0951444
0.106071
-0.02483
0.123953
0.0472041
0.144115
0.111335
0.161453
0.172671
0.172234
0.239628
0.174945
0.302574
0.170603
0.328157
0.161137
0.280837
0.14912
0.156632
0.139048
-0.00960975
0.136139
-0.151144
0.135841
-0.215737
0.128454
-0.237039
0.119051
-0.256021
0.115537
-0.25006
0.119487
-0.174474
0.125291
-0.0299519
0.130245
0.12624
0.132592
0.279334
0.131178
0.328529
0.13046
0.273307
0.125366
0.137177
0.117534
-0.0983423
0.110476
-0.238756
0.104368
-0.330065
0.109226
-0.215762
0.109084
0.152257
0.169133
0.103701
-0.0778572
0.0947167
-0.0765335
0.0868874
-0.0714869
0.0760191
-0.0634122
0.0593131
-0.0554034
0.0412202
-0.0499823
0.030297
-0.0453494
0.0329968
-0.0346559
0.0482905
-0.0135211
0.0711194
0.0157033
0.0962378
0.0464362
0.120197
0.073998
0.140723
0.0952881
0.156696
0.111342
0.169037
0.126997
0.180607
0.14527
0.192981
0.162157
0.203403
0.168452
0.207961
0.151161
0.206355
0.0966871
0.200053
0.0100259
0.190223
-0.0775006
0.178159
-0.137987
0.165988
-0.166327
0.154658
-0.174419
0.144545
-0.174638
0.135729
-0.170684
0.126
-0.166827
0.113393
-0.168107
0.100774
-0.166295
0.0931597
-0.143608
0.0937558
-0.0957406
0.103496
-0.0345698
0.121393
0.0293071
0.142835
0.0898929
0.162907
0.152599
0.17734
0.225195
0.183667
0.296247
0.181919
0.329905
0.172949
0.289807
0.159319
0.170261
0.145766
0.00394302
0.139204
-0.144582
0.13787
-0.214403
0.13043
-0.2296
0.119908
-0.245499
0.115329
-0.245481
0.119703
-0.178848
0.126694
-0.0369425
0.132949
0.119985
0.136197
0.276086
0.13461
0.330116
0.133914
0.274004
0.128858
0.142234
0.120718
-0.0902027
0.113159
-0.231197
0.106119
-0.323025
0.112239
-0.221882
0.113334
0.151161
0.175359
0.114823
-0.0675219
0.105267
-0.0669779
0.0976887
-0.0639082
0.0924708
-0.0581942
0.0866075
-0.0495401
0.076102
-0.0394768
0.0619336
-0.031181
0.0515691
-0.0242915
0.052198
-0.01415
0.0648238
0.00307759
0.0853772
0.0258827
0.108747
0.0506278
0.130526
0.0735098
0.148072
0.0937959
0.161881
0.113188
0.175012
0.132139
0.18901
0.14816
0.200984
0.156478
0.207341
0.144804
0.207672
0.0963554
0.202598
0.0151005
0.192405
-0.067308
0.179022
-0.124604
0.165352
-0.152657
0.152998
-0.162065
0.142233
-0.163873
0.133038
-0.161489
0.123915
-0.157703
0.112719
-0.156911
0.100999
-0.154574
0.0932408
-0.135849
0.0927656
-0.0952654
0.100882
-0.0426858
0.117823
0.0123657
0.140031
0.0676844
0.1627
0.12993
0.180666
0.207229
0.190443
0.28647
0.191384
0.328963
0.18392
0.297271
0.169408
0.184773
0.152945
0.0204064
0.142574
-0.13421
0.139822
-0.211651
0.13258
-0.222358
0.121101
-0.23402
0.115148
-0.239527
0.11975
-0.18345
0.128012
-0.0452047
0.135664
0.112333
0.139881
0.271869
0.138088
0.331909
0.137412
0.274679
0.132615
0.147031
0.124339
-0.0819274
0.116425
-0.223282
0.108385
-0.314985
0.115465
-0.228962
0.117918
0.148708
0.181641
0.118763
-0.0582042
0.110382
-0.0585966
0.102892
-0.0564182
0.0973379
-0.0526399
0.0945627
-0.0467649
0.0929673
-0.0378815
0.089088
-0.0273017
0.0815272
-0.0167306
0.074135
-0.0067578
0.0730119
0.00420061
0.0813277
0.017567
0.097427
0.0345286
0.11659
0.054347
0.134453
0.0759325
0.149974
0.0976678
0.165222
0.116891
0.181059
0.132322
0.194734
0.142803
0.203436
0.136102
0.206452
0.0933392
0.202796
0.0187562
0.192735
-0.057247
0.178583
-0.110451
0.163917
-0.137992
0.150844
-0.148992
0.139738
-0.152767
0.130344
-0.152095
0.121675
-0.149035
0.111952
-0.147188
0.101627
-0.144249
0.0941019
-0.128324
0.0925366
-0.0937
0.0985323
-0.0486816
0.113484
-0.00258602
0.135413
0.0457555
0.160246
0.105097
0.182245
0.185229
0.19619
0.272526
0.200017
0.325136
0.19405
0.303239
0.179794
0.199029
0.16039
0.0398103
0.146169
-0.119988
0.141548
-0.20703
0.13471
-0.21552
0.122589
-0.221899
0.114993
-0.231931
0.119503
-0.18796
0.129123
-0.0548252
0.138311
0.103145
0.143594
0.266587
0.141531
0.333972
0.140886
0.275325
0.136565
0.151351
0.128322
-0.073684
0.120202
-0.215162
0.111128
-0.305911
0.118828
-0.236661
0.122755
0.144781
0.18779
0.120292
-0.0499551
0.112685
-0.0509897
0.106131
-0.0498636
0.101026
-0.0475356
0.097793
-0.0435316
0.0970136
-0.0371021
0.0981022
-0.0283902
0.0987743
-0.0174028
0.0971019
-0.00508541
0.0936361
0.00766639
0.0922263
0.0189768
0.0968511
0.0299037
0.107494
0.0437045
0.121388
0.0620383
0.136561
0.0824943
0.153099
0.100353
0.170386
0.115035
0.18585
0.12734
0.197417
0.124535
0.203541
0.0872147
0.202002
0.0202956
0.192004
-0.0472489
0.177129
-0.0955764
0.161699
-0.122561
0.148058
-0.135351
0.136766
-0.141475
0.127401
-0.14273
0.119079
-0.140713
0.1106
-0.138709
0.101944
-0.135593
0.0952376
-0.121617
0.0930062
-0.0914686
0.0968595
-0.0525349
0.108613
-0.0143396
0.1293
0.0250683
0.155473
0.078925
0.180667
0.160035
0.198389
0.254804
0.205519
0.318006
0.201661
0.307097
0.18826
0.212429
0.16791
0.0601608
0.149864
-0.101943
0.142902
-0.200068
0.136569
-0.209187
0.124267
-0.209597
0.114868
-0.222532
0.118884
-0.191976
0.129855
-0.065796
0.140709
0.0922904
0.147219
0.260077
0.144935
0.336256
0.144303
0.275956
0.140681
0.154974
0.132601
-0.065604
0.124401
-0.206962
0.1143
-0.295811
0.122259
-0.24462
0.127747
0.139293
0.193606
0.120204
-0.0429649
0.113242
-0.0440278
0.10713
-0.0437523
0.102461
-0.042866
0.0994159
-0.0404867
0.0982713
-0.0359575
0.0992668
-0.0293857
0.102539
-0.0206752
0.107085
-0.00963165
0.110789
0.00396309
0.111986
0.0177793
0.112632
0.0292581
0.115414
0.0409224
0.122195
0.0552571
0.132718
0.071972
0.146571
0.0864996
0.162486
0.09912
0.178264
0.111562
0.19176
0.11104
0.199963
0.079011
0.198615
0.0216438
0.188547
-0.037181
0.173501
-0.0805305
0.158075
-0.107135
0.144392
-0.121668
0.133139
-0.130222
0.124029
-0.13362
0.116075
-0.13276
0.108492
-0.131126
0.101427
-0.128528
0.096038
-0.116228
0.0938684
-0.089299
0.0960236
-0.0546901
0.10433
-0.0226458
0.121987
0.00741119
0.148388
0.0525243
0.177514
0.130908
0.199926
0.232392
0.209974
0.307957
0.207419
0.309652
0.195053
0.224795
0.174193
0.0810208
0.153342
-0.0810913
0.143759
-0.190485
0.137936
-0.203364
0.126042
-0.197703
0.114879
-0.211369
0.117813
-0.19491
0.130137
-0.0781194
0.142853
0.0795742
0.150713
0.252217
0.14818
0.338788
0.147561
0.276575
0.144885
0.15765
0.137104
-0.057823
0.12892
-0.198778
0.117855
-0.284747
0.125714
-0.252479
0.132812
0.132195
0.198885
0.119514
-0.0375232
0.113678
-0.0381913
0.108273
-0.0383479
0.103435
-0.0380282
0.0996566
-0.036708
0.0975886
-0.0338894
0.0974499
-0.029247
0.0994802
-0.0227055
0.103774
-0.0139254
0.109889
-0.00215193
0.116125
0.0115435
0.12138
0.0240027
0.126207
0.0360958
0.131407
0.0500569
0.138662
0.0647171
0.148534
0.0766272
0.160627
0.0870274
0.174546
0.0976424
0.188589
0.0969965
0.197763
0.0698372
0.197434
0.0219724
0.186697
-0.0264431
0.17094
-0.0647739
0.155141
-0.0913362
0.141244
-0.107771
0.129845
-0.118823
0.120934
-0.124709
0.113338
-0.125164
0.106243
-0.124031
0.100315
-0.1226
0.0963603
-0.112274
0.0948433
-0.0877821
0.0960977
-0.0559445
0.101453
-0.028001
0.11477
-0.00590582
0.138655
0.0286389
0.168956
0.100607
0.195639
0.205709
0.210605
0.292991
0.211426
0.308831
0.200607
0.235614
0.180322
0.101306
0.157221
-0.05799
0.144756
-0.178021
0.139077
-0.197685
0.127992
-0.186618
0.11542
-0.198797
0.116684
-0.196175
0.129704
-0.0911396
0.144327
0.0649515
0.153984
0.24256
0.151442
0.34133
0.15075
0.277268
0.149206
0.159193
0.141832
-0.0504486
0.133663
-0.190609
0.121793
-0.272876
0.129189
-0.259875
0.137864
0.12352
0.203442
0.173402
-0.0309838
-0.179941
0.167859
-0.0326488
0.162434
-0.0329227
0.156802
-0.0323961
0.151062
-0.0309678
0.145459
-0.028287
0.140227
-0.0240144
0.135618
-0.0180974
0.132144
-0.0104504
0.130447
-0.000455034
0.130383
0.0116075
0.130629
0.0237562
0.130341
0.0363844
0.130341
0.0500569
0.132504
0.0625542
0.137419
0.0717117
0.145311
0.0791356
0.159103
0.0838497
0.180075
0.0760252
0.201504
0.0484081
0.213951
0.00952483
0.215904
-0.0283954
0.210216
-0.0590867
0.200958
-0.0820779
0.190214
-0.0970269
0.179286
-0.107894
0.168947
-0.11437
0.158911
-0.115128
0.148901
-0.114021
0.139386
-0.113085
0.12978
-0.102668
0.12017
-0.0781716
0.112973
-0.0487479
0.110783
-0.0258109
0.115982
-0.0111041
0.128753
0.0158677
0.145247
0.0841124
0.15948
0.191476
0.169818
0.282654
0.177478
0.301171
0.183145
0.229947
0.182514
0.101937
0.174559
-0.0500343
0.167016
-0.170478
0.159531
-0.1902
0.147263
-0.17435
0.131496
-0.18303
0.125
-0.189679
0.128124
-0.0942634
0.133255
0.0598209
0.13689
0.238925
0.134777
0.343444
0.138699
0.273345
0.143883
0.15401
0.141208
-0.0477734
0.134038
-0.18344
0.120716
-0.259554
0.122587
-0.261746
0.129128
0.116979
0.207052
0.182707
-0.025742
-0.187948
0.177378
-0.0273198
0.172113
-0.0276582
0.166882
-0.0271654
0.161726
-0.0258113
0.156823
-0.0233846
0.152425
-0.0196157
0.148734
-0.0144064
0.145972
-0.00768892
0.144574
0.000943272
0.145055
0.0111261
0.146855
0.0219561
0.14955
0.0336898
0.153428
0.0461788
0.158959
0.0570236
0.166033
0.0646374
0.175591
0.0695774
0.189875
0.0695655
0.207304
0.0585967
0.221434
0.034278
0.227658
0.00330112
0.225709
-0.0264462
0.218427
-0.0518053
0.20861
-0.0722604
0.197861
-0.0862785
0.187042
-0.0970754
0.176908
-0.104236
0.167224
-0.105444
0.157229
-0.104025
0.147956
-0.103812
0.139594
-0.0943061
0.131362
-0.0699397
0.124666
-0.0420512
0.121669
-0.0228141
0.125022
-0.0144573
0.136868
0.00402212
0.15477
0.0662106
0.171368
0.174877
0.183815
0.270207
0.193007
0.291979
0.199443
0.223512
0.199325
0.102054
0.190223
-0.0409321
0.180524
-0.160779
0.17161
-0.181285
0.159016
-0.161757
0.142084
-0.166097
0.1343
-0.181895
0.138011
-0.0979745
0.144665
0.0531671
0.149297
0.234292
0.146914
0.345827
0.151099
0.26916
0.157827
0.147282
0.155175
-0.0451219
0.147284
-0.175548
0.132294
-0.244564
0.133336
-0.262788
0.141069
0.109245
0.210204
0.192975
-0.0212698
-0.197447
0.188033
-0.0223781
0.183184
-0.0228093
0.178435
-0.0224158
0.173788
-0.0211643
0.169384
-0.0189808
0.16547
-0.0157015
0.162238
-0.0111747
0.159914
-0.00536518
0.158901
0.00195626
0.159565
0.0104626
0.161844
0.019677
0.16583
0.0297042
0.171786
0.0402226
0.179508
0.0493018
0.18853
0.0556152
0.199347
0.0587602
0.212531
0.0563817
0.22566
0.0454679
0.234431
0.0255067
0.236817
0.000915082
0.233556
-0.0231853
0.226528
-0.0447777
0.217643
-0.0633746
0.207975
-0.0766106
0.197856
-0.0869568
0.187974
-0.0943541
0.178638
-0.0961077
0.168717
-0.0941047
0.159189