/*--------------------------------*- C++ -*----------------------------------*\
| =========                 |                                                 |
| \\      /  F ield         | OpenFOAM: The Open Source CFD Toolbox           |
|  \\    /   O peration     | Version:  2512                                  |
|   \\  /    A nd           | Website:  www.openfoam.com                      |
|    \\/     M anipulation  |                                                 |
\*---------------------------------------------------------------------------*/
FoamFile
{
    version     2.0;
    format      ascii;
    arch        "LSB;label=32;scalar=64";
    class       volVectorField;
    location    "98.6";
    object      U;
}
// * * * * * * * * * * * * * * * * * * * * * * * * * * * * * * * * * * * * * //

dimensions      [0 1 -1 0 0 0 0];

internalField   nonuniform List<vector> 
13248
(
(-0.0128857 0.00873954 4.06992e-20)
(-0.026844 0.011291 0)
(-0.0342068 0.0052963 -7.14164e-20)
(-0.0305677 -0.00290517 6.61309e-20)
(-0.011829 -0.0111549 6.13925e-20)
(0.0253761 -0.0187384 0)
(0.0835753 -0.0251055 0)
(0.16377 -0.0296136 1.40453e-19)
(0.264732 -0.0315655 -2.68625e-21)
(0.382716 -0.030319 -1.16101e-19)
(0.511727 -0.0255052 9.96478e-20)
(0.644394 -0.0172001 -6.11839e-20)
(0.773137 -0.00595908 0)
(0.891247 0.00726457 -8.51743e-20)
(0.993657 0.0213075 1.52095e-19)
(1.0772 0.0349542 -3.51739e-20)
(1.141 0.04714 -5.30154e-20)
(1.18546 0.0570164 4.94258e-20)
(1.21322 0.0642398 0)
(1.22773 0.0679046 0)
(1.23096 0.0702743 0)
(1.23255 0.066441 0)
(1.22506 0.0669223 1.16988e-20)
(1.22692 0.0550083 4.00482e-20)
(-0.0161973 0.0118066 -1.22567e-19)
(-0.0290832 0.0188964 7.78243e-20)
(-0.0266644 0.0163509 -4.03657e-23)
(-0.00632316 0.00992116 -1.00078e-19)
(0.035204 0.00250034 -6.13028e-20)
(0.100755 -0.0042287 -5.67273e-20)
(0.191675 -0.00899222 -1.02864e-19)
(0.306538 -0.0107506 9.54992e-20)
(0.440293 -0.00879168 0)
(0.584601 -0.00293094 1.64885e-21)
(0.729332 0.00637419 3.48275e-21)
(0.864547 0.0181027 6.10867e-20)
(0.982194 0.0309086 0)
(1.07715 0.043408 0)
(1.14749 0.0544611 5.44555e-20)
(1.19434 0.0632407 -1.01114e-19)
(1.22098 0.0695078 5.41122e-20)
(1.23237 0.0731078 -5.04512e-20)
(1.23384 0.0746265 -2.08758e-20)
(1.23004 0.074194 -3.46003e-20)
(1.22562 0.0724961 -1.32598e-20)
(1.22187 0.0694018 -2.40719e-20)
(1.21918 0.0662759 3.69337e-20)
(1.22134 0.059489 1.01334e-20)
(-0.0173414 0.011954 0)
(-0.0260569 0.0199287 0)
(-0.0109897 0.0190131 3.60013e-20)
(0.0296661 0.0140943 3.30765e-20)
(0.0985427 0.00851816 -4.49701e-22)
(0.197201 0.0046729 -5.71561e-20)
(0.324018 0.0043192 0)
(0.472494 0.00841708 -4.71678e-20)
(0.631477 0.0169095 4.2302e-20)
(0.787532 0.0287412 -3.15393e-22)
(0.928128 0.0421995 -6.68942e-20)
(1.04416 0.0554198 -5.68588e-20)
(1.13117 0.0668476 3.5639e-21)
(1.18932 0.0755383 -3.93115e-20)
(1.22245 0.0812 9.8463e-20)
(1.23666 0.0841294 0)
(1.23878 0.0849387 -5.43578e-20)
(1.23487 0.0842109 2.64529e-20)
(1.22917 0.0828923 2.08546e-20)
(1.22453 0.0802732 0)
(1.22059 0.0786162 1.55555e-20)
(1.21833 0.0739701 -5.19933e-20)
(1.21472 0.0724986 4.85537e-20)
(1.21278 0.0654936 2.86467e-20)
(-0.016687 0.0103138 -4.23164e-20)
(-0.0173572 0.0163197 -4.02777e-20)
(0.0146054 0.0155901 3.65242e-20)
(0.0806839 0.0123628 0)
(0.182472 0.0103257 0)
(0.31827 0.0122749 -1.78931e-22)
(0.480155 0.0196435 0)
(0.653737 0.0321202 -1.39039e-19)
(0.821623 0.0478417 1.2585e-19)
(0.968335 0.0641771 -1.51394e-19)
(1.0839 0.0786582 3.32395e-20)
(1.16509 0.0896461 0)
(1.21461 0.0965817 4.85599e-20)
(1.23913 0.0998379 -8.72122e-20)
(1.24684 0.100349 2.04929e-20)
(1.2453 0.0991786 4.64669e-20)
(1.24002 0.097119 -4.37827e-21)
(1.23403 0.0947963 -4.99948e-20)
(1.22856 0.0920665 0)
(1.22331 0.0893301 0)
(1.21818 0.0861063 -1.53378e-20)
(1.2131 0.0819652 1.32224e-20)
(1.20738 0.0793774 4.4303e-20)
(1.20369 0.0719187 -4.13569e-20)
(-0.0142877 0.00780463 -4.37037e-20)
(-0.00186762 0.0102938 -4.05978e-20)
(0.0529833 0.00946837 1.12392e-19)
(0.151048 0.00925775 -6.78516e-20)
(0.290889 0.0135433 6.28539e-20)
(0.463713 0.0245776 1.13298e-19)
(0.651756 0.0419073 -7.81899e-20)
(0.832838 0.0626704 -9.12201e-20)
(0.987776 0.0830486 3.59521e-21)
(1.1055 0.0998355 1.12708e-19)
(1.18411 0.111341 0)
(1.22888 0.11749 2.79461e-20)
(1.24888 0.119339 0)
(1.25357 0.118377 -4.11463e-20)
(1.25046 0.115939 5.6941e-20)
(1.24424 0.112866 3.49025e-22)
(1.23716 0.109614 -1.35757e-20)
(1.23 0.10614 2.39214e-20)
(1.22292 0.102636 2.01907e-20)
(1.21622 0.0986953 -1.73962e-20)
(1.21001 0.0948445 1.53308e-20)
(1.20467 0.090192 -1.32164e-20)
(1.19957 0.0867606 0)
(1.19634 0.0798106 -9.50813e-21)
(-0.00964854 0.00494548 4.36928e-20)
(0.0222213 0.0037332 4.20214e-20)
(0.107261 0.00406241 -3.75696e-20)
(0.243701 0.00956837 6.87461e-20)
(0.423015 0.0234989 -6.36792e-20)
(0.62482 0.0457228 5.65943e-20)
(0.821327 0.072319 -2.66199e-20)
(0.988208 0.0979083 6.86827e-20)
(1.1123 0.118245 -4.20711e-20)
(1.19257 0.131465 7.03234e-20)
(1.23652 0.137942 -1.58081e-19)
(1.25513 0.139355 5.64063e-20)
(1.25875 0.137652 -4.63203e-20)
(1.25484 0.134374 4.31206e-20)
(1.24777 0.130424 3.46596e-20)
(1.23966 0.126243 2.86424e-20)
(1.23147 0.121922 -7.9143e-20)
(1.22366 0.117595 4.81459e-20)
(1.21653 0.113126 -2.01875e-20)
(1.21009 0.108717 5.03965e-20)
(1.20424 0.104173 -1.63178e-20)
(1.19876 0.0994116 -3.68155e-20)
(1.19326 0.0953786 3.34287e-20)
(1.18839 0.0886684 9.50505e-21)
(-0.00185641 0.00201937 0)
(0.0569527 -0.00186552 2.52196e-22)
(0.179523 0.00231393 7.72796e-20)
(0.357889 0.0171494 -7.1291e-20)
(0.57103 0.0432563 -6.33073e-20)
(0.785469 0.0760261 1.15562e-19)
(0.969511 0.10808 -5.27581e-20)
(1.10573 0.133535 6.79204e-20)
(1.19271 0.149973 -2.25744e-21)
(1.23957 0.158032 -3.65941e-20)
(1.25906 0.159931 7.59131e-20)
(1.26259 0.15807 -1.09407e-19)
(1.25811 0.154262 0)
(1.25025 0.149584 -1.98166e-20)
(1.24136 0.144583 -5.07018e-20)
(1.23252 0.139483 1.60141e-20)
(1.2242 0.134415 9.23611e-22)
(1.21648 0.129343 -3.06681e-20)
(1.20927 0.124337 3.11817e-21)
(1.20247 0.119278 3.45181e-20)
(1.19602 0.114184 -1.4485e-20)
(1.19 0.109088 -5.00407e-21)
(1.18423 0.104149 1.62502e-20)
(1.17948 0.0977368 0)
(0.0101017 -0.000666554 0)
(0.103916 -0.0050287 2.12016e-20)
(0.269699 0.00680438 -9.99963e-20)
(0.488015 0.0344211 3.57628e-20)
(0.721582 0.0729532 -3.31256e-20)
(0.928968 0.112729 -2.93773e-20)
(1.08474 0.145242 -5.05526e-20)
(1.18465 0.166753 2.52845e-20)
(1.23856 0.1778 2.1396e-20)
(1.26114 0.181074 0)
(1.2655 0.179535 4.4398e-20)
(1.2608 0.175439 -6.38272e-20)
(1.25236 0.170167 4.689e-20)
(1.24287 0.164449 1.98252e-20)
(1.23349 0.158613 -1.52573e-20)
(1.22458 0.152799 -1.18736e-20)
(1.21619 0.147015 -1.07183e-20)
(1.20831 0.141294 3.33066e-20)
(1.20094 0.135587 0)
(1.19414 0.129938 1.51637e-20)
(1.18789 0.124336 1.18089e-20)
(1.18205 0.118832 -3.01779e-20)
(1.17646 0.113319 -1.92299e-20)
(1.17116 0.107405 1.76664e-20)
(0.0270439 -0.00257631 -2.45285e-20)
(0.1636 -0.00400622 -8.38116e-22)
(0.3748 0.0197547 2.0312e-20)
(0.624347 0.0620571 5.5526e-20)
(0.860704 0.110469 1.55013e-20)
(1.04512 0.152386 -2.96028e-20)
(1.16612 0.181373 2.66785e-20)
(1.23261 0.1972 -2.27207e-20)
(1.26126 0.202932 3.92041e-20)
(1.26778 0.202267 1.60199e-20)
(1.26333 0.19814 -4.48711e-20)
(1.25442 0.192396 1.28479e-20)
(1.24425 0.186011 2.09699e-20)
(1.23414 0.179424 -1.03636e-20)
(1.22449 0.172814 0)
(1.21541 0.166237 1.41687e-20)
(1.20694 0.159736 2.28416e-20)
(1.19909 0.153314 3.22197e-21)
(1.19183 0.147008 -1.82557e-20)
(1.18508 0.140806 7.21901e-21)
(1.17871 0.134714 0)
(1.17266 0.128742 -5.23513e-21)
(1.16682 0.122676 -4.78743e-21)
(1.1614 0.116916 0)
(0.0493807 -0.00295878 0)
(0.234936 0.00311429 1.19011e-20)
(0.488887 0.0426311 2.16461e-20)
(0.75577 0.0990266 -5.64275e-20)
(0.978758 0.152961 1.79256e-20)
(1.13177 0.192683 0)
(1.21891 0.215868 2.49741e-20)
(1.25834 0.225641 -3.42392e-20)
(1.26923 0.226637 -1.94307e-20)
(1.26581 0.222782 8.63189e-21)
(1.25652 0.216624 -1.28811e-20)
(1.24552 0.209518 3.13545e-20)
(1.2345 0.202081 1.49917e-20)
(1.22404 0.194573 -1.06562e-20)
(1.21428 0.187102 -1.29281e-21)
(1.20522 0.179729 -2.63288e-20)
(1.19682 0.172478 1.17464e-20)
(1.18903 0.165374 -3.28999e-22)
(1.18182 0.158416 0)
(1.17513 0.15162 -7.22617e-21)
(1.16892 0.144993 0)
(1.16306 0.138493 1.48562e-20)
(1.15745 0.132032 -1.71081e-20)
(1.15196 0.126411 7.58844e-21)
(0.0769836 -0.000929851 -6.78954e-21)
(0.315107 0.018078 -3.00907e-20)
(0.604114 0.0757201 3.3685e-20)
(0.873115 0.143304 1.91522e-20)
(1.07181 0.198147 -9.10012e-21)
(1.19156 0.232639 1.43803e-20)
(1.24945 0.249034 -6.99079e-21)
(1.26862 0.253012 1.10725e-20)
(1.26775 0.249922 0)
(1.25843 0.243405 2.34866e-20)
(1.24652 0.235463 -1.17486e-21)
(1.23444 0.227019 -1.8142e-20)
(1.22302 0.21846 7.50308e-21)
(1.21242 0.209946 -8.12065e-21)
(1.20264 0.201552 -2.8288e-21)
(1.1936 0.193313 3.49581e-21)
(1.18527 0.185257 -2.5022e-21)
(1.17761 0.177401 -1.31355e-20)
(1.17058 0.16977 7.93604e-21)
(1.1641 0.162375 1.51592e-21)
(1.15803 0.155198 1.2781e-21)
(1.15223 0.148192 1.07505e-21)
(1.14661 0.141387 0)
(1.14118 0.135508 0)
(0.109177 0.0044117 6.79777e-21)
(0.399886 0.0420675 -6.27158e-21)
(0.712681 0.118157 -1.1242e-20)
(0.970875 0.192785 0)
(1.13994 0.244645 -4.48066e-21)
(1.22865 0.272066 -3.86899e-21)
(1.26306 0.281437 -6.35851e-21)
(1.26784 0.280084 0)
(1.2595 0.273396 0)
(1.24681 0.264463 0)
(1.23354 0.254761 0)
(1.22095 0.244892 0)
(1.20937 0.235085 -4.63532e-21)
(1.19876 0.225441 2.0731e-21)
(1.18905 0.216006 3.47908e-21)
(1.18017 0.206813 1.60415e-21)
(1.17206 0.197884 3.76431e-21)
(1.16465 0.189239 0)
(1.15788 0.180888 -8.10552e-22)
(1.15166 0.172832 -7.62078e-22)
(1.14589 0.165049 -1.28011e-21)
(1.14043 0.157515 -1.07674e-21)
(1.13519 0.150342 0)
(1.13009 0.144064 6.62147e-22)
(0.00573932 -0.153319 7.52723e-21)
(0.00827507 -0.322705 -7.14366e-21)
(-0.00343284 -0.399971 -1.32071e-20)
(-0.023858 -0.423348 0)
(-0.0483445 -0.421512 -1.73938e-20)
(-0.0739619 -0.410528 5.50937e-21)
(-0.0989459 -0.396103 -1.01756e-20)
(-0.122155 -0.378104 0)
(-0.142772 -0.354417 0)
(-0.160159 -0.322936 0)
(-0.173834 -0.282209 0)
(-0.183499 -0.231524 0)
(-0.189083 -0.170874 5.31781e-22)
(-0.190764 -0.100858 -7.67935e-21)
(-0.189057 -0.0225392 1.38598e-20)
(-0.184111 0.0631101 1.99213e-20)
(-0.175904 0.154197 5.57997e-21)
(-0.164795 0.249007 0)
(-0.150725 0.345497 5.33942e-21)
(-0.133623 0.441096 -1.39781e-20)
(-0.113702 0.532674 -7.95614e-21)
(-0.0909646 0.616687 -6.94558e-21)
(-0.068607 0.690459 0)
(-0.0441293 0.751697 0)
(0.0129649 -0.14879 -2.21414e-20)
(0.018793 -0.305613 3.5268e-20)
(0.00296638 -0.37281 -1.24825e-20)
(-0.0238563 -0.38987 -2.387e-20)
(-0.0553234 -0.384868 3.35571e-20)
(-0.0883392 -0.373046 -2.09846e-20)
(-0.121303 -0.359533 2.9632e-20)
(-0.153266 -0.343899 1.78493e-20)
(-0.18351 -0.323893 0)
(-0.211371 -0.297313 -1.8097e-20)
(-0.236217 -0.262552 -8.01632e-22)
(-0.257489 -0.218651 1.58443e-20)
(-0.27479 -0.165275 2.1318e-20)
(-0.287887 -0.102645 2.76795e-20)
(-0.296348 -0.0315098 -1.37117e-20)
(-0.300263 0.0473053 -3.71027e-20)
(-0.299936 0.132024 1.00401e-20)
(-0.2952 0.220832 -3.8982e-20)
(-0.28601 0.311608 0)
(-0.272347 0.4019 8.98627e-21)
(-0.254268 0.488962 7.94648e-21)
(-0.231629 0.569834 6.93699e-21)
(-0.20534 0.641682 0)
(-0.176255 0.70328 0)
(0.0191949 -0.138412 0)
(0.0279357 -0.279704 6.49006e-20)
(0.00947998 -0.337561 -2.41523e-20)
(-0.021499 -0.349528 2.30896e-20)
(-0.0573482 -0.341942 -6.15445e-20)
(-0.094802 -0.329121 0)
(-0.1324 -0.315936 -3.65677e-20)
(-0.169383 -0.301982 1.6113e-20)
(-0.205172 -0.285065 -3.07351e-20)
(-0.239154 -0.262996 1.28246e-20)
(-0.270656 -0.234113 8.46751e-20)
(-0.298978 -0.197315 -3.92267e-20)
(-0.323426 -0.152025 -6.42444e-20)
(-0.343452 -0.098166 -2.16362e-20)
(-0.358278 -0.035946 4.3554e-22)
(-0.367608 0.0333033 8.00694e-20)
(-0.371531 0.108292 -3.69551e-20)
(-0.369415 0.187335 3.84214e-21)
(-0.36083 0.268386 0)
(-0.345401 0.349076 -2.22765e-20)
(-0.32291 0.426837 0)
(-0.29284 0.499101 -2.04184e-20)
(-0.253785 0.56307 6.5952e-20)
(-0.207189 0.616934 -2.19164e-21)
(0.0238927 -0.124027 0)
(0.0350411 -0.248327 -1.49605e-21)
(0.0154401 -0.297727 2.20063e-20)
(-0.0174942 -0.305681 -2.02531e-20)
(-0.0551227 -0.295975 2.00323e-20)
(-0.093928 -0.28192 1.07055e-19)
(-0.132497 -0.268353 -3.35256e-20)
(-0.170225 -0.255162 -3.01239e-20)
(-0.206683 -0.240388 5.86923e-20)
(-0.241357 -0.221962 -8.33713e-20)
(-0.273596 -0.198254 2.37179e-20)
(-0.302653 -0.168115 2.20564e-20)
(-0.327692 -0.130839 0)
(-0.347673 -0.0860759 2.17117e-20)
(-0.362083 -0.0341838 0)
(-0.370477 0.0237833 2.91593e-20)
(-0.371978 0.0869135 -5.59722e-20)
(-0.365827 0.1537 1.77911e-20)
(-0.351304 0.222234 4.56182e-20)
(-0.327648 0.290287 2.22558e-20)
(-0.294141 0.355342 0)
(-0.251024 0.414765 -4.23906e-20)
(-0.197306 0.466581 1.45308e-20)
(-0.124542 0.509389 0)
(0.0267328 -0.107406 0)
(0.0394459 -0.214333 -6.9964e-20)
(0.0196967 -0.256339 -2.08152e-20)
(-0.0135102 -0.261559 -3.93421e-20)
(-0.0508202 -0.250658 3.64559e-20)
(-0.0883886 -0.235736 -3.48749e-20)
(-0.124733 -0.22163 6.23432e-20)
(-0.159331 -0.208666 2.98878e-20)
(-0.191882 -0.195269 -8.15075e-20)
(-0.221982 -0.179584 4.88966e-20)
(-0.249059 -0.160089 -6.86902e-20)
(-0.272391 -0.135687 1.39635e-19)
(-0.291059 -0.105627 -7.55606e-20)
(-0.304305 -0.0697458 3.09699e-20)
(-0.311399 -0.0283373 8.46459e-20)
(-0.311412 0.0182319 -3.26252e-20)
(-0.303462 0.0690951 -2.37305e-20)
(-0.286684 0.122968 -2.31632e-20)
(-0.260239 0.17819 0)
(-0.223487 0.2327 -2.54688e-20)
(-0.17577 0.28448 -1.85374e-20)
(-0.115353 0.33083 3.1594e-20)
(-0.0491477 0.371239 3.34279e-20)
(0.0497327 0.397967 -2.84605e-20)
(0.0275214 -0.089915 0)
(0.0404952 -0.179819 -8.62946e-20)
(0.0209039 -0.215613 1.29489e-21)
(-0.0116274 -0.219574 7.46651e-20)
(-0.0473309 -0.208903 0)
(-0.0820349 -0.194219 0)
(-0.114096 -0.180217 0)
(-0.142996 -0.167677 -2.73307e-20)
(-0.16853 -0.155511 7.89291e-22)
(-0.190414 -0.14217 4.5436e-20)
(-0.208176 -0.126298 -6.24677e-20)
(-0.221159 -0.106901 7.23507e-22)
(-0.228755 -0.0834101 0)
(-0.230145 -0.0555977 -3.09552e-20)
(-0.224533 -0.0233769 2.03313e-20)
(-0.211221 0.0128272 -6.37597e-20)
(-0.189431 0.052322 6.99531e-20)
(-0.158482 0.0940538 7.04629e-21)
(-0.117908 0.136649 -6.59252e-21)
(-0.0662248 0.178274 -4.19676e-20)
(-0.00679263 0.218354 -1.39048e-20)
(0.0717678 0.250995 4.43276e-20)
(0.1401 0.284281 -2.66201e-20)
(0.260362 0.292834 0)
(0.0261056 -0.0723594 4.26215e-20)
(0.0375973 -0.14598 4.26376e-20)
(0.0178501 -0.176767 -3.77643e-20)
(-0.0137218 -0.181036 -7.09565e-20)
(-0.0473147 -0.172385 6.57498e-20)
(-0.0785488 -0.159713 -6.01661e-20)
(-0.105599 -0.147326 8.30312e-20)
(-0.127892 -0.136335 -2.6782e-20)
(-0.145276 -0.126157 4.67537e-20)
(-0.157586 -0.11562 0)
(-0.164513 -0.103581 3.41804e-20)
(-0.165615 -0.0891596 -6.53523e-20)
(-0.160319 -0.0717927 5.61892e-20)
(-0.148017 -0.0510679 -5.23012e-20)
(-0.128218 -0.0270433 0)
(-0.100469 2.15477e-05 3.63637e-20)
(-0.0643111 0.0296517 5.24181e-20)
(-0.0192717 0.0610385 -5.11779e-20)
(0.0338166 0.0930684 -1.75364e-20)
(0.100301 0.12363 -1.398e-20)
(0.164577 0.154889 3.98864e-20)
(0.262009 0.174805 7.87946e-21)
(0.324683 0.20376 -7.98443e-21)
(0.463426 0.199918 7.91977e-21)
(0.0223737 -0.0550954 -4.2632e-20)
(0.0304435 -0.113274 1.19386e-19)
(0.00999144 -0.140074 -3.62573e-20)
(-0.020601 -0.145978 6.8337e-20)
(-0.0519408 -0.141028 -6.33223e-20)
(-0.0796512 -0.132278 -4.57134e-22)
(-0.101769 -0.123408 2.64311e-20)
(-0.117614 -0.115646 9.42847e-20)
(-0.127004 -0.108794 -2.55548e-21)
(-0.129806 -0.102034 -4.16958e-20)
(-0.125789 -0.0944318 0)
(-0.11464 -0.0851728 -2.77341e-20)
(-0.0959784 -0.0736332 5.56765e-20)
(-0.0694047 -0.0594349 4.36246e-20)
(-0.0345928 -0.0424563 -2.20179e-20)
(0.00877329 -0.0227507 -1.56162e-21)
(0.0607745 -0.000753148 -1.37485e-20)
(0.121703 0.0230094 1.97884e-20)
(0.188984 0.0472348 1.75369e-20)
(0.272873 0.0706369 -1.38692e-20)
(0.344027 0.0950962 1.04735e-20)
(0.464098 0.108928 -8.93039e-21)
(0.521814 0.133301 0)
(0.687417 0.127221 -7.91791e-21)
(0.0164109 -0.0383613 4.052e-20)
(0.0193924 -0.0818802 -3.94107e-20)
(-0.00193028 -0.105243 3.57131e-20)
(-0.0310868 -0.113424 0)
(-0.0595246 -0.113103 0)
(-0.0830547 -0.109476 5.50474e-20)
(-0.0995785 -0.105426 -5.21987e-20)
(-0.108164 -0.102061 4.52155e-20)
(-0.108377 -0.0993679 -2.12556e-19)
(-0.0998751 -0.0967595 1.09026e-21)
(-0.0822829 -0.0934492 3.34752e-20)
(-0.0552325 -0.0886587 0)
(-0.018455 -0.0817112 -4.86749e-20)
(0.0281775 -0.0721071 8.62584e-20)
(0.0845511 -0.0595987 -5.67429e-20)
(0.150361 -0.0442679 -7.05523e-20)
(0.224963 -0.0264507 6.97838e-21)
(0.30791 -0.00661784 4.10589e-20)
(0.396638 0.0137798 0)
(0.497627 0.0347025 0)
(0.586755 0.0546419 -1.04757e-20)
(0.716074 0.0695151 8.93236e-21)
(0.781555 0.087996 -3.4848e-20)
(0.950317 0.0876858 3.24915e-20)
(0.00873052 -0.0226366 0)
(0.00579893 -0.0522512 0)
(-0.0155623 -0.0720557 -1.066e-19)
(-0.0416265 -0.0821538 3.28206e-20)
(-0.0649575 -0.0861812 3.04056e-22)
(-0.0815721 -0.0875303 5.54692e-20)
(-0.0890899 -0.0882229 0)
(-0.0860771 -0.089073 -4.64778e-20)
(-0.0715872 -0.090052 4.23302e-20)
(-0.0449271 -0.0906356 -7.29725e-20)
(-0.00566041 -0.0900734 1.41819e-21)
(0.0462587 -0.0875659 5.58209e-20)
(0.110392 -0.082411 -4.22079e-21)
(0.185734 -0.0741274 3.59991e-20)
(0.270761 -0.0625408 -5.70138e-20)
(0.363842 -0.0479231 0)
(0.462657 -0.0303996 4.50292e-20)
(0.565217 -0.0114589 -6.13454e-20)
(0.670245 0.00877214 1.69117e-20)
(0.773847 0.0283421 0)
(0.874578 0.0464 1.24555e-20)
(0.977997 0.0613158 4.16928e-20)
(1.05241 0.0740066 -3.89284e-20)
(1.16746 0.0764967 -4.79487e-20)
(0.000299802 -0.00871971 1.19151e-19)
(-0.00815027 -0.0254521 -1.51579e-19)
(-0.0275545 -0.0410037 -1.39391e-22)
(-0.0474139 -0.0517882 3.2552e-20)
(-0.061507 -0.0588044 -6.05231e-20)
(-0.0659398 -0.0638566 -5.57524e-20)
(-0.0580187 -0.068113 1.01138e-19)
(-0.0358203 -0.0719401 -2.24322e-21)
(0.00190261 -0.0751183 -8.51993e-20)
(0.0556519 -0.077056 1.48729e-19)
(0.125039 -0.0769816 -3.84682e-21)
(0.208652 -0.0741477 -6.00338e-20)
(0.304103 -0.0680091 0)
(0.40829 -0.0583458 0)
(0.517591 -0.0452585 -1.78627e-20)
(0.628668 -0.0294766 -3.07662e-20)
(0.737465 -0.0112757 -4.77243e-20)
(0.842001 0.00691316 4.44866e-20)
(0.938821 0.0262933 -1.6924e-20)
(1.02513 0.0418712 2.93832e-20)
(1.10394 0.0573046 -1.39233e-20)
(1.16351 0.0661622 2.26806e-20)
(1.21861 0.0731809 -5.49402e-20)
(1.25575 0.0712198 9.70559e-21)
(-0.00731183 0.00198949 3.9796e-20)
(-0.0196747 -0.00365627 0)
(-0.0344071 -0.0143413 7.08644e-20)
(-0.0443181 -0.0243299 -6.5622e-20)
(-0.0442845 -0.0326337 6.05971e-20)
(-0.0305669 -0.0397213 0)
(-0.000290744 -0.0458737 0)
(0.0484364 -0.05095 -4.58101e-20)
(0.11627 -0.0544839 2.65944e-21)
(0.202352 -0.0557959 3.95483e-20)
(0.30414 -0.0541872 -3.18388e-20)
(0.417577 -0.0491633 6.07063e-20)
(0.537552 -0.0405776 0)
(0.658578 -0.0287161 8.35989e-20)
(0.775411 -0.014251 -1.48755e-19)
(0.883624 0.0017654 9.68541e-20)
(0.979495 0.0183419 5.07925e-20)
(1.06157 0.03369 -4.73498e-20)
(1.12671 0.0480985 0)
(1.17836 0.0576067 0)
(1.21243 0.0668944 0)
(1.23479 0.0673458 0)
(1.24868 0.0695711 1.11486e-20)
(1.2445 0.0619946 -4.11726e-20)
(-0.0232412 0.808074 -3.27029e-21)
(-0.00114997 0.854392 3.27683e-21)
(0.0215424 0.877312 -8.15314e-23)
(0.0564664 0.866785 0)
(0.116032 0.805363 -2.50272e-21)
(0.207607 0.682621 5.04217e-21)
(0.323718 0.504765 2.34686e-22)
(0.44366 0.293926 -2.69065e-21)
(0.549211 0.0632197 0)
(0.638229 -0.186571 0)
(0.713772 -0.431798 -1.63437e-22)
(0.76953 -0.624547 -1.36773e-22)
(0.799989 -0.731588 -1.62955e-21)
(0.811823 -0.758006 1.47819e-21)
(0.809302 -0.740036 0)
(0.796082 -0.709676 0)
(0.782813 -0.675613 7.65986e-22)
(0.769426 -0.65637 3.08938e-23)
(0.741486 -0.678307 -7.05848e-22)
(0.693922 -0.721495 -5.21832e-23)
(0.64352 -0.702225 0)
(0.616026 -0.545365 0)
(0.62161 -0.260227 0)
(0.651582 0.0679423 0)
(0.69632 0.343636 0)
(0.739478 0.520444 0)
(0.775167 0.595709 2.36879e-22)
(0.808215 0.598502 -3.80724e-22)
(0.8311 0.594494 0)
(0.826369 0.630028 0)
(0.793695 0.670089 -2.48657e-22)
(0.739862 0.646176 2.41619e-22)
(0.690861 0.507939 1.7534e-22)
(0.660695 0.266005 0)
(0.663605 -0.0226146 0)
(0.682532 -0.271693 2.82397e-22)
(0.720969 -0.425935 -2.74463e-22)
(0.75526 -0.493338 0)
(0.754539 -0.520602 1.28559e-22)
(0.702422 -0.538032 -1.82403e-22)
(0.641121 -0.491325 5.82957e-23)
(0.59903 -0.355522 0)
(0.605074 -0.133482 -1.3509e-22)
(0.643093 0.0816022 1.31354e-22)
(0.687448 0.251586 0)
(0.690613 0.392099 0)
(0.673809 0.448568 -3.91219e-23)
(0.651917 0.451996 1.17255e-22)
(0.655911 0.298259 0)
(0.659468 0.103436 0)
(0.679628 -0.124334 -3.2066e-23)
(0.664289 -0.346671 -2.50073e-24)
(0.652002 -0.391377 -3.42242e-24)
(0.644903 -0.422915 1.66226e-23)
(0.649776 -0.142231 0)
(0.616523 0.128516 0)
(0.617785 0.232128 0)
(0.602117 0.444957 0)
(0.604653 0.187596 0)
(0.560609 -0.0832366 0)
(-0.142299 0.760423 -2.69727e-22)
(-0.0840149 0.807489 -1.0593e-20)
(-0.0194758 0.817367 4.13454e-22)
(0.0650203 0.786395 9.52118e-21)
(0.173056 0.702355 1.50456e-22)
(0.302621 0.563467 0)
(0.44018 0.385827 -1.13311e-20)
(0.565831 0.192391 2.31561e-20)
(0.670604 -0.0176761 -1.18254e-20)
(0.759816 -0.253863 1.13188e-20)
(0.833094 -0.487908 -1.08272e-20)
(0.878802 -0.663979 7.90794e-21)
(0.890911 -0.751816 -7.70634e-21)
(0.880349 -0.762211 -1.65932e-22)
(0.858049 -0.732019 -3.8249e-21)
(0.827606 -0.695406 3.71471e-21)
(0.798748 -0.660497 -2.93009e-21)
(0.774205 -0.636556 2.76164e-21)
(0.737478 -0.647355 -3.10063e-21)
(0.680024 -0.682865 6.51786e-21)
(0.616921 -0.669957 -3.39907e-21)
(0.573673 -0.5331 -2.58122e-22)
(0.566632 -0.271874 -5.10172e-21)
(0.593759 0.0367344 9.71686e-21)
(0.641831 0.306434 -4.62497e-21)
(0.692679 0.488167 2.03893e-22)
(0.741397 0.57034 2.47577e-21)
(0.788897 0.580855 -3.04927e-22)
(0.82461 0.588257 -3.66011e-21)
(0.832616 0.637535 3.53284e-21)
(0.813019 0.689547 -1.76505e-21)
(0.771666 0.671992 2.98244e-22)
(0.733527 0.531225 -1.75712e-22)
(0.709301 0.277621 4.40276e-22)
(0.713144 -0.0238948 0)
(0.725182 -0.283302 0)
(0.749379 -0.44177 -9.09613e-22)
(0.773138 -0.501309 6.93828e-22)
(0.767994 -0.51174 3.65337e-22)
(0.710721 -0.517745 1.62025e-23)
(0.643575 -0.473121 -4.91531e-22)
(0.599949 -0.349948 1.05631e-22)
(0.605728 -0.142106 0)
(0.642387 0.0665734 0)
(0.682906 0.243255 0)
(0.685712 0.393286 0)
(0.672539 0.453705 1.49379e-22)
(0.651557 0.455444 -7.92877e-23)
(0.658869 0.298645 0)
(0.664925 0.100036 0)
(0.689166 -0.124015 0)
(0.673113 -0.344236 -5.04738e-23)
(0.65454 -0.388701 1.50268e-23)
(0.644658 -0.422837 -3.77225e-23)
(0.646571 -0.139827 0)
(0.61979 0.130995 0)
(0.621085 0.233216 1.39848e-23)
(0.608597 0.445466 3.88199e-23)
(0.61285 0.193184 0)
(0.561839 -0.0793108 0)
(-0.153728 0.672768 -7.81059e-22)
(-0.0653617 0.710476 -1.81406e-20)
(0.0290114 0.709952 1.82201e-20)
(0.146452 0.66776 -1.70319e-20)
(0.279984 0.57512 -1.51536e-22)
(0.423951 0.435232 0)
(0.56327 0.270815 -2.32388e-20)
(0.681697 0.102756 2.27541e-20)
(0.780849 -0.0819604 1.87395e-22)
(0.871247 -0.30087 3.55404e-22)
(0.943441 -0.519355 3.21775e-22)
(0.978592 -0.676047 2.77612e-22)
(0.973205 -0.745878 -1.24369e-20)
(0.942135 -0.746301 1.22444e-20)
(0.902978 -0.711677 0)
(0.859947 -0.673899 2.03015e-22)
(0.818006 -0.640658 -5.5028e-21)
(0.783822 -0.612868 5.42875e-21)
(0.742468 -0.611523 0)
(0.678161 -0.640033 0)
(0.603258 -0.637467 -7.21797e-21)
(0.547181 -0.524677 1.5472e-20)
(0.527868 -0.289162 -1.66206e-20)
(0.548423 0.000513169 4.63897e-22)
(0.596275 0.263189 1.4737e-20)
(0.652616 0.44861 -1.24681e-20)
(0.712189 0.537646 9.36423e-21)
(0.772211 0.556885 -7.93236e-22)
(0.820703 0.57468 -3.50056e-21)
(0.8422 0.636419 0)
(0.837028 0.702741 0)
(0.809236 0.696326 2.23341e-21)
(0.781986 0.556659 -2.7608e-21)
(0.764025 0.294945 2.40609e-23)
(0.768634 -0.0161675 3.39923e-21)
(0.774627 -0.28435 -3.30282e-21)
(0.783978 -0.449387 0)
(0.795655 -0.50588 1.91029e-22)
(0.787048 -0.501798 1.10618e-21)
(0.726192 -0.496882 -1.93869e-21)
(0.652746 -0.455962 7.75506e-22)
(0.606713 -0.346464 6.56109e-23)
(0.611462 -0.152631 -8.65921e-22)
(0.645933 0.0515968 6.84638e-22)
(0.682903 0.23472 1.26997e-22)
(0.685857 0.394054 1.27043e-22)
(0.675751 0.458526 -1.49781e-22)
(0.654525 0.459086 0)
(0.664246 0.299662 0)
(0.673229 0.0968149 -8.10923e-22)
(0.701905 -0.12252 3.7796e-22)
(0.6859 -0.340488 -2.85653e-22)
(0.660687 -0.385009 2.77188e-22)
(0.647382 -0.422638 2.01302e-22)
(0.646923 -0.139445 -7.81826e-23)
(0.626816 0.133347 3.92742e-23)
(0.627835 0.233327 -3.56238e-23)
(0.618136 0.445617 9.80948e-24)
(0.624436 0.199774 0)
(0.566937 -0.0747422 0)
(-0.0602189 0.55885 -2.88485e-20)
(0.0400257 0.586314 -1.61637e-21)
(0.152392 0.582725 2.87225e-20)
(0.280834 0.538762 -2.7057e-22)
(0.419385 0.448652 0)
(0.56095 0.317743 0)
(0.689449 0.172139 -4.55511e-20)
(0.793861 0.0286241 -3.20251e-21)
(0.886089 -0.135804 6.8915e-20)
(0.977929 -0.339576 -1.14364e-21)
(1.04836 -0.539899 -2.14155e-20)
(1.07143 -0.674473 -1.49222e-20)
(1.04858 -0.725793 1.49862e-20)
(0.999143 -0.718324 0)
(0.944774 -0.682832 -7.31969e-21)
(0.892864 -0.646023 6.70847e-21)
(0.841927 -0.616677 0)
(0.798005 -0.588691 0)
(0.753168 -0.575062 4.58934e-21)
(0.687542 -0.591287 4.80377e-22)
(0.604329 -0.596886 -4.61408e-21)
(0.5357 -0.512821 -6.83743e-21)
(0.504719 -0.308804 6.81643e-21)
(0.516034 -0.0398569 -7.13464e-21)
(0.559514 0.214724 9.93599e-22)
(0.618755 0.40261 5.74514e-21)
(0.687072 0.498021 5.07302e-22)
(0.757727 0.525465 3.22208e-23)
(0.817819 0.552698 0)
(0.853357 0.62638 3.52358e-21)
(0.863947 0.707002 -3.65157e-21)
(0.849481 0.713389 3.10984e-22)
(0.833158 0.580155 0)
(0.822126 0.31573 -4.70002e-22)
(0.827968 -0.00203365 7.22502e-21)
(0.82986 -0.277994 -1.19166e-20)
(0.825088 -0.450017 8.75814e-22)
(0.822417 -0.507587 1.22044e-21)
(0.809972 -0.491844 2.39417e-21)
(0.747703 -0.475254 1.99232e-22)
(0.668049 -0.438039 -1.26715e-21)
(0.617869 -0.343924 1.05876e-21)
(0.620892 -0.164821 4.13396e-23)
(0.65324 0.0360118 4.77793e-22)
(0.687445 0.224741 -5.91977e-22)
(0.690612 0.393621 -8.68394e-22)
(0.682923 0.463514 2.34753e-22)
(0.660671 0.463594 8.20792e-22)
(0.671995 0.301717 -1.69996e-21)
(0.684276 0.0935978 1.3006e-21)
(0.717687 -0.120491 -2.89208e-22)
(0.702516 -0.335658 4.90432e-22)
(0.670491 -0.380061 2.90872e-22)
(0.653042 -0.421988 -2.68296e-22)
(0.650688 -0.14104 2.63151e-23)
(0.63727 0.135415 8.75977e-24)
(0.637853 0.232596 0)
(0.630504 0.445344 -7.2985e-24)
(0.639311 0.207229 1.87265e-22)
(0.575912 -0.069533 0)
(0.113278 0.438449 2.2261e-20)
(0.211751 0.461141 -4.66443e-20)
(0.323403 0.455196 2.40412e-20)
(0.446238 0.415199 3.28469e-20)
(0.575525 0.335245 -6.92274e-20)
(0.703297 0.220076 -4.27245e-21)
(0.813072 0.0956428 3.97065e-20)
(0.902173 -0.0280904 4.42144e-20)
(0.99136 -0.180683 -4.32766e-20)
(1.08418 -0.368971 0)
(1.14616 -0.542892 -3.56429e-20)
(1.15145 -0.650896 6.36904e-20)
(1.11075 -0.686251 -2.82821e-20)
(1.04782 -0.67597 0)
(0.982809 -0.64552 0)
(0.924769 -0.612936 1.96848e-22)
(0.869475 -0.58822 -9.43859e-21)
(0.818707 -0.563847 9.16382e-21)
(0.770452 -0.542124 0)
(0.70615 -0.54441 8.15383e-21)
(0.619038 -0.553189 -1.66267e-20)
(0.538455 -0.497277 1.89689e-20)
(0.494728 -0.328477 -2.16983e-20)
(0.495181 -0.0835648 -1.25373e-22)
(0.531656 0.16168 2.07567e-20)
(0.591178 0.350702 -9.65433e-21)
(0.665284 0.452383 -2.34517e-22)
(0.743869 0.488044 -2.56917e-21)
(0.81492 0.522245 -1.15047e-22)
(0.864377 0.604376 2.71547e-21)
(0.890164 0.700758 2.31674e-22)
(0.890528 0.726406 -5.80797e-21)
(0.886378 0.606696 1.29198e-20)
(0.882305 0.343229 -8.0334e-21)
(0.888847 0.0200619 0)
(0.887856 -0.263085 -6.78411e-21)
(0.871289 -0.442135 6.39476e-21)
(0.853092 -0.504815 -2.34844e-21)
(0.835832 -0.481515 2.95441e-21)
(0.77426 -0.453308 -1.67079e-22)
(0.689097 -0.419138 0)
(0.632614 -0.341466 -1.05949e-22)
(0.632934 -0.178463 2.93352e-22)
(0.663456 0.01903 0)
(0.696061 0.213369 8.42166e-22)
(0.700122 0.392178 -3.08618e-22)
(0.694809 0.467912 2.79325e-22)
(0.67061 0.468272 3.88504e-22)
(0.682372 0.304647 0)
(0.698099 0.0902965 0)
(0.736372 -0.117995 -1.19951e-21)
(0.722769 -0.329594 1.5901e-21)
(0.683898 -0.373797 -6.82597e-22)
(0.661573 -0.420729 1.99184e-22)
(0.657564 -0.144658 5.81087e-23)
(0.650796 0.13685 -8.76922e-24)
(0.650981 0.231132 7.1487e-23)
(0.645459 0.444487 0)
(0.65734 0.215393 -2.4541e-22)
(0.588709 -0.0637022 -1.12079e-22)
(0.318907 0.328054 1.80888e-20)
(0.405469 0.347164 -1.79056e-20)
(0.50452 0.340558 1.93827e-22)
(0.611776 0.307329 -2.00791e-22)
(0.723763 0.241536 2.62091e-22)
(0.832678 0.145639 -2.9345e-22)
(0.924945 0.0402108 5.75517e-22)
(1.00649 -0.0716868 0)
(1.09812 -0.217306 -6.06895e-22)
(1.18713 -0.387226 5.79303e-22)
(1.23232 -0.531132 5.17993e-22)
(1.21694 -0.613815 -4.85404e-22)
(1.16032 -0.637966 0)
(1.08834 -0.628057 0)
(1.01724 -0.604542 2.19048e-22)
(0.955328 -0.577518 0)
(0.89787 -0.556108 -1.38426e-22)
(0.842497 -0.536925 0)
(0.791868 -0.512476 -6.35142e-21)
(0.731947 -0.500416 1.24333e-20)
(0.646432 -0.505444 -1.26688e-20)
(0.555569 -0.474319 6.52858e-21)
(0.496924 -0.344091 8.49478e-21)
(0.484736 -0.12728 -8.24633e-21)
(0.512422 0.105929 -7.90055e-21)
(0.569329 0.29439 7.62838e-21)
(0.646207 0.401548 0)
(0.730603 0.443896 1.21203e-22)
(0.810687 0.483484 0)
(0.872515 0.573289 0)
(0.914469 0.683588 7.63518e-21)
(0.929429 0.728194 -7.78014e-21)
(0.935707 0.627163 7.64053e-22)
(0.939668 0.372693 9.77169e-22)
(0.948142 0.046725 -9.81682e-22)
(0.946305 -0.241762 -6.08159e-21)
(0.921292 -0.426564 5.90377e-21)
(0.887207 -0.497531 -3.19364e-21)
(0.863249 -0.471403 2.69114e-21)
(0.804157 -0.431515 3.21837e-22)
(0.715277 -0.398535 -8.22548e-22)
(0.650491 -0.337782 8.97048e-23)
(0.646622 -0.192916 4.64733e-22)
(0.675863 0.000443702 0)
(0.708624 0.199036 -1.95798e-22)
(0.713681 0.387827 6.51834e-22)
(0.710397 0.472553 -8.00268e-22)
(0.684069 0.474908 -3.91116e-22)
(0.695598 0.309204 0)
(0.714831 0.087233 4.74577e-22)
(0.757837 -0.115282 -9.98116e-22)
(0.746396 -0.322431 1.62472e-23)
(0.700796 -0.366093 -1.83422e-22)
(0.672914 -0.418614 -2.00219e-23)
(0.667155 -0.150221 -7.249e-24)
(0.666969 0.137469 0)
(0.667003 0.229095 -7.15294e-23)
(0.662725 0.443099 0)
(0.678326 0.224124 0)
(0.605217 -0.0572896 1.34079e-22)