/*--------------------------------*- C++ -*----------------------------------*\
| =========                 |                                                 |
| \\      /  F ield         | OpenFOAM: The Open Source CFD Toolbox           |
|  \\    /   O peration     | Version:  2512                                  |
|   \\  /    A nd           | Website:  www.openfoam.com                      |
|    \\/     M anipulation  |                                                 |
\*---------------------------------------------------------------------------*/
FoamFile
{
    version     2.0;
    format      ascii;
    arch        "LSB;label=32;scalar=64";
    class       volScalarField;
    location    "116.85";
    object      p;
}
// * * * * * * * * * * * * * * * * * * * * * * * * * * * * * * * * * * * * * //

dimensions      [0 2 -2 0 0 0 0];

internalField   nonuniform List<scalar> 
13248
(
-0.287776
-0.288793
-0.287811
-0.285384
-0.281625
-0.276547
-0.270404
-0.263501
-0.25646
-0.249842
-0.244105
-0.239512
-0.236078
-0.233577
-0.231599
-0.229669
-0.22737
-0.224436
-0.220688
-0.216225
-0.210558
-0.204146
-0.195221
-0.184469
-0.292821
-0.293061
-0.291768
-0.289397
-0.286026
-0.281631
-0.276266
-0.270155
-0.26361
-0.25696
-0.250494
-0.244396
-0.238701
-0.233315
-0.228074
-0.222822
-0.217433
-0.211806
-0.205834
-0.199329
-0.192132
-0.184106
-0.174871
-0.165551
-0.299953
-0.299142
-0.297217
-0.294551
-0.291186
-0.28709
-0.282156
-0.276335
-0.269667
-0.262313
-0.254511
-0.246506
-0.238494
-0.230601
-0.222894
-0.215379
-0.207987
-0.200624
-0.193116
-0.185419
-0.177296
-0.168844
-0.159818
-0.150601
-0.308745
-0.306713
-0.303919
-0.300633
-0.297019
-0.292879
-0.287872
-0.281664
-0.274124
-0.265402
-0.255857
-0.245911
-0.235938
-0.226194
-0.2168
-0.207755
-0.199001
-0.190427
-0.181954
-0.173471
-0.164874
-0.156245
-0.147299
-0.138815
-0.319332
-0.316004
-0.312238
-0.308256
-0.304121
-0.29947
-0.293665
-0.286201
-0.277005
-0.266428
-0.255037
-0.243394
-0.231917
-0.220843
-0.210253
-0.200136
-0.190427
-0.18105
-0.171908
-0.162938
-0.154084
-0.145343
-0.136618
-0.128324
-0.332177
-0.327486
-0.322748
-0.317981
-0.312998
-0.307136
-0.299581
-0.289957
-0.278504
-0.265855
-0.252714
-0.239637
-0.226972
-0.214876
-0.203388
-0.192472
-0.182064
-0.172089
-0.162482
-0.153183
-0.144142
-0.135356
-0.126736
-0.118621
-0.3477
-0.341578
-0.335858
-0.330119
-0.323709
-0.315687
-0.305392
-0.292903
-0.278878
-0.264145
-0.249392
-0.235067
-0.221397
-0.208457
-0.196234
-0.184681
-0.173732
-0.163323
-0.153387
-0.14387
-0.134732
-0.125925
-0.117428
-0.109412
-0.366047
-0.358443
-0.351651
-0.344535
-0.33583
-0.324593
-0.310739
-0.294981
-0.278307
-0.261569
-0.245323
-0.229857
-0.215274
-0.201577
-0.188722
-0.176642
-0.165269
-0.154531
-0.144363
-0.13471
-0.125513
-0.116732
-0.108357
-0.100409
-0.387025
-0.377905
-0.369809
-0.360623
-0.348544
-0.333133
-0.315211
-0.29607
-0.276824
-0.258192
-0.240537
-0.223988
-0.208546
-0.194158
-0.180745
-0.168225
-0.156516
-0.14554
-0.135227
-0.125507
-0.116321
-0.107622
-0.099384
-0.091526
-0.409929
-0.399339
-0.389536
-0.377292
-0.360729
-0.340463
-0.318296
-0.295861
-0.274186
-0.253768
-0.234773
-0.217192
-0.200944
-0.185925
-0.172026
-0.159144
-0.147182
-0.136051
-0.125667
-0.115952
-0.106838
-0.0982724
-0.0901996
-0.0824805
-0.433671
-0.421645
-0.409502
-0.393027
-0.371025
-0.34556
-0.31921
-0.293668
-0.269731
-0.247648
-0.227402
-0.20887
-0.191899
-0.176338
-0.162048
-0.1489
-0.136782
-0.125589
-0.115226
-0.105605
-0.0966553
-0.0883121
-0.0804759
-0.0730208
-0.456739
-0.443312
-0.42796
-0.406087
-0.377976
-0.347243
-0.316922
-0.288528
-0.262545
-0.238973
-0.21763
-0.198292
-0.180741
-0.16478
-0.150236
-0.136956
-0.124808
-0.113671
-0.103438
-0.0940172
-0.0853338
-0.0773204
-0.0698574
-0.0628647
-0.409884
-0.412397
-0.413372
-0.414213
-0.415572
-0.417577
-0.42019
-0.423315
-0.426813
-0.430525
-0.434309
-0.438068
-0.441789
-0.445573
-0.449662
-0.454434
-0.460363
-0.467938
-0.477545
-0.489343
-0.503155
-0.518506
-0.534523
-0.549318
-0.388383
-0.38992
-0.389911
-0.389356
-0.388923
-0.388819
-0.389103
-0.389782
-0.390874
-0.392427
-0.39455
-0.397426
-0.401327
-0.406596
-0.413637
-0.42287
-0.434667
-0.449237
-0.466548
-0.486289
-0.507635
-0.5295
-0.550775
-0.569103
-0.370121
-0.370789
-0.369759
-0.368062
-0.366215
-0.364462
-0.362932
-0.36173
-0.360997
-0.360944
-0.361858
-0.364104
-0.368159
-0.374481
-0.383523
-0.395632
-0.411058
-0.429743
-0.45131
-0.475038
-0.499995
-0.524376
-0.547523
-0.566517
-0.354405
-0.354134
-0.352498
-0.350022
-0.347132
-0.344108
-0.34115
-0.338443
-0.33622
-0.334808
-0.334624
-0.335998
-0.339737
-0.346222
-0.3559
-0.369061
-0.385771
-0.405786
-0.428625
-0.453091
-0.478542
-0.50264
-0.525358
-0.543244
-0.340692
-0.3398
-0.337776
-0.334802
-0.331143
-0.327084
-0.322891
-0.318823
-0.315182
-0.31236
-0.310834
-0.311125
-0.313837
-0.31949
-0.32849
-0.341054
-0.357172
-0.376408
-0.398389
-0.421588
-0.445739
-0.468348
-0.489537
-0.505851
-0.328498
-0.327356
-0.325201
-0.321962
-0.317727
-0.312743
-0.307338
-0.30187
-0.296728
-0.292362
-0.289292
-0.288084
-0.289319
-0.293516
-0.301061
-0.312124
-0.326693
-0.344275
-0.364533
-0.386076
-0.409001
-0.4303
-0.45013
-0.463854
-0.317495
-0.316508
-0.314464
-0.31114
-0.306468
-0.300622
-0.29398
-0.287017
-0.280248
-0.274214
-0.269491
-0.266678
-0.266356
-0.269036
-0.275098
-0.284701
-0.297811
-0.31406
-0.333134
-0.353672
-0.375064
-0.394416
-0.411721
-0.421632
-0.307552
-0.307069
-0.305308
-0.302023
-0.297046
-0.290463
-0.282675
-0.274273
-0.265917
-0.258283
-0.252045
-0.247858
-0.246332
-0.247988
-0.253209
-0.262121
-0.274708
-0.290423
-0.308457
-0.3274
-0.346017
-0.361759
-0.373679
-0.377186
-0.2988
-0.299012
-0.297567
-0.294382
-0.289242
-0.282168
-0.273551
-0.264087
-0.25456
-0.245796
-0.238599
-0.233724
-0.231815
-0.233375
-0.238653
-0.247586
-0.259748
-0.274206
-0.289944
-0.305268
-0.318959
-0.328813
-0.333554
-0.330109
-0.291722
-0.292575
-0.291399
-0.288301
-0.283155
-0.275976
-0.267051
-0.257267
-0.247432
-0.238485
-0.231315
-0.226719
-0.225232
-0.227121
-0.232347
-0.240503
-0.250821
-0.262186
-0.273504
-0.283183
-0.290607
-0.29405
-0.293387
-0.28627
-0.286952
-0.288353
-0.287352
-0.284384
-0.279463
-0.272627
-0.264226
-0.254969
-0.245771
-0.237583
-0.231176
-0.227151
-0.225906
-0.227474
-0.231512
-0.23738
-0.244095
-0.250703
-0.256108
-0.259564
-0.260921
-0.259632
-0.25698
-0.250326
-0.285644
-0.287059
-0.286124
-0.2834
-0.278992
-0.272946
-0.265533
-0.257495
-0.249485
-0.242218
-0.236428
-0.232553
-0.230744
-0.230823
-0.232297
-0.234479
-0.236541
-0.23787
-0.237777
-0.236359
-0.233287
-0.229091
-0.224349
-0.218046
-0.566347
-0.582066
-0.587762
-0.580209
-0.552183
-0.498153
-0.423602
-0.344424
-0.276321
-0.227582
-0.198362
-0.186462
-0.188819
-0.203342
-0.23252
-0.27906
-0.33313
-0.370642
-0.367748
-0.326185
-0.265628
-0.208154
-0.164691
-0.137889
-0.126564
-0.128012
-0.144376
-0.180929
-0.232811
-0.276553
-0.282449
-0.251572
-0.198696
-0.149371
-0.115797
-0.0985315
-0.0980514
-0.115297
-0.139091
-0.14843
-0.133397
-0.109231
-0.0889315
-0.0782999
-0.0785575
-0.0854653
-0.0905129
-0.0877592
-0.0767977
-0.0641317
-0.0552735
-0.0501706
-0.0481423
-0.0431677
-0.0366975
-0.034219
-0.035912
-0.0346172
-0.0247145
-0.00726258
-0.58786
-0.601745
-0.605934
-0.597393
-0.568837
-0.513661
-0.4374
-0.356195
-0.28542
-0.233245
-0.199325
-0.181309
-0.177549
-0.185942
-0.207555
-0.245115
-0.291838
-0.325861
-0.323739
-0.291813
-0.241165
-0.191991
-0.154308
-0.131989
-0.124698
-0.1302
-0.15142
-0.194024
-0.251918
-0.300442
-0.306491
-0.274173
-0.215276
-0.158901
-0.118544
-0.094976
-0.0879509
-0.0980944
-0.115913
-0.122293
-0.110436
-0.0924384
-0.0791547
-0.0753886
-0.0825769
-0.096224
-0.104574
-0.101963
-0.0874298
-0.0698036
-0.055293
-0.0436718
-0.0384412
-0.0320094
-0.0295386
-0.0338334
-0.0413822
-0.0463928
-0.0335295
-0.00802342
-0.584609
-0.596283
-0.600195
-0.591666
-0.562456
-0.507701
-0.432715
-0.353003
-0.283478
-0.230985
-0.195045
-0.172929
-0.162998
-0.164508
-0.177764
-0.205188
-0.242767
-0.273195
-0.27031
-0.252161
-0.21213
-0.171264
-0.139522
-0.121931
-0.118599
-0.127847
-0.153355
-0.200758
-0.263315
-0.316396
-0.323319
-0.292029
-0.22818
-0.165761
-0.119562
-0.0904816
-0.0775658
-0.0813482
-0.093939
-0.0977777
-0.088539
-0.0756983
-0.068782
-0.0717876
-0.0862654
-0.107037
-0.118896
-0.116246
-0.0976222
-0.0750056
-0.0551862
-0.0373187
-0.0289019
-0.0209332
-0.0225056
-0.0332519
-0.046423
-0.0577252
-0.0423226
-0.00876411
-0.558931
-0.569752
-0.574999
-0.566806
-0.536782
-0.482742
-0.411752
-0.337789
-0.273003
-0.222507
-0.186245
-0.162002
-0.147875
-0.142896
-0.1478
-0.16492
-0.192975
-0.220904
-0.237351
-0.212128
-0.180072
-0.146997
-0.121054
-0.10788
-0.108017
-0.120265
-0.148516
-0.1988
-0.265152
-0.323823
-0.351475
-0.304404
-0.236605
-0.16955
-0.118816
-0.0852265
-0.0674363
-0.0657497
-0.0738582
-0.0754596
-0.0681115
-0.0592325
-0.0578462
-0.0673157
-0.0892374
-0.117555
-0.133268
-0.130187
-0.107224
-0.0795986
-0.0549236
-0.031262
-0.0197107
-0.0101133
-0.0155988
-0.0324236
-0.05089
-0.0684181
-0.0509782
-0.00949132
-0.517934
-0.528127
-0.535478
-0.527647
-0.497248
-0.445706
-0.381343
-0.315674
-0.257601
-0.210652
-0.174986
-0.149525
-0.132697
-0.123352
-0.121194
-0.128498
-0.146524
-0.16773
-0.180146
-0.168041
-0.145819
-0.120312
-0.0997842
-0.0904108
-0.0934346
-0.107848
-0.137304
-0.188283
-0.256277
-0.318186
-0.344917
-0.307523
-0.240064
-0.170382
-0.116518
-0.0795012
-0.0578298
-0.0515922
-0.0560018
-0.0557127
-0.0493801
-0.0432537
-0.0463384
-0.0616512
-0.0911127
-0.12742
-0.147353
-0.143614
-0.116142
-0.0835082
-0.0545013
-0.025627
-0.0110342
0.000287314
-0.00878601
-0.0313118
-0.0546566
-0.0782803
-0.0593641
-0.0102346
-0.471473
-0.478596
-0.486024
-0.477566
-0.447556
-0.400888
-0.345773
-0.290276
-0.240026
-0.197593
-0.163411
-0.137216
-0.118336
-0.105682
-0.0986961
-0.0983758
-0.1067
-0.120102
-0.13003
-0.125656
-0.111451
-0.092651
-0.0769807
-0.0708167
-0.07612
-0.0919232
-0.121208
-0.170408
-0.237131
-0.300869
-0.329754
-0.301572
-0.238119
-0.168357
-0.1129
-0.0735851
-0.0489822
-0.0390518
-0.0405189
-0.0387351
-0.0326269
-0.0280525
-0.0343873
-0.0548491
-0.0915378
-0.136062
-0.160669
-0.156186
-0.124254
-0.0866581
-0.0539131
-0.0205321
-0.00301994
0.0101042
-0.0020731
-0.0298927
-0.0576084
-0.0871405
-0.0673316
-0.0110305
-0.422309
-0.423386
-0.42922
-0.42033
-0.393121
-0.354398
-0.310161
-0.26506
-0.222587
-0.184864
-0.152795
-0.12654
-0.106021
-0.0907208
-0.0799285
-0.0739028
-0.0742844
-0.0803999
-0.0873337
-0.0887019
-0.078488
-0.0654718
-0.0540927
-0.0504954
-0.0573767
-0.0739733
-0.102033
-0.147274
-0.209674
-0.272471
-0.305484
-0.287025
-0.230943
-0.16373
-0.108299
-0.067819
-0.0411261
-0.0282353
-0.0273572
-0.0245575
-0.0189853
-0.0140546
-0.0223523
-0.0467538
-0.0901575
-0.143049
-0.172688
-0.167771
-0.131473
-0.089005
-0.0531376
-0.0160582
0.00420341
0.0191979
0.00452126
-0.0281782
-0.0596828
-0.0948571
-0.0747276
-0.0119092
-0.368725
-0.363778
-0.368603
-0.36098
-0.339344
-0.310316
-0.276965
-0.241462
-0.206217
-0.173187
-0.143642
-0.118062
-0.0966479
-0.0793897
-0.0657795
-0.0555844
-0.049861
-0.0494059
-0.0518889
-0.0533313
-0.0477722
-0.0401367
-0.0323929
-0.0308049
-0.0386064
-0.0552576
-0.0812371
-0.121585
-0.177492
-0.237206
-0.274171
-0.265625
-0.219263
-0.156833
-0.102892
-0.0623775
-0.0343945
-0.0191697
-0.0163475
-0.012981
-0.00673632
-0.0015318
-0.010554
-0.0377458
-0.086737
-0.147495
-0.182689
-0.177683
-0.137649
-0.0905135
-0.0521317
-0.0122252
0.0105408
0.0274345
0.0109431
-0.0261899
-0.0608333
-0.101311
-0.0814129
-0.0128868
-0.313989
-0.30674
-0.31204
-0.307149
-0.29231
-0.272423
-0.248208
-0.220646
-0.191679
-0.163058
-0.136148
-0.111699
-0.0900443
-0.0715077
-0.0560006
-0.0430725
-0.0331359
-0.0271975
-0.0248545
-0.0241639
-0.0206317
-0.0172302
-0.0126685
-0.012649
-0.0207382
-0.0370937
-0.0608496
-0.0951578
-0.143282
-0.198534
-0.237657
-0.239647
-0.204056
-0.147969
-0.0967195
-0.0571891
-0.0287169
-0.0117538
-0.00726093
-0.00374643
0.00309157
0.0091844
0.000609853
-0.0276669
-0.0807523
-0.149571
-0.19019
-0.186303
-0.142699
-0.0911637
-0.0508742
-0.00904149
0.0159349
0.0347384
0.0171849
-0.0239921
-0.0611047
-0.106433
-0.0872807
-0.0139692
-0.268228
-0.26242
-0.267666
-0.264567
-0.254767
-0.241252
-0.223578
-0.202201
-0.178559
-0.154048
-0.129852
-0.106875
-0.0856134
-0.0664686
-0.0497389
-0.0351668
-0.0226968
-0.0129926
-0.00644572
-0.00298981
-0.00289019
0.00192042
0.00429559
0.00297736
-0.00491065
-0.0204084
-0.0417473
-0.0707779
-0.11101
-0.158653
-0.198813
-0.205105
-0.184025
-0.136958
-0.0899554
-0.0524093
-0.0242314
-0.00598677
2.10206e-05
0.00342668
0.0105031
0.0179436
0.0105748
-0.0174246
-0.0726283
-0.147846
-0.194172
-0.191411
-0.146272
-0.0910002
-0.0494763
-0.00667231
0.0203103
0.0409902
0.0231309
-0.0216101
-0.0604789
-0.110149
-0.0922376
-0.0151554
-0.236551
-0.233343
-0.236662
-0.233509
-0.226479
-0.216958
-0.20397
-0.187509
-0.168334
-0.147443
-0.125862
-0.104505
-0.0840469
-0.0649054
-0.047458
-0.0317703
-0.0177202
-0.0056043
0.00426148
0.0112477
0.0151344
0.0187268
0.0185
0.0162242
0.00875682
-0.00560552
-0.024588
-0.0480646
-0.08017
-0.122366
-0.162945
-0.188383
-0.16701
-0.127058
-0.0842552
-0.0488011
-0.0214118
-0.00201587
0.00561772
0.00882759
0.0154892
0.0248854
0.0196215
-0.00660547
-0.0619695
-0.143661
-0.195068
-0.198137
-0.148886
-0.0904588
-0.0480538
-0.00511891
0.0234695
0.0462671
0.0288584
-0.0191456
-0.0591475
-0.112478
-0.0961573
-0.0164013
-0.212378
-0.212941
-0.213147
-0.208429
-0.202278
-0.195036
-0.185597
-0.173411
-0.1585
-0.141328
-0.122672
-0.10336
-0.0841104
-0.0654713
-0.0479253
-0.0316617
-0.0167247
-0.00343516
0.00809437
0.0178744
0.0247268
0.0259683
0.0285679
0.0256758
0.0194554
0.0068121
-0.0106963
-0.0301896
-0.0554038
-0.0893865
-0.124246
-0.14595
-0.138541
-0.11116
-0.0756607
-0.0433068
-0.0179024
0.00161438
0.0105558
0.01372
0.0190771
0.0252048
0.0257069
0.00289758
-0.0498522
-0.13459
-0.190689
-0.194819
-0.148675
-0.0887536
-0.0455788
-0.00303988
0.0260312
0.0494495
0.0340525
-0.0165572
-0.0569693
-0.113333
-0.0988079
-0.0175353
-0.191366
-0.201629
-0.199855
-0.192491
-0.184055
-0.175522
-0.16612
-0.1548
-0.141111
-0.125286
-0.108035
-0.0901895
-0.0723919
-0.0550631
-0.038578
-0.0230743
-0.00856699
0.00460798
0.0163463
0.0268983
0.0355603
0.0428033
0.039245
0.0343636
0.0278561
0.0179834
0.00471135
-0.0110858
-0.0322585
-0.0625088
-0.0974609
-0.122814
-0.120195
-0.094424
-0.0623085
-0.0331877
-0.0107316
0.00702559
0.0156044
0.0183257
0.0229833
0.0303144
0.0335729
0.0140249
-0.0357949
-0.122832
-0.185123
-0.192238
-0.145211
-0.0836146
-0.0408822
0.000218544
0.0289873
0.0531675
0.0389988
-0.0138729
-0.0542971
-0.112975
-0.100376
-0.0184393
-0.167568
-0.180364
-0.17997
-0.171905
-0.162324
-0.153356
-0.144538
-0.134556
-0.122594
-0.108655
-0.0933422
-0.0773923
-0.0613726
-0.0456389
-0.0304702
-0.0159586
-0.00223394
0.0102308
0.0213553
0.0314847
0.0398723
0.043524
0.0433925
0.0388619
0.0328267
0.0247968
0.0143814
0.00168244
-0.0152106
-0.0419286
-0.0750774
-0.0992149
-0.0977291
-0.0758801
-0.0484538
-0.023358
-0.00426691
0.0113217
0.0193979
0.0218984
0.0259697
0.0336382
0.037781
0.0209732
-0.0251922
-0.112051
-0.177549
-0.184612
-0.139127
-0.0771817
-0.0357553
0.00316634
0.0312156
0.0549148
0.0423207
-0.0119081
-0.051789
-0.111476
-0.100913
-0.0192367
-0.146143
-0.159335
-0.1602
-0.152994
-0.143787
-0.135148
-0.126998
-0.118159
-0.107693
-0.0953951
-0.0817015
-0.0672594
-0.052606
-0.0380737
-0.0239168
-0.0102843
0.00276081
0.0148088
0.0255189
0.0350584
0.0430855
0.0475216
0.0469763
0.0423475
0.0366629
0.0299949
0.0208677
0.00950045
-0.00385118
-0.0245985
-0.0520411
-0.0745476
-0.0758489
-0.0586716
-0.0361019
-0.0147155
0.00156829
0.0152298
0.0226311
0.0248031
0.0283515
0.0363895
0.0406792
0.0249392
-0.0184247
-0.102201
-0.166168
-0.174087
-0.130891
-0.070052
-0.0305044
0.00581951
0.0328757
0.05628
0.0444849
-0.0107686
-0.0493089
-0.108598
-0.100347
-0.019978
-0.127813
-0.13963
-0.141249
-0.135294
-0.126829
-0.118562
-0.110816
-0.102702
-0.0933311
-0.0823924
-0.0701643
-0.0571797
-0.0439196
-0.0307133
-0.0177549
-0.0051781
0.00690936
0.0181723
0.0282733
0.0372081
0.0447684
0.0491914
0.0491047
0.0450649
0.040208
0.0351644
0.02764
0.0179813
0.00854943
-0.00627674
-0.030676
-0.0523351
-0.054906
-0.0416878
-0.0238657
-0.00623858
0.00721037
0.0186538
0.0251751
0.0269899
0.0301557
0.038063
0.0427542
0.0276484
-0.012577
-0.0899667
-0.15046
-0.159097
-0.119951
-0.0619473
-0.0249301
0.00842737
0.0339714
0.0565661
0.045743
-0.00987449
-0.046362
-0.104262
-0.0985216
-0.0205705
-0.110647
-0.121335
-0.123381
-0.118495
-0.11088
-0.103156
-0.095895
-0.0885289
-0.0802792
-0.0707446
-0.0600147
-0.0484848
-0.0365711
-0.024585
-0.0127213
-0.00112396
0.0100858
0.020593
0.0300687
0.0383806
0.0454143
0.0497849
0.0502382
0.047249
0.0436114
0.0406257
0.0364115
0.030383
0.0236606
0.0102445
-0.0130158
-0.0319132
-0.0351432
-0.0258721
-0.0127735
0.00126682
0.012357
0.0217046
0.0272772
0.0285711
0.0314128
0.0387069
0.0437182
0.0296403
-0.00574765
-0.0745325
-0.130634
-0.140072
-0.106403
-0.0531606
-0.019436
0.0108737
0.0344918
0.0556468
0.0462124
-0.00880746
-0.042827
-0.0983937
-0.0952772
-0.0209287
-0.0947118
-0.104545
-0.106722
-0.102677
-0.095988
-0.0890133
-0.0824054
-0.0758051
-0.0685454
-0.0601942
-0.0507335
-0.0404614
-0.0297486
-0.0189087
-0.00814067
0.00242345
0.0126735
0.0223211
0.0310873
0.0387841
0.0453021
0.0495941
0.0506914
0.0490071
0.0467953
0.0457175
0.0451973
0.0429493
0.0369576
0.0229077
0.0019078
-0.0131881
-0.0173518
-0.0116081
-0.00260479
0.00812429
0.0170778
0.0244014
0.0289956
0.0296748
0.0322076
0.0384703
0.0435923
0.0312327
0.00170007
-0.0573613
-0.10771
-0.117792
-0.0904586
-0.0438661
-0.0141852
0.0131884
0.0344411
0.0535167
0.045863
-0.00753645
-0.038777
-0.0909768
-0.0904894
-0.0209424
-0.0803881
-0.0891508
-0.0913114
-0.0880201
-0.0822583
-0.0760862
-0.0701613
-0.0642649
-0.0578533
-0.0505284
-0.0422231
-0.0331578
-0.0236443
-0.0139574
-0.00427441
0.00527256
0.014577
0.0233825
0.0314477
0.0385619
0.044622
0.0488638
0.0505834
0.0501557
0.0493548
0.049707
0.0513438
0.0510749
0.0456027
0.032496
0.0150275
0.00374522
-0.0020527
0.000679242
0.00627214
0.0140442
0.0211531
0.0268201
0.0304981
0.0305532
0.032707
0.0377161
0.0424816
0.0319668
0.00833906
-0.039957
-0.0830513
-0.0933922
-0.0726584
-0.0343329
-0.00941276
0.0153178
0.033859
0.0502457
0.0445355
-0.00613895
-0.034241
-0.0820609
-0.0840552
-0.0205011
-0.0673455
-0.0750387
-0.0771958
-0.0745761
-0.0696455
-0.0642287
-0.0589732
-0.0537537
-0.0481311
-0.0417514
-0.0345186
-0.0265803
-0.018183
-0.00956847
-0.000908799
0.00765965
0.0160357
0.024009
0.0313726
0.0379169
0.0435423
0.0477008
0.0499383
0.0505368
0.0508721
0.0520278
0.0541588
0.0546152
0.0503777
0.0396335
0.025458
0.0131842
0.00986864
0.0106944
0.0138432
0.0191614
0.0246119
0.0289913
0.0318262
0.0314348
0.0330997
0.0367948
0.0399464
0.0316804
0.0136924
-0.0233279
-0.0582612
-0.0685593
-0.0540022
-0.0248518
-0.00514594
0.0172658
0.0328563
0.045973
0.0421314
-0.00453195
-0.0291863
-0.0717763
-0.0759245
-0.0194952
-0.0552953
-0.062215
-0.0643652
-0.0622846
-0.0580805
-0.0533745
-0.0487757
-0.0442134
-0.0393275
-0.0338055
-0.0275383
-0.0206218
-0.0132572
-0.00565716
0.00201927
0.0096465
0.01713
0.0242975
0.0309781
0.0369708
0.0421791
0.0462244
0.0488468
0.0502206
0.0513518
0.0529025
0.0548616
0.0555088
0.0524322
0.0441513
0.033125
0.0235544
0.019236
0.0186259
0.0201018
0.023457
0.0274423
0.0308997
0.0329629
0.0323929
0.0335781
0.036127
0.037924
0.0309543
0.0180811
-0.00830785
-0.0350654
-0.0450611
-0.035773
-0.0157232
-0.00125542
0.0190327
0.0316843
0.0410193
0.0388685
-0.0024628
-0.0235934
-0.0603818
-0.0661323
-0.0178431
-0.0444523
-0.0506608
-0.052714
-0.0510722
-0.0475281
-0.0434871
-0.039506
-0.0355551
-0.0313428
-0.026594
-0.0211978
-0.0152155
-0.00881049
-0.00216118
0.0045904
0.0113302
0.0179705
0.024368
0.0303849
0.0358446
0.040655
0.0445504
0.0474049
0.0492996
0.050903
0.0525902
0.0542299
0.0547777
0.0524956
0.0463245
0.0380106
0.0306763
0.0261796
0.0246955
0.0251018
0.027016
0.0297579
0.0325127
0.0339134
0.033345
0.0341424
0.0359447
0.0365092
0.0305045
0.0216303
0.0042518
-0.0148833
-0.0244297
-0.019424
-0.00725691
0.00254918
0.0206422
0.0307935
0.0360657
0.0354009
0.0004655
-0.0174889
-0.0483054
-0.0548734
-0.0155163
-0.0348428
-0.0402178
-0.0421296
-0.0408894
-0.0379463
-0.0345051
-0.0310852
-0.0276946
-0.0240966
-0.0200482
-0.0154405
-0.010308
-0.00478112
0.000991709
0.00688373
0.0127931
0.0186418
0.0243126
0.0296952
0.0346365
0.0390565
0.0427599
0.0456934
0.047875
0.0497019
0.0513754
0.0527207
0.0530943
0.0513936
0.0469136
0.0407641
0.0351764
0.0310894
0.0292107
0.0289588
0.0298958
0.0316456
0.0337762
0.034691
0.0342067
0.0347575
0.0361657
0.0361141
0.0306661
0.0243249
0.0138451
0.00120191
-0.00788549
-0.00620419
0.000280166
0.00646589
0.0220159
0.0305573
0.0322012
0.032763
0.00477948
-0.0109487
-0.0361979
-0.0426571
-0.0125875
-0.026059
-0.0307646
-0.0325958
-0.0317033
-0.0292746
-0.0263624
-0.0234514
-0.0205715
-0.0175287
-0.0141091
-0.0102085
-0.00584022
-0.00110821
0.00386336
0.00896273
0.0141026
0.0192161
0.0242072
0.028988
0.033426
0.0374537
0.0409227
0.0438076
0.0460924
0.0479827
0.0495713
0.0507011
0.0509581
0.04971
0.0465249
0.0420464
0.0378391
0.0343825
0.0324412
0.0318158
0.032152
0.0331537
0.0347022
0.0353015
0.0349029
0.0353374
0.0365031
0.0364651
0.031851
0.0270638
0.020805
0.0125552
0.00409835
0.00339854
0.00682487
0.0105004
0.0231612
0.0309177
0.0304348
0.0320415
0.0108263
-0.00412353
-0.0249304
-0.0304594
-0.00928337
-0.0181301
-0.0223349
-0.0240693
-0.0234343
-0.0214404
-0.0190002
-0.0165486
-0.0141267
-0.0115782
-0.00871695
-0.00544425
-0.00175816
0.00225836
0.00650272
0.0108793
0.0153142
0.0197494
0.0241078
0.0283199
0.0322747
0.0359086
0.0391087
0.0418533
0.0441088
0.0459662
0.0474469
0.0484364
0.0486599
0.0477786
0.0455652
0.0423613
0.0392305
0.0364481
0.0346449
0.0338476
0.0338352
0.0343017
0.0353459
0.0357371
0.0354191
0.0357835
0.0367556
0.0370846
0.0337043
0.0301808
0.0260095
0.0198559
0.0123756
0.0102677
0.0124331
0.014458
0.0240962
0.0314471
0.0309643
0.0333842
0.0180733
0.00268761
-0.0152782
-0.0194953
-0.00599896
-0.0111894
-0.0148398
-0.016415
-0.0159881
-0.0143818
-0.0123629
-0.0103186
-0.00830154
-0.00618887
-0.00381881
-0.00109934
0.00198121
0.00535868
0.00895005
0.0126736
0.0164679
0.020283
0.024058
0.027735
0.0312249
0.03447
0.037379
0.0399259
0.0420673
0.043835
0.045208
0.0461125
0.0463646
0.0457908
0.044299
0.0420568
0.0397641
0.0376005
0.0360427
0.035205
0.035005
0.0351124
0.0357597
0.0360015
0.0357683
0.0360609
0.0368412
0.0375405
0.03532
0.0327323
0.029634
0.0244005
0.0180744
0.0153696
0.0170428
0.0179789
0.0248297
0.031569
0.032592
0.0347371
0.0243639
0.00861679
-0.00775119
-0.0110853
-0.00322005
-0.00497593
-0.00811378
-0.00955997
-0.00932101
-0.00805012
-0.00639547
-0.00470612
-0.00304358
-0.00131154
0.000629659
0.0028648
0.00541277
0.0082255
0.0112365
0.014376
0.0175933
0.0208454
0.0240852
0.0272637
0.0303109
0.0331755
0.0357814
0.038101
0.0400815
0.0417297
0.0430021
0.0438554
0.0441674
0.0438522
0.0428906
0.041368
0.0397394
0.0380937
0.036819
0.0360192
0.035735
0.0356185
0.0359744
0.036108
0.0359404
0.0361611
0.036729
0.0375506
0.0360526
0.034027
0.0316671
0.0271905
0.0219691
0.0191542
0.02055
0.0208299
0.0254235
0.0312103
0.0337123
0.0347423
0.0278033
0.0127642
-0.0022703
-0.00526858
-0.00123336
0.000613744
-0.00213537
-0.00347597
-0.00337919
-0.00238253
-0.00103904
0.000341358
0.00169462
0.00309628
0.00466631
0.00648229
0.0085673
0.0108858
0.0133852
0.0160065
0.0187079
0.021453
0.0242062
0.0269267
0.0295586
0.0320576
0.0343586
0.0364353
0.0382332
0.0397471
0.0409262
0.0417447
0.0421211
0.0420181
0.0414418
0.0404536
0.0393643
0.0381154
0.0371204
0.036403
0.0360966
0.0358626
0.0360091
0.0360666
0.0359254
0.0360712
0.0364199
0.0369911
0.03604
0.0343464
0.0324768
0.0288165
0.0245821
0.0219307
0.0229808
0.0229183
0.0258195
0.0304357
0.0335171
0.0333022
0.0281351
0.0149105
0.00172499
-0.00155886
-5.15169e-05
0.00552078
0.0031351
0.00192322
0.001919
0.00268438
0.00375759
0.00486946
0.00595592
0.00707476
0.00832748
0.009784
0.0114695
0.0133588
0.0154104
0.0175755
0.0198202
0.0221141
0.0244298
0.0267334
0.0289804
0.0311335
0.0331385
0.0349704
0.0365781
0.0379505
0.0390378
0.0398251
0.0402566
0.0403178
0.0400166
0.0393944
0.0385994
0.0377813
0.037061
0.0364553
0.0361592
0.0358854
0.0358833
0.0358843
0.0357407
0.0358059
0.0359681
0.0362682
0.0355836
0.0341285
0.0325302
0.0296264
0.0262743
0.0238921
0.0244888
0.0243013
0.0260179
0.0293975
0.0322036
0.0314467
0.0269117
0.0157124
0.00465318
0.000804618
0.00062856
0.0098479
0.00780533
0.0067162
0.00662883
0.00719734
0.00803979
0.00892247
0.00978172
0.0106605
0.0116436
0.0127939
0.0141374
0.0156572
0.017321
0.0190887
0.0209327
0.0228282
0.0247535
0.0266823
0.0285786
0.0304101
0.0321343
0.0337281
0.0351463
0.0363747
0.0373696
0.0381208
0.0385883
0.0387693
0.038669
0.0383175
0.037808
0.0372539
0.0367487
0.0362617
0.0359891
0.0357214
0.035621
0.0355714
0.0354129
0.0353907
0.0354009
0.035458
0.034886
0.0336277
0.0321822
0.0298802
0.0272801
0.0251895
0.0253086
0.0251075
0.0260017
0.0282019
0.0302943
0.0294061
0.0251579
0.0157845
0.00668216
0.00241667
0.00103107
0.01369
0.0119322
0.0109481
0.0107975
0.0112053
0.011854
0.0125418
0.0132079
0.0138841
0.0146405
0.0155328
0.0165865
0.0177915
0.0191224
0.0205471
0.0220421
0.0235883
0.0251692
0.0267644
0.0283446
0.0298828
0.0313468
0.0327143
0.0339479
0.0350327
0.0359331
0.0366393
0.0371214
0.0373816
0.0374231
0.0372666
0.0369776
0.0366115
0.0362657
0.0358906
0.0356465
0.035403
0.0352448
0.0351456
0.034968
0.034862
0.034733
0.0346101
0.0340674
0.0329734
0.031648
0.0297815
0.0277658
0.0259573
0.0256831
0.0254256
0.0257714
0.0269486
0.0282074
0.0272729
0.0233051
0.0154621
0.00796594
0.00357627
0.00129442
0.0170616
0.0155532
0.0146723
0.0144799
0.0147572
0.0152426
0.015765
0.0162688
0.016776
0.0173437
0.0180202
0.0188302
0.0197688
0.0208162
0.0219467
0.0231411
0.0243849
0.0256647
0.0269652
0.0282635
0.0295365
0.0307639
0.0319205
0.0329782
0.0339222
0.0347244
0.0353753
0.0358522
0.036156
0.0362896
0.0362654
0.0361305
0.0359049
0.0356747
0.0353952
0.035181
0.0349628
0.0347761
0.0346308
0.0344309
0.0342547
0.0340225
0.0337598
0.0332075
0.0322387
0.0310366
0.0294732
0.027865
0.026301
0.025581
0.0253643
0.0253463
0.0257017
0.0261803
0.0251571
0.0215236
0.0149258
0.00868212
0.00439758
0.00148487
0.0200116
0.0187283
0.0179484
0.0177278
0.0178972
0.018246
0.0186298
0.0189973
0.0193635
0.0197744
0.0202721
0.0208789
0.021594
0.0224022
0.0232832
0.0242208
0.0252042
0.0262234
0.0272676
0.0283188
0.029358
0.0303685
0.0313304
0.0322222
0.0330294
0.0337307
0.0343163
0.034769
0.0350873
0.0352727
0.0353311
0.035296
0.0351719
0.0350223
0.0348175
0.0346322
0.0344338
0.0342346
0.0340503
0.0338238
0.0335775
0.033281
0.0329227
0.0323528
0.0314711
0.0303916
0.0290442
0.0276972
0.0263585
0.0254902
0.0250601
0.0247667
0.0245136
0.0243156
0.0231517
0.0198777
0.0142896
0.00899008
0.00492958
0.0016258
0.0225948
0.0215019
0.0208101
0.0205759
0.0206626
0.0208994
0.0211673
0.0214211
0.0216707
0.0219533
0.0223041
0.0227433
0.0232722
0.0238796
0.02455
0.0252701
0.0260316
0.0268275
0.0276497
0.0284849
0.0293202
0.0301355
0.0309201
0.031657
0.0323333
0.0329327
0.0334453
0.0338577
0.0341666
0.0343722
0.0344754
0.0344983
0.0344404
0.0343444
0.0341929
0.0340309
0.033845
0.0336404
0.033426
0.0331735
0.0328832
0.0325308
0.0321052
0.0315231
0.0307009
0.0297249
0.0285422
0.0273506
0.026182
0.0252175
0.0245798
0.024061
0.0233898
0.0226618
0.0213246
0.0183892
0.0136167
0.00901817
0.00521603
0.00172055
0.0248466
0.0239174
0.0233031
0.0230572
0.023079
0.0232292
0.0234062
0.0235672
0.0237221
0.0239005
0.0241321
0.0244342
0.0248082
0.0252479
0.0257417
0.0262785
0.0268518
0.027457
0.028088
0.0287346
0.0293894
0.0300356
0.0306623
0.0312571
0.0318097
0.0323081
0.0327423
0.0331022
0.0333831
0.0335838
0.0337028
0.033752
0.0337326
0.0336675
0.0335486
0.0334019
0.033222
0.0330132
0.0327755
0.0324992
0.0321724
0.0317833
0.0313121
0.0307225
0.029945
0.0290436
0.0279872
0.026889
0.0258223
0.0248124
0.0239879
0.023267
0.0223295
0.0212184
0.019707
0.017056
0.0129389
0.00886404
0.00530786
0.00176788
0.0268014
0.026013
0.0254686
0.025217
0.0251819
0.0252544
0.0253531
0.0254448
0.0255286
0.0256282
0.0257692
0.0259686
0.0262065
0.0265045
0.0268506
0.0272345
0.0276501
0.0280944
0.0285631
0.0290513
0.0295481
0.0300444
0.0305298
0.0309955
0.0314327
0.0318325
0.0321864
0.0324856
0.0327251
0.0329021
0.0330151
0.0330697
0.0330638
0.0330109
0.0329067
0.0327662
0.0325855
0.0323705
0.0321136
0.0318169
0.0314614
0.0310461
0.0305464
0.0299503
0.0292081
0.0283558
0.0273896
0.0263535
0.0253316
0.0243038
0.0233365
0.022433
0.0213254
0.0199639
0.0182979
0.0158647
0.0122738
0.00859864
0.00525602
0.00177102
0.0284897
0.0278223
0.0273415
0.0270908
0.0270135
0.0270245
0.0270575
0.0270821
0.027098
0.0271223
0.0271748
0.0272686
0.0274302
0.0276303
0.0278641
0.0281268
0.0284148
0.028726
0.0290586
0.0294094
0.0297707
0.0301357
0.0304962
0.0308458
0.0311769
0.0314828
0.0317564
0.0319901
0.0321792
0.0323198
0.0324102
0.0324515
0.0324418
0.0323869
0.0322832
0.0321404
0.0319525
0.0317278
0.0314545
0.0311392
0.030762
0.0303258
0.0298089
0.0292064
0.0284894
0.0276704
0.02676
0.0257687
0.0247586
0.0237178
0.0226554
0.0215964
0.0203717
0.018866
0.0170823
0.0148042
0.0116318
0.00827053
0.00510806
0.00173863
0.0299429
0.0293787
0.0289544
0.028708
0.0285985
0.0285607
0.0285418
0.0285165
0.0284837
0.028457
0.0284528
0.0284832
0.0285531
0.0286585
0.0287933
0.0289527
0.0291332
0.0293339
0.0295531
0.0297885
0.0300346
0.0302864
0.0305375
0.0307832
0.0310181
0.0312362
0.0314319
0.0315986
0.0317322
0.0318282
0.0318847
0.0319005
0.0318727
0.0318039
0.03169
0.0315366
0.0313366
0.0310989
0.0308102
0.0304768
0.0300823
0.0296285
0.0290998
0.0284918
0.027789
0.0269932
0.0261128
0.0251523
0.024142
0.0230821
0.0219615
0.0207834
0.0194703
0.0178947
0.016039
0.0138644
0.0110188
0.00791373
0.00490517
0.00168147
0.0311869
0.030709