/*--------------------------------*- C++ -*----------------------------------*\
| =========                 |                                                 |
| \\      /  F ield         | OpenFOAM: The Open Source CFD Toolbox           |
|  \\    /   O peration     | Version:  2312                                  |
|   \\  /    A nd           | Website:  www.openfoam.com                      |
|    \\/     M anipulation  |                                                 |
\*---------------------------------------------------------------------------*/
FoamFile
{
    version     2.0;
    format      ascii;
    arch        "LSB;label=32;scalar=64";
    class       volVectorField;
    location    "144.4";
    object      U;
}
// * * * * * * * * * * * * * * * * * * * * * * * * * * * * * * * * * * * * * //

dimensions      [0 1 -1 0 0 0 0];

internalField   nonuniform List<vector> 
5478
(
(-0.0406601 0.0274822 -1.29265e-19)
(-0.05097 0.042004 0)
(0.0172228 0.0345046 1.9372e-19)
(0.181161 0.011792 -3.39364e-19)
(0.437496 -0.0152783 2.22112e-19)
(0.736855 -0.0392679 -6.58897e-20)
(1.01559 -0.0590365 -1.14768e-19)
(1.22692 -0.0770366 0)
(1.35094 -0.0966756 0)
(1.39247 -0.118501 1.39906e-19)
(1.37814 -0.141214 -6.66448e-20)
(1.34035 -0.158812 -1.02881e-19)
(1.29619 -0.182656 -3.80125e-20)
(1.26667 -0.175388 0)
(1.21397 -0.218237 8.86981e-20)
(-0.0456221 0.0273379 2.59545e-19)
(-0.0229804 0.0259558 0)
(0.12242 0.00416068 0)
(0.39869 -0.0179617 -1.71232e-19)
(0.736687 -0.029805 2.25437e-19)
(1.03972 -0.0342755 6.47927e-20)
(1.25148 -0.0383774 -1.08817e-19)
(1.36178 -0.0474117 9.65018e-20)
(1.39222 -0.0622032 2.31716e-19)
(1.3787 -0.0805502 -2.01549e-19)
(1.35201 -0.0968717 4.52258e-21)
(1.32283 -0.114249 0)
(1.29627 -0.121231 3.79444e-20)
(1.26022 -0.130612 0)
(1.22397 -0.139433 0)
(-0.0418039 0.0229284 -6.99433e-22)
(0.039231 0.00652369 -1.215e-19)
(0.30098 -0.0149155 7.66232e-22)
(0.679369 -0.0171433 0)
(1.02264 -0.00868829 -7.54279e-20)
(1.25005 -0.00231929 6.33828e-20)
(1.3599 -0.00416684 5.29302e-20)
(1.38969 -0.013784 0)
(1.38194 -0.0273546 -7.7174e-20)
(1.36306 -0.0406782 6.41162e-20)
(1.33914 -0.0542691 5.2825e-20)
(1.31215 -0.0631838 0)
(1.27826 -0.0753507 0)
(1.24729 -0.0787566 -1.02393e-19)
(1.21363 -0.0915758 9.125e-20)
(-0.0258188 0.0131426 -1.41591e-19)
(0.149454 -0.0143803 1.19901e-19)
(0.543995 -0.0117201 -1.03549e-19)
(0.951387 0.0124384 9.04076e-20)
(1.22377 0.0312222 1.50745e-19)
(1.35519 0.0367577 -1.25632e-19)
(1.39592 0.0318525 -5.29054e-20)
(1.39447 0.0219378 4.08978e-20)
(1.37697 0.0105458 -3.91659e-20)
(1.35156 -0.00182763 0)
(1.32297 -0.0126681 0)
(1.29282 -0.0252406 -7.43281e-20)
(1.26672 -0.0323682 9.58413e-20)
(1.24089 -0.040536 -5.36889e-20)
(1.21596 -0.0493568 0)
(0.00760887 6.64955e-05 7.16337e-20)
(0.317091 -0.0213738 6.04245e-20)
(0.798997 0.0203874 -2.1604e-19)
(1.15701 0.0601577 2.98797e-21)
(1.33894 0.0778034 -2.73355e-21)
(1.40199 0.0787665 -1.93088e-21)
(1.40627 0.0714125 4.96351e-20)
(1.38669 0.0606564 4.21574e-20)
(1.35907 0.0483879 3.0247e-20)
(1.33131 0.0365099 -4.76424e-21)
(1.30528 0.0244068 -6.89336e-20)
(1.28181 0.0151116 0)
(1.25717 0.00587443 3.06007e-20)
(1.23241 -0.00344164 -2.23757e-20)
(1.20788 -0.00844886 4.0698e-20)
(0.0651976 -0.0107561 -1.53191e-19)
(0.525288 0.00259623 1.65832e-19)
(1.01294 0.0746692 -5.63291e-20)
(1.29139 0.116694 4.2489e-20)
(1.39924 0.128241 -7.80186e-20)
(1.41682 0.123635 -5.78382e-20)
(1.39852 0.112646 1.54551e-21)
(1.37101 0.099717 0)
(1.3441 0.0867131 6.15761e-20)
(1.31847 0.0738488 -5.4758e-20)
(1.29342 0.0622719 2.1851e-20)
(1.26767 0.0506398 0)
(1.24323 0.0405029 1.34625e-20)
(1.22048 0.031205 -2.32825e-20)
(1.19838 0.0249329 0)
(0.149063 -0.0104863 -1.91521e-20)
(0.729675 0.058836 1.36455e-21)
(1.17155 0.143157 2.78887e-20)
(1.37064 0.178895 4.59792e-20)
(1.42173 0.181532 -3.49494e-20)
(1.41114 0.170463 5.88238e-20)
(1.38337 0.155887 -1.333e-20)
(1.35373 0.140816 0)
(1.32492 0.1257 -3.63557e-20)
(1.29769 0.111308 2.36401e-21)
(1.27236 0.0974285 3.0402e-20)
(1.24982 0.0851252 0)
(1.22891 0.0739865 -1.97075e-20)
(1.20874 0.0632038 0)
(1.1903 0.0583821 1.20386e-20)
(0.252984 0.00783591 -2.05745e-20)
(0.898396 0.135917 0)
(1.27587 0.220494 2.85705e-20)
(1.40651 0.244763 0)
(1.41907 0.236899 0)
(1.39324 0.219392 0)
(1.36032 0.200562 -1.14236e-20)
(1.32893 0.18188 0)
(1.30106 0.16397 7.34259e-21)
(1.27626 0.147184 0)
(1.25362 0.131858 -9.54507e-21)
(1.23184 0.117508 0)
(1.21112 0.104083 6.23836e-21)
(1.1922 0.0928606 0)
(1.17403 0.0854737 4.06927e-21)
(-0.00686244 0.208617 -1.46821e-20)
(-0.0235727 0.355441 0)
(-0.0540422 0.3802 2.30894e-20)
(-0.0844255 0.365477 0)
(-0.11029 0.339145 0)
(-0.1295 0.301625 0)
(-0.140749 0.248586 -1.6514e-20)
(-0.14392 0.177397 0)
(-0.139757 0.0876536 1.43748e-20)
(-0.129425 -0.019761 0)
(-0.111305 -0.141949 -2.39975e-20)
(-0.0863424 -0.273863 0)
(-0.0497699 -0.405997 1.81844e-20)
(-0.0221953 -0.531674 0)
(0.0348975 -0.633757 1.19853e-20)
(-0.0173854 0.200523 7.48539e-20)
(-0.0289133 0.365962 -5.36935e-20)
(-0.0382358 0.404727 2.49436e-20)
(-0.0437287 0.39301 8.68735e-20)
(-0.0423755 0.362871 1.71582e-21)
(-0.0320826 0.319255 -7.29027e-20)
(-0.0122568 0.259876 4.95855e-20)
(0.0164091 0.182977 0)
(0.0512826 0.0881527 4.63107e-20)
(0.0914577 -0.0230801 1.58768e-21)
(0.139237 -0.147251 -2.5479e-20)
(0.190656 -0.285346 0)
(0.26161 -0.41743 -5.61496e-20)
(0.307312 -0.550933 0)
(0.396607 -0.637649 -5.77509e-20)
(-0.0248572 0.171659 1.24431e-19)
(-0.0336772 0.344806 2.71638e-20)
(-0.0226747 0.399783 -4.79148e-20)
(-0.00297498 0.394678 -1.32401e-19)
(0.0256248 0.363264 7.86867e-20)
(0.0641093 0.315981 7.61616e-20)
(0.112151 0.253729 -1.36017e-19)
(0.167553 0.175787 0)
(0.227861 0.081547 -1.23034e-19)
(0.294183 -0.0284944 1.09393e-19)
(0.37014 -0.150917 4.97381e-20)
(0.450904 -0.296156 0)
(0.551044 -0.426963 3.79425e-20)
(0.611819 -0.565011 -6.05214e-20)
(0.716486 -0.647081 0)
(-0.0278202 0.129746 6.33804e-20)
(-0.0385029 0.293742 -1.66255e-19)
(-0.0137986 0.361909 1.96179e-19)
(0.026218 0.366331 -1.73539e-19)
(0.0776937 0.337283 -7.83991e-20)
(0.139278 0.289131 7.17809e-20)
(0.209315 0.226411 6.85105e-20)
(0.285846 0.14995 6.15804e-20)
(0.369708 0.0608432 -1.76313e-19)
(0.467056 -0.0461386 -2.80614e-21)
(0.578985 -0.164558 4.71747e-20)
(0.70224 -0.307463 0)
(0.827417 -0.423847 6.93134e-20)
(0.903567 -0.55429 1.69712e-19)
(0.994938 -0.597676 -9.7155e-20)
(-0.0269026 0.0868201 7.7825e-23)
(-0.0427472 0.224278 1.10681e-19)
(-0.0137775 0.295329 -9.65639e-20)
(0.0379123 0.307339 8.67511e-20)
(0.104982 0.282933 1.54506e-19)
(0.18349 0.237135 -1.40818e-19)
(0.271439 0.176827 -6.33636e-20)
(0.372417 0.104854 -1.8405e-19)
(0.491829 0.0190735 1.65824e-19)
(0.636252 -0.0859554 0)
(0.79567 -0.196948 0)
(0.956441 -0.325138 1.53555e-19)
(1.08394 -0.410462 -3.31688e-19)
(1.15508 -0.515835 1.11992e-19)
(1.1891 -0.515277 0)
(-0.0250353 0.0533271 8.05904e-22)
(-0.0464734 0.154286 -1.09441e-19)
(-0.0207415 0.214337 2.89191e-19)
(0.0343541 0.226494 -8.44894e-20)
(0.110974 0.20529 -7.61661e-20)
(0.206869 0.163415 6.90906e-20)
(0.326474 0.10709 6.34012e-20)
(0.476374 0.0377267 1.15831e-19)
(0.65732 -0.0468245 -2.04215e-19)
(0.856579 -0.139374 9.07355e-20)
(1.04692 -0.234412 7.91346e-20)
(1.19776 -0.321648 0)
(1.28142 -0.384685 0)
(1.29794 -0.439819 1.71892e-19)
(1.2555 -0.435378 -1.52864e-19)
(-0.0261684 0.033873 5.30566e-23)
(-0.0516683 0.0986797 0)
(-0.0300535 0.137253 0)
(0.0296772 0.140979 1.66624e-19)
(0.12688 0.118258 -7.36549e-20)
(0.267712 0.0777419 6.55263e-20)
(0.455401 0.0241718 1.21136e-19)
(0.679018 -0.0381521 -1.07399e-19)
(0.913077 -0.106468 1.0147e-19)
(1.12303 -0.170396 -9.08252e-20)
(1.27771 -0.234105 -8.35283e-21)
(1.35563 -0.281381 0)
(1.36361 -0.316939 4.754e-20)
(1.30953 -0.34731 0)
(1.24872 -0.326571 0)
(-0.0322783 0.0272129 -1.26228e-19)
(-0.0566744 0.0627925 0)
(-0.0266778 0.0767711 -1.90913e-19)
(0.062443 0.0665524 3.34825e-19)
(0.221011 0.0383864 -3.67779e-19)
(0.446563 0.000483674 -6.67809e-20)
(0.710607 -0.0408841 1.16174e-19)
(0.970686 -0.0822401 0)
(1.18566 -0.121058 0)
(1.32852 -0.158144 -1.5464e-19)
(1.3878 -0.193161 -6.21968e-20)
(1.3814 -0.217997 1.14855e-19)
(1.33044 -0.246665 -4.76414e-20)
(1.27055 -0.254785 0)
(1.22844 -0.256552 -1.03616e-19)
(0.0655404 -0.769198 0)
(0.0408877 -0.876449 3.19474e-21)
(0.00998999 -0.740873 -2.9563e-21)
(0.304119 -0.2115 0)
(0.532155 0.262068 0)
(0.705214 0.594652 -8.85808e-23)
(0.76794 0.608032 0)
(0.764226 0.644064 0)
(0.612293 0.725831 6.95696e-23)
(0.559692 0.428371 0)
(0.731006 0.0469285 0)
(0.90831 -0.276217 -1.2393e-22)
(0.939698 -0.358615 0)
(0.936981 -0.513844 -9.31051e-23)
(0.953346 -0.603835 -7.27383e-23)
(0.959996 -0.357181 0)
(0.944866 -0.174584 -5.90972e-22)
(1.02366 0.28417 7.21288e-22)
(1.03161 0.522238 0)
(1.03761 0.471412 4.42765e-22)
(1.07325 0.415329 -5.64353e-22)
(1.07143 -0.15206 1.11836e-22)
(1.0866 -0.489034 -2.03465e-22)
(1.07573 -0.405888 1.94417e-22)
(1.10172 -0.317398 -2.19628e-22)
(1.16672 0.391235 0)
(1.16724 0.740718 -2.58729e-22)
(1.14025 -0.0261668 2.47381e-22)
(1.04055 -0.514286 -1.37965e-22)
(1.05404 -0.0724621 0)
(1.02644 0.205154 -8.80864e-23)
(0.994181 0.050987 0)
(0.982492 -0.0445577 -4.10355e-23)
(0.981934 -0.0150669 -1.1282e-23)
(0.971153 0.00665683 1.15155e-24)
(0.960263 0.00510569 -8.21487e-24)
(0.959629 -0.00016936 0)
(0.95166 -0.000667583 2.52454e-24)
(0.402181 -0.738578 2.11472e-20)
(0.317477 -0.796401 -9.59011e-23)
(0.0662384 -0.771745 -8.09438e-21)
(0.147801 -0.360108 7.7204e-21)
(0.363119 0.115887 0)
(0.587393 0.505704 8.92833e-23)
(0.723788 0.577745 -1.25341e-22)
(0.70059 0.680184 0)
(0.588489 0.774941 -7.00994e-23)
(0.607511 0.410222 0)
(0.781246 -0.0331038 0)
(0.950336 -0.323441 1.24809e-22)
(0.994784 -0.3691 0)
(0.985639 -0.515917 2.86599e-21)
(0.976471 -0.618357 -2.41764e-21)
(0.996142 -0.357345 2.23104e-21)
(0.93962 -0.18864 -2.12971e-21)
(0.999411 0.263425 -1.57995e-22)
(1.01827 0.508928 0)
(0.999228 0.46295 0)
(1.0666 0.411221 -1.04769e-22)
(1.08418 -0.14255 1.03861e-21)
(1.0861 -0.491921 -1.69368e-21)
(1.09621 -0.406547 7.82982e-22)
(1.07881 -0.329786 7.08385e-22)
(1.14062 0.379028 0)
(1.17691 0.736853 4.90242e-22)
(1.164 -0.00719505 0)
(1.05338 -0.510144 1.38444e-22)
(1.05023 -0.073512 -2.17492e-22)
(1.02793 0.208395 3.86722e-22)
(1.0042 0.0542331 -4.59263e-23)
(0.994995 -0.0438793 7.8364e-23)
(0.989497 -0.0141825 2.92884e-24)
(0.977547 0.00807182 1.41494e-23)
(0.967933 0.005808 -6.94438e-24)
(0.967283 0.000363364 -6.81496e-25)
(0.958308 -0.000194863 6.36197e-25)
(0.678825 -0.71821 2.81695e-20)
(0.639694 -0.673502 -4.41261e-20)
(0.355209 -0.685042 6.05821e-21)
(0.172615 -0.484562 1.00352e-20)
(0.324275 -0.0768594 6.11767e-23)
(0.55301 0.375803 -6.89749e-23)
(0.721507 0.551817 1.27512e-22)
(0.671428 0.716837 -2.66035e-22)
(0.604116 0.806493 0)
(0.689417 0.404498 1.26267e-20)
(0.866217 -0.0836245 -1.20416e-20)
(0.998107 -0.360678 -2.9476e-22)
(1.03832 -0.368556 0)
(1.0129 -0.494417 -5.71274e-21)
(0.970951 -0.625701 5.29294e-21)
(1.02025 -0.360391 -2.36122e-21)
(0.936502 -0.198569 2.25318e-21)
(0.972783 0.245001 2.78669e-21)
(1.00229 0.504372 -2.33857e-21)
(0.965862 0.458393 0)
(1.05783 0.405759 0)
(1.09384 -0.124027 1.69066e-21)
(1.08096 -0.486365 -1.61391e-21)
(1.10854 -0.405187 -1.82552e-21)
(1.04837 -0.341887 -5.00794e-22)
(1.10805 0.359022 2.17858e-21)
(1.18008 0.732573 -3.72986e-23)
(1.17984 0.0213119 -6.11949e-22)
(1.06062 -0.496908 1.30889e-21)
(1.04212 -0.0749081 -1.05187e-21)
(1.02586 0.210198 5.56271e-23)
(1.01054 0.0579835 -1.40081e-22)
(1.00437 -0.0423125 5.2407e-23)
(0.994308 -0.0128641 -5.01085e-23)
(0.981294 0.00946364 -9.24901e-24)
(0.973308 0.00643757 -4.82025e-24)
(0.972903 0.000951612 1.59572e-23)
(0.962976 0.000334033 2.4685e-24)
(0.896469 -0.701407 0)
(0.834533 -0.605022 1.53742e-20)
(0.685793 -0.523438 -1.51324e-20)
(0.39364 -0.470769 0)
(0.373687 -0.255897 -6.28762e-23)
(0.586388 0.203337 7.0873e-23)
(0.750809 0.488742 0)
(0.65188 0.718947 2.15864e-23)
(0.616268 0.822537 -3.04996e-22)
(0.770349 0.413378 0)
(0.960679 -0.10268 -1.17706e-20)
(1.0494 -0.387469 1.15231e-20)
(1.08264 -0.369421 -4.47856e-22)
(1.05495 -0.462523 -5.80879e-21)
(0.96946 -0.629853 5.53863e-21)
(1.03961 -0.374824 2.90164e-22)
(0.941761 -0.210727 0)
(0.954055 0.210032 -3.43708e-22)
(0.976251 0.482584 3.66556e-21)
(0.925432 0.447331 -7.10913e-22)
(1.03912 0.399906 1.32146e-22)
(1.09713 -0.10395 -2.32556e-21)
(1.076 -0.478627 -2.79085e-21)
(1.11121 -0.404996 3.3942e-21)
(1.01541 -0.350841 -5.38226e-22)
(1.06954 0.323517 0)
(1.16812 0.712521 -4.64001e-22)
(1.18475 0.0460618 6.20014e-22)
(1.06394 -0.480794 -1.29311e-21)
(1.03052 -0.0794098 1.03324e-21)
(1.01963 0.208718 -1.8449e-22)
(1.01259 0.0608318 0)
(1.01025 -0.0406003 -5.16389e-23)
(0.996265 -0.0114142 9.46612e-23)
(0.982465 0.0107065 2.94209e-23)
(0.976428 0.00692908 2.78165e-23)
(0.97645 0.00156977 -1.59684e-23)
(0.965645 0.000915336 -4.3952e-26)
(1.07709 -0.595809 4.45519e-22)
(0.919487 -0.575783 6.18618e-22)
(0.845433 -0.436071 0)
(0.655693 -0.349466 0)
(0.488491 -0.334996 0)
(0.576541 0.0203387 0)
(0.741909 0.437172 7.20892e-21)
(0.655318 0.713257 -1.57101e-20)
(0.650597 0.800226 9.08622e-21)
(0.836341 0.410603 0)
(1.04725 -0.10122 -1.1855e-20)
(1.10552 -0.39551 1.16776e-20)
(1.10888 -0.368747 7.23581e-21)
(1.08465 -0.421574 -6.09774e-21)
(0.968401 -0.622723 5.29382e-21)
(1.0447 -0.39601 -5.34426e-21)
(0.944796 -0.22307 -3.36256e-22)
(0.928375 0.188319 -5.20817e-21)
(0.949705 0.482 4.96338e-21)
(0.896931 0.441867 3.23255e-22)
(1.02163 0.392557 2.80356e-22)
(1.09653 -0.0794169 2.48598e-21)
(1.07252 -0.465227 -2.73059e-21)
(1.10289 -0.401631 -7.31027e-22)
(0.979405 -0.360123 -5.84606e-22)
(1.02451 0.287539 -6.60691e-22)
(1.15244 0.70261 0)
(1.18189 0.0785778 0)
(1.0638 -0.457866 0)
(1.01622 -0.0837418 0)
(1.01076 0.206688 4.6522e-22)
(1.01111 0.0639243 -2.65187e-22)
(1.01289 -0.0383004 1.01444e-22)
(0.995562 -0.00964624 -2.82315e-22)
(0.981318 0.0118563 2.98737e-23)
(0.97745 0.0072946 5.47732e-24)
(0.977976 0.0022222 -1.9384e-23)
(0.966398 0.00154974 -6.16727e-24)
(1.14486 -0.487705 -4.6922e-22)
(0.987569 -0.485929 3.29326e-20)
(0.848724 -0.419256 -3.16719e-20)
(0.787295 -0.287921 -1.0027e-20)
(0.672352 -0.308016 9.54868e-21)
(0.572271 -0.133349 6.9473e-21)
(0.656926 0.320811 -6.40705e-21)
(0.549353 0.670763 1.87012e-22)
(0.578839 0.791922 -2.77933e-22)
(0.839641 0.435416 0)
(1.10687 -0.0618028 -4.2169e-22)
(1.16444 -0.373619 1.82171e-20)
(1.13776 -0.358544 -1.73426e-20)
(1.11518 -0.376816 -3.7082e-22)
(0.986317 -0.604314 0)
(1.03926 -0.422691 -5.67405e-21)
(0.947648 -0.237904 1.15123e-20)
(0.909544 0.142942 -5.36793e-21)
(0.918411 0.449308 0)
(0.857504 0.430396 2.1087e-21)
(0.993 0.391535 -3.31389e-22)
(1.08967 -0.0518541 -2.1723e-21)
(1.07264 -0.448222 -3.21929e-21)
(1.0861 -0.397415 3.08016e-21)
(0.945609 -0.365941 -5.24564e-21)
(0.978781 0.238225 5.88347e-22)
(1.11868 0.673649 4.58232e-21)
(1.16534 0.105554 -1.32857e-21)
(1.06111 -0.435004 1.26316e-21)
(1.00002 -0.090821 -5.0273e-22)
(0.998186 0.201442 4.78065e-22)
(1.00559 0.0661017 0)
(1.01221 -0.0360007 9.93371e-23)
(0.992343 -0.00791581 -1.61377e-23)
(0.978137 0.012767 0)
(0.976569 0.00747908 -2.64771e-23)
(0.97759 0.0028773 1.29063e-23)
(0.965406 0.00222236 -2.34838e-24)
(1.13127 -0.397517 0)
(1.03508 -0.393229 0)
(0.872909 -0.370359 -1.0777e-22)
(0.794407 -0.28393 0)
(0.795218 -0.267483 0)
(0.648987 -0.176056 4.493e-21)
(0.594832 0.249523 -4.27475e-21)
(0.516842 0.623941 1.18427e-20)
(0.603166 0.713263 -1.13139e-20)
(0.889683 0.382812 0)
(1.16629 -0.0629006 -3.60727e-22)
(1.20805 -0.360495 3.03994e-22)
(1.15773 -0.356181 -1.39647e-20)
(1.12991 -0.337039 1.65261e-21)
(1.00783 -0.57647 1.08393e-20)
(1.02566 -0.44623 1.65561e-22)
(0.939009 -0.258882 -1.83418e-22)
(0.883554 0.122196 1.09936e-20)
(0.882266 0.452694 -1.08333e-20)
(0.831925 0.421639 0)
(0.974866 0.380061 0)
(1.08407 -0.0286833 -1.11734e-22)
(1.07532 -0.426514 0)
(1.06554 -0.386319 3.97516e-21)
(0.913558 -0.373869 2.02351e-21)
(0.927921 0.196587 -5.05927e-21)
(1.08873 0.664336 -2.68839e-21)
(1.14678 0.1373 1.75683e-21)
(1.05771 -0.408325 -1.38788e-22)
(0.983796 -0.0964774 0)
(0.984851 0.197141 -2.60616e-22)
(0.997759 0.0681704 2.47074e-22)
(1.00894 -0.0336485 5.30755e-23)
(0.987127 -0.00594696 2.46096e-23)
(0.973399 0.013585 -4.22679e-23)
(0.974056 0.00755796 9.12521e-24)
(0.975479 0.00356058 0)
(0.962928 0.00293084 4.79385e-24)
(1.14708 -0.315063 6.35593e-20)
(1.0695 -0.333654 3.91274e-20)
(0.955242 -0.330087 -1.14469e-20)
(0.844016 -0.294175 -3.91645e-20)
(0.811675 -0.286152 1.40652e-20)
(0.720254 -0.259342 -2.31417e-23)
(0.572452 0.0951529 0)
(0.409247 0.52896 -6.58577e-23)
(0.479022 0.703438 -8.76539e-23)
(0.846148 0.436346 0)
(1.19311 0.0217728 -2.08038e-20)
(1.24425 -0.293816 1.98242e-20)
(1.18459 -0.334282 2.46632e-22)
(1.1465 -0.296785 1.11243e-20)
(1.03059 -0.537536 -1.05713e-20)
(1.00907 -0.455237 1.55354e-22)
(0.922583 -0.283193 1.94919e-22)
(0.85067 0.0588733 0)
(0.845117 0.406037 7.5592e-21)
(0.793445 0.41183 -7.16676e-21)
(0.936167 0.386168 -1.83273e-21)
(1.07652 0.0127334 -6.31164e-23)
(1.08093 -0.399531 1.82281e-21)
(1.04386 -0.368977 -3.82478e-21)
(0.892525 -0.377416 -1.62841e-21)
(0.876299 0.13456 1.02825e-20)
(1.03829 0.624727 -3.82284e-21)
(1.11727 0.170483 7.6467e-22)
(1.05244 -0.381296 -5.1889e-22)
(0.968395 -0.104152 0)
(0.968087 0.188602 0)
(0.98662 0.07016 0)
(1.00317 -0.0309731 4.05827e-23)
(0.980355 -0.0043612 -4.92874e-23)
(0.967489 0.0139628 3.68995e-23)
(0.970152 0.00739469 -2.43141e-23)
(0.97187 0.00417552 -9.91142e-24)
(0.959279 0.00362296 0)
(1.16331 -0.209488 0)
(1.10952 -0.226802 0)
(1.02335 -0.219771 0)
(0.933569 -0.183135 0)
(0.842591 -0.160516 0)
(0.733858 -0.172649 0)
(0.584936 0.124166 0)
(0.506346 0.47226 0)
(0.735285 0.51721 0)
(1.09117 0.253639 0)
(1.3171 -0.0168755 0)
(1.27779 -0.247666 0)
(1.19528 -0.294179 0)
(1.16626 -0.222513 0)
(1.05325 -0.478061 0)
(0.998235 -0.480706 0)
(0.890905 -0.305206 0)
(0.821354 0.0481234 0)
(0.795143 0.415538 0)
(0.74574 0.396469 0)
(0.93713 0.363952 0)
(1.09355 0.0237792 0)
(1.08905 -0.374565 0)
(1.02213 -0.373832 0)
(0.861603 -0.38197 0)
(0.840907 0.095742 0)
(0.982928 0.614906 0)
(1.10184 0.188889 0)
(1.04413 -0.36188 0)
(0.953248 -0.107742 0)
(0.950467 0.184871 0)
(0.97327 0.0704988 0)
(0.993957 -0.0285491 0)
(0.970705 -0.00171634 0)
(0.95933 0.0148388 0)
(0.963947 0.00732762 0)
(0.965896 0.00507949 0)
(0.953793 0.00454252 0)
(1.12257 -0.15603 0)
(1.07913 -0.192298 0)
(1.00034 -0.183146 0)
(0.934186 -0.161593 0)
(0.886121 -0.134507 0)
(0.821958 -0.102832 0)
(0.723314 0.185159 0)
(0.776775 0.381229 0)
(1.05059 0.338663 0)
(1.24516 0.142064 0)
(1.33091 -0.0689458 0)
(1.24673 -0.223027 0)
(1.1595 -0.25738 0)
(1.1073 -0.245971 0)
(1.01132 -0.469164 0)
(0.955093 -0.40117 0)
(0.807799 -0.219806 0)
(0.751736 0.101966 0)
(0.688391 0.449469 0)
(0.695143 0.365715 0)
(0.943013 0.288635 0)
(1.10845 -0.0479157 0)
(1.08344 -0.366649 0)
(0.974884 -0.317218 0)
(0.785276 -0.325906 0)
(0.765744 0.107149 0)
(0.901062 0.583739 0)
(1.08716 0.146027 0)
(1.02683 -0.341523 0)
(0.926652 -0.0821614 0)
(0.919701 0.185487 0)
(0.953465 0.062454 0)
(0.979264 -0.0289247 0)
(0.955689 0.0017884 0)
(0.94666 0.0151915 0)
(0.953628 0.00652297 0)
(0.956123 0.00580085 0)
(0.945706 0.0054835 0)
(1.09867 -0.105497 0)
(1.07135 -0.124367 0)
(1.01643 -0.115133 0)
(0.971352 -0.103437 0)
(0.928646 -0.0512238 0)
(0.881491 -0.0511893 0)
(0.835523 0.149776 0)
(0.958689 0.251442 0)
(1.13566 0.196328 0)
(1.23851 0.070757 0)
(1.27836 -0.0402629 0)
(1.20337 -0.164931 0)
(1.13395 -0.213424 0)
(1.1148 -0.16235 0)
(1.042 -0.382265 0)
(0.897455 -0.358463 0)
(0.714043 -0.185081 0)
(0.650288 0.135114 0)
(0.589472 0.4467 0)
(0.709248 0.271662 0)
(0.94475 0.198627 0)
(1.12949 -0.0473416 0)
(1.08871 -0.319912 0)
(0.935154 -0.279205 0)
(0.70744 -0.293096 0)
(0.658894 0.0836878 0)
(0.836637 0.518703 0)
(1.09856 0.129641 0)
(1.01033 -0.309196 0)
(0.895253 -0.0727532 0)
(0.892141 0.174993 0)
(0.936462 0.0550824 0)
(0.961273 -0.027736 0)
(0.937854 0.00505217 0)
(0.932113 0.0149219 0)
(0.940998 0.00556573 0)
(0.943847 0.00649509 0)
(0.936282 0.0063731 0)
(1.07736 -0.0676339 0)
(1.06087 -0.0835424 0)
(1.02462 -0.0745091 0)
(0.989394 -0.0742588 0)
(0.959457 -0.0277814 0)
(0.946219 -0.0260496 0)
(0.917915 0.102429 0)
(1.02296 0.134369 0)
(1.12009 0.128366 0)
(1.18716 0.0416714 0)
(1.19371 -0.0475631 0)
(1.16692 -0.116544 0)
(1.10258 -0.178628 0)
(1.03665 -0.191318 0)
(1.00186 -0.348759 0)
(0.815689 -0.229659 0)
(0.658541 -0.0863063 0)
(0.567475 0.168891 0)
(0.596705 0.411619 0)
(0.81615 0.191439 0)
(0.967576 0.109251 0)
(1.13972 -0.109077 0)
(1.06987 -0.281374 0)
(0.885935 -0.188142 0)
(0.654996 -0.214882 0)
(0.553077 0.0711454 0)
(0.800187 0.430312 0)
(1.11111 0.0808048 0)
(0.987094 -0.269037 0)
(0.84382 -0.0466772 0)
(0.855675 0.165955 0)
(0.919777 0.0437016 0)
(0.939852 -0.027854 0)
(0.916496 0.00817872 0)
(0.915048 0.0140998 0)
(0.925965 0.00417944 0)
(0.929134 0.00675141 0)
(0.926013 0.0069241 0)
(1.06449 -0.0414942 0)
(1.05296 -0.051716 0)
(1.03135 -0.0434119 0)
(1.01125 -0.0488906 0)
(0.987273 -0.00419766 0)
(0.989816 -0.01556 0)
(0.971427 0.0694221 0)
(1.04346 0.0713387 0)
(1.07979 0.0702173 0)
(1.14739 0.022326 0)
(1.13338 -0.0355323 0)
(1.122 -0.104853 0)
(1.09585 -0.132071 0)
(1.03088 -0.102332 0)
(1.00767 -0.259477 0)
(0.793938 -0.142685 0)
(0.7297 -0.0244162 0)
(0.631609 0.161873 0)
(0.744128 0.318126 0)
(0.969385 0.0951336 0)
(1.01006 0.0451259 0)
(1.14847 -0.104664 0)
(1.04819 -0.217429 0)
(0.880337 -0.112617 0)
(0.699289 -0.150687 0)
(0.512843 0.0395066 0)
(0.789875 0.31025 0)
(1.12199 0.0525298 0)
(0.970189 -0.213164 0)
(0.786366 -0.0234898 0)
(0.829408 0.148563 0)
(0.919268 0.0312346 0)
(0.924076 -0.0255459 0)
(0.897122 0.0114118 0)
(0.901148 0.0122862 0)
(0.913517 0.00242037 0)
(0.915919 0.00653042 0)
(0.917625 0.00698614 0)
(1.05581 -0.0225328 0)
(1.04691 -0.0290897 0)
(1.03778 -0.0225371 0)
(1.02281 -0.030766 0)
(1.00769 0.00289235 0)
(1.01665 -0.0130495 0)
(0.998759 0.0435239 0)
(1.05387 0.0282582 0)
(1.05664 0.0407327 0)
(1.10805 0.00154916 0)
(1.09917 -0.0326056 0)
(1.08911 -0.0722877 0)
(1.05145 -0.105687 0)
(1.00525 -0.106105 0)
(1.00796 -0.208258 0)
(0.818526 -0.0555727 0)
(0.833861 0.0223586 0)
(0.779176 0.132586 0)
(0.914894 0.21826 0)
(1.0859 0.0579235 0)
(1.03907 0.018381 0)
(1.13383 -0.12355 0)
(1.00287 -0.168237 0)
(0.884281 -0.0398497 0)
(0.815497 -0.0562731 0)
(0.596216 0.0382344 0)
(0.820605 0.174356 0)
(1.11872 0.00578393 0)
(0.959739 -0.146097 0)
(0.760015 0.00784584 0)
(0.839583 0.118776 0)
(0.940941 0.0149946 0)
(0.922139 -0.020543 0)
(0.892242 0.0147307 0)
(0.902966 0.00919712 0)
(0.913391 0.000415931 0)
(0.913126 0.0058442 0)
(0.917503 0.00642979 0)
(1.04923 -0.00975517 0)
(1.04271 -0.0149825 0)
(1.0405 -0.00973789 0)
(1.03068 -0.0191232 0)
(1.02196 0.0052921 0)
(1.02954 -0.0110619 0)
(1.01614 0.0255764 0)
(1.05249 0.00605091 0)
(1.0437 0.0205989 0)
(1.08153 -0.0115067 0)
(1.06687 -0.0256677 0)
(1.06423 -0.0597537 0)
(1.04553 -0.0769991 0)
(1.00831 -0.0575113 0)
(0.994783 -0.13733 0)
(0.855377 -0.0149953 0)
(0.915469 0.0186005 0)
(0.900351 0.0989342 0)
(0.993333 0.131185 0)
(1.11186 0.0221379 0)
(1.04771 0.0203025 0)
(1.1189 -0.0894542 0)
(0.984874 -0.0983943 0)
(0.894532 -0.0124352 0)
(0.935432 -0.0131736 0)
(0.784358 0.0457703 0)
(0.901477 0.0798271 0)
(1.10391 -0.0109432 0)
(0.972013 -0.0768074 0)
(0.805323 0.0256845 0)
(0.894234 0.0813489 0)
(0.97913 0.00326041 0)
(0.943375 -0.0104098 0)
(0.916613 0.0177245 0)
(0.930431 0.00563073 0)
(0.933719 -0.000507837 0)
(0.930361 0.00568115 0)
(0.933039 0.00582424 0)
(1.04418 -0.00198883 0)
(1.03941 -0.00578696 0)
(1.04146 -0.00245797 0)
(1.03373 -0.01114 0)
(1.03022 0.00524761 0)
(1.03379 -0.0106576 0)
(1.0261 0.0152299 0)
(1.04652 -0.00691753 0)
(1.03789 0.010304 0)
(1.0611 -0.018195 0)
(1.04821 -0.0198709 0)
(1.05014 -0.042638 0)
(1.02524 -0.057172 0)
(1.00568 -0.0431471 0)
(0.996316 -0.0973434 0)
(0.910233 0.00586439 0)
(0.959857 0.00124877 0)
(0.956867 0.0685506 0)
(1.01955 0.0781754 0)
(1.08134 0.0157005 0)
(1.03414 0.0228591 0)
(1.08299 -0.0858408 0)
(0.982624 -0.0529716 0)
(0.932912 -0.0063415 0)
(0.987317 0.00011875 0)
(0.919475 0.0616862 0)
(0.978336 0.0251432 0)
(1.06867 -0.0284037 0)
(0.976906 -0.0221628 0)
(0.885252 0.042251 0)
(0.960385 0.0534918 0)
(1.0094 -0.00399232 0)
(0.97141 -0.000164881 0)
(0.956692 0.0201086 0)
(0.969314 0.00327498 0)
(0.964678 0.000158503 0)
(0.960733 0.00632806 0)
(0.960281 0.00563977 0)
(1.04019 0.00296009 0)
(1.03644 -0.000969814 0)
(1.04045 0.00188474 0)
(1.03372 -0.00675744 0)
(1.0342 0.00499672 0)
(1.03368 -0.00969895 0)
(1.03053 0.00878949 0)
(1.04058 -0.0114488 0)
(1.03295 0.00406003 0)
(1.048 -0.0190956 0)
(1.03361 -0.0159786 0)
(1.03984 -0.0310041 0)
(1.01808 -0.0428546 0)
(1.01173 -0.0214938 0)
(0.996755 -0.0634632 0)
(0.952186 0.0135985 0)
(0.985343 -0.00756978 0)
(0.975938 0.0480487 0)
(1.02453 0.0452221 0)
(1.04884 0.00383495 0)
(1.0358 0.0270947 0)
(1.05847 -0.0612297 0)
(0.982866 -0.0153822 0)
(0.971051 -0.00531196 0)
(0.993305 -0.0049653 0)
(0.9803 0.0549062 0)
(1.02284 0.00361047 0)
(1.03335 -0.0150053 0)
(0.978776 0.00831398 0)
(0.95444 0.0359703 0)
(1.00964 0.0329066 0)
(1.02507 -0.0024509 0)
(0.994423 0.00867279 0)
(0.994113 0.020205 0)
(1.0028 0.00225552 0)
(0.9936 0.00200853 0)
(0.991714 0.00748911 0)
(0.989573 0.00598255 0)
(1.03631 0.00555377 0)
(1.03338 0.00167703 0)
(1.03788 0.00406192 0)
(1.03261 -0.00378202 0)
(1.03403 0.00464113 0)
(1.0325 -0.0081989 0)
(1.03034 0.00527298 0)
(1.03615 -0.0118777 0)
(1.02819 0.000798862 0)
(1.03984 -0.0166567 0)
(1.02436 -0.0128345 0)
(1.03489 -0.0202561 0)
(1.01267 -0.0309247 0)
(1.01406 -0.0111802 0)
(1.00115 -0.0441316 0)
(0.977831 0.0141691 0)
(1.00111 -0.0123352 0)
(0.984899 0.0315919 0)
(1.02957 0.0257401 0)
(1.02471 -0.000644178 0)
(1.03085 0.0247186 0)
(1.03958 -0.0489771 0)
(0.987882 -0.000876043 0)
(1.00219 -0.00685892 0)
(0.992235 -0.00477601 0)
(1.00207 0.0478081 0)
(1.02999 -0.00707129 0)
(1.01115 -0.00806599 0)
(0.993576 0.0180919 0)
(0.994031 0.0282218 0)
(1.02637 0.0238274 0)
(1.02693 0.000930183 0)
(1.00846 0.0118153 0)
(1.01781 0.0181139 0)
(1.02116 0.00265958 0)
(1.01142 0.00381486 0)
(1.01257 0.00798131 0)
(1.01093 0.00627421 0)
(1.03238 0.00671087 0)
(1.03047 0.00301719 0)
(1.03429 0.0050567 0)
(1.03063 -0.00167311 0)
(1.03165 0.00414377 0)
(1.03063 -0.00592314 0)
(1.02807 0.003016 0)
(1.03265 -0.0095083 0)
(1.02411 -0.00108463 0)
(1.03438 -0.0123995 0)
(1.01901 -0.010326 0)
(1.03049 -0.0127127 0)
(1.01094 -0.0225271 0)
(1.01648 -0.00465877 0)
(1.00554 -0.0289957 0)
(0.993201 0.0111433 0)
(1.01066 -0.0105397 0)
(0.990648 0.0196696 0)
(1.03038 0.0144588 0)
(1.01166 -0.0032746 0)
(1.0291 0.020207 0)
(1.02832 -0.0317086 0)
(0.993374 0.00688833 0)
(1.01694 -0.00439736 0)
(0.989638 -0.00326886 0)
(1.01254 0.0345707 0)
(1.02896 -0.00657793 0)
(1.00287 0.0029813 0)
(1.00506 0.0195101 0)
(1.00752 0.0197525 0)
(1.0277 0.0190072 0)
(1.02624 0.00500022 0)
(1.01487 0.0125585 0)
(1.02707 0.0157286 0)
(1.02725 0.00416632 0)
(1.01949 0.00529493 0)
(1.02237 0.00793654 0)
(1.02186 0.00652566 0)
(1.02861 0.00686231 0)
(1.02768 0.00388914 0)
(1.03027 0.00514207 0)
(1.02831 0.000147768 0)
(1.02836 0.0036044 0)
(1.02838 -0.00342961 0)
(1.0252 0.00180175 0)
(1.02933 -0.00643315 0)
(1.02127 -0.00165208 0)
(1.02984 -0.00828248 0)
(1.01661 -0.00777038 0)
(1.02688 -0.00771863 0)
(1.01149 -0.0149818 0)
(1.01708 -0.00215297 0)
(1.00943 -0.0181841 0)
(1.00197 0.00719352 0)
(1.015 -0.0078107 0)
(0.996754 0.0112226 0)
(1.02799 0.00806247 0)
(1.00706 -0.0028476 0)
(1.02491 0.0140412 0)
(1.0207 -0.0198678 0)
(0.99904 0.00639931 0)
(1.02158 -0.0027721 0)
(0.993634 -0.00113486 0)
(1.01671 0.02432 0)
(1.02227 -0.0035374 0)
(1.00288 0.00500482 0)
(1.01345 0.0157655 0)
(1.01182 0.0152424 0)
(1.02511 0.0156385 0)
(1.02502 0.00692048 0)
(1.01777 0.01099 0)
(1.02907 0.0127309 0)
(1.02813 0.00539812 0)
(1.02272 0.00580557 0)
(1.02576 0.00710676 0)
(1.02589 0.00634702 0)
(1.0251 0.00653423 0)
(1.02489 0.00443698 0)
(1.02653 0.0048764 0)
(1.02561 0.00163078 0)
(1.02516 0.00313621 0)
(1.02559 -0.00113332 0)
(1.02271 0.00120777 0)
(1.02596 -0.0034555 0)
(1.01953 -0.00146999 0)
(1.02583 -0.00486339 0)
(1.01597 -0.00526663 0)
(1.02355 -0.00453979 0)
(1.01267 -0.00925166 0)
(1.01707 -0.00141418 0)
(1.01191 -0.0104035 0)
(1.0075 0.00365388 0)
(1.01631 -0.00449342 0)
(1.00241 0.00584025 0)
(1.02389 0.00462586 0)
(1.00718 -0.00165665 0)
(1.02111 0.00881698 0)
(1.01686 -0.00988479 0)
(1.00431 0.00520226 0)
(1.02068 0.000255891 0)
(0.999026 0.00080183 0)
(1.0173 0.0158294 0)
(1.01835 0.000787714 0)
(1.00687 0.00667697 0)
(1.0162 0.0136987 0)
(1.01304 0.0125582 0)
(1.02295 0.0127791 0)
(1.02373 0.0090777 0)
(1.01919 0.010184 0)
(1.02812 0.0106579 0)
(1.02706 0.00678109 0)
(1.02385 0.00632755 0)
(1.0263 0.00662094 0)
(1.02666 0.00640752 0)
(1.02203 0.00599156 0)
(1.0222 0.00474028 0)
(1.0232 0.00449277 0)
(1.02282 0.00270687 0)
(1.02231 0.00284005 0)
(1.02275 0.000669806 0)
(1.02063 0.00112236 0)
(1.02277 -0.00111612 0)
(1.01834 -0.000834163 0)
(1.02237 -0.00234825 0)
(1.01585 -0.00306594 0)
(1.02074 -0.00256885 0)
(1.01374 -0.0050027 0)
(1.01663 -0.00120085 0)
(1.01332 -0.00517935 0)
(1.01083 0.00136205 0)
(1.01597 -0.00195021 0)
(1.007 0.00268627 0)
(1.02001 0.00290422 0)
(1.00898 -0.000396818 0)
(1.01799 0.00510891 0)
(1.01471 -0.00360462 0)
(1.00811 0.00316966 0)
(1.01828 0.00212778 0)
(1.00455 0.00171272 0)
(1.01674 0.0104767 0)
(1.01543 0.0037611 0)
(1.01022 0.00551709 0)
(1.01699 0.0111921 0)
(1.01428 0.0104419 0)
(1.02109 0.00995015 0)
(1.02214 0.00977252 0)
(1.01995 0.00863556 0)
(1.02652 0.0085494 0)
(1.02563 0.00729383 0)
(1.02423 0.00610231 0)
(1.02593 0.00583059 0)
(1.02643 0.00612753 0)
(1.01937 0.00543559 0)
(1.0197 0.00480676 0)
(1.02033 0.00413604 0)
(1.02022 0.00339531 0)
(1.01983 0.00268521 0)
(1.02012 0.00195338 0)
(1.01876 0.00123676 0)
(1.02002 0.000593772 0)
(1.01727 -0.000161348 0)
(1.01959 -0.000530385 0)
(1.01564 -0.0013846 0)
(1.01851 -0.00118962 0)
(1.01428 -0.00211135 0)
(1.01603 -0.00103569 0)
(1.01391 -0.00174154 0)
(1.01263 -4.29415e-05 0)
(1.01529 7.23655e-05 0)