/*--------------------------------*- C++ -*----------------------------------*\
| =========                 |                                                 |
| \\      /  F ield         | OpenFOAM: The Open Source CFD Toolbox           |
|  \\    /   O peration     | Version:  2312                                  |
|   \\  /    A nd           | Website:  www.openfoam.com                      |
|    \\/     M anipulation  |                                                 |
\*---------------------------------------------------------------------------*/
FoamFile
{
    version     2.0;
    format      ascii;
    arch        "LSB;label=32;scalar=64";
    class       volScalarField;
    location    "6.5";
    object      p;
}
// * * * * * * * * * * * * * * * * * * * * * * * * * * * * * * * * * * * * * //

dimensions      [0 2 -2 0 0 0 0];

internalField   nonuniform List<scalar> 
9200
(
-0.643008
-0.65513
-0.653189
-0.661864
-0.681388
-0.703379
-0.707755
-0.686356
-0.657028
-0.631386
-0.606334
-0.579287
-0.549526
-0.516033
-0.479313
-0.440056
-0.397427
-0.354939
-0.311034
-0.269202
-0.576739
-0.583201
-0.609014
-0.665122
-0.721071
-0.761521
-0.732687
-0.674767
-0.619696
-0.579801
-0.547392
-0.517145
-0.487436
-0.457686
-0.425145
-0.390653
-0.357118
-0.324272
-0.291221
-0.259793
-0.504358
-0.500283
-0.528594
-0.603981
-0.680959
-0.712146
-0.66884
-0.601999
-0.547116
-0.512753
-0.485869
-0.459471
-0.433156
-0.406349
-0.378781
-0.349956
-0.320314
-0.291569
-0.264228
-0.238285
-0.449108
-0.449657
-0.439115
-0.447572
-0.530926
-0.574117
-0.554007
-0.511692
-0.474369
-0.449329
-0.428565
-0.406732
-0.383908
-0.361051
-0.338076
-0.314815
-0.291515
-0.267995
-0.2439
-0.222099
-0.401875
-0.374413
-0.327234
-0.343668
-0.409702
-0.460123
-0.463604
-0.442829
-0.418026
-0.397677
-0.380082
-0.362601
-0.343917
-0.324512
-0.304282
-0.283912
-0.264061
-0.244138
-0.224708
-0.205728
-0.371482
-0.343662
-0.27983
-0.307924
-0.361003
-0.396478
-0.402022
-0.389628
-0.371439
-0.354171
-0.338327
-0.322497
-0.306041
-0.288671
-0.270744
-0.25255
-0.235004
-0.218413
-0.202045
-0.18599
-0.428003
-0.373051
-0.322094
-0.321626
-0.340702
-0.355113
-0.357337
-0.348508
-0.334052
-0.318719
-0.303718
-0.288927
-0.274357
-0.2601
-0.245123
-0.229301
-0.213626
-0.198545
-0.184207
-0.169629
-0.454033
-0.482331
-0.370244
-0.32868
-0.326403
-0.328158
-0.32522
-0.316145
-0.302927
-0.288301
-0.273922
-0.259431
-0.244892
-0.230753
-0.217328
-0.204131
-0.190369
-0.176954
-0.164281
-0.151552
-0.360228
-0.393575
-0.369986
-0.332982
-0.316862
-0.307943
-0.29923
-0.287994
-0.274327
-0.259618
-0.245062
-0.231101
-0.217234
-0.203339
-0.190087
-0.177512
-0.165696
-0.154418
-0.143514
-0.13287
-0.328877
-0.339197
-0.358167
-0.334348
-0.31331
-0.294691
-0.278375
-0.263047
-0.247798
-0.232686
-0.218341
-0.205078
-0.192584
-0.180752
-0.169145
-0.157651
-0.146183
-0.135404
-0.125271
-0.115595
-0.459162
-0.477363
-0.509478
-0.55418
-0.612466
-0.686407
-0.77614
-0.877876
-0.978225
-1.05585
-1.09177
-1.07838
-1.01297
-0.897504
-0.7375
-0.548484
-0.350792
-0.170957
-0.0222327
0.093261
-0.517692
-0.530737
-0.558289
-0.601123
-0.662335
-0.746162
-0.852691
-0.976101
-1.10116
-1.20382
-1.26009
-1.26075
-1.20444
-1.09122
-0.92812
-0.73407
-0.520121
-0.311548
-0.137743
-0.00732644
-0.583715
-0.590947
-0.616913
-0.660921
-0.72748
-0.821995
-0.946157
-1.09213
-1.24155
-1.37097
-1.45602
-1.48093
-1.44023
-1.33685
-1.1667
-0.955686
-0.721611
-0.48818
-0.294024
-0.139985
-0.650947
-0.647337
-0.67071
-0.711646
-0.777845
-0.874269
-1.0018
-1.15184
-1.30613
-1.44052
-1.53173
-1.56448
-1.52462
-1.41781
-1.24955
-1.03798
-0.812492
-0.591739
-0.399836
-0.246813
-0.686882
-0.680843
-0.703784
-0.739252
-0.795669
-0.878351
-0.988206
-1.11802
-1.25035
-1.36554
-1.443
-1.46913
-1.43318
-1.33285
-1.18074
-0.991731
-0.793105
-0.602257
-0.435304
-0.303695
-0.69513
-0.69269
-0.712111
-0.736989
-0.776844
-0.83427
-0.908904
-0.996797
-1.08682
-1.16491
-1.21947
-1.24091
-1.21797
-1.1402
-1.02077
-0.873144
-0.71886
-0.570087
-0.434458
-0.323572
-0.679748
-0.684121
-0.69831
-0.712708
-0.730517
-0.753829
-0.786024
-0.828784
-0.879552
-0.93383
-0.980879
-1.00295
-0.993834
-0.946493
-0.861865
-0.749884
-0.630897
-0.521094
-0.42578
-0.34067
-0.659813
-0.671753
-0.681179
-0.678545
-0.676513
-0.679679
-0.686797
-0.702682
-0.733819
-0.776281
-0.814206
-0.83508
-0.829488
-0.796857
-0.735185
-0.65372
-0.56454
-0.474492
-0.399334
-0.335943
-0.65483
-0.675847
-0.667411
-0.659156
-0.654589
-0.642184
-0.63365
-0.642033
-0.663953
-0.691595
-0.714527
-0.723306
-0.711595
-0.679229
-0.626492
-0.56345
-0.500595
-0.439111
-0.381314
-0.324367
-0.666027
-0.679676
-0.667421
-0.655433
-0.641045
-0.643433
-0.647768
-0.650006
-0.652795
-0.656408
-0.656383
-0.645921
-0.623344
-0.588742
-0.544322
-0.493514
-0.440351
-0.391591
-0.347518
-0.303681
0.16975
0.201721
0.202427
0.187769
0.166902
0.145198
0.125229
0.108056
0.093664
0.0813743
0.0708728
0.062168
0.0545354
0.0475154
0.041264
0.0359482
0.0313886
0.0274487
0.024079
0.0212006
0.0187404
0.0166462
0.014863
0.0133399
0.0120395
0.0109309
0.009986
0.00917997
0.00849143
0.00790267
0.00739766
0.00696137
0.00658136
0.0062479
0.00595312
0.00568702
0.00543943
0.00520271
0.00497229
0.00473784
0.00449658
0.00423059
0.00394931
0.00361635
0.00325956
0.00282896
0.00233355
0.00178816
0.0011016
0.000372113
0.0983934
0.151056
0.164765
0.160181
0.146987
0.130478
0.114295
0.100186
0.0881482
0.0777376
0.0687712
0.0609808
0.053972
0.0470449
0.0410385
0.0358091
0.0312632
0.0273561
0.024014
0.0211414
0.0186843
0.0165976
0.0148216
0.0133044
0.0120101
0.0109078
0.00996813
0.00916598
0.00848003
0.0078922
0.00738766
0.00695328
0.00657532
0.00624266
0.00594818
0.00568225
0.00543463
0.00519811
0.00496761
0.00473349
0.00449159
0.00422716
0.00394432
0.00361479
0.00325577
0.00282706
0.00233443
0.00178138
0.00110288
0.000365385
-0.0137968
0.0675006
0.104982
0.116009
0.115944
0.109346
0.0993214
0.0890483
0.0798997
0.0719521
0.0649095
0.0582962
0.0519149
0.0458458
0.0403626
0.0353823
0.0309789
0.0271965
0.0239284
0.0210864
0.018648
0.0165762
0.0148086
0.0132954
0.0120033
0.0109023
0.00996379
0.00916219
0.00847649
0.00788899
0.0073834
0.00694721
0.00656941
0.00623955
0.00594756
0.00568163
0.00543318
0.00519703
0.00496732
0.0047344
0.00449225
0.00422959
0.00394478
0.0036188
0.00325673
0.00283025
0.00233967
0.00177901
0.00110806
0.000356995
-0.123321
-0.0294791
0.0306925
0.0605458
0.074584
0.0800385
0.0793425
0.0749157
0.0695087
0.0643284
0.0593852
0.0543306
0.0491015
0.0443442
0.039074
0.0344349
0.0302879
0.0266874
0.0235331
0.0207695
0.0183983
0.0163829
0.0146577
0.0131754
0.0119074
0.0108265
0.00990522
0.00911901
0.00844593
0.00786813
0.00737038
0.00693877
0.00656225
0.00623501
0.00594815
0.00568636
0.00543986
0.00520489
0.00497605
0.00474477
0.00450329
0.00424338
0.0039576
0.00363566
0.00327128
0.00284681
0.00235871
0.00178942
0.00112478
0.000359161
-0.199754
-0.114182
-0.0434447
0.00241738
0.0296965
0.0458993
0.0539716
0.0566153
0.0563279
0.0546856
0.0522776
0.0492016
0.0455468
0.0415809
0.0375215
0.0334395
0.0296895
0.0263478
0.0233499
0.0206649
0.0183275
0.016327
0.0146095
0.0131324
0.0118689
0.0107928
0.00987631
0.00909434
0.00842657
0.0078538
0.00735991
0.00693213
0.00655817
0.00623132
0.00594381
0.00568252
0.00543845
0.00520629
0.00497895
0.00474896
0.00450758
0.00424997
0.00396291
0.00364527
0.00327798
0.00285727
0.00237013
0.0017954
0.00113564
0.000352851
-0.233868
-0.165129
-0.101279
-0.0484696
-0.0123632
0.012001
0.0277588
0.0364122
0.040648
0.0428394
0.043589
0.0429667
0.0410807
0.0382896
0.0354628
0.031661
0.0283099
0.0252716
0.0225119
0.0200271
0.0178577
0.0159906
0.0143702
0.0129592
0.0117383
0.0106889
0.00979086
0.00902348
0.00836815
0.00780859
0.0073277
0.00691064
0.00654685
0.00622933
0.0059465
0.00568646
0.00544451
0.00521643
0.0049932
0.004767
0.00452739
0.00427259
0.00398487
0.00367044
0.00330129
0.00288162
0.00239653
0.00181384
0.00115698
0.00035896
-0.260685
-0.197503
-0.144237
-0.0908999
-0.049826
-0.0205029
0.00107783
0.015519
0.0241448
0.0294133
0.0328939
0.0349334
0.0355035
0.0346657
0.0327047
0.0303967
0.0275035
0.0247908
0.0222089
0.0198042
0.0176602
0.0158058
0.0142032
0.0128141
0.0116154
0.0105868
0.0097058
0.00895351
0.00831097
0.00776131
0.00729049
0.00688302
0.00652719
0.00621788
0.00594229
0.00568668
0.0054465
0.00521886
0.00499601
0.00477154
0.0045336
0.00428224
0.00399508
0.00368522
0.00331449
0.00289932
0.00241405
0.00182982
0.00117402
0.000361963
-0.274756
-0.220987
-0.178264
-0.130052
-0.0858775
-0.0521978
-0.0261856
-0.00669797
0.00664301
0.0155631
0.0216696
0.0259218
0.0285219
0.0294469
0.0288653
0.0276348
0.0253013
0.0232113
0.0211021
0.0190556
0.0171674
0.0154852
0.0139945
0.0126747
0.0115167
0.0105112
0.00964303
0.00889665
0.00825932
0.00771426
0.00724804
0.00684763
0.00650173
0.00620214
0.00593374
0.00568405
0.00544903
0.00522561
0.00500587
0.0047842
0.00454776
0.00429875
0.00401138
0.00370412
0.00333158
0.00291811
0.00243164
0.00184505
0.00118648
0.00036378
-0.271166
-0.229656
-0.193046
-0.153474
-0.112932
-0.0778471
-0.048685
-0.0255652
-0.00885304
0.00301839
0.0119395
0.0182964
0.0227361
0.025476
0.0263282
0.0255066
0.0240532
0.0222263
0.0203351
0.0184201
0.0166226
0.0150253
0.0136199
0.0123775
0.0112832
0.0103272
0.00949635
0.00877771
0.00816203
0.00763583
0.00718701
0.00680193
0.00647065
0.00618353
0.00592515
0.00568462
0.00545731
0.00523969
0.00502446
0.00480682
0.00457383
0.00432808
0.00404315
0.00373818
0.003367
0.0029542
0.00246846
0.00187988
0.00121843
0.000390708
-0.272456
-0.246525
-0.213644
-0.177271
-0.142456
-0.110315
-0.0814608
-0.0560105
-0.0346255
-0.0180199
-0.00573321
0.00348111
0.0109932
0.0169951
0.0205955
0.0216495
0.021565
0.0205406
0.0192672
0.0177851
0.0162466
0.0147946
0.0134717
0.0122762
0.0112105
0.0102737
0.00945409
0.00874104
0.00812608
0.00760194
0.00715497
0.00676966
0.00644064
0.00615698
0.00590211
0.00566634
0.00544439
0.00523184
0.00502108
0.00480769
0.00457817
0.0043359
0.00405288
0.00375105
0.00337906
0.00297087
0.00247932
0.0018978
0.00122919
0.000398817
-0.243292
-0.234076
-0.207252
-0.172932
-0.138838
-0.108642
-0.0823825
-0.0591373
-0.0399149
-0.0244896
-0.0119652
-0.00232295
0.00528053
0.0118481
0.0166076
0.0187369
0.0189381
0.0185194
0.0176379
0.0165232
0.015265
0.0140461
0.0129111
0.0118587
0.0108989
0.0100401
0.00927792
0.00860711
0.00802309
0.00752177
0.00709079
0.00671701
0.00639911
0.00612751
0.00588535
0.00566227
0.00545196
0.00524898
0.00504583
0.00483799
0.00461367
0.00437386
0.0040956
0.00379244
0.00342468
0.00301251
0.00251904
0.00193469
0.00125733
0.000431029
-0.213559
-0.21263
-0.189851
-0.158526
-0.128261
-0.102254
-0.0799103
-0.0598816
-0.0434626
-0.0294377
-0.0166296
-0.00694238
0.00040509
0.00707582
0.01208
0.0145273
0.0153787
0.0156242
0.0154424
0.014781
0.0138843
0.012955
0.0120511
0.0111807
0.0103655
0.00962134
0.00895007
0.00835206
0.0078254
0.00736853
0.00697295
0.0066286
0.00633585
0.00608742
0.00586476
0.00565541
0.00545422
0.00525769
0.00505992
0.00485655
0.00463701
0.00439991
0.00412661
0.00382314
0.00346091
0.00304544
0.00255445
0.00196605
0.0012881
0.000461871
-0.187913
-0.189249
-0.173192
-0.148963
-0.123691
-0.100927
-0.0813852
-0.0631946
-0.0478387
-0.0350322
-0.0228262
-0.0128297
-0.00516408
0.00214922
0.00818335
0.0112885
0.0125527
0.0131715
0.0133687
0.0130539
0.0124479
0.0117859
0.0111119
0.0104277
0.00976141
0.00913732
0.0085649
0.00804763
0.00758689
0.00718313
0.00683074
0.0065241
0.00626145
0.00603207
0.00581954
0.00561688
0.00542232
0.00523255
0.00504124
0.00484295
0.00462817
0.00439328
0.0041242
0.00382018
0.00346246
0.00304646
0.00255585
0.00197337
0.00128705
0.000455189
-0.163809
-0.166697
-0.156182
-0.137311
-0.115811
-0.0954949
-0.0779729
-0.0616813
-0.0480285
-0.0369282
-0.0255728
-0.0157688
-0.00867525
-0.00183621
0.00424623
0.00761551
0.00917741
0.0103412
0.011093
0.0111935
0.0109241
0.0105473
0.0101112
0.00962021
0.00911126
0.00861759
0.00815288
0.00772323
0.00733427
0.00698656
0.00668002
0.00641282
0.0061751
0.00595702
0.00575472
0.00556584
0.00538527
0.00520679
0.00502407
0.00483173
0.00462208
0.00438947
0.00412461
0.00381927
0.00346592
0.00304652
0.00255525
0.00197575
0.00127231
0.000443518
-0.140778
-0.145556
-0.139264
-0.124887
-0.107196
-0.0900028
-0.0751061
-0.0609613
-0.0488381
-0.0393365
-0.029426
-0.0200534
-0.0129902
-0.00606294
0.000480215
0.00431593
0.00621451
0.00773474
0.00889207
0.00935113
0.00937059
0.00925557
0.00905451
0.00876252
0.00841893
0.00806242
0.00771028
0.00737292
0.00705832
0.00677036
0.00651339
0.00628207
0.0060659
0.00586688
0.00568833
0.00552212
0.00535811
0.00519099
0.00501693
0.0048311
0.00462726
0.00439789
0.00413746
0.00383186
0.00348214
0.00305954
0.00256836
0.0019858
0.00127266
0.000452354
-0.120924
-0.126628
-0.123024
-0.112402
-0.0984843
-0.0841573
-0.0713614
-0.0592322
-0.0485762
-0.0400499
-0.0310457
-0.022265
-0.0156602
-0.0091914
-0.00272008
0.00129649
0.00333553
0.00510149
0.00663379
0.00744585
0.00776212
0.00791197
0.00794789
0.00785667
0.00767983
0.00746217
0.00722603
0.00698462
0.00674858
0.00652573
0.006319
0.00612435
0.00594106
0.00577543
0.00562545
0.00547943
0.00532966
0.00517394
0.00500975
0.00483181
0.00463491
0.00440991
0.00415448
0.00385008
0.00350346
0.00308043
0.00258764
0.00200332
0.00128761
0.000464778
-0.103695
-0.109286
-0.107804
-0.100377
-0.0894874
-0.0777179
-0.0670418
-0.0566553
-0.0471869
-0.0396626
-0.0319367
-0.0242551
-0.0182526
-0.01213
-0.00572465
-0.00153918
0.000671161
0.00264324
0.00447672
0.00559709
0.0061714
0.00655486
0.00680841
0.00690904
0.00689629
0.00681893
0.00670226
0.00656107
0.00640871
0.00625405
0.00610082
0.00595236
0.00581236
0.00568159
0.00555564
0.00542775
0.00529401
0.00515227
0.00499975
0.00483082
0.00464156
0.00442157
0.0041714
0.00386872
0.00352507
0.00310235
0.00260658
0.00202406
0.00130262
0.00046972
-0.0881981
-0.0939728
-0.0939129
-0.0887271
-0.0803275
-0.0707944
-0.0619891
-0.0533255
-0.0453383
-0.0389237
-0.0321616
-0.0253147
-0.0199302
-0.0142959
-0.00815822
-0.00397778
-0.00172211
0.000350783
0.00240137
0.00378289
0.00459217
0.00518966
0.00564665
0.00593233
0.00608144
0.0061444
0.00614849
0.00611011
0.00604392
0.00596045
0.00586744
0.00577163
0.00567487
0.00557609
0.00547486
0.00536892
0.00525466
0.00512883
0.004989
0.00482989
0.00464884
0.00443447
0.00418971
0.00388916
0.00354829
0.00312568
0.00262736
0.00204601
0.00131518
0.000472938
-0.0745487
-0.080229
-0.081006
-0.0775873
-0.0712846
-0.0638147
-0.0568586
-0.0497178
-0.0429044
-0.0373804
-0.0314852
-0.0255719
-0.0209973
-0.0159616
-0.0101769
-0.0060907
-0.00383585
-0.00171366
0.000480659
0.00206651
0.00307288
0.00385443
0.0044922
0.00494869
0.00525123
0.00544961
0.00557232
0.00563657
0.00565786
0.00564916
0.00562023
0.00557747
0.00552327
0.00545923
0.00538744
0.00530665
0.00521337
0.00510446
0.00497834
0.00483004
0.00465798
0.00444998
0.00421091
0.00391311
0.0035748
0.00315259
0.00265188
0.00206952
0.00132965
0.000478244
-0.0629825
-0.0681583
-0.0693931
-0.0673049
-0.0627879
-0.0570278
-0.0514556
-0.0455416
-0.0399048
-0.0353581
-0.0302949
-0.0252329
-0.0214512
-0.0170515
-0.0116939
-0.00779774
-0.00562864
-0.00351815
-0.0012527
0.000476717
0.00164034
0.00257534
0.0033681
0.00397638
0.00441969
0.00474543
0.00498209
0.00514691
0.00525593
0.00532317
0.00535875
0.00536971
0.0053608
0.00533533
0.00529563
0.00524124
0.00516994
0.00507925
0.00496811
0.00483172
0.00466945
0.00446856
0.00423556
0.00394105
0.00360526
0.00318374
0.00268025
0.0020959
0.00134761
0.000484881
-0.0528616
-0.0574632
-0.0589789
-0.0579508
-0.0547139
-0.0501649
-0.0458558
-0.0412252
-0.0366797
-0.0329478
-0.0286086
-0.0243368
-0.0213323
-0.0175975
-0.0127276
-0.00909517
-0.00704992
-0.00502584
-0.00275785
-0.000946931
0.000328643
0.00138198
0.0022998
0.00303663
0.00360436
0.00404623
0.0043894
0.00465036
0.00484482
0.00498673
0.00508671
0.00515293
0.00519145
0.0052062
0.00519982
0.0051731
0.00512518
0.00505407
0.00495907
0.00483558
0.00468385
0.00449076
0.00426422
0.00397343
0.00364021
0.00321939
0.00271289
0.00212594
0.00136863
0.000492351
-0.0436893
-0.047996
-0.0497134
-0.0493259
-0.0470432
-0.043684
-0.0405737
-0.0369342
-0.0332055
-0.0301915
-0.0265461
-0.0230084
-0.020735
-0.0176602
-0.0133048
-0.0099888
-0.00812001
-0.00622594
-0.00401021
-0.00217535
-0.000834127
0.000300941
0.00131259
0.00215231
0.00282492
0.00336849
0.00380774
0.00415766
0.00443281
0.00464669
0.00481015
0.00493177
0.0050181
0.00507366
0.00510173
0.00510399
0.00508063
0.00503014
0.00495225
0.00484253
0.00470204
0.00451738
0.00429766
0.00401096
0.00368039
0.00326015
0.00275052
0.0021601
0.00139271
0.000500954
-0.035872
-0.0398449
-0.0415494
-0.0416154
-0.0401616
-0.0377163
-0.0354125
-0.0325304
-0.0295752
-0.0272424
-0.0242128
-0.0213447
-0.0197537
-0.0172929
-0.0134469
-0.0104967
-0.00886473
-0.00711879
-0.00499395
-0.00318447
-0.00182213
-0.000642174
0.000431265
0.00134639
0.00210171
0.00272977
0.00325199
0.00368116
0.00403018
0.00431159
0.00453581
0.00471127
0.0048447
0.0049411
0.0050042
0.00503623
0.00503816
0.00500902
0.00494898
0.00485375
0.0047251
0.00454939
0.00433684
0.00405448
0.00372664
0.00330681
0.00279379
0.00219893
0.00142026
0.000510959
-0.0292865
-0.0327473
-0.0343428
-0.0347173
-0.0337996
-0.0320145
-0.0304378
-0.028277
-0.025987
-0.0242056
-0.0217035
-0.0194449
-0.0184707
-0.0165761
-0.0132228
-0.010642
-0.00926459
-0.00770032
-0.00570309
-0.00395996
-0.00261594
-0.00142603
-0.000322231
0.000640396
0.00145487
0.00214823
0.00273814
0.00323469
0.0036487
0.00399117
0.00427159
0.00449789
0.00467663
0.00481295
0.00491078
0.00497266
0.00500015
0.00499274
0.004951
0.00487075
0.00475438
0.00458799
0.00438289
0.004105
0.00377993
0.00336024
0.00284345
0.0022432
0.00145174
0.00052253
-0.0233454
-0.0264175
-0.0279066
-0.0284933
-0.0280297
-0.0268495
-0.0258744
-0.0242506
-0.0224747
-0.021152
-0.0191102
-0.0173911
-0.016959
-0.0155662
-0.0126773
-0.0104669
-0.00935183
-0.00798416
-0.00613915
-0.0044945
-0.00320224
-0.00203396
-0.000929328
5.36911e-05
0.000903479
0.00164189
0.00228266
0.00283295
0.00330115
0.00369638
0.0040268
0.00429945
0.0045204
0.00469457
0.00482585
0.00491691
0.00496963
0.00498385
0.00496048
0.00489536
0.00479149
0.00463459
0.0044371
0.00416367
0.00384137
0.00342145
0.00290031
0.00229371
0.00148765
0.000535835
-0.018194
-0.020956
-0.0223269
-0.0230505
-0.0229108
-0.0221738
-0.02164
-0.0204307
-0.0190873
-0.0181536
-0.0165015
-0.0152527
-0.0152947
-0.0143387
-0.0118665
-0.0100144
-0.00916279
-0.00799466
-0.00631355
-0.00478985
-0.00357557
-0.00245547
-0.00137612
-0.000397704
0.000464468
0.0012276
0.00190168
0.00249086
0.003001
0.00343913
0.00381179
0.00412484
0.00438353
0.00459226
0.0047547
0.00487337
0.00495029
0.00498545
0.00498004
0.00492982
0.00483836
0.00469086
0.00450098
0.00423181
0.00391215
0.00349154
0.00296532
0.00235134
0.00152855
0.000551073
-0.0138349
-0.016237
-0.0174335
-0.0182157
-0.0183057
-0.0179252
-0.017754
-0.0168838
-0.015895
-0.0152695
-0.0139369
-0.0130991
-0.0135486
-0.0129632
-0.0108586
-0.00932856
-0.0087208
-0.00775122
-0.00624399
-0.00485608
-0.00373806
-0.00268648
-0.00165399
-0.000701917
0.000151741
0.000920243
0.00161017
0.00222291
0.00276185
0.00323183
0.00363765
0.00398378
0.00427442
0.00451325
0.00470343
0.00484719
0.00494646
0.0050012
0.00501276
0.00497673
0.00489722
0.00475869
0.00457621
0.00431088
0.00399361
0.00357169
0.00303946
0.00241702
0.00157503
0.000568398
-0.00999136
-0.0120896
-0.0131436
-0.0139701
-0.0142339
-0.0141397
-0.0142474
-0.0136309
-0.0129206
-0.0125363
-0.0114648
-0.0109825
-0.0117757
-0.0114919
-0.00970167
-0.0084601
-0.00807388
-0.0072902
-0.00595484
-0.00470905
-0.00369823
-0.00272915
-0.00175983
-0.00085174
-2.45242e-05
0.000731885
0.00142122
0.00204245
0.00259672
0.0030868
0.00351571
0.00388649
0.00420215
0.00446544
0.00467888
0.00484421
0.00496311
0.00503529
0.00506222
0.00503913
0.00497068
0.00484034
0.00466476
0.00440259
0.00408728
0.00366332
0.00312389
0.0024919
0.00162783
0.000588188
-0.00666119
-0.00849867
-0.00942404
-0.0102654
-0.0106393
-0.0107651
-0.0110896
-0.010671
-0.0101843
-0.00998251
-0.00911899
-0.00894053
-0.0100166
-0.00997348
-0.00845039
-0.00746401
-0.00727027
-0.00665148
-0.00547767
-0.00437191
-0.00347133
-0.00259181
-0.00169613
-0.000844862
-5.82765e-05
0.000671297
0.00134537
0.00196101
0.00251746
0.00301569
0.00345707
0.00384321
0.00417591
0.00445695
0.00468806
0.00487037
0.00500516
0.00509179
0.00513168
0.00511957
0.0050607
0.00493722
0.00476774
0.00450767
0.00419375
0.00376674
0.00321877
0.00257604
0.00168675
0.000609236
-0.0037808
-0.00537767
-0.00619128
-0.00703499
-0.00748102
-0.00777991
-0.00826535
-0.00799282
-0.0076822
-0.00761557
-0.0069201
-0.00700305
-0.00830775
-0.00845076
-0.00715108
-0.00638117
-0.00635043
-0.00587222
-0.0048444
-0.00387008
-0.00307597
-0.0022867
-0.00146943
-0.00068292
5.28805e-05
0.000744004
0.00139042
0.0019879
0.0025343
0.00302912
0.00347238
0.00386441
0.00420588
0.00449756
0.00474038
0.00493474
0.00508143
0.00517925
0.00522955
0.00522631
0.00517545
0.00505731
0.00489292
0.00463364
0.00432007
0.00388889
0.00333003
0.0026757
0.00175641
0.00063765
-0.00125177
-0.00264441
-0.00337518
-0.00422099
-0.00472242
-0.00516662
-0.00576666
-0.00559763
-0.0054238
-0.00544665
-0.00488061
-0.00518718
-0.00667137
-0.00695422
-0.00584701
-0.00526752
-0.00536326
-0.0049957
-0.00409315
-0.00323558
-0.00253728
-0.00183187
-0.00109094
-0.000370828
0.000309366
0.000954478
0.00156339
0.00213109
0.0026545
0.00313218
0.00356321
0.00394707
0.00428368
0.00457319
0.00481593
0.00501184
0.00516135
0.00526282
0.0053175
0.00531862
0.0052727
0.0051582
0.00499829
0.00474056
0.00442787
0.00399517
0.00342485
0.00276378
0.00181279
0.000639474
0.000961452
-0.00023408
-0.000886576
-0.00171866
-0.00225431
-0.00283201
-0.00353768
-0.00346539
-0.00341582
-0.00351073
-0.00305942
-0.00355959
-0.00516907
-0.00553754
-0.00458453
-0.00414734
-0.00434439
-0.00405901
-0.00326006
-0.00250214
-0.00188441
-0.00124932
-0.000572555
9.27868e-05
0.000728974
0.00133984
0.00192328
0.00247349
0.0029864
0.00345943
0.00389046
0.00427782
0.00462035
0.00491708
0.00516743
0.00537041
0.00552573
0.00563086
0.00568691
0.0056856
0.00563517
0.00550952
0.0053401
0.00505965
0.00473503
0.00426593
0.00367518
0.0029679
0.00199711
0.000769567
0.00285723
0.00181638
0.00121736
0.000423807
-8.51167e-05
-0.000720112
-0.00145978
-0.00143941
-0.00147862
-0.00161908
-0.00128542
-0.00200317
-0.00376309
-0.00421713
-0.00338723
-0.00315667
-0.00341919
-0.00321458
-0.00251825
-0.00185973
-0.00132968
-0.000781868
-0.000196381
0.000377903
0.000926007
0.00145234
0.00195555
0.00243089
0.00287507
0.00328598
0.00366184
0.00400113
0.00430265
0.00456536
0.00478845
0.00497067
0.00511143
0.00520791
0.00526081
0.00526177
0.00521803
0.00510494
0.00494903
0.00469393
0.00438058
0.00395828
0.00335323
0.00269781
0.00165711
0.000510559
0.00458178
0.00363711
0.00301151
0.0021909
0.00163531
0.000903492
0.000173661
0.000204076
0.000118483
-1.55845e-05
0.000279858
-0.000512068
-0.00223887
-0.00268744
-0.00198531
-0.00166321
-0.00189042
-0.00162454
-0.000931805
-0.000297982
0.000215732
0.000746441
0.00131
0.00186215
0.0023902
0.00289824
0.00338485
0.00384557
0.00427725
0.00467771
0.00504499
0.00537729
0.00567306
0.00593085
0.00614931
0.00632671
0.00646181
0.00655117
0.00659513
0.00658332
0.00652615
0.00638823
0.00621775
0.0059128
0.00559543
0.00508594
0.00448711
0.00373809
0.00260717
0.00108644
0.00627192
0.00547917
0.00484043
0.00399743
0.00337942
0.00247558
0.00163827
0.00158177
0.00138424
0.00115438
0.00121639
8.61668e-05
-0.00183314
-0.0023038
-0.00163026
-0.00164243
-0.00194053
-0.00174672
-0.00112248
-0.000543285
-7.47003e-05
0.000402864
0.000899546
0.00137615
0.00182374
0.00224805
0.00264967
0.00302641
0.00337709
0.00370104
0.00399751
0.00426562
0.00450438
0.00471273
0.00488932
0.00503263
0.00514071
0.00521095
0.00524122
0.00522508
0.0051646
0.00503855
0.00486781
0.00459483
0.00426109
0.00381008
0.00316312
0.00249584
0.001501
0.000402491
0.00762246
0.00701356
0.00650934
0.00582681
0.00528415
0.00443343
0.00373261
0.00366218
0.00341893
0.00331775
0.00345795
0.00234925
0.000553129
5.18743e-05
0.000487755
0.000759619
0.000681218
0.00105733
0.00172596
0.00230011
0.00276044
0.00321854
0.0036827
0.00412159
0.00453013
0.00491429
0.0052752
0.00561168
0.00592328
0.00620988
0.00647109
0.00670637
0.00691469
0.00709532
0.00724605
0.00736644
0.00745158
0.0075029
0.00751007
0.00747749
0.00739154
0.00724499
0.00705743
0.00673631
0.006437
0.00586872
0.00527537
0.00442814
0.0030121
0.00128775
0.00854128
0.00783563
0.00712729
0.0063367
0.00563012
0.00456838
0.00386577
0.00386513
0.00359804
0.00325299
0.0028348
0.00125065
-0.000595053
-0.000893744
-0.000385073
-0.000272174
-0.000310818
9.546e-05
0.000777336
0.00136003
0.00182559
0.00226734
0.00269012
0.00307095
0.00341068
0.00371845
0.00399862
0.00425327
0.0044845
0.00469416
0.00488325
0.00505236
0.00520099
0.00532905
0.00543381
0.0055161
0.00556809
0.00559638
0.00557994
0.0055422
0.00543437
0.00530592
0.00507966
0.00479565
0.00441973
0.00389184
0.0032952
0.00255286
0.00163572
0.000536445
0.0105526
0.0101011
0.00959069
0.00899704
0.00833883
0.00744547
0.00696087
0.00685061
0.00653165
0.00645281
0.00623901
0.00478665
0.00308611
0.00269917
0.00325204
0.00333893
0.00340997
0.0038507
0.00445339
0.00495249
0.00535005
0.00571436
0.00604855
0.00633936
0.0065909
0.00681222
0.00700859
0.00718339
0.00733956
0.00747956
0.00760449
0.00771559
0.00781109
0.00789328
0.00795358
0.00800351
0.00801236
0.00802861
0.00795253
0.00794367
0.00773031
0.00770526
0.00732654
0.00719461
0.0067632
0.00614513
0.00572782
0.00438126
0.00322018
0.0014299
0.0106856
0.010269
0.00972519
0.00907092
0.00831767
0.00736365
0.00688407
0.00669911
0.00609124
0.00534965
0.00430956
0.00256667
0.00129483
0.00144264
0.0022009
0.00268396
0.00305787
0.00363743
0.00424391
0.00468984
0.00501026
0.00527556
0.00549771
0.00567506
0.00581736
0.00593556
0.00603618
0.0061234
0.00620029
0.00626916
0.00633075
0.00638607
0.00643245
0.00647239
0.00649524
0.00651508
0.00649465
0.00649374
0.00639007
0.00638513
0.00612834
0.00615589
0.00565797
0.00567517
0.00492799
0.00460823
0.00402363
0.00288556
0.00244996
0.000923152
0.013173
0.0124846
0.0121262
0.0120835
0.0115093
0.0106841
0.0104803
0.0105778
0.0105869
0.0103357
0.00910762
0.00705479
0.00552373
0.00521792
0.0054365
0.00577355
0.00620619
0.0067117
0.00713842
0.00741033
0.00756765
0.0076615
0.00771316
0.00773406
0.00773676
0.00773158
0.00772451
0.00771899
0.00771653
0.00771829
0.00772224
0.00773018
0.00773292
0.00774299
0.00772446
0.00773979
0.00765048
0.00770999
0.0074308
0.00766898
0.00697015
0.007637
0.00629126
0.00736968
0.00579258
0.00607386
0.00557116
0.00363589
0.00379624
0.001513
-0.106948
-0.12175
-0.138098
-0.153593
-0.169497
-0.184651
-0.200139
-0.210201
-0.225221
-0.227956
-0.0977375
-0.109499
-0.123022
-0.134663
-0.148695
-0.159371
-0.171138
-0.176742
-0.185657
-0.194829
-0.0881373
-0.0973996
-0.108069
-0.117066
-0.127826
-0.136077
-0.14332
-0.150763
-0.159858
-0.17237
-0.0793764
-0.0868587
-0.0949949
-0.102244
-0.109855
-0.117207
-0.123881
-0.133988
-0.142004
-0.1523
-0.0707033
-0.0767911
-0.0827497
-0.0890771
-0.095087
-0.103065
-0.109827
-0.117772
-0.122636
-0.129927
-0.0627015
-0.0677778
-0.0724179
-0.0779837
-0.0829374
-0.0899025
-0.0944007
-0.0990788
-0.103134
-0.110488
-0.0550631
-0.0591729
-0.062945
-0.0673376
-0.0710068
-0.0759395
-0.0791712
-0.0832094
-0.0887189
-0.0953157
-0.0480275
-0.0512871
-0.0543632
-0.0575755
-0.0602555
-0.064234
-0.0676885
-0.0722451
-0.0768183
-0.0810131
-0.0413795
-0.0439677
-0.0465379
-0.0489631
-0.0512965
-0.0551142
-0.0584377
-0.0614887
-0.0641314
-0.0677037
-0.0353338
-0.0374025
-0.0395876
-0.0415043
-0.0434916
-0.0465601
-0.0487637
-0.0506714
-0.0533506
-0.0571419
-0.029764
-0.0314605
-0.0332879
-0.0346129
-0.0360341
-0.0384216
-0.0401706
-0.0422376
-0.0452904
-0.0482633
-0.0246879
-0.026038
-0.0275015
-0.0283795
-0.0295611
-0.0317966
-0.0335379
-0.0354681
-0.0376873
-0.0396744
-0.0200701
-0.0211545
-0.022381
-0.0230255
-0.0241059
-0.0260485
-0.02728
-0.0286183
-0.0304057
-0.0322195
-0.0159399
-0.0168137
-0.0178359
-0.0182221
-0.01905
-0.0205792
-0.0214654
-0.0227942
-0.0246682
-0.0262488
-0.012207
-0.0129028
-0.0137273
-0.0138929
-0.014575
-0.0159339
-0.0167516
-0.0180953
-0.0197055
-0.0207926
-0.00882355
-0.00939617
-0.0100773
-0.0101206
-0.0107359
-0.0119045
-0.0125141
-0.0137017
-0.0150731
-0.0159247
-0.00577421
-0.00626109
-0.0068169
-0.00675718
-0.00728619
-0.00824176
-0.00869703
-0.00987989
-0.0111851
-0.0118728
-0.0030078
-0.00342712
-0.00388428
-0.00377102
-0.00426239
-0.00506843
-0.00544169
-0.00662834
-0.00780431
-0.00828972
-0.000514161
-0.000896694
-0.00128634
-0.00114574
-0.00160551
-0.00226238
-0.0025499
-0.00371929
-0.00478127
-0.00514343
0.00171706
0.00136006
0.00103486
0.00119525
0.000762328
0.000237329
5.18122e-06
-0.00116429
-0.00214007
-0.00242007
0.00372386
0.00338972
0.00312128
0.00327586
0.00285207
0.00244064
0.00224333
0.00108238
0.000202084
-1.52124e-05
0.00552302
0.00520923
0.00499158
0.00512885
0.00471107
0.00439949
0.00421968
0.00307405
0.00228211
0.00209361
0.00712008
0.00682104
0.00665313
0.00677059
0.00636115
0.00614122
0.00596529
0.00483853
0.00412297
0.00392484
0.00858753
0.00828587
0.00814905
0.00821817
0.00781165
0.00768093
0.00750937
0.0064321
0.00581381
0.00560137
0.00995351
0.00967413
0.00957409
0.00957899
0.00916194
0.0090974
0.00891113
0.00790958
0.00741021
0.00719168
0.0110231
0.0107726
0.010727
0.0107052
0.0103356
0.0103523
0.010135
0.00917644
0.00872831
0.00845598
0.0120806
0.0118466
0.0118336
0.0117283
0.0113665
0.0114267
0.0111545
0.0102593
0.00983371
0.00942089
0.01327
0.0130345
0.0130041
0.012816
0.0125286
0.0126499
0.0123987
0.011715
0.0114538
0.011151
0.0135961
0.0134758
0.0134475
0.0132415
0.0130431
0.0131679
0.0128712
0.01223
0.0118671
0.0113325
0.0146778
0.0142623
0.0142361
0.01426
0.0140117
0.0141741
0.0143323
0.0140175
0.0137418
0.0136007
0.0792944
0.0833191
0.0874314
0.0919119
0.0958023
0.0987911
0.10083
0.102027
0.102342
0.101447
0.0990323
0.0940673
0.0879008
0.0780253
0.0624313
0.04138
0.0133527
-0.0232665