/*--------------------------------*- C++ -*----------------------------------*\
| =========                 |                                                 |
| \\      /  F ield         | OpenFOAM: The Open Source CFD Toolbox           |
|  \\    /   O peration     | Version:  2312                                  |
|   \\  /    A nd           | Website:  www.openfoam.com                      |
|    \\/     M anipulation  |                                                 |
\*---------------------------------------------------------------------------*/
FoamFile
{
    version     2.0;
    format      ascii;
    arch        "LSB;label=32;scalar=64";
    class       volVectorField;
    location    "6.5";
    object      U;
}
// * * * * * * * * * * * * * * * * * * * * * * * * * * * * * * * * * * * * * //

dimensions      [0 1 -1 0 0 0 0];

internalField   nonuniform List<vector> 
9200
(
(0.0718818 -0.137277 1.16582e-19)
(-0.112881 0.174841 -2.26287e-19)
(-0.27888 0.316744 1.05976e-19)
(-0.416614 0.360231 1.90424e-19)
(-0.333258 0.248351 -1.72813e-19)
(0.0739223 0.111321 0)
(0.616484 -0.0150869 0)
(1.06409 -0.096864 2.60213e-19)
(1.35284 -0.132889 -9.72e-21)
(1.49806 -0.136729 -2.0768e-19)
(1.52882 -0.129955 -8.49349e-20)
(1.48665 -0.134184 1.52148e-19)
(1.42766 -0.139653 -7.78876e-21)
(1.37045 -0.156729 -1.20509e-19)
(1.34613 -0.172204 0)
(1.33747 -0.182236 1.98929e-19)
(1.33487 -0.189909 -2.77899e-19)
(1.30841 -0.216194 6.83028e-20)
(1.28035 -0.17895 5.39401e-20)
(1.22438 -0.2341 3.58733e-20)
(-0.0192792 -0.0565276 -1.38302e-20)
(-0.209058 0.139149 1.00152e-19)
(-0.394618 0.221951 1.87493e-19)
(-0.356468 0.274207 0)
(-0.0580154 0.190021 0)
(0.573899 0.106194 0)
(1.09847 0.027613 0)
(1.39982 -0.0274385 -1.88671e-19)
(1.51052 -0.051205 2.28293e-19)
(1.50977 -0.0572186 9.35775e-20)
(1.46832 -0.0657269 -8.10353e-20)
(1.43246 -0.0812718 6.56769e-20)
(1.41263 -0.0974499 -5.6681e-20)
(1.41221 -0.111461 -5.09579e-20)
(1.41512 -0.12893 3.01962e-19)
(1.38757 -0.140531 -1.94452e-19)
(1.34484 -0.152545 -2.95156e-20)
(1.30366 -0.160967 -4.99231e-21)
(1.26573 -0.17248 -4.63866e-20)
(1.22151 -0.170372 -3.57897e-20)
(0.0390475 -0.0409341 -1.03029e-19)
(-0.131901 0.152281 -8.18976e-20)
(-0.243136 0.332071 8.75842e-20)
(-0.196731 0.323971 -1.59702e-19)
(0.362602 0.281378 0)
(1.0143 0.235253 0)
(1.40122 0.162191 0)
(1.52777 0.0869863 -6.15612e-20)
(1.52023 0.0373875 0)
(1.49707 0.010252 8.77668e-20)
(1.48258 -0.0144076 -6.71423e-20)
(1.46242 -0.02821 -2.4379e-19)
(1.43809 -0.0447669 2.16735e-19)
(1.40431 -0.0572452 3.98747e-20)
(1.35761 -0.0725954 -8.57026e-20)
(1.30088 -0.0920224 -1.58757e-19)
(1.26207 -0.0937694 3.96527e-20)
(1.23229 -0.110099 2.36214e-19)
(1.22953 -0.118022 -1.19143e-19)
(1.21553 -0.139924 0)
(0.0314696 -0.0687533 8.55201e-20)
(0.086481 0.152096 1.52774e-19)
(-0.138662 0.32326 1.28734e-19)
(0.000474646 0.296932 -2.00255e-19)
(0.797031 0.334283 -1.63369e-20)
(1.338 0.305705 2.59439e-19)
(1.52673 0.221445 -1.19352e-19)
(1.52134 0.138912 4.59895e-20)
(1.48448 0.0859837 0)
(1.46063 0.0559857 -3.39988e-20)
(1.42701 0.0372671 1.89773e-19)
(1.382 0.0154495 -2.11952e-19)
(1.34104 -0.00640958 -8.93358e-20)
(1.31113 -0.0315407 8.39713e-20)
(1.2964 -0.0507081 -1.04498e-19)
(1.29517 -0.0583213 9.34074e-20)
(1.29617 -0.082107 0)
(1.28309 -0.0836665 0)
(1.25764 -0.0808535 2.01089e-20)
(1.21795 -0.0983392 0)
(0.17813 -0.100517 7.39709e-20)
(0.054797 -0.0678164 -1.08292e-19)
(-0.303519 0.0950014 -1.14449e-19)
(0.600081 0.257007 0)
(1.22094 0.31873 -4.92628e-20)
(1.4553 0.299962 -5.75393e-20)
(1.47006 0.232684 1.47791e-19)
(1.44017 0.167155 -1.33377e-19)
(1.4179 0.121171 7.17483e-20)
(1.39679 0.0918873 -3.15249e-20)
(1.37765 0.0648227 0)
(1.36361 0.0422503 7.46223e-20)
(1.35479 0.0265669 4.47201e-20)
(1.35828 0.00993436 7.08558e-20)
(1.35346 -0.00181365 -6.49649e-20)
(1.31819 -0.0141306 -5.19483e-20)
(1.2788 -0.0196871 4.76924e-20)
(1.24514 -0.0364103 -1.84731e-20)
(1.22661 -0.0593888 1.72015e-20)
(1.20458 -0.0612989 5.29264e-20)
(-0.0741803 -0.0709814 1.38918e-19)
(-0.133188 -0.232703 1.23871e-22)
(0.603946 0.11292 0)
(1.15731 0.240122 6.92e-20)
(1.34864 0.289455 -1.58255e-20)
(1.38814 0.272884 -4.97721e-20)
(1.39951 0.224011 2.16785e-21)
(1.39809 0.177044 4.07631e-20)
(1.39081 0.141687 3.10142e-20)
(1.38425 0.113006 -2.70113e-20)
(1.36724 0.0943224 -4.8522e-20)
(1.34426 0.0793855 -6.30479e-20)
(1.32353 0.0577342 9.51418e-20)
(1.29193 0.0425426 7.8501e-20)
(1.25444 0.0164142 -8.526e-20)
(1.23044 0.00338383 4.96189e-20)
(1.21266 -0.00709449 0)
(1.20525 -0.0143016 1.5071e-21)
(1.20837 -0.0260018 -4.03212e-20)
(1.19591 -0.0381694 5.23992e-20)
(-0.200014 -0.149291 -4.1998e-20)
(0.540972 0.0290224 5.97103e-21)
(1.06828 0.17709 -2.69413e-20)
(1.22974 0.238154 -6.88442e-20)
(1.29183 0.261215 6.47858e-20)
(1.34686 0.252318 4.14256e-20)
(1.36304 0.228818 -7.78909e-20)
(1.35861 0.19755 -3.02752e-20)
(1.34964 0.166259 5.70745e-20)
(1.33018 0.141777 7.70685e-20)
(1.30806 0.117211 -1.10488e-19)
(1.28635 0.0948365 3.98351e-20)
(1.26982 0.0765296 -5.07356e-20)
(1.26928 0.0556439 1.46744e-20)
(1.27915 0.0499888 -2.66474e-20)
(1.27753 0.0331955 4.20217e-20)
(1.26303 0.0203597 -2.67773e-21)
(1.23999 0.0155285 -4.96409e-20)
(1.21486 0.00198066 1.41878e-20)
(1.19247 0.00011367 0)
(-0.150289 -0.232099 4.20239e-20)
(1.01476 0.185472 -9.25804e-20)
(1.18196 0.222203 6.02923e-20)
(1.28394 0.232174 1.14434e-20)
(1.33771 0.254212 -6.29022e-20)
(1.3462 0.24815 3.8104e-20)
(1.33879 0.223408 0)
(1.32932 0.198891 0)
(1.32074 0.17273 -2.8053e-20)
(1.31474 0.151233 0)
(1.30546 0.13376 6.04637e-20)
(1.2947 0.122752 -6.98253e-20)
(1.29018 0.107303 6.03708e-20)
(1.28379 0.0948319 -2.68465e-20)
(1.25452 0.0776209 0)
(1.21624 0.0693096 0)
(1.18777 0.0573561 0)
(1.17409 0.0407478 -2.73295e-20)
(1.17511 0.0262996 3.07769e-20)
(1.17028 0.0204688 0)
(-0.0140218 0.197599 1.79474e-20)
(0.97331 0.218739 2.6525e-21)
(1.26116 0.32289 0)
(1.31129 0.273799 -5.39389e-21)
(1.29586 0.26269 1.07522e-20)
(1.29746 0.246624 1.77092e-20)
(1.29611 0.23305 -1.61173e-20)
(1.29263 0.216642 -6.94332e-21)
(1.29094 0.194457 6.65233e-21)
(1.27876 0.175662 0)
(1.25925 0.158637 1.75405e-20)
(1.23754 0.136539 -1.97166e-20)
(1.21116 0.116839 -1.29756e-20)
(1.19078 0.0943226 1.45999e-20)
(1.19766 0.0760737 4.87626e-21)
(1.2065 0.0624154 -8.74042e-21)
(1.20225 0.0540255 0)
(1.19211 0.0499523 0)
(1.1753 0.0423514 -1.58538e-20)
(1.16221 0.0371928 9.36263e-21)
(0.611333 0.302498 0)
(1.31558 0.235895 0)
(1.32922 0.305132 0)
(1.31761 0.251659 -1.6888e-22)
(1.31094 0.262691 2.86056e-23)
(1.30575 0.252419 2.55648e-22)
(1.29115 0.238522 3.81207e-21)
(1.27426 0.222725 -6.67438e-21)
(1.26311 0.203935 1.10818e-20)
(1.25873 0.184164 -4.85139e-21)
(1.2469 0.167905 0)
(1.2359 0.158361 3.67841e-21)
(1.24253 0.146826 0)
(1.25186 0.139131 -2.7167e-21)
(1.23525 0.127837 4.65906e-21)
(1.2053 0.114025 0)
(1.17652 0.101465 0)
(1.15596 0.0850113 0)
(1.14614 0.0725104 0)
(1.13905 0.0654859 -1.89698e-21)
(-0.0772851 0.204695 -5.48714e-21)
(-0.216229 0.202231 0)
(-0.342812 0.203606 0)
(-0.445327 0.206314 -2.05982e-20)
(-0.560501 0.215878 4.03896e-20)
(-0.6736 0.221385 1.19614e-21)
(-0.797739 0.218892 -9.73775e-21)
(-0.918104 0.200169 -2.2536e-20)
(-1.02444 0.152975 5.25321e-22)
(-1.09677 0.0853442 2.0574e-20)
(-1.13249 0.00548039 0)
(-1.13429 -0.0695821 1.97947e-20)
(-1.10212 -0.140285 0)
(-1.03665 -0.203404 -1.41074e-20)
(-0.930959 -0.263077 2.16567e-20)
(-0.780202 -0.315481 0)
(-0.593076 -0.380041 0)
(-0.411582 -0.412231 0)
(-0.264923 -0.309896 0)
(-0.0421584 -0.342975 -2.12234e-21)
(-0.0915064 0.332577 -2.5007e-20)
(-0.225583 0.360069 4.68646e-20)
(-0.307525 0.341442 0)
(-0.404688 0.339281 7.73174e-20)
(-0.517416 0.354539 -6.11064e-20)
(-0.642219 0.367441 -4.6683e-20)
(-0.766861 0.363059 -6.11068e-21)
(-0.869929 0.323744 1.17103e-19)
(-0.945379 0.255538 -6.89125e-20)
(-0.983164 0.156125 0)
(-0.980713 0.0386209 0)
(-0.943248 -0.0897538 -1.9752e-20)
(-0.878031 -0.220412 7.10622e-20)
(-0.770844 -0.35168 -5.1007e-20)
(-0.638622 -0.483806 -6.48727e-20)
(-0.498033 -0.592924 3.96763e-20)
(-0.319714 -0.690019 0)
(-0.187318 -0.666894 0)
(-0.0321635 -0.655059 -2.48184e-21)
(0.161823 -0.649687 -5.02507e-21)
(-0.125318 0.471071 5.88428e-20)
(-0.224692 0.453602 -2.55372e-20)
(-0.277321 0.430729 3.14273e-21)
(-0.374311 0.462756 -7.13921e-20)
(-0.458059 0.49776 1.43916e-19)
(-0.551222 0.519077 -9.03352e-20)
(-0.624746 0.505581 0)
(-0.671103 0.448805 0)
(-0.680044 0.353514 -1.12535e-19)
(-0.656402 0.228401 0)
(-0.594498 0.0788697 -1.063e-19)
(-0.495403 -0.0915053 3.94834e-19)
(-0.386903 -0.275191 -3.51706e-19)
(-0.25989 -0.441682 1.57037e-19)
(-0.0982027 -0.598335 0)
(0.0305804 -0.71157 0)
(0.178266 -0.809575 0)
(0.289003 -0.839679 6.30136e-20)
(0.400482 -0.849697 -4.99631e-20)
(0.508734 -0.804084 0)
(-0.127032 0.509879 -5.87856e-20)
(-0.192641 0.531679 -3.87367e-21)
(-0.246842 0.549152 -5.02036e-20)
(-0.309769 0.576151 5.38683e-20)
(-0.349893 0.598318 -4.49613e-20)
(-0.382724 0.620911 0)
(-0.385273 0.609872 -1.05582e-19)
(-0.357608 0.547388 1.09714e-19)
(-0.299357 0.442171 -3.89242e-22)
(-0.203071 0.302648 -1.26085e-19)
(-0.0792147 0.136444 3.36123e-19)
(0.0512997 -0.0524015 -2.08134e-19)
(0.205516 -0.243492 9.02424e-20)
(0.356284 -0.417065 -2.43538e-19)
(0.514737 -0.592589 -1.25562e-19)
(0.637109 -0.699291 -1.75951e-19)
(0.749111 -0.797649 3.88328e-20)
(0.827638 -0.818672 6.49613e-20)
(0.862077 -0.844145 3.06604e-20)
(0.881697 -0.779541 0)
(-0.161377 0.550673 -2.60957e-19)
(-0.230048 0.58787 2.34155e-19)
(-0.240155 0.603775 0)
(-0.234066 0.620873 -5.70462e-20)
(-0.218825 0.64225 1.4861e-19)
(-0.191733 0.661686 -9.97308e-20)
(-0.138351 0.652883 4.28758e-19)
(-0.0445843 0.598671 -5.40749e-19)
(0.0816375 0.490481 3.20641e-19)
(0.227462 0.346197 -1.12721e-19)
(0.395415 0.171376 2.13715e-19)
(0.572373 -0.0153284 1.03386e-19)
(0.740374 -0.202546 -2.65893e-19)
(0.892568 -0.361617 -2.05982e-19)
(1.00664 -0.520781 6.09856e-19)
(1.09152 -0.628979 -2.06124e-19)
(1.12809 -0.724089 0)
(1.13958 -0.744997 1.7762e-19)
(1.10498 -0.756346 1.86163e-21)
(1.05812 -0.682799 -9.98895e-20)
(-0.1343 0.475118 -1.32087e-19)
(-0.194273 0.57995 -5.81756e-20)
(-0.163379 0.608262 -1.09857e-19)
(-0.140836 0.622436 0)
(-0.100619 0.642671 -1.00712e-19)
(-0.027374 0.659385 3.02305e-19)
(0.0728158 0.63719 -4.86322e-19)
(0.207369 0.576735 9.5526e-20)
(0.371345 0.472201 -1.97832e-19)
(0.549415 0.328966 2.64813e-19)
(0.735585 0.169027 0)
(0.918599 0.000679397 2.41389e-19)
(1.08807 -0.162059 1.35793e-19)
(1.21011 -0.306348 -2.43445e-19)
(1.29099 -0.439099 2.23194e-19)
(1.33185 -0.524852 1.51024e-19)
(1.32564 -0.600915 -1.38655e-19)
(1.29672 -0.61644 -4.67809e-20)
(1.20805 -0.630626 3.15534e-20)
(1.12673 -0.568657 -7.64938e-20)
(-0.144754 0.43695 -1.29432e-19)
(-0.206242 0.568936 2.35354e-19)
(-0.183275 0.596673 -1.44843e-23)
(-0.104673 0.586326 3.0327e-19)
(-0.0240887 0.577244 5.24871e-21)
(0.0656162 0.566008 -3.5185e-19)
(0.180344 0.538213 -7.90752e-21)
(0.334022 0.462338 2.43692e-19)
(0.514632 0.360752 0)
(0.702298 0.228756 -8.42454e-20)
(0.903324 0.0994837 -1.59283e-19)
(1.07152 -0.0464175 5.06822e-19)
(1.22534 -0.17148 -2.54603e-19)
(1.334 -0.295028 -2.18472e-19)
(1.39292 -0.391643 8.42067e-20)
(1.41176 -0.463576 -8.64165e-20)
(1.37898 -0.523982 0)
(1.32546 -0.519342 0)
(1.24893 -0.514265 1.41816e-19)
(1.18616 -0.469193 -1.03543e-19)
(-0.0119254 0.308722 -1.25242e-19)
(-0.146841 0.518122 -1.16836e-19)
(-0.0836313 0.533172 -3.17144e-19)
(-0.0623227 0.495429 1.92123e-19)
(-0.0285424 0.478358 0)
(0.0764239 0.435367 1.5919e-19)
(0.208687 0.374102 -1.44832e-19)
(0.361992 0.283547 -6.49188e-20)
(0.552011 0.187359 0)
(0.770483 0.0772087 1.17957e-19)
(0.976995 -0.0255472 -1.31797e-19)
(1.16647 -0.13166 -4.49082e-21)
(1.32422 -0.216893 2.14309e-21)
(1.4268 -0.297709 -2.5583e-19)
(1.47864 -0.345719 -1.16754e-19)
(1.47187 -0.39644 4.28363e-19)
(1.41471 -0.412602 1.5146e-20)
(1.32711 -0.408191 -2.33412e-19)
(1.25096 -0.422087 6.80571e-20)
(1.2111 -0.37318 0)
(0.0114451 0.0244261 1.35297e-21)
(-0.131146 0.481035 -1.1477e-19)
(-0.181005 0.540853 2.0947e-19)
(-0.140793 0.466435 0)
(0.0037678 0.397956 0)
(0.0571421 0.316887 0)
(0.143528 0.229414 0)
(0.345973 0.131396 3.17493e-19)
(0.636049 0.0243807 -2.30182e-19)
(0.914008 -0.0547295 -1.18108e-19)
(1.16305 -0.122582 1.00772e-19)
(1.36061 -0.177462 1.04757e-19)
(1.48182 -0.217425 -9.4826e-20)
(1.52796 -0.252702 2.30598e-19)
(1.51676 -0.277262 -3.11148e-19)
(1.45454 -0.314731 1.75956e-19)
(1.37999 -0.319726 1.17599e-19)
(1.31797 -0.321979 -4.2178e-19)
(1.26308 -0.343289 1.74523e-19)
(1.22271 -0.29295 -4.24531e-20)
(-0.0147196 -0.0671718 -2.33588e-21)
(-0.097888 0.369755 3.49233e-19)
(-0.110172 0.437517 -3.15058e-19)
(-0.0754624 0.443447 -1.83788e-19)
(-0.194495 0.346048 1.6685e-19)
(-0.134229 0.240114 0)
(0.178319 0.0958911 0)
(0.592109 -0.0290224 -2.5235e-19)
(0.970972 -0.105927 -1.12644e-21)
(1.25518 -0.146812 2.10954e-19)
(1.44993 -0.171979 -1.00917e-19)
(1.53676 -0.180487 -1.71003e-19)
(1.54352 -0.197022 7.00994e-21)
(1.49448 -0.209996 1.37032e-19)
(1.42586 -0.232919 0)
(1.34608 -0.257898 -1.27571e-19)
(1.29249 -0.251689 3.08686e-19)
(1.25896 -0.281775 5.16919e-20)
(1.25102 -0.273975 -1.62809e-19)
(1.23167 -0.279166 4.2567e-20)
(0.136048 -0.276478 1.44117e-21)
(0.305607 -0.210218 -6.33657e-23)
(0.439535 -0.160668 6.36376e-23)
(0.546218 -0.123723 -5.8185e-23)
(0.628363 -0.0972932 0)
(0.687816 -0.080959 1.34935e-21)
(0.731002 -0.0731324 -1.30207e-21)
(0.765153 -0.0701959 9.07025e-22)
(0.795405 -0.0656425 -9.0445e-22)
(0.824489 -0.054031 4.29727e-23)
(0.851154 -0.0353947 0)
(0.873304 -0.0131367 -4.7033e-22)
(0.891613 0.00948421 8.50945e-22)
(0.907325 0.0296002 -7.38709e-22)
(0.920457 0.0457688 6.01638e-22)
(0.931134 0.0579593 -2.70147e-22)
(0.939972 0.0668196 0)
(0.947366 0.0730523 1.79164e-22)
(0.953587 0.0773933 -1.62207e-22)
(0.958913 0.0805045 -1.21388e-22)
(0.963539 0.0827815 1.17208e-22)
(0.967594 0.0844226 -7.75158e-23)
(0.971176 0.0855593 7.60717e-23)
(0.974352 0.0863007 0)
(0.977168 0.0867397 0)
(0.979666 0.0869535 0)
(0.981888 0.0870137 0)
(0.98387 0.0869745 -2.03162e-23)
(0.985644 0.0868777 1.02088e-23)
(0.987232 0.0867643 0)
(0.98866 0.0866614 7.65977e-24)
(0.989952 0.0865827 0)
(0.991124 0.0865552 6.05422e-24)
(0.992186 0.0866183 -1.7844e-23)
(0.99315 0.0867981 -1.05265e-23)
(0.994028 0.0871172 1.51435e-23)
(0.994835 0.0876058 8.99449e-24)
(0.995571 0.0883037 -2.00579e-25)
(0.996252 0.0892222 4.01509e-24)
(0.99687 0.0904607 3.94777e-27)
(0.997461 0.0918625 -1.87264e-25)
(0.997978 0.0939891 -9.16735e-24)
(0.998513 0.095571 0)
(0.998947 0.0996647 0)
(0.999436 0.100044 0)
(0.999829 0.1084 4.3569e-24)
(1.00028 0.105859 -1.57814e-25)
(1.00062 0.118845 3.58903e-24)
(1.00105 0.116345 2.45683e-24)
(1.00142 0.129801 5.10101e-26)
(0.286465 -0.522866 -5.89846e-21)
(0.419608 -0.391561 5.80588e-21)
(0.52193 -0.296584 -7.40395e-21)
(0.605116 -0.225217 3.44756e-22)
(0.675537 -0.169303 1.21441e-20)
(0.73016 -0.128906 -5.48707e-21)
(0.767504 -0.105552 0)
(0.793658 -0.0954366 3.03307e-23)
(0.817879 -0.0884428 0)
(0.844426 -0.0751807 3.80398e-23)
(0.870474 -0.0540677 2.17657e-21)
(0.892323 -0.028592 -2.04034e-21)
(0.909011 -0.00261905 0)
(0.921386 0.0204732 6.59853e-23)
(0.930817 0.0386115 3.69871e-23)
(0.938396 0.0522767 0)
(0.944859 0.0623056 -7.68823e-22)
(0.950541 0.0693722 1.4291e-21)
(0.955653 0.074284 -6.494e-22)
(0.960293 0.0777754 0)
(0.964455 0.0803074 0)
(0.968159 0.0821603 -1.18061e-23)
(0.971474 0.0835314 3.39441e-22)
(0.974456 0.0845417 -2.98344e-23)
(0.977143 0.0852607 -2.59293e-22)
(0.979567 0.0857437 0)
(0.981756 0.0860338 -9.13929e-23)
(0.983728 0.0861803 7.77157e-23)
(0.985508 0.0862315 9.44744e-24)
(0.987119 0.0862224 -1.69734e-23)
(0.988575 0.0862019 7.66702e-24)
(0.989892 0.0862109 1.39562e-23)
(0.991096 0.0862651 6.89002e-23)
(0.992201 0.0863843 -3.05344e-23)
(0.993212 0.0866034 0)
(0.994141 0.0869623 -5.38924e-23)
(0.995004 0.0874901 1.08411e-23)
(0.995803 0.0882179 2.63118e-23)
(0.99655 0.0891568 7.85826e-24)
(0.997238 0.0904136 -7.24257e-24)
(0.997901 0.0918316 0)
(0.998497 0.0939816 1.77595e-23)
(0.99911 0.095573 -1.13232e-23)
(0.999626 0.0996979 9.21379e-24)
(1.00021 0.10007 -4.72415e-25)
(1.00067 0.108456 -3.54811e-24)
(1.00124 0.105909 -5.67608e-24)
(1.00166 0.118883 4.17481e-24)
(1.00217 0.116392 -2.71999e-24)
(1.00268 0.129814 2.03226e-25)
(0.556634 -0.681625 0)
(0.60198 -0.519242 8.02609e-21)
(0.639132 -0.394517 -7.6958e-21)
(0.675462 -0.306796 1.01198e-20)
(0.714141 -0.236262 -9.73072e-21)
(0.753674 -0.176765 -7.57967e-23)
(0.785208 -0.13686 0)
(0.806255 -0.119083 6.46866e-21)
(0.824396 -0.112276 -6.14852e-21)
(0.847174 -0.101388 -1.56703e-22)
(0.873982 -0.0792043 0)
(0.899596 -0.0485718 -1.18345e-22)
(0.919761 -0.0168209 -3.13508e-21)
(0.932928 0.0108356 2.93338e-21)
(0.940872 0.0320123 -2.19108e-21)
(0.946303 0.0475688 3.96993e-21)
(0.950569 0.0587212 -3.43679e-21)
(0.954345 0.0664997 1.58202e-21)
(0.958024 0.0720014 0)
(0.961685 0.0760584 -3.21709e-23)
(0.965234 0.0790961 2.74873e-23)
(0.968605 0.0813396 -2.36082e-23)
(0.971759 0.0829465 -2.04908e-23)
(0.974655 0.0840572 0)
(0.977275 0.0847932 2.36466e-22)
(0.979634 0.0852572 -2.28327e-22)
(0.98176 0.0855379 0)
(0.983689 0.0856872 -1.0584e-23)
(0.985442 0.0857508 1.89728e-23)
(0.987039 0.0857694 3.41514e-23)
(0.988506 0.0857658 -1.54493e-23)
(0.989853 0.0857775 9.52591e-23)
(0.991085 0.0858566 -1.83612e-23)
(0.992219 0.0860218 -1.08436e-22)
(0.993273 0.0862736 -2.16745e-23)
(0.994255 0.0866467 1.00035e-23)
(0.995173 0.0871898 4.46272e-23)
(0.99603 0.087944 -5.28387e-23)
(0.996839 0.0889132 1.34685e-26)
(0.9976 0.0901955 1.45442e-23)
(0.998335 0.0916272 1.33589e-23)
(0.999014 0.0937902 -1.21655e-23)
(0.999706 0.0953793 -4.29599e-23)
(1.0003 0.0995236 1.84582e-24)
(1.00099 0.0998825 9.41613e-24)
(1.00151 0.108295 0)
(1.0022 0.105742 1.70983e-23)
(1.00269 0.118719 -6.66798e-24)
(1.00327 0.116236 -1.64915e-24)
(1.00393 0.129663 -1.5706e-24)
(0.851291 -0.69414 -1.24424e-22)
(0.814424 -0.566258 5.37355e-23)
(0.78626 -0.44182 4.83461e-23)
(0.776737 -0.35152 6.08233e-23)
(0.779666 -0.285778 0)
(0.794117 -0.222768 -8.07113e-23)
(0.813598 -0.167652 0)
(0.829009 -0.136924 -9.80506e-23)
(0.840094 -0.128452 4.94883e-21)
(0.853963 -0.123738 -9.11194e-21)
(0.874505 -0.106411 4.19799e-21)
(0.898701 -0.0741057 -4.89192e-23)
(0.920915 -0.0360635 5.05212e-23)
(0.936866 -0.00210131 8.29163e-23)
(0.946372 0.0240988 -2.26751e-21)
(0.951877 0.0423726 3.76687e-22)
(0.955233 0.0546548 1.7983e-21)
(0.957842 0.0628558 1.30137e-21)
(0.960555 0.068484 -1.29935e-21)
(0.963481 0.0725397 3.26195e-23)
(0.966423 0.0755916 -2.7863e-23)
(0.969279 0.0779678 2.39242e-23)
(0.972027 0.0798666 4.10088e-23)
(0.974651 0.0813802 5.07678e-22)
(0.977119 0.0825595 -5.24365e-22)
(0.97942 0.0834501 -4.18303e-22)
(0.981543 0.0840924 4.03791e-22)
(0.983485 0.0845466 7.96044e-26)
(0.985264 0.084854 2.76897e-22)
(0.986892 0.0850571 -5.87292e-22)
(0.988382 0.0852103 2.5778e-22)
(0.989761 0.0853388 2.20502e-22)
(0.991045 0.0854805 -2.12919e-22)
(0.992227 0.0856939 0)
(0.99332 0.086015 -6.36894e-23)
(0.994351 0.0864595 8.26211e-23)
(0.99533 0.0870445 3.72826e-23)
(0.996256 0.0878133 -1.72218e-23)
(0.997131 0.0887912 -1.59028e-23)
(0.997959 0.0900925 0)
(0.998762 0.091551 -6.56828e-23)
(0.999519 0.0937508 6.27108e-23)
(1.00029 0.0953686 2.20281e-23)
(1.00097 0.0995524 0)
(1.00176 0.0999354 -1.59487e-23)
(1.00234 0.108375 1.54157e-23)
(1.00315 0.105861 -6.37196e-24)
(1.00373 0.118832 -4.89e-24)
(1.00437 0.116388 0)
(1.00519 0.129821 1.56821e-24)
(0.992652 -0.615644 3.18796e-20)
(0.927166 -0.530839 -3.0758e-20)
(0.873338 -0.437142 -1.0682e-22)
(0.844858 -0.357791 0)
(0.832142 -0.305291 0)
(0.832019 -0.25593 8.25848e-23)
(0.841616 -0.200191 0)
(0.852776 -0.15743 -8.79241e-21)
(0.860906 -0.140347 8.53514e-21)
(0.869008 -0.137551 0)
(0.882283 -0.127563 6.12822e-23)
(0.901085 -0.0997909 -6.22212e-21)
(0.92094 -0.0599585 6.20154e-21)
(0.937359 -0.0199373 -5.98494e-24)
(0.948415 0.0133459 -2.16153e-21)
(0.954892 0.0368885 3.8778e-21)
(0.958519 0.0522286 -1.7894e-21)
(0.960703 0.0619525 0)
(0.962655 0.0683231 1.16102e-21)
(0.964881 0.0728238 -1.05539e-21)
(0.967375 0.0761789 0)
(0.97002 0.0787062 7.3259e-22)
(0.97268 0.080577 -7.07182e-22)
(0.975223 0.0819292 2.99796e-25)
(0.977586 0.0828794 0)
(0.979756 0.0835358 0)
(0.981753 0.0839881 -3.99753e-22)
(0.9836 0.0842913 3.83981e-22)
(0.985305 0.0845029 0)
(0.986889 0.0846512 1.74574e-23)
(0.988368 0.0847579 0)
(0.989743 0.0848665 0)
(0.991033 0.0850033 -2.04284e-22)
(0.992251 0.0851815 2.21146e-22)
(0.993395 0.0854498 0)
(0.99447 0.0858706 -1.80063e-22)
(0.995488 0.0864707 1.35273e-22)
(0.996462 0.0872685 1.74193e-23)
(0.997402 0.0882639 6.27999e-23)
(0.998308 0.0895659 -6.06213e-23)
(0.999187 0.0910099 0)
(1.00003 0.0931991 0)
(1.00088 0.0947962 0)
(1.00164 0.0989886 -1.77056e-23)
(1.00252 0.0993499 5.33962e-23)
(1.00317 0.107828 -1.44772e-23)
(1.0041 0.105293 -1.43929e-24)
(1.00475 0.118328 -1.32856e-23)
(1.00546 0.115864 3.34328e-24)
(1.00643 0.129401 0)
(1.0469 -0.531586 1.74543e-20)
(0.985354 -0.489626 6.70099e-20)
(0.93081 -0.432201 -2.57795e-20)
(0.894765 -0.367475 -5.83941e-21)
(0.876606 -0.317882 5.53207e-21)
(0.86746 -0.277381 0)
(0.866558 -0.228351 -5.35422e-21)
(0.871921 -0.180288 5.10429e-21)
(0.877724 -0.154141 6.52848e-21)
(0.882687 -0.148916 -6.25705e-21)
(0.890636 -0.144048 0)
(0.90412 -0.122263 -1.00292e-22)
(0.921121 -0.0835097 0)
(0.93758 -0.0396872 -4.86432e-21)
(0.949879 -0.00203688 8.81166e-21)
(0.957244 0.0259094 -4.04906e-21)
(0.961257 0.0442506 0)
(0.96341 0.0556194 -4.38181e-23)
(0.96504 0.0627196 0)
(0.966731 0.0674864 -1.39319e-24)
(0.968554 0.0710529 0)
(0.970531 0.0739603 0)
(0.972673 0.0764047 1.19349e-21)
(0.974914 0.0784203 -1.75164e-21)
(0.977151 0.0800192 1.02397e-21)
(0.979317 0.0812411 -4.69886e-22)
(0.981364 0.0821575 2.48107e-23)
(0.983269 0.0828478 -3.60613e-22)
(0.985039 0.0833656 3.2664e-22)
(0.986672 0.0837795 2.74095e-22)
(0.988187 0.0841262 -1.5691e-23)
(0.989611 0.0844278 -2.39732e-22)
(0.990945 0.0847348 2.07414e-22)
(0.992194 0.085072 -2.24381e-22)
(0.993384 0.0854594 0)
(0.99453 0.0859433 -1.41347e-22)
(0.995627 0.0865715 2.57005e-23)
(0.996669 0.0873954 1.44326e-22)
(0.997667 0.0884282 0)
(0.998634 0.0897791 3.0005e-23)
(0.99958 0.0912705 -5.34175e-23)
(1.0005 0.0935079 5.15133e-23)
(1.00143 0.0951415 0)
(1.00228 0.0993656 -1.99033e-23)
(1.00327 0.0997683 -4.97463e-23)
(1.004 0.108234 3.24711e-23)
(1.00503 0.105783 2.45329e-23)
(1.0058 0.11875 0)
(1.00656 0.116355 0)
(1.00771 0.12985 3.14277e-24)
(1.10922 -0.452445 -4.9561e-20)
(1.06085 -0.429071 4.78718e-20)
(1.01852 -0.402383 0)
(0.971848 -0.364055 -6.17969e-23)
(0.937665 -0.324564 -9.95965e-23)
(0.914739 -0.291871 0)
(0.900761 -0.251416 0)
(0.896436 -0.202554 -5.42321e-24)
(0.897721 -0.167585 -2.14603e-23)
(0.89988 -0.157778 -4.8336e-21)
(0.903147 -0.15762 4.59508e-21)
(0.910529 -0.144142 0)
(0.922178 -0.109742 0)
(0.935434 -0.0635821 -6.70033e-23)
(0.947835 -0.0187566 6.2041e-23)
(0.957149 0.0174968 0)
(0.962572 0.0416388 -3.13938e-21)
(0.965354 0.0562512 3.07061e-21)
(0.966986 0.0648339 2.30487e-21)
(0.968497 0.0700672 -2.32421e-21)
(0.970198 0.0735369 0)
(0.972088 0.0760359 1.49715e-21)
(0.974086 0.0779514 -1.44208e-21)
(0.976093 0.0794663 1.0947e-21)
(0.978053 0.080668 -6.72249e-23)
(0.979947 0.0815998 -9.83051e-22)
(0.981775 0.0822933 -7.73013e-22)
(0.983526 0.0827945 7.67195e-22)
(0.985188 0.0831458 0)
(0.986767 0.0833857 0)
(0.988254 0.0835819 0)
(0.989656 0.0837637 -2.94881e-23)
(0.990994 0.083962 0)
(0.992267 0.0842097 1.93976e-22)
(0.993477 0.0845407 -3.4275e-22)
(0.99464 0.0849851 1.93161e-22)
(0.995768 0.0855727 -3.88131e-23)
(0.996867 0.0863533 -1.79067e-23)
(0.997936 0.0873449 -1.45736e-22)
(0.998981 0.0886633 9.40745e-23)
(1 0.0901279 0)
(1.001 0.092356 -2.53409e-23)
(1.00201 0.0939746 -2.27703e-23)
(1.00294 0.0982244 0)
(1.00401 0.0986074 0)
(1.00482 0.107165 0)
(1.00595 0.104663 -1.04035e-23)
(1.00682 0.117818 1.15682e-23)
(1.00763 0.115353 6.83632e-24)
(1.00897 0.129078 -3.13322e-24)
(1.14912 -0.405777 5.61612e-20)
(1.10249 -0.395221 -5.41994e-20)
(1.07266 -0.37021 3.25087e-20)
(1.03344 -0.342696 -3.12604e-20)
(0.994457 -0.310724 1.04141e-22)
(0.961762 -0.287374 0)
(0.93606 -0.263339 -5.34413e-23)
(0.922374 -0.224039 -1.6694e-23)
(0.918296 -0.184057 1.83528e-21)
(0.916761 -0.165649 -1.78553e-21)
(0.916013 -0.165364 3.79407e-21)
(0.918528 -0.159781 4.91482e-22)
(0.925835 -0.13355 -3.93821e-21)
(0.93676 -0.0903814 6.97351e-23)
(0.948624 -0.0435078 -6.45309e-23)
(0.957842 -0.00391106 -3.48091e-21)
(0.963335 0.0255091 6.37358e-21)
(0.96645 0.0445163 -2.51927e-22)
(0.968132 0.0558517 -2.52353e-21)
(0.969245 0.0627189 1.98472e-21)
(0.970327 0.067374 -1.94244e-21)
(0.971681 0.0709629 0)
(0.973392 0.0738999 -1.28195e-21)
(0.975344 0.0762956 2.43471e-21)
(0.97737 0.0781811 -1.14781e-21)
(0.979363 0.0796195 9.22994e-22)
(0.981275 0.0807031 -8.60352e-22)
(0.983089 0.0815162 7.04851e-22)
(0.984804 0.0821541 -6.58133e-22)
(0.986423 0.0826622 -5.69371e-22)
(0.987959 0.083092 5.31435e-22)
(0.989418 0.0834997 -1.89955e-22)
(0.990803 0.0839012 1.98844e-22)
(0.992121 0.0843134 0)
(0.993392 0.0847866 -2.32868e-23)
(0.994628 0.0853642 -2.14497e-23)
(0.995827 0.0860726 1.74798e-22)
(0.996989 0.0869518 -1.67385e-22)
(0.998119 0.0880109 -1.14751e-22)
(0.999233 0.0893743 1.41995e-22)
(1.00033 0.0908603 0)
(1.00141 0.0931077 1.24942e-22)
(1.00251 0.0947287 -1.16842e-22)
(1.00353 0.0989782 3.74581e-24)
(1.00471 0.0993827 3.7372e-23)
(1.00561 0.107869 0)
(1.00685 0.105473 -1.05095e-23)
(1.00783 0.118457 1.02176e-23)
(1.0087 0.11611 5.4432e-24)
(1.01022 0.129685 0)
(1.16724 -0.327566 6.00896e-20)
(1.12864 -0.337648 -5.7805e-20)
(1.09534 -0.335288 -3.83645e-20)
(1.05978 -0.324908 6.57898e-20)
(1.02456 -0.295721 -4.72017e-20)
(0.994485 -0.268671 1.90465e-20)
(0.9686 -0.252266 5.62899e-23)
(0.951086 -0.226235 2.35342e-23)
(0.943767 -0.186448 -1.81983e-24)
(0.938934 -0.158078 5.21223e-24)
(0.933318 -0.154794 -2.13607e-23)
(0.929886 -0.158431 2.71383e-23)
(0.930427 -0.144959 -3.63847e-21)
(0.935535 -0.108948 3.49694e-21)
(0.944965 -0.0610861 0)
(0.956106 -0.0152428 3.12832e-23)
(0.964654 0.0208197 -2.7033e-23)
(0.969322 0.0440917 0)
(0.971827 0.0576998 2.34019e-21)
(0.973293 0.0652172 -2.21745e-21)
(0.974246 0.0694599 -2.86667e-23)
(0.975043 0.0722011 -1.53986e-21)
(0.975974 0.0743416 1.48109e-21)
(0.977156 0.0761935 1.9749e-23)
(0.978563 0.0777996 1.05014e-21)
(0.980121 0.0791343 -9.93654e-22)
(0.981758 0.0801876 0)
(0.983411 0.0809923 0)
(0.985032 0.0815804 6.24408e-22)
(0.9866 0.0820302 -6.29669e-22)
(0.988106 0.0823672 1.09216e-25)
(0.989548 0.0826546 -1.54597e-23)
(0.99093 0.0829356 -3.98627e-22)
(0.992258 0.0832473 4.36537e-22)
(0.993543 0.0836336 1.86687e-22)
(0.994797 0.0841239 -1.79327e-22)
(0.996025 0.0847493 0)
(0.997235 0.0855655 -1.27603e-22)
(0.998424 0.0865893 1.40415e-22)
(0.999604 0.0879434 3.81896e-26)
(1.00077 0.0894347 -1.12249e-22)
(1.00193 0.0917034 9.46376e-23)
(1.0031 0.093345 0)
(1.00421 0.097646 0)
(1.00547 0.0980704 3.38175e-23)
(1.00647 0.106681 -3.24388e-23)
(1.00778 0.104266 -1.0715e-23)
(1.00892 0.117509 1.4957e-24)
(1.00979 0.115102 -2.66886e-24)
(1.01153 0.128982 0)
(1.18963 -0.298712 -1.3568e-22)
(1.16502 -0.291319 0)
(1.13135 -0.297311 4.61703e-20)
(1.09475 -0.309008 -8.11163e-20)
(1.05918 -0.300519 3.51257e-20)
(1.02769 -0.280722 -7.79856e-23)
(1.00088 -0.271193 0)
(0.979659 -0.262119 0)
(0.968039 -0.231949 0)
(0.959422 -0.195758 -5.52995e-24)
(0.94948 -0.180988 -2.10692e-22)
(0.943115 -0.182778 2.02632e-22)
(0.94196 -0.175758 -2.26155e-21)
(0.94416 -0.146296 2.17995e-21)
(0.94962 -0.0990773 0)
(0.957528 -0.0478046 2.6255e-23)
(0.964501 -0.00487311 2.86818e-21)
(0.968629 0.0264961 -5.40926e-21)
(0.970678 0.0461759 1.74535e-22)
(0.971724 0.0577807 4.33663e-21)
(0.9726 0.0647634 -1.965e-21)
(0.973656 0.0692649 -1.59214e-21)
(0.97497 0.072462 1.52951e-21)
(0.976468 0.0749143 2.00022e-23)
(0.978054 0.0768554 -1.75281e-23)
(0.979676 0.0783932 9.45617e-22)
(0.981313 0.0795914 -9.07963e-22)
(0.982947 0.0805074 0)
(0.984562 0.0811977 6.67e-22)
(0.986138 0.0817266 -1.2311e-21)
(0.987668 0.0821343 5.93865e-22)
(0.989156 0.0825024 0)
(0.99059 0.0828645 -1.44969e-23)
(0.991975 0.0832484 -1.32906e-23)
(0.993325 0.0837071 -3.82523e-22)
(0.994651 0.0842809 3.66791e-22)
(0.995951 0.0849901 0)
(0.997232 0.0858724 1.49369e-22)
(0.998492 0.0869302 -1.43151e-22)
(0.999748 0.0882999 -1.41647e-22)
(1.00099 0.0897767 1.20302e-22)
(1.00224 0.0920458 1.32896e-23)
(1.0035 0.0936429 0)
(1.00471 0.0979484 0)
(1.00607 0.0983184 3.42367e-23)
(1.00719 0.106904 -3.27659e-23)
(1.00859 0.104485 0)
(1.00988 0.117642 0)
(1.01079 0.115273 -4.61522e-24)
(1.01276 0.129036 1.76596e-24)
(1.18917 -0.236312 0)
(1.17843 -0.238678 0)
(1.15278 -0.2265 0)
(1.12291 -0.224686 0)
(1.08977 -0.22613 0)
(1.05899 -0.212874 0)
(1.03639 -0.200497 0)
(1.01561 -0.202974 0)
(1.00133 -0.194031 0)
(0.992318 -0.161389 0)
(0.979537 -0.138956 0)
(0.967248 -0.14484 0)
(0.96192 -0.154723 0)
(0.961683 -0.143611 0)
(0.964013 -0.109187 0)
(0.968434 -0.0621978 0)
(0.973553 -0.0163437 0)
(0.976393 0.0191291 0)
(0.976575 0.0421582 0)
(0.976045 0.0552495 0)
(0.975652 0.0623647 0)
(0.975759 0.0666069 0)
(0.976443 0.0696748 0)
(0.977546 0.0722164 0)
(0.978873 0.0743837 0)
(0.980307 0.0761836 0)
(0.9818 0.077638 0)
(0.983324 0.078797 0)
(0.984854 0.0797081 0)
(0.986369 0.0804334 0)
(0.987863 0.081031 0)
(0.989328 0.0815422 0)
(0.990752 0.0820203 0)
(0.99214 0.0825004 0)
(0.993504 0.0830088 0)
(0.994847 0.0835847 0)
(0.996172 0.0842699 0)
(0.997488 0.0851258 0)
(0.998795 0.0861688 0)
(1.00011 0.0875372 0)
(1.00141 0.0890284 0)
(1.00273 0.0913151 0)
(1.00406 0.0929549 0)
(1.00536 0.0972864 0)
(1.00679 0.0977408 0)
(1.00801 0.106365 0)
(1.00947 0.104074 0)
(1.01091 0.117308 0)
(1.01181 0.115104 0)
(1.01398 0.129001 0)
(1.17354 -0.202797 0)
(1.16489 -0.207664 0)
(1.13571 -0.218431 0)
(1.10638 -0.235114 0)
(1.07672 -0.230913 0)
(1.04778 -0.221354 0)
(1.02669 -0.225507 0)
(1.00832 -0.226429 0)
(0.992718 -0.206046 0)
(0.979066 -0.174959 0)
(0.966024 -0.161691 0)
(0.959082 -0.1703 0)
(0.95854 -0.173734 0)
(0.961149 -0.151597 0)