/*--------------------------------*- C++ -*----------------------------------*\
| =========                 |                                                 |
| \\      /  F ield         | OpenFOAM: The Open Source CFD Toolbox           |
|  \\    /   O peration     | Version:  2312                                  |
|   \\  /    A nd           | Website:  www.openfoam.com                      |
|    \\/     M anipulation  |                                                 |
\*---------------------------------------------------------------------------*/
FoamFile
{
    version     2.0;
    format      ascii;
    arch        "LSB;label=32;scalar=64";
    class       surfaceScalarField;
    location    "68.5";
    object      phi;
}
// * * * * * * * * * * * * * * * * * * * * * * * * * * * * * * * * * * * * * //

dimensions      [0 3 -1 0 0 0 0];

oriented        oriented;

internalField   nonuniform List<scalar> 
64047
(
-0.000130168
0.000650112
-0.000519944
-0.000372513
0.00163779
-0.00139545
-0.000620018
0.00236606
-0.00211856
-0.000785806
0.00284679
-0.002681
-0.000794278
0.0030798
-0.00307132
-0.000575486
0.00305182
-0.00327061
-6.05193e-05
0.00273683
-0.00325179
0.000820595
0.00209963
-0.00298075
0.00214258
0.00109766
-0.00241965
0.00398227
-0.000312138
-0.00152755
0.00641403
-0.00216963
-0.000262128
0.00950967
-0.00450439
0.00140875
0.0133209
-0.00733204
0.00352084
0.0178744
-0.0106458
0.00609227
0.02316
-0.0144127
0.00912715
0.029122
-0.0185712
0.0126092
0.0356556
-0.0230321
0.0164985
0.0426091
-0.0276839
0.0207304
0.0497919
-0.0324003
0.0252175
0.0569895
-0.0370514
0.0298537
0.0639823
-0.0415147
0.034522
0.0705662
-0.045687
0.039103
0.0765738
-0.0494927
0.0434851
0.0818898
-0.0528905
0.0475745
0.0864613
-0.0558746
0.0513031
0.0902976
-0.0584714
0.0546351
0.0934617
-0.0607323
0.0575682
0.0960531
-0.0627224
0.060131
0.0981867
-0.0645098
0.0623761
0.0999747
-0.0661542
0.0643662
0.101507
-0.0677056
0.0661731
0.10286
-0.0691899
0.0678376
0.10406
-0.0706477
0.0694476
0.105155
-0.0720245
0.0709291
0.106075
-0.0734867
0.0725673
0.106665
-0.0745231
0.0739331
-0.0761638
0.0760175
0.106811
-0.000113884
0.000763996
-0.000316187
0.0018401
-0.000499129
0.00254901
-0.00056971
0.00291737
-0.00044245
0.00295254
-3.47431e-05
0.00264411
0.000735993
0.00196609
0.00195473
0.000880895
0.003706
-0.000653612
0.00607084
-0.00267697
0.0091191
-0.0052179
0.0129004
-0.00828573
0.0174314
-0.011863
0.0226857
-0.0159001
0.0285866
-0.0203137
0.0350055
-0.0249901
0.0417674
-0.029794
0.0486638
-0.0345803
0.0554721
-0.0392086
0.0619777
-0.0435569
0.0679962
-0.0475332
0.0733921
-0.0510829
0.0780906
-0.0541913
0.0820805
-0.0568804
0.0854067
-0.0592008
0.0881555
-0.0612202
0.0904348
-0.0630116
0.0923542
-0.0646419
0.0940104
-0.066166
0.0954788
-0.0676225
0.0968109
-0.0690377
0.0980416
-0.0704207
0.0991793
-0.0717854
0.100257
-0.0731025
0.101208
-0.0744378
0.102266
-0.0755804
-0.077116
0.103218
-8.68375e-05
0.000850834
-0.000222182
0.00197544
-0.000299752
0.00262658
-0.000221686
0.0028393
0.000106102
0.00262475
0.000776966
0.00197324
0.00188476
0.000858297
0.00352209
-0.000756432
0.00577599
-0.00290752
0.00871982
-0.0056208
0.0124021
-0.00890022
0.0168342
-0.0127178
0.0219785
-0.0170073
0.0277417
-0.0216633
0.0339752
-0.0265472
0.0404849
-0.0314998
0.0470486
-0.0363576
0.0534399
-0.0409716
0.0594533
-0.0452221
0.0649271
-0.0490308
0.0697589
-0.052365
0.0739117
-0.0552356
0.0774093
-0.0576889
0.0803232
-0.0597943
0.0827528
-0.0616303
0.0848052
-0.0632727
0.0865794
-0.0647857
0.0881553
-0.0662178
0.0895913
-0.0676019
0.0909262
-0.0689575
0.0921841
-0.0702957
0.0933791
-0.0716156
0.0945223
-0.0729286
0.0956183
-0.0741985
0.0966837
-0.0755032
0.0977334
-0.0766302
-0.078068
0.0986854
-5.44078e-05
0.000905242
-0.000106165
0.0020272
-5.0739e-05
0.00257115
0.000213513
0.00257505
0.000788011
0.00205025
0.00177435
0.000986903
0.00327288
-0.000640234
0.00537779
-0.00286134
0.00816834
-0.00569806
0.0116965
-0.00914894
0.0159726
-0.0131764
0.020953
-0.0176981
0.0265323
-0.0225866
0.0325463
-0.0276773
0.038785
-0.032786
0.0450159
-0.0377307
0.0510115
-0.0423533
0.0565776
-0.0465376
0.0615745
-0.050219
0.0659293
-0.0533856
0.0696355
-0.0560712
0.0727423
-0.0583423
0.0753357
-0.0602824
0.0775184
-0.061977
0.0793909
-0.0635028
0.0810392
-0.0649211
0.0825296
-0.0662761
0.0839088
-0.0675969
0.0852072
-0.0689004
0.0864448
-0.0701951
0.0876333
-0.0714841
0.088784
-0.0727664
0.089899
-0.0740435
0.090999
-0.0752986
0.0920722
-0.0765764
0.0931748
-0.0777328
-0.0791731
0.0942799
-2.13714e-05
0.000926613
1.76565e-05
0.00198817
0.000221148
0.00236766
0.000695137
0.00210106
0.00154677
0.00119862
0.0028832
-0.000349528
0.00480633
-0.00256337
0.00740348
-0.00545849
0.0107336
-0.00902819
0.014811
-0.0132263
0.0195904
-0.0179557
0.0249589
-0.0230667
0.03074
-0.0283677
0.0367104
-0.0336477
0.0426284
-0.0387039
0.0482658
-0.0433681
0.0534382
-0.0475257
0.0580253
-0.0511246
0.061978
-0.0541717
0.065313
-0.0567206
0.0680964
-0.0588547
0.0704229
-0.0606688
0.0723946
-0.0622541
0.0741056
-0.0636879
0.0756325
-0.0650298
0.0770328
-0.0663213
0.0783456
-0.067589
0.0795967
-0.068848
0.0808021
-0.0701058
0.0819717
-0.0713647
0.0831125
-0.0726249
0.0842299
-0.0738838
0.0853292
-0.0751428
0.0864199
-0.0763893
0.0874989
-0.0776555
0.0886049
-0.0788387
-0.0802364
0.0896681
9.56567e-06
0.000917047
0.000140452
0.00185729
0.000500044
0.00200807
0.00119879
0.00140232
0.00234868
4.87352e-05
0.00405931
-0.00206016
0.00642697
-0.00493103
0.00952052
-0.00855205
0.0133624
-0.01287
0.0179108
-0.0177748
0.0230501
-0.023095
0.0285947
-0.0286113
0.0343101
-0.034083
0.0399454
-0.039283
0.0452709
-0.0440294
0.0501092
-0.0482064
0.0543549
-0.0517714
0.0579773
-0.054747
0.06101
-0.0572044
0.0635307
-0.0592414
0.0656388
-0.0609627
0.0674345
-0.0624646
0.0690064
-0.063826
0.0704241
-0.0651055
0.0717377
-0.0663434
0.0729808
-0.0675644
0.0741746
-0.0687827
0.0753315
-0.0700049
0.0764592
-0.0712334
0.0775627
-0.0724682
0.0786459
-0.0737081
0.0797136
-0.0749515
0.0807693
-0.0761985
0.0818223
-0.0774422
0.0828709
-0.0787041
0.0839424
-0.0799103
-0.0812944
0.0850005
3.82148e-05
0.000878832
0.000261342
0.00163416
0.000782781
0.00148663
0.00171861
0.000466495
0.00318452
-0.00141718
0.00528602
-0.00416165
0.00810396
-0.00774897
0.0116728
-0.0121209
0.0159597
-0.017157
0.0208514
-0.0226665
0.0261576
-0.0284013
0.0316343
-0.0340879
0.0370211
-0.0394699
0.0420839
-0.0443459
0.0466485
-0.0485939
0.0506186
-0.0521765
0.053976
-0.0551288
0.0567658
-0.0575368
0.0590729
-0.0595115
0.0609991
-0.0611675
0.0626429
-0.0626065
0.0640883
-0.06391
0.0653997
-0.0651374
0.0666226
-0.0663284
0.0677866
-0.0675073
0.0689098
-0.0686877
0.070003
-0.0698759
0.0710724
-0.0710744
0.0721223
-0.0722834
0.0731561
-0.073502
0.0741773
-0.0747293
0.0751896
-0.0759638
0.0761968
-0.0772057
0.0772058
-0.0784512
0.0782147
-0.079713
0.0792462
-0.0809417
-0.0823105
0.0802623
6.63467e-05
0.000812486
0.000384365
0.00131614
0.00107575
0.000795239
0.00226204
-0.000719791
0.00405823
-0.00321337
0.00655791
-0.00666134
0.0098112
-0.0110023
0.0137998
-0.0161095
0.0184195
-0.0217766
0.0234805
-0.0277274
0.0287315
-0.0336523
0.0339022
-0.0392586
0.0387501
-0.0443178
0.0430985
-0.0486942
0.0468541
-0.0523496
0.0500052
-0.0553276
0.0526033
-0.0577269
0.054738
-0.0596715
0.0565124
-0.0612859
0.0580241
-0.0626791
0.0593543
-0.0639367
0.0605643
-0.0651201
0.0616966
-0.0662697
0.0627781
-0.06741
0.0638253
-0.0685545
0.0648474
-0.0697098
0.0658499
-0.0708784
0.0668361
-0.0720606
0.0678086
-0.0732558
0.0687699
-0.0744632
0.0697225
-0.0756819
0.0706699
-0.0769112
0.0716152
-0.078151
0.0725637
-0.0793997
0.0735153
-0.0806647
0.0744872
-0.0819137
-0.0832728
0.0754496
9.64081e-05
0.000716078
0.000515811
0.000896737
0.00138833
-7.72844e-05
0.00283845
-0.0021699
0.00497362
-0.00534854
0.00786251
-0.00955023
0.0115072
-0.014647
0.0158202
-0.0204225
0.0206191
-0.0265755
0.0256493
-0.0327577
0.0306297
-0.0386327
0.0353054
-0.0439342
0.0394903
-0.0485027
0.0430872
-0.0522912
0.0460846
-0.055347
0.0485364
-0.0577794
0.0505346
-0.0597251
0.0521833
-0.0613202
0.0535801
-0.0626827
0.0548053
-0.0639043
0.0559184
-0.0650499
0.0569602
-0.0661619
0.0579564
-0.0672659
0.0589222
-0.0683758
0.0598661
-0.0694984
0.060793
-0.0706366
0.0617055
-0.0717909
0.062606
-0.072961
0.0634963
-0.0741461
0.0643787
-0.0753457
0.0652559
-0.0765591
0.0661309
-0.0777862
0.0670067
-0.0790269
0.0678878
-0.0802807
0.0687745
-0.0815514
0.0696794
-0.0828186
-0.0841712
0.0705778
0.000130509
0.000585568
0.000660826
0.00036642
0.00172706
-0.00114352
0.00345112
-0.00389396
0.00592238
-0.0078198
0.00916881
-0.0127967
0.013128
-0.0186062
0.0176342
-0.0249287
0.0224356
-0.0313769
0.0272409
-0.037563
0.0317784
-0.0431702
0.0358459
-0.0480017
0.0393343
-0.0519911
0.0422258
-0.0551827
0.0445723
-0.0576935
0.0464661
-0.0596733
0.0480127
-0.0612716
0.0493104
-0.0626179
0.0504399
-0.0638122
0.0514608
-0.0649252
0.0524134
-0.0660025
0.0533231
-0.0670716
0.0542047
-0.0681474
0.0550663
-0.0692374
0.0559124
-0.0703446
0.0567457
-0.0714699
0.0575679
-0.0726132
0.0583808
-0.0737739
0.0591861
-0.0749514
0.0599858
-0.0761454
0.0607825
-0.0773557
0.0615786
-0.0785823
0.0623772
-0.0798254
0.0631812
-0.0810848
0.0639918
-0.082362
0.0648182
-0.083645
-0.0849932
0.0656403
0.000169805
0.000415763
0.000821572
-0.000285347
0.00209228
-0.00241423
0.00409264
-0.00589432
0.00688038
-0.0106075
0.0104267
-0.016343
0.0145936
-0.0227731
0.0191412
-0.0294763
0.0237716
-0.0360073
0.0281937
-0.041985
0.0321813
-0.0471579
0.0356054
-0.0514258
0.0384345
-0.0548202
0.0407138
-0.057462
0.0425337
-0.0595134
0.0440003
-0.0611399
0.045214
-0.0624853
0.0462574
-0.0636613
0.0471914
-0.0647462
0.0480572
-0.065791
0.0488807
-0.0668259
0.0496766
-0.0678676
0.0504534
-0.0689242
0.0512154
-0.0699994
0.0519651
-0.0710943
0.0527041
-0.0722089
0.053434
-0.073343
0.0541561
-0.074496
0.0548722
-0.0756675
0.0555843
-0.0768575
0.0562946
-0.078066
0.0570057
-0.0792934
0.05772
-0.0805398
0.0584402
-0.081805
0.0591675
-0.0830892
0.0599081
-0.0843856
-0.0857316
0.0606465
0.000214411
0.000201351
0.000996845
-0.00106778
0.00247767
-0.00389505
0.00474506
-0.00816172
0.00781026
-0.0136727
0.0115747
-0.0201075
0.0158235
-0.0270218
0.0202601
-0.0339129
0.0245739
-0.0403211
0.0285086
-0.0459198
0.031906
-0.0505552
0.0347125
-0.0542323
0.0369608
-0.0570684
0.0387361
-0.0592373
0.0401448
-0.0609221
0.0412898
-0.0622849
0.042257
-0.0634525
0.04311
-0.0645143
0.0438921
-0.0655284
0.0446305
-0.0665293
0.0453407
-0.0675361
0.0460314
-0.0685583
0.0467072
-0.0696
0.0473707
-0.0706629
0.0480234
-0.071747
0.0486667
-0.0728523
0.0493019
-0.0739782
0.0499305
-0.0751245
0.050554
-0.076291
0.0511744
-0.0774779
0.0517938
-0.0786855
0.0524146
-0.0799141
0.0530387
-0.0811639
0.0536683
-0.0824346
0.0543044
-0.0837253
0.0549514
-0.0850326
-0.0863776
0.0555974
0.000263618
-6.2267e-05
0.00118272
-0.00198688
0.00287159
-0.00558392
0.00538289
-0.010673
0.00866754
-0.0169574
0.0125509
-0.0239909
0.0167515
-0.0312224
0.0209441
-0.0381054
0.0248386
-0.0442156
0.0282383
-0.0493195
0.0310581
-0.053375
0.0333101
-0.0564844
0.0350705
-0.0588288
0.036444
-0.0606108
0.0375366
-0.0620146
0.0384382
-0.0631866
0.0392169
-0.0642312
0.0399193
-0.0652167
0.0405746
-0.0661837
0.0411999
-0.0671546
0.0418044
-0.0681407
0.0423933
-0.0691472
0.0429693
-0.070176
0.0435339
-0.0712275
0.0440885
-0.0723016
0.0446342
-0.073398
0.0451723
-0.0745163
0.0457043
-0.0756564
0.0462317
-0.0768184
0.0467564
-0.0780026
0.0472804
-0.0792095
0.0478057
-0.0804394
0.0483341
-0.0816924
0.0488673
-0.0829678
0.0494062
-0.0842642
0.0499536
-0.08558
-0.086925
0.0505011
0.000316143
-0.00037841
0.00137338
-0.00304412
0.00325899
-0.00746953
0.00597694
-0.013391
0.00940772
-0.0203882
0.0133034
-0.0278865
0.0173365
-0.0352556
0.0211843
-0.0419532
0.0246036
-0.0476349
0.0274669
-0.0521828
0.0297564
-0.0556645
0.0315323
-0.0582603
0.032895
-0.0601915
0.0339526
-0.0616685
0.0348008
-0.0628627
0.035513
-0.0638988
0.0361404
-0.0648586
0.0367154
-0.0657917
0.0372572
-0.0667255
0.0377763
-0.0676737
0.0382783
-0.0686427
0.0387663
-0.0696351
0.0392419
-0.0706516
0.0397065
-0.0716921
0.0401613
-0.0727564
0.0406073
-0.073844
0.0410458
-0.0749548
0.0414783
-0.0760889
0.0419063
-0.0772464
0.0423316
-0.0784279
0.0427561
-0.079634
0.0431814
-0.0808648
0.0436093
-0.0821202
0.0440408
-0.0833992
0.0444768
-0.0847003
0.0449192
-0.0860224
-0.0873682
0.0453624
0.000370471
-0.000748881
0.00156193
-0.00423557
0.00362327
-0.00953088
0.00649809
-0.0162658
0.00999252
-0.0238826
0.0137974
-0.0316914
0.017566
-0.0390241
0.0210051
-0.0453923
0.0239336
-0.0505634
0.0262916
-0.0545407
0.0281144
-0.0574873
0.0294928
-0.0596387
0.0305357
-0.0612344
0.0313442
-0.062477
0.0319989
-0.0635174
0.032557
-0.0644568
0.0330553
-0.065357
0.0335159
-0.0662523
0.0339508
-0.0671604
0.0343666
-0.0680895
0.0347668
-0.0690429
0.0351534
-0.0700217
0.0355278
-0.0710259
0.035891
-0.0720553
0.0362441
-0.0731095
0.0365884
-0.0741882
0.0369249
-0.0752914
0.0372552
-0.0764192
0.0375807
-0.077572
0.0379032
-0.0787504
0.0382242
-0.079955
0.0385455
-0.081186
0.0388681
-0.0824429
0.0391932
-0.0837243
0.0395216
-0.0850287
0.0398544
-0.0863552
-0.0877023
0.0401885
0.00042469
-0.00117357
0.00174078
-0.00555166
0.00394774
-0.0117378
0.00692051
-0.0192385
0.0103943
-0.0273564
0.0140181
-0.0353153
0.0174527
-0.0424587
0.0204539
-0.0483935
0.0229059
-0.0530155
0.0248071
-0.0564419
0.0262305
-0.0589107
0.0272817
-0.06069
0.0280672
-0.0620198
0.0286753
-0.0630851
0.029171
-0.0640131
0.0295969
-0.0648828
0.0299788
-0.0657389
0.0303314
-0.0666048
0.0306622
-0.0674913
0.0309755
-0.0684028
0.0312736
-0.069341
0.0315579
-0.070306
0.0318296
-0.0712976
0.0320897
-0.0723155
0.0323394
-0.0733592
0.0325798
-0.0744286
0.032812
-0.0755236
0.0330374
-0.0766446
0.0332575
-0.0777921
0.0334739
-0.0789667
0.033688
-0.0801691
0.0339012
-0.0813992
0.0341145
-0.0826562
0.0343288
-0.0839386
0.0345449
-0.0852448
0.0347635
-0.0865738
-0.0879224
0.0349836
0.000476687
-0.00165026
0.00190228
-0.00697725
0.00421726
-0.0140528
0.00722431
-0.0222456
0.0105983
-0.0307303
0.0139695
-0.0386865
0.0170282
-0.0455175
0.0195892
-0.0509545
0.0215978
-0.0550241
0.0230975
-0.0579416
0.0241842
-0.0599973
0.0249666
-0.0614725
0.0255418
-0.062595
0.0259838
-0.063527
0.0263426
-0.0643719
0.0266494
-0.0651895
0.0269217
-0.0660113
0.0271692
-0.0668523
0.0273967
-0.0677188
0.0276071
-0.0686132
0.0278021
-0.069536
0.0279829
-0.0704868
0.0281505
-0.0714653
0.0283061
-0.072471
0.0284506
-0.0735037
0.0285851
-0.0745631
0.0287108
-0.0756493
0.028829
-0.0767628
0.0289411
-0.0779042
0.0290485
-0.0790741
0.0291525
-0.0802732
0.0292544
-0.0815011
0.0293549
-0.0827567
0.0294547
-0.0840384
0.0295544
-0.0853445
0.0296546
-0.086674
-0.0880233
0.0297555
0.000524553
-0.00217481
0.00203993
-0.00849263
0.00442021
-0.0164331
0.00739762
-0.025223
0.0106027
-0.0339354
0.01367
-0.0417538
0.016335
-0.0481824
0.0184727
-0.0530922
0.0200805
-0.0566319
0.0212333
-0.0590945
0.0220375
-0.0608015
0.0225973
-0.0620322
0.0229967
-0.0629945
0.0232954
-0.0638257
0.0235311
-0.0646077
0.023726
-0.0653844
0.0238919
-0.0661772
0.0240353
-0.0669956
0.0241593
-0.0678429
0.024266
-0.06872
0.0243569
-0.0696268
0.0244329
-0.0705628
0.0244951
-0.0715275
0.0245445
-0.0725205
0.0245821
-0.0735413
0.024609
-0.0745899
0.0246262
-0.0756665
0.0246349
-0.0767716
0.0246366
-0.0779058
0.0246324
-0.0790699
0.0246236
-0.0802644
0.0246112
-0.0814887
0.0245959
-0.0827415
0.0245783
-0.0840208
0.0245588
-0.085325
0.0245376
-0.0866527
-0.0880011
0.0245153
0.000567639
-0.00274245
0.00214983
-0.0100748
0.00454977
-0.018833
0.00743683
-0.0281101
0.0104172
-0.0369158
0.0131491
-0.0444857
0.0154213
-0.0504547
0.0171649
-0.0548358
0.0184175
-0.0578844
0.0192731
-0.0599501
0.0198395
-0.0613679
0.0202111
-0.0624038
0.0204586
-0.063242
0.0206287
-0.0639958
0.0207493
-0.0647283
0.0208359
-0.065471
0.0208966
-0.0662379
0.0209357
-0.0670346
0.0209555
-0.0678627
0.0209576
-0.0687221
0.0209432
-0.0696124
0.0209132
-0.0705329
0.0208687
-0.071483
0.0208106
-0.0724624
0.0207399
-0.0734705
0.0206574
-0.0745075
0.0205643
-0.0755734
0.0204617
-0.076669
0.0203508
-0.0777949
0.0202327
-0.0789519
0.0201086
-0.0801403
0.0199794
-0.0813595
0.0198459
-0.0826079
0.0197085
-0.0838834
0.0195678
-0.0851843
0.019424
-0.086509
0.019279
-0.0878561
-9.47829e-05
0.001154
-0.00105922
-0.000350211
0.00357428
-0.00331885
-0.000765032
0.00590918
-0.00549435
-0.00134028
0.00798851
-0.00741326
-0.00206911
0.00974113
-0.00901231
-0.00293501
0.0111867
-0.0103208
-0.00391501
0.0124044
-0.0114244
-0.00498453
0.0134962
-0.0124267
-0.0061215
0.0145567
-0.0134197
-0.00730815
0.0156557
-0.0144691
-0.0085306
0.016834
-0.0156115
-0.00977705
0.0181068
-0.0168603
-0.0110355
0.0194712
-0.0182128
-0.0122917
0.0209125
-0.0196562
-0.0135282
0.0224084
-0.0211719
-0.0147228
0.023931
-0.0227363
-0.0158492
0.0254477
-0.0243213
-0.0168764
0.0269218
-0.0258946
-0.0177696
0.0283122
-0.027419
-0.0184906
0.0295747
-0.0288536
-0.0189997
0.030663
-0.0301539
-0.0192568
0.0315302
-0.0312731
-0.0192236
0.0321305
-0.0321637
-0.0188654
0.0324208
-0.0327789
-0.018153
0.0323627
-0.0330752
-0.0170635
0.0319235
-0.033013
-0.0155821
0.0310774
-0.0325588
-0.0137016
0.0298059
-0.0316863
-0.0114259
0.0280995
-0.0303752
-0.00876087
0.0259468
-0.0286118
-0.00572331
0.023351
-0.0263886
-0.00233373
0.0203152
-0.0237048
0.00139509
0.016841
-0.0205699
0.00541607
0.0129568
-0.0169778
0.00968554
0.0086734
-0.0129429
0.0141359
0.00403026
-0.00848061
-0.00100391
0.0187827
-0.00364285
-4.5457e-05
0.00119946
-0.000183118
0.00371194
-0.000434781
0.00616084
-0.00082045
0.00837418
-0.00134739
0.0102681
-0.00200704
0.0118464
-0.00277825
0.0131756
-0.00363351
0.0143514
-0.00454488
0.015468
-0.00548762
0.0165985
-0.0064412
0.0177876
-0.00738808
0.0190537
-0.00831161
0.0203947
-0.00919399
0.0217949
-0.0100148
0.0232292
-0.0107501
0.0246663
-0.0113726
0.0260702
-0.0118516
0.0274008
-0.012154
0.0286146
-0.0122454
0.0296661
-0.0120914
0.0305089
-0.0116589
0.0310977
-0.0109181
0.0313896
-0.00984434
0.031347
-0.00841826
0.0309366
-0.00662649
0.0301317
-0.0044632
0.0289141
-0.00192821
0.0272709
0.000977866
0.0251934
0.00423724
0.0226874
0.00783227
0.019756
0.0117377
0.0164097
0.0159131
0.0126656
0.0203198
0.00855009
0.0249059
0.00408738
0.0296185
-0.000682415
-0.00580334
0.034418
3.62336e-06
0.00119583
-1.34728e-05
0.00372904
-9.307e-05
0.00624044
-0.000273073
0.00855419
-0.00057507
0.0105701
-0.00100022
0.0122715
-0.00153154
0.0137069
-0.00214046
0.0149604
-0.00279418
0.0161217
-0.00346119
0.0172655
-0.00411389
0.0184403
-0.00472855
0.0196683
-0.00528374
0.0209499
-0.00575833
0.0222695
-0.00612999
0.0236008
-0.00637434
0.0249107
-0.00646472
0.0261606
-0.00637287
0.0273089
-0.00606955
0.0283113
-0.00552583
0.0291224
-0.00471423
0.0296973
-0.00361006
0.0299936
-0.00219267
0.0299722
-0.000444697
0.0295991
0.00164473
0.0288472
0.00407927
0.0276972
0.00685887
0.0261345
0.0099775
0.0241522
0.013421
0.0217499
0.0171744
0.0189341
0.0212132
0.0157171
0.0255049
0.0121181
0.0300057
0.00816481
0.0346559
0.00389993
0.0394211
-0.000677872
0.0442091
-0.00547039
-0.0105992
0.049005
4.86447e-05
0.00114719
0.000146744
0.00363094
0.000237959
0.00614922
0.000270039
0.00852211
0.000207077
0.010633
3.65894e-05
0.012442
-0.00023119
0.0139747
-0.000569321
0.0152985
-0.000942043
0.0164945
-0.00131213
0.0176356
-0.00164522
0.0187734
-0.0019113
0.0199344
-0.00208402
0.0211226
-0.00213918
0.0223246
-0.00205313
0.0235148
-0.00180194
0.0246595
-0.00136129
0.0257199
-0.000706354
0.026654
0.000186902
0.027418
0.00134119
0.0279681
0.00277657
0.028262
0.00450966
0.0282605
0.00655297
0.0279289
0.00891356
0.0272385
0.011594
0.0261668
0.0145925
0.0246987
0.0179012
0.0228257
0.0215073
0.0205462
0.0253919
0.0178653
0.02953
0.014796
0.0338892
0.0113579
0.0384278
0.00757959
0.043097
0.00349555
0.0478526
-0.0008556
0.0526366
-0.00546192
0.0573703
-0.0102041
-0.015308
0.0620791
8.67921e-05
0.0010604
0.000287781
0.00342995
0.000538569
0.00589843
0.000776846
0.00828383
0.000954842
0.010455
0.00104825
0.0123486
0.00105817
0.0139648
0.00100682
0.0153498
0.000929648
0.0165716
0.000867406
0.0176978
0.000860035
0.0187807
0.000943459
0.019851
0.00114889
0.0209172
0.00150368
0.0219698
0.0020325
0.022986
0.00275836
0.0239336
0.00370316
0.0247752
0.00488725
0.0254699
0.00632924
0.025976
0.00804504
0.0262523
0.0100473
0.0262597
0.0123448
0.025963
0.0149419
0.0253319
0.0178383
0.0243421
0.0210287
0.0229764
0.0245033
0.0212241
0.028247
0.019082
0.0322394
0.0165538
0.0364539
0.0136509
0.0408573
0.0103925
0.0454089
0.00680626
0.0500596
0.00292889
0.0547783
-0.00122314
0.0594917
-0.00556904
0.0641827
-0.0101528
0.0687868
-0.0148082
-0.019921
0.0733998
0.000115906
0.00094449
0.000401012
0.00314484
0.000789943
0.0055095
0.00121622
0.00785756
0.00162379
0.0100475
0.00197755
0.0119948
0.00226794
0.0136744
0.00250919
0.0151086
0.00273295
0.0163479
0.00298021
0.0174505
0.00329418
0.0184668
0.00371543
0.0194297
0.00427964
0.020353
0.00501731
0.0212322
0.00595442
0.0220489
0.00711328
0.0227747
0.0085131
0.0233753
0.0101702
0.0238128
0.0120976
0.0240485
0.0143051
0.0240448
0.0167983
0.0237665
0.0195786
0.0231827
0.0226427
0.0222677
0.0259828
0.0210021
0.0295861
0.019373
0.0334351
0.0173751
0.037507
0.01501
0.0417735
0.0122874
0.0462001
0.00922425
0.0507462
0.00584646
0.0553615
0.00219097
0.0600206
-0.00173026
0.064666
-0.00586852
0.0692532
-0.0101562
0.0738135
-0.0147131
0.0783067
-0.0193014
-0.024553
0.0829386
0.000134751
0.000809739
0.000480577
0.00279902
0.000977631
0.00501245
0.00156145
0.00727374
0.00217268
0.00943623
0.00276814
0.0113994
0.0033277
0.0131148
0.00385548
0.0145808
0.00437569
0.0158277
0.00492566
0.0169006
0.00554848
0.0178439
0.006287
0.0186912
0.00718013
0.0194599
0.00826118
0.0201511
0.00955764
0.0207524
0.0110916
0.0212408
0.0128803
0.0215866
0.0149366
0.0217566
0.0172688
0.0217164
0.0198808
0.0214328
0.022772
0.0208753
0.0259369
0.0200178
0.0293654
0.0188393
0.0330422
0.0173252
0.0369474
0.0154678
0.0410559
0.0132666
0.0453375
0.0107285
0.0497566
0.00786824
0.0542714
0.00470948
0.0588328
0.00128499
0.0634283
-0.00240447
0.0679904
-0.0062924
0.0725125
-0.0103906
0.0769914
-0.0146351
0.081523
-0.0192447
0.0861094
-0.0238878
-0.0295163
0.0910727
0.000143064
0.000666676
0.000523643
0.00241844
0.00109254
0.00444355
0.00179298
0.0065733
0.00256789
0.00866132
0.00337025
0.010597
0.00417145
0.0123136
0.00496498
0.0137873
0.00576509
0.0150276
0.00660171
0.0160639
0.00751388
0.0169318
0.00854338
0.0176617
0.00972999
0.0182732
0.0111086
0.0187725
0.012708
0.019153
0.0145503
0.0193984
0.0166517
0.0194853
0.0190222
0.019386
0.0216665
0.0190721
0.0245837
0.0185156
0.0277677
0.0176913
0.031207
0.0165784
0.0348852
0.0151611
0.0387804
0.01343
0.0428658
0.0113824
0.0471099
0.00902247
0.0514767
0.00636176
0.0559259
0.00341898
0.0604097
0.000225659
0.0649263
-0.00323153
0.0694143
-0.00689254
0.0738881
-0.0107662
0.0783765
-0.0148791
0.082957
-0.0192156
0.0877744
-0.024062
0.0928808
-0.0289942
-0.0352428
0.0986073
0.0001414
0.000525276
0.00053032
0.00202952
0.00113152
0.00384235
0.00190031
0.00580451
0.00278711
0.00777453
0.00374616
0.00963796
0.00474409
0.0113157
0.00576542
0.012766
0.00681371
0.0139793
0.00790901
0.0149686
0.00908271
0.0157581
0.0103718
0.0163726
0.0118137
0.0168313
0.0134428
0.0171434
0.0152877
0.0173082
0.0173705
0.0173157
0.0197063
0.0171494
0.0223036
0.0167888
0.025164
0.0162117
0.028283
0.0153965
0.0316501
0.0143242
0.035249
0.0129795
0.0390577
0.0113524
0.0430493
0.0094385
0.0471918
0.00723984
0.0514497
0.00476455
0.0557856
0.00202586
0.0601747
-0.000970079
0.064599
-0.00419863
0.069034
-0.00766658
0.0735073
-0.0113658
0.0780933
-0.0153521
0.082872
-0.0196578
0.0880053
-0.024349
0.0935959
-0.0296526
0.0997235
-0.0351219
-0.0420102
0.106491
0.00013084
0.000394436
0.000503042
0.00165731
0.00109687
0.00324851
0.00188242
0.00501896
0.00282163
0.00683531
0.00387487
0.00858472
0.00500864
0.0101819
0.00620181
0.0115728
0.00744878
0.0127323
0.00875909
0.0136583
0.0101543
0.0143629
0.0116636
0.0148634
0.0133188
0.0151761
0.0151506
0.0153116
0.0171857
0.0152731
0.0194447
0.0150567
0.0219415
0.0146526
0.0246827
0.0140476
0.027668
0.0132264
0.0308901
0.0121744
0.0343353
0.010879
0.0379839
0.0093309
0.0418114
0.00752495
0.0457896
0.00546031
0.0498891
0.00314031
0.0540733
0.000580372
0.0583454
-0.00224628
0.0626852
-0.00530984
0.0671148
-0.00862823
0.0716883
-0.0122401
0.0764863
-0.0161638
0.0816444
-0.0205102
0.0872487
-0.0252621
0.0934643
-0.0305646
0.100209
-0.0363972
0.10754
-0.0424529
-0.0495754
0.115105
0.000112629
0.000281807
0.000445626
0.00132432
0.000995003
0.00269914
0.00174668
0.00426728
0.00267649
0.0059055
0.0037546
0.00750661
0.00495176
0.00898477
0.00624542
0.0102791
0.00762383
0.0113539
0.00908752
0.0121946
0.010648
0.0128023
0.012325
0.0131864
0.0141424
0.0133587
0.0161247
0.0133292
0.0182941
0.0131037
0.020668
0.0126828
0.0232577
0.0120629
0.0260681
0.0112372
0.0290969
0.0101976
0.0323354
0.00893588
0.0357695
0.00744498
0.0393806
0.00571977
0.0431485
0.00375701
0.0470524
0.00155644
0.0510864
-0.000893709
0.0552604
-0.0035936
0.0595788
-0.00656473
0.064102
-0.00983304
0.0689073
-0.0134335
0.0740999
-0.0174327
0.0797809
-0.0218448
0.0860563
-0.0267856
0.0929174
-0.0321232
0.10039
-0.0380376
0.108143
-0.0441493
0.116166
-0.0504761
-0.0570678
0.123658
8.78871e-05
0.00019392
0.000362368
0.00104984
0.000834809
0.0022267
0.00150675
0.00359534
0.00236863
0.00504362
0.00340237
0.00647287
0.00458622
0.00780093
0.00590002
0.00896534
0.00732961
0.00992431
0.0088693
0.010655
0.0105222
0.0111494
0.0122987
0.0114099
0.0142139
0.0114435
0.0162847
0.0112584
0.018527
0.0108613
0.0209538
0.010256
0.0235733
0.00944338
0.0263887
0.00842181
0.0293984
0.00718797
0.0325968
0.00573742
0.0359771
0.00406475
0.0395339
0.00216296
0.0432662
2.46678e-05
0.0471965
-0.00237388
0.0513477
-0.00504491
0.0557759
-0.00802173
0.0605535
-0.0113423
0.0657731
-0.0150526
0.0715268
-0.0191871
0.0778857
-0.0237917
0.0848689
-0.028828
0.09243
-0.0343468
0.100398
-0.0400908
0.108581
-0.0462209
0.116507
-0.052075
0.12409
-0.05806
-0.0633658
0.130388
5.7525e-05
0.000136395
0.000257649
0.000849712
0.000626667
0.00185768
0.00118082
0.00304118
0.00192451
0.00429994
0.0028518
0.00554557
0.00395005
0.00670268
0.00520422
0.00771117
0.00660105
0.00852748
0.00813194
0.00912406
0.00979423
0.00948714
0.011591
0.00961315
0.0135296
0.00950489
0.0156199
0.00916813
0.0178723
0.00860895
0.0202962
0.00783208
0.0228996
0.00683998
0.0256892
0.00563225
0.0286719
0.00420529
0.0318578
0.00255154
0.0352612
0.000661313
0.0389144
-0.00149023
0.04286
-0.00392093
0.0471519
-0.00666577
0.0518669
-0.0097599
0.0570869
-0.0132418
0.0628882
-0.0171436
0.0693214
-0.0214858
0.0763922
-0.026258
0.0840365
-0.0314359
0.0921158
-0.0369073
0.100397
-0.0426284
0.108588
-0.0482814
0.116352
-0.0539849
0.123285
-0.0590081
0.129274
-0.0640492
-0.0677397
0.133648
2.2491e-05
0.000113904
0.000136398
0.000735805
0.000382768
0.00161131
0.000791352
0.0026326
0.00137908
0.00371221
0.00215137
0.00477328
0.00310492
0.00574913
0.00423133
0.00658476
0.00552075
0.00723806
0.00696488
0.00767994
0.00855884
0.00789319
0.0103019
0.00787006
0.0121975
0.00760931
0.0142524
0.00711318
0.0164767
0.00638471
0.0188832
0.00542558
0.0214888
0.00423436
0.0243161
0.002805
0.027395
0.00112632
0.0307678
-0.000821194
0.0344899
-0.00306079
0.0386235
-0.00562385
0.0432451
-0.00854249
0.0484279
-0.0118486
0.0542341
-0.0155662
0.0606968
-0.0197044
0.0678034
-0.0242503
0.07548
-0.0291624
0.083586
-0.034364
0.0919039
-0.0397539
0.10017
-0.0451737
0.108058
-0.0505165
0.11528
-0.0555029
0.121525
-0.0602304
0.126621
-0.0641032
0.130523
-0.0679514
-0.0702617
0.133045
-1.57738e-05
0.000129678
5.17557e-06
0.000714856
0.000118876
0.00149761
0.000367002
0.00238447
0.000777395
0.00330182
0.00136555
0.00418512
0.00213711
0.00497756
0.00309113
0.00563074
0.0042234
0.00610578
0.00552947
0.00637387
0.00700705
0.00641562
0.00865772
0.00621939
0.0104883
0.00577877
0.0125117
0.00508977
0.0147483
0.00414803
0.0172275
0.00294642
0.0199883
0.00147356
0.0230814
-0.000288116
0.026569
-0.00236125
0.0305206
-0.00477283
0.0350102
-0.0075504
0.0401047
-0.0107183
0.0458538
-0.0142916
0.0522755
-0.0182703
0.0593424
-0.0226331
0.0669716
-0.0273336
0.0750194
-0.0322981
0.083282
-0.037425
0.0915098
-0.0425917
0.0994161
-0.0476602
0.106728
-0.052486
0.113174
-0.0569621
0.118602
-0.0609305
0.122868
-0.0644965
0.126061
-0.067296
0.128251
-0.0701414
-0.0716219
0.129611
-5.44909e-05
0.000184169
-0.000125611
0.000785976
-0.00014321
0.00151521
-5.45299e-05
0.00229579
0.000177828
0.00306946
0.000578222
0.00378473
0.00116125
0.00439453
0.00193466
0.00485733
0.00290287
0.00513757
0.00407023
0.00520651
0.00544397
0.00504187
0.00703698
0.00462639
0.00887018
0.00394557
0.0109746
0.00298537
0.0133923
0.00173025
0.0161784
0.000160393
0.0193958
-0.0017439
0.0231164
-0.00400866
0.0274108
-0.00665569
0.0323402
-0.00970226
0.0379449
-0.0131551
0.0442319
-0.0170052
0.0511639
-0.0212237
0.058652
-0.0257583
0.0665525
-0.0305336
0.0746708
-0.0354519
0.0827717
-0.040399
0.0905966
-0.0452499
0.0978895
-0.0498845
0.104418
-0.054189
0.11002
-0.0580882
0.114588
-0.0615292
0.11816
-0.0645028
0.120766
-0.0671026
0.122663
-0.069193
0.123927
-0.0714057
-0.0725447
0.12485
-8.9684e-05
0.000273853
-0.000242636
0.000938928
-0.000375384
0.00164795
-0.000425592
0.002346
-0.000347207
0.00299108
-0.000106715
0.00354424
0.000320142
0.00396768
0.000952774
0.0042247
0.00180863
0.00428171
0.00290719
0.00410796
0.00427329
0.00367577
0.00594003
0.00295965
0.00795077
0.00193483
0.0103601
0.000576011
0.0132314
-0.001141
0.016633
-0.00324124
0.0206337
-0.0057446
0.0252893
-0.00866422
0.0306343
-0.0120007
0.03667
-0.015738
0.0433551
-0.0198402
0.0505992
-0.0242494
0.0582619
-0.0288863
0.066157
-0.0336534
0.0740631
-0.0384397
0.08174
-0.0431288
0.0889497
-0.0476088
0.095481
-0.0517812
0.101173
-0.0555766
0.105935
-0.0589507
0.109762
-0.0619152
0.112714
-0.0644817
0.114959
-0.0667473
0.116598
-0.0687415
0.117921
-0.0705167
0.11886
-0.0723439
-0.0734198
0.119735
-0.000116295
0.000390148
-0.000329745
0.00115238
-0.000545967
0.00186417
-0.000694
0.00249403
-0.000718989