/*--------------------------------*- C++ -*----------------------------------*\
| =========                 |                                                 |
| \\      /  F ield         | OpenFOAM: The Open Source CFD Toolbox           |
|  \\    /   O peration     | Version:  2312                                  |
|   \\  /    A nd           | Website:  www.openfoam.com                      |
|    \\/     M anipulation  |                                                 |
\*---------------------------------------------------------------------------*/
FoamFile
{
    version     2.0;
    format      ascii;
    arch        "LSB;label=32;scalar=64";
    class       volScalarField;
    location    "27.5";
    object      p;
}
// * * * * * * * * * * * * * * * * * * * * * * * * * * * * * * * * * * * * * //

dimensions      [0 2 -2 0 0 0 0];

internalField   nonuniform List<scalar> 
32230
(
-0.228421
-0.228804
-0.228786
-0.228461
-0.227889
-0.227082
-0.226056
-0.224829
-0.223428
-0.221879
-0.220213
-0.21846
-0.216656
-0.21483
-0.213018
-0.211251
-0.209562
-0.207986
-0.206559
-0.205315
-0.20429
-0.203519
-0.203031
-0.202853
-0.203002
-0.203488
-0.204311
-0.20546
-0.206915
-0.208649
-0.210634
-0.212827
-0.215236
-0.217759
-0.220583
-0.223327
-0.226737
-0.229434
-0.229827
-0.229781
-0.229406
-0.228772
-0.227898
-0.226801
-0.225502
-0.224025
-0.222399
-0.220652
-0.218817
-0.216924
-0.215005
-0.213094
-0.211223
-0.209427
-0.207739
-0.206196
-0.204832
-0.203679
-0.202768
-0.20212
-0.201752
-0.201668
-0.201866
-0.202331
-0.203042
-0.203969
-0.20508
-0.206335
-0.207708
-0.209138
-0.210622
-0.212058
-0.213527
-0.215308
-0.230934
-0.231282
-0.231176
-0.230731
-0.230025
-0.229082
-0.227919
-0.226558
-0.225021
-0.223333
-0.221521
-0.219614
-0.217641
-0.215632
-0.213619
-0.211636
-0.209717
-0.207897
-0.206211
-0.204691
-0.203365
-0.202257
-0.201379
-0.200738
-0.200329
-0.200139
-0.200149
-0.200334
-0.200667
-0.201116
-0.201656
-0.202246
-0.202865
-0.203455
-0.204007
-0.204589
-0.205522
-0.232951
-0.233193
-0.232986
-0.232445
-0.231649
-0.230623
-0.229387
-0.227959
-0.226358
-0.224606
-0.222725
-0.220739
-0.218673
-0.216558
-0.214424
-0.212304
-0.210232
-0.208243
-0.206369
-0.204641
-0.203081
-0.201705
-0.200519
-0.199523
-0.198709
-0.198064
-0.19757
-0.197208
-0.196959
-0.1968
-0.19671
-0.196659
-0.196625
-0.196564
-0.196497
-0.196447
-0.196849
-0.235494
-0.235567
-0.235215
-0.234542
-0.233624
-0.232488
-0.231154
-0.229639
-0.227955
-0.22612
-0.224149
-0.222063
-0.219883
-0.217636
-0.215351
-0.21306
-0.210797
-0.208594
-0.206483
-0.204489
-0.202631
-0.200922
-0.199365
-0.197962
-0.196706
-0.19559
-0.194603
-0.193733
-0.192965
-0.192282
-0.191666
-0.191089
-0.190537
-0.189975
-0.189423
-0.188914
-0.188818
-0.238557
-0.238404
-0.237858
-0.237012
-0.235929
-0.234645
-0.233178
-0.231542
-0.229746
-0.227799
-0.225712
-0.223498
-0.221173
-0.21876
-0.216286
-0.21378
-0.211275
-0.208803
-0.206395
-0.204074
-0.201861
-0.199769
-0.197807
-0.195979
-0.194286
-0.192724
-0.191287
-0.189965
-0.188746
-0.187614
-0.186552
-0.185539
-0.184562
-0.183591
-0.182656
-0.18176
-0.181248
-0.242134
-0.241704
-0.240921
-0.239852
-0.238559
-0.237082
-0.235443
-0.23365
-0.231708
-0.229618
-0.227381
-0.225002
-0.22249
-0.219863
-0.217144
-0.214363
-0.211553
-0.208749
-0.205984
-0.203286
-0.200681
-0.198187
-0.195817
-0.193581
-0.191481
-0.189515
-0.187677
-0.185959
-0.184347
-0.182828
-0.181387
-0.180005
-0.178671
-0.17736
-0.1761
-0.17488
-0.17401
-0.246237
-0.245486
-0.24442
-0.243085
-0.241537
-0.239826
-0.237976
-0.235992
-0.233869
-0.231597
-0.229166
-0.226569
-0.223808
-0.220897
-0.217859
-0.214728
-0.211543
-0.208347
-0.20518
-0.202077
-0.199068
-0.196178
-0.193421
-0.190805
-0.188334
-0.186005
-0.183811
-0.181742
-0.179786
-0.17793
-0.176159
-0.174459
-0.172819
-0.171217
-0.169679
-0.168181
-0.166999
-0.250897
-0.249787
-0.248398
-0.246758
-0.244919
-0.24294
-0.240846
-0.238635
-0.236289
-0.233783
-0.231092
-0.2282
-0.225102
-0.221815
-0.218369
-0.21481
-0.211188
-0.207555
-0.203961
-0.200446
-0.197043
-0.193775
-0.190657
-0.187693
-0.184885
-0.182228
-0.179713
-0.177331
-0.175069
-0.172915
-0.170856
-0.168878
-0.166972
-0.16512
-0.16334
-0.161605
-0.160156
-0.256172
-0.254661
-0.252917
-0.250942
-0.248785
-0.246511
-0.244141
-0.241661
-0.239034
-0.236218
-0.233174
-0.229878
-0.226333
-0.222566
-0.218624
-0.214567
-0.210461
-0.206367
-0.202339
-0.19842
-0.194639
-0.191016
-0.187561
-0.184276
-0.181158
-0.178201
-0.175394
-0.172729
-0.170192
-0.167772
-0.165457
-0.163236
-0.161097
-0.159027
-0.157038
-0.1551
-0.153423
-0.262126
-0.260175
-0.258047
-0.255718
-0.253224
-0.250629
-0.247945
-0.245136
-0.242145
-0.238911
-0.235388
-0.23156
-0.227447
-0.223098
-0.218581
-0.213977
-0.209359
-0.204797
-0.200341
-0.19603
-0.191889
-0.18793
-0.184158
-0.180572
-0.177165
-0.173929
-0.170855
-0.167931
-0.165146
-0.162488
-0.159946
-0.157509
-0.155167
-0.152907
-0.150734
-0.148625
-0.146751
-0.268823
-0.266389
-0.263856
-0.26116
-0.258311
-0.255364
-0.252311
-0.249088
-0.245615
-0.241823
-0.237675
-0.233177
-0.22838
-0.223361
-0.218213
-0.21303
-0.207891
-0.202861
-0.197987
-0.193297
-0.188809
-0.184529
-0.180455
-0.176583
-0.172905
-0.16941
-0.166088
-0.162928
-0.159918
-0.157046
-0.154302
-0.151674
-0.149153
-0.146727
-0.144396
-0.14214
-0.140097
-0.276306
-0.273351
-0.270396
-0.267323
-0.264097
-0.260752
-0.257247
-0.253489
-0.249384
-0.24487
-0.239941
-0.234641
-0.22906
-0.223307
-0.217494
-0.211718
-0.206057
-0.200567
-0.195284
-0.190226
-0.185401
-0.18081
-0.176446
-0.172302
-0.168367
-0.16463
-0.16108
-0.157703
-0.154489
-0.151425
-0.148501
-0.145706
-0.143028
-0.140458
-0.13799
-0.135612
-0.133423
-0.284589
-0.281079
-0.27769
-0.274228
-0.270592
-0.266776
-0.262701
-0.258252
-0.253337
-0.247928
-0.242067
-0.235853
-0.229415
-0.222889
-0.216394
-0.210024
-0.203847
-0.197905
-0.19222
-0.186802
-0.18165
-0.176757
-0.172115
-0.167712
-0.163535
-0.159572
-0.15581
-0.152237
-0.148839
-0.145605
-0.142522
-0.13958
-0.136767
-0.134074
-0.13149
-0.129011
-0.126697
-0.293642
-0.289554
-0.285725
-0.281855
-0.277754
-0.273361
-0.268563
-0.263235
-0.257319
-0.250846
-0.243926
-0.236714
-0.229375
-0.222059
-0.214881
-0.207925
-0.201241
-0.194855
-0.188777
-0.183007
-0.177536
-0.172352
-0.167443
-0.162795
-0.158392
-0.15422
-0.150266
-0.146515
-0.142953
-0.139569
-0.136348
-0.13328
-0.130352
-0.127555
-0.124876
-0.122315
-0.119896
-0.303387
-0.298713
-0.29444
-0.290132
-0.285482
-0.28037
-0.274658
-0.268247
-0.261144
-0.253464
-0.245392
-0.237136
-0.228882
-0.220779
-0.212931
-0.205401
-0.198221
-0.191401
-0.18494
-0.178828
-0.173048
-0.167586
-0.162424
-0.157545
-0.152933
-0.14857
-0.144442
-0.140533
-0.136828
-0.133313
-0.129975
-0.126801
-0.123778
-0.120894
-0.11814
-0.115514
-0.113008
-0.313691
-0.308439
-0.303714
-0.298915
-0.293597
-0.287585
-0.280749
-0.273055
-0.264606
-0.255618
-0.246347
-0.237036
-0.227877
-0.219006
-0.210506
-0.202418
-0.194756
-0.187515
-0.180682
-0.174239
-0.168164
-0.162438
-0.157038
-0.151946
-0.147142
-0.142607
-0.138324
-0.134276
-0.130447
-0.126822
-0.123386
-0.120125
-0.117026
-0.114076
-0.111265
-0.108587
-0.106012
-0.324366
-0.318553
-0.313358
-0.307986
-0.301844
-0.294726
-0.286552
-0.277393
-0.267478
-0.257119
-0.24663
-0.236272
-0.226228
-0.216612
-0.207481
-0.198853
-0.190725
-0.183078
-0.175889
-0.169131
-0.162779
-0.156806
-0.151188
-0.145902
-0.140927
-0.136241
-0.131824
-0.127659
-0.123728
-0.120015
-0.116502
-0.113176
-0.110022
-0.107026
-0.104179
-0.101467
-0.0988463
-0.335183
-0.328845
-0.323166
-0.317128
-0.309989
-0.301543
-0.291808
-0.281006
-0.269505
-0.257715
-0.24599
-0.234591
-0.22368
-0.21334
-0.2036
-0.194456
-0.185885
-0.177856
-0.170334
-0.163288
-0.156683
-0.150491
-0.144682
-0.139231
-0.134112
-0.129303
-0.124781
-0.120527
-0.116522
-0.112747
-0.109186
-0.105821
-0.102639
-0.0996238
-0.0967666
-0.0940439
-0.0914166
-0.257573
-0.259185
-0.260182
-0.26096
-0.261816
-0.262868
-0.264183
-0.265803
-0.267747
-0.270024
-0.272636
-0.275585
-0.278871
-0.282494
-0.286454
-0.290753
-0.295388
-0.300356
-0.305654
-0.311274
-0.317207
-0.32344
-0.329959
-0.336743
-0.34377
-0.351014
-0.358445
-0.366029
-0.373729
-0.381503
-0.389299
-0.397061
-0.404833
-0.412479
-0.419984
-0.427402
-0.434727
-0.252092
-0.253858
-0.254929
-0.255729
-0.256568
-0.257561
-0.258776
-0.260254
-0.262018
-0.264076
-0.26643
-0.269081
-0.27203
-0.275274
-0.278815
-0.282651
-0.28678
-0.291199
-0.295906
-0.300893
-0.306154
-0.311679
-0.317456
-0.32347
-0.329706
-0.336143
-0.34276
-0.349534
-0.356437
-0.363435
-0.370502
-0.37761
-0.384723
-0.391771
-0.398742
-0.405819
-0.413264
-0.247197
-0.249042
-0.250148
-0.250947
-0.25175
-0.252669
-0.253769
-0.255095
-0.256667
-0.258494
-0.26058
-0.262924
-0.265525
-0.268381
-0.271492
-0.274855
-0.278468
-0.282329
-0.286436
-0.290782
-0.295363
-0.300173
-0.305204
-0.310445
-0.315887
-0.321519
-0.327327
-0.333298
-0.339414
-0.34566
-0.352025
-0.358499
-0.365039
-0.371565
-0.378073
-0.384886
-0.392564
-0.242972
-0.24482
-0.245921
-0.246696
-0.247447
-0.248279
-0.249257
-0.250422
-0.251798
-0.253392
-0.255209
-0.257247
-0.259503
-0.261976
-0.264664
-0.267564
-0.270674
-0.273993
-0.277518
-0.281246
-0.285174
-0.2893
-0.293619
-0.298129
-0.302826
-0.307705
-0.312764
-0.317998
-0.323403
-0.328977
-0.334726
-0.340657
-0.346744
-0.352897
-0.35909
-0.365735
-0.373688
-0.239446
-0.241227
-0.242284
-0.243015
-0.2437
-0.244438
-0.245287
-0.246291
-0.247471
-0.248837
-0.250391
-0.252131
-0.254055
-0.256161
-0.258445
-0.260905
-0.26354
-0.266347
-0.269327
-0.272479
-0.275803
-0.2793
-0.282972
-0.286821
-0.290851
-0.295065
-0.299469
-0.304071
-0.308878
-0.313898
-0.319152
-0.324666
-0.33044
-0.336391
-0.342449
-0.349017
-0.357228
-0.236605
-0.238254
-0.239234
-0.239902
-0.240511
-0.241148
-0.241868
-0.242711
-0.2437
-0.244845
-0.246146
-0.247602
-0.249212
-0.25097
-0.252875
-0.254924
-0.257118
-0.259454
-0.261935
-0.264564
-0.267343
-0.270279
-0.273377
-0.276648
-0.2801
-0.283746
-0.287602
-0.291683
-0.296009
-0.300599
-0.30548
-0.310693
-0.316271
-0.322161
-0.32824
-0.33479
-0.34317
-0.234389
-0.235856
-0.236732
-0.237323
-0.237847
-0.238378
-0.238969
-0.239656
-0.240461
-0.241392
-0.242452
-0.243639
-0.244952
-0.246385
-0.247937
-0.249606
-0.251394
-0.2533
-0.25533
-0.257488
-0.259783
-0.262224
-0.264822
-0.267594
-0.270556
-0.273727
-0.277131
-0.280793
-0.28474
-0.289002
-0.29361
-0.29861
-0.304057
-0.309954
-0.316166
-0.322735
-0.331023
-0.232712
-0.233962
-0.234714
-0.235216
-0.235648
-0.236073
-0.236535
-0.237068
-0.237694
-0.238421
-0.239251
-0.240183
-0.241214
-0.242342
-0.243565
-0.244882
-0.246295
-0.247809
-0.24943
-0.251166
-0.253029
-0.255034
-0.257197
-0.259539
-0.262084
-0.264857
-0.267888
-0.271209
-0.274855
-0.27886
-0.283264
-0.288105
-0.293441
-0.299327
-0.305701
-0.312377
-0.320141
-0.231472
-0.232478
-0.233104
-0.233512
-0.233845
-0.23416
-0.234494
-0.234877
-0.235328
-0.235856
-0.236463
-0.237149
-0.237912
-0.238749
-0.23966
-0.240647
-0.241713
-0.242864
-0.244109
-0.245462
-0.246936
-0.248552
-0.250331
-0.252298
-0.254481
-0.256914
-0.259629
-0.262665
-0.26606
-0.269854
-0.274088
-0.278802
-0.284039
-0.289862
-0.296293
-0.303131
-0.310514
-0.230573
-0.231372
-0.231831
-0.232129
-0.232362
-0.232565
-0.232771
-0.233004
-0.233281
-0.233612
-0.233999
-0.234443
-0.234944
-0.2355
-0.236112
-0.236783
-0.237519
-0.238329
-0.239225
-0.240223
-0.241341
-0.242602
-0.244033
-0.245663
-0.247526
-0.249657
-0.252094
-0.254878
-0.258052
-0.261657
-0.265735
-0.270326
-0.275469
-0.281207
-0.287584
-0.294504
-0.301835
-0.229888
-0.230463
-0.230798
-0.230997
-0.231129
-0.23122
-0.231296
-0.231377
-0.231478
-0.231609
-0.231775
-0.231977
-0.232216
-0.232494
-0.232812
-0.233176
-0.233594
-0.234077
-0.23464
-0.235303
-0.236087
-0.237019
-0.238128
-0.239449
-0.241017
-0.242871
-0.245053
-0.247605
-0.250571
-0.253993
-0.257913
-0.262372
-0.267404
-0.273043
-0.279316
-0.286318
-0.293332
-0.229346
-0.229738
-0.229957
-0.230061
-0.230093
-0.230072
-0.230014
-0.229939
-0.229859
-0.229785
-0.229723
-0.229678
-0.229651
-0.229648
-0.229673
-0.229733
-0.229839
-0.230004
-0.230247
-0.230589
-0.231057
-0.231678
-0.232486
-0.233517
-0.23481
-0.236407
-0.23835
-0.240682
-0.243448
-0.24669
-0.250447
-0.254758
-0.259654
-0.265183
-0.271281
-0.278337
-0.285003
-0.228888
-0.229143
-0.229264
-0.229281
-0.229217
-0.229083
-0.228889
-0.228653
-0.228385
-0.228098
-0.227801
-0.2275
-0.227202
-0.226914
-0.226643
-0.2264
-0.226198
-0.226053
-0.225987
-0.226022
-0.226189
-0.226518
-0.227044
-0.227807
-0.228846
-0.230205
-0.231928
-0.234058
-0.23664
-0.239713
-0.243312
-0.247476
-0.252211
-0.257629
-0.263471
-0.270546
-0.276783
-0.228481
-0.228649
-0.228697
-0.228638
-0.228483
-0.228236
-0.227905
-0.227502
-0.227041
-0.226534
-0.225994
-0.225432
-0.224858
-0.224282
-0.223716
-0.223173
-0.22267
-0.222226
-0.221863
-0.22161
-0.221496
-0.221555
-0.221826
-0.222349
-0.223165
-0.224318
-0.225849
-0.227806
-0.230228
-0.233156
-0.236619
-0.240675
-0.245251
-0.2506
-0.256111
-0.263244
-0.268808
-0.228116
-0.228249
-0.22825
-0.228129
-0.227889
-0.227531
-0.227061
-0.226491
-0.225834
-0.225106
-0.224323
-0.2235
-0.222651
-0.221791
-0.220936
-0.220104
-0.219313
-0.218586
-0.21795
-0.217433
-0.217069
-0.216895
-0.216945
-0.217266
-0.217899
-0.21889
-0.220283
-0.222117
-0.224432
-0.22727
-0.230638
-0.234626
-0.239043
-0.244377
-0.249491
-0.256697
-0.261474
-0.227813
-0.227959
-0.227938
-0.227765
-0.227447
-0.226983
-0.226378
-0.225643
-0.224795
-0.223852
-0.222834
-0.221759
-0.220647
-0.219519
-0.218393
-0.217293
-0.21624
-0.215261
-0.214385
-0.213642
-0.213069
-0.212702
-0.212587
-0.212761
-0.213268
-0.214153
-0.215458
-0.217221
-0.219474
-0.22226
-0.225557
-0.229498
-0.233766
-0.239057
-0.243829
-0.25094
-0.25522
-0.227619
-0.227814
-0.227789
-0.227574
-0.227185
-0.226621
-0.225888
-0.224999
-0.223973
-0.222831
-0.221595
-0.220292
-0.218943
-0.217575
-0.216211
-0.214878
-0.213602
-0.212412
-0.21134
-0.21042
-0.209689
-0.209185
-0.208951
-0.209027
-0.209455
-0.210276
-0.211525
-0.213237
-0.215434
-0.218149
-0.221351
-0.225163
-0.229279
-0.234345
-0.238968
-0.245663
-0.249923
-0.2276
-0.227865
-0.227848
-0.227597
-0.227141
-0.226485
-0.225636
-0.22461
-0.223426
-0.22211
-0.220689
-0.21919
-0.217642
-0.216074
-0.214514
-0.212991
-0.211536
-0.21018
-0.208958
-0.207904
-0.207056
-0.206454
-0.206136
-0.206142
-0.206508
-0.207268
-0.208449
-0.210074
-0.212154
-0.214701
-0.217696
-0.221183
-0.225033
-0.229559
-0.234104
-0.240104
-0.244757
-0.22784
-0.228176
-0.228165
-0.227879
-0.227363
-0.226624
-0.225675
-0.224532
-0.223219
-0.221763
-0.220193
-0.21854
-0.216836
-0.215113
-0.213401
-0.211732
-0.21014
-0.208658
-0.20732
-0.206163
-0.205224
-0.204541
-0.204149
-0.204082
-0.204369
-0.205033
-0.20609
-0.207544
-0.209394
-0.211624
-0.214225
-0.217161
-0.220451
-0.224071
-0.228098
-0.232889
-0.23813
-0.442921
-0.451345
-0.45874
-0.465009
-0.470097
-0.473921
-0.476443
-0.477621
-0.477439
-0.475887
-0.472962
-0.468656
-0.46295
-0.455816
-0.447211
-0.437087
-0.425389
-0.412063
-0.397056
-0.380322
-0.36183
-0.341575
-0.319585
-0.295925
-0.270639
-0.243914
-0.215883
-0.186881
-0.157361
-0.128008
-0.0990593
-0.071426
-0.0457965
-0.0229051
-0.00330789
0.0127004
0.0251286
0.0342823
0.0406231
0.0446562
0.0468688
0.0477015
0.0475236
0.0466212
0.0452109
0.0434586
0.0414886
0.0393936
0.0372414
0.0350831
0.0329546
0.0308821
0.0288824
0.026967
0.0251406
0.0234065
0.0217623
0.0202071
0.0187352
0.0173445
0.0160291
0.0147878
0.0136162
0.0125146
0.0114811
0.0105164
0.00962013
0.0087929
0.00803439
0.00734244
0.00671595
0.00614964
0.00564223
0.00518402
0.00477457
0.00440166
0.00406711
0.00375615
0.0034741
0.00320487
0.0029603
0.00272104
0.00250198
0.00227773
0.00206689
0.00184185
0.00162821
0.00139531
0.00117491
0.000927683
0.000693788
0.000419354
0.000161711
-0.421952
-0.430987
-0.439177
-0.446486
-0.452815
-0.458065
-0.462164
-0.465044
-0.466661
-0.466978
-0.46597
-0.463605
-0.459841
-0.454625
-0.447892
-0.439569
-0.429587
-0.417892
-0.404424
-0.389131
-0.371981
-0.352959
-0.332094
-0.30949
-0.285042
-0.258999
-0.231238
-0.202285
-0.173066
-0.143328
-0.113918
-0.0856412
-0.0593045
-0.0356741
-0.0153231
0.00146347
0.0147148
0.0247318
0.031965
0.036904
0.0400129
0.0417035
0.0423218
0.0421414
0.0413741
0.0401872
0.0387106
0.0370432
0.0352594
0.0334166
0.0315575
0.0297142
0.0279088
0.0261576
0.02447
0.0228525
0.0213067
0.019834
0.0184316
0.0170992
0.0158329
0.0146324
0.013495
0.0124217
0.0114116
0.0104661
0.00958555
0.00877121
0.00802307
0.00733968
0.00671994
0.00615931
0.00565617
0.00520178
0.00479496
0.00442468
0.00409172
0.00378262
0.00350131
0.00323311
0.00298836
0.00274934
0.0025295
0.00230492
0.0020926
0.00186641
0.00165017
0.00141529
0.00119118
0.000941527
0.000702949
0.000425989
0.000162509
-0.401984
-0.411691
-0.420814
-0.429251
-0.43692
-0.443683
-0.449445
-0.454102
-0.45758
-0.45981
-0.460746
-0.460339
-0.458525
-0.455222
-0.450334
-0.443763
-0.435423
-0.425268
-0.413234
-0.399252
-0.38329
-0.365323
-0.345375
-0.323777
-0.299846
-0.274129
-0.246365
-0.218152
-0.188558
-0.158432
-0.128495
-0.0995983
-0.0726155
-0.0483368
-0.0273249
-0.00983211
0.00419831
0.015065
0.023197
0.0290551
0.033072
0.0356295
0.037051
0.0375992
0.0374809
0.0368627
0.0358805
0.0346412
0.0332268
0.031701
0.030113
0.0285007
0.0268917
0.025307
0.0237603
0.0222617
0.0208163
0.0194281
0.0180973
0.0168252
0.01561
0.0144526
0.0133518
0.0123092
0.0113249
0.010401
0.00953845
0.00873891
0.00800278
0.00732922
0.00671721
0.00616297
0.00566458
0.00521434
0.00481038
0.00444289
0.00411163
0.00380454
0.00352414
0.00325725
0.00301252
0.00277408
0.00255363
0.00232913
0.00211562
0.00188878
0.0016703
0.00143389
0.00120637
0.000954633
0.000711585
0.000432359
0.000163134
-0.384008
-0.394394
-0.404549
-0.414154
-0.423203
-0.431501
-0.438932
-0.445359
-0.450671
-0.45477
-0.457582
-0.459036
-0.45906
-0.457551
-0.45439
-0.449436
-0.442566
-0.433799
-0.423059
-0.410232
-0.395293
-0.378254
-0.35892
-0.338424
-0.313798
-0.288667
-0.261848
-0.233291
-0.203465
-0.172939
-0.142496
-0.11305
-0.0855221
-0.0607052
-0.0391299
-0.0210049
-0.0062461
0.00543908
0.0144506
0.0212122
0.0261216
0.0295312
0.0317435
0.0330108
0.0335375
0.0334879
0.0329997
0.032188
0.0311431
0.0299355
0.0286205
0.0272414
0.0258315
0.024416
0.0230131
0.0216362
0.0202941
0.018993
0.0177362
0.0165266
0.0153647
0.0142525
0.0131903
0.0121804
0.011224
0.0103236
0.00948067
0.00869742
0.00797462
0.00731194
0.00670853
0.00616128
0.00566814
0.00522234
0.0048215
0.00445694
0.00412751
0.00382256
0.00354321
0.00327784
0.00303333
0.0027957
0.00257481
0.00235068
0.00213622
0.00190913
0.00168874
0.0014512
0.00122057
0.000967047
0.000719745
0.000438478
0.000163612
-0.368566
-0.379575
-0.390749
-0.401487
-0.411859
-0.421618
-0.430629
-0.438722
-0.445758
-0.451613
-0.456174
-0.459324
-0.460983
-0.461079
-0.459479
-0.455984
-0.450336
-0.442791
-0.433241
-0.421499
-0.407407
-0.39125
-0.371386
-0.351017
-0.327988
-0.303245
-0.276419
-0.247702
-0.217556
-0.186623
-0.155735
-0.125848
-0.0979029
-0.0726709
-0.0506327
-0.0319494
-0.0165159
-0.0040531
0.00580332
0.0134362
0.0192074
0.0234412
0.026421
0.0283888
0.029547
0.0300611
0.0300669
0.0296827
0.0290073
0.0281188
0.0270786
0.0259353
0.0247273
0.023484
0.022228
0.020976
0.01974
0.0185291
0.017349
0.0162045
0.0150983
0.0140335
0.013012
0.0120367
0.01111
0.0102346
0.00941292
0.00864728
0.007939
0.00728815
0.00669418
0.00615452
0.00566714
0.00522612
0.00482869
0.00446722
0.00413982
0.00383709
0.00355897
0.00329526
0.00305114
0.0028145
0.0025933
0.00236976
0.00215455
0.00192755
0.00170553
0.00146722
0.00123377
0.000978752
0.000727422
0.000444325
0.000163942
-0.355632
-0.367169
-0.379246
-0.391025
-0.402587
-0.413666
-0.424097
-0.433686
-0.44227
-0.449708
-0.455851
-0.460531
-0.463637
-0.465119
-0.46493
-0.462849
-0.458038
-0.451626
-0.443207
-0.432461
-0.418825
-0.402643
-0.382732
-0.364193
-0.34161
-0.316976
-0.29004
-0.26108
-0.230607
-0.19931
-0.168071
-0.137877
-0.109657
-0.0841349
-0.0617334
-0.0425682
-0.0265219
-0.0133363
-0.00268582
0.00577097
0.0123606
0.017381
0.0210978
0.0237426
0.0255142
0.0265799
0.0270773
0.027122
0.0268173
0.0262493
0.0254859
0.0245811
0.0235779
0.0225102
0.0214044
0.0202806
0.0191541
0.0180365
0.0169361
0.0158595
0.0148115
0.0137964
0.0128176
0.0118789
0.0109835
0.0101347
0.00933569
0.00858889
0.00789623
0.00725812
0.00667438
0.00614293
0.00566185
0.00522596
0.00483229
0.0044741
0.00414894
0.00384851
0.00357179
0.00330985
0.00306629
0.00283077
0.0026094
0.00238659
0.0021708
0.00194413
0.00172077
0.00148198
0.00124601
0.000989736
0.000734617
0.000449889
0.000164135
-0.344732
-0.35671
-0.369502
-0.3822
-0.394783
-0.407004
-0.418668
-0.42956
-0.439493
-0.448316
-0.455856
-0.461893
-0.466303
-0.468999
-0.470071
-0.46977
-0.464759
-0.459748
-0.452275
-0.442431
-0.429842
-0.413334
-0.398556
-0.376917
-0.354363
-0.329567
-0.302425
-0.273212
-0.242446
-0.210872
-0.179417
-0.149071
-0.120724
-0.0950386
-0.072373
-0.0528057
-0.036216
-0.0223719
-0.0109878
-0.00176277
0.00559612
0.0113616
0.0157819
0.0190782
0.0214442
0.023047
0.0240276
0.0245019
0.0245708
0.0243256
0.0238416
0.0231781
0.022383
0.0214942
0.020542
0.0195499
0.0185363
0.0175151
0.0164975
0.0154916
0.0145045
0.0135415
0.0126077
0.0117073
0.0108451
0.0100244
0.00924933
0.00852255
0.00784656
0.00722206
0.00664935
0.00612672
0.00565248
0.00522211
0.00483257
0.00447789
0.0041552
0.00385717
0.00358202
0.00332192
0.00307911
0.00284477
0.00262339
0.00240138
0.00218518
0.00195902
0.00173456
0.00149553
0.00125731
0.00100001
0.000741339
0.000455163
0.000164225
-0.335253
-0.347475
-0.360859
-0.374317
-0.38774
-0.400913
-0.413622
-0.425638
-0.436747
-0.446763
-0.45553
-0.462717
-0.468283
-0.47208
-0.474087
-0.474237
-0.471595
-0.467161
-0.460433
-0.451329
-0.439743
-0.426532
-0.408424
-0.388092
-0.365616
-0.340697
-0.31337
-0.283931
-0.252949
-0.221231
-0.189727
-0.159401
-0.13108
-0.10535
-0.0825168
-0.0626289
-0.0455704
-0.0311385
-0.0190872
-0.00915385
-0.00107782
0.00538935
0.0104788
0.0144004
0.0173417
0.0194674
0.0209201
0.0218197
0.0222653
0.0223467
0.0221451
0.021726
0.0211424
0.0204361
0.0196411
0.0187841
0.0178867
0.0169653
0.0160335
0.0151012
0.0141776
0.013269
0.0123823
0.0115224
0.0106949
0.00990386
0.00915404
0.00844843
0.00779014
0.00718013
0.00661922
0.00610602
0.0056392
0.00521475
0.00482975
0.0044788
0.00415886
0.00386335
0.00358994
0.00333174
0.00308986
0.00285677
0.00263551
0.00241435
0.00219788
0.00197234
0.00174701
0.00150792
0.00126772
0.00100957
0.000747615
0.000460119
0.000164241
-0.326066
-0.33888
-0.352608
-0.366697
-0.380792
-0.394723
-0.408277
-0.42122
-0.43332
-0.444361
-0.454143
-0.462436
-0.469083
-0.473921
-0.476858
-0.477838
-0.476507
-0.472946
-0.467001
-0.458433
-0.447009
-0.433719
-0.417035
-0.397434
-0.375128
-0.350168
-0.322701
-0.293108
-0.262037
-0.230349
-0.198994
-0.168872
-0.140724
-0.115066
-0.0921561
-0.0720284
-0.0545774
-0.0396305
-0.0269798
-0.0163989
-0.00765794
-0.000532172
0.00519224
0.00971325
0.0132109
0.0158459
0.0177605
0.0190772
0.0198989
0.0203113
0.0203963
0.0202252
0.0198566
0.0193362
0.0187021
0.0179837
0.0172059
0.0163875
0.0155445
0.0146887
0.013831
0.0129794
0.0121418
0.0113241
0.0105331
0.0097732
0.00904995
0.00836666
0.00772707
0.00713241
0.00658406
0.00608095
0.00562211
0.00520402
0.00482396
0.00447701
0.0041601
0.00386724
0.00359578
0.00333955
0.00309877
0.00286697
0.00264598
0.00242569
0.0022091
0.00198423
0.00175824
0.00151923
0.00127731
0.00101844
0.000753473
0.000464756
0.000164197
-0.316708
-0.330324
-0.344288
-0.358785
-0.373394
-0.387909
-0.402132
-0.415832
-0.42877
-0.440711
-0.451421
-0.460671
-0.468274
-0.47407
-0.477944
-0.479801
-0.479507
-0.476876
-0.471786
-0.463357
-0.453041
-0.440133
-0.424073
-0.404909
-0.382788
-0.357829
-0.330283
-0.300643
-0.269652
-0.23821
-0.207227
-0.177504
-0.149677
-0.124197
-0.101297
-0.081007
-0.0632386
-0.0478489
-0.0346656
-0.0234968
-0.0141419
-0.0063997
-7.38388e-05
0.0050209
0.00905598
0.0121871
0.0145542
0.0162806
0.0174727
0.0182184
0.018595
0.0186762
0.0185262
0.0181955
0.0177257
0.0171495
0.0164946
0.0157823
0.015031
0.0142544
0.0134653
0.0126728
0.0118864
0.0111129
0.0103599
0.0096326
0.00893719
0.00827734
0.00765743
0.00707898
0.00654395
0.00605155
0.00560128
0.00518999
0.00481529
0.00447266
0.00415907
0.00386901
0.0035997
0.00334552
0.00310602
0.00287554
0.00265498
0.00243556
0.00221899
0.00199482
0.00176838
0.0015295
0.00128614
0.00102662
0.000758943
0.000469101
0.000164103
-0.307375
-0.321421
-0.335578
-0.35029
-0.36524
-0.380177
-0.394895
-0.409174
-0.422778
-0.435461
-0.446978
-0.457098
-0.465612
-0.472333
-0.477118
-0.479862
-0.480506
-0.478763
-0.474408
-0.467331
-0.457447
-0.444888
-0.429248
-0.41043
-0.388484
-0.363567
-0.336027
-0.306478
-0.275762
-0.244807
-0.21444
-0.185318
-0.157961
-0.132763
-0.109952
-0.089574
-0.0715601
-0.0557971
-0.0421458
-0.0304464
-0.020527
-0.0122093
-0.00531479
0.000328304
0.00488194
0.00849569
0.0113062
0.0134356
0.0149925
0.0160685
0.0167406
0.0170792
0.017152
0.0170147
0.0167129
0.0162823
0.0157536
0.0151505
0.0144939
0.0137991
0.013081
0.0123498
0.0116166
0.010889
0.0101756
0.00948226
0.00881591
0.00818058
0.00758131
0.00701991
0.00649896
0.00601791
0.00557678
0.00517276
0.00480385
0.00446582
0.00415587
0.00386879
0.00360185
0.00334979
0.00311175
0.00288264
0.00266268
0.00244411
0.00222771
0.00200422
0.00177752
0.00153881
0.00129427
0.00103416
0.000764058
0.000473146
0.000164001
-0.298213
-0.312329
-0.326475
-0.341161
-0.356241
-0.371422
-0.386457
-0.401141
-0.415252
-0.428537
-0.440744
-0.451634
-0.460984
-0.468585
-0.474265
-0.477906
-0.479466
-0.478649
-0.474722
-0.468775
-0.459668
-0.447619
-0.432388
-0.413882
-0.392139
-0.367365
-0.339994
-0.310723
-0.280462
-0.250191
-0.220656
-0.192333
-0.165592
-0.140777
-0.118134
-0.0977379
-0.0795471
-0.0634775
-0.0494205
-0.0372459
-0.0268098
-0.0179567
-0.0105262
-0.00436024
0.000692734
0.0047752
0.00801954
0.0105458
0.0124626
0.0138646
0.0148322
0.015433
0.0157336
0.015794
0.0156641
0.0153828
0.0149837
0.014493
0.0139338
0.0133235
0.0126786
0.0120109
0.0113328
0.0106527
0.00998051
0.00932244
0.00868632
0.00807655
0.00749884
0.00695532
0.00644917
0.00598011
0.00554869
0.00515239
0.00478971
0.00445661
0.0041506
0.0038667
0.00360233
0.00335249
0.00311611
0.0028884
0.00266921
0.00245147
0.0022354
0.00201255
0.00178578
0.00154724
0.00130177
0.00104107
0.000768857
0.000476847
0.00016395
-0.289451
-0.303379
-0.317197
-0.331586
-0.346578
-0.361803
-0.376959
-0.391865
-0.406315
-0.420052
-0.432816
-0.444363
-0.454459
-0.462878
-0.469411
-0.473915
-0.47634
-0.476393
-0.473623
-0.468133
-0.45972
-0.4482
-0.433391
-0.415219
-0.393755
-0.369271
-0.342283
-0.313552
-0.283993
-0.254539
-0.225954
-0.198573
-0.172582
-0.148253
-0.125856
-0.10551
-0.0872093
-0.0708978
-0.0564953
-0.0438994
-0.0329932
-0.0236439
-0.0157092
-0.00904546
-0.00351204
0.00102556
0.00469453
0.00761197
0.00988527
0.0116103
0.0128708
0.0137364
0.0142701
0.0145327
0.0145787
0.0144506
0.0141848
0.0138097
0.013351
0.0128278
0.0122586
0.0116565
0.0110353
0.0104045
0.00977486
0.00915336
0.00854861
0.00796542
0.00741017
0.00688531
0.00639469
0.00593822
0.00551708
0.00512897
0.00477294
0.00444509
0.00414336
0.00386282
0.00360127
0.00335373
0.0031192
0.00289294
0.00267469
0.00245777
0.00224218
0.00201991
0.00179326
0.00155484
0.00130869
0.00104739
0.000773393
0.000480202
0.000164018
-0.281278
-0.294842
-0.307992
-0.321833
-0.336541
-0.351602
-0.366675
-0.38162
-0.396237
-0.410261
-0.423435
-0.435509
-0.446235
-0.455373
-0.462678
-0.467962
-0.471148
-0.471852
-0.470105
-0.465358
-0.45758
-0.446582
-0.432213
-0.41444
-0.393386
-0.369396
-0.343054
-0.315141
-0.286538
-0.258087
-0.23049
-0.20411
-0.178964
-0.155215
-0.133143
-0.112916
-0.0945687
-0.0780763
-0.0633846
-0.0504173
-0.0390838
-0.0292744
-0.0208647
-0.013726
-0.00772943
-0.00274908
0.00133616
0.00463966
0.00726684
0.00931321
0.0108649
0.0119943
0.0127645
0.0132336
0.0134589
0.013487
0.0133574
0.0131011
0.0127456
0.0123123
0.0118211
0.0112867
0.0107243
0.0101444
0.00955875
0.00897512
0.00840285
0.00784724
0.00731534
0.00680995
0.00633554
0.00589229
0.00548199
0.00510254
0.00475359
0.00443133
0.0041342
0.00385723
0.00359874
0.00335362
0.00312113
0.00289635
0.00267924
0.0024631
0.00224816
0.0020264
0.00180006
0.00156168
0.00131513
0.00105313
0.00077772
0.00048323
0.000164266
-0.273781
-0.286724
-0.298938
-0.31208
-0.326333
-0.341019
-0.355816
-0.370621
-0.38522
-0.399349
-0.41276
-0.4252
-0.436411
-0.446141
-0.454105
-0.46011
-0.46396
-0.464827
-0.464198
-0.460246
-0.453116
-0.442675
-0.428829
-0.411595
-0.391159
-0.367929
-0.342524
-0.315709
-0.28829
-0.261002
-0.23445
-0.209038
-0.184766
-0.161665
-0.139986
-0.11994
-0.101603
-0.0849846
-0.0700549
-0.0567627
-0.045043
-0.0348089
-0.0259545
-0.0183659
-0.0119262
-0.00651884
-0.00202923
0.00165165
0.00462669
0.00699034
0.00882954
0.0102198
0.0112261
0.0119048
0.0123122
0.0124984
0.0125066
0.0123705
0.0121202
0.0117785
0.0113672
0.0109023
0.0104003
0.00987281
0.00933251
0.00878795
0.00824921
0.00772216
0.00721445
0.00672929
0.00627179
0.00584239
0.00544348
0.00507316
0.00473173
0.00441539
0.0041232
0.00385003
0.00359485
0.00335224
0.003122
0.00289874
0.00268295
0.00246758
0.00225346
0.00203213
0.00180628
0.00156785
0.00132114
0.00105834
0.000781895
0.00048594
0.000164761
-0.266925
-0.278763
-0.289906
-0.302308
-0.315934
-0.330057
-0.344448
-0.358995
-0.373446
-0.387545
-0.401057
-0.413714
-0.425254
-0.435411
-0.443862
-0.450425
-0.454982
-0.457349
-0.456653
-0.453178
-0.44658
-0.436683
-0.423428
-0.40688
-0.387281
-0.365072
-0.340868
-0.315376
-0.289304
-0.263282
-0.237829
-0.213326
-0.189897
-0.167475
-0.146253
-0.126454
-0.108194
-0.091514
-0.0764097
-0.0628511
-0.0507987
-0.0401881
-0.0309312
-0.0229287
-0.0160759
-0.0102655
-0.00539025
-0.00134609
0.0019667
0.00464087
0.00676288
0.00841012
0.00965081
0.0105423
0.0111376
0.0114868
0.011636
0.0116226
0.011479
0.0112305
0.0109004
0.0105063
0.0100659
0.00959185
0.00909786
0.0085933
0.00808891
0.00759118
0.00710835
0.00664407
0.00620403
0.005789
0.00540196
0.0050412
0.00470766