/*--------------------------------*- C++ -*----------------------------------*\
| =========                 |                                                 |
| \\      /  F ield         | OpenFOAM: The Open Source CFD Toolbox           |
|  \\    /   O peration     | Version:  2312                                  |
|   \\  /    A nd           | Website:  www.openfoam.com                      |
|    \\/     M anipulation  |                                                 |
\*---------------------------------------------------------------------------*/
FoamFile
{
    version     2.0;
    format      ascii;
    arch        "LSB;label=32;scalar=64";
    class       volVectorField;
    location    "174.95";
    object      U;
}
// * * * * * * * * * * * * * * * * * * * * * * * * * * * * * * * * * * * * * //

dimensions      [0 1 -1 0 0 0 0];

internalField   nonuniform List<vector> 
5478
(
(-0.0422826 0.0283282 -1.24371e-19)
(-0.0563933 0.0436068 0)
(0.00625949 0.0375089 1.8613e-19)
(0.164266 0.0170964 -3.25866e-19)
(0.416065 -0.00776204 2.12953e-19)
(0.714465 -0.0296101 -6.32362e-20)
(0.996505 -0.0474357 -1.10056e-19)
(1.21457 -0.0637425 0)
(1.34713 -0.0821008 0)
(1.39582 -0.103838 1.36332e-19)
(1.38637 -0.126647 -6.44161e-20)
(1.3504 -0.146552 -1.00852e-19)
(1.30842 -0.171436 -3.75468e-20)
(1.28049 -0.167545 0)
(1.23072 -0.212734 8.91642e-20)
(-0.0480311 0.0289308 2.49779e-19)
(-0.0300557 0.0294179 0)
(0.108943 0.00918976 0)
(0.379686 -0.0115229 -1.6471e-19)
(0.71655 -0.0220044 2.16734e-19)
(1.02311 -0.0250868 6.22158e-20)
(1.24114 -0.0277788 -1.04929e-19)
(1.35812 -0.0357384 9.30532e-20)
(1.39343 -0.0499319 2.24736e-19)
(1.38282 -0.0684243 -1.95684e-19)
(1.3579 -0.0856385 4.47945e-21)
(1.3307 -0.104085 0)
(1.30602 -0.113006 3.74799e-20)
(1.27099 -0.124043 0)
(1.23463 -0.135198 0)
(-0.0449521 0.0246579 -6.80142e-22)
(0.0299085 0.0107464 -1.17171e-19)
(0.284515 -0.00939581 8.03777e-22)
(0.660428 -0.0106986 0)
(1.00709 -0.00105408 -7.28108e-20)
(1.24047 0.00656792 6.12268e-20)
(1.35582 0.00563199 5.11786e-20)
(1.38913 -0.0034743 0)
(1.38344 -0.0172144 -7.47884e-20)
(1.36621 -0.0309116 6.23383e-20)
(1.34395 -0.0453184 5.15498e-20)
(1.31838 -0.0550932 0)
(1.28531 -0.0684732 0)
(1.25498 -0.0729981 -1.01041e-19)
(1.22247 -0.0871997 9.00409e-20)
(-0.0297171 0.0148884 -1.36704e-19)
(0.137448 -0.0103006 1.15621e-19)
(0.526253 -0.00685922 -9.98534e-20)
(0.935691 0.018559 8.73877e-20)
(1.21361 0.0387387 1.45665e-19)
(1.35 0.045207 -1.21477e-19)
(1.39381 0.040703 -5.11545e-20)
(1.39428 0.0306745 3.96635e-20)
(1.3783 0.0191031 -3.79432e-20)
(1.35416 0.00620149 0)
(1.32662 -0.00511567 0)
(1.29732 -0.0186521 -7.26452e-20)
(1.27218 -0.0266295 9.38084e-20)
(1.24723 -0.0360192 -5.25969e-20)
(1.22285 -0.0460463 0)
(0.00260897 0.00181121 6.91885e-20)
(0.302871 -0.018196 5.83513e-20)
(0.783031 0.0246082 -2.08874e-19)
(1.14543 0.0660551 2.93867e-21)
(1.33215 0.0848928 -2.55895e-21)
(1.39848 0.0863659 -1.9059e-21)
(1.40484 0.0790356 4.81311e-20)
(1.38664 0.0681634 4.08669e-20)
(1.36002 0.055532 2.93999e-20)
(1.33316 0.0433108 -4.56375e-21)
(1.30799 0.030545 -6.70365e-20)
(1.28535 0.0207523 0)
(1.26123 0.0106738 2.99093e-20)
(1.23672 0.000631348 -2.19406e-20)
(1.21224 -0.00515693 3.9819e-20)
(0.0589265 -0.00935452 -1.48399e-19)
(0.51075 0.00451041 1.60572e-19)
(0.999942 0.0784242 -5.46434e-20)
(1.28276 0.122123 4.11681e-20)
(1.39423 0.134552 -7.56587e-20)
(1.41414 0.130238 -5.61102e-20)
(1.39722 0.119226 1.52043e-21)
(1.37062 0.106061 0)
(1.34452 0.0928004 5.97961e-20)
(1.31964 0.0794887 -5.31752e-20)
(1.29524 0.0675498 2.1253e-20)
(1.26998 0.0552647 0)
(1.24608 0.0446146 1.30981e-20)
(1.22392 0.0346503 -2.27328e-20)
(1.20265 0.0277797 0)
(0.141802 -0.00964502 -1.85671e-20)
(0.716656 0.0599993 1.37662e-21)
(1.16111 0.146459 2.69911e-20)
(1.36396 0.183678 4.46245e-20)
(1.41773 0.186986 -3.39447e-20)
(1.40869 0.176087 5.71259e-20)
(1.38191 0.161408 -1.2943e-20)
(1.35306 0.146165 0)
(1.32493 0.130775 -3.52907e-20)
(1.29832 0.116119 2.29083e-21)
(1.27359 0.101804 2.95134e-20)
(1.25163 0.089172 0)
(1.23115 0.0775015 -1.91609e-20)
(1.21129 0.0662406 0)
(1.19283 0.0609171 1.17213e-20)
(0.245233 0.00800044 -2.00096e-20)
(0.887375 0.136655 0)
(1.26755 0.223285 2.77784e-20)
(1.40114 0.248774 0)
(1.4156 0.241426 0)
(1.3909 0.224046 0)
(1.35877 0.20516 -1.1093e-20)
(1.32803 0.186342 0)
(1.30076 0.168268 7.12597e-21)
(1.27651 0.151197 0)
(1.25432 0.135628 -9.26274e-21)
(1.23287 0.120873 0)
(1.21248 0.107138 6.05631e-21)
(1.19394 0.0955453 0)
(1.17634 0.0877573 3.95299e-21)
(-0.0057276 0.206181 -1.44198e-20)
(-0.0197126 0.363743 0)
(-0.0477488 0.39869 2.26165e-20)
(-0.076579 0.391669 0)
(-0.100961 0.37302 0)
(-0.118259 0.344254 0)
(-0.126797 0.300673 -1.61549e-20)
(-0.126144 0.239116 0)
(-0.116826 0.158578 1.4178e-20)
(-0.100432 0.0592873 0)
(-0.0775677 -0.0563774 -2.4104e-20)
(-0.0472638 -0.185361 0)
(-0.00371859 -0.319935 1.87972e-20)
(0.0311574 -0.456744 0)
(0.100939 -0.573754 1.28009e-20)
(-0.0159069 0.195132 7.33152e-20)
(-0.0254007 0.370476 -5.24429e-20)
(-0.0328277 0.420174 2.41239e-20)
(-0.0372439 0.416589 8.44654e-20)
(-0.0347335 0.393717 1.63429e-21)
(-0.0227303 0.35778 -7.09188e-20)
(-0.000197411 0.30647 4.83303e-20)
(0.032335 0.237644 0)
(0.0725128 0.150755 4.55717e-20)
(0.11783 0.0460453 2.04585e-21)
(0.169108 -0.0726713 -2.50397e-20)
(0.223741 -0.209032 0)
(0.299455 -0.34507 -5.77035e-20)
(0.349443 -0.494266 0)
(0.451807 -0.604516 -6.17311e-20)
(-0.0229948 0.164089 1.2111e-19)
(-0.0308042 0.344952 2.63218e-20)
(-0.0188441 0.411242 -4.66252e-20)
(0.00130291 0.414851 -1.28196e-19)
(0.03054 0.390272 7.60819e-20)
(0.0703097 0.349315 7.34946e-20)
(0.120612 0.293359 -1.31025e-19)
(0.179683 0.221945 0)
(0.24367 0.134358 -1.19745e-19)
(0.312702 0.0309769 1.06468e-19)
(0.389567 -0.0833291 4.89157e-20)
(0.470971 -0.225686 0)
(0.575663 -0.35916 3.88839e-20)
(0.641047 -0.514363 -6.29073e-20)
(0.760817 -0.615847 0)
(-0.0256829 0.121364 6.13184e-20)
(-0.0364758 0.289851 -1.60912e-19)
(-0.0121366 0.368683 1.89413e-19)
(0.0274427 0.382178 -1.67059e-19)
(0.0789355 0.359781 -7.51232e-20)
(0.141253 0.316883 6.86457e-20)
(0.212847 0.259052 6.58835e-20)
(0.291262 0.187382 5.89504e-20)
(0.375625 0.104334 -1.70071e-19)
(0.471737 0.00474451 -3.57998e-21)
(0.580775 -0.104581 4.55026e-20)
(0.705863 -0.246901 0)
(0.83987 -0.364111 7.01316e-20)
(0.930813 -0.513717 1.77096e-19)
(1.03856 -0.567074 -1.01555e-19)
(-0.0247695 0.0792792 -3.36178e-23)
(-0.0416711 0.217998 1.06691e-19)
(-0.0146854 0.297574 -9.28763e-20)
(0.0353377 0.318034 8.33755e-20)
(0.101524 0.300017 1.4782e-19)
(0.179941 0.25899 -1.34435e-19)
(0.267639 0.20265 -6.03511e-20)
(0.366677 0.134979 -1.76148e-19)
(0.48241 0.055905 1.5892e-19)
(0.622603 -0.0427732 0)
(0.780477 -0.148867 0)
(0.949046 -0.277798 1.5345e-19)
(1.08967 -0.372459 -3.3456e-19)
(1.18151 -0.486072 1.13908e-19)
(1.22341 -0.510684 0)
(-0.0233685 0.0478401 7.93611e-22)
(-0.0466132 0.14807 -1.05375e-19)
(-0.0244199 0.213616 2.77942e-19)
(0.0275343 0.232456 -8.10585e-20)
(0.101694 0.216867 -7.27542e-20)
(0.195168 0.179373 6.58405e-20)
(0.311454 0.127196 6.03886e-20)
(0.456917 0.0629598 1.1067e-19)
(0.633869 -0.0164638 -1.95448e-19)
(0.832514 -0.104538 8.76929e-20)
(1.03019 -0.199119 7.72984e-20)
(1.19429 -0.287776 0)
(1.29705 -0.357593 0)
(1.32578 -0.421799 1.7628e-19)
(1.2915 -0.422632 -1.5673e-19)
(-0.0254557 0.0308603 1.63527e-23)
(-0.0535453 0.0945615 0)
(-0.0366401 0.135968 0)
(0.0185099 0.144366 1.59269e-19)
(0.111252 0.126198 -7.04558e-20)
(0.247468 0.0897756 6.24678e-20)
(0.430896 0.0403955 1.15472e-19)
(0.652175 -0.0178946 -1.02376e-19)
(0.887798 -0.0828572 9.72827e-20)
(1.105 -0.145425 -8.7779e-20)
(1.2724 -0.208328 -8.08503e-21)
(1.36445 -0.259665 0)
(1.38521 -0.297685 4.7428e-20)
(1.33499 -0.334868 0)
(1.27838 -0.318388 0)
(-0.0327739 0.0265022 -1.21375e-19)
(-0.0604515 0.0616362 0)
(-0.0357851 0.0770433 -1.8318e-19)
(0.0478732 0.0701053 3.20895e-19)
(0.201058 0.0453757 -3.51639e-19)
(0.422404 0.0107653 -6.36052e-20)
(0.685159 -0.0274773 1.1094e-19)
(0.948093 -0.0661358 0)
(1.17032 -0.103211 0)
(1.32402 -0.138788 -1.50613e-19)
(1.39363 -0.175419 -6.18883e-20)
(1.39589 -0.200066 1.12786e-19)
(1.34715 -0.234318 -4.75296e-20)
(1.28992 -0.242315 0)
(1.24591 -0.252352 -1.05154e-19)
(0.155303 -0.727464 0)
(0.146914 -0.848563 3.1717e-21)
(0.0118208 -0.842353 -2.92897e-21)
(0.212492 -0.418637 0)
(0.47153 0.0921656 0)
(0.685145 0.505119 -9.0595e-23)
(0.754465 0.59849 0)
(0.808124 0.6023 0)
(0.676272 0.718329 6.3079e-23)
(0.565233 0.537549 0)
(0.670495 0.191073 0)
(0.885691 -0.192331 -1.25476e-22)
(0.938144 -0.319482 0)
(0.954088 -0.464969 -9.60287e-23)
(0.962608 -0.62838 -7.89916e-23)
(0.969078 -0.404055 0)
(0.953742 -0.263363 -5.83293e-22)
(1.01313 0.186337 7.13301e-22)
(1.03366 0.494644 0)
(1.04049 0.473571 4.46234e-22)
(1.07289 0.482071 -5.6316e-22)
(1.08152 -0.0661899 1.09921e-22)
(1.0819 -0.456971 -2.12285e-22)
(1.0861 -0.418714 2.02844e-22)
(1.10594 -0.392445 -2.34441e-22)
(1.16675 0.311112 0)
(1.13623 0.764729 -2.5384e-22)
(1.13836 0.0321965 2.42706e-22)
(1.04121 -0.506331 -1.46619e-22)
(1.03765 -0.101448 0)
(1.0164 0.199038 -9.51747e-23)
(0.990497 0.0522966 0)
(0.98191 -0.0463433 -3.9445e-23)
(0.976772 -0.00999414 -1.22951e-23)
(0.976844 0.0106624 1.25983e-24)
(0.971942 0.00387715 -8.86123e-24)
(0.971439 0.00154285 0)
(0.969526 0.00281018 2.41493e-24)
(0.474164 -0.727241 2.26167e-20)
(0.451036 -0.762558 -1.01667e-22)
(0.195896 -0.795343 -7.71124e-21)
(0.115091 -0.533454 7.35514e-21)
(0.313981 -0.0653152 0)
(0.552344 0.402502 9.13125e-23)
(0.701868 0.546009 -1.17208e-22)
(0.752876 0.618747 0)
(0.631731 0.777504 -6.35598e-23)
(0.584685 0.54626 0)
(0.715321 0.120557 0)
(0.923225 -0.250505 1.26367e-22)
(0.986267 -0.339816 0)
(1.00792 -0.468156 3.01101e-21)
(0.978147 -0.640251 -2.53593e-21)
(1.00421 -0.406677 2.23861e-21)
(0.958649 -0.27301 -2.13692e-21)
(0.986971 0.16782 -1.57334e-22)
(1.02477 0.478701 0)
(0.999044 0.463654 0)
(1.06199 0.475364 -1.02041e-22)
(1.09238 -0.0562737 1.0202e-21)
(1.07945 -0.458329 -1.70159e-21)
(1.10788 -0.421182 8.02761e-22)
(1.08395 -0.402287 7.51001e-22)
(1.13577 0.30354 0)
(1.14259 0.75862 5.03648e-22)
(1.15765 0.0475069 0)
(1.05036 -0.499538 1.47128e-22)
(1.02905 -0.101548 -2.44085e-22)
(1.01366 0.200631 4.26118e-22)
(0.9955 0.054883 -4.32225e-23)
(0.986872 -0.0454206 7.4269e-23)
(0.98047 -0.00968192 2.76225e-24)
(0.980002 0.010947 1.52017e-23)
(0.976073 0.00418019 -7.41377e-24)
(0.975409 0.00164527 -6.60599e-25)
(0.97439 0.00289492 6.42458e-25)
(0.723979 -0.741793 3.10602e-20)
(0.714518 -0.688952 -4.86074e-20)
(0.529642 -0.664477 6.95388e-21)
(0.235225 -0.574947 1.07588e-20)
(0.290818 -0.245584 7.4751e-23)
(0.50381 0.254875 -5.60099e-23)
(0.694536 0.491175 1.19236e-22)
(0.721563 0.640248 -2.43683e-22)
(0.624401 0.818887 0)
(0.643435 0.556922 1.16682e-20)
(0.800565 0.0762237 -1.11275e-20)
(0.973375 -0.29614 -3.06145e-22)
(1.02751 -0.351408 0)
(1.04221 -0.446949 -5.95051e-21)
(0.969363 -0.638229 5.50855e-21)
(1.02289 -0.413252 -2.36632e-21)
(0.96345 -0.279015 2.25802e-21)
(0.958304 0.150152 2.90944e-21)
(1.01185 0.471609 -2.45016e-21)
(0.962159 0.459558 0)
(1.04893 0.466778 0)
(1.09944 -0.0385828 1.63109e-21)
(1.07359 -0.450351 -1.55701e-21)
(1.12083 -0.420664 -1.88798e-21)
(1.05241 -0.410775 -5.93597e-22)
(1.09811 0.287667 2.32085e-21)
(1.14384 0.752731 -3.11722e-23)
(1.16984 0.0717444 -5.8671e-22)
(1.05447 -0.482976 1.36865e-21)
(1.01641 -0.101703 -1.12818e-21)
(1.00761 0.20094 5.20366e-23)
(0.997213 0.0581519 -1.43241e-22)
(0.98862 -0.0436886 5.21013e-23)
(0.981236 -0.00924319 -4.98161e-23)
(0.980095 0.0112081 -1.00745e-23)
(0.977235 0.00446894 -4.93397e-24)
(0.976384 0.00172208 1.56946e-23)
(0.976282 0.00292885 2.4374e-24)
(0.958657 -0.701197 0)
(0.858208 -0.663584 1.76444e-20)
(0.785589 -0.53075 -1.73546e-20)
(0.512385 -0.4791 0)
(0.378598 -0.36935 -7.68263e-23)
(0.532658 0.0693096 5.75497e-23)
(0.739683 0.402043 0)
(0.706186 0.628761 1.92388e-23)
(0.612069 0.842384 -2.70459e-22)
(0.703052 0.57544 0)
(0.895555 0.0610517 -1.17988e-20)
(1.0313 -0.324799 1.15611e-20)
(1.06912 -0.363698 -4.6626e-22)
(1.08635 -0.418948 -5.99824e-21)
(0.974769 -0.629998 5.71916e-21)
(1.0376 -0.43114 2.89462e-22)
(0.973126 -0.286794 0)
(0.939197 0.118835 -3.4971e-22)
(0.990301 0.445694 4.03176e-21)
(0.918797 0.447023 -9.53687e-22)
(1.02533 0.456433 -1.68317e-22)
(1.09869 -0.0194743 -2.17828e-21)
(1.06822 -0.44022 -2.7666e-21)
(1.12328 -0.420608 3.35752e-21)
(1.01636 -0.415238 -5.63145e-22)
(1.05523 0.256824 0)
(1.13111 0.729566 -4.8394e-22)
(1.17144 0.091834 5.94445e-22)
(1.05513 -0.463747 -1.33526e-21)
(1.00076 -0.104718 1.09288e-21)
(0.997937 0.198143 -1.96734e-22)
(0.995237 0.0607248 0)
(0.987139 -0.0418507 -5.15261e-23)
(0.979193 -0.00894383 9.68094e-23)
(0.977295 0.0113557 3.16282e-23)
(0.975542 0.00470534 2.97384e-23)
(0.974499 0.00176108 -1.57057e-23)
(0.975291 0.00291071 3.88503e-27)
(1.13305 -0.58841 4.70498e-22)
(0.95964 -0.606359 6.87966e-22)
(0.861199 -0.489589 0)
(0.731865 -0.355558 0)
(0.547417 -0.373135 0)
(0.545484 -0.110145 0)
(0.748929 0.316661 6.33149e-21)
(0.7184 0.616445 -1.40642e-20)
(0.65355 0.826109 8.26821e-21)
(0.768368 0.570134 0)
(0.979945 0.0596024 -1.17698e-20)
(1.09538 -0.332392 1.15771e-20)
(1.10014 -0.371499 7.52659e-21)
(1.11292 -0.385064 -6.34426e-21)
(0.984719 -0.609169 5.32064e-21)
(1.03878 -0.452635 -5.36887e-21)
(0.978077 -0.296083 -3.34482e-22)
(0.914721 0.0963185 -5.54797e-21)
(0.963744 0.441597 5.28738e-21)
(0.887708 0.443247 3.66996e-22)
(1.00415 0.44482 2.723e-22)
(1.0941 0.0023231 2.29218e-21)
(1.06454 -0.42448 -2.50955e-21)
(1.11405 -0.415727 -7.16124e-22)
(0.976314 -0.420183 -5.98138e-22)
(1.00582 0.224025 -7.17083e-22)
(1.11624 0.717695 0)
(1.16605 0.121712 0)
(1.05257 -0.43801 0)
(0.983071 -0.107292 0)
(0.986186 0.194906 4.85131e-22)
(0.990479 0.0638294 -2.7234e-22)
(0.983034 -0.039409 1.01578e-22)
(0.974773 -0.0085108 -2.93701e-22)
(0.971982 0.0115009 3.20372e-23)
(0.971282 0.00492842 5.70271e-24)
(0.970062 0.00178384 -1.95799e-23)
(0.971659 0.00285073 -6.09354e-24)
(1.17266 -0.492556 -4.95547e-22)
(1.03746 -0.493309 3.62113e-20)
(0.862153 -0.460595 -3.48241e-20)
(0.791779 -0.32435 -1.28415e-20)
(0.728001 -0.317236 1.22291e-20)
(0.591004 -0.223773 6.36455e-21)
(0.688705 0.177503 -5.8785e-21)
(0.627344 0.556474 1.92478e-22)
(0.570637 0.814689 -2.51811e-22)
(0.744895 0.593832 0)
(1.02457 0.100227 -4.0147e-22)
(1.15591 -0.305393 1.8885e-20)
(1.13605 -0.364521 -1.79771e-20)
(1.13814 -0.347605 -3.83929e-22)
(1.01267 -0.57917 0)
(1.03312 -0.475396 -5.64315e-21)
(0.978715 -0.30717 1.15633e-20)
(0.897914 0.0559476 -5.43335e-21)
(0.933894 0.40393 0)
(0.84799 0.429018 2.23039e-21)
(0.970691 0.437912 -7.10861e-22)
(1.08241 0.0296225 -1.95471e-21)
(1.06424 -0.405073 -3.08419e-21)
(1.09617 -0.408978 2.95522e-21)
(0.938696 -0.421297 -5.5168e-21)
(0.956714 0.178012 4.8728e-22)
(1.08437 0.684529 4.96527e-21)
(1.14728 0.145366 -1.31718e-21)
(1.04764 -0.413095 1.25232e-21)
(0.964293 -0.112269 -5.2582e-22)
(0.97152 0.188428 5.00023e-22)
(0.982544 0.0661866 0)
(0.976526 -0.036972 9.98235e-23)
(0.968339 -0.00824768 -1.21724e-23)
(0.96458 0.0115371 0)
(0.964841 0.00508596 -2.83575e-23)
(0.963507 0.00177034 1.28767e-23)
(0.965754 0.00274917 -2.35621e-24)
(1.15808 -0.392915 0)
(1.06428 -0.402546 0)
(0.913579 -0.391499 -1.17599e-22)
(0.792857 -0.318563 0)
(0.805942 -0.284845 0)
(0.691401 -0.255111 4.28248e-21)
(0.632677 0.0963954 -4.06959e-21)
(0.572061 0.511919 1.16184e-20)
(0.582427 0.747286 -1.11097e-20)
(0.789737 0.536962 0)
(1.08126 0.0885158 -3.24154e-22)
(1.20266 -0.293658 3.06352e-22)
(1.16252 -0.364603 -1.46003e-20)
(1.14864 -0.316983 2.07255e-21)
(1.03656 -0.543099 1.10066e-20)
(1.02157 -0.488878 1.65376e-22)
(0.966784 -0.326202 -1.79211e-22)
(0.873715 0.0347299 1.17537e-20)
(0.897893 0.40313 -1.15675e-20)
(0.819703 0.423745 0)
(0.950575 0.423547 0)
(1.07332 0.0507369 -9.85831e-23)
(1.06631 -0.381815 0)
(1.0747 -0.394036 3.90011e-21)
(0.905539 -0.424651 2.33405e-21)
(0.902855 0.137612 -5.2855e-21)
(1.05674 0.672487 -2.92835e-21)
(1.12742 0.17538 1.9102e-21)
(1.04249 -0.384123 -1.31016e-22)
(0.946563 -0.115692 0)
(0.956796 0.183096 -2.68739e-22)
(0.973142 0.0687517 2.54778e-22)
(0.96855 -0.0343833 5.22081e-23)
(0.960538 -0.00780686 2.69739e-23)
(0.955707 0.0116689 -4.46643e-23)
(0.956744 0.00525946 9.5317e-24)
(0.955371 0.00176605 0)
(0.95804 0.00262718 4.80429e-24)
(1.17337 -0.311833 6.4505e-20)
(1.09099 -0.3382 4.15298e-20)
(0.989738 -0.34612 -1.12362e-20)
(0.864853 -0.313424 -4.41459e-20)
(0.814144 -0.297626 1.65519e-20)
(0.747311 -0.310891 -4.29469e-23)
(0.619176 -0.0515601 0)
(0.46574 0.379558 -7.44236e-23)
(0.425551 0.705977 -7.81302e-23)
(0.690108 0.581901 0)
(1.08177 0.168375 -1.98043e-20)
(1.23823 -0.219293 1.88401e-20)
(1.1923 -0.336783 2.5671e-22)
(1.16529 -0.282706 1.13376e-20)
(1.05888 -0.497995 -1.0772e-20)
(1.01148 -0.488164 1.53671e-22)
(0.947614 -0.341658 1.90522e-22)
(0.843885 -0.0263367 0)
(0.856195 0.349771 8.75071e-21)
(0.783554 0.40666 -8.29396e-21)
(0.906621 0.421547 -1.82249e-21)
(1.06002 0.0893671 -1.17325e-23)
(1.07171 -0.352093 1.75158e-21)
(1.05299 -0.373169 -3.69151e-21)
(0.883938 -0.421521 -1.94964e-21)
(0.849476 0.0773557 1.09057e-20)
(1.00953 0.62797 -4.13903e-21)
(1.09595 0.205716 8.00156e-22)
(1.03568 -0.35523 -5.495e-22)
(0.930885 -0.12068 0)
(0.939529 0.173368 0)
(0.96121 0.0711605 0)
(0.959311 -0.0314596 4.26075e-23)
(0.951843 -0.00759001 -4.8525e-23)
(0.945919 0.0115653 4.00631e-23)
(0.947537 0.00529427 -2.67299e-23)
(0.94621 0.00168905 -1.04486e-23)
(0.949028 0.0024642 0)
(1.18315 -0.208656 0)
(1.12736 -0.22926 0)
(1.04575 -0.235892 0)
(0.956432 -0.204593 0)
(0.867872 -0.168628 0)
(0.759879 -0.208222 0)
(0.610365 -0.00729076 0)
(0.481396 0.370496 0)
(0.579094 0.568234 0)
(0.938734 0.379672 0)
(1.24887 0.0801704 0)
(1.29551 -0.193099 0)
(1.20478 -0.299221 0)
(1.18242 -0.216174 0)
(1.08007 -0.427448 0)
(1.01003 -0.499177 0)
(0.911762 -0.367534 0)
(0.818357 -0.0371558 0)
(0.810923 0.354759 0)
(0.730454 0.399507 0)
(0.898719 0.399133 0)
(1.0765 0.0954955 0)
(1.08073 -0.326092 0)
(1.03409 -0.3736 0)
(0.847969 -0.424215 0)
(0.814364 0.0405044 0)
(0.959371 0.614583 0)
(1.07784 0.224156 0)
(1.02726 -0.334022 0)
(0.916474 -0.121874 0)
(0.921983 0.168735 0)
(0.947715 0.072807 0)
(0.947408 -0.0287014 0)
(0.940446 -0.00670517 0)
(0.93339 0.0120887 0)
(0.935427 0.00555712 0)
(0.934216 0.00173191 0)
(0.936941 0.00232491 0)
(1.13625 -0.157646 0)
(1.09201 -0.196916 0)
(1.01799 -0.202673 0)
(0.940107 -0.179432 0)
(0.892576 -0.151287 0)
(0.836013 -0.149615 0)
(0.725445 0.086497 0)
(0.696446 0.346588 0)
(0.912226 0.39739 0)
(1.17033 0.229349 0)
(1.31238 -0.00168288 0)
(1.28182 -0.190863 0)
(1.17403 -0.255997 0)
(1.12877 -0.233739 0)
(1.03347 -0.429546 0)
(0.966518 -0.429854 0)
(0.831232 -0.275313 0)
(0.745832 0.0244422 0)
(0.70582 0.394871 0)
(0.656974 0.383537 0)
(0.897808 0.326251 0)
(1.08949 0.0216409 0)
(1.07928 -0.327101 0)
(0.991007 -0.319492 0)
(0.764247 -0.360941 0)
(0.741102 0.0532567 0)
(0.879673 0.585022 0)
(1.06011 0.181439 0)
(1.01198 -0.312763 0)
(0.892141 -0.0954505 0)
(0.893366 0.167904 0)
(0.929423 0.0668006 0)
(0.932106 -0.0282397 0)
(0.924751 -0.0051861 0)
(0.916848 0.012506 0)
(0.919621 0.0053312 0)
(0.918783 0.00150998 0)
(0.921134 0.00206356 0)
(1.10848 -0.109553 0)
(1.08065 -0.129331 0)
(1.02901 -0.128146 0)
(0.973589 -0.118137 0)
(0.934007 -0.0684743 0)
(0.884741 -0.0761634 0)
(0.815482 0.0852324 0)
(0.88408 0.2492 0)
(1.06595 0.241006 0)
(1.21002 0.120971 0)
(1.27654 0.000867354 0)
(1.23465 -0.134762 0)
(1.14184 -0.212313 0)
(1.12558 -0.159355 0)
(1.06531 -0.334244 0)
(0.925246 -0.378935 0)
(0.741338 -0.238776 0)
(0.642867 0.0511225 0)
(0.594614 0.403428 0)
(0.649314 0.302761 0)
(0.899387 0.224915 0)
(1.10734 0.011842 0)
(1.08934 -0.282664 0)
(0.958218 -0.277079 0)
(0.689866 -0.321916 0)
(0.635931 0.0285883 0)
(0.813171 0.520598 0)
(1.07183 0.162876 0)
(1.00267 -0.280011 0)
(0.866313 -0.0842778 0)
(0.868593 0.156599 0)
(0.915805 0.0617643 0)
(0.917425 -0.0262887 0)
(0.908368 -0.00370421 0)
(0.900768 0.0128225 0)
(0.904058 0.00520098 0)
(0.903226 0.00147365 0)
(0.904779 0.00190997 0)
(1.0843 -0.0716477 0)
(1.06542 -0.0885458 0)
(1.03264 -0.0866475 0)
(0.988678 -0.0842749 0)
(0.95969 -0.0455407 0)
(0.940459 -0.0417155 0)
(0.899491 0.0665216 0)
(0.972147 0.139801 0)
(1.08575 0.148315 0)
(1.17401 0.0795407 0)
(1.1932 -0.0205864 0)
(1.18526 -0.0974916 0)
(1.11674 -0.16306 0)
(1.05522 -0.18287 0)
(1.01372 -0.319278 0)
(0.855312 -0.261759 0)
(0.685091 -0.126263 0)
(0.563015 0.101948 0)
(0.575587 0.383582 0)
(0.75061 0.228691 0)
(0.930473 0.127983 0)
(1.11603 -0.060338 0)
(1.07773 -0.257392 0)
(0.916686 -0.185763 0)
(0.649683 -0.233847 0)
(0.536178 0.0181167 0)
(0.776957 0.433278 0)
(1.08842 0.111715 0)
(0.989621 -0.24009 0)
(0.823048 -0.0551713 0)
(0.836791 0.147406 0)
(0.90604 0.0528698 0)
(0.905142 -0.0249936 0)
(0.891757 -0.00170197 0)
(0.886305 0.013214 0)
(0.890783 0.00488072 0)
(0.889896 0.00142151 0)
(0.890735 0.0017885 0)
(1.06845 -0.0455255 0)
(1.05545 -0.0561933 0)
(1.03554 -0.0524061 0)
(1.00837 -0.0553621 0)
(0.987004 -0.018251 0)
(0.979829 -0.0206499 0)
(0.959058 0.0473219 0)
(1.01227 0.0813002 0)
(1.06064 0.0793218 0)
(1.13481 0.0466787 0)
(1.13625 -0.0136003 0)
(1.1305 -0.0893799 0)
(1.1016 -0.1278 0)
(1.05169 -0.100341 0)
(1.01859 -0.225528 0)
(0.842076 -0.177753 0)
(0.744067 -0.0527188 0)
(0.632132 0.112332 0)
(0.707812 0.304942 0)
(0.918222 0.132837 0)
(0.991263 0.0512495 0)
(1.12609 -0.0651081 0)
(1.06413 -0.203608 0)
(0.917825 -0.109392 0)
(0.710501 -0.160732 0)
(0.507173 -0.00813244 0)
(0.767508 0.314968 0)
(1.10396 0.0783001 0)
(0.983757 -0.18688 0)
(0.783226 -0.0289322 0)
(0.822946 0.129756 0)
(0.915707 0.042122 0)
(0.905652 -0.0212408 0)
(0.883715 0.000999022 0)
(0.882451 0.0129293 0)
(0.887872 0.00436474 0)
(0.886471 0.00151947 0)
(0.886106 0.00176323 0)
(1.05787 -0.0257689 0)
(1.04782 -0.0324961 0)
(1.03942 -0.029372 0)
(1.02006 -0.0337277 0)
(1.00571 -0.00789138 0)
(1.00757 -0.0126064 0)
(0.990783 0.0292574 0)
(1.0334 0.0392004 0)
(1.04763 0.0423081 0)
(1.09652 0.0211834 0)
(1.10082 -0.0209267 0)
(1.09847 -0.0614836 0)
(1.05738 -0.0942113 0)
(1.02026 -0.105105 0)
(1.01279 -0.188465 0)
(0.860408 -0.0966854 0)
(0.833926 0.0110859 0)
(0.776748 0.101344 0)
(0.882306 0.213289 0)
(1.05406 0.0889834 0)
(1.03968 0.0201333 0)
(1.11813 -0.0884571 0)
(1.02394 -0.170119 0)
(0.91269 -0.0392556 0)
(0.834877 -0.0556956 0)
(0.603789 0.00212707 0)
(0.793928 0.181933 0)
(1.10499 0.0248221 0)
(0.980725 -0.125299 0)
(0.77618 0.00492748 0)
(0.845454 0.102128 0)
(0.944339 0.0273323 0)
(0.922996 -0.0151753 0)
(0.894254 0.00479896 0)
(0.898629 0.0119629 0)
(0.903416 0.00378181 0)
(0.9015 0.0018797 0)
(0.899263 0.00192354 0)
(1.0497 -0.0123095 0)
(1.04319 -0.0171002 0)
(1.04024 -0.0149819 0)
(1.02856 -0.0194315 0)
(1.01944 -0.00325201 0)
(1.02307 -0.00707611 0)
(1.01091 0.0153702 0)
(1.04014 0.01721 0)
(1.039 0.0188157 0)
(1.07356 0.00368379 0)
(1.06925 -0.0189996 0)
(1.06827 -0.0518478 0)
(1.04905 -0.0705056 0)
(1.02179 -0.0620354 0)
(1.00193 -0.117487 0)
(0.881716 -0.051847 0)
(0.907439 0.0194371 0)
(0.896341 0.0766372 0)
(0.973336 0.131583 0)
(1.09349 0.0453706 0)
(1.05529 0.0132258 0)
(1.10845 -0.0574481 0)
(1.00953 -0.107387 0)
(0.907583 -0.0133929 0)
(0.948582 -0.00940185 0)
(0.80303 0.0179692 0)
(0.879679 0.0916988 0)
(1.09601 -0.000438609 0)
(0.993955 -0.0638756 0)
(0.829374 0.0258939 0)
(0.905007 0.0682744 0)
(0.984453 0.0152267 0)
(0.958263 -0.00588788 0)
(0.92951 0.00850531 0)
(0.93736 0.010184 0)
(0.938958 0.00340884 0)
(0.93678 0.00261757 0)
(0.932259 0.00241634 0)
(1.04331 -0.00412426 0)
(1.0401 -0.00654514 0)
(1.03978 -0.00674571 0)
(1.03293 -0.00943076 0)
(1.02717 -0.00161368 0)
(1.03009 -0.00486786 0)
(1.02248 0.00703117 0)
(1.03951 0.00373355 0)
(1.03586 0.00631493 0)
(1.05545 -0.00608678 0)
(1.0508 -0.0173741 0)
(1.05198 -0.0378859 0)
(1.03064 -0.0492933 0)
(1.01171 -0.050914 0)
(1.00248 -0.0810397 0)
(0.924793 -0.0264061 0)
(0.952177 0.0101303 0)
(0.954786 0.0509733 0)
(1.00649 0.0787191 0)
(1.07334 0.0333983 0)
(1.04126 0.0137241 0)
(1.07509 -0.0553624 0)
(1.00524 -0.0688659 0)
(0.937423 -0.00594789 0)
(0.992105 0.00369173 0)
(0.934576 0.0386613 0)
(0.965937 0.0435991 0)
(1.06748 -0.0246272 0)
(0.993206 -0.0176525 0)
(0.90515 0.0458019 0)
(0.970625 0.0439887 0)
(1.01439 0.00677204 0)
(0.990723 0.00279234 0)
(0.971517 0.0120726 0)
(0.980368 0.00899309 0)
(0.97855 0.00373258 0)
(0.976717 0.00377575 0)
(0.971632 0.00328171 0)
(1.03839 0.000972954 0)
(1.03737 -0.000609988 0)
(1.03807 -0.00186531 0)
(1.03376 -0.00380948 0)
(1.03129 -0.000838783 0)
(1.03178 -0.00324016 0)
(1.02822 0.00193717 0)
(1.03633 -0.00198248 0)
(1.03307 -0.000359203 0)
(1.04339 -0.0100133 0)
(1.03773 -0.0148083 0)
(1.03831 -0.029042 0)
(1.02395 -0.0355417 0)
(1.01371 -0.0321203 0)
(1.00194 -0.0475379 0)
(0.959792 -0.0127365 0)
(0.977792 0.00419758 0)
(0.97832 0.0338491 0)
(1.01291 0.046039 0)
(1.04649 0.0186385 0)
(1.03864 0.0134668 0)
(1.05331 -0.0329858 0)
(1.00129 -0.0338048 0)
(0.968443 -0.00297301 0)
(0.997205 -0.000318738 0)
(0.985451 0.0337159 0)
(1.0152 0.0232895 0)
(1.03743 -0.0155203 0)
(0.985311 0.00845239 0)
(0.966904 0.041302 0)
(1.01636 0.0255648 0)
(1.02749 0.0064396 0)
(1.01047 0.00957368 0)
(1.00395 0.0127596 0)
(1.01155 0.00767204 0)
(1.0077 0.00436496 0)
(1.00652 0.00476999 0)
(1.00262 0.00407561 0)
(1.0341 0.0037588 0)
(1.03447 0.00260597 0)
(1.03535 0.000868661 0)
(1.03299 -0.000561417 0)
(1.0317 -0.000115646 0)
(1.03124 -0.00223419 0)
(1.02954 -0.000245528 0)
(1.03272 -0.00402964 0)
(1.03039 -0.00311167 0)
(1.03486 -0.0100831 0)
(1.03001 -0.0122148 0)
(1.03081 -0.020324 0)
(1.01962 -0.0237471 0)
(1.01308 -0.021864 0)
(1.00428 -0.0300543 0)
(0.98324 -0.0070755 0)
(0.992447 -0.000114438 0)
(0.9918 0.0201643 0)
(1.01625 0.0261713 0)
(1.02899 0.0117877 0)
(1.02965 0.0105119 0)
(1.03573 -0.0236876 0)
(1.00372 -0.0190561 0)
(0.992974 -0.00313593 0)
(1.0002 0.000111774 0)
(0.999371 0.0292015 0)
(1.02368 0.0126105 0)
(1.0192 -0.0111511 0)
(0.992638 0.0158563 0)
(1.00195 0.0335351 0)
(1.02906 0.0182503 0)
(1.02694 0.00853281 0)
(1.02019 0.0116516 0)
(1.02128 0.0116708 0)
(1.02561 0.00728193 0)
(1.02169 0.00523238 0)
(1.0214 0.00536225 0)
(1.01923 0.0045808 0)
(1.03028 0.0051995 0)
(1.03146 0.00406534 0)
(1.03215 0.00252683 0)
(1.03098 0.00115106 0)
(1.03012 0.000561072 0)
(1.02949 -0.0011704 0)
(1.02842 -0.000986772 0)
(1.0294 -0.00374279 0)
(1.02747 -0.00386733 0)
(1.02913 -0.00815778 0)
(1.02539 -0.00953945 0)
(1.02517 -0.013797 0)
(1.01773 -0.016351 0)
(1.01407 -0.0139644 0)
(1.0076 -0.0175965 0)
(0.997686 -0.00443381 0)
(1.00187 -0.000586796 0)
(1.00017 0.0116092 0)
(1.01618 0.0145079 0)
(1.01998 0.00655064 0)
(1.02463 0.00754265 0)
(1.02635 -0.0120788 0)
(1.00645 -0.00786416 0)
(1.00423 -0.000725936 0)
(1.00146 0.00107191 0)
(1.00567 0.0198692 0)
(1.02439 0.00938015 0)
(1.0127 -0.00142162 0)
(0.999948 0.0171271 0)
(1.0134 0.0244122 0)
(1.02758 0.0150529 0)
(1.02489 0.0109109 0)
(1.02382 0.011939 0)
(1.02654 0.010493 0)
(1.02862 0.00735936 0)
(1.02602 0.00591861 0)
(1.02625 0.00567442 0)
(1.02525 0.0049321 0)
(1.02698 0.00575045 0)
(1.02839 0.00471336 0)
(1.02874 0.00340414 0)
(1.02842 0.00216651 0)
(1.02757 0.00125289 0)
(1.02722 -0.000186834 0)
(1.02617 -0.000722821 0)
(1.02636 -0.00268882 0)
(1.02479 -0.0032932 0)
(1.02506 -0.00579387 0)
(1.02239 -0.00692244 0)
(1.02178 -0.00899121 0)
(1.01723 -0.0103954 0)
(1.0146 -0.00880598 0)
(1.01058 -0.010248 0)
(1.00557 -0.0030256 0)
(1.00746 -0.0010447 0)
(1.00594 0.0060889 0)
(1.01554 0.00778474 0)
(1.01604 0.00397716 0)
(1.01952 0.00500981 0)
(1.01997 -0.00641748 0)
(1.00883 -0.00343071 0)
(1.00958 0.000202046 0)
(1.00556 0.00216116 0)
(1.00898 0.0143835 0)
(1.01959 0.00738852 0)
(1.0114 0.00149364 0)
(1.00751 0.0138494 0)
(1.01679 0.0186263 0)
(1.02368 0.0134876 0)
(1.02338 0.0109579 0)
(1.02475 0.0105976 0)
(1.02707 0.00920259 0)
(1.02819 0.00715645 0)
(1.02684 0.00597978 0)
(1.02718 0.00550259 0)
(1.02673 0.00491232 0)
(1.02398 0.00581769 0)
(1.02532 0.00493063 0)
(1.02555 0.00385882 0)
(1.02559 0.0028292 0)
(1.02481 0.00185992 0)
(1.02463 0.000753161 0)
(1.02368 -6.41904e-05 0)
(1.02365 -0.0013565 0)
(1.02235 -0.00214236 0)
(1.02218 -0.00360534 0)
(1.02034 -0.00445761 0)
(1.01962 -0.0055163 0)
(1.01685 -0.00629408 0)
(1.01505 -0.00544888 0)
(1.01265 -0.005748 0)
(1.00999 -0.00205355 0)
(1.01092 -0.0007533 0)
(1.00942 0.00318889 0)
(1.01472 0.00417195 0)
(1.0144 0.00255743 0)
(1.0166 0.00339425 0)
(1.01689 -0.00201104 0)
(1.01072 -0.000174389 0)
(1.01168 0.00191356 0)
(1.00834 0.00317417 0)
(1.0111 0.00996987 0)
(1.01749 0.00702617 0)
(1.01255 0.00514749 0)
(1.01129 0.0120294 0)
(1.017 0.014636 0)
(1.02138 0.0121748 0)
(1.02259 0.0110379 0)
(1.02425 0.010158 0)
(1.02612 0.00868994 0)
(1.02707 0.00722617 0)
(1.02661 0.00620289 0)
(1.02687 0.00565435 0)
(1.02674 0.00513084 0)
(1.02133 0.00558617 0)
(1.02243 0.00493253 0)
(1.02262 0.00402305 0)
(1.02276 0.00324625 0)
(1.02215 0.00234883 0)
(1.02208 0.00153194 0)
(1.02133 0.00074058 0)
(1.02125 -0.00017622 0)
(1.02023 -0.000854104 0)
(1.01998 -0.00184216 0)
(1.0187 -0.00237501 0)
(1.01813 -0.0031339 0)
(1.01645 -0.00340448 0)
(1.01521 -0.00314449 0)
(1.01385 -0.00301666 0)
(1.01225 -0.00117458 0)
(1.01268 -0.000481559 0)
(1.0115 0.0017586 0)
(1.01418 0.00230872 0)
(1.01384 0.00197038 0)
(1.01479 0.00244785 0)
(1.01498 0.000171558 0)
(1.01183 0.00113864 0)
(1.01265 0.00250803 0)
(1.01074 0.00358305 0)
(1.01243 0.00748937 0)
(1.0155 0.00634038 0)
(1.0134 0.00554683 0)
(1.01381 0.00949266 0)
(1.01718 0.011637 0)
(1.01984 0.010595 0)
(1.02161 0.00994033 0)
(1.02331 0.00906681 0)
(1.02503 0.00781266 0)
(1.02591 0.0067287 0)
(1.02605 0.00585989 0)
(1.02624 0.00533319 0)
(1.02638 0.00494206 0)
(1.01897 0.00522637 0)
(1.01981 0.00479227 0)
(1.02 0.00401494 0)
(1.02016 0.0034874 0)
(1.01975 0.00270012 0)
(1.01972 0.0021315 0)
(1.01918 0.00143758 0)
(1.01912 0.000770855 0)
(1.01839 0.000251986 0)
(1.01819 -0.000500243 0)
(1.01732 -0.000770483 0)
(1.01695 -0.00144728 0)
(1.0159 -0.00141793 0)
(1.01512 -0.00157063 0)
(1.01429 -0.00124847 0)