/*--------------------------------*- C++ -*----------------------------------*\
| =========                 |                                                 |
| \\      /  F ield         | OpenFOAM: The Open Source CFD Toolbox           |
|  \\    /   O peration     | Version:  2312                                  |
|   \\  /    A nd           | Website:  www.openfoam.com                      |
|    \\/     M anipulation  |                                                 |
\*---------------------------------------------------------------------------*/
FoamFile
{
    version     2.0;
    format      ascii;
    arch        "LSB;label=32;scalar=64";
    class       volScalarField;
    location    "99.1";
    object      p;
}
// * * * * * * * * * * * * * * * * * * * * * * * * * * * * * * * * * * * * * //

dimensions      [0 2 -2 0 0 0 0];

internalField   nonuniform List<scalar> 
5478
(
-0.372879
-0.374455
-0.374496
-0.372809
-0.367033
-0.355379
-0.336799
-0.312132
-0.283716
-0.254446
-0.226708
-0.201741
-0.18043
-0.161875
-0.145851
-0.380854
-0.38015
-0.37847
-0.374863
-0.367048
-0.353052
-0.332465
-0.306917
-0.278996
-0.25107
-0.224732
-0.200871
-0.179755
-0.160967
-0.144506
-0.389923
-0.386465
-0.382196
-0.375781
-0.364691
-0.34736
-0.324422
-0.298057
-0.270626
-0.243964
-0.219128
-0.196538
-0.176201
-0.157758
-0.140973
-0.401523
-0.395196
-0.387808
-0.377514
-0.36161
-0.339934
-0.314366
-0.287224
-0.260363
-0.234893
-0.211271
-0.189647
-0.169841
-0.151777
-0.135559
-0.417456
-0.407508
-0.396555
-0.380622
-0.358243
-0.331612
-0.30344
-0.275579
-0.249052
-0.224317
-0.201535
-0.180673
-0.161596
-0.144331
-0.128375
-0.438452
-0.423232
-0.407504
-0.383749
-0.353813
-0.322213
-0.291525
-0.262749
-0.23619
-0.211897
-0.189771
-0.169653
-0.15134
-0.134697
-0.119265
-0.462201
-0.44126
-0.417377
-0.383881
-0.346409
-0.310264
-0.277208
-0.247437
-0.220708
-0.19671
-0.175165
-0.15583
-0.138509
-0.12297
-0.108571
-0.483016
-0.457632
-0.422125
-0.377886
-0.333652
-0.293696
-0.258685
-0.228125
-0.201343
-0.177784
-0.157004
-0.138667
-0.122489
-0.108157
-0.0952848
-0.484049
-0.485067
-0.487476
-0.495486
-0.508964
-0.527069
-0.548362
-0.57055
-0.590553
-0.604595
-0.609225
-0.601117
-0.578346
-0.541496
-0.495275
-0.450715
-0.452054
-0.452588
-0.456297
-0.463021
-0.471582
-0.480373
-0.487271
-0.489822
-0.4857
-0.471303
-0.449155
-0.419251
-0.382973
-0.342164
-0.420718
-0.422322
-0.421632
-0.422008
-0.423108
-0.423478
-0.421389
-0.414914
-0.402246
-0.382159
-0.356291
-0.323907
-0.285844
-0.253234
-0.210245
-0.396467
-0.398538
-0.39753
-0.395995
-0.39335
-0.388041
-0.378422
-0.363023
-0.340851
-0.311349
-0.277339
-0.243148
-0.197988
-0.177338
-0.140827
-0.378742
-0.381441
-0.380733
-0.378435
-0.373708
-0.365035
-0.350977
-0.330516
-0.303673
-0.271459
-0.231901
-0.203347
-0.159352
-0.137302
-0.119854
-0.367768
-0.371027
-0.370815
-0.368429
-0.362839
-0.352554
-0.336358
-0.313589
-0.284523
-0.250934
-0.213797
-0.183662
-0.151423
-0.129409
-0.120751
-0.3637
-0.367149
-0.367458
-0.365528
-0.360292
-0.350001
-0.333425
-0.31008
-0.280921
-0.248152
-0.215303
-0.186259
-0.161994
-0.144103
-0.135583
-0.366367
-0.369357
-0.369983
-0.368659
-0.363714
-0.353265
-0.336107
-0.312342
-0.283632
-0.252651
-0.22303
-0.196392
-0.174783
-0.15801
-0.146274
-0.416978
-0.352175
-0.359777
-0.394045
-0.366633
-0.266284
-0.182353
-0.146839
-0.132508
-0.137415
-0.136692
-0.138267
-0.143971
-0.141434
-0.112423
-0.0959111
-0.109122
-0.13317
-0.132967
-0.110224
-0.101618
-0.128595
-0.126657
-0.120125
-0.151549
-0.165633
-0.138481
-0.106765
-0.0894271
-0.058619
-0.0347428
-0.00894966
-0.00588958
-0.009041
0.00276391
-0.000450684
-0.00198208
0.000176164
-0.298295
-0.312602
-0.382086
-0.44214
-0.405398
-0.293835
-0.194351
-0.146228
-0.125156
-0.116765
-0.105788
-0.118747
-0.136034
-0.136367
-0.107908
-0.0910468
-0.102988
-0.126886
-0.130018
-0.112052
-0.112485
-0.140614
-0.131835
-0.114605
-0.129925
-0.137565
-0.142972
-0.137767
-0.0965768
-0.0571606
-0.0357818
-0.0109005
-0.00667125
-0.00921195
0.00213315
-0.000736429
-0.00176826
0.000123067
-0.19105
-0.251315
-0.372937
-0.449794
-0.414261
-0.302504
-0.198449
-0.144286
-0.121234
-0.106441
-0.0882539
-0.102781
-0.128644
-0.131281
-0.103995
-0.0865255
-0.0971878
-0.119749
-0.125632
-0.112378
-0.122012
-0.151063
-0.135335
-0.1076
-0.10886
-0.10935
-0.142349
-0.14587
-0.101868
-0.0550346
-0.0363561
-0.0128689
-0.00761371
-0.00938106
0.00147886
-0.00100824
-0.00158939
6.12497e-05
-0.123714
-0.191927
-0.328399
-0.415356
-0.385955
-0.288735
-0.196045
-0.141385
-0.117892
-0.103629
-0.0846079
-0.0950444
-0.124085
-0.126743
-0.100045
-0.0826591
-0.0918586
-0.112416
-0.119732
-0.110693
-0.129429
-0.159841
-0.13829
-0.100228
-0.0900737
-0.0832375
-0.137204
-0.149029
-0.105815
-0.0526117
-0.0364864
-0.0147801
-0.00871528
-0.00959497
0.000803432
-0.00123383
-0.0014499
-6.23527e-07
-0.105739
-0.151396
-0.274195
-0.360584
-0.34264
-0.265501
-0.188865
-0.138381
-0.114508
-0.101989
-0.0902587
-0.097786
-0.126257
-0.123918
-0.0975117
-0.0810312
-0.0889268
-0.105698
-0.112452
-0.106676
-0.134015
-0.165885
-0.140402
-0.0935221
-0.0745964
-0.0612335
-0.12863
-0.148341
-0.108078
-0.0500863
-0.0361414
-0.0165426
-0.00993576
-0.00990623
0.00010271
-0.00138169
-0.00135108
-6.7811e-05
-0.114637
-0.133624
-0.220445
-0.295759
-0.287509
-0.234196
-0.175723
-0.133231
-0.110377
-0.0964258
-0.0983065
-0.103759
-0.132955
-0.12462
-0.0973046
-0.0810814
-0.0864981
-0.0990847
-0.104058
-0.0998925
-0.134982
-0.168714
-0.142643
-0.0889328
-0.0632915
-0.0443048
-0.117369
-0.14483
-0.108913
-0.047776
-0.0354405
-0.0181427
-0.0112197
-0.0103932
-0.000636554
-0.00142552
-0.00129179
-0.000142236
-0.130875
-0.129612
-0.174954
-0.229517
-0.236264
-0.207989
-0.165305
-0.130008
-0.107848
-0.0912003
-0.097693
-0.111466
-0.143089
-0.123408
-0.0955965
-0.0820003
-0.085251
-0.0943781
-0.0953155
-0.0898177
-0.131587
-0.168525
-0.142207
-0.0845863
-0.0557733
-0.0322461
-0.103456
-0.140102
-0.107117
-0.0463793
-0.0344832
-0.0196006
-0.0124452
-0.0111736
-0.0014459
-0.00135113
-0.00126717
-0.000226014
-0.13608
-0.129642
-0.144701
-0.173757
-0.182669
-0.174966
-0.150503
-0.122814
-0.10584
-0.0870192
-0.084575
-0.116062
-0.155591
-0.127071
-0.0982495
-0.0827707
-0.0815391
-0.087125
-0.0854327
-0.0792943
-0.123711
-0.165424
-0.143231
-0.0823958
-0.0527419
-0.0217909
-0.0877259
-0.134523
-0.103777
-0.0453529
-0.0327986
-0.0208786
-0.0135993
-0.011897
-0.00228109
-0.00115447
-0.00127584
-0.000320792
-0.134157
-0.134337
-0.135369
-0.144832
-0.150801
-0.145017
-0.125392
-0.101319
-0.0877868
-0.0757151
-0.0682559
-0.103789
-0.11507
-0.115851
-0.0960187
-0.0835201
-0.0825405
-0.0837149
-0.0744223
-0.0715531
-0.115252
-0.155646
-0.13553
-0.0775415
-0.0494523
-0.0259853
-0.0747891
-0.123995
-0.09769
-0.0459327
-0.0323162
-0.0215593
-0.0148505
-0.0135827
-0.00325811
-0.00074015
-0.00131846
-0.000456538
-0.117006
-0.119392
-0.116774
-0.116437
-0.113336
-0.105976
-0.0915128
-0.0753721
-0.0671452
-0.0547438
-0.050837
-0.089591
-0.133507
-0.107305
-0.0856487
-0.0805118
-0.0765594
-0.0672425
-0.0564735
-0.0524561
-0.0995395
-0.147378
-0.123984
-0.0651093
-0.0334865
-0.0108624
-0.0578563
-0.109563
-0.0917234
-0.0423235
-0.0318726
-0.0217666
-0.0169452
-0.0153951
-0.00447917
-0.00030169
-0.00140152
-0.000627552
-0.0966956
-0.10347
-0.101813
-0.0965904
-0.0912675
-0.0850169
-0.0745082
-0.062089
-0.0515862
-0.0364965
-0.0234524
-0.0312058
-0.0391229
-0.0551709
-0.0589103
-0.0697974
-0.0657122
-0.0522448
-0.0385019
-0.031101
-0.072099
-0.117251
-0.100532
-0.0443064
-0.0177859
-0.0075568
-0.0393424
-0.0897141
-0.0793135
-0.0369901
-0.0315866
-0.0214894
-0.0190195
-0.0180868
-0.00608196
0.00017007
-0.00146082
-0.000818962
-0.0777914
-0.0844517
-0.0836978
-0.0778313
-0.0704693
-0.0619741
-0.0504948
-0.0395745
-0.0291852
-0.0146557
-0.00168635
0.0108908
0.0217416
0.00397947
-0.0249781
-0.0494817
-0.0426567
-0.0305211
-0.0164872
-0.00746056
-0.0394484
-0.0751254
-0.0680443
-0.0268099
-0.00732415
0.00368961
-0.0178192
-0.0653512
-0.0622564
-0.0317706
-0.030941
-0.0204363
-0.0210785
-0.0210844
-0.00803854
0.000605807
-0.00152911
-0.00101764
-0.0591698
-0.0657535
-0.066046
-0.0612774
-0.054076
-0.0468523
-0.0383631
-0.0291271
-0.0194971
-0.00355793
0.0137747
0.0378766
0.052241
0.0374406
0.0024664
-0.0227235
-0.0211405
-0.0151037
-0.00376607
0.00928886
-0.00251574
-0.0213211
-0.0328169
-0.0174092
-0.00389915
-0.00342541
0.00153951
-0.0343389
-0.0387751
-0.0253798
-0.028728
-0.0185594
-0.022996
-0.0240222
-0.0103121
0.000810919
-0.00168135
-0.00120026
-0.0433389
-0.0495032
-0.0504089
-0.0466973
-0.0406492
-0.0339729
-0.0256121
-0.0162023
-0.00646839
0.00754874
0.022121
0.0398936
0.0513412
0.0450617
0.0188913
-0.00261001
-0.00378203
0.00146788
0.00881476
0.0183378
0.0115849
-0.00161104
-0.010283
-0.0163608
-0.00417369
0.016183
0.0169271
-0.00431508
-0.00924568
-0.0174013
-0.0236693
-0.0145792
-0.0238111
-0.026951
-0.0129734
0.000759036
-0.00193495
-0.0013676
-0.030409
-0.0354411
-0.0363661
-0.0337256
-0.02874
-0.0229341
-0.0162259
-0.00876053
-0.00107254
0.00965421
0.0216814
0.0348002
0.0433558
0.0411428
0.0250351
0.00955323
0.00733638
0.00836026
0.0131141
0.0217799
0.0189144
0.0138437
0.00358498
-0.0108015
-0.00203259
0.0146607
0.0241077
0.0197861
0.015568
-0.00964359
-0.0163466
-0.00800725
-0.0218387
-0.0293213
-0.0156742
0.000208426
-0.00231303
-0.00139849
-0.0194991
-0.0234912
-0.024591
-0.0228953
-0.019108
-0.0144738
-0.00910166
-0.00309005
0.0033803
0.0116559
0.0205051
0.0289041
0.0345388
0.0339334
0.0256897
0.0154931
0.0137744
0.0154047
0.0177792
0.0228258
0.0193105
0.0148257
0.0109356
-0.000581093
0.00470893
0.0177667
0.0235673
0.02978
0.0271909
-0.00247719
-0.00798341
-0.00137526
-0.0164467
-0.0281122
-0.0162263
-0.00160356
-0.00281451
-0.00123691
-0.0106047
-0.0139325
-0.0149923
-0.0138489
-0.0110234
-0.0074543
-0.00331093
0.0012763
0.00611716
0.0118157
0.0177686
0.023467
0.0272706
0.0275943
0.0242056
0.0183359
0.0166248
0.0169504
0.0180476
0.0210481
0.0196202
0.0164078
0.0142327
0.00708655
0.0100503
0.0168703
0.0219267
0.0300229
0.0285579
0.0047555
-3.73708e-05
0.00354023
-0.0076778
-0.0215486
-0.0126916
-0.00191246
-0.00288525
-0.0011403
-0.00380809
-0.00634118
-0.00712613
-0.00641257
-0.00446588
-0.00188791
0.00112404
0.00443168
0.00788262
0.0118464
0.0158717
0.0196922
0.0223716
0.0229523
0.0219829
0.0189859
0.0178842
0.0184701
0.0189747
0.0201884
0.0188143
0.0167395
0.0153403
0.0116842
0.0141806
0.019834
0.0205658
0.0264681
0.0267317
0.0106037
0.00587986
0.00640825
0.000287973
-0.0123555
-0.00587607
0.000301153
-0.00177717
-0.00100678
0.0017891
-0.000108839
-0.00085791
-0.000515644
0.000754177
0.00255876
0.00467314
0.00698514
0.00936035
0.0120144
0.0146823
0.0172111
0.0191311
0.0198445
0.0199333
0.0188259
0.0180867
0.0182325
0.0183813
0.0189029
0.0179626
0.0168518
0.01606
0.0140564
0.0155096
0.0185118
0.0192606
0.0231879
0.0239183
0.0138011
0.0092804
0.00827092
0.00528154
-0.00460548
0.000219397
0.00305219
0.000345261
-0.000511511
0.00619125
0.00468697
0.00401597
0.00415734
0.00496332
0.00616385
0.00757518
0.00910609
0.010675
0.0123951
0.0141516
0.0158222
0.017206
0.0179448
0.0183405
0.018123
0.0178222
0.0179682
0.0180604
0.0182078
0.0175613
0.0168258
0.0163982
0.015402
0.0162747
0.0181669
0.0183715
0.0203576
0.0208277
0.0150443
0.0111119
0.00944286
0.00727811
0.000581303
0.00389583
0.00453033
0.00191498
5.2086e-05
0.00954831
0.00841273
0.00785793
0.00785697
0.0083094
0.00905101
0.00994811
0.0109196
0.0119104
0.0129788
0.0140996
0.0152014
0.0161585
0.0167895
0.0172331
0.0174108
0.0174199
0.0174757
0.0175231
0.0175024
0.0170947
0.0166683
0.0164375
0.0159203
0.0162378
0.0172448
0.0174057
0.0181922
0.0180308
0.0138063
0.0113363
0.0097047
0.00779646
0.00347094
0.0050267
0.00487199
0.00267402
0.000425108
0.0121822
0.0113157
0.0108307
0.0107149
0.0109163
0.0113455
0.0118998
0.0124806
0.0130563
0.0136775
0.0143626
0.0150572
0.0156842
0.0161618
0.0165508
0.016809
0.0169348
0.0169819
0.0170347
0.0170333
0.0167682
0.0164855
0.0163034
0.0160239
0.0161396
0.0165352
0.0164859
0.0165789
0.016062
0.0134513
0.0114536
0.00991023
0.00794198
0.0049455
0.00506701
0.0046838
0.00285369
0.000626531
0.014211
0.0135384
0.0131191
0.012947
0.0129896
0.0131927
0.0134847
0.0137971
0.0141017
0.0144307
0.0148073
0.0152149
0.0155923
0.0159006
0.0161795
0.0163925
0.0165381
0.0165868
0.0166114
0.0166046
0.0164267
0.0162205
0.0160761
0.0158246
0.0157682
0.0157979
0.0155559
0.0153154
0.0146712
0.0127918
0.0111247
0.00979983
0.0079041
0.00564171
0.00492086
0.00418265
0.00273593
0.000725676
0.0157522
0.0152324
0.0148729
0.0146695
0.0146063
0.0146568
0.0147737
0.0149017
0.0150187
0.015145
0.0153149
0.0155162
0.0157103
0.0158714
0.0160287
0.0161591
0.0162536
0.0162712
0.0162651
0.0162335
0.0161025
0.0159107
0.0157513
0.0155032
0.0153251
0.0151665
0.0147893
0.014342
0.0136719
0.0122451
0.0107777
0.00961077
0.00789476
0.00602895
0.00486578
0.00386516
0.00256917
0.000778245
0.016918
0.0165102
0.0161975
0.0159807
0.0158543
0.0158065
0.0158038
0.015806
0.0157967
0.0157918
0.015821
0.0158756
0.0159321
0.0159726
0.0160203
0.016062
0.0160793
0.0160471
0.0159991
0.0159231
0.0157914
0.0155896
0.0154043
0.0151418
0.0148656
0.0145701
0.0141284
0.0135608
0.0128802
0.0117448
0.0104123
0.00930398
0.00780167
0.00619933
0.0048592
0.00362553
0.00236007
0.000776515
0.0177817
0.0174574
0.0171851
0.0169681
0.016805
0.0166931
0.0166107
0.0165304
0.0164402
0.0163503
0.0162838
0.0162345
0.0161905
0.0161379
0.0160946
0.0160514
0.0159939
0.0159015
0.0157992
0.0156725
0.0155111
0.0152875
0.0150596
0.0147644
0.0144299
0.0140471
0.0135712
0.0129563
0.0122566
0.0113112
0.0101217
0.00904589
0.00770829
0.00629682
0.0049148
0.00353073
0.00221178
0.00076026
0.0184081
0.0181446
0.0179049
0.0176933
0.0175107
0.0173597
0.0172259
0.0170927
0.0169507
0.0168066
0.0166768
0.0165557
0.0164394
0.0163168
0.0162022
0.0160877
0.0159624
0.015815
0.0156578
0.0154799
0.0152738
0.0150166
0.0147472
0.014414
0.0140473
0.0136056
0.0131044
0.0124811
0.011768
0.0109339
0.00987399
0.00883101
0.0076456
0.00638581
0.00502867
0.00355383
0.00216179
0.00075483
0.0188471
0.0186259
0.0184126
0.0182089
0.0180193
0.0178446
0.0176798
0.0175123
0.0173391
0.0171613
0.0169907
0.016822
0.0166541
0.0164817
0.0163125
0.016143
0.0159612
0.0157651
0.0155568
0.0153341
0.0150852
0.014793
0.0144849
0.0141173
0.0137206
0.013247
0.0127233
0.0121024
0.0113912
0.0106141
0.00964944
0.00866856
0.00755762
0.0063956
0.00510999
0.00368593
0.00226129
0.0007771
0.0191441
0.0189506
0.0187557
0.0185602
0.018369
0.0181818
0.0179982
0.0178103
0.0176177
0.0174202
0.0172233
0.0170247
0.0168222
0.0166157
0.0164075
0.0161961
0.0159738
0.0157368
0.0154894
0.0152253
0.0149401
0.0146189
0.0142765
0.0138834
0.0134609
0.0129694
0.0124283
0.0118134
0.0111043
0.0103415
0.00944096
0.00847843
0.00741315
0.00628461
0.00502889
0.00363762
0.00221219
0.00075544
0.0193249
0.0191484
0.0189656
0.0187777
0.0185872
0.0183945
0.0182
0.0180008
0.0177977
0.0175892
0.0173777
0.0171604
0.0169379
0.0167092
0.0164764
0.0162373
0.0159879
0.0157235
0.0154478
0.0151529
0.014843
0.0144973
0.0141317
0.0137188
0.0132745
0.0127757
0.0122208
0.0116072
0.010904
0.0101476
0.00927576
0.00833627
0.0072992
0.00617394
0.00496381
0.00362804
0.00221926
0.000758979
0.0194083
0.0192404
0.0190644
0.0188812
0.0186923
0.0184979
0.0182993
0.0180954
0.0178876
0.0176743
0.017456
0.0172301
0.0169979
0.016758
0.0165128
0.0162588
0.0159957
0.0157167
0.0154258
0.015115
0.0147898
0.0144332
0.0140529
0.0136307
0.013174
0.0126697
0.0121088
0.0114934
0.0107946
0.0100386
0.00918568
0.00825328
0.00723161
0.00612033
0.00491991
0.00360476
0.00220856
0.000751332
-0.0796976
-0.0899053
-0.0988925
-0.10696
-0.113993
-0.119062
-0.123302
-0.12818
-0.0631435
-0.0704454
-0.0769084
-0.0832517
-0.0889723
-0.0946012
-0.0997067
-0.107557
-0.047873
-0.0530526
-0.0576139
-0.0624763
-0.0672386
-0.072431
-0.077512
-0.0853221
-0.0360472
-0.0397835
-0.0431391
-0.0467489
-0.0506591
-0.055196
-0.0602744
-0.0673487
-0.0258546
-0.0286378
-0.0312139
-0.0340593
-0.037394
-0.041087
-0.0450956
-0.0504729
-0.0176465
-0.0196375
-0.0215109
-0.0235397
-0.0258987
-0.0284146
-0.0314215
-0.0359196
-0.010677
-0.0119946
-0.0132147
-0.0145353
-0.0162023
-0.0181647
-0.0207837
-0.0245469
-0.00480521
-0.0056324
-0.00638423
-0.00728528
-0.00861928
-0.010287
-0.0123626
-0.0151232
0.000181731
-0.000347496
-0.000875429
-0.00158161
-0.00258682
-0.00368982
-0.00505915
-0.00713114
0.00430364
0.00394016
0.00360077
0.00319309
0.00261182
0.00186603
0.000719667
-0.001067
0.00780916
0.00758049
0.00739278
0.00713235
0.00666718
0.00599604
0.00506506
0.00374863
0.0107133
0.0105245
0.0103635
0.0101448
0.00979438
0.00932937
0.00868731
0.00770233
0.0130749
0.0128968
0.0127585
0.0126026
0.0123669
0.0120226
0.0115051
0.0107118
0.0149939
0.0148179
0.01468
0.0145372
0.0143374
0.0140528
0.0136452
0.0130472
0.0164992
0.0163174
0.0161669
0.0160236
0.0158531
0.0156303
0.0153194
0.014867
0.0176601
0.0174786
0.0173217
0.0171785
0.0170254
0.01684
0.0165931
0.0162479
0.0185359
0.0183587
0.0181992
0.018055
0.0179116
0.0177525
0.0175547
0.0172928
0.0191802
0.0190119
0.0188557
0.0187138
0.0185779
0.0184365
0.0182727
0.0180694
0.0196421
0.0194846
0.0193348
0.0191965
0.019066
0.0189362
0.0187957
0.0186336
0.0199577
0.0198116
0.01967
0.0195371
0.0194119
0.0192902
0.0191652
0.0190302
0.0201579
0.0200245
0.0198935
0.0197683
0.0196487
0.0195333
0.0194183
0.0193003
0.0202716
0.0201494
0.0200287
0.0199111
0.0197966
0.0196853
0.0195756
0.0194665
0.0203156
0.0202018
0.0200885
0.0199762
0.0198651
0.019756
0.0196487
0.0195429
0.0728316
0.0762951
0.0793912
0.0819102
0.0831348
0.0827982
0.0807194
0.0764065
0.068963
0.0570759
0.038919
0.0119362
-0.0280397
-0.0841968
-0.134761
0.0511209
0.0522197
0.0516697
0.0499857
0.047078
0.0425575
0.0359199
0.026439
0.0130835
-0.00556199
-0.0314417
-0.0670823
-0.116539
-0.18388
-0.238958
0.0287926
0.0275613
0.0235876
0.0181927
0.0116029
0.00326352
-0.00755781
-0.0217152
-0.0403095
-0.0648263
-0.097345
-0.140472
-0.197165
-0.273428
-0.326998
0.00548864
0.00181762
-0.00495502
-0.013132
-0.0226407
-0.0342139
-0.0486642
-0.066854
-0.0898788
-0.119203
-0.157019
-0.206152
-0.268732
-0.346016
-0.397137
-0.017622
-0.0239505
-0.0329007
-0.0431297
-0.0549676
-0.0692342
-0.0866526
-0.108077
-0.134572
-0.167515
-0.209028
-0.262064
-0.327153
-0.401644
-0.44825
-0.0395438
-0.0484717
-0.0590927
-0.0709547
-0.0847569
-0.101279
-0.121004
-0.144843
-0.17374
-0.209095
-0.252832
-0.306952
-0.371339
-0.440104
-0.480471
-0.0600167
-0.0708474
-0.0826769
-0.0960568
-0.111627
-0.129937
-0.151493
-0.176968
-0.207282
-0.243677
-0.287695
-0.340573
-0.401251
-0.461218
-0.495357
-0.079222
-0.0907369
-0.1037
-0.118507
-0.13559
-0.155322
-0.178118
-0.204536
-0.235352
-0.271558
-0.314246
-0.363836
-0.417743
-0.46621
-0.495386
0.191263
0.206206
0.222815
0.241538
0.26247
0.285535
0.310644
0.337742
0.36675
0.397417
0.429163
0.460815
0.490372
0.513812
0.533117
0.190047
0.204366
0.22038
0.238555
0.258929
0.281351
0.305683
0.331858
0.359794
0.389228
0.419543
0.449517
0.477081
0.498257
0.515342
0.184705
0.197567
0.212325
0.229397
0.248615
0.269648
0.292271
0.316376
0.341839
0.368339
0.395179
0.421035
0.443683
0.459312
0.471077
0.175262
0.186037
0.199057
0.214509
0.231897
0.250709
0.270674
0.291654
0.31345
0.335608
0.357262
0.376913
0.392058
0.399068
0.403042
0.161714
0.170017
0.181084
0.194664
0.209758
0.225641
0.242037
0.258841
0.27581
0.29235
0.307381
0.319165
0.324847
0.320715
0.31508
0.144418
0.149904
0.158822
0.170266
0.182699
0.195227
0.207556
0.219552
0.230887
0.240818
0.248069
0.250669
0.245424
0.228465
0.21105
0.123721
0.126907
0.133907
0.14276
0.151771
0.160254
0.168005
0.174795
0.180083
0.18291
0.181787
0.174506
0.157568
0.127079
0.0970961
0.099473
0.10135
0.107168
0.113343
0.118558
0.122556
0.12532
0.126531
0.125439
0.120875
0.111142
0.0937946
0.0649928
0.0210899
-0.0206023
0.029545
0.0339848
0.0303108
0.03426
0.0318298
0.0361487
0.034423
0.0388494
0.0382397
0.0427665
0.0436023
0.0484653
0.0510174
0.0567378
0.0614813
0.068815
0.0763293
0.0862859
0.0975428
0.111627
0.127777
0.147547
0.170387
0.0296109
0.0340188
0.0303929
0.0343032
0.0319357
0.0362022
0.0345637
0.0389457
0.0384237
0.0429007
0.0438413
0.0486951
0.0513373
0.0571031
0.061919
0.0691982
0.0769206
0.0870323
0.0981532
0.112268
0.12815
0.14776
0.169987
0.0296869
0.0340273
0.0304926
0.0343169
0.0320662
0.0362213
0.0347355
0.0390071
0.0386522
0.0430023
0.04414
0.0488829
0.0516346
0.0573594
0.0622283
0.0694557
0.077123
0.0870646
0.0979498
0.111831
0.127031
0.146014
0.166642
0.0297714
0.0340121
0.030607
0.0343047
0.0322119
0.0362108
0.0349298
0.0390399
0.0388907
0.0430832
0.0444592
0.0490861
0.052001
0.0577684
0.0626594
0.069942
0.0774734
0.0874493
0.0977975
0.111309
0.125191
0.142814
0.160449
0.0298635
0.0339767
0.0307309
0.0342696
0.0323883
0.0361775
0.035141
0.0390535
0.0391507
0.0431259
0.0447571
0.0491881
0.0522546
0.0578218
0.0627655
0.0697947
0.0771762
0.0867224
0.0964653
0.109159
0.121464
0.137258
0.151003
0.0299604
0.0339237
0.0308723
0.0342162
0.0325678
0.0361342
0.0353635
0.0390575
0.0394479
0.0432173
0.0451406
0.0494256
0.0527237
0.0584177
0.0632558
0.0705209
0.07752
0.0870473
0.0958482
0.10765
0.117476
0.130415
0.138773
0.0300623
0.0338558
0.0310118
0.0341518
0.032749
0.0360745
0.0355806
0.0390307
0.039675
0.0432352
0.0453654
0.0494721
0.0528707
0.0581939
0.0630742
0.0698809
0.0766689
0.0852359
0.0933305
0.103387
0.111198
0.120832
0.123476
0.0301671
0.0337794
0.0311505
0.0340844
0.0329452
0.0360488
0.0358164
0.0390752
0.0400525
0.0434554
0.0458658
0.0499137
0.0535432
0.0591882
0.0637858
0.071039
0.0772725
0.0858643
0.0924598
0.101081
0.104991
0.109826
0.104987
0.0302877
0.033666
0.0313299
0.0339581
0.0331506
0.0359024
0.0360403
0.0389381
0.0402217
0.0433223
0.0459207
0.0496867
0.053342
0.0583834
0.0629137
0.0691289
0.0748767
0.0811287
0.0866916
0.0909827
0.0925805
0.0900412
0.0801139
0.0304455
0.033493
0.0315581
0.0337665
0.0333811
0.0356642
0.0362428
0.0385488
0.0402532
0.042865
0.0455871
0.0486809
0.0524048
0.0566002
0.060796
0.0655487
0.0702596
0.0741664
0.0776913
0.0785148
0.0777015
0.0720634
0.0638365
0.0306366
0.0332566
0.0318198
0.0335163
0.0336423
0.035338
0.0364482
0.0381764
0.0402324
0.0423948
0.0451644
0.0478868
0.0513317
0.0546819
0.0583966
0.0618422
0.0653075
0.0674316
0.068753
0.0676621
0.0646819
0.0587533
0.0510176
0.030862
0.032948
0.0321179
0.0332172
0.0338922
0.035053
0.0365475
0.0378627
0.0400732
0.0418772
0.0445473
0.0468559
0.0499504
0.0525111
0.0555848
0.0578828
0.0599552
0.0607393
0.060239
0.0578756
0.0537515
0.0477389
0.0406724
0.0311254
0.0325619
0.0324144
0.0329717
0.0340353
0.0348205
0.0365383
0.0375641
0.0397516
0.0413069
0.0436793
0.0456873
0.0482422
0.0501055
0.0524039
0.0537375
0.0545104
0.0542398
0.0525369
0.0494411
0.0449356
0.0390778
0.0325079
0.0314238
0.032156
0.0326182
0.0327972
0.0341045
0.0346161
0.0364063
0.0372442
0.0392669
0.0406548
0.0426052
0.0443422
0.0462859
0.0474698
0.0490167
0.0495356
0.049277
0.0481962
0.0458863
0.0424713
0.0379982
0.0325057
0.0263827
0.0317149
0.0317893
0.032712
0.0326772
0.0340799
0.0344334
0.0361362
0.0368898
0.0386347
0.039877
0.0413736
0.0428
0.0441474
0.0446975
0.0455566
0.0454304
0.0444496
0.0428163
0.0402706
0.0368534
0.0326105
0.0276337
0.0220845
0.0319713
0.0314772
0.0327158
0.0325926
0.0339487
0.0342525
0.0357411
0.0364712
0.0378819
0.0389481
0.0400152
0.0410784
0.0418916
0.041918
0.0421669
0.0415574
0.0401604
0.0382083
0.0356244
0.0323985
0.0285267
0.0241134
0.0191989
0.0321621
0.0312414
0.0326163
0.0325261
0.0337163
0.0340647
0.0352469
0.0359442
0.0370306
0.0378691
0.0385586
0.0392413
0.0395916
0.0392229
0.0389732
0.03804
0.0364494
0.0343786
0.031883
0.028955
0.0255473
0.0217275
0.0174896
0.0322701
0.0310929
0.032413
0.0324572
0.033397
0.0338018
0.0346879
0.0353044
0.0360932
0.0366708
0.037038
0.0373639
0.0373289
0.0366866
0.0360821
0.034957
0.0333197
0.0312888
0.0289767
0.0263946
0.0234795
0.0202529
0.0166816
0.0322817
0.0310268
0.0321232
0.0323505
0.0330302
0.0334517
0.0340816
0.0345591
0.0350815
0.0353939
0.0354933
0.0355178
0.0351833
0.034373
0.0335477
0.0323384
0.0307539
0.0288696
0.0268021
0.0245762
0.0221351
0.0194696
0.0165233
0.0321912
0.0310263
0.03178
0.032151
0.0326392
0.0330134
0.0334334
0.0337358
0.03402
0.034089
0.0339704
0.0337604
0.0332216
0.0323218
0.0313878
0.0301799
0.0287097
0.027028
0.025232
0.0233502
0.0213386
0.0191747
0.0167909
0.0320041
0.0310573
0.0314392
0.0318239
0.0322128
0.0325044
0.0327465
0.0328714
0.0329448
0.032812
0.0325193
0.03214
0.0314761
0.0305502
0.0295953
0.0284494
0.0271255
0.0256633
0.0241379
0.0225718
0.0209313
0.019192
0.0172864
0.0317382
0.0310608
0.0311452
0.0314037
0.0317236
0.0319239
0.032022
0.0319971
0.0318946
0.0316043
0.0311806
0.0306853
0.0299634
0.0290624
0.0281459
0.0270983
0.0259316
0.0246812
0.0234041
0.0221143
0.0207849
0.0193919
0.0178752
0.0314169
0.0309639
0.0308853
0.0310002
0.0311922
0.0312795
0.0312642
0.031129
0.0308992
0.0304966
0.0299813
0.029415
0.0286843
0.0278405
0.0269962
0.0260646
0.0250518
0.023992
0.0229317
0.0218799
0.0208123
0.0197044
0.0185035
0.0310674
0.0307719
0.0306323
0.0306088
0.0306435
0.0306126
0.0304965
0.0302785
0.029966
0.0295013
0.0289393
0.0283417
0.0276325
0.0268597
0.0261003
0.0252851
0.0244127
0.0235157
0.0226367
0.0217837
0.0209336
0.0200589
0.0191133
0.0307076
0.0305029
0.0303412
0.0302174
0.0301117
0.0299654
0.0297576
0.0294736
0.0291091
0.0286206
0.0280542
0.0274607
0.0267919
0.0260915
0.0254139
0.0247049
0.0239555
0.0231943
0.0224619
0.0217691
0.0210953
0.0204107
0.0196715
0.0303496
0.0301904
0.0300091
0.0298186
0.0296119
0.029367
0.0290783
0.0287409
0.0283425
0.0278528
0.027309
0.0267452
0.0261279
0.025496
0.0248919
0.0242762
0.0236346
0.022987
0.0223702
0.0218007
0.021264
0.0207291
0.0201559
0.0299992
0.0298568
0.029659
0.029423
0.0291496
0.0288338
0.0284837
0.0281044
0.0276828
0.0272017
0.0266914
0.0261703
0.0256091
0.0250397
0.0244991
0.0239619
0.0234116
0.0228572
0.0223306
0.0218522
0.021416
0.0209954
0.0205545
0.0296692
0.0295313
0.0293169
0.0290482
0.0287331
0.0283719
0.0279836
0.0275773
0.0271399
0.0266684
0.0261888
0.0257119
0.0252095
0.0247001
0.0242155
0.0237436
0.0232689
0.0227907
0.0223334
0.02192
0.0215532
0.0212136
0.0208707
0.0293806
0.0292415
0.0290146
0.0287237
0.0283809
0.0279921
0.0275821
0.0271626
0.0267179
0.0262506
0.025788
0.0253436
0.0248954
0.0244445
0.0240117
0.0235946
0.0231827
0.0227707
0.0223711
0.0220043
0.0216813
0.0213947
0.0211231
0.0291537
0.0290114
0.0287764
0.0284733
0.0281154
0.027712
0.0272891
0.0268663
0.0264289
0.0259724
0.0255195
0.0250944
0.0246883
0.0242868
0.0238915
0.0235045
0.0231258
0.0227542
0.0223956
0.0220634
0.0217685
0.0215108
0.021278
0.0290317
0.0288885
0.0286451
0.0283299
0.0279604
0.0275463
0.0271141
0.0266893
0.0262588
0.0258105
0.0253643
0.02495
0.0245677
0.0241962
0.0238256
0.0234598
0.0231058
0.0227656
0.022441
0.0221376
0.0218631
0.0216222
0.0214123
0.0668723
0.0484042
0.0258382
0.00432476
-0.0155313
-0.0340618
-0.0515604
-0.0669094
0.0545742
0.0373231
0.0152036
-0.00402102
-0.019449
-0.0324963
-0.0442856
-0.0543954
0.0438834
0.0307012
0.0120821
-0.00447959
-0.0160762
-0.0250115
-0.0334498
-0.0412471
0.0347044
0.0243499
0.00887982
-0.00527257
-0.0145577
-0.0207607
-0.0263582
-0.031458
0.0274504
0.0197221
0.00771791
-0.00363411
-0.0108076
-0.0150578
-0.0187936
-0.0224213
0.0216328
0.0157885
0.00707194
-0.00128131
-0.00677449
-0.0100089
-0.0126949
-0.0152361
0.0175285
0.0128623
0.00703659
0.00146953
-0.00256274
-0.00514983
-0.00719665
-0.00901478
0.0150518
0.0113912
0.00765121
0.00412049
0.00129059
-0.000748336
-0.00234763
-0.00366978
0.0138734
0.0110642
0.00874811
0.00661068
0.00471208
0.00317227
0.0019275
0.000949489
0.0136215
0.0115022
0.0101356
0.00891902
0.00769428
0.0065685
0.0056064
0.00486256
0.0139954
0.0124167
0.0116634
0.0110343
0.0102795
0.00948396
0.00876253
0.00820579
0.0147561
0.013601
0.0132326
0.0129625
0.0125209
0.0119733
0.0114414
0.0110184
0.0156814
0.0148509
0.014715
0.0146634
0.0144372
0.0140752
0.0136808
0.0133389
0.0166218
0.0160298
0.0160266
0.0161074
0.0160335
0.0158078
0.0155141
0.0152311
0.0175275
0.0171033
0.0171651
0.0173037
0.017313
0.0171766
0.0169565
0.0167187
0.0183557
0.018047
0.0181265
0.0182722
0.0183151
0.018232
0.0180641
0.0178626
0.019086
0.0188549
0.0189225
0.0190445
0.019089
0.0190313
0.0188966
0.0187224
0.0197061
0.0195266
0.0195657
0.0196467
0.0196722
0.0196201
0.0195043
0.0193506
0.0202122
0.020068
0.0200731
0.020107
0.0201031
0.0200438
0.0199366
0.0197975
0.0206086
0.0204874
0.0204604
0.0204493
0.0204123
0.0203383
0.0202312
0.020101
0.0209192
0.0208083
0.020747
0.0206912
0.0206188
0.0205254
0.0204137
0.0202896
0.0211083
0.0210047
0.0209236
0.0208394
0.0207422
0.0206329
0.0205156
0.0203944
0.0212555
0.0211394
0.0210262
0.0209099
0.0207897
0.0206684
0.0205483
0.0204308
-0.563239
-0.576976
-0.596453
-0.621382
-0.652319
-0.688092
-0.721703
-0.746954
-0.559117
-0.572138
-0.589927
-0.611523
-0.636745
-0.665539
-0.694052
-0.714787
-0.551383
-0.564937
-0.581148
-0.599795
-0.620196
-0.639268
-0.652947
-0.656539
-0.543791
-0.556376
-0.569427
-0.581651
-0.592073
-0.598339
-0.59783
-0.588089
-0.538274
-0.546476
-0.552317
-0.554953
-0.554492
-0.550215
-0.540432
-0.523007
-0.534735
-0.534074
-0.529922
-0.522983
-0.514104
-0.502845
-0.487433
-0.465639
-0.530571
-0.518228
-0.503931
-0.48933
-0.474709
-0.459063
-0.44026
-0.416103
-0.522376
-0.498214
-0.475759
-0.455827
-0.43753
-0.419233
-0.398473
-0.373164
-0.507285
-0.473886
-0.446229
-0.423047
-0.402697
-0.382916
-0.361248
-0.335629
-0.484268
-0.445797
-0.415702
-0.391113
-0.369914
-0.349618
-0.327803
-0.302559
-0.454332
-0.414689
-0.384515
-0.359909
-0.338935
-0.31884
-0.297525
-0.273162
-0.41916
-0.381582
-0.352833
-0.329524
-0.309479
-0.290241
-0.26993
-0.246875
-0.381349
-0.346788
-0.321123
-0.29993
-0.281391
-0.263593
-0.244662
-0.223302
-0.338827
-0.310941
-0.289491
-0.271305
-0.254817
-0.23863
-0.221424
-0.20191
-0.294402
-0.276704
-0.258016
-0.244384
-0.229043
-0.214832
-0.199264
-0.182225
-0.516412
-0.542301
-0.55857
-0.565087
-0.564299
-0.560116
-0.556354
-0.556435