/*--------------------------------*- C++ -*----------------------------------*\
| =========                 |                                                 |
| \\      /  F ield         | OpenFOAM: The Open Source CFD Toolbox           |
|  \\    /   O peration     | Version:  2512                                  |
|   \\  /    A nd           | Website:  www.openfoam.com                      |
|    \\/     M anipulation  |                                                 |
\*---------------------------------------------------------------------------*/
FoamFile
{
    version     2.0;
    format      ascii;
    arch        "LSB;label=32;scalar=64";
    class       volScalarField;
    location    "67.85";
    object      p;
}
// * * * * * * * * * * * * * * * * * * * * * * * * * * * * * * * * * * * * * //

dimensions      [0 2 -2 0 0 0 0];

internalField   nonuniform List<scalar> 
13248
(
-0.280746
-0.282195
-0.282353
-0.281703
-0.280205
-0.27757
-0.273291
-0.267243
-0.25927
-0.249364
-0.237719
-0.22474
-0.210988
-0.197092
-0.183633
-0.171069
-0.159668
-0.149565
-0.140677
-0.132994
-0.12619
-0.120251
-0.114612
-0.108945
-0.285086
-0.285645
-0.285297
-0.284316
-0.282592
-0.279763
-0.275458
-0.269382
-0.26134
-0.251332
-0.239592
-0.226571
-0.212845
-0.199
-0.185531
-0.172799
-0.161012
-0.150256
-0.140514
-0.131708
-0.123633
-0.116157
-0.108865
-0.101921
-0.290473
-0.290002
-0.288882
-0.287238
-0.284945
-0.281671
-0.277008
-0.270576
-0.262139
-0.251713
-0.239593
-0.22628
-0.212363
-0.198392
-0.184812
-0.171931
-0.15991
-0.148812
-0.13857
-0.129119
-0.120261
-0.111936
-0.103958
-0.0964345
-0.29676
-0.295193
-0.293118
-0.290588
-0.287509
-0.283545
-0.278205
-0.271025
-0.261764
-0.250518
-0.237693
-0.223869
-0.209649
-0.195553
-0.181953
-0.169067
-0.15699
-0.145715
-0.135195
-0.125365
-0.116098
-0.107423
-0.0990899
-0.0914019
-0.304264
-0.30155
-0.298442
-0.294944
-0.290928
-0.285991
-0.279535
-0.27107
-0.260473
-0.248023
-0.234279
-0.219881
-0.205399
-0.191252
-0.177696
-0.164854
-0.152764
-0.141416
-0.130769
-0.120766
-0.111342
-0.102468
-0.0940103
-0.086213
-0.313505
-0.309562
-0.305416
-0.300894
-0.295728
-0.289379
-0.281195
-0.270836
-0.258446
-0.244551
-0.229818
-0.21486
-0.200132
-0.185919
-0.172373
-0.159554
-0.147472
-0.136103
-0.125408
-0.115341
-0.105849
-0.0969097
-0.0884195
-0.0805897
-0.324913
-0.319642
-0.314425
-0.308749
-0.302052
-0.293657
-0.283056
-0.270271
-0.255809
-0.240383
-0.22466
-0.209138
-0.194127
-0.179791
-0.166202
-0.153372
-0.141287
-0.129916
-0.119221
-0.109156
-0.0996851
-0.0907554
-0.0823225
-0.0745128
-0.338673
-0.331966
-0.325591
-0.318472
-0.309641
-0.298438
-0.284789
-0.269234
-0.252595
-0.235643
-0.21894
-0.202825
-0.187471
-0.172941
-0.159245
-0.146365
-0.134266
-0.122909
-0.112247
-0.102236
-0.092827
-0.0839726
-0.0756562
-0.0678948
-0.354619
-0.346427
-0.338713
-0.329651
-0.317885
-0.303112
-0.285968
-0.267513
-0.248726
-0.2303
-0.212626
-0.195884
-0.180127
-0.165345
-0.151503
-0.138553
-0.126442
-0.115115
-0.104518
-0.0945971
-0.0853003
-0.076581
-0.0684221
-0.0607548
-0.372234
-0.362558
-0.353194
-0.341447
-0.325851
-0.3069
-0.286063
-0.264752
-0.243924
-0.224089
-0.205456
-0.188062
-0.171869
-0.156808
-0.142805
-0.129785
-0.117675
-0.106407
-0.0959134
-0.0861306
-0.0769975
-0.0684658
-0.060494
-0.0529624
-0.390599
-0.379466
-0.367967
-0.352593
-0.332327
-0.308834
-0.284311
-0.260288
-0.23755
-0.216387
-0.196831
-0.178804
-0.162189
-0.146868
-0.132732
-0.119678
-0.107614
-0.096455
-0.0861224
-0.0765425
-0.0676501
-0.0593859
-0.0516734
-0.044397
-0.408419
-0.395879
-0.381564
-0.361553
-0.335954
-0.307783
-0.27972
-0.253193
-0.228718
-0.206357
-0.18598
-0.167406
-0.150453
-0.134956
-0.120769
-0.107765
-0.0958301
-0.0848642
-0.0747755
-0.065484
-0.0569226
-0.0490291
-0.0417184
-0.0349042
-0.442719
-0.44369
-0.443928
-0.445382
-0.44882
-0.454334
-0.461844
-0.471208
-0.482207
-0.494491
-0.50756
-0.520744
-0.53314
-0.543659
-0.551005
-0.554716
-0.553622
-0.546939
-0.534272
-0.515718
-0.491914
-0.464057
-0.434103
-0.404287
-0.416083
-0.417553
-0.417474
-0.417894
-0.419655
-0.422843
-0.427352
-0.433006
-0.439556
-0.446657
-0.453862
-0.460572
-0.466065
-0.469168
-0.469755
-0.467082
-0.460595
-0.449999
-0.435368
-0.417239
-0.396584
-0.374625
-0.353018
-0.334635
-0.390212
-0.391958
-0.39156
-0.391033
-0.391219
-0.392187
-0.393801
-0.395846
-0.398041
-0.400039
-0.401404
-0.401621
-0.400067
-0.396665
-0.390805
-0.382212
-0.370819
-0.356815
-0.340702
-0.323344
-0.305995
-0.290117
-0.276831
-0.267824
-0.366232
-0.368096
-0.367482
-0.366259
-0.365198
-0.364337
-0.363513
-0.362483
-0.360951
-0.358581
-0.355014
-0.349886
-0.342937
-0.333969
-0.32288
-0.309749
-0.294882
-0.278839
-0.262444
-0.246752
-0.232978
-0.222596
-0.217339
-0.215105
-0.344805
-0.346714
-0.346043
-0.344442
-0.342554
-0.340368
-0.3377
-0.334304
-0.329897
-0.324197
-0.316946
-0.307901
-0.296949
-0.2841
-0.269525
-0.25359
-0.23688
-0.220202
-0.204549
-0.191052
-0.180907
-0.174958
-0.175349
-0.179009
-0.326203
-0.328168
-0.327603
-0.325919
-0.323604
-0.320577
-0.316637
-0.311562
-0.305124
-0.297108
-0.287295
-0.275603
-0.262058
-0.246844
-0.23032
-0.213044
-0.195762
-0.179365
-0.164959
-0.153469
-0.146352
-0.143237
-0.147211
-0.154103
-0.310476
-0.312561
-0.31222
-0.31066
-0.308214
-0.304721
-0.299972
-0.293774
-0.285959
-0.276343
-0.264844
-0.251473
-0.236382
-0.219884
-0.202469
-0.184801
-0.167745
-0.152219
-0.139333
-0.129598
-0.124951
-0.12378
-0.129707
-0.138003
-0.297641
-0.299914
-0.299841
-0.29849
-0.296074
-0.292364
-0.287136
-0.280222
-0.271477
-0.260826
-0.248263
-0.233902
-0.218
-0.200975
-0.183432
-0.166134
-0.149967
-0.135818
-0.124824
-0.117077
-0.114682
-0.11525
-0.122267
-0.130852
-0.287819
-0.290289
-0.290454
-0.289305
-0.286985
-0.28322
-0.277771
-0.270485
-0.261272
-0.250109
-0.237074
-0.222369
-0.206346
-0.189537
-0.172627
-0.156411
-0.141774
-0.129522
-0.12057
-0.114971
-0.113965
-0.115879
-0.122341
-0.130022
-0.28123
-0.28381
-0.284141
-0.283165
-0.280995
-0.27734
-0.271953
-0.264701
-0.255536
-0.244451
-0.231581
-0.217181
-0.201703
-0.185724
-0.169973
-0.155233
-0.142297
-0.131857
-0.124389
-0.120138
-0.119138
-0.120905
-0.125029
-0.129985
-0.278029
-0.280523
-0.280939
-0.28014
-0.278211
-0.274843
-0.269776
-0.263034
-0.254322
-0.24371
-0.231372
-0.217614
-0.202924
-0.187933
-0.173364
-0.159932
-0.148257
-0.138815
-0.131768
-0.127217
-0.124834
-0.124475
-0.125292
-0.12661
-0.278116
-0.280221
-0.280595
-0.27994
-0.278277
-0.275294
-0.270883
-0.264504
-0.256244
-0.246104
-0.234246
-0.221024
-0.20697
-0.19273
-0.178973
-0.166291
-0.155098
-0.145656
-0.137931
-0.131879
-0.127174
-0.123664
-0.121123
-0.119585
-0.372023
-0.344578
-0.33083
-0.332012
-0.347359
-0.371937
-0.399243
-0.421604
-0.429877
-0.4135
-0.367064
-0.300957
-0.234337
-0.181787
-0.148008
-0.131296
-0.128669
-0.137441
-0.158829
-0.198322
-0.252743
-0.300268
-0.313574
-0.285625
-0.231676
-0.174927
-0.130768
-0.104955
-0.0946733
-0.0979067
-0.11912
-0.158603
-0.198746
-0.21313
-0.189558
-0.146568
-0.104264
-0.0736351
-0.0572322
-0.0558349
-0.0696843
-0.083935
-0.0812674
-0.0614367
-0.0412587
-0.0312066
-0.0277163
-0.026636
-0.0269402
-0.0255501
-0.0195733
-0.00813785
-0.00078587
-0.00289542
-0.00612741
0.00153312
0.0133631
0.0228695
0.0265879
0.0117972
-0.31928
-0.312383
-0.318711
-0.335556
-0.361395
-0.39065
-0.417381
-0.437347
-0.443917
-0.426032
-0.377979
-0.310227
-0.241695
-0.186655
-0.1495
-0.12834
-0.121059
-0.125111
-0.140546
-0.172048
-0.218226
-0.260887
-0.275538
-0.252925
-0.207497
-0.158679
-0.121034
-0.100553
-0.0949833
-0.103376
-0.130879
-0.176855
-0.222279
-0.238902
-0.212672
-0.164192
-0.115209
-0.0776085
-0.0548826
-0.0472672
-0.0549591
-0.0639876
-0.0596367
-0.043186
-0.0289796
-0.023677
-0.0242272
-0.0275237
-0.032367
-0.0338853
-0.0269297
-0.0119326
0.00158984
0.00427177
0.00414309
0.0107487
0.0188857
0.0248619
0.0248614
0.00955287
-0.268313
-0.280135
-0.301578
-0.330874
-0.363894
-0.394849
-0.419719
-0.437023
-0.441489
-0.422623
-0.374728
-0.307598
-0.239743
-0.184962
-0.146693
-0.12269
-0.110798
-0.109751
-0.11898
-0.141933
-0.17886
-0.215967
-0.23193
-0.21619
-0.179799
-0.138969
-0.107812
-0.0927071
-0.0917762
-0.105204
-0.138422
-0.189857
-0.239941
-0.259602
-0.232197
-0.17918
-0.124314
-0.0804696
-0.0520796
-0.0389882
-0.0412507
-0.0458538
-0.0399701
-0.0262278
-0.0169159
-0.015686
-0.0203734
-0.028346
-0.0377122
-0.041922
-0.0338601
-0.0153696
0.00411977
0.0114602
0.014392
0.0198915
0.0244511
0.0267951
0.0227792
0.00696577
-0.2275
-0.251177
-0.282406
-0.318572
-0.354979
-0.386075
-0.409279
-0.424155
-0.426071
-0.405275
-0.357898
-0.293877
-0.230046
-0.177871
-0.140157
-0.114939
-0.0998758
-0.093692
-0.0965879
-0.111141
-0.138803
-0.169643
-0.186478
-0.177506
-0.149857
-0.116594
-0.0915618
-0.0814729
-0.0847134
-0.102271
-0.13987
-0.196002
-0.250586
-0.273935
-0.24701
-0.190896
-0.131213
-0.0821786
-0.048883
-0.0312289
-0.0289331
-0.0299818
-0.0227131
-0.0107466
-0.00514373
-0.00730199
-0.0161445
-0.028992
-0.0428379
-0.0494804
-0.0401934
-0.0183285
0.00677887
0.0185214
0.0244359
0.0288264
0.0300173
0.0286966
0.0203704
0.00405951
-0.195905
-0.224947
-0.26006
-0.298194
-0.335214
-0.366273
-0.387716
-0.400896
-0.400351
-0.378006
-0.332214
-0.273303
-0.215505
-0.16747
-0.131219
-0.105621
-0.0886951
-0.0789876
-0.0760533
-0.0823883
-0.100865
-0.125065
-0.141608
-0.138375
-0.118689
-0.0924035
-0.072907
-0.0671308
-0.0739182
-0.0945553
-0.134983
-0.194591
-0.253058
-0.280601
-0.256365
-0.199094
-0.135861
-0.0828986
-0.0455371
-0.0241609
-0.01816
-0.0165392
-0.00805812
0.00311663
0.00624139
0.00142974
-0.0115101
-0.029383
-0.0476139
-0.0563559
-0.0457922
-0.0207513
0.00953082
0.0253376
0.0341292
0.0374422
0.0355616
0.0306013
0.0176824
0.000879572
-0.171852
-0.200844
-0.235327
-0.272136
-0.307784
-0.339805
-0.359245
-0.369853
-0.366624
-0.343224
-0.300633
-0.24874
-0.198306
-0.155384
-0.121378
-0.0957725
-0.077543
-0.0653908
-0.0586508
-0.0582466
-0.067749
-0.0847002
-0.099328
-0.100763
-0.0875951
-0.0674837
-0.052789
-0.050564
-0.060155
-0.0827856
-0.124363
-0.185556
-0.247483
-0.279193
-0.259928
-0.203473
-0.138205
-0.0827317
-0.042257
-0.0179437
-0.00901637
-0.00548602
0.00393456
0.0151747
0.0170761
0.0103021
-0.00653506
-0.0293839
-0.0518339
-0.0623633
-0.0505123
-0.0225678
0.0123487
0.0318058
0.0433399
0.0456895
0.0410688
0.0325589
0.0147822
-0.00249946
-0.155073
-0.180917
-0.211738
-0.245042
-0.276728
-0.301495
-0.323305
-0.33241
-0.326993
-0.304125
-0.266856
-0.223309
-0.180732
-0.143133
-0.111816
-0.0866679
-0.0673795
-0.0533002
-0.043606
-0.0386227
-0.040676
-0.0500692
-0.06127
-0.06733
-0.0575863
-0.0429953
-0.0324053
-0.032845
-0.0444709
-0.068143
-0.108825
-0.169125
-0.233126
-0.269369
-0.256504
-0.203523
-0.138282
-0.0817866
-0.0392535
-0.0126558
-0.00146396
0.00339674
0.0133386
0.0253058
0.0270739
0.0191525
-0.00118313
-0.0289319
-0.0553702
-0.067357
-0.054256
-0.023727
0.0152234
0.0378567
0.0519559
0.0535496
0.0465262
0.0346105
0.0117392
-0.00599915
-0.145965
-0.166085
-0.190844
-0.219128
-0.247521
-0.268606
-0.284461
-0.290431
-0.28375
-0.263614
-0.233437
-0.198694
-0.16382
-0.13148
-0.10303
-0.078835
-0.0590072
-0.0434419
-0.0315139
-0.0230851
-0.0194599
-0.0219956
-0.0282664
-0.0337239
-0.0293777
-0.0200744
-0.0128858
-0.0151862
-0.0279751
-0.0515527
-0.0902474
-0.14742
-0.210789
-0.251843
-0.246157
-0.1992
-0.136138
-0.0800393
-0.0365739
-0.00827657
0.00462814
0.0104229
0.0203531
0.0334006
0.0360245
0.0276136
0.00436135
-0.0278346
-0.0579837
-0.0711371
-0.0568887
-0.0241761
0.0181631
0.043453
0.0599
0.0609984
0.0518901
0.0367959
0.00863434
-0.00954862
-0.141359
-0.153468
-0.171089
-0.192993
-0.212531
-0.230614
-0.242141
-0.246079
-0.240401
-0.225271
-0.20295
-0.176432
-0.148395
-0.120858
-0.095247
-0.0722925
-0.0523927
-0.0358475
-0.0223611
-0.0115808
-0.00404946
-0.000927023
-0.00198648
-0.00516427
-0.00444097
0.000634495
0.00492911
0.00151227
-0.0116458
-0.0345244
-0.0697217
-0.121812
-0.183664
-0.228087
-0.231883
-0.191312
-0.1319
-0.0773818
-0.0340802
-0.00465648
0.00950664
0.0159618
0.0253746
0.0393525
0.0436347
0.0356174
0.010362
-0.0261263
-0.059664
-0.073606
-0.0584032
-0.0239131
0.0211077
0.048566
0.0671117
0.0680349
0.0571394
0.0391418
0.00551589
-0.0130996
-0.135071
-0.139436
-0.151534
-0.167962
-0.180343
-0.19204
-0.200681
-0.20425
-0.201258
-0.19162
-0.176213
-0.156506
-0.134243
-0.111042
-0.0882447
-0.066826
-0.0473636
-0.0303494
-0.0158663
-0.00358657
0.00636103
0.0134248
0.0170005
0.0170554
0.0158305
0.0185286
0.0203524
0.01625
0.00338133
-0.0180647
-0.0495303
-0.096089
-0.152737
-0.199448
-0.205518
-0.177702
-0.125208
-0.0738819
-0.0319036
-0.00187075
0.0133425
0.0202993
0.0288355
0.043205
0.0498182
0.0425925
0.0162942
-0.0234654
-0.0599417
-0.0744734
-0.0585504
-0.0229725
0.0238818
0.0530777
0.0735653
0.0746407
0.062204
0.0416589
0.00245514
-0.0166109
-0.125781
-0.12728
-0.135271
-0.144454
-0.151591
-0.160072
-0.167419
-0.171564
-0.17132
-0.166013
-0.155696
-0.141092
-0.123362
-0.103808
-0.0836067
-0.0637759
-0.0450549
-0.0279643
-0.0128035
0.000511222
0.0120497
0.0216316
0.0287638
0.0323773
0.0329625
0.0341412
0.0332528
0.0287843
0.0167517
-0.0026398
-0.0296537
-0.0694524
-0.122344
-0.170857
-0.194867
-0.16563
-0.118831
-0.0708301
-0.0306487
-0.000351633
0.0160472
0.0236151
0.0311865
0.0449082
0.0546389
0.0490338
0.0229073
-0.019975
-0.0592801
-0.0738876
-0.0576708
-0.0214386
0.0265976
0.0569238
0.0791142
0.0808669
0.0671017
0.0443892
-0.000555475
-0.0200957
-0.11801
-0.119876
-0.122845
-0.123876
-0.129123
-0.13453
-0.139503
-0.143034
-0.143969
-0.141425
-0.135021
-0.124904
-0.111594
-0.0958739
-0.078641
-0.0607921
-0.0431607
-0.0264431
-0.0110266
0.00294163
0.0152986
0.0260795
0.0354825
0.0423096
0.0449829
0.0444792
0.0428398
0.0384272
0.0274938
0.00959619
-0.0131212
-0.0459816
-0.0921476
-0.137003
-0.157321
-0.143108
-0.10746
-0.064913
-0.0274328
0.0017502
0.0185622
0.0265552
0.0335249
0.04574
0.0538104
0.0531845
0.0290436
-0.015295
-0.0565093
-0.0711725
-0.0549091
-0.0185708
0.0303583
0.060865
0.083888
0.0865741
0.0717074
0.0473151
-0.00339327
-0.0234436
-0.111471
-0.117541
-0.119188
-0.118688
-0.119676
-0.122041
-0.125037
-0.127106
-0.127046
-0.124003
-0.117603
-0.107983
-0.0956114
-0.0811444
-0.0653581
-0.0490138
-0.0327566
-0.0171769
-0.00259592
0.0109026
0.0230281
0.0337706
0.0437137
0.0519749
0.0564073
0.0562053
0.051665
0.0464386
0.0378088
0.024192
0.00565295
-0.0227732
-0.0651003
-0.110371
-0.135932
-0.127075
-0.0929979
-0.0534903
-0.0192131
0.00719244
0.0227486
0.0299236
0.0361424
0.0475488
0.0573448
0.0589678
0.0365134
-0.00936362
-0.05317
-0.068532
-0.0515506
-0.0141914
0.0351862
0.0652445
0.0886379
0.0919485
0.0761461
0.0505315
-0.00589604
-0.0266674
-0.10236
-0.10976
-0.111317
-0.109248
-0.108132
-0.108265
-0.109302
-0.109921
-0.108854
-0.105295
-0.0989723
-0.0900517
-0.0789347
-0.0661425
-0.0522202
-0.0377142
-0.0231203
-0.00890989
0.00465936
0.0174683
0.0290968
0.0394086
0.0489577
0.0571025
0.0613814
0.0600933
0.0561517
0.0509717
0.0436826
0.0328907
0.0179504
-0.00531021
-0.0432806
-0.0874875
-0.113388
-0.106169
-0.0761332
-0.0411157
-0.0109014
0.0120968
0.0260342
0.0327833
0.0385907
0.0491226
0.0591906
0.0619143
0.0411911
-0.00469651
-0.0494366
-0.0642371
-0.0453048
-0.00855751
0.0401195
0.06924
0.0927321
0.0962422
0.0800712
0.0536077
-0.00832954
-0.0297551
-0.0911603
-0.0996455
-0.101771
-0.0996756
-0.0970525
-0.0954522
-0.0949667
-0.0945213
-0.0928866
-0.0892746
-0.0833967
-0.0753699
-0.0654964
-0.054157
-0.0417437
-0.0286556
-0.0153034
-0.00210878
0.0106098
0.0227433
0.0339941
0.0440145
0.0531128
0.0610135
0.0655202
0.0644803
0.0599286
0.0545446
0.0483109
0.039234
0.0261605
0.00626049
-0.0257694
-0.0633474
-0.0879057
-0.0845374
-0.0596873
-0.0295295
-0.00317767
0.0168943
0.0293494
0.0355082
0.0407569
0.0503802
0.060626
0.0634782
0.0433953
-0.00150144
-0.0444351
-0.0576007
-0.0377233
-0.00212919
0.0451286
0.073039
0.0964078
0.100032
0.0835869
0.0564082
-0.0109684
-0.0328685
-0.0802143
-0.0888243
-0.091241
-0.0892082
-0.0859534
-0.0834197
-0.0819146
-0.0806566
-0.0785854
-0.0749374
-0.0693827
-0.0619795
-0.0529802
-0.0427248
-0.0315477
-0.0197488
-0.00766549
0.00438251
0.0161404
0.0274128
0.0379569
0.0474634
0.0560072
0.0633865
0.0678784
0.0673386
0.0629766
0.0580428
0.0531354
0.0453438
0.0332793
0.0170132
-0.0067719
-0.0380366
-0.0627531
-0.0626308
-0.0427384
-0.0174786
0.00486601
0.0217658
0.0324965
0.0380603
0.0428237
0.0515292
0.0611087
0.0640865
0.0446684
0.00247678
-0.0371899
-0.0489858
-0.0287637
0.00533605
0.0505285
0.0766426
0.0995288
0.103371
0.0867211
0.0590861
-0.0136106
-0.035969
-0.0690893
-0.0774074
-0.0800537
-0.0783108
-0.0749854
-0.0719912
-0.0697929
-0.0679054
-0.0654759
-0.0618105
-0.0565801
-0.0498148
-0.0417276
-0.0325845
-0.0226394
-0.0120965
-0.00119061
0.00980523
0.0206689
0.0311811
0.0410737
0.050052
0.0580543
0.0648181
0.0691305
0.0691501
0.0654523
0.0613395
0.0577688
0.0511277
0.0407775
0.0296752
0.0130857
-0.0144027
-0.0386586
-0.0409745
-0.0261316
-0.00599512
0.0125159
0.0265826
0.0356231
0.0405697
0.044828
0.0526241
0.0606732
0.0637269
0.0461047
0.0083264
-0.0276382
-0.0382551
-0.0184228
0.0135589
0.0561055
0.0799812
0.102008
0.106209
0.0895942
0.0619337
-0.0161
-0.039005
-0.0577661
-0.0659385
-0.0687944
-0.0673396
-0.0641309
-0.0609637
-0.0583882
-0.0561233
-0.0535074
-0.049946
-0.0451201
-0.0390012
-0.0317331
-0.0235246
-0.0145852
-0.0050798
0.00479743
0.0147995
0.0247411
0.0344132
0.0435312
0.0518436
0.0592877
0.0655453
0.069642
0.0702072
0.0674552
0.0643424
0.0623381
0.0579751
0.0510556
0.0439879
0.030778
0.00560682
-0.0168629
-0.0205425
-0.0102736
0.00505586
0.0199419
0.0313496
0.0387131
0.0430319
0.0468198
0.0537576
0.0596441
0.0625861
0.0479583
0.0156864
-0.0159198
-0.0255385
-0.00698982
0.0222926
0.061806
0.0830221
0.103769
0.108496
0.0922697
0.0650378
-0.0183371
-0.0418972
-0.046994
-0.0547471
-0.0576037
-0.0564252
-0.0534657
-0.0503589
-0.0476788
-0.045272
-0.0426239
-0.0392302
-0.0347881
-0.0292325
-0.0226724
-0.0152914
-0.00728088
0.00121262
0.0100555
0.0190651
0.0280819
0.0369218
0.0453079
0.0529811
0.0598712
0.0656865
0.0696486
0.0707665
0.0691579
0.0671958
0.0667754
0.0658225
0.0631368
0.057897
0.0449801
0.0220357
0.00266209
-0.00170788
0.00441645
0.0152279
0.0267755
0.0359053
0.041787
0.0455002
0.0488616
0.0550355
0.0586047
0.0608498
0.0497404
0.0240125
-0.00228939
-0.0111211
0.0051597
0.0311306
0.0673972
0.0857072
0.104774
0.1102
0.0946934
0.0682749
-0.0201907
-0.044509
-0.0367181
-0.0438409
-0.0466621
-0.0457998
-0.0431721
-0.0402635
-0.0376479
-0.0352491
-0.0326616
-0.0294633
-0.0253889
-0.0203714
-0.0144966
-0.00791659
-0.000784732
0.00678662
0.0146998
0.0228043
0.030951
0.0389718
0.0466222
0.0536526
0.0599916
0.0653921
0.0692573
0.0709003
0.0704641
0.0697578
0.0707255
0.0724606
0.0728386
0.0685445
0.0558059
0.0359512
0.019877
0.0148247
0.0174305
0.0244027
0.0330208
0.040195
0.0448068
0.0479672
0.051002
0.0565459
0.0581178
0.058955
0.0514252
0.0330292
0.0126582
0.00436861
0.0174727
0.0396286
0.0726499
0.0879944
0.105017
0.111261
0.0967203
0.0714965
-0.0214325
-0.0466216
-0.0268193
-0.0334124
-0.0362194
-0.0356499
-0.033363
-0.0307124
-0.0282507
-0.0259516
-0.0234969
-0.0205392
-0.0168521
-0.0123681
-0.00714539
-0.00130092
0.00504146
0.0117801
0.0188274
0.0260648
0.0333661
0.0405831
0.0475164
0.0539324
0.0597469
0.0647662
0.0685417
0.0706389
0.071223
0.0716143
0.0734414
0.0762869
0.0779207
0.0746898
0.0635806
0.0474128
0.034111
0.0285173
0.0284925
0.0324268
0.038566
0.0441062
0.0477146
0.0503994
0.0531975
0.0583334
0.0586796
0.0577364
0.0535657
0.0423966
0.0278824
0.0200346
0.0293599
0.0473418
0.0772543
0.0898202
0.104498
0.111598
0.0982262
0.0745983
-0.0217368
-0.0479206
-0.0176104
-0.0236649
-0.0263633
-0.0260181
-0.0240669
-0.0217054
-0.0194531
-0.0173236
-0.0150666
-0.0123905
-0.00909714
-0.00511921
-0.000497183
0.0046725
0.0102817
0.0162399
0.0224765
0.0289006
0.0354092
0.0418657
0.0481103
0.0539388
0.0592567
0.0639182
0.067591
0.0700264
0.0713987
0.0725956
0.0747887
0.0776618
0.0794254
0.0771347
0.0684214
0.0558094
0.0448464
0.0391352
0.0374959
0.0392597
0.0434268
0.0476125
0.0504503
0.0527717
0.0553833
0.0602649
0.06054
0.0580874
0.0565253
0.0513903
0.0420816
0.0347437
0.0402034
0.0539171
0.0808829
0.0910939
0.103211
0.111183
0.0991402
0.077485
-0.0206836
-0.0479901
-0.00915855
-0.0145809
-0.0171007
-0.0169465
-0.0153209
-0.0132638
-0.011258
-0.0093427
-0.00731796
-0.00493706
-0.00202816
0.00147137
0.00553071
0.0100681
0.0149932
0.0202303
0.0257216
0.0313921
0.0371579
0.0428996
0.0484885
0.0537552
0.058599
0.0629183
0.0664731
0.0691154
0.071014
0.0727037
0.0749229
0.07742
0.078892
0.0771741
0.0706956
0.0611692
0.0523147
0.0469787
0.0445963
0.0449408
0.0476077
0.0506975
0.052949
0.0550301
0.0575039
0.0621714
0.0633231
0.0601251
0.0604948
0.0594628
0.0538498
0.0470233
0.0493687
0.0591642
0.0832159
0.0916559
0.101173
0.110081
0.0994066
0.0800342
-0.0177849
-0.0463298
-0.00129982
-0.00613477
-0.00849411
-0.00851095
-0.00718497
-0.00542515
-0.00367345
-0.00198357
-0.000198926
0.00188626
0.0044218
0.00746667
0.0109992
0.0149512
0.0192479
0.0238235
0.0286283
0.0336019
0.0386768
0.0437527
0.0487239
0.0534568
0.0578486
0.0618269
0.0652336
0.0679519
0.0701335
0.0720575
0.0741265
0.0761721
0.0772674
0.0759065
0.0712117
0.0642069
0.0572373
0.0525652
0.0500328
0.0495435
0.0511349
0.0533801
0.055172
0.0571037
0.0594691
0.063923
0.06624
0.0642271
0.0655389
0.0665356
0.0623482
0.0558787
0.0565751
0.0630541
0.0840378
0.0912489
0.0984158
0.108333
0.0989161
0.0820662
-0.0126125
-0.0424914
0.00592504
0.00160738
-0.000593185
-0.000741824
0.000323974
0.00181294
0.00332325
0.00478943
0.00633282
0.0081276
0.0103072
0.0129271
0.0159733
0.0193885
0.0231088
0.0270774
0.0312523
0.035586
0.0400234
0.0444838
0.0488784
0.0531033
0.0570639
0.0606995
0.0639116
0.0665953
0.0688641
0.0708445
0.0727055
0.0743477
0.0751374
0.0740608
0.0707084
0.0656714
0.0603163
0.0564173
0.0540809
0.0531855
0.0540338
0.0556798
0.0571144
0.0589158
0.0612192
0.065404
0.0685206
0.0685632
0.0705912
0.072324
0.0680349
0.0616906
0.0608167
0.0656575
0.0833498
0.089524
0.0949641
0.105815
0.0975009
0.0833095
-0.00492283
-0.0361702
0.0124565
0.00864062
0.00663046
0.00639631
0.00723881
0.00847921
0.00975739
0.0110026
0.0123113
0.0138316
0.0156803
0.0179087
0.0205087
0.023433
0.0266269
0.030042
0.0336431
0.0373929
0.0412463
0.0451396
0.0489982
0.0527413
0.0562894
0.0595814
0.0625567
0.0651227
0.0673422
0.0692671
0.0709245
0.0722514
0.0728455
0.0720363
0.0696728
0.0661184
0.062113
0.058973
0.056995
0.0559865
0.0563497
0.0575968
0.0587703
0.0604295
0.0626777
0.0665238
0.069929
0.0712906
0.0738204
0.0758047
0.0716656
0.0655956
0.064464
0.067239
0.0813244
0.0862995
0.0908379
0.102019
0.0948161
0.0832807
0.00513902
-0.0273726
0.0183584
0.0150254
0.0132169
0.012924
0.013568
0.0145768
0.015636
0.0166749
0.0177677
0.0190366
0.0205826
0.0224543
0.0246489
0.0271282
0.0298454
0.0327601
0.0358418
0.0390617
0.0423829
0.0457558
0.0491199
0.0524084
0.0555591
0.0585115
0.061222
0.0636147
0.0657036
0.0675076
0.0689871
0.0700894
0.0705824
0.0700286
0.0683941
0.0659351
0.0630259
0.0605834
0.0589999
0.0580664
0.058145
0.0591201
0.0601261
0.06162
0.0637475
0.0672109
0.0705223
0.0722188
0.0745332
0.0765556
0.0735122
0.0680987
0.0667601
0.0679882
0.0785027
0.0819688
0.0861008
0.0961901
0.0905039
0.0816583
0.0171352
-0.0164399
0.0237085
0.020809
0.0191775
0.0188296
0.0193018
0.0201117
0.020981
0.0218372
0.0227351
0.0237762
0.0250496
0.026601
0.0284318
0.0305116
0.0328012
0.0352663
0.0378807
0.0406224
0.0434622
0.0463608
0.0492704
0.0521337
0.0549018
0.0575213
0.059955
0.062141
0.0640593
0.0657114
0.0670404
0.0679924
0.0684474
0.0681296
0.0670409
0.0653807
0.0633354
0.0615032
0.0602917
0.0595348
0.0594797
0.0602535
0.0611655
0.0624809
0.0644061
0.0674589
0.0704153
0.0720245
0.0738243
0.0754542
0.0738444
0.069476
0.0684739
0.0682919
0.0755692
0.0775745
0.0812072
0.0887212
0.0847317
0.0782169
0.0299399
-0.00417296
0.0285234
0.0259937
0.0245184
0.0241464
0.024486
0.0251295
0.025832
0.0265231
0.0272444
0.0280822
0.0291139
0.0303819
0.0318901
0.0336149
0.0355237
0.0375875
0.0397848
0.042098
0.0445048
0.0469738
0.0494667
0.0519362
0.0543428
0.0566405
0.0587943
0.0607549
0.0624885
0.0639812
0.0651828
0.0660387
0.0664913
0.0663773
0.0657023
0.0646226
0.0632432
0.0619288
0.0610405
0.0604897
0.060408
0.0610241
0.0618735
0.0630172
0.0646934
0.067306
0.0697911
0.0712314
0.0725279
0.0736581
0.0731019
0.0699377
0.0691462
0.0682952
0.072854
0.0740651
0.0767805
0.0814534
0.0786879
0.0739392
0.0415712
0.00733533
0.0328067
0.0306191
0.0293184
0.0289444
0.029173
0.0296635
0.0302125
0.030756
0.0313231
0.0319839
0.0328052
0.0338251
0.0350499
0.0364619
0.0380344
0.0397434
0.041571
0.0435032
0.0455231
0.0476055
0.0497204
0.0518299
0.0538998
0.0558914
0.0577723
0.0595042
0.0610509
0.0623881
0.0634775
0.0642689
0.0647338
0.0647849
0.0644249
0.0637674
0.0628883
0.0619982
0.0613811
0.0610223
0.0609772
0.0614715
0.0622519
0.0632432
0.0646623
0.0668159
0.0688615
0.0700996
0.0710106
0.071755
0.0717023
0.0696509
0.0689141
0.0679954
0.0705335
0.0715321
0.0729571
0.075523
0.0740662
0.0699535
0.0491908
0.0152395
0.0366262
0.0347575
0.033612
0.0332337
0.0333686
0.0337305
0.0341489
0.0345659
0.0350006
0.0355094
0.0361489
0.036954
0.0379327
0.0390721
0.0403507
0.0417486
0.0432511
0.044847
0.0465236
0.0482616
0.0500374
0.0518197
0.0535798
0.0552856
0.0569092
0.0584191
0.0597834
0.0609728
0.0619584
0.0626988
0.0631793
0.0633563
0.0632296
0.0628773
0.0623653
0.0618096
0.0614162
0.0612148
0.0612312
0.0616363
0.0623272
0.0631846
0.0643584
0.0660648
0.0677082
0.0687414
0.0693902
0.0698676
0.0699432
0.0687058
0.0679404
0.0672222
0.0683773
0.0691891
0.0695138
0.0708297
0.0695047
0.064662
0.0498744
0.0181644
0.0400373
0.0384359
0.0374206
0.0370475
0.0371114
0.0373711
0.0376787
0.037985
0.0383048
0.0386836
0.0391684
0.0397901
0.0405575
0.0414617
0.0424858
0.0436131
0.0448321
0.0461337
0.0475085
0.0489419
0.0504151
0.0519033
0.0533827
0.0548267
0.0562118
0.0575123
0.0587021
0.0597516
0.0606383
0.0613313
0.0618204
0.0620841
0.0621248
0.061991
0.0617396
0.061436
0.0612203
0.0611399
0.0612144
0.0615555
0.0621436
0.0628731
0.0638216
0.0651292
0.0663989
0.0672291
0.0676939
0.0679721
0.0679952
0.0672132
0.0664254
0.0658005
0.0661101
0.0664676
0.0660127
0.066033
0.0635166
0.0571949
0.0446246
0.0172574
0.043048
0.0416806
0.0407906
0.0404287
0.0404324
0.0406101
0.040827
0.0410401
0.0412625
0.0415315
0.041886
0.0423526
0.0429407
0.043644
0.0444494
0.0453437
0.0463174
0.0473634
0.048475
0.0496411
0.0508473
0.052074
0.0533017
0.0545087
0.0556758
0.0567827
0.0578076
0.0587245
0.0595159
0.0601577
0.060642
0.0609581
0.0611113
0.061129
0.061056
0.0609324
0.0608499
0.0608562
0.0609717
0.0612637
0.0617454
0.0623462
0.063091
0.064041
0.0649906
0.0656227
0.0659334
0.0660463
0.0659522
0.0653491
0.0645529
0.0638545
0.063606
0.0633091
0.0622434
0.0609408
0.0573792
0.0503172
0.0382219
0.0149086
0.0456981
0.0445411
0.0437661
0.0434199
0.0433753
0.0434769
0.0436204
0.0437589
0.0439006
0.0440772
0.0443224
0.0446593
0.0450965
0.0456298
0.0462493
0.0469444
0.0477078
0.0485339
0.0494179
0.0503517
0.0513242
0.0523201
0.0533241
0.0543185
0.0552886
0.0562184
0.0570897
0.057881
0.0585778
0.059162
0.0596273
0.0599666
0.0601861
0.0603005
0.0603432
0.0603409
0.060349
0.0604107
0.0605466
0.0607936
0.0611728
0.0616449
0.0621987
0.0628723
0.0635286
0.063964
0.0641264
0.0640901
0.0638585
0.0632702
0.0624318
0.0615642
0.0608554
0.0599152
0.058293
0.0559189
0.0515544
0.0442907
0.0324751
0.0124916
0.0480329
0.0470553
0.0463794
0.0460499
0.0459678
0.0460088
0.0460859
0.0461638
0.0462419
0.0463437
0.0464986
0.0467275
0.0470385
0.0474292
0.0478919
0.0484185
0.0490031
0.0496415
0.0503303
0.0510636
0.0518334
0.0526275
0.0534338
0.0542382
0.0550295
0.0558003
0.0565307
0.0572032
0.0578062
0.0583258
0.0587575
0.0590951
0.0593437
0.0595108
0.0596192
0.059681
0.0597513
0.059842
0.0599771
0.0601768
0.0604597
0.0608059
0.0611939
0.0616308
0.0620357
0.0622785
0.0622917
0.0621108
0.0617338
0.061071
0.0601439
0.0590718
0.0579528
0.0564668
0.0543139
0.0511618
0.046252
0.0389399
0.0275939
0.0104078
0.0500754
0.0492513
0.0486637
0.0483528
0.0482423
0.048234
0.0482576
0.0482828
0.048309
0.0483526
0.0484345
0.0485742
0.0487804
0.0490522
0.0493837
0.0497683
0.050202
0.0506816
0.0512045
0.0517666
0.0523623
0.0529817
0.053615
0.054248
0.054863
0.0555065
0.0561106
0.0566707
0.0571803
0.0576292
0.0580142
0.0583296
0.0585789
0.0587648
0.058903
0.0590038
0.0590913
0.0591845
0.0592987
0.0594455
0.0596375
0.0598615
0.0600958
0.0603336
0.0605237
0.0605824
0.0604448
0.0601185
0.0595917
0.0588083
0.0577549
0.0564694
0.0549887
0.0530533
0.0504322
0.0467495
0.0414954
0.0341858
0.0235295
0.00871397
0.051854
0.0511617
0.0506518
0.0503596
0.0502279
0.0501795
0.0501582
0.0501383
0.050119
0.0501143
0.0501413
0.0502123
0.0503337
0.0505075
0.05073
0.0509963
0.0513034
0.0516492
0.0520323
0.0524497
0.0528979
0.0533706
0.053862
0.0543661
0.054883
0.055352
0.0558182
0.0562639
0.0566785
0.0570515
0.0573793
0.0576562
0.0578841
0.0580622
0.0582002
0.0583045
0.0583903
0.0584665
0.0585456
0.0586318
0.0587334
0.0588385
0.0589311
0.058998
0.0590021
0.0588877
0.0585992
0.0581259
0.0574474
0.0565215
0.0553183
0.053824
0.0520323
0.0497345
0.0467384
0.0427084
0.0372709
0.0300661
0.020204
0.00736447
0.0533956
0.0528149
0.0523725
0.0520989
0.0519516
0.0518713
0.0518138
0.0517579
0.0517019
0.0516556
0.0516332
0.0516464
0.0517023
0.0517995
0.0519348
0.0521033
0.0523052
0.0525392
0.0528046
0.0530994
0.0534211
0.0537647
0.0541246
0.0544959
0.0548729
0.0552426
0.0556042
0.0559502
0.0562751
0.0565712
0.0568351
0.0570615
0.0572512
0.0574014
0.0575177
0.0576023
0.0576643
0.057707
0.0577387
0.0577586
0.0577692
0.0577625
0.0577256
0.0576415
0.0574814
0.0572057
0.0567686
0.056149
0.0553201
0.0542437
0.0528816
0.0511921
0.0491409
0.04656
0.0432861
0.0390469
0.0335589
0.0265674
0.0175055
0.00629285
0.0547248
0.0542377
0.0538529
0.0535967
0.0534382
0.0533327
0.0532461
0.0531613
0.0530761
0.0529975
0.0529365
0.0529025
0.0529007
0.0529319
0.0529942
0.053086
0.0532036