/*--------------------------------*- C++ -*----------------------------------*\
| =========                 |                                                 |
| \\      /  F ield         | OpenFOAM: The Open Source CFD Toolbox           |
|  \\    /   O peration     | Version:  2512                                  |
|   \\  /    A nd           | Website:  www.openfoam.com                      |
|    \\/     M anipulation  |                                                 |
\*---------------------------------------------------------------------------*/
FoamFile
{
    version     2.0;
    format      ascii;
    arch        "LSB;label=32;scalar=64";
    class       surfaceScalarField;
    location    "47.5";
    object      phi;
}
// * * * * * * * * * * * * * * * * * * * * * * * * * * * * * * * * * * * * * //

dimensions      [0 3 -1 0 0 0 0];

oriented        oriented;

internalField   nonuniform List<scalar> 
19380
(
0.874547
-4.45396e-05
0.87468
-0.000132566
0.874897
-0.000217529
0.875196
-0.000299251
0.875573
-0.000376268
0.87602
-0.000446881
0.876529
-0.000509811
0.877093
-0.000563995
0.877703
-0.000609146
0.878348
-0.000645535
0.879022
-0.000673798
0.879717
-0.000694743
0.880426
-0.000709214
0.881144
-0.00071802
0.881866
-0.000721904
0.882587
-0.000721536
0.883305
-0.000717512
0.884015
-0.000710358
0.884716
-0.000700535
0.885404
-0.000688446
0.886079
-0.000674438
0.886737
-0.000658811
0.887379
-0.000641824
0.888003
-0.000623698
0.888608
-0.000604636
0.889192
-0.000584815
0.889757
-0.000564403
0.8903
-0.000543556
0.890823
-0.000522424
0.891324
-0.000501151
0.891804
-0.00047982
0.892262
-0.000458513
0.8927
-0.000437364
0.893116
-0.000416488
0.893512
-0.000395985
0.893888
-0.00037594
0.894244
-0.000356425
0.894582
-0.000337499
0.894901
-0.000319211
-0.000301644
0.895203
0.844006
-8.71884e-05
0.844133
-0.000259694
0.844342
-0.00042635
0.84463
-0.000586824
0.844992
-0.000738237
0.845422
-0.000877196
0.845913
-0.00100124
0.846458
-0.00110822
0.847046
-0.00119754
0.84767
-0.00126973
0.848322
-0.00132601
0.848996
-0.00136794
0.849684
-0.00139716
0.850381
-0.00141526
0.851083
-0.00142366
0.851785
-0.00142368
0.852484
-0.00141646
0.853176
-0.00140304
0.85386
-0.00138431
0.854533
-0.00136105
0.855192
-0.00133394
0.855837
-0.00130356
0.856466
-0.00127043
0.857077
-0.00123496
0.85767
-0.00119757
0.858244
-0.00115861
0.858798
-0.0011184
0.859331
-0.00107727
0.859844
-0.00103551
0.860337
-0.000993413
0.860808
-0.000951164
0.861258
-0.000908925
0.861688
-0.000866965
0.862097
-0.000825519
0.862486
-0.00078479
0.862855
-0.000744949
0.863205
-0.000706146
0.863536
-0.000668504
0.863848
-0.00063212
-0.000597163
0.864144
0.814531
-0.000127645
0.814652
-0.000380603
0.814851
-0.000625468
0.815126
-0.000861759
0.815473
-0.00108525
0.815887
-0.00129061
0.81636
-0.00147438
0.816885
-0.00163328
0.817454
-0.00176637
0.818058
-0.00187436
0.818691
-0.001959
0.819346
-0.00202257
0.820016
-0.00206745
0.820697
-0.00209591
0.821383
-0.00211007
0.822071
-0.0021118
0.822758
-0.00210279
0.823439
-0.00208451
0.824113
-0.00205826
0.824777
-0.00202517
0.82543
-0.00198622
0.826068
-0.00194227
0.826692
-0.00189404
0.827299
-0.00184218
0.827889
-0.00178726
0.82846
-0.00172983
0.829012
-0.00167039
0.829544
-0.00160939
0.830056
-0.00154731
0.830547
-0.00148459
0.831018
-0.00142157
0.831467
-0.00135848
0.831896
-0.00129571
0.832304
-0.00123363
0.832692
-0.00117257
0.83306
-0.0011128
0.833408
-0.00105454
0.833737
-0.000997985
0.834049
-0.000943303
-0.000890743
0.834342
0.786086
-0.000165684
0.7862
-0.000494735
0.786388
-0.000814119
0.78665
-0.00112323
0.786981
-0.00141652
0.787377
-0.00168664
0.787832
-0.00192893
0.788338
-0.0021392
0.788887
-0.00231604
0.789473
-0.00246029
0.790088
-0.00257416
0.790726
-0.00266055
0.791381
-0.0027225
0.792048
-0.00276297
0.792723
-0.00278466
0.793401
-0.00279
0.79408
-0.00278111
0.794755
-0.00275988
0.795425
-0.00272797
0.796086
-0.00268683
0.796738
-0.0026377
0.797377
-0.00258166
0.798003
-0.00251966
0.798613
-0.00245252
0.799207
-0.00238102
0.799783
-0.00230586
0.80034
-0.00222772
0.800878
-0.00214722
0.801396
-0.00206501
0.801893
-0.00198169
0.802369
-0.00189781
0.802824
-0.0018137
0.803258
-0.00172985
0.803672
-0.00164679
0.804064
-0.00156496
0.804436
-0.00148476
0.804788
-0.00140652
0.805121
-0.00133051
0.805434
-0.00125697
-0.00118624
0.80573
0.758633
-0.000201105
0.75874
-0.000601563
0.758917
-0.000991571
0.759164
-0.00137037
0.759479
-0.0017311
0.759857
-0.0020646
0.760292
-0.00236422
0.760778
-0.00262554
0.761309
-0.0028464
0.761876
-0.00302769
0.762474
-0.003172
0.763096
-0.00328279
0.763737
-0.00336369
0.764393
-0.00341829
0.765058
-0.00344981
0.765729
-0.00346114
0.766403
-0.00345481
0.767076
-0.00343305
0.767746
-0.00339784
0.76841
-0.00335088
0.769066
-0.00329364
0.769712
-0.00322739
0.770345
-0.00315325
0.770965
-0.00307222
0.771569
-0.00298526
0.772156
-0.00289324
0.772726
-0.00279702
0.773276
-0.0026974
0.773806
-0.00259521
0.774316
-0.00249122
0.774804
-0.00238623
0.775271
-0.00228074
0.775717
-0.00217532
0.77614
-0.00207064
0.776543
-0.00196734
0.776924
-0.00186592
0.777284
-0.00176685
0.777624
-0.0016705
0.777945
-0.0015772
-0.00148741
0.778246
0.732139
-0.000233723
0.732238
-0.000700591
0.732403
-0.00115709
0.732635
-0.00160225
0.732932
-0.00202792
0.733291
-0.00242339
0.733706
-0.00277934
0.734172
-0.00309139
0.734682
-0.00335667
0.73523
-0.00357599
0.73581
-0.00375222
0.736417
-0.00388929
0.737045
-0.00399141
0.737689
-0.00406266
0.738346
-0.00410675
0.739012
-0.00412696
0.739683
-0.00412613
0.740357
-0.00410679
0.74103
-0.00407116
0.7417
-0.00402112
0.742365
-0.00395832
0.743022
-0.00388415
0.743668
-0.00379989
0.744303
-0.00370671
0.744923
-0.00360571
0.745528
-0.00349793
0.746115
-0.00338441
0.746684
-0.00326614
0.747233
-0.00314414
0.747761
-0.0030194
0.748268
-0.00289294
0.748753
-0.00276558
0.749215
-0.00263792
0.749656
-0.0025108
0.750073
-0.00238504
0.750469
-0.00226134
0.750842
-0.0021403
0.751194
-0.00202243
0.751525
-0.00190815
-0.00179806
0.751836
0.706569
-0.000263367
0.70666
-0.000791352
0.706813
-0.00130994
0.707029
-0.00181794
0.707307
-0.0023059
0.707645
-0.00276147
0.708038
-0.00317319
0.708482
-0.00353543
0.708971
-0.00384554
0.709499
-0.00410396
0.710061
-0.00431374
0.710651
-0.00447921
0.711264
-0.00460506
0.711898
-0.00469587
0.712547
-0.00475569
0.713208
-0.0047881
0.713878
-0.00479621
0.714554
-0.00478277
0.715233
-0.00475014
0.715912
-0.00470033
0.716589
-0.00463504
0.71726
-0.00455577
0.717924
-0.00446391
0.718578
-0.00436074
0.71922
-0.00424751
0.719848
-0.00412539
0.720459
-0.00399561
0.721052
-0.00385933
0.721626
-0.00371785
0.722179
-0.00357234
0.72271
-0.00342407
0.723218
-0.00327419
0.723704
-0.00312353
0.724166
-0.00297298
0.724605
-0.0028236
0.72502
-0.00267631
0.725411
-0.00253189
0.72578
-0.00239101
0.726126
-0.00225422
-0.00212229
0.72645
0.681893
-0.000289891
0.681975
-0.000873413
0.682114
-0.00144944
0.682313
-0.00201651
0.682571
-0.00256383
0.682886
-0.00307736
0.683257
-0.00354417
0.683678
-0.00395605
0.684144
-0.00431127
0.68465
-0.00460983
0.685191
-0.00485478
0.685762
-0.00505086
0.686361
-0.0052032
0.686981
-0.00531676
0.687622
-0.00539581
0.688278
-0.00544416
0.688947
-0.00546513
0.689625
-0.00546161
0.690311
-0.00543601
0.691001
-0.0053903
0.691692
-0.0053262
0.692382
-0.00524524
0.693067
-0.00514887
0.693744
-0.00503843
0.694412
-0.00491527
0.695068
-0.00478066
0.695708
-0.00463601
0.696331
-0.00448271
0.696936
-0.00432226
0.69752
-0.00415612
0.698081
-0.00398581
0.69862
-0.00381274
0.699134
-0.00363822
0.699625
-0.00346315
0.70009
-0.00328883
0.70053
-0.00311643
0.700945
-0.00294697
0.701335
-0.00278131
0.701701
-0.00262019
-0.00246454
0.702044
0.658077
-0.000313167
0.65815
-0.000946391
0.658276
-0.00157493
0.658456
-0.00219703
0.658693
-0.00280057
0.658985
-0.00336968
0.659331
-0.00389
0.659727
-0.00435159
0.660167
-0.0047518
0.660649
-0.00509133
0.661167
-0.00537299
0.661718
-0.00560192
0.662299
-0.00578363
0.662905
-0.0059233
0.663535
-0.00602534
0.664184
-0.00609374
0.664851
-0.00613197
0.665532
-0.00614293
0.666225
-0.00612894
0.666927
-0.00609183
0.667634
-0.00603326
0.668343
-0.00595469
0.669052
-0.00585758
0.669757
-0.00574324
0.670455
-0.00561305
0.671142
-0.00546835
0.671817
-0.00531074
0.672476
-0.00514179
0.673117
-0.00496327
0.673738
-0.00477688
0.674337
-0.00458446
0.674911
-0.0043877
0.675462
-0.00418836
0.675986
-0.00398766
0.676484
-0.00378698
0.676956
-0.00358779
0.6774
-0.0033914
0.677818
-0.00319895
0.678209
-0.00301134
-0.00282979
0.678574
0.635094
-0.000333086
0.635157
-0.00100999
0.635268
-0.00168586
0.63543
-0.00235866
0.635644
-0.00301502
0.635912
-0.00363697
0.63623
-0.00420874
0.636599
-0.00471978
0.637012
-0.00516495
0.637466
-0.00554585
0.637959
-0.00586553
0.638486
-0.00612949
0.639046
-0.00634344
0.639635
-0.00651266
0.640252
-0.00664161
0.640892
-0.00673448
0.641555
-0.00679478
0.642238
-0.00682529
0.642937
-0.00682806
0.64365
-0.00680469
0.644373
-0.00675668
0.645104
-0.00668535
0.645838
-0.00659205
0.646573
-0.00647791
0.647304
-0.00634431
0.648028
-0.00619262
0.648742
-0.00602457
0.649442
-0.00584191
0.650126
-0.00564669
0.65079
-0.00544083
0.651432
-0.00522653
0.65205
-0.00500579
0.652642
-0.00478079
0.653208
-0.00455331
0.653746
-0.00432481
0.654255
-0.00409704
0.654735
-0.00387167
0.655187
-0.00365015
0.655609
-0.00343364
-0.00322367
0.656003
0.612912
-0.000349585
0.612966
-0.00106397
0.613062
-0.00178172
0.613204
-0.00250076
0.613396
-0.00320617
0.613636
-0.00387782
0.613926
-0.00449881
0.614265
-0.00505786
0.614648
-0.00554842
0.615073
-0.00597056
0.615536
-0.00632925
0.616037
-0.00663025
0.616573
-0.00687918
0.617142
-0.0070813
0.617741
-0.00724116
0.61837
-0.00736315
0.619026
-0.00745069
0.619707
-0.00750623
0.62041
-0.00753145
0.621133
-0.00752759
0.621872
-0.00749593
0.622624
-0.00743749
0.623386
-0.00735336
0.624152
-0.00724438
0.62492
-0.00711185
0.625684
-0.00695706
0.626441
-0.00678189
0.627188
-0.00658818
0.627919
-0.00637823
0.628633
-0.00615422
0.629325
-0.0059187
0.629993
-0.00567403
0.630635
-0.00542282
0.631249
-0.00516741
0.631834
-0.00490969
0.632388
-0.00465151
0.632912
-0.00439497
0.633404
-0.00414191
0.633864
-0.00389382
-0.00365259
0.634293
0.591506
-0.000362647
0.59155
-0.00110814
0.59163
-0.00186219
0.591752
-0.00262285
0.591919
-0.00337314
0.592132
-0.00409091
0.592392
-0.00475867
0.592698
-0.00536392
0.593049
-0.00589896
0.593441
-0.00636272
0.593873
-0.00676092
0.594343
-0.00710061
0.594851
-0.00738689
0.595395
-0.00762504
0.595973
-0.0078198
0.596586
-0.0079757
0.597231
-0.00809588
0.597907
-0.00818226
0.598612
-0.00823605
0.599342
-0.00825811
0.600095
-0.00824936
0.600868
-0.0082103
0.601657
-0.00814159
0.602456
-0.00804367
0.603262
-0.00791763
0.604069
-0.00776462
0.604874
-0.00758657
0.605671
-0.00738534
0.606456
-0.00716345
0.607225
-0.00692329
0.607974
-0.00666781
0.6087
-0.00639974
0.6094
-0.00612218
0.61007
-0.00583791
0.61071
-0.00554963
0.611318
-0.00525926
0.611892
-0.0049693
0.612432
-0.00468207
0.612938
-0.00439946
-0.00412383
0.613409
0.570846
-0.000372295
0.570881
-0.00114236
0.570945
-0.00192711
0.571047
-0.00272467
0.571189
-0.00351513
0.571374
-0.00427516
0.571602
-0.00498711
0.571874
-0.00563628
0.572189
-0.00621361
0.572545
-0.006719
0.572942
-0.00715743
0.573378
-0.00753685
0.573853
-0.0078623
0.574368
-0.00813928
0.574921
-0.00837279
0.575512
-0.00856738
0.576142
-0.00872564
0.576809
-0.00884885
0.57751
-0.00893776
0.578245
-0.00899272
0.57901
-0.00901415
0.579801
-0.0090018
0.580615
-0.0089557
0.581447
-0.00887573
0.582293
-0.00876269
0.583145
-0.00861746
0.584001
-0.00844187
0.584853
-0.00823769
0.585697
-0.00800761
0.586528
-0.00775419
0.587341
-0.0074808
0.588132
-0.00719051
0.588897
-0.00688697
0.589632
-0.0065734
0.590336
-0.00625332
0.591006
-0.00592913
0.59164
-0.00560354
0.592237
-0.00527941
0.592797
-0.00495917
-0.00464571
0.593319
0.550908
-0.000378577
0.550933
-0.00116652
0.550982
-0.00197663
0.551064
-0.00280612
0.55118
-0.00363149
0.551335
-0.00442995
0.551531
-0.00518324
0.551768
-0.00587326
0.552044
-0.00649026
0.552361
-0.0070359
0.552719
-0.00751554
0.553118
-0.0079352
0.553556
-0.00830097
0.554036
-0.00861918
0.554559
-0.008895
0.555124
-0.00913279
0.555733
-0.00933442
0.556384
-0.00950051
0.557078
-0.00963139
0.557812
-0.00972673
0.558584
-0.00978625
0.559391
-0.00980869
0.560229
-0.00979333
0.561092
-0.00973932
0.561977
-0.00964699
0.562876
-0.00951675
0.563784
-0.00935019
0.564695
-0.00914886
0.565603
-0.00891553
0.566502
-0.00865285
0.567386
-0.00836459
0.568249
-0.00805412
0.569088
-0.0077257
0.569898
-0.00738299
0.570675
-0.00703024
0.571416
-0.00667076
0.57212
-0.00630748
0.572784
-0.00594373
0.573408
-0.0055826
-0.00522765
0.57399
0.531667
-0.000381512
0.531681
-0.00118059
0.531715
-0.00201121
0.531776
-0.00286709
0.531867
-0.00372181
0.531992
-0.00455522
0.532155
-0.00534643
0.532355
-0.00607325
0.532592
-0.00672697
0.532867
-0.00731126
0.533183
-0.00783126
0.53354
-0.00829192
0.533937
-0.00869858
0.534378
-0.00905985
0.534864
-0.00938101
0.535397
-0.00966599
0.535979
-0.00991596
0.536609
-0.0101309
0.537288
-0.0103107
0.538016
-0.0104543
0.53879
-0.0105603
0.539607
-0.0106263
0.540465
-0.0106508
0.541357
-0.0106318
0.54228
-0.0105691
0.543225
-0.0104625
0.544188
-0.0103129
0.545161
-0.0101217
0.546137
-0.00989142
0.547109
-0.0096248
0.54807
-0.00932593
0.549014
-0.00899843
0.549936
-0.00864716
0.550829
-0.00827623
0.551689
-0.00789067
0.552513
-0.00749465
0.553298
-0.0070919
0.55404
-0.00668591
0.554738
-0.00628059
-0.00588028
0.555391
0.513097
-0.000381001
0.513101
-0.00118478
0.513121
-0.00203159
0.513161
-0.00290737
0.513226
-0.00378624
0.513322
-0.00465152
0.513452
-0.00547613
0.513614
-0.00623494
0.513809
-0.00692232
0.514041
-0.0075433
0.514311
-0.00810176
0.514622
-0.00860249
0.514974
-0.00905094
0.515371
-0.00945658
0.515815
-0.00982526
0.51631
-0.0101607
0.516858
-0.0104634
0.51746
-0.0107329
0.518117
-0.0109686
0.518831
-0.0111683
0.519601
-0.0113296
0.520423
-0.0114486
0.521295
-0.0115227
0.522212
-0.011549
0.523169
-0.0115263
0.52416
-0.0114532
0.525177
-0.0113302
0.526214
-0.0111579
0.527261
-0.0109386
0.528311
-0.010675
0.529356
-0.0103713
0.530389
-0.0100312
0.531402
-0.00966037
0.532389
-0.00926314
0.533344
-0.00884551
0.534262
-0.00841225
0.535138
-0.00796858
0.53597
-0.00751797
0.536755
-0.00706521
-0.00661553
0.53749
0.495175
-0.000376746
0.49517
-0.00117969
0.495176
-0.00203846
0.495196
-0.0029267
0.495235
-0.00382586
0.495304
-0.00471971
0.495399
-0.00557169
0.495522
-0.00635749
0.495675
-0.00707548
0.495862
-0.00773054
0.496085
-0.00832479
0.496346
-0.00886344
0.496649
-0.00935343
0.496997
-0.0098048
0.497394
-0.0102223
0.497844
-0.0106105
0.49835
-0.0109696
0.498916
-0.0112988
0.499544
-0.0115971
0.500237
-0.0118606
0.500993
-0.012086
0.501812
-0.0122679
0.502692
-0.0124024
0.503628
-0.0124852
0.504616
-0.012514
0.505649
-0.0124859
0.506719
-0.0124007
0.507819
-0.0122578
0.50894
-0.0120595
0.510072
-0.0118076
0.511208
-0.0115065
0.512336
-0.0111601
0.51345
-0.0107744
0.514541
-0.0103541
0.515602
-0.00990619
0.516626
-0.00943597
0.517607
-0.00895029
0.518543
-0.0084531
0.519427
-0.00794986
-0.00744674
0.520258
0.477878
-0.000368209
0.477865
-0.00116645
0.477858
-0.00203216
0.477857
-0.0029252
0.477874
-0.00384276
0.477914
-0.00476038
0.477975
-0.00563255
0.478059
-0.00644087
0.478169
-0.00718614
0.478311
-0.00787185
0.478484
-0.00849846
0.478693
-0.0090724
0.478942
-0.00960234
0.479237
-0.0100993
0.479581
-0.0105667
0.47998
-0.0110091
0.480438
-0.0114274
0.480959
-0.0118207
0.48155
-0.0121874
0.482211
-0.0125222
0.482946
-0.0128204
0.483753
-0.0130751
0.484632
-0.0132812
0.485579
-0.0134327
0.486591
-0.0135256
0.48766
-0.0135556
0.488781
-0.0135211
0.489943
-0.0134203
0.491139
-0.0132547
0.492356
-0.0130254
0.493587
-0.0127368
0.494819
-0.0123921
0.496042
-0.0119981
0.497248
-0.0115596
0.498427
-0.0110847
0.49957
-0.010579
0.50067
-0.010051
0.501723
-0.00950575
0.502722
-0.00894932
-0.00838873
0.503664
0.461184
-0.000354608
0.461164
-0.00114669
0.461145
-0.0020124
0.461123
-0.00290396
0.46112
-0.0038397
0.461133
-0.00477336
0.46116
-0.00565867
0.461204
-0.00648578
0.461273
-0.00725428
0.461367
-0.0079666
0.46149
-0.00862147
0.461645
-0.00922758
0.461838
-0.00979521
0.462075
-0.0103358
0.462361
-0.0108527
0.462702
-0.0113506
0.463105
-0.0118298
0.463574
-0.0122905
0.464117
-0.0127303
0.464738
-0.0131429
0.46544
-0.0135222
0.466225
-0.0138597
0.467092
-0.0141489
0.468041
-0.0143818
0.469068
-0.0145526
0.470168
-0.0146551
0.471333
-0.0146861
0.472555
-0.0146421
0.473823
-0.0145235
0.475128
-0.0143301
0.476457
-0.014066
0.477799
-0.0137337
0.479141
-0.0133403
0.480472
-0.0128905
0.48178
-0.0123935
0.483057
-0.0118552
0.484292
-0.0112859
0.485477
-0.0106916
0.486608
-0.0100799
-0.00945792
0.487677
0.445072
-0.000334929
0.445048
-0.00112234
0.445014
-0.00197827
0.444976
-0.00286578
0.444955
-0.00381907
0.444939
-0.00475758
0.444932
-0.00565119
0.444939
-0.00649326
0.444965
-0.00728025
0.445013
-0.00801485
0.445085
-0.00869318
0.445186
-0.00932797
0.44532
-0.00993007
0.445496
-0.0105113
0.445719
-0.0110754
0.445996
-0.0116284
0.446337
-0.0121699
0.446746
-0.0127001
0.447232
-0.0132166
0.447802
-0.0137123
0.44846
-0.0141801
0.44921
-0.0146098
0.450054
-0.0149934
0.450993
-0.0153208
0.452025
-0.0155842
0.453145
-0.0157749
0.454346
-0.0158878
0.455622
-0.0159175
0.456961
-0.0158626
0.458352
-0.0157213
0.459783
-0.0154965
0.461239
-0.01519
0.462708
-0.0148088
0.464174
-0.0143572
0.465626
-0.0138453
0.46705
-0.0132793
0.468436
-0.0126712
0.469772
-0.0120279
0.471051
-0.0113594
-0.0106725
0.472266
0.429522
-0.000307832
0.429495
-0.00109557
0.429445
-0.0019286
0.429395
-0.00281536
0.429357
-0.00378134
0.429311
-0.00471198
0.429273
-0.00561259
0.429244
-0.00646416
0.429229
-0.00726509
0.429231
-0.00801738
0.429252
-0.0087136
0.429297
-0.00937343
0.429372
-0.0100055
0.429485
-0.0106235
0.429641
-0.0112315
0.42985
-0.0118373
0.43012
-0.0124407
0.430462
-0.0130418
0.430882
-0.013637
0.43139
-0.0142196
0.431991
-0.0147818
0.432694
-0.0153122
0.433502
-0.0158011
0.434417
-0.0162359
0.435439
-0.0166069
0.436567
-0.0169027
0.437795
-0.0171159
0.439116
-0.0172383
0.44052
-0.0172664
0.441995
-0.0171962
0.443527
-0.017029
0.445102
-0.0167652
0.446704
-0.0164109
0.448317
-0.01597
0.449925
-0.0154533
0.451513
-0.0148668
0.453066
-0.0142244
0.454572
-0.0135334
0.45602
-0.0128077
-0.0120527
0.4574
0.414512
-0.000271287
0.414486
-0.00106957
0.414419
-0.00186192
0.414363
-0.00275903
0.414305
-0.00372365
0.41423
-0.00463742
0.414164
-0.00554585
0.414098
-0.00639906
0.414044
-0.00721107
0.414002
-0.00797528
0.413972
-0.00868352
0.413964
-0.00936473
0.413979
-0.0100208
0.414027
-0.0106713
0.414114
-0.0113187
0.41425
-0.0119737
0.414445
-0.0126359
0.414711
-0.0133071
0.415056
-0.0139823
0.415491
-0.014654
0.416024
-0.015315
0.416664
-0.015953
0.41742
-0.0165566
0.418295
-0.0171114
0.419294
-0.017605
0.420414
-0.0180235
0.421655
-0.0183564
0.423009
-0.0185927
0.424469
-0.018726
0.426022
-0.0187493
0.427655
-0.0186616
0.429351
-0.018461
0.431092
-0.0181526
0.432861
-0.0177389
0.434639
-0.0172308
0.436406
-0.016634
0.438146
-0.0159642
0.439841
-0.015229
0.44148
-0.0144465
-0.0136212
0.443048
0.400022
-0.000221928
0.400003
-0.00105019
0.399916
-0.00177533
0.399861
-0.00270425
0.399777
-0.00363912
0.399678
-0.00453889
0.399585
-0.0054524
0.399485
-0.00629957
0.399396
-0.0071213
0.39931
-0.00788961
0.399231
-0.00860475
0.39917
-0.00930333
0.399125
-0.00997563
0.399108
-0.010655
0.399125
-0.0113351
0.399186
-0.0120352
0.399302
-0.0127513
0.399484
-0.0134893
0.399744
-0.0142429
0.400095
-0.015005
0.400547
-0.0157672
0.401112
-0.0165175
0.401799
-0.0172437
0.402617
-0.0179296
0.403572
-0.0185603
0.404668
-0.0191191
0.405904
-0.0195925
0.407277
-0.0199658
0.40878
-0.020229
0.410403
-0.0203716
0.41213
-0.0203894
0.413947
-0.0202773
0.415832
-0.0200382
0.417766
-0.0196726
0.419726
-0.0191909
0.42169
-0.018598
0.423637
-0.017911
0.425546
-0.0171378
0.4274
-0.0163003
-0.0154032
0.429182
0.386033
-0.000154824
0.38603
-0.00104727
0.385918
-0.00166304
0.385873
-0.00265958
0.385751
-0.0035167
0.38564
-0.00442794
0.385516
-0.00532894
0.385388
-0.00617123
0.385264
-0.00699744
0.385137
-0.00776235
0.385012
-0.00847985
0.3849
-0.00919128
0.384795
-0.00987072
0.384717
-0.0105766
0.384661
-0.011279
0.384647
-0.0120214
0.384678
-0.0127827
0.384773
-0.0135841
0.38494
-0.0144101
0.385197
-0.0152614
0.385555
-0.0161259
0.386029
-0.016991
0.386631
-0.0178455
0.387373
-0.0186713
0.388264
-0.0194522
0.389314
-0.0201686
0.390525
-0.0208034
0.391897
-0.0213383
0.393427
-0.0217588
0.395106
-0.0220502
0.39692
-0.0222038
0.398853
-0.0222106
0.400885
-0.0220698
0.402991
-0.0217791
0.405147
-0.0213468
0.407326
-0.020777
0.409502
-0.0200869
0.41165
-0.0192852
0.413746
-0.0183967
-0.017428
0.415771
0.372527
-6.43951e-05
0.372553
-0.0010741
0.372405
-0.00151506
0.372381
-0.00263544
0.372206
-0.00334186
0.372102
-0.00432402
0.371938
-0.00516435
0.371794
-0.00602739
0.371632
-0.00683518
0.371469
-0.00759997
0.371299
-0.0083096
0.37114
-0.00903255
0.370976
-0.00970663
0.37084
-0.01044
0.370709
-0.0111487
0.370623
-0.0119349
0.370566
-0.0127255
0.370572
-0.0135901
0.370638
-0.0144762
0.370792
-0.0154157
0.371043
-0.0163766
0.371411
-0.0173595
0.371911
-0.0183447
0.372556
-0.0193168
0.373362
-0.0202587
0.374342
-0.021148
0.375503
-0.0219646
0.376851
-0.0226863
0.378386
-0.0232936
0.380103
-0.0237669
0.38199
-0.0240916
0.384033
-0.0242534
0.38621
-0.0242464
0.388495
-0.0240642
0.39086
-0.0237115
0.393273
-0.0231901
0.395702
-0.0225166
0.398117
-0.0216999
0.400488
-0.0207673
-0.0197287
0.402788
0.359487
5.35897e-05
0.359557
-0.00114405
0.35936
-0.00131812
0.359369
-0.00264476
0.359126
-0.00309907
0.359054
-0.00425197
0.358829
-0.00493936
0.358693
-0.00589133
0.358478
-0.00661978
0.358297
-0.00741907
0.358075
-0.00808752
0.357879
-0.00883733
0.357653
-0.00948065
0.357467
-0.0102533
0.357258
-0.0109401
0.357106
-0.0117827
0.356953
-0.0125724
0.356874
-0.0135117
0.356829
-0.0144307
0.35688
-0.0154664
0.357007
-0.016504
0.357259
-0.0176108
0.357635
-0.0187215
0.358165
-0.0198467
0.358862
-0.0209558
0.359745
-0.022031
0.360829
-0.0230482
0.362124
-0.0239814
0.363637
-0.0248064
0.365367
-0.0254974
0.367309
-0.0260332
0.369448
-0.0263929
0.371765
-0.0265629
0.374232
-0.0265314
0.376817
-0.0262968
0.379485
-0.0258577
0.382196
-0.0252275
0.384911
-0.0244153
0.387593
-0.0234494
-0.0223447
0.390209
0.3469
0.00019976
0.347021
-0.00126495
0.346764
-0.00106084
0.346819
-0.0026998
0.346498
-0.00277769
0.34648
-0.00423439
0.346173
-0.00463223
0.346074
-0.00579219
0.345781
-0.00632705
0.34561
-0.00724835
0.345318
-0.00779539
0.345109
-0.00862806
0.344809
-0.0091807
0.344589
-0.0100337
0.344292
-0.0106426
0.34409
-0.0115804
0.343827
-0.0123099
0.343679
-0.0133631
0.343504
-0.0142558
0.343461
-0.0154233
0.343443
-0.0164866
0.343577
-0.0177448
0.343802
-0.0189464
0.344203
-0.0202478
0.344761
-0.021514
0.345523
-0.0227926
0.346496
-0.0240218
0.347706
-0.0251911
0.349163
-0.0262635
0.350876
-0.02721
0.352844
-0.0280017
0.35506
-0.0286084
0.357505
-0.0290078
0.360153
-0.0291795
0.362969
-0.0291126
0.365912
-0.0288004
0.368935
-0.0282504
0.37199
-0.0274705
0.375029
-0.0264884
-0.0253239
0.378008
0.334759
0.000367867
0.334926
-0.00143215
0.334608
-0.000743054
0.334712
-0.00280368
0.334313
-0.00237869
0.334361
-0.00428177
0.333959
-0.00423029
0.33392
-0.00575333
0.333527
-0.00593435
0.333399
-0.00712003
0.333011
-0.00740749
0.33282
-0.00843736
0.332423
-0.00878363
0.332201
-0.0098115
0.331793
-0.0102342
0.33157
-0.0113577
0.331173
-0.0119127
0.330984
-0.0131746
0.330648
-0.0139198
0.33054
-0.015315
0.330339
-0.0162857
0.330378
-0.0177834
0.330406
-0.0189747
0.330683
-0.0205252
0.331052
-0.0218832
0.33168
-0.02342
0.332497
-0.0248391
0.333591
-0.0262853
0.33495
-0.0276219
0.336608
-0.0288678
0.338567
-0.0299612
0.340829
-0.0308701
0.343382
-0.0315612
0.346203
-0.0320002
0.349255
-0.0321647
0.352493
-0.0320387
0.355862
-0.0316191
0.359302
-0.0309108
0.362753
-0.029939
-0.0287263
0.366155
0.323053
0.000545925
0.323249
-0.00162789
0.322887
-0.000381325
0.323027
-0.00294405
0.322567
-0.00191855
0.322671
-0.00438542
0.322182
-0.0037412
0.322206
-0.00577812
0.321709
-0.00543733
0.321641
-0.00705173
0.321141
-0.00690779
0.320997
-0.00829262
0.32048
-0.00826695
0.320288
-0.00961908
0.319742
-0.00968875
0.319537
-0.0111523
0.318971
-0.0113474
0.31879
-0.0129927
0.318245
-0.0133753
0.318127
-0.0151974
0.317678
-0.0158367
0.31768
-0.0177846
0.317433
-0.018728
0.317635
-0.020727
0.317723
-0.0219712
0.318241
-0.0239386
0.318813
-0.0254109
0.319787
-0.0272592
0.320973
-0.0288075
0.322546
-0.0304415
0.324443
-0.0318575
0.326714
-0.0331417
0.329345
-0.034192
0.332319
-0.0349745
0.335608
-0.0354529
0.339159
-0.0355903
0.342911
-0.0353708
0.34679
-0.0347899
0.350717
-0.0338665
-0.0326267
0.354618
0.311769
0.000720311
0.311968
-0.00182668
0.31159
-4.17021e-06
0.311742
-0.00309518
0.311252
-0.00142917
0.311384
-0.00451712
0.310838
-0.00319531
0.310905
-0.00584473
0.310326
-0.00485868
0.310307
-0.00703284
0.309707
-0.00630737
0.309609
-0.00819542
0.308974
-0.00763106
0.308823
-0.00946855
0.308132
-0.00899765
0.307966
-0.0109864
0.307213
-0.0105941
0.307074
-0.0128543
0.306282
-0.0125832
0.306214
-0.0151293
0.305448
-0.0150704
0.305498
-0.0178344
0.304867
-0.0180973
0.305099
-0.0209587
0.304758
-0.0216308
0.30527
-0.02445
0.305415
-0.0255567
0.306342
-0.0281858
0.307187
-0.0296529
0.3087
-0.0319541
0.310413
-0.033571
0.312681
-0.0354089
0.315329
-0.03684
0.318432
-0.038078
0.321948
-0.0389686
0.325823
-0.0394652
0.329999
-0.0395469
0.334381
-0.0391721
0.338866
-0.0383518
-0.0371226
0.343362
0.300888
0.000881494
0.301066
-0.00200411
0.300704
0.000357385
0.300835
-0.00322602
0.300357
-0.000951001
0.300477
-0.00463692
0.29992
-0.00263845
0.299988
-0.00591254
0.299373
-0.0042435
0.299367
-0.00702684
0.298705
-0.00564577
0.298625
-0.00811585
0.297904
-0.00690995
0.297772
-0.00933625
0.296965
-0.0081903
0.29682
-0.0108423
0.295903
-0.00967654
0.295799
-0.0127504
0.294769
-0.0115536
0.29476
-0.0151197
0.293657
-0.0139674
0.293796
-0.0179738
0.292712
-0.017013
0.293064
-0.0213104
0.292154
-0.0207217
0.292806
-0.0251015
0.292293
-0.0250442
0.293366
-0.0292585
0.293543
-0.02983
0.295173
-0.0335841
0.296377
-0.0347748
0.298739
-0.0377708
0.301208
-0.0393087
0.30447
-0.0413402
0.308167
-0.042666
0.312368
-0.0436663
0.317017
-0.0441957
0.321969
-0.044124
0.327127
-0.0435095
-0.0423488
0.332353
0.29039
0.00102769
0.29053
-0.00214359
0.290209
0.000677776
0.290293
-0.00331001
0.289865
-0.000522608
0.289933
-0.00470515
0.289414
-0.0021192
0.289437
-0.00593554
0.288839
-0.00364566
0.288797
-0.0069852
0.28813
-0.00497841
0.288019
-0.00800513
0.28727
-0.00616079
0.287105
-0.0091714
0.286245
-0.00732985
0.286065
-0.0106624
0.285057
-0.00866839
0.28492
-0.0126131
0.283736
-0.01037
0.283709
-0.0150926
0.282351
-0.0126099
0.282509
-0.0181313
0.281027
-0.015531
0.281454
-0.0217379
0.279968
-0.0192352
0.280774
-0.0259073
0.279491
-0.0237614
0.280816
-0.0305839
0.280051
-0.0290646
0.282055
-0.0355888
0.28225
-0.0349697
0.285059
-0.0405796
0.286755
-0.0410049
0.290458
-0.0450423
0.294031
-0.0462392
0.298677
-0.0483127
0.30382
-0.0493386
0.30939
-0.0496942
0.315404
-0.0495233
-0.0484766
0.321532
0.280255
0.0011628
0.280349
-0.00223737
0.280086
0.000940682
0.280108
-0.00333136
0.279758
-0.000173127
0.279745
-0.00469187
0.279303
-0.00167776
0.279243
-0.00587536
0.278711
-0.00311335
0.27859
-0.00686436
0.27797
-0.00435872
0.277781
-0.00781602
0.277063
-0.00544307
0.276812
-0.00892004
0.275971
-0.00648905
0.275685
-0.0103764
0.274685
-0.0076677
0.274413
-0.0123417
0.273211
-0.0091674
0.273024
-0.0149058
0.271588
-0.0111741
0.271576
-0.0181193
0.269904
-0.0138587
0.270185
-0.0220188
0.268329
-0.0173795
0.269059
-0.026637
0.267158
-0.0218604
0.268549
-0.0319756
0.266863
-0.0273782
0.269176
-0.0379021
0.268138
-0.0339309
0.271601
-0.0440428
0.271866
-0.0412703
0.276564
-0.0497399
0.279049
-0.0487244
0.284822
-0.0540857
0.290093
-0.0546096
0.296491
-0.0560928
0.303623
-0.0566551
-0.0556235
0.31077
0.270472
0.00128942
0.270517
-0.00228202
0.27032
0.0011376
0.270274
-0.00328559
0.270019
8.16889e-05
0.269909
-0.0045814
0.269571
-0.00134001
0.269403
-0.00570786
0.268972
-0.00268152
0.268742
-0.00663517
0.268211
-0.00382738
0.267912
-0.00751658
0.267272
-0.00480299
0.266897
-0.00854541
0.266134
-0.00572647
0.265689
-0.00993126
0.264784
-0.00676197
0.264288
-0.0118461
0.263207
-0.00808624
0.262706
-0.0144052
0.261407
-0.00987538
0.260987
-0.0176987
0.259424
-0.0122957
0.259225
-0.0218202
0.257375
-0.0155293
0.257604
-0.0268661
0.255511
-0.0197678
0.256442
-0.0329063
0.254268
-0.0252036
0.256338
-0.0399729
0.254369
-0.0319615
0.258087
-0.0477607
0.256882
-0.0400653
0.262599
-0.0554574
0.263194
-0.0493188
0.270915
-0.0618068
0.274898
-0.0585927
0.283584
-0.0647789
0.291633
-0.0647042
-0.0638912
0.299901
0.261036
0.00140218
0.261034
-0.00228005
0.2609
0.00127208
0.260794
-0.00317936
0.260626
0.000248807
0.260427
-0.00438174
0.260191
-0.00110412
0.25992
-0.00543687
0.259595
-0.00235634
0.259257
-0.00629699
0.258825
-0.00339613
0.258414
-0.00710525
0.257866
-0.00425483
0.257369
-0.00804853
0.2567
-0.00505749
0.256099
-0.00933046
0.255311
-0.00597418
0.254585
-0.0111203
0.253681
-0.00718172
0.252817
-0.0135416
0.251792
-0.00885016
0.250807
-0.0167135
0.24964
-0.0111284
0.248611
-0.0207919
0.247254
-0.0141717
0.246381
-0.0259931
0.24477
-0.0181573
0.244478
-0.032614
0.242576
-0.0233022
0.243485
-0.0408811
0.241409
-0.0298857
0.2443
-0.0506518
0.242385
-0.0381506
0.248246
-0.0613179
0.247223
-0.0482963
0.256634
-0.071218
0.258281
-0.0602395
0.270877
-0.0773745
0.278072
-0.0718996
-0.0753212
0.289502
0.251948
0.00148331
0.251895
-0.00222671
0.251821
0.00134571
0.251658
-0.00301626
0.251564
0.000342393
0.251294
-0.00411179
0.25114
-0.000949363
0.250792
-0.005089
0.250548
-0.00211282
0.250134
-0.0058824
0.249775
-0.00303766
0.249291
-0.00662134
0.248803
-0.00376692
0.248235
-0.00748011
0.247616
-0.00443858
0.246933
-0.00864717
0.246194
-0.00523495
0.245351
-0.0102777
0.24451
-0.00634051
0.243457