/*--------------------------------*- C++ -*----------------------------------*\
| =========                 |                                                 |
| \\      /  F ield         | OpenFOAM: The Open Source CFD Toolbox           |
|  \\    /   O peration     | Version:  2512                                  |
|   \\  /    A nd           | Website:  www.openfoam.com                      |
|    \\/     M anipulation  |                                                 |
\*---------------------------------------------------------------------------*/
FoamFile
{
    version     2.0;
    format      ascii;
    arch        "LSB;label=32;scalar=64";
    class       surfaceScalarField;
    location    "79";
    object      phi;
}
// * * * * * * * * * * * * * * * * * * * * * * * * * * * * * * * * * * * * * //

dimensions      [0 3 -1 0 0 0 0];

oriented        oriented;

internalField   nonuniform List<scalar> 
19380
(
0.874556
-5.30756e-05
0.874701
-0.000145348
0.874923
-0.000222449
0.875211
-0.000287857
0.875556
-0.000344464
0.87595
-0.000394451
0.87639
-0.000439908
0.876872
-0.000481905
0.877393
-0.000521147
0.877951
-0.000557941
0.878543
-0.000592219
0.879167
-0.00062363
0.879819
-0.000651668
0.880494
-0.000675801
0.88119
-0.000695571
0.881901
-0.000710661
0.882622
-0.000720933
0.883348
-0.000726419
0.884075
-0.000727306
0.884799
-0.0007239
0.885516
-0.000716586
0.886222
-0.000705803
0.886914
-0.000692008
0.887589
-0.000675662
0.888247
-0.000657209
0.888884
-0.000637069
0.889499
-0.000615625
0.890092
-0.000593233
0.890663
-0.000570205
0.891209
-0.000546827
0.891733
-0.000523335
0.892233
-0.000499914
0.892709
-0.000476711
0.893163
-0.000453879
0.893595
-0.000431548
0.894005
-0.00040982
0.894393
-0.00038877
0.894762
-0.000368456
0.895111
-0.000348917
-0.000330223
0.895441
0.844015
-0.000104192
0.844155
-0.000285257
0.844369
-0.000436448
0.844645
-0.000564649
0.844976
-0.00067561
0.845356
-0.000773661
0.845779
-0.000862994
0.846243
-0.00094569
0.846745
-0.00102315
0.847283
-0.00109596
0.847854
-0.00116397
0.848457
-0.00122645
0.849088
-0.00128239
0.849743
-0.00133069
0.850418
-0.00137044
0.851108
-0.00140096
0.851809
-0.00142198
0.852516
-0.00143354
0.853225
-0.00143599
0.853931
-0.00142991
0.85463
-0.00141607
0.85532
-0.00139531
0.855996
-0.00136854
0.856657
-0.00133667
0.857301
-0.00130056
0.857925
-0.00126106
0.858528
-0.00121892
0.85911
-0.00117485
0.859669
-0.00112947
0.860205
-0.00108334
0.860719
-0.00103695
0.86121
-0.000990667
0.861678
-0.000944779
0.862124
-0.000899601
0.862547
-0.000855388
0.86295
-0.000812346
0.863332
-0.000770629
0.863694
-0.000730354
0.864036
-0.000691604
-0.000654515
0.864361
0.81454
-0.000153214
0.814674
-0.000419255
0.814879
-0.000641273
0.815144
-0.000829504
0.815461
-0.000992588
0.815824
-0.00113688
0.816229
-0.00126862
0.816675
-0.00139099
0.817158
-0.00150601
0.817676
-0.00161453
0.818228
-0.00171626
0.818812
-0.00181007
0.819424
-0.00189441
0.820061
-0.00196759
0.820719
-0.00202819
0.821393
-0.00207518
0.822079
-0.00210808
0.822772
-0.00212692
0.823469
-0.00213217
0.824163
-0.00212468
0.824853
-0.00210553
0.825534
-0.00207598
0.826202
-0.00203735
0.826857
-0.00199099
0.827494
-0.00193819
0.828113
-0.00188018
0.828713
-0.0018181
0.829291
-0.00175301
0.829847
-0.00168584
0.830381
-0.00161744
0.830893
-0.00154855
0.831382
-0.00147973
0.831849
-0.00141144
0.832293
-0.00134413
0.832716
-0.00127819
0.833117
-0.00121395
0.833498
-0.00115164
0.83386
-0.00109144
0.834201
-0.00103349
-0.000977997
0.834525
0.786094
-0.000200051
0.786222
-0.000547052
0.786417
-0.000836413
0.786669
-0.00108171
0.786971
-0.00129454
0.787318
-0.00148331
0.787705
-0.00165594
0.788131
-0.00181708
0.788595
-0.00196927
0.789094
-0.00211352
0.789627
-0.00224939
0.790192
-0.00237531
0.790787
-0.00248911
0.791407
-0.00258847
0.792051
-0.00267142
0.792712
-0.00273651
0.793387
-0.00278302
0.794071
-0.00281091
0.79476
-0.00282075
0.795448
-0.00281357
0.796134
-0.00279076
0.796812
-0.00275397
0.797479
-0.0027049
0.798134
-0.00264532
0.798772
-0.00257693
0.799393
-0.00250137
0.799995
-0.00242015
0.800577
-0.00233469
0.801138
-0.00224624
0.801676
-0.00215594
0.802192
-0.00206479
0.802686
-0.00197359
0.803158
-0.00188298
0.803607
-0.00179353
0.804035
-0.0017058
0.804441
-0.00162022
0.804827
-0.00153713
0.805192
-0.00145679
0.805538
-0.00137939
-0.00130521
0.805865
0.758642
-0.000244602
0.758763
-0.000668312
0.758948
-0.00102131
0.759187
-0.0013205
0.759473
-0.00158047
0.759802
-0.00181203
0.76017
-0.00202395
0.760576
-0.00222302
0.761018
-0.00241213
0.761497
-0.0025924
0.762011
-0.00276316
0.762558
-0.00292234
0.763136
-0.0030671
0.763742
-0.00319444
0.764372
-0.00330175
0.765023
-0.0033871
0.765689
-0.0034495
0.766367
-0.00348875
0.767052
-0.00350544
0.767739
-0.00350076
0.768425
-0.00347637
0.769105
-0.00343424
0.769777
-0.00337647
0.770436
-0.0033052
0.771082
-0.00322255
0.771711
-0.00313055
0.772322
-0.00303109
0.772913
-0.00292596
0.773484
-0.00281673
0.774033
-0.00270486
0.77456
-0.0025916
0.775064
-0.00247804
0.775546
-0.00236504
0.776006
-0.0022533
0.776444
-0.0021435
0.77686
-0.00203624
0.777254
-0.00193196
0.777629
-0.00183101
0.777983
-0.00173367
-0.00164028
0.778318
0.732148
-0.00028674
0.732262
-0.000782665
0.732436
-0.00119535
0.732661
-0.00154506
0.73293
-0.00184938
0.73324
-0.00212174
0.733587
-0.00237156
0.733972
-0.00260763
0.734393
-0.00283347
0.734851
-0.00305018
0.735345
-0.0032568
0.735873
-0.00345069
0.736434
-0.00362828
0.737025
-0.00378579
0.737644
-0.0039199
0.738285
-0.00402817
0.738944
-0.00410921
0.739618
-0.00416261
0.740302
-0.0041889
0.74099
-0.00418938
0.74168
-0.00416592
0.742366
-0.00412078
0.743046
-0.00405639
0.743716
-0.00397528
0.744374
-0.00387994
0.745016
-0.00377281
0.745641
-0.00365616
0.746247
-0.00353215
0.746833
-0.00340271
0.747398
-0.0032696
0.747941
-0.00313436
0.748461
-0.0029984
0.748959
-0.0028628
0.749434
-0.00272846
0.749887
-0.00259617
0.750317
-0.00246671
0.750726
-0.00234064
0.751113
-0.00221844
0.75148
-0.00210044
-0.00198713
0.751827
0.706579
-0.000326324
0.706686
-0.000889711
0.706849
-0.00135788
0.707058
-0.00175452
0.707309
-0.00210019
0.707598
-0.0024109
0.707924
-0.00269761
0.708286
-0.00296953
0.708684
-0.00323186
0.70912
-0.00348548
0.709592
-0.00372905
0.710101
-0.0039593
0.710644
-0.00417183
0.71122
-0.00436199
0.711826
-0.00452573
0.712458
-0.00465999
0.713112
-0.00476288
0.713783
-0.00483367
0.714467
-0.00487279
0.715159
-0.00488155
0.715855
-0.004862
0.716551
-0.00481662
0.717243
-0.00474812
0.717927
-0.00465938
0.7186
-0.00455324
0.71926
-0.00443257
0.719904
-0.0043
0.720529
-0.0041581
0.721136
-0.0040091
0.721721
-0.00385516
0.722285
-0.0036981
0.722826
-0.00353964
0.723345
-0.00338116
0.72384
-0.00322381
0.724312
-0.0030685
0.724762
-0.00291616
0.725189
-0.00276754
0.725594
-0.00262323
0.725977
-0.0024837
-0.00234952
0.726339
0.681903
-0.000363204
0.682002
-0.000989028
0.682153
-0.00150822
0.682346
-0.00194796
0.682578
-0.00233177
0.682845
-0.00267817
0.683148
-0.00300043
0.683485
-0.00330724
0.683859
-0.00360562
0.68427
-0.00389654
0.684719
-0.00417822
0.685207
-0.00444657
0.685731
-0.00469629
0.686291
-0.0049218
0.686883
-0.00511829
0.687505
-0.00528196
0.688153
-0.00541031
0.688821
-0.0055022
0.689506
-0.00555782
0.690203
-0.0055785
0.690908
-0.00556633
0.691615
-0.00552396
0.692321
-0.00545431
0.693022
-0.00536058
0.693715
-0.00524595
0.694396
-0.00511367
0.695063
-0.00496676
0.695713
-0.00480816
0.696344
-0.00464047
0.696956
-0.00446621
0.697545
-0.00428755
0.698112
-0.00410654
0.698656
-0.00392487
0.699176
-0.00374401
0.699672
-0.00356504
0.700145
-0.00338903
0.700595
-0.00321694
0.701021
-0.00304951
0.701425
-0.00288736
-0.0027312
0.701806
0.658088
-0.00039724
0.658179
-0.00108018
0.658317
-0.00164573
0.658493
-0.0021245
0.658705
-0.00254299
0.658949
-0.00292234
0.659226
-0.00327797
0.659538
-0.00361928
0.659886
-0.00395288
0.66027
-0.00428136
0.660694
-0.00460222
0.661158
-0.00491039
0.661662
-0.00519957
0.662203
-0.00546328
0.662781
-0.00569589
0.663391
-0.00589269
0.664031
-0.00605045
0.664697
-0.00616752
0.665383
-0.00624382
0.666085
-0.00628055
0.666798
-0.00627978
0.667518
-0.0062442
0.668241
-0.00617689
0.668962
-0.00608131
0.669677
-0.00596095
0.670383
-0.00581944
0.671076
-0.00566013
0.671754
-0.00548635
0.672415
-0.00530108
0.673056
-0.00510722
0.673676
-0.00490731
0.674273
-0.00470377
0.674847
-0.00449863
0.675396
-0.0042937
0.675922
-0.00409035
0.676422
-0.00388977
0.676898
-0.00369314
0.67735
-0.00350141
0.677778
-0.00331538
-0.00313591
0.678183
0.635105
-0.000428291
0.635187
-0.00116276
0.635311
-0.0017698
0.63547
-0.0022833
0.63566
-0.00273276
0.63588
-0.00314215
0.636131
-0.00352875
0.636415
-0.0039034
0.636734
-0.00427183
0.63709
-0.0046378
0.637487
-0.00499869
0.637924
-0.00534821
0.638404
-0.00567907
0.638925
-0.00598391
0.639485
-0.00625613
0.640082
-0.00648997
0.640713
-0.00668137
0.641374
-0.00682807
0.642059
-0.00692969
0.642766
-0.00698715
0.643489
-0.00700234
0.644222
-0.00697791
0.644962
-0.006917
0.645704
-0.00682331
0.646444
-0.00670057
0.647177
-0.00655273
0.647901
-0.00638344
0.648611
-0.00619642
0.649305
-0.00599499
0.64998
-0.00578253
0.650635
-0.00556193
0.651267
-0.00533602
0.651875
-0.00510718
0.652459
-0.00487762
0.653018
-0.00464907
0.653551
-0.00442293
0.654059
-0.00420058
0.65454
-0.0039832
0.654997
-0.00377181
-0.00356749
0.655428
0.612924
-0.000456219
0.612998
-0.00123644
0.613108
-0.00187991
0.613248
-0.00242359
0.613415
-0.00290011
0.61361
-0.00333651
0.613832
-0.00375152
0.614086
-0.00415718
0.614375
-0.0045605
0.614701
-0.00496372
0.615067
-0.00536507
0.615476
-0.00575714
0.615929
-0.00613176
0.616426
-0.00648063
0.616965
-0.006796
0.617546
-0.00707087
0.618165
-0.00730031
0.618819
-0.00748147
0.619502
-0.00761348
0.620212
-0.00769687
0.620943
-0.00773314
0.62169
-0.00772483
0.622448
-0.00767505
0.623212
-0.00758768
0.623978
-0.00746656
0.624741
-0.00731592
0.625498
-0.00713963
0.626243
-0.00694181
0.626974
-0.00672613
0.627688
-0.00649642
0.628382
-0.00625596
0.629054
-0.00600804
0.629702
-0.0057554
0.630325
-0.00550068
0.630922
-0.00524606
0.631493
-0.00499328
0.632036
-0.00474388
0.632552
-0.00449931
0.633041
-0.0042609
-0.00402994
0.633504
0.591517
-0.000480899
0.591582
-0.00130096
0.591678
-0.00197563
0.591799
-0.00254466
0.591943
-0.00304432
0.592111
-0.00350451
0.592304
-0.00394495
0.592526
-0.00437917
0.592782
-0.00481609
0.593075
-0.0052571
0.593409
-0.00569871
0.593786
-0.00613409
0.594208
-0.00655432
0.594678
-0.00694998
0.595194
-0.0073119
0.595754
-0.00763175
0.596358
-0.00790379
0.597001
-0.00812449
0.59768
-0.00829238
0.59839
-0.00840734
0.599128
-0.00847039
0.599887
-0.00848385
0.600662
-0.00845067
0.601449
-0.0083748
0.602243
-0.00826006
0.603038
-0.0081109
0.603829
-0.00793127
0.604613
-0.00772574
0.605386
-0.00749826
0.606142
-0.00725314
0.60688
-0.00699404
0.607597
-0.00672472
0.60829
-0.00644837
0.608957
-0.00616809
0.609598
-0.00588653
0.61021
-0.0056059
0.610795
-0.00532801
0.61135
-0.00505452
0.611876
-0.00478718
-0.00452751
0.612374
0.570858
-0.000502221
0.570913
-0.00135617
0.570994
-0.0020566
0.571095
-0.00264597
0.571216
-0.00316494
0.571357
-0.00364543
0.57152
-0.0041078
0.571709
-0.00456802
0.571929
-0.00503679
0.572187
-0.00551507
0.572486
-0.00599702
0.572828
-0.00647595
0.573217
-0.00694329
0.573655
-0.00738815
0.574143
-0.00779971
0.574679
-0.00816834
0.575263
-0.00848758
0.575892
-0.00875312
0.576562
-0.00896267
0.57727
-0.00911528
0.578011
-0.00921137
0.57878
-0.00925293
0.579572
-0.0092426
0.580381
-0.00918429
0.581203
-0.00908154
0.582031
-0.00893898
0.58286
-0.00876054
0.583686
-0.00855117
0.584502
-0.00831504
0.585306
-0.00805697
0.586093
-0.00778093
0.58686
-0.00749124
0.587603
-0.00719153
0.58832
-0.00688541
0.58901
-0.00657609
0.58967
-0.00626632
0.5903
-0.00595836
0.5909
-0.00565402
0.591468
-0.00535556
-0.0050648
0.592006
0.55092
-0.000520103
0.550966
-0.00140209
0.551032
-0.00212241
0.551113
-0.00272724
0.55121
-0.00326194
0.551323
-0.00375869
0.551454
-0.00423905
0.551609
-0.00472272
0.551794
-0.00522142
0.552014
-0.00573483
0.552274
-0.00625698
0.552577
-0.00677976
0.552929
-0.00729523
0.553332
-0.00779109
0.553787
-0.00825488
0.554295
-0.00867585
0.554854
-0.00904686
0.555464
-0.0093626
0.556121
-0.00961976
0.556822
-0.00981644
0.557563
-0.00995235
0.558339
-0.0100291
0.559145
-0.0100487
0.559976
-0.0100149
0.560825
-0.0099307
0.561687
-0.00980085
0.562555
-0.0096291
0.563425
-0.00942074
0.56429
-0.00918
0.565145
-0.0089122
0.565986
-0.00862159
0.566808
-0.00831306
0.567607
-0.00799071
0.56838
-0.00765875
0.569125
-0.00732098
0.569839
-0.00698072
0.570522
-0.00664094
0.571172
-0.0063036
0.571787
-0.00597154
-0.00564692
0.57237
0.531678
-0.000534544
0.531715
-0.00143872
0.531765
-0.00217265
0.531826
-0.00278864
0.5319
-0.00333555
0.531985
-0.00384371
0.532084
-0.00433807
0.532204
-0.00484269
0.532351
-0.00536882
0.532531
-0.00591467
0.532749
-0.00647515
0.533012
-0.00704257
0.533324
-0.00760681
0.533687
-0.00815469
0.534105
-0.00867265
0.534578
-0.00914912
0.535108
-0.00957624
0.535693
-0.00994741
0.536331
-0.0102582
0.53702
-0.0105056
0.537756
-0.0106886
0.538536
-0.0108082
0.539353
-0.0108657
0.540202
-0.0108643
0.541078
-0.0108063
0.541973
-0.0106965
0.542882
-0.010538
0.543798
-0.0103367
0.544715
-0.0100965
0.545625
-0.00982313
0.546525
-0.00952115
0.547408
-0.00919601
0.54827
-0.0088523
0.549106
-0.00849484
0.549913
-0.00812814
0.550688
-0.00775608
0.55143
-0.00738259
0.552136
-0.00700987
0.552806
-0.00664138
-0.00627969
0.553439
0.513108
-0.000545665
0.513135
-0.00146597
0.51317
-0.00220698
0.513212
-0.00283095
0.513263
-0.00338606
0.513319
-0.00390007
0.513386
-0.00440488
0.513471
-0.00492776
0.51358
-0.0054779
0.513718
-0.00605299
0.513893
-0.0066497
0.514111
-0.00726085
0.514379
-0.0078746
0.514699
-0.00847484
0.515075
-0.00904822
0.515508
-0.0095828
0.516002
-0.0100699
0.516556
-0.0105013
0.517169
-0.0108716
0.51784
-0.0111765
0.518566
-0.0114143
0.519343
-0.0115851
0.520166
-0.0116892
0.521031
-0.0117291
0.521931
-0.0117061
0.522859
-0.0116248
0.523809
-0.0114877
0.524773
-0.0113007
0.525744
-0.0110674
0.526715
-0.010794
0.527679
-0.0104849
0.528629
-0.0101464
0.52956
-0.00978328
0.530466
-0.00940121
0.531344
-0.00900542
0.532188
-0.00860041
0.532997
-0.0081912
0.533767
-0.00778046
0.534498
-0.00737236
-0.00696987
0.535188
0.495187
-0.000553725
0.495204
-0.00148334
0.495223
-0.00222537
0.495247
-0.00285555
0.495275
-0.00341356
0.495302
-0.00392774
0.495338
-0.00444023
0.495388
-0.00497794
0.495458
-0.00554774
0.495554
-0.00614863
0.495683
-0.00677938
0.495855
-0.00743245
0.496075
-0.00809445
0.496347
-0.00874745
0.496676
-0.00937694
0.497065
-0.00997151
0.497516
-0.0105216
0.498033
-0.0110176
0.498614
-0.0114528
0.49926
-0.0118221
0.499968
-0.0121226
0.500736
-0.0123534
0.50156
-0.0125135
0.502436
-0.0126045
0.503356
-0.0126265
0.504315
-0.0125837
0.505305
-0.0124776
0.506318
-0.0123138
0.507346
-0.0120954
0.508381
-0.0118289
0.509415
-0.0115184
0.510439
-0.0111708
0.511447
-0.0107913
0.512432
-0.0103863
0.513389
-0.00996179
0.514311
-0.00952293
0.515196
-0.009076
0.51604
-0.00862438
0.516841
-0.00817309
-0.00772552
0.517596
0.477892
-0.000559019
0.477898
-0.00148982
0.477901
-0.00222861
0.47791
-0.00286409
0.477914
-0.00341778
0.477914
-0.00392759
0.477919
-0.00444534
0.477934
-0.00499313
0.477965
-0.00557789
0.478017
-0.00620117
0.478101
-0.00686336
0.478224
-0.0075558
0.478393
-0.00826344
0.478614
-0.00896776
0.478891
-0.0096542
0.479229
-0.0103099
0.479633
-0.0109252
0.480104
-0.0114891
0.480646
-0.0119943
0.481258
-0.0124344
0.481941
-0.0128055
0.482693
-0.0131053
0.483511
-0.0133314
0.484391
-0.0134844
0.485327
-0.0135626
0.486313
-0.0135698
0.487341
-0.0135057
0.488403
-0.0133761
0.48949
-0.0131824
0.490593
-0.0129315
0.491701
-0.0126271
0.492807
-0.0122764
0.493901
-0.0118849
0.494974
-0.0114597
0.49602
-0.0110075
0.497031
-0.0105344
0.498003
-0.0100479
0.498931
-0.00955234
0.499812
-0.0090539
-0.00855632
0.500643
0.4612
-0.000561609
0.461195
-0.00148397
0.461185
-0.00221865
0.461178
-0.00285793
0.461159
-0.00339839
0.461133
-0.00390166
0.461109
-0.0044213
0.461089
-0.00497331
0.46108
-0.0055687
0.46109
-0.00621087
0.461128
-0.00690131
0.461201
-0.00762957
0.461317
-0.00837944
0.461482
-0.00913242
0.461703
-0.00987475
0.461985
-0.0105926
0.462334
-0.0112742
0.462754
-0.0119085
0.463247
-0.0124878
0.463817
-0.0130045
0.464466
-0.0134539
0.465192
-0.0138317
0.465995
-0.0141343
0.466872
-0.0143608
0.467817
-0.0145077
0.468825
-0.0145779
0.469888
-0.0145689
0.470998
-0.0144861
0.472145
-0.0143292
0.473318
-0.0141051
0.474508
-0.0138163
0.475702
-0.0134705
0.47689
-0.0130732
0.478062
-0.0126319
0.479209
-0.0121543
0.480322
-0.0116473
0.481394
-0.0111197
0.482419
-0.0105772
0.483392
-0.0100272
-0.00947414
0.48431
0.445091
-0.000560846
0.445072
-0.00146454
0.445052
-0.00219868
0.445031
-0.0028375
0.444989
-0.00335568
0.44494
-0.00385289
0.444887
-0.00436842
0.444833
-0.00491908
0.444786
-0.00552141
0.444753
-0.00617852
0.444745
-0.00689341
0.444769
-0.00765283
0.44483
-0.00844075
0.444937
-0.00923905
0.445097
-0.0100347
0.445317
-0.0108135
0.445605
-0.0115623
0.445965
-0.0122685
0.446403
-0.0129251
0.446921
-0.0135232
0.447525
-0.0140577
0.448216
-0.0145223
0.448993
-0.014912
0.449857
-0.0152241
0.450802
-0.0154533
0.451825
-0.0156008
0.452918
-0.015662
0.454073
-0.0156411
0.45528
-0.0155355
0.456526
-0.0153518
0.457801
-0.0150908
0.459091
-0.0147606
0.460384
-0.0143658
0.461667
-0.0139149
0.462928
-0.0134156
0.464157
-0.0128763
0.465344
-0.0123068
0.466481
-0.0117143
0.467562
-0.0111083
-0.0104935
0.468581
0.429543
-0.000554716
0.42951
-0.00143169
0.429484
-0.00217255
0.429448
-0.00280205
0.429384
-0.00329124
0.429315
-0.00378425
0.429233
-0.00428606
0.429146
-0.00483259
0.429062
-0.00543761
0.428989
-0.00610543
0.428936
-0.00684029
0.428908
-0.0076251
0.428914
-0.00844646
0.428961
-0.00928575
0.429057
-0.0101314
0.429212
-0.0109679
0.429432
-0.0117824
0.429725
-0.0125618
0.430098
-0.0132976
0.430555
-0.0139808
0.431104
-0.0146062
0.431747
-0.0151655
0.432488
-0.0156527
0.433327
-0.0160628
0.434262
-0.0163887
0.43529
-0.0166293
0.436406
-0.0167775
0.437601
-0.0168359
0.438864
-0.0167989
0.440185
-0.0166725
0.441549
-0.0164548
0.442942
-0.0161539
0.444349
-0.015773
0.445756
-0.0153214
0.447147
-0.0148066
0.448509
-0.0142382
0.449829
-0.0136271
0.451097
-0.0129823
0.452304
-0.0123154
-0.0116323
0.453443
0.414533
-0.000539173
0.41449
-0.00138886
0.41446
-0.00214298
0.414408
-0.00275036
0.414325
-0.00320791
0.414239
-0.00369764
0.414126
-0.00417352
0.414011
-0.00471797
0.413892
-0.00531832
0.413781
-0.00599388
0.413683
-0.00674266
0.413604
-0.00754661
0.413554
-0.0083965
0.41354
-0.00927122
0.413571
-0.0101625
0.413656
-0.0110525
0.413803
-0.0119293
0.414021
-0.0127803
0.41432
-0.0135968
0.414707
-0.0143676
0.415189
-0.0150882
0.415773
-0.015749
0.416463
-0.0163433
0.417264
-0.0168634
0.418176
-0.0173008
0.419198
-0.0176514
0.420326
-0.0179053
0.421553
-0.0180628
0.422869
-0.0181149
0.424262
-0.0180658
0.425718
-0.0179107
0.427221
-0.0176568
0.428753
-0.0173051
0.430297
-0.0168653
0.431834
-0.016344
0.433348
-0.0157523
0.434823
-0.0151016
0.436244
-0.0144032
0.437599
-0.013671
-0.0129124
0.43888
0.40004
-0.000507785
0.399996
-0.00134485
0.399962
-0.00210876
0.399894
-0.00268266
0.399795
-0.00310841
0.399691
-0.00359384
0.399548
-0.00403108
0.399411
-0.00458098
0.399256
-0.00516306
0.39911
-0.00584802
0.398968
-0.00660042
0.39884
-0.00741908
0.398735
-0.00829123
0.398659
-0.00919506
0.398623
-0.0101269
0.398635
-0.0110643
0.398705
-0.0119992
0.398843
-0.0129183
0.39906
-0.0138133
0.399366
-0.0146737
0.39977
-0.0154924
0.400281
-0.0162599
0.400907
-0.0169693
0.401654
-0.0176108
0.402528
-0.0181742
0.403528
-0.0186522
0.404655
-0.0190321
0.405903
-0.0193107
0.407264
-0.0194755
0.408726
-0.0195278
0.410274
-0.0194589
0.411891
-0.0192744
0.413558
-0.0189719
0.415254
-0.018561
0.416956
-0.0180464
0.418645
-0.0174407
0.420298
-0.016755
0.421898
-0.0160036
0.423429
-0.015202
-0.0143609
0.424878
0.386045
-0.000452212
0.386014
-0.00131463
0.385968
-0.00206209
0.385888
-0.00260337
0.385772
-0.0029923
0.385653
-0.00347486
0.385482
-0.00385955
0.385329
-0.00442857
0.385136
-0.00496924
0.384963
-0.00567505
0.384773
-0.00641108
0.384602
-0.00724749
0.384441
-0.00813008
0.384304
-0.00905892
0.384201
-0.0100239
0.384139
-0.0110017
0.384129
-0.0119893
0.384181
-0.0129708
0.384309
-0.0139406
0.384523
-0.0148882
0.384838
-0.0158069
0.385263
-0.0166849
0.385809
-0.0175156
0.386487
-0.0182882
0.387304
-0.0189911
0.388265
-0.0196137
0.389374
-0.0201407
0.390628
-0.0205646
0.392021
-0.0208688
0.393544
-0.0210506
0.395182
-0.0210967
0.396917
-0.0210093
0.398727
-0.020782
0.400588
-0.0204228
0.402476
-0.0199338
0.404363
-0.019328
0.406224
-0.0186159
0.408035
-0.0178145
0.409774
-0.0169409
-0.0160106
0.411424
0.372529
-0.00036396
0.372531
-0.00131704
0.372457
-0.00198797
0.372377
-0.00252365
0.372238
-0.00285257
0.372111
-0.0033485
0.371909
-0.00365735
0.37175
-0.00426973
0.371512
-0.00473137
0.371324
-0.00548653
0.37108
-0.00616767
0.370876
-0.00704277
0.370654
-0.00790842
0.370464
-0.0088693
0.370292
-0.0098511
0.370156
-0.0108663
0.370064
-0.0118969
0.370028
-0.0129349
0.37006
-0.0139728
0.370175
-0.0150037
0.370388
-0.016019
0.370713
-0.0170102
0.371164
-0.0179665
0.371753
-0.0188777
0.372494
-0.0197316
0.373395
-0.0205153
0.374465
-0.0212103
0.375705
-0.0218049
0.377114
-0.0222781
0.378685
-0.0226216
0.380405
-0.0228167
0.382257
-0.0228607
0.384217
-0.0227417
0.386258
-0.0224645
0.388351
-0.022027
0.390465
-0.0214416
0.392566
-0.0207172
0.394625
-0.019873
0.396611
-0.0189273
-0.0179018
0.398502
0.359478
-0.000236942
0.35953
-0.00136986
0.359409
-0.00186664
0.359347
-0.00246173
0.35917
-0.00267521
0.359052
-0.00323079
0.358812
-0.00341702
0.35866
-0.00411751
0.358368
-0.00443958
0.358181
-0.0052997
0.35787
-0.005857
0.357652
-0.00682504
0.357357
-0.00761323
0.35713
-0.0086425
0.356878
-0.0095991
0.356679
-0.0106671
0.356498
-0.0117158
0.356376
-0.0128123
0.356306
-0.0139035
0.356318
-0.0150152
0.356417
-0.0161181
0.356629
-0.0172221
0.356966
-0.0183039
0.357449
-0.0193608
0.358092
-0.0203741
0.35891
-0.0213332
0.359915
-0.0222157
0.361117
-0.0230069
0.362519
-0.0236804
0.36412
-0.0242218
0.365909
-0.0246058
0.367871
-0.0248227
0.369982
-0.0248536
0.372216
-0.0246976
0.374536
-0.0243468
0.376905
-0.023811
0.379284
-0.023096
0.381633
-0.022222
0.383914
-0.0212085
-0.0200835
0.386096
0.34688
-7.06957e-05
0.346993
-0.00148244
0.346808
-0.00168146
0.346783
-0.00243712
0.346554
-0.00244559
0.346464
-0.00314097
0.346172
-0.00312552
0.346044
-0.00398927
0.345684
-0.00407961
0.345522
-0.00513728
0.345124
-0.0054595
0.344923
-0.00662424
0.34453
-0.00722043
0.344298
-0.00841007
0.343943
-0.00924454
0.343706
-0.0104294
0.343418
-0.0114279
0.343223
-0.0126175
0.343038
-0.0137188
0.34295
-0.0149266
0.342921
-0.0160896
0.343014
-0.0173145
0.343215
-0.0185056
0.343574
-0.0197198
0.344093
-0.0208926
0.344802
-0.0220426
0.345714
-0.0231273
0.346849
-0.0241416
0.348214
-0.0250458
0.349817
-0.0258247
0.351654
-0.0264428
0.353713
-0.0268817
0.355974
-0.0271142
0.358406
-0.0271301
0.360973
-0.0269132
0.363629
-0.0264676
0.366327
-0.025794
0.369017
-0.0249119
0.371649
-0.0238408
-0.0226155
0.374181
0.334729
0.000127097
0.334897
-0.00164968
0.334645
-0.00142987
0.334667
-0.00245899
0.334378
-0.00215685
0.33433
-0.00309263
0.333976
-0.00277166
0.333887
-0.00390062
0.333446
-0.00363858
0.33333
-0.00502142
0.332826
-0.00495515
0.332676
-0.00647374
0.332154
-0.00669918
0.33196
-0.00821563
0.331465
-0.00874962
0.331236
-0.0102001
0.330802
-0.0109948
0.330575
-0.0123898
0.330241
-0.0133846
0.330076
-0.0147618
0.329891
-0.0159048
0.329873
-0.0172962
0.329909
-0.0185421
0.330136
-0.0199469
0.330492
-0.0212488
0.331073
-0.0226234
0.331852
-0.0239064
0.332889
-0.0251781
0.334178
-0.0263351
0.335751
-0.0273977
0.337604
-0.0282958
0.339737
-0.0290146
0.342134
-0.0295114
0.344767
-0.0297627
0.347596
-0.0297425
0.350572
-0.0294436
0.353636
-0.0288578
0.356725
-0.0280013
0.359776
-0.0268916
-0.0255703
0.362731
0.323018
0.000340128
0.323219
-0.00185083
0.322916
-0.00112709
0.322977
-0.00251985
0.322636
-0.00181543
0.322628
-0.00308487
0.322213
-0.00235712
0.322167
-0.00385426
0.321645
-0.00311682
0.321585
-0.00496077
0.320967
-0.00433751
0.320888
-0.00639426
0.320217
-0.00602881
0.320099
-0.00809724
0.319426
-0.00807693
0.319259
-0.0100333
0.31863
-0.0103659
0.318432
-0.0121919
0.317892
-0.0128437
0.31771
-0.0145804
0.317309
-0.015504
0.317223
-0.0172095
0.317036
-0.0183559
0.317153
-0.0200631
0.317284
-0.0213802
0.317735
-0.0230738
0.318315
-0.0244868
0.319234
-0.0260969
0.320386
-0.0274876
0.321897
-0.0289087
0.323717
-0.0301152
0.325893
-0.0311911
0.328401
-0.0320193
0.331224
-0.0325858
0.334327
-0.032845
0.337652
-0.0327683
0.341132
-0.0323382
0.34469
-0.0315592
0.348241
-0.0304423
-0.0290379
0.351708
0.311735
0.000548102
0.311941
-0.0020565
0.311614
-0.00079994
0.311692
-0.00259803
0.311318
-0.00144187
0.311333
-0.00309974
0.310877
-0.00190047
0.310856
-0.00383415
0.310275
-0.00253552
0.310254
-0.00493986
0.309544
-0.0036275
0.309526
-0.00637609
0.308718
-0.00522118
0.308682
-0.00806037
0.307825
-0.0072203
0.307748
-0.00995629
0.306894
-0.00951172
0.306776
-0.0120742
0.305975
-0.0120431
0.305846
-0.0144511
0.305157
-0.0148147
0.305081
-0.0171334
0.30458
-0.0178555
0.304658
-0.0201405
0.304458
-0.0211807
0.304827
-0.0234424
0.305084
-0.0247434
0.305907
-0.0269205
0.306802
-0.0283827
0.308248
-0.0303543
0.309936
-0.0318033
0.312138
-0.033393
0.3147
-0.0345819
0.317699
-0.0355843
0.321073
-0.0362189
0.324768
-0.0364632
0.32872
-0.0362906
0.332825
-0.035664
0.336976
-0.0345933
-0.0331342
0.341072
0.300866
0.00073156
0.301046
-0.00223622
0.300724
-0.000478268
0.300792
-0.00266614
0.300414
-0.00106321
0.300424
-0.00311012
0.299954
-0.00143061
0.299931
-0.00381112
0.299328
-0.00193201
0.29931
-0.004922
0.298555
-0.0028729
0.298555
-0.00637585
0.297663
-0.00432888
0.297666
-0.00806366
0.296672
-0.0062262
0.296656
-0.00994055
0.295606
-0.00846128
0.295561
-0.0120297
0.294503
-0.0109845
0.294446
-0.0143946
0.293436
-0.0138044
0.293419
-0.0171169
0.292534
-0.0169699
0.29265
-0.020257
0.292003
-0.0205342
0.292392
-0.0238305
0.29215
-0.024502
0.292989
-0.0277591
0.293386
-0.02878
0.294857
-0.0318252
0.296177
-0.0331236
0.298458
-0.0356742
0.300917
-0.0370404
0.304118
-0.0387857
0.30772
-0.0398204
0.311805
-0.0405486
0.316289
-0.0407747
0.321021
-0.0403959
0.325903
-0.0394756
-0.0380131
0.330782
0.290392
0.000876472
0.290521
-0.00236603
0.290229
-0.000186241
0.290265
-0.00270211
0.289904
-0.000702138
0.289886
-0.00309241
0.28943
-0.00097451
0.289375
-0.00375583
0.28879
-0.00134686
0.288731
-0.00486312
0.287993
-0.00213436
0.287948
-0.00633086
0.28705
-0.00343184
0.287017
-0.00803027
0.285977
-0.00518602
0.28594
-0.00990391
0.284786
-0.00730724
0.284737
-0.0119803
0.283503
-0.00975076
0.283454
-0.0143456
0.282183
-0.0125337
0.282182
-0.0171159
0.280935
-0.0157226
0.281076
-0.0203982
0.27995
-0.0194076
0.280383
-0.0242641
0.279535
-0.023654
0.280471
-0.0286945
0.280142
-0.0284513
0.281818
-0.0335009
0.282373
-0.0336783
0.284967
-0.0382688
0.286868
-0.0389411
0.290485
-0.0424032
0.294063
-0.0433983
0.29867
-0.0451555
0.30371
-0.0458148
0.309147
-0.0458326
0.314955
-0.0452835
-0.0438562
0.320798
0.280291
0.000975674
0.280356
-0.00243114
0.28011
6.04758e-05
0.280102
-0.00269466
0.279772
-0.00037196
0.279714
-0.00303474
0.279288
-0.000548167
0.279183
-0.00365095
0.278646
-0.000809908
0.278512
-0.0047289
0.277844
-0.00146623
0.277694
-0.00618141
0.276876
-0.00261358
0.27672
-0.00787407
0.275744
-0.00420985
0.275578
-0.00973855
0.274451
-0.0061798
0.274273
-0.0118025
0.273008
-0.00848565
0.272832
-0.0141694
0.271451
-0.0111526
0.271322
-0.0169872
0.26986
-0.0142602
0.269878
-0.0204164
0.268397
-0.0179264
0.268733
-0.0246002
0.267348
-0.0222692
0.268267
-0.0296132
0.267182
-0.0273669
0.269032
-0.0353512
0.268582
-0.0332275
0.271693
-0.0413797
0.272437
-0.0396856
0.276932
-0.0468979
0.279701
-0.0461676
0.28542
-0.0508746
0.290704
-0.0510991
0.297098
-0.052226
0.304099
-0.0522842
-0.0507962
0.311038
0.270547
0.00102765
0.270541
-0.00242496
0.270349
0.00025192
0.270296
-0.00264141
0.270004
-7.98416e-05
0.269903
-0.00293397
0.269514
-0.00015946
0.269355
-0.00349129
0.268881
-0.000336569
0.268656
-0.00450359
0.268093
-0.000903212
0.267801
-0.0058893
0.267127
-0.00193995
0.266778
-0.00752524
0.265969
-0.00340036
0.265571
-0.00934114
0.264608
-0.00521643
0.264169
-0.0113632
0.26304
-0.00735667
0.262577
-0.0137061
0.26128
-0.00985563
0.260834
-0.0165415
0.259379
-0.0128051
0.259043
-0.0200811
0.257461
-0.0163442
0.257412
-0.0245506
0.255766
-0.0206241
0.256306
-0.0301525
0.254735
-0.0257958
0.256364
-0.0369805
0.255085
-0.0319482
0.258429
-0.0447245
0.257861
-0.0391167
0.263381
-0.0524181
0.264452
-0.0472384
0.272143
-0.0585656
0.276419
-0.0553753
0.285086
-0.0608926
0.293154
-0.060353
-0.0589637
0.301322
0.261142
0.00103458
0.261069
-0.0023522
0.260936
0.000385253
0.260838
-0.0025439
0.260587
0.000171788
0.260446
-0.00279356
0.260095
0.000191935
0.25989
-0.00328632
0.259473
8.03067e-05
0.259174
-0.00420399
0.258704
-0.000433179
0.258288
-0.00547427
0.257755
-0.00140653
0.257221
-0.00699156
0.256601
-0.00277994
0.255951
-0.00869075
0.255218
-0.00448334
0.254453
-0.0105991
0.253584
-0.00648702
0.252715
-0.0128371
0.251692
-0.00883251
0.250742
-0.0155916
0.249557
-0.0116202
0.24859
-0.0191143
0.247246
-0.0150001
0.24642
-0.0237244
0.244948
-0.019153
0.244587
-0.0297915
0.243043
-0.0242512
0.243733
-0.0376707
0.242242
-0.0304568
0.244915
-0.0473981
0.243634
-0.0378349
0.249424
-0.0582091
0.248892
-0.0467061
0.25851
-0.0681835
0.260411
-0.0572759
0.273269
-0.0737507
0.280646
-0.0677298
-0.070255
0.291937
0.252065
0.000998854
0.251938
-0.00222568
0.251859
0.000465087
0.25172
-0.00240498
0.251511
0.000380729
0.251332
-0.00261515
0.251023
0.000501021
0.250776
-0.00303945
0.250413
0.000443574
0.250056
-0.00384695
0.249658
-3.48493e-05
0.249162
-0.00497835
0.248721
-0.0009659
0.248075
-0.00634574
0.247569
-0.00227391
0.246768
-0.00788977