/*--------------------------------*- C++ -*----------------------------------*\
| =========                 |                                                 |
| \\      /  F ield         | OpenFOAM: The Open Source CFD Toolbox           |
|  \\    /   O peration     | Version:  2312                                  |
|   \\  /    A nd           | Website:  www.openfoam.com                      |
|    \\/     M anipulation  |                                                 |
\*---------------------------------------------------------------------------*/
FoamFile
{
    version     2.0;
    format      ascii;
    arch        "LSB;label=32;scalar=64";
    class       volVectorField;
    location    "3.5";
    object      U;
}
// * * * * * * * * * * * * * * * * * * * * * * * * * * * * * * * * * * * * * //

dimensions      [0 1 -1 0 0 0 0];

internalField   nonuniform List<vector> 
2300
(
(-0.124366 0.123705 0)
(-0.0448995 0.130959 2.33559e-19)
(0.558773 0.0210368 -1.28646e-19)
(1.06968 -0.0946516 -5.17561e-20)
(1.31538 -0.172646 0)
(1.35828 -0.211006 -4.40534e-20)
(1.30912 -0.220121 1.73581e-19)
(1.24321 -0.212012 -2.92389e-20)
(1.1906 -0.188116 4.48696e-20)
(1.13314 -0.17499 -5.41535e-20)
(-0.113193 0.0470157 1.01306e-19)
(0.312717 0.00699585 -7.68492e-20)
(0.978846 -0.0126422 1.24232e-19)
(1.3249 -0.048177 4.22529e-20)
(1.41449 -0.0849723 5.40466e-20)
(1.38107 -0.111259 -1.60672e-19)
(1.31972 -0.124799 -1.86921e-21)
(1.26181 -0.122652 -5.2849e-22)
(1.20785 -0.112235 0)
(1.17033 -0.112677 7.70656e-21)
(-0.0175215 -0.000671667 1.04055e-19)
(0.768378 0.0239255 -5.71161e-21)
(1.25622 0.0434019 -1.84921e-19)
(1.41375 0.0261117 9.86058e-20)
(1.41374 -0.00157635 -6.02595e-20)
(1.36607 -0.0253414 1.32386e-19)
(1.31278 -0.0389707 -1.00155e-19)
(1.26077 -0.0448742 -5.71777e-20)
(1.21951 -0.0497644 3.05759e-20)
(1.18234 -0.0458933 4.68793e-20)
(0.230743 0.0114693 2.71663e-20)
(1.07446 0.106387 -8.08474e-20)
(1.37935 0.123353 6.64902e-20)
(1.42914 0.0999126 0)
(1.39721 0.0735145 1.42113e-20)
(1.3457 0.0509534 3.74719e-20)
(1.29613 0.0334461 -3.12792e-20)
(1.25162 0.0208913 3.36634e-20)
(1.21244 0.0122124 -6.05828e-21)
(1.17582 0.00878411 -4.1249e-20)
(0.5331 0.0847559 2.81929e-20)
(1.25729 0.201287 0)
(1.42124 0.214252 0)
(1.40644 0.180895 0)
(1.35613 0.150675 -1.42533e-20)
(1.30706 0.123475 0)
(1.26645 0.099538 0)
(1.22589 0.0808251 -7.27706e-21)
(1.19445 0.0630226 6.10331e-21)
(1.16466 0.0571153 -3.04152e-21)
(-0.110789 0.0837314 1.60863e-20)
(-0.303138 0.0711243 0)
(-0.422863 0.0269145 0)
(-0.419579 -0.0233251 0)
(-0.342299 -0.0730462 -1.40592e-20)
(-0.196024 -0.109514 0)
(-0.0297831 -0.122418 0)
(0.155473 -0.128035 -1.90589e-21)
(0.317648 -0.108961 1.59783e-21)
(0.470281 -0.1019 -3.00593e-21)
(-0.121606 0.269518 -5.1889e-20)
(-0.258177 0.251104 6.65959e-20)
(-0.314895 0.117925 -5.47973e-20)
(-0.252726 -0.0478477 0)
(-0.118231 -0.212164 1.40163e-20)
(0.0617361 -0.320962 -2.91417e-20)
(0.234739 -0.361511 2.43118e-20)
(0.405616 -0.368465 -3.82386e-21)
(0.528487 -0.325963 3.20606e-21)
(0.651457 -0.290802 -5.90453e-21)
(-0.131881 0.353707 -9.14809e-20)
(-0.18915 0.375141 -4.94455e-21)
(-0.145807 0.20591 2.05263e-19)
(0.025613 -0.0462246 -1.151e-19)
(0.267094 -0.277436 7.43455e-20)
(0.491883 -0.418338 -1.49322e-19)
(0.658788 -0.472893 4.1464e-20)
(0.771792 -0.457982 3.56473e-21)
(0.831049 -0.406411 -1.63265e-20)
(0.888117 -0.341912 -1.41661e-22)
(-0.127974 0.315736 -9.93827e-20)
(-0.143762 0.397681 -8.12611e-20)
(-0.00686487 0.225258 -1.46703e-19)
(0.342812 -0.0494577 6.38674e-20)
(0.690779 -0.276123 -6.72018e-20)
(0.918062 -0.403861 7.804e-20)
(1.0346 -0.444525 -3.66608e-21)
(1.06146 -0.417177 -3.92619e-21)
(1.05093 -0.367939 3.14342e-20)
(1.04064 -0.298269 -1.77478e-20)
(-0.116338 0.215552 0)
(-0.136945 0.300317 8.14522e-20)
(0.184006 0.136549 1.39538e-19)
(0.699921 -0.079733 -1.75269e-19)
(1.06332 -0.24121 0)
(1.22268 -0.323756 1.60798e-19)
(1.24269 -0.338287 -1.11248e-19)
(1.19736 -0.316076 7.1309e-20)
(1.14805 -0.278596 -4.11897e-20)
(1.10667 -0.22989 2.28688e-20)
(0.6038 -0.0682152 2.12514e-21)
(0.713226 -0.0367812 0)
(0.788852 -0.0166366 -3.88043e-23)
(0.841172 -0.00415251 0)
(0.87802 0.00346049 -2.35701e-23)
(0.903902 0.0080626 0)
(0.922326 0.011641 -4.13952e-22)
(0.935922 0.014931 3.85102e-22)
(0.946345 0.0180852 0)
(0.954574 0.0212204 1.57978e-23)
(0.961112 0.0243568 0)
(0.966296 0.0274972 -2.01677e-22)
(0.970404 0.0307497 -1.27928e-23)
(0.973676 0.0342621 1.47295e-22)
(0.976308 0.0381599 3.29904e-23)
(0.978451 0.0425555 -2.9683e-23)
(0.980215 0.0475703 0)
(0.981686 0.053346 0)
(0.982927 0.0600543 0)
(0.983999 0.0678755 0)
(0.984945 0.077129 0)
(0.985856 0.087698 1.1673e-23)
(0.986627 0.101879 -1.09155e-23)
(0.987527 0.111941 2.52195e-23)
(0.988286 0.14327 0)
(0.724906 -0.20789 4.72057e-21)
(0.782395 -0.13368 -5.17004e-21)
(0.82438 -0.0822695 4.84445e-21)
(0.859205 -0.046493 -3.59565e-21)
(0.886868 -0.023299 4.96938e-22)
(0.908168 -0.008266 4.88527e-21)
(0.924853 0.00230439 -2.06728e-21)
(0.93806 0.00968885 0)
(0.94854 0.0148204 -3.93777e-23)
(0.95673 0.0188149 -1.60825e-23)
(0.96305 0.0223225 0)
(0.968002 0.0257109 2.38314e-23)
(0.971996 0.0292001 2.0983e-23)
(0.975268 0.0329351 -5.986e-22)
(0.977962 0.0370259 7.91897e-22)
(0.980198 0.0415847 -2.19568e-22)
(0.982075 0.0467389 2.71097e-22)
(0.983682 0.052649 -9.03626e-24)
(0.985084 0.059475 -1.01306e-23)
(0.986338 0.0674443 -2.63734e-22)
(0.987498 0.0768534 7.02483e-23)
(0.988633 0.0875059 0)
(0.989654 0.101766 0)
(0.990842 0.111818 1.81061e-25)
(0.991815 0.14316 1.76129e-23)
(0.888771 -0.259762 -1.35854e-21)
(0.880935 -0.186545 -3.16322e-21)
(0.881863 -0.127301 5.58625e-21)
(0.892805 -0.0807943 0)
(0.906369 -0.0495548 5.21951e-21)
(0.919762 -0.0293706 -4.8413e-21)
(0.931376 -0.0155315 0)
(0.940982 -0.00528782 0)
(0.949484 0.00315343 4.09805e-23)
(0.957109 0.010317 0)
(0.963566 0.0163727 6.12604e-23)
(0.96885 0.0216121 0)
(0.973127 0.0263566 7.19383e-22)
(0.976597 0.0309225 -2.82957e-23)
(0.979445 0.0355698 -2.32458e-23)
(0.981824 0.0405138 -5.96936e-22)
(0.983853 0.0459468 -5.71876e-23)
(0.985622 0.0520436 -5.2303e-23)
(0.987205 0.0590406 0)
(0.988663 0.067066 -3.89526e-23)
(0.99003 0.0765637 -1.35316e-24)
(0.991379 0.0873116 0)
(0.992651 0.101694 -6.59003e-24)
(0.994124 0.111807 -5.72687e-23)
(0.99535 0.143134 -1.75618e-23)
(1.00093 -0.246859 3.17093e-23)
(0.962089 -0.196448 0)
(0.936237 -0.146907 0)
(0.924761 -0.0986567 5.22037e-21)
(0.92334 -0.0610095 -4.88853e-21)
(0.928982 -0.0355786 0)
(0.937551 -0.0187133 -2.83046e-23)
(0.946402 -0.00688409 5.01447e-23)
(0.95449 0.00206578 0)
(0.961243 0.00927791 -2.38365e-21)
(0.966723 0.0152153 2.14359e-21)
(0.971231 0.0203853 0)
(0.97504 0.0251345 5.1143e-23)
(0.9783 0.0297346 0)
(0.981092 0.034408 -1.23822e-21)
(0.983501 0.039365 1.17974e-21)
(0.985605 0.0447935 5.49481e-22)
(0.987495 0.0508981 -8.23472e-22)
(0.989219 0.0578581 3.95537e-22)
(0.990851 0.0659797 0)
(0.992457 0.07554 -1.5642e-22)
(0.994051 0.0863567 1.39283e-22)
(0.995591 0.100904 1.62913e-22)
(0.997343 0.111146 -3.85211e-23)
(0.998863 0.142775 0)
(1.05986 -0.217185 1.44073e-20)
(1.01896 -0.193613 -1.334e-20)
(0.98415 -0.167347 0)
(0.959871 -0.131249 2.21634e-23)
(0.946197 -0.0956176 3.27396e-23)
(0.942829 -0.0659264 3.73998e-21)
(0.945214 -0.0426487 -3.42591e-21)
(0.949725 -0.0247656 3.25927e-21)
(0.955487 -0.0111002 -6.01981e-21)
(0.961587 -0.000441444 2.73171e-21)
(0.967112 0.00832081 2.26495e-21)
(0.971878 0.0154079 -2.08985e-21)
(0.975913 0.0214039 -1.80246e-21)
(0.979341 0.0268815 3.15221e-21)
(0.982279 0.0322059 -1.42023e-21)
(0.984834 0.0376529 3.7763e-23)
(0.987103 0.0434553 9.87563e-22)
(0.989161 0.0498555 -5.1032e-22)
(0.991102 0.0570709 -4.22397e-22)
(0.992974 0.0654455 3.34348e-22)
(0.994796 0.0751552 -3.43066e-22)
(0.996643 0.0860783 -1.05818e-22)
(0.99848 0.100817 6.66373e-23)
(1.00052 0.111229 4.03471e-23)
(1.00244 0.142852 0)
(1.08953 -0.153835 0)
(1.05631 -0.144617 0)
(1.01865 -0.134385 0)
(0.989708 -0.111875 0)
(0.972739 -0.0846086 0)
(0.966712 -0.061564 0)
(0.964685 -0.0432848 0)
(0.963649 -0.028048 0)
(0.964479 -0.0149219 0)
(0.967448 -0.00378509 0)
(0.971188 0.00540135 0)
(0.97474 0.012991 0)
(0.978111 0.019437 0)
(0.981222 0.0252041 0)
(0.98402 0.0307013 0)
(0.986538 0.0362429 0)
(0.988836 0.0420912 0)
(0.990987 0.0484862 0)
(0.993057 0.0557069 0)
(0.995081 0.0639163 0)
(0.997101 0.0735595 0)
(0.999193 0.0845272 0)
(1.0013 0.0994179 0)
(1.00357 0.110035 0)
(1.00588 0.142225 0)
(1.08669 -0.119786 0)
(1.06084 -0.115917 0)
(1.03262 -0.107752 0)
(1.00366 -0.094895 0)
(0.981327 -0.0777573 0)
(0.973446 -0.0592115 0)
(0.97187 -0.0413555 0)
(0.970453 -0.0262955 0)
(0.970333 -0.0142271 0)
(0.972061 -0.00413704 0)
(0.974754 0.00428482 0)
(0.977768 0.0116207 0)
(0.980702 0.0181659 0)
(0.98347 0.0241588 0)
(0.986059 0.0298924 0)
(0.988476 0.0356353 0)
(0.990755 0.0416303 0)
(0.992946 0.0481241 0)
(0.9951 0.0553394 0)
(0.997264 0.0635223 0)
(0.999478 0.0731463 0)
(1.00181 0.0840717 0)
(1.00418 0.0989087 0)
(1.00669 0.109416 0)
(1.00938 0.141888 0)
(1.08075 -0.0866987 0)
(1.05995 -0.0865186 0)
(1.03944 -0.0841043 0)
(1.01727 -0.0763676 0)
(0.995739 -0.0639611 0)
(0.985381 -0.050933 0)
(0.981807 -0.0381618 0)
(0.978854 -0.0260359 0)
(0.977198 -0.0151766 0)
(0.977731 -0.00557527 0)
(0.979387 0.00300283 0)
(0.981424 0.0104509 0)
(0.983712 0.0170366 0)
(0.986095 0.0231045 0)
(0.988454 0.0289319 0)
(0.990751 0.0347638 0)
(0.992997 0.0408374 0)
(0.995226 0.0473897 0)
(0.997479 0.0546656 0)
(0.99981 0.0629373 0)
(1.00224 0.0726313 0)
(1.00484 0.083598 0)
(1.0075 0.0984763 0)
(1.0103 0.108947 0)
(1.01341 0.141636 0)
(1.06902 -0.058901 0)
(1.05486 -0.0614176 0)
(1.0418 -0.0620158 0)
(1.02529 -0.0585338 0)
(1.00603 -0.0513342 0)
(0.995779 -0.0429426 0)
(0.99163 -0.0336189 0)
(0.987481 -0.0238009 0)
(0.984515 -0.0143714 0)
(0.983817 -0.00572656 0)
(0.984411 0.00210648 0)
(0.985642 0.00926844 0)
(0.987289 0.015823 0)
(0.989207 0.0219419 0)
(0.991269 0.0278385 0)
(0.993407 0.0337396 0)
(0.995603 0.0398733 0)
(0.99787 0.046473 0)
(1.00024 0.0537961 0)
(1.00275 0.0621068 0)
(1.00543 0.0718165 0)
(1.00832 0.0827904 0)
(1.01134 0.0977269 0)
(1.01447 0.108162 0)
(1.01807 0.141198 0)
(1.05747 -0.0375656 0)
(1.04854 -0.0417069 0)
(1.04117 -0.044203 0)
(1.02989 -0.0431278 0)
(1.01345 -0.0389657 0)
(1.00382 -0.033699 0)
(0.999979 -0.0274411 0)
(0.995686 -0.0200653 0)
(0.991785 -0.0123361 0)
(0.990018 -0.00487508 0)
(0.989749 0.00215056 0)
(0.990219 0.00872175 0)
(0.991259 0.0149423 0)
(0.992738 0.0209099 0)
(0.994507 0.0267616 0)
(0.996479 0.0326674 0)
(0.998619 0.0388213 0)
(1.00093 0.0454401 0)
(1.00342 0.0527732 0)
(1.00614 0.0610784 0)
(1.00909 0.0707766 0)
(1.01234 0.0817349 0)
(1.01576 0.0967308 0)
(1.0193 0.107096 0)
(1.02349 0.140597 0)
(1.04784 -0.0222723 0)
(1.04166 -0.0267571 0)
(1.03833 -0.0297798 0)
(1.03148 -0.0300761 0)
(1.01797 -0.0281925 0)
(1.00968 -0.0252557 0)
(1.0066 -0.0213062 0)
(1.00261 -0.016236 0)
(0.998546 -0.0104489 0)
(0.99621 -0.00436211 0)
(0.995198 0.00184246 0)
(0.995066 0.00799802 0)
(0.995631 0.013993 0)
(0.996716 0.0198338 0)
(0.9982 0.0256134 0)
(1 0.0314772 0)
(1.00208 0.0376037 0)
(1.00443 0.0441988 0)
(1.00707 0.0515043 0)
(1.01002 0.0597774 0)
(1.01329 0.0694475 0)
(1.01695 0.0803722 0)
(1.02086 0.0954392 0)
(1.02489 0.105704 0)
(1.02981 0.139802 0)
(1.03964 -0.0121454 0)
(1.03496 -0.0156467 0)
(1.03452 -0.0179909 0)
(1.0312 -0.0186173 0)
(1.0203 -0.0178283 0)
(1.0134 -0.0161723 0)
(1.01134 -0.0136603 0)
(1.00813 -0.0100733 0)
(1.00432 -0.00565171 0)
(1.00206 -0.000847824 0)
(1.00102 0.00414964 0)
(1.00053 0.00927528 0)
(1.00057 0.0144434 0)
(1.00122 0.0196644 0)
(1.00239 0.0249981 0)
(1.00401 0.0305441 0)
(1.00603 0.0364406 0)
(1.00844 0.0428629 0)
(1.01124 0.0500316 0)
(1.01446 0.0581921 0)
(1.01811 0.0677752 0)
(1.02224 0.0786181 0)
(1.02674 0.0937553 0)
(1.03137 0.103863 0)
(1.03721 0.13874 0)
(1.03413 -0.00706722 0)
(1.0305 -0.00986225 0)
(1.03173 -0.0118569 0)
(1.03081 -0.0127885 0)
(1.02209 -0.0128323 0)
(1.01656 -0.0122147 0)
(1.01551 -0.010893 0)
(1.01317 -0.00865412 0)
(1.00974 -0.00553382 0)
(1.00718 -0.0017299 0)
(1.00567 0.00245934 0)
(1.00496 0.00696277 0)
(1.00492 0.0117617 0)
(1.0055 0.016812 0)
(1.00662 0.0221102 0)
(1.00823 0.0277024 0)
(1.01031 0.0336848 0)
(1.01286 0.0402015 0)
(1.0159 0.0474505 0)
(1.01947 0.055663 0)
(1.02358 0.0652738 0)
(1.02829 0.0760979 0)
(1.03352 0.0913796 0)
(1.03889 0.101292 0)
(1.04591 0.137236 0)
(1.02787 0.000369389 0)
(1.02413 -0.000973949 0)
(1.02682 -0.00171193 0)
(1.02818 -0.00206433 0)
(1.02141 -0.00203989 0)
(1.01715 -0.0016098 0)
(1.01721 -0.000723532 0)
(1.01608 0.000792352 0)
(1.01386 0.00294679 0)
(1.01238 0.00564207 0)
(1.01154 0.00886804 0)
(1.01101 0.012503 0)
(1.01089 0.016455 0)
(1.01127 0.0206866 0)
(1.0122 0.0252019 0)
(1.01367 0.0300463 0)
(1.0157 0.0353072 0)
(1.0183 0.0411183 0)
(1.02152 0.0476711 0)
(1.02539 0.0551987 0)
(1.02997 0.0641572 0)
(1.03532 0.0743482 0)
(1.04139 0.0892813 0)
(1.04766 0.0985271 0)
(1.05629 0.135472 0)
(1.02894 -0.00433664 0)
(1.02616 -0.00547711 0)
(1.0285 -0.0061041 0)
(1.02982 -0.00641865 0)
(1.02379 -0.00642886 0)
(1.02003 -0.00614996 0)
(1.0204 -0.00555198 0)
(1.0196 -0.00444304 0)
(1.01743 -0.00277988 0)
(1.01581 -0.000697274 0)
(1.01492 0.00177138 0)
(1.01444 0.00465879 0)
(1.01443 0.00797481 0)
(1.01495 0.0117184 0)
(1.01602 0.015899 0)
(1.01767 0.0205498 0)
(1.01993 0.02574 0)
(1.02285 0.0315867 0)
(1.02649 0.0382688 0)
(1.03093 0.0460202 0)
(1.03626 0.0553123 0)
(1.04254 0.0659232 0)
(1.04988 0.081719 0)
(1.05742 0.0911446 0)
(1.06828 0.131391 0)
(1.02168 0.00939272 0)
(1.01811 0.00892313 0)
(1.02192 0.00893177 0)
(1.02589 0.00884823 0)
(1.02195 0.00870618 0)
(1.01938 0.00879392 0)
(1.02083 0.00919114 0)
(1.02141 0.00998463 0)
(1.02065 0.0112266 0)
(1.02017 0.0128929 0)
(1.02014 0.0149423 0)
(1.0203 0.0173679 0)
(1.02072 0.0201626 0)
(1.02153 0.0233217 0)
(1.02281 0.0268558 0)
(1.02465 0.0307994 0)
(1.02711 0.0352175 0)
(1.03031 0.040217 0)
(1.03435 0.0459584 0)
(1.03934 0.0526594 0)
(1.04545 0.0607725 0)
(1.05275 0.070026 0)
(1.06153 0.0845537 0)
(1.07051 0.0919213 0)
(1.08504 0.130893 0)
(1.02798 -0.00996124 0)
(1.02562 -0.010021 0)
(1.02818 -0.00957154 0)
(1.03015 -0.00923888 0)
(1.02568 -0.0087786 0)
(1.02304 -0.00808188 0)
(1.02415 -0.00737649 0)
(1.02443 -0.0066029 0)
(1.02353 -0.00562455 0)
(1.02295 -0.00442961 0)
(1.02285 -0.00300315 0)
(1.02301 -0.00129535 0)
(1.02348 0.000737054 0)
(1.02438 0.00312844 0)
(1.0258 0.00591723 0)
(1.02782 0.00915544 0)
(1.03054 0.012916 0)
(1.03409 0.017315 0)
(1.03862 0.0225066 0)
(1.04424 0.028767 0)
(1.05129 0.0364964 0)
(1.05961 0.0456856 0)
(1.07034 0.06087 0)
(1.08039 0.0677699 0)
(1.09848 0.115823 0)
(1.02192 0.0173955 0)
(1.01985 0.017228 0)
(1.02295 0.0177078 0)
(1.02674 0.0178714 0)
(1.02445 0.0176288 0)
(1.02258 0.0173851 0)
(1.02406 0.0173446 0)
(1.02534 0.0176613 0)
(1.0256 0.0183636 0)
(1.02597 0.0193503 0)
(1.02671 0.0205634 0)
(1.02765 0.0220146 0)
(1.02885 0.023731 0)
(1.03039 0.0257384 0)
(1.03241 0.0280684 0)
(1.035 0.0307651 0)
(1.03833 0.0338891 0)
(1.04254 0.0375407 0)
(1.04792 0.0418369 0)
(1.05454 0.047037 0)
(1.06334 0.0534202 0)
(1.07316 0.0609945 0)
(1.08848 0.0740419 0)
(1.10019 0.078388 0)
(1.13306 0.121145 0)
(1.02624 -0.0182637 0)
(1.02464 -0.018062 0)
(1.02734 -0.0176566 0)
(1.03044 -0.0176998 0)
(1.02841 -0.0175698 0)
(1.02687 -0.0168084 0)
(1.02802 -0.015863 0)
(1.02878 -0.0150783 0)
(1.02864 -0.0144201 0)
(1.0287 -0.0137954 0)
(1.02917 -0.0131406 0)
(1.02991 -0.0123996 0)
(1.03096 -0.0115322 0)
(1.03243 -0.0105091 0)
(1.03443 -0.00930175 0)
(1.03708 -0.00786773 0)
(1.04054 -0.0061663 0)
(1.04497 -0.00407426 0)
(1.05072 -0.00162078 0)
(1.05772 0.00184689 0)
(1.06742 0.00537292 0)
(1.07747 0.0120871 0)
(1.09536 0.0201661 0)
(1.10615 0.0227332 0)
(1.14308 0.0720229 0)
(1.02648 0.0205782 0)
(1.0256 0.0190493 0)
(1.02768 0.0181146 0)
(1.02948 0.0185494 0)
(1.02759 0.0202001 0)
(1.02623 0.0220361 0)
(1.02717 0.0231879 0)
(1.0283 0.0236509 0)
(1.02898 0.0238011 0)
(1.02979 0.0238892 0)
(1.0309 0.024024 0)
(1.03225 0.0242585 0)
(1.03389 0.0246188 0)
(1.03592 0.0251191 0)
(1.03846 0.0257717 0)
(1.04164 0.0265983 0)
(1.04573 0.0276139 0)
(1.05068 0.0289031 0)
(1.05781 0.0303949 0)
(1.06453 0.0326509 0)
(1.08046 0.034645 0)
(1.08156 0.0394327 0)
(1.13088 0.044167 0)
(1.10326 0.0455846 0)
(1.21422 0.0827644 0)
(1.13525 0.0358848 6.77777e-22)
(1.14908 0.00746962 1.79393e-20)
(1.14308 -0.0480905 -3.90381e-20)
(1.14153 -0.0748402 -1.61183e-22)
(1.10376 -0.160181 0)
(1.10591 0.0247591 1.35467e-21)
(1.12169 0.0128987 -6.4344e-21)
(1.10833 -0.036792 1.38129e-20)
(1.11022 -0.0401438 1.01776e-20)
(1.09789 -0.112852 -1.22379e-20)
(1.085 0.00700859 0)
(1.09662 0.0118718 8.25443e-23)
(1.08882 -0.0257586 4.58324e-21)
(1.08843 -0.0204794 -9.00816e-21)
(1.0875 -0.0789931 3.41851e-21)
(1.06932 0.00732163 1.28389e-23)
(1.07359 0.0161519 4.73014e-22)
(1.07334 -0.0134179 -4.01984e-21)
(1.07098 -0.0120815 1.95229e-21)
(1.07204 -0.0528986 6.27266e-21)
(1.05626 0.0055479 0)
(1.05731 0.0118078 -3.93989e-22)
(1.06065 -0.00863645 1.38203e-23)
(1.05644 -0.00981813 -1.43663e-21)
(1.05685 -0.033161 0)
(1.04578 0.00681303 2.75191e-22)
(1.0458 0.00914395 -6.17944e-23)
(1.04944 -0.00457382 7.74431e-24)
(1.04468 -0.0060079 -2.25325e-22)
(1.04539 -0.0184469 2.36447e-23)
(1.03745 0.00661812 -5.46852e-22)
(1.03772 0.0067219 0)
(1.04088 -0.00163145 -1.18539e-21)
(1.03559 -0.0026124 0)
(1.03659 -0.00899111 2.09538e-21)
(1.03111 0.00555156 6.54804e-22)
(1.03178 0.00498539 -1.44892e-21)
(1.03423 -0.000220658 1.03298e-21)
(1.0289 -0.000785998 0)
(1.03029 -0.00460639 -1.8058e-21)
(1.02705 0.00651066 -3.23415e-22)
(1.02774 0.00559334 1.44029e-21)
(1.02969 0.00286309 1.30192e-21)
(1.02369 0.00269626 -1.71907e-22)
(1.02515 0.00169224 3.07729e-21)
(1.02359 5.31597e-05 0)
(1.02422 -0.000398895 0)
(1.02632 -0.00242483 -2.83851e-21)
(1.02228 -0.00217562 0)
(1.02458 -0.00320541 -5.60893e-21)
(1.02324 0.0100982 0)
(1.02387 0.0094861 3.76852e-22)
(1.02543 0.00909663 -8.97796e-22)
(1.01938 0.00936532 -1.11349e-21)
(1.01994 0.00992849 2.67787e-21)
(1.02125 -0.00926063 0)
(1.0217 -0.00944619 3.14688e-22)
(1.02346 -0.0101758 -5.14268e-23)
(1.02036 -0.00993843 1.32705e-21)
(1.02419 -0.00954184 -1.09261e-21)
(1.02372 0.0166787 -3.62648e-22)
(1.02374 0.0166788 7.09409e-22)
(1.02433 0.0164228 2.01798e-21)
(1.0203 0.0174378 -4.78207e-23)
(1.02045 0.0178807 1.19113e-21)
(1.02273 -0.0189743 2.89422e-22)
(1.02248 -0.0193326 -3.03453e-23)
(1.02365 -0.0189752 -1.40296e-21)
(1.02121 -0.0188221 4.86889e-22)
(1.02393 -0.0180139 -5.27348e-22)
(1.02681 0.0251213 0)
(1.02658 0.0259444 0)
(1.02673 0.0246868 -2.61711e-22)
(1.02507 0.0235677 0)
(1.02577 0.0218745 0)
(0.993794 0.166087 2.06269e-20)
(0.990906 0.190162 -2.45543e-20)
(0.985089 0.223952 1.3949e-20)
(0.981863 0.265949 -2.74525e-20)
(0.977412 0.31846 2.0458e-20)
(0.976775 0.379011 0)
(0.971241 0.458087 0)
(0.973313 0.554777 -1.80495e-20)
(0.966704 0.66727 -5.74076e-21)
(0.701459 0.633032 0)
(1.03249 0.158213 -1.04141e-21)
(1.03826 0.189065 0)
(1.04288 0.221956 -9.97314e-22)
(1.05215 0.262022 -7.69289e-21)
(1.05993 0.311553 -1.32934e-20)
(1.07373 0.369651 -2.3591e-22)
(1.08937 0.443747 -1.19677e-20)
(1.11527 0.539478 3.35414e-20)
(1.13342 0.62308 2.75991e-20)
(0.820238 0.564205 -7.89488e-20)
(1.07118 0.149066 -1.32741e-21)
(1.08593 0.175827 4.6284e-21)
(1.10024 0.20536 -4.52273e-21)
(1.11902 0.240428 -1.506e-20)
(1.13911 0.285735 3.89037e-20)
(1.16623 0.337317 -1.98878e-20)
(1.1973 0.399778 4.96513e-20)
(1.23718 0.48662 -1.02321e-19)
(1.25733 0.539138 -2.09902e-20)
(0.874501 0.45103 8.7983e-20)
(1.11186 0.123068 -2.56235e-21)
(1.12887 0.144712 -3.8438e-21)
(1.15 0.170133 1.4667e-20)
(1.17707 0.201482 -1.63836e-20)
(1.20444 0.240843 1.9629e-20)
(1.24165 0.286044 -1.0151e-20)
(1.28677 0.337031 0)
(1.33755 0.406437 5.38707e-20)
(1.33376 0.430954 -6.54773e-20)
(0.85471 0.319752 -2.84536e-20)
(1.14236 0.0971569 4.28981e-21)
(1.16833 0.111573 4.77675e-21)
(1.19506 0.130368 -5.69554e-21)
(1.22753 0.155668 0)
(1.26412 0.18625 0)
(1.30794 0.222142 1.01723e-20)
(1.3566 0.2613 0)
(1.39707 0.311117 0)
(1.33063 0.310583 0)
(0.739882 0.188942 -2.92484e-20)
(0.833143 0.0204674 -2.07497e-22)
(0.808167 0.0239497 1.05812e-20)
(0.772912 0.0296664 -1.26178e-20)
(0.731392 0.0365417 0)
(0.677183 0.044635 0)
(0.613233 0.0541701 -1.56952e-20)
(0.527056 0.0664504 0)
(0.426715 0.0814532 0)
(0.278923 0.105031 0)
(0.10234 0.102187 2.39295e-20)
(0.844288 0.0594421 2.13951e-20)
(0.8232 0.0704164 -3.99698e-20)
(0.790662 0.0865342 4.76632e-20)
(0.751288 0.106059 -3.55449e-20)
(0.701006 0.129393 4.25889e-20)
(0.642771 0.157074 1.56548e-20)
(0.564292 0.192797 0)
(0.47322 0.23603 5.59625e-20)
(0.337944 0.301639 -6.79979e-20)
(0.155097 0.291418 -6.84141e-20)
(0.869001 0.098495 -2.49775e-20)
(0.854018 0.114893 3.52432e-20)
(0.827181 0.138616 -6.18611e-20)
(0.793934 0.168116 -8.76126e-20)
(0.75115 0.203832 1.14378e-19)
(0.702823 0.246094 -4.88861e-20)
(0.636804 0.301536 6.97629e-20)
(0.563916 0.368272 -1.28666e-19)
(0.450829 0.469432 -1.72265e-22)
(0.253975 0.454304 6.55875e-20)
(0.90066 0.128211 3.32046e-20)
(0.891985 0.150153 -5.38462e-20)
(0.871033 0.180724 1.98485e-20)
(0.84645 0.217262 6.57716e-21)
(0.815482 0.261721 -8.67847e-20)
(0.782418 0.314375 3.52139e-20)
(0.735315 0.383987 -1.3077e-21)
(0.686777 0.466586 5.89194e-20)
(0.606436 0.590293 -2.11146e-20)
(0.392201 0.575141 -3.18334e-20)
(0.945387 0.150008 -3.34406e-20)
(0.941427 0.172462 3.98016e-20)
(0.925877 0.207885 -2.61517e-20)
(0.910702 0.250708 8.32608e-20)
(0.892207 0.301616 -1.40117e-20)
(0.874458 0.360956 0)
(0.847395 0.439362 2.38533e-20)
(0.825738 0.532512 -2.88618e-20)
(0.784721 0.65847 2.11633e-20)
(0.548734 0.636481 0)
(0.984735 0.146625 5.11059e-22)
(0.983616 0.0472653 2.43525e-22)
(0.981664 0.00154354 1.60665e-22)
(0.979277 -0.0118625 -1.81984e-22)
(0.976298 -0.0139968 2.27342e-22)
(0.973148 -0.0122726 0)
(0.968177 -0.011451 0)
(0.963138 -0.00599461 -2.09345e-22)
(0.956024 -0.0078572 1.09819e-21)
(0.945431 -0.000511665 -2.6561e-21)
(0.936875 0.00188117 -2.05564e-22)
(0.919061 0.00135471 4.40337e-21)
(0.905737 0.00867615 -2.49632e-21)
(0.881767 0.0126124 2.28377e-22)
(0.861892 0.018432 -5.25396e-21)
(0.984921 0.14667 -9.91292e-22)
(0.984377 0.0473297 -2.77269e-22)
(0.982311 0.00190585 1.35935e-21)
(0.979825 -0.0111319 -3.69021e-22)
(0.977001 -0.0128495 7.40701e-22)
(0.973788 -0.0109056 -8.14865e-22)
(0.969628 -0.00910015 -3.51132e-22)
(0.963652 -0.0044238 2.1246e-22)
(0.958787 -0.00302079 -2.68973e-22)
(0.945936 0.0021979 -6.08008e-21)
(0.940417 0.0112607 6.54984e-21)
(0.92151 0.00925597 9.23062e-21)
(0.909307 0.0269707 -2.33175e-20)
(0.887337 0.0321723 -2.00533e-21)
(0.869315 0.0511341 -1.67699e-21)
(0.985078 0.14651 5.08499e-22)
(0.984995 0.0469545 0)
(0.982867 0.00193014 -6.87625e-22)
(0.980356 -0.0105897 -4.07963e-22)
(0.977641 -0.0117249 0)
(0.974389 -0.0093074 -2.96605e-22)
(0.970461 -0.0059292 3.61294e-22)
(0.964137 -0.00102954 0)
(0.96019 0.00405053 -9.86023e-21)
(0.947329 0.00954275 1.16648e-20)
(0.942813 0.0240387 0)
(0.926233 0.0230515 2.90539e-22)
(0.915949 0.0486402 0)
(0.898192 0.0559697 -3.12044e-20)
(0.88633 0.0859968 7.40528e-20)
(0.985168 0.146137 0)
(0.98543 0.046046 9.49992e-24)
(0.983345 0.00162514 7.43468e-22)
(0.980924 -0.0102956 0)
(0.978386 -0.0109673 2.19114e-21)
(0.975447 -0.00840495 -2.19341e-21)
(0.971823 -0.00436236 0)
(0.966174 -0.000442335 -4.91086e-22)
(0.962698 0.00755217 8.9708e-22)
(0.950884 0.0107317 1.22418e-20)
(0.947344 0.0315963 -1.44882e-20)
(0.933113 0.02588 -2.00171e-20)
(0.924679 0.0668467 -1.84619e-21)
(0.913468 0.0693779 2.84548e-20)
(0.907799 0.11399 2.47234e-22)
(0.985163 0.145588 0)
(0.98562 0.044477 -6.58762e-22)
(0.983711 0.000610163 0)
(0.981419 -0.00997747 0)
(0.978955 -0.00968096 0)
(0.976082 -0.00631718 -3.45892e-22)
(0.97204 -0.00098621 0)
(0.967493 0.00373246 5.26522e-22)
(0.962633 0.0147277 1.07741e-20)
(0.954544 0.0193599 -1.28236e-20)
(0.948812 0.0412246 -1.72538e-20)
(0.943346 0.0459174 1.98922e-20)
(0.937502 0.0834843 2.47076e-20)
(0.934717 0.0908714 -5.65779e-20)
(0.944443 0.137455 3.2074e-20)
(0.985078 0.145111 0)
(0.98558 0.0439025 0)
(0.984148 0.000500233 0)
(0.982219 -0.00997015 0)
(0.979905 -0.00949045 0)
(0.977416 -0.00593304 0)
(0.973417 -0.000362178 0)
(0.971305 0.00440819 0)
(0.962998 0.0163457 0)
(0.964868 0.0179174 0)
(0.951892 0.0463075 0)
(0.958907 0.0388567 0)
(0.952856 0.0967898 0)
(0.965096 0.0753263 0)
(0.971186 0.146378 0)
(0.985022 0.144974 0)
(0.985683 0.0442349 0)
(0.984635 0.00102326 0)
(0.983011 -0.00942911 0)
(0.981065 -0.0087665 0)
(0.9791 -0.00490796 0)
(0.975287 0.00121571 0)
(0.974896 0.00649348 0)
(0.965939 0.0180047 0)
(0.973377 0.022351 0)
(0.958702 0.0456067 0)
(0.97219 0.0436914 0)
(0.968205 0.0864031 0)
(0.982339 0.0728306 0)
(0.988079 0.115058 0)
(0.984999 0.144827 0)
(0.985768 0.044324 0)
(0.985216 0.00125504 0)
(0.984055 -0.00892721 0)
(0.982408 -0.00801214 0)
(0.981067 -0.00389518 0)
(0.977688 0.00215454 0)
(0.979081 0.00784619 0)
(0.969864 0.0191141 0)
(0.981746 0.0231786 0)
(0.966313 0.0448182 0)
(0.983948 0.042089 0)
(0.982186 0.0731846 0)
(0.993622 0.0679644 0)
(1.00199 0.0912423 0)
(0.984974 0.144575 0)
(0.986048 0.0444256 0)
(0.986002 0.00123666 0)
(0.985275 -0.00894888 0)
(0.984132 -0.0079519 0)
(0.983341 -0.00365409 0)
(0.980441 0.00264856 0)
(0.983474 0.00887919 0)
(0.974663 0.0189438 0)
(0.989763 0.0237618 0)
(0.973774 0.0411664 0)
(0.995016 0.0393538 0)
(0.993048 0.0619915 0)
(1.00211 0.058109 0)
(1.01252 0.073567 0)
(0.985009 0.144298 0)
(0.986254 0.0441221 0)
(0.986746 0.00181436 0)
(0.98669 -0.00794377 0)
(0.986022 -0.00664082 0)
(0.98615 -0.00212433 0)
(0.984089 0.0038312 0)
(0.98841 0.0097522 0)
(0.979975 0.0182859 0)
(0.997298 0.0228414 0)
(0.980965 0.0364302 0)
(1.00382 0.0352086 0)
(1.00159 0.0501735 0)
(1.00852 0.0483348 0)
(1.01867 0.0577087 0)
(0.984971 0.14398 0)
(0.987002 0.0438859 0)
(0.988294 0.000728043 0)
(0.98862 -0.00931485 0)
(0.988544 -0.00809454 0)
(0.989041 -0.0036084 0)
(0.987316 0.00212618 0)
(0.992786 0.00818616 0)
(0.985059 0.0155907 0)
(1.00385 0.0199058 0)
(0.98727 0.0302429 0)
(1.01061 0.0292793 0)
(1.00777 0.039097 0)
(1.01238 0.0380366 0)
(1.02218 0.0434319 0)
(0.985058 0.143221 0)
(0.987067 0.0437445 0)
(0.988836 0.00216861 0)
(0.990327 -0.00710835 0)
(0.990994 -0.00558555 0)
(0.992619 -0.00110608 0)
(0.992151 0.00426969 0)
(0.998423 0.00953267 0)
(0.990986 0.0150937 0)
(1.0099 0.0183405 0)
(0.993098 0.0255587 0)
(1.01572 0.024392 0)
(1.01219 0.0303632 0)
(1.01483 0.0296729 0)
(1.02369 0.0327026 0)
(0.985212 0.142883 0)
(0.989278 0.0412234 0)
(0.992133 -0.00179079 0)
(0.9935 -0.0116195 0)
(0.994503 -0.0103618 0)
(0.996123 -0.00617069 0)
(0.995412 -0.00157674 0)
(1.00158 0.00310621 0)
(0.994694 0.00765676 0)
(1.01324 0.0106067 0)
(0.996774 0.0160778 0)
(1.01832 0.0153984 0)
(1.01415 0.0191372 0)
(1.01557 0.019508 0)
(1.02324 0.0209794 0)
(0.985061 0.141813 0)
(0.988024 0.0429342 0)
(0.991865 0.00199792 0)
(0.995281 -0.00666838 0)
(0.99737 -0.00507641 0)
(0.999995 -0.000986822 0)
(1.00062 0.00336305 0)
(1.00735 0.00760678 0)
(1.00109 0.011037 0)
(1.01835 0.0130449 0)
(1.00254 0.0168822 0)
(1.02191 0.0155918 0)
(1.0178 0.0178029 0)
(1.0176 0.017713 0)
(1.02483 0.018386 0)
(0.985742 0.138822 0)
(0.993815 0.0342336 0)
(0.998427 -0.00835664 0)
(1.0006 -0.0174798 0)
(1.00219 -0.0160014 0)
(1.00426 -0.0121528 0)
(1.00413 -0.00842263 0)
(1.00943 -0.00500524 0)
(1.00307 -0.00239478 0)
(1.01847 -0.000515158 0)
(1.0032 0.00246479 0)
(1.02075 0.00205787 0)
(1.01569 0.00340188 0)
(1.01503 0.00463812 0)
(1.02082 0.00487133 0)
(0.985583 0.139085 0)
(0.991197 0.0412582 0)
(0.997806 0.00176031 0)
(1.00285 -0.00624212 0)
(1.00574 -0.00455135 0)
(1.00848 -0.000867129 0)
(1.00929 0.00259183 0)
(1.01483 0.00578577 0)
(1.01008 0.0081807 0)
(1.02362 0.00960536 0)
(1.01092 0.0123223 0)
(1.02555 0.0113077 0)
(1.02216 0.0125406 0)
(1.02072 0.0133747 0)
(1.02627 0.0135701 0)
(0.987034 0.128166 0)
(1.00176 0.0187724 0)
(1.00825 -0.0214949 0)
(1.01062 -0.0282117 0)
(1.01202 -0.0254741 0)
(1.01351 -0.0212449 0)
(1.01318 -0.0176823 0)
(1.01675 -0.0146314 0)
(1.01141 -0.0127656 0)
(1.02204 -0.0113665 0)
(1.00965 -0.00950794 0)
(1.02181 -0.00981791 0)
(1.0177 -0.00931752 0)
(1.01559 -0.00815285 0)
(1.0203 -0.00802804 0)
(0.988593 0.130954 0)
(1.00607 0.0367117 0)
(1.0151 0.00146166 0)
(1.01836 -0.00441481 0)
(1.01928 -0.00193978 0)
(1.02015 0.00178781 0)
(1.01998 0.00490234 0)
(1.02275 0.00766155 0)
(1.01937 0.00942991 0)
(1.02731 0.0108938 0)
(1.01905 0.0129446 0)
(1.02815 0.0128983 0)
(1.0255 0.013572 0)
(1.02455 0.0154669 0)
(1.02805 0.0154616 0)
(0.991794 0.087394 0)
(1.02129 -0.0101465 0)
(1.02689 -0.0385312 0)
(1.02654 -0.03958 0)
(1.02568 -0.0342943 0)
(1.02503 -0.0291736 0)
(1.02368 -0.0255399 0)
(1.0244 -0.0229346 0)
(1.02115 -0.0212932 0)
(1.02549 -0.0206248 0)
(1.01941 -0.0187819 0)
(1.0243 -0.0196672 0)
(1.02301 -0.0191208 0)
(1.02069 -0.0184597 0)
(1.02349 -0.0182379 0)
(1.0146 0.100426 0)
(1.09408 0.0267961 0)
(1.07688 0.00542733 0)
(1.05677 0.00460811 0)
(1.04517 0.00829201 0)
(1.03862 0.011759 0)
(1.0342 0.0142239 0)
(1.03243 0.0161388 0)
(1.02927 0.0171572 0)
(1.0311 0.0187729 0)
(1.02694 0.0187758 0)
(1.03004 0.0202786 0)
(1.02867 0.0204619 0)
(1.0277 0.0212468 0)
(1.02955 0.0211699 0)
(1.00607 0.131647 0)
(1.03351 0.116837 3.23415e-23)
(1.07556 0.108682 9.9292e-22)
(1.10493 0.0854208 -3.75122e-21)
(1.1267 0.0765587 -4.58838e-22)
(1.01786 0.10654 -1.2596e-20)
(1.0323 0.100411 6.01373e-21)
(1.08214 0.0938316 -3.16764e-22)
(1.08599 0.0722628 1.54138e-21)
(1.11073 0.0718982 -1.07146e-21)
(1.02691 0.0866929 1.41047e-21)
(1.03204 0.0798054 -5.12215e-21)
(1.08064 0.0733228 1.10594e-21)
(1.06752 0.0494765 -1.33739e-21)
(1.0976 0.0523294 0)
(1.03345 0.0696458 8.16311e-21)
(1.03262 0.0615661 4.53162e-21)
(1.07317 0.0564332 -9.97402e-22)
(1.05679 0.0385501 2.77324e-22)
(1.08483 0.0426394 4.45593e-24)
(1.03603 0.0529653 0)
(1.03319 0.0465278 -8.01019e-21)
(1.06386 0.0431166 -9.36462e-23)
(1.04762 0.0287325 -2.55219e-22)
(1.07007 0.0289671 0)
(1.0364 0.0397185 1.46653e-22)
(1.03155 0.0339052 3.59268e-21)