/*--------------------------------*- C++ -*----------------------------------*\
| =========                 |                                                 |
| \\      /  F ield         | OpenFOAM: The Open Source CFD Toolbox           |
|  \\    /   O peration     | Version:  2312                                  |
|   \\  /    A nd           | Website:  www.openfoam.com                      |
|    \\/     M anipulation  |                                                 |
\*---------------------------------------------------------------------------*/
FoamFile
{
    version     2.0;
    format      ascii;
    arch        "LSB;label=32;scalar=64";
    class       volScalarField;
    location    "3";
    object      p;
}
// * * * * * * * * * * * * * * * * * * * * * * * * * * * * * * * * * * * * * //

dimensions      [0 2 -2 0 0 0 0];

internalField   nonuniform List<scalar> 
5478
(
-0.526372
-0.510991
-0.504849
-0.513137
-0.521046
-0.505127
-0.459668
-0.397411
-0.33272
-0.273563
-0.222801
-0.18006
-0.144545
-0.114041
-0.0876526
-0.534323
-0.519653
-0.512052
-0.514181
-0.507775
-0.4805
-0.433542
-0.377475
-0.321381
-0.270021
-0.225043
-0.186309
-0.153248
-0.124587
-0.100894
-0.554512
-0.540314
-0.531406
-0.522436
-0.500064
-0.461877
-0.41338
-0.361593
-0.311448
-0.265556
-0.224832
-0.189201
-0.15813
-0.13112
-0.107806
-0.586658
-0.569411
-0.557238
-0.533598
-0.495523
-0.448457
-0.398268
-0.348825
-0.302391
-0.26015
-0.222452
-0.189122
-0.159851
-0.134156
-0.11174
-0.628346
-0.605395
-0.583362
-0.543689
-0.492243
-0.438308
-0.386284
-0.337774
-0.293419
-0.253446
-0.217789
-0.186179
-0.158214
-0.133592
-0.111673
-0.670434
-0.643647
-0.605324
-0.549339
-0.487357
-0.428148
-0.374247
-0.325878
-0.282671
-0.24423
-0.210164
-0.180015
-0.15338
-0.129822
-0.108467
-0.705925
-0.675531
-0.619031
-0.547952
-0.477713
-0.414453
-0.359043
-0.310628
-0.268201
-0.230955
-0.198269
-0.169601
-0.144428
-0.122158
-0.101928
-0.73066
-0.694235
-0.619759
-0.53665
-0.460239
-0.394147
-0.337884
-0.289772
-0.248352
-0.212473
-0.181338
-0.154315
-0.130791
-0.110003
-0.091418
-0.285335
-0.306195
-0.32566
-0.337118
-0.325519
-0.286032
-0.221963
-0.143832
-0.0653032
0.0021797
0.0522832
0.0838063
0.100439
0.104866
0.102438
-0.316973
-0.336156
-0.356633
-0.371371
-0.363719
-0.327256
-0.263731
-0.183441
-0.100682
-0.0288632
0.0256089
0.0613195
0.0813861
0.089013
0.0892215
-0.374687
-0.390393
-0.412433
-0.433429
-0.434016
-0.404492
-0.342396
-0.257527
-0.167178
-0.0874483
-0.0253251
0.0173678
0.0436525
0.0571963
0.0622424
-0.437578
-0.448451
-0.470913
-0.498354
-0.509125
-0.488715
-0.426623
-0.338256
-0.241943
-0.154505
-0.0848172
-0.0353061
-0.00246835
0.0175551
0.0281414
-0.487619
-0.492352
-0.512051
-0.541853
-0.560514
-0.546944
-0.490375
-0.401439
-0.302705
-0.212077
-0.138687
-0.0850053
-0.0473357
-0.0219982
-0.00624176
-0.516905
-0.514567
-0.527757
-0.554447
-0.57607
-0.568715
-0.517789
-0.432908
-0.338018
-0.250695
-0.179123
-0.124975
-0.0850491
-0.0563846
-0.036453
-0.52731
-0.518077
-0.522299
-0.542359
-0.563403
-0.558853
-0.512702
-0.435105
-0.349144
-0.270165
-0.204615
-0.153071
-0.113196
-0.08307
-0.060006
-0.526881
-0.513006
-0.510004
-0.522856
-0.540614
-0.533143
-0.488637
-0.419135
-0.344096
-0.275362
-0.217423
-0.170116
-0.131929
-0.101342
-0.0760833
0.0936645
0.0810556
0.0696542
0.060337
0.05234
0.0452106
0.0393616
0.0347539
0.0310288
0.0279869
0.0254912
0.023455
0.0217997
0.0204565
0.019365
0.0184757
0.0177494
0.0171536
0.0166599
0.0162447
0.0158876
0.0155709
0.0152784
0.0149953
0.0147075
0.0144011
0.0140619
0.013674
0.0132192
0.0126757
0.012019
0.0112245
0.0102673
0.00909938
0.00769788
0.00595603
0.00390946
0.00144061
0.0829781
0.0736064
0.0659431
0.0589224
0.0516541
0.0449428
0.0394648
0.0351009
0.0315155
0.0285586
0.0260982
0.024073
0.0224138
0.0210562
0.0199427
0.0190292
0.0182786
0.0176573
0.0171366
0.0166937
0.0163088
0.015964
0.0156434
0.0153325
0.0150173
0.0146841
0.0143184
0.0139046
0.0134235
0.0128525
0.0121665
0.0113443
0.0103608
0.00916913
0.00773879
0.0059789
0.00390317
0.0014117
0.0605556
0.0580583
0.0570544
0.053937
0.0487946
0.0433126
0.038654
0.0348565
0.0316838
0.0289169
0.0265944
0.0246313
0.0229989
0.0216429
0.0205069
0.019562
0.0187829
0.018137
0.0175933
0.0171269
0.0167173
0.0163469
0.0160003
0.0156632
0.0153218
0.0149627
0.0145714
0.0141319
0.0136254
0.013029
0.0123168
0.0114701
0.0104624
0.00924826
0.00778964
0.00601162
0.00390605
0.0013887
0.0317235
0.0379665
0.0440629
0.0454803
0.0434825
0.0401456
0.0367502
0.0336974
0.0310777
0.0288095
0.0266225
0.0248388
0.0233025
0.0220221
0.0209423
0.0200263
0.0192515
0.0185952
0.0180341
0.0175474
0.0171162
0.0167229
0.0163523
0.0159906
0.0156244
0.0152401
0.0148238
0.0143593
0.0138282
0.0132091
0.0124756
0.011609
0.0105798
0.00934406
0.0078578
0.00606051
0.00392343
0.00137554
0.00271158
0.0165206
0.0283332
0.033938
0.0358451
0.0354969
0.0339705
0.0321713
0.0303916
0.0285848
0.0268804
0.0252155
0.023766
0.022508
0.0214191
0.0204957
0.0197134
0.0190442
0.0184655
0.0179594
0.0175077
0.0170933
0.0167006
0.0163158
0.0159259
0.0155175
0.0150767
0.0145878
0.0140328
0.0133914
0.0126424
0.011762
0.0107135
0.00945684
0.0079437
0.00612592
0.00395616
0.00137357
-0.023312
-0.00536805
0.0107469
0.0208059
0.0266097
0.0292535
0.0297019
0.0292062
0.0284181
0.0273604
0.0261059
0.0248767
0.0236849
0.0226575
0.0216794
0.020812
0.0200652
0.0194184
0.018849
0.018341
0.0178794
0.0174497
0.0170384
0.0166332
0.0162216
0.0157911
0.0153283
0.0148175
0.0142426
0.0135822
0.0128217
0.0119313
0.010866
0.00958921
0.00805061
0.0062107
0.00400844
0.00138807
-0.0442204
-0.0251309
-0.00641873
0.00744283
0.0168521
0.0228143
0.0257084
0.026791
0.0270587
0.0267405
0.0259441
0.0248845
0.0239158
0.0229752
0.0220625
0.0212241
0.0204835
0.0198327
0.0192535
0.0187324
0.0182553
0.0178081
0.017378
0.0169529
0.0165208
0.0160693
0.0155855
0.0150535
0.0144588
0.0137787
0.0130053
0.0121037
0.0110231
0.00972821
0.00816729
0.00630546
0.00407253
0.00141577
-0.0595274
-0.0439337
-0.0264901
-0.0105258
0.00225749
0.0115324
0.0173767
0.0208703
0.0230603
0.0241603
0.0243137
0.0239173
0.0233881
0.0227819
0.0220668
0.0213983
0.0207582
0.0201596
0.0196039
0.0190889
0.0186077
0.0181502
0.0177057
0.0172635
0.0168125
0.016341
0.0158362
0.0152842
0.0146689
0.0139765
0.0131984
0.0122878
0.0111933
0.00988184
0.00830087
0.00641597
0.00415688
0.00146542
-0.0589648
-0.047381
-0.0307282
-0.0151685
-0.00222071
0.00770749
0.0138741
0.0177006
0.0205533
0.0224492
0.0232754
0.02339
0.0231561
0.0226949
0.022237
0.0216287
0.0210442
0.0204792
0.019942
0.0194341
0.0189515
0.0184871
0.0180316
0.0175757
0.017109
0.0166205
0.0160982
0.0155298
0.014902
0.0142063
0.0134188
0.012492
0.0113813
0.010051
0.00845489
0.00654008
0.00426177
0.00153526
-0.0566649
-0.0467916
-0.0313714
-0.017243
-0.00504421
0.00499247
0.0111062
0.0148283
0.0180033
0.0204552
0.0217153
0.0221691
0.0222752
0.0221493
0.0218739
0.0215319
0.0211046
0.0206467
0.0201786
0.0197118
0.0192502
0.0187929
0.0183356
0.0178718
0.0173933
0.0168902
0.016352
0.0157673
0.015126
0.0144167
0.0136084
0.0126593
0.0115306
0.0101829
0.00857366
0.00663492
0.00434156
0.00157835
-0.0509708
-0.0436967
-0.0306968
-0.0180956
-0.00678676
0.0029295
0.00878803
0.0122955
0.0156813
0.0186317
0.0203656
0.0212231
0.0216808
0.0218573
0.0217767
0.0215327
0.021208
0.0208304
0.0204219
0.0199948
0.0195558
0.0191081
0.018651
0.0181807
0.0176907
0.0171728
0.0166179
0.0160161
0.0153573
0.0146235
0.0137854
0.0128097
0.0116596
0.0102912
0.00866536
0.0067028
0.004389
0.00159847
-0.0419359
-0.0382815
-0.028209
-0.0175087
-0.00750513
0.00159592
0.0072554
0.010558
0.0139293
0.0171703
0.0192632
0.0203985
0.0210802
0.0214571
0.0215847
0.0215165
0.0213187
0.0210318
0.0206857
0.0202992
0.0198844
0.0194484
0.0189932
0.0185172
0.0180159
0.0174828
0.0169101
0.0162888
0.0156067
0.0148443
0.0139775
0.0129763
0.0118036
0.0104123
0.0087663
0.00677644
0.00443834
0.00162289
-0.0327368
-0.0317373
-0.024304
-0.0156297
-0.00698962
0.00141084
0.006727
0.00962982
0.0127553
0.0160724
0.0183553
0.0196661
0.0205517
0.0211539
0.02146
0.0215365
0.0214497
0.02125
0.0209678
0.020625
0.0202374
0.0198147
0.0193621
0.0188804
0.0183673
0.0178181
0.0172263
0.0165829
0.0158752
0.0150857
0.0141925
0.0131659
0.0119693
0.0105538
0.00888562
0.00686731
0.00450242
0.00165474
-0.0234674
-0.0239321
-0.0188385
-0.0123378
-0.00524894
0.0022409
0.00705808
0.00946772
0.01219
0.0153916
0.0177652
0.0192128
0.0202342
0.0209756
0.0214237
0.0216143
0.0216278
0.0215067
0.021283
0.0209812
0.0206192
0.0202093
0.0197588
0.0192709
0.0187453
0.018179
0.0175664
0.0168993
0.0161657
0.0153492
0.0144287
0.0133748
0.0121524
0.0107111
0.0090188
0.006971
0.00457485
0.00168749
-0.0138267
-0.0154291
-0.0124462
-0.00803416
-0.00250626
0.00399565
0.00822805
0.0100853
0.0123194
0.0152844
0.0176195
0.019078
0.0201329
0.0209467
0.0214788
0.0217723
0.021867
0.0218125
0.0216402
0.0213749
0.0210358
0.0206369
0.0201874
0.0196923
0.0191533
0.0185685
0.0179338
0.0172415
0.0164807
0.0156357
0.0146859
0.0136028
0.0123526
0.0108838
0.00916492
0.00708554
0.00465342
0.00172108
-0.00466113
-0.00715709
-0.00571663
-0.00301492
0.00107354
0.00658207
0.0101832
0.011464
0.0131562
0.0157582
0.0179139
0.0192882
0.0203119
0.0211393
0.0217199
0.0220562
0.0222014
0.0221926
0.0220574
0.0218189
0.0214965
0.0211044
0.0206531
0.0201488
0.0195944
0.0189894
0.0183306
0.0176115
0.0168217
0.0159464
0.0149657
0.0138518
0.012572
0.0110738
0.00932593
0.0072125
0.0047403
0.00175737
0.00351493
0.000672267
0.00110953
0.00246077
0.00528088
0.0098495
0.012812
0.0135119
0.0146347
0.0168019
0.0186922
0.0199034
0.0208194
0.0215888
0.0221502
0.0224935
0.022656
0.0226678
0.0225512
0.0223266
0.0220114
0.0216197
0.0211618
0.0206447
0.020072
0.0194442
0.0187591
0.0180109
0.0171901
0.0162827
0.0152695
0.0141233
0.0128122
0.0112827
0.00950363
0.00735358
0.0048373
0.00179734
0.010999
0.00806688
0.00781664
0.00811631
0.00987434
0.0136097
0.0159742
0.0161233
0.0166889
0.0183921
0.0199554
0.0209336
0.0216752
0.0223256
0.0228167
0.02312
0.0232616
0.0232635
0.0231422
0.0229137
0.0225929
0.0221919
0.0217205
0.0211852
0.02059
0.0199361
0.0192216
0.0184416
0.0175875
0.0166461
0.0155987
0.0144186
0.0130746
0.0115122
0.00969968
0.00751032
0.00494589
0.00184187
0.0178777
0.0149372
0.01423
0.0137486
0.0146603
0.0176939
0.0195321
0.0191855
0.0192298
0.0204667
0.0216704
0.0223717
0.0228869
0.0233712
0.0237438
0.0239625
0.0240439
0.0240026
0.0238496
0.0235963
0.0232537
0.0228313
0.022337
0.0217764
0.0211531
0.0204683
0.0197206
0.0189056
0.0180155
0.0170377
0.0159543
0.0147389
0.0133605
0.0117635
0.00991581
0.00768437
0.00506776
0.00189209
0.0241297
0.0212768
0.0202945
0.0192532
0.019508
0.021966
0.023357
0.0225785
0.0221474
0.022934
0.0237695
0.0241701
0.0243871
0.024709
0.024938
0.0250363
0.0250203
0.0249027
0.0246901
0.024389
0.0240062
0.0235479
0.0230193
0.0224245
0.0217659
0.0210443
0.0202585
0.0194045
0.018475
0.0174583
0.0163369
0.0150847
0.0136709
0.012038
0.0101537
0.00787759
0.00520483
0.00194922
0.0298379
0.0271342
0.0260059
0.0245987
0.0244053
0.0264457
0.0275024
0.0263781
0.0255446
0.0259393
0.0264528
0.0266484
0.0266675
0.0266033
0.0265303
0.0264078
0.0262285
0.0259885
0.0256822
0.0253071
0.0248634
0.0243527
0.0237766
0.0231366
0.0224337
0.0216679
0.0208377
0.0199396
0.0189668
0.0179081
0.0167468
0.0154566
0.0140064
0.012337
0.0104152
0.0080919
0.00535922
0.00201467
0.0347763
0.0320454
0.030679
0.0288967
0.0283821
0.0300188
0.0307141
0.0291124
0.0278479
0.0279227
0.0281712
0.0280116
0.0278772
0.0278099
0.027725
0.0275722
0.0273493
0.0270583
0.0266981
0.0262695
0.025774
0.0252132
0.0245883
0.0238999
0.0231482
0.0223332
0.0214537
0.0205069
0.0194872
0.0183839
0.0171812
0.0158525
0.0143662
0.0126602
0.0107008
0.00832863
0.00553277
0.0020894
0.0409847
0.0388673
0.0377431
0.0358825
0.0348879
0.0362432
0.0368463
0.0354599
0.034118
0.0337678
0.0335209
0.032929
0.0322625
0.0316732
0.0311123
0.0305404
0.0299537
0.0293476
0.0287126
0.0280416
0.0273307
0.0265782
0.0257841
0.0249482
0.0240701
0.0231477
0.0221775
0.0211538
0.0200684
0.018909
0.0176574
0.0162854
0.0147601
0.0130157
0.0110173
0.0085935
0.00573074
0.00217718
0.0425838
0.0398458
0.0382081
0.0359316
0.0346624
0.0356833
0.0360401
0.0343786
0.0328752
0.0325109
0.0323365
0.0318555
0.0313056
0.0308284
0.0303687
0.0298833
0.0293694
0.0288267
0.0282506
0.0276379
0.026987
0.0262972
0.0255685
0.0248008
0.0239932
0.0231427
0.0222441
0.0212884
0.0202633
0.0191529
0.0179369
0.0165868
0.0150706
0.0133226
0.011308
0.0088483
0.00592622
0.00225545
0.052086
0.0504024
0.049029
0.0466607
0.045214
0.0460458
0.0462436
0.0443742
0.0425101
0.0416689
0.0409938
0.0400113
0.0389469
0.0379518
0.0369897
0.0360283
0.0350695
0.0341148
0.0331595
0.032198
0.0312252
0.0302362
0.029226
0.0281896
0.0271216
0.0260157
0.0248637
0.0236552
0.0223767
0.0210111
0.0195383
0.0179327
0.0161696
0.0141943
0.011989
0.00935753
0.00632786
0.00246563
0.0470307
0.0444163
0.042946
0.0409141
0.0397471
0.0406036
0.0408327
0.0391117
0.0373983
0.0366836
0.0361652
0.035372
0.0345009
0.0336921
0.0329076
0.0321116
0.0313024
0.0304807
0.0296427
0.0287851
0.0279057
0.0270029
0.0260753
0.0251215
0.0241394
0.0231261
0.0220769
0.0209845
0.0198388
0.0186256
0.0173261
0.0159164
0.0143671
0.012633
0.0106684
0.00833329
0.00546727
0.00210296
0.0631233
0.0615982
0.0599403
0.0570108
0.0548364
0.0550265
0.0549185
0.0528985
0.0507132
0.0494108
0.0483209
0.0469889
0.0455798
0.0442317
0.0429216
0.041623
0.0403388
0.0390731
0.0378246
0.0365909
0.0353689
0.0341549
0.0329442
0.0317311
0.0305091
0.0292702
0.0280045
0.0267004
0.0253427
0.0239135
0.0223872
0.020739
0.0189195
0.0168952
0.0145782
0.0117882
0.00841704
0.00343423
0.0502388
0.0482075
0.0469671
0.045152
0.0441315
0.0448214
0.0448953
0.0432349
0.0415306
0.0406516
0.0399296
0.0389546
0.0378882
0.0368559
0.0358331
0.0347933
0.0337377
0.0326695
0.0315877
0.030491
0.0293784
0.028249
0.0271018
0.0259354
0.0247476
0.0235354
0.022294
0.0210167
0.0196934
0.0183128
0.0168522
0.0153046
0.0136058
0.0118043
0.00969695
0.00748028
0.0047691
0.00164691
0.0687545
0.0669536
0.0650415
0.0623035
0.0602199
0.0599754
0.0596035
0.0577503
0.0556163
0.0540856
0.0527559
0.0512655
0.0497008
0.0481678
0.046661
0.045164
0.0436801
0.042214
0.0407676
0.0393413
0.0379352
0.036548
0.0351773
0.0338194
0.0324691
0.0311194
0.029761
0.0283828
0.0269661
0.0254999
0.0239301
0.0222984
0.0203678
0.0185251
0.0157788
0.0134535
0.00928545
0.00367723
0.0570113
0.0554833
0.0541988
0.0523134
0.0509688
0.050961
0.0505923
0.0490039
0.0472844
0.0461031
0.0450587
0.0438547
0.0425791
0.0413181
0.0400607
0.0387906
0.037509
0.036219
0.0349214
0.0336162
0.0323036
0.0309834
0.029655
0.0283173
0.026968
0.0256038
0.0242185
0.0228058
0.0213501
0.0198506
0.0182477
0.0166286
0.014696
0.0130639
0.0104055
0.00888544
0.00521161
0.00175917
0.0659924
0.0642783
0.0624717
0.0603053
0.0587193
0.058164
0.0574851
0.0559269
0.0541945
0.0527721
0.051449
0.0500307
0.0485575
0.0470857
0.0456164
0.0441435
0.0426697
0.0411994
0.0397353
0.0382794
0.0368328
0.0353962
0.0339694
0.0325507
0.0311367
0.0297228
0.0282996
0.0268621
0.0253719
0.02387
0.0221269
0.0206349
0.0179892
0.0174666
0.0122606
0.0145124
0.00621456
0.00213173
-0.074374
-0.0817888
-0.0867276
-0.0887397
-0.0888074
-0.0833671
-0.0777107
-0.0650753
-0.0576035
-0.0621138
-0.0651998
-0.066347
-0.0672542
-0.0641997
-0.0621627
-0.0590549
-0.0421944
-0.0449248
-0.047054
-0.0491032
-0.0514077
-0.0523392
-0.0524917
-0.0524185
-0.0290149
-0.030814
-0.0324033
-0.0352897
-0.0376433
-0.0399797
-0.0399759
-0.0405804
-0.0172414
-0.0186745
-0.0197557
-0.0228107
-0.024359
-0.0265536
-0.0271099
-0.0290092
-0.00704978
-0.00810789
-0.00870079
-0.0114451
-0.0124975
-0.0148798
-0.0167985
-0.0194338
0.00210763
0.00135491
0.00105132
-0.00148091
-0.00276889
-0.00558114
-0.00802556
-0.0101023
0.0102479
0.00973469
0.00947944
0.00700294
0.00552157
0.00292877
0.000901419
-0.000777305
0.0175077
0.0171881
0.0169626
0.0147322
0.0134092
0.0111287
0.00909734
0.00731824
0.0240668
0.0239392
0.0238013
0.0218071
0.0205183
0.0182459
0.016125
0.014476
0.0300629
0.0300785
0.0299891
0.0281265
0.0268296
0.0246073
0.0225697
0.0210998
0.0355745
0.0356768
0.0356185
0.0338785
0.0326143
0.0304637
0.0284905
0.0271212
0.0406882
0.0408331
0.0407938
0.0391604
0.0379138
0.0358084
0.0338815
0.0325981
0.0454505
0.0456009
0.0455604
0.0440119
0.0427748
0.0407061
0.038805
0.0375122
0.049958
0.0500795
0.0500436
0.0486008
0.0474188
0.0455033
0.0438631
0.0429861
0.0536692
0.0538169
0.0537248
0.0522817
0.0510123
0.0489583
0.0469772
0.0454424
0.0589022
0.0586724
0.0584162
0.05714
0.0561486
0.0546133
0.053496
0.053241
0.0597012
0.0600404
0.0601118
0.0587408
0.0571508
0.0547872
0.0523942
0.0502354
0.0682862
0.0678277
0.0674016
0.0663142
0.0656158
0.064638
0.064046
0.0640518
0.0640127
0.0639197
0.0636608
0.062241
0.0603757
0.0577372
0.0551507
0.0529381
0.074989
0.0744748
0.0739308
0.0729254
0.0721451
0.0712492
0.070576
0.0700829
0.0691436
0.0683499
0.0675654
0.0662296
0.0646442
0.0626137
0.0606281
0.0589117
0.0751535
0.0743389
0.0735397
0.0724764
0.0713516
0.0700796
0.068861
0.0676183
0.0737591
0.0762809
0.0776607
0.0776553
0.0756338
0.0713936
0.064908
0.0556133
0.0422393
0.0230629
-0.00417075
-0.0427084
-0.0978319
-0.173456
-0.245811
0.0503389
0.0503046
0.0470528
0.0418622
0.0349192
0.0257935
0.0139188
-0.0016587
-0.0223677
-0.0500307
-0.0870534
-0.136804
-0.204935
-0.295586
-0.376501
0.0279007
0.0244315
0.0166705
0.0069037
-0.00449325
-0.0182223
-0.0352407
-0.0567285
-0.0841793
-0.119517
-0.165362
-0.225121
-0.304068
-0.408514
-0.490936
0.0040979
-0.00283269
-0.0139281
-0.0269904
-0.0419368
-0.0596994
-0.081381
-0.108187
-0.141598
-0.183612
-0.237074
-0.305509
-0.393098
-0.506104
-0.585285
-0.0197044
-0.0297269
-0.0433571
-0.0589348
-0.0767915
-0.0980367
-0.123772
-0.155135
-0.193542
-0.240913
-0.300557
-0.375752
-0.469957
-0.583736
-0.657701
-0.0414318
-0.0542591
-0.0700331
-0.0878291
-0.108326
-0.132635
-0.161768
-0.19682
-0.239293
-0.290567
-0.354766
-0.434719
-0.531408
-0.641322
-0.707272
-0.0607666
-0.0759656
-0.0934933
-0.113287
-0.136219
-0.163158
-0.195032
-0.232839
-0.278102
-0.332686
-0.399364
-0.480749
-0.576498
-0.678613
-0.73441
-0.0773337
-0.0943244
-0.113493
-0.135222
-0.160337
-0.189599
-0.223706
-0.263629
-0.310754
-0.366862
-0.43415
-0.514315
-0.605729
-0.695984
-0.741322
0.212718
0.228303
0.245777
0.265423
0.287303
0.311389
0.337702
0.36627
0.397026
0.429672
0.463562
0.497416
0.529089
0.554121
0.574375
0.209966
0.224343
0.240771
0.259579
0.280583
0.303549
0.328511
0.355583
0.384675
0.415383
0.446975
0.478098
0.506487
0.527706
0.544203
0.203011
0.215216
0.229871
0.247261
0.266778
0.287859
0.310474
0.334793
0.360693
0.387647
0.414779
0.440587
0.462556
0.476392
0.485862
0.191612
0.201069
0.213469
0.228854
0.246183
0.264594
0.283963
0.304457
0.325874
0.34752
0.368313
0.386521
0.399256
0.402216
0.402018
0.175831
0.1823
0.192368
0.205475
0.220016
0.234922
0.25006
0.265621
0.281315
0.296257
0.309112
0.317869
0.319225
0.308625
0.295865
0.156073
0.159185
0.166746
0.177333
0.188699
0.199612
0.209952
0.219875
0.228951
0.236085
0.239697
0.237479
0.225679
0.199465
0.171566
0.132927
0.133246
0.13854
0.146069
0.153412
0.159552
0.164529
0.168336
0.170257
0.168934
0.162523
0.148394
0.122366
0.0795138
0.0355116
0.105446
0.104611
0.108711
0.113059
0.115834
0.116667
0.115823
0.113073
0.107385
0.0971647
0.080317
0.0538563
0.0130888
-0.0466348
-0.106149
0.0568703
0.057368
0.0581687
0.0593657
0.0609538
0.0628498
0.065077
0.0676799
0.0706779
0.0741811
0.0781318
0.0827995
0.0879319
0.0941194
0.10092
0.108929
0.117875
0.128118
0.139364
0.151949
0.165629
0.180573
0.196748
0.0591858
0.0596393
0.0603127
0.0614625
0.0629946
0.0648257
0.0669812
0.0695053
0.0724257
0.0758366
0.0797233
0.0842566
0.089314
0.0952981
0.101952
0.110041
0.118698
0.128821
0.139682
0.15193
0.165278
0.179704
0.195139
0.0614742
0.0618873
0.0624396
0.0635402
0.0650137
0.0667767
0.0688559
0.0712971
0.0741329
0.0774434
0.0812423
0.0856184
0.0905573
0.0961311
0.102963
0.110622
0.1189
0.128708
0.139042
0.150729
0.16333
0.176705
0.190485
0.0637369
0.0641164
0.0645531
0.0655976
0.0670047
0.0686929
0.0706903
0.0730421
0.0757868
0.0790028
0.082729
0.0869958
0.0918331
0.0975587
0.103756
0.111155
0.119011
0.128489
0.137966
0.148669
0.159663
0.171171
0.182325
0.0659762
0.0663242
0.0666503
0.0676265
0.068958
0.0705601
0.0724676
0.0747223
0.0773552
0.080428
0.0840153
0.0881463
0.0924511
0.0979576
0.103875
0.110887
0.118226
0.127093
0.135458
0.14481
0.153736
0.16284
0.170478
0.0681929
0.0685038
0.0687264
0.0696221
0.0708661
0.072371
0.07418
0.0763395
0.0788809
0.0818738
0.0854728
0.089317
0.0938379
0.0989058
0.10453
0.111398
0.118016
0.125993
0.132383
0.139879
0.145763
0.151876
0.155271
0.07039
0.0706466
0.0707754
0.0715804
0.0727233
0.0741173
0.0758091
0.0778408
0.0802343
0.0829952
0.0863047
0.0898925
0.094071
0.0988361
0.103965
0.110168
0.115953
0.122631
0.127463
0.132907
0.135963
0.138259
0.136709
0.0725683
0.0727404
0.0727827
0.0734955
0.0745243
0.0758062
0.0774034
0.079358
0.0816877
0.084325
0.0874866
0.0912067
0.0952371
0.0999444
0.104883
0.110585
0.115077
0.12028
0.122034
0.125055
0.123118
0.122078
0.113972
0.0747218
0.0748442
0.0748614
0.0754203
0.0762633
0.0773723
0.0787986
0.0805767
0.0827151
0.0853739
0.0879299
0.0913046
0.0949057
0.0990658
0.103091
0.10735
0.11065
0.113486
0.114036
0.114135
0.109783
0.102535
0.0889088
0.0769337
0.0769749
0.0769215
0.0773353
0.0780369
0.0789793
0.0802178
0.0817803
0.0836638
0.085886
0.0882717
0.0912022
0.0941874
0.0976108
0.100645
0.103562
0.105829
0.106451
0.106137
0.103479
0.0977205
0.0894528
0.0786142
0.0793345
0.0792854
0.0791562
0.0794239
0.0799564
0.0807079
0.0817306
0.0830492
0.0846494
0.0865373
0.0885555
0.0909867
0.093297
0.0959516
0.09798
0.0996264
0.100829
0.0996153
0.0983466
0.0942332
0.08769
0.0799268
0.0699349
0.0819492
0.081816
0.0815947
0.0816946
0.0820337
0.08257
0.0833494
0.0843931
0.0856723
0.0871847
0.0887713
0.0906629
0.0922588
0.094121
0.0951583
0.0956371
0.0958225
0.093222
0.0910681
0.0864819
0.0792663
0.072019
0.062987
0.0848045
0.0845868
0.0842524
0.0841623
0.0842822
0.0845755
0.0850797
0.0858122
0.0867389
0.0878337
0.0889322
0.0902462
0.0911043
0.0921777
0.0922648
0.0917244
0.0910179
0.0874147
0.0846278
0.0798669
0.0723756
0.0656957
0.0575869
0.0879271
0.0876206
0.0871516
0.0868474
0.0867184
0.0867372
0.0869329
0.0873173
0.0878551
0.0884919
0.0890622
0.0897732
0.0898963
0.0902104
0.08943
0.0880346
0.0866028
0.0823297
0.0791377
0.074395
0.0669851
0.0608578
0.0536165
0.0913507
0.0909468
0.0903187
0.0897732
0.0893623
0.0890715
0.0889217
0.0889201
0.0890199
0.0891785
0.0891961
0.0892951
0.0887111
0.0883201
0.0867858
0.0847002
0.0827379
0.0780481
0.0746626
0.0700914
0.0629516
0.0574193
0.0510039
0.0951157
0.0946006
0.0937847
0.092967
0.0922384
0.0916007
0.0910671
0.0906366
0.0902558
0.0899206
0.0893798
0.0888766
0.0876359
0.0866141
0.0844556
0.0818487
0.0795345
0.0746322
0.0712226
0.0669267
0.0601728
0.0552607
0.0496387
0.0992702
0.0986257
0.0975874
0.0964593
0.095371
0.0943453
0.0933928
0.0925024
0.0916723
0.0907784
0.0896785
0.0885957
0.0867642
0.0851993
0.082555
0.0795864
0.0770662
0.0721134
0.0688029
0.0648485
0.058545
0.0542575
0.0493936
0.103873
0.103074
0.101776
0.100297
0.0988031
0.097341
0.0959244
0.0945216
0.0927942
0.0917291
0.0901455
0.088529
0.0861866
0.0841763
0.081182
0.0779851
0.0753731
0.070492
0.0673635
0.0637793
0.0579571
0.054268
0.0501037
0.109
0.108011
0.106395
0.104524
0.102578
0.100648
0.0987609
0.0969332
0.0952436
0.0932497
0.0909666
0.0887981
0.0860058
0.0836438
0.0804116
0.0770912
0.0744695
0.0697451
0.0668417
0.0636263
0.0582843
0.0551361
0.0515974
0.11474
0.113536
0.111546
0.109154
0.10669
0.104207
0.101747
0.0993371
0.0969621
0.0942596
0.0916698
0.0892193
0.0861757
0.0835828
0.0802227
0.0768725
0.0743053
0.0697961
0.0671329
0.0642651
0.0593796
0.0567017
0.0537012
0.121225
0.119724
0.117287
0.114474
0.111426
0.108386
0.105415
0.102542
0.0997726
0.0973697
0.0941567
0.0910925
0.087577
0.0846259
0.0810667
0.0776395
0.0750771
0.0707546
0.0682778
0.065686
0.0611962
0.0588887
0.0563292
0.128642
0.126776
0.123697
0.119991
0.116294
0.112547
0.108838
0.105204
0.101601
0.0979936
0.0942528
0.0910149
0.0874812
0.0845807
0.0811802
0.0779609
0.0756217
0.0716497
0.0694566
0.0671936
0.0631237
0.0611643
0.0589864
0.137111
0.134864
0.131249
0.127138
0.122577
0.118136
0.113871
0.109798
0.10591
0.102249
0.0992305
0.095651
0.0918298
0.0886348
0.0850292
0.081659
0.0791827
0.0752408
0.0730184
0.0707721
0.0668553
0.0649599
0.0628988
0.147183
0.143966
0.139089
0.133482
0.128165
0.122841
0.11766
0.112695
0.107889
0.103215
0.0985617
0.0946241
0.090681
0.0874728
0.0840211
0.0808924
0.0786763
0.0751771
0.0733093
0.0714767
0.0681237
0.0666771
0.0651276
0.159087
0.155683
0.150027
0.143684
0.136929
0.130623
0.124743
0.119261
0.11416
0.109489
0.105155
0.101603
0.0979404
0.0946046
0.0910178
0.0877044
0.0852215
0.0815543
0.0793569
0.0772017
0.0736185
0.0718027
0.0699408
0.173547
0.167148
0.159173
0.150606
0.142975
0.135602
0.128682
0.12229
0.11638
0.110952
0.105862
0.101273
0.096646
0.0928884
0.089284
0.0861185
0.0838432
0.0806561
0.0788937
0.0772207
0.0743563
0.0730821
0.0717116
0.192896
0.186214
0.176508
0.165495
0.155315
0.146354
0.138305
0.131061
0.124555
0.118742
0.11346
0.10883
0.10446
0.100924
0.0972961
0.09401
0.0915528
0.0882185
0.0859954
0.0839052
0.0807382
0.079
0.0773966
0.215037
0.199452
0.183168
0.171591
0.160996
0.150976
0.141894
0.133799
0.126581
0.12016
0.114379
0.109311
0.104582
0.10058
0.0966957
0.0931317
0.0904249
0.0872028
0.0851388
0.0832305
0.0804665
0.0789581
0.0774489
0.258762
0.234894
0.212308
0.193022
0.177547
0.164564
0.153413
0.14383
0.135564
0.128402
0.122109
0.116651
0.111711
0.107528
0.103663
0.100303
0.0974239
0.0942427
0.0918938
0.0897181
0.087048
0.0853281
0.0837367
0.289591
0.245363
0.216243
0.197691
0.1819
0.167892
0.155878
0.145658
0.136888
0.129311
0.122691
0.116944
0.111807
0.107377
0.103345
0.0997299
0.0967033
0.0936097
0.0911671
0.0890024
0.0864508
0.0845767
0.0829049
0.44506
0.299129
0.247962
0.220444
0.197874
0.179249
0.164405
0.152465
0.142587
0.134258
0.127128
0.121011
0.115645
0.111026
0.106902
0.103274
0.100176
0.0971499
0.0946453
0.0923627
0.0899932
0.0881302
0.0864015
0.0704036
0.0470012
0.0254149
0.00511259
-0.014998
-0.0335087
-0.0500331
-0.0634542
0.0644935
0.0429733
0.0208231
0.00318108
-0.012264
-0.0268218
-0.0398579
-0.0497304
0.0577207
0.0398018
0.0200173
0.00479071
-0.00674699
-0.017914
-0.0284182
-0.0361746
0.0518076
0.0366257
0.0202532
0.00693923
-0.00217007
-0.0106208
-0.0188299
-0.0246102
0.0471393
0.0341077
0.0212976
0.0103981
0.00325544
-0.00297731
-0.00920317
-0.0136331
0.0438928
0.0327091
0.0230361
0.0145429
0.00884743
0.00407235
-0.000765219
-0.0041835
0.0419936
0.0324689
0.0253468
0.0189351
0.0144457
0.0107681
0.00700551
0.00442729
0.0413569
0.0332875
0.028161
0.0234262
0.0199628
0.0171364
0.0141297
0.012139
0.0418434
0.0350226
0.0313931
0.0279059
0.0252668
0.0231233
0.0206672
0.0190751
0.043282
0.0375142
0.0349681
0.0323723
0.0303687
0.0287702
0.0267206
0.0253832
0.0454755
0.0405865
0.0388099
0.0368317
0.0352853
0.0341154
0.0323814
0.0312012
0.0482242
0.0440552
0.0428022
0.0412447
0.0400388
0.0391988
0.0377025
0.036604
0.0514297
0.0478224
0.0468855
0.0455854
0.0446157
0.0440175
0.0427088
0.0416552
0.0545963
0.0515031
0.050846
0.0497426
0.0489341
0.0485275
0.0473981
0.0463837
0.0588121
0.0559257
0.0551982
0.0540354
0.0532323
0.0529145
0.0519012
0.050894
0.0617245
0.0593877
0.0588627
0.0577609
0.056959
0.0566454
0.055638
0.0545635
0.066445
0.0640398
0.0634132
0.0624381
0.0618596
0.0618478
0.0611274
0.0600597
0.0688097
0.0665776
0.0654349
0.0637204
0.0624899
0.0620554
0.061249
0.0603564
0.074648
0.0728696
0.0724791
0.0716685
0.0711416
0.0712143
0.0706667
0.0695471
0.0748772
0.0727671
0.0712615
0.0691423
0.0674552
0.0667255
0.0659052
0.0649049
0.0815054
0.0799105
0.0791333
0.0781941
0.0776239
0.0775415
0.0770484
0.0760648
0.080776
0.0788693
0.0772605
0.0752237
0.0734317
0.0724575
0.0715858
0.07041
0.0844346
0.0826906
0.0812036
0.0796507
0.0785146
0.0779345
0.0772804
0.0762697
-0.533787
-0.545888
-0.57038
-0.605932
-0.651119
-0.693293
-0.728179
-0.751716
-0.518384
-0.531506
-0.55586
-0.587999
-0.62684
-0.665978
-0.697079
-0.71391
-0.511518
-0.523707
-0.54684
-0.574592
-0.601649
-0.62395
-0.636844
-0.63612
-0.518345
-0.523592
-0.534577
-0.547438
-0.558324
-0.56431
-0.562791
-0.550896
-0.522655
-0.513157
-0.508322
-0.506011
-0.504258
-0.500237
-0.490927
-0.473375
-0.504101
-0.483154
-0.468012
-0.457368
-0.449121
-0.440071
-0.426924
-0.406842
-0.459122
-0.436507
-0.419731
-0.407241
-0.397
-0.38601
-0.371402
-0.350631
-0.399922
-0.382774
-0.36956
-0.358854
-0.349148
-0.338051
-0.323314
-0.302926
-0.339077
-0.329579
-0.321483
-0.313905
-0.305861
-0.295625
-0.281521
-0.262136
-0.28343
-0.280906
-0.277581
-0.273205
-0.267131
-0.258201
-0.245158
-0.227087
-0.235389
-0.238117
-0.238606
-0.236956
-0.232776
-0.225284
-0.213514
-0.196967
-0.194647
-0.201173
-0.204514
-0.205019
-0.202535
-0.196421
-0.186009
-0.171083
-0.160587
-0.169498
-0.174879
-0.177129
-0.176028
-0.17123
-0.162128
-0.148801
-0.131225
-0.142039
-0.149224
-0.152814
-0.152852
-0.149221
-0.141245
-0.129278
-0.105802
-0.119294
-0.126936
-0.131691
-0.132394
-0.129625
-0.122551
-0.111953
-0.292247
-0.334916
-0.397016
-0.45771
-0.501918
-0.525484
-0.53234
-0.531664
-0.312583
-0.352628
-0.410552
-0.465817
-0.503835
-0.52041
-0.521083
-0.516803
-0.332058
-0.373047
-0.43213
-0.486923
-0.520921
-0.530052
-0.522167
-0.512028
-0.344009
-0.389061
-0.454516
-0.514631
-0.549226
-0.554017
-0.539256
-0.522837
-0.33306
-0.383326
-0.457656
-0.527675
-0.568759
-0.575353
-0.559394
-0.538227
-0.294034
-0.348631
-0.430622
-0.509007
-0.557155
-0.569373
-0.554872
-0.529308
-0.230421
-0.28587
-0.369754
-0.450028
-0.503088
-0.520774
-0.51039
-0.485781
-0.15213
-0.205186
-0.284143
-0.36161
-0.416016
-0.439051
-0.436524
-0.419863
-0.0731411
-0.121248
-0.193477
-0.265517
-0.319296
-0.34788
-0.355167
-0.349355
-0.00503981
-0.0477918
-0.112128
-0.178045
-0.230627
-0.264142
-0.280489
-0.284764
0.0457712