/*--------------------------------*- C++ -*----------------------------------*\
| =========                 |                                                 |
| \\      /  F ield         | OpenFOAM: The Open Source CFD Toolbox           |
|  \\    /   O peration     | Version:  2312                                  |
|   \\  /    A nd           | Website:  www.openfoam.com                      |
|    \\/     M anipulation  |                                                 |
\*---------------------------------------------------------------------------*/
FoamFile
{
    version     2.0;
    format      ascii;
    arch        "LSB;label=32;scalar=64";
    class       surfaceScalarField;
    location    "3";
    object      phi;
}
// * * * * * * * * * * * * * * * * * * * * * * * * * * * * * * * * * * * * * //

dimensions      [0 3 -1 0 0 0 0];

oriented        oriented;

internalField   nonuniform List<scalar> 
10785
(
0.00171104
0.00803576
-0.0097468
0.00969543
0.0109005
-0.0188849
0.0277166
-0.00805859
-0.00996256
0.0550535
-0.0475477
0.0202108
0.0828303
-0.0907193
0.0629426
0.104634
-0.124582
0.102779
0.119196
-0.145989
0.131427
0.128417
-0.157553
0.148332
0.13493
-0.163239
0.156726
0.14081
-0.166177
0.160297
0.147238
-0.168226
0.161799
0.154715
-0.170195
0.162717
0.163567
-0.172706
0.163854
0.172831
-0.175208
0.165943
-0.177958
0.167795
0.182994
0.00125466
0.0067811
0.0115123
0.000642928
0.0349631
-0.0315094
0.0639601
-0.0765447
0.0883843
-0.115143
0.104755
-0.140954
0.114446
-0.15568
0.120372
-0.163478
0.124998
-0.167865
0.129783
-0.170963
0.135373
-0.173816
0.142067
-0.176889
0.149708
-0.180348
0.158486
-0.183985
-0.188987
0.169515
0.00204964
0.00473146
0.0164247
-0.0137321
0.0428476
-0.0579323
0.0686275
-0.102325
0.0870992
-0.133615
0.0981072
-0.151962
0.104338
-0.161911
0.108468
-0.167609
0.112192
-0.171588
0.11633
-0.175101
0.121192
-0.178677
0.12686
-0.182557
0.133304
-0.186791
0.14088
-0.191561
-0.19679
0.148682
0.0037833
0.000948158
0.0222444
-0.0321932
0.0474318
-0.0831197
0.0677909
-0.122684
0.0805627
-0.146387
0.0876172
-0.159016
0.0916569
-0.16595
0.0946382
-0.17059
0.0976061
-0.174556
0.100996
-0.178491
0.104974
-0.182655
0.109572
-0.187156
0.114904
-0.192123
0.120822
-0.19748
-0.203505
0.127538
0.00604033
-0.00509217
0.0266048
-0.0527576
0.0478367
-0.104352
0.0625717
-0.137419
0.0708326
-0.154648
0.075104
-0.163288
0.0776156
-0.168462
0.0796628
-0.172637
0.0818276
-0.176721
0.0843324
-0.180996
0.0872612
-0.185584
0.0906725
-0.190567
0.0945034
-0.195954
0.0988911
-0.201868
-0.208211
0.103597
0.00839323
-0.0134854
0.0281614
-0.0725258
0.0447398
-0.12093
0.0545854
-0.147264
0.0593911
-0.159454
0.061624
-0.16552
0.062896
-0.169734
0.0639883
-0.17373
0.0652094
-0.177942
0.0666763
-0.182462
0.0684419
-0.18735
0.0705213
-0.192646
0.0729745
-0.198407
0.0757323
-0.204625
-0.211308
0.0788286
0.0100326
-0.023518
0.027009
-0.0895022
0.0390854
-0.133006
0.0450506
-0.15323
0.0473043
-0.161707
0.0479445
-0.166161
0.0480542
-0.169844
0.0480609
-0.173736
0.048129
-0.17801
0.0483402
-0.182674
0.0487431
-0.187753
0.0493773
-0.193281
0.0502413
-0.199271
0.0513656
-0.20575
-0.212658
0.0527161
0.0106274
-0.0341454
0.0241447
-0.10302
0.032068
-0.14093
0.0349128
-0.156074
0.035114
-0.161908
0.0343044
-0.165351
0.0331784
-0.168718
0.0319667
-0.172525
0.0307622
-0.176806
0.0296246
-0.181536
0.0285788
-0.186707
0.0276433
-0.192345
0.0268712
-0.198499
0.0262928
-0.205171
0.0261482
-0.212514
-0.0112953
0.00912979
0.00216553
-0.0272342
0.0128006
0.00313832
-0.0420518
0.0118067
0.00301088
-0.053252
0.00876015
0.00244003
-0.0587653
0.00397308
0.0015403
-0.0570495
-0.00207993
0.0003641
-0.047551
-0.00864825
-0.000850238
-0.0305362
-0.0150003
-0.00201449
-0.00721489
-0.0203236
-0.00299774
0.0206678
-0.0242059
-0.00367674
0.0517587
-0.0269563
-0.00413463
0.0841423
-0.0279367
-0.00444692
0.11751
-0.0288341
-0.00453352
0.150089
-0.0280902
-0.00448858
-0.0283559
0.183013
-0.00456822
-0.00948132
0.0186111
-0.0234791
0.0267984
-0.0365855
0.024913
-0.046182
0.0183567
-0.0500827
0.00787383
-0.0467303
-0.00543237
-0.0355596
-0.019819
-0.0170872
-0.0334728
0.00716976
-0.0445805
0.0352709
-0.0523071
0.0657287
-0.0574141
0.0970207
-0.0592287
0.128632
-0.0604458
0.159375
-0.0588325
-0.0591424
0.190161
-0.00579041
0.0244015
-0.0157097
0.0367177
-0.0252209
0.0344242
-0.031551
0.0246867
-0.0323343
0.00865721
-0.0260526
-0.011714
-0.0119379
-0.0339337
0.00852588
-0.0539365
0.0336004
-0.069655
0.0612985
-0.0800052
0.0898303
-0.0859459
0.118377
-0.0877754
0.14634
-0.0884088
0.1735
-0.0859928
-0.0860647
0.200423
-0.0012383
0.0256398
-0.00569983
0.0411792
-0.0102652
0.0389895
-0.0120782
0.0264998
-0.00863319
0.00521218
0.00170154
-0.0220488
0.0185534
-0.0507856
0.0405128
-0.0758959
0.0651247
-0.0942668
0.0905777
-0.105458
0.115385
-0.110753
0.139514
-0.111904
0.16264
-0.111535
0.185455
-0.108807
-0.108744
0.208133
0.0027864
0.0228534
0.00399161
0.039974
0.00483025
0.0381509
0.00810453
0.0232255
0.016271
-0.00295433
0.0309558
-0.0367335
0.0507851
-0.0706149
0.073007
-0.0981179
0.0952933
-0.116553
0.116418
-0.126583
0.136018
-0.130353
0.154773
-0.130659
0.172836
-0.129599
0.191458
-0.127429
-0.127569
0.210284
0.00496212
0.0178913
0.010615
0.0343211
0.0164221
0.0323438
0.024701
0.0149466
0.0386699
-0.0169232
0.0580386
-0.0561022
0.0795906
-0.0921669
0.100184
-0.118711
0.118352
-0.134721
0.134067
-0.142299
0.14828
-0.144565
0.162078
-0.144457
0.175937
-0.143458
0.191174
-0.142666
-0.143251
0.206856
0.00486185
0.0130294
0.0125335
0.0266494
0.0220437
0.0228336
0.0360452
0.000945184
0.0565535
-0.0374316
0.0795607
-0.0791094
0.100694
-0.1133
0.117785
-0.135802
0.131007
-0.147943
0.141768
-0.15306
0.151728
-0.154525
0.161941
-0.15467
0.172986
-0.154503
0.185713
-0.155393
-0.156454
0.198916
0.00328264
0.0110471
0.0239182
0.0450741
0.0705851
0.0942545
0.112381
0.124911
0.133694
0.140931
0.148205
0.156252
0.165603
0.176153
0.187494
0.206183
-0.0173334
-0.00583715
0.223341
-0.0115138
-0.00564422
0.236095
-0.00709014
-0.00566363
0.245808
-0.00394088
-0.00577168
0.253267
-0.00143605
-0.0060233
0.259006
0.000575755
-0.0063148
0.263476
0.00208594
-0.00655553
0.267004
0.00340777
-0.00693591
0.269843
0.00467269
-0.0075115
0.272127
0.00592851
-0.00821267
0.273956
0.00718006
-0.00900951
0.275407
0.00845585
-0.00990693
0.27654
0.00977343
-0.0109062
0.277404
0.0111535
-0.0120178
0.278041
0.0126276
-0.0132646
0.278483
0.0142269
-0.0146687
0.278755
0.0159782
-0.0162502
0.278878
0.01791
-0.0180327
0.278868
0.0200548
-0.0200447
0.278739
0.0224487
-0.0223195
0.278501
0.0251327
-0.0248954
0.278165
0.0281543
-0.0278178
0.277736
0.0315686
-0.0311401
0.277221
0.0354398
-0.0349248
0.276624
0.0398428
-0.0392457
0.275948
0.0448653
-0.0441894
0.275196
0.0506105
-0.0498581
0.274369
0.0571978
-0.0563708
0.273468
0.0647686
-0.0638679
0.272496
0.0734877
-0.0725158
0.271452
0.0835559
-0.082512
0.270334
0.0952194
-0.0941007
0.269141
0.108708
-0.107515
0.267869
0.124503
-0.123232
0.266527
0.142059
-0.140717
0.265081
0.165517
-0.164071
0.263583
0.182552
-0.181053
0.226643
-0.225006
0.209105
-0.0362772
0.223876
-0.0262846
0.235607
-0.018821
0.244785
-0.0131191
0.25193
-0.00858152
0.257566
-0.00505985
0.262005
-0.00235268
0.265485
-7.2562e-05
0.268372
0.0017857
0.270726
0.00357482
0.272629
0.00527699
0.274159
0.00692604
0.275379
0.00855254
0.276337
0.0101961
0.277065
0.0118996
0.277594
0.0136973
0.277954
0.015619
0.278165
0.0176987
0.278245
0.0199743
0.278209
0.0224855
0.278066
0.0252755
0.277826
0.028394
0.277497
0.0318981
0.277083
0.0358536
0.276588
0.0403372
0.276016
0.0454375
0.275368
0.0512591
0.274643
0.0579225
0.273842
0.0655695
0.272965
0.0743647
0.272008
0.0845132
0.270964
0.096263
0.269831
0.109841
0.2686
0.125734
0.267273
0.143386
0.265815
0.166976
0.264272
0.184094
0.228386
0.212783
-0.0486378
0.223565
-0.0370665
0.233127
-0.0283826
0.241241
-0.0212333
0.247807
-0.0151473
0.253149
-0.0104018
0.257502
-0.00670573
0.2611
-0.00367117
0.264012
-0.00112647
0.266477
0.00110996
0.268522
0.00323218
0.270196
0.00525237
0.271552
0.00719679
0.272642
0.00910588
0.273508
0.0110337
0.274181
0.013024
0.274688
0.0151115
0.275052
0.0173348
0.275291
0.019736
0.275418
0.0223582
0.275446
0.0252478
0.275383
0.0284568
0.275237
0.0320441
0.275013
0.0360772
0.274716
0.0406344
0.274348
0.0458059
0.273909
0.0516977
0.2734
0.0584317
0.272818
0.066151
0.272164
0.0750192
0.271429
0.0852484
0.270604
0.0970874
0.269684
0.110762
0.268651
0.126767
0.267504
0.144533
0.2662
0.16828
0.264785
0.185509
0.230057
0.214367
-0.0548714
0.221142
-0.0438414
0.22809
-0.0353304
0.234814
-0.0279578
0.240845
-0.0211777
0.245991
-0.0155481
0.250283
-0.0109975
0.253883
-0.00727184
0.256937
-0.00417997
0.259479
-0.00143202
0.261643
0.00106791
0.26348
0.00341566
0.265035
0.00564214
0.266342
0.00779844
0.26743
0.00994524
0.268329
0.0121259
0.269063
0.0143771
0.269656
0.0167423
0.270125
0.0192663
0.270489
0.0219943
0.270761
0.0249759
0.270952
0.0282659
0.27107
0.0319262
0.271121
0.0360262
0.271109
0.0406459
0.271038
0.0458773
0.270908
0.051828
0.270718
0.0586215
0.270466
0.0664027
0.270151
0.0753346
0.269761
0.0856377
0.269288
0.0975611
0.268719
0.11133
0.268033
0.127453
0.267223
0.145344
0.266236
0.169267
0.26512
0.186625
0.231474
0.211877
-0.0564646
0.215574
-0.047539
0.22038
-0.0401361
0.225614
-0.0331915
0.23099
-0.0265542
0.235862
-0.0204195
0.24007
-0.0152054
0.243721
-0.010923
0.246932
-0.007391
0.249795
-0.00429511
0.252272
-0.00140885
0.254398
0.00128913
0.2562
0.00383985
0.257737
0.00626213
0.259056
0.00862645
0.260191
0.0109899
0.261178
0.0133902
0.262043
0.0158781
0.262802
0.0185067
0.263471
0.0213259
0.26406
0.0243869
0.26458
0.0277457
0.26504
0.0314655
0.265449
0.0356181
0.265809
0.0402851
0.266126
0.0455604
0.266401
0.0515536
0.266632
0.05839
0.266818
0.0662164
0.266955
0.0751978
0.267032
0.0855607
0.267037
0.0975564
0.266955
0.111413
0.266758
0.127649
0.266437
0.145665
0.265927
0.169777
0.265277
0.187275
0.232459
0.205586
-0.0551941
0.206892
-0.0488452
0.209754
-0.0429984
0.213814
-0.0372516
0.218589
-0.0313291
0.223258
-0.0250883
0.227394
-0.019341
0.23103
-0.0145593
0.234327
-0.0106878
0.237334
-0.00730282
0.240054
-0.0041283
0.242434
-0.00109054
0.244577
0.00169632
0.246473
0.00436584
0.248163
0.00693733
0.249675
0.00947747
0.251036
0.0120296
0.252268
0.0146456
0.253397
0.0173784
0.254442
0.0202809
0.25542
0.0234085
0.256345
0.0268209
0.257226
0.0305841
0.258073
0.0347717
0.25889
0.0394676
0.259683
0.0447675
0.260454
0.050783
0.261202
0.0576417
0.261928
0.0654905
0.262622
0.0745033
0.263277
0.0849059
0.263881
0.0969527
0.264414
0.11088
0.264844
0.127218
0.26516
0.145349
0.26528
0.169657
0.265262
0.187293
0.232831
0.195723
-0.0520012
0.195199
-0.0483211
0.196506
-0.0443052
0.199411
-0.0401566
0.203254
-0.035172
0.207616
-0.0294501
0.211898
-0.0236233
0.21582
-0.0184815
0.219431
-0.014299
0.222792
-0.0106638
0.225874
-0.00721007
0.228667
-0.00388333
0.231127
-0.000763749
0.233359
0.00213345
0.235373
0.00492328
0.237214
0.00763699
0.238925
0.0103183
0.240535
0.0130355
0.242065
0.0158487
0.243531
0.0188144
0.24495
0.0219895
0.246336
0.0254355
0.247699
0.0292204
0.249051
0.0334204
0.250397
0.038121
0.251744
0.0434207
0.253095
0.0494321
0.25445
0.0562869
0.255812
0.0641284
0.257172
0.0731429
0.25852
0.0835584
0.259841
0.0956314
0.261115
0.109606
0.262306
0.126028
0.2634
0.144255
0.264301
0.168757
0.265075
0.186518
0.232415
0.18338
-0.0478876
0.181103
-0.0460436
0.180537
-0.0437387
0.18163
-0.0412496
0.184284
-0.0378263
0.188207
-0.0333736
0.192679
-0.0280945
0.197007
-0.0228099
0.201058
-0.0183502
0.204912
-0.0145176
0.208537
-0.0108352
0.211859
-0.00720526
0.214871
-0.00377535
0.217561
-0.000556982
0.220088
0.00239619
0.222437
0.00528858
0.224642
0.00811271
0.226741
0.0109367
0.228764
0.0138253
0.230737
0.0168416
0.232679
0.0200473
0.234608
0.0235073
0.236535
0.0272927
0.238474
0.0314815
0.240433
0.0361618
0.24242
0.0414338
0.24444
0.0474125
0.246496
0.0542304
0.248594
0.0620312
0.250716
0.0710203
0.252855
0.0814195
0.254996
0.0934906
0.257121
0.107481
0.259193
0.123956
0.261198
0.14225
0.263015
0.16694
0.26473
0.184803
0.231041
0.263531
-0.039744
-0.271675
0.257165
-0.0396771
0.2519
-0.0384741
0.247266
-0.0366157
0.243497
-0.0340571
0.240967
-0.0308436
0.239635
-0.0267624
0.239027
-0.0222022
0.238732
-0.0180553
0.238682
-0.0144673
0.238899
-0.0110517
0.239343
-0.00764953
0.23993
-0.0043623
0.240626
-0.0012536
0.24126
0.0017628
0.241885
0.00466388
0.242484
0.00751323
0.243051
0.0103697
0.24358
0.0132966
0.244069
0.0163523
0.244522
0.0195946
0.244941
0.0230874
0.245333
0.026901
0.245701
0.0311133
0.246051
0.0358121
0.246387
0.0410978
0.246714
0.0470853
0.247039
0.0539059
0.247357
0.0617135
0.24767
0.0707064
0.247991
0.0810991
0.248318
0.0931633
0.248651
0.107148
0.24899
0.123617
0.249326
0.141914
0.249656
0.16661
0.249997
0.184462
0.230856
0.288797
-0.0328758
-0.295666
0.282867
-0.0337468
0.277734
-0.0333414
0.273201
-0.0320823
0.269183
-0.0300388
0.265942
-0.0276033
0.263887
-0.024707
0.262894
-0.0212094
0.262458
-0.017619
0.262297
-0.0143068
0.262366
-0.0111208
0.262659
-0.00794266
0.26311
-0.00481256
0.263622
-0.00176609
0.264221
0.00116412
0.264824
0.00406083
0.265412
0.00692489
0.265973
0.00980897
0.266504
0.0127658
0.267005
0.0158512
0.267477
0.0191224
0.267922
0.0226421
0.268344
0.0264795
0.268745
0.0307118
0.269131
0.0354262
0.269506
0.0407229
0.269875
0.0467162
0.270242
0.0535394
0.270604
0.061351
0.27097
0.0703404
0.271345
0.0807248
0.271728
0.0927794
0.272121
0.106755
0.272522
0.123216
0.272922
0.141514
0.273305
0.166227
0.273713
0.184053
0.230625
0.316623
-0.0262781
-0.323221
0.310641
-0.027764
0.305362
-0.028063
0.300797
-0.0275168
0.296951
-0.026193
0.293734
-0.0243863
0.291297
-0.0222698
0.289749
-0.0196612
0.288871
-0.0167415
0.288412
-0.0138473
0.288263
-0.0109726
0.288347
-0.00802666
0.288613
-0.00507771
0.289022
-0.00217517
0.289496
0.000689619
0.290024
0.00353302
0.290569
0.00637945
0.291113
0.00926577
0.291642
0.0122366
0.292152
0.0153411
0.292641
0.0186333
0.29311
0.0221734
0.29356
0.0260292
0.293995
0.0302766
0.294419
0.0350024
0.294836
0.0403061
0.29525
0.046302
0.295664
0.0531252
0.296081
0.0609339
0.296507
0.0699148
0.296943
0.0802883
0.297393
0.0923293
0.297856
0.106293
0.298328
0.122744
0.298805
0.141037
0.299255
0.165777
0.299741
0.183568
0.230345
0.345624
-0.0202191
-0.351683
0.340004
-0.0221436
0.335068
-0.0231271
0.330729
-0.0231777
0.326948
-0.0224125
0.323697
-0.0211349
0.321073
-0.0196454
0.319194
-0.0177827
0.317964
-0.0155113
0.317171
-0.0130546
0.316717
-0.0105182
0.316571
-0.0078803
0.316667
-0.00517395
0.316929
-0.00243717
0.317297
0.000321793
0.317734
0.00309533
0.318214
0.00590009
0.318715
0.0087648
0.319223
0.0117284
0.319729
0.0148352
0.320227
0.0181351
0.320715
0.0216854
0.321193
0.0255511
0.321663
0.0298068
0.322128
0.0345378
0.322591
0.039843
0.323056
0.0458369
0.323527
0.0526542
0.324007
0.0604533
0.324501
0.069421
0.325011
0.0797789
0.325539
0.0918012
0.326084
0.105747
0.326643
0.122185
0.32721
0.14047
0.327741
0.165246
0.328316
0.182993
0.230006
0.376472
-0.0152726
-0.381418
0.371624
-0.0172964
0.367062
-0.0185644
0.362907
-0.0190231
0.359246
-0.0187518
0.356081
-0.0179698
0.353419
-0.0169829
0.351329
-0.0156931
0.349795
-0.0139775
0.348726
-0.0119855
0.348038
-0.00983018
0.347662
-0.00750382
0.347526
-0.00503868
0.347584
-0.00249455
0.347801
0.000104201
0.348133
0.00276369
0.34854
0.00549318
0.348993
0.00831133
0.349474
0.0112476
0.34997
0.0143396
0.350472
0.0176329
0.350977
0.021181
0.351481
0.0250462
0.351987
0.029301
0.352496
0.0340293
0.35301
0.0393288
0.353533
0.0453135
0.35407
0.0521177
0.354623
0.0599001
0.355196
0.0688481
0.355792
0.0791833
0.356413
0.0911803
0.357057
0.105102
0.357718
0.121524
0.358394
0.139794
0.359023
0.164618
0.359705
0.18231
0.229596
0.409656
-0.0114282
-0.4135
0.405546
-0.0131866
0.401466
-0.0144843
0.397638
-0.0151957
0.394187
-0.0153002
0.391142
-0.0149252
0.388494
-0.0143343
0.386291
-0.0134907
0.384571
-0.0122569
0.383269
-0.0106837
0.382318
-0.00887938
0.38169
-0.00687584
0.381352
-0.0047008
0.38125
-0.00239188
0.381325
2.92708e-05
0.381535
0.00255358
0.381846
0.00518159
0.382232
0.00792566
0.38267
0.0108095
0.383144
0.0138654
0.383643
0.0171339
0.38416
0.0206644
0.38469
0.024516
0.385232
0.0287585
0.385788
0.0334737
0.386359
0.0387579
0.386948
0.0447243
0.387559
0.0515065
0.388196
0.0592631
0.388862
0.0681822
0.38956
0.0784857
0.390291
0.0904491
0.391054
0.104339
0.391838
0.12074
0.392645
0.138988
0.393391
0.163871
0.394205
0.181496
0.229101
0.445379
-0.00836786
-0.448439
0.441978
-0.00978542
0.43848
-0.0109871
0.43509
-0.0118049
0.431934
-0.0121446
0.429074
-0.0120653
0.426514
-0.0117739
0.424287
-0.0112638
0.422436
-0.0104063
0.42096
-0.00920798
0.419832
-0.00775057
0.419021
-0.00606529
0.41849
-0.00416963
0.418196
-0.00209815
0.418109
0.000116196
0.418189
0.00247404
0.418399
0.00497154
0.418709
0.00761536
0.419096
0.0104228
0.419541
0.0134205
0.42003
0.0166444
0.420555
0.0201397
0.421109
0.0239619
0.42169
0.0281779
0.422296
0.0328672
0.42293
0.0381241
0.423594
0.0440605
0.424291
0.0508093
0.425025
0.0585288
0.4258
0.0674072
0.426618
0.0776677
0.427481
0.0895868
0.428385
0.103435
0.429318
0.119807
0.430281
0.138025
0.431172
0.16298
0.432146
0.180522
0.228503
0.484042
-0.00595565
-0.486454
0.48133
-0.00707329
0.478449
-0.00810678
0.475547
-0.00890256
0.472746
-0.00934339
0.470126
-0.00944544
0.467712
-0.00935966
0.465538
-0.0090906
0.463658
-0.00852594
0.462091
-0.00764086
0.460825
-0.0064851
0.459849
-0.00508896
0.45915
-0.00347013
0.458701
-0.00164916
0.458467
0.000349633
0.458417
0.00252465
0.458518
0.00487018
0.458744
0.00738953
0.45907
0.0100961
0.459479
0.0130124
0.459953
0.0161701
0.460482
0.0196102
0.461059
0.0233849
0.46168
0.0275576
0.462342
0.0322052
0.463046
0.0374199
0.463795
0.0433118
0.464591
0.0500129
0.465439
0.0576807
0.466342
0.066504
0.467303
0.076707
0.468322
0.088568
0.469396
0.10236
0.470508
0.118695
0.47166
0.136873
0.472728
0.161912
0.473898
0.179352
0.227781
0.526238
-0.00409864
-0.528095
0.524095
-0.0049307
0.521757
-0.00576805
0.519327
-0.00647279
0.516908
-0.0069245
0.514579
-0.0071169
0.512375
-0.00715548
0.510331
-0.00704631
0.508496
-0.0066908
0.506904
-0.00604899
0.505567
-0.00514862
0.504489
-0.0040109
0.503664
-0.0026443
0.503075
-0.0010611
0.502708
0.000716635
0.502536
0.0026975
0.502532
0.00487406
0.502672
0.0072488
0.502936
0.00983267
0.503303
0.012645
0.503759
0.0157141
0.504292
0.0190777
0.504892
0.0227843
0.505556
0.0268942
0.506279
0.0314816
0.507063
0.036636
0.507909
0.0424658
0.508821
0.0491014
0.509802
0.0566996
0.510856
0.0654496
0.511987
0.0755766
0.513193
0.0873619
0.514471
0.101082
0.5158
0.117367
0.517183
0.13549
0.518467
0.160628
0.519878
0.177941
0.226907
0.572371
-0.00264465
-0.573825
0.570692
-0.00325155
0.568827
-0.00390334
0.566843
-0.00448877
0.564813
-0.00489431
0.562803
-0.00510651
0.560849
-0.0052015
0.558986
-0.00518338
0.557261
-0.0049657
0.555713
-0.00450149
0.554368
-0.00380326
0.553239
-0.00288162
0.552332
-0.00173763
0.551648
-0.000376659
0.551176
0.00118836
0.550899
0.00297411
0.550801
0.00497251
0.550862
0.00718765
0.551064
0.00963006
0.551392
0.0123176
0.55183
0.0152762
0.552367
0.0185409
0.552994
0.0221572
0.553705
0.0261826
0.554499
0.0306882
0.555374
0.035761
0.556332
0.0415072
0.557378
0.0480556
0.558516
0.055562
0.55975
0.0642158
0.561082
0.0742439
0.562513
0.0859308
0.564038
0.0995573
0.565631
0.115774
0.567296
0.133824
0.568848
0.159076
0.570559
0.17623
0.225843
0.622899
-0.00152564
-0.624018
0.621607
-0.00196024
0.620151
-0.00244692
0.618561
-0.00289917
0.616895
-0.0032279
0.615203
-0.00341493
0.613519
-0.00351737
0.611874
-0.00353799
0.610309
-0.00340106
0.608865
-0.00305718
0.60757
-0.00250872
0.606448
-0.00175886
0.605513
-0.000802643
0.60478
0.00035549
0.604237
0.001732
0.603883
0.00332771
0.60371
0.00514546
0.603706
0.00719183
0.603858
0.00947848
0.604152
0.0120231
0.604578
0.0148506
0.605124
0.0179941
0.605785
0.021497
0.606553
0.0254139
0.607428
0.0298134
0.608409
0.0347799
0.609499
0.0404171
0.610703
0.0468519
0.612026
0.0542394
0.613473
0.0627689
0.615048
0.0726689
0.61675
0.0842284
0.618575
0.0977328
0.62049
0.113859
0.622503
0.131811
0.624387
0.157192
0.626476
0.174141
0.224539
0.678308
-0.000682441
-0.679151
0.677328
-0.000979897
0.676209
-0.00132807
0.674963
-0.00165378
0.673628
-0.00189279
0.672244
-0.00203017
0.670835
-0.00210855
0.669428
-0.00213145
0.66806
-0.00203261
0.666766
-0.00176329
0.665576
-0.00131905
0.664511
-0.000694023
0.663595
0.000113458
0.662856
0.00109508
0.662288
0.00229999
0.661895
0.00372062
0.661677
0.00536318
0.661631
0.00723811
0.66175
0.00935973
0.662026
0.011747
0.662451
0.014425
0.663019
0.017426
0.663725
0.0207918
0.664564
0.0245749
0.665536
0.0288414
0.666642
0.0336732
0.667888
0.0391715
0.669278
0.0454614
0.670821
0.0526967
0.672523
0.0610667
0.67439
0.0708021
0.676421
0.0821971
0.678612
0.0955423
0.680924
0.111547
0.68337
0.129365
0.685669
0.154892
0.688237
0.171574
0.22293
0.739096
-6.89245e-05
-0.73971
0.738366
-0.00024987
0.737518
-0.00047972
0.736557
-0.000693169
0.73551
-0.000845937
0.734406
-0.000925575
0.733261
-0.000963969
0.732096
-0.000966455
0.730943
-0.000879304
0.729838
-0.000658288
0.728821
-0.0003024
0.7279
0.000227071
0.727074
0.00093922
0.726359
0.00181076
0.725792
0.00286647
0.72539
0.00412291
0.725158
0.00559497
0.725099
0.00729774
0.72521
0.0092482
0.72549
0.0114669
0.725936
0.0139794
0.726544
0.016818
0.727312
0.0200232
0.728241
0.023646
0.729333
0.0277502
0.73059
0.0324153
0.732022
0.0377402
0.733635
0.0438477
0.735442
0.0508904
0.737451
0.0590578
0.73967
0.0685825
0.742102
0.0797652
0.744742
0.0929023
0.747546
0.108743
0.750534
0.126377
0.753358
0.152068
0.756542
0.16839
0.220923
0.805944
0.000374412
-0.806387
0.805422
0.000272343
0.804804
0.000138354
0.804081
2.97053e-05
0.803278
-4.28539e-05
0.802418
-6.63486e-05
0.801505
-5.10601e-05
0.800548
-9.05546e-06
0.799589
7.97989e-05
0.798648
0.000282835
0.797735
0.000610895
0.796898
0.00106371
0.796179
0.00165819
0.795579
0.00241093
0.795107
0.00333794
0.794776
0.00445392
0.794597
0.00577439
0.794578
0.00731634
0.794727
0.00909899
0.795049
0.0111449
0.795548
0.0134811
0.796225
0.0161404
0.797085
0.0191631
0.798133
0.0225989
0.799373
0.0265098
0.800815
0.0309729
0.802471
0.0360846
0.804353
0.0419656
0.806477
0.0487669
0.808856
0.056678
0.811505
0.0659338
0.814428
0.0768423
0.817624
0.0897066
0.821042
0.105324
0.824715
0.122704
0.828209
0.148574
0.832197
0.164402
0.21839
0.878574
0.000687929
-0.878887
0.878207
0.000639103
0.877796
0.000549111
0.877346
0.000480204
0.876848
0.000455093
0.876301
0.000480962
0.87572
0.000529599
0.875121
0.000590134
0.874492
0.000708558
0.873849
0.000926243
0.873213
0.00124608
0.872607
0.00167026
0.872053
0.00221234
0.871575
0.0028889
0.871196
0.00371659
0.870937
0.00471282
0.870816
0.00589611
0.870846
0.00728602
0.871041
0.00890378
0.871413
0.0107734
0.871971
0.0129226
0.872727
0.0153847
0.87369
0.0181998
0.874872
0.0214168
0.876286
0.0250964
0.877945
0.0293139
0.879866
0.0341633
0.882069
0.0397629
0.884574
0.046262
0.887402
0.0538494
0.890574
0.0627621
0.8941
0.0733159
0.897986
0.0858205
0.902177
0.101133
0.906726
0.118156
0.911084
0.144216
0.916143
0.159343
0.215143
0.960208
0.000918374
-0.960439
0.959935
0.000912537
0.959595
0.000888672
0.959185
0.000890554
0.958718
0.000922172
0.95821
0.000988416
0.957667
0.00107272
0.957093
0.00116436
0.956503
0.0012989
0.955917
0.00151234
0.955354
0.00180869
0.954836
0.00218867
0.954382
0.00266622
0.954011
0.00325944
0.953742
0.00398544
0.953593
0.00486174
0.953582
0.00590713
0.953727
0.00714173
0.954043
0.00858755
0.954547
0.0102692
0.955255
0.0122151
0.956181
0.0144583
0.957342
0.0170384
0.958756
0.0200036
0.960439
0.0234127
0.962414
0.0273391
0.964703
0.031874
0.967333
0.037133
0.970333
0.0432623
0.973733
0.050449
0.977565
0.0589304
0.981852
0.0690292
0.986611
0.0810615
0.991787
0.0959567
0.99747
0.112473
1.00296
0.138724
1.00947
0.152832
0.21092
1.04536
0.000732575
-1.04518
1.04549
0.000782061
1.04558
0.000798818
1.04564
0.000836927
1.04565
0.000906455
1.04562
0.00101625
1.04555
0.00114153
1.04546
0.00126264
1.04534
0.00141736
1.04521
0.00164473
1.04507
0.0019451
1.04494
0.00231424
1.04485
0.00276344
1.0448
0.00330933
1.04481
0.00396768
1.04492
0.00475495
1.04514
0.00568933
1.04549
0.00679068
1.046
0.00808085
1.04668
0.00958434
1.04757
0.0113291
1.04868
0.0133477
1.05004
0.0156787
1.05167
0.0183684
1.05361
0.0214736
1.05589
0.0250644
1.05853
0.0292289
1.06159
0.0340784
1.06509
0.0397553
1.0691
0.0464428
1.07365
0.054377
1.0788
0.0638837
1.08458
0.0752824
1.09095
0.0895851
1.09807
0.10535
1.10502
0.131774
1.11354
0.144315
0.205221
1.14713
0.00106585
-1.14747
1.14681
0.00110796
1.14647
0.00113386
1.14612
0.0011934
1.14575
0.00127743
1.14538
0.00138003
1.14503
0.00149068
1.1447
0.00160062
1.14437
0.00174076
1.14407
0.00194405
1.14381
0.00221051
1.14359
0.00253422
1.14343
0.00292326
1.14334
0.00339199
1.14336
0.00395456
1.14349
0.00462592
1.14375
0.00542283
1.14418
0.00636386
1.14479
0.00746963
1.14561
0.00876339
1.14667
0.0102717
1.14799
0.0120254
1.14961
0.014061
1.15156
0.0164221
1.15387
0.0191621
1.15659
0.0223469
1.15975
0.0260592
1.16343
0.0304043
1.16767
0.0355176
1.17253
0.0415752
1.1781
0.0488084
1.18445
0.057539
1.19164
0.0680903
1.19968
0.0815432
1.20879
0.0962442
1.21799
0.122572
1.22925
0.133054
0.197597
1.24615
0.000580636
-1.24566
1.24662
0.000635373
1.24707
0.000682018
1.24751
0.000760525
1.24795
0.000837498
1.24838
0.00094184
1.24879
0.00108526
1.24916
0.00123165
1.24951
0.0013923
1.24985
0.00160316
1.25019
0.00186564
1.25056
0.00217035
1.25096
0.00252399
1.25141
0.00294073
1.25193
0.00343338
1.25254
0.00401462
1.25326
0.00469879
1.25413
0.00550197
1.25515
0.00644226
1.25638
0.00754028
1.25783
0.00881968
1.25955
0.010308
1.26157
0.012038
1.26394
0.0140486
1.26672
0.0163876
1.26995
0.0191142
1.27371
0.022303
1.27806
0.0260494
1.2831
0.0304782
1.28892
0.035751
1.29564
0.0420927
1.30338
0.0497974
1.31225
0.0592223
1.32235
0.0714422
1.334
0.0845954
1.34569
0.110883
1.36173
0.117011
0.185972
1.37029
0.000765086
-1.37048
1.37012
0.000807879
1.36995
0.000851843
1.36978
0.000936989
1.36958
0.0010327
1.36938
0.001146
1.36919
0.00126686
1.36906
0.00136385
1.36899
0.00146651
1.36897
0.00162181
1.36901
0.0018303
1.3691
0.00207604
1.36926
0.00235923
1.36952
0.00268913
1.36987
0.00307491
1.37036
0.00352645
1.37101
0.0040556
1.37183
0.00467589
1.37287
0.00540261
1.37416
0.0062532
1.37573
0.00724775
1.37763
0.00840964
1.3799
0.00976652
1.3826
0.0113516
1.38578
0.0132053
1.38952
0.0153781
1.39388
0.0179336
1.39898
0.0209537
1.40491
0.0245478
1.41181
0.0288548
1.41981
0.0340885
1.42912
0.0404871
1.43988
0.0484687
1.45237
0.0589485
1.4668
0.070166
1.48241
0.0952729
1.5018
0.0976194
0.171398
1.48971
0.000414067
-1.48936
1.49009
0.000425028
1.49051
0.000438603
1.49094
0.000501525
1.49143
0.000543263
1.492
0.000579137
1.49262
0.000648523
1.49325
0.000729761
1.49389
0.000827268
1.49454
0.000968382
1.49523
0.00114617
1.49596
0.00134186
1.49676
0.00155585
1.49765
0.00179892
1.49865
0.00208028
1.49977
0.00240772
1.50103
0.00278973
1.50247
0.00323588
1.50412
0.00375685
1.50601
0.00436493
1.50818
0.00507446
1.51069
0.00590222
1.51359
0.00686809
1.51694
0.00799602
1.52083
0.00931544
1.52535
0.010863
1.5306
0.012686
1.53671
0.0148436
1.54383
0.0174225
1.55217
0.0205118
1.56193
0.0243333
1.57352
0.0288976
1.58694
0.035051
1.60353
0.0423567
1.62231
0.0513864
1.64526
0.0723195
1.67605
0.0668312
0.140033
1.63347
-0.000112496
-1.63294
1.63407
-0.000171957
1.6347
-0.000196415
1.6354
-0.000201203
1.63614
-0.000192906
1.63677
-4.73469e-05
1.63722
0.000192583
1.63748
0.000472789
1.6376
0.000708344
1.63768
0.000883257
1.63782
0.00100898
1.63806
0.00110208
1.63843
0.00118566
1.63895
0.00127932
1.63964
0.00139373
1.64051
0.00153478
1.64159
0.00170731
1.64291
0.00191634
1.6445
0.00216743
1.6464
0.00246693
1.64865
0.00282234
1.65131
0.00324262
1.65444
0.0037385
1.65811
0.00432301
1.66242
0.00501235
1.66745
0.005827
1.67334
0.00679417
1.68024
0.00794589
1.68832
0.00933997
1.69783
0.0110073
1.70899
0.0131675
1.72231
0.0155823
1.73781
0.0195515
1.75715
0.0230159
1.77864
0.0298982
1.80715
0.0438124
1.83968
0.034292
0.103173
1.78549
-1.7856
1.78532
1.78512
1.78492
1.78473
1.78468
1.78487
1.78535
1.78606
1.78694
1.78795
1.78905
1.79024
1.79151
1.79291
1.79444
1.79615
1.79807
1.80023
1.8027
1.80552
1.80877
1.8125
1.81683
1.82184
1.82767
1.83446
1.84241
1.85175
1.86275
1.87592
1.8915
1.91106
1.93407
1.96397
2.00778
2.04207
0.271795
0.0232784
-0.268925
0.274445
0.0500662
0.276267
0.0770072
0.278007
0.101857
0.277908
0.127637
0.278297
0.148293
0.274562
0.17325
0.185881
0.291468
0.0212448
-0.289435
0.293944
0.0475902
0.295457
0.075495
0.297446
0.0998671
0.297335
0.127748
0.29826
0.147368
0.2971
0.17441
0.187316
0.313337
0.0199115
-0.312003
0.315684
0.0452433
0.31733
0.0738488
0.319372
0.0978248
0.32043
0.12669
0.322066
0.145733
0.323686
0.17279
0.187781
0.337735
0.0184944
-0.336318
0.339758
0.0432209
0.341647
0.0719593
0.343743
0.0957294
0.346102
0.124331
0.348089
0.143745
0.350762
0.170117
0.18686
0.364854
0.016935
-0.363294
0.366544
0.0415308
0.368634
0.0698694
0.370708
0.0936555
0.373635
0.121404
0.375765
0.141615
0.37899
0.166893
0.184431
0.394634
0.0154263
-0.393125
0.396038
0.0401274
0.398169
0.0677381
0.400269
0.0915557
0.403528
0.118144
0.406177
0.138966
0.410091
0.162978
0.181022
0.427263
0.0140884
-0.425925
0.428551
0.0388396
0.430746
0.0655425
0.433091
0.0892113
0.436751
0.114484
0.44009
0.135627
0.444364
0.158704
0.176947
0.463121
0.0129707
-0.462003
0.464448
0.0375129
0.466814
0.0631764
0.4695
0.0865256
0.473352
0.110632
0.477042
0.131937
0.481629
0.154117
0.172122
0.502595
0.0120005
-0.501625
0.504026
0.0360813
0.506498
0.060705
0.509395
0.0836281
0.513325
0.106702
0.517481
0.127781
0.522603
0.148995
0.16663
0.546013
0.0111428
-0.545155
0.547521
0.0345736
0.550075
0.0581506
0.553233
0.0804703
0.557414
0.102521
0.562118
0.123078
0.567748
0.143364
0.160553
0.593734
0.0103622
-0.592954
0.595341
0.0329666
0.598034
0.0554576
0.601503
0.077002
0.605996
0.0980271
0.611181
0.117893
0.617309
0.137237
0.153845
0.64619