/*--------------------------------*- C++ -*----------------------------------*\
| =========                 |                                                 |
| \\      /  F ield         | OpenFOAM: The Open Source CFD Toolbox           |
|  \\    /   O peration     | Version:  2512                                  |
|   \\  /    A nd           | Website:  www.openfoam.com                      |
|    \\/     M anipulation  |                                                 |
\*---------------------------------------------------------------------------*/
FoamFile
{
    version     2.0;
    format      ascii;
    arch        "LSB;label=32;scalar=64";
    class       surfaceScalarField;
    location    "158.55";
    object      phi;
}
// * * * * * * * * * * * * * * * * * * * * * * * * * * * * * * * * * * * * * //

dimensions      [0 3 -1 0 0 0 0];

oriented        oriented;

internalField   nonuniform List<scalar> 
26232
(
-0.000511363
0.00110334
-0.000591978
-0.00138993
0.00224765
-0.00136908
-0.00211111
0.0026275
-0.00190632
-0.00221376
0.00219923
-0.00209658
-0.00126395
0.000798016
-0.00174782
0.00115386
-0.00178086
-0.000636947
0.00544049
-0.00572328
0.00143665
0.011926
-0.0111247
0.00463921
0.0207851
-0.0179282
0.0090691
0.0319756
-0.0258992
0.0147087
0.0452084
-0.0346556
0.0214227
0.0599702
-0.0437347
0.028973
0.0755878
-0.0526728
0.0370551
0.0913166
-0.0610714
0.0453426
0.106434
-0.0686406
0.0535228
0.120321
-0.0752218
0.0613354
0.132545
-0.0807853
0.0685616
0.142859
-0.0854299
0.0751158
0.151376
-0.0893316
0.0808145
0.158213
-0.0928099
0.085973
0.164097
-0.095962
0.0900774
0.169156
-0.0995297
0.0944708
0.173851
-0.102425
0.0977306
-0.106924
0.1025
0.178275
-0.000274113
0.00137745
-0.000614662
0.0025882
-0.000527212
0.00254005
0.000481326
0.0011907
0.00290009
-0.00162075
0.00719022
-0.00607099
0.0137206
-0.0122536
0.0226616
-0.0200657
0.0338905
-0.0291571
0.0469667
-0.0389754
0.0611913
-0.0488802
0.0757297
-0.0582731
0.0897539
-0.066697
0.102573
-0.0738907
0.11373
-0.0797975
0.123052
-0.084544
0.130651
-0.0883841
0.136872
-0.0916512
0.142189
-0.0946478
0.147042
-0.0976633
0.151841
-0.100761
0.156458
-0.104147
0.161377
-0.107345
-0.111359
0.165812
-7.02636e-05
0.00144772
0.000121637
0.0023963
0.00106642
0.00159527
0.00329597
-0.00103885
0.00733716
-0.00566194
0.0136248
-0.0123586
0.022355
-0.0209838
0.0333491
-0.0310597
0.0460258
-0.0418339
0.0595128
-0.0524624
0.0728436
-0.062211
0.0851632
-0.0705927
0.0958846
-0.0774185
0.104768
-0.0827745
0.111918
-0.0869475
0.117697
-0.0903226
0.122593
-0.0932799
0.127061
-0.0961191
0.131417
-0.0990042
0.135791
-0.102037
0.140147
-0.105118
0.14444
-0.10844
0.148627
-0.111531
-0.115286
0.152553
8.38198e-05
0.0013639
0.000773227
0.00170689
0.0026003
-0.000231802
0.00614651
-0.00458507
0.0119203
-0.0114357
0.0201833
-0.0206216
0.0307403
-0.0315409
0.0428933
-0.0432127
0.0556114
-0.054552
0.067822
-0.064673
0.0786812
-0.0730703
0.0877389
-0.0796504
0.0949692
-0.0846487
0.100682
-0.0884876
0.10536
-0.0916252
0.109477
-0.0944398
0.113377
-0.0971794
0.11722
-0.0999617
0.12105
-0.102835
0.124811
-0.105798
0.128547
-0.108853
0.132177
-0.11207
0.135865
-0.115218
-0.118956
0.139534
0.000216441
0.00114746
0.00141039
0.000512936
0.00419659
-0.00301799
0.00916092
-0.0095494
0.0166714
-0.0189461
0.0265786
-0.0305289
0.0381116
-0.0430739
0.0500975
-0.0551985
0.0613626
-0.0658171
0.071076
-0.0743863
0.0789063
-0.0809006
0.0849848
-0.085729
0.0897339
-0.0893978
0.0936527
-0.0924063
0.0971489
-0.0951215
0.100471
-0.0977619
0.103724
-0.100433
0.106946
-0.103184
0.110144
-0.106033
0.113347
-0.109001
0.116574
-0.11208
0.1198
-0.115296
0.123111
-0.118529
-0.122132
0.126287
0.000371667
0.00077579
0.0021411
-0.00125649
0.00598282
-0.00685972
0.0124011
-0.0159677
0.0213848
-0.0279299
0.0321722
-0.0413163
0.0434735
-0.0543752
0.0539967
-0.0657217
0.0628851
-0.0747056
0.0698711
-0.0813723
0.0751716
-0.0862011
0.0792518
-0.0898091
0.0825926
-0.0927386
0.0855528
-0.0953666
0.0883438
-0.0979125
0.091069
-0.100487
0.09378
-0.103144
0.0965001
-0.105904
0.0992439
-0.108777
0.102001
-0.111758
0.104765
-0.114844
0.107509
-0.11804
0.11027
-0.12129
-0.124815
0.112952
0.000575614
0.000200176
0.00301325
-0.00369413
0.00797352
-0.01182
0.0156812
-0.0236754
0.0255217
-0.0377703
0.0361463
-0.0519409
0.0461121
-0.064341
0.0544632
-0.0740728
0.060915
-0.0811574
0.0657029
-0.0861602
0.0692989
-0.0897972
0.0721706
-0.0926808
0.074661
-0.095229
0.0769776
-0.0976832
0.0792296
-0.100165
0.0814694
-0.102727
0.0837144
-0.105389
0.0859663
-0.108156
0.0882171
-0.111028
0.0904652
-0.114006
0.0927167
-0.117095
0.094967
-0.12029
0.0972543
-0.123578
-0.127049
0.0994886
0.000831161
-0.000630984
0.00400471
-0.00686768
0.010022
-0.0178373
0.0185948
-0.0322481
0.0284503
-0.0476258
0.0379772
-0.0614678
0.0460228
-0.0723866
0.0521873
-0.0802373
0.0566623
-0.0856324
0.0599097
-0.0894076
0.0623994
-0.0922869
0.0644835
-0.0947648
0.0663786
-0.0971242
0.0681985
-0.0995031
0.069993
-0.101959
0.0717778
-0.104512
0.0735569
-0.107168
0.0753315
-0.10993
0.0771065
-0.112803
0.0788863
-0.115786
0.0806688
-0.118878
0.0824494
-0.122071
0.0842332
-0.125361
-0.128772
0.0859562
0.00112462
-0.0017556
0.00503518
-0.0107782
0.0118784
-0.0246806
0.0206997
-0.0410694
0.0297837
-0.0567098
0.0376831
-0.0693672
0.0437626
-0.078466
0.048097
-0.0845717
0.0511178
-0.0886532
0.0533077
-0.0915976
0.0550429
-0.094022
0.0565579
-0.0962798
0.0579747
-0.098541
0.0593467
-0.100875
0.0606939
-0.103306
0.0620244
-0.105842
0.0633429
-0.108486
0.0646528
-0.11124
0.065955
-0.114105
0.0672485
-0.11708
0.0685333
-0.120163
0.0698108
-0.123349
0.0710853
-0.126636
-0.13002
0.0723329
0.00143306
-0.00318866
0.00599214
-0.0153373
0.0132776
-0.031966
0.0217113
-0.0495031
0.0295125
-0.0645111
0.0356668
-0.0755215
0.0400252
-0.0828244
0.042945
-0.0874915
0.0449185
-0.0906268
0.0463574
-0.0930365
0.0475266
-0.0951913
0.0485664
-0.0973196
0.04954
-0.0995147
0.0504735
-0.101809
0.0513777
-0.10421
0.0522576
-0.106722
0.053116
-0.109345
0.0539552
-0.112079
0.0547783
-0.114928
0.0555881
-0.11789
0.0563855
-0.12096
0.0571697
-0.124133
0.0579374
-0.127404
-0.130756
0.0586735
0.0017276
-0.00491626
0.00675627
-0.020366
0.0140288
-0.0392386
0.0215842
-0.0570584
0.027898
-0.0708248
0.0324375
-0.0800611
0.035396
-0.0857829
0.0372489
-0.0893444
0.0384495
-0.0918274
0.0393089
-0.0938959
0.0399984
-0.0958807
0.0405975
-0.0979187
0.0411393
-0.100056
0.041637
-0.102306
0.0420962
-0.10467
0.0425209
-0.107147
0.0429148
-0.109739
0.0432821
-0.112447
0.0436262
-0.115272
0.0439482
-0.118212
0.0442483
-0.12126
0.0445253
-0.12441
0.0447746
-0.127653
-0.130981
0.0449998
0.00198122
-0.00689749
0.00723311
-0.0256179
0.0140695
-0.046075
0.0204655
-0.0634544
0.025305
-0.0756643
0.0284566
-0.0832127
0.0303074
-0.0876337
0.0313425
-0.0903795
0.0319336
-0.0924184
0.032299
-0.0942613
0.032544
-0.0961257
0.0327123
-0.098087
0.0328212
-0.100165
0.0328781
-0.102363
0.0328878
-0.104679
0.0328542
-0.107113
0.0327808
-0.109665
0.0326709
-0.112337
0.0325274
-0.115128
0.0323533
-0.118038
0.0321513
-0.121058
0.0319209
-0.12418
0.0316579
-0.12739
0.0313678
-0.130691
-0.000412561
-0.00797548
0.00838804
-0.00166164
-0.0157808
0.0170299
-0.00359665
-0.0187474
0.0206824
-0.00604277
-0.0191069
0.021553
-0.00886048
-0.0183167
0.0211344
-0.0119453
-0.0170747
0.0201595
-0.0152141
-0.0155388
0.0188076
-0.0185951
-0.0136103
0.0169914
-0.0220215
-0.0111287
0.014555
-0.0254295
-0.0079467
0.0113547
-0.0287694
-0.00393389
0.00727384
-0.0318615
0.000894665
0.00219746
-0.0347757
0.0065716
-0.00365743
-0.0374225
0.0131595
-0.0105126
-0.0397194
0.0205842
-0.0182873
-0.0415877
0.0287422
-0.0268738
-0.0429412
0.0374793
-0.0361258
-0.0436874
0.0465848
-0.0458386
-0.0437294
0.0557892
-0.0557473
-0.0429554
0.0647694
-0.0655434
-0.0412192
0.0731638
-0.0749
-0.0383132
0.0805793
-0.0834853
-0.0338981
0.0865811
-0.0909961
0.0908338
-0.0275968
-0.0971351
-0.000680129
-0.00729535
-0.00232133
-0.0141396
-0.00463526
-0.0164334
-0.00744617
-0.016296
-0.0106557
-0.0151072
-0.0141926
-0.0135378
-0.0179845
-0.0117469
-0.0219519
-0.00964288
-0.0260102
-0.00707038
-0.0300722
-0.00388472
-0.0340093
3.21398e-06
-0.037681
0.00456641
-0.0410528
0.00994334
-0.0439784
0.0160851
-0.0463211
0.0229269
-0.0479328
0.0303538
-0.0486483
0.0381948
-0.0482814
0.0462179
-0.0466237
0.0541315
-0.0434378
0.0615835
-0.0384424
0.0681684
-0.031363
0.0734999
-0.0218855
0.0771035
0.078599
-0.00965069
-0.000828339
-0.00646701
-0.00263916
-0.0123288
-0.00506128
-0.0140113
-0.00792422
-0.013433
-0.0111631
-0.0118683
-0.0147323
-0.00996867
-0.0185637
-0.00791546
-0.0225654
-0.00564123
-0.0266331
-0.0030027
-0.030622
0.000104219
-0.0343778
0.00375903
-0.0378176
0.00800619
-0.0407408
0.0128665
-0.0429654
0.0183098
-0.0442955
0.024257
-0.0445191
0.0305774
-0.0434089
0.0370847
-0.0407249
0.0435339
-0.0362111
0.0496177
-0.0296282
0.0550006
-0.0207267
0.059267
-0.00925362
0.0620268
0.00478482
0.0630651
0.0612847
0.0220991
-0.000865372
-0.00560164
-0.00265753
-0.0105367
-0.0049635
-0.0117054
-0.0076126
-0.0107839
-0.0105573
-0.00892356
-0.0137684
-0.00675761
-0.0171789
-0.00450492
-0.0206839
-0.0021363
-0.0241457
0.000459161
-0.0274165
0.00337502
-0.0303334
0.00667585
-0.0327168
0.0103896
-0.0343603
0.0145101
-0.0350411
0.0189905
-0.0345233
0.0237392
-0.0325614
0.0286155
-0.0289042
0.0334275
-0.023311
0.0379407
-0.0155594
0.0418661
-0.00543078
0.0448719
0.0071157
0.0467205
0.0224207
0.0467218
0.039846
0.0456398
0.040618
0.0605127
-0.000827243
-0.0047744
-0.00248613
-0.00887776
-0.00454494
-0.00964655
-0.00681841
-0.00851044
-0.00925552
-0.00648646
-0.0118324
-0.00418075
-0.0144833
-0.00185403
-0.0171057
0.000486104
-0.0195422
0.00289566
-0.0216223
0.00545516
-0.0231615
0.00821501
-0.023959
0.0111871
-0.0237961
0.0143473
-0.0224413
0.0176357
-0.0196554
0.0209532
-0.0151955
0.0241556
-0.00884928
0.0270813
-0.000404235
0.0294957
0.0102478
0.0312141
0.0233457
0.031774
0.0385705
0.0314957
0.0564572
0.0288351
0.0757964
0.0263006
0.0187222
0.0976922
-0.00076291
-0.00401149
-0.00226382
-0.00737685
-0.0040584
-0.00785197
-0.00593086
-0.00663799
-0.00780464
-0.00461267
-0.0096463
-0.0023391
-0.0114001
-0.000100271
-0.012969
0.00205505
-0.0141908
0.00411747
-0.0148883
0.00615265
-0.0148681
0.00819476
-0.013927
0.010246
-0.0118545
0.0122748
-0.00843679
0.0142179
-0.00347092
0.0159874
0.00322033
0.0174644
0.0118124
0.0184892
0.0224371
0.018871
0.0350572
0.018594
0.0498928
0.0169384
0.066307
0.0150815
0.0850381
0.010104
0.104513
0.00682598
-0.00287643
0.126111
-0.000718825
-0.00329266
-0.00211801
-0.00597767
-0.00373529
-0.00623469
-0.00531409
-0.00505918
-0.00673668
-0.00319008
-0.00794837
-0.00112741
-0.00890646
0.000857815
-0.00949753
0.00264612
-0.00959795
0.0042179
-0.00904091
0.00559561
-0.00764475
0.00679859
-0.00522247
0.00782375
-0.00159394
0.00864627
0.00341084
0.00921313
0.00995396
0.00944426
0.0181662
0.00925209
0.0281412
0.0085142
0.0399107
0.00710146
0.0534863
0.00501845
0.0689007
0.00152393
0.0858116
-0.00182937
0.104773
-0.00885741
0.124551
-0.0129524
-0.0249539
0.146629
-0.00072417
-0.00256849
-0.00212381
-0.00457803
-0.00370958
-0.00464892
-0.00518513
-0.00358362
-0.0063908
-0.00198441
-0.00724503
-0.000273177
-0.00768013
0.00129291
-0.00761471
0.0025807
-0.00693818
0.00354137
-0.00551008
0.00416751
-0.00317166
0.00446018
0.000246026
0.00440607
0.00490815
0.00398414
0.0109779
0.00314343
0.0186005
0.00182165
0.0279036
-5.10577e-05
0.039022
-0.00260421
0.0519882
-0.00586472
0.0670132
-0.0100066
0.0838105
-0.0152734
0.102865
-0.0208837
0.12349
-0.029483
0.146022
-0.0354834
-0.0490157
0.170083
-0.000776614
-0.00179188
-0.00226564
-0.003089
-0.00394593
-0.00296863
-0.0054899
-0.00203966
-0.00670391
-0.000770403
-0.00746831
0.000491229
-0.00769697
0.00152157
-0.00729783
0.00218156
-0.00615214
0.00239568
-0.0041064
0.00212177
-0.000979119
0.0013329
0.00342624
7.0262e-07
0.00933302
-0.00192263
0.0169499
-0.00447347
0.0264633
-0.00769177
0.0380463
-0.011634
0.0517613
-0.0163192
0.0676739
-0.0217774
0.0857827
-0.0281153
0.105635
-0.0351259
0.127737
-0.0429852
0.150139
-0.0518858
0.174625
-0.0599688
-0.0719237
0.197533
-0.000834861
-0.000957018
-0.00241915
-0.00150472
-0.00420533
-0.00118245
-0.00584156
-0.000403423
-0.00709283
0.000480865
-0.00779792
0.00119632
-0.00780973
0.00153338
-0.00696776
0.00133959
-0.0050799
0.000507816
-0.00190375
-0.00105438
0.00279826
-0.00336911
0.00929487
-0.0064959
0.0178065
-0.0104342
0.0284955
-0.0151625
0.0414281
-0.0206244
0.0565834
-0.0267893
0.0737613
-0.0334971
0.0927887
-0.0408047
0.113098
-0.0484248
0.134349
-0.0563766
0.155944
-0.0645805
0.176495
-0.0724368
0.196939
-0.0804129
-0.0879682
0.212984
-0.000831696
-0.000125323
-0.00238876
5.23422e-05
-0.00411437
0.000543159
-0.00562336
0.00110557
-0.0066302
0.0014877
-0.00688726
0.00145339
-0.00614722
0.000793336
-0.00413098
-0.00067664
-0.000574037
-0.00304913
0.00480695
-0.00643537
0.0122797
-0.0108419
0.0219954
-0.0162117
0.0339877
-0.0224265
0.0481474
-0.0293222
0.0642218
-0.0366988
0.0818134
-0.044381
0.100423
-0.0521071
0.119471
-0.059852
0.138206
-0.0671602
0.156208
-0.0743784
0.172356
-0.0807287
0.186741
-0.0868214
0.19856
-0.0922318
-0.0963246
0.206916
-0.000717301
-0.00203404
-0.0033972
-0.00438821
-0.00464833
-0.0038319
-0.00160191
0.00236067
0.00838064
0.016654
0.0272349
0.0399962
0.0546249
0.0706453
0.0874694
0.104424
0.120878
0.136142
0.149797
0.161391
0.17074
0.178389
0.183888
0.190064
-0.014929
0.124735
-0.137402
0.00186843
0.121059
-0.137857
0.022371
0.109314
-0.129816
0.0455151
0.0891675
-0.112312
0.0690413
0.0620053
-0.0855315
0.0901329
0.0305279
-0.0516195
0.107408
-0.00501074
-0.0122645
0.12167
-0.0472516
0.0329898
0.133776
-0.0942036
0.0820977
0.142995
-0.136067
0.126848
0.148511
-0.163847
0.158331
0.150521
-0.175785
0.173776
0.149657
-0.177088
0.177952
0.147193
-0.174845
0.177309
0.144482
-0.171671
0.174382
0.140959
-0.169591
0.173114
0.134902
-0.175289
0.181346
0.126503
-0.190104
0.198503
0.118999
-0.198037
0.205541
0.115874
-0.17359
0.176715
0.118378
-0.106405
0.103902
0.126033
-0.0116958
0.00404109
0.136192
0.0818407
-0.0919998
0.145826
0.152438
-0.162073
0.152936
0.194843
-0.201953
0.158154
0.211296
-0.216514
0.161317
0.212647
-0.21581
0.160841
0.221344
-0.220868
0.155995
0.247576
-0.24273
0.147511
0.270603
-0.262119
0.137443
0.257992
-0.247923
0.129176
0.191556
-0.183289
0.126047
0.0789665
-0.0758379
0.128403
-0.0478761
0.0455203
0.134343
-0.153811
0.147871
0.140943
-0.219387
0.212787
0.143073
-0.249326
0.247196
0.137445
-0.264521
0.27015
0.1264
-0.275081
0.286126
0.115676
-0.257216
0.26794
0.110771
-0.187046
0.191951
0.114379
-0.0712175
0.0676097
0.122829
0.0541239
-0.0625738
0.128417
0.155594
-0.161182
0.127343
0.242234
-0.241161
0.122943
0.295545
-0.291145
0.119685
0.297395
-0.294136
0.119014
0.224656
-0.223986
0.120751
0.0832505
-0.0849871
0.121341
-0.0663328
0.0657429
0.118905
-0.2273
0.229736
0.116552
-0.311441
0.313795
0.115296
-0.305767
0.307023
0.1139
-0.192413
0.193809
0.110802
0.0546344
-0.0515368
0.108097
0.220977
-0.218273
0.105977
0.352686
-0.350566
0.101451
0.293459
-0.288933
0.0946219
-0.0563445
0.0631734
-0.130049
0.132667
0.00945618
0.105628
0.0308206
0.0996951
0.0536659
0.0864683
0.0768484
0.065985
0.0984962
0.0403575
0.116578
0.0124464
0.130565
-0.0189984
0.14165
-0.0583358
0.150181
-0.102735
0.155152
-0.141038
0.156046
-0.164742
0.153838
-0.173577
0.149638
-0.172888
0.144426
-0.169633
0.139442
-0.166687
0.134087
-0.164236
0.126099
-0.167301
0.115365
-0.17937
0.10566
-0.188332
0.101727
-0.169657
0.105283
-0.109961
0.115711
-0.022124
0.12926
0.0682923
0.141945
0.139752
0.15199
0.184799
0.159878
0.203409
0.165394
0.207131
0.167548
0.21919
0.165627
0.249497
0.159423
0.276807
0.150155
0.26726
0.141069
0.200642
0.135526
0.0845093
0.134615
-0.0469653
0.136935
-0.156132
0.140709
-0.223161
0.141378
-0.249995
0.134871
-0.258013
0.123111
-0.263322
0.112702
-0.246806
0.109178
-0.183522
0.114278
-0.0763178
0.123462
0.0449396
0.129397
0.14966
0.129026
0.242605
0.125022
0.299549
0.121588
0.300829
0.120372
0.225872
0.121766
0.0818566
0.12198
-0.0665474
0.118547
-0.223867
0.115616
-0.30851
0.114079
-0.304231
0.113683
-0.192016
0.111592
0.0567255
0.109754
0.222815
0.108625
0.353816
0.102706
0.299378
0.0945723
-0.0482107
-0.127835
0.0430712
0.0846557
0.0649765
0.0777898
0.0867292
0.0647156
0.107227
0.0454877
0.125147
0.0224365
0.139505
-0.0019108
0.150442
-0.0299355
0.158848
-0.0667421
0.164292
-0.108179
0.16545
-0.142196
0.162183
-0.161475
0.156289
-0.167683
0.149421
-0.166021
0.142064
-0.162275
0.135145
-0.159769
0.128574
-0.157664
0.11962
-0.158347
0.10714
-0.166891
0.0951847
-0.176377
0.0899486
-0.164421
0.0942391
-0.114252
0.106459
-0.0343436
0.12259
0.0521612
0.138009
0.124333
0.150887
0.171921
0.161396
0.1929
0.169415
0.199111
0.174505
0.2141
0.175871
0.248131
0.172345
0.280333
0.164151
0.275454
0.154203
0.21059
0.146045
0.0926675
0.141728
-0.0426481
0.140335
-0.154738
0.141042
-0.223868
0.140362
-0.249315
0.133419
-0.25107
0.121093
-0.250996
0.110652
-0.236365
0.108164
-0.181035
0.114496
-0.0826497
0.124432
0.0350036
0.130985
0.143107
0.131486
0.242104
0.12781
0.303226
0.123987
0.304651
0.122094
0.227765
0.123158
0.0807931
0.123169
-0.066559
0.118803
-0.219501
0.115164
-0.304871
0.113313
-0.30238
0.11391
-0.192613
0.112938
0.0576978
0.111968
0.223785
0.111801
0.353982
0.104767
0.306411
0.0953951
-0.0388387
-0.125741
0.0801819
0.0649865
0.0998989
0.0580727
0.118462
0.0461524
0.134885
0.0290644
0.148296
0.00902578
0.158929
-0.0125438
0.167605
-0.0386111
0.174213
-0.0733499
0.176665
-0.110631
0.17378
-0.139312
0.16661
-0.154304
0.157521
-0.158594
0.148529
-0.157029
0.139854
-0.1536
0.131538
-0.151453
0.123968
-0.150094
0.114984
-0.149364
0.102121
-0.154028
0.0883845
-0.16264
0.0811531
-0.15719
0.0848842
-0.117983
0.0979608
-0.0474201
0.115882
0.0342402
0.133599
0.106616
0.149086
0.156434
0.162112
0.179873
0.172672
0.18855
0.180914
0.205858
0.185949
0.243096
0.18555
0.280733
0.178778
0.282226
0.168006
0.221362
0.15726
0.103413
0.149621
-0.0350082
0.144626
-0.149744
0.142004
-0.221247
0.139803
-0.247114
0.132828
-0.244094
0.120245
-0.238413
0.109478
-0.225599
0.107481
-0.179037
0.114813
-0.0899822
0.125644
0.0241733
0.133102
0.135648
0.134594
0.240613
0.1312
0.306619
0.126858
0.308993
0.124172
0.230451
0.1249
0.0800645
0.12488
-0.0665381
0.119682
-0.214303
0.115221
-0.30041
0.112978
-0.300137
0.114547
-0.194182
0.114789
0.0574555
0.114661
0.223914
0.115472
0.353171
0.107612
0.314272
0.0970733
-0.0283003
-0.123587
0.114672
0.0480068
0.130959
0.0417856
0.145552
0.0315595
0.157649
0.0169671
0.167259
-0.000584038
0.175053
-0.0203378
0.182099
-0.0456573
0.186754
-0.0780047
0.185987
-0.109864
0.179257
-0.132583
0.168879
-0.143926
0.157515
-0.147229
0.147036
-0.146551
0.137676
-0.144239
0.128799
-0.142577
0.120616
-0.141911
0.111903
-0.14065
0.099659
-0.141784
0.0849872
-0.147969
0.0753796
-0.147582
0.077385
-0.119988
0.0901939
-0.060229
0.109112
0.0153226
0.128585
0.087143
0.146231
0.138788
0.161405
0.1647
0.174398
0.175557
0.185831
0.194424
0.194701
0.234227
0.198034
0.2774
0.193669
0.28659
0.182501
0.232529
0.168997
0.116918
0.157999
-0.0240111
0.149565
-0.141309
0.143537
-0.215219
0.139601
-0.243178
0.132892
-0.237385
0.120441
-0.225963
0.109108
-0.214266
0.107002
-0.176931
0.115034
-0.0980142
0.126894
0.012313
0.135611
0.126931
0.13838
0.237844
0.135309
0.30969
0.130308
0.313995
0.126663
0.234096
0.126977
0.0797506
0.127074
-0.0666352
0.12116
-0.208389
0.115789
-0.295039
0.113041
-0.297389
0.115554
-0.196696
0.117078
0.0559318
0.117752
0.22324
0.119584
0.351338
0.111198
0.322659
0.0995827
-0.0166852
-0.121225
0.140285
0.0338328
0.153424
0.0286465
0.164969
0.0200149
0.174247
0.00768942
0.181996
-0.00833351
0.188689
-0.0270303
0.194461
-0.05143
0.196369
-0.0799127
0.19186
-0.105355
0.181745
-0.122468
0.16914
-0.131321
0.156552
-0.13464
0.145271
-0.13527
0.135567
-0.134534
0.126538
-0.133549
0.11806
-0.133432
0.109939
-0.13253
0.0992388
-0.131083
0.0848141
-0.133544
0.07282
-0.135588
0.071816
-0.118984
0.0831281
-0.0715411
0.102203
-0.00375213
0.122808
0.0665375
0.142102
0.119494
0.159039
0.147762
0.174141
0.160456
0.188516
0.180049
0.201267
0.221475
0.208494
0.270173
0.206871
0.288213
0.196548
0.242852
0.180921
0.132545
0.166593
-0.00968315
0.154898
-0.129614
0.14554
-0.205861
0.139556
-0.237194
0.133241
-0.23107
0.12143
-0.214151
0.109459
-0.202295
0.106603
-0.174075
0.114956
-0.106367
0.127995
-0.000725957
0.13829
0.116636
0.142548
0.233585
0.139936
0.312303
0.134332
0.319599
0.129622
0.238806
0.129382
0.0799897
0.129702
-0.0669547
0.123198
-0.201885
0.116852
-0.288693
0.11347
-0.294007
0.116864
-0.20009
0.119717
0.0530783
0.121141
0.221816
0.124056
0.348424
0.115462
0.331252
0.102889
-0.0041121
-0.118544
0.158446
0.0220158
0.169619
0.017473
0.17967
0.00996414
0.188279
-0.000919491
0.195297
-0.0153513
0.201249
-0.0329826
0.204642
-0.0548225
0.202517
-0.0777881
0.193947
-0.0967853
0.181132
-0.109652
0.167273
-0.117462
0.154353
-0.12172
0.142952
-0.123869
0.133269
-0.124851
0.12456
-0.12484
0.116038
-0.12491
0.10818
-0.124672
0.0994655
-0.122369
0.0869214
-0.121
0.0735962
-0.122263
0.0687285
-0.114117
0.077224
-0.0800366
0.0949985
-0.0215267
0.116307
0.0452288
0.136706
0.099096
0.154877
0.129591
0.171613
0.14372
0.188551
0.163111
0.204903
0.205124
0.216286
0.25879
0.218271
0.286229
0.209493
0.25163
0.192782
0.149257
0.175155
0.00794381
0.160224
-0.114683
0.14786
-0.193497
0.139584
-0.228918
0.133555
-0.22504
0.122897
-0.203494
0.110457
-0.189856
0.106275
-0.169892
0.114432
-0.114525
0.128697
-0.0149909
0.140916
0.104417
0.147111
0.22739
0.145283
0.314131
0.139106
0.325776
0.133168
0.244744
0.132121
0.0810364
0.132702
-0.0675348
0.125732
-0.194915
0.118372
-0.281334
0.114227
-0.289861
0.118397
-0.20426
0.122623
0.0488531
0.12474
0.219698
0.128793
0.344371
0.120318
0.339728
0.106941
0.00926448
-0.115464
0.179161
0.0129387
0.188305
0.00832851
0.196421
0.00184833
0.20364
-0.008139
0.208717
-0.0204281
0.211647
-0.0359125
0.210431
-0.0536063
0.203399
-0.0707565
0.191525
-0.0849112
0.177522
-0.0956488
0.163669
-0.103609
0.151149
-0.109201
0.140118
-0.112838
0.130579
-0.115313
0.122306
-0.116566
0.114273
-0.116877
0.106569
-0.116968
0.0993242
-0.115124
0.0897176
-0.111393
0.0771181
-0.109663
0.0687505
-0.105749
0.072744
-0.08403
0.0881464
-0.0369291
0.109199
0.024176
0.130096
0.0781995
0.148936
0.110751
0.166767
0.125888
0.185676
0.144202
0.205129
0.18567
0.220364
0.243555
0.225687
0.280906
0.218797
0.25852
0.202157
0.165897
0.182324
0.0277768
0.165021
-0.0973809
0.150224
-0.178699
0.139587
-0.218281
0.133545
-0.218999
0.12446
-0.194409
0.111985
-0.177381
0.106081
-0.163987
0.113393
-0.121837
0.128787
-0.0303847
0.143142
0.0900619
0.151539
0.218994
0.150944
0.314725
0.144558
0.332162
0.137352
0.25195
0.13523
0.0831576
0.135999
-0.0683032
0.128688
-0.187604
0.120303
-0.272949
0.115278
-0.284836
0.120074
-0.209057
0.125697
0.0432304
0.128444
0.216951
0.133674
0.339141
0.12566
0.347742
0.111669
0.0232557
-0.11195
0.202857
0.00761408
0.20828
0.0029063
0.213146
-0.0030179
0.216115
-0.0111079
0.217043
-0.0213565
0.214985
-0.0338544
0.208688
-0.0473089
0.19819
-0.0602593
0.185239
-0.0719594
0.171782
-0.0821918
0.158887
-0.0907136
0.147141
-0.0974555
0.136746
-0.102443
0.127548
-0.106114
0.119563
-0.108581
0.112175
-0.109489
0.104826
-0.109619
0.0983027
-0.108601
0.0914949
-0.104586
0.0816716
-0.09984
0.0718571
-0.0959346
0.0708315
-0.0830044
0.0822656
-0.0483632
0.101878
0.00456366
0.122701
0.0573763
0.141753
0.091699
0.159871
0.107771
0.179764
0.124309
0.201904
0.163529
0.221304
0.224155
0.23102
0.27119
0.227142
0.262398
0.210839
0.1822
0.188524
0.0500912
0.169067
-0.0779233
0.15242
-0.162052
0.139534
-0.205396
0.133041
-0.212505
0.125734
-0.187102
0.113822
-0.165469
0.106097
-0.156262
0.111819
-0.127559
0.128001
-0.0465665
0.144767
0.0732951
0.155912
0.20785
0.157122
0.313514
0.150755
0.33853
0.142222
0.260484
0.138666
0.0867128
0.139489
-0.0691258
0.131968
-0.180083
0.122574
-0.263555
0.116573
-0.278835
0.121812
-0.214296
0.128867
0.0361754
0.132185
0.213633
0.138593
0.332733
0.131361
0.354974
0.116999
0.0376178
-0.108002
0.215173
0.00542437
0.21699
0.00109012
0.217659
-0.00368702
0.216517
-0.00996646
0.213488
-0.0183268
0.20772
-0.0280872
0.199059
-0.0386474
0.188286
-0.0494867
0.176539
-0.0602117
0.164653
-0.0703067
0.153126
-0.0791867
0.142362
-0.0866915
0.132688
-0.0927682
0.124007
-0.0974328
0.116274
-0.100848
0.109425
-0.10264
0.102756
-0.102951
0.0965524
-0.102397
0.0913679
-0.0994011
0.0849989
-0.0934709
0.0765803
-0.087516
0.0720998
-0.0785239
0.0784976
-0.054761
0.0948217
-0.0117605
0.114628
0.0375704
0.133294
0.073033
0.151177
0.0898871
0.171405
0.104081
0.194829
0.140106
0.216916
0.202068
0.230513
0.257593
0.230059
0.262852
0.215249
0.19701
0.192929
0.072411
0.172123
-0.0571179
0.15418
-0.144109
0.13928
-0.190496
0.13187
-0.205094
0.12635
-0.181582
0.11564
-0.15476
0.106316
-0.146938
0.109818
-0.131061
0.126193
-0.0629417
0.145197
0.0542916
0.15929
0.193757
0.163033
0.309771
0.157579
0.343984
0.147794
0.270268
0.142497
0.0920103
0.143081
-0.0697101
0.135467
-0.172469
0.125094
-0.253182
0.118045
-0.271786
0.123529
-0.21978
0.132035
0.0276689
0.135859
0.209809
0.143406
0.325187
0.137274
0.361106
0.12284
0.0520511
-0.103656
0.207946
0.00439381
0.207784
0.0012524
0.206477
-0.00237984
0.203931
-0.00742022
0.199707
-0.0141033
0.193609
-0.0219886
0.185844
-0.0308824
0.176857
-0.0404998
0.167035
-0.0503897
0.156748
-0.0600199
0.146485
-0.068924
0.136692
-0.0768982
0.127687
-0.0837629
0.119539
-0.0892851
0.112142
-0.0934517
0.105617
-0.0961142
0.0997016
-0.0970356
0.0940449
-0.0967405
0.0894396
-0.0947957
0.0855197
-0.089551
0.0801782
-0.0821745
0.0752306
-0.0735763
0.0774347
-0.0569652
0.0896562
-0.0239819
0.107429
0.0197973
0.124974
0.0554879
0.141697
0.0731642
0.160976
0.0848025
0.185508
0.115574
0.211358
0.176218
0.229172
0.239779
0.232044
0.25998
0.219002
0.210052
0.195809
0.0956045
0.173444
-0.0347532
0.154974
-0.125638
0.138725
-0.174247
0.130034
-0.196404
0.126092
-0.17764
0.117175
-0.145842
0.106717
-0.13648
0.107426
-0.13177
0.123253
-0.0787686
0.14461
0.0329346
0.162201
0.176166
0.168779
0.303193
0.164602
0.348161
0.153757
0.281113
0.146479
0.0992884
0.146628
-0.0698594
0.139123
-0.164964
0.127816
-0.241876
0.11966
-0.263629
0.125152
-0.225272
0.135158
0.0176627
0.139455
0.205512
0.14805
0.316592
0.143297
0.365859
0.129086
0.0662617
-0.0989994
0.190692
0.00376502
0.190478
0.00146713
0.189494
-0.00139577
0.187525
-0.00545121
0.184187
-0.0107654
0.179489
-0.0172908
0.173488
-0.0248809
0.166268
-0.0332801
0.158025
-0.0421466
0.149134
-0.051129
0.140072
-0.0598623
0.131257
-0.0680829
0.122944
-0.07545
0.115291
-0.0816327
0.108327
-0.0864868
0.102084
-0.0898713
0.0966259
-0.0915778
0.0916384
-0.091753
0.0873003
-0.0904576
0.0842353
-0.086486
0.0814018
-0.079341
0.0781544
-0.0703289
0.0782539
-0.0570647
0.0859946
-0.0317226
0.100384
0.00540827
0.116185
0.0396867
0.131298
0.0580508
0.148473
0.0676278
0.171101
0.0929461
0.197393
0.149926
0.219639
0.217534
0.228686
0.250932
0.21952
0.219218
0.197792
0.117332
0.175127
-0.0120881
0.156075
-0.106586
0.138731
-0.156903
0.128318
-0.185992
0.125318
-0.174639
0.118503
-0.139028
0.107427
-0.125404
0.105295
-0.129638
0.119301
-0.0927756
0.141831
0.0104049
0.162797
0.155199
0.173411
0.292579
0.171923
0.349649
0.160602
0.292434
0.151087
0.108803
0.150295
-0.0690669
0.143058
-0.157727
0.130769
-0.229587
0.121529
-0.254389
0.126721
-0.230464
0.138116
0.00626797
0.142845
0.200782
0.152356
0.307081
0.149237
0.368978
0.135653
0.0798459
-0.0941229
0.206606
0.0031297
-0.20597
0.207501
0.00057165
0.208683
-0.00257809
0.209607
-0.00637462
0.210028
-0.0111869
0.209758
-0.0170207
0.208643
-0.0237662
0.206573
-0.0312098
0.203521
-0.0390943
0.199563
-0.0471711
0.194782
-0.0550811
0.189279
-0.0625803
0.183138
-0.0693086
0.176437
-0.0749322
0.169354
-0.0794033
0.161959
-0.0824771
0.154406
-0.0840246
0.146834
-0.0841806
0.139006
-0.0826297
0.131162
-0.0786424
0.123658
-0.0718363
0.115362
-0.0620334
0.106518
-0.0482207
0.101083
-0.0262879
0.101909
0.00458289
0.108453
0.0331424
0.11879
0.0477137
0.130457
0.0559613
0.142311
0.0810921
0.154839
0.137398
0.168141
0.204231
0.180302
0.238771
0.189122
0.210398
0.193275
0.113179
0.192444
-0.0112571
0.187205
-0.101348
0.175215
-0.144912
0.16269
-0.173467
0.154152
-0.166101
0.143288
-0.128164
0.128809
-0.110925
0.120107
-0.120936
0.123371
-0.0960402
0.132864
0.000912689
0.142462
0.145601
0.147581
0.287461
0.149746
0.347484
0.149829
0.292352
0.151348
0.107284
0.156595
-0.0743142
0.151875
-0.153007
0.13954
-0.217252
0.127356
-0.242205
0.12541
-0.228518
0.13012
0.00155735
0.131311
0.199591
0.139665
0.298727
0.14011
0.368533
0.129582
0.0903737
-0.088433
0.216052
0.00279234
-0.215715
0.216633
-9.62475e-06
0.217316
-0.00326118
0.217875
-0.00693367
0.218015
-0.0113264
0.217525
-0.0165311
0.216256
-0.0224967
0.214126
-0.0290797
0.211084
-0.0360522
0.207129
-0.0432169
0.202292
-0.050244
0.196631
-0.056919
0.1903
-0.0629774
0.183448
-0.06808
0.176282
-0.0722381
0.169008
-0.0752026
0.16163
-0.076647
0.154295
-0.0768457
0.147004
-0.075338
0.139537
-0.0711753
0.132526
-0.0648252
0.126086
-0.0555941
0.11947
-0.0416049
0.114032
-0.0208491
0.113324
0.00529029
0.118127
0.0283393
0.127007
0.0388341
0.13762
0.0453483
0.149225
0.0694872
0.162703
0.123919
0.177558
0.189376
0.191265
0.225065
0.201503
0.20016
0.206989
0.107694
0.206126
-0.0103943
0.199955
-0.0951763
0.186969
-0.131927
0.173089
-0.159587
0.164122
-0.157134
0.15417
-0.118212
0.139805
-0.0965602
0.129619
-0.110749
0.131932
-0.0983532
0.142333
-0.00948886
0.154449
0.133486
0.162181
0.279729
0.166571
0.343093
0.167286
0.291637
0.167665
0.106905
0.171995
-0.0786439
0.166158
-0.147171
0.151918
-0.203012
0.138048
-0.228334
0.135862
-0.226332
0.141547
-0.00412776
0.142751
0.198387
0.151757
0.289721
0.153724
0.366566
0.143382
0.100716
-0.0821999
0.225346
0.00229827
-0.224852
0.225802
-0.000465001
0.226202
-0.0036618
0.226449
-0.00718005
0.226345
-0.0112223
0.225697
-0.0158831
0.224363
-0.0211633
0.222265
-0.0269819
0.219354
-0.0331413
0.215618
-0.0394803
0.211098
-0.0457238
0.205853
-0.0516747
0.200016