/*--------------------------------*- C++ -*----------------------------------*\
| =========                 |                                                 |
| \\      /  F ield         | OpenFOAM: The Open Source CFD Toolbox           |
|  \\    /   O peration     | Version:  2312                                  |
|   \\  /    A nd           | Website:  www.openfoam.com                      |
|    \\/     M anipulation  |                                                 |
\*---------------------------------------------------------------------------*/
FoamFile
{
    version     2.0;
    format      ascii;
    arch        "LSB;label=32;scalar=64";
    class       surfaceScalarField;
    location    "15.75";
    object      phi;
}
// * * * * * * * * * * * * * * * * * * * * * * * * * * * * * * * * * * * * * //

dimensions      [0 3 -1 0 0 0 0];

oriented        oriented;

internalField   nonuniform List<scalar> 
10785
(
4.00485e-05
0.00249663
-0.00253668
0.00174241
0.00602792
-0.00773028
0.00573059
0.00685114
-0.0108393
0.0125264
0.00407028
-0.0108661
0.0232813
-0.00313691
-0.00761799
0.0392775
-0.0148305
-0.00116566
0.0613923
-0.0306035
0.00848871
0.0896693
-0.0493806
0.0211036
0.122786
-0.0699924
0.0368754
0.159269
-0.0910544
0.054572
0.196003
-0.111782
0.0750481
0.231588
-0.130664
0.0950787
0.26084
-0.147745
0.118493
0.285028
-0.160322
0.136134
-0.172632
0.162413
0.295247
-0.000718316
0.00321495
0.000134476
0.00517513
0.00435878
0.00262684
0.0140068
-0.00557773
0.030754
-0.0198842
0.05504
-0.0391165
0.0854841
-0.0610476
0.119548
-0.0834444
0.15404
-0.104484
0.186119
-0.123134
0.213013
-0.138676
0.233413
-0.151064
0.246535
-0.160866
0.2549
-0.168688
-0.177013
0.259281
-0.000519944
0.00373489
0.00143146
0.00322373
0.00894186
-0.00488356
0.0246809
-0.0213168
0.0488866
-0.0440899
0.0789359
-0.0691659
0.110836
-0.092948
0.14067
-0.113278
0.165614
-0.129429
0.184175
-0.141695
0.196586
-0.151086
0.204645
-0.159124
0.211037
-0.167258
0.218169
-0.17582
-0.186561
0.227718
0.000311371
0.00342352
0.00492259
-0.00138749
0.0178205
-0.0177815
0.0400448
-0.0435411
0.0680516
-0.0720967
0.0965584
-0.0976726
0.121256
-0.117645
0.140009
-0.132031
0.152884
-0.142304
0.161703
-0.150514
0.168943
-0.158326
0.176635
-0.166815
0.185118
-0.175742
0.194496
-0.185198
-0.194449
0.202384
0.00138074
0.00204278
0.00975839
-0.00976514
0.0283484
-0.0363715
0.053664
-0.0688567
0.0790613
-0.097494
0.0998308
-0.118442
0.114602
-0.132416
0.124581
-0.14201
0.132104
-0.149828
0.139037
-0.157447
0.146105
-0.165394
0.152827
-0.173537
0.158851
-0.181765
0.163962
-0.190309
-0.199136
0.168648
0.00272031
-0.000677526
0.015404
-0.0224488
0.037306
-0.0582734
0.0604055
-0.0919562
0.0789007
-0.115989
0.0915592
-0.131101
0.0999887
-0.140846
0.106359
-0.14838
0.111934
-0.155403
0.117013
-0.162526
0.121515
-0.169896
0.125658
-0.17768
0.129861
-0.185968
0.134449
-0.194897
-0.204172
0.139485
0.00444185
-0.00511937
0.020594
-0.0386009
0.0416353
-0.0793148
0.0592078
-0.109529
0.0710233
-0.127805
0.0784555
-0.138533
0.0835219
-0.145912
0.0874561
-0.152314
0.0908085
-0.158755
0.093884
-0.165602
0.0969543
-0.172967
0.100088
-0.180814
0.103141
-0.18902
0.105883
-0.197639
-0.206348
0.108059
0.00643248
-0.0115519
0.0236968
-0.0558653
0.0408348
-0.0964528
0.0527131
-0.121407
0.0596864
-0.134778
0.0636924
-0.142539
0.0662666
-0.148486
0.0682554
-0.154303
0.0700189
-0.160519
0.0716344
-0.167217
0.0730175
-0.17435
0.0741071
-0.181904
0.075052
-0.189965
0.0759249
-0.198512
0.0771047
-0.207528
-0.00601403
0.00270882
0.00330521
-0.0163368
0.00498602
0.00533676
-0.0282997
0.00620192
0.00576097
-0.0411716
0.00718314
0.00568874
-0.0548319
0.00816289
0.00549746
-0.0692097
0.0091177
0.0052601
-0.0842058
0.00999627
0.00499985
-0.0996996
0.0107537
0.00474011
-0.115548
0.0113472
0.00450155
-0.13159
0.0117385
0.00430334
-0.147636
0.0118851
0.00416054
-0.163438
0.0117258
0.00407672
-0.178702
0.0112153
0.00404871
-0.19315
0.0103525
0.00409556
0.00919354
-0.206593
0.0042493
-0.00517527
0.00788409
-0.0143944
0.0142052
-0.025188
0.0169955
-0.0367152
0.0187104
-0.048745
0.0201926
-0.0611376
0.0215104
-0.0737349
0.0225935
-0.0863613
0.0233801
-0.0988209
0.0238068
-0.11089
0.0238079
-0.122355
0.0233495
-0.132996
0.0223672
-0.142375
0.0205945
-0.150512
0.0184887
0.0148885
-0.156207
-0.00298092
0.010865
-0.0092218
0.0204461
-0.0169311
0.0247048
-0.0250655
0.0268448
-0.0331306
0.0282577
-0.0408488
0.0292286
-0.0479649
0.0297096
-0.0542115
0.0296267
-0.0593271
0.0289223
-0.0630282
0.027509
-0.0648493
0.0251706
-0.0649926
0.0225105
-0.0620015
0.0176035
-0.057132
0.0136192
0.00621014
-0.0484536
-0.000322873
0.0111879
-0.00258576
0.022709
-0.00618419
0.0283032
-0.0100376
0.0306982
-0.0133597
0.0315798
-0.015688
0.0315569
-0.0166952
0.0307168
-0.0160832
0.0290147
-0.0134893
0.0263284
-0.00885322
0.0228729
-0.0014477
0.0177651
0.00838439
0.0126784
0.0217768
0.00421104
0.0379338
-0.00253773
-0.0139381
0.0580821
0.00186472
0.00932316
0.00354854
0.0210251
0.00438882
0.0274629
0.00505553
0.0300315
0.00644239
0.0301929
0.00920917
0.0287901
0.0138066
0.0261194
0.0204672
0.0223541
0.0296549
0.0171408
0.0411109
0.0114168
0.0560141
0.00286189
0.0727288
-0.00403626
0.0949435
-0.0180037
0.118404
-0.0259981
-0.046199
0.150665
0.00285482
0.00646834
0.00729103
0.0165889
0.0119022
0.0228517
0.0166928
0.025241
0.0222703
0.0246154
0.0292651
0.0217953
0.0381434
0.0172411
0.0491298
0.0113678
0.0625623
0.00370826
0.0783994
-0.00442033
0.0983595
-0.0170982
0.12096
-0.0266366
0.149652
-0.0466957
0.180455
-0.0568012
-0.084995
0.219251
0.00254414
0.0039242
0.00762995
0.0115031
0.0139855
0.0164962
0.021188
0.0180384
0.0293724
0.0164311
0.0389158
0.0122519
0.0502387
0.00591827
0.0638993
-0.00229288
0.080848
-0.0132404
0.101772
-0.0253444
0.126709
-0.0420356
0.157266
-0.0571934
0.19191
-0.0813398
0.231878
-0.0967687
-0.127524
0.274407
0.00138752
0.00516037
0.0108172
0.0179896
0.0268026
0.0378888
0.0522958
0.0711065
0.0947415
0.123969
0.156982
0.194867
0.23202
0.271386
0.306275
-0.205462
-0.0101799
0.00904828
-0.189865
-0.0229311
0.00733406
-0.165985
-0.0248191
0.000939902
-0.12749
-0.0317977
-0.00669756
-0.0736564
-0.0258911
-0.0279427
-0.0101725
-0.0147376
-0.0487463
0.0543632
-0.00351148
-0.0610242
0.109325
0.00841065
-0.0633722
0.152442
0.016794
-0.0599115
0.18432
0.0233683
-0.0552463
0.207404
0.0283924
-0.0514765
0.224375
0.0319167
-0.0488877
0.237061
0.0348511
-0.0475365
0.24683
0.0368463
-0.0466157
0.254638
0.0396797
-0.0474872
0.261068
0.0402803
-0.0467105
0.266289
0.0449534
-0.0501751
0.270502
0.0414943
-0.0457073
0.273557
0.0517766
-0.0548317
0.275854
0.038743
-0.0410397
0.277154
0.0625042
-0.0638039
0.278041
0.034674
-0.0355612
0.278389
0.0734284
-0.0737759
0.278245
0.042323
-0.042179
0.278328
0.0663408
-0.0664241
0.277595
0.078289
-0.0775564
0.277128
0.0457355
-0.0452679
0.276843
0.098558
-0.0982731
0.275502
0.0905086
-0.0891674
0.274739
0.0586094
-0.0578464
0.274545
0.120907
-0.120714
0.272945
0.151827
-0.150227
0.271195
0.0798931
-0.0781422
0.270751
0.104736
-0.104293
0.270474
0.205253
-0.204975
0.269053
0.282637
-0.281216
0.266409
0.238316
-0.235672
0.059961
-0.0575756
-0.158619
-0.00776785
-0.151163
-0.0303866
-0.132138
-0.0438443
-0.104103
-0.0598327
-0.0595337
-0.0704604
-0.00372834
-0.070543
0.0539979
-0.0612377
0.104702
-0.0422938
0.145016
-0.0235195
0.175023
-0.00663929
0.197416
0.00600033
0.214378
0.0149541
0.227577
0.0216519
0.238305
0.0261183
0.247395
0.0305898
0.255297
0.0323786
0.261962
0.0382883
0.267439
0.0360171
0.271418
0.0477974
0.274365
0.0357959
0.276038
0.0608322
0.277156
0.0335554
0.277672
0.0729123
0.277569
0.0424263
0.277818
0.0660914
0.277091
0.0790167
0.276707
0.046119
0.276581
0.0986841
0.275203
0.0918864
0.274558
0.0592544
0.274553
0.120912
0.27293
0.153449
0.271202
0.0816211
0.270953
0.104985
0.270808
0.205397
0.26936
0.284085
0.266663
0.241013
0.0622643
-0.048901
-0.00732041
-0.0466786
-0.0326091
-0.0337098
-0.056813
-0.01401
-0.0795325
0.0170874
-0.101558
0.0581079
-0.111563
0.101847
-0.104977
0.141179
-0.0816254
0.171709
-0.0540492
0.19443
-0.0293604
0.210881
-0.0104512
0.223035
0.00280091
0.232442
0.0122442
0.240208
0.0183523
0.247123
0.0236754
0.253584
0.0259177
0.259403
0.0324686
0.264504
0.0309163
0.268357
0.0439448
0.271363
0.0327894
0.273138
0.0590575
0.274398
0.0322956
0.275101
0.0722086
0.275099
0.0424289
0.275592
0.0655978
0.274975
0.0796342
0.274764
0.0463298
0.274904
0.0985445
0.273611
0.093179
0.273194
0.0596713
0.273486
0.12062
0.271986
0.15495
0.270426
0.0831807
0.270496
0.104916
0.270617
0.205275
0.2693
0.285402
0.266726
0.243587
0.064307
0.0538486
-0.00308692
0.0545455
-0.033306
0.0604214
-0.0626889
0.0735012
-0.0926123
0.0952349
-0.123291
0.123723
-0.140051
0.153412
-0.134666
0.180132
-0.108345
0.201493
-0.0754101
0.217574
-0.0454424
0.228871
-0.0217477
0.236646
-0.00497462
0.242094
0.00679634
0.246295
0.0141518
0.250012
0.0199579
0.2538
0.0221304
0.25755
0.0287176
0.261244
0.0272232
0.264223
0.0409655
0.266831
0.0301816
0.268481
0.057407
0.269801
0.0309754
0.270711
0.0712995
0.27086
0.0422799
0.271679
0.0647788
0.271267
0.0800454
0.271317
0.0462798
0.27183
0.0980319
0.270738
0.0942709
0.270654
0.0597552
0.271359
0.119916
0.27012
0.156189
0.268867
0.084433
0.269383
0.1044
0.269906
0.204753
0.26888
0.286428
0.266601
0.245865
0.0659154
0.143042
0.00453553
0.138225
-0.0284885
0.137164
-0.0616279
0.141439
-0.0968874
0.153028
-0.134881
0.168764
-0.155787
0.184315
-0.150217
0.198763
-0.122793
0.211577
-0.088224
0.222424
-0.0562887
0.231251
-0.030575
0.237988
-0.011712
0.242828
0.00195646
0.246218
0.010762
0.248736
0.0174395
0.251132
0.0197343
0.253494
0.0263559
0.256082
0.0246358
0.25826
0.0387871
0.260468
0.0279739
0.261984
0.0558907
0.263373
0.0295859
0.264538
0.0701351
0.264893
0.0419246
0.266121
0.063551
0.266004
0.0801623
0.266401
0.0458829
0.267393
0.0970393
0.266612
0.095052
0.266959
0.0594083
0.268196
0.118679
0.267353
0.157032
0.266536
0.0852505
0.267623
0.103313
0.268685
0.20369
0.26811
0.287003
0.266294
0.247681
0.0669224
0.212324
0.0114626
0.204905
-0.0210701
0.199438
-0.0561607
0.197074
-0.0945235
0.195056
-0.132863
0.195587
-0.156317
0.196476
-0.151107
0.199114
-0.125431
0.204785
-0.0938953
0.212119
-0.0636224
0.219736
-0.0381919
0.2267
-0.0186764
0.232304
-0.00364704
0.236718
0.00634771
0.240016
0.0141415
0.242804
0.016946
0.245204
0.023956
0.247708
0.0221319
0.249741
0.0367545
0.251942
0.0257729
0.253533
0.0542992
0.255118
0.0280011
0.256627
0.0686264
0.257258
0.0412935
0.258981
0.0618283
0.259238
0.0799046
0.260066
0.0450556
0.261641
0.095464
0.261275
0.0954178
0.262144
0.0585398
0.264033
0.11679
0.263717
0.157348
0.263451
0.0855159
0.265231
0.101534
0.266973
0.201948
0.267005
0.28697
0.265812
0.248875
0.0671693
0.266847
0.0190218
0.255332
-0.00955438
0.242779
-0.0436084
0.230783
-0.0825267
0.216171
-0.118251
0.201687
-0.141833
0.191974
-0.141394
0.188367
-0.121824
0.190496
-0.0960246
0.196256
-0.0693826
0.203621
-0.0455569
0.211244
-0.0262986
0.218196
-0.010599
0.22373
0.000813595
0.227978
0.00989358
0.231403
0.0135207
0.234107
0.0212519
0.236843
0.019396
0.238993
0.034604
0.241415
0.0233516
0.243235
0.0524789
0.245114
0.0261219
0.247071
0.06667
0.248026
0.0403379
0.250339
0.0595159
0.251046
0.0791973
0.252373
0.0437279
0.25464
0.0931978
0.254785
0.0952724
0.256252
0.0570728
0.258919
0.114122
0.259253
0.157015
0.259641
0.0851275
0.26223
0.0989446
0.264793
0.199385
0.265587
0.286176
0.265164
0.249297
0.0665079
0.2978
0.0274965
0.284229
0.00401663
0.266526
-0.0259048
0.245247
-0.0612485
0.221709
-0.0947131
0.196906
-0.11703
0.178135
-0.122623
0.169961
-0.11365
0.170482
-0.096545
0.176811
-0.0757117
0.185295
-0.0540414
0.194016
-0.0350197
0.201777
-0.0183599
0.208389
-0.00579805
0.213457
0.00482496
0.217627
0.00935157
0.220824
0.018054
0.223942
0.0162788
0.226372
0.0321736
0.229136
0.0205881
0.231293
0.0503213
0.233544
0.0238708
0.235995
0.064219
0.237359
0.0389746
0.240289
0.0565856
0.241545
0.0779416
0.243424
0.0418482
0.246455
0.0901675
0.247227
0.0945003
0.249354
0.0549457
0.252899
0.110578
0.254011
0.155903
0.255152
0.0839866
0.25865
0.0954466
0.262166
0.195869
0.263872
0.28447
0.264361
0.248809
0.0648011
0.521135
0.0290997
-0.522738
0.517172
0.00797954
0.508957
-0.0176898
0.492376
-0.0446668
0.468004
-0.0703411
0.439165
-0.0881907
0.412308
-0.0957665
0.391678
-0.0930201
0.377195
-0.0820622
0.36834
-0.0668569
0.364289
-0.0499899
0.363653
-0.0343838
0.36533
-0.0200369
0.368017
-0.00848509
0.370864
0.00197766
0.37316
0.00705551
0.374907
0.0163075
0.376114
0.015071
0.377249
0.0310388
0.378192
0.0196452
0.379336
0.0491771
0.380381
0.0228259
0.381304
0.0632968
0.382553
0.0377254
0.383085
0.0560536
0.384176
0.0768506
0.384958
0.0410657
0.385285
0.089841
0.386211
0.0935739
0.386998
0.0541592
0.387177
0.110399
0.38769
0.155389
0.388637
0.08304
0.389485
0.0945986
0.390103
0.19525
0.390366
0.284208
0.389991
0.249183
0.0652139
0.539698
0.0302491
-0.540848
0.536971
0.0107061
0.52906
-0.00977793
0.514746
-0.0303536
0.494425
-0.0500195
0.471935
-0.065701
0.450604
-0.0744356
0.432799
-0.0752152
0.419711
-0.0689736
0.411226
-0.0583726
0.40669
-0.0454534
0.405032
-0.0327262
0.404936
-0.0199401
0.405853
-0.0094029
0.407279
0.00055225
0.40901
0.00532383
0.410546
0.0147721
0.411629
0.0139882
0.412846
0.0298215
0.413689
0.018802
0.414891
0.0479751
0.415888
0.0218294
0.416878
0.0623061
0.418166
0.0364372
0.418772
0.0554478
0.419926
0.0756972
0.420805
0.0401865
0.421178
0.0894676
0.422228
0.0925242
0.423076
0.0533116
0.423302
0.110172
0.423959
0.154733
0.425032
0.0819665
0.425898
0.0937327
0.426553
0.194595
0.426901
0.28386
0.426574
0.24951
0.0655955
0.570211
0.0277035
-0.567665
0.567784
0.0131336
0.560592
-0.00258633
0.54933
-0.0190913
0.533861
-0.0345507
0.515493
-0.0473334
0.49651
-0.0554528
0.479407
-0.058112
0.465716
-0.0552826
0.455686
-0.0483423
0.449268
-0.0390356
0.445696
-0.0291543
0.444498
-0.0187419
0.44478
-0.00968457
0.446161
-0.000828876
0.447517
0.00396763
0.448979
0.0133104
0.450227
0.0127402
0.451456
0.0285919
0.452478
0.0177807
0.453687
0.0467654
0.454763
0.020754
0.455802
0.0612667
0.457114
0.0351256
0.457825
0.0547367
0.459039
0.0744827
0.459981
0.0392444
0.460492
0.0889572
0.461616
0.0914001
0.462518
0.0524091
0.462899
0.109792
0.46368
0.153951
0.464821
0.0808258
0.465761
0.0927928
0.466533
0.193823
0.467005
0.283388
0.466721
0.249793
0.0659647
0.601818
0.0265446
-0.600659
0.59919
0.0157621
0.593689
0.00291392
0.584233
-0.00963523
0.571326
-0.0216429
0.555926
-0.0319333
0.539935
-0.0394622
0.525139
-0.0433162
0.512742
-0.0428859
0.503368
-0.0389676
0.496964
-0.032632
0.493133
-0.0253232
0.491369
-0.0169783
0.49106
-0.00937507
0.491327
-0.00109565
0.492058
0.00323624
0.492864
0.0125047
0.493551
0.0120533
0.494404
0.0277387
0.495229
0.0169558
0.4963
0.0456943
0.497375
0.0196787
0.498443
0.0601992
0.499742
0.0338258
0.500612
0.0538672
0.501828
0.073267
0.502851
0.0382211
0.503566
0.0882418
0.504693
0.0902736
0.50567
0.051432
0.506319
0.109142
0.507192
0.153079
0.508334
0.079684
0.509426
0.0917003
0.510448
0.192802
0.51109
0.282745
0.510815
0.250068
0.0663476
0.638911
0.0252532
-0.637619
0.637507
0.0171661
0.632847
0.00757371
0.625357
-0.00214516
0.615332
-0.0116178
0.603352
-0.0199531
0.590366
-0.0264769
0.577508
-0.0304582
0.566008
-0.0313855
0.556613
-0.029573
0.549423
-0.0254413
0.5443
-0.0202004
0.54105
-0.0137287
0.539274
-0.0075984
0.538593
-0.000415251
0.53869
0.00313991
0.539206
0.0119887
0.539928
0.0113306
0.540853
0.0268144
0.541824
0.0159842
0.542926
0.0445923
0.544071
0.0185339
0.545174
0.0590965
0.546449
0.0325502
0.547481
0.0528355
0.548665
0.0720834
0.549799
0.0370868
0.550729
0.0873119
0.551833
0.0891698
0.552921
0.0503439
0.553906
0.108157
0.554847
0.152138
0.555954
0.0785765
0.557293
0.090362
0.558698
0.191397
0.559556
0.281888
0.559253
0.250371
0.0667751
0.680617
0.024067
-0.679431
0.679499
0.0182842
0.675824
0.0112481
0.669924
0.003755
0.661823
-0.00351715
0.65191
-0.01004
0.640904
-0.015471
0.629761
-0.0193153
0.619465
-0.0210889
0.610685
-0.0207936
0.603752
-0.0185076
0.598665
-0.015114
0.595324
-0.0103877
0.593429
-0.0057037
0.592546
0.000468648
0.59209
0.00359594
0.592062
0.0120166
0.592261
0.0111316
0.592699
0.0263766
0.593393
0.01529
0.594266
0.0437191
0.595328
0.0174721
0.596407
0.0580173
0.597623
0.0313346
0.598805
0.0516532
0.599958
0.0709308
0.601203
0.0358413
0.602352
0.0861625
0.603451
0.0880714
0.604672
0.0491232
0.606023
0.106806
0.607046
0.151115
0.608127
0.0774952
0.609786
0.0887033
0.611678
0.189505
0.612794
0.280772
0.612448
0.250717
0.0672631
0.727602
0.0231591
-0.726694
0.726845
0.0190417
0.724169
0.0139237
0.719538
0.00838657
0.713196
0.00282452
0.70546
-0.00230388
0.696805
-0.00681626
0.687803
-0.0103131
0.679067
-0.0123533
0.671153
-0.0128795
0.664419
-0.0117735
0.658981
-0.00967625
0.654821
-0.00622774
0.651836
-0.00271865
0.649797
0.00250809
0.648683
0.00470965
0.648247
0.0124522
0.648345
0.0110341
0.648767
0.0259541
0.649498
0.0145599
0.650339
0.0428776
0.651405
0.0164057
0.652504
0.0569189
0.653666
0.0301724
0.655001
0.0503183
0.656129
0.0698028
0.657485
0.0344848
0.658873
0.0847748
0.659981
0.0869632
0.661356
0.0477482
0.663098
0.105064
0.664233
0.14998
0.66532
0.0764084
0.667353
0.0866704
0.66981
0.187047
0.671238
0.279344
0.670867
0.251088
0.0678119
0.780256
0.022436
-0.779533
0.779745
0.0195531
0.777742
0.0159266
0.774231
0.0118975
0.769319
0.00773678
0.763257
0.00375748
0.75626
0.000181704
0.748674
-0.00272767
0.741024
-0.00470295
0.733835
-0.00569081
0.727534
-0.00547287
0.722311
-0.00445238
0.71827
-0.00218673
0.715469
8.21291e-05
0.713446
0.0045311
0.712101
0.00605488
0.711239
0.0133134
0.71092
0.0113537
0.710903
0.0259709
0.711358
0.014105
0.711966
0.0422692
0.712918
0.0154543
0.713981
0.0558554
0.715065
0.0290886
0.71654
0.0488437
0.717652
0.0686911
0.719126
0.0330109
0.720763
0.0831378
0.721897
0.0858286
0.723459
0.0461859
0.725613
0.102911
0.726895
0.148697
0.728035
0.0752689
0.730492
0.0842133
0.733585
0.183955
0.735395
0.277534
0.735042
0.251441
0.0684101
0.838901
0.0218182
-0.838283
0.838583
0.0198704
0.837149
0.0173609
0.834564
0.014483
0.830868
0.0114324
0.826184
0.00844127
0.820693
0.00567273
0.814742
0.00322397
0.808601
0.00143785
0.802591
0.000319521
0.797024
9.40102e-05
0.792096
0.000475226
0.787922
0.0019873
0.784545
0.00345865
0.78204
0.00703672
0.780238
0.00785703
0.77908
0.0144708
0.778588
0.011846
0.778451
0.0261075
0.778829
0.0137278
0.779337
0.0417602
0.78023
0.0145617
0.781294
0.0547919
0.782313
0.0280693
0.78393
0.047227
0.785046
0.0675751
0.786637
0.031419
0.788539
0.0812362
0.789731
0.0846367
0.791509
0.0444081
0.794097
0.100322
0.795576
0.147218
0.796824
0.0740215
0.79976
0.0812772
0.803568
0.180146
0.805847
0.275255
0.805577
0.251711
0.06903
0.904084
0.0212808
-0.903547
0.903931
0.0200232
0.902953
0.0183389
0.901102
0.0163341
0.898373
0.0141611
0.894832
0.0119828
0.890619
0.00988559
0.885854
0.00798883
0.880795
0.00649694
0.87572
0.00539484
0.870892
0.00492157
0.866496
0.00487188
0.862632
0.00585129
0.859494
0.00659638
0.857022
0.00950844
0.855178
0.00970135
0.853788
0.0158605
0.853044
0.0125898
0.852647
0.0265048
0.852831
0.0135436
0.85319
0.0414012
0.85396
0.0137922
0.855028
0.0537239
0.855969
0.0271275
0.857726
0.0454701
0.858874
0.0664276
0.860583
0.0297099
0.862771
0.0790484
0.864061
0.0833461
0.866081
0.0423888
0.869134
0.0972692
0.870875
0.145477
0.872299
0.0725972
0.87577
0.0778062
0.880377
0.175539
0.883262
0.27237
0.883187
0.251786
0.0696855
0.976132
0.0207662
-0.975618
0.976141
0.0200139
0.975544
0.0189364
0.974293
0.0175849
0.972374
0.0160805
0.969816
0.0145402
0.966664
0.0130378
0.963033
0.0116198
0.959098
0.0104323
0.955035
0.00945802
0.95102
0.00893629
0.947239
0.00865264
0.943793
0.0092977
0.940824
0.00956546
0.938355
0.0119767
0.936445
0.0116121
0.934948
0.0173569
0.934122
0.0134165
0.93358
0.0270465
0.933723
0.0134008
0.933928
0.0411954
0.934717
0.0130032
0.935714
0.0527275
0.936691
0.0261502
0.938545
0.0436163
0.939748
0.0652242
0.941628
0.0278298
0.944092
0.0765853
0.945524
0.0819135
0.947843
0.0400696
0.951394
0.093719
0.953444
0.143426
0.955135
0.0709062
0.959248
0.0736928
0.964766
0.170022
0.968308
0.268828
0.968541
0.251553
0.0701768
1.0557
0.0202625
-1.0552
1.05586
0.0198541
1.05558
0.0192179
1.05482
0.0183428
1.05356
0.0173423
1.0518
0.0163043
1.04956
0.0152717
1.04692
0.0142618
1.04397
0.0133844
1.04083
0.0126001
1.03762
0.0121409
1.0345
0.0117734
1.03157
0.0122346
1.02896
0.0121763
1.02672
0.014211
1.02495
0.0133845
1.02352
0.0187894
1.02264
0.0142948
1.02206
0.0276209
1.02206
0.0134011
1.02231
0.0409489
1.02291
0.0124077
1.02408
0.0515515
1.02491
0.0253254
1.02701
0.0415174
1.02831
0.0639202
1.03026
0.0258753
1.03317
0.0736839
1.03476
0.0803167
1.03733
0.0375001
1.04152
0.089528
1.04404
0.140908
1.04595
0.0689916
1.05077
0.0688755
1.05742
0.163376
1.06207
0.264179
1.0628
0.250816
0.0708208
1.14301
0.0196564
-1.1424
1.14333
0.0195306
1.14335
0.019204
1.143
0.0186862
1.14228
0.0180705
1.14116
0.0174176
1.13968
0.01675
1.13787
0.0160706
1.13579
0.0154679
1.13351
0.0148778
1.13113
0.014526
1.12875
0.0141549
1.12644
0.014538
1.12435
0.0142724
1.12248
0.0160818
1.121
0.0148651
1.11973
0.0200524
1.11905
0.0149785
1.11847
0.0281983
1.11867
0.013207
1.11877
0.0408428
1.11966
0.0115227
1.12067
0.0505373
1.12179
0.024209
1.12392
0.0393862
1.12538
0.062464
1.12767
0.0235777
1.1308
0.0705582
1.13271
0.0784031
1.13574
0.0344732
1.14048
0.0847891
1.14344
0.137947
1.14591
0.0665165
1.15163
0.063162
1.15946
0.155544
1.16495
0.258689
1.16654
0.249228
0.070758
1.23915
0.0189838
-1.23848
1.23969
0.0189893
1.24001
0.018884
1.24008
0.0186205
1.23986
0.0182816
1.23937
0.0179124
1.23859
0.017525
1.23756
0.0171103
1.23628
0.0167428
1.23481
0.0163441
1.23321
0.0161289
1.23155
0.0158165
1.22989
0.0161974
1.22834
0.0158232
1.22693
0.0174863
1.2258
0.016003
1.22483
0.0210187
1.22425
0.0155567
1.22386
0.0285953
1.22394
0.0131204
1.22431
0.0404773
1.22493
0.0109013
1.22636
0.0491099
1.22728
0.0232876
1.2298
0.0368675
1.23151
0.0607529
1.2338
0.0212888
1.23758
0.0667771
1.23981
0.0761665
1.243
0.0312903
1.24863
0.0791599
1.2525
0.134074
1.2551
0.0639118
1.26163
0.0566324
1.27116
0.146022
1.27878
0.251066
1.28145
0.24656
0.0711502
1.34355
0.0180715
-1.34264
1.34429
0.0182443
1.3449
0.0182819
1.34533
0.0181856
1.34558
0.018034
1.34563
0.0178643
1.34547
0.0176786
1.34512
0.0174608
1.34459
0.0172764
1.3439
0.0170382
1.34307
0.0169521
1.34218
0.0167102
1.34126
0.0171119
1.3404
0.0166829
1.33959
0.0182993
1.33898
0.0166115
1.33845
0.0215473
1.33837
0.0156431
1.33826
0.0287026
1.33885
0.0125297
1.33925
0.0400786
1.34048
0.00967357
1.34179
0.047797
1.3433
0.0217734
1.34587
0.0343036
1.34794
0.0586844
1.35076
0.018462
1.35485
0.0626955
1.3576
0.0734092
1.36147
0.0274257
1.36779
0.0728354
1.3723
0.129566
1.37586
0.0603517
1.38363
0.0488644
1.39479
0.134862
1.40401
0.241848
1.40906
0.241506
0.0697718
1.45894
0.0169674
-1.45783
1.46003
0.0171532
1.46103
0.0172775
1.46192
0.0172965
1.46267
0.0172865
1.46326
0.0172714
1.4637
0.0172393
1.46399
0.0171735
1.46413
0.017134
1.46415
0.0170223
1.46407
0.0170285
1.46391
0.0168659
1.46368
0.0173442
1.46345
0.0169123
1.46333
0.0184198
1.46338
0.0165669
1.46346
0.0214612
1.46362
0.015483
1.4638
0.0285249
1.4642
0.0121328
1.46498
0.0392939
1.46589
0.00876514
1.46785
0.0458387
1.4693
0.0203259
1.47235
0.0312489
1.47502
0.0560111
1.47772
0.0157616
1.4827
0.0577218
1.48611
0.0699926
1.48994
0.0236034
1.4974
0.0653692
1.5035
0.123473
1.50709
0.0567548
1.51566
0.0402995
1.52915
0.121369
1.54186
0.229144
1.54914
0.23422
0.0689649
1.5829
0.0153854
-1.58131
1.58439
0.0156635
1.58582
0.0158466
1.58717
0.0159425
1.58844
0.0160153
1.58963
0.0160813
1.59072
0.016153
1.5917
0.0161948
1.5926
0.016234
1.59338
0.0162366
1.59406
0.0163513
1.59466
0.0162617
1.59529
0.0167188
1.59589
0.016309
1.59654
0.0177743
1.5971
0.0160019
1.59785
0.0207176
1.59857
0.0147643
1.59962
0.0274663
1.60046
0.0112938
1.60197
0.0377912
1.60315
0.00757741
1.60569
0.0433062
1.6076
0.0184168
1.6109
0.0279435
1.61458
0.0523348
1.61748
0.0128541
1.62332
0.051883
1.62776
0.0655575
1.63196
0.0193987
1.64025
0.0570815
1.64833
0.115393
1.65296
0.0521273
1.6617
0.0315586
1.67729
0.105782
1.69565
0.210776
1.71056
0.219316
0.0646149
1.72104
0.0134944
-1.71915
1.72294
0.0137633
1.72482
0.013967
1.72668
0.014089
1.72849
0.0142041
1.73021
0.0143592
1.73186
0.0144992
1.73347
0.0145893
1.73491
0.0147892
1.73626
0.0148867
1.7378
0.0148101
1.73924
0.0148221
1.7403
0.0156639
1.74125
0.0153605
1.74307
0.0159553
1.74536
0.0137093
1.74782
0.018261
1.74877
0.0138126
1.74966
0.0265752
1.74927
0.0116814
1.75109
0.035976
1.75175
0.00691034
1.75552
0.0395352
1.7578
0.016141
1.76175
0.0239882
1.76671
0.0473783
1.76935
0.0102201
1.77625
0.044983
1.78189
0.0599113
1.78592
0.0153669
1.79527
0.0477332
1.80574
0.104928
1.81088
0.0469867
1.82011
0.0223227
1.83807
0.0878238
1.86104
0.187807
1.88101
0.199348
0.059289
1.86855
0.0107941
-1.86585
1.87114
0.0111701
1.87368
0.011425
1.87622
0.0115484
1.87875
0.011679
1.88118
0.0119301
1.88358
0.0120958
1.886
0.0121756
1.88816
0.0126254
1.89021
0.0128378
1.89266
0.0123553
1.89507
0.0124115
1.89678
0.0139544
1.89826
0.0138807
1.9014
0.0128195
1.90529
0.00982102
1.90973
0.0138206
1.91021
0.0133312
1.91199
0.0247949
1.90854
0.0151308
1.91341
0.0311092
1.91076
0.00955341
1.91936
0.0309352
1.92071
0.0147956
1.92494
0.0197568
1.935
0.0373161
1.93407
0.0111533
1.94221
0.0368457
1.95469
0.0474278
1.95298
0.0170732
1.95975
0.0409673
1.98309
0.0815851
1.98918
0.0409002
1.98531
0.0261955
1.99955
0.0735779
2.04459
0.14277
2.09486
0.14908
0.04471
2.06085
0.007558
-2.05761
2.06411
0.0079034
2.06733
0.00820988
2.07045
0.00842085
2.0735
0.00863655
2.0765
0.00892694
2.07946
0.00913583
2.08237
0.00926629
2.08531
0.00968287
2.0882
0.00994533
2.09087
0.00969192
2.0935
0.00977423
2.09646
0.0109959
2.09919
0.0111549
2.10169
0.0103209
2.10294
0.00856689
2.10588
0.0108851
2.10712
0.0120932
2.11381
0.0181036
2.1138
0.0151392
2.12415
0.02076
2.12081
0.0128904
2.13208
0.0196669
2.13168
0.0151973
2.13514
0.0162944
2.1475
0.024951
2.14338
0.0152796
2.15291
0.0273164
2.16881
0.0315219
2.16369
0.0221969
2.17012
0.0345419
2.20098
0.050721
2.20711
0.0347654
2.19631
0.037003
2.20964
0.0602411
2.26671
0.0857055
2.32762
0.0881699
0.0304067
2.25763
0.00510342
-2.25518
2.2602
0.00533274
2.26286
0.00555264
2.26553
0.00575092
2.26821
0.00595724
2.27095
0.00618138
2.27371
0.00638266
2.27641
0.0065626
2.27931
0.00678691
2.28229
0.0069619
2.2849
0.00708175
2.28749
0.00718286
2.29089
0.00759718
2.29432
0.00772764
2.29668
0.00796252
2.2976
0.00764701
2.29971
0.00876863
2.30304
0.00877125
2.31007
0.0110707
2.31539
0.00982155
2.32358
0.0125703
2.32637
0.0100931
2.33318
0.0128609
2.33621
0.0121697
2.34052
0.0119806
2.34864
0.0168285
2.35114
0.0127847
2.36011
0.018348
2.37038
0.0212505
2.3748
0.0177703
2.38526
0.0240842
2.40339
0.0325924
2.41244
0.0257196
2.41993
0.0295078
2.43899
0.0411856
2.47213
0.0525603
2.50333
0.0569698
0.0221425
2.46133
0.0023463
-2.45857
2.46418
0.00248133
2.46712
0.00261561
2.47012
0.00274704
2.47321
0.00287596
2.47638
0.00300324
2.47965
0.00311878
2.48298
0.00323332
2.4864
0.00336158
2.48988
0.00348155
2.49335
0.003613
2.49681
0.00372643
2.50054
0.00386584
2.50431
0.00395433
2.50815
0.00412649
2.51161
0.00418977
2.51578
0.00459177
2.51978
0.00477356
2.52537
0.00548504
2.52975
0.00543885
2.53617
0.00614957
2.5404
0.00586247
2.54686
0.00640105
2.55231
0.00671835
2.55776
0.00652755
2.5663
0.0082942
2.57156
0.00751911
2.5807
0.00921622
2.59121
0.0107388
2.59887
0.0101051
2.6105
0.0124565
2.6273
0.015794
2.63915
0.0138665
2.65214
0.0165218
2.6726
0.0207231
2.70219
0.022966
2.73439
0.0247773
0.0106961
2.69363
-2.69128
2.69611
2.69873
2.70147
2.70435
2.70735
2.71047
2.7137
2.71707
2.72055
2.72416
2.72789
2.73175
2.73571
2.73983
2.74402
2.74862
2.75339
2.75887
2.76431
2.77046
2.77633
2.78273
2.78944
2.79597
2.80427
2.81179
2.821
2.83174
2.84185
2.8543
2.8701
2.88396
2.90048
2.92121
2.94417
2.96895
0.42888
0.0691344
-0.420909
0.438398
0.0985401
0.448055
0.129828
0.457922
0.158781
0.472289
0.188017
0.482312
0.217695
0.501116
0.240477
0.273624
0.463308
0.0609238
-0.455097
0.471174
0.0906741
0.481356
0.119646
0.490394
0.149743
0.502588
0.175823
0.514139
0.206144
0.525555
0.229062
0.258331
0.500187
0.054079
-0.493342
0.507052
0.0838093
0.515126
0.111572
0.523522
0.141347
0.532407
0.166938
0.543107
0.195444
0.553705
0.218463
0.244371
0.539303
0.0484723
-0.533696
0.545482
0.0776305
0.552192
0.104862
0.560153
0.133386
0.568348
0.158744
0.578547
0.185245
0.58891
0.2081
0.232622
0.58236
0.0438508
-0.577738
0.587973
0.0720171
0.594074
0.0987617
0.601386
0.126073
0.609069
0.151061
0.617893
0.176421
0.627109
0.198883
0.222112
0.629234
0.0397787
-0.625162
0.634132
0.0671195
0.639567
0.093326
0.645985
0.119655
0.652889
0.144157
0.660837
0.168473
0.669519
0.190201
0.2122
0.680053
0.0364056
-0.67668
0.684303
0.0628695
0.689179
0.0884491
0.695026
0.113809
0.701572
0.137611
0.709168
0.160877
0.717433
0.181936
0.202939
0.73544
0.0335406
-0.732575
0.73921
0.0590988
0.743762
0.0838971
0.749291
0.10828
0.755575
0.131327
0.762776
0.153677
0.770659
0.174053
0.194065
0.795924
0.0310773
-0.793461
0.799342
0.0556811
0.803626
0.0796131
0.808855
0.103051
0.814881
0.125302
0.821838
0.146719
0.829578
0.166312
0.18536
0.86194
0.028951
-0.859814
0.865078
0.0525433
0.869145
0.0755462
0.874202
0.0979932
0.880165
0.119339
0.887106
0.139778
0.894867
0.158552
0.17668
0.933969
0.02709
-0.932108
0.93691
0.0496021
0.940879
0.0715779
0.945911
0.0929612
0.951924
0.113325
0.958929
0.132773
0.966797
0.150684
0.16786
1.01252
0.0254122
-1.01084
1.01538
0.0467417
1.01939
0.067565
1.02453
0.0878268
1.03072
0.107138
1.03794
0.125549
1.04609
0.142531
0.158753
1.09814
0.0238414
-1.09657
1.10099
0.0438867
1.10509
0.063464
1.11037
0.0825482
1.11677
0.10074
1.12428
0.118034
1.13282
0.133993
0.149172
1.19145
0.0223238
-1.18993
1.19438
0.0409521
1.19868
0.059171
1.2043
0.0769291
1.21117
0.0938663
1.21922
0.109987
1.22833
0.12488
0.139027
1.29258
0.0206603
-1.29092
1.29572
0.0378098
1.30033
0.0545607
1.30633
0.0709266
1.31363
0.0865717
1.32212
0.101497
1.33176
0.115235
0.128152