/*--------------------------------*- C++ -*----------------------------------*\
| =========                 |                                                 |
| \\      /  F ield         | OpenFOAM: The Open Source CFD Toolbox           |
|  \\    /   O peration     | Version:  2512                                  |
|   \\  /    A nd           | Website:  www.openfoam.com                      |
|    \\/     M anipulation  |                                                 |
\*---------------------------------------------------------------------------*/
FoamFile
{
    version     2.0;
    format      ascii;
    arch        "LSB;label=32;scalar=64";
    class       volVectorField;
    location    "23.5";
    object      U;
}
// * * * * * * * * * * * * * * * * * * * * * * * * * * * * * * * * * * * * * //

dimensions      [0 1 -1 0 0 0 0];

internalField   nonuniform List<vector> 
9200
(
(-0.0330394 0.0245228 7.12625e-20)
(-0.0649977 0.0445827 -1.29745e-19)
(-0.0674283 0.0484142 5.86069e-20)
(-0.0341845 0.0455224 1.0496e-19)
(0.0413989 0.0394941 -9.56293e-20)
(0.164387 0.0315507 0)
(0.332428 0.0235044 0)
(0.532597 0.0169161 1.36798e-19)
(0.744016 0.0121634 -1.33897e-21)
(0.943935 0.00842992 -1.13204e-19)
(1.11331 0.00417448 -5.06188e-20)
(1.23993 -0.00215656 9.15192e-20)
(1.31991 -0.0116932 -1.79507e-21)
(1.35771 -0.0240802 -7.538e-20)
(1.36376 -0.0389643 0)
(1.35282 -0.0554724 1.42463e-19)
(1.33641 -0.0691093 -2.05078e-19)
(1.31932 -0.0936066 4.82205e-20)
(1.30495 -0.0927615 4.29075e-20)
(1.27799 -0.140908 3.11501e-20)
(-0.0389887 0.0271842 2.00773e-21)
(-0.0633901 0.0457172 6.64435e-20)
(-0.0410668 0.0458459 1.19867e-19)
(0.0324891 0.0383156 0)
(0.162882 0.0288193 0)
(0.347556 0.0212125 0)
(0.568493 0.017718 0)
(0.796333 0.0182387 -1.03526e-19)
(1.00164 0.0207741 1.26891e-19)
(1.16363 0.0225814 5.50469e-20)
(1.27351 0.0213988 -5.1027e-20)
(1.33399 0.0160898 4.38106e-20)
(1.35643 0.00709132 -3.86604e-20)
(1.35571 -0.00470923 -3.44735e-20)
(1.34544 -0.0178963 2.13042e-19)
(1.33303 -0.0311376 -1.38615e-19)
(1.31912 -0.0456978 -2.26674e-20)
(1.30397 -0.0570495 -3.20076e-21)
(1.28248 -0.0682917 -3.57946e-20)
(1.26279 -0.084024 -3.10771e-20)
(-0.0410288 0.0257435 -7.29734e-20)
(-0.0500227 0.0398684 -6.90677e-20)
(0.00769423 0.0372798 6.13643e-20)
(0.134844 0.028927 -1.10925e-19)
(0.329771 0.0228233 0)
(0.570475 0.0231537 0)
(0.817165 0.0293689 0)
(1.03142 0.0378444 -3.52127e-20)
(1.19025 0.044512 0)
(1.28898 0.0467106 5.57769e-20)
(1.33722 0.0437716 -4.82355e-20)
(1.35184 0.0367099 -1.70173e-19)
(1.34924 0.0270582 1.5276e-19)
(1.34033 0.0161365 3.0564e-20)
(1.3292 0.00523368 -6.09924e-20)
(1.31559 -0.00680814 -1.22254e-19)
(1.30046 -0.0157075 2.7924e-20)
(1.28263 -0.0294908 1.89905e-19)
(1.2667 -0.033644 -9.83405e-20)
(1.24958 -0.0511174 0)
(-0.0385243 0.0212518 7.6631e-20)
(-0.0217465 0.0283603 1.40422e-19)
(0.084343 0.0245894 1.26743e-19)
(0.277013 0.021319 -1.69474e-19)
(0.533774 0.0265659 1.75253e-21)
(0.803435 0.0399084 1.8147e-19)
(1.03443 0.0554217 -8.18242e-20)
(1.19907 0.067273 3.5512e-20)
(1.29593 0.0725664 0)
(1.34046 0.0714434 -2.69735e-20)
(1.35316 0.0657837 1.41052e-19)
(1.35044 0.0576212 -1.64523e-19)
(1.34133 0.0482758 -6.84901e-20)
(1.32912 0.0386061 6.4601e-20)
(1.31477 0.0282079 -8.11391e-20)
(1.29993 0.0187744 7.31485e-20)
(1.28461 0.00788779 0)
(1.27041 -0.00104357 0)
(1.25506 -0.00808495 1.66116e-20)
(1.23948 -0.0224278 0)
(-0.0304745 0.0151082 7.92506e-20)
(0.0254944 0.0147715 -1.09576e-19)
(0.194225 0.0141386 -1.29735e-19)
(0.4558 0.0239493 0)
(0.750852 0.0456684 -5.29276e-20)
(1.00858 0.0703208 -4.42129e-20)
(1.19049 0.0891793 1.21704e-19)
(1.29527 0.0987531 -1.08148e-19)
(1.34253 0.100017 6.00037e-20)
(1.35571 0.0958137 -2.79536e-20)
(1.35212 0.0887078 0)
(1.34122 0.0802013 6.0397e-20)
(1.32739 0.0710723 3.53699e-20)
(1.31275 0.0614103 5.82153e-20)
(1.2986 0.0520604 -5.34587e-20)
(1.28457 0.0422277 -4.33303e-20)
(1.27078 0.0336259 3.98319e-20)
(1.25617 0.0247654 -1.60617e-20)
(1.24151 0.0171711 1.46403e-20)
(1.22739 0.0067061 4.66431e-20)
(-0.0152692 0.00852748 1.66641e-19)
(0.0954948 0.0033762 -5.60839e-22)
(0.337416 0.0135606 0)
(0.653271 0.0429312 9.06536e-20)
(0.948357 0.0791481 -2.86946e-20)
(1.16179 0.108077 -4.66338e-20)
(1.28587 0.124311 2.10896e-21)
(1.3425 0.1293 3.75222e-20)
(1.35882 0.126933 3.00761e-20)
(1.35516 0.120617 -2.57834e-20)
(1.34326 0.112408 -4.35696e-20)
(1.32889 0.103376 -5.47051e-20)
(1.3144 0.0939545 8.50583e-20)
(1.30033 0.084628 6.9487e-20)
(1.2862 0.0751355 -7.46571e-20)
(1.27208 0.0662129 4.38382e-20)
(1.25783 0.0570713 0)
(1.24415 0.0486447 1.08871e-21)
(1.23081 0.0408321 -3.66939e-20)
(1.21789 0.0315109 4.73335e-20)
(0.00894576 0.00257418 -4.54083e-20)
(0.189922 -0.0012529 2.04555e-21)
(0.504049 0.0287926 -3.64197e-20)
(0.842645 0.0779912 -9.26337e-20)
(1.10478 0.121448 8.34241e-20)
(1.26305 0.148166 4.62142e-20)
(1.33786 0.159171 -8.30337e-20)
(1.36134 0.159584 -3.25094e-20)
(1.35921 0.154202 6.12464e-20)
(1.34685 0.14612 7.51132e-20)
(1.33162 0.136945 -1.08752e-19)
(1.31611 0.127367 3.8648e-20)
(1.30087 0.117733 -4.71897e-20)
(1.28589 0.108007 1.43501e-20)
(1.27149 0.0985594 -2.4033e-20)
(1.25764 0.0891395 3.87637e-20)
(1.24442 0.0803173 -2.48858e-21)
(1.23142 0.0719808 -4.56121e-20)
(1.21859 0.0634823 1.29304e-20)
(1.20602 0.056011 0)
(0.0434193 -0.00116766 4.54412e-20)
(0.305995 0.0059104 -1.04252e-19)
(0.675347 0.0616252 7.42521e-20)
(1.00342 0.124798 1.52305e-20)
(1.21674 0.168161 -8.34883e-20)
(1.3238 0.189079 4.97194e-20)
(1.36156 0.194102 0)
(1.36378 0.190221 0)
(1.35162 0.18222 -2.9542e-20)
(1.33521 0.17259 0)
(1.31829 0.162359 6.21042e-20)
(1.30195 0.151959 -7.18779e-20)
(1.28649 0.141537 6.12129e-20)
(1.27196 0.131332 -2.70502e-20)
(1.25808 0.121311 0)
(1.2447 0.111761 0)
(1.23167 0.102541 0)
(1.21914 0.0936649 -2.65231e-20)
(1.20715 0.0852329 3.00462e-20)
(1.19555 0.0784277 0)
(0.0880693 -0.000683315 2.4375e-20)
(0.435247 0.0287387 -8.87305e-22)
(0.832508 0.109771 0)
(1.12775 0.179172 -7.45954e-21)
(1.28999 0.217336 1.53565e-20)
(1.35502 0.23069 2.30756e-20)
(1.36702 0.229668 -2.10685e-20)
(1.3565 0.221891 -7.92601e-21)
(1.33893 0.211466 7.89276e-21)
(1.32037 0.200132 0)
(1.30267 0.188551 1.94618e-20)
(1.28615 0.177017 -2.19858e-20)
(1.27067 0.16571 -1.39484e-20)
(1.25599 0.154644 1.57627e-20)
(1.24212 0.143988 5.0281e-21)
(1.22904 0.133728 -9.22768e-21)
(1.21677 0.124009 0)
(1.20516 0.114807 0)
(1.19396 0.106118 -1.60948e-20)
(1.18287 0.0993666 9.612e-21)
(0.141395 0.00619909 0)
(0.565316 0.0686143 0)
(0.963955 0.169751 0)
(1.21589 0.238437 -2.72179e-22)
(1.33175 0.268155 -3.6551e-23)
(1.36485 0.273196 5.68269e-22)
(1.35989 0.266321 5.18964e-21)
(1.34198 0.254773 -8.33852e-21)
(1.32165 0.241753 1.3534e-20)
(1.30219 0.228427 -5.99743e-21)
(1.28421 0.215182 0)
(1.26763 0.202216 4.15477e-21)
(1.25232 0.189606 0)
(1.23818 0.177456 -2.96705e-21)
(1.22504 0.165813 5.02464e-21)
(1.21272 0.15478 0)
(1.20113 0.144285 0)
(1.19024 0.134325 0)
(1.17993 0.125369 0)
(1.17003 0.118181 -2.02061e-21)
(0.000190006 0.090515 -4.8692e-21)
(0.00398581 0.241237 0)
(0.00455517 0.344254 0)
(-0.00275256 0.401822 -1.47187e-20)
(-0.014248 0.431548 2.68921e-20)
(-0.0252448 0.449945 6.1719e-23)
(-0.0326083 0.465671 -5.69245e-21)
(-0.0346878 0.480697 -1.05624e-20)
(-0.0306526 0.493623 -2.16583e-22)
(-0.0199981 0.501913 9.23941e-21)
(-0.00240375 0.502798 0)
(0.0223238 0.493623 8.41208e-21)
(0.0541537 0.472081 0)
(0.0926149 0.436487 -7.76683e-21)
(0.136889 0.386047 1.49781e-20)
(0.185733 0.320885 0)
(0.236499 0.241851 0)
(0.290286 0.150598 0)
(0.335602 0.048298 0)
(0.389348 -0.0650482 1.18368e-20)
(-0.00376009 0.0775646 -1.92717e-20)
(-0.00270673 0.223462 3.54414e-20)
(0.00487707 0.335035 0)
(0.00869659 0.403285 5.08804e-20)
(0.00905075 0.43887 -3.99108e-20)
(0.00938628 0.456918 -2.45092e-20)
(0.0129111 0.467745 -3.13673e-22)
(0.0218179 0.475387 5.24193e-20)
(0.0373796 0.479739 -2.91955e-20)
(0.060242 0.478858 0)
(0.0906471 0.470319 0)
(0.128519 0.451874 -8.39535e-21)
(0.173447 0.421744 3.28468e-20)
(0.224497 0.378728 -2.23895e-20)
(0.279911 0.322656 -4.5479e-20)
(0.340021 0.254497 2.80474e-20)
(0.395673 0.173965 0)
(0.461226 0.0853822 0)
(0.505808 -0.0118004 2.59577e-20)
(0.575796 -0.119734 -4.62831e-20)
(-0.00607222 0.0596583 3.79472e-20)
(-0.00915775 0.190968 -1.74441e-20)
(0.00144071 0.305323 -4.00078e-22)
(0.0138232 0.383721 -4.29838e-20)
(0.0253345 0.427925 7.81304e-20)
(0.0373867 0.449003 -4.75197e-20)
(0.052353 0.457341 0)
(0.0724039 0.458836 0)
(0.0990562 0.455239 -3.71437e-20)
(0.133103 0.445855 0)
(0.174719 0.429042 -3.59947e-20)
(0.223566 0.403083 1.29253e-19)
(0.278672 0.366618 -1.23936e-19)
(0.339359 0.319527 5.81824e-20)
(0.401333 0.260279 0)
(0.469684 0.193464 0)
(0.525342 0.114652 0)
(0.602414 0.0328201 1.02289e-19)
(0.643397 -0.0592642 -6.97134e-20)
(0.733462 -0.164259 0)
(-0.00644558 0.040771 -3.79192e-20)
(-0.0139206 0.150203 5.97044e-22)
(-0.00488939 0.259095 -3.12682e-20)
(0.0113607 0.343072 2.81269e-20)
(0.0309986 0.395833 -2.58468e-20)
(0.0534265 0.422654 0)
(0.0794476 0.431869 -4.14041e-20)
(0.110388 0.429983 3.80957e-20)
(0.147448 0.420386 1.76363e-21)
(0.191319 0.40399 -3.60767e-20)
(0.24205 0.380329 9.58972e-20)
(0.299115 0.348773 -6.0079e-20)
(0.361031 0.307838 3.15973e-20)
(0.427498 0.259856 -8.22496e-20)
(0.492646 0.199443 -5.23627e-20)
(0.565425 0.138492 -1.06138e-19)
(0.624527 0.0617293 -3.66877e-21)
(0.71429 -0.0134343 4.7465e-20)
(0.76201 -0.107688 4.28491e-20)
(0.886004 -0.212698 0)
(-0.00544891 0.0243818 -1.47163e-19)
(-0.0167873 0.109032 1.35361e-19)
(-0.0130748 0.2043 0)
(0.00161321 0.285949 -2.67243e-20)
(0.0243677 0.342912 7.31613e-20)
(0.0535363 0.375007 -4.37672e-20)
(0.088366 0.387202 1.62196e-19)
(0.128834 0.385058 -1.86941e-19)
(0.175196 0.372591 1.03643e-19)
(0.227549 0.351986 -3.30531e-20)
(0.28553 0.323942 6.14863e-20)
(0.348426 0.28931 3.29674e-20)
(0.415042 0.24625 -7.90093e-20)
(0.484924 0.199784 -8.0281e-20)
(0.557927 0.140563 2.54262e-19)
(0.639288 0.0850692 -9.4833e-20)
(0.719529 0.00492442 0)
(0.831659 -0.0659259 1.76193e-19)
(0.910826 -0.167864 3.95501e-20)
(1.06643 -0.263203 -1.50309e-19)
(-0.00433724 0.0127244 -7.19861e-20)
(-0.0191364 0.0741853 -3.26348e-20)
(-0.0228582 0.150457 -5.91683e-20)
(-0.0139726 0.221416 0)
(0.00674942 0.275143 -4.85965e-20)
(0.0377424 0.308048 1.29294e-19)
(0.0773208 0.321904 -1.95152e-19)
(0.124216 0.320509 3.62028e-20)
(0.177539 0.307534 -6.53316e-20)
(0.236657 0.28573 8.91341e-20)
(0.301153 0.256632 0)
(0.371304 0.221778 7.99685e-20)
(0.448641 0.179826 4.98861e-20)
(0.534739 0.134634 -1.00603e-19)
(0.633826 0.0760142 9.23654e-20)
(0.744424 0.0199986 9.1983e-20)
(0.868531 -0.062303 -8.45405e-20)
(1.00361 -0.126172 -4.20843e-20)
(1.1164 -0.227138 3.49584e-20)
(1.25536 -0.293642 -1.28646e-19)
(-0.00472448 0.00677968 -7.08783e-20)
(-0.0234748 0.049702 1.30544e-19)
(-0.0351483 0.105325 9.40641e-22)
(-0.0338604 0.159672 1.57112e-19)
(-0.0182623 0.202854 -2.06106e-21)
(0.0107747 0.230357 -1.67465e-19)
(0.0514585 0.241981 1.17859e-21)
(0.102165 0.239978 1.02582e-19)
(0.162088 0.227286 0)
(0.231659 0.206406 -2.93605e-20)
(0.312621 0.178851 -5.62233e-20)
(0.407707 0.145212 2.01287e-19)
(0.51907 0.105105 -9.34196e-20)
(0.647159 0.0592348 -9.09724e-20)
(0.789677 0.00431081 4.72061e-20)
(0.938315 -0.0500312 -4.24344e-20)
(1.08655 -0.120281 0)
(1.21485 -0.170791 0)
(1.31473 -0.252052 1.5455e-19)
(1.37766 -0.282788 -1.17682e-19)
(-0.00812727 0.00664014 -6.94877e-20)
(-0.0320391 0.0368366 -6.48369e-20)
(-0.0506306 0.0732215 -1.72959e-19)
(-0.0557055 0.108865 1.04779e-19)
(-0.0442412 0.137225 0)
(-0.0160436 0.154917 8.12695e-20)
(0.0286294 0.160964 -7.41886e-20)
(0.0901934 0.15666 -3.29335e-20)
(0.170385 0.143899 0)
(0.271464 0.124138 5.537e-20)
(0.394658 0.0985913 -5.2808e-20)
(0.538682 0.0673508 1.34439e-21)
(0.698507 0.032223 1.81395e-21)
(0.865769 -0.00826327 -1.3278e-19)
(1.02874 -0.0502589 -8.28488e-20)
(1.17576 -0.0947687 2.69286e-19)
(1.29199 -0.142051 3.24733e-20)
(1.36963 -0.178117 -1.96428e-19)
(1.40238 -0.230711 5.51407e-20)
(1.38659 -0.23875 0)
(-0.0151294 0.0113027 2.45201e-22)
(-0.0446863 0.0344128 -6.4033e-20)
(-0.0663159 0.0552018 1.15743e-19)
(-0.0717084 0.073549 0)
(-0.05614 0.0871017 0)
(-0.0167261 0.0940444 0)
(0.0491385 0.0933553 0)
(0.144425 0.0857722 1.64436e-19)
(0.270073 0.0725932 -1.20199e-19)
(0.423466 0.0551314 -5.54264e-20)
(0.597286 0.0346223 5.13955e-20)
(0.780347 0.0112467 4.86806e-20)
(0.95928 -0.0133956 -4.59071e-20)
(1.11968 -0.0416811 1.27479e-19)
(1.2503 -0.0684374 -1.91791e-19)
(1.34024 -0.100826 1.08394e-19)
(1.38726 -0.127489 9.14612e-20)
(1.39541 -0.155303 -3.39813e-19)
(1.37065 -0.185296 1.4871e-19)
(1.33681 -0.189006 -4.04417e-20)
(-0.024331 0.0183501 -8.30856e-23)
(-0.0575012 0.0388593 1.92367e-19)
(-0.0745646 0.0489049 -1.74394e-19)
(-0.0679954 0.0541809 -1.03148e-19)
(-0.0317968 0.0560837 9.39839e-20)
(0.0399463 0.0539 0)
(0.150493 0.0475419 0)
(0.299132 0.0382409 -1.33773e-19)
(0.478225 0.0274627 3.24585e-22)
(0.673869 0.0160477 1.11603e-19)
(0.868921 0.00405007 -5.14598e-20)
(1.04655 -0.00894631 -9.47899e-20)
(1.19238 -0.0236146 1.87116e-22)
(1.29734 -0.0410013 7.95903e-20)
(1.35852 -0.0589177 0)
(1.37869 -0.082098 -9.2201e-20)
(1.37174 -0.0974747 2.26899e-19)
(1.34689 -0.125108 4.84761e-20)
(1.32327 -0.137698 -1.36409e-19)
(1.30535 -0.154237 4.05557e-20)
(0.434093 -0.20628 -8.09377e-21)
(0.48486 -0.402954 2.46906e-22)
(0.537647 -0.608523 -2.23245e-22)
(0.581699 -0.783198 1.90565e-22)
(0.603791 -0.895342 0)
(0.596194 -0.939987 -3.69496e-21)
(0.57792 -0.91206 3.56645e-21)
(0.563536 -0.841685 -2.67802e-21)
(0.515221 -0.813618 2.66612e-21)
(0.42937 -0.841464 -1.5209e-22)
(0.358497 -0.82277 0)
(0.353468 -0.652846 3.43528e-21)
(0.392535 -0.351617 -6.95553e-21)
(0.437396 0.00385902 7.24131e-21)
(0.478665 0.344479 -6.45624e-21)
(0.52055 0.590019 2.95405e-21)
(0.554513 0.712804 0)
(0.574885 0.738658 -1.5545e-21)
(0.594774 0.708857 1.40829e-21)
(0.58322 0.692116 1.12106e-21)
(0.514952 0.701811 -1.08256e-21)
(0.44064 0.647159 1.05797e-21)
(0.420368 0.450355 -1.00016e-21)
(0.4594 0.157744 0)
(0.537533 -0.116478 0)
(0.624287 -0.289082 0)
(0.699521 -0.361933 0)
(0.750248 -0.369719 1.73416e-22)
(0.78126 -0.349779 -9.38737e-23)
(0.798209 -0.31252 0)
(0.80416 -0.276935 -3.7268e-23)
(0.801097 -0.241655 0)
(0.799095 -0.208257 -1.40475e-23)
(0.801655 -0.16357 4.56144e-23)
(0.810126 -0.118589 1.66567e-23)
(0.824078 -0.0776189 -2.27613e-23)
(0.844772 -0.0571596 -8.30338e-24)
(0.869885 -0.049122 1.36927e-24)
(0.895811 -0.0509463 -2.53035e-24)
(0.918519 -0.0431504 -2.57987e-25)
(0.93608 -0.0280117 -1.36761e-25)
(0.949117 -0.000459874 6.78689e-24)
(0.958959 0.0263054 0)
(0.966859 0.0520794 0)
(0.973097 0.0686568 0)
(0.978452 0.0804909 -3.50687e-24)
(0.982147 0.0855135 1.43739e-25)
(0.98571 0.0882601 -2.70175e-24)
(0.987376 0.0888833 -1.8511e-24)
(0.990099 0.0884432 -3.85851e-26)
(0.617489 -0.25554 3.27339e-20)
(0.668533 -0.45056 -3.21737e-20)
(0.724555 -0.652764 2.75024e-20)
(0.758684 -0.817728 -3.39505e-21)
(0.758916 -0.903686 -3.94232e-20)
(0.724889 -0.92013 1.70074e-20)
(0.663312 -0.889773 0)
(0.611777 -0.811025 -8.43784e-23)
(0.555228 -0.748787 0)
(0.462785 -0.759028 -1.02656e-22)
(0.36116 -0.769612 -1.03698e-20)
(0.308591 -0.652943 9.70978e-21)
(0.312693 -0.381549 0)
(0.342339 -0.0369131 -5.62858e-22)
(0.386329 0.29519 -3.27319e-22)
(0.439956 0.542047 0)
(0.487403 0.678648 6.63499e-21)
(0.53046 0.716997 -1.21422e-20)
(0.570331 0.705186 5.42744e-21)
(0.561991 0.717753 0)
(0.500177 0.744697 0)
(0.448018 0.677855 1.55064e-22)
(0.449165 0.452321 -6.66054e-21)
(0.502304 0.133053 2.40987e-22)
(0.586689 -0.15703 5.44513e-21)
(0.670901 -0.330709 0)
(0.738807 -0.393363 1.12961e-21)
(0.781685 -0.389083 -9.72785e-22)
(0.805354 -0.360879 -7.3888e-23)
(0.817218 -0.318234 1.11474e-22)
(0.821325 -0.27847 -4.10874e-23)
(0.817519 -0.241477 -5.58162e-23)
(0.81463 -0.209152 -1.91484e-22)
(0.817175 -0.166314 8.8445e-23)
(0.825723 -0.122714 0)
(0.837824 -0.0830199 6.52997e-23)
(0.854662 -0.0637821 -2.07859e-23)
(0.875706 -0.0563138 -2.51196e-23)
(0.898937 -0.0576849 -5.01446e-24)
(0.920388 -0.0486203 3.99868e-24)
(0.937283 -0.0321002 0)
(0.94981 -0.00347489 -1.30717e-23)
(0.959205 0.024005 8.29532e-24)
(0.966972 0.0503022 -7.28298e-24)
(0.973081 0.0672746 5.21787e-25)
(0.978467 0.0794632 2.85132e-24)
(0.982049 0.0847411 4.33916e-24)
(0.985642 0.0877224 -3.03068e-24)
(0.98722 0.0884618 2.04732e-24)
(0.990007 0.0881794 -1.51012e-25)
(0.775553 -0.297346 0)
(0.832354 -0.483797 -5.79581e-20)
(0.889405 -0.666518 5.58957e-20)
(0.90782 -0.810723 -4.2054e-20)
(0.878664 -0.876773 4.05558e-20)
(0.822069 -0.867234 2.34699e-22)
(0.739775 -0.832699 0)
(0.660382 -0.769277 -1.79638e-20)
(0.595958 -0.69021 1.70738e-20)
(0.505207 -0.672384 4.67665e-22)
(0.385329 -0.698011 0)
(0.292027 -0.63824 5.3106e-22)
(0.261756 -0.415421 2.03654e-20)
(0.275042 -0.0904961 -1.9053e-20)
(0.316286 0.233378 1.77867e-20)
(0.374032 0.485693 -3.18518e-20)
(0.433155 0.635453 2.68984e-20)
(0.498262 0.687786 -1.2143e-20)
(0.552609 0.699652 0)
(0.553094 0.740112 3.03395e-22)
(0.509362 0.7773 -3.3652e-22)
(0.477286 0.699965 3.95994e-22)
(0.494632 0.454055 4.03905e-22)
(0.559281 0.114813 0)
(0.646488 -0.188352 -5.20638e-21)
(0.724881 -0.363942 5.02709e-21)
(0.782514 -0.419108 0)
(0.815588 -0.404874 1.41961e-22)
(0.831129 -0.369967 -1.75888e-22)
(0.837219 -0.323413 -2.32038e-22)
(0.838631 -0.280333 7.89689e-23)
(0.833778 -0.241716 -3.38098e-22)
(0.829687 -0.210504 1.49185e-22)
(0.831507 -0.169729 2.88697e-22)
(0.839826 -0.127255 3.63054e-23)
(0.850757 -0.0880385 -1.2945e-23)
(0.864524 -0.0694094 -3.79675e-23)
(0.881899 -0.0625548 5.03148e-23)
(0.902563 -0.0639403 -2.33954e-25)
(0.923142 -0.0540141 -8.39934e-24)
(0.93988 -0.036258 -7.55741e-24)
(0.952146 -0.00654173 7.50833e-24)
(0.960895 0.0216786 2.99385e-23)
(0.968106 0.0485103 -8.44159e-25)
(0.97368 0.0658861 -6.76572e-24)
(0.978812 0.0784405 0)
(0.982118 0.0839787 -1.27913e-23)
(0.985654 0.0871932 4.96355e-24)
(0.987106 0.0880451 1.20613e-24)
(0.989934 0.0879107 1.14471e-24)
(0.932511 -0.342592 -4.37193e-22)
(0.994143 -0.513895 4.03897e-22)
(1.04431 -0.667188 -4.07926e-22)
(1.04201 -0.774476 -3.45241e-22)
(0.980438 -0.820311 0)
(0.895111 -0.801276 3.87157e-22)
(0.801 -0.759987 0)
(0.703607 -0.716156 2.78139e-22)
(0.632514 -0.642825 -1.32607e-20)
(0.556898 -0.590215 2.46728e-20)
(0.437095 -0.6029 -1.15096e-20)
(0.310338 -0.592896 9.23712e-23)
(0.240894 -0.439144 -2.61964e-22)
(0.233286 -0.15366 -3.99681e-22)
(0.267176 0.158485 1.48138e-20)
(0.325693 0.41589 -2.35578e-21)
(0.396304 0.578227 -1.181e-20)
(0.479031 0.647043 -9.31181e-21)
(0.546364 0.682114 9.29893e-21)
(0.556326 0.747594 -3.07621e-22)
(0.522027 0.802446 3.41116e-22)
(0.508484 0.725288 -4.01285e-22)
(0.548202 0.464201 -9.9057e-22)
(0.626947 0.106433 -1.37256e-20)
(0.71638 -0.210731 1.42282e-20)
(0.78659 -0.390236 8.33732e-21)
(0.831164 -0.440299 -8.04819e-21)
(0.852415 -0.417759 2.15553e-23)
(0.858704 -0.377194 -2.34052e-21)
(0.858258 -0.327849 4.39801e-21)
(0.856223 -0.282209 -1.65752e-21)
(0.849839 -0.242058 -8.25288e-22)
(0.844202 -0.211933 7.96931e-22)
(0.844731 -0.173462 0)
(0.852386 -0.132107 9.07985e-23)
(0.862438 -0.0927915 -1.23053e-22)
(0.873792 -0.0741669 -3.8808e-23)
(0.887912 -0.0678753 1.40851e-23)
(0.905989 -0.0697456 1.02788e-23)
(0.92576 -0.0594448 0)
(0.942732 -0.0406202 3.72988e-23)
(0.955223 -0.00972795 -3.62417e-23)
(0.963516 0.0193456 -1.49014e-23)
(0.970049 0.0467699 0)
(0.974835 0.0645575 1.1507e-23)
(0.979483 0.0774694 -1.11224e-23)
(0.98236 0.0832535 4.80658e-24)
(0.985751 0.0866867 3.52983e-24)
(0.987034 0.0876406 0)
(0.989879 0.0876399 -1.14297e-24)
(1.10642 -0.382389 1.05544e-19)
(1.15388 -0.522172 -1.02151e-19)
(1.17542 -0.63593 -6.40901e-22)
(1.14067 -0.70315 0)
(1.05723 -0.725258 0)
(0.95339 -0.711597 -3.96067e-22)
(0.856958 -0.676067 0)
(0.756389 -0.647574 2.69464e-20)
(0.668849 -0.602264 -2.62067e-20)
(0.605494 -0.534784 0)
(0.509318 -0.512645 -1.59962e-22)
(0.369122 -0.522528 1.76911e-20)
(0.256458 -0.441698 -1.75969e-20)
(0.21677 -0.214333 1.52423e-22)
(0.234321 0.0768525 1.03745e-20)
(0.290079 0.336448 -1.88925e-20)
(0.372742 0.509575 8.91763e-21)
(0.471517 0.592559 0)
(0.547598 0.65274 -8.9294e-21)
(0.566055 0.749467 8.07046e-21)
(0.55649 0.818843 0)
(0.567109 0.738879 -1.55628e-20)
(0.617753 0.472995 1.49789e-20)
(0.702839 0.104221 5.41484e-23)
(0.792292 -0.223205 0)
(0.853036 -0.407101 0)
(0.882766 -0.454859 6.62636e-21)
(0.890896 -0.426613 -6.2302e-21)
(0.887338 -0.382065 0)
(0.879925 -0.331355 -1.30688e-22)
(0.873986 -0.284079 0)
(0.865754 -0.242481 0)
(0.858284 -0.213295 5.91313e-22)
(0.857003 -0.177334 -6.30044e-22)
(0.863501 -0.137261 0)
(0.87279 -0.097474 2.17304e-22)
(0.882368 -0.078253 -1.6376e-22)
(0.893781 -0.0723129 -1.54093e-23)
(0.909273 -0.0750334 -3.9175e-23)
(0.928 -0.0648963 3.78162e-23)
(0.945229 -0.0452764 0)
(0.958318 -0.0131487 0)
(0.966502 0.0169581 0)
(0.972475 0.045095 1.24149e-23)
(0.976396 0.0633274 -3.57065e-23)
(0.980424 0.0765851 1.0023e-23)
(0.982753 0.0825889 9.2465e-25)
(0.985926 0.0862154 9.31471e-24)
(0.987001 0.0872548 -2.32089e-24)
(0.989841 0.0873694 0)
(1.26543 -0.396095 7.03626e-21)
(1.27475 -0.49638 1.732e-19)
(1.25684 -0.570519 -8.00387e-20)
(1.18955 -0.615491 -6.21574e-20)
(1.09784 -0.628053 5.94872e-20)
(0.997132 -0.623342 0)
(0.904284 -0.601014 3.11842e-20)
(0.817659 -0.574791 -2.98544e-20)
(0.722666 -0.55168 -1.9044e-20)
(0.64879 -0.496517 1.822e-20)
(0.581338 -0.439201 0)
(0.462697 -0.433887 2.22981e-22)
(0.320242 -0.411938 0)
(0.23764 -0.26193 1.31339e-20)
(0.23116 -0.00818207 -2.53918e-20)
(0.276062 0.243052 1.25162e-20)
(0.360743 0.420748 0)
(0.466188 0.521909 1.49803e-22)
(0.552118 0.608398 0)
(0.588936 0.723251 8.35367e-23)
(0.588364 0.812083 0)
(0.602221 0.760198 0)
(0.671868 0.500697 -3.37864e-20)
(0.775358 0.120639 5.0728e-20)
(0.870804 -0.220739 -3.05485e-20)
(0.923065 -0.413505 1.34506e-20)
(0.936934 -0.462832 -4.79981e-22)
(0.930846 -0.431688 4.75209e-21)
(0.916916 -0.384663 -4.26016e-21)
(0.902108 -0.333797 -1.98157e-21)
(0.8918 -0.285837 5.61134e-22)
(0.881489 -0.242905 1.30162e-21)
(0.872068 -0.214374 -6.28229e-22)
(0.868601 -0.181047 6.66106e-22)
(0.873429 -0.142579 0)
(0.881853 -0.102212 1.72023e-22)
(0.890098 -0.0818863 -6.33136e-23)
(0.899381 -0.0759622 -1.45951e-22)
(0.912452 -0.0797245 0)
(0.929888 -0.0702698 -1.74508e-23)
(0.947146 -0.0502273 2.78879e-23)
(0.960974 -0.016876 -2.68942e-23)
(0.969372 0.0144395 0)
(0.975033 0.0434537 1.26933e-23)
(0.978162 0.0622008 3.32684e-23)
(0.981536 0.0758047 -2.18399e-23)
(0.983256 0.0820004 -1.69006e-23)
(0.986161 0.0857889 0)
(0.986999 0.0868929 0)
(0.989817 0.0871012 -2.17902e-24)
(1.34999 -0.365025 -8.08748e-20)
(1.32 -0.431198 7.82316e-20)
(1.27446 -0.475923 0)
(1.19849 -0.510828 6.28009e-23)
(1.114 -0.530062 -3.73327e-22)
(1.03126 -0.536941 0)
(0.947102 -0.533266 0)
(0.870359 -0.512397 1.91083e-22)
(0.788477 -0.493414 1.54257e-23)
(0.700742 -0.465482 1.22278e-20)
(0.636731 -0.400471 -1.16468e-20)
(0.559883 -0.352692 0)
(0.427793 -0.344264 0)
(0.303187 -0.27545 4.68549e-23)
(0.26225 -0.0828627 -4.84422e-23)
(0.294754 0.149052 0)
(0.373904 0.330196 7.0238e-21)
(0.475497 0.442831 -6.92409e-21)
(0.563169 0.546308 -1.232e-20)
(0.60582 0.691957 1.24894e-20)
(0.622996 0.811401 0)
(0.670594 0.765785 -3.13989e-20)
(0.748572 0.513468 3.01951e-20)
(0.849496 0.13372 -3.4717e-20)
(0.946902 -0.21578 3.79443e-21)
(0.992344 -0.413277 2.94173e-20)
(0.991331 -0.464167 1.44036e-20)
(0.971079 -0.432357 -1.42212e-20)
(0.946851 -0.384527 0)
(0.924584 -0.334751 0)
(0.909531 -0.287202 0)
(0.896923 -0.243226 1.47442e-22)
(0.885563 -0.215031 0)
(0.879748 -0.184335 -4.44784e-22)
(0.882508 -0.147825 6.80843e-22)
(0.88984 -0.106976 -3.16308e-22)
(0.896954 -0.0852038 4.4512e-23)
(0.904558 -0.0789534 1.659e-23)
(0.915457 -0.0838016 1.00199e-22)
(0.931466 -0.0754458 -6.64908e-23)
(0.948465 -0.0553912 0)
(0.962983 -0.0209322 1.31438e-23)
(0.971803 0.0117259 1.32199e-23)
(0.977424 0.0417945 0)
(0.979927 0.0611579 0)
(0.982706 0.0751283 0)
(0.983811 0.0814949 6.94594e-24)
(0.986431 0.0854131 -7.71549e-24)
(0.987015 0.0865588 -4.50631e-24)
(0.989801 0.0868369 2.1724e-24)
(1.33935 -0.304484 7.26286e-20)
(1.2974 -0.350444 -7.01858e-20)
(1.25176 -0.387382 6.01458e-20)
(1.19336 -0.422804 -5.77174e-20)
(1.12945 -0.450951 3.90246e-22)
(1.06396 -0.465605 0)
(0.992926 -0.470364 -2.42457e-22)
(0.918801 -0.461996 -3.88972e-22)
(0.849491 -0.439182 -1.56946e-20)
(0.76913 -0.420717 1.54026e-20)
(0.690387 -0.383685 -6.99276e-21)
(0.633944 -0.314025 3.03566e-21)
(0.548369 -0.27119 3.40283e-21)
(0.416308 -0.246445 -4.87507e-23)
(0.323246 -0.14173 5.03707e-23)
(0.326698 0.0468571 1.27711e-21)
(0.400671 0.227843 -4.00627e-21)
(0.500063 0.356641 -2.6753e-21)
(0.579854 0.477247 5.00046e-21)
(0.621088 0.630122 -1.3964e-20)
(0.654703 0.7617 1.35843e-20)
(0.694199 0.770112 0)
(0.767721 0.567616 3.439e-20)
(0.89517 0.1902 -7.00915e-20)
(1.01577 -0.179583 3.56195e-20)
(1.06176 -0.394265 -2.32594e-20)
(1.04645 -0.454301 2.16093e-20)
(1.01149 -0.426841 -1.01586e-20)
(0.976872 -0.380895 9.52367e-21)
(0.94723 -0.333739 4.57692e-21)
(0.927129 -0.287888 -4.28884e-21)
(0.911957 -0.243353 8.3116e-22)
(0.898697 -0.21523 -9.12475e-22)
(0.890524 -0.187113 0)
(0.890996 -0.152932 4.53721e-23)
(0.897033 -0.111765 3.10004e-23)
(0.903096 -0.0882604 -1.93535e-22)
(0.909315 -0.0813509 1.82557e-22)
(0.918273 -0.0873038 8.07605e-23)
(0.932803 -0.0803979 -1.00088e-22)
(0.949273 -0.0606952 0)
(0.964318 -0.0253438 -6.7612e-23)
(0.973639 0.00875557 6.47997e-23)
(0.979448 0.0400586 -1.41989e-24)
(0.981524 0.0601618 -2.2583e-23)
(0.983827 0.0745377 0)
(0.98436 0.081067 6.88202e-24)
(0.986708 0.0850869 -6.56326e-24)
(0.987037 0.0862535 -3.40802e-24)
(0.98979 0.0865774 0)
(1.29921 -0.246172 6.87041e-20)
(1.27096 -0.282659 -6.6186e-20)
(1.23953 -0.318322 -5.71872e-20)
(1.19734 -0.354451 1.0601e-19)
(1.14744 -0.383691 -9.19267e-20)
(1.08973 -0.403424 4.1851e-20)
(1.02765 -0.410942 2.55281e-22)
(0.960868 -0.411528 1.99416e-22)
(0.894939 -0.398765 -1.48301e-22)
(0.831272 -0.373898 5.26114e-23)
(0.756817 -0.351508 6.60935e-23)
(0.689971 -0.30396 -3.43789e-23)
(0.637743 -0.230283 -8.82339e-22)
(0.549844 -0.181149 8.28209e-22)
(0.43414 -0.132197 0)
(0.37948 -0.0156535 -1.42429e-23)
(0.416381 0.13448 2.3911e-23)
(0.502965 0.268658 0)
(0.591235 0.403032 -5.62665e-21)
(0.65513 0.574166 5.26703e-21)
(0.69258 0.737221 1.74564e-22)
(0.746634 0.75765 2.6691e-20)
(0.847313 0.550272 -2.56687e-20)
(0.966523 0.186831 -6.3269e-22)
(1.08211 -0.170327 -3.19158e-20)
(1.1232 -0.381031 3.01936e-20)
(1.09686 -0.443719 0)
(1.04969 -0.420461 0)
(1.00588 -0.376994 -7.08065e-21)
(0.969565 -0.332899 7.15238e-21)
(0.944473 -0.289427 5.83148e-24)
(0.926554 -0.244507 8.15734e-23)
(0.911425 -0.215817 1.40068e-21)
(0.900961 -0.189858 -1.54994e-21)
(0.89906 -0.158275 -3.49099e-22)
(0.903695 -0.117 3.35358e-22)
(0.908771 -0.0914031 0)
(0.913786 -0.083298 1.19649e-22)
(0.920954 -0.0901926 -1.33152e-22)
(0.933985 -0.085127 -5.67524e-25)
(0.949709 -0.0662447 5.97242e-23)
(0.965081 -0.0300222 -5.04654e-23)
(0.974888 0.00556034 0)
(0.981024 0.0382207 0)
(0.982852 0.0591968 -2.09799e-23)
(0.98482 0.0740305 2.01255e-23)
(0.984857 0.08072 6.84373e-24)
(0.986968 0.0848127 -8.99798e-25)
(0.987053 0.0859776 1.70746e-24)
(0.989778 0.0863231 0)
(1.28299 -0.203592 -1.39005e-22)
(1.2656 -0.231649 0)
(1.23974 -0.263231 5.63316e-20)
(1.20271 -0.29728 -1.04639e-19)
(1.15887 -0.326655 4.83021e-20)
(1.10924 -0.350814 -1.58419e-22)
(1.05536 -0.366682 0)
(0.999798 -0.373286 0)
(0.939602 -0.372928 0)
(0.880954 -0.358041 -5.57902e-23)
(0.821897 -0.333823 -7.28915e-21)
(0.751903 -0.304395 7.0119e-21)
(0.692917 -0.248146 -7.92598e-22)
(0.642834 -0.177202 7.84681e-22)
(0.560659 -0.119764 0)
(0.471767 -0.050467 3.60253e-23)
(0.446047 0.0537529 3.75945e-21)
(0.489478 0.169831 -4.66719e-21)
(0.563747 0.297598 3.54533e-21)
(0.62616 0.470126 -9.64243e-21)
(0.681212 0.656658 6.72024e-21)
(0.759755 0.752113 2.26627e-20)
(0.824364 0.642124 -2.17735e-20)
(0.965654 0.297537 -5.49989e-22)
(1.13223 -0.0931763 5.34048e-22)
(1.18318 -0.335583 -2.38447e-20)
(1.14679 -0.419821 2.28974e-20)
(1.08787 -0.409419 0)
(1.03491 -0.371159 -7.8981e-21)
(0.992078 -0.330414 1.28432e-20)
(0.961958 -0.289932 -5.27225e-21)
(0.941067 -0.245391 0)
(0.923988 -0.215869 6.07347e-23)
(0.911262 -0.191592 4.10297e-23)
(0.906895 -0.162874 7.58765e-22)
(0.910033 -0.122209 -7.27596e-22)
(0.914207 -0.094686 0)
(0.918171 -0.0849795 -1.49777e-22)
(0.923615 -0.092405 1.43546e-22)
(0.935051 -0.0892262 8.97367e-23)
(0.949914 -0.0716542 -7.56185e-23)
(0.965459 -0.0352828 -6.95862e-24)
(0.975631 0.00159689 0)
(0.982158 0.0359544 0)
(0.983878 0.0580308 -2.11054e-23)
(0.985644 0.0734649 2.01999e-23)
(0.985269 0.0803831 0)
(0.987194 0.0845609 0)
(0.987057 0.0857189 2.82629e-24)
(0.989766 0.0860677 -1.08061e-24)
(1.26127 -0.151707 0)
(1.25402 -0.177713 0)
(1.23074 -0.20226 0)
(1.19794 -0.226529 0)
(1.16064 -0.249919 0)
(1.12127 -0.270882 0)
(1.07762 -0.287189 0)
(1.03188 -0.296188 0)
(0.982167 -0.297821 0)
(0.926274 -0.291393 0)
(0.874654 -0.273127 0)
(0.818286 -0.24649 0)
(0.753372 -0.208557 0)
(0.707156 -0.148247 0)
(0.659663 -0.0797342 0)
(0.577708 -0.0204693 0)
(0.5051 0.0410519 0)
(0.493218 0.118617 0)
(0.542853 0.231119 0)
(0.623514 0.397845 0)
(0.71875 0.580122 0)
(0.788499 0.683998 0)
(0.869023 0.568065 0)
(1.06322 0.236994 0)
(1.20633 -0.0956557 0)
(1.22908 -0.292248 0)
(1.18447 -0.368386 0)
(1.12092 -0.368349 0)
(1.0624 -0.341231 0)
(1.01418 -0.309858 0)
(0.979147 -0.277368 0)
(0.955142 -0.237232 0)
(0.936141 -0.209448 0)
(0.921324 -0.188206 0)
(0.914406 -0.163354 0)
(0.915848 -0.124509 0)
(0.919209 -0.0961508 0)
(0.922408 -0.0855261 0)
(0.926379 -0.0937058 0)
(0.936142 -0.0924102 0)
(0.949845 -0.0760091 0)
(0.965403 -0.0393486 0)
(0.976064 -0.00107667 0)
(0.98303 0.0345299 0)
(0.984675 0.0574429 0)
(0.986308 0.0732673 0)
(0.98561 0.0802709 0)
(0.987388 0.0844404 0)
(0.987067 0.0855426 0)
(0.989758 0.0858444 0)
(1.23069 -0.133752 0)
(1.22682 -0.163805 0)
(1.20578 -0.191715 0)
(1.17414 -0.217802 0)
(1.13832 -0.241297 0)
(1.10056 -0.261567 0)
(1.05995 -0.275756 0)