/*--------------------------------*- C++ -*----------------------------------*\
| =========                 |                                                 |
| \\      /  F ield         | OpenFOAM: The Open Source CFD Toolbox           |
|  \\    /   O peration     | Version:  2312                                  |
|   \\  /    A nd           | Website:  www.openfoam.com                      |
|    \\/     M anipulation  |                                                 |
\*---------------------------------------------------------------------------*/
FoamFile
{
    version     2.0;
    format      ascii;
    arch        "LSB;label=32;scalar=64";
    class       volVectorField;
    location    "23.5";
    object      U;
}
// * * * * * * * * * * * * * * * * * * * * * * * * * * * * * * * * * * * * * //

dimensions      [0 1 -1 0 0 0 0];

internalField   nonuniform List<vector> 
9200
(
(-0.217373 0.0205064 1.48692e-19)
(-0.275204 0.353117 -2.67278e-19)
(-0.363824 0.46093 1.26387e-19)
(-0.437549 0.364676 2.0108e-19)
(0.750794 0.107827 -1.82293e-19)
(1.36445 -0.123998 0)
(1.59381 -0.249818 0)
(1.63715 -0.321213 2.45135e-19)
(1.60708 -0.3564 -1.96471e-20)
(1.54312 -0.37342 -1.86279e-19)
(1.48526 -0.384855 -6.96557e-20)
(1.4398 -0.394615 1.15639e-19)
(1.38294 -0.393548 -1.08547e-20)
(1.31781 -0.39681 -8.70637e-20)
(1.28408 -0.391089 0)
(1.25504 -0.376487 1.31015e-19)
(1.2167 -0.373488 -1.80052e-19)
(1.1476 -0.37929 4.51252e-20)
(1.10422 -0.342754 3.39366e-20)
(1.0446 -0.372088 2.05606e-20)
(-0.148359 0.0722772 -4.5071e-21)
(-0.174223 0.308314 1.28156e-19)
(-0.817595 0.351469 2.14487e-19)
(0.348884 0.198032 0)
(1.20508 -0.0107872 0)
(1.55523 -0.129851 0)
(1.63983 -0.207004 0)
(1.63217 -0.249294 -1.64125e-19)
(1.57531 -0.28033 1.99195e-19)
(1.51826 -0.297559 7.58125e-20)
(1.47681 -0.309014 -6.83675e-20)
(1.43172 -0.313549 5.17267e-20)
(1.38105 -0.320561 -4.2743e-20)
(1.32611 -0.324555 -3.51075e-20)
(1.28816 -0.326724 2.08173e-19)
(1.25334 -0.327179 -1.31475e-19)
(1.20504 -0.321387 -1.90007e-20)
(1.15593 -0.310208 -4.39584e-21)
(1.12529 -0.314658 -2.86693e-20)
(1.10229 -0.291891 -2.05157e-20)
(-0.0486871 0.109153 -1.40769e-19)
(-0.504504 0.197943 -1.19293e-19)
(-0.464866 0.200288 8.72758e-20)
(0.928785 0.112244 -1.68649e-19)
(1.45551 -0.0208799 0)
(1.61534 -0.0944331 0)
(1.63619 -0.142 0)
(1.60073 -0.175197 -5.41645e-20)
(1.55028 -0.205099 0)
(1.50655 -0.217466 7.49958e-20)
(1.46005 -0.233056 -5.66581e-20)
(1.40872 -0.249635 -1.91661e-19)
(1.36585 -0.250023 1.66618e-19)
(1.31396 -0.253713 2.8197e-20)
(1.2994 -0.256822 -6.07653e-20)
(1.24947 -0.260353 -1.05277e-19)
(1.19904 -0.250168 2.84982e-20)
(1.16273 -0.249135 1.46664e-19)
(1.14283 -0.229889 -7.1982e-20)
(1.09813 -0.247892 0)
(-0.242968 0.0648791 1.25487e-19)
(-0.778004 -0.0237009 2.23909e-19)
(0.628106 0.152785 1.85976e-19)
(1.31768 0.0402437 -2.50284e-19)
(1.57463 -0.003424 3.70705e-21)
(1.62987 -0.0416455 2.61544e-19)
(1.61356 -0.07767 -1.15672e-19)
(1.57943 -0.112886 4.48953e-20)
(1.53536 -0.135741 0)
(1.48446 -0.156 -3.12728e-20)
(1.44343 -0.166031 1.60156e-19)
(1.41057 -0.177091 -1.76797e-19)
(1.3656 -0.185177 -6.65768e-20)
(1.3162 -0.190473 6.46764e-20)
(1.28013 -0.187885 -7.37551e-20)
(1.2531 -0.194925 6.49938e-20)
(1.22248 -0.202629 0)
(1.18856 -0.193031 0)
(1.14959 -0.185737 1.17648e-20)
(1.13726 -0.182079 0)
(-0.565678 0.123074 1.1038e-19)
(-0.231939 0.021203 -1.55161e-19)
(1.00617 0.16176 -1.83055e-19)
(1.45492 0.0654796 0)
(1.59836 0.0300051 -6.84794e-20)
(1.60134 -0.00249257 -5.83774e-20)
(1.57812 -0.032944 1.55286e-19)
(1.54438 -0.0523015 -1.34533e-19)
(1.49337 -0.0757576 6.88853e-20)
(1.46279 -0.0923769 -3.16366e-20)
(1.43027 -0.109586 0)
(1.39171 -0.128287 6.31943e-20)
(1.35869 -0.138217 3.57703e-20)
(1.31512 -0.138805 5.41685e-20)
(1.30275 -0.139745 -4.9664e-20)
(1.25994 -0.141677 -3.62567e-20)
(1.22006 -0.141273 3.32852e-20)
(1.19354 -0.138314 -1.22158e-20)
(1.17472 -0.140065 1.04374e-20)
(1.16905 -0.140373 2.96031e-20)
(-0.515661 -0.124164 2.65427e-19)
(0.703295 0.15192 -5.84761e-21)
(1.36104 0.103749 0)
(1.5781 0.0696419 1.14938e-19)
(1.59925 0.0671216 -3.31182e-20)
(1.57197 0.0371321 -5.81921e-20)
(1.5475 0.0176003 3.80659e-21)
(1.51445 -0.0117989 4.45573e-20)
(1.4771 -0.0320629 3.20297e-20)
(1.44635 -0.045904 -2.6761e-20)
(1.40963 -0.0619742 -4.41687e-20)
(1.37143 -0.0657779 -5.27104e-20)
(1.33647 -0.0766919 8.23041e-20)
(1.30173 -0.0893942 6.25466e-20)
(1.28461 -0.0978982 -6.58308e-20)
(1.24139 -0.10244 3.76298e-20)
(1.20779 -0.100229 0)
(1.20617 -0.109617 1.53141e-21)
(1.18195 -0.102386 -2.43904e-20)
(1.13692 -0.10156 3.26298e-20)
(-0.674888 -0.164189 -5.34024e-20)
(1.08322 0.195211 -2.12751e-21)
(1.43358 0.200107 -4.556e-20)
(1.56436 0.141137 -1.10173e-19)
(1.57774 0.119203 9.72957e-20)
(1.54793 0.0868418 5.01723e-20)
(1.51991 0.0610168 -9.11995e-20)
(1.49148 0.0413925 -3.25414e-20)
(1.45286 0.0243175 6.23316e-20)
(1.41915 0.0081803 7.61817e-20)
(1.39191 -0.00986665 -1.06947e-19)
(1.37002 -0.0253398 3.75655e-20)
(1.33663 -0.0303608 -4.35535e-20)
(1.29787 -0.0370981 1.31761e-20)
(1.27565 -0.0371387 -2.09289e-20)
(1.25657 -0.0485 3.14451e-20)
(1.22553 -0.0491774 -3.3021e-21)
(1.1969 -0.0451058 -3.48193e-20)
(1.16424 -0.0596893 9.11419e-21)
(1.16609 -0.062336 0)
(-0.297597 0.338664 5.34028e-20)
(1.19892 0.293793 -1.27765e-19)
(1.54937 0.31765 8.94834e-20)
(1.57497 0.186164 1.6226e-20)
(1.53477 0.170404 -8.50132e-20)
(1.50726 0.133897 5.01308e-20)
(1.48759 0.109265 0)
(1.46014 0.0868173 0)
(1.42709 0.061693 -2.9803e-20)
(1.40586 0.0508172 0)
(1.38161 0.0317127 5.89162e-20)
(1.34455 0.0193961 -6.65553e-20)
(1.31434 0.00951256 5.51275e-20)
(1.28107 0.00277638 -2.39675e-20)
(1.27512 -0.00962527 0)
(1.24182 -0.0155735 0)
(1.20843 -0.0149722 0)
(1.20655 -0.0222869 -1.93952e-20)
(1.18361 -0.0130302 2.17642e-20)
(1.14837 -0.0140247 0)
(0.668394 0.342322 1.65497e-20)
(1.45063 0.151785 5.83849e-21)
(1.48496 0.284529 0)
(1.52817 0.203166 -6.6487e-21)
(1.50817 0.192358 1.50335e-20)
(1.48263 0.153781 2.19434e-20)
(1.46043 0.141184 -1.99708e-20)
(1.4299 0.121111 -7.61828e-21)
(1.40151 0.105497 7.57348e-21)
(1.36968 0.0926101 0)
(1.33766 0.075811 1.74367e-20)
(1.32697 0.062126 -1.95735e-20)
(1.30799 0.0485951 -1.19338e-20)
(1.27704 0.0430358 1.33877e-20)
(1.24881 0.0429259 4.04781e-21)
(1.23104 0.0274985 -7.42378e-21)
(1.20271 0.0176993 0)
(1.19566 0.0152699 0)
(1.16482 0.00397075 -1.09239e-20)
(1.13444 0.0111368 6.41519e-21)
(0.779408 0.251677 0)
(1.43274 0.176133 0)
(1.50948 0.304494 0)
(1.52567 0.221307 -4.51065e-22)
(1.48089 0.235219 3.15159e-22)
(1.45294 0.197897 5.02807e-22)
(1.43468 0.17832 4.72671e-21)
(1.4086 0.161632 -7.73562e-21)
(1.37916 0.144001 1.23319e-20)
(1.36293 0.126717 -5.38845e-21)
(1.3389 0.115904 0)
(1.30538 0.100194 3.63049e-21)
(1.27515 0.086086 0)
(1.25509 0.0705404 -2.45906e-21)
(1.24553 0.0659543 4.05158e-21)
(1.22315 0.063945 0)
(1.19531 0.0558302 0)
(1.1779 0.0496682 0)
(1.17171 0.0441262 0)
(1.14971 0.04824 -1.26757e-21)
(0.0170924 1.11958 -1.36411e-20)
(-0.135383 1.19019 0)
(-0.104642 1.18294 0)
(-0.107314 1.09708 -3.93419e-20)
(-0.0794933 0.970432 7.27179e-20)
(-0.00375861 0.812545 4.31699e-22)
(0.0628801 0.60357 -1.5676e-20)
(0.156231 0.399 -2.88774e-20)
(0.225803 0.249092 -2.51755e-22)
(0.255952 0.0331339 2.44873e-20)
(0.48833 -0.389439 0)
(0.618125 -0.751973 1.81195e-20)
(0.739843 -0.997505 0)
(0.793788 -1.07742 -1.14482e-20)
(0.749804 -1.06583 1.8092e-20)
(0.856464 -1.06372 0)
(0.787557 -1.00695 0)
(0.801765 -0.96607 0)
(0.822581 -0.925949 0)
(0.827843 -0.937914 7.48848e-21)
(-0.0264144 1.22691 -5.51923e-20)
(-0.157726 1.27148 9.77174e-20)
(-0.0739429 1.1701 0)
(-0.0660731 1.08019 1.38063e-19)
(0.0478816 0.897663 -1.08467e-19)
(0.0476663 0.752865 -6.75132e-20)
(0.191844 0.499302 -7.01801e-22)
(0.252443 0.321038 1.42616e-19)
(0.254652 0.193624 -7.86869e-20)
(0.452236 -0.168326 0)
(0.704041 -0.596187 0)
(0.851476 -0.913688 -1.80828e-20)
(0.940593 -1.08191 5.41204e-20)
(0.920629 -1.09134 -3.81555e-20)
(0.891667 -1.0899 -5.25831e-20)
(0.930692 -1.05214 3.16738e-20)
(0.815964 -0.987496 0)
(0.893703 -0.95837 0)
(0.825243 -0.948196 1.73554e-20)
(0.861265 -0.931735 -3.23147e-20)
(0.0448236 1.06198 1.10392e-19)
(-0.150991 1.20801 -4.67416e-20)
(0.011726 1.16108 -1.94223e-21)
(-0.0080648 1.01492 -1.15373e-19)
(0.0867817 0.8784 2.09545e-19)
(0.0989885 0.673721 -1.27309e-19)
(0.261038 0.411844 0)
(0.230794 0.316674 0)
(0.358165 0.0504143 -1.00363e-19)
(0.693029 -0.40125 0)
(0.916916 -0.766593 -7.68539e-20)
(1.04135 -0.987907 2.70914e-19)
(1.06758 -1.05125 -2.2161e-19)
(1.01321 -1.04944 9.51967e-20)
(0.998788 -1.02414 0)
(0.966929 -0.966807 0)
(0.89588 -0.940544 0)
(0.951119 -0.919294 8.03021e-20)
(0.842403 -0.916494 -5.59161e-20)
(0.889814 -0.888314 0)
(-0.121182 0.883189 -1.10317e-19)
(-0.235408 1.10303 3.13758e-21)
(-0.104597 1.07496 -8.33885e-20)
(-0.0133221 0.914909 7.37275e-20)
(-0.0346412 0.843056 -6.67876e-20)
(0.179148 0.562355 0)
(0.204195 0.417245 -1.13162e-19)
(0.241025 0.247641 1.05447e-19)
(0.599268 -0.181371 3.1395e-21)
(0.933092 -0.587708 -8.62673e-20)
(1.11219 -0.857458 2.24955e-19)
(1.18669 -0.979904 -1.33489e-19)
(1.15515 -1.02079 4.78644e-20)
(1.10413 -0.991737 -1.29995e-19)
(1.07083 -0.961312 -6.62393e-20)
(1.03799 -0.951493 -1.0709e-19)
(0.987414 -0.899948 8.50097e-21)
(0.979235 -0.859869 4.4231e-20)
(0.9029 -0.841382 3.26014e-20)
(0.903976 -0.814917 0)
(-0.0542227 0.84601 -4.02431e-19)
(-0.260362 1.07014 3.57281e-19)
(-0.125625 0.972333 0)
(-0.127298 0.931531 -7.09523e-20)
(-0.00608018 0.744346 1.9089e-19)
(0.188581 0.519194 -1.17019e-19)
(0.117994 0.422929 4.47298e-19)
(0.443037 0.0597334 -5.1906e-19)
(0.882742 -0.390853 2.87008e-19)
(1.14903 -0.706005 -8.62771e-20)
(1.27754 -0.887486 1.34907e-19)
(1.2816 -0.945189 4.2462e-20)
(1.22262 -0.936007 -1.53267e-19)
(1.17782 -0.910693 -1.07789e-19)
(1.15388 -0.900862 3.24055e-19)
(1.09582 -0.86007 -1.11817e-19)
(1.0129 -0.830011 0)
(1.02049 -0.80057 1.44874e-19)
(0.931692 -0.784849 2.35324e-20)
(0.92819 -0.747523 -1.11476e-19)
(0.0702441 0.544734 -1.90716e-19)
(-0.243682 0.959045 -8.59794e-20)
(-0.0492169 1.01955 -1.52817e-19)
(-0.177751 0.939226 0)
(0.139247 0.676113 -1.26593e-19)
(0.0653051 0.562102 3.48084e-19)
(0.214373 0.299838 -5.34462e-19)
(0.752735 -0.15789 9.93924e-20)
(1.13776 -0.528655 -1.75201e-19)
(1.33627 -0.755851 2.34086e-19)
(1.38488 -0.840351 0)
(1.32926 -0.86098 1.57377e-19)
(1.28693 -0.85633 8.32344e-20)
(1.24492 -0.847009 -1.3598e-19)
(1.19054 -0.820333 1.24685e-19)
(1.09303 -0.787641 9.28361e-20)
(1.06654 -0.778742 -8.52327e-20)
(1.05436 -0.743568 -3.54844e-20)
(0.953288 -0.743415 2.70634e-20)
(0.96742 -0.682379 -9.22926e-20)
(-0.0626315 0.221838 -1.90305e-19)
(-0.207958 0.842709 3.43858e-19)
(-0.144118 0.993126 6.88876e-21)
(-0.0853396 0.814618 3.87641e-19)
(0.039536 0.684272 1.13597e-21)
(-0.0450802 0.51802 -4.28517e-19)
(0.517116 0.0874597 -6.5698e-21)
(1.05674 -0.330463 2.82353e-19)
(1.35617 -0.599495 0)
(1.46013 -0.723198 -7.41794e-20)
(1.43478 -0.769836 -1.11699e-19)
(1.38654 -0.77942 3.76997e-19)
(1.34218 -0.767415 -1.75789e-19)
(1.27532 -0.744911 -1.37721e-19)
(1.19927 -0.713904 5.08042e-20)
(1.14035 -0.694175 -5.13431e-20)
(1.12832 -0.690461 0)
(1.0607 -0.668367 0)
(1.00679 -0.672634 1.18119e-19)
(0.999117 -0.62589 -8.93247e-20)
(-0.115277 0.0393914 -1.85801e-19)
(-0.237237 0.724894 -1.72291e-19)
(-0.316054 0.759134 -4.13978e-19)
(-0.108804 0.734968 2.49704e-19)
(-0.290303 0.660982 0)
(0.178021 0.304364 2.0454e-19)
(0.881689 -0.125956 -1.85983e-19)
(1.31869 -0.426257 -8.35096e-20)
(1.5008 -0.588157 0)
(1.52134 -0.658041 1.20107e-19)
(1.48055 -0.680062 -1.11325e-19)
(1.42667 -0.682184 -8.63413e-21)
(1.36268 -0.664488 -8.24495e-21)
(1.28734 -0.647642 -1.66882e-19)
(1.24698 -0.650391 -7.61684e-20)
(1.20929 -0.638976 2.78139e-19)
(1.14698 -0.605411 1.67606e-20)
(1.09336 -0.599539 -1.66954e-19)
(1.0527 -0.593512 4.67837e-20)
(1.02131 -0.56468 0)
(-0.109255 0.0310353 1.15606e-20)
(-0.343827 0.530471 -1.62558e-19)
(-0.378822 0.57431 2.68094e-19)
(-0.323832 0.678919 0)
(-0.284652 0.465895 0)
(0.6109 0.0773475 0)
(1.21278 -0.246678 0)
(1.50181 -0.434089 3.92345e-19)
(1.57673 -0.528607 -2.81609e-19)
(1.55412 -0.565744 -1.20265e-19)
(1.50186 -0.581615 8.79985e-20)
(1.43185 -0.576627 8.20139e-20)
(1.37432 -0.574504 -6.75415e-20)
(1.32688 -0.576587 1.54921e-19)
(1.27593 -0.561905 -2.08909e-19)
(1.19243 -0.55052 1.16742e-19)
(1.15854 -0.519786 7.9374e-20)
(1.12972 -0.533786 -2.86999e-19)
(1.06991 -0.51051 1.18999e-19)
(1.0377 -0.480546 -2.89331e-20)
(-0.121435 0.0325095 8.57804e-21)
(-0.424894 0.403285 4.35719e-19)
(-0.335421 0.527303 -3.88967e-19)
(-0.594557 0.555295 -2.23488e-19)
(0.208642 0.252838 2.0266e-19)
(1.03421 -0.0650088 0)
(1.45928 -0.274469 0)
(1.60451 -0.387214 -2.75911e-19)
(1.60519 -0.444173 2.17561e-20)
(1.56232 -0.471013 2.09979e-19)
(1.49259 -0.473759 -8.81585e-20)
(1.43368 -0.480216 -1.30042e-19)
(1.39509 -0.481512 1.19687e-20)
(1.32175 -0.471172 9.81287e-20)
(1.25235 -0.463305 0)
(1.20881 -0.467259 -8.38697e-20)
(1.19563 -0.474787 2.02336e-19)
(1.13458 -0.46055 3.3716e-20)
(1.0819 -0.429872 -1.0632e-19)
(1.0465 -0.409371 2.89996e-20)
(0.881472 -0.890717 -5.10342e-21)
(0.834737 -0.922491 1.70652e-22)
(0.985851 -0.879232 -1.79449e-22)
(0.956937 -1.02418 2.00061e-22)
(1.07055 -1.01909 0)
(1.0015 -0.780725 -8.91358e-21)
(0.950737 -0.251389 8.6024e-21)
(0.781047 0.297568 -8.34081e-21)
(0.700276 0.825435 8.32346e-21)
(0.647556 1.1902 -3.98099e-22)
(0.566468 1.26476 0)
(0.479529 1.19131 3.17561e-21)
(0.449091 1.0591 -5.76726e-21)
(0.392064 1.05584 5.25804e-21)
(0.221286 1.03677 -4.75082e-21)
(0.177739 0.737258 2.27923e-21)
(0.100462 0.401852 0)
(0.0944371 0.10056 -2.56228e-21)
(0.1479 -0.135194 2.29889e-21)
(0.21333 -0.297222 1.8648e-21)
(0.280673 -0.40048 -1.8005e-21)
(0.367457 -0.434755 1.07734e-21)
(0.453637 -0.436429 -1.07174e-21)
(0.49849 -0.423303 0)
(0.54054 -0.392121 0)
(0.587436 -0.330556 0)
(0.611964 -0.290708 0)
(0.621687 -0.250913 1.4158e-22)
(0.650568 -0.208601 -7.82372e-23)
(0.688453 -0.145019 0)
(0.721549 -0.104792 -2.98698e-23)
(0.750359 -0.0762471 0)
(0.784662 -0.0651335 -1.22248e-23)
(0.821158 -0.0388733 3.86932e-23)
(0.855114 -0.0130995 1.67875e-23)
(0.882436 0.00773374 -2.34296e-23)
(0.905088 -0.00105375 -1.04403e-23)
(0.924779 -0.0219427 8.01118e-25)
(0.94232 -0.047769 -4.15695e-24)
(0.954843 -0.0511216 -7.735e-26)
(0.96077 -0.0394551 1.7236e-26)
(0.9635 -0.00901765 1.13652e-23)
(0.966821 0.0212062 0)
(0.971287 0.0502147 0)
(0.976005 0.0682209 0)
(0.980422 0.0807509 -5.1882e-24)
(0.983541 0.0857596 2.16153e-25)
(0.986502 0.0885005 -3.93418e-24)
(0.987874 0.0890424 -2.66443e-24)
(0.990083 0.08853 -5.56352e-26)
(0.83286 -0.908504 2.25291e-20)
(0.825086 -0.94675 -2.21337e-20)
(0.866268 -0.91852 2.58809e-20)
(0.85345 -1.02385 4.73789e-21)
(0.915156 -1.01326 -6.21423e-20)
(0.894199 -0.709817 3.24205e-20)
(0.837454 -0.227464 0)
(0.709234 0.308299 -2.84576e-22)
(0.550181 0.792652 0)
(0.545194 1.15906 -3.99662e-22)
(0.497162 1.28381 -1.79444e-20)
(0.486103 1.18435 1.68125e-20)
(0.435198 1.1468 0)
(0.243656 1.15942 -5.99154e-22)
(0.204888 0.820533 -4.47114e-22)
(0.134526 0.523194 0)
(0.0431688 0.304115 1.35128e-20)
(0.0451112 0.0144373 -2.63904e-20)
(0.09654 -0.219362 1.2606e-20)
(0.202126 -0.37364 0)
(0.306133 -0.450311 0)
(0.391451 -0.462945 1.88163e-22)
(0.482647 -0.437575 -5.14411e-21)
(0.544807 -0.406473 8.77646e-22)
(0.577144 -0.384536 3.49014e-21)
(0.607384 -0.336408 0)
(0.638317 -0.296438 7.97664e-22)
(0.653567 -0.256628 -6.85829e-22)
(0.672736 -0.219745 -5.87188e-23)
(0.702181 -0.158165 8.3865e-23)
(0.732643 -0.115938 -3.03729e-23)
(0.758897 -0.0870023 -4.40994e-23)
(0.789809 -0.0774403 -1.59071e-22)
(0.826476 -0.0514327 7.28634e-23)
(0.861719 -0.0236184 0)
(0.886991 0.00014568 7.34998e-23)
(0.902824 -0.0068306 -1.96729e-23)
(0.91603 -0.0274198 -3.14394e-23)
(0.932247 -0.0530937 -8.60409e-24)
(0.949145 -0.0551114 7.92611e-24)
(0.960521 -0.0418015 0)
(0.966037 -0.010694 -2.17148e-23)
(0.96924 0.0194605 1.37476e-23)
(0.972765 0.0483423 -1.11198e-23)
(0.976569 0.0665272 7.78985e-25)
(0.980592 0.0794523 4.2271e-24)
(0.983429 0.0848387 6.42805e-24)
(0.986374 0.0879358 -4.48238e-24)
(0.987663 0.0886546 2.94901e-24)
(0.989948 0.0883783 -2.19294e-25)
(0.769737 -0.880618 0)
(0.788682 -0.895872 -4.62049e-20)
(0.724066 -0.930533 4.45583e-20)
(0.786416 -1.03056 -5.69814e-20)
(0.732031 -1.07261 5.495e-20)
(0.760318 -0.6702 5.68208e-22)
(0.597608 -0.150413 0)
(0.446107 0.456522 -7.019e-20)
(0.404408 0.865231 6.67052e-20)
(0.407991 1.1671 1.58416e-21)
(0.398902 1.30402 0)
(0.502465 1.23725 1.05076e-21)
(0.429501 1.23451 3.12756e-20)
(0.362641 1.17622 -2.92774e-20)
(0.308656 1.15557 3.3329e-20)
(0.173904 0.990103 -6.64344e-20)
(0.116965 0.562137 6.92374e-20)
(0.0813368 0.124206 -3.51492e-20)
(0.0809085 -0.194981 0)
(0.159055 -0.410625 9.1826e-22)
(0.282549 -0.511261 -7.03137e-22)
(0.379833 -0.539108 5.26706e-22)
(0.460289 -0.524126 3.45194e-22)
(0.531262 -0.478444 0)
(0.589973 -0.430618 -2.9898e-21)
(0.628414 -0.365708 2.88687e-21)
(0.658282 -0.316425 0)
(0.676716 -0.271249 9.14312e-23)
(0.69637 -0.234216 -1.24899e-22)
(0.720529 -0.173136 -1.71002e-22)
(0.747025 -0.128941 6.07218e-23)
(0.769623 -0.0990317 -2.69217e-22)
(0.795988 -0.0907908 1.09001e-22)
(0.82927 -0.065097 2.41583e-22)
(0.86305 -0.0342206 3.50609e-23)
(0.886904 -0.00582578 -1.42359e-23)
(0.901397 -0.0101638 -5.20358e-23)
(0.913607 -0.0307984 6.41903e-23)
(0.929269 -0.0574752 -3.63184e-25)
(0.947148 -0.0593216 -1.61683e-23)
(0.961018 -0.044519 -1.50456e-23)
(0.968681 -0.0119158 1.40017e-23)
(0.972341 0.0189745 4.98435e-23)
(0.975419 0.0479737 -2.18772e-24)
(0.978365 0.0660734 -1.0894e-23)
(0.981759 0.0789621 0)
(0.984023 0.0843588 -1.90884e-23)
(0.986694 0.0875228 7.28268e-24)
(0.987743 0.0882933 1.76988e-24)
(0.98997 0.0880734 1.72369e-24)
(0.800273 -0.805779 -3.07074e-22)
(0.788804 -0.863782 3.00439e-22)
(0.718986 -0.894722 -3.55452e-22)
(0.732502 -1.0046 -3.88478e-22)
(0.63523 -1.05957 0)
(0.593503 -0.64842 9.25519e-22)
(0.4316 -0.103557 0)
(0.381224 0.373604 1.08461e-21)
(0.433687 0.74456 -5.44532e-20)
(0.337 1.10374 9.71846e-20)
(0.456782 1.19926 -4.3216e-20)
(0.457741 1.21349 5.56048e-22)
(0.430939 1.29648 -5.0298e-22)
(0.337891 1.34191 -1.12812e-21)
(0.250551 1.09605 4.07297e-20)
(0.142414 0.663841 3.53281e-21)
(0.0777745 0.374185 -4.28392e-20)
(0.0264378 0.0791187 -4.25922e-20)
(0.0519261 -0.245189 4.23093e-20)
(0.143719 -0.483342 -9.31015e-22)
(0.280596 -0.582178 7.12695e-22)
(0.408759 -0.576293 -5.33711e-22)
(0.505075 -0.536059 -9.01752e-22)
(0.559322 -0.489401 -8.18702e-21)
(0.605147 -0.448156 8.53664e-21)
(0.649338 -0.381494 4.78568e-21)
(0.68294 -0.326891 -4.61966e-21)
(0.699218 -0.280841 7.67455e-24)
(0.717417 -0.245991 -1.64526e-21)
(0.740411 -0.185509 3.12713e-21)
(0.764385 -0.139055 -1.19575e-21)
(0.78214 -0.107746 -6.51565e-22)
(0.801839 -0.101128 6.29154e-22)
(0.830003 -0.0772588 0)
(0.862975 -0.0450816 9.41477e-23)
(0.889217 -0.0130895 -1.25075e-22)
(0.905886 -0.0143797 -4.74191e-23)
(0.917715 -0.0342658 1.99481e-23)
(0.930997 -0.0617849 1.75497e-23)
(0.947699 -0.0640117 0)
(0.962681 -0.0483791 7.38021e-23)
(0.972019 -0.0145931 -7.07625e-23)
(0.975858 0.0170486 -2.53443e-23)
(0.978083 0.0464756 0)
(0.979839 0.0649419 1.7991e-23)
(0.982496 0.0782007 -1.73899e-23)
(0.984228 0.0838853 7.20607e-24)
(0.986734 0.0872553 5.28137e-24)
(0.987613 0.0881176 0)
(0.989866 0.0879929 -1.72108e-24)
(0.84469 -0.752576 7.61828e-20)
(0.813987 -0.789516 -7.36237e-20)
(0.70872 -0.807883 -5.28667e-22)
(0.699616 -0.92862 0)
(0.585668 -1.02945 0)
(0.506916 -0.745518 -9.47007e-22)
(0.467574 -0.241401 0)
(0.404755 0.23514 1.14684e-19)
(0.276247 0.716581 -1.11459e-19)
(0.268588 1.04607 0)
(0.428917 1.19318 -6.31073e-22)
(0.471212 1.26481 7.02383e-20)
(0.5234 1.30607 -6.98749e-20)
(0.410497 1.36612 -3.26539e-23)
(0.408371 1.25973 4.87365e-20)
(0.317768 1.20076 -9.99182e-20)
(0.311365 0.804789 5.24533e-20)
(0.197097 0.2533 0)
(0.171726 -0.198458 -4.73265e-20)
(0.220086 -0.505752 4.28294e-20)
(0.316957 -0.658238 0)
(0.42048 -0.673722 -1.90913e-20)
(0.525115 -0.618454 1.82924e-20)
(0.596267 -0.542174 7.21444e-23)
(0.632215 -0.489173 0)
(0.665661 -0.417059 0)
(0.703698 -0.349327 4.01642e-21)
(0.721992 -0.294751 -3.80055e-21)
(0.735648 -0.260778 0)
(0.756331 -0.20095 -9.21559e-23)
(0.781734 -0.150391 0)
(0.799017 -0.115523 0)
(0.813254 -0.110082 4.8895e-22)
(0.833648 -0.0891756 -5.22488e-22)
(0.862223 -0.0568317 0)
(0.889145 -0.0207639 2.43834e-22)
(0.907891 -0.0180629 -1.83502e-22)
(0.920394 -0.036551 -2.12199e-23)
(0.932101 -0.0651108 -7.02484e-23)
(0.947204 -0.0683553 6.78113e-23)
(0.962481 -0.0522279 0)
(0.973868 -0.0168276 0)
(0.97916 0.0160626 0)
(0.981589 0.0459791 1.98896e-23)
(0.98243 0.064397 -5.92073e-23)
(0.984138 0.0775944 1.57762e-23)
(0.985019 0.0832406 1.55132e-24)
(0.987122 0.0867171 1.40071e-23)
(0.987706 0.0876344 -3.44873e-24)
(0.989896 0.0876565 0)
(0.858138 -0.712942 4.44266e-21)
(0.84426 -0.696501 1.28507e-19)
(0.697994 -0.719237 -6.12352e-20)
(0.704423 -0.809696 -7.08579e-20)
(0.498643 -0.91128 6.78894e-20)
(0.377528 -0.778443 0)
(0.327314 -0.285941 1.01926e-19)
(0.205664 0.254956 -9.74333e-20)
(0.210088 0.650102 -9.04134e-20)
(0.300014 0.871438 8.65516e-20)
(0.291156 1.02843 0)
(0.462917 1.15034 1.10151e-21)
(0.44989 1.38195 0)
(0.479864 1.46272 8.94068e-20)
(0.381856 1.35377 -1.88236e-19)
(0.380114 0.98184 9.95028e-20)
(0.222956 0.632524 0)
(0.214321 0.336676 2.15805e-21)
(0.28583 -0.0560636 0)
(0.330199 -0.460943 -5.93449e-22)
(0.411232 -0.6716 0)
(0.498483 -0.708051 0)
(0.573267 -0.660868 -2.92319e-20)
(0.643084 -0.570577 4.07432e-20)
(0.68232 -0.504639 -1.85892e-20)
(0.697401 -0.436917 7.59588e-21)
(0.722974 -0.367909 -2.7939e-22)
(0.742159 -0.305609 3.09307e-21)
(0.753658 -0.271335 -2.77756e-21)
(0.769062 -0.215595 -1.39435e-21)
(0.793751 -0.163188 3.50728e-22)
(0.814134 -0.12308 9.5835e-22)
(0.828855 -0.116094 -5.18876e-22)
(0.844858 -0.0979872 5.51755e-22)
(0.867745 -0.0676573 0)
(0.892506 -0.0297219 1.91967e-22)
(0.91199 -0.0233765 -4.7841e-23)
(0.92512 -0.0394447 -1.8424e-22)
(0.935497 -0.0682011 0)
(0.94872 -0.0727281 -3.33494e-23)
(0.96304 -0.0570586 5.8436e-23)
(0.975026 -0.0207284 -5.63535e-23)
(0.981014 0.0135961 0)
(0.983751 0.0447113 2.19347e-23)
(0.984133 0.0638158 5.42909e-23)
(0.985315 0.0773836 -3.55598e-23)
(0.985566 0.0831623 -2.61489e-23)
(0.987365 0.0866801 0)
(0.987669 0.0875783 0)
(0.989824 0.0875634 -3.35522e-24)
(0.905097 -0.665707 -5.9221e-20)
(0.841112 -0.644302 5.71657e-20)
(0.750707 -0.641833 0)
(0.653989 -0.669372 1.00584e-22)
(0.496384 -0.738912 -3.70769e-22)
(0.371437 -0.83002 0)
(0.30816 -0.495912 0)
(0.313137 0.007047 5.41842e-22)
(0.291444 0.436832 1.51124e-22)
(0.16531 0.830107 6.55744e-20)
(0.323255 0.972025 -6.23658e-20)
(0.452117 1.06127 0)
(0.529562 1.23055 0)
(0.589719 1.45086 1.11694e-21)
(0.5925 1.47721 -1.44145e-21)
(0.580895 1.32177 0)
(0.541667 1.00686 1.49119e-19)
(0.653371 0.342007 -1.4589e-19)
(0.44303 -0.193552 -1.38667e-19)
(0.373373 -0.525495 1.39405e-19)
(0.447686 -0.746833 0)
(0.549648 -0.784163 -5.3947e-20)
(0.624135 -0.730457 5.21394e-20)
(0.679095 -0.630304 -2.42656e-20)
(0.723991 -0.541895 6.04212e-21)
(0.740315 -0.461675 1.74185e-20)
(0.75299 -0.389402 8.73596e-21)
(0.763625 -0.321592 -8.63513e-21)
(0.772127 -0.284161 0)
(0.783984 -0.230445 0)
(0.803835 -0.177349 0)
(0.821727 -0.132904 1.12412e-22)
(0.835182 -0.123522 0)
(0.85131 -0.106771 -3.90802e-22)
(0.873778 -0.0776447 6.20868e-22)
(0.898486 -0.0373717 -3.05627e-22)
(0.917477 -0.0269776 5.17493e-23)
(0.929322 -0.0404471 2.22618e-23)
(0.937444 -0.069719 1.67977e-22)
(0.948866 -0.0760267 -1.09094e-22)
(0.962547 -0.061116 0)
(0.97556 -0.023851 2.76758e-23)
(0.982677 0.0117666 2.47834e-23)
(0.985949 0.0437871 0)
(0.985903 0.0632118 0)
(0.986513 0.0768889 0)
(0.986122 0.0826664 1.06535e-23)
(0.987629 0.0862595 -1.18855e-23)
(0.987686 0.0871877 -6.77105e-24)
(0.989816 0.0873012 3.34505e-24)
(0.928265 -0.570452 5.28682e-20)
(0.822639 -0.573301 -5.09959e-20)
(0.796682 -0.568966 4.56948e-20)
(0.68004 -0.551575 -4.37973e-20)
(0.631394 -0.597191 3.87689e-22)
(0.498332 -0.749979 0)
(0.339763 -0.68874 -3.3876e-22)
(0.320246 -0.133583 -9.46118e-22)
(0.142703 0.403648 -5.76833e-20)
(0.15794 0.634308 5.65171e-20)
(0.318088 0.749289 -4.8876e-20)
(0.347476 0.910377 -3.71699e-21)
(0.600606 1.15517 4.81277e-20)
(0.526893 1.41914 -1.16271e-21)
(0.693684 1.4286 1.49969e-21)
(0.534776 1.36415 1.34296e-19)
(0.71491 1.0196 -2.80203e-19)
(0.530595 0.786706 -1.13741e-20)
(0.510864 0.402908 1.47944e-19)
(0.579469 -0.167702 -1.16023e-19)
(0.586525 -0.624809 1.13896e-19)
(0.627712 -0.781934 0)
(0.685146 -0.756543 4.0391e-20)
(0.725258 -0.659169 -6.86569e-20)
(0.756135 -0.566508 2.81005e-20)
(0.772148 -0.480711 -1.40939e-20)
(0.785208 -0.402861 1.31099e-20)
(0.790274 -0.330559 -6.7445e-21)
(0.791468 -0.293223 6.31523e-21)
(0.797082 -0.243448 3.25356e-21)
(0.813743 -0.189643 -3.04761e-21)
(0.829265 -0.140764 6.57222e-22)
(0.839227 -0.129524 -7.1284e-22)
(0.852988 -0.115704 0)
(0.875143 -0.0892516 4.15053e-23)
(0.900659 -0.0474104 3.16656e-23)
(0.918561 -0.032671 -2.32278e-22)
(0.929054 -0.042606 2.21487e-22)
(0.936433 -0.0716869 1.33783e-22)
(0.947677 -0.0797578 -1.65543e-22)
(0.961044 -0.0662887 0)
(0.97462 -0.0286133 -1.36165e-22)
(0.982672 0.00862187 1.27086e-22)
(0.98687 0.0423273 -4.31835e-24)
(0.986923 0.0627023 -4.02919e-23)
(0.987365 0.076815 0)
(0.986507 0.0826618 1.06471e-23)
(0.987803 0.0862382 -1.02003e-23)
(0.987618 0.0871081 -5.11191e-24)
(0.989739 0.0871457 0)
(0.926939 -0.491976 4.76445e-20)
(0.879946 -0.500387 -4.58288e-20)
(0.816299 -0.534938 -3.88989e-20)
(0.770833 -0.526125 7.33001e-20)
(0.737519 -0.507899 -6.68646e-20)
(0.622866 -0.546341 3.15318e-20)
(0.39734 -0.69005 3.56789e-22)
(0.242314 -0.40359 4.0036e-22)
(0.191365 0.208696 -4.38592e-22)
(0.271585 0.527229 1.14056e-22)
(0.250667 0.689691 3.29131e-22)
(0.491716 0.688714 -3.22224e-22)
(0.607795 0.914043 4.64459e-20)
(0.698673 1.27967 -4.45943e-20)
(0.828074 1.51798 0)
(0.789156 1.45406 -1.0415e-21)
(0.83914 1.17129 1.1951e-21)
(0.767953 0.618463 0)
(0.796279 -0.0144607 -1.77218e-19)
(0.67636 -0.451975 1.68011e-19)
(0.694109 -0.739445 2.06851e-21)
(0.714883 -0.85924 7.59663e-20)
(0.744292 -0.83237 -7.30662e-20)
(0.770916 -0.719441 -4.96747e-22)
(0.790685 -0.606224 -2.27426e-20)
(0.798462 -0.511081 2.14559e-20)
(0.808251 -0.427393 0)
(0.815473 -0.34429 0)
(0.815892 -0.3011 -4.97161e-21)
(0.813232 -0.254931 5.02138e-21)
(0.823965 -0.202633 5.7739e-24)
(0.839059 -0.148526 6.17798e-23)
(0.849442 -0.133584 1.15251e-21)
(0.859642 -0.122215 -1.27476e-21)
(0.876635 -0.0987954 -3.25233e-22)
(0.89895 -0.0549607 3.12418e-22)
(0.915831 -0.0352625 0)
(0.927001 -0.0422079 1.61497e-22)
(0.935206 -0.0720579 -1.78263e-22)
(0.946714 -0.0824892 -3.87641e-25)
(0.959854 -0.0705309 1.22746e-22)
(0.973812 -0.0325228 -1.03578e-22)
(0.982586 0.0059571 0)
(0.987623 0.0409627 0)
(0.987842 0.0621425 -3.55878e-23)
(0.988195 0.0766188 3.4137e-23)
(0.986933 0.0825193 1.063e-23)
(0.988031 0.086089 -1.55499e-24)
(0.98761 0.086925 2.55068e-24)
(0.989716 0.0869657 0)
(0.967826 -0.432876 -9.60161e-23)
(0.94125 -0.441983 0)
(0.904834 -0.46845 3.41262e-20)
(0.825535 -0.511139 -6.28371e-20)
(0.724562 -0.499913 2.8723e-20)
(0.67678 -0.422165 -1.07723e-22)
(0.520542 -0.50748 0)
(0.261889 -0.514364 0)
(0.182577 -0.0803128 0)
(0.149878 0.323626 -1.20884e-22)
(0.228536 0.537328 -2.37311e-20)
(0.427004 0.571611 2.28196e-20)
(0.472354 0.711695 3.46941e-20)
(0.719239 1.01552 -3.34775e-20)
(0.751627 1.31648 0)
(0.905555 1.52613 -8.47471e-22)
(0.86958 1.46591 -1.59936e-19)
(1.01685 1.18159 3.38786e-19)
(0.899502 0.837033 5.06329e-21)
(0.915992 0.171821 -3.33157e-19)
(0.934707 -0.481864 1.49999e-19)
(0.897377 -0.789326 8.82255e-20)
(0.869245 -0.848095 -8.47597e-20)
(0.847474 -0.7665 -6.7661e-22)
(0.834496 -0.649281 4.50658e-22)
(0.827402 -0.544162 -1.75062e-20)
(0.829153 -0.456142 1.68083e-20)
(0.833656 -0.366554 0)
(0.835787 -0.314567 -5.78835e-21)
(0.832176 -0.269018 9.46651e-21)
(0.837342 -0.219388 -3.91518e-21)
(0.849315 -0.162031 0)
(0.859573 -0.141867 4.94585e-23)
(0.86827 -0.130573 3.52976e-23)
(0.88135 -0.110132 7.13895e-22)
(0.900058 -0.0661006 -6.84534e-22)
(0.916251 -0.042313 0)
(0.928624 -0.0451378 -1.96858e-22)
(0.937259 -0.0739973 1.88658e-22)
(0.948006 -0.0861113 1.62765e-22)
(0.959863 -0.075972 -1.38025e-22)
(0.973111 -0.0379688 -1.44425e-23)
(0.981656 0.00196146 0)
(0.987186 0.0387558 0)
(0.987705 0.0611061 -3.60927e-23)
(0.988328 0.0762126 3.45423e-23)
(0.986941 0.0822861 0)
(0.98805 0.085899 0)
(0.987484 0.0866968 4.27994e-24)
(0.989638 0.0867377 -1.64897e-24)
(1.04444 -0.339089 0)
(0.982354 -0.388651 0)
(0.943216 -0.364602 0)
(0.883516 -0.331371 0)
(0.733311 -0.417279 0)
(0.709713 -0.375366 0)
(0.714558 -0.299735 0)
(0.41865 -0.381331 0)
(0.241758 -0.204773 0)
(0.27065 0.21795 0)
(0.318901 0.435834 0)
(0.418106 0.456772 0)
(0.60777 0.527161 0)
(0.807801 0.810884 0)
(0.888263 1.15495 0)
(1.01037 1.34245 0)
(1.05039 1.28324 0)
(1.07943 1.01118 0)
(1.05553 0.48726 0)
(1.04347 0.00174305 0)
(0.941505 -0.387612 0)
(0.923011 -0.659518 0)
(0.94046 -0.751612 0)
(0.937629 -0.701327 0)
(0.906423 -0.607597 0)
(0.866851 -0.52006 0)
(0.852646 -0.443279 0)
(0.854038 -0.35677 0)
(0.854259 -0.303238 0)
(0.850376 -0.262245 0)
(0.852523 -0.218558 0)
(0.860362 -0.162471 0)
(0.867388 -0.139659 0)
(0.87407 -0.129919 0)
(0.885361 -0.113394 0)
(0.903098 -0.0708216 0)
(0.919385 -0.0442904 0)
(0.931594 -0.0444088 0)
(0.939064 -0.0731151 0)
(0.948711 -0.0873725 0)
(0.959824 -0.0791961 0)
(0.973037 -0.0416591 0)
(0.981712 -0.000617641 0)
(0.987459 0.0375634 0)
(0.987881 0.0608924 0)
(0.988509 0.0764503 0)
(0.986932 0.0825708 0)
(0.988041 0.0860819 0)
(0.987359 0.0867602 0)
(0.989559 0.086617 0)
(0.995724 -0.307046 0)
(0.972118 -0.294592 0)
(0.87512 -0.357621 0)
(0.845725 -0.323953 0)
(0.764016 -0.321292 0)
(0.613607 -0.365696 0)
(0.59035 -0.298414 0)
(0.462961 -0.193327 0)
(0.30755 -0.0360379 0)
(0.333813 0.236759 0)
(0.412407 0.407066 0)
(0.532008 0.357111 0)
(0.638872 0.387189 0)
(0.783416 0.693784 0)
(1.00021 1.02579 0)
(1.12322 1.23586 0)