/*--------------------------------*- C++ -*----------------------------------*\
| =========                 |                                                 |
| \\      /  F ield         | OpenFOAM: The Open Source CFD Toolbox           |
|  \\    /   O peration     | Version:  2312                                  |
|   \\  /    A nd           | Website:  www.openfoam.com                      |
|    \\/     M anipulation  |                                                 |
\*---------------------------------------------------------------------------*/
FoamFile
{
    version     2.0;
    format      ascii;
    arch        "LSB;label=32;scalar=64";
    class       surfaceScalarField;
    location    "148.6";
    object      phi;
}
// * * * * * * * * * * * * * * * * * * * * * * * * * * * * * * * * * * * * * //

dimensions      [0 3 -1 0 0 0 0];

oriented        oriented;

internalField   nonuniform List<scalar> 
10785
(
-0.00156345
0.00378378
-0.00222033
-0.00282584
0.00601231
-0.00474992
-0.00098705
0.00364552
-0.00548431
0.00680021
-0.00468988
-0.00309738
0.0228384
-0.0199158
0.00387758
0.0475925
-0.0407468
0.0159927
0.0792319
-0.0642924
0.032653
0.114598
-0.0876437
0.052278
0.150046
-0.108657
0.0732089
0.182751
-0.12637
0.0936652
0.209321
-0.140262
0.113692
0.229868
-0.150829
0.130282
0.243084
-0.159787
0.146571
0.250725
-0.165666
0.158025
-0.176316
0.168878
0.258163
-0.000546233
0.00433001
0.000716806
0.00474927
0.00719219
-0.00282987
0.0221859
-0.0196836
0.0463163
-0.0440461
0.0767516
-0.0711822
0.109006
-0.0965471
0.138823
-0.11746
0.163364
-0.133199
0.1814
-0.144406
0.193769
-0.15263
0.202897
-0.159957
0.210595
-0.167486
0.221193
-0.176263
-0.186984
0.231861
0.00036342
0.00396659
0.00459255
0.000520137
0.0169333
-0.0151706
0.039092
-0.0418423
0.0675336
-0.0724877
0.0964603
-0.100109
0.121196
-0.121283
0.139636
-0.135901
0.152223
-0.145786
0.161181
-0.153364
0.1692
-0.160649
0.177656
-0.168413
0.187007
-0.176837
0.195877
-0.185133
-0.193778
0.202671
0.00124446
0.00272213
0.00918209
-0.00741749
0.0277216
-0.0337101
0.0537517
-0.0678725
0.0800174
-0.0987534
0.101281
-0.121372
0.116112
-0.136114
0.126011
-0.145799
0.133537
-0.153312
0.140612
-0.160438
0.147632
-0.167669
0.154386
-0.175168
0.160377
-0.182828
0.166243
-0.190999
-0.200281
0.172746
0.00242736
0.000294767
0.0148276
-0.0198177
0.0374121
-0.0562946
0.0616866
-0.092147
0.0810915
-0.118158
0.0941478
-0.134428
0.102626
-0.144592
0.108885
-0.152058
0.114323
-0.15875
0.119273
-0.165389
0.123948
-0.172344
0.128556
-0.179775
0.133447
-0.187719
0.138733
-0.196285
-0.204947
0.143399
0.00410707
-0.0038123
0.0204499
-0.0361605
0.0426712
-0.0785159
0.061428
-0.110904
0.0739458
-0.130676
0.0816349
-0.142118
0.0867012
-0.149658
0.0905793
-0.155936
0.0939435
-0.162114
0.0972213
-0.168667
0.100563
-0.175686
0.103934
-0.183146
0.107249
-0.191035
0.110253
-0.199288
-0.207956
0.113262
0.00619551
-0.0100078
0.0241898
-0.0541548
0.0425842
-0.0969104
0.0554312
-0.123751
0.0629112
-0.138156
0.067111
-0.146317
0.0697604
-0.152308
0.0718231
-0.157999
0.0737209
-0.164012
0.0755018
-0.170447
0.0771527
-0.177337
0.0787136
-0.184707
0.080194
-0.192515
0.0817476
-0.200842
-0.209391
0.0831824
0.00806655
-0.0180744
0.0248268
-0.0709151
0.0384999
-0.110583
0.0464363
-0.131687
0.0502401
-0.14196
0.0519532
-0.14803
0.0528244
-0.153179
0.0533517
-0.158526
0.0536425
-0.164303
0.0537594
-0.170564
0.0537493
-0.177326
0.053643
-0.184601
0.053541
-0.192413
0.0532927
-0.200594
0.0530163
-0.209115
-0.00268897
-0.0122819
0.0149708
-0.00801835
-0.0171675
0.0224969
-0.0149813
-0.0149859
0.0219488
-0.0230891
-0.0110315
0.0191394
-0.0320219
-0.00622685
0.0151597
-0.0414325
3.9081e-05
0.00937143
-0.0505135
0.00818969
0.000891389
-0.0594463
0.0185794
-0.00964658
-0.0673045
0.0312796
-0.0234215
-0.0732641
0.0459799
-0.0400203
-0.0763987
0.0619174
-0.0587828
-0.0755312
0.0777783
-0.0786458
-0.0695277
0.0921211
-0.0981246
-0.058344
0.103664
-0.114847
0.108033
-0.038844
-0.127533
-0.00286024
-0.00942161
-0.00804573
-0.0119821
-0.0146183
-0.00841336
-0.0222127
-0.0034371
-0.0303647
0.00192513
-0.0384605
0.00813487
-0.0459034
0.0156326
-0.0519076
0.0245836
-0.0555119
0.0348839
-0.0556003
0.0460682
-0.0510216
0.0573387
-0.04081
0.0675667
-0.0232023
0.0745134
0.00166834
0.0787931
0.072655
0.0370466
-0.00238536
-0.00703625
-0.00643181
-0.00793561
-0.0113139
-0.00353129
-0.0168061
0.00205513
-0.0223428
0.00746182
-0.0271462
0.0129382
-0.030372
0.0188584
-0.0310697
0.0252814
-0.0281588
0.031973
-0.0205643
0.0384737
-0.00711153
0.0438859
0.0127673
0.0476879
0.0408652
0.0464155
0.0727119
0.0469463
0.0266667
0.1187
-0.00176148
-0.00527477
-0.00447991
-0.00521718
-0.007321
-0.000690193
-0.0100803
0.00481442
-0.0122483
0.00962982
-0.0130054
0.0136954
-0.011401
0.017254
-0.0064922
0.0203726
0.00258505
0.0228958
0.0169879
0.0240708
0.0370767
0.0237971
0.0628237
0.021941
0.0974145
0.0118246
0.133913
0.0104477
-0.0207585
0.181338
-0.00144786
-0.00382691
-0.00343496
-0.00323008
-0.00496242
0.000837265
-0.00560498
0.00545699
-0.00500807
0.00903291
-0.00249804
0.0111853
0.00271323
0.0120427
0.0115334
0.0115525
0.0247492
0.00967994
0.0433704
0.00544972
0.0677082
-0.000540727
0.0987331
-0.00908392
0.136319
-0.0257613
0.181002
-0.0342355
-0.0702417
0.230485
-0.00165581
-0.00217111
-0.00387512
-0.00101076
-0.00531027
0.00227241
-0.00536599
0.0055127
-0.00361923
0.00728614
0.000622865
0.00694324
0.00836241
0.00430316
0.0207959
-0.000880994
0.0392777
-0.0088019
0.0641299
-0.0194025
0.0962961
-0.032707
0.136408
-0.0491963
0.179753
-0.0691061
0.233564
-0.0880466
-0.119119
0.282442
-0.00215481
-1.62935e-05
-0.00506325
0.00189767
-0.00705471
0.00426387
-0.00703638
0.00549438
-0.00392539
0.00417515
0.00376018
-0.000742327
0.0174024
-0.0093391
0.0380823
-0.0215609
0.0664008
-0.0371203
0.101239
-0.0542409
0.142556
-0.0740242
0.187249
-0.093889
0.232636
-0.114493
0.280016
-0.135426
-0.15337
0.314267
-0.00223662
-0.00508886
-0.0063093
-0.0039123
0.00414043
0.0193908
0.0427047
0.0734218
0.10951
0.148935
0.188603
0.224995
0.257073
0.279672
0.29518
0.0134225
0.230324
-0.28259
0.0924026
0.142074
-0.221054
0.166221
-0.0358656
-0.037953
0.208671
-0.22464
0.182191
0.224349
-0.327194
0.311516
0.220493
-0.348154
0.35201
0.191837
-0.311482
0.340138
0.158334
-0.358194
0.391697
0.168774
-0.279721
0.26928
0.217493
-0.0249163
-0.0238033
0.259735
0.1297
-0.171942
0.263834
0.291857
-0.295955
0.259636
0.353473
-0.349276
0.26297
0.433685
-0.437018
0.267842
0.346958
-0.35183
0.277508
0.0771427
-0.0868091
0.289507
-0.10863
0.0966313
0.293673
-0.470813
0.466647
0.295689
-0.508446
0.506429
0.295377
-0.362373
0.362686
0.309679
-0.129011
0.114709
0.3096
0.521982
-0.521903
0.310614
0.589525
-0.590539
0.318073
0.350625
-0.358084
0.319692
0.0838894
-0.0855085
0.305107
-0.805874
0.820458
0.321293
-0.733603
0.717418
0.309499
0.582015
-0.570222
0.296526
0.735068
-0.722095
0.282032
-0.152772
0.167266
0.279692
-0.344507
0.346847
0.275301
0.0219419
-0.0175513
0.269321
0.1178
-0.111821
0.26619
0.0173883
-0.0142573
0.263169
-0.020664
0.0236854
0.25958
-0.00145881
0.00504824
0.25619
0.00820713
-0.00481704
0.00444538
-0.00152669
0.099319
0.168051
0.158783
0.0826095
0.209027
-0.0861092
0.230613
-0.246226
0.228243
-0.324824
0.21548
-0.33539
0.192089
-0.288091
0.15686
-0.322965
0.161206
-0.284067
0.210812
-0.0745217
0.257404
0.0831075
0.265627
0.283634
0.255812
0.363289
0.258526
0.430971
0.266624
0.33886
0.277824
0.0659425
0.287467
-0.118273
0.284484
-0.46783
0.287663
-0.511624
0.288421
-0.363131
0.305758
-0.146348
0.314282
0.513458
0.313931
0.589876
0.319282
0.345274
0.318906
0.0842656
0.296036
-0.783004
0.312298
-0.749865
0.31216
0.582153
0.302679
0.744549
0.283836
-0.133928
0.279304
-0.339975
0.276015
0.0252306
0.271363
0.122452
0.268309
0.0204425
0.26492
-0.0172753
0.261328
0.0021332
0.258067
0.0114687
0.00731324
0.176888
0.109863
0.221325
0.0381733
0.248896
-0.113681
0.251135
-0.248465
0.233929
-0.307619
0.213683
-0.315144
0.19465
-0.269058
0.162258
-0.290573
0.162508
-0.284317
0.206893
-0.118906
0.252076
0.0379238
0.265974
0.269737
0.254911
0.374351
0.255414
0.430468
0.264295
0.329979
0.276014
0.0542234
0.282589
-0.124848
0.271268
-0.456508
0.275236
-0.515592
0.277985
-0.36588
0.297596
-0.165959
0.315733
0.495321
0.314515
0.591094
0.317193
0.342596
0.314235
0.0872239
0.284374
-0.753143
0.299601
-0.765092
0.312341
0.569413
0.305952
0.750938
0.283438
-0.111414
0.27682
-0.333357
0.274788
0.0272622
0.271678
0.125562
0.268953
0.0231675
0.265428
-0.0137506
0.262065
0.00549617
0.259185
0.0143493
0.00991253
0.228409
0.0627922
0.267122
-0.00053965
0.283409
-0.129967
0.270705
-0.235761
0.240274
-0.277187
0.213396
-0.288267
0.195304
-0.250966
0.164029
-0.259298
0.165494
-0.285782
0.20848
-0.161892
0.254211
-0.0078071
0.270375
0.253573
0.251892
0.392834
0.24746
0.4349
0.258201
0.319238
0.270388
0.0420358
0.274038
-0.128498
0.256353
-0.438823
0.259797
-0.519036
0.264715
-0.370798
0.285719
-0.186963
0.311463
0.469576
0.310251
0.592306
0.311042
0.341805
0.305583
0.0926826
0.269548
-0.717108
0.283611
-0.779155
0.308323
0.544701
0.305133
0.754128
0.280634
-0.0869153
0.272296
-0.325019
0.27167
0.0278876
0.270237
0.126995
0.268088
0.0253172
0.264683
-0.0103456
0.261797
0.00838232
0.259544
0.0166014
0.0120316
0.267626
0.0256519
0.298924
-0.0318383
0.299872
-0.130915
0.272211
-0.2081
0.234913
-0.23989
0.206469
-0.259822
0.192486
-0.236983
0.161218
-0.22803
0.157297
-0.281861
0.205266
-0.209861
0.253831
-0.0563724
0.270516
0.236888
0.252922
0.410428
0.24635
0.441472
0.254395
0.311193
0.263624
0.0328065
0.263176
-0.12805
0.240515
-0.416162
0.241435
-0.519955
0.247321
-0.376685
0.269695
-0.209336
0.304566
0.434705
0.30517
0.591702
0.303241
0.343735
0.29392
0.102003
0.251562
-0.674749
0.265094
-0.792687
0.302229
0.507567
0.302047
0.75431
0.276112
-0.06098
0.266057
-0.314965
0.266899
0.0270458
0.26716
0.126734
0.265774
0.026703
0.26274
-0.00731157
0.260574
0.010549
0.259177
0.017998
0.013472
0.307021
0.00107203
0.319826
-0.0446428
0.302488
-0.113577
0.263973
-0.169585
0.224449
-0.200366
0.194435
-0.229809
0.18433
-0.226879
0.15918
-0.202879
0.140127
-0.262808
0.182259
-0.251994
0.242391
-0.116504
0.26837
0.210909
0.255201
0.423596
0.245232
0.451441
0.248918
0.307508
0.255839
0.0258855
0.250115
-0.122327
0.222985
-0.389032
0.220714
-0.517684
0.22691
-0.382881
0.250186
-0.232612
0.290662
0.394228
0.294428
0.587936
0.292355
0.345807
0.279647
0.114712
0.232144
-0.627247
0.244539
-0.805082
0.291586
0.46052
0.294798
0.751099
0.269202
-0.0353849
0.258363
-0.304125
0.260591
0.0248182
0.262533
0.124792
0.262098
0.0271374
0.259694
-0.00490703
0.258479
0.011764
0.258136
0.0183408
0.0140517
0.322454
-0.0071143
0.314233
-0.0364222
0.284538
-0.0838823
0.24632
-0.131367
0.211412
-0.165458
0.181259
-0.199656
0.170213
-0.215832
0.156976
-0.189642
0.126596
-0.232428
0.145335
-0.270733
0.218702
-0.18987
0.268613
0.160998
0.265277
0.426932
0.252496
0.464222
0.245592
0.314412
0.244418
0.0270597
0.234951
-0.11286
0.204229
-0.35831
0.19814
-0.511595
0.20293
-0.38767
0.22833
-0.258012
0.276859
0.3457
0.284301
0.580494
0.281918
0.34819
0.26475
0.13188
0.212592
-0.575089
0.223722
-0.816212
0.280503
0.403738
0.286647
0.744955
0.261048
-0.00978606
0.249843
-0.29292
0.253174
0.0214875
0.256637
0.121328
0.257246
0.0265293
0.255703
-0.00336457
0.25563
0.0118369
0.256497
0.0174743
0.0136096
0.293901
-0.00583561
0.280937
-0.0234579
0.255824
-0.0587697
0.226245
-0.101788
0.197499
-0.136711
0.169113
-0.17127
0.15434
-0.201059
0.147762
-0.183064
0.122098
-0.206764
0.112433
-0.261067
0.168353
-0.245791
0.241811
0.0875397
0.261284
0.40746
0.253019
0.472487
0.239254
0.328178
0.235534
0.0307794
0.221462
-0.0987876
0.1862
-0.323049
0.174405
-0.4998
0.178504
-0.391769
0.203104
-0.282613
0.254569
0.294235
0.268003
0.56706
0.269259
0.346934
0.249835
0.151304
0.195157
-0.520411
0.202855
-0.82391
0.2651
0.341493
0.27439
0.735665
0.25096
0.0136446
0.240373
-0.282334
0.24469
0.0171713
0.249599
0.116418
0.251402
0.0247268
0.250941
-0.00290386
0.252161
0.0106173
0.254345
0.0152903
0.0120024
0.500586
-0.0064621
-0.499959
0.501677
-0.0245494
0.497853
-0.0549453
0.481065
-0.0849998
0.461379
-0.117025
0.435618
-0.145508
0.401992
-0.167433
0.384119
-0.165191
0.361106
-0.183751
0.310096
-0.210057
0.286089
-0.221784
0.289674
0.0839545
0.271076
0.426058
0.298487
0.445075
0.365706
0.260958
0.418481
-0.0219955
0.441562
-0.121869
0.428665
-0.310152
0.393358
-0.464493
0.361279
-0.35969
0.32339
-0.244723
0.322892
0.294733
0.344933
0.545019
0.39751
0.294358
0.431213
0.117601
0.393151
-0.482349
0.338576
-0.769335
0.357819
0.322251
0.393368
0.700115
0.398044
0.0089687
0.378656
-0.262946
0.370171
0.0256566
0.375589
0.111
0.378016
0.0222998
0.374591
0.000521828
0.373259
0.0119491
0.373309
0.0152399
0.0132287
0.528113
-0.00634732
-0.528228
0.525983
-0.0224194
0.518927
-0.0478892
0.503126
-0.069199
0.480868
-0.0947675
0.455291
-0.119931
0.42028
-0.132422
0.386853
-0.131765
0.369222
-0.166121
0.321515
-0.162349
0.274317
-0.174586
0.261815
0.0964562
0.275047
0.412827
0.353338
0.366784
0.437074
0.177222
0.479218
-0.0641396
0.486037
-0.128688
0.458341
-0.282456
0.407905
-0.414057
0.35977
-0.311555
0.322144
-0.207097
0.320864
0.296012
0.356348
0.509535
0.428222
0.222484
0.467147
0.0786765
0.411099
-0.426302
0.34826
-0.706496
0.371399
0.299111
0.416159
0.655356
0.426498
-0.00137102
0.404661
-0.241109
0.394884
0.0354345
0.402266
0.103618
0.406007
0.018558
0.403124
0.0034051
0.402526
0.0125471
0.403342
0.0144238
0.014057
0.557731
-0.0064857
-0.557593
0.555854
-0.0205422
0.54789
-0.0399255
0.537452
-0.0587605
0.5194
-0.0767157
0.494524
-0.0950548
0.474022
-0.111921
0.442913
-0.100655
0.406082
-0.12929
0.352718
-0.108985
0.289509
-0.111377
0.269576
0.116389
0.332042
0.350361
0.448719
0.250107
0.521778
0.104164
0.538737
-0.0810995
0.532251
-0.122201
0.499325
-0.24953
0.42735
-0.342082
0.351457
-0.235663
0.305621
-0.16126
0.313556
0.288077
0.375839
0.447252
0.46577
0.132552
0.508728
0.0357192
0.438215
-0.355789
0.351813
-0.620094
0.377543
0.273382
0.440186
0.592713
0.456641
-0.0178268
0.431402
-0.21587
0.420892
0.0459446
0.430333
0.0941759
0.434934
0.0139571
0.432614
0.00572537
0.432831
0.01233
0.434542
0.0127124
0.0142362
0.59079
-0.00597627
-0.5913
0.58803
-0.0177822
0.580657
-0.0325528
0.567388
-0.0454915
0.551766
-0.0610936
0.529356
-0.0726448
0.503832
-0.0863967
0.480017
-0.07684
0.452527
-0.1018
0.408802
-0.0652606
0.354797
-0.0573719
0.3576
0.113587
0.451318
0.256643
0.552411
0.149014
0.599339
0.0572353
0.590303
-0.0720629
0.563724
-0.0956232
0.523147
-0.208953
0.438367
-0.257302
0.346396
-0.143692
0.286227
-0.101092
0.313483
0.260822
0.41261
0.348124
0.503313
0.041849
0.547987
-0.00895403
0.46515
-0.272953
0.346108
-0.501052
0.376294
0.243196
0.471115
0.497891
0.491361
-0.0380724
0.457275
-0.181783
0.44644
0.0567789
0.459149
0.0814678
0.464737
0.00836845
0.463089
0.00737371
0.464252
0.0111663
0.467035
0.00992981
0.0134168
0.627944
-0.00498992
-0.62893
0.624566
-0.0144041
0.617102
-0.0250885
0.6072
-0.0355894
0.593399
-0.0472928
0.575911
-0.0551566
0.555024
-0.0655097
0.533123
-0.0549396
0.50477
-0.0734463
0.471262
-0.0317532
0.444839
-0.0309491
0.473871
0.0845554
0.56626
0.164254
0.625869
0.0894047
0.644555
0.03855
0.631157
-0.0586655
0.607633
-0.0720986
0.568436
-0.169756
0.485245
-0.17411
0.400849
-0.0592956
0.333707
-0.0339496
0.372636
0.221893
0.485747
0.235013
0.552389
-0.0247932
0.593595
-0.0501602
0.508968
-0.188326
0.356956
-0.349039
0.394927
0.205224
0.522514
0.370305
0.535248
-0.0508069
0.486061
-0.132595
0.476342
0.066497
0.494379
0.0634311
0.499818
0.00292912
0.497867
0.00932507
0.499667
0.00936652
0.503209
0.00638797
0.0116017
0.669346
-0.0035635
-0.670772
0.666589
-0.011647
0.660158
-0.0186575
0.65148
-0.0269112
0.639005
-0.0348185
0.623425
-0.0395759
0.605439
-0.0475236
0.588317
-0.0378176
0.56695
-0.05208
0.549272
-0.0140745
0.537368
-0.0190461
0.565282
0.0566421
0.635008
0.0945274
0.67233
0.0520825
0.681665
0.0292156
0.662861
-0.0398612
0.639245
-0.0484832
0.604675
-0.135186
0.539451
-0.108886
0.492408
-0.0122528
0.448072
0.0103857
0.498732
0.171233
0.593796
0.139949
0.613034
-0.0440312
0.635664
-0.0727894
0.565848
-0.11851
0.406623
-0.189814
0.451403
0.160444
0.588527
0.233181
0.58766
-0.0499405
0.52714
-0.072075
0.522795
0.0708425
0.545195
0.0410308
0.54769
0.000434225
0.544308
0.0127068
0.546184
0.00749097
0.549246
0.00332614
0.00967433
0.716994
-0.00225927
-0.718299
0.714307
-0.00896015
0.708537
-0.0128871
0.701205
-0.0195788
0.690959
-0.0245727
0.678944
-0.0275609
0.66532
-0.0338996
0.652029
-0.0245271
0.636529
-0.0365794
0.626833
-0.0043791
0.621723
-0.0139358
0.642575
0.0357905
0.688233
0.0488693
0.707827
0.0324878
0.718535
0.0185078
0.712288
-0.0336143
0.690213
-0.0264076
0.653598
-0.0985712
0.602532
-0.0578197
0.59189
-0.00161115
0.580979
0.0212969
0.630575
0.121636
0.700086
0.0704376
0.683073
-0.0270181
0.678851
-0.0685667
0.639881
-0.0795403
0.516674
-0.0666068
0.553124
0.123994
0.6643
0.122004
0.654321
-0.039961
0.596355
-0.0141087
0.598141
0.0690561
0.618597
0.0205746
0.616336
0.0026958
0.611406
0.0176362
0.61219
0.00670698
0.612895
0.00262124
0.00918426
0.770831
-0.000927806
-0.772162
0.768192
-0.00632128
0.763693
-0.00838863
0.7576
-0.0134849
0.749828
-0.0168007
0.74041
-0.0181433
0.730076
-0.0235653
0.720456
-0.0149073
0.709246
-0.0253698
0.705154
-0.000286411
0.70345
-0.0122316
0.715949
0.023291
0.743627
0.0211912
0.757934
0.018181
0.76407
0.0123721
0.756448
-0.025993
0.742529
-0.0124882
0.716014
-0.072056
0.683121
-0.0249273
0.686207
-0.00469673
0.689925
0.0175785
0.726242
0.0853193
0.76687
0.02981
0.744259
-0.00440742
0.729667
-0.0539747
0.708524
-0.0583973
0.641529
0.000388388
0.674252
0.0912713
0.740137
0.0561194
0.722884
-0.0227087
0.683451
0.0253247
0.691707
0.0608
0.704773
0.00750846
0.699236
0.0082328
0.694849
0.0220235
0.694431
0.00712494
0.692648
0.00440437
0.0104603
0.831318
5.49039e-05
-0.8323
0.828981
-0.00398449
0.825667
-0.00507528
0.820802
-0.00861954
0.81506
-0.0110586
0.808057
-0.0111405
0.800602
-0.0161098
0.79403
-0.00833607
0.786581
-0.01792
0.784778
0.00151628
0.783342
-0.010796
0.792247
0.0143864
0.806445
0.0069936
0.815196
0.00943009
0.820528
0.00703932
0.816291
-0.0217557
0.806607
-0.00280452
0.785377
-0.0508256
0.767029
-0.00657963
0.770115
-0.0077821
0.775302
0.0123907
0.802936
0.0576853
0.826057
0.00668965
0.811262
0.0103875
0.793096
-0.0358093
0.773851
-0.0391523
0.751754
0.0224857
0.784472
0.0585535
0.811325
0.0292668
0.7918
-0.00318439
0.776578
0.0405467
0.788915
0.048463
0.793281
0.00314288
0.787188
0.0143256
0.785114
0.0240976
0.784001
0.00823751
0.78113
0.00727554
0.012467
0.899233
0.000812394
-0.89999
0.897275
-0.00202713
0.894926
-0.00272638
0.891236
-0.00492867
0.887112
-0.00693468
0.882267
-0.0062963
0.876844
-0.0106863
0.872784
-0.00427582
0.867255
-0.012391
0.866978
0.00179271
0.865226
-0.00904384
0.871166
0.00844679
0.877744
0.000415098
0.883514
0.00365985
0.88674
0.00381403
0.881485
-0.0165009
0.877398
0.0012828
0.861451
-0.0348791
0.853267
0.00160466
0.853903
-0.0084184
0.858058
0.0082361
0.877202
0.0385409
0.886456
-0.00256381
0.881266
0.0155773
0.868426
-0.0229693
0.852616
-0.0233423
0.849245
0.0258561
0.871707
0.0360923
0.880079
0.0208945
0.868242
0.00865232
0.868928
0.0398614
0.87912
0.0382702
0.877204
0.00505918
0.873898
0.0176316
0.874662
0.0233335
0.873082
0.00981727
0.870511
0.00984678
0.0139365
0.975016
0.00132036
-0.975524
0.973487
-0.000498989
0.971844
-0.00108305
0.96923
-0.0023146
0.966286
-0.00399039
0.963126
-0.00313653
0.959125
-0.00668525
0.956799
-0.00194957
0.952581
-0.0081737
0.953039
0.0013354
0.950733
-0.00673787
0.954872
0.00430702
0.957069
-0.00178134
0.960081
0.000647296
0.962313
0.0015827
0.957799
-0.0119873
0.956753
0.00232886
0.944495
-0.0226211
0.942238
0.00386209
0.940244
-0.00642488
0.943078
0.00540258
0.957376
0.0242422
0.959249
-0.00443667
0.960101
0.014726
0.949923
-0.0127919
0.936931
-0.0103505
0.941137
0.0216503
0.955059
0.0221704
0.957392
0.0185616
0.951177
0.014867
0.957221
0.0338173
0.964893
0.0305983
0.96124
0.00871275
0.960688
0.0181831
0.962906
0.021116
0.961162
0.0115605
0.959475
0.0115341
0.0144544
1.05894
0.00163614
-1.05926
1.05787
0.000567822
1.05675
4.25707e-05
1.05504
-0.000611159
1.05294
-0.00188373
1.05102
-0.00122042
1.04806
-0.00372431
1.04686
-0.000751737
1.04357
-0.00488288
1.04416
0.000746177
1.04187
-0.00444909
1.04434
0.00183584
1.04461
-0.00204627
1.04598
-0.00072234
1.04722
0.000338096
1.04309
-0.0078589
1.04372
0.0017025
1.03452
-0.0134203
1.03509
0.00328956
1.03254
-0.00386903
1.03454
0.00339593
1.04393
0.0148511
1.04216
-0.0026589
1.04535
0.0115295
1.03807
-0.00550979
1.0306
-0.0028782
1.03531
0.0169382
1.04168
0.0158053
1.04381
0.0164268
1.04182
0.0168533
1.04823
0.0274157
1.05377
0.0250524
1.05036
0.0121263
1.05136
0.0171769
1.05395
0.018526
1.05246
0.0130569
1.05151
0.0124792
0.0143738
1.15157
0.00179862
-1.15173
1.1509
0.00123074
1.15014
0.00080382
1.1491
0.000433169
1.14765
-0.000439006
1.14654
-0.000102369
1.14443
-0.00161932
1.14378
-0.000102225
1.14134
-0.00244483
1.14174
0.000349146
1.13975
-0.00245484
1.14105
0.000532929
1.14047
-0.0014642
1.14077
-0.00102165
1.14132
-0.000211417
1.13811
-0.00465021
1.13903
0.000779412
1.13269
-0.00708453
1.13409
0.00189885
1.13164
-0.00142108
1.13289
0.00214045
1.13873
0.0090098
1.13645
-0.000370341
1.13999
0.0079878
1.13458
-0.000104565
1.13053
0.00117837
1.13423
0.0132302
1.13745
0.0125877
1.1402
0.0136779
1.13967
0.0173826
1.14502
0.0220704
1.14944
0.0206306
1.14712
0.0144478
1.14865
0.0156406
1.15097
0.0162097
1.14997
0.0140514
1.14959
0.0128664
0.0140154
1.25344
0.00185096
-1.25349
1.25309
0.00158505
1.25264
0.00125565
1.25203
0.00103683
1.25109
0.000506324
1.25043
0.000557909
1.24902
-0.000209056
1.24862
0.00029108
1.24691
-0.000736483
1.24706
0.000207321
1.2455
-0.000903735
1.24601
2.75598e-05
1.24519
-0.0006442
1.245
-0.000832523
1.24504
-0.00025156
1.24275
-0.00236213
1.24342
0.000108123
1.23929
-0.00294578
1.2405
0.000681043
1.23862
0.000458495
1.23945
0.00131227
1.24266
0.00580452
1.24079
0.00150031
1.24346
0.00531215
1.23998
0.00337733
1.23861
0.00254913
1.24105
0.0107859
1.24244
0.0112032
1.24522
0.0108956
1.24584
0.0167619
1.25032
0.0175965
1.2538
0.0171492
1.25253
0.0157183
1.25422
0.0139451
1.25614
0.0142927
1.25574
0.0144552
1.25583
0.01277
0.0134784
1.36528
0.00180653
-1.36524
1.36514
0.00172875
1.36491
0.00147717
1.3646
0.00135408
1.36404
0.00106251
1.36366
0.000939876
1.36277
0.000678665
1.3625
0.000566698
1.36137
0.000391884
1.36134
0.000238757
1.3602
0.000236627
1.3603
-7.44007e-05
1.35949
0.000166173
1.35913
-0.000478157
1.35887
9.82824e-06
1.35732
-0.000810907
1.35767
-0.000240056
1.35509
-0.000365627
1.35594
-0.000170064
1.35459
0.00180552
1.35512
0.000788849
1.35675
0.00416752
1.35556
0.00269165
1.3575
0.00337696
1.35539
0.00548102
1.35514
0.00280135
1.35677
0.00916091
1.35783
0.0101391
1.36029
0.00843737
1.36133
0.0157224
1.36497
0.0139525
1.36795
0.014171
1.36769
0.015975
1.36926
0.0123733
1.37079
0.0127666
1.37098
0.0142659
1.37152
0.0122343
0.0127996
1.48791
0.00169392
-1.48779
1.4879
0.00173292
1.48784
0.0015349
1.48771
0.00148528
1.48744
0.00133858
1.48723
0.00114911
1.48672
0.00118144
1.48653
0.00076592
1.48583
0.0010846
1.48571
0.000360547
1.48495
0.000997655
1.48485
2.7434e-05
1.4842
0.00081449
1.48383
-0.000111355
1.48348
0.000359171
1.48249
0.000180838
1.48256
-0.000308416
1.48106
0.00113719
1.48151
-0.000625964
1.48066
0.00265642
1.48101
0.000444152
1.48177
0.00340084
1.4812
0.00326055
1.48239
0.0021886
1.48134
0.0065354
1.48171
0.00242558
1.4828
0.00807175
1.48381
0.00913722
1.48582
0.00641974
1.48716
0.0143818
1.49026
0.0108517
1.49279
0.0116439
1.49332
0.0154515
1.49471
0.0109792
1.49606
0.0114122
1.4968
0.0135269
1.49764
0.0113921
0.0119386
1.62223
0.00153148
-1.62207
1.62233
0.00163752
1.62239
0.0014776
1.62238
0.00148742
1.6223
0.00141878
1.62222
0.00123465
1.62199
0.00140688
1.62186
0.000896072
1.6215
0.00144327
1.62136
0.000506228
1.62091
0.00144064
1.62075
0.000197345
1.62031
0.00125204
1.62
0.000198025
1.61968
0.00067964
1.61911
0.000750609
1.619
-0.00020507
1.61825
0.00188685
1.61839
-0.00076215
1.61801
0.00303966
1.61818
0.000268508
1.61859
0.00299536
1.61847
0.00337852
1.61914
0.0015197
1.61892
0.00675339
1.61933
0.00202078
1.62019
0.00720974
1.62135
0.00798034
1.62294
0.00482784
1.62458
0.012742
1.62716
0.00826606
1.62932
0.00948443
1.63041
0.0143667
1.63162
0.00976576
1.63301
0.0100256
1.63431
0.0122288
1.63533
0.0103673
0.0109712
1.76931
0.00133404
-1.76911
1.76948
0.00146471
1.76962
0.00134114
1.76971
0.00139076
1.76977
0.00136016
1.76978
0.00122451
1.76976
0.00142884
1.76969
0.000968066
1.76959
0.00154081
1.76945
0.000648728
1.76928
0.00160531
1.76909
0.000391258
1.76889
0.00145751
1.76865
0.00043042
1.76843
0.000902623
1.76819
0.000993776
1.76799
-3.57937e-06
1.76782
0.0020497
1.76771
-0.000646807
1.76779
0.00295709
1.76784
0.000217963
1.76816
0.00267316
1.76841
0.00313537
1.76861
0.00131319
1.76905
0.00631975
1.76926
0.00180886
1.77009
0.00637342
1.77138
0.00669721
1.77255
0.00365963
1.77464
0.0106483
1.77684
0.00606329
1.77867
0.00765383
1.78009
0.0129447
1.78103
0.00883372
1.78263
0.00841747
1.78457
0.0102947
1.78568
0.00925567
0.00991574
1.9302
0.00112084
-1.92998
1.93044
0.00122222
1.93063
0.00115097
1.93081
0.0012045
1.93098
0.00119149
1.93108
0.00112761
1.93124
0.00126684
1.93122
0.000988273
1.93139
0.0013714
1.93124
0.000796659
1.93141
0.00144022
1.93117
0.000628547
1.93128
0.00135119
1.93107
0.000635316
1.93101
0.000966192
1.93102
0.000983979
1.93069
0.000324237
1.93107
0.00167071
1.93055
-0.000129436
1.93122
0.00229435
1.93096
0.000476222
1.93142
0.00221516
1.93197
0.00258199
1.93171
0.00157013
1.93306
0.00496705
1.93275
0.00212653
1.93395
0.00517075
1.9354
0.00525053
1.93583
0.00322124
1.93869
0.00779613
1.94009
0.00465536
1.9415
0.00624865
1.94382
0.0106236
1.9445
0.00815323
1.94618
0.00674038
1.94866
0.0078118
1.94983
0.00808937
0.00876473
2.10627
0.000888626
-2.10603
2.10654
0.000946255
2.10678
0.000915972
2.10702
0.000956739
2.10727
0.00094277
2.10746
0.000939379
2.10775
0.0009827
2.10784
0.000892554
2.10818
0.00103562
2.10816
0.00081454
2.10853
0.00107339
2.10842
0.000732598
2.10873
0.00104501
2.10865
0.000710346
2.10873
0.000885214
2.10888
0.000837641
2.10858
0.000620939
2.1091
0.00115159
2.10852
0.000452918
2.10929
0.00152528
2.10897
0.000791092
2.10949
0.00170245
2.11018
0.00188409
2.11003
0.0017217
2.11177
0.00322928
2.11164
0.00225801
2.11313
0.00367823
2.11456
0.00382149
2.1147
0.0030787
2.11735
0.0051502
2.11805
0.00395567
2.11923
0.00506736
2.12247
0.00737978
2.12398
0.00665062
2.12533
0.00539165
2.12732
0.00581259
2.12884
0.0065728
0.00710878
2.29917
0.000622761
-2.29891
2.29946
0.000658544
2.29973
0.000642669
2.30001
0.000674678
2.3003
0.000658053
2.30056
0.000676631
2.30087
0.000676513
2.3011
0.000663884
2.30143
0.000700687
2.30161
0.000633537
2.30196
0.000722458
2.3021
0.000596052
2.30242
0.000727022
2.30255
0.000579192
2.30275
0.00068821
2.30295
0.000629368
2.30296
0.000616421
2.30333
0.000784643
2.3032
0.000581001
2.30371
0.00101416
2.30375
0.000749319
2.30424
0.00121272
2.30487
0.0012536
2.30523
0.00135863
2.30652
0.00194564
2.30707
0.00171041
2.30837
0.00236983
2.30966
0.00253226
2.31033
0.0024102
2.31214
0.00333941
2.31311
0.00298812
2.31453
0.00364479
2.31743
0.00448716
2.31968
0.0043976
2.32108
0.00398828
2.32267
0.00422017
2.32464
0.00461006
0.00496399
2.51041
0.000326464
-2.51011
2.51073
0.000342754
2.51103
0.000337998
2.51135
0.000354687
2.51166
0.000345756
2.51198
0.000361161
2.5123
0.000352789
2.5126
0.000362084
2.51294
0.000361012
2.51322
0.00035524
2.51357
0.000369595
2.51383
0.000342899
2.51418
0.000377496
2.51442
0.000333793
2.51473
0.000378941
2.51502
0.000344937
2.51526
0.000376897
2.51564
0.000400344
2.51583
0.000388888
2.51634
0.000504829
2.51663
0.000461685
2.51721
0.000634436
2.51782
0.000643823
2.51841
0.000769795
2.51943
0.000921284
2.52018
0.000958978
2.52138
0.0011762
2.52263
0.00128238
2.5237
0.00133538
2.52539
0.00164986
2.52676
0.00162138
2.52848
0.00192481
2.53079
0.00217311
2.53293
0.00226263
2.53479
0.00212307
2.5368
0.00221572
2.53897
0.00243384
0.00261685
2.74176
-2.74143
2.7421
2.74244
2.74279
2.74314
2.7435
2.74385
2.74422
2.74458
2.74493
2.7453
2.74565
2.74602
2.74636
2.74674
2.74708
2.74746
2.74786
2.74825
2.74875
2.74921
2.74985
2.75049
2.75126
2.75218
2.75314
2.75432
2.7556
2.75694
2.75858
2.76021
2.76213
2.7643
2.76657
2.76869
2.77091
2.77334
0.429845
0.0457684
-0.422597
0.438537
0.0744898
0.446198
0.105601
0.45587
0.133727
0.464485
0.164131
0.476033
0.191122
0.488713
0.219181
0.246916
0.462616
0.0393604
-0.456208
0.470398
0.0667077
0.477839
0.0981601
0.486663
0.124903
0.49613
0.154664
0.505716
0.181537
0.517282
0.207616
0.23597
0.499105
0.0338976
-0.493642
0.505464
0.0603481
0.512142
0.0914821
0.519287
0.117758
0.527493
0.146459
0.535709
0.173321
0.54572
0.197604
0.224097
0.538301
0.0289848
-0.533388
0.543513
0.0551357
0.549417
0.0855786
0.555705
0.11147
0.562875
0.139289
0.57137
0.164826
0.580546
0.188428
0.213344
0.581145
0.0249321
-0.577092
0.585536
0.050745
0.590903
0.0802108
0.596904
0.105469
0.6038
0.132393
0.611543
0.157083
0.619623
0.180349
0.204036
0.628021
0.0214595
-0.624548
0.631917
0.0468488
0.6368
0.0753282
0.64218
0.100088
0.648136
0.126437
0.654751
0.150468
0.662018
0.173082
0.195281
0.679456
0.0185549
-0.676551
0.682671
0.0436333
0.686752
0.0712469
0.691257
0.0955836
0.696485
0.121209
0.702985
0.143968
0.710082
0.165985
0.187065
0.735585
0.016313
-0.733344
0.738224
0.0409943
0.741871
0.0676007
0.746269
0.091185
0.751688
0.115791
0.757954
0.137702
0.764528
0.159411
0.17943
0.797515
0.0144915
-0.795694
0.799954
0.0385559
0.803514
0.0640407
0.807736
0.0869627
0.81272
0.110807
0.818396
0.132027
0.824864
0.152943
0.171994
0.865653
0.0129937
-0.864155
0.867854
0.0363545
0.871162
0.0607325
0.87509
0.083035
0.880049
0.105847
0.885861
0.126215
0.89258
0.146224
0.164584
0.940425
0.0117593
-0.939191
0.94248
0.0342999
0.945769
0.0574437
0.949827
0.0789766
0.955084
0.10059
0.961036
0.120263
0.967931
0.139328
0.156991
1.02265
0.0106746
-1.02156
1.0247
0.0322531