/*--------------------------------*- C++ -*----------------------------------*\
| =========                 |                                                 |
| \\      /  F ield         | OpenFOAM: The Open Source CFD Toolbox           |
|  \\    /   O peration     | Version:  2312                                  |
|   \\  /    A nd           | Website:  www.openfoam.com                      |
|    \\/     M anipulation  |                                                 |
\*---------------------------------------------------------------------------*/
FoamFile
{
    version     2.0;
    format      ascii;
    arch        "LSB;label=32;scalar=64";
    class       volScalarField;
    location    "121.3";
    object      p;
}
// * * * * * * * * * * * * * * * * * * * * * * * * * * * * * * * * * * * * * //

dimensions      [0 2 -2 0 0 0 0];

internalField   nonuniform List<scalar> 
5478
(
-0.561642
-0.559627
-0.559447
-0.560793
-0.561463
-0.557058
-0.543012
-0.516745
-0.478797
-0.432418
-0.381977
-0.331022
-0.282307
-0.23627
-0.193224
-0.569081
-0.564992
-0.56183
-0.558755
-0.553056
-0.540643
-0.518876
-0.487492
-0.44854
-0.405289
-0.360773
-0.317176
-0.275868
-0.236848
-0.201203
-0.579012
-0.573078
-0.566659
-0.558225
-0.544533
-0.523372
-0.494642
-0.459909
-0.421548
-0.381852
-0.34247
-0.304546
-0.268585
-0.234945
-0.203655
-0.593293
-0.584823
-0.574375
-0.558874
-0.535837
-0.506162
-0.47203
-0.435519
-0.398271
-0.361428
-0.325776
-0.29179
-0.259794
-0.229953
-0.20237
-0.612532
-0.599683
-0.584101
-0.55949
-0.526537
-0.489525
-0.45148
-0.413901
-0.377491
-0.342638
-0.309553
-0.278399
-0.249173
-0.222062
-0.196731
-0.635701
-0.616703
-0.593411
-0.557925
-0.515565
-0.472579
-0.43155
-0.393078
-0.357153
-0.323644
-0.29246
-0.263474
-0.236605
-0.211753
-0.188334
-0.658454
-0.633679
-0.598691
-0.551322
-0.500803
-0.453142
-0.409824
-0.370671
-0.335125
-0.302735
-0.273131
-0.246041
-0.221218
-0.198491
-0.177214
-0.674721
-0.64514
-0.596017
-0.537055
-0.47988
-0.428702
-0.383853
-0.344423
-0.30945
-0.278221
-0.250189
-0.224935
-0.202201
-0.181722
-0.162988
-0.443189
-0.445767
-0.447731
-0.452165
-0.459584
-0.46994
-0.483034
-0.498464
-0.51555
-0.533579
-0.551762
-0.569053
-0.583804
-0.593735
-0.596359
-0.451686
-0.456197
-0.459871
-0.465791
-0.474124
-0.484073
-0.494435
-0.503612
-0.509968
-0.512343
-0.510165
-0.503152
-0.491411
-0.475741
-0.454008
-0.465585
-0.471574
-0.477043
-0.48487
-0.494792
-0.505259
-0.513993
-0.518052
-0.514544
-0.501547
-0.478316
-0.445045
-0.403236
-0.35745
-0.305287
-0.484999
-0.491093
-0.497858
-0.507655
-0.519453
-0.531067
-0.539187
-0.539519
-0.527968
-0.502054
-0.4611
-0.406635
-0.338738
-0.272163
-0.19001
-0.505994
-0.512113
-0.520163
-0.530964
-0.543752
-0.555901
-0.563091
-0.559889
-0.541757
-0.506131
-0.450876
-0.385241
-0.303407
-0.229061
-0.141508
-0.525913
-0.530759
-0.538378
-0.549181
-0.561726
-0.57258
-0.577722
-0.569765
-0.545172
-0.501731
-0.441884
-0.371463
-0.292696
-0.219055
-0.14663
-0.542056
-0.544812
-0.550756
-0.559654
-0.569517
-0.577032
-0.576927
-0.563458
-0.533291
-0.486209
-0.426736
-0.360117
-0.29203
-0.228171
-0.169047
-0.553558
-0.5539
-0.557038
-0.562254
-0.568039
-0.570297
-0.563688
-0.543807
-0.508924
-0.461115
-0.40527
-0.346241
-0.288901
-0.235288
-0.187023
-0.578242
-0.487872
-0.346424
-0.268051
-0.242476
-0.262948
-0.287506
-0.244298
-0.182147
-0.143611
-0.130117
-0.10966
-0.104031
-0.121008
-0.146912
-0.139251
-0.118585
-0.104241
-0.124751
-0.139
-0.134539
-0.11882
-0.14748
-0.133334
-0.142863
-0.182958
-0.20514
-0.110202
-0.0780297
-0.0555898
-0.0401343
-0.0245922
-0.00919424
-0.00872219
-0.00684259
-0.00425997
-0.00249431
-0.000732554
-0.41921
-0.37645
-0.289627
-0.256109
-0.257098
-0.297481
-0.329235
-0.272186
-0.19538
-0.145022
-0.128603
-0.108846
-0.0978389
-0.116332
-0.143039
-0.135893
-0.115189
-0.0961005
-0.114427
-0.130584
-0.127576
-0.127656
-0.161372
-0.141268
-0.143697
-0.162149
-0.172836
-0.11719
-0.0872972
-0.0562806
-0.0375549
-0.0239196
-0.0100086
-0.00893666
-0.00663285
-0.00424866
-0.00255366
-0.000765728
-0.259542
-0.225292
-0.195389
-0.209606
-0.245033
-0.317596
-0.34996
-0.285961
-0.201975
-0.144124
-0.126046
-0.112313
-0.0957758
-0.11372
-0.139011
-0.132291
-0.110887
-0.0881848
-0.103135
-0.121622
-0.119113
-0.134477
-0.171112
-0.147053
-0.141552
-0.142009
-0.138972
-0.120229
-0.0938111
-0.0560545
-0.0345347
-0.0229268
-0.010745
-0.00909991
-0.00640174
-0.0042265
-0.00262427
-0.000798839
-0.124346
-0.0671335
-0.0594893
-0.119486
-0.208636
-0.316818
-0.34818
-0.284695
-0.201794
-0.142156
-0.122768
-0.116171
-0.0968731
-0.11476
-0.137042
-0.129431
-0.106214
-0.0811002
-0.0916911
-0.11244
-0.109392
-0.138446
-0.176048
-0.151014
-0.13722
-0.124342
-0.106733
-0.119121
-0.0968928
-0.0553067
-0.0313152
-0.0216875
-0.0113559
-0.00920468
-0.00617137
-0.00419517
-0.00268585
-0.000829513
-0.0541882
0.0270076
0.0660528
-0.015412
-0.148301
-0.284415
-0.322114
-0.26604
-0.193471
-0.138839
-0.118791
-0.115385
-0.0994304
-0.120457
-0.13894
-0.125984
-0.101091
-0.0752868
-0.0814797
-0.103423
-0.0990378
-0.139195
-0.176352
-0.152786
-0.131702
-0.109849
-0.0781949
-0.11522
-0.0959631
-0.0541795
-0.0281294
-0.0203001
-0.011809
-0.00924264
-0.00595983
-0.00415878
-0.00273514
-0.000854902
-0.0640298
0.0375066
0.119554
0.0611091
-0.0867942
-0.229143
-0.276323
-0.23519
-0.177129
-0.133954
-0.113232
-0.107486
-0.102266
-0.126573
-0.143635
-0.125771
-0.0977015
-0.0710686
-0.0724682
-0.0945837
-0.0877422
-0.136036
-0.172585
-0.153259
-0.12646
-0.1001
-0.0553465
-0.109407
-0.0917011
-0.0529513
-0.0251296
-0.0188326
-0.0120851
-0.00921488
-0.00578346
-0.00412414
-0.00277025
-0.000872318
-0.097925
-0.0127841
0.104911
0.0965925
-0.0179409
-0.162392
-0.221464
-0.206023
-0.162622
-0.13032
-0.108033
-0.0968795
-0.100194
-0.132574
-0.147887
-0.123184
-0.0934687
-0.0677182
-0.0659961
-0.0865852
-0.0752965
-0.128329
-0.165981
-0.150754
-0.12077
-0.0931045
-0.0371702
-0.101509
-0.0843842
-0.0513787
-0.0225963
-0.0174543
-0.0122134
-0.00911203
-0.00564187
-0.00409827
-0.00278283
-0.000878647
-0.132169
-0.0716564
0.0124814
0.0647947
0.0225138
-0.0800787
-0.144172
-0.153956
-0.135704
-0.116959
-0.101933
-0.0871737
-0.0890478
-0.133218
-0.154624
-0.125982
-0.0928133
-0.0663658
-0.0597931
-0.0785205
-0.0641556
-0.117102
-0.156725
-0.149075
-0.115812
-0.091594
-0.0222801
-0.0918926
-0.0807344
-0.0504076
-0.0202548
-0.0159671
-0.0121668
-0.00899402
-0.00554954
-0.00409926
-0.00282338
-0.000872724
-0.128958
-0.0851846
-0.0168996
0.0357865
0.020378
-0.048537
-0.0975335
-0.115979
-0.107596
-0.09295
-0.08406
-0.0746958
-0.0793944
-0.119404
-0.130468
-0.117172
-0.0867207
-0.0652113
-0.0604394
-0.0740574
-0.0563249
-0.105459
-0.143342
-0.138762
-0.104341
-0.0899756
-0.0298721
-0.0815819
-0.0620492
-0.0481625
-0.0187016
-0.01446
-0.0118108
-0.00861318
-0.00542917
-0.0041155
-0.00279119
-0.00084451
-0.117647
-0.0833173
-0.0357399
-0.00117958
-0.000877965
-0.0342875
-0.0645138
-0.0779962
-0.0738621
-0.0670532
-0.0629614
-0.0550982
-0.0619349
-0.108534
-0.140591
-0.109325
-0.0748502
-0.0563418
-0.055418
-0.0626902
-0.0398213
-0.083038
-0.12718
-0.123403
-0.0875974
-0.0694823
-0.0186537
-0.0688029
-0.103427
-0.0451512
-0.0158576
-0.0125161
-0.0111866
-0.00810179
-0.00524174
-0.00405782
-0.00273229
-0.000784858
-0.0994159
-0.0798091
-0.0505197
-0.0254583
-0.0166168
-0.0283968
-0.0451863
-0.0542487
-0.0555987
-0.0498932
-0.0470579
-0.0382439
-0.0314378
-0.0638403
-0.0867974
-0.0810588
-0.0577089
-0.0470203
-0.0494498
-0.0507852
-0.0287876
-0.0569593
-0.0934174
-0.098978
-0.0632604
-0.0414521
-0.00758872
-0.052017
-0.0717075
-0.0378885
-0.0132478
-0.0108114
-0.0104635
-0.00743222
-0.0050253
-0.00418469
-0.00268119
-0.000696311
-0.0820262
-0.0727599
-0.0543643
-0.0363122
-0.02665
-0.0275816
-0.033871
-0.0371861
-0.0355231
-0.0300184
-0.0235954
-0.0165081
-0.00575268
-0.0165889
-0.0229943
-0.0388571
-0.0412167
-0.0376801
-0.0383813
-0.0339102
-0.0157633
-0.0270502
-0.0535213
-0.0735265
-0.0441557
-0.0137681
0.010642
-0.0295598
-0.0554029
-0.0308422
-0.0116814
-0.00914353
-0.00971352
-0.00666338
-0.00476229
-0.00440061
-0.00263906
-0.000577198
-0.0668934
-0.0630431
-0.0519515
-0.0395546
-0.0304385
-0.0265433
-0.026768
-0.0265001
-0.0253831
-0.0204136
-0.0137853
-0.00434876
0.0144353
0.0243457
0.024072
-0.0021859
-0.023297
-0.0238526
-0.0252424
-0.0195862
-0.00692728
0.00259125
-0.00837898
-0.0500458
-0.033415
0.00983394
0.0183051
-0.00549886
-0.0343085
-0.0229771
-0.0112445
-0.00765029
-0.00911743
-0.00565893
-0.00437228
-0.00469779
-0.0026227
-0.000434137
-0.0533781
-0.052437
-0.0463363
-0.038072
-0.0301978
-0.0246898
-0.0221216
-0.0192045
-0.0155031
-0.00941755
-0.000685243
0.00741364
0.0226932
0.0365189
0.0380299
0.0173823
-0.00624083
-0.0101065
-0.0105776
-0.00380785
0.00310716
0.0147282
0.00534902
-0.0371626
-0.0306817
0.0224356
0.0241978
0.018355
-0.014287
-0.0157984
-0.0113756
-0.00627812
-0.00887399
-0.00477809
-0.003849
-0.00503091
-0.0026289
-0.000279969
-0.0414013
-0.0421467
-0.0388484
-0.0329239
-0.0270769
-0.0216888
-0.0175988
-0.0136073
-0.0096794
-0.00457895
0.00226014
0.00987609
0.0229465
0.0345811
0.0365063
0.0233659
0.00606887
0.0013855
-0.00111597
0.00442937
0.00818896
0.0198225
0.0175697
-0.0221758
-0.0188892
0.0237878
0.0242991
0.0339852
-8.22636e-05
-0.0119489
-0.0109918
-0.00614123
-0.00919718
-0.00403072
-0.00327557
-0.00527255
-0.00261644
-0.000138632
-0.031471
-0.032838
-0.0311896
-0.0273654
-0.022811
-0.0180807
-0.0139683
-0.00994412
-0.00591052
-0.00101064
0.00542723
0.0121138
0.0208364
0.0281983
0.0305002
0.0226907
0.011646
0.00779191
0.00599142
0.0108383
0.0127583
0.0174404
0.0170195
-0.00643677
-0.00581253
0.0204038
0.0233505
0.0381523
0.00639741
-0.0112368
-0.00900454
-0.00686096
-0.0100496
-0.00342613
-0.00282003
-0.0053185
-0.00252498
-4.77801e-05
-0.0231113
-0.0246518
-0.0239637
-0.0214422
-0.0180269
-0.0141828
-0.0105035
-0.00680105
-0.00305565
0.00106341
0.00587521
0.0108192
0.0169011
0.0217429
0.0240088
0.020202
0.0137358
0.0114091
0.00914433
0.0118406
0.0134024
0.0152463
0.0167582
0.00424868
0.00326138
0.0174915
0.0207457
0.0346868
0.0118554
-0.00825372
-0.00555354
-0.00648557
-0.0105422
-0.00272397
-0.00238403
-0.00496799
-0.00226952
3.16449e-06
-0.0162156
-0.0176939
-0.0174556
-0.0157446
-0.0132705
-0.0103436
-0.00736539
-0.00429177
-0.00120046
0.00205531
0.00579624
0.00961409
0.0138735
0.0169349
0.0187278
0.01742
0.0139131
0.0125252
0.0115086
0.0130205
0.0143446
0.0140998
0.0151159
0.00945994
0.00872338
0.0163513
0.0188039
0.0282064
0.0158433
-0.00243772
-0.00193957
-0.00413587
-0.00546851
-0.00172121
-0.00181493
-0.00413825
-0.00186191
-4.40223e-06
-0.0105811
-0.0118065
-0.0117957
-0.0107052
-0.00898641
-0.00683015
-0.00452401
-0.00211483
0.000328422
0.00283939
0.00565403
0.00840962
0.0113473
0.0134334
0.0148188
0.0148981
0.0133836
0.0127403
0.0120722
0.0126511
0.0133715
0.0132816
0.0140585
0.0117941
0.0115027
0.015611
0.0167059
0.0226417
0.0172889
0.00292188
0.00110208
-0.00116061
-0.00347322
-0.00088183
-0.0010198
-0.0030099
-0.00138233
-1.58083e-05
-0.00589675
-0.00693229
-0.00707789
-0.00640361
-0.00520308
-0.00364856
-0.00194741
-0.000155359
0.00167815
0.0035262
0.00556169
0.00756511
0.0096216
0.0112133
0.0122922
0.0129049
0.0125169
0.0122982
0.0122154
0.0125839
0.0130497
0.0129187
0.0133574
0.0125795
0.0126063
0.0148928
0.0152032
0.0184143
0.0163533
0.0064399
0.00351999
0.00130556
-0.00138481
-0.000151987
-0.000298479
-0.00192699
-0.000930174
-1.73887e-05
-0.0021403
-0.00298537
-0.00315786
-0.00273235
-0.00193055
-0.000871813
0.000325979
0.00161006
0.00292701
0.00425227
0.00569059
0.00714526
0.00862824
0.0099022
0.0109466
0.0114938
0.011658
0.0117495
0.0118147
0.0120939
0.0123268
0.0123554
0.0127481
0.0125546
0.0125761
0.0138249
0.0137147
0.0152038
0.0142631
0.00804113
0.00519351
0.00287696
0.00017148
0.000485427
0.000217806
-0.00105465
-0.000551299
-1.51845e-06
0.000902967
0.000247441
6.64206e-05
0.000296802
0.000797116
0.00149043
0.00231308
0.0032109
0.00412249
0.00503854
0.00601584
0.00704929
0.00808385
0.00903541
0.00982507
0.0104466
0.0108483
0.0111019
0.011291
0.0115872
0.0118154
0.0118914
0.0121444
0.0121419
0.0121217
0.0127625
0.0125222
0.0128845
0.0121901
0.0084496
0.0060682
0.00387101
0.00144615
0.0010817
0.000620186
-0.000374693
-0.000225115
3.93578e-05
0.00337006
0.00285177
0.00266457
0.00276565
0.0030598
0.00349403
0.00402685
0.00462634
0.00523596
0.00585339
0.00650937
0.00722417
0.0079661
0.00863117
0.00922419
0.00975768
0.0101937
0.0105236
0.0107583
0.0110321
0.0112305
0.0113136
0.0114827
0.011529
0.0114349
0.0116623
0.0113758
0.0111798
0.0105096
0.00815837
0.00631648
0.00443519
0.00238096
0.00160635
0.000959439
0.000132894
3.55238e-05
7.80941e-05
0.00533249
0.0049302
0.00475351
0.00477115
0.00491846
0.00516444
0.00548544
0.00586402
0.00624884
0.00663971
0.00705374
0.00752633
0.00802381
0.00849665
0.0089352
0.00934912
0.00972617
0.0100354
0.0102606
0.010494
0.010671
0.0107561
0.0108407
0.010853
0.0107256
0.0107207
0.0104153
0.00998007
0.00932452
0.00777653
0.00635885
0.00479499
0.00309795
0.00212903
0.0013259
0.000561719
0.000277677
0.000131162
0.00689125
0.00658128
0.00641627
0.0063766
0.00642285
0.00653851
0.00671041
0.00692648
0.00714739
0.00737338
0.00761471
0.00790708
0.00822238
0.00853629
0.00883168
0.00912907
0.00940821
0.00965404
0.00984012
0.0100179
0.0101523
0.0102054
0.0102275
0.0101888
0.0100456
0.00988208
0.00956568
0.00907072
0.00845817
0.00735271
0.00620257
0.0049409
0.00355845
0.00255308
0.00166832
0.000923247
0.000488778
0.000174318
0.00811256
0.00787125
0.00771919
0.00764419
0.00762419
0.00765039
0.0077173
0.0078164
0.00791984
0.00802836
0.00814789
0.00830936
0.00848705
0.00867559
0.00884972
0.00904144
0.00922472
0.00938577
0.00950957
0.00961826
0.00969863
0.00970856
0.00968618
0.00959663
0.00943756
0.00920929
0.00888276
0.00840162
0.00780593
0.00696701
0.00602752
0.00498977
0.00385746
0.0028964
0.00199621
0.0012397
0.000693543
0.000228072
0.00905356
0.0088634
0.00872371
0.00862749
0.00856463
0.008531
0.00852649
0.00854374
0.00856505
0.00859002
0.00862273
0.00868721
0.00876127
0.00885076
0.00892831
0.00902803
0.00911838
0.00920226
0.00925918
0.00930082
0.00932663
0.00928818
0.00923097
0.00910698
0.00892831
0.00867436
0.00832814
0.00788497
0.00732552
0.00664168
0.00585145
0.00495841
0.00402801
0.00314086
0.00226225
0.00150879
0.000885066
0.000283416
0.00975912
0.00960442
0.00947445
0.00936726
0.00927778
0.00920662
0.00915341
0.00911508
0.00907932
0.00904704
0.00902013
0.00901444
0.00901529
0.0090273
0.00903353
0.00905607
0.0090735
0.00908649
0.0090833
0.00906502
0.00903539
0.00895542
0.00885813
0.00870443
0.00850464
0.0082422
0.0078987
0.00748598
0.00697687
0.00637605
0.00569453
0.00493003
0.00411768
0.0033052
0.00247094
0.00171116
0.00103566
0.000341338
0.0102653
0.010134
0.0100117
0.0098995
0.00979457
0.00970056
0.00961553
0.00954093
0.00946719
0.00939741
0.00933044
0.00927595
0.00922642
0.00918237
0.00913824
0.00910045
0.00906261
0.00901868
0.00896473
0.00889916
0.00881966
0.0087083
0.00857328
0.00839642
0.008179
0.007909
0.00757534
0.00718227
0.00671074
0.00616964
0.00555619
0.00487165
0.00414224
0.00338387
0.00259581
0.0018366
0.0011175
0.000372026
0.0105966
0.0104793
0.0103627
0.0102483
0.010136
0.0100287
0.00992551
0.00982844
0.00973181
0.00963898
0.00954668
0.00946221
0.00937875
0.00930044
0.00922046
0.00914422
0.00906617
0.00898354
0.00889419
0.00879198
0.00868024
0.00854108
0.00838193
0.00818707
0.00795552
0.00768277
0.00735316
0.00697332
0.00652622
0.00602043
0.00545151
0.00482052
0.00413913
0.00342188
0.00267226
0.00191013
0.00116073
0.000391027
0.0107615
0.0106509
0.0105375
0.0104232
0.0103083
0.0101956
0.0100841
0.00997622
0.00986875
0.0097647
0.00966068
0.00956082
0.00946106
0.00936459
0.00926722
0.00917077
0.00907185
0.0089687
0.00885941
0.00873879
0.00860765
0.00845501
0.00828135
0.00807664
0.00783812
0.00756158
0.00723603
0.00686213
0.00642749
0.00594088
0.00539369
0.00478895
0.00413308
0.00343508
0.00270541
0.00194661
0.00118135
0.00039927
-0.13923
-0.148634
-0.156378
-0.16159
-0.164177
-0.160127
-0.153214
-0.140387
-0.112794
-0.117844
-0.121412
-0.123329
-0.123154
-0.121969
-0.120323
-0.122362
-0.0892662
-0.0920753
-0.0933885
-0.0950145
-0.0959122
-0.0986798
-0.0994728
-0.10246
-0.0710024
-0.0725403
-0.0733936
-0.0753528
-0.0766476
-0.0788721
-0.0787768
-0.0803597
-0.0557853
-0.0569493
-0.0576413
-0.0588786
-0.0592795
-0.0599474
-0.0600256
-0.0627972
-0.0435968
-0.0441585
-0.0443644
-0.0447599
-0.0449189
-0.0457074
-0.0469309
-0.0497206
-0.0333928
-0.033579
-0.0335877
-0.0338049
-0.0341578
-0.0349519
-0.035994
-0.0381054
-0.0250551
-0.0250342
-0.0249481
-0.0250183
-0.0252622
-0.0258161
-0.0266816
-0.0285197
-0.0181363
-0.0180082
-0.0178442
-0.0178319
-0.0180143
-0.0184397
-0.0191457
-0.0206591
-0.0123986
-0.0122507
-0.0120819
-0.0120278
-0.0120999
-0.0123604
-0.0129195
-0.0141845
-0.00761583
-0.00747554
-0.00729743
-0.00719117
-0.00721201
-0.0074468
-0.00795657
-0.00898716
-0.00361493
-0.00350996
-0.00337637
-0.00330725
-0.00334938
-0.00353691
-0.0039044
-0.00466723
-0.000317211
-0.000270085
-0.000195418
-0.00014722
-0.00015677
-0.000268235
-0.000547317
-0.00115895
0.00241842
0.00241766
0.00244768
0.00247011
0.00245022
0.00234492
0.00210998
0.00164017
0.00464691
0.00460347
0.00458539
0.0045684
0.00453008
0.00444103
0.0042656
0.00392096
0.00643878
0.00636606
0.00631518
0.00627296
0.00622444
0.00614503
0.00600482
0.00574497
0.00786748
0.0077771
0.00770426
0.00764183
0.00758019
0.00750203
0.00738665
0.00719373
0.00898835
0.00888848
0.00880249
0.00872693
0.00865633
0.00857915
0.00848145
0.00833594
0.00985252
0.00974931
0.00965692
0.00957396
0.00949741
0.00942023
0.00933376
0.00922075
0.010498
0.0103957
0.0103022
0.0102168
0.0101379
0.0100613
0.00998193
0.00988981
0.0109588
0.0108599
0.0107682
0.0106833
0.0106042
0.0105284
0.0104531
0.0103732
0.0112553
0.011161
0.0110728
0.0109902
0.0109123
0.0108375
0.0107646
0.0106912
0.0113964
0.0113085
0.0112247
0.0111447
0.0110682
0.010994
0.0109219
0.0108507
0.0279841
0.0300356
0.0313571
0.031651
0.030368
0.0273608
0.0224578
0.0151078
0.00433635
-0.0112593
-0.033637
-0.0655544
-0.111482
-0.174655
-0.233272
0.0023267
0.00164168
-0.00128112
-0.00569779
-0.0114886
-0.0190307
-0.0289102
-0.0419363
-0.0592145
-0.0822554
-0.11315
-0.154665
-0.211329
-0.286857
-0.35156
-0.0232938
-0.026849
-0.0338343
-0.0424846
-0.0524189
-0.0642561
-0.0788409
-0.0971184
-0.12028
-0.149933
-0.188337
-0.238346
-0.303471
-0.389935
-0.453477
-0.0498031
-0.0564245
-0.0666981
-0.0785349
-0.0918396
-0.107448
-0.126256
-0.149203
-0.177496
-0.212778
-0.257352
-0.314555
-0.38642
-0.476535
-0.537268
-0.0761831
-0.08598
-0.0988089
-0.113087
-0.129187
-0.148055
-0.17048
-0.1973
-0.229778
-0.269577
-0.318729
-0.380946
-0.457051
-0.545387
-0.601481
-0.101059
-0.114099
-0.129002
-0.145328
-0.163896
-0.185565
-0.210991
-0.240874
-0.276489
-0.319464
-0.371927
-0.436475
-0.513227
-0.59649
-0.645741
-0.124002
-0.13951
-0.156142
-0.174567
-0.195529
-0.219617
-0.247427
-0.279703
-0.317521
-0.36236
-0.416126
-0.480466
-0.554607
-0.629526
-0.671166
-0.14515
-0.161865
-0.180297
-0.200917
-0.224113
-0.250304
-0.280023
-0.313967
-0.353018
-0.398435
-0.451705
-0.513638
-0.581924
-0.645216
-0.680064
0.182956
0.197616
0.214043
0.23263
0.253433
0.276369
0.301358
0.328354
0.35728
0.387882
0.419576
0.451182
0.480692
0.504046
0.523252
0.177568
0.191189
0.206741
0.224578
0.244613
0.266657
0.290599
0.316393
0.343951
0.37299
0.402878
0.432367
0.459356
0.479808
0.496153
0.167998
0.179796
0.193828
0.210342
0.228978
0.249358
0.271297
0.294718
0.319487
0.345251
0.371277
0.396196
0.417716
0.431954
0.442348
0.154225
0.163623
0.175675
0.190343
0.206905
0.224796
0.243782
0.263759
0.284515
0.305557
0.325969
0.344185
0.357601
0.362454
0.364412
0.136366
0.143013
0.152874
0.1654
0.179372
0.194034
0.209145
0.224614
0.240175
0.255184
0.2685
0.2783
0.2816
0.274494
0.265909
0.114647
0.118197
0.12569
0.135826
0.146831
0.157806
0.168503
0.178799
0.188324
0.196272
0.201291
0.201302
0.19295
0.172121
0.15064
0.0897127
0.0905467
0.0958619
0.103113
0.110361
0.116926
0.122669
0.127356
0.130382
0.130716
0.126772
0.116211
0.0953419
0.0599977
0.0247541
0.0606428
0.0601951
0.0643062
0.0685735
0.0716066
0.0732685
0.0736062
0.0722601
0.0683995
0.0607615
0.0475433
0.0261335
-0.00754608
-0.0573912
-0.105666
0.0250994
0.0295047
0.0258343
0.029738
0.0272822
0.0315549
0.0297658
0.034133
0.033454
0.0378842
0.0386063
0.0433691
0.0458041
0.0513567
0.0559868
0.0631146
0.0704422
0.0801898
0.0912019
0.105039
0.120817
0.140237
0.162577
0.0250894
0.0294577
0.0258285
0.0296807
0.0272778
0.0314823
0.0297407
0.0340387
0.0334227
0.0377534
0.0385276
0.0432261
0.0456231
0.0511261
0.0557291
0.0627144
0.0699747
0.079769
0.0901743
0.103686
0.118717
0.137517
0.158625
0.0250897
0.0293852
0.0258407
0.0295945
0.0273039
0.0313771
0.0297813
0.0339097
0.0334218
0.0375924
0.038474
0.0430529
0.045462
0.0507822
0.0553507
0.0621829
0.0691538
0.0785534
0.0884184
0.10145
0.115276
0.132971
0.15172
0.0250991
0.0292893
0.0258703
0.0294838
0.0273507
0.0312415
0.0298218
0.0337572
0.0334533
0.0374114
0.0384494
0.0428844
0.0453339
0.050599
0.0551193
0.0617421
0.0684183
0.0776484
0.0866072
0.098937
0.110913
0.126769
0.141799
0.0251165
0.0291738
0.0259077
0.0293528
0.0274054
0.031081
0.0298829
0.0335839
0.0334959
0.0372012
0.0384255
0.0426381
0.0451096
0.0501042
0.0545717
0.0608533
0.0671843
0.0757983
0.0838121
0.095051
0.104898
0.118371
0.128689
0.0251393
0.0290424
0.0259628
0.0292047
0.0274735
0.0309095
0.0299611
0.033418
0.0335706
0.0370287
0.038474
0.0425153
0.045097
0.0500866
0.0543888
0.0605976
0.0664365
0.074633
0.081377
0.0912683
0.098134
0.108339
0.112549
0.02517
0.0288967
0.0260173
0.0290477
0.0275533
0.0307278
0.0300309
0.0332242
0.0336145
0.0368
0.0384202
0.0421897
0.044786
0.0494864
0.0536605
0.059257
0.0647472
0.071782
0.0775936
0.0854986
0.0898185
0.0959973
0.0938188
0.0252002
0.0287433
0.0260754
0.028891
0.0276394
0.0305748
0.0301386
0.0331065
0.0337335
0.0367515
0.0385842
0.0422582
0.0449877
0.0497613
0.0535904
0.0592615
0.0640996
0.0705561
0.0745694
0.0803133
0.0803946
0.0816752
0.0712272
0.0252326
0.0285358
0.0261553
0.0286576
0.0277277
0.0302787
0.0301782
0.0327981
0.0337135
0.0363271
0.0383417
0.0415781
0.0442657
0.0484309
0.0520175
0.0564454
0.0607387
0.0646191
0.067542
0.0689096
0.0662698
0.0592359
0.0428456
0.0252816
0.0282458
0.0262596
0.0283307
0.0278068
0.0298562
0.0301806
0.0321681
0.0334871
0.03556
0.0376714
0.0402769
0.0428807
0.046133
0.0492123
0.0521502
0.0552381
0.0567605
0.0577294
0.0554646
0.050933
0.0412013
0.0281106
0.0253547
0.0278834
0.0263869
0.0279327
0.0279122
0.0293478
0.0301624
0.0315585
0.0331838
0.0347703
0.0369031
0.0389042
0.0413304
0.0436729
0.0460846
0.0477995
0.0494551
0.0493246
0.0481756
0.0441641
0.0380487
0.0284736
0.0164534
0.0254525
0.0274393
0.0265406
0.0274777
0.0279845
0.0288723
0.030039
0.0309886
0.0327199
0.0339313
0.0359383
0.0373997
0.0395152
0.0410011
0.0426015
0.0433342
0.0434897
0.0421146
0.0393778
0.034374
0.0276094
0.0185893
0.00793616
0.0255788
0.0269069
0.0266762
0.0270698
0.0279425
0.0284419
0.0297991
0.0304185
0.0320839
0.0330436
0.0347281
0.035781
0.0374078
0.0381753
0.0388707
0.038799
0.0377008
0.0353677
0.0317215
0.0263814
0.019704
0.0115041
0.00218768
0.025729
0.0263533
0.0267087
0.0267191
0.0278156
0.0280264
0.0294285
0.0298297
0.0312852
0.0320771
0.0333216
0.0340152
0.0350923
0.0352032
0.035087
0.0343168
0.0323705
0.0293996
0.0254219
0.0201923
0.0139702
0.00668685
-0.00151746
0.0258562
0.0258283
0.0266318
0.0264113
0.0275833
0.0276212
0.028915
0.0292135
0.0303513
0.0309951
0.0317656
0.0321076
0.0326475
0.0321777
0.0314101
0.0300849
0.0276663
0.0244025
0.0204042
0.0155571
0.00997317
0.00361836
-0.00353607
0.025937
0.025349
0.0264536
0.0261299
0.0272364
0.0272126
0.0282753
0.0285261
0.0293144
0.0297845
0.0301101
0.0300975
0.0301552
0.0292257
0.0279779
0.0262639
0.0236754
0.0203938
0.0165661
0.0122276
0.00736649
0.00195552
-0.00411104
0.0259436
0.0249367
0.0261626
0.0258599
0.0267824
0.0267825
0.0275398
0.0277467
0.0282047
0.028455
0.028399
0.0280571
0.027705
0.0264495
0.0248934
0.0229739
0.0204072
0.0173035
0.013792
0.0100071
0.00589718
0.00141858
-0.00359248
0.0258585
0.0246021
0.0257598
0.0255823
0.0262412
0.026292
0.0267471
0.0268664
0.0270397
0.027044
0.0266794
0.0260667
0.0253869
0.0239358
0.0222359
0.0202671
0.0178408
0.0150313
0.0119361
0.00871374
0.00531644
0.00168574
-0.00237402
0.0256694
0.0243423
0.0252656
0.0252645
0.0256544
0.0257163
0.0259187
0.0259
0.0258348
0.0255987
0.025001
0.0241908
0.0232764
0.0217504
0.0200342
0.0181318
0.0159222
0.0134638
0.0108248
0.00814326
0.00537938
0.00247552
-0.000767039
0.0253727
0.0241412
0.0247154
0.02485
0.0250475
0.0250635
0.025066
0.0248829
0.0246171
0.0241758
0.0234144
0.0224796
0.0214338
0.0199233
0.0182788
0.016522
0.0145711
0.012475
0.01028
0.00809095
0.00587241
0.0035727
0.00101204
0.0249763
0.0239672
0.02417
0.0243117
0.0244115
0.024353
0.0241957
0.0238567
0.0234254
0.0228298
0.0219657
0.020974
0.0198803
0.0184483
0.0169362
0.0153709
0.0136904
0.0119363
0.0101418
0.00838086
0.00661811
0.00480883
0.00280497
0.0245014
0.0237615
0.0236762
0.023695
0.0237268
0.0235872
0.0233128
0.022856
0.0222987
0.0216006
0.0206904
0.0196912
0.0186124
0.0173026
0.0159572
0.0145986
0.0131785
0.0117304
0.0102801
0.00887529
0.00748088
0.00605872
0.00449435
0.0239751
0.0234563
0.0232203
0.0231039
0.0230159
0.0227848
0.0224267
0.0218975
0.0212648
0.0205136
0.019601
0.018633
0.0176141
0.0164485
0.0152789
0.0141215
0.0129384
0.0117549
0.0105908
0.00947548
0.00837599
0.00725917
0.00603885
0.0234276
0.0230621
0.0227752
0.0225355
0.0223089
0.0219869
0.0215632
0.0209945
0.0203315
0.0195744
0.0186995
0.0177939
0.0168615
0.0158428
0.0148399
0.0138637
0.012884
0.0119201
0.0109875
0.0101031
0.0092368
0.00836029
0.00741118
0.0228798
0.0226045
0.0223028
0.0219809
0.0216391
0.0212344
0.0207563
0.0201691
0.0195082
0.0187805
0.0179735
0.0171531
0.0163225
0.015444
0.0145885
0.0137641
0.0129493
0.0121606
0.0114105
0.0107073
0.0100244
0.00933786
0.00860179
0.0223455
0.0221177
0.0218078
0.0214385
0.0210219
0.0205535
0.0200343
0.0194432
0.0188028
0.0181225
0.0173964
0.0166702
0.0159456
0.0151962
0.0144683
0.0137686
0.0130858
0.0124345
0.0118243
0.0112592
0.0107179
0.0101794
0.00961077
0.021836
0.02163
0.021315
0.020921
0.0204657
0.0199601
0.0194173
0.0188328
0.018222
0.0175945
0.0169482
0.0163109
0.0156819
0.0150439
0.0144246
0.0138296
0.0132546
0.0127116
0.0122077
0.0117453
0.0113084
0.0108819
0.0104427
0.0213678
0.0211722
0.0208538
0.0204478
0.0199778
0.0194589
0.0189105
0.0183426
0.0177652
0.0171869
0.0166091
0.0160471
0.0154989
0.0149533
0.0144259
0.0139206
0.0134355
0.0129782
0.012554
0.0121648
0.0118013
0.0114542
0.0111089
0.0209656
0.0207764
0.020458
0.0200476
0.0195754
0.0190585
0.0185161
0.0179667
0.0174194
0.0168792
0.0163516
0.0158472
0.0153625
0.0148904
0.0144386
0.0140096
0.0136022
0.0132185
0.012859
0.0125237
0.0122099
0.0119154
0.011635
0.0206565
0.0204702
0.0201547
0.0197458
0.0192774
0.0187698
0.018239
0.0177082
0.0171879
0.0166802
0.0161909
0.0157279
0.0152885
0.0148669
0.0144638
0.0140817
0.0137217
0.0133847
0.0130698
0.0127752
0.0124992
0.012242
0.0120036
0.0204889
0.0203059
0.0199893
0.0195765
0.0191063
0.0186014
0.0180763
0.0175535
0.017046
0.0165567
0.0160904
0.0156532
0.0152431
0.0148535
0.0144809
0.0141277
0.0137976
0.0134922
0.0132097
0.0129469
0.012701
0.0124728
0.0122656
0.023961
0.00149039
-0.0244745
-0.0482255
-0.0702473
-0.0910528
-0.110137
-0.126348
0.0132841
-0.00765284
-0.0322734
-0.0531576
-0.0692467
-0.0831465
-0.0953053
-0.105306
0.00436235
-0.0119246
-0.0322465
-0.0488268
-0.060062
-0.0692058
-0.0774163
-0.084526
-0.00239801
-0.0153998
-0.0316046
-0.0448634
-0.0532911
-0.0593225
-0.0643466
-0.0685416
-0.00670606
-0.016932
-0.0290477
-0.0388388
-0.044864
-0.0486743
-0.0516492
-0.0542027
-0.00935866
-0.0172861
-0.0255992
-0.0324213
-0.0368419
-0.0394674
-0.0412894
-0.0427391
-0.010383
-0.0164065
-0.0216687
-0.0259872
-0.0290973
-0.0310112
-0.0321951
-0.0329837
-0.00988141
-0.0143661
-0.0175285
-0.0200679
-0.022154
-0.023591
-0.0244511
-0.0249031
-0.00833542
-0.0116386
-0.013437
-0.0148063
-0.0161294
-0.0171821
-0.0178321
-0.0181149
-0.00619785
-0.00861902
-0.00956319
-0.0101915
-0.0109692
-0.0117131
-0.0122103
-0.0124143
-0.00380508
-0.00557256
-0.0059992
-0.00617982
-0.0065862
-0.00709298
-0.00747397
-0.00763782
-0.00136887
-0.00265139
-0.00277979
-0.00271089
-0.00287841
-0.00320668
-0.0034914
-0.00362548
0.000968346
5.01013e-05
8.29882e-05
0.000272231
0.000242479
3.62019e-05
-0.000177712
-0.000297842
0.00309327
0.00244552
0.00255944
0.00280317
0.00286007
0.00274342
0.00258319
0.0024687
0.00497417
0.00451961
0.00466526
0.00492028
0.00502413
0.00496501
0.00483909
0.00472434
0.00660786
0.00629101
0.00643705
0.0066693
0.00678137
0.00675139
0.00664761
0.00653405
0.00799913
0.00777793
0.00790515
0.00809663
0.00819416
0.0081741
0.00808345
0.00797236
0.00916146
0.00900507
0.00910272
0.0092453
0.0093156
0.00929208
0.00920667
0.00909759
0.0101092
0.00999521
0.0100588
0.0101509
0.0101885
0.010154
0.0100691
0.00996213
0.0108571
0.0107669
0.0107957
0.0108408
0.0108454
0.010797
0.0107101
0.0106053
0.0114362
0.0113523
0.0113432
0.0113433
0.0113162
0.0112534
0.0111641
0.0110621
0.0118352
0.0117491
0.0117071
0.0116702
0.0116173
0.0115428
0.0114521
0.0113537
0.0121098
0.0120031
0.0119152
0.0118351
0.0117545
0.0116691
0.0115793
0.0114873
-0.39783
-0.409109
-0.425097
-0.445643
-0.472036
-0.505333
-0.540562
-0.570586
-0.396401
-0.406373
-0.420027
-0.437556
-0.459521
-0.486241
-0.516158
-0.542507
-0.39041
-0.400778
-0.41338
-0.428758
-0.447954
-0.469029
-0.4875
-0.498945
-0.381597
-0.393061
-0.405007
-0.417418
-0.430247
-0.441447
-0.447595
-0.445927
-0.372313
-0.383793
-0.393307
-0.400352
-0.405125
-0.40692
-0.403985
-0.394252
-0.364372
-0.37323
-0.377882
-0.378598
-0.376521
-0.371714
-0.362963
-0.348365
-0.358818
-0.361957
-0.360147
-0.355003
-0.347901
-0.338758
-0.326318
-0.308802
-0.355325
-0.350284
-0.341614
-0.331635
-0.320841
-0.308823
-0.293987
-0.274759
-0.352098
-0.337872
-0.323167