/*--------------------------------*- C++ -*----------------------------------*\
| =========                 |                                                 |
| \\      /  F ield         | OpenFOAM: The Open Source CFD Toolbox           |
|  \\    /   O peration     | Version:  2312                                  |
|   \\  /    A nd           | Website:  www.openfoam.com                      |
|    \\/     M anipulation  |                                                 |
\*---------------------------------------------------------------------------*/
FoamFile
{
    version     2.0;
    format      ascii;
    arch        "LSB;label=32;scalar=64";
    class       volVectorField;
    location    "1";
    object      U;
}
// * * * * * * * * * * * * * * * * * * * * * * * * * * * * * * * * * * * * * //

dimensions      [0 1 -1 0 0 0 0];

internalField   nonuniform List<vector> 
940
(
(0.775435 -0.170556 2.48585e-19)
(1.15657 -0.586919 0)
(1.18742 -0.305065 4.79713e-20)
(1.11187 -0.307463 -3.48891e-20)
(1.07852 -0.180792 -1.41351e-20)
(1.03379 -0.17113 1.04118e-20)
(1.14741 -0.0836222 -3.72103e-19)
(1.41668 -0.424575 4.87084e-20)
(1.32883 -0.140095 -4.1418e-20)
(1.23858 -0.200434 5.10784e-20)
(1.15748 -0.0994618 0)
(1.09673 -0.0745784 -1.00797e-20)
(1.37173 0.129223 -4.91316e-20)
(1.52335 -0.177712 -5.53282e-21)
(1.38729 0.0561853 7.34021e-20)
(1.27567 -0.0716688 -3.06955e-20)
(1.19415 0.0131945 1.19364e-20)
(1.14387 -0.00440457 0)
(0.0412829 -0.00486385 -2.54133e-21)
(0.122148 -0.174501 1.81576e-21)
(0.526767 -0.109299 4.00094e-21)
(0.612876 -0.0840065 -1.53692e-20)
(0.725486 -0.0504959 7.98651e-21)
(0.822668 -0.017589 0)
(0.147537 -0.0686193 -1.13363e-20)
(0.391626 -0.498561 -1.62324e-20)
(0.703529 -0.334888 -5.73576e-21)
(0.752385 -0.269639 -6.84233e-21)
(0.813241 -0.182553 9.27902e-21)
(0.894302 -0.112889 -9.97798e-21)
(0.398956 -0.144537 -5.98112e-20)
(0.790674 -0.629225 0)
(0.966225 -0.394611 -1.95202e-20)
(0.945059 -0.33969 1.41955e-20)
(0.953673 -0.229122 1.05628e-21)
(1.00055 -0.157586 -7.779e-22)
(0.868892 -0.00508265 0)
(0.90316 0.00592336 -2.35468e-21)
(0.926285 0.0133821 3.8465e-22)
(0.942773 0.0187816 2.90252e-21)
(0.954944 0.0242758 -1.74579e-21)
(0.963826 0.0295105 4.86332e-22)
(0.970292 0.0344413 0)
(0.974937 0.039481 3.43758e-22)
(0.978317 0.0450645 -3.06641e-22)
(0.980845 0.0516145 -6.70245e-23)
(0.982774 0.0595921 -5.73451e-23)
(0.984239 0.0695332 0)
(0.985412 0.0821643 0)
(0.986443 0.098748 0)
(0.987372 0.120049 0)
(0.987954 0.152611 -2.60878e-23)
(0.894977 -0.0578174 7.58208e-21)
(0.915368 -0.0176156 -5.43673e-21)
(0.932723 0.00284551 4.81795e-21)
(0.948737 0.0157395 -3.42597e-21)
(0.960585 0.0236623 3.00141e-21)
(0.968256 0.0288708 0)
(0.973717 0.0334398 0)
(0.977925 0.0381728 -4.96596e-23)
(0.981229 0.043541 0)
(0.983866 0.0499624 -1.04363e-21)
(0.986034 0.0579175 1.04909e-21)
(0.98785 0.0680198 1.00638e-22)
(0.989557 0.0812535 0)
(0.991258 0.0983293 -5.95622e-23)
(0.992891 0.11997 0)
(0.994119 0.15266 2.60318e-23)
(0.969161 -0.0984475 3.06226e-23)
(0.949859 -0.0635017 0)
(0.944889 -0.0377636 -7.03278e-21)
(0.951417 -0.0140097 6.1861e-21)
(0.95972 0.00374732 5.72998e-21)
(0.967489 0.0164482 -5.01613e-21)
(0.973957 0.0255815 0)
(0.978964 0.0330847 5.51276e-23)
(0.982889 0.0401912 1.47608e-21)
(0.986088 0.0477525 -1.29882e-21)
(0.988826 0.0565306 0)
(0.99132 0.0673689 -1.07064e-22)
(0.993675 0.081316 3.13294e-22)
(0.995971 0.098784 -2.12859e-22)
(0.998303 0.120658 0)
(1.00021 0.153048 0)
(1.01704 -0.0640895 0)
(1.00305 -0.0502642 0)
(0.979245 -0.0356189 0)
(0.97157 -0.0170634 0)
(0.972061 0.00032608 0)
(0.974644 0.0135873 0)
(0.978164 0.0233579 0)
(0.982014 0.0311924 0)
(0.985548 0.0384256 0)
(0.98872 0.0459883 0)
(0.991666 0.0546743 0)
(0.994527 0.065306 0)
(0.997346 0.0787854 0)
(1.0002 0.0962589 0)
(1.00314 0.118647 0)
(1.00559 0.152161 0)
(1.02047 -0.0462138 0)
(1.0122 -0.0343682 0)
(0.989114 -0.0230641 0)
(0.980694 -0.0107465 0)
(0.979423 0.00145419 0)
(0.980393 0.0121849 0)
(0.982714 0.0216465 0)
(0.985589 0.0299011 0)
(0.988626 0.0376314 0)
(0.991646 0.0455959 0)
(0.994667 0.0545216 0)
(0.997778 0.0651766 0)
(1.00103 0.0784868 0)
(1.00447 0.0958054 0)
(1.00806 0.118084 0)
(1.0111 0.151836 0)
(1.02364 -0.0256406 0)
(1.01827 -0.0232323 0)
(0.998787 -0.0165444 0)
(0.991045 -0.00749618 0)
(0.988466 0.00235649 0)
(0.987444 0.0118994 0)
(0.988107 0.0205098 0)
(0.989976 0.0284559 0)
(0.992473 0.0361485 0)
(0.995319 0.0441595 0)
(0.998443 0.0531587 0)
(1.00188 0.0639106 0)
(1.00566 0.0773485 0)
(1.00981 0.0947544 0)
(1.01422 0.117153 0)
(1.01804 0.151357 0)
(1.02435 -0.00986504 0)
(1.02305 -0.00966484 0)
(1.00608 -0.00595013 0)
(0.998956 -0.000571516 0)
(0.996236 0.00581043 0)
(0.994512 0.0128436 0)
(0.994209 0.0200802 0)
(0.99524 0.0273244 0)
(0.997219 0.0347042 0)
(0.999891 0.0425917 0)
(1.00315 0.0515383 0)
(1.00698 0.0622608 0)
(1.01143 0.0756915 0)
(1.01648 0.0931155 0)
(1.02194 0.115657 0)
(1.02685 0.150557 0)
(1.02173 0.000428969 0)
(1.02402 -0.00124655 0)
(1.01074 7.1118e-05 0)
(1.00509 0.00301537 0)
(1.00283 0.00712454 0)
(1.00111 0.012283 0)
(1.00049 0.0182371 0)
(1.00112 0.024786 0)
(1.00281 0.0319074 0)
(1.00543 0.0397841 0)
(1.00892 0.0488085 0)
(1.01328 0.0596013 0)
(1.01857 0.0730671 0)
(1.02478 0.0905265 0)
(1.03166 0.113271 0)
(1.03816 0.149213 0)
(1.01625 0.0114359 0)
(1.0218 0.0105286 0)
(1.01257 0.0114234 0)
(1.00923 0.0132888 0)
(1.00851 0.0160027 0)
(1.00774 0.0196178 0)
(1.00751 0.0240444 0)
(1.00821 0.0291828 0)
(1.00987 0.035031 0)
(1.01254 0.0417349 0)
(1.01628 0.0496319 0)
(1.02122 0.0593052 0)
(1.0275 0.0716703 0)
(1.03519 0.0881406 0)
(1.04398 0.110295 0)
(1.05295 0.14711 0)
(1.01831 0.00297846 0)
(1.02413 0.00210706 0)
(1.01618 0.00256054 0)
(1.01348 0.00359452 0)
(1.01318 0.00512461 0)
(1.01278 0.00740083 0)
(1.01282 0.0105393 0)
(1.01371 0.0146019 0)
(1.0156 0.0196884 0)
(1.01867 0.0259884 0)
(1.02309 0.0338468 0)
(1.0291 0.0438523 0)
(1.03697 0.0569725 0)
(1.04697 0.074765 0)
(1.05877 0.0992768 0)
(1.07236 0.141072 0)
(1.01022 0.0262367 0)
(1.01826 0.0253719 0)
(1.01506 0.0258506 0)
(1.01459 0.0268299 0)
(1.01609 0.0281456 0)
(1.01758 0.0299839 0)
(1.01932 0.0324649 0)
(1.02166 0.0356716 0)
(1.02482 0.0397101 0)
(1.02908 0.0447468 0)
(1.03481 0.0510656 0)
(1.04248 0.0591551 0)
(1.05263 0.0698525 0)
(1.06603 0.0845215 0)
(1.08209 0.105114 0)
(1.10439 0.141808 0)
(1.01887 -0.0177724 0)
(1.02502 -0.0166027 0)
(1.02127 -0.015489 0)
(1.02041 -0.0144638 0)
(1.02145 -0.0134251 0)
(1.02258 -0.0121878 0)
(1.02407 -0.01063 0)
(1.02629 -0.00864943 0)
(1.02949 -0.00610722 0)
(1.03404 -0.00279535 0)
(1.04038 0.00162316 0)
(1.04912 0.00772161 0)
(1.06098 0.0166122 0)
(1.07723 0.030057 0)
(1.09633 0.053517 0)
(1.12895 0.0996278 0)
(1.01516 0.0366692 0)
(1.0209 0.0370099 0)
(1.02047 0.0370461 0)
(1.02117 0.0370906 0)
(1.02319 0.0371899 0)
(1.02559 0.0374632 0)
(1.02849 0.0379984 0)
(1.03218 0.03887 0)
(1.037 0.0401734 0)
(1.04341 0.0420427 0)
(1.05211 0.0446907 0)
(1.06432 0.0484841 0)
(1.08133 0.0541844 0)
(1.10978 0.0629887 0)
(1.1349 0.0793816 0)
(1.25377 0.112205 0)
(1.08606 0.0142931 -1.93495e-21)
(1.0968 -0.0475324 1.12973e-20)
(1.01548 -0.109191 0)
(1.04523 0.01352 1.56424e-21)
(1.08598 -0.0222916 -3.42761e-21)
(1.00125 -0.0622807 3.00915e-21)
(1.02588 0.0116847 0)
(1.07057 -0.000889799 9.6415e-22)
(1.00101 -0.0265962 4.13296e-21)
(1.01422 0.0131071 -9.90937e-23)
(1.05214 0.00874428 1.04384e-22)
(0.998346 -0.00671632 -5.23052e-21)
(1.00752 0.0134571 -1.03434e-21)
(1.03888 0.0125223 0)
(0.995457 0.00428916 0)
(1.00406 0.0158578 1.0808e-21)
(1.02897 0.0164157 -4.248e-21)
(0.992597 0.0138288 0)
(1.00355 0.00452104 3.86529e-22)
(1.02432 0.00571687 4.87521e-21)
(0.994111 0.00435363 0)
(1.00556 0.0263484 5.1122e-22)
(1.01943 0.0277742 -3.90244e-21)
(0.994074 0.0281191 0)
(1.00708 -0.0207502 5.06292e-22)
(1.01652 -0.019459 1.36766e-21)
(1.00269 -0.0187875 -1.77249e-21)
(1.01305 0.0333882 0)
(1.01516 0.0326057 0)
(1.00455 0.0345832 9.99572e-22)
(1.02148 0.157247 -8.89326e-21)
(1.04014 0.201016 1.20919e-20)
(1.02846 0.277739 -1.71947e-21)
(1.0854 0.404724 7.24999e-21)
(1.10346 0.487506 0)
(0.996859 0.778191 -1.88273e-19)
(1.08419 0.128154 2.01082e-21)
(1.12867 0.166939 0)
(1.15031 0.194842 3.01271e-20)
(1.25412 0.365139 9.36165e-21)
(1.34228 0.323729 5.32322e-20)
(1.27366 0.652454 -6.41384e-20)
(1.1259 0.0650413 0)
(1.18363 0.110381 9.47792e-21)
(1.2364 0.0644352 -2.60439e-20)
(1.36896 0.240988 2.3336e-20)
(1.48902 0.0975232 -3.25699e-21)
(1.41258 0.405508 -4.6416e-20)
(0.843252 0.0516964 0)
(0.823481 0.0637543 2.01838e-20)
(0.692515 0.086278 -4.42925e-20)
(0.677832 0.112814 4.49523e-20)
(0.436809 0.161673 2.24814e-20)
(0.26905 0.202324 -3.1418e-20)
(0.879045 0.109057 3.5166e-20)
(0.86876 0.142933 3.2602e-20)
(0.764922 0.204479 2.55415e-20)
(0.766748 0.267242 -5.18638e-20)
(0.580376 0.393281 2.83625e-21)
(0.414952 0.517731 -6.11525e-20)
(0.943142 0.145088 2.72039e-20)
(0.947756 0.191186 -3.69913e-20)
(0.88455 0.277964 -4.45236e-20)
(0.914233 0.371273 3.57326e-20)
(0.822375 0.513758 0)
(0.677873 0.732182 2.52792e-20)
(0.984495 0.0405889 4.13047e-22)
(0.982459 0.0048654 -2.52179e-22)
(0.979753 0.00401746 -1.79434e-23)
(0.976015 0.00626841 0)
(0.970707 0.00926573 -1.18672e-21)
(0.962862 0.0121107 1.64674e-21)
(0.952081 0.0190467 0)
(0.938482 0.0207345 1.9383e-22)
(0.913614 0.0346816 0)
(0.897024 0.0429366 0)
(0.985045 0.0414032 -4.11781e-22)
(0.983211 0.00561489 0)
(0.980449 0.00499346 -1.08981e-21)
(0.977077 0.00762902 1.75077e-21)
(0.972219 0.0112745 3.09844e-22)
(0.965806 0.0159415 -2.02253e-22)
(0.954734 0.0247206 0)
(0.946418 0.0343213 -2.04877e-22)
(0.920107 0.0564783 -2.05643e-20)
(0.918258 0.0831367 -3.73635e-21)
(0.985094 0.0428285 9.29283e-22)
(0.983654 0.00619365 -1.17926e-21)
(0.980928 0.00649947 0)
(0.977625 0.0105754 0)
(0.972984 0.0165198 -3.38191e-22)
(0.96727 0.0252951 0)
(0.959519 0.0376257 -2.16574e-20)
(0.956942 0.0569484 5.64325e-20)
(0.941722 0.0816658 -7.5137e-20)
(0.957779 0.115472 4.8147e-20)
(0.984923 0.042993 0)
(0.983974 0.00644327 0)
(0.98177 0.0069362 0)
(0.979033 0.0111084 0)
(0.975584 0.017154 0)
(0.97147 0.0261274 0)
(0.969903 0.0374236 0)
(0.964629 0.0583361 0)
(0.983092 0.0685815 0)
(0.977165 0.118046 0)
(0.984967 0.0428576 0)
(0.984435 0.00673093 0)
(0.982835 0.00754428 0)
(0.980866 0.0123364 0)
(0.978763 0.0191241 0)
(0.976728 0.028441 0)
(0.978577 0.0400265 0)
(0.976246 0.05505 0)
(0.999515 0.0671492 0)
(0.987902 0.084854 0)
(0.985077 0.0427632 0)
(0.98507 0.00678388 0)
(0.984179 0.0077516 0)
(0.983129 0.012775 0)
(0.9825 0.0194646 0)
(0.982445 0.0279217 0)
(0.987068 0.0374469 0)
(0.985749 0.0480859 0)
(1.01104 0.0546384 0)
(0.995004 0.0653473 0)
(0.985186 0.0427391 0)
(0.985879 0.00834182 0)
(0.985971 0.00943226 0)
(0.986001 0.0140755 0)
(0.986791 0.0199911 0)
(0.988356 0.0268277 0)
(0.994402 0.0337763 0)
(0.993108 0.0401372 0)
(1.01762 0.0434475 0)
(0.997741 0.0487908 0)
(0.98586 0.0404597 0)
(0.987466 0.00403361 0)
(0.987893 0.0050354 0)
(0.988784 0.00996594 0)
(0.99075 0.0156342 0)
(0.993336 0.0212382 0)
(0.999709 0.0261472 0)
(0.997855 0.0298204 0)
(1.02024 0.0314375 0)
(0.998 0.0344619 0)
(0.985354 0.0457546 0)
(0.987926 0.0122924 0)
(0.990812 0.0134696 0)
(0.993211 0.017314 0)
(0.995957 0.0211083 0)
(0.998748 0.0242699 0)
(1.00444 0.0265286 0)
(1.00209 0.027624 0)
(1.02175 0.0274111 0)
(1.00013 0.0288895 0)
(0.987376 0.0310022 0)
(0.991607 -0.00546613 0)
(0.992973 -0.00455555 0)
(0.994733 -0.00101208 0)
(0.997162 0.00227211 0)
(0.999374 0.00488488 0)
(1.00372 0.00684159 0)
(1.00039 0.00784705 0)
(1.01697 0.00838036 0)
(0.995223 0.00960433 0)
(0.986663 0.0504549 0)
(0.992255 0.018439 0)
(0.99713 0.0192155 0)
(1.00065 0.0219447 0)
(1.00374 0.0241729 0)
(1.00633 0.0257336 0)
(1.01026 0.026827 0)
(1.00877 0.0272984 0)
(1.02114 0.0275612 0)
(1.00659 0.0288369 0)
(0.989464 0.0098657 0)
(0.997126 -0.0240361 0)
(0.998942 -0.0219274 0)
(1.00033 -0.0194719 0)
(1.00197 -0.018011 0)
(1.00326 -0.017241 0)
(1.00556 -0.0168519 0)
(1.00363 -0.0168327 0)
(1.01266 -0.0172914 0)
(1.00106 -0.0159547 0)
(0.996367 0.0501894 0)
(1.0098 0.0251472 0)
(1.00806 0.0266553 0)
(1.00809 0.028987 0)
(1.00923 0.0307997 0)
(1.01055 0.0322129 0)
(1.01242 0.0334117 0)
(1.01228 0.0342214 0)
(1.0177 0.0354427 0)
(1.01202 0.0350779 0)
(1.02817 0.101729 -1.6614e-20)
(1.07583 0.0822526 -1.70107e-21)
(1.10549 0.0487227 1.38845e-21)
(1.03904 0.0829823 1.67741e-21)
(1.06242 0.0669005 1.53194e-21)
(1.08214 0.038664 -1.12241e-21)
(1.04174 0.0596174 -3.38276e-22)
(1.04968 0.0451759 -1.23395e-21)
(1.06278 0.0289391 0)
(1.04066 0.0426918 1.6437e-20)
(1.03805 0.0340548 1.01811e-22)
(1.04655 0.0249196 -9.66928e-23)
(1.03737 0.0297067 -6.95304e-21)
(1.02948 0.0254573 0)
(1.0344 0.0207055 1.04906e-21)
(1.0342 0.0237708 0)
(1.02436 0.0214138 -2.3549e-22)
(1.02605 0.0196892 -6.25749e-22)
(1.02795 0.00725383 0)
(1.02202 0.00712454 -2.19041e-21)
(1.02269 0.00680656 3.55272e-22)
(1.02974 0.0264902 -3.26774e-21)
(1.02216 0.0269324 2.56607e-21)
(1.01902 0.0273284 4.8675e-22)
(1.01849 -0.0187014 3.38808e-21)
(1.01847 -0.0195465 -1.29547e-21)
(1.01682 -0.0198333 4.87964e-22)
(1.02472 0.0379048 -1.02775e-21)
(1.02456 0.0378739 0)
(1.02013 0.0355352 0)
(0.857979 0.227297 -2.72224e-19)
(1.20654 0.124409 2.83516e-19)
(1.40679 -0.102836 5.10869e-20)
(1.16748 0.616906 0)
(1.41331 0.450756 -5.12464e-20)
(1.51473 0.197492 -3.65187e-20)
(1.1979 0.337409 -5.78716e-20)
(1.33679 0.170486 4.83386e-20)
(1.39208 -0.0243216 -4.79751e-20)
(1.12003 0.327092 5.88192e-20)
(1.22921 0.22727 -3.92652e-20)
(1.26242 0.0924561 3.45117e-20)
(1.08148 0.224032 2.40306e-20)
(1.15844 0.131111 -2.56861e-20)
(1.18711 0.0254559 -1.37911e-20)
(1.04477 0.162035 -1.77004e-20)
(1.10761 0.120475 1.88323e-20)
(1.12776 0.0417137 0)
(0.0565486 0.0460879 1.73678e-21)
(0.194442 0.120852 -1.52431e-20)
(0.475626 0.205561 6.67047e-20)
(0.139923 0.229397 7.08101e-21)
(0.427042 0.538459 1.69402e-20)
(0.817802 0.659621 0)
(0.538705 0.177334 -1.03646e-20)
(0.726804 0.380662 3.53371e-21)
(0.982949 0.425081 2.80268e-20)
(0.617673 0.145577 1.40561e-20)
(0.760044 0.31581 -1.61606e-21)
(0.953253 0.368384 -2.00652e-20)
(0.733343 0.106053 -7.37075e-21)
(0.828194 0.222801 0)
(0.960138 0.260853 -5.95292e-21)
(0.813385 0.0905732 0)
(0.873995 0.169677 5.81259e-21)
(0.963513 0.186295 4.38401e-21)
(0.870553 0.0584766 0)
(0.906223 0.106365 -4.4321e-21)
(0.958385 0.139555 0)
(0.903358 0.0467736 2.29014e-21)
(0.915914 0.07662 3.63392e-21)
(0.945537 0.112997 0)
(0.925816 0.0421468 -2.98352e-22)
(0.931114 0.0566786 -3.24401e-21)
(0.945312 0.0865964 1.90827e-23)
(0.942711 0.0390646 -2.8769e-21)
(0.944615 0.0452252 2.48012e-21)
(0.949359 0.0676178 0)
(0.954347 0.037823 1.71041e-21)
(0.954451 0.040278 -2.17529e-21)
(0.954671 0.055965 -3.45802e-21)
(0.962514 0.038114 -4.69575e-22)
(0.961651 0.0389396 0)
(0.960217 0.0493326 3.0247e-21)
(0.968396 0.0398841 0)
(0.966859 0.0397859 0)
(0.964906 0.0464056 0)
(0.972653 0.0429747 -3.23895e-22)
(0.970672 0.0422417 0)
(0.968413 0.0463637 0)
(0.975724 0.047251 2.88923e-22)
(0.973402 0.0462349 0)
(0.970856 0.0487655 -1.17726e-21)
(0.977922 0.0529167 6.16078e-23)
(0.975245 0.0518223 9.40069e-22)
(0.972419 0.0533722 1.03587e-21)
(0.979482 0.0603032 5.39671e-23)
(0.97642 0.0592793 -9.48514e-22)
(0.973205 0.0603238 0)
(0.980517 0.0698474 0)
(0.976971 0.0691776 -9.34243e-23)
(0.973332 0.0700706 9.93838e-23)
(0.981168 0.0823799 0)
(0.97702 0.0820281 0)
(0.972921 0.0828192 -3.01344e-22)
(0.981569 0.0988647 0)
(0.976763 0.0987877 5.99896e-23)
(0.972044 0.0995384 2.01952e-22)
(0.981784 0.120101 0)
(0.976265 0.120289 0)
(0.970823 0.121061 0)
(0.981723 0.152622 2.73405e-23)
(0.975539 0.15279 -2.72821e-23)
(0.969425 0.153168 0)
(0.995931 0.119359 0)
(1.00505 0.0929555 0)
(1.00734 0.0722496 0)
(1.00386 0.0537376 0)
(0.997437 0.0393829 0)
(0.990491 0.0330289 0)
(0.981271 0.0143199 0)
(0.97922 0.0328226 0)
(0.969018 -0.0150298 0)
(0.968533 0.0373096 0)
(0.970588 0.102129 0)
(0.980468 0.086333 0)
(0.987101 0.0706487 0)
(0.988073 0.0552661 0)
(0.985196 0.0417628 0)
(0.980375 0.0355386 0)
(0.973253 0.0159902 0)
(0.970801 0.0335417 0)
(0.962758 -0.0132298 0)
(0.962831 0.0380995 0)
(0.964149 0.0821637 0)
(0.974263 0.0761457 0)
(0.982624 0.065698 0)
(0.986371 0.0546655 0)
(0.986141 0.0433185 0)
(0.982837 0.0379764 0)
(0.97712 0.0181986 0)
(0.972512 0.0352792 0)
(0.96535 -0.0116047 0)
(0.962789 0.0385386 0)
(0.961156 0.0654198 0)
(0.969027 0.0656029 0)
(0.976273 0.0594157 0)
(0.980647 0.0525063 0)
(0.981894 0.0437906 0)
(0.980044 0.039854 0)
(0.975673 0.0202675 0)
(0.971168 0.0371806 0)
(0.964752 -0.0101426 0)
(0.961393 0.0389365 0)
(0.960805 0.0541383 0)
(0.965917 0.0571498 0)
(0.970939 0.0536932 0)
(0.97457 0.0498325 0)
(0.976159 0.0435284 0)
(0.975198 0.0411722 0)
(0.971936 0.0220712 0)
(0.967772 0.0390164 0)
(0.96223 -0.00875949 0)
(0.95861 0.0393443 0)
(0.962757 0.047543 0)
(0.965623 0.0513139 0)
(0.968452 0.0494521 0)
(0.970762 0.0475311 0)
(0.971851 0.0431297 0)
(0.971059 0.0422248 0)
(0.968429 0.0238209 0)
(0.964215 0.0408973 0)
(0.959425 -0.00731534 0)
(0.95529 0.0398578 0)
(0.965368 0.0446335 0)
(0.966508 0.0481483 0)
(0.967524 0.0471145 0)
(0.968384 0.0462282 0)
(0.968533 0.0431387 0)
(0.967344 0.0433477 0)
(0.964897 0.0257163 0)
(0.960342 0.0429301 0)
(0.956111 -0.00572344 0)
(0.951292 0.0405394 0)
(0.967711 0.0446105 0)
(0.967579 0.0475288 0)
(0.967216 0.0468255 0)
(0.966737 0.0463451 0)
(0.96578 0.0440297 0)
(0.96381 0.0449074 0)
(0.961146 0.028002 0)
(0.955942 0.0452545 0)
(0.952035 -0.00389366 0)
(0.946353 0.0414502 0)
(0.969438 0.0469127 0)
(0.968393 0.0492326 0)
(0.967 0.0485968 0)
(0.965373 0.0481565 0)
(0.963296 0.0462126 0)
(0.960325 0.0472969 0)
(0.957093 0.0310091 0)
(0.950898 0.0480907 0)
(0.947023 -0.00167417 0)
(0.940188 0.0426858 0)
(0.970453 0.0513797 0)
(0.968721 0.0531629 0)
(0.966516 0.0524793 0)
(0.963908 0.0518949 0)
(0.960749 0.0500637 0)
(0.95666 0.0509349 0)
(0.952554 0.035162 0)
(0.945009 0.0517555 0)
(0.940815 0.00118387 0)
(0.932372 0.0444001 0)
(0.970742 0.0581242 0)
(0.968438 0.0594095 0)
(0.965531 0.0586531 0)
(0.962034 0.0578537 0)
(0.95781 0.0559884 0)
(0.952526 0.0563012 0)
(0.947244 0.0410071 0)
(0.93796 0.0566924 0)
(0.933027 0.00508392 0)
(0.922247 0.0468473 0)
(0.970381 0.0674983 0)
(0.96751 0.0683056 0)
(0.963911 0.0675013 0)
(0.959527 0.0664851 0)
(0.954195 0.0645121 0)
(0.947602 0.0640115 0)
(0.940801 0.0492811 0)
(0.929301 0.063531 0)
(0.9231 0.0106917 0)
(0.908662 0.0504641 0)
(0.96943 0.0801493 0)
(0.965941 0.0805746 0)
(0.961592 0.0797171 0)
(0.956248 0.0785132 0)
(0.949688 0.0764029 0)
(0.941591 0.0749429 0)
(0.93283 0.0610397 0)
(0.918495 0.0732103 0)
(0.910372 0.0192274 0)
(0.890259 0.0561126 0)
(0.967925 0.0970917 0)
(0.963764 0.0971997 0)
(0.958584 0.0963117 0)
(0.952165 0.0949978 0)
(0.944203 0.0927944 0)
(0.934298 0.0904023 0)
(0.922951 0.0778422 0)
(0.904776 0.0871175 0)
(0.893562 0.0326083 0)
(0.860621 0.0651927 0)
(0.966041 0.119178 0)
(0.961189 0.119054 0)
(0.955131 0.118232 0)
(0.947564 0.116983 0)
(0.938069 0.114909 0)
(0.926101 0.11199 0)
(0.911637 0.101858 0)
(0.889204 0.107471 0)
(0.875164 0.0571055 0)
(0.836342 0.0831483 0)
(0.964069 0.152338 0)
(0.958583 0.152196 0)
(0.951682 0.151727 0)
(0.942938 0.150984 0)
(0.931715 0.149688 0)
(0.917018 0.14742 0)
(0.897433 0.14151 0)
(0.865702 0.141431 0)
(0.839972 0.0973241 0)
(0.709463 0.11118 0)
(1.093 0.0418274 5.81809e-21)
(1.05935 0.0275732 -4.70332e-21)
(1.04434 0.0281568 0)
(1.02825 0.0219252 -9.27271e-23)
(1.01692 0.0190258 -4.77537e-22)
(1.00493 0.0188687 4.91082e-22)
(0.998033 0.00517104 1.00486e-22)
(0.984813 0.02695 2.4354e-22)
(0.981592 -0.0201218 4.11684e-23)
(0.971167 0.0324011 0)
(1.07912 0.0788608 -2.77207e-20)
(1.04914 0.0506668 2.2696e-21)
(1.02784 0.0375068 5.83481e-21)
(1.00788 0.0293299 9.76778e-23)
(0.994254 0.0248466 0)
(0.983802 0.0235164 -1.07686e-22)
(0.978957 0.00923464 7.05436e-22)
(0.971591 0.0303427 -1.01333e-21)
(0.972481 -0.0182187 4.80461e-22)
(0.969119 0.0322491 0)
(1.03916 0.140026 1.82192e-20)
(1.0468 0.098768 -5.99048e-22)
(1.04374 0.0710015 -1.77712e-21)
(1.03516 0.0507059 -1.38823e-20)
(1.02563 0.036611 5.0598e-21)
(1.01486 0.03088 0)
(1.00642 0.0127258 0)
(0.995658 0.0329169 6.5532e-22)
(0.985653 -0.0168433 -1.27632e-21)
(0.979454 0.0347155 2.47369e-22)
(0.991384 -0.101505 6.66983e-21)
(1.05561 -0.0950722 -5.34574e-21)
(1.11016 -0.0407118 0)
(1.02905 -0.152108 -9.06915e-21)
(1.11225 -0.129834 -1.20568e-20)
(1.17151 -0.0718494 -1.11076e-20)
(1.01632 -0.247199 4.96926e-21)
(1.13709 -0.179828 -1.90026e-20)
(1.22346 -0.0503375 2.91135e-20)
(1.08525 -0.358218 -6.83236e-21)
(1.24885 -0.326306 -7.13229e-21)
(1.36628 -0.208551 2.07234e-21)
(1.08436 -0.463444 0)
(1.32442 -0.311158 -5.19751e-20)
(1.47617 -0.0800975 -3.37901e-20)
(0.989341 -0.745129 1.76286e-19)
(1.27735 -0.632161 -3.31933e-20)
(1.43169 -0.386624 4.72587e-20)
(0.845175 -0.019264 0)
(0.869221 -0.0820479 -3.32793e-20)
(0.940893 -0.126081 -2.36057e-20)
(0.829956 -0.0265336 -2.00383e-20)
(0.8644 -0.108264 0)
(0.952547 -0.152596 3.20993e-20)
(0.692858 -0.048111 4.41539e-20)
(0.749672 -0.170131 -5.19112e-20)
(0.873318 -0.242682 2.66812e-20)
(0.678283 -0.0629335 -7.34242e-20)
(0.755305 -0.221654 5.14072e-20)
(0.909059 -0.32247 -3.66847e-20)
(0.433142 -0.112019 1.6169e-20)
(0.562262 -0.351132 -4.57685e-21)
(0.801115 -0.479276 0)
(0.267279 -0.150044 3.19358e-20)
(0.407528 -0.468323 1.10954e-19)
(0.665414 -0.686851 -1.94385e-20)
(0.983841 0.0403183 -3.38437e-22)
(0.983344 0.0405082 3.37399e-22)
(0.983334 0.041223 -5.80144e-22)
(0.981735 0.0042072 -1.98487e-22)
(0.98112 0.00380454 4.36192e-22)
(0.980664 0.0031116 7.36252e-22)
(0.979162 0.0027476 -5.34583e-24)
(0.978786 0.00214659 3.41354e-22)
(0.978162 0.00127564 5.42566e-22)
(0.975295 0.00380875 0)
(0.974935 0.00285314 -1.40545e-21)
(0.974086 0.000984277 0)
(0.970127 0.004859 1.1321e-21)
(0.970518 0.00348102 -2.47096e-22)
(0.969078 -0.0014993 2.69701e-22)
(0.960962 0.00335049 -1.56061e-21)
(0.961708 0.00162682 -1.62575e-22)
(0.959988 -0.00649816 3.81507e-22)
(0.951693 0.0048206 0)
(0.957755 0.00189798 0)
(0.95832 -0.0168847 1.87273e-20)
(0.93174 -0.00526167 -1.81834e-22)
(0.931918 -0.016867 1.92199e-22)
(0.930579 -0.0365795 -4.99441e-20)
(0.915154 0.00231053 0)
(0.931279 -0.0110523 1.9764e-20)
(0.9606 -0.0511172 3.28081e-20)
(0.887162 -0.0126633 0)
(0.897371 -0.058642 3.15893e-21)
(0.92282 -0.116215 0)
(0.983519 0.040901 0)
(0.983611 0.0402929 0)
(0.98342 0.0397169 0)
(0.984031 0.0395915 0)
(0.98268 0.0353971 0)
(0.984536 0.0420837 0)
(0.98201 0.025965 0)
(0.983416 0.0459092 0)
(0.980938 0.00781572 0)
(0.973924 0.0476888 0)
(0.980482 0.00267225 0)
(0.980754 0.00281278 0)
(0.980186 0.000276355 0)
(0.98129 0.00350697 0)
(0.979298 -0.00397474 0)
(0.982044 0.00520328 0)
(0.977946 -0.0121866 0)
(0.979887 0.0110928 0)
(0.97525 -0.0268232 0)
(0.963068 0.0217289 0)
(0.97779 0.00023533 0)
(0.978207 0.000610882 0)
(0.977932 -0.00244044 0)
(0.978643 0.00058699 0)
(0.978486 -0.00677863 0)
(0.979132 0.00298892 0)
(0.978107 -0.0136421 0)
(0.977301 0.00989631 0)
(0.975282 -0.0250649 0)
(0.967401 0.0228406 0)
(0.974269 -0.000203338 0)
(0.975021 -0.000757983 0)
(0.975942 -0.00353043 0)
(0.976671 -0.000879824 0)
(0.978237 -0.00765828 0)
(0.977951 0.00263513 0)
(0.979034 -0.0129824 0)
(0.976077 0.010994 0)
(0.97631 -0.0229262 0)
(0.969545 0.0247468 0)
(0.969877 -0.00264115 0)
(0.971738 -0.00423024 0)
(0.97421 -0.00637985 0)
(0.975706 -0.00365998 0)
(0.97888 -0.00915792 0)
(0.977902 0.00204489 0)
(0.980477 -0.0123672 0)
(0.975338 0.012207 0)
(0.977418 -0.0216577 0)
(0.970108 0.0264222 0)
(0.966126 -0.00717136 0)
(0.970122 -0.0106805 0)
(0.974849 -0.0111791 0)
(0.977384 -0.00771056 0)
(0.981486 -0.0109435 0)
(0.979487 0.00141296 0)
(0.98289 -0.0116046 0)
(0.975068 0.0134923 0)
(0.978685 -0.0208668 0)
(0.970125 0.0279964 0)
(0.958907 -0.0225104 0)
(0.965682 -0.0205649 0)
(0.973321 -0.0179065 0)
(0.977393 -0.0117972 0)
(0.982057 -0.0120597 0)
(0.979151 0.00129884 0)
(0.983258 -0.0103482 0)
(0.973365 0.0150426 0)
(0.97859 -0.0202787 0)
(0.969344 0.0295306 0)
(0.973732 -0.0306636 0)
(0.984559 -0.0332072 0)
(0.990775 -0.0261406 0)
(0.992913 -0.0162582 0)
(0.994702 -0.0128699 0)
(0.98814 0.00132339 0)
(0.991378 -0.00914269 0)
(0.97662 0.0164085 0)
(0.982162 -0.0199355 0)
(0.970184 0.0307704 0)
(0.947017 -0.0534325 0)
(0.953249 -0.0414875 0)
(0.969704 -0.0286729 0)
(0.975044 -0.0167023 0)
(0.978049 -0.0109288 0)
(0.972784 0.00249712 0)
(0.977747 -0.00727516 0)
(0.965975 0.0180754 0)
(0.974536 -0.0199949 0)
(0.965517 0.0323697 0)
(1.01551 -0.134131 0)
(1.0284 -0.0595914 0)
(1.02785 -0.0408117 0)
(1.02184 -0.0184286 0)
(1.01675 -0.00905466 0)
(1.00247 0.00465419 0)
(1.00449 -0.00490504 0)
(0.982256 0.0203987 0)
(0.987 -0.0182132 0)
(0.971549 0.0325498 0)
(0.999856 -0.059982 0)
(1.00285 -0.0508662 7.819e-21)
(0.988526 -0.02937 -1.67901e-21)
(0.985172 -0.014468 -3.65975e-21)
(0.979712 -0.00597169 0)
(0.970667 0.0044663 0)
(0.972342 -0.00480946 0)
(0.959025 0.0199278 -3.23819e-22)
(0.970223 -0.0205938 2.44554e-22)
(0.958989 0.0356357 -1.77189e-22)
(1.04976 -0.0285886 7.86726e-21)
(1.0423 -0.0377999 -5.20511e-22)
(1.02693 -0.00827385 -1.75963e-21)
(1.01301 -0.00339422 5.30751e-23)
(1.00036 0.00353003 0)
(0.987913 0.00980601 -6.75524e-23)
(0.981172 -0.000498433 -4.50393e-22)
(0.96873 0.0227186 8.12549e-22)
(0.97096 -0.0206582 -3.23967e-22)
(0.95981 0.0358377 0)
(1.07943 -0.00454975 -4.56945e-21)
(1.04775 -0.0112195 3.69387e-21)
(1.03067 0.00833644 0)
(1.01125 0.00858221 -5.04072e-23)
(0.998505 0.0118576 4.02027e-22)
(0.986962 0.0149029 -2.61588e-22)
(0.981055 0.00310899 3.80586e-23)
(0.97216 0.0255128 1.98671e-22)
(0.972562 -0.0201327 1.65325e-24)
(0.964271 0.033972 0)
)
;

boundaryField
{
    outlet
    {
        type            zeroGradient;
    }
    upperWall
    {
        type            symmetryPlane;
    }
    lowerWall
    {
        type            symmetryPlane;
    }
    inlet
    {
        type            fixedValue;
        value           uniform (0.9848 0.1736 0);
    }
    cylinder
    {
        type            fixedValue;
        value           uniform (0 0 0);
    }
    frontAndBack
    {
        type            empty;
    }
}


// ************************************************************************* //
