/*--------------------------------*- C++ -*----------------------------------*\
| =========                 |                                                 |
| \\      /  F ield         | OpenFOAM: The Open Source CFD Toolbox           |
|  \\    /   O peration     | Version:  2512                                  |
|   \\  /    A nd           | Website:  www.openfoam.com                      |
|    \\/     M anipulation  |                                                 |
\*---------------------------------------------------------------------------*/
FoamFile
{
    version     2.0;
    format      ascii;
    arch        "LSB;label=32;scalar=64";
    class       surfaceScalarField;
    location    "96.45";
    object      phi;
}
// * * * * * * * * * * * * * * * * * * * * * * * * * * * * * * * * * * * * * //

dimensions      [0 3 -1 0 0 0 0];

oriented        oriented;

internalField   nonuniform List<scalar> 
26232
(
-0.000485654
0.00178801
-0.00130236
-0.00118061
0.00382344
-0.00312848
-0.00152558
0.00465927
-0.0043143
-0.00102033
0.0043028
-0.00480805
0.000831149
0.00260969
-0.00446117
0.00453389
-0.000653414
-0.00304933
0.0105318
-0.00570259
-0.000295302
0.0192035
-0.0126166
0.00394491
0.030608
-0.0212566
0.00985203
0.0444824
-0.0312215
0.0173471
0.0602032
-0.0419235
0.0262027
0.0768705
-0.0527027
0.0360355
0.0934466
-0.0629419
0.0463657
0.108921
-0.0721565
0.056682
0.122473
-0.0800543
0.066502
0.133607
-0.0865615
0.0754282
0.142248
-0.0918191
0.0831777
0.148696
-0.0961338
0.0896858
0.153625
-0.099878
0.0949493
0.157592
-0.103453
0.0994866
0.161292
-0.10686
0.10316
0.164565
-0.110696
0.107423
0.167093
-0.113364
0.110836
-0.11758
0.116258
0.168415
-0.000286287
0.0020743
-0.000514717
0.00405187
-0.000113412
0.00425796
0.00148692
0.00270247
0.00486672
-0.000770111
0.0105636
-0.00635025
0.0189539
-0.014093
0.0300905
-0.0237531
0.0435774
-0.0347435
0.0586058
-0.0462499
0.0741066
-0.0574243
0.0889684
-0.0675646
0.102255
-0.0762289
0.113376
-0.083277
0.122168
-0.088846
0.128881
-0.0932752
0.134046
-0.0969838
0.138269
-0.100357
0.142029
-0.103638
0.145512
-0.106936
0.148863
-0.110211
0.15171
-0.113543
0.154854
-0.116508
-0.12045
0.157724
-7.98973e-05
0.0021542
0.000234825
0.00373714
0.0015361
0.00295669
0.00445284
-0.00021427
0.00960382
-0.00592109
0.0174398
-0.0141863
0.0280278
-0.0246809
0.0408917
-0.0366171
0.0550657
-0.0489175
0.0693385
-0.0605227
0.0825655
-0.0706513
0.0939288
-0.0789278
0.103079
-0.0853794
0.110136
-0.090334
0.115556
-0.0942652
0.119913
-0.0976331
0.123702
-0.100773
0.127213
-0.103868
0.130541
-0.106965
0.133715
-0.11011
0.13671
-0.113206
0.13963
-0.116463
0.142544
-0.119422
-0.122984
0.145078
9.71285e-05
0.00205707
0.000964392
0.00286988
0.00324956
0.000671524
0.00763131
-0.00459602
0.0146594
-0.0129491
0.0244835
-0.0240104
0.0366027
-0.0368002
0.0499245
-0.0499388
0.0631118
-0.0621048
0.0749998
-0.0724107
0.0848876
-0.0805391
0.0926284
-0.0866686
0.0985269
-0.0912779
0.103117
-0.0949238
0.106924
-0.0980723
0.110315
-0.101024
0.113477
-0.103935
0.116472
-0.106862
0.119347
-0.109841
0.122102
-0.112865
0.124834
-0.115939
0.127474
-0.119102
0.130161
-0.122109
-0.125699
0.132875
0.000259502
0.00179757
0.00170952
0.00141986
0.0050745
-0.00269345
0.0110146
-0.0105361
0.019824
-0.0217586
0.0310661
-0.0352525
0.0435682
-0.0493023
0.0558657
-0.0622364
0.0667462
-0.0729854
0.0755778
-0.0812422
0.0823392
-0.0873005
0.0874283
-0.0917577
0.0913874
-0.095237
0.0946847
-0.0982211
0.0976229
-0.101011
0.100362
-0.103764
0.10298
-0.106553
0.105527
-0.10941
0.108023
-0.112336
0.11049
-0.115332
0.112931
-0.11838
0.11532
-0.121491
0.11779
-0.124579
-0.127985
0.120076
0.000446079
0.00135149
0.00255327
-0.000687332
0.00709087
-0.00723105
0.0145547
-0.0179999
0.0246987
-0.0319026
0.0363592
-0.046913
0.0479412
-0.0608843
0.0581246
-0.0724197
0.0662638
-0.0811246
0.0723807
-0.0873591
0.0769048
-0.0918246
0.0803715
-0.0952245
0.083223
-0.0980885
0.0857466
-0.100745
0.0881028
-0.103367
0.0903722
-0.106033
0.0925925
-0.108773
0.0947702
-0.111587
0.0969089
-0.114475
0.0990061
-0.117429
0.101076
-0.12045
0.103132
-0.123547
0.105218
-0.126665
-0.130023
0.107256
0.000681461
0.000670027
0.00353301
-0.00353888
0.0092661
-0.0129641
0.0179662
-0.0267
0.0286444
-0.0425807
0.039606
-0.0578746
0.0493439
-0.0706222
0.0570915
-0.0801673
0.0628269
-0.0868601
0.0669696
-0.0915017
0.0700517
-0.0949067
0.0725169
-0.0976896
0.0746586
-0.10023
0.0766414
-0.102727
0.0785427
-0.105268
0.0803923
-0.107883
0.0821971
-0.110578
0.0839638
-0.113354
0.0857001
-0.116211
0.0874187
-0.119148
0.0891333
-0.122164
0.0908363
-0.12525
0.0925688
-0.128398
-0.131691
0.0942369
0.0009672
-0.000297173
0.00461338
-0.00718506
0.0114123
-0.0197631
0.0207897
-0.0360774
0.0310833
-0.0528744
0.0405352
-0.0673265
0.0481295
-0.0782165
0.0537022
-0.0857401
0.0576214
-0.0907792
0.0604189
-0.0942992
0.062558
-0.0970458
0.0643521
-0.0994838
0.0659763
-0.101855
0.0675121
-0.104263
0.0689918
-0.106748
0.0704279
-0.109319
0.071829
-0.111979
0.0732013
-0.114726
0.07455
-0.11756
0.0758803
-0.120478
0.0771937
-0.123478
0.0785022
-0.126558
0.0798225
-0.129718
-0.132975
0.0811066
0.0012858
-0.00158298
0.0057006
-0.0115999
0.0132516
-0.0273141
0.0226082
-0.045434
0.0317919
-0.0620581
0.0394025
-0.074937
0.0450063
-0.0838203
0.0488568
-0.0895905
0.0514732
-0.0933957
0.0533489
-0.0961749
0.0548303
-0.0985272
0.0561142
-0.100768
0.0572942
-0.103035
0.0584096
-0.105379
0.0594763
-0.107815
0.0605022
-0.110345
0.0614916
-0.112968
0.0624491
-0.115684
0.0633812
-0.118492
0.0642948
-0.121392
0.0651996
-0.124382
0.0661002
-0.127459
0.0670005
-0.130618
-0.133851
0.0678764
0.00161374
-0.00319672
0.00667152
-0.0166576
0.0145215
-0.0351641
0.0232259
-0.0541383
0.0309144
-0.0697467
0.0367159
-0.0807385
0.040659
-0.0877634
0.04321
-0.0921415
0.0448922
-0.0950779
0.0460995
-0.0973821
0.0470649
-0.0994926
0.047903
-0.101606
0.0486633
-0.103795
0.0493653
-0.106081
0.0500176
-0.108467
0.0506256
-0.110953
0.0511949
-0.113538
0.0517321
-0.116221
0.0522432
-0.119003
0.0527341
-0.121883
0.0532083
-0.124857
0.0536718
-0.127922
0.054128
-0.131074
-0.134294
0.0545711
0.00191827
-0.00511498
0.00740174
-0.0221411
0.0150654
-0.0428278
0.0226914
-0.0617642
0.0287922
-0.0758475
0.0329934
-0.0849397
0.0356169
-0.0903869
0.0371938
-0.0937184
0.0381762
-0.0960603
0.0388506
-0.0980565
0.0393641
-0.100006
0.0397811
-0.102023
0.0401273
-0.104141
0.0404135
-0.106367
0.0406461
-0.108699
0.0408307
-0.111138
0.040973
-0.11368
0.0410782
-0.116326
0.0411524
-0.119077
0.0412015
-0.121932
0.0412321
-0.124887
0.0412473
-0.127938
0.0412439
-0.131071
-0.134274
0.0412243
0.00217148
-0.00728647
0.00780416
-0.0277738
0.01487
-0.0498936
0.0212122
-0.0681065
0.0258099
-0.0804451
0.0286676
-0.0877975
0.0302554
-0.0919747
0.0310792
-0.0945421
0.0314964
-0.0964775
0.0317034
-0.0982635
0.0317892
-0.100092
0.0317893
-0.102023
0.0317181
-0.10407
0.0315831
-0.106232
0.0313897
-0.108506
0.0311427
-0.11089
0.0308472
-0.113384
0.0305089
-0.115988
0.0301334
-0.118702
0.0297268
-0.121525
0.0292939
-0.124454
0.0288393
-0.127483
0.0283648
-0.130597
0.0278823
-0.133792
-0.000685079
-0.000666911
0.00135199
-0.00215622
0.00123615
0.00023499
-0.00421632
0.0044013
-0.0023412
-0.00677134
0.007716
-0.00516098
-0.0097218
0.0108372
-0.00788674
-0.012955
0.0139103
-0.0106771
-0.0163663
0.0171972
-0.0137858
-0.0198625
0.0208595
-0.0173634
-0.0233448
0.024929
-0.0214467
-0.0266908
0.0293546
-0.0260086
-0.0297463
0.034039
-0.0309835
-0.0323253
0.0388469
-0.0362679
-0.0342135
0.0436023
-0.0417141
-0.0351759
0.0480886
-0.0471262
-0.0349681
0.052052
-0.0522597
-0.03335
0.0552104
-0.0568285
-0.0301098
0.0572738
-0.060514
-0.0250802
0.0579554
-0.0629851
-0.0181548
0.0569963
-0.0639217
-0.00930518
0.054202
-0.0630516
0.00141538
0.0494461
-0.0601667
0.0138802
0.0426778
-0.0551427
0.0277212
0.034142
-0.047983
0.0235061
0.0429898
-0.0387747
-0.000470286
-0.000196625
-0.00146165
0.00222751
-0.00288817
0.00582782
-0.00473456
0.0095624
-0.0069279
0.0130305
-0.0093296
0.016312
-0.0117821
0.0196496
-0.0141408
0.0232182
-0.0162705
0.0270587
-0.0180267
0.0311108
-0.0192428
0.0352551
-0.0197298
0.0393339
-0.019285
0.0431575
-0.0176989
0.0465025
-0.0147732
0.0491264
-0.0103346
0.0507717
-0.00424476
0.051184
0.00357247
0.0501382
0.0131121
0.0474567
0.0243287
0.0429854
0.0369961
0.0367787
0.051041
0.0286329
0.0658966
0.0192865
0.0077711
0.0816315
-0.000232114
3.54891e-05
-0.000667092
0.00266249
-0.00132547
0.0064862
-0.00227371
0.0105106
-0.00348982
0.0142467
-0.00483788
0.0176601
-0.00612142
0.0209332
-0.00714446
0.0242412
-0.00773459
0.0276488
-0.00773023
0.0311065
-0.00696855
0.0344934
-0.00528063
0.037646
-0.00249396
0.0403708
0.00155096
0.0424575
0.00699503
0.0436823
0.0139387
0.043828
0.022427
0.0426957
0.0324573
0.0401079
0.0439252
0.0359888
0.0567454
0.0301652
0.0705554
0.0229687
0.0853273
0.013861
0.100297
0.00431708
-0.00774549
0.115813
-1.79568e-05
5.34459e-05
5.77266e-05
0.0025868
0.000163148
0.00638077
0.000171211
0.0105026
3.55868e-05
0.0143823
-0.000149879
0.0178455
-0.000190425
0.0209737
0.000140441
0.0239104
0.00105513
0.0267342
0.00273396
0.0294276
0.00533527
0.0318921
0.00900274
0.0339785
0.0138632
0.0355104
0.0200215
0.0362992
0.0275467
0.0361571
0.0364636
0.0349111
0.0467477
0.0324116
0.058303
0.0285527
0.070964
0.0233277
0.0845723
0.016557
0.098644
0.00889696
0.113274
-0.00076906
0.127852
-0.0102611
-0.0225905
0.142697
0.000122073
-6.86275e-05
0.000569947
0.00213893
0.00128744
0.00566329
0.00214016
0.00964985
0.00302953
0.0134929
0.00397964
0.0168954
0.00513998
0.0198134
0.00672841
0.0223219
0.00896844
0.0244941
0.012056
0.0263401
0.0161488
0.0277994
0.021368
0.0287593
0.0278004
0.029078
0.035494
0.0286056
0.0444586
0.0271926
0.0546345
0.0247352
0.0659526
0.0210935
0.0781966
0.0163087
0.0912272
0.010297
0.104677
0.00310717
0.118523
-0.00494916
0.132755
-0.0150008
0.146789
-0.0242956
-0.0378208
0.16202
0.000174102
-0.000242729
0.000788123
0.00152491
0.00184796
0.00460345
0.00326636
0.00823145
0.00493952
0.0118198
0.00683573
0.0149992
0.00903082
0.0176183
0.0116849
0.0196678
0.0149927
0.0211864
0.0191392
0.0221936
0.0242738
0.0226647
0.0304998
0.0225332
0.0378717
0.0217061
0.0463899
0.0200874
0.0560129
0.0175696
0.0666195
0.0141286
0.0781155
0.00959748
0.0902053
0.00421885
0.10304
-0.00253749
0.116265
-0.0101185
0.130287
-0.0189705
0.144955
-0.0296687
0.160898
-0.0402383
-0.0557406
0.178817
0.00013617
-0.000378899
0.000693848
0.000967231
0.00176802
0.00352928
0.00335665
0.00664283
0.00540005
0.00977635
0.00785169
0.0125476
0.0107282
0.0147418
0.0141159
0.0162801
0.0181452
0.017157
0.0229544
0.0173845
0.0286588
0.0169603
0.0353334
0.0158587
0.0430055
0.014034
0.0516577
0.0114353
0.0612428
0.00798449
0.0716939
0.0036775
0.0830539
-0.0017626
0.0953285
-0.00805568
0.108785
-0.0159937
0.123326
-0.0246598
0.139947
-0.035592
0.15767
-0.0473917
0.177838
-0.0604054
-0.0761453
0.198242
1.63325e-05
-0.000395232
0.000315776
0.000667788
0.00109479
0.00275026
0.00244292
0.0052947
0.00437182
0.00784745
0.00685876
0.0100606
0.00989605
0.0117045
0.0135143
0.0126619
0.0177792
0.0128921
0.0227731
0.0123905
0.0285773
0.0111561
0.0352649
0.00917107
0.0429071
0.00639172
0.0515946
0.00274781
0.0614608
-0.00188168
0.0727236
-0.00758533
0.0855368
-0.0145758
0.100238
-0.0227566
0.116879
-0.0326348
0.135452
-0.0432328
0.155861
-0.0560014
0.176528
-0.0680584
0.198006
-0.0818832
-0.0940834
0.215944
-0.000172163
-0.000223068
-0.000274563
0.000770187
-1.75095e-05
0.00249321
0.000779955
0.00449723
0.00219191
0.00643549
0.0042461
0.00800644
0.00694845
0.00900217
0.010324
0.00928629
0.0144333
0.00878285
0.0193817
0.00744212
0.025321
0.00521687
0.0324598
0.00203222
0.041054
-0.00220247
0.0513917
-0.00758982
0.0637214
-0.0142114
0.0782651
-0.0221291
0.0949724
-0.031283
0.113796
-0.0415802
0.133984
-0.0528231
0.155124
-0.0643721
0.175593
-0.0764711
0.194384
-0.0868496
0.210449
-0.0979482
-0.104579
0.220945
-0.000384798
0.00016173
-0.000931369
0.00131676
-0.00125586
0.0028177
-0.0011119
0.00435327
-0.000344751
0.00566834
0.00113254
0.00652916
0.003422
0.00671271
0.00664026
0.00606803
0.0109717
0.00445142
0.0166796
0.00173421
0.0240739
-0.00217742
0.0334682
-0.00736207
0.0451272
-0.0138615
0.0591786
-0.0216412
0.0755366
-0.0305694
0.0938849
-0.0404774
0.113596
-0.050994
0.133898
-0.0618819
0.153557
-0.072483
0.17177
-0.0825846
0.186827
-0.0915276
0.198792
-0.0988146
0.206286
-0.105443
-0.108592
0.210299
-0.000550855
0.000712585
-0.00142778
0.00219368
-0.002166
0.00355592
-0.00244569
0.00463296
-0.00201877
0.00524142
-0.000652934
0.00516332
0.00189273
0.00416705
0.0059184
0.00204236
0.0117745
-0.00140465
0.0197811
-0.00627238
0.030211
-0.0126073
0.0431655
-0.0203166
0.0585055
-0.0292015
0.0758282
-0.038964
0.0944789
-0.0492201
0.113573
-0.059572
0.132115
-0.0695353
0.149044
-0.0788113
0.163426
-0.0868647
0.174736
-0.0938947
0.18255
-0.0993414
0.188025
-0.104289
0.190953
-0.108371
-0.111508
0.193869
-0.000589772
-0.00152457
-0.00228295
-0.00245804
-0.00167779
0.000436193
0.00430794
0.0102952
0.0187426
0.0298174
0.0434127
0.0591316
0.0762958
0.0940139
0.111296
0.127152
0.140794
0.151669
0.159753
0.165345
0.169164
0.172297
0.174762
0.179511
0.0609013
0.0179308
-0.0358423
0.0766452
-0.0048493
-0.0108946
0.0903608
-0.0307998
0.0170843
0.102073
-0.0615134
0.0498009
0.112384
-0.0967829
0.0864721
0.120936
-0.130936
0.122384
0.126874
-0.156336
0.150398
0.129877
-0.168968
0.165965
0.129852
-0.171307
0.171332
0.127976
-0.16938
0.171256
0.125804
-0.1655
0.167671
0.122605
-0.161287
0.164487
0.116715
-0.163014
0.168904
0.10923
-0.172434
0.179919
0.104493
-0.176528
0.181265
0.105942
-0.154325
0.152876
0.11309
-0.0965592
0.0894119
0.123981
-0.0138086
0.00291738
0.135991
0.0719973
-0.0840078
0.14719
0.138532
-0.149731
0.155031
0.178693
-0.186534
0.159266
0.198276
-0.20251
0.1618
0.203407
-0.205941
0.163013
0.201133
-0.202346
0.161349
0.207869
-0.206205
0.156182
0.231793
-0.226626
0.148716
0.255912
-0.248446
0.140611
0.246007
-0.237901
0.133872
0.181133
-0.174394
0.131139
0.068982
-0.0662492
0.133377
-0.0552866
0.0530479
0.13912
-0.154064
0.148321
0.145419
-0.213528
0.20723
0.149066
-0.240382
0.236735
0.146734
-0.254088
0.256421
0.13771
-0.264558
0.273582
0.125471
-0.267108
0.279346
0.115079
-0.230869
0.241261
0.111301
-0.143328
0.147106
0.115981
-0.0204962
0.0158156
0.125658
0.0970863
-0.106763
0.132451
0.181483
-0.188275
0.131427
0.249087
-0.248064
0.125198
0.290118
-0.283889
0.119487
0.297649
-0.291937
0.117615
0.226271
-0.2244
0.121071
0.104937
-0.108394
0.124515
-0.0296206
0.0261767
0.124685
-0.178381
0.178211
0.122054
-0.262792
0.265423
0.120061
-0.333255
0.335249
0.119355
-0.257717
0.258422
0.119222
-0.112005
0.112138
0.1163
0.0725319
-0.0696092
0.113828
0.328724
-0.326252
0.112236
0.282667
-0.281075
0.111436
0.273117
-0.272317
0.107435
0.133855
-0.129855
0.103058
-0.256666
0.261043
-0.190654
0.192492
0.0954504
0.00411194
0.107529
-0.0169276
0.117503
-0.0407744
0.12589
-0.0698999
0.132948
-0.103842
0.137651
-0.135639
0.138883
-0.157567
0.137031
-0.167116
0.132929
-0.167205
0.127474
-0.163925
0.122285
-0.160311
0.116975
-0.155978
0.109197
-0.155237
0.0990502
-0.162287
0.0908668
-0.168345
0.0897808
-0.153239
0.0967702
-0.103549
0.109882
-0.0269206
0.125819
0.0560606
0.140864
0.123487
0.152066
0.167491
0.159402
0.19094
0.164601
0.198208
0.168098
0.197636
0.16901
0.206957
0.16673
0.234072
0.161567
0.261075
0.154304
0.25327
0.14683
0.188607
0.141634
0.0741782
0.140527
-0.0541796
0.142742
-0.15628
0.145864
-0.216651
0.1472
-0.241718
0.143466
-0.250354
0.133397
-0.254489
0.120485
-0.254196
0.110633
-0.221017
0.10846
-0.141154
0.11526
-0.0272965
0.126297
0.0860498
0.133759
0.174021
0.133416
0.249429
0.127656
0.295878
0.121689
0.303617
0.118843
0.229117
0.121846
0.101934
0.125213
-0.0329874
0.124914
-0.178082
0.121495
-0.259373
0.118904
-0.330665
0.118705
-0.257517
0.118832
-0.112132
0.117559
0.0738042
0.115729
0.330555
0.11363
0.284766
0.113278
0.273469
0.108416
0.138717
0.103231
-0.251481
-0.189544
0.125624
-0.00569871
0.134037
-0.0253407
0.14123
-0.0479674
0.147182
-0.0758515
0.151278
-0.107938
0.152138
-0.136499
0.148858
-0.154287
0.142672
-0.16093
0.135381
-0.159914
0.127485
-0.15603
0.119905
-0.15273
0.113021
-0.149094
0.104217
-0.146433
0.0921039
-0.150173
0.0806206
-0.156862
0.0763337
-0.148952
0.0823792
-0.109594
0.0968344
-0.0413758
0.115774
0.037121
0.134174
0.105087
0.14867
0.152995
0.159122
0.180488
0.167066
0.190263
0.17311
0.191592
0.176927
0.20314
0.177834
0.233165
0.175254
0.263655
0.169083
0.259442
0.160885
0.196804
0.153071
0.0819923
0.148372
-0.0494807
0.146936
-0.154843
0.146802
-0.216517
0.145869
-0.240785
0.141141
-0.245625
0.130497
-0.243846
0.116994
-0.240693
0.107429
-0.211452
0.106628
-0.140353
0.115125
-0.0357938
0.12733
0.0738454
0.135692
0.165658
0.136325
0.248797
0.131073
0.30113
0.124694
0.309996
0.120695
0.233116
0.123025
0.0996043
0.12636
-0.0363227
0.125711
-0.177433
0.121464
-0.255126
0.118094
-0.327294
0.118426
-0.25785
0.118904
-0.11261
0.119242
0.0734658
0.118138
0.331659
0.115577
0.287328
0.115603
0.273443
0.110069
0.144251
0.10411
-0.245522
-0.18892
0.149379
-0.0123804
0.155501
-0.0314626
0.161278
-0.0537452
0.165991
-0.0805644
0.167487
-0.109434
0.164121
-0.133132
0.156403
-0.146569
0.146473
-0.151
0.13666
-0.150102
0.127325
-0.146695
0.118265
-0.14367
0.110137
-0.140966
0.10134
-0.137636
0.0889903
-0.137824
0.0751553
-0.143027
0.0671635
-0.14096
0.0707065
-0.113137
0.0850473
-0.0557166
0.105864
0.0163044
0.126914
0.0840367
0.14443
0.135479
0.157886
0.167032
0.168462
0.179688
0.177066
0.182988
0.1841
0.196107
0.188703
0.228562
0.189165
0.263192
0.184467
0.26414
0.175568
0.205704
0.165138
0.0924221
0.156829
-0.0411721
0.15176
-0.149773
0.148344
-0.213101
0.145011
-0.237452
0.139466
-0.24008
0.12878
-0.23316
0.114937
-0.226849
0.105318
-0.201833
0.105385
-0.14042
0.115192
-0.045601
0.12861
0.0604283
0.13818
0.156087
0.140026
0.246951
0.135342
0.305814
0.128524
0.316814
0.123277
0.238362
0.124675
0.0982068
0.127934
-0.0395824
0.127064
-0.176563
0.121969
-0.250031
0.11765
-0.322975
0.118385
-0.258585
0.119384
-0.113609
0.121341
0.0715086
0.121019
0.331982
0.118036
0.29031
0.118402
0.273078
0.112364
0.150288
0.105693
-0.238851
-0.188626
0.167978
-0.0183383
0.173802
-0.0372867
0.178991
-0.0589346
0.18186
-0.0834335
0.179987
-0.107561
0.172514
-0.125659
0.161283
-0.135338
0.14885
-0.138566
0.137282
-0.138534
0.127121
-0.136534
0.117431
-0.13398
0.108452
-0.131987
0.0998393
-0.129023
0.0885466
-0.126531
0.0741066
-0.128587
0.0627846
-0.129638
0.0625828
-0.112935
0.0751393
-0.068273
0.0963639
-0.00492018
0.119082
0.0613188
0.139113
0.115447
0.155242
0.150903
0.168247
0.166683
0.179384
0.171851
0.189583
0.185908
0.197845
0.220299
0.201801
0.259236
0.199533
0.266408
0.190796
0.21444
0.17772
0.105499
0.165699
-0.0291511
0.156919
-0.140994
0.150307
-0.206489
0.144581
-0.231726
0.138311
-0.23381
0.128085
-0.222934
0.114207
-0.212971
0.104201
-0.191827
0.104496
-0.140715
0.115228
-0.0563332
0.129864
0.0457924
0.140996
0.144955
0.144521
0.243426
0.14067
0.309666
0.133437
0.324046
0.126806
0.244994
0.126882
0.0981306
0.129904
-0.0426043
0.128929
-0.175587
0.122994
-0.244097
0.117555
-0.317537
0.118601
-0.259631
0.120204
-0.115212
0.123789
0.0679233
0.12432
0.33145
0.120966
0.293664
0.121647
0.272397
0.11527
0.156665
0.107953
-0.231534
-0.188544
0.185341
-0.0248618
0.191093
-0.0430385
0.194712
-0.0625542
0.194159
-0.0828804
0.187927
-0.101328
0.176656
-0.114388
0.163086
-0.121768
0.149645
-0.125125
0.137388
-0.126277
0.126754
-0.1259
0.116993
-0.124218
0.107626
-0.122621
0.099247
-0.120644
0.0898711
-0.117155
0.0767026
-0.115418
0.0632555
-0.116191
0.0585196
-0.1082
0.0676122
-0.0773656
0.0870447
-0.0243527
0.110618
0.0377456
0.132538
0.0935266
0.150921
0.132521
0.166025
0.151578
0.179318
0.158558
0.192428
0.172798
0.204536
0.208192
0.212237
0.251536
0.212479
0.266166
0.204634
0.222285
0.190283
0.119849
0.174705
-0.0135725
0.162113
-0.128402
0.152538
-0.196914
0.144462
-0.22365
0.137358
-0.226706
0.12801
-0.213587
0.114607
-0.199568
0.103966
-0.181186
0.103754
-0.140503
0.114934
-0.0675138
0.130826
0.0299008
0.143847
0.131934
0.149388
0.237884
0.146684
0.31237
0.139336
0.331394
0.131364
0.252966
0.12976
0.099735
0.132242
-0.0450867
0.131236
-0.17458
0.124514
-0.237375
0.117784
-0.310807
0.119043
-0.26089
0.121289
-0.117457
0.126485
0.0627273
0.127964
0.329971
0.124306
0.297322
0.125291
0.271411
0.118746
0.16321
0.110856
-0.223643
-0.188573
0.203597
-0.0302163
0.206845
-0.0462864
0.206395
-0.0621042
0.20092
-0.0774054
0.190356
-0.0907652
0.176486
-0.100518
0.161913
-0.107194
0.148449
-0.111661
0.136398
-0.114227
0.125776
-0.115277
0.116368
-0.11481
0.107285
-0.113538
0.098889
-0.112248
0.0911474
-0.109413
0.0809817
-0.105253
0.0678505
-0.10306
0.0589058
-0.0992548
0.0624861
-0.0809459
0.0785785
-0.0404451
0.101637
0.0146867
0.124788
0.0703758
0.144995
0.112315
0.161784
0.134789
0.176767
0.143575
0.192281
0.157284
0.207798
0.192674
0.219409
0.239925
0.222971
0.262604
0.216541
0.228716
0.201371
0.135019
0.182991
0.00480791
0.166945
-0.112357
0.154753
-0.184722
0.144571
-0.213468
0.136443
-0.218578
0.12814
-0.205284
0.115828
-0.187256
0.10454
-0.169897
0.103072
-0.139035
0.114083
-0.0785244
0.131181
0.0128021
0.146396
0.11672
0.154519
0.229761
0.153631
0.313258
0.146468
0.338557
0.137108
0.262326
0.133397
0.103446
0.134918
-0.0466076
0.133891
-0.173554
0.12648
-0.229964
0.118313
-0.30264
0.119657
-0.262234
0.122562
-0.120362
0.129338
0.0559519
0.131877
0.327432
0.127997
0.301203
0.129286
0.270122
0.122736
0.169761
0.114355
-0.215263
-0.188628
0.21725
-0.0315227
0.215491
-0.0445277
0.209677
-0.0562896
0.199729
-0.0674575
0.186696
-0.0777327
0.172533
-0.0863544
0.158777
-0.0934387
0.146143
-0.0990278
0.134711
-0.102794
0.124369
-0.104936
0.115342
-0.105784
0.107101
-0.105297
0.0990661
-0.104213
0.0920119
-0.102359
0.0848096
-0.0980502
0.0745147
-0.0927649
0.0636881
-0.0884282
0.0611141
-0.0783719
0.071725
-0.0510561
0.0924429
-0.00603114
0.115815
0.0470035
0.13738
0.0907501
0.155623
0.116545
0.171845
0.127354
0.188867
0.140262
0.207107
0.174434
0.222401
0.224631
0.229078
0.255927
0.224385
0.233409
0.209593
0.149812
0.189454
0.0249465
0.170965
-0.0938676
0.156641
-0.170399
0.144741
-0.201567
0.135419
-0.209256
0.128045
-0.19791
0.117457
-0.176668
0.105869
-0.158309
0.102522
-0.135688
0.112596
-0.0885985
0.130699
-0.00530141
0.148232
0.0991873
0.159159
0.218834
0.160608
0.311809
0.154372
0.344793
0.143865
0.272832
0.137846
0.109466
0.137912
-0.046674
0.136794
-0.172436
0.128824
-0.221994
0.119121
-0.292937
0.120388
-0.263501
0.123947
-0.123921
0.132231
0.0476682
0.135941
0.323722
0.131957
0.305186
0.133568
0.268512
0.127181
0.176147
0.118401
-0.206482
-0.188637
0.217892
-0.0284705
0.211821
-0.038456
0.202768
-0.0472366
0.191517
-0.0562066
0.179089
-0.0653046
0.166547
-0.0738128
0.154437
-0.0813284
0.142913
-0.0875039
0.132239
-0.0921201
0.122497
-0.0951937
0.113833
-0.097119
0.106349
-0.0978131
0.0992461
-0.0971102
0.0925146
-0.0956275
0.0869048
-0.0924404
0.0803973
-0.0862574
0.0712144
-0.0792454
0.0645036
-0.0716611
0.0684894
-0.0550418
0.0842039
-0.0217456
0.106434
0.0247732
0.128496
0.068688
0.147654
0.097388
0.164541
0.110466
0.182446
0.122357
0.20293
0.15395
0.221873
0.205688
0.232618
0.245182
0.23078
0.235247
0.216553
0.164039
0.194653
0.0468459
0.174049
-0.0732632
0.157992
-0.154342
0.144832
-0.188408
0.134256
-0.19868
0.127407
-0.191061
0.11897
-0.168231
0.107787
-0.147126
0.102293
-0.130194
0.110508
-0.0968137
0.129081
-0.0238745
0.149086
0.0791822
0.163362
0.204558
0.167828
0.307344
0.163085
0.349536
0.15154
0.284377
0.143012
0.117993
0.14115
-0.0448122
0.139816
-0.171101
0.131455
-0.213633
0.120162
-0.281645
0.121173
-0.264512
0.125358
-0.128105
0.135083
0.0379427
0.140091
0.318714
0.136122
0.309155
0.138075
0.266558
0.132014
0.182209
0.122931
-0.1974
-0.18855
0.205628
-0.0237994
0.198718
-0.031546
0.190118
-0.0386363
0.180523
-0.0466118
0.170289
-0.05507
0.159708
-0.0632326
0.149061
-0.0706807
0.138615
-0.0770579
0.128778
-0.0822835
0.119885
-0.0863007
0.111874
-0.0891083
0.104875
-0.0908135
0.0987373
-0.0909728
0.0927582
-0.0896484
0.0875385
-0.0872207
0.0834632
-0.0821821
0.078107
-0.0738892
0.0713636
-0.0649177
0.0696987
-0.053377
0.0788483
-0.0308952
0.0975153
0.00610622
0.118918
0.0472853
0.138343
0.0779634
0.155353
0.0934551
0.173193
0.104517
0.194285
0.132858
0.215562
0.18441
0.229787
0.230958
0.230856
0.234177
0.218344
0.176551
0.19749
0.0676998
0.176012
-0.051785
0.158588
-0.136918
0.144561
-0.174381
0.13284
-0.186959
0.125997
-0.184218
0.119803
-0.162037
0.109891
-0.137214
0.102481
-0.122785
0.10804
-0.102373
0.126306
-0.0421397
0.148379
0.0571093
0.165863
0.187074
0.173778
0.299429
0.171589
0.351725
0.159725
0.296241
0.148859
0.128859
0.1446
-0.0405528
0.142812
-0.169314
0.134259
-0.20508
0.121387
-0.268772
0.121942
-0.265067
0.126736
-0.132899
0.137772
0.0269066
0.144162
0.312323
0.140373
0.312945
0.142735
0.264196
0.137162
0.187782
0.127883
-0.188121
-0.188332
0.190068
-0.0199981
0.18449
-0.0259676
0.177713
-0.0318591
0.170004
-0.0389035
0.161421
-0.0464863
0.152191
-0.0540033
0.142658
-0.0611476
0.133241
-0.0676408
0.124286
-0.0733288
0.11611
-0.0781245
0.108774
-0.0817719
0.102187
-0.0842269
0.0965455
-0.0853313
0.0915659
-0.0846689
0.0868891
-0.0825439
0.0835034
-0.0787964
0.0811931
-0.0715788
0.0777414
-0.061466
0.0746579
-0.0502934
0.0781528
-0.0343901
0.0916506
-0.00739161
0.110402
0.0285341
0.129193
0.0591725
0.145671
0.076977
0.162485
0.0877029
0.183968
0.111375
0.208147
0.160231
0.226122
0.212983
0.230433
0.229867
0.219703
0.187281
0.198703
0.0887
0.176167
-0.0292493
0.157915
-0.118666
0.143615
-0.16008
0.13115
-0.174494
0.12384
-0.176908
0.11961
-0.157807
0.111713
-0.129317
0.103044
-0.114115
0.10534
-0.104669
0.122323
-0.0591228
0.146331
0.0331016
0.167598
0.165807
0.179165
0.287861
0.179542
0.351349
0.167916
0.307867
0.154993
0.141783
0.1481
-0.0336601
0.145641
-0.166855
0.137124
-0.196562
0.122826
-0.254473
0.122673
-0.264915
0.128014
-0.138241
0.140273
0.0146477
0.148151
0.304445
0.144646
0.31645
0.147468
0.261374
0.142543
0.192708
0.133197
-0.178776
-0.187965
0.176416
-0.016903
0.171754
-0.0213055
0.166255
-0.0263603
0.159724
-0.0323726
0.152266
-0.0390274
0.144225
-0.0459627
0.135927
-0.0528494
0.127702
-0.0594162
0.119798
-0.0654244
0.112379
-0.0707055
0.105604
-0.0749969
0.0994748
-0.0780977
0.0940554
-0.0799119
0.0895354
-0.0801489
0.0855838
-0.0785923
0.0823529
-0.0755655
0.0807975
-0.0700234
0.0801285
-0.060797
0.079028
-0.0491929
0.0801861
-0.0355482
0.0876267
-0.0148322
0.102188
0.0139728
0.118762
0.0425982
0.134179
0.0615599
0.149526
0.0723567
0.168721
0.0921803
0.192346
0.136605
0.214035
0.191294
0.223632
0.220269
0.216459
0.194454
0.198403
0.106756
0.176978
-0.00782489
0.157765
-0.099452
0.142984
-0.1453
0.129956
-0.161466
0.121668
-0.16862
0.118702
-0.154841
0.113121
-0.123736
0.103908
-0.104902
0.103017
-0.103778
0.117446
-0.073552
0.141814
0.00873327
0.166014
0.141607
0.18201
0.271865
0.186445
0.346914
0.1766
0.317712
0.162071
0.156311
0.152061
-0.0236502
0.148534
-0.163328
0.140092
-0.18812
0.12462
-0.239001
0.123487
-0.263782
0.129232
-0.143986
0.142396
0.00148358
0.151816
0.295025
0.148795
0.319471
0.152197
0.257972
0.148097
0.196809
0.138838
-0.169518
-0.187387
0.210184
-0.0146788
-0.212408
0.208629
-0.0197505
0.206896
-0.0246278
0.204546
-0.0300222
0.201426
-0.0359078
0.197567
-0.0421032
0.193055
-0.0483377
0.187959
-0.0543202
0.182335
-0.0597998
0.176214
-0.0645852
0.169638
-0.0684202
0.162729
-0.0711893
0.155519
-0.0727021
0.148164
-0.0727931
0.140841
-0.0712694
0.133391
-0.0681161
0.126019
-0.0626516
0.11925
-0.0540273
0.11243
-0.0423734
0.105319
-0.0284369
0.100756
-0.010269
0.101226
0.0135024
0.107215
0.036609
0.116651
0.0521238
0.12694
0.0620679
0.137017
0.0821033
0.148338
0.125285
0.161094
0.178538
0.173
0.208363
0.184232
0.183222
0.193885
0.0971028
0.196724
-0.0106638
0.192199
-0.094927
0.182817
-0.135918
0.169796
-0.148445
0.15744
-0.156265
0.148694
-0.146095
0.138799
-0.11384
0.12529
-0.0913937
0.11779
-0.0962767
0.121852
-0.0776146
0.132956
-0.0023702
0.144116
0.130447
0.152472
0.263508
0.158735
0.340651
0.160672
0.315776
0.160647
0.156336
0.15985
-0.0228532
0.159793
-0.163271
0.152135
-0.180462
0.135678
-0.222544
0.129132
-0.257236
0.127691
-0.142545
0.132482
-0.00330676
0.137991
0.289516
0.13677
0.320691
0.141797
0.252945
0.141046
0.19756
0.132528
-0.161
-0.184593
0.218472
-0.0129562
-0.220194
0.216535
-0.0178138
0.214552
-0.022645
0.212114
-0.0275844
0.209021
-0.0328144
0.205192
-0.0382738
0.200644
-0.0437899
0.195435
-0.0491115
0.189627
-0.0539917
0.183319
-0.0582769
0.176601
-0.0617028
0.169621
-0.0642093
0.162546
-0.0656263
0.155442
-0.0656892
0.148442
-0.06427
0.141691
-0.0613646
0.135113
-0.0560741
0.129165
-0.0480788
0.124191
-0.0373995
0.119502
-0.0237483
0.115097
-0.00586374
0.113536
0.0150629
0.116258
0.033887
0.122915
0.0454677
0.132224
0.0527587
0.143465
0.0708623
0.156565
0.112184
0.169812
0.165291
0.182168
0.196008
0.195322
0.170068
0.207259
0.0851666
0.210505
-0.0139107
0.204508
-0.08893
0.19368
-0.12509
0.180011
-0.134776
0.166937
-0.143191
0.158214
-0.137372
0.149702
-0.105329
0.136483
-0.0781746
0.127412
-0.0872063
0.130314
-0.0805158
0.141999
-0.0140552
0.155409
0.117036
0.166456
0.252462
0.175417
0.331689
0.178954
0.312239
0.17873
0.156561
0.175992
-0.0201157
0.174232
-0.161511
0.165484
-0.171714
0.146861
-0.203921
0.139381
-0.249756
0.13818
-0.141344
0.143525
-0.00865195
0.150006
0.283035
0.149068
0.32163
0.154896
0.247117
0.154855
0.197601
0.1457
-0.151845
-0.181179
0.226439
-0.011759
-0.227636
0.224737
-0.0161122
0.222731
-0.0206386
0.220325
-0.0251781
0.217362
-0.0298519
0.213753
-0.034665
0.209484
-0.0395204
0.204607
-0.0442344
0.199195
-0.0485804
0.19334
-0.0524213
0.187143
-0.0555063
0.180685
-0.0577509
0.174048
-0.05899
0.167345
-0.0589861
0.160572
-0.0574967
0.153888
-0.0546802
0.147404
-0.0495903
0.141367
-0.0420418
0.136497
-0.0325299
0.133117
-0.0203677
0.130692
-0.0034395
0.128877
0.0168779
0.129008
0.0337563
0.131949
0.0425266
0.13867
0.0460375
0.149769
0.059764
0.163432
0.0985205
0.176183
0.15254