/*--------------------------------*- C++ -*----------------------------------*\
| =========                 |                                                 |
| \\      /  F ield         | OpenFOAM: The Open Source CFD Toolbox           |
|  \\    /   O peration     | Version:  2312                                  |
|   \\  /    A nd           | Website:  www.openfoam.com                      |
|    \\/     M anipulation  |                                                 |
\*---------------------------------------------------------------------------*/
FoamFile
{
    version     2.0;
    format      ascii;
    arch        "LSB;label=32;scalar=64";
    class       volScalarField;
    location    "88.6";
    object      p;
}
// * * * * * * * * * * * * * * * * * * * * * * * * * * * * * * * * * * * * * //

dimensions      [0 2 -2 0 0 0 0];

internalField   nonuniform List<scalar> 
5478
(
-0.351885
-0.35327
-0.352518
-0.349939
-0.342889
-0.330793
-0.313131
-0.291045
-0.266721
-0.24254
-0.220335
-0.200662
-0.184055
-0.169101
-0.15594
-0.359406
-0.358745
-0.356722
-0.352606
-0.344424
-0.330757
-0.311573
-0.288584
-0.264112
-0.240118
-0.217756
-0.197622
-0.179773
-0.163734
-0.149474
-0.368578
-0.365275
-0.360946
-0.354523
-0.343776
-0.327377
-0.306085
-0.282022
-0.257343
-0.233617
-0.211714
-0.191887
-0.174034
-0.157646
-0.142573
-0.380397
-0.374201
-0.367017
-0.357244
-0.342288
-0.32196
-0.298097
-0.272955
-0.248279
-0.225073
-0.203668
-0.184116
-0.166157
-0.149723
-0.134965
-0.396582
-0.386843
-0.376362
-0.361457
-0.340456
-0.315353
-0.28881
-0.262659
-0.237898
-0.214926
-0.193859
-0.174626
-0.157057
-0.14113
-0.126343
-0.418091
-0.403149
-0.388274
-0.365916
-0.337528
-0.307447
-0.27824
-0.250929
-0.225824
-0.202965
-0.182225
-0.163409
-0.146287
-0.130737
-0.116308
-0.442793
-0.422143
-0.399502
-0.367578
-0.331621
-0.296872
-0.265128
-0.236612
-0.2111
-0.188276
-0.167853
-0.149584
-0.133262
-0.118632
-0.105036
-0.465044
-0.440013
-0.405912
-0.363236
-0.320379
-0.281652
-0.247769
-0.218269
-0.192503
-0.169918
-0.150068
-0.132604
-0.117249
-0.103679
-0.0915027
-0.479765
-0.481297
-0.484051
-0.491715
-0.504072
-0.520088
-0.538181
-0.55625
-0.572191
-0.576307
-0.572523
-0.557496
-0.530442
-0.493494
-0.450021
-0.443855
-0.44531
-0.445701
-0.44855
-0.453626
-0.459607
-0.464692
-0.46644
-0.461764
-0.454614
-0.439527
-0.416631
-0.388514
-0.358176
-0.323564
-0.412256
-0.413567
-0.412321
-0.41149
-0.410754
-0.408707
-0.403731
-0.394322
-0.379777
-0.360269
-0.336159
-0.308405
-0.277242
-0.258268
-0.223476
-0.386705
-0.388148
-0.386273
-0.383296
-0.378763
-0.371417
-0.360002
-0.343951
-0.322608
-0.296608
-0.267148
-0.241868
-0.204981
-0.195491
-0.178047
-0.367351
-0.369246
-0.367491
-0.363594
-0.356943
-0.34649
-0.331468
-0.311241
-0.286297
-0.258282
-0.225519
-0.203767
-0.174238
-0.164254
-0.161141
-0.35403
-0.356478
-0.3551
-0.350947
-0.343229
-0.331024
-0.314035
-0.292122
-0.265889
-0.23781
-0.208942
-0.187603
-0.167544
-0.157588
-0.159555
-0.347033
-0.349815
-0.348874
-0.345027
-0.337503
-0.325367
-0.308183
-0.2863
-0.260999
-0.234483
-0.209735
-0.189691
-0.174995
-0.166439
-0.165579
-0.346888
-0.349378
-0.34877
-0.345532
-0.338941
-0.32735
-0.310407
-0.288844
-0.26442
-0.239473
-0.216942
-0.197675
-0.183136
-0.17254
-0.165377
-0.390542
-0.368331
-0.405682
-0.424097
-0.351567
-0.24289
-0.170213
-0.144807
-0.140708
-0.14777
-0.141492
-0.138954
-0.142116
-0.129642
-0.103961
-0.095804
-0.112806
-0.134769
-0.125924
-0.105832
-0.108012
-0.1336
-0.12687
-0.13166
-0.162332
-0.155554
-0.0986122
-0.087697
-0.0669087
-0.0479187
-0.0316998
-0.00779885
-0.00664324
-0.0112319
-0.0170905
0.00218473
0.0110374
0.00188561
-0.304162
-0.359963
-0.440201
-0.468238
-0.384578
-0.264531
-0.176091
-0.140629
-0.12457
-0.115923
-0.106332
-0.122101
-0.135477
-0.124979
-0.101402
-0.0933004
-0.10952
-0.13155
-0.12508
-0.111213
-0.121357
-0.147685
-0.13157
-0.121342
-0.140524
-0.135996
-0.106074
-0.0994555
-0.0706514
-0.0457145
-0.0325873
-0.0100386
-0.00818414
-0.0119057
-0.0175606
0.00218595
0.0113339
0.00193399
-0.227932
-0.326024
-0.440824
-0.475243
-0.393289
-0.271498
-0.177577
-0.136437
-0.116267
-0.0980767
-0.0820659
-0.107509
-0.12851
-0.121033
-0.0994918
-0.0914193
-0.106437
-0.127171
-0.122905
-0.114726
-0.133175
-0.159822
-0.133931
-0.109576
-0.118225
-0.114288
-0.110395
-0.108744
-0.0738475
-0.0434935
-0.033248
-0.01218
-0.00974737
-0.012601
-0.0180421
0.00195259
0.0115265
0.00200867
-0.181217
-0.275825
-0.402315
-0.438324
-0.36774
-0.261111
-0.175687
-0.132115
-0.111807
-0.0935635
-0.0722863
-0.0954119
-0.122823
-0.117879
-0.0978666
-0.0904718
-0.103245
-0.121691
-0.119287
-0.115583
-0.142385
-0.169533
-0.135019
-0.0978377
-0.0975633
-0.09252
-0.111427
-0.114897
-0.0767205
-0.0416339
-0.0336443
-0.0141106
-0.0112393
-0.0133114
-0.0185308
0.00151253
0.0116473
0.00210277
-0.164796
-0.23211
-0.351955
-0.384786
-0.329536
-0.244018
-0.172219
-0.129194
-0.108211
-0.0955686
-0.0756329
-0.0960792
-0.122753
-0.11642
-0.0981829
-0.0917363
-0.10172
-0.115772
-0.11396
-0.113364
-0.148252
-0.176115
-0.135441
-0.0872659
-0.0797612
-0.0722534
-0.109376
-0.117672
-0.0789348
-0.0403677
-0.0337436
-0.0157616
-0.0125625
-0.0140288
-0.0190709
0.00089042
0.0117154
0.00220726
-0.164959
-0.197986
-0.275353
-0.316697
-0.281675
-0.22036
-0.163836
-0.12525
-0.104897
-0.0942572
-0.0858862
-0.104958
-0.12708
-0.117901
-0.10029
-0.0938378
-0.0996662
-0.109085
-0.106617
-0.107764
-0.150149
-0.179864
-0.136295
-0.0795364
-0.0655036
-0.0545573
-0.104427
-0.118378
-0.0806055
-0.0399353
-0.033625
-0.0171617
-0.0136352
-0.0147539
-0.0195605
0.000116463
0.0117442
0.0023132
-0.167081
-0.176318
-0.22209
-0.252039
-0.239696
-0.201474
-0.157108
-0.123593
-0.102826
-0.0875958
-0.0943855
-0.117547
-0.134836
-0.11686
-0.101293
-0.0965589
-0.0986688
-0.104234
-0.0984508
-0.0979891
-0.148195
-0.178513
-0.134734
-0.073091
-0.055153
-0.0396753
-0.0966742
-0.11531
-0.0805648
-0.0406812
-0.03319
-0.0184226
-0.0143697
-0.015476
-0.0200121
-0.000828766
0.0117464
0.00241441
-0.159642
-0.160344
-0.176533
-0.193625
-0.195107
-0.177576
-0.147542
-0.120221
-0.102756
-0.0819307
-0.0898541
-0.12422
-0.143741
-0.117999
-0.104761
-0.0959683
-0.09358
-0.0969151
-0.0893041
-0.0868446
-0.141863
-0.187663
-0.135123
-0.0694958
-0.0483553
-0.0271157
-0.0863801
-0.110753
-0.0797711
-0.0423369
-0.0322086
-0.0194638
-0.0147533
-0.0161751
-0.0204079
-0.00188235
0.0117268
0.00250211
-0.152006
-0.157185
-0.161015
-0.164712
-0.163172
-0.149085
-0.123608
-0.0997465
-0.0862559
-0.0727251
-0.0746973
-0.110787
-0.128101
-0.109846
-0.103681
-0.0984233
-0.0942051
-0.0903394
-0.0780882
-0.078703
-0.131284
-0.172791
-0.126726
-0.0646341
-0.0420121
-0.0222688
-0.0751682
-0.101542
-0.076814
-0.0457359
-0.0330345
-0.0199983
-0.0146433
-0.0169642
-0.0212
-0.003026
0.0117264
0.00259603
-0.126905
-0.133303
-0.13449
-0.129629
-0.121667
-0.109831
-0.0911312
-0.0755599
-0.0660235
-0.0540476
-0.056285
-0.095299
-0.118811
-0.0987161
-0.0940672
-0.0975505
-0.0836324
-0.0730032
-0.0586275
-0.0578723
-0.115588
-0.172572
-0.11351
-0.0511151
-0.025683
-0.0120899
-0.0594085
-0.0925463
-0.0731333
-0.0461775
-0.0354265
-0.0200352
-0.0150501
-0.0180142
-0.0220241
-0.00450475
0.011372
0.00261266
-0.10344
-0.113226
-0.113093
-0.106271
-0.0987819
-0.0894208
-0.0754796
-0.0621781
-0.0495474
-0.0342867
-0.0222218
-0.0337567
-0.0434002
-0.0527236
-0.0697491
-0.0858493
-0.073947
-0.056253
-0.0393192
-0.0333518
-0.0824738
-0.107655
-0.0875828
-0.0306333
-0.0112015
-0.00426271
-0.0421754
-0.0763676
-0.0640501
-0.0454583
-0.0389825
-0.020326
-0.0151071
-0.0188963
-0.0229454
-0.00632266
0.0107363
0.0025846
-0.0824582
-0.0907685
-0.091086
-0.0840726
-0.0754051
-0.0645657
-0.0508952
-0.0400123
-0.0268844
-0.0126053
0.00208234
0.0137737
0.0218832
0.00535663
-0.0353402
-0.0609525
-0.0483808
-0.0331645
-0.0155031
-0.00819688
-0.0452527
-0.0703226
-0.0559871
-0.0149894
-0.00101354
0.00440933
-0.0223966
-0.0559725
-0.0509227
-0.0444825
-0.0425336
-0.0207053
-0.0152659
-0.0197931
-0.0237396
-0.00830601
0.00994279
0.00253885
-0.0622587
-0.0698919
-0.0708703
-0.0653561
-0.0576721
-0.0493187
-0.0389404
-0.0294129
-0.0169357
-0.000843247
0.0195019
0.0420424
0.0520936
0.0374046
-0.00446753
-0.029302
-0.0259071
-0.0183775
-0.00149533
0.010403
-0.00338713
-0.0124181
-0.0238368
-0.00949629
0.00293442
0.0073558
-0.00338073
-0.02802
-0.0316515
-0.0412071
-0.0454182
-0.0211425
-0.015673
-0.0205714
-0.0245356
-0.0104139
0.0090281
0.00246932
-0.0453751
-0.0521998
-0.0536327
-0.0494242
-0.0430996
-0.0354739
-0.0257237
-0.0161754
-0.00447903
0.00946429
0.0256625
0.0437387
0.0517478
0.0436979
0.0144321
-0.00507685
-0.00681973
-0.00149689
0.01162
0.0187666
0.0135926
0.0127201
-0.00505416
-0.0125453
0.00141143
0.0106944
0.0104855
-0.00209207
-0.00774772
-0.0336136
-0.0433101
-0.0212951
-0.0163698
-0.020944
-0.0249936
-0.0122535
0.00801916
0.00237177
-0.0317751
-0.0371406
-0.0384492
-0.0354844
-0.0302932
-0.0239352
-0.0163843
-0.00886013
0.000180513
0.0110867
0.0242594
0.0374013
0.0435103
0.0396542
0.0214932
0.00729958
0.00489616
0.00528769
0.0158375
0.0226857
0.0209334
0.0231613
0.00642142
-0.00869202
0.00204863
0.0109663
0.0178301
0.0163006
0.0122806
-0.021335
-0.0333538
-0.0201405
-0.0176817
-0.0203933
-0.0244182
-0.0132112
0.00695809
0.00223238
-0.0203814
-0.0245742
-0.0259586
-0.0240329
-0.02013
-0.0151089
-0.00927908
-0.00317064
0.00413211
0.0125328
0.0218015
0.0300622
0.0342541
0.0330159
0.0230438
0.0142552
0.0125788
0.0128057
0.019647
0.0239726
0.0202702
0.0211456
0.0137009
0.00107691
0.00647578
0.0140237
0.0181265
0.0220226
0.0213994
-0.00784068
-0.0179233
-0.0148812
-0.0156602
-0.0176091
-0.0228385
-0.0128877
0.00596158
0.00211358
-0.0112057
-0.0146593
-0.0159041
-0.014603
-0.0117095
-0.00789395
-0.00350621
0.0011143
0.00645608
0.0122403
0.0184128
0.0239381
0.0268533
0.0269925
0.0223774
0.0172275
0.0160391
0.0150324
0.0191408
0.0229272
0.0207071
0.0198737
0.0167957
0.00855256
0.0105448
0.0140422
0.017265
0.0223502
0.0221778
0.0029282
-0.00433959
-0.00507505
-0.0074942
-0.0116829
-0.0193342
-0.0104823
0.00512141
0.00199973
-0.00423787
-0.00678395
-0.00772655
-0.0069488
-0.00496758
-0.00223597
0.000914615
0.00422771
0.00799125
0.011968
0.0160976
0.0198554
0.0219745
0.0225694
0.0208694
0.0182036
0.0177314
0.017749
0.0195351
0.0219113
0.0200238
0.0185569
0.0168964
0.0127633
0.0141352
0.0152579
0.0161629
0.0200263
0.0206851
0.00980972
0.00481389
0.00389256
0.0018356
-0.00378319
-0.0127751
-0.00561689
0.00430526
0.0018823
0.00142913
-0.000501482
-0.00131604
-0.000934027
0.000370995
0.00225718
0.00445538
0.00676051
0.00929621
0.0119571
0.0146661
0.0171733
0.0187701
0.0194861
0.0191932
0.0180125
0.0178199
0.0177618
0.018674
0.0194094
0.0190006
0.0181153
0.0167401
0.0146156
0.0154641
0.0156211
0.015734
0.0186539
0.0191174
0.013057
0.00959791
0.0092441
0.0076148
0.00211108
-0.00562411
-9.48082e-05
0.00414347
0.001928
0.00585712
0.00433166
0.00362132
0.0038026
0.0046328
0.0058777
0.00733554
0.00886071
0.0105024
0.0122422
0.0140253
0.0156951
0.016894
0.0176428
0.0178753
0.0176437
0.0176407
0.0177609
0.0182624
0.0185935
0.0181959
0.0176983
0.0166045
0.0153696
0.0160905
0.0160839
0.0154668
0.0168485
0.0173192
0.0141044
0.0116686
0.0111889
0.00981669
0.00508786
-0.000571243
0.00318901
0.00423905
0.00200302
0.0092455
0.00809694
0.00752132
0.00752821
0.00799636
0.00876904
0.00969045
0.0106584
0.011682
0.012767
0.0139064
0.0150034
0.0158711
0.0165029
0.0169018
0.0170848
0.0172355
0.0173319
0.0176042
0.0177213
0.0173817
0.0171195
0.0164565
0.0155393
0.0158713
0.0159049
0.0151958
0.0155141
0.0157582
0.0140227
0.012127
0.0113598
0.0100757
0.0059997
0.00204667
0.00405592
0.00331414
0.00181241
0.0118877
0.0110138
0.0105191
0.0104113
0.0106289
0.011075
0.0116336
0.0122115
0.0128037
0.0134345
0.0141301
0.0148319
0.0154255
0.0159074
0.0162817
0.0165573
0.0167426
0.0168575
0.0170026
0.0170734
0.016817
0.0165815
0.0162047
0.0155419
0.0155325
0.0155741
0.014997
0.0146114
0.0144998
0.0135081
0.0121191
0.011013
0.009655
0.00632906
0.00334403
0.00395547
0.00295763
0.00148901
0.0139137
0.0132369
0.012814
0.0126465
0.0127003
0.0129125
0.0132069
0.0135111
0.0138216
0.0141585
0.014552
0.0149633
0.0153302
0.0156507
0.0159248
0.0161699
0.0163308
0.0164274
0.0164886
0.0165106
0.0163279
0.0160947
0.0158468
0.0153674
0.0151115
0.0149877
0.0144742
0.013916
0.0135083
0.012768
0.0116749
0.0103939
0.00897293
0.00615006
0.00391011
0.00376461
0.00259781
0.00118282
0.0154448
0.0149229
0.0145633
0.0143636
0.0143101
0.0143669
0.014484
0.0146061
0.0147259
0.0148645
0.0150483
0.0152564
0.0154438
0.0156173
0.0157731
0.0159318
0.0160258
0.0160727
0.0160794
0.0160493
0.0159039
0.0156804
0.0154521
0.0150931
0.0147712
0.0144775
0.0140577
0.0134142
0.0127805
0.0120821
0.0111683
0.00989374
0.00844803
0.00616687
0.00426665
0.00366654
0.00240198
0.000966508
0.0165991
0.0161904
0.0158799
0.0156675
0.0155506
0.0155078
0.0155051
0.015503
0.0154953
0.0155015
0.0155419
0.0156058
0.0156579
0.0157077
0.0157536
0.0158144
0.01583
0.0158149
0.0157639
0.0156855
0.0155331
0.0153104
0.015074
0.0147437
0.0143853
0.013995
0.0135497
0.012944
0.0122433
0.0114975
0.0106387
0.00940746
0.00803938
0.00617883
0.00450507
0.0036094
0.00226713
0.000827791
0.0174513
0.017126
0.0168571
0.016645
0.0164911
0.0163841
0.0163015
0.0162183
0.0161281
0.0160489
0.0159915
0.0159528
0.0159051
0.0158587
0.0158135
0.0157834
0.0157227
0.0156414
0.0155326
0.0154035
0.0152246
0.0149862
0.0147298
0.014394
0.0140248
0.0135927
0.0131126
0.0125226
0.0118131
0.0110284
0.0102073
0.00915011
0.0078087
0.0061936
0.0047025
0.00363387
0.00221659
0.00077087
0.0180692
0.0178046
0.0175681
0.0173613
0.0171876
0.0170424
0.0169088
0.0167743
0.0166301
0.0164962
0.0163726
0.0162639
0.0161448
0.0160272
0.0159104
0.0158036
0.0156785
0.0155352
0.0153729
0.0151908
0.0149765
0.014712
0.0144294
0.0140785
0.0136913
0.0132469
0.0127395
0.0121675
0.0114748
0.01067
0.00986074
0.00884547
0.00765155
0.00626577
0.00492823
0.00373398
0.00225415
0.000751036
0.0184989
0.0182771
0.0180652
0.017867
0.0176848
0.0175186
0.0173541
0.0171883
0.0170109
0.0168424
0.0166752
0.0165198
0.0163505
0.0161825
0.0160115
0.015845
0.01567
0.0154717
0.0152696
0.0150346
0.0147904
0.0144929
0.0141821
0.0138164
0.0134034
0.0129558
0.0124243
0.011854
0.0111817
0.0103954
0.00959442
0.00864823
0.00757629
0.00636957
0.00508249
0.00379038
0.00230997
0.000754654
0.0187877
0.0185952
0.0184013
0.0182109
0.0180255
0.0178465
0.0176655
0.0174804
0.0172863
0.0170944
0.0169012
0.0167125
0.0165127
0.0163106
0.0161023
0.0158927
0.0156761
0.0154398
0.0151995
0.0149292
0.0146485
0.0143288
0.013986
0.0136063
0.013175
0.0127084
0.0121737
0.011587
0.0109224
0.0101516
0.00933952
0.00839083
0.00734993
0.00619092
0.00498105
0.00368608
0.00224508
0.000744658
0.0189684
0.018793
0.0186107
0.0184259
0.0182399
0.0180544
0.0178643
0.0176694
0.0174659
0.0172608
0.0170514
0.0168417
0.016624
0.0164002
0.0161692
0.0159308
0.015686
0.0154256
0.0151569
0.0148644
0.0145558
0.0142166
0.0138526
0.0134549
0.013012
0.0125285
0.0119891
0.0113862
0.0107294
0.00997065
0.00915575
0.00824131
0.00722738
0.00613681
0.00491596
0.00363525
0.0022476
0.000756214
0.0190493
0.0188832
0.0187077
0.0185269
0.0183413
0.0181535
0.0179601
0.0177618
0.0175553
0.0173444
0.0171274
0.0169076
0.016681
0.0164475
0.0162054
0.0159526
0.0156926
0.0154182
0.0151348
0.0148295
0.0145063
0.0141556
0.0137793
0.0133714
0.0129229
0.0124291
0.0118866
0.0112807
0.0106207
0.00987021
0.00905504
0.00815203
0.00714967
0.00606757
0.00487195
0.00359518
0.00221841
0.000752183
-0.0768443
-0.0874659
-0.0972575
-0.106495
-0.115301
-0.122971
-0.13058
-0.14034
-0.0613228
-0.0691391
-0.076411
-0.0838631
-0.0909176
-0.098242
-0.104754
-0.114062
-0.0467678
-0.0523215
-0.0574267
-0.0629035
-0.0683598
-0.0741949
-0.0801406
-0.0891274
-0.0353886
-0.039374
-0.0430945
-0.0470904
-0.0515865
-0.0567162
-0.0627001
-0.0706384
-0.0255072
-0.0284732
-0.0313281
-0.0344964
-0.0382935
-0.0423976
-0.0468463
-0.0526473
-0.017496
-0.0196207
-0.0216821
-0.0239363
-0.0265536
-0.0293104
-0.0325678
-0.0374121
-0.010656
-0.0120661
-0.0133935
-0.0148573
-0.016665
-0.0188035
-0.0216284
-0.0256671
-0.00485486
-0.0057383
-0.00654096
-0.00755391
-0.00900249
-0.0108541
-0.0130409
-0.0159303
0.000101043
-0.000476625
-0.00104485
-0.00185033
-0.00291875
-0.00410827
-0.00549552
-0.00765561
0.00417174
0.00378106
0.00342948
0.00297326
0.00237119
0.00157041
0.000388765
-0.00146394
0.00764993
0.00740878
0.0072165
0.00692372
0.00643263
0.00571802
0.00476284
0.00341714
0.0105177
0.0103215
0.0101574
0.0099216
0.00955719
0.00906995
0.00840876
0.00739783
0.0128485
0.0126684
0.0125309
0.0123679
0.0121231
0.0117637
0.0112319
0.010424
0.0147389
0.014563
0.0144267
0.0142813
0.0140768
0.0137839
0.013368
0.0127616
0.0162144
0.0160342
0.0158865
0.0157443
0.0155734
0.0153472
0.0150321
0.0145746
0.0173473
0.017169
0.0170166
0.0168769
0.016726
0.0165399
0.0162908
0.0159425
0.0181981
0.0180241
0.0178704
0.0177321
0.0175935
0.0174359
0.0172381
0.0169743
0.0188246
0.0186575
0.0185075
0.0183731
0.0182442
0.0181062
0.0179435
0.0177388
0.0192738
0.0191144
0.0189693
0.0188387
0.0187167
0.0185922
0.018455
0.0182931
0.0195823
0.0194315
0.019292
0.0191653
0.0190486
0.0189337
0.0188135
0.0186801
0.0197838
0.0196431
0.0195103
0.0193883
0.0192754
0.0191671
0.0190575
0.0189422
0.0199005
0.0197705
0.0196456
0.0195289
0.0194197
0.0193156
0.0192124
0.0191072
0.0199463
0.0198258
0.0197074
0.0195941
0.0194863
0.0193832
0.019282
0.0191809
0.0747308
0.0783002
0.0815509
0.0842186
0.0855603
0.0853122
0.0832984
0.0790251
0.0715872
0.0596622
0.0414159
0.0142884
-0.0258825
-0.0822861
-0.132809
0.0533754
0.0546509
0.0543199
0.0528408
0.0501013
0.0457237
0.0392129
0.0298393
0.0165638
-0.00203596
-0.0279095
-0.0635955
-0.113116
-0.180506
-0.235212
0.0313802
0.0303961
0.0266986
0.0215659
0.0152152
0.00709987
-0.00351092
-0.0174747
-0.0358936
-0.060258
-0.092649
-0.135672
-0.192337
-0.268138
-0.321349
0.00850082
0.00510605
-0.00136458
-0.00923337
-0.0184303
-0.0296917
-0.043837
-0.0617316
-0.0844641
-0.113492
-0.151049
-0.199859
-0.262166
-0.338838
-0.389413
-0.0141957
-0.020223
-0.0288276
-0.0386833
-0.0501295
-0.0639956
-0.0810212
-0.102037
-0.128115
-0.160579
-0.201704
-0.254221
-0.31873
-0.392433
-0.438324
-0.0358879
-0.0444098
-0.0545847
-0.0659887
-0.0793056
-0.095312
-0.114563
-0.137856
-0.1662
-0.200962
-0.244067
-0.29746
-0.361006
-0.428728
-0.46833
-0.0563042
-0.0665448
-0.0778326
-0.0906477
-0.10563
-0.123318
-0.144226
-0.169023
-0.198633
-0.234274
-0.277454
-0.329381
-0.38895
-0.447644
-0.481099
-0.0753649
-0.0862884
-0.0986228
-0.112743
-0.129099
-0.14807
-0.170064
-0.195644
-0.225584
-0.260851
-0.302504
-0.350915
-0.403453
-0.450505
-0.47917
0.190278
0.205219
0.221828
0.240552
0.261482
0.284541
0.309636
0.336712
0.36569
0.396319
0.428017
0.459613
0.489109
0.512492
0.531749
0.189366
0.203693
0.219699
0.237866
0.258234
0.280639
0.304937
0.33106
0.358927
0.388273
0.418477
0.448313
0.475712
0.496708
0.513628
0.184338
0.197221
0.211972
0.229036
0.248248
0.269262
0.291838
0.315867
0.341227
0.367594
0.394265
0.419913
0.442303
0.457643
0.469146
0.175217
0.186028
0.19905
0.214495
0.231875
0.250666
0.270582
0.29148
0.313158
0.335157
0.356605
0.375995
0.390809
0.397434
0.401082
0.162008
0.17037
0.18146
0.195053
0.210148
0.226009
0.242351
0.259066
0.27591
0.29228
0.307086
0.318581
0.323894
0.319318
0.313298
0.145071
0.150626
0.15959
0.171079
0.183542
0.196068
0.208355
0.220271
0.231483
0.241244
0.248267
0.250571
0.244947
0.22753
0.209711
0.124726
0.128032
0.135104
0.14402
0.153082
0.16159
0.16933
0.176069
0.181262
0.183944
0.182614
0.175057
0.157762
0.126843
0.0965123
0.100887
0.102903
0.108834
0.115107
0.120403
0.124454
0.127239
0.128437
0.127293
0.122628
0.112735
0.0951633
0.0660649
0.0218048
-0.0200902
0.0283601
0.0328649
0.029146
0.0331059
0.0306966
0.035004
0.0332696
0.0376973
0.0371008
0.0416247
0.0424754
0.0473322
0.049919
0.0556828
0.0604121
0.0677774
0.0752826
0.085271
0.0965313
0.110628
0.126787
0.146565
0.169402
0.0284345
0.0329077
0.02924
0.0331593
0.0308117
0.0350739
0.0334256
0.0378464
0.0373127
0.0417858
0.0427749
0.0475994
0.0502937
0.0560988
0.0609281
0.0683124
0.0759955
0.0860882
0.0972684
0.111409
0.127335
0.146983
0.169263
0.0285188
0.0329248
0.0293513
0.0331827
0.0309547
0.0351089
0.0336126
0.0379267
0.0375527
0.0419084
0.0430899
0.0478233
0.0506357
0.0564113
0.0612791
0.068472
0.0762928
0.0862809
0.0972434
0.111177
0.126456
0.145499
0.166211
0.0286116
0.0329179
0.0294782
0.03318
0.0311103
0.0351143
0.0338214
0.0379801
0.0378197
0.0420184
0.0434374
0.0480538
0.0510454
0.0568705
0.0618072
0.0692165
0.0767411
0.0867711
0.0972179
0.110795
0.1248
0.14251
0.160297
0.0287122
0.0328906
0.0296136
0.033155
0.031282
0.0350949
0.0340468
0.0380058
0.0380958
0.0420951
0.0437666
0.0481899
0.051351
0.0569638
0.061964
0.0690947
0.0765308
0.0861671
0.0960439
0.108822
0.121296
0.137205
0.151152
0.028817
0.0328462
0.0297644
0.033111
0.0314805
0.0350656
0.0342831
0.0380281
0.0384141
0.0422191
0.0441727
0.0484557
0.0518698
0.0576513
0.0625418
0.0699521
0.0769603
0.0866154
0.0955559
0.107473
0.117514
0.130597
0.139247
0.0289268
0.0327862
0.0299127
0.0330559
0.0316744
0.0350193
0.0345133
0.0380174
0.0386647
0.0422647
0.0444355
0.0485143
0.0520389
0.0573725
0.0624158
0.0693643
0.0761749
0.0849068
0.0931609
0.103352
0.111432
0.12124
0.12423
0.0290406
0.0327176
0.0300605
0.0329972
0.0318856
0.0350075
0.0347647
0.0380821
0.0390512
0.0425093
0.0449493
0.0490012
0.0528078
0.0585866
0.0631988
0.0706391
0.0768742
0.0857043
0.0924334
0.101275
0.105469
0.110519
0.106116
0.0291716
0.0326143
0.0302521
0.0328812
0.0321025
0.0348736
0.0349984
0.0379646
0.0392503
0.0424308
0.0450623
0.0488097
0.0526483
0.0577153
0.0623599
0.0687649
0.074523
0.0810577
0.0867561
0.0913017
0.0932314
0.0909785
0.0815467
0.0293422
0.0324545
0.0304937
0.0327003
0.0323492
0.034658
0.0352197
0.0376046
0.0393118
0.0419707
0.0447563
0.0479798
0.0517626
0.0560199
0.0603135
0.0652518
0.0700155
0.0741824
0.0778636
0.0789068
0.0783936
0.0729919
0.0651313
0.0295472
0.0322323
0.0307695
0.0324623
0.0326292
0.0343549
0.0354412
0.0372568
0.0393232
0.0415409
0.0443828
0.0472227
0.05074
0.0541503
0.0579695
0.0615782
0.0651331
0.0674658
0.0689762
0.0680583
0.0653441
0.0596206
0.0521484
0.0297875
0.0319398
0.031082
0.0321746
0.0329013
0.0340915
0.0355629
0.0369702
0.0392008
0.0410452
0.0437988
0.0461858
0.0493793
0.0520259
0.0551995
0.0576401
0.0598413
0.0607934
0.0604871
0.0582823
0.0543603
0.0484899
0.0415751
0.0300668
0.0315707
0.0313987
0.0319415
0.033065
0.0338831
0.0355778
0.03669
0.0389164
0.0405167
0.0429589
0.0450511
0.0476959
0.0496616
0.0520555
0.0535078
0.0544367
0.054306
0.0527737
0.049816
0.0454602
0.0396835
0.0331478
0.0303827
0.0311757
0.0316263
0.031785
0.0331558
0.0337032
0.0354724
0.0363911
0.0384671
0.0398893
0.0419137
0.0437391
0.0457616
0.0470599
0.0486951
0.0493118
0.0492147
0.0482521
0.046082
0.042777
0.0384102
0.0329657
0.0268523
0.0306946
0.0308227
0.0317414
0.0316873
0.033154
0.0335446
0.0352322
0.0360634
0.0378677
0.0391373
0.0407088
0.0422249
0.0436418
0.0443104
0.045249
0.0452039
0.0443743
0.0428401
0.0404087
0.037066
0.03289
0.0279347
0.0223717
0.0309735
0.0305242
0.0317678
0.0316258
0.0330472
0.0333882
0.0348629
0.0356575
0.0371473
0.038236
0.0393757
0.0405261
0.0413995
0.0415457
0.0418644
0.0413196
0.0400571
0.0381848
0.0356873
0.0325106
0.0286765
0.0242675
0.0193382
0.031188
0.0303036
0.0316916
0.0315832
0.0328382
0.0332325
0.0343985
0.0351557
0.036328
0.0371858
0.0379402
0.0387052
0.0391114
0.0388582
0.0386691
0.0377821
0.0363032
0.034299
0.0318644
0.0289703
0.0255833
0.021759
0.0175068
0.031321
0.0301718
0.0315111
0.0315387
0.0325433
0.0329965
0.0338695
0.03454
0.0354198
0.0360171
0.0364351
0.0368365
0.0368586
0.0363224
0.0357691
0.0346734
0.0331216
0.0311512
0.028883
0.026322
0.0234193
0.020186
0.016601
0.0313588
0.0301241
0.0312436
0.0314579
0.0322012
0.0326727
0.0332926
0.0338174
0.0344335
0.0347699
0.0349028
0.0349937
0.0347198
0.0340039
0.0332214
0.0320287
0.030503
0.0286723
0.0266424
0.0244304
0.021997
0.0193252
0.0163665
0.0312953
0.0301435
0.0309229
0.0312875
0.0318328
0.0322587
0.0326761
0.0330187
0.0333903
0.0334901
0.0333932
0.0332386
0.0327606
0.0319436
0.0310448
0.0298432
0.0284091
0.0267725
0.0250151
0.0231476
0.0211402
0.0189689
0.0165731
0.0311357
0.0301944
0.0306024
0.0309903
0.0314285
0.0317719
0.032024
0.0321831
0.032325
0.0322256
0.0319539
0.0316228
0.0310171
0.0301609
0.0292322
0.028085
0.0267822
0.0253586
0.0238744
0.0223265
0.020688
0.0189373
0.0170169
0.0308968
0.0302203
0.0303294
0.0305961
0.0309584
0.031213
0.0313363
0.0313417
0.0312822
0.0310202
0.0306232
0.0301766
0.0295098
0.0286618
0.0277578
0.0267021
0.0255515
0.0243408
0.0231095
0.0218416
0.0205098
0.0190984
0.017563
0.0306011
0.0301507
0.0300919
0.0302166
0.0304452
0.0305864
0.0306132
0.0305066
0.0302943
0.0299094
0.0294263
0.0289163
0.0282409
0.0274317
0.0265784
0.0256273
0.0246336
0.0236271
0.0226248
0.0215982
0.0205192
0.0193802
0.0181542
0.0302751
0.0299863
0.0298654
0.0298506
0.0299139
0.0299352
0.0298719
0.0296833
0.0293736
0.0289138
0.0283819
0.0278479
0.0272009
0.0264488
0.0256542
0.0248018
0.023953
0.0231316
0.0223317
0.0215107
0.0206381
0.0197142
0.0187304
0.0299379
0.0297425
0.0296003
0.0294839
0.0294011
0.0293061
0.0291518
0.0288955
0.0285322
0.0280404
0.0274927
0.0269627
0.0263645
0.0256804
0.0249485
0.0241837
0.023456
0.0227873
0.0221551
0.0215057
0.0208048
0.0200555
0.0192636
0.0296026
0.0294539
0.0292926
0.0291093
0.0289207
0.0287255
0.0284852
0.0281713
0.0277803
0.027286
0.0267461
0.0262363
0.0256935
0.025082
0.0244205
0.0237374
0.0231066
0.0225518
0.022046
0.0215331
0.0209754
0.020373
0.0197381
0.0292733
0.0291398
0.0289604
0.0287358
0.0284822
0.02821
0.0278949
0.0275338
0.0271308
0.0266513
0.0261331
0.0256511
0.0251643
0.0246247
0.0240339
0.0234242
0.0228681
0.022393
0.0219749
0.0215617
0.0211172
0.0206381
0.0201351
0.0289634
0.0288343
0.028637
0.028379
0.0280841
0.0277668
0.0274004
0.0270008
0.0265903
0.0261324
0.0256427
0.0251875
0.0247518
0.0242819
0.0237612
0.0232186
0.0227205
0.0222993
0.0219381
0.0215943
0.0212349
0.0208526
0.0204531
0.028691
0.0285636
0.0283516
0.0280663
0.0277432
0.0274013
0.0270106
0.0265842
0.0261596
0.0257176
0.025258
0.0248273
0.0244265
0.0240126
0.0235605
0.0230881
0.0226452
0.022264
0.0219399
0.0216441
0.0213482
0.0210407
0.020724
0.0284766
0.0283457
0.0281274
0.0278278
0.0274817
0.0271232
0.026732
0.026299
0.0258588
0.0254272
0.0250021
0.0245966
0.0242151
0.0238368
0.0234377
0.0230196
0.0226125
0.0222479
0.0219356
0.0216623
0.0214057
0.0211503
0.0208915
0.0283615
0.0282298
0.0280033
0.0276909
0.0273278
0.026957
0.0265653
0.0261305
0.0256851
0.0252603
0.0248545
0.0244647
0.024093
0.0237327
0.0233661
0.0229872
0.0226123
0.0222677
0.0219683
0.0217098
0.0214755
0.0212502
0.0210286
0.0686655
0.0504906
0.028174
0.00699576
-0.0124791
-0.0308071
-0.0482718
-0.0638012
0.0562898
0.0393218
0.017358
-0.00173758
-0.017009
-0.0299921
-0.0418768
-0.0522289
0.0454097
0.0324202
0.0138447
-0.00271765
-0.0142396
-0.0231625
-0.0316926
-0.0397962
0.0359506
0.0257793
0.0102975
-0.00391955
-0.0131591
-0.019393
-0.0251043
-0.030489
0.0282875
0.0207361
0.00875529
-0.00260224
-0.00973319
-0.0140645
-0.0179612
-0.0218376
0.0221328
0.0163456
0.00771098
-0.000515817
-0.00596996
-0.00931895
-0.0121812
-0.0149162
0.0178185
0.0131715
0.0074143
0.00195566
-0.00204445
-0.00472035
-0.00691562
-0.00888035
0.0151846
0.0115267
0.00782464
0.00437244
0.00157348
-0.000518116
-0.00222338
-0.00365868
0.01388
0.0110665
0.00877341
0.00669231
0.00482452
0.00326031
0.00195705
0.000913625
0.0135283
0.0114017
0.0100508
0.00887321
0.00767562
0.00653732
0.00554086
0.00474857
0.0138266
0.0122408
0.0114999
0.0108995
0.0101692
0.00937262
0.00863655
0.00805373
0.0145278
0.0133675
0.0130103
0.0127641
0.0123451
0.0118035
0.0112661
0.010828
0.0154011
0.0145662
0.0144405
0.0144127
0.0142114
0.0138608
0.0134656
0.0131153
0.0163002
0.0157066
0.0157135
0.015815
0.015764
0.0155522
0.0152623
0.0149767
0.0171715
0.0167516
0.0168262
0.0169823
0.0170092
0.016885
0.0166702
0.016433
0.0179669
0.0176699
0.0177698
0.017934
0.0179902
0.0179144
0.0177492
0.0175482
0.0186679
0.018453
0.0185504
0.0186972
0.0187547
0.0186997
0.0185623
0.0183847
0.0192701
0.0191049
0.0191787
0.0192916
0.0193343
0.0192843
0.0191617
0.0189994
0.019767
0.0196303
0.0196683
0.0197374
0.0197558
0.019702
0.0195879
0.0194375
0.0201584
0.0200343
0.0200319
0.0200542
0.0200441
0.0199822
0.0198739
0.0197346
0.0204821
0.0203563
0.0203063
0.0202772
0.0202332
0.0201586
0.0200529
0.019924
0.0206887
0.0205656
0.0204854
0.0204189
0.0203462
0.0202577
0.0201511
0.0200299
0.0208454
0.0207094
0.0205912
0.0204858
0.0203859
0.0202851
0.0201785
0.0200651
-0.584577
-0.597707
-0.61653
-0.640898
-0.671195
-0.705807
-0.737972
-0.761564
-0.579983
-0.592458
-0.609871
-0.630952
-0.65545
-0.683143
-0.710113
-0.729035
-0.572597
-0.58528
-0.600868
-0.618797
-0.638169
-0.655891
-0.668009
-0.669867
-0.5657
-0.576905
-0.588802
-0.599868
-0.608999
-0.613846
-0.611858
-0.600595
-0.561127
-0.56721
-0.571264
-0.572335
-0.570436
-0.564772
-0.553627
-0.534845
-0.558193
-0.554751
-0.548335
-0.539572
-0.529186
-0.516584
-0.499915
-0.476898
-0.553759
-0.538295
-0.521542
-0.505058
-0.488947
-0.472031
-0.452079
-0.426821
-0.544185
-0.516988
-0.492207
-0.470533
-0.450872
-0.431425
-0.409638
-0.383349
-0.526723
-0.490742
-0.461182
-0.436565
-0.415064
-0.394307
-0.371754
-0.345284
-0.500632
-0.460344
-0.428942
-0.403319
-0.381245
-0.360183
-0.337642
-0.311681
-0.46736
-0.42677
-0.395949
-0.37075
-0.349202
-0.328571
-0.306689
-0.281747
-0.428833
-0.391238
-0.362479
-0.33901
-0.318695
-0.299143
-0.278427
-0.254923
-0.387856
-0.35424
-0.32904
-0.308135
-0.2896
-0.271686
-0.252512
-0.230821
-0.342565
-0.316405
-0.295846
-0.278313
-0.262087
-0.245947
-0.228656
-0.208921
-0.295887
-0.280445
-0.262994
-0.25025
-0.235465
-0.221404
-0.205916
-0.188742
-0.515941
-0.546725
-0.568048
-0.579117
-0.581899
-0.580118
-0.577688
-0.578161
-0.516824
-0.546037
-0.565045
-0.573668
-0.574765
-0.572686
-0.571136
-0.572927
-0.52193
-0.552082
-0.570055