/*--------------------------------*- C++ -*----------------------------------*\
| =========                 |                                                 |
| \\      /  F ield         | OpenFOAM: The Open Source CFD Toolbox           |
|  \\    /   O peration     | Version:  2512                                  |
|   \\  /    A nd           | Website:  www.openfoam.com                      |
|    \\/     M anipulation  |                                                 |
\*---------------------------------------------------------------------------*/
FoamFile
{
    version     2.0;
    format      ascii;
    arch        "LSB;label=32;scalar=64";
    class       surfaceScalarField;
    location    "141.95";
    object      phi;
}
// * * * * * * * * * * * * * * * * * * * * * * * * * * * * * * * * * * * * * //

dimensions      [0 3 -1 0 0 0 0];

oriented        oriented;

internalField   nonuniform List<scalar> 
26232
(
0.000231026
0.000985626
-0.00121665
0.00115048
0.00147243
-0.00239189
0.00291289
0.00034094
-0.00210335
0.00574216
-0.00253979
-0.000289474
0.00995237
-0.0072768
0.00306659
0.0159036
-0.0139589
0.00800769
0.0238543
-0.0225477
0.014597
0.0337855
-0.0327524
0.0228212
0.0452924
-0.043989
0.0324821
0.0576146
-0.0554662
0.043144
0.0698008
-0.0663568
0.0541706
0.0809346
-0.0759725
0.0648387
0.0903384
-0.0838845
0.0744807
0.0976988
-0.0899673
0.0826069
0.103087
-0.0943654
0.0889775
0.106874
-0.0973997
0.0936126
0.109594
-0.0994543
0.0967342
0.111788
-0.100881
0.0986869
0.113911
-0.101933
0.0998103
0.116269
-0.1028
0.100441
0.119025
-0.103499
0.100743
0.122283
-0.104203
0.100945
0.125669
-0.104611
0.101224
-0.104935
0.101548
0.129057
0.000157653
0.000827972
0.00108102
0.000549058
0.00311925
-0.00169729
0.00664986
-0.0060704
0.0120871
-0.012714
0.0197316
-0.0216035
0.0295544
-0.0323704
0.0410593
-0.0442573
0.0533421
-0.0562719
0.0653225
-0.0674467
0.0760297
-0.077064
0.084827
-0.0847698
0.0915138
-0.0905712
0.0962926
-0.0947461
0.099633
-0.0977058
0.102096
-0.0998627
0.104185
-0.101544
0.106263
-0.102959
0.108556
-0.104226
0.111159
-0.105402
0.114159
-0.106499
0.117569
-0.107613
0.121572
-0.108614
-0.10995
0.126587
0.000179027
0.000648946
0.00131169
-0.000583605
0.00391342
-0.00429901
0.008489
-0.010646
0.0154263
-0.0196513
0.0247427
-0.0309198
0.0358943
-0.043522
0.0478517
-0.0562147
0.0594139
-0.0678341
0.0695697
-0.0776024
0.0777392
-0.0852335
0.0838373
-0.0908679
0.088176
-0.0949099
0.0912742
-0.0978444
0.0936647
-0.100096
0.0957673
-0.101965
0.0978495
-0.103626
0.100058
-0.105168
0.102467
-0.106635
0.105127
-0.108062
0.108092
-0.109465
0.111388
-0.110908
0.115093
-0.112319
-0.113918
0.119061
0.000294349
0.000354597
0.0018438
-0.00213306
0.00528028
-0.0077355
0.0111296
-0.0164953
0.019548
-0.0280697
0.0300379
-0.0414098
0.0414902
-0.0549743
0.0525844
-0.0673089
0.0622499
-0.0774997
0.0699355
-0.085288
0.0756296
-0.0909276
0.079699
-0.0949373
0.0826594
-0.0978704
0.0849874
-0.100172
0.0870273
-0.102136
0.0889891
-0.103927
0.0909936
-0.10563
0.0931169
-0.107291
0.0954216
-0.108939
0.0979617
-0.110602
0.100786
-0.112289
0.103936
-0.114059
0.107448
-0.11583
-0.117852
0.111382
0.000481481
-0.000126884
0.00261101
-0.00426258
0.00705944
-0.0121839
0.0142033
-0.0236391
0.0237275
-0.037594
0.034529
-0.0522112
0.0451649
-0.0656102
0.0544533
-0.0765973
0.0618069
-0.0848533
0.0672282
-0.0907092
0.0710955
-0.094795
0.073908
-0.0977498
0.0761054
-0.100068
0.0779988
-0.102066
0.0797825
-0.10392
0.0815752
-0.10572
0.0834548
-0.10751
0.0854765
-0.109313
0.0876822
-0.111145
0.090097
-0.113017
0.0927508
-0.114943
0.0956335
-0.116941
0.0987747
-0.118971
-0.121203
0.102125
0.000717423
-0.000844307
0.00353195
-0.00707711
0.00903994
-0.0176919
0.0172482
-0.0318473
0.027212
-0.0475577
0.037393
-0.0623922
0.0464293
-0.0746465
0.0536092
-0.0837772
0.0588828
-0.0901269
0.0626111
-0.0944375
0.0652828
-0.0974666
0.0673288
-0.0997958
0.0690557
-0.101795
0.0706556
-0.103666
0.072242
-0.105506
0.0738809
-0.107359
0.0756122
-0.109241
0.0774627
-0.111163
0.0794521
-0.113134
0.0816016
-0.115166
0.0839286
-0.11727
0.0864443
-0.119457
0.0891912
-0.121718
-0.12415
0.0921385
0.000988707
-0.00183301
0.00453157
-0.01062
0.0109942
-0.0241545
0.0198053
-0.0406585
0.0294464
-0.0571988
0.0383192
-0.071265
0.045476
-0.0818033
0.050731
-0.0890322
0.0543938
-0.0937897
0.0569476
-0.0969913
0.0588353
-0.0993543
0.0603757
-0.101336
0.0617656
-0.103185
0.0631143
-0.105014
0.0644795
-0.106871
0.0658941
-0.108773
0.067382
-0.110729
0.0689646
-0.112746
0.0706638
-0.114834
0.0724983
-0.117001
0.0744827
-0.119254
0.076623
-0.121597
0.0789334
-0.124028
-0.126598
0.0813811
0.00128314
-0.00311615
0.00552854
-0.0148654
0.0126824
-0.0313084
0.0215106
-0.0494867
0.030205
-0.0658932
0.0374584
-0.0785184
0.0428322
-0.0871771
0.0465269
-0.0927269
0.0490109
-0.0962738
0.0507518
-0.0987321
0.0520958
-0.100698
0.0532555
-0.102496
0.0543452
-0.104274
0.0554229
-0.106092
0.0565207
-0.107969
0.0576619
-0.109915
0.058866
-0.111933
0.0601506
-0.114031
0.06153
-0.116213
0.0630146
-0.118485
0.0646101
-0.12085
0.0663187
-0.123306
0.0681516
-0.125861
-0.128526
0.0700796
0.00158353
-0.00469968
0.00642562
-0.0197075
0.0138865
-0.0387693
0.0221823
-0.0577825
0.0295688
-0.0732797
0.0351951
-0.0841447
0.0390476
-0.0910297
0.0415419
-0.0952212
0.0431711
-0.097903
0.0443243
-0.0998852
0.0452454
-0.101619
0.0460652
-0.103316
0.0468482
-0.105057
0.0476278
-0.106871
0.0484248
-0.108766
0.0492551
-0.110745
0.0501323
-0.11281
0.0510684
-0.114967
0.0520743
-0.117219
0.0531586
-0.11957
0.0543269
-0.122018
0.0555855
-0.124564
0.0569354
-0.127211
-0.129949
0.0583592
0.00186537
-0.00656506
0.0071191
-0.0249612
0.014463
-0.0461132
0.0218317
-0.0651512
0.0277931
-0.0792411
0.0319469
-0.0882985
0.0345663
-0.093649
0.0361482
-0.0968032
0.0371353
-0.0988901
0.0378212
-0.100571
0.0383666
-0.102165
0.0388495
-0.103799
0.0393067
-0.105515
0.0397582
-0.107323
0.0402181
-0.109226
0.0406985
-0.111225
0.0412113
-0.113323
0.0417675
-0.115523
0.0423771
-0.117828
0.0430466
-0.120239
0.0437805
-0.122752
0.0445814
-0.125365
0.0454491
-0.128079
-0.130883
0.0463822
0.00210185
-0.00866691
0.00752556
-0.0303849
0.0143777
-0.0529654
0.0206047
-0.0713782
0.025184
-0.0838204
0.0280765
-0.091191
0.0297142
-0.0952867
0.0305881
-0.097677
0.0310589
-0.099361
0.0313352
-0.100847
0.0315184
-0.102348
0.0316539
-0.103934
0.0317635
-0.105624
0.031861
-0.10742
0.0319573
-0.109323
0.032063
-0.111331
0.0321874
-0.113447
0.0323392
-0.115675
0.0325258
-0.118015
0.0327524
-0.120466
0.0330237
-0.123023
0.0333432
-0.125685
0.0337102
-0.128446
-0.1313
0.034128
0.00227291
-0.0109398
0.00760934
-0.0357213
0.0136993
-0.0590553
0.0187146
-0.0763936
0.0220353
-0.0871411
0.0238738
-0.0930295
0.0247225
-0.0961355
0.0250183
-0.0979728
0.0250389
-0.0993815
0.0249257
-0.100734
0.0247411
-0.102163
0.0245121
-0.103705
0.0242529
-0.105365
0.0239736
-0.107141
0.0236829
-0.109032
0.0233889
-0.111037
0.0230991
-0.113158
0.0228208
-0.115396
0.0225603
-0.117755
0.0223234
-0.120229
0.0221166
-0.122817
0.0219451
-0.125513
0.0218095
-0.12831
0.0217192
-0.13121
-0.000839538
0.00252155
-0.00168201
-0.00265227
0.00272536
-0.00091263
-0.00512989
0.000978769
0.00149885
-0.00811368
-0.00127642
0.00426021
-0.011495
-0.00360255
0.00698389
-0.0151941
-0.00610081
0.00979993
-0.0191514
-0.00899256
0.0129498
-0.023313
-0.0124187
0.0165803
-0.027612
-0.0164308
0.0207299
-0.0319566
-0.0210304
0.0253749
-0.0362249
-0.0261855
0.0304539
-0.0402644
-0.0318271
0.0358666
-0.0438919
-0.0378405
0.0414679
-0.046895
-0.0440598
0.0470629
-0.0490367
-0.0502653
0.052407
-0.0500636
-0.0561842
0.0572111
-0.0497187
-0.061497
0.061152
-0.0477597
-0.065849
0.06389
-0.0439843
-0.0688699
0.0650945
-0.0382581
-0.0702036
0.0644774
-0.0305226
-0.0695512
0.0618157
-0.0207991
-0.066709
0.0569856
-0.00922858
-0.0615355
0.049965
-0.053948
0.00388243
0.040837
-0.000838488
0.00336004
-0.00271718
0.00460405
-0.005297
0.00355859
-0.00837214
0.00179872
-0.0118339
-0.000140761
-0.0156246
-0.0023101
-0.0197165
-0.00490068
-0.0240826
-0.00805259
-0.0286821
-0.0118314
-0.0334529
-0.0162596
-0.0383102
-0.0213282
-0.043146
-0.0269913
-0.0478281
-0.0331583
-0.0521989
-0.039689
-0.0560733
-0.0463909
-0.0592364
-0.0530211
-0.0614442
-0.0592892
-0.0624323
-0.0648609
-0.0619362
-0.0693661
-0.0597199
-0.0724198
-0.055608
-0.0736631
-0.0495151
-0.0728019
-0.0414781
-0.0695725
-0.0638249
-0.0316013
-0.000702394
0.00406243
-0.00239811
0.00629977
-0.00477687
0.00593735
-0.00762197
0.00464382
-0.0108002
0.00303746
-0.0142433
0.00113298
-0.0179728
-0.00117113
-0.021961
-0.00406441
-0.0261839
-0.00760854
-0.0306012
-0.0118422
-0.0351594
-0.0167701
-0.0397922
-0.0223584
-0.0444237
-0.0285268
-0.0489689
-0.0351438
-0.0533322
-0.0420276
-0.0574006
-0.0489527
-0.0610314
-0.0556584
-0.0640365
-0.0618558
-0.0661698
-0.0672328
-0.0671448
-0.0714448
-0.0666796
-0.0741284
-0.0645475
-0.074934
-0.0605452
-0.0735747
-0.0699599
-0.0544102
-0.000455488
0.00451792
-0.00175244
0.00759672
-0.00366826
0.00785317
-0.00598371
0.00695927
-0.00855875
0.0056125
-0.0113447
0.00391894
-0.0142734
0.00175756
-0.0173738
-0.000964034
-0.0206169
-0.00436537
-0.0239599
-0.0084993
-0.0273543
-0.0133757
-0.0307469
-0.0189658
-0.0340864
-0.0251873
-0.037333
-0.0318972
-0.0404674
-0.0388932
-0.0434931
-0.0459269
-0.0464322
-0.0527193
-0.0492981
-0.0589899
-0.0520407
-0.0644902
-0.0545071
-0.0689784
-0.0564322
-0.0722032
-0.0574839
-0.0738823
-0.0572019
-0.0738567
-0.0722631
-0.0548988
-0.000145507
0.00466342
-0.0008959
0.00834711
-0.0021606
0.00911787
-0.00374713
0.0085458
-0.00549922
0.00736459
-0.00733684
0.00575656
-0.00923148
0.0036522
-0.0111223
0.000926751
-0.0130152
-0.00247247
-0.0148532
-0.00666123
-0.0165787
-0.0116502
-0.0181246
-0.0174199
-0.0194225
-0.0238895
-0.0204172
-0.0309025
-0.0210892
-0.0382212
-0.021463
-0.045553
-0.02163
-0.0525523
-0.0217702
-0.0588496
-0.0221104
-0.0641501
-0.0228247
-0.0682641
-0.0239952
-0.0710327
-0.0253341
-0.0725434
-0.0268154
-0.0723755
-0.071446
-0.0276324
0.000171186
0.00449224
3.46185e-05
0.00848368
-0.000485852
0.00963834
-0.0012332
0.00929315
-0.0020463
0.00817769
-0.00282019
0.00653045
-0.00349942
0.00433143
-0.00405317
0.0014805
-0.00441631
-0.00210933
-0.00454841
-0.00652913
-0.00438635
-0.0118122
-0.00385061
-0.0179557
-0.00285845
-0.0248816
-0.0013365
-0.0324245
0.000767356
-0.0403251
0.00342878
-0.0482145
0.00654009
-0.0556637
0.00995074
-0.0622602
0.0134452
-0.0676445
0.0167063
-0.0715252
0.0194792
-0.0738056
0.0213503
-0.0744145
0.0228382
-0.0738634
-0.0711871
0.0225792
0.000435775
0.00405646
0.000872045
0.00804741
0.00110425
0.00940613
0.00121165
0.00918576
0.00134814
0.00804119
0.00163881
0.00623978
0.00216626
0.00380399
0.00298282
0.000663941
0.00416889
-0.0032954
0.00577795
-0.00813819
0.00789342
-0.0139277
0.010596
-0.0206583
0.0139583
-0.0282439
0.0180208
-0.036487
0.0227608
-0.045065
0.0280948
-0.0535485
0.0338873
-0.0614562
0.0399584
-0.0683313
0.0461412
-0.0738273
0.0523125
-0.0776965
0.0583665
-0.0798596
0.0643865
-0.0804345
0.069815
-0.0792919
-0.077204
0.0758318
0.000612419
0.00344404
0.00151308
0.00714675
0.00239784
0.00852137
0.00327961
0.00830399
0.00428767
0.00703313
0.00555784
0.0049696
0.00719484
0.00216699
0.00929812
-0.00143934
0.0119519
-0.0059492
0.0152554
-0.0114416
0.0193076
-0.0179799
0.0241957
-0.0255464
0.0299575
-0.0340057
0.0365474
-0.0430768
0.0438186
-0.0523362
0.0515372
-0.061267
0.0594234
-0.0693424
0.0672017
-0.0761096
0.0746727
-0.0812983
0.0817189
-0.0847427
0.0884234
-0.0865641
0.0949151
-0.0869262
0.101546
-0.0859224
-0.0845003
0.108842
0.000680728
0.00276332
0.00187185
0.00595563
0.00323697
0.00715625
0.00473575
0.00680521
0.00646746
0.00530142
0.00856976
0.00286731
0.0111798
-0.000443077
0.0144584
-0.00471795
0.0185257
-0.0100164
0.0235275
-0.0164434
0.029575
-0.0240275
0.0367035
-0.0326749
0.0448244
-0.0421267
0.0537033
-0.0519557
0.062981
-0.0616139
0.072238
-0.070524
0.0810747
-0.0781791
0.0891995
-0.0842344
0.0964617
-0.0885606
0.102877
-0.0911581
0.108651
-0.0923377
0.113899
-0.092174
0.119235
-0.0912585
-0.0895695
0.124304
0.00064465
0.00211867
0.00193265
0.00466763
0.00356768
0.00552121
0.0054905
0.00488239
0.0077868
0.00300511
0.0105878
6.63104e-05
0.0141461
-0.00400142
0.0186154
-0.00918723
0.0242111
-0.0156121
0.0310843
-0.0233166
0.0392689
-0.0322121
0.0486203
-0.0420263
0.0587933
-0.0522997
0.0692813
-0.0624437
0.0795075
-0.0718401
0.0889413
-0.0799578
0.0972001
-0.0864379
0.104121
-0.0911554
0.109743
-0.0941828
0.114326
-0.095741
0.118202
-0.0962137
0.121755
-0.0957266
0.125488
-0.0949913
-0.0935707
0.129489
0.000528321
0.00159035
0.00174615
0.0034498
0.00346113
0.00380623
0.00564579
0.00269774
0.0083973
0.000253601
0.0119706
-0.003507
0.016569
-0.00859986
0.0224827
-0.0151009
0.0299037
-0.0230331
0.0388583
-0.0322712
0.0491295
-0.0424833
0.0602442
-0.0531411
0.071542
-0.0635974
0.0823041
-0.0732059
0.0919032
-0.0814391
0.0999255
-0.0879801
0.106237
-0.0927497
0.110979
-0.0958966
0.114486
-0.0976905
0.117244
-0.098499
0.119673
-0.0986428
0.12227
-0.0983232
0.125242
-0.0979636
-0.0969316
0.128603
0.000373694
0.00143161
0.00313449
0.00554275
0.00886294
0.0133636
0.0193608
0.0270811
0.0365301
0.0474029
0.0590902
0.0707878
0.0816712
0.0910722
0.0986106
0.104243
0.108227
0.111018
0.113138
0.11508
0.11718
0.119802
0.123062
0.127678
0.0235576
-0.058358
0.0386828
0.0417127
-0.0318234
0.0136684
0.0588008
-0.00272776
-0.0143604
0.073491
0.0324589
-0.0471491
0.0871423
0.070391
-0.0840423
0.0997324
0.107847
-0.120438
0.110609
0.138281
-0.149158
0.118657
0.15736
-0.165409
0.123278
0.166504
-0.171124
0.125568
0.168987
-0.171277
0.126793
0.166783
-0.168008
0.126223
0.165281
-0.164711
0.122959
0.171771
-0.168508
0.118887
0.183693
-0.179621
0.118008
0.183888
-0.183009
0.122123
0.15382
-0.157934
0.129762
0.089444
-0.0970836
0.139089
0.00197015
-0.0112972
0.148443
-0.0863372
0.0769831
0.156465
-0.153438
0.145416
0.161425
-0.18957
0.18461
0.1628
-0.203515
0.202141
0.162526
-0.206046
0.20632
0.161492
-0.201972
0.203005
0.157907
-0.202318
0.205904
0.150626
-0.218285
0.225566
0.140979
-0.238379
0.248026
0.131196
-0.230465
0.240249
0.123565
-0.172663
0.180295
0.121141
-0.0721674
0.0745906
0.124919
0.041024
-0.0448017
0.133119
0.134621
-0.142822
0.142248
0.19494
-0.204069
0.148356
0.22989
-0.235998
0.148114
0.255749
-0.255506
0.141043
0.280615
-0.273545
0.130249
0.290363
-0.279569
0.120273
0.253926
-0.24395
0.115389
0.157469
-0.152585
0.117809
0.0181605
-0.0205802
0.125938
-0.109926
0.101797
0.132254
-0.19414
0.187824
0.130942
-0.245051
0.246363
0.124205
-0.279497
0.286234
0.118406
-0.28569
0.291488
0.116879
-0.223071
0.224598
0.119691
-0.113773
0.110962
0.122367
0.0341202
-0.0367962
0.122582
0.175667
-0.175883
0.120472
0.281038
-0.278928
0.118866
0.331055
-0.329449
0.11793
0.24594
-0.245004
0.117234
0.106656
-0.105959
0.113224
-0.102513
0.106524
0.110453
-0.298529
0.301299
0.108306
-0.313586
0.315733
0.105804
-0.272252
0.274754
0.0999345
0.011208
-0.00533872
0.0968929
0.27727
-0.274228
0.135073
-0.13154
-0.0135734
-0.0763859
0.00624388
-0.0516407
0.0261375
-0.0226213
0.0455051
0.0130912
0.0643056
0.0515905
0.0823546
0.0897984
0.0987017
0.121934
0.111758
0.144304
0.120973
0.157289
0.127433
0.162527
0.131919
0.162297
0.133861
0.163339
0.133406
0.172226
0.133057
0.184042
0.135675
0.18127
0.141126
0.148369
0.147608
0.0829618
0.154007
-0.00442931
0.159565
-0.0918947
0.163423
-0.157296
0.164745
-0.190892
0.163078
-0.201848
0.160096
-0.203064
0.156956
-0.198832
0.151562
-0.196924
0.142217
-0.20894
0.130787
-0.226948
0.12061
-0.220288
0.114099
-0.166153
0.1136
-0.0716681
0.120221
0.0344034
0.131323
0.123519
0.143098
0.183165
0.151444
0.221544
0.153156
0.254037
0.147874
0.285897
0.1383
0.299937
0.128479
0.263747
0.122076
0.163872
0.121476
0.0187608
0.127006
-0.115457
0.132403
-0.199536
0.13065
-0.243299
0.123241
-0.272087
0.117345
-0.279794
0.116485
-0.222211
0.119629
-0.116917
0.122864
0.0308852
0.123642
0.17489
0.122385
0.282294
0.120978
0.332462
0.119678
0.24724
0.118574
0.107759
0.113373
-0.0973121
0.109807
-0.294962
0.107248
-0.311028
0.105221
-0.270224
0.101553
0.0148764
0.0982127
0.28061
0.139713
-0.0406839
-0.0901121
-0.0226599
-0.0696648
-0.00369931
-0.0415819
0.0186956
-0.00930367
0.0410814
0.0292047
0.0637004
0.0671795
0.0848657
0.100769
0.102851
0.126319
0.117181
0.142959
0.128354
0.151353
0.136469
0.154182
0.141223
0.158585
0.143764
0.169685
0.14699
0.180816
0.152701
0.175558
0.159148
0.141923
0.164028
0.0780817
0.167528
-0.00792952
0.169658
-0.0940253
0.169667
-0.157304
0.167499
-0.188724
0.163132
-0.197481
0.157744
-0.197677
0.152745
-0.193833
0.146171
-0.190351
0.135458
-0.198226
0.122398
-0.213888
0.111573
-0.209464
0.106058
-0.160638
0.107474
-0.0730833
0.116329
0.0255478
0.129911
0.109938
0.144214
0.168861
0.154918
0.210841
0.15895
0.250005
0.155914
0.288933
0.147902
0.307949
0.138422
0.273227
0.130511
0.171782
0.126585
0.022687
0.128914
-0.117785
0.13309
-0.203712
0.131056
-0.241265
0.12293
-0.263961
0.116556
-0.27342
0.116145
-0.2218
0.119763
-0.120536
0.12378
0.0268681
0.125248
0.173423
0.124781
0.282761
0.123489
0.333754
0.121824
0.248904
0.120413
0.109171
0.114214
-0.0911131
0.109779
-0.290528
0.106797
-0.308046
0.105229
-0.268657
0.103674
0.0164323
0.100182
0.284102
0.14538
-0.0503828
-0.094628
-0.0388599
-0.0811877
-0.0222492
-0.0581927
-0.00205203
-0.0295008
0.0225181
0.00463456
0.0476127
0.0420849
0.072132
0.0762492
0.0942649
0.104186
0.113175
0.124049
0.128463
0.136065
0.139596
0.14305
0.146746
0.151434
0.152024
0.164407
0.158572
0.174267
0.16697
0.167161
0.174221
0.134671
0.178309
0.0739936
0.179728
-0.00934867
0.178873
-0.0931697
0.175271
-0.153703
0.169778
-0.183231
0.162992
-0.190695
0.15558
-0.190265
0.148877
-0.187131
0.141435
-0.182908
0.13014
-0.186932
0.11604
-0.199788
0.104457
-0.197881
0.0993984
-0.155579
0.102161
-0.0758463
0.112804
0.0149056
0.128465
0.0942762
0.145101
0.152225
0.158426
0.197516
0.165291
0.243141
0.164805
0.289419
0.158504
0.31425
0.149463
0.282267
0.140306
0.180939
0.133081
0.0299124
0.131753
-0.116457
0.134255
-0.206215
0.13203
-0.23904
0.123255
-0.255185
0.116101
-0.266267
0.115888
-0.221587
0.120064
-0.124711
0.125026
0.0219059
0.127317
0.171131
0.127584
0.282494
0.126334
0.335004
0.124295
0.250943
0.12271
0.110756
0.115709
-0.0841113
0.11038
-0.285199
0.106952
-0.304617
0.105776
-0.267481
0.106289
0.0159197
0.102775
0.287615
0.151979
-0.0360607
-0.0861997
-0.0367368
-0.0805117
-0.0281753
-0.0667542
-0.0124601
-0.0452159
0.00919587
-0.0170215
0.0349183
0.0163625
0.0614907
0.0496768
0.0868025
0.078874
0.109132
0.101719
0.127278
0.11792
0.140446
0.129881
0.149388
0.142492
0.157036
0.15676
0.166462
0.164841
0.176963
0.15666
0.184957
0.126678
0.188957
0.069993
0.18945
-0.00984171
0.186362
-0.0900814
0.179714
-0.147055
0.171272
-0.174788
0.162417
-0.18184
0.153455
-0.181303
0.145442
-0.179118
0.137499
-0.174965
0.126241
-0.175675
0.111688
-0.185234
0.0993598
-0.185553
0.0943274
-0.150547
0.0978874
-0.0794063
0.109579
0.00321379
0.126651
0.0772047
0.14528
0.133595
0.161315
0.181481
0.171376
0.23308
0.174077
0.286718
0.170062
0.318266
0.161497
0.290832
0.151119
0.191317
0.140752
0.0402791
0.135484
-0.111189
0.135814
-0.206544
0.133426
-0.236652
0.124147
-0.245907
0.115962
-0.258081
0.115677
-0.221303
0.120457
-0.129491
0.126524
0.015839
0.129788
0.167867
0.130748
0.281534
0.129457
0.336295
0.12701
0.253391
0.125425
0.112341
0.117815
-0.0765012
0.1116
-0.278984
0.107701
-0.300719
0.106803
-0.266583
0.109371
0.0133519
0.10596
0.291025
0.159399
0.00467581
-0.0682963
-0.00930526
-0.0665306
-0.0145892
-0.0614703
-0.0101104
-0.0496947
0.00332852
-0.0304603
0.0250201
-0.00532906
0.0504915
0.0242054
0.0766381
0.0527274
0.100679
0.077678
0.120724
0.0978754
0.135766
0.11484
0.146846
0.131411
0.157238
0.146368
0.169534
0.152545
0.182074
0.14412
0.191315
0.117437
0.196118
0.0651904
0.196454
-0.0101778
0.19186
-0.0854881
0.182872
-0.138066
0.17199
-0.163907
0.161419
-0.171269
0.151333
-0.171217
0.142252
-0.170037
0.134021
-0.166734
0.123426
-0.16508
0.109182
-0.170991
0.0962803
-0.172651
0.0908434
-0.14511
0.094554
-0.0831168
0.106452
-0.00868401
0.124175
0.0594812
0.144321
0.11345
0.163044
0.162758
0.176627
0.219497
0.182756
0.28059
0.181186
0.319835
0.173405
0.298613
0.162145
0.202577
0.149181
0.0532429
0.139985
-0.101993
0.137653
-0.204212
0.135054
-0.234053
0.125508
-0.23636
0.116113
-0.248687
0.115458
-0.220647
0.120849
-0.134881
0.128161
0.00852714
0.132527
0.1635
0.134176
0.279885
0.132786
0.337686
0.129897
0.256279
0.128483
0.113754
0.120477
-0.0684952
0.113403
-0.27191
0.109022
-0.296338
0.108254
-0.265814
0.112844
0.00876173
0.109686
0.294183
0.167503
0.0615657
-0.0540302
0.0441821
-0.049147
0.0274823
-0.0447705
0.0169037
-0.0391161
0.0161642
-0.0297209
0.0254995
-0.0146644
0.0432194
0.00648555
0.065309
0.0306378
0.0881888
0.0547983
0.108895
0.0771693
0.125763
0.097972
0.139607
0.117567
0.15341
0.132565
0.168815
0.13714
0.183477
0.129458
0.194386
0.106528
0.200649
0.058927
0.201304
-0.010833
0.195507
-0.0796914
0.184621
-0.12718
0.171825
-0.151111
0.159869
-0.159313
0.149088
-0.160436
0.139344
-0.160293
0.130836
-0.158225
0.121185
-0.155429
0.108024
-0.15783
0.094986
-0.159613
0.0888224
-0.138947
0.0921213
-0.0864156
0.103361
-0.0199235
0.120929
0.0419126
0.141901
0.0924786
0.163035
0.141623
0.180326
0.202206
0.190464
0.270452
0.192077
0.318222
0.185712
0.304979
0.17355
0.214738
0.15807
0.0687231
0.145121
-0.0890436
0.139685
-0.198776
0.136727
-0.231095
0.12722
-0.226854
0.11654
-0.238006
0.115161
-0.219268
0.121117
-0.140838
0.129818
-0.000174286
0.135461
0.157857
0.137822
0.277525
0.136263
0.339244
0.132892
0.259649
0.131806
0.114841
0.123632
-0.0603205
0.115741
-0.264019
0.110884
-0.291481
0.110075
-0.265006
0.116621
0.00221588
0.113899
0.296906
0.176132
0.10048
-0.0456678
0.0910809
-0.0397482
0.0790903
-0.0327799
0.0655557
-0.0255814
0.0539677
-0.0181329
0.0484469
-0.00914364
0.0518474
0.00308508
0.0633831
0.0191021
0.0802497
0.0379317
0.098924
0.058495
0.116578
0.0803185
0.132901
0.101243
0.149716
0.115751
0.167365
0.11949
0.183352
0.113471
0.195688
0.094192
0.203388
0.0512274
0.204278
-0.0117231
0.197295
-0.0727081
0.184833
-0.114717
0.170693
-0.136971
0.157739
-0.146359
0.146516
-0.149213
0.136486
-0.150263
0.127796
-0.149535
0.119067
-0.1467
0.107592
-0.146355
0.0951444
-0.147166
0.0881787
-0.131981
0.0904267
-0.0886636
0.100396
-0.029893
0.116869
0.0254402
0.137887
0.0714605
0.161062
0.118448
0.18194
0.181327
0.195953
0.256439
0.200587
0.313587
0.195949
0.309617
0.184218
0.226469
0.167055
0.0858854
0.150708
-0.0726967
0.141817
-0.189884
0.138253
-0.227532
0.129143
-0.217744
0.117238
-0.226101
0.114742
-0.216773
0.121133
-0.147228
0.131349
-0.0103905
0.138423
0.150784
0.141568
0.274379
0.139853
0.34096
0.135954
0.263548
0.135338
0.115457
0.127213
-0.052195
0.11856
-0.255367
0.113246
-0.286166
0.112217
-0.263977
0.120602
-0.00616853
0.118521
0.298986
0.185104
0.117414
-0.0387776
0.112218
-0.0345525
0.107684
-0.028246
0.102361
-0.0202586
0.0956469
-0.0114186
0.0889371
-0.00243379
0.0833363
0.00868581
0.0822553
0.0201832
0.0880754
0.0321116
0.0998028
0.0467675
0.114843
0.0652785
0.131546
0.08454
0.14955
0.0977471
0.167631
0.101409
0.183721
0.0973806
0.196792
0.0811215
0.205112
0.0429071
0.20554
-0.0121508
0.197223
-0.0643914
0.183482
-0.100976
0.168513
-0.122003
0.154986
-0.132832
0.143541
-0.137768
0.133529
-0.140251
0.124795
-0.140801
0.116757
-0.138662
0.107119
-0.136716
0.0960289
-0.136076
0.0886125
-0.124564
0.0894411
-0.0894922
0.0977488
-0.0382008
0.112387
0.010802
0.132378
0.051469
0.156579
0.0942477
0.181011
0.156895
0.199797
0.237653
0.208222
0.305163
0.205311
0.312528
0.193949
0.237831
0.175937
0.103898
0.156532
-0.0532919
0.143949
-0.177302
0.139457
-0.223039
0.131102
-0.209389
0.118203
-0.213202
0.114191
-0.212761
0.120748
-0.153785
0.132613
-0.0222557
0.141351
0.142046
0.145374
0.270356
0.143483
0.34285
0.139026
0.268006
0.139007
0.115476
0.131151
-0.0443392
0.121791
-0.246007
0.11605
-0.280425
0.114631
-0.262558
0.124695
-0.0162326
0.123481
0.3002
0.194223
0.123828
-0.0331166
0.119826
-0.0305506
0.117501
-0.0259211
0.116716
-0.0194734
0.116522
-0.0112248
0.115692
-0.00160429
0.114008
0.01037
0.112476
0.0217152
0.112688
0.0318997
0.116621
0.0428345
0.125288
0.0566117
0.138329
0.0714993
0.154144
0.0819323
0.17037
0.0851826
0.185402
0.0823487
0.198375
0.0681485
0.206356
0.0349259
0.205344
-0.0111383
0.195394
-0.0544414
0.180607
-0.0861891
0.16523
-0.106626
0.151509
-0.11911
0.139974
-0.126233
0.130145
-0.130422
0.12159
-0.132246
0.114042
-0.131114
0.105992
-0.128666
0.0967609
-0.126845
0.0896514
-0.117455
0.089178
-0.0890188
0.0955525
-0.0445753
0.107715
-0.00136065
0.125747
0.0334371
0.14998
0.0700144
0.176912
0.129964
0.199555
0.21501
0.211882
0.292835
0.211583
0.312827
0.20118
0.248235
0.183392
0.121686
0.162106
-0.0320064
0.145964
-0.16116
0.140136
-0.21721
0.132852
-0.202105
0.119384
-0.199733
0.113535
-0.206912
0.119854
-0.160104
0.133363
-0.035765
0.143994
0.131415
0.149119
0.265231
0.1472
0.344769
0.142144
0.273061
0.142782
0.114838
0.135392
-0.0369499
0.125361
-0.235975
0.119231
-0.274295
0.11728
-0.260608
0.128795
-0.0277468
0.128675
0.30032
0.203275
0.123885
-0.0283985
0.120457
-0.0271224
0.118499
-0.023963
0.118493
-0.0194674
0.120588
-0.0133199
0.124404
-0.00542078
0.129443
0.00533133
0.133444
0.017714
0.136266
0.0290776
0.139873
0.0392273
0.146053
0.0504319
0.155201
0.0623509
0.166714
0.07042
0.178787
0.073109
0.190626
0.07051
0.200979
0.0577958
0.20575
0.0301545
0.202038
-0.00742618
0.190636
-0.0430396
0.175572
-0.0711255
0.16048
-0.0915337
0.147105
-0.105734
0.135741
-0.114869
0.126174
-0.120855
0.117986
-0.124058
0.110865
-0.123993
0.103967
-0.121769
0.0966072
-0.119484
0.0905621
-0.11141
0.0894375
-0.0878943
0.094167
-0.0493047
0.103673
-0.0108671
0.118703
0.018407
0.141315
0.0474034
0.170426
0.100853
0.198202
0.187234
0.214927
0.27611
0.216519
0.311235
0.206683
0.258071
0.189255
0.139113
0.166742
-0.00949364
0.147697
-0.142114
0.140167
-0.209681
0.134159
-0.196097
0.120769
-0.186343
0.112893
-0.199036
0.118301
-0.165512
0.133588
-0.051052
0.146396
0.118607
0.152739
0.258888
0.15084
0.346668
0.145179
0.278722
0.146573
0.113445
0.139858
-0.0302354
0.129236
-0.225353
0.12274
-0.2678
0.120131
-0.257998
0.132834
-0.0404501
0.134028
0.299126
0.212044
0.123996
-0.0247163
0.120204
-0.0233302
0.117523
-0.0212822
0.116441
-0.0183855
0.117189
-0.0140679
0.11982
-0.00805173
0.125015
0.000136379
0.132024
0.0107048
0.139702
0.0213997
0.14718
0.0317491
0.155315
0.042297
0.165048
0.0526186
0.17534
0.0601277
0.185254
0.0631955
0.194623
0.0611407
0.202125
0.0502934
0.204261
0.0280186
0.198371
-0.00153571
0.186105
-0.0307743
0.171082
-0.0561025
0.156246
-0.0766976
0.143138
-0.0926267
0.131913
-0.103643
0.12247
-0.111412
0.114634
-0.116222
0.107916
-0.117275
0.101698
-0.115551
0.0957541
-0.113541
0.091121
-0.106777
0.0901094
-0.0868827
0.0935685
-0.0527637
0.100594
-0.0178921
0.112332
0.00666863
0.13146
0.0282752
0.159268
0.0730448
0.189809
0.156693
0.212112
0.253807
0.218626
0.304721
0.21103
0.265667
0.19429
0.155853
0.17162
0.013177
0.149905
-0.120399
0.140185
-0.199961
0.135199
-0.191111
0.122487
-0.173631
0.112675
-0.189224
0.116591
-0.169429
0.132754
-0.067215
0.147994
0.103368
0.156172
0.25071
0.154674
0.348166
0.148372
0.285024
0.150462
0.111355
0.144539
-0.024313
0.133427
-0.214241
0.126526
-0.260898
0.123198
-0.254671
0.136723
-0.0539747
0.139424
0.296424
0.220312
0.16832
-0.0191949
-0.173841
0.163591
-0.0186021
0.159166
-0.0168566
0.154994
-0.0142139
0.151326
-0.0104001
0.148464
-0.0051889
0.146966
0.00163362
0.147518
0.0101527
0.149504
0.0194145
0.152462
0.0287911
0.156604
0.0381545
0.162629
0.0465936
0.170691
0.0520656
0.180487
0.0533995
0.192274
0.0493536
0.204754
0.0378137
0.214095
0.0186776
0.217484
-0.0049248
0.215464
-0.0287538
0.209644
-0.0502823
0.201643
-0.0686972
0.192662
-0.0836455
0.183158
-0.0941393
0.173594
-0.101849
0.16433
-0.106958
0.155159
-0.108104
0.145928
-0.10632
0.136786
-0.104399
0.127042
-0.097033
0.117375
-0.0772149
0.110392
-0.0457812
0.108881
-0.0163813
0.1136
0.00194966
0.124116
0.0177597
0.139417
0.057743
0.155874
0.140236
0.169087
0.240594
0.177593
0.296216
0.1841
0.259159
0.187488
0.152465
0.183353
0.0173119
0.173664
-0.11071
0.165067
-0.191364
0.15727
-0.183314
0.14265
-0.15901
0.129016
-0.17559
0.124128
-0.164541
0.129606
-0.0726933
0.13515
0.0978241
0.137568
0.248291
0.136869
0.348865
0.137208
0.284685
0.14586
0.102703
0.145373
-0.0238259
0.135797
-0.204665
0.126974
-0.252075
0.11952
-0.247217
0.127881
-0.0623357
0.130439
0.293866
0.226995
0.178585
-0.0148899
-0.18289
0.174482
-0.0144989
0.170632
-0.013007
0.167085
-0.0106664
0.16406
-0.00737481
0.161901
-0.00303055
0.160872
0.00266318
0.161478
0.00954679
0.163744
0.0171479
0.167613
0.0249227
0.173208
0.0325596
0.180584
0.0392168
0.189398
0.0432522
0.199179
0.043618
0.209409
0.0391237
0.218468
0.0287552
0.224201
0.0129442
0.2253
-0.00602335
0.222443
-0.0258976
0.216645
-0.0444842
0.208785
-0.0608371
0.199901
-0.0747612
0.190612
-0.0848506
0.181204
-0.0924409
0.172122
-0.0978748
0.163274
-0.0992554
0.154072
-0.0971188
0.145132
-0.0954587
0.13668
-0.088581
0.128655
-0.0691897
0.122173
-0.0392991
0.119973
-0.0141819
0.123472
-0.00154962
0.13267
0.00856174
0.147862
0.0425513
0.166079
0.122019
0.181695
0.224977
0.192105
0.285806
0.199433
0.251832
0.202895
0.149003
0.199331
0.0208756
0.188049
-0.0994269
0.177383
-0.180699
0.16882
-0.174751
0.154043
-0.144233
0.139318
-0.160865
0.13321
-0.158433
0.139466
-0.0789496
0.14685
0.0904397
0.150294
0.244848
0.149858
0.349301
0.150128
0.284414
0.159905
0.0929264
0.159872
-0.023793
0.148829
-0.193622
0.138865
-0.242111
0.13019
-0.238541
0.13902
-0.071166
0.142829
0.290058
0.2335
0.189997
-0.0111889
-0.193698
0.186273
-0.0107757
0.182871
-0.00960495
0.179861
-0.00765621
0.177373
-0.00488618
0.175557
-0.00121507
0.174855
0.00336553
0.175538
0.00886309
0.177781
0.014905
0.181624
0.0210804
0.187176
0.0270071
0.194354
0.0320388
0.202704
0.0349026
0.211587
0.0347343
0.220185
0.0305259
0.227148
0.021792
0.231238
0.00885468
0.231804
-0.00658962
0.229213
-0.0233063
0.22417
-0.0394418