/*--------------------------------*- C++ -*----------------------------------*\
| =========                 |                                                 |
| \\      /  F ield         | OpenFOAM: The Open Source CFD Toolbox           |
|  \\    /   O peration     | Version:  2312                                  |
|   \\  /    A nd           | Website:  www.openfoam.com                      |
|    \\/     M anipulation  |                                                 |
\*---------------------------------------------------------------------------*/
FoamFile
{
    version     2.0;
    format      ascii;
    arch        "LSB;label=32;scalar=64";
    class       surfaceScalarField;
    location    "8.45";
    object      phi;
}
// * * * * * * * * * * * * * * * * * * * * * * * * * * * * * * * * * * * * * //

dimensions      [0 3 -1 0 0 0 0];

oriented        oriented;

internalField   nonuniform List<scalar> 
10785
(
-0.000182942
0.00283367
-0.00265073
0.00206577
0.00670117
-0.00894988
0.00760112
0.00667708
-0.0122124
0.0174092
0.000941881
-0.01075
0.0330647
-0.0114242
-0.0042312
0.0559301
-0.0302536
0.00738817
0.085875
-0.0537918
0.0238469
0.12089
-0.0796625
0.0446474
0.157347
-0.105352
0.0688953
0.191554
-0.128754
0.0945472
0.21885
-0.147977
0.120681
0.237823
-0.161925
0.142952
0.246964
-0.172218
0.163076
0.248424
-0.176632
0.175172
-0.185237
0.184413
0.249248
-0.00100267
0.00383633
0.000377748
0.00532075
0.00693977
0.000115059
0.02133
-0.0134484
0.0450344
-0.0351286
0.0763366
-0.0615558
0.111296
-0.0887513
0.14514
-0.113507
0.173632
-0.133844
0.193983
-0.149105
0.205754
-0.159748
0.211707
-0.167878
0.214625
-0.175136
0.220992
-0.182999
-0.193291
0.229046
-0.000448061
0.0042844
0.00278406
0.00208863
0.0139709
-0.0110718
0.0356697
-0.0351471
0.0654435
-0.0649024
0.0977566
-0.0938689
0.126996
-0.117991
0.149427
-0.135937
0.164055
-0.148472
0.172521
-0.157571
0.178331
-0.165558
0.184179
-0.173726
0.191404
-0.182361
0.199017
-0.190611
-0.198207
0.203933
0.000709941
0.00357446
0.00750102
-0.00470245
0.0250533
-0.0286241
0.0517682
-0.061862
0.0807891
-0.0939233
0.10585
-0.11893
0.123953
-0.136094
0.135554
-0.147539
0.143209
-0.156126
0.149655
-0.164017
0.156001
-0.171904
0.162026
-0.179751
0.166973
-0.187307
0.171224
-0.194862
-0.203364
0.17638
0.00202988
0.00154458
0.0134356
-0.0161082
0.0359739
-0.0511624
0.0621565
-0.0880447
0.084508
-0.116275
0.100212
-0.134633
0.110336
-0.146218
0.11736
-0.154563
0.123121
-0.161888
0.128078
-0.168974
0.132264
-0.17609
0.13596
-0.183447
0.139817
-0.191165
0.144442
-0.199487
-0.207647
0.148726
0.00368688
-0.00214231
0.0195429
-0.0319642
0.0429363
-0.0745558
0.0639781
-0.109087
0.0787156
-0.131012
0.0879881
-0.143906
0.0940423
-0.152272
0.0984885
-0.159009
0.102039
-0.165438
0.105173
-0.172108
0.108283
-0.1792
0.111485
-0.186649
0.1147
-0.19438
0.117499
-0.202286
-0.210418
0.12027
0.00575422
-0.00789653
0.024107
-0.0503169
0.0442907
-0.0947395
0.0591213
-0.123917
0.06815
-0.140041
0.0733951
-0.149151
0.0766985
-0.155576
0.0791439
-0.161455
0.0812857
-0.16758
0.0832708
-0.174093
0.085025
-0.180954
0.086554
-0.188178
0.0879276
-0.195754
0.0894289
-0.203787
-0.212019
0.091029
0.00783314
-0.0157297
0.0257185
-0.0682023
0.0411344
-0.110155
0.0506423
-0.133425
0.0555665
-0.144965
0.0580115
-0.151596
0.0593889
-0.156953
0.0603217
-0.162388
0.0609518
-0.16821
0.0613147
-0.174456
0.0615099
-0.18115
0.0616208
-0.188288
0.0617671
-0.1959
0.0618439
-0.203864
0.0619521
-0.212127
-0.0100016
0.00579277
0.00420886
-0.0257265
0.00909245
0.0066324
-0.0431303
0.0101076
0.00729628
-0.0614087
0.010665
0.00761345
-0.0802433
0.01098
0.00785461
-0.0991586
0.0109111
0.00800417
-0.117591
0.0103667
0.00806548
-0.1349
0.00928139
0.00802825
-0.150377
0.00762594
0.00785067
-0.163214
0.00539971
0.00743732
-0.17248
0.00262592
0.0066399
-0.177143
-0.000566619
0.00522978
-0.17651
-0.00352047
0.00288716
-0.169362
-0.00654214
-0.000605744
-0.00944988
-0.155083
-0.00482867
-0.00837281
0.0141656
-0.0221801
0.0228998
-0.0376037
0.0255312
-0.0535931
0.0266543
-0.0697237
0.0271106
-0.0855293
0.0267167
-0.100497
0.0253342
-0.114084
0.0228683
-0.125721
0.0192635
-0.134772
0.0144503
-0.140542
0.00839572
-0.1418
0.000691801
-0.138134
-0.0071864
-0.128193
-0.0164828
-0.0273834
-0.11026
-0.00435097
0.0185165
-0.0132333
0.0317821
-0.0236747
0.0359725
-0.034134
0.0371136
-0.0438866
0.0368631
-0.0524074
0.0352376
-0.0591749
0.0321017
-0.0637003
0.0273937
-0.0655445
0.0211077
-0.0642123
0.0131182
-0.0596158
0.00379915
-0.0515538
-0.00737014
-0.0392037
-0.0195365
-0.0211477
-0.0345388
-0.0518361
0.00330501
0.000424047
0.0180925
-0.00210127
0.0343075
-0.00631618
0.0401874
-0.0103367
0.0411341
-0.013067
0.0395934
-0.013881
0.0360516
-0.012306
0.0305266
-0.00791987
0.0230076
-0.000402646
0.0135905
0.0104076
0.00230792
0.0242901
-0.0100834
0.042826
-0.025906
0.0646686
-0.0413791
0.0915016
-0.0613718
-0.0845909
0.124256
0.004075
0.0140175
0.00785463
0.0305278
0.0102496
0.0377925
0.0125991
0.0387845
0.0162675
0.0359251
0.0220462
0.0302729
0.0303282
0.0222446
0.0412263
0.0121095
0.0543854
0.000431431
0.0709038
-0.0142105
0.0901991
-0.0293786
0.113584
-0.0492909
0.140725
-0.0685199
0.172801
-0.0934479
-0.119856
0.208066
0.00530041
0.00871709
0.0131656
0.0226626
0.0209651
0.029993
0.0288062
0.0309435
0.0375805
0.0271507
0.0479406
0.0199128
0.0601346
0.0100506
0.0741025
-0.00185848
0.0912841
-0.0167501
0.110912
-0.0338385
0.135084
-0.0535502
0.163323
-0.0775301
0.196004
-0.101201
0.232654
-0.130098
-0.153378
0.266176
0.0041569
0.00456019
0.0123664
0.0144531
0.0221307
0.0202287
0.0325973
0.0204768
0.0438325
0.0159156
0.0562108
0.00753453
0.0705539
-0.00429249
0.088044
-0.0193486
0.109435
-0.0381408
0.135415
-0.0598187
0.167124
-0.0852594
0.200869
-0.111275
0.236728
-0.13706
0.268236
-0.161606
-0.175703
0.29056
0.00190946
0.00741268
0.015429
0.0251558
0.0368402
0.0517629
0.0713173
0.0966161
0.127371
0.162099
0.197521
0.229198
0.255213
0.26878
0.27749
-0.0951232
-0.0356724
-0.0242877
-0.0189289
-0.035149
-0.0410453
0.0533377
-0.0223553
-0.0499113
0.11345
-0.00952076
-0.0505915
0.159607
0.00135206
-0.0475091
0.193486
0.00960299
-0.0434816
0.218269
0.0156785
-0.0404623
0.236664
0.0201149
-0.0385094
0.250259
0.0235722
-0.0371675
0.260124
0.0263348
-0.0362
0.267116
0.028534
-0.0355252
0.271976
0.0303844
-0.0352451
0.275325
0.0321803
-0.0355289
0.277626
0.0341107
-0.036412
0.279203
0.0362113
-0.0377886
0.280267
0.0384853
-0.0395491
0.280955
0.0409422
-0.0416299
0.281355
0.0436075
-0.0440078
0.281535
0.0465294
-0.0467089
0.28153
0.0496912
-0.0496867
0.281382
0.0534786
-0.0533305
0.281105
0.0568042
-0.0565271
0.280705
0.0634534
-0.063053
0.280265
0.0628514
-0.0624117
0.27958
0.0828515
-0.0821664
0.279116
0.0592226
-0.0587588
0.278183
0.122325
-0.121391
0.277418
0.051723
-0.0509585
0.27692
0.137525
-0.137027
0.275417
0.136887
-0.135384
0.274359
0.0714725
-0.0704148
0.274158
0.158322
-0.15812
0.273255
0.257217
-0.256314
0.271163
0.215346
-0.213254
0.268969
0.0780926
-0.0758985
0.267122
-0.0199903
0.0218373
0.265554
-0.0900863
0.0916542
-0.0749254
0.0764575
-0.0591206
-0.0868118
0.00430535
-0.0985749
0.068162
-0.0862119
0.122148
-0.0635063
0.163973
-0.0404734
0.194902
-0.0213259
0.218027
-0.0074467
0.23554
0.00260235
0.248813
0.0102991
0.258662
0.0164852
0.265755
0.0214416
0.270734
0.0254055
0.274189
0.0287254
0.276582
0.0317174
0.278241
0.0345521
0.27938
0.0373467
0.280136
0.0401854
0.280602
0.0431417
0.280844
0.0462875
0.280904
0.0496309
0.280817
0.053566
0.280615
0.0570059
0.280268
0.0638005
0.279933
0.0631871
0.279279
0.0835057
0.27895
0.0595506
0.278067
0.123208
0.277346
0.0524441
0.277078
0.137793
0.275474
0.138491
0.274498
0.0724483
0.274603
0.158217
0.273684
0.258135
0.271347
0.217683
0.26899
0.0804504
0.267144
-0.0181442
0.265704
-0.0886471
-0.0735649
0.0318578
-0.115365
0.071197
-0.137914
0.114952
-0.129967
0.154316
-0.10287
0.185087
-0.0712443
0.208392
-0.0446315
0.225629
-0.0246835
0.238784
-0.0105524
0.248953
0.000129356
0.256968
0.00847061
0.263019
0.0153907
0.267493
0.0209313
0.270758
0.0254604
0.273131
0.0293442
0.274854
0.0328291
0.276094
0.0361069
0.276967
0.0393122
0.277557
0.0425517
0.277927
0.0459177
0.278123
0.0494348
0.278171
0.0535183
0.278125
0.0570515
0.277913
0.0640131
0.277771
0.0633283
0.277237
0.0840398
0.277142
0.059646
0.27641
0.12394
0.275839
0.0530148
0.275903
0.137729
0.27435
0.140044
0.273564
0.0732341
0.274099
0.157683
0.273298
0.258937
0.270872
0.220109
0.268509
0.0828135
0.266824
-0.0164596
0.26568
-0.0875028
-0.07255
0.129043
-0.120151
0.145691
-0.154562
0.165656
-0.149933
0.18593
-0.123143
0.203979
-0.089294
0.218835
-0.0594867
0.230483
-0.0363321
0.239556
-0.0196254
0.246979
-0.00729344
0.252944
0.00250555
0.257835
0.0104994
0.261715
0.0170515
0.264765
0.0224102
0.267144
0.0269658
0.268986
0.030987
0.270396
0.0346966
0.27146
0.0382485
0.272248
0.0417632
0.272819
0.0453468
0.273225
0.049029
0.273482
0.0532613
0.273671
0.0568626
0.273672
0.0640121
0.273812
0.0631877
0.273486
0.0843662
0.273718
0.0594145
0.27324
0.124417
0.272915
0.0533403
0.273424
0.13722
0.272051
0.141417
0.27156
0.0737248
0.272629
0.156614
0.272107
0.259459
0.269748
0.222467
0.267532
0.0850296
0.266166
-0.0150933
0.265481
-0.0868181
-0.0720534
0.200202
-0.112287
0.196152
-0.150512
0.197211
-0.150991
0.201824
-0.127756
0.209387
-0.0968576
0.21778
-0.0678795
0.22589
-0.044442
0.233199
-0.0269346
0.239611
-0.0137055
0.245167
-0.00304967
0.249752
0.0059139
0.253474
0.0133298
0.256467
0.0194173
0.258887
0.0245451
0.260855
0.0290197
0.262448
0.0331033
0.26373
0.0369661
0.264761
0.0407329
0.265587
0.0445201
0.266266
0.0483502
0.266801
0.0527266
0.267299
0.0563645
0.267589
0.0637219
0.268096
0.0626807
0.26806
0.0844024
0.268711
0.0587636
0.268589
0.124539
0.268598
0.0533316
0.269674
0.136143
0.268595
0.142497
0.2685
0.0738202
0.270222
0.154892
0.270134
0.259547
0.267995
0.224606
0.266071
0.0869539
0.265175
-0.0141973
0.265111
-0.0867541
-0.0722444
0.249768
-0.0958784
0.22627
-0.127014
0.210274
-0.134996
0.202759
-0.120241
0.2026
-0.0966983
0.207566
-0.0728461
0.214296
-0.0511716
0.221077
-0.0337157
0.227413
-0.0200417
0.233039
-0.00867516
0.237792
0.00116052
0.241847
0.00927538
0.245193
0.0160713
0.247953
0.0217851
0.250249
0.0267238
0.252166
0.0311856
0.253772
0.03536
0.25513
0.0393756
0.256288
0.043362
0.257312
0.0473262
0.258195
0.051843
0.259077
0.0554823
0.259731
0.0630681
0.260687
0.0617253
0.26102
0.0840694
0.262177
0.0576067
0.262507
0.124208
0.262933
0.0529058
0.264695
0.134381
0.264014
0.143178
0.264412
0.0734219
0.266906
0.152398
0.267406
0.259047
0.265633
0.226379
0.264139
0.0884478
0.263859
-0.0139175
0.264572
-0.0874672
-0.0732871
0.266343
-0.0716613
0.234922
-0.0955925
0.209097
-0.109171
0.195511
-0.106655
0.192082
-0.0932702
0.194859
-0.0756226
0.200477
-0.0567895
0.206873
-0.0401115
0.213182
-0.0263507
0.219067
-0.0145608
0.224237
-0.00400959
0.228518
0.00499446
0.232109
0.0124804
0.235099
0.0187948
0.237653
0.0241704
0.239865
0.0289737
0.241798
0.0334264
0.243511
0.0376629
0.245044
0.0418286
0.246468
0.0459024
0.24776
0.0505511
0.249094
0.0541489
0.250176
0.0619855
0.251659
0.0602424
0.25243
0.0832985
0.25418
0.0558571
0.255055
0.123333
0.255965
0.0519955
0.258546
0.1318
0.258352
0.143372
0.259327
0.0724471
0.262723
0.149001
0.263968
0.257802
0.262698
0.227649
0.261758
0.0893875
0.262233
-0.0143921
0.263872
-0.0891068
-0.075339
0.25313
-0.0473013
0.224863
-0.0673263
0.198813
-0.0831206
0.181649
-0.0894904
0.174569
-0.0861905
0.175188
-0.0762418
0.180483
-0.0620844
0.18754
-0.0471681
0.194696
-0.0335069
0.201269
-0.0211331
0.207112
-0.00985344
0.212009
9.73595e-05
0.216283
0.00820659
0.219861
0.0152172
0.222901
0.0211301
0.225543
0.0263316
0.227889
0.0310809
0.230018
0.0355335
0.231981
0.0398657
0.233858
0.0440251
0.235615
0.0487942
0.237459
0.0523052
0.239036
0.0604081
0.241113
0.0581655
0.242405
0.0820069
0.244808
0.0534539
0.246332
0.12181
0.247783
0.0505436
0.251271
0.128313
0.251692
0.14295
0.25331
0.0708296
0.257691
0.14462
0.25984
0.255653
0.259218
0.228271
0.258967
0.0896387
0.260322
-0.0157466
0.263022
-0.091807
-0.0785473
0.482605
-0.0267922
-0.503114
0.462265
-0.0469864
0.43975
-0.0606054
0.418225
-0.067965
0.400354
-0.0683204
0.387113
-0.0630009
0.378594
-0.0535653
0.373493
-0.0420666
0.370774
-0.0307881
0.369805
-0.0201645
0.37004
-0.0100882
0.371422
-0.00128463
0.372919
0.0067101
0.374587
0.0135484
0.376188
0.0195296
0.377682
0.0248376
0.37905
0.0297134
0.380288
0.0342955
0.381394
0.0387596
0.382385
0.0430333
0.383267
0.0479131
0.384046
0.0515256
0.384797
0.0596568
0.38534
0.0576232
0.386148
0.0811982
0.386407
0.053195
0.387194
0.121023
0.387778
0.0499597
0.387707
0.128384
0.388797
0.14186
0.389522
0.0701046
0.389453
0.14469
0.38943
0.255676
0.389805
0.227896
0.389998
0.0894451
0.389941
-0.0156891
0.389918
-0.0917842
-0.0785924
0.50796
-0.0127148
-0.522038
0.491104
-0.0301304
0.473498
-0.0429987
0.45611
-0.0505772
0.440423
-0.0526335
0.427726
-0.0503038
0.418644
-0.0444835
0.413081
-0.0365041
0.409995
-0.0277013
0.408509
-0.0186787
0.40807
-0.00964977
0.408154
-0.00136824
0.409097
0.00576715
0.410346
0.0122992
0.411765
0.0181109
0.413204
0.0233984
0.414583
0.028334
0.415865
0.0330139
0.417028
0.0375964
0.41808
0.0419817
0.419026
0.0469665
0.41987
0.0506821
0.420688
0.0588382
0.421311
0.0570001
0.422165
0.0803444
0.422546
0.0528141
0.423355
0.120215
0.424032
0.0492827
0.424103
0.128313
0.425204
0.140758
0.426007
0.0693016
0.425997
0.1447
0.426075
0.255598
0.426483
0.227488
0.42671
0.0892181
0.42667
-0.0156491
0.426692
-0.0918056
-0.0786709
0.541701
-0.00450253
-0.549913
0.529729
-0.018159
0.515381
-0.0286507
0.50005
-0.0352459
0.485485
-0.0380686
0.472851
-0.0376701
0.462942
-0.0345745
0.455997
-0.0295583
0.451699
-0.0234041
0.449278
-0.0162569
0.448226
-0.00859788
0.44842
-0.00156297
0.449073
0.00511473
0.450111
0.0112611
0.451287
0.016935
0.452524
0.0221611
0.453772
0.0270858
0.454988
0.0317979
0.456139
0.0364462
0.45721
0.0409103
0.4582
0.0459762
0.459101
0.0497818
0.459978
0.0579603
0.460692
0.0562861
0.461583
0.0794542
0.462114
0.0522829
0.462938
0.119391
0.463738
0.0484826
0.463968
0.128083
0.465077
0.139649
0.465943
0.0684351
0.466119
0.144524
0.466377
0.25534
0.466786
0.22708
0.466964
0.0890401
0.466936
-0.0156215
0.467003
-0.0918723
-0.0787891
0.576656
0.00176094
-0.582919
0.566484
-0.00798666
0.554433
-0.0166004
0.541926
-0.0227386
0.530095
-0.0262372
0.519618
-0.0271931
0.510951
-0.0259073
0.504255
-0.0228625
0.499407
-0.0185567
0.496208
-0.0130575
0.494384
-0.00677354
0.493392
-0.000571413
0.493302
0.00520463
0.49378
0.0107838
0.49462
0.0160947
0.495652
0.0211286
0.496773
0.0259654
0.497914
0.0306568
0.499031
0.0353291
0.500101
0.03984
0.501119
0.044958
0.502068
0.048833
0.503001
0.0570273
0.503817
0.0554702
0.50474
0.0785316
0.505449
0.0515738
0.506288
0.118552
0.507205
0.0475651
0.507675
0.127613
0.508739
0.138585
0.509683
0.0674916
0.51016
0.144046
0.510641
0.254859
0.511021
0.2267
0.511135
0.0889258
0.511108
-0.0155945
0.511221
-0.0919847
-0.0789476
0.615227
0.00620857
-0.619675
0.608134
-0.000893792
0.599213
-0.00767959
0.589462
-0.0129872
0.579539
-0.0163142
0.570132
-0.0177863
0.561789
-0.0175641
0.554886
-0.0159594
0.54959
-0.0132612
0.54586
-0.00932725
0.543473
-0.00438652
0.542186
0.000716218
0.541685
0.00570504
0.541798
0.010671
0.542308
0.0155844
0.543071
0.0203662
0.543993
0.0250431
0.545006
0.0296437
0.546056
0.0342793
0.547106
0.0387902
0.548139
0.0439244
0.549134
0.0478384
0.550122
0.0560389
0.551044
0.0545486
0.552006
0.0775696
0.552897
0.0506829
0.553774
0.117675
0.554813
0.0465264
0.555566
0.12686
0.556574
0.137576
0.557629
0.0664367
0.558482
0.143194
0.559209
0.254132
0.559567
0.226342
0.55961
0.0888831
0.559579
-0.0155637
0.559739
-0.0921443
-0.0791475
0.658912
0.0091579
-0.661862
0.653879
0.00413912
0.647115
-0.000915367
0.639224
-0.00509632
0.631001
-0.00809138
0.623072
-0.00985731
0.615853
-0.0103447
0.609578
-0.00968459
0.604364
-0.00804675
0.600379
-0.00534275
0.597632
-0.00163909
0.595834
0.00251397
0.594827
0.00671201
0.594474
0.0110245
0.594607
0.0154506
0.595081
0.019893
0.59579
0.0243342
0.596656
0.0287772
0.597618
0.033317
0.59863
0.0377788
0.599664
0.0428897
0.600699
0.0468038
0.601738
0.0550003
0.602767
0.0535195
0.603779
0.0765574
0.604857
0.0496054
0.605806
0.116726
0.606972
0.04536
0.608032
0.1258
0.609017
0.136591
0.610217
0.0652372
0.611486
0.141925
0.612487
0.25313
0.612845
0.225984
0.612825
0.0889034
0.612793
-0.0155316
0.613001
-0.0923525
-0.0793881
0.708268
0.0113222
-0.710432
0.70452
0.0078864
0.6994
0.00420536
0.693345
0.000958099
0.686822
-0.00156808
0.680265
-0.00330052
0.674019
-0.00409822
0.668315
-0.00398142
0.663345
-0.00307674
0.659298
-0.0012955
0.656284
0.00137515
0.654186
0.00461166
0.652827
0.0080711
0.652107
0.0117444
0.651906
0.0156515
0.652098
0.0197015
0.652584
0.0238481
0.653288
0.0280732
0.654145
0.0324596
0.655104
0.0368197
0.65613
0.0418644
0.657199
0.0457346
0.658286
0.0539129
0.659427
0.0523788
0.660506
0.075478
0.661775
0.0483368
0.662829
0.115672
0.664133
0.044056
0.665524
0.124408
0.666535
0.135581
0.667908
0.0638635
0.669636
0.140198
0.670947
0.251819
0.671337
0.225593
0.671272
0.0889679
0.671244
-0.0155035
0.6715
-0.0926085
-0.0796664
0.763037
0.0129112
-0.764626
0.76038
0.0105432
0.756644
0.00794185
0.752068
0.00553387
0.746975
0.00352451
0.741641
0.00203374
0.736377
0.00116602
0.731422
0.000973717
0.726934
0.00141142
0.723103
0.00253557
0.720053
0.00442522
0.717764
0.00690045
0.716141
0.00969425
0.715116
0.0127691
0.714618
0.0161494
0.714549
0.0197704
0.71482
0.023577
0.71536
0.0275338
0.716105
0.0317144
0.717003
0.0359211
0.718012
0.0408559
0.719112
0.0446344
0.720251
0.0527739
0.721509
0.0511213
0.722674
0.0743123
0.724139
0.0468722
0.725334
0.114476
0.726795
0.0425952
0.728543
0.12266
0.729636
0.134488
0.73122
0.0622799
0.733453
0.137965
0.735123
0.250149
0.735589
0.225128
0.735505
0.0890518
0.73549
-0.0154886
0.735791
-0.0929096
-0.0799755
0.823917
0.0139056
-0.824911
0.822122
0.0123385
0.819468
0.010596
0.816073
0.00892817
0.812167
0.007431
0.807977
0.00622305
0.803707
0.00543671
0.799543
0.0051376
0.795628
0.00532658
0.792116
0.00604734
0.789171
0.00737067
0.786846
0.00922528
0.785096
0.011444
0.78388
0.0139849
0.783162
0.0168675
0.782881
0.0200519
0.782966
0.0234914
0.783357
0.0271432
0.783996
0.031075
0.784836
0.0350812
0.785829
0.0398633
0.786962
0.0435006
0.78816
0.051576
0.789542
0.0497399
0.790815
0.0730387
0.792487
0.0452004
0.793861
0.113102
0.795508
0.0409479
0.797642
0.120527
0.798885
0.133244
0.800727
0.0604384
0.803522
0.135171
0.805619
0.248052
0.806214
0.224532
0.806142
0.0891246
0.806153
-0.0154998
0.806493
-0.0932492
-0.0803027
0.891549
0.0145425
-0.892186
0.890318
0.0135689
0.888454
0.0124602
0.886017
0.011365
0.883121
0.0103273
0.879913
0.00943127
0.876537
0.00881268
0.873141
0.00853305
0.869851
0.00861734
0.866797
0.00910081
0.864119
0.0100485
0.8619
0.0114443
0.860147
0.0131971
0.858852
0.0152806
0.858005
0.0177142
0.857578
0.0204788
0.857525
0.0235438
0.857801
0.0268681
0.858356
0.0305196
0.859152
0.0342856
0.860139
0.0388757
0.861316
0.0423235
0.862587
0.0503057
0.864105
0.0482212
0.865512
0.0716321
0.867412
0.0433005
0.869003
0.111511
0.870879
0.0390712
0.873435
0.117971
0.874903
0.131776
0.877066
0.0582753
0.880493
0.131744
0.883106
0.245439
0.883908
0.223731
0.883886
0.0891464
0.883939
-0.0155528
0.884305
-0.093615
-0.0806263
0.966168
0.0148858
-0.966511
0.965417
0.0143193
0.964204
0.0136737
0.962545
0.0130237
0.960495
0.0123772
0.958125
0.0118014
0.955556
0.0113821
0.952896
0.0111927
0.950243
0.0112699
0.947705
0.0116392
0.945398
0.0123553
0.943411
0.0134312
0.941781
0.0148272
0.940525
0.016537
0.939655
0.0185843
0.939167
0.0209661
0.939042
0.0236689
0.939251
0.0266592
0.93976
0.0300105
0.94054
0.0335053
0.941547
0.037869
0.942789
0.0410819
0.944154
0.0489406
0.945833
0.0465423
0.947404
0.0700614
0.949563
0.0411414
0.951414
0.10966
0.953568
0.0369168
0.956602
0.114938
0.95838
0.129997
0.960939
0.0557167
0.965099
0.127584
0.968353
0.242185
0.969447
0.222636
0.969539
0.0890545
0.969654
-0.015668
0.970022
-0.093983
-0.0809101
1.04841
0.0149742
-1.0485
1.04805
0.0146816
1.04734
0.0143813
1.04629
0.0140726
1.04493
0.013737
1.0433
0.0134281
1.04147
0.0132124
1.03951
0.013152
1.0375
0.0132852
1.03551
0.0136277
1.03364
0.0142223
1.03198
0.0150944
1.03057
0.0162343
1.02946
0.0176514
1.02866
0.0193772
1.02821
0.0214219
1.02809
0.0237876
1.0283
0.0264509
1.02881
0.0294941
1.02962
0.032697
1.03069
0.0368051
1.03202
0.0397449
1.03352
0.0474419
1.03538
0.0446799
1.03718
0.0682652
1.03961
0.0387112
1.04183
0.107443
1.04427
0.0344727
1.04787
0.111345
1.05008
0.12778
1.05311
0.0526845
1.05811
0.122591
1.06221
0.23808
1.06382
0.221023
1.06399
0.0888863
1.06421
-0.0158857
1.06454
-0.094312
-0.0810985
1.13886
0.0148016
-1.13869
1.13878
0.0147609
1.13845
0.0147099
1.13788
0.0146514
1.13706
0.0145491
1.13604
0.0144489
1.13485
0.0144065
1.13353
0.014473
1.13213
0.0146811
1.13072
0.0150368
1.12937
0.0155743
1.12814
0.0163245
1.12708
0.0172913
1.12624
0.018492
1.12566
0.0199629
1.12536
0.0217238
1.12535
0.0237894
1.12566
0.0261456
1.12627
0.0288857
1.12718
0.0317869
1.12836
0.0356227
1.12985
0.0382516
1.13152
0.0457736
1.13365
0.0425534
1.13564
0.0662751
1.13853
0.0358223
1.14092
0.105053
1.14405
0.0313391
1.14809
0.107309
1.15081
0.125055
1.15461
0.0488858
1.16057
0.116629
1.16558
0.233071
1.16778
0.21883
1.16851
0.0881548
1.16878
-0.0161593
1.16896
-0.0944871
-0.0810723
1.23844
0.0144586
-1.2381
1.23869
0.0145193
1.23875
0.014641
1.23864
0.0147619
1.23835
0.014839
1.23789
0.0149142
1.23727
0.0150289
1.23652
0.0152238
1.23567
0.0155297
1.23476
0.0159435
1.23385
0.0164817
1.23301
0.0171707
1.23228
0.0180213
1.23171
0.019056
1.23136
0.0203162
1.23125
0.0218305
1.23142
0.0236236
1.23187
0.0256903
1.23263
0.0281328
1.23369
0.0307279
1.23504
0.0342717
1.23672
0.0365693
1.23863
0.0438587
1.24101
0.0401798
1.24343
0.0638545
1.24654
0.0327103
1.24977
0.101827
1.25288
0.0282267
1.25803
0.102153
1.26146
0.121632
1.26565
0.044694
1.27301
0.109265
1.27977
0.226313
1.28315
0.215451
1.28374
0.0875607
1.28422
-0.0166385
1.28426
-0.0945264
-0.0807406
1.34675
0.0138296
-1.34612
1.34722
0.0140483
1.34757
0.0142864
1.34782
0.0145199
1.34794
0.0147108
1.34796
0.0148984
1.34787
0.0151196
1.34768
0.0154104
1.34743
0.0157849
1.34714
0.0162287
1.34686
0.0167645
1.3466
0.0174245
1.34641
0.0182126
1.34633
0.01914
1.3464
0.0202432
1.34668
0.0215551
1.34719
0.0231087
1.34797
0.024909
1.34904
0.0270658
1.35041
0.02936
1.35208
0.032603
1.35409
0.0345545
1.35635
0.0415965
1.35915
0.0373831
1.36189
0.0611164
1.36573
0.0288729
1.36906
0.0984944
1.37355
0.0237408
1.37895
0.0967441
1.3834
0.117186
1.38902
0.0390787
1.39762
0.100663
1.40598
0.217949
1.41086
0.210575
1.41307
0.0853458
1.4136
-0.0171674
1.41265
-0.0935799
-0.0795957
1.46713
0.0130309
-1.46633
1.46794
0.0132392
1.46868
0.0135444
1.46933
0.0138656
1.4699
0.0141442
1.47038
0.0144146
1.47079
0.0147165
1.47111
0.0150909
1.47131
0.015576
1.47138
0.0161602
1.47134
0.0168038
1.47129
0.0174787
1.47132
0.0181835
1.4715
0.0189544
1.47189
0.0198545
1.47251
0.0209383
1.47337
0.0222485
1.47449
0.0237931
1.47588
0.0256763
1.47755
0.0276811
1.47954
0.0306138
1.48188
0.0322216
1.48454
0.0389361
1.48768
0.0342439
1.4911
0.0576958
1.49513
0.0248364
1.49979
0.093836
1.50401
0.0195236
1.51104
0.0897167
1.51668
0.111543
1.52248
0.0332748
1.53311
0.0900314
1.54463
0.206429
1.55195
0.203256
1.55413
0.0831669
1.55494
-0.0179757
1.55382
-0.0924589
-0.0777195
1.59661
0.0119081
-1.59548
1.59765
0.0121967
1.59867
0.0125242
1.59967
0.0128623
1.60065
0.0131685
1.60156
0.0134986
1.6024
0.0138757
1.60318
0.0143144
1.6039
0.0148547
1.6046
0.0154619
1.60531
0.0160951
1.60602
0.0167722
1.60672
0.0174827
1.60748
0.0181932
1.6084
0.0189356
1.60954
0.0197946
1.61094
0.0208445
1.61262
0.0221198
1.61459
0.0237091
1.61683
0.0254381
1.61943
0.0280135
1.62228
0.0293655
1.62567
0.0355517
1.62918
0.0307324
1.63364
0.0532406
1.63779
0.0206818
1.64395
0.087678
1.64871
0.0147606
1.65684
0.081591
1.66482
0.103556
1.67135
0.0267484
1.68395
0.0774325
1.70078
0.189595
1.71406
0.18998
1.72013
0.077095
1.72019
-0.0180358
1.71486
-0.0871288
-0.0728915
1.7407
0.0105029
-1.7393
1.74223
0.0106655
1.74368
0.0110815
1.74511
0.0114299
1.74667
0.0116118
1.74837
0.0117944
1.75029
0.0119555
1.75226
0.0123432
1.75376
0.0133619
1.75439
0.0148315
1.75431
0.0161733
1.75408
0.0170022
1.75427
0.0172918
1.75516
0.0173055
1.75668
0.0174109
1.75863
0.017842
1.76085
0.0186286
1.76324
0.0197268
1.76583
0.0211172
1.7686
0.0226688
1.77173
0.0248884
1.775
0.0260908
1.77904
0.0315182
1.78283
0.0269377
1.78847
0.0476001
1.79248
0.0166697
1.80073
0.079429
1.80505
0.0104475
1.81482
0.0718163
1.82502
0.0933594
1.83173
0.020035
1.84608
0.0630859
1.86715
0.168525
1.88532
0.171812
1.89343
0.0689817
1.89448
-0.019082
1.88832
-0.0809779
-0.066438
1.89668
0.00877959
-1.89495
1.89854
0.00879682
1.90034
0.00928073
1.90218
0.00959132
1.90429
0.00950242
1.90674
0.00934802
1.9096
0.00909416
1.91252
0.00942569
1.91455
0.0113346
1.91502
0.0143537
1.91426
0.0169321
1.91334
0.0179277
1.91331
0.0173189
1.91463
0.0159863
1.91709
0.0149493
1.92023
0.0147053
1.92366
0.0151993
1.9272
0.0161868
1.93081
0.0175005
1.93453
0.0189523
1.93853
0.0208897
1.9425
0.0221193
1.94776
0.0262635
1.951
0.023698
1.96057
0.0380261
1.95901
0.0182329
1.97813
0.0603031
1.97269
0.0158862
1.98757
0.0569445
2.00834
0.0725833
2.00441
0.0239707
2.01244
0.0550502
2.05684
0.124129
2.10757
0.121076
2.12873
0.0478247
2.12137
-0.0117193
2.09759
-0.0571986
-0.0491059
2.09644
0.00682861
-2.09449
2.09831
0.00692403
2.10028
0.00731515
2.10223
0.00763982
2.10403
0.0076954
2.10574
0.00764771
2.10733
0.00749555
2.10898
0.00777681
2.11106
0.00925361
2.11386
0.0115614
2.11734
0.0134516
2.12114
0.0141257
2.12477
0.0136831
2.128
0.0127559
2.13091
0.0120432
2.13372
0.0119001
2.1366
0.012311
2.13971
0.0130775
2.1431
0.0141172
2.14682
0.0152248
2.15099
0.0167283
2.15529
0.0178172
2.16111
0.0204448
2.1645
0.0203093
2.17588
0.0266417
2.17259
0.0215248
2.19663
0.0362572
2.18739
0.0251311
2.20546
0.038871
2.23085
0.0471987
2.22238
0.0324388
2.22936
0.0480714
2.28207
0.0714136
2.34034
0.0628081
2.36001
0.0281572
2.34619
0.00209762
2.31399
-0.0249982
-0.0266873
2.28913
0.00489917
-2.2872
2.29098
0.00506671
2.29304
0.00526005
2.29519
0.00548279
2.29718
0.00570724
2.2989
0.00592739
2.30025
0.0061478
2.30163
0.00639745
2.30408
0.00680573
2.30825
0.00738911
2.31375
0.00795491
2.31956
0.00831352
2.32475
0.00848928
2.3289
0.00860446
2.33219
0.00875351
2.33511
0.00898723
2.33808
0.00933918
2.34136
0.00979862
2.34507
0.0104046
2.34923
0.0110644
2.35395
0.0120069
2.35903
0.0127407
2.36509
0.0143854
2.37076
0.0146344
2.37929
0.0181132
2.38437
0.0164511
2.39734
0.0232854
2.40233
0.0201404
2.41569
0.0255123
2.43144
0.0314424
2.43821
0.0256759
2.45378
0.0324984
2.4811
0.044097
2.5033
0.0406061
2.51069
0.0207653
2.50809
0.00469529
2.49708
-0.0139878
-0.0165847
2.49834
0.00251341
-2.49595
2.50078
0.00262652
2.5033
0.00273286
2.50595
0.00284056
2.50869
0.00295946
2.51154
0.00308454
2.51445
0.00323559
2.51742
0.00342529
2.52059
0.0036341
2.52412
0.00385897
2.52799
0.00409018
2.53201
0.00429267
2.53605
0.0044436
2.5401
0.00455808
2.54419
0.00466778
2.54837
0.00479982
2.55274
0.0049764
2.55733
0.00520596
2.56223
0.00550402
2.56744
0.00585261
2.57314
0.00630405
2.57913
0.00675553
2.58607
0.00744073
2.5928
0.00790413
2.60188
0.00903344
2.60903
0.00930094
2.62125
0.0110697
2.63001
0.0113812
2.64284
0.0126821
2.65928
0.0150055
2.67077
0.0141836
2.68735
0.0159213
2.71256
0.0188796
2.73621
0.0169594
2.74776
0.00921516
2.749
0.00345401
2.73909
-0.0040723
-0.00616973
2.72927
-2.72676
2.7319
2.73463
2.73747
2.74043
2.74351
2.74675
2.75017
2.75381
2.75767
2.76176
2.76605
2.77049
2.77505
2.77972
2.78452
2.7895
2.7947
2.80021
2.80606
2.81236
2.81912
2.82656
2.83446
2.8435
2.8528
2.86387
2.87525
2.88793
2.90294
2.91712
2.93304
2.95192
2.96888
2.9781
2.98155
2.97748
0.435563
0.054325
-0.427936
0.444542
0.08205
0.452616
0.112197
0.462861
0.138481
0.47138
0.167861
0.483883
0.19143
0.493759
0.21917
0.239893
0.466202
0.0481142
-0.459991
0.473929
0.0743233
0.480875
0.105251
0.489462
0.129894
0.497561
0.159762
0.505734
0.183257
0.514225
0.210679
0.232081
0.500669
0.0428705
-0.495426
0.506444
0.0685483
0.512451
0.0992446
0.518361
0.123984
0.524842
0.153281
0.531237
0.176862
0.540294
0.201622
0.222462
0.537781
0.0383608
-0.533271
0.541951
0.0643784
0.547141
0.0940548
0.552193
0.118931
0.559257
0.146217
0.566752
0.169367
0.57531
0.193064
0.214852
0.578974
0.0346166
-0.57523
0.5826
0.0607525
0.587906
0.0887489
0.593239
0.113598
0.599737
0.13972
0.60582
0.163284
0.61246
0.186425
0.207637
0.62471
0.0313605
-0.621453
0.628174
0.0572885
0.632675
0.0842475
0.637097
0.109176
0.642187
0.13463
0.647628
0.157843
0.654399
0.179653
0.200174
0.67475
0.0287628
-0.672152
0.677554
0.0544843
0.681172
0.0806295
0.685193
0.105155
0.690521
0.129302
0.696688
0.151676
0.703372
0.17297
0.193114
0.729567
0.0267342
-0.727538
0.732161
0.0518898
0.735818
0.0769727
0.740273
0.1007
0.745567
0.124008
0.751251
0.145992
0.757558
0.166663
0.186046
0.790271
0.0249559
-0.788493
0.792846
0.0493154
0.796356
0.0734629
0.800485
0.0965701
0.805394
0.119099
0.811062
0.140324
0.817624
0.160101
0.178759
0.85684
0.0234435
-0.855328
0.859215
0.0469401
0.862529
0.0701494
0.866693
0.0924056
0.871876
0.113916
0.877921
0.134279
0.884705
0.153317
0.171278
0.929872
0.0220998
-0.928529
0.932231
0.0445816
0.935664
0.0667164
0.940071
0.0879983
0.945438
0.10855
0.951637
0.12808
0.958651
0.146303
0.163418
1.01006
0.020804
-1.00876
1.01245
0.0421881
1.01599
0.0631828
1.02054
0.0834444
1.02613
0.102957
1.03269
0.121528
1.04016
0.13883
0.155081
1.09787
0.0195627
-1.09662
1.10035
0.0397059
1.10403
0.0594995
1.10883
0.0786429
1.11478
0.0970105
1.12177
0.114533
1.12975
0.130853
0.146141
1.19391
0.018299
-1.19265
1.19655
0.0370725
1.20052
0.0555252
1.20576
0.0734009
1.21221
0.0905632
1.2198
0.106946
1.22845
0.122199
0.13649
1.29931
0.0168707
-1.29788
1.30216
0.0342287
1.30642
0.0512625
1.31199
0.0678256
1.31882
0.0837412
1.32678
0.0989784
1.33584
0.113141