/*--------------------------------*- C++ -*----------------------------------*\
| =========                 |                                                 |
| \\      /  F ield         | OpenFOAM: The Open Source CFD Toolbox           |
|  \\    /   O peration     | Version:  2512                                  |
|   \\  /    A nd           | Website:  www.openfoam.com                      |
|    \\/     M anipulation  |                                                 |
\*---------------------------------------------------------------------------*/
FoamFile
{
    version     2.0;
    format      ascii;
    arch        "LSB;label=32;scalar=64";
    class       volVectorField;
    location    "67.7";
    object      U;
}
// * * * * * * * * * * * * * * * * * * * * * * * * * * * * * * * * * * * * * //

dimensions      [0 1 -1 0 0 0 0];

internalField   nonuniform List<vector> 
13248
(
(-0.0137547 0.0089633 3.39482e-20)
(-0.0317056 0.0144304 0)
(-0.0431327 0.0117981 -5.93605e-20)
(-0.0432516 0.006767 5.49673e-20)
(-0.0282121 0.00153448 5.07428e-20)
(0.00529296 -0.00306118 0)
(0.0600289 -0.00643807 0)
(0.137476 -0.00794836 1.13851e-19)
(0.237055 -0.00696217 -2.43849e-21)
(0.355654 -0.00298652 -9.36707e-20)
(0.487723 0.00414611 8.04605e-20)
(0.625988 0.0141685 -4.93441e-20)
(0.762586 0.0263545 0)
(0.890168 0.0396139 -7.10939e-20)
(1.00275 0.0526789 1.28268e-19)
(1.09619 0.0643044 -2.97249e-20)
(1.16859 0.0734248 -4.77331e-20)
(1.21973 0.0793005 4.45011e-20)
(1.25188 0.0818566 0)
(1.2683 0.0800191 0)
(1.27221 0.0776563 0)
(1.27265 0.0667 0)
(1.26413 0.0652806 1.17775e-20)
(1.26487 0.0421547 4.23122e-20)
(-0.0181103 0.0126152 -1.02236e-19)
(-0.0358052 0.0220381 6.48798e-20)
(-0.0382562 0.0217065 -1.68531e-22)
(-0.0224115 0.0174481 -8.32464e-20)
(0.0149963 0.0122532 -5.06692e-20)
(0.0769256 0.00785409 -4.68455e-20)
(0.1651 0.00556062 -8.4164e-20)
(0.278646 0.00637057 7.84151e-20)
(0.413077 0.0108945 0)
(0.560413 0.0191691 1.30444e-21)
(0.710527 0.0305645 2.97652e-21)
(0.853079 0.0438794 4.98074e-20)
(0.979287 0.0575961 0)
(1.08311 0.0701825 0)
(1.16171 0.0804147 4.64779e-20)
(1.21546 0.0874413 -8.63738e-20)
(1.24727 0.0911102 4.77667e-20)
(1.2621 0.0914364 -4.45351e-20)
(1.2655 0.0891457 -1.87312e-20)
(1.26288 0.0847934 -3.23923e-20)
(1.25884 0.0787666 -1.273e-20)
(1.25534 0.0718008 -2.36265e-20)
(1.25218 0.0647384 3.51948e-20)
(1.25351 0.0536651 9.6785e-21)
(-0.020367 0.0134947 0)
(-0.0345725 0.0238786 0)
(-0.0245904 0.0247472 2.99344e-20)
(0.0115825 0.0214743 2.73643e-20)
(0.0766665 0.0176022 -5.36105e-22)
(0.172479 0.0156071 -4.76482e-20)
(0.297881 0.0172466 0)
(0.44691 0.0234423 -3.86569e-20)
(0.60873 0.0340568 3.4885e-20)
(0.769812 0.0479094 2.93273e-23)
(0.917105 0.0631184 -5.49538e-20)
(1.04069 0.0776286 -4.70144e-20)
(1.13521 0.0897073 2.68409e-21)
(1.20004 0.0982906 -3.33045e-20)
(1.23857 0.103054 8.27094e-20)
(1.25677 0.104351 0)
(1.2617 0.10296 -4.71573e-20)
(1.25976 0.0995441 2.29974e-20)
(1.25559 0.0954005 1.87124e-20)
(1.25192 0.0895026 0)
(1.24859 0.0850341 1.43943e-20)
(1.24614 0.0767125 -4.76933e-20)
(1.2418 0.073186 4.45384e-20)
(1.23865 0.0624301 2.64588e-20)
(-0.0206489 0.0123655 -3.55535e-20)
(-0.0273841 0.0210424 -3.39091e-20)
(-0.000501077 0.0220119 3.0563e-20)
(0.06141 0.0201685 0)
(0.160051 0.0194905 0)
(0.294139 0.0228745 -4.26171e-22)
(0.456302 0.0318096 0)
(0.632464 0.0459926 -1.15381e-19)
(0.80504 0.0634902 1.04407e-19)
(0.957887 0.0815181 -1.25328e-19)
(1.08013 0.0974028 2.74306e-20)
(1.16766 0.109306 0)
(1.22257 0.116535 4.0519e-20)
(1.25132 0.119426 -7.29351e-20)
(1.26218 0.118965 1.71688e-20)
(1.26304 0.116342 3.95242e-20)
(1.25965 0.112432 -3.39543e-21)
(1.2552 0.108038 -4.23639e-20)
(1.25081 0.102947 0)
(1.24624 0.0978667 0)
(1.24125 0.0920883 -1.32199e-20)
(1.23601 0.085491 1.14237e-20)
(1.22982 0.0808962 3.90707e-20)
(1.2259 0.0705153 -3.64721e-20)
(-0.0189651 0.0100514 -3.70567e-20)
(-0.0131491 0.0153366 -3.42925e-20)
(0.0366353 0.0161938 9.48446e-20)
(0.130921 0.0172069 -5.69937e-20)
(0.268504 0.0225815 5.27957e-20)
(0.441147 0.0347737 9.47192e-20)
(0.631444 0.0534553 -6.5502e-20)
(0.816947 0.0757574 -7.64335e-20)
(0.977633 0.0977165 3.05973e-21)
(1.1014 0.115904 9.38909e-20)
(1.1855 0.128417 0)
(1.23476 0.135051 2.33244e-20)
(1.25818 0.136838 0)
(1.26544 0.135321 -3.44091e-20)
(1.26437 0.131933 4.7667e-20)
(1.25982 0.127589 3.9938e-22)
(1.2541 0.122839 -1.13601e-20)
(1.24799 0.117642 2.03542e-20)
(1.24167 0.112335 1.69281e-20)
(1.23546 0.106426 -1.45887e-20)
(1.22954 0.100687 1.3214e-20)
(1.22424 0.0940427 -1.14186e-20)
(1.21895 0.0889476 0)
(1.21528 0.0800368 -7.89651e-21)
(-0.0148909 0.00714693 3.70475e-20)
(0.00987914 0.00863214 3.5814e-20)
(0.0898571 0.0105381 -3.17469e-20)
(0.223069 0.0171116 5.80974e-20)
(0.401408 0.0320077 -5.38153e-20)
(0.604923 0.0553752 4.76933e-20)
(0.805536 0.0833719 -2.25227e-20)
(0.977901 0.110479 5.7541e-20)
(1.10766 0.132205 -3.53576e-20)
(1.19289 0.146466 5.89065e-20)
(1.24073 0.153518 -1.3234e-19)
(1.26223 0.15504 4.72058e-20)
(1.26801 0.153044 -3.86323e-20)
(1.26581 0.149154 3.59638e-20)
(1.26016 0.144336 2.88599e-20)
(1.25325 0.139085 2.38274e-20)
(1.24606 0.133513 -6.57063e-20)
(1.2391 0.127823 4.0041e-20)
(1.23262 0.121863 -1.69256e-20)
(1.22664 0.11594 4.19091e-20)
(1.22097 0.109825 -1.36757e-20)
(1.21543 0.103501 -3.01151e-20)
(1.20964 0.0980953 2.72855e-20)
(1.20447 0.0897399 7.89397e-21)
(-0.00759326 0.0040314 0)
(0.0437119 0.00256058 3.03081e-22)
(0.161383 0.00812829 6.59888e-20)
(0.337432 0.0239391 -6.07831e-20)
(0.551288 0.0511017 -5.38095e-20)
(0.769273 0.0852275 9.81561e-20)
(0.958532 0.118818 -4.47794e-20)
(1.10022 0.145705 5.73789e-20)
(1.1919 0.163234 -2.00004e-21)
(1.24235 0.171939 -3.08495e-20)
(1.26443 0.17406 6.35693e-20)
(1.26985 0.172075 -9.15536e-20)
(1.26684 0.167879 0)
(1.2602 0.162604 -1.64264e-20)
(1.25236 0.156838 -4.18922e-20)
(1.24447 0.150825 1.32064e-20)
(1.23696 0.14473 7.99501e-22)
(1.2299 0.138522 -2.49389e-20)
(1.22317 0.13232 2.69816e-21)
(1.21666 0.126002 2.80749e-20)
(1.21035 0.119638 -1.18255e-20)
(1.20434 0.113286 -3.83138e-21)
(1.19849 0.107153 1.27362e-20)
(1.19358 0.0995281 0)
(0.00390226 0.00108168 0)
(0.0899688 -0.00125834 1.81518e-20)
(0.251333 0.0117574 -8.60117e-20)
(0.468686 0.0403952 3.06873e-20)
(0.704742 0.08026 -2.84242e-20)
(0.916891 0.121647 -2.52408e-20)
(1.078 0.155716 -4.31017e-20)
(1.18257 0.178439 2.17055e-20)
(1.24002 0.190241 1.81842e-20)
(1.26508 0.19385 0)
(1.27118 0.192317 3.7231e-20)
(1.26778 0.187989 -5.32953e-20)
(1.26041 0.182309 3.90974e-20)
(1.25185 0.176042 1.64336e-20)
(1.24331 0.169537 -1.24257e-20)
(1.23514 0.162951 -9.50207e-21)
(1.22738 0.156301 -8.6358e-21)
(1.22 0.149646 2.70045e-20)
(1.21303 0.142943 0)
(1.20651 0.13627 1.19675e-20)
(1.20041 0.12963 9.08892e-21)
(1.19459 0.123093 -2.35917e-20)
(1.18888 0.116588 -1.47214e-20)
(1.18338 0.109695 1.33946e-20)
(0.0204344 -0.00114909 -2.14034e-20)
(0.149245 -0.00100139 -9.1103e-22)
(0.356911 0.0238087 1.75535e-20)
(0.607103 0.0673496 4.81535e-20)
(0.847317 0.117424 1.34015e-20)
(1.03685 0.161081 -2.56197e-20)
(1.16259 0.19149 2.29694e-20)
(1.23273 0.208257 -1.93874e-20)
(1.26392 0.214472 3.33475e-20)
(1.27215 0.213941 1.34585e-20)
(1.26891 0.209709 -3.77893e-20)
(1.26096 0.203696 1.07313e-20)
(1.25162 0.19692 1.7317e-20)
(1.24225 0.189841 -8.61423e-21)
(1.23327 0.182651 0)
(1.22479 0.175414 1.15247e-20)
(1.21684 0.168187 1.82197e-20)
(1.20941 0.160982 2.34385e-21)
(1.20245 0.153854 -1.44049e-20)
(1.19589 0.146799 5.51396e-21)
(1.18962 0.139841 0)
(1.18359 0.133011 -3.85183e-21)
(1.17773 0.1261 -3.59028e-21)
(1.17224 0.119559 0)
(0.0424601 -0.00189585 0)
(0.220584 0.00531333 1.04317e-20)
(0.472235 0.0458791 1.89881e-20)
(0.741249 0.10384 -4.92213e-20)
(0.968777 0.159677 1.57347e-20)
(1.12659 0.201106 0)
(1.21761 0.225502 2.1522e-20)
(1.25977 0.235972 -2.94901e-20)
(1.27246 0.237262 -1.65533e-20)
(1.27024 0.23343 7.30156e-21)
(1.26185 0.227121 -1.0719e-20)
(1.2516 0.219749 2.61886e-20)
(1.24124 0.211957 1.23035e-20)
(1.23139 0.204018 -8.87997e-21)
(1.22217 0.196047 -1.18161e-21)
(1.2136 0.188113 -2.10439e-20)
(1.20562 0.180247 9.32998e-21)
(1.19815 0.172485 -3.3622e-22)
(1.19118 0.164834 0)
(1.18467 0.157324 -5.51944e-21)
(1.17857 0.149976 0)
(1.17276 0.14276 1.06993e-20)
(1.16712 0.135594 -1.20059e-20)
(1.16154 0.129333 5.24197e-21)
(0.0698913 -0.000263368 -6.06614e-21)
(0.301236 0.0194934 -2.65764e-20)
(0.589333 0.0783329 2.98618e-20)
(0.861523 0.147806 1.68654e-20)
(1.06482 0.204647 -8.00258e-21)
(1.18873 0.240707 1.25319e-20)
(1.24965 0.258097 -6.10231e-21)
(1.2708 0.262585 9.52571e-21)
(1.27121 0.259671 0)
(1.26278 0.253123 1.98171e-20)
(1.25156 0.245024 -1.10372e-21)
(1.24008 0.236338 -1.51063e-20)
(1.22921 0.227467 6.15226e-21)
(1.21911 0.218579 -6.52899e-21)
(1.20978 0.209756 -2.15289e-21)
(1.20114 0.201037 2.8134e-21)
(1.19314 0.192458 -1.91096e-21)
(1.18575 0.184044 -9.95899e-21)
(1.17892 0.17583 5.96962e-21)
(1.17258 0.167835 1.07659e-21)
(1.16658 0.16005 8.79236e-22)
(1.16083 0.152439 7.1237e-22)
(1.15521 0.145037 0)
(1.14974 0.138622 0)
(0.102089 0.00466785 6.07349e-21)
(0.386977 0.0427884 -5.58579e-21)
(0.700169 0.120329 -9.98818e-21)
(0.962094 0.197083 0)
(1.13543 0.250912 -3.95074e-21)
(1.22756 0.27972 -3.41236e-21)
(1.26426 0.289895 -5.53105e-21)
(1.27047 0.288918 0)
(1.26306 0.282339 0)
(1.25104 0.273359 0)
(1.23831 0.263515 0)
(1.22623 0.253435 0)
(1.2151 0.24336 -3.75688e-21)
(1.20491 0.233395 1.6693e-21)
(1.19557 0.223592 2.75413e-21)
(1.18701 0.21399 1.2707e-21)
(1.17917 0.204616 2.87247e-21)
(1.17197 0.195496 0)
(1.16535 0.186647 -5.70635e-22)
(1.15925 0.17808 -5.459e-22)
(1.15357 0.169781 -8.80621e-22)
(1.14817 0.161741 -7.13492e-22)
(1.14294 0.154064 0)
(1.1378 0.147325 3.60361e-22)
(0.00224821 -0.122743 6.5242e-21)
(-0.00298431 -0.241893 -6.20864e-21)
(-0.021097 -0.285641 -1.14976e-20)
(-0.0452554 -0.28958 0)
(-0.071976 -0.276698 -1.51224e-20)
(-0.0997376 -0.258392 4.79969e-21)
(-0.127668 -0.23802 -8.74611e-21)
(-0.155195 -0.215044 0)
(-0.181897 -0.187877 0)
(-0.207393 -0.155056 0)
(-0.2313 -0.115493 0)
(-0.253173 -0.0684609 0)
(-0.272238 -0.0134666 4.89936e-22)
(-0.288324 0.0494402 -6.26907e-21)
(-0.301453 0.119435 1.09852e-20)
(-0.311132 0.195457 1.57493e-20)
(-0.316995 0.27597 4.24753e-21)
(-0.318759 0.358981 0)
(-0.316233 0.44209 4.21373e-21)
(-0.309306 0.522576 -1.09082e-20)
(-0.29777 0.597459 -6.20665e-21)
(-0.281051 0.663694 -5.48907e-21)
(-0.259046 0.718501 0)
(-0.231297 0.759817 0)
(0.00794493 -0.113667 -1.91563e-20)
(0.0056892 -0.219968 3.05772e-20)
(-0.0142327 -0.255888 -1.07499e-20)
(-0.0417683 -0.255248 -2.06487e-20)
(-0.072354 -0.239712 2.90673e-20)
(-0.104226 -0.219968 -1.79809e-20)
(-0.136503 -0.199071 2.54167e-20)
(-0.168641 -0.176359 1.50466e-20)
(-0.200223 -0.150217 0)
(-0.230839 -0.119218 -1.48844e-20)
(-0.259999 -0.0822987 -3.2386e-22)
(-0.286906 -0.0386614 1.3034e-20)
(-0.310935 0.0119915 1.70008e-20)
(-0.331712 0.069277 2.16413e-20)
(-0.348604 0.132782 -1.10824e-20)
(-0.360869 0.201527 -2.88666e-20)
(-0.367811 0.274015 7.41504e-21)
(-0.368723 0.348278 -2.95649e-20)
(-0.362906 0.421927 0)
(-0.349743 0.492253 6.96725e-21)
(-0.328628 0.556366 6.19765e-21)
(-0.298503 0.611292 5.4809e-21)
(-0.258084 0.654081 0)
(-0.208424 0.682651 0)
(0.0126012 -0.10161 0)
(0.0132251 -0.19414 5.59053e-20)
(-0.00697591 -0.222998 -2.08067e-20)
(-0.0357772 -0.218607 1.98475e-20)
(-0.0677815 -0.200795 -5.28459e-20)
(-0.100949 -0.179626 0)
(-0.134331 -0.158107 -3.08323e-20)
(-0.167365 -0.135634 1.35899e-20)
(-0.199596 -0.110618 -2.54485e-20)
(-0.230523 -0.0816703 1.03844e-20)
(-0.259475 -0.0477941 6.80226e-20)
(-0.28583 -0.00838494 -3.14539e-20)
(-0.308942 0.0366204 -5.02127e-20)
(-0.327946 0.0870914 -1.62793e-20)
(-0.34193 0.142544 7.05292e-22)
(-0.349952 0.201999 6.06387e-20)
(-0.351056 0.264023 -2.78593e-20)
(-0.344281 0.326743 2.86472e-21)
(-0.328685 0.387894 0)
(-0.303355 0.444904 -1.7417e-20)
(-0.26765 0.495043 0)
(-0.221297 0.535591 -1.67605e-20)
(-0.163115 0.564043 5.69924e-20)
(-0.0900985 0.578939 2.37789e-22)
(0.0160133 -0.0882432 0)
(0.0192501 -0.167142 -1.31217e-21)
(-1.69441e-05 -0.189844 1.89057e-20)
(-0.0283452 -0.182534 -1.72877e-20)
(-0.0596938 -0.162907 1.73172e-20)
(-0.0916949 -0.140448 9.09546e-20)
(-0.123277 -0.118319 -2.83917e-20)
(-0.153831 -0.0961522 -2.51443e-20)
(-0.182854 -0.0724424 4.85292e-20)
(-0.209784 -0.045853 -6.77694e-20)
(-0.234 -0.0154947 1.93308e-20)
(-0.254797 0.0190357 1.75456e-20)
(-0.271376 0.0579014 0)
(-0.282826 0.100944 1.67994e-20)
(-0.288165 0.147625 0)
(-0.286366 0.197016 2.25152e-20)
(-0.276409 0.247799 -4.27863e-20)
(-0.257307 0.29828 1.30106e-20)
(-0.228167 0.346426 3.53171e-20)
(-0.188352 0.390026 1.73973e-20)
(-0.137178 0.426542 0)
(-0.0745307 0.453681 -3.90612e-20)
(-0.00315944 0.470249 1.25732e-20)
(0.0917549 0.470682 0)
(0.0181414 -0.0748689 0)
(0.0234119 -0.141003 -6.00985e-20)
(0.00565807 -0.158636 -1.78681e-20)
(-0.0211569 -0.149465 -3.36497e-20)
(-0.0504972 -0.128857 3.11801e-20)
(-0.0796335 -0.105636 -2.96174e-20)
(-0.107337 -0.0832007 5.22378e-20)
(-0.132954 -0.0615965 2.44695e-20)
(-0.156002 -0.0395827 -6.75073e-20)
(-0.175926 -0.0158211 3.96678e-20)
(-0.192055 0.0105731 -5.53911e-20)
(-0.203691 0.0400253 1.11386e-19)
(-0.210053 0.0726198 -5.99762e-20)
(-0.210284 0.108131 2.44858e-20)
(-0.203487 0.146025 6.64987e-20)
(-0.188761 0.185462 -2.4941e-20)
(-0.16524 0.22529 -1.85801e-20)
(-0.132199 0.264036 -1.79582e-20)
(-0.0889171 0.299999 0)
(-0.035015 0.331157 -2.40464e-20)
(0.0281751 0.356188 -2.16576e-20)
(0.106322 0.371177 3.16768e-20)
(0.180747 0.380428 4.18583e-20)
(0.29228 0.36732 -3.75897e-20)
(0.0189879 -0.0622232 0)
(0.0253061 -0.116816 -7.41273e-20)
(0.00890196 -0.130613 1.2208e-21)
(-0.0161603 -0.120927 6.40089e-20)
(-0.0429891 -0.100661 0)
(-0.0685019 -0.0777715 0)
(-0.0912996 -0.0558031 0)
(-0.110765 -0.0353442 -2.25787e-20)
(-0.126432 -0.0154864 1.04771e-21)
(-0.137789 0.00499873 3.72959e-20)
(-0.144285 0.026992 -5.02543e-20)
(-0.145282 0.0509684 8.89816e-22)
(-0.1401 0.0770215 0)
(-0.128058 0.104943 -2.44735e-20)
(-0.108468 0.134267 1.68719e-20)
(-0.0806755 0.164259 -5.18509e-20)
(-0.0441731 0.193918 5.89682e-20)
(0.00148795 0.221979 9.05607e-21)
(0.0555741 0.247368 -2.47987e-21)
(0.121451 0.267425 -4.12675e-20)
(0.189148 0.284042 -1.73014e-20)
(0.27898 0.28805 6.15027e-20)
(0.349492 0.293783 -4.02589e-20)
(0.468254 0.271694 0)
(0.0184722 -0.0504523 3.66675e-20)
(0.0244181 -0.0947285 3.66322e-20)
(0.00855422 -0.105975 -3.23425e-20)
(-0.0151975 -0.0973305 -6.05154e-20)
(-0.0397747 -0.0791641 5.60728e-20)
(-0.0618269 -0.0583202 -5.06432e-20)
(-0.0798175 -0.0382665 6.97466e-20)
(-0.0930824 -0.0199632 -2.21823e-20)
(-0.10127 -0.00292332 3.86726e-20)
(-0.104067 0.0137456 0)
(-0.101078 0.030869 2.75394e-20)
(-0.0918475 0.0489648 -5.28197e-20)
(-0.0758813 0.0682241 4.53126e-20)
(-0.0526938 0.0885769 -4.21766e-20)
(-0.0218937 0.109669 0)
(0.0168172 0.13091 3.03948e-20)
(0.0635278 0.151494 4.79473e-20)
(0.119114 0.170543 -4.62345e-20)
(0.17998 0.18737 -1.85133e-20)
(0.256162 0.199036 -1.80282e-20)
(0.323319 0.210002 4.96301e-20)
(0.426918 0.206905 1.52474e-20)
(0.489234 0.21168 -1.33567e-20)
(0.624669 0.185877 1.48014e-20)
(0.0163831 -0.0392728 -3.66765e-20)
(0.020197 -0.0741832 1.02193e-19)
(0.0037425 -0.0840287 -3.10398e-20)
(-0.0194477 -0.0779212 5.80944e-20)
(-0.0424048 -0.0637021 -5.38294e-20)
(-0.0616905 -0.0469099 -3.28826e-22)
(-0.0756276 -0.0306076 2.2208e-20)
(-0.0835306 -0.0159125 7.74197e-20)
(-0.0851429 -0.00277014 -2.72824e-21)
(-0.0803055 0.00942661 -3.42854e-20)
(-0.0687879 0.0213575 0)
(-0.0502814 0.0335524 -2.2307e-20)
(-0.0244178 0.0463476 4.47984e-20)
(0.0091643 0.059804 3.57017e-20)
(0.0507604 0.0737448 -1.78138e-20)
(0.10067 0.087851 -1.12211e-21)
(0.158903 0.101487 -1.2226e-20)
(0.226562 0.114424 1.95418e-20)
(0.299254 0.125169 1.85153e-20)
(0.390243 0.133183 -1.66236e-20)
(0.466226 0.139764 1.48278e-20)
(0.592441 0.136236 -1.42928e-20)
(0.654646 0.139297 0)
(0.82207 0.116719 -1.48013e-20)
(0.0124791 -0.028281 3.46716e-20)
(0.0123575 -0.0543722 -3.37102e-20)
(-0.0056025 -0.0635677 3.03058e-20)
(-0.0286719 -0.0610237 0)
(-0.0502838 -0.0521059 0)
(-0.0670812 -0.0409322 4.5546e-20)
(-0.0772972 -0.0299436 -4.34954e-20)
(-0.080117 -0.0202072 3.66707e-20)
(-0.0751462 -0.0118379 -1.72939e-19)
(-0.0621298 -0.00439012 1.16738e-21)
(-0.0406868 0.00266899 2.67542e-20)
(-0.0103249 0.0099131 0)
(0.0294733 0.0177503 -3.92895e-20)
(0.0791563 0.0263803 7.02014e-20)
(0.138997 0.0358522 -4.67524e-20)
(0.209105 0.0459614 -6.23301e-20)
(0.289159 0.0563092 3.3226e-21)
(0.378712 0.0667396 3.93113e-20)
(0.475712 0.0753519 0)
(0.584469 0.0837213 0)
(0.684971 0.0879464 -1.48319e-20)
(0.819422 0.0893535 1.42966e-20)
(0.896627 0.0889244 -5.84304e-20)
(1.06447 0.0758778 5.44657e-20)
(0.00675382 -0.0173272 0)
(0.00136591 -0.0347937 0)
(-0.0181314 -0.043435 -9.01419e-20)
(-0.040405 -0.0445829 2.78276e-20)
(-0.0595279 -0.0412384 6.06568e-22)
(-0.0722784 -0.0361049 4.59123e-20)
(-0.0766748 -0.0308691 0)
(-0.0714729 -0.026277 -3.77492e-20)
(-0.0556938 -0.0223421 3.43137e-20)
(-0.0285008 -0.0188207 -5.80693e-20)
(0.0107508 -0.0151212 1.22352e-21)
(0.0626957 -0.0106498 4.45222e-20)
(0.127514 -0.00496828 -2.99494e-21)
(0.20488 0.00220343 3.02971e-20)
(0.293771 0.0109511 -4.66164e-20)
(0.392845 0.0208523 0)
(0.499787 0.0319498 4.2873e-20)
(0.612045 0.0426829 -5.92273e-20)
(0.728315 0.053198 1.78602e-20)
(0.842038 0.0620986 0)
(0.954888 0.0674487 1.5326e-20)
(1.06246 0.0714823 5.92785e-20)
(1.14682 0.0684143 -5.53488e-20)
(1.25422 0.0618903 -6.8919e-20)
(-0.000282819 -0.006802 1.00556e-19)
(-0.0112195 -0.015769 -1.27609e-19)
(-0.0308801 -0.0232427 8.39369e-23)
(-0.0499216 -0.0271855 2.72472e-20)
(-0.0631441 -0.0284561 -5.01644e-20)
(-0.0672884 -0.028395 -4.61397e-20)
(-0.059892 -0.0278426 8.22677e-20)
(-0.0390088 -0.0271498 -2.32529e-21)
(-0.00326753 -0.0263079 -6.86858e-20)
(0.0484591 -0.0248672 1.18497e-19)
(0.116499 -0.0221311 -3.14304e-21)
(0.200134 -0.0176451 -4.76808e-20)
(0.297661 -0.0110353 0)
(0.4064 -0.00223833 0)
(0.522787 0.00858709 -1.49031e-20)
(0.643238 0.0205578 -2.66685e-20)
(0.762962 0.0336979 -4.47203e-20)
(0.879264 0.0451742 4.16861e-20)
(0.987086 0.0571354 -1.78738e-20)
(1.08346 0.0637077 3.33732e-20)
(1.16892 0.069868 -1.53204e-20)
(1.23177 0.0692715 2.96548e-20)
(1.28778 0.0646618 -6.82849e-20)
(1.31586 0.0563906 1.3385e-20)
(-0.00753923 0.00230926 3.34318e-20)
(-0.0230232 0.00129055 0)
(-0.0401905 -0.00405116 5.9035e-20)
(-0.0520294 -0.00923966 -5.46675e-20)
(-0.0540298 -0.0133496 5.02277e-20)
(-0.0427974 -0.016497 0)
(-0.0154731 -0.0188468 0)
(0.0301225 -0.0203226 -3.67296e-20)
(0.0952335 -0.0205287 2.54517e-21)
(0.179703 -0.0188245 3.1767e-20)
(0.281756 -0.0147613 -2.55096e-20)
(0.397857 -0.00804147 4.84606e-20)
(0.52315 0.00130223 0)
(0.652022 0.0128386 6.92944e-20)
(0.77872 0.0258194 -1.24929e-19)
(0.897978 0.0390999 8.29661e-20)
(1.00511 0.0518457 4.6662e-20)
(1.09737 0.0620041 -4.3499e-20)
(1.17096 0.07072 0)
(1.22818 0.0728372 0)
(1.26457 0.0757411 0)
(1.28718 0.0675174 0)
(1.29748 0.0635013 1.34513e-20)
(1.29002 0.0498761 -4.82374e-20)
(-0.195139 0.787739 -2.91711e-21)
(-0.132823 0.787919 2.91994e-21)
(-0.0528926 0.746329 -8.47153e-23)
(0.0491933 0.66041 0)
(0.166197 0.528101 -2.89139e-21)
(0.290952 0.36106 5.7963e-21)
(0.409559 0.176865 1.4218e-22)
(0.509736 -0.0174769 -2.95613e-21)
(0.592411 -0.230647 0)
(0.664656 -0.453238 0)
(0.720687 -0.641623 -1.39458e-22)
(0.751853 -0.753298 -1.08471e-22)
(0.764157 -0.78315 -1.22768e-21)
(0.761845 -0.76523 1.11326e-21)
(0.748141 -0.73163 0)
(0.735399 -0.692165 0)
(0.721725 -0.668918 7.36852e-22)
(0.691803 -0.689338 1.04932e-22)
(0.64386 -0.725997 -7.46134e-22)
(0.601409 -0.688595 -6.2289e-23)
(0.592059 -0.506578 0)
(0.615952 -0.203817 0)
(0.658289 0.126432 0)
(0.708675 0.389494 0)
(0.753223 0.549103 0)
(0.78303 0.616695 0)
(0.806903 0.616563 1.6057e-22)
(0.824214 0.600595 -2.5925e-22)
(0.816596 0.623619 0)
(0.779039 0.672906 0)
(0.727545 0.662493 -2.67121e-22)
(0.68068 0.525116 2.59559e-22)
(0.652285 0.271664 1.84454e-22)
(0.652314 -0.0167815 0)
(0.680784 -0.256619 0)
(0.717834 -0.410625 1.76893e-22)
(0.754675 -0.488034 -1.71924e-22)
(0.76971 -0.507939 0)
(0.736284 -0.514551 7.93026e-23)
(0.665301 -0.499734 -1.13047e-22)
(0.598887 -0.420494 4.37007e-23)
(0.577233 -0.245061 0)
(0.597486 -0.018987 -8.4408e-23)
(0.667218 0.158696 8.20732e-23)
(0.740796 0.256761 0)
(0.767162 0.314819 0)
(0.730971 0.417456 -1.49019e-23)
(0.703535 0.46114 4.42088e-23)
(0.70616 0.382178 0)
(0.759204 0.110001 0)
(0.767039 -0.183352 -6.10308e-24)
(0.771478 -0.421322 -5.93407e-27)
(0.741147 -0.46631 -7.47812e-25)
(0.714486 -0.311443 -1.43016e-24)
(0.667642 -0.089169 0)
(0.657452 0.198715 0)
(0.605198 0.263073 0)
(0.614278 0.317504 0)
(0.510477 0.166557 0)
(0.510842 -0.0717004 0)
(-0.145762 0.700388 -2.52655e-22)
(-0.0508339 0.684394 -1.09433e-20)
(0.0563384 0.628955 -4.8767e-22)
(0.179159 0.532541 1.0698e-20)
(0.308745 0.398546 1.84631e-22)
(0.436096 0.240176 0)
(0.548383 0.0758042 -1.24982e-20)
(0.640139 -0.0962629 2.47912e-20)
(0.719559 -0.296141 -1.2292e-20)
(0.789587 -0.509739 1.01376e-20)
(0.836388 -0.68273 -9.70451e-21)
(0.84912 -0.775146 6.16886e-21)
(0.837943 -0.788317 -6.0174e-21)
(0.815201 -0.757298 -1.24904e-22)
(0.783448 -0.717143 -3.0206e-21)
(0.753828 -0.676474 2.93358e-21)
(0.728533 -0.647444 -2.7029e-21)
(0.690065 -0.656144 2.54615e-21)
(0.631382 -0.687595 -3.4809e-21)
(0.57232 -0.662541 7.56264e-21)
(0.542381 -0.504879 -4.04918e-21)
(0.552414 -0.22591 -2.87574e-22)
(0.59302 0.087627 -4.58253e-21)
(0.648967 0.348415 8.19058e-21)
(0.702489 0.517286 -3.6323e-21)
(0.74582 0.594769 1.38744e-22)
(0.785565 0.602175 1.72247e-21)
(0.816196 0.59696 -7.97734e-23)
(0.819992 0.63346 -2.98854e-21)
(0.794351 0.693022 3.34202e-21)
(0.755667 0.687323 -1.7925e-21)
(0.719478 0.54838 3.44302e-22)
(0.697929 0.284148 -1.84843e-22)
(0.699037 -0.0199693 4.03431e-22)
(0.723176 -0.270714 0)
(0.74906 -0.426838 0)
(0.773176 -0.499251 -5.21185e-22)
(0.780908 -0.50555 4.0399e-22)
(0.745627 -0.495648 2.08739e-22)
(0.668264 -0.474493 5.34546e-23)
(0.594752 -0.404102 -3.23016e-22)
(0.569588 -0.2458 7.1394e-23)
(0.595033 -0.0369158 0)
(0.669497 0.133764 0)
(0.739509 0.241307 0)
(0.75978 0.316652 0)
(0.720919 0.426615 5.09568e-23)
(0.700038 0.463916 -2.97461e-23)
(0.707313 0.375634 0)
(0.767219 0.103061 0)
(0.773081 -0.18454 0)
(0.775082 -0.418573 1.32884e-24)
(0.739272 -0.459489 1.51143e-23)
(0.709285 -0.303387 6.36819e-25)
(0.664384 -0.0826726 0)
(0.652926 0.204042 0)
(0.605156 0.26769 -1.9892e-23)
(0.610051 0.326834 -6.97169e-23)
(0.501253 0.177125 0)
(0.496408 -0.071742 0)
(-0.0122475 0.587576 1.16197e-21)
(0.0939588 0.562564 -1.95352e-20)
(0.211083 0.503002 2.25785e-20)
(0.336328 0.407896 -2.10826e-20)
(0.462407 0.280825 -1.85946e-22)
(0.579631 0.136854 0)
(0.676885 -0.00471976 -2.57647e-20)
(0.757566 -0.154426 2.5212e-20)
(0.835999 -0.339888 1.89065e-22)
(0.905568 -0.540841 3.32802e-22)
(0.943051 -0.69538 2.77263e-22)
(0.939347 -0.768965 2.21689e-22)
(0.907531 -0.77143 -9.44302e-21)
(0.867014 -0.73548 9.29594e-21)
(0.821539 -0.694453 0)
(0.777037 -0.655937 1.57424e-22)
(0.740982 -0.622328 -4.8023e-21)
(0.697498 -0.618158 4.74327e-21)
(0.63092 -0.64428 0)
(0.557138 -0.634241 0)
(0.509433 -0.505661 -8.25791e-21)
(0.504646 -0.254107 1.68333e-20)
(0.539388 0.0418056 -1.61174e-20)
(0.597178 0.300039 1.34265e-21)
(0.657162 0.477355 1.11382e-20)
(0.712452 0.56465 -8.7321e-21)
(0.766838 0.580918 6.5299e-21)
(0.81079 0.586248 -2.74081e-22)
(0.826686 0.63521 -2.78917e-21)
(0.813884 0.707111 0)
(0.788363 0.710636 0)
(0.763001 0.573683 2.46473e-21)
(0.749155 0.302562 -3.08513e-21)
(0.751305 -0.0142422 3.21826e-23)
(0.770701 -0.275274 2.45454e-21)
(0.786012 -0.434673 -2.38495e-21)
(0.796738 -0.505594 0)
(0.796686 -0.502261 1.02989e-22)
(0.761434 -0.476842 5.46741e-22)
(0.679711 -0.449077 -9.94253e-22)
(0.599524 -0.388607 4.27051e-22)
(0.570614 -0.249322 2.50187e-23)
(0.600079 -0.0576701 -3.74792e-22)
(0.676543 0.108496 2.95333e-22)
(0.741701 0.227348 2.32747e-23)
(0.756177 0.319386 2.65581e-23)
(0.714651 0.435145 -5.10938e-23)
(0.69969 0.465718 0)
(0.711528 0.368705 0)
(0.777919 0.0973869 -3.43183e-22)
(0.782247 -0.183605 1.48559e-22)
(0.781729 -0.414158 -5.08592e-23)
(0.740082 -0.452546 -4.04918e-23)
(0.707076 -0.296003 -1.11325e-22)
(0.664373 -0.0771592 9.03408e-24)
(0.651299 0.208864 -7.27907e-23)
(0.607929 0.272347 8.49947e-23)
(0.607414 0.336974 -4.80854e-23)
(0.496332 0.188948 0)
(0.484325 -0.0709592 0)
(0.169018 0.471383 -3.67036e-20)
(0.273534 0.442867 -3.89996e-21)
(0.386556 0.385209 3.83865e-20)
(0.502588 0.298211 -3.52133e-22)
(0.615655 0.183868 0)
(0.716288 0.0570278 0)
(0.796636 -0.0648774 -5.06e-20)
(0.868807 -0.201029 -4.6334e-22)
(0.948458 -0.376856 7.03736e-20)
(1.01686 -0.562937 -2.70554e-21)
(1.0426 -0.695865 -1.92921e-20)
(1.02156 -0.749263 -1.17559e-20)
(0.971116 -0.742353 1.18159e-20)
(0.914467 -0.704456 0)
(0.859383 -0.663705 -5.54306e-21)
(0.804695 -0.629967 5.07737e-21)
(0.757897 -0.596574 0)
(0.711169 -0.579006 0)
(0.642908 -0.593225 4.54552e-21)
(0.558513 -0.595249 9.93531e-22)
(0.493836 -0.501019 -5.04247e-21)
(0.47391 -0.283938 -7.13186e-21)
(0.499205 -0.00776102 7.07301e-21)
(0.553895 0.245845 -5.67006e-21)
(0.617209 0.429883 1.25716e-21)
(0.682791 0.526127 4.08921e-21)
(0.75006 0.551418 3.45471e-22)
(0.806174 0.567736 2.26895e-23)
(0.835252 0.628918 0)
(0.836407 0.712296 3.93784e-21)
(0.82295 0.726475 -4.1003e-21)
(0.808455 0.596716 3.67732e-22)
(0.803591 0.324446 0)
(0.807767 -0.00177926 -4.40863e-22)
(0.82281 -0.273418 5.26187e-21)
(0.828731 -0.43621 -8.19088e-21)
(0.825561 -0.507406 8.9216e-22)
(0.815882 -0.49873 8.76266e-22)
(0.781873 -0.459135 1.18755e-21)
(0.698979 -0.422892 9.12409e-23)
(0.612661 -0.372338 -6.204e-22)
(0.578551 -0.254399 5.05659e-22)
(0.610405 -0.0807086 4.07394e-23)
(0.687276 0.0828338 6.08878e-23)
(0.747454 0.213941 -8.2563e-23)
(0.756573 0.322195 -1.60874e-22)
(0.712346 0.443095 4.21178e-23)
(0.702647 0.466925 3.37602e-22)
(0.71874 0.361873 -7.34424e-22)
(0.791159 0.0926941 5.85964e-22)
(0.794483 -0.181165 -4.77151e-23)
(0.791378 -0.408317 2.37373e-22)
(0.743523 -0.445159 4.84042e-23)
(0.707749 -0.289097 2.32758e-22)
(0.667403 -0.0726954 -8.45212e-24)
(0.652388 0.21333 1.19171e-22)
(0.613349 0.277182 0)
(0.606625 0.347837 5.32403e-23)
(0.495958 0.20193 -7.5198e-23)
(0.475027 -0.0690891 0)
(0.362577 0.364579 3.35419e-20)
(0.45673 0.336325 -6.99742e-20)
(0.557505 0.284386 3.59276e-20)
(0.658087 0.209199 4.44874e-20)
(0.753645 0.110609 -9.04931e-20)
(0.837646 0.00184254 -2.30089e-21)
(0.906911 -0.107073 4.72223e-20)
(0.97883 -0.238772 4.66312e-20)
(1.06165 -0.405531 -4.56281e-20)
(1.12232 -0.567657 0)
(1.12902 -0.672832 -2.9893e-20)
(1.08827 -0.708085 5.21035e-20)
(1.02327 -0.697162 -2.24408e-20)
(0.955189 -0.664436 0)
(0.893933 -0.627691 0)
(0.835086 -0.598837 1.48146e-22)
(0.781137 -0.570446 -7.19713e-21)
(0.731344 -0.544769 6.98762e-21)
(0.665041 -0.544076 0)
(0.575597 -0.550935 8.18211e-21)
(0.495178 -0.490074 -1.72754e-20)
(0.458874 -0.312526 1.97648e-20)
(0.4714 -0.0603266 -2.08418e-20)
(0.518962 0.186334 1.22839e-21)
(0.583276 0.375385 1.5417e-20)
(0.656256 0.480383 -6.70931e-21)
(0.733674 0.515156 -1.58654e-22)
(0.801614 0.540371 -2.16541e-21)
(0.844445 0.611007 -5.62138e-22)
(0.859008 0.708078 2.72632e-21)
(0.858718 0.739058 2.78582e-22)
(0.856187 0.622352 -6.77902e-21)
(0.860372 0.352745 1.41277e-20)
(0.866643 0.0192703 -8.26708e-21)
(0.877154 -0.263489 0)
(0.875263 -0.430438 -4.36066e-21)
(0.859165 -0.503318 4.05211e-21)
(0.838253 -0.493772 -1.08511e-21)
(0.805658 -0.443015 1.37137e-21)
(0.72511 -0.396962 -4.64265e-23)
(0.63384 -0.354813 0)
(0.591999 -0.259826 -2.33396e-23)
(0.623832 -0.105484 2.32303e-23)
(0.700423 0.0562454 0)
(0.756526 0.200838 -1.31935e-22)
(0.761683 0.32512 6.4794e-23)
(0.715145 0.450169 7.28878e-23)
(0.709533 0.467391 1.49017e-22)
(0.729083 0.355065 0)
(0.806887 0.0889261 0)
(0.809631 -0.177013 -4.01187e-22)
(0.803921 -0.400728 3.06892e-22)
(0.749533 -0.437361 4.86362e-23)
(0.711125 -0.282808 -8.51292e-23)
(0.673163 -0.0692711 -2.26722e-22)
(0.655949 0.217484 -1.193e-22)
(0.621197 0.282067 2.60376e-22)
(0.607928 0.359106 0)
(0.500084 0.215913 1.20607e-22)
(0.468803 -0.0659627 -1.60557e-23)
(0.530594 0.269468 3.06793e-20)
(0.611966 0.245966 -3.03697e-20)
(0.698822 0.202706 2.94189e-22)
(0.785236 0.140506 -2.93727e-22)
(0.868654 0.0568878 3.46654e-22)
(0.94404 -0.0377594 -3.61142e-22)
(1.01353 -0.141841 6.68996e-22)
(1.09292 -0.271783 0)
(1.17328 -0.424415 -6.13609e-22)
(1.2157 -0.557163 5.41316e-22)
(1.19948 -0.634846 4.50525e-22)
(1.14131 -0.657088 -3.9436e-22)
(1.06696 -0.645785 0)
(0.992424 -0.620322 0)
(0.926987 -0.589767 1.60318e-22)
(0.866481 -0.564228 0)
(0.808118 -0.541784 -9.51174e-23)
(0.756191 -0.514114 0)
(0.695315 -0.498285 -4.90009e-21)
(0.607499 -0.501199 1.02049e-20)
(0.513946 -0.4687 -1.17399e-20)
(0.458274 -0.335037 6.34354e-21)
(0.455049 -0.113212 7.46112e-21)
(0.492715 0.123476 -7.24281e-21)
(0.555095 0.315194 -5.21907e-21)
(0.632681 0.427753 5.01817e-21)
(0.718276 0.470809 0)
(0.796116 0.50432 8.69421e-23)
(0.851576 0.584459 0)
(0.880576 0.693181 0)
(0.89226 0.740256 9.67337e-21)
(0.899568 0.641598 -9.86312e-21)
(0.914023 0.382816 8.85596e-22)
(0.924666 0.0457981 9.53036e-22)
(0.932128 -0.247106 -8.07465e-22)
(0.924242 -0.418603 -3.91272e-21)
(0.896885 -0.493803 3.79847e-21)
(0.863301 -0.487378 -1.45663e-21)
(0.830902 -0.429043 1.20939e-21)
(0.756085 -0.371857 7.53602e-23)
(0.66251 -0.335219 -1.11533e-22)
(0.610335 -0.263826 1.86286e-22)
(0.638628 -0.131015 -3.70859e-23)
(0.714959 0.0285102 0)
(0.76889 0.186319 1.69429e-22)
(0.771369 0.32642 3.07252e-23)
(0.722585 0.456915 -7.93376e-24)
(0.720048 0.46831 -1.50019e-22)
(0.742493 0.348806 0)
(0.825059 0.0860886 1.87749e-22)
(0.827528 -0.171433 -4.48863e-22)
(0.819169 -0.391392 3.37025e-24)
(0.757979 -0.428948 8.61566e-23)
(0.716969 -0.277062 -3.45313e-22)
(0.68125 -0.0668976 2.86482e-22)
(0.661744 0.221221 0)
(0.631296 0.287043 -2.60531e-22)
(0.611587 0.370716 0)
(0.508433 0.230851 0)
(0.465801 -0.0614885 9.58131e-24)
(0.678054 0.186586 -2.83982e-20)