/*--------------------------------*- C++ -*----------------------------------*\
| =========                 |                                                 |
| \\      /  F ield         | OpenFOAM: The Open Source CFD Toolbox           |
|  \\    /   O peration     | Version:  2312                                  |
|   \\  /    A nd           | Website:  www.openfoam.com                      |
|    \\/     M anipulation  |                                                 |
\*---------------------------------------------------------------------------*/
FoamFile
{
    version     2.0;
    format      ascii;
    arch        "LSB;label=32;scalar=64";
    class       surfaceScalarField;
    location    "23";
    object      phi;
}
// * * * * * * * * * * * * * * * * * * * * * * * * * * * * * * * * * * * * * //

dimensions      [0 3 -1 0 0 0 0];

oriented        oriented;

internalField   nonuniform List<scalar> 
4490
(
-0.00125346
0.0100968
-0.00884335
0.00737804
0.00638263
-0.0150141
0.0361388
-0.0204653
-0.00829545
0.0857535
-0.061634
0.0120193
0.149851
-0.106252
0.0421546
0.219029
-0.148074
0.0788955
0.288036
-0.184656
0.11565
0.346016
-0.215036
0.157056
0.395735
-0.239242
0.189522
-0.258651
0.235189
0.419198
0.000940354
0.00915646
0.0239034
-0.0165804
0.0729473
-0.0695092
0.134131
-0.122818
0.193787
-0.165908
0.242794
-0.197081
0.277751
-0.219613
0.299472
-0.236758
0.312894
-0.252664
-0.270572
0.324815
0.00815218
0.00100428
0.0489431
-0.0573713
0.103056
-0.123622
0.150265
-0.170027
0.182239
-0.197883
0.200856
-0.215698
0.213014
-0.231771
0.225396
-0.24914
0.242102
-0.26937
-0.293165
0.264695
0.0192554
-0.0182511
0.0657193
-0.103835
0.104244
-0.162147
0.126826
-0.192609
0.139208
-0.210264
0.14945
-0.22594
0.161216
-0.243537
0.173438
-0.261363
0.183878
-0.27981
-0.300642
0.191356
0.0279473
-0.0461984
0.0630275
-0.138915
0.0828275
-0.181947
0.0922441
-0.202025
0.0982513
-0.216272
0.103176
-0.230865
0.106327
-0.246688
0.10787
-0.262906
0.109963
-0.281903
0.11383
-0.304509
-0.0109395
0.0130583
-0.00211881
-0.0282179
0.0209044
-0.00362604
-0.046661
0.0231458
-0.00470275
-0.0647816
0.0245405
-0.00641989
-0.0823555
0.026604
-0.00903009
-0.09862
0.0286378
-0.0123734
-0.114951
0.0325979
-0.0162665
-0.126645
0.0325264
-0.0208328
-0.138748
0.0379803
-0.0258771
0.0349893
-0.143489
-0.0302484
-0.00323206
0.0162904
-0.010743
0.0284154
-0.0193575
0.0317602
-0.0262643
0.0314473
-0.0306126
0.0309523
-0.0296665
0.0276918
-0.0261634
0.0290948
-0.0130536
0.0194167
0.00539274
0.0195339
0.00360763
0.0367744
0.00290047
0.0133899
0.00516655
0.0261493
0.0073664
0.0295604
0.0117467
0.027067
0.0205537
0.0221453
0.0364449
0.0118005
0.0599208
0.0056189
0.0988725
-0.0195351
0.144821
-0.0264143
-0.0675136
0.215942
0.00383578
0.00955414
0.0100373
0.0199478
0.0182467
0.021351
0.0307282
0.0145856
0.0518528
0.00102069
0.0853756
-0.0217222
0.133853
-0.0428586
0.198043
-0.0837254
0.275508
-0.103879
-0.15806
0.366054
0.000710787
0.00564445
0.0187
0.0453048
0.0884801
0.145653
0.218445
0.291776
0.377419
0.454549
-0.13883
0.0451158
-0.0497752
-0.123847
0.0480155
-0.0629983
-0.100472
0.0457765
-0.0691513
-0.0635788
0.0337512
-0.0706444
-0.0122108
0.00171244
-0.0530805
0.0507651
-0.050686
-0.0122899
0.124525
-0.126765
0.0530057
0.199808
-0.207749
0.132466
0.26669
-0.254857
0.187975
0.316702
-0.251355
0.201343
0.350816
-0.208395
0.174281
0.373829
-0.16251
0.139497
0.390385
-0.120165
0.103609
0.403749
-0.10255
0.0891861
0.413793
-0.0810064
0.0709624
0.419368
-0.0808746
0.0752994
0.420644
-0.062958
0.0616817
0.420061
-0.0743352
0.0749188
0.419755
-0.0564514
0.0567573
0.420539
-0.0671052
0.0663207
0.421751
-0.0393832
0.0381713
0.42238
-0.0416566
0.0410276
0.421772
-0.00338711
0.00399575
0.420112
-0.00377194
0.0054311
0.0477063
-0.0449826
0.0512378
0.0306524
0.0727227
0.0265306
0.100515
0.0179837
0.136811
-0.00254442
0.179362
-0.0408384
0.22726
-0.0985845
0.276756
-0.176261
0.321706
-0.252698
0.354481
-0.287632
0.376093
-0.272968
0.39337
-0.225672
0.409097
-0.178237
0.422457
-0.133526
0.431886
-0.111979
0.437958
-0.0870783
0.440629
-0.083545
0.439365
-0.0616941
0.434984
-0.0699544
0.429819
-0.0512869
0.425845
-0.063131
0.42362
-0.0371577
0.42257
-0.0406071
0.421547
-0.00236433
0.420329
-0.00255342
0.049709
0.227915
0.0186794
0.245458
0.00898712
0.268035
-0.00459238
0.295242
-0.0297523
0.323945
-0.0695414
0.350913
-0.125552
0.371704
-0.197052
0.381126
-0.26212
0.376024
-0.28253
0.364726
-0.261669
0.359233
-0.220179
0.363928
-0.182932
0.374425
-0.144022
0.385965
-0.123519
0.396423
-0.0975364
0.405554
-0.0926753
0.41261
-0.0687503
0.416828
-0.0741731
0.418459
-0.0529174
0.418614
-0.0632863
0.418511
-0.037054
0.418796
-0.040893
0.419071
-0.00263928
0.419462
-0.00294449
0.049898
0.371933
0.0128003
0.378589
0.00233116
0.388045
-0.0140481
0.399591
-0.0412983
0.408738
-0.0786891
0.412648
-0.129461
0.404884
-0.189289
0.37852
-0.235756
0.346729
-0.250739
0.324185
-0.239126
0.316909
-0.212903
0.321829
-0.187851
0.333507
-0.155701
0.347171
-0.137183
0.360191
-0.110557
0.372178
-0.104662
0.382948
-0.0795199
0.392155
-0.0833798
0.399215
-0.0599778
0.404279
-0.0683509
0.408051
-0.0408255
0.411402
-0.0442445
0.414404
-0.00564068
0.417521
-0.00606187
0.0471945
0.451636
0.0157125
0.449003
0.00496461
0.445375
-0.0104201
0.438501
-0.0344241
0.42698
-0.0671684
0.407638
-0.110119
0.375595
-0.157247
0.333952
-0.194112
0.295374
-0.212162
0.276069
-0.21982
0.276064
-0.212898
0.288108
-0.199895
0.305108
-0.172701
0.322469
-0.154544
0.337694
-0.125781
0.350892
-0.11786
0.362319
-0.090947
0.372302
-0.0933631
0.380965
-0.0686408
0.388333
-0.0757191
0.395072
-0.0475639
0.40157
-0.0507429
0.407999
-0.0120697
0.414645
-0.012708
0.0406218
0.478325
0.0167153
-0.479327
0.479568
0.00372094
0.482019
-0.0128705
0.482259
-0.0346648
0.477839
-0.0627477
0.465902
-0.0981827
0.444322
-0.135666
0.419204
-0.168993
0.398478
-0.191436
0.384398
-0.20574
0.375092
-0.203593
0.368682
-0.193485
0.365626
-0.169645
0.365052
-0.15397
0.366163
-0.126893
0.36782
-0.119518
0.369948
-0.0930749
0.37181
-0.0952253
0.37327
-0.0701006
0.374014
-0.0764627
0.374451
-0.0480016
0.374728
-0.0510201
0.375171
-0.0125125
0.375818
-0.0133541
0.0398355
0.530752
0.0151476
-0.529184
0.533119
0.00135418
0.534605
-0.0143569
0.534007
-0.0340668
0.529717
-0.0584573
0.519563
-0.0880293
0.503768
-0.119872
0.485557
-0.150782
0.467718
-0.173597
0.450578
-0.1886
0.435896
-0.188911
0.425353
-0.182942
0.419879
-0.164171
0.418559
-0.15265
0.4197
-0.128034
0.421889
-0.121706
0.424502
-0.0956878
0.426935
-0.0976581
0.4288
-0.0719655
0.430032
-0.0776942
0.430773
-0.0487435
0.431349
-0.0515952
0.431926
-0.0130904
0.432657
-0.0140852
0.0388507
0.597028
0.0112344
-0.593114
0.59907
-0.000687791
0.600218
-0.0155056
0.599281
-0.03313
0.595152
-0.0543279
0.586602
-0.0794791
0.57312
-0.10639
0.556109
-0.133771
0.537227
-0.154715
0.518343
-0.169715
0.50228
-0.172848
0.491145
-0.171807
0.485147
-0.158173
0.48311
-0.150613
0.483684
-0.128607
0.48584
-0.123863
0.488891
-0.0987388
0.491834
-0.100601
0.494088
-0.0742193
0.495379
-0.0789854
0.4962
-0.049564
0.496738
-0.0521338
0.497459
-0.0138116
0.498336
-0.0149615
0.0377003
0.672797
0.00721991
-0.668782
0.675243
-0.00313392
0.675946
-0.0162091
0.674798
-0.0319821
0.670747
-0.050277
0.662917
-0.0716492
0.650592
-0.0940639
0.634528
-0.117707
0.617031
-0.137218
0.600421
-0.153105
0.586598
-0.159026
0.576539
-0.161747
0.570227
-0.151861
0.567179
-0.147565
0.566311
-0.127739
0.566783
-0.124335
0.567985
-0.0999408
0.569502
-0.102119
0.570746
-0.0754627
0.571618
-0.0798572
0.572182
-0.0501284
0.572671
-0.0526228
0.573308
-0.0144481
0.574042
-0.0156961
0.0363023
0.758752
0.00318327
-0.754716
0.761464
-0.00584571
0.762433
-0.0171777
0.761336
-0.0308857
0.757618
-0.046559
0.750598
-0.0646292
0.740022
-0.0834877
0.726667
-0.104352
0.711899
-0.12245
0.696872
-0.138078
0.682992
-0.145146
0.671691
-0.150446
0.66319
-0.143361
0.65814
-0.142515
0.655942
-0.125541
0.655752
-0.124145
0.656335
-0.100524
0.657281
-0.103064
0.65823
-0.076412
0.658785
-0.0804123
0.659449
-0.0507919
0.6598
-0.052974
0.660724
-0.0153728
0.661773
-0.0167447
0.0346763
0.85867
-0.000317438
-0.85517
0.86106
-0.00823562
0.861902
-0.0180191
0.860927
-0.0299114
0.857649
-0.0432802
0.851733
-0.0587135
0.843025
-0.0747796
0.831607
-0.0929344
0.818119
-0.108961
0.803985
-0.123945
0.790261
-0.131422
0.779112
-0.139297
0.770747
-0.134996
0.765051
-0.136819
0.761338
-0.121828
0.759702
-0.122509
0.759524
-0.100346
0.760122
-0.103662
0.760778
-0.0770679
0.76122
-0.0808544
0.761574
-0.0511465
0.761806
-0.053206
0.762332
-0.0158987
0.762826
-0.0172388
0.0328956
0.973678
-0.00336814
-0.970627
0.975799
-0.010357
0.97664
-0.0188599
0.975922
-0.0291938
0.973351
-0.0407088
0.968604
-0.0539666
0.961499
-0.067674
0.952068
-0.0835042
0.940587
-0.0974796
0.928434
-0.111792
0.91655
-0.119537
0.905964
-0.128711
0.896805
-0.125836
0.890125
-0.130139
0.88553
-0.117234
0.882875
-0.119854
0.881056
-0.0985266
0.879947
-0.102553
0.879255
-0.0763756
0.87845
-0.0800502
0.878445
-0.0511413
0.878114
-0.0528752
0.879146
-0.0169307
0.880277
-0.01837
0.0305327
1.10986
-0.00559108
-1.10763
1.11135
-0.0118462
1.11183
-0.0193402
1.11108
-0.0284469
1.10881
-0.038435
1.10483
-0.0499951
1.09896
-0.0617963
1.09129
-0.075834
1.08186
-0.088058
1.07152
-0.101446
1.06047
-0.108494
1.05018
-0.118422
1.04107
-0.116725
1.03375
-0.122811
1.02754
-0.111025
1.0232
-0.115518
1.02017
-0.0954943
1.01842
-0.100809
1.01736
-0.0753071
1.0163
-0.0789946
1.01591
-0.0507487
1.01533
-0.0522964
1.01541
-0.0170064
1.01539
-0.0183499
0.0285122
1.26665
-0.00744343
-1.26479
1.26796
-0.0131605
1.26852
-0.0198959
1.26811
-0.0280375
1.26652
-0.0368421
1.26362
-0.0470998
1.25916
-0.0573355
1.2532
-0.069873
1.24555
-0.080405
1.2369
-0.0927989
1.22737
-0.0989688
1.21804
-0.109091
1.20888
-0.107561
1.20113
-0.115067
1.19431
-0.104195
1.18908
-0.110297
1.18435
-0.0907643
1.18051
-0.0969676
1.17753
-0.0723212
1.17448
-0.0759433
1.17305
-0.0493267
1.17126
-0.0505026
1.17211
-0.0178516
1.17301
-0.0192555
0.0250561
1.45718
-0.00828177
-1.45634
1.45764
-0.013618
1.45749
-0.0197474
1.4566
-0.0271491
1.4548
-0.0350404
1.45203
-0.0443369
1.44802
-0.0533224
1.44286
-0.0647144
1.43631
-0.0738486
1.42888
-0.0853714
1.42035
-0.0904434
1.41173
-0.100472
1.40276
-0.0985901
1.39464
-0.106946
1.38652
-0.0960769
1.37973
-0.103508
1.37351
-0.0845435
1.3684
-0.0918575
1.36445
-0.0683674
1.36058
-0.0720766
1.35834
-0.0470827
1.35582
-0.0479853
1.35484
-0.016868
1.35377
-0.0181938
0.0228993
1.67829
-0.00909686
-1.67748
1.67869
-0.0140128
1.67854
-0.0196041
1.6778
-0.0264075
1.67634
-0.0335769
1.67411
-0.0421106
1.67086
-0.0500694
1.66663
-0.0604821
1.66115
-0.0683654
1.65489
-0.0791203
1.64734
-0.0828907
1.63942
-0.092552
1.63035
-0.0895203
1.62165
-0.0982424
1.61223
-0.0866557
1.60402
-0.095302
1.59556
-0.0760854
1.58754
-0.0838305
1.58086
-0.061696
1.57381
-0.0650213
1.57004
-0.0433089
1.56551
-0.0434601
1.5655
-0.0168586
1.56553
-0.0182189
0.0181215
1.95225
-0.00839088
-1.95295
1.95115
-0.0129152
1.94959
-0.018051
1.9475
-0.0243088
1.94479
-0.0308701
1.94145
-0.0387758
1.93727
-0.0458827
1.93226
-0.0554715
1.92625
-0.0623599
1.9195
-0.0723655
1.91163
-0.0750209
1.90316
-0.0840813
1.89333
-0.0796993
1.88348
-0.088387
1.87252
-0.0756978
1.86195
-0.0847314
1.85122
-0.0653526
1.84122
-0.0738313
1.83281
-0.0532833
1.82427
-0.0564823
1.81876
-0.0377971
1.81258
-0.0372857
1.80982
-0.0140962
1.80687
-0.0152733
0.0156152
2.29836
-0.00704918
-2.29971
2.29631
-0.0108572
2.29359
-0.0153368
2.29003
-0.0207482
2.28577
-0.026604
2.28058
-0.0335876
2.27461
-0.0399171
2.26749
-0.0483498
2.2594
-0.0542715
2.25023
-0.0631917
2.23994
-0.064732
2.2283
-0.0724403
2.2153
-0.066704
2.20114
-0.0742249
2.18586
-0.0604202
2.17011
-0.0689739
2.15522
-0.0504636
2.13911
-0.0577211
2.12651
-0.0406887
2.11191
-0.0418806
2.10368
-0.0295636
2.09437
-0.0279826
2.0918
-0.0115261
2.08968
-0.0131513
0.00954885
2.70945
-0.00365756
-2.71284
2.70494
-0.00635105
2.69922
-0.00961631
2.69206
-0.0135878
2.68367
-0.0182103
2.67377
-0.023687
2.66311
-0.0292612
2.651
-0.0362358
2.63806
-0.0413309
2.62385
-0.0489827
2.60883
-0.0497093
2.59201
-0.055622
2.57504
-0.0497353
2.55534
-0.054528
2.53584
-0.040915
2.51529
-0.048424
2.49686
-0.0320416
2.47555
-0.0364103
2.45898
-0.024114
2.44169
-0.0245961
2.43193
-0.0198024
2.42083
-0.0168837
2.4157
-0.00638846
2.40998
-0.00743308
0.0061285
3.47379
-3.47745
3.46744
3.45783
3.44424
3.42603
3.40234
3.37308
3.33685
3.29551
3.24653
3.19682
3.1412
3.09147
3.03694
2.99602
2.9476
2.91556
2.87915
2.85503
2.83044
2.81063
2.79375
2.78736
2.77993
0.40692
0.104538
-0.397627
0.423996
0.174279
0.432612
0.256079
0.448939
0.308488
0.388809
0.463571
0.0950987
-0.454132
0.477983
0.159868
0.494677
0.239385
0.506476
0.296689
0.3661
0.529603
0.0854741
-0.519978
0.540595
0.148875
0.557728
0.222252
0.572305
0.282113
0.345291
0.604802
0.0755206
-0.594848
0.615411
0.138265
0.631144
0.206519
0.648173
0.265084
0.324681
0.691463
0.0664841
-0.682426
0.702376
0.127352
0.717059
0.191836
0.734076
0.248067
0.304042
0.791718
0.0582482
-0.783482
0.802255
0.116816
0.816833
0.177258
0.833985
0.230915
0.282857
0.906597
0.0510893
-0.899438
0.916883
0.10653
0.931574
0.162567
0.949112
0.213377
0.261342
1.04211
0.0443743
-1.0354
1.05219
0.0964545
1.06693
0.14783
1.08518
0.195127
0.238883
1.19658
0.0384914
-1.1907
1.20658
0.0864489
1.22172
0.132698
1.24104
0.175807
0.215124
1.38397
0.0331547
-1.37864
1.39455
0.0758754
1.41036
0.116886
1.43094
0.155222
0.189728
1.59895
0.0278585
-1.59365
1.61001
0.0648065
1.62693
0.0999711
1.64939
0.132762
0.16164
1.86647
0.0232166
-1.86183
1.87821
0.0530639
1.89698
0.0812047
1.92208
0.10766
0.13077
2.20269
0.0179026
-2.19737
2.21593
0.0398162
2.23681
0.0603295
2.26497
0.0795038
0.0960308
2.59811
0.0119454
-2.59216
2.61372
0.024207
2.63845
0.0356041
2.67179
0.0461676
0.0549756
3.3165
-3.30455
3.34071
3.37631
3.42248
0.181125
0.248417
-0.223213
-0.206329
0.157578
0.232846
-0.209299
0.132591
0.220761
-0.195773
0.106507
0.207468
-0.181385
0.0826528
0.19375
-0.169895
0.0614005
0.183294
-0.162041
0.0413822
0.175515
-0.155497
0.0218245
0.170143
-0.150585
0.00550675
0.161224
-0.144906
0.110807
-0.1053
0.129087
0.2761
-0.156769
0.106816
0.255116
0.0881959
0.239381
0.0702142
0.22545
0.0523401
0.211624
0.0354286
0.200205
0.019986
0.190958
0.00621714
0.183912
-0.00315447
0.170596
0.107653
0.0733087
0.291925
-0.0891342
0.0569662
0.271459
0.0422411
0.254106
0.0287629
0.238928
0.0165345
0.223852
0.0057331
0.211007
-0.00426484
0.200956
-0.0119133
0.19156
-0.0118638
0.170546
0.0957888
0.008672
0.30342
-0.0201669
-0.000235575
0.280367
-0.00822097
0.262091
-0.0151967
0.245904
-0.0214832
0.230139
-0.0271404
0.216664
-0.0312604
0.205076
-0.0311082
0.191408
-0.0211509
0.160589
0.0746378
-0.0591565
0.0580676
-0.0606925
-0.0615072
-0.062291
-0.0630169
-0.0626248
-0.0595745
-0.0501131
-0.0284394
0.332127
0.0612866
-0.380067
-0.0133469
0.28726
0.0556563
-0.0107896
0.244989
0.0507721
-0.0085012
0.205047
0.0464384
-0.00649637
0.167169
0.042639
-0.00476094
0.130941
0.039506
-0.0032779
0.0959363
0.0370226
-0.00201753
0.0615822
0.0353437
-0.000989601
0.0270414
0.0346872
-0.000146395
0.0270653
-2.39641e-05
0.320057
0.107502
-0.366272
0.276526
0.0991865
0.235425
0.0918735
0.196514
0.0853497
0.159671
0.0794816
0.124553
0.0746245
0.0908101
0.0707652
0.0579008
0.068253
0.0250586
0.0675295
0.0521239
0.297441
0.150351
-0.34029
0.257378
0.139249
0.219738
0.129514
0.183713
0.121374
0.149016
0.114179
0.115714
0.107926
0.0837116
0.102768
0.0527385
0.0992261
0.0226409
0.097627
0.0747648
0.263303
0.190823
-0.303774
0.22524
0.177312
0.191267
0.163487
0.160297
0.152345
0.130362
0.144113
0.100937
0.137352
0.0724366
0.131268
0.0446477
0.127015
0.0183766
0.123898
0.0931414
0.224752
-0.257143
0.192765
0.160479
0.131438
0.105656
0.0809667
0.0567374
0.0331672
0.0121589
0.418201
0.385946
-0.386332
0.430578
0.314564
-0.326941
0.434318
0.233161
-0.236901
0.440244
0.164448
-0.170373
0.433817
0.12914
-0.122713
0.43752
0.107232
-0.110935
0.433228
0.0965994
-0.0923066
0.436338
0.0854033
-0.0885135
0.431471
0.0785554
-0.073689
0.429801
0.0670822
-0.0654119
0.421813
0.060754
-0.0527662
0.415466
0.0500688
-0.043722
0.404569
0.0450819
-0.0341841
0.394042
0.0373583
-0.0268319
0.0344552
-0.0204796
0.414616
0.389145
0.42373
0.30545
0.425845
0.231046
0.431258
0.159035
0.42452
0.135878
0.427004
0.104747
0.421484
0.102119
0.422903
0.0839842
0.417207
0.0842515
0.414887
0.069402
0.407193
0.0684481
0.400738
0.0565245
0.390185
0.0556349
0.379988
0.0475545
0.0481721
0.409917
0.397044
0.413937
0.301429
0.413094
0.231889
0.415993
0.156136
0.408172
0.1437
0.40852
0.104399
0.401286
0.109353
0.400598
0.0846717
0.392966
0.0918837
0.389444
0.0729245
0.380633
0.0772588
0.373912
0.0632459
0.363169
0.0663773
0.353506
0.0572176
0.0613879
0.403971
0.410888
0.401487
0.303914
0.396507
0.236869
0.395124
0.157519
0.385456
0.153368
0.382588
0.107268
0.373622
0.118318
0.369977
0.0883175
0.361409
0.100452
0.355391
0.078942
0.346178
0.0864724
0.338024
0.0713997
0.327076
0.0773247
0.316912
0.0673821
0.0745252
0.396666
0.432037
0.386378
0.314202
0.376825
0.246422
0.368496
0.165847
0.357198
0.164666
0.349081
0.115385
0.338213
0.129187
0.330429
0.0961008
0.319883
0.110998
0.310102
0.0887233
0.299199
0.0973756
0.289701
0.0808978
0.278639
0.0883862
0.269095
0.0769263
0.0864777
0.369904
0.434869
0.37223
0.311876
0.372363
0.24629
0.373942
0.164268
0.369889
0.168719
0.369866
0.115407
0.366429
0.132624
0.365203
0.0973264
0.360423
0.115778
0.358421
0.0907254
0.353307
0.102489
0.352531
0.0816741
0.349341
0.0915758
0.352516
0.073751
0.0808042
0.35819
0.42614
0.437047
0.428155
0.309861
0.427988
0.246457
0.43021
0.162047
0.426272
0.172657
0.425504
0.116175
0.423749
0.134379
0.421194
0.0998815
0.418222
0.11875
0.415281
0.093666
0.413529
0.104242
0.411885
0.0833175
0.414589
0.0888722
0.415528
0.0728124
0.0744946
0.421837
0.490965
0.438268
0.493381
0.307446
0.492216
0.247622
0.493658
0.160605
0.492093
0.174221
0.490143
0.118126
0.489994
0.134528
0.48631
0.103566
0.485611
0.119449
0.4827
0.0965766
0.483605
0.103337
0.482616
0.0843063
0.486467
0.0850209
0.488917
0.0703622
0.0686453
0.494767
0.565084
0.438764
0.568577
0.303953
0.567275
0.248924
0.56665
0.16123
0.568393
0.172478
0.565583
0.120936
0.565981
0.13413
0.5623
0.107247
0.562746
0.119004
0.561377
0.097945
0.563851
0.100864
0.564957
0.0831997
0.569173
0.0808055
0.57316
0.0663752
0.0627888
0.579016
0.649912
0.43877
0.653854
0.300011
0.653502
0.249276
0.651765
0.162966
0.655924
0.16832
0.653295
0.123565
0.653884
0.13354
0.651556
0.109575
0.653218
0.117342
0.653522
0.0976409
0.6573
0.0970862
0.660188
0.0803114
0.665152
0.0758417
0.669553
0.061974
0.0571757
0.675166
0.747515
0.438086
0.750833
0.296693
0.753041
0.247068
0.751209
0.164798
0.75648
0.163049
0.754795
0.12525
0.756503
0.131832
0.755757
0.110321
0.759326
0.113774
0.761064
0.0959028
0.765819
0.0923308
0.769645
0.0764856
0.775102
0.0703846
0.779651
0.0574249
0.0516405
0.785186
0.860198
0.436084
0.862647
0.294245
0.867567
0.242147
0.866822
0.165544
0.873138
0.156732
0.873441
0.124947
0.877119
0.128154
0.877923
0.109517
0.882745
0.108951
0.885721
0.0929275
0.891112
0.086939
0.895456
0.0721424
0.901055
0.064785
0.90554
0.0529399
0.0466722
0.910509
0.989928
0.432324
0.992431
0.291741
1.00005
0.234526
1.00109
0.164506
1.00842
0.149404
1.01081
0.122554
1.01672
0.122242
1.01973
0.106508
1.02614
0.102542
1.03093
0.0881398
1.03733
0.0805405
1.04238
0.0670877
1.04826
0.0589086
1.05316
0.0480363
0.0414277
1.05841
1.13921
0.426332
1.1428
0.288156
1.15307
0.224255
1.15706
0.160518
1.16606
0.140398
1.17127
0.11735
1.17917
0.114336
1.18454
0.10114
1.19182
0.0952632
1.19765
0.0823116
1.20425
0.0739428
1.20955
0.06178
1.21498
0.0534859
1.21938
0.0436299
0.0371258
1.22368
1.31149
0.417045
1.31888
0.280765
1.33276
0.210378
1.34031
0.152967
1.35174
0.12897
1.35989
0.109204
1.37049
0.103732
1.37869
0.0929378
1.38797
0.0859894
1.39553
0.0747464
1.4033
0.066176
1.40956
0.0555195
1.41559
0.0474523
1.42048
0.0387449
0.0325242
1.42508
1.50968
0.403745
1.52177
0.268677
1.53886
0.193286
1.55199
0.139843
1.56688
0.114076
1.57941
0.0966731
1.59255
0.090595
1.60344
0.0820486
1.61391
0.075513
1.62257
0.0660942
1.63048
0.0582616
1.63691
0.0490944
1.64253
0.0418236
1.64707
0.0342092
0.0285435
1.65105
1.74538
0.377881
1.76719
0.246872
1.79049
0.169983
1.80781
0.122529
1.8263
0.0955791
1.84215
0.0808303
1.85883
0.0739164
1.87292
0.0679563
1.88636
0.062072
1.89741
0.0550407
1.90735
0.0483291
1.91529
0.0411541
1.92216
0.0349532
1.92754
0.0288213
0.0239777
1.93211
2.02119
0.332619
2.06019
0.207873
2.09499
0.135188
2.12403
0.0934864
2.1506
0.0690084
2.17387
0.0575552
2.19539
0.0524047
2.21392
0.0494189
2.23014
0.0458528
2.24373
0.0414481
2.25516
0.0369042
2.26446
0.0318515
2.27206
0.0273565
2.27811
0.0227655
0.0190595
2.28303
2.35178
0.251417
2.40684
0.152807
2.45092
0.0911094
2.48666
0.0577514
2.51755
0.0381122
2.54476
0.030351
2.57036
0.0268005
2.59365
0.0261314
2.61476
0.0247428
2.63303
0.0231714
2.64883
0.0211073
2.66196
0.0187212
2.67291
0.0164108
2.68167
0.0140019
0.011925
2.68881
2.86057
3.01338
3.10449
3.16224
3.20035
3.2307
3.2575
3.28364
3.30838
3.33155
3.35266
3.37138
3.38779
3.40179
3.41372
0.364629
-0.212767
0.372179
-0.16432
0.377729
-0.0946844
0.387293
-0.0297304
0.047733
0.42915
-0.22008
0.431466
-0.166636
0.437487
-0.100705
0.443066
-0.0353092
0.0366668
0.498974
-0.224288
0.499439
-0.1671
0.505459
-0.106726
0.510439
-0.0402895
0.0271278
0.579852
-0.225123
0.580565
-0.167813
0.583921
-0.110082
0.587724
-0.0440926
0.0200041
0.672592
-0.22255
0.671971
-0.167192
0.672925
-0.111036
0.67638
-0.0475478
0.0139578
0.779627
-0.21699
0.777073
-0.164638
0.776361
-0.110324
0.778718
-0.0499049
0.00919394
0.901997
-0.208478
0.89686
-0.159501
0.894304
-0.107769
0.895399
-0.051
0.00515534
1.04647
-0.196538
1.03829
-0.15132
1.03345
-0.102931
1.03274
-0.0502867
0.00249289
1.2085
-0.181359
1.19745
-0.140264
1.19047
-0.0959498
1.18825
-0.0480686
4.59222e-05
1.40614
-0.162423
1.39183
-0.12595
1.38227
-0.0863948
1.3783
-0.0440913
-0.000293967
1.62815
-0.139523
1.61061
-0.108405
1.59871
-0.0744961
1.59277
-0.0381531
-0.00117486
1.90551
-0.112924
1.88482
-0.0877174
1.8707
-0.0603723
1.86325
-0.030704
0.000246852
2.25077
-0.0806574
2.22552
-0.0624692
2.20758
-0.0424308
2.19795
-0.0210825
0.000828744
2.65264
-0.0444898
2.62433
-0.0341607
2.60455
-0.0226496
2.59379
-0.0103239
0.002461
3.36923
3.33507
3.31242
3.30209
0.00709061
-0.00043227
-0.00665834
0.00752838
-0.000437774
0.00224393
0.00528445
-0.0138941
0.016138
0.0271893
-0.0410834
0.00626703
0.00695201
-0.0136513
-0.0109802
0.0168095
-0.0469737
0.041278
-0.0950514
0.0642157
0.0675009
-0.135363
-0.0122674
0.0295009
-0.0102815
-0.0552001
0.0597421
-0.111476
0.0975535
-0.157486
0.110226
0.0917454
-0.18173
-0.0446578
0.0706267
0.00353194
-0.105222
0.120306
-0.161887
0.154219
-0.192415
0.140754
0.102592
-0.203262
-0.0838299
0.128198
0.026259
-0.150364
0.186841
-0.195676
0.199531
-0.211793
0.15687
0.108905
-0.218105
-0.124262
0.195581
0.0568782
-0.187447
0.250026
-0.217583
0.229667
-0.226506
0.165793
0.115275
-0.232876
-0.163276
0.273323
0.0855342
-0.216829
0.303578
-0.233434
0.246273
-0.242479
0.174838
0.121287
-0.248491
-0.199361
0.342606
0.130078
-0.238687
0.342904
-0.248497
0.256083
-0.261665
0.188006
0.124963
-0.26534
-0.22875
0.416558
0.154798
-0.257704
0.371858
-0.267011
0.265389
-0.283236
0.204231
0.125691
-0.283964
-0.260279
0.21265
0.464187
-0.273394
0.384973
-0.287903
0.279898
-0.303943
0.220271
0.12339
-0.301642
0.0124542
-0.014573
0.0193038
-0.00684962
0.0169237
0.00238015
0.010466
0.00645766
0.00380765
0.0182003
-0.0363994
0.0309329
-0.0195822
0.0308948
0.00241823
0.0221747
0.0151777
0.012331
0.0184803
-0.0595824
0.0326732
-0.0337751
0.0334179
0.00167354
0.0237745
0.0248211
0.0258241
0.0170869
-0.0830892
0.0306233
-0.0473115
0.0295872
0.00270971
0.0177561
0.0366522
0.0471121
0.0150542
-0.107174
0.0281778
-0.0604351
0.0235563
0.00733122
0.00699772
0.0532108
0.0803688
0.0119591
-0.131506
0.0229964
-0.0714724
0.0139447
0.0163829
-0.0113954
0.0785509
0.125852
0.00936855
-0.157141
0.0223581
-0.0844619
0.00960767
0.0291333
-0.0242142
0.112373
0.187172
0.00381765
-0.181792
0.0125789
-0.0932231
-0.0105771
0.0522893
-0.0611051
0.162901
0.256144
0.00123734
-0.208906
0.0123021
-0.104288
-0.0147576
0.079349
-0.0700367
0.21818
0.340906
-0.0068514
-0.232303
-0.000244394
-0.110895
-0.0439153
0.12302
-0.123112
0.297376
0.430445
-0.0374968
-0.244581
-0.00814372
-0.140248
0.0138454
0.101031
0.0310744
0.280147
0.415629
0.0458903
-0.0598227
-0.247757
-0.0315024
-0.168568
-0.00498258
0.0745111
0.0166781
0.258486
0.394743
0.0375632
-0.075972
-0.240936
-0.0564791
-0.188061
-0.0275103
0.0455423
-0.00312207
0.234098
0.37057
0.0210519
-0.0907195
-0.220861
-0.0807212
-0.19806
-0.0534357
0.0182568
-0.0280135
0.208676
0.345384
-0.00282805
-0.0900055
-0.183936
-0.0949662
-0.193099
-0.0742159
-0.00249355
-0.051803
0.186263
0.320834
-0.0272532
-0.0672882
-0.128938
-0.091248
-0.169139
-0.0841199
-0.00962173
-0.0726203
0.174764
0.300877
-0.0526626
-0.0175495
-0.0583826
-0.0639337
-0.122755
-0.0762564
0.00270098
-0.0784438
0.176951
0.289197
-0.0667646
0.0519109
0.0221722
-0.0145029
-0.0563411
-0.0502705
0.0384685
-0.0677516
0.194432
0.289286
-0.0678405
0.108945
0.101202
0.0301625
0.0224413
-0.0271583
0.0957893
-0.0600289
0.227303
0.299997
-0.0707397
0.132175
0.170371
0.0494867
0.105129
-0.0208442
0.16612
-0.0619274
0.268386
0.312462
-0.0743925
0.117151
0.227501
0.0404145
0.181866
-0.0288554
0.23539
-0.0681857
0.307716
0.322028
-0.0777512
0.0929433
0.274055
0.0291889
0.24562
-0.0279501
0.292529
-0.0586636
0.33843
0.330115
-0.0667506
0.0665459
0.311118
0.0171035
0.295062
-0.0241714
0.333804
-0.0443488
0.358607
0.337379
-0.0516134
0.0596381
0.340666
0.0225584
0.332142
-0.00532097
0.361683
-0.0175712
0.370858
0.343493
-0.023685
0.0486198
0.363009
0.0222853
0.358477
0.00388675
0.380082
-0.00391004
0.378654
0.349641
-0.0100579
0.0594631
0.378845
0.0416172
0.376322
0.0298746
0.391825
0.0241457
0.384383
0.356376
0.0174103
0.0506737
0.389853
0.0383449
0.388651
0.0312751
0.398894
0.0268452
0.388813
0.363519
0.0197023
0.0660154
0.398756
0.0565553
0.398111
0.0521347
0.403315
0.0485265
0.392421
0.370402
0.0416432
0.0487256
0.406788
0.0407337
0.406103
0.0372684
0.40678
0.0339377
0.395752
0.376826
0.0275142
0.059512
0.413597
0.0533089
0.412306
0.0504513
0.409638
0.0471567
0.399047
0.382848
0.0411347
0.0333711
0.418397
0.0292345
0.416443
0.0268939
0.411978
0.0236811
0.402259
0.388591
0.0179383
0.0387585
0.420666
0.0368649
0.418337
0.0353281
0.413515
0.0322942
0.405293
0.394323
0.0265614
0.00396336
0.420698
0.00380135
0.418499
0.0029039
0.414413
-1.52977e-08
0.408197
0.400172
-0.00584894
0.00697068
0.419159
0.00801703
0.417452
0.00767602
0.414754
0.00485182
0.411022
0.406429
-0.00140507
-0.0423624
-0.0406657
-0.040883
-0.0440048
-0.0508697
0.052583
0.49524
-0.501933
0.0504884
0.551836
-0.549742
0.0466768
0.606608
-0.602796
0.0428703
0.671941
-0.668135
0.0396454
0.74485
-0.741625
0.0366235
0.828306
-0.825284
0.0341139
0.924891
-0.922382
0.0321749
1.03373
-1.03179
0.0309338
1.15747
-1.15623
0.0301043
1.294
-1.29317
0.0297813
1.44524
-1.44491
0.0289296
1.61271
-1.61186
0.0258734
1.77065
-1.76759
0.0207477
1.97682
-1.97169
2.086
-2.06525
0.0418936
0.490909
0.0419899
0.55174
0.0407564
0.607841
0.0399664
0.672731
0.0389277
0.745889
0.0372525
0.829981
0.0356782
0.926466
0.0344115
1.035
0.0336602
1.15822
0.033141
1.29452
0.0328288
1.44555
0.0318314
1.61371
0.0281512
1.77433
0.0220609
1.98291
2.10806
0.0276287
0.484333
0.0313299
0.548039
0.032488
0.606683
0.0353441
0.669875
0.0364568
0.744776
0.0364096
0.830028
0.0361929
0.926682
0.0359933
1.0352
0.0360282
1.15819
0.0360096
1.29454
0.0358349
1.44572
0.0347511
1.61479
0.0304936
1.77859
0.0235374
1.98987
2.1316
0.00933925
0.472165
0.0169437
0.540435
0.0226879
0.600939
0.0289544
0.663609
0.0322217
0.741509
0.0344072
0.827843
0.0359563
0.925133
0.0370994
1.03406
0.0381064
1.15718
0.0387182
1.29393
0.0387269
1.44572
0.037577
1.61594
0.0326212
1.78354
0.0245617
1.99793
2.15616
-0.0127133
0.457625
-0.00100741
0.528729
0.0106346
0.589297
0.0200273
0.654216
0.0261045
0.735432
0.0313271
0.82262
0.0347966
0.921664
0.0375051
1.03135
0.0396142
1.15507
0.0410305
1.29251
0.0413719
1.44537
0.0402651
1.61705
0.0347665
1.78904
0.0258352
2.00686
2.18199
-0.0347934
0.439756
-0.0166238
0.510559
-0.000811208
0.573484
0.0106619
0.642743
0.0199636
0.72613
0.0276788
0.814905
0.0329455
0.916397
0.0375677
1.02672
0.0409549
1.15168
0.0432883
1.29018
0.0439141
1.44475
0.0427097
1.61826
0.0364081
1.79534
0.0263701
2.01689
2.20836
-0.0496395
0.422631
-0.0312838
0.492203
-0.0145937
0.556794
-0.000907399
0.629057
0.0115361
0.713687
0.0218415
0.804599
0.0298633
0.908375
0.0368191
1.01977
0.0415578
1.14695
0.0447988
1.28694
0.0456542
1.44389
0.0443669
1.61954
0.0375711
1.80214
0.0267936
2.02767
2.23516
-0.0551749
0.409966
-0.0405902
0.477619
-0.0257944
0.541998
-0.0113979
0.61466
0.00259282
0.699696
0.0155792
0.791613
0.0266207
0.897334
0.0356825
1.01071
0.0416241
1.141
0.0456508
1.28291
0.0466134
1.44293
0.0451495
1.62101
0.0376415
1.80965
0.0263043
2.03901
2.26146
-0.0617618
0.400988
-0.047721
0.463578
-0.0334143
0.527692
-0.0186634
0.599909
-0.00404962
0.685082
0.0103487
0.777215
0.0225965
0.885086
0.032691
1.00061
0.0395647
1.13413
0.0443553
1.27812
0.045733
1.44155
0.0445114
1.62223
0.0372455
1.81691
0.0261178
2.05014
2.28758
-0.0658422
0.392437
-0.0509203
0.448656
-0.0354934
0.512265
-0.0200769
0.584493
-0.0055264
0.670532
0.0084286
0.76326
0.0203013
0.873213
0.0306683
0.990246
0.0381506
1.12665
0.0435576
1.27272
0.0452414
1.43987
0.0441387
1.62333
0.0363844
1.82467
0.0243524
2.06217
2.31193
-0.066405
0.381091
-0.0507745
0.433025
-0.0355187
0.497009
-0.0210966
0.570071
-0.00768619
0.657121
0.0048583
0.750715
0.0163247
0.861747
0.0264632
0.980107
0.0343238
1.11879
0.0400561
1.26698
0.0422107
1.43771
0.0414759
1.62407
0.0346022
1.83154
0.0237713
2.073
2.3357
-0.0554025
0.369743
-0.0419397
0.419563
-0.0289908
0.48406
-0.0171861
0.558266
-0.00509546
0.64503
0.00572059
0.739899
0.0164286
0.851039