/*--------------------------------*- C++ -*----------------------------------*\
| =========                 |                                                 |
| \\      /  F ield         | OpenFOAM: The Open Source CFD Toolbox           |
|  \\    /   O peration     | Version:  2312                                  |
|   \\  /    A nd           | Website:  www.openfoam.com                      |
|    \\/     M anipulation  |                                                 |
\*---------------------------------------------------------------------------*/
FoamFile
{
    version     2.0;
    format      ascii;
    arch        "LSB;label=32;scalar=64";
    class       surfaceScalarField;
    location    "133";
    object      phi;
}
// * * * * * * * * * * * * * * * * * * * * * * * * * * * * * * * * * * * * * //

dimensions      [0 3 -1 0 0 0 0];

oriented        oriented;

internalField   nonuniform List<scalar> 
10785
(
0.000350358
0.0033257
-0.00367606
0.00376421
0.00221585
-0.0056297
0.0125953
-0.00752251
-0.00130863
0.0294775
-0.0269744
0.0100923
0.0547188
-0.0541784
0.0289371
0.0849864
-0.0842329
0.0539654
0.115038
-0.112119
0.082067
0.140228
-0.134595
0.109405
0.158021
-0.150581
0.132788
0.168573
-0.160917
0.150366
0.173886
-0.167355
0.162042
0.177352
-0.171889
0.168423
0.180874
-0.176033
0.172511
0.185055
-0.178608
0.174428
-0.182396
0.17684
0.190611
0.00042241
0.00290329
0.00545856
-0.00282029
0.0190481
-0.021112
0.0424767
-0.0504031
0.0716276
-0.0833292
0.100072
-0.112677
0.122856
-0.134903
0.138097
-0.149835
0.146885
-0.15937
0.151907
-0.165939
0.155932
-0.17138
0.160657
-0.176613
0.166137
-0.181514
0.173725
-0.186196
-0.191672
0.183001
0.00119315
0.00171014
0.00953776
-0.0111649
0.0289395
-0.0405138
0.0557812
-0.0772447
0.0822682
-0.109816
0.102928
-0.133338
0.116392
-0.148367
0.124389
-0.157832
0.129665
-0.164646
0.134285
-0.170559
0.139086
-0.176182
0.144049
-0.181576
0.149301
-0.186766
0.155086
-0.191981
-0.196973
0.160386
0.00246112
-0.000750981
0.0152381
-0.0239418
0.0384822
-0.063758
0.0632567
-0.102019
0.0827759
-0.129335
0.0955266
-0.146088
0.103326
-0.156166
0.108615
-0.16312
0.112918
-0.168949
0.116781
-0.174422
0.120404
-0.179805
0.124122
-0.185294
0.128387
-0.191031
0.133451
-0.197045
-0.203572
0.14005
0.00417426
-0.00492524
0.0209946
-0.0407621
0.043903
-0.0866664
0.0632094
-0.121326
0.0760219
-0.142148
0.0837202
-0.153787
0.0885312
-0.160977
0.0919558
-0.166545
0.094764
-0.171757
0.0974305
-0.177089
0.100325
-0.1827
0.103658
-0.188627
0.107374
-0.194748
0.111561
-0.201232
-0.207748
0.115737
0.00631027
-0.0112355
0.0250153
-0.0594671
0.04428
-0.105931
0.0578175
-0.134863
0.0657053
-0.150036
0.0700463
-0.158128
0.072656
-0.163587
0.0746087
-0.168498
0.0764381
-0.173587
0.078342
-0.178992
0.0803455
-0.184703
0.0824089
-0.19069
0.0846784
-0.197017
0.08713
-0.203683
-0.210588
0.0899705
0.00830747
-0.019543
0.0260402
-0.0771998
0.0407448
-0.120636
0.0494278
-0.143546
0.0536773
-0.154285
0.0556611
-0.160111
0.0567501
-0.164676
0.057537
-0.169285
0.0581882
-0.174238
0.0587604
-0.179565
0.0593405
-0.185283
0.0600875
-0.191437
0.0610477
-0.197977
0.062247
-0.204882
-0.21206
0.0637183
0.00953193
-0.0290749
0.0244929
-0.0921608
0.0347485
-0.130892
0.039581
-0.148378
0.0411914
-0.155896
0.0413858
-0.160306
0.0410425
-0.164332
0.0404561
-0.168698
0.0397487
-0.173531
0.0390096
-0.178825
0.0383013
-0.184575
0.0376229
-0.190759
0.037022
-0.197376
0.0365502
-0.204411
0.0363697
-0.211879
-0.00238195
0.0133522
-0.0109702
-0.00734596
0.0189604
-0.0139964
-0.0138549
0.0176564
-0.0111475
-0.0214022
0.01441
-0.00686276
-0.0298286
0.00972538
-0.00129901
-0.0385084
0.00288423
0.00579562
-0.0475819
-0.00621995
0.0152934
-0.0566208
-0.0182493
0.0272882
-0.0650871
-0.0332509
0.0417172
-0.0723695
-0.0507779
0.0580603
-0.0777344
-0.0699229
0.0752878
-0.0803101
-0.0894288
0.0920045
-0.0791076
-0.107592
0.10639
-0.0731419
-0.122078
0.116112
-0.131678
-0.0610676
0.119603
-0.00110076
0.014453
-0.00433998
0.0221997
-0.00888607
0.0222025
-0.0141173
0.0196412
-0.0197878
0.0153959
-0.025851
0.00894744
-0.0317977
-0.000273266
-0.0377735
-0.0122735
-0.0434566
-0.0275678
-0.0486309
-0.0456036
-0.0531553
-0.0653985
-0.0571702
-0.0854139
-0.0598001
-0.104962
-0.0622966
-0.119582
-0.132155
-0.0618194
0.000544899
0.0139081
-0.000193394
0.0229379
-0.00185884
0.023868
-0.0037411
0.0215235
-0.00547276
0.0171275
-0.00689936
0.010374
-0.00789543
0.0007228
-0.00791701
-0.0122519
-0.00670804
-0.0287768
-0.0039615
-0.0483501
9.70526e-05
-0.0694571
0.00530855
-0.0906254
0.00856498
-0.108219
0.0119598
-0.122976
-0.130552
0.0103569
0.00194684
0.0119612
0.00371066
0.0211741
0.00504074
0.0225379
0.00657183
0.0199924
0.00878511
0.0149142
0.0119448
0.00721437
0.0164342
-0.00376658
0.0228297
-0.0186474
0.0316074
-0.0375545
0.0430928
-0.0598356
0.0568586
-0.0832228
0.072264
-0.106031
0.0882338
-0.124188
0.102105
-0.136848
-0.143906
0.11546
0.00270082
0.00926039
0.00632566
0.0175493
0.0101269
0.0187367
0.0145621
0.0155572
0.0202195
0.00925678
0.0274728
-3.88548e-05
0.0374151
-0.0137089
0.0504891
-0.0317213
0.0670282
-0.0540936
0.0864337
-0.0792411
0.107482
-0.104271
0.128257
-0.126806
0.147601
-0.143532
0.165244
-0.154491
-0.160117
0.181454
0.00265126
0.00660914
0.00705987
0.0131407
0.0123222
0.0134744
0.0187684
0.00911097
0.027118
0.000907185
0.0389513
-0.0118722
0.0548633
-0.0296209
0.0753826
-0.0522406
0.099612
-0.078323
0.125302
-0.104931
0.150059
-0.129027
0.171522
-0.148269
0.18818
-0.16019
0.201782
-0.168093
-0.167828
0.209492
0.00194374
0.0046654
0.00605943
0.00902498
0.0118406
0.00769323
0.0198953
0.00105621
0.0319971
-0.0111946
0.0494313
-0.0293064
0.0726364
-0.052826
0.100112
-0.0797161
0.128691
-0.106903
0.154801
-0.131041
0.175881
-0.150107
0.190281
-0.162668
0.199859
-0.169769
0.205248
-0.173483
-0.171707
0.209128
0.000989339
0.00438461
0.0107692
0.0219177
0.0396602
0.0643192
0.0935602
0.123249
0.149134
0.168459
0.180394
0.186148
0.18889
0.189836
0.194968
-0.0189688
-0.274182
0.232084
0.0611977
-0.180304
0.100137
0.12628
0.0276899
-0.092772
0.172635
0.228854
-0.27521
0.204201
0.314835
-0.3464
0.196549
0.362687
-0.355035
0.163801
0.395654
-0.362907
0.168343
0.344456
-0.348998
0.205874
0.0730352
-0.110566
0.249335
-0.198738
0.155277
0.267071
-0.249158
0.231422
0.253178
-0.331548
0.34544
0.249502
-0.357115
0.360792
0.25755
-0.416629
0.40858
0.26741
-0.252699
0.24284
0.275086
0.0301141
-0.0377905
0.292064
0.211638
-0.228616
0.298743
0.550991
-0.55767
0.293263
0.447303
-0.441823
0.301223
0.279828
-0.287788
0.3032
-0.0313873
0.0294106
0.301421
-0.614705
0.616484
0.304536
-0.515979
0.512864
0.307668
-0.282098
0.278965
0.327462
0.173425
-0.193219
0.331993
0.942899
-0.947429
0.314431
0.52
-0.502438
0.287793
-0.693451
0.720089
0.292866
-0.602484
0.597411
0.285935
0.322466
-0.315535
0.271412
0.341018
-0.326495
0.264921
-0.0852315
0.0917222
0.264538
-0.100289
0.100672
0.261507
0.0310452
-0.0280142
0.258661
0.0165826
-0.013736
0.255389
-0.00438377
0.00765557
0.253741
0.00479414
-0.00314644
0.00587066
-0.00441807
-0.0575754
-0.278426
-7.04275e-05
-0.237809
0.08188
-0.0542606
0.157663
0.153071
0.208475
0.264022
0.205492
0.365671
0.182704
0.418443
0.197649
0.329511
0.22412
0.0465637
0.253309
-0.227927
0.270805
-0.266654
0.25269
-0.313433
0.248618
-0.353044
0.256146
-0.424156
0.264905
-0.261459
0.271913
0.0231057
0.291
0.192551
0.301652
0.540339
0.294377
0.454578
0.302433
0.271772
0.299718
-0.0286726
0.291289
-0.606275
0.296984
-0.521674
0.300263
-0.285377
0.327516
0.146172
0.341244
0.92917
0.320515
0.54073
0.283596
-0.656532
0.287836
-0.606724
0.287309
0.322993
0.274692
0.353634
0.266125
-0.0766636
0.265682
-0.0998467
0.262978
0.0337495
0.25974
0.0198205
0.256738
-0.00138194
0.255301
0.00623204
0.00737795
-0.0281923
-0.239877
-0.0220438
-0.243957
0.0541933
-0.130498
0.153967
0.0532981
0.215597
0.202393
0.217225
0.364042
0.206027
0.429641
0.228766
0.306772
0.244493
0.0308361
0.256373
-0.239807
0.269431
-0.279711
0.247055
-0.291058
0.238766
-0.344755
0.247291
-0.432681
0.259816
-0.273984
0.267444
0.0154779
0.287565
0.172431
0.303079
0.524825
0.294392
0.463265
0.301131
0.265033
0.293569
-0.0211109
0.278111
-0.590818
0.285985
-0.529548
0.28918
-0.288571
0.322951
0.1124
0.346453
0.905669
0.322959
0.564224
0.277485
-0.611058
0.280298
-0.609537
0.286589
0.316701
0.276265
0.363958
0.265844
-0.0662425
0.265423
-0.0994257
0.263205
0.0359681
0.259694
0.0233308
0.257118
0.00119473
0.256069
0.00728101
0.0087562
0.0613694
-0.185787
0.0085973
-0.191185
0.0383168
-0.160217
0.131937
-0.040322
0.1972
0.13713
0.212102
0.34914
0.219197
0.422546
0.251307
0.274662
0.262626
0.0195169
0.257417
-0.234597
0.265269
-0.287564
0.244747
-0.270535
0.227188
-0.327196
0.232052
-0.437545
0.252479
-0.294411
0.262096
0.00586027
0.280097
0.15443
0.298387
0.506535
0.289653
0.471999
0.295585
0.2591
0.283769
-0.00929435
0.26291
-0.569959
0.271974
-0.538612
0.275092
-0.291689
0.312745
0.0747472
0.344847
0.873566
0.320076
0.588995
0.270031
-0.561013
0.270699
-0.610205
0.283452
0.303948
0.27569
0.371719
0.264033
-0.0545849
0.263763
-0.0991559
0.262174
0.0375568
0.258548
0.0269568
0.256559
0.00318451
0.25607
0.0077693
0.00982616
0.154213
-0.158545
0.0969696
-0.133942
0.0616577
-0.124905
0.104869
-0.0835337
0.170151
0.071848
0.206522
0.312769
0.230019
0.399049
0.266372
0.238309
0.276484
0.0094041
0.257037
-0.21515
0.253479
-0.284006
0.237031
-0.254087
0.212011
-0.302176
0.208691
-0.434224
0.238687
-0.324407
0.253923
-0.00937576
0.271051
0.137303
0.293816
0.48377
0.285227
0.480588
0.288182
0.256145
0.271955
0.00693278
0.245832
-0.543835
0.254616
-0.547396
0.257703
-0.294776
0.298879
0.0335708
0.33998
0.832465
0.314677
0.614298
0.261801
-0.508138
0.259689
-0.608092
0.278496
0.285141
0.273334
0.376882
0.26091
-0.0421602
0.26084
-0.099086
0.259961
0.0384353
0.256392
0.0305259
0.255158
0.00441869
0.25538
0.00754719
0.0104233
0.187154
-0.136207
0.164011
-0.110799
0.127069
-0.0879634
0.11382
-0.0702845
0.151786
0.0338821
0.201446
0.263109
0.238627
0.361868
0.274146
0.20279
0.283129
0.000421289
0.255167
-0.187189
0.240419
-0.269257
0.226844
-0.240512
0.197408
-0.27274
0.183145
-0.419961
0.218212
-0.359474
0.241982
-0.033146
0.257811
0.121474
0.281162
0.460419
0.274909
0.486841
0.277749
0.253305
0.258962
0.0257198
0.227766
-0.512639
0.234807
-0.554437
0.238403
-0.298372
0.280812
-0.00883839
0.327531
0.785746
0.304655
0.637175
0.251943
-0.455426
0.247512
-0.603661
0.271232
0.261421
0.26888
0.379234
0.256451
-0.0297314
0.256742
-0.0993766
0.256655
0.0385218
0.253355
0.0338256
0.25305
0.00472441
0.254108
0.00648852
0.0104028
0.183354
-0.110433
0.1688
-0.0962453
0.161879
-0.081043
0.153957
-0.0623617
0.173687
0.0141516
0.219658
0.217138
0.257579
0.323948
0.283173
0.177196
0.278935
0.00465916
0.246174
-0.154427
0.22385
-0.246933
0.211884
-0.228546
0.182873
-0.243729
0.158474
-0.395562
0.191709
-0.392709
0.226677
-0.0681142
0.244677
0.103474
0.271564
0.433532
0.266564
0.491841
0.267538
0.25233
0.245299
0.0479593
0.209083
-0.476423
0.21307
-0.558423
0.216589
-0.301891
0.261673
-0.0539226
0.31512
0.732299
0.29421
0.658085
0.241339
-0.402555
0.235169
-0.597491
0.262963
0.233627
0.263129
0.379067
0.251016
-0.0176185
0.251696
-0.100057
0.252433
0.037785
0.24962
0.0366391
0.250399
0.00394522
0.252389
0.00449871
0.00963963
0.17516
-0.0906245
0.159239
-0.0803241
0.152503
-0.0743071
0.153786
-0.0636446
0.173688
-0.00575017
0.225761
0.165065
0.269916
0.279793
0.290933
0.156178
0.280752
0.0148407
0.240469
-0.114144
0.210171
-0.216635
0.197014
-0.215389
0.168819
-0.215534
0.136525
-0.363268
0.162401
-0.418585
0.202865
-0.108578
0.22389
0.082449
0.252966
0.404456
0.25196
0.492847
0.255408
0.248882
0.23262
0.0707479
0.190848
-0.434652
0.190557
-0.558132
0.194401
-0.305735
0.238508
-0.0980299
0.29604
0.674766
0.279505
0.674621
0.229986
-0.353036
0.222803
-0.590309
0.252343
0.204087
0.255359
0.376052
0.244559
-0.00681897
0.245827
-0.101325
0.247465
0.0361472
0.245377
0.0387271
0.247358
0.00196372
0.25035
0.00150675
0.00802068
0.408685
-0.0606181
-0.438691
0.38143
-0.0530693
0.353075
-0.0459515
0.323743
-0.0343134
0.297934
0.0200593
0.333229
0.12977
0.42137
0.191651
0.495821
0.081727
0.516993
-0.00633096
0.500631
-0.0977826
0.467035
-0.18304
0.438257
-0.186611
0.4188
-0.196077
0.381622
-0.32609
0.35142
-0.388383
0.33211
-0.0892684
0.294063
0.120496
0.287773
0.410746
0.318386
0.462234
0.393638
0.17363
0.428127
0.0362586
0.407097
-0.413622
0.372902
-0.523937
0.333392
-0.266225
0.332871
-0.0975093
0.37803
0.629607
0.422636
0.630016
0.412517
-0.342918
0.364385
-0.542176
0.368275
0.200197
0.383455
0.360871
0.379061
-0.00242452
0.376826
-0.0990894
0.373177
0.0397962
0.367024
0.0448797
0.36743
0.00155849
0.368044
0.000892584
0.0098135
0.444633
-0.0363875
-0.468864
0.424544
-0.0329802
0.405139
-0.0265467
0.387903
-0.0170777
0.383979
0.0239833
0.431316
0.0824327
0.50416
0.118807
0.542573
0.0433141
0.542458
-0.00621576
0.523688
-0.0790122
0.488414
-0.147766
0.455651
-0.153848
0.435665
-0.176091
0.399261
-0.289685
0.365541
-0.354664
0.321912
-0.0456393
0.286317
0.156091
0.291871
0.405192
0.347131
0.406975
0.436713
0.0840473
0.47008
0.00289217
0.437741
-0.381283
0.388193
-0.474388
0.333691
-0.211724
0.332877
-0.0966955
0.388919
0.573565
0.456449
0.562486
0.447643
-0.334112
0.388785
-0.483318
0.390293
0.198689
0.412659
0.338505
0.410709
-0.000474545
0.407625
-0.0960052
0.403648
0.0437733
0.397498
0.0510292
0.398687
0.000369737
0.3992
0.000379848
0.012039
0.488693
-0.0198592
-0.505222
0.474559
-0.0188461
0.462123
-0.0141106
0.450013
-0.00496726
0.454816
0.01918
0.491671
0.0455778
0.538982
0.071496
0.563711
0.0185856
0.56581
-0.00831503
0.552859
-0.0660614
0.521807
-0.116714
0.501667
-0.133708
0.485713
-0.160137
0.429397
-0.233369
0.36563
-0.290896
0.304762
0.0152285
0.275374
0.185479
0.317533
0.363033
0.400157
0.32435
0.48686
-0.00265555
0.516969
-0.0272169
0.479158
-0.343472
0.403874
-0.399104
0.324706
-0.132555
0.323398
-0.0953872
0.406768
0.490194
0.501785
0.467469
0.488019
-0.320346
0.413779
-0.409077
0.413843
0.198624
0.444801
0.307547
0.444679
-0.000352823
0.439999
-0.0913245
0.43611
0.0476626
0.430741
0.0563979
0.432683
-0.0015723
0.432961
0.000101348
0.0145794
0.535231
-0.00938558
-0.545705
0.524348
-0.00796294
0.516641
-0.00640292
0.51239
-0.000717007
0.517675
0.0138957
0.541199
0.022053
0.573065
0.0396308
0.588435
0.00321512
0.588387
-0.00826691
0.580038
-0.0577127
0.55255
-0.0892256
0.522339
-0.103496
0.500155
-0.137954
0.446048
-0.179262
0.366641
-0.21149
0.303344
0.0785253
0.307177
0.181646
0.388765
0.281445
0.485642
0.227473
0.543321
-0.0603344
0.561759
-0.0456547
0.515432
-0.297145
0.414099
-0.297772
0.317996
-0.036452
0.317138
-0.0945291
0.428119
0.379213
0.548473
0.347116
0.525411
-0.297284
0.43017
-0.313836
0.432864
0.19593
0.477753
0.262658
0.480291
-0.00289072
0.473305
-0.0843383
0.470214
0.0507527
0.466902
0.0597106
0.469873
-0.00454354
0.470008
-3.38432e-05
0.0171335
0.584408
-0.00286806
-0.590925
0.578197
-0.00175248
0.574047
-0.00225265
0.572268
0.00106178
0.577276
0.00888781
0.591091
0.00823803
0.609478
0.0212444
0.620927
-0.00823384
0.621586
-0.0089259
0.61274
-0.0488675
0.597105
-0.07359
0.573673
-0.080064
0.54081
-0.10509
0.484297
-0.12275
0.411968
-0.13916
0.379607
0.110886
0.414957
0.146296
0.503831
0.192571
0.584472
0.146832
0.605703
-0.0815652
0.607703
-0.0476551
0.558203
-0.247645
0.449715
-0.189283
0.360783
0.0524799
0.344645
-0.0783909
0.458562
0.265296
0.59671
0.208967
0.561581
-0.262155
0.443227
-0.195483
0.455514
0.183644
0.518463
0.199709
0.520414
-0.00484166
0.508608
-0.0725325
0.506903
0.0524584
0.507446
0.059167
0.511571
-0.00866785
0.511498
3.91541e-05
0.0193208
0.637764
0.000831457
-0.641463
0.63446
0.00155148
0.632022
0.000184828
0.632014
0.00106992
0.635578
0.00532382
0.643165
0.000651661
0.654779
0.00963
0.659414
-0.0128687
0.661005
-0.0105174
0.652008
-0.0398699
0.63201
-0.0535919
0.612193
-0.0602468
0.589241
-0.082139
0.546225
-0.0797331
0.490948
-0.0838841
0.496116
0.105718
0.548063
0.094349
0.618654
0.12198
0.670078
0.0954078
0.657984
-0.069471
0.643068
-0.032739
0.593892
-0.198469
0.505761
-0.101152
0.46076
0.0974801
0.434037
-0.0516671
0.518505
0.180827
0.64475
0.0827222
0.595245
-0.212649
0.468311
-0.0685495
0.500851
0.151104
0.573094
0.127466
0.568087
0.000165103
0.551067
-0.0555126
0.551539
0.0519865
0.556627
0.0540796
0.560968
-0.0130092
0.560007
0.00100022
0.0209848
0.694918
0.00277721
-0.696864
0.693534
0.00293589
0.692265
0.00145372
0.692638
0.000697033
0.695042
0.00291945
0.698603
-0.00290938
0.705253
0.00298021
0.705971
-0.0135867
0.706306
-0.0108525
0.698232
-0.0317961
0.684799
-0.0401582
0.669557
-0.0450057
0.645078
-0.0576597
0.610763
-0.0454176
0.580452
-0.0535734
0.607602
0.0785677
0.648926
0.053025
0.692275
0.0786313
0.728459
0.0592245
0.713131
-0.0541431
0.69084
-0.010448
0.643495
-0.151125
0.581246
-0.038902
0.587357
0.0913685
0.575096
-0.039406
0.616594
0.139329
0.700108
-0.000791615
0.644204
-0.156746
0.535801
0.0398541
0.582167
0.104738
0.644085
0.0655474
0.630485
0.0137654
0.611857
-0.0368845
0.613802
0.0500413
0.620856
0.0470249
0.623181
-0.0153339
0.62039
0.00379125
0.0225037
0.756214
0.00356188
-0.756998
0.755921
0.00322895
0.755403
0.00197099
0.755668
0.000432394
0.757214
0.00137367
0.758222
-0.00391713
0.761771
-0.00056912
0.760533
-0.012349
0.759808
-0.010127
0.752252
-0.0242408
0.740579
-0.028485
0.726858
-0.0312845
0.710362
-0.0411635
0.689629
-0.0246846
0.671032
-0.0349766
0.697762
0.0518375
0.724944
0.0258435
0.752357
0.0512184
0.772001
0.0395798
0.758608
-0.0407502
0.743618
0.00454258
0.706267
-0.113774
0.67254
-0.00517456
0.6961
0.0678078
0.694094
-0.0373994
0.713635
0.119788
0.7524
-0.0395571
0.701164
-0.10551
0.636034
0.104984
0.683985
0.0567876
0.720605
0.028927
0.70345
0.0309203
0.689037
-0.0224712
0.692193
0.046886
0.698585
0.0406324
0.697625
-0.0143739
0.693489
0.00792716
0.0238261
0.822536
0.00371258
-0.822687
0.822671
0.00309401
0.82249
0.00215154
0.822586
0.000337017
0.823308
0.00065167
0.823118
-0.00372699
0.824524
-0.00197594
0.822091
-0.00991576
0.820704
-0.00873977
0.813867
-0.0174036
0.805923
-0.0205417
0.795522
-0.0208829
0.783342
-0.0289837
0.770356
-0.0116982
0.759604
-0.0242247
0.779395
0.0320464
0.793016
0.0122222
0.813691
0.030544
0.826624
0.0266465
0.818922
-0.0330484
0.807923
0.0155418
0.774385
-0.0802358
0.762643
0.00656762
0.783652
0.0467985
0.784081
-0.0378285
0.802355
0.101514
0.808809
-0.0460112
0.766201
-0.0629016
0.749033
0.122152
0.786721
0.0190999
0.798444
0.0172039
0.785425
0.043939
0.776867
-0.0139131
0.780946
0.0428072
0.785768
0.0358108
0.781559
-0.0101653
0.777463
0.0120229
0.0244245
0.894442
0.00356454
-0.894294
0.894639
0.00289696
0.894664
0.00212643
0.894499
0.000502373
0.894773
0.000377913
0.893865
-0.00281964
0.894092
-0.00220228
0.891452
-0.00727624
0.889765
-0.00705262
0.884264
-0.0119022
0.878309
-0.0145874
0.870422
-0.0129961
0.861515
-0.0200761
0.855199
-0.00538272
0.84744
-0.0164658
0.861176
0.0183109
0.867921
0.00547668
0.882285
0.0161807
0.88981
0.0191208
0.881931
-0.0251693
0.880229
0.0172438
0.853272
-0.0532791
0.852593
0.00724683
0.86661
0.0327813
0.860898
-0.0321158
0.881375
0.0810361
0.874452
-0.0390875
0.845412
-0.0338621
0.858666
0.108899
0.875678
0.00208798
0.874797
0.0180842
0.872633
0.0461033
0.866806
-0.00808568
0.871569
0.038044
0.875537
0.0318424
0.869136
-0.00376396
0.866542
0.0146169
0.0236726
0.972711
0.00326235
-0.972409
0.972883
0.00272435
0.972961
0.00204879
0.972633
0.000830143
0.972595
0.000416464
0.971496
-0.00172069
0.971122
-0.00182811
0.96865
-0.00480501
0.966896
-0.00529781
0.962596
-0.00760298
0.958043
-0.0100341
0.952951
-0.00790446
0.946323
-0.0134478
0.943547
-0.00260658
0.937814
-0.0107332
0.946745
0.00937994
0.949399
0.00282314
0.95846
0.00711965
0.964359
0.013222
0.957196
-0.0180068
0.959999
0.0144416
0.93845
-0.03173
0.940718
0.00497853
0.950373
0.023126
0.941768
-0.023511
0.964411
0.0583938
0.950156
-0.0248327
0.930701
-0.0144073
0.956805
0.0827951
0.958733
0.000159595
0.95663
0.0201876
0.962111
0.0406218
0.955211
-0.00118553
0.961165
0.0320901
0.96535
0.0276579
0.958041
0.00354438
0.957113
0.0155451
0.0216956
1.05812
0.00293899
-1.0578
1.05823
0.00261669
1.05832
0.0019581
1.05794
0.0012103
1.05777
0.000585538
1.0567
-0.000648562
1.05605
-0.00117871
1.05403
-0.00278543
1.0523
-0.00356209
1.04932
-0.00462179
1.04575
-0.00646722
1.04266
-0.00481096
1.03755
-0.0083383
1.0367
-0.00176516
1.03237
-0.00639495
1.03765
0.00409604
1.03906
0.00141061
1.04345
0.00273407
1.04835
0.00831552
1.04116
-0.0108112
1.0458
0.0098012
1.03091
-0.0168359
1.0329
0.0029828
1.04032
0.0157056
1.03035
-0.0135368
1.04982
0.0389216
1.03621
-0.0112236
1.0254
-0.00359655
1.05111
0.0570877
1.04553
0.00574063
1.04618
0.0195355
1.05385
0.0329508
1.04632
0.00634248
1.05316
0.025253
1.05703
0.0237885
1.05019
0.0103856
1.05047
0.0152593
0.019259
1.15145
0.00262643
-1.15113
1.15154
0.00252461
1.15163
0.00186709
1.1513
0.00154271
1.15108
0.000805466
1.1502
0.000227288
1.14952
-0.000493097
1.148
-0.00126673
1.14649
-0.00205057
1.14447
-0.00260089
1.14169
-0.00368908
1.13987
-0.00299239
1.13611
-0.00458128
1.1359
-0.00155295
1.13283
-0.00332425
1.13559
0.00133324
1.13621
0.000794501
1.13785
0.00109461
1.14163
0.0045355
1.13589
-0.00507682
1.14028
0.00541482
1.1305
-0.00705925
1.13147
0.00201061
1.13673
0.0104493
1.12828
-0.00508597
1.14368
0.0235259
1.13315
-0.000697366
1.12699
0.00255836
1.14702
0.0370593
1.14106
0.0117016
1.14402
0.0165727
1.15021
0.0267638
1.14392
0.0126357
1.15065
0.0185186
1.15364
0.0208059
1.14837
0.015647
1.14938
0.0142492
0.0169677
1.25362
0.00233608
-1.25333
1.25372
0.00242726
1.25381
0.00177532
1.25357
0.00178513
1.25338
0.000996475
1.25271
0.000889692
1.25212
9.55412e-05
1.25105
-0.000188796
1.24983
-0.00083096
1.24848
-0.00125709
1.24644
-0.0016452
1.24533
-0.00188098
1.24267
-0.00192393
1.24257
-0.00145422
1.2404
-0.00115527
1.24168
5.90317e-05
1.24185
0.000626209
1.24216
0.000776578
1.24468
0.00201388
1.24054
-0.000932991
1.24376
0.00219434
1.23775
-0.001046
1.2383
0.00145386
1.24181
0.00694612
1.23563
0.00108798
1.24614
0.0130232
1.23931
0.00612485
1.23679
0.00508531
1.25041
0.0234322
1.24609
0.0160257
1.25014
0.0125211
1.25454
0.022369
1.25035
0.0168179
1.25606
0.0128176
1.25811
0.0187489
1.25484
0.0189191
1.25629
0.0128002
0.0149871
1.36551
0.0020821
-1.36526
1.36564
0.00230092
1.36573
0.00168095
1.36561
0.0019131
1.36547
0.00113259
1.36503
0.00132831
1.36458
0.000542991
1.36385
0.000549304
1.36298
3.44845e-05
1.36207
-0.000346297
1.36067
-0.000250178
1.35991
-0.00111287
1.35813
-0.000152076
1.35795
-0.00126907
1.35645
0.000340484
1.35696
-0.000448433
1.35676
0.000831487
1.35666
0.000876251
1.35804
0.00063387
1.35542
0.00167969
1.35755
6.81794e-05
1.354
0.00249976
1.35439
0.00106751
1.35643
0.00490671
1.35255
0.00496758
1.35948
0.00609228
1.35549
0.0101111
1.35478
0.00580428
1.36352
0.0146904
1.36136
0.0181851
1.36552
0.00836214
1.36862
0.0192689
1.36642
0.019019
1.37081
0.00842223
1.37228
0.0172809
1.37082
0.0203766
1.37247
0.011148
0.0133057
1.48809
0.0018478
-1.48785
1.48826
0.00213108
1.48836
0.00157498
1.48835
0.00193074
1.48827
0.00120378
1.48803
0.00157582
1.48773
0.000836227
1.48726
0.00102604
1.48669
0.00059947
1.48606
0.000283891
1.48519
0.000620072
1.4846
-0.000521558
1.48352
0.000927869
1.48324
-0.000986414
1.48227
0.00130424
1.48237
-0.000545841
1.48205
0.00115327
1.4819
0.0010287
1.4825
3.26292e-05
1.48109
0.00309118
1.48224
-0.00108501
1.48034
0.00439579
1.48066
0.000747766
1.48174
0.00383082
1.47976
0.00694582
1.48375
0.00210272
1.48189
0.0119768
1.48246
0.00522881
1.48775
0.009405
1.48732
0.0186099
1.49099
0.00469659
1.49329
0.0169695
1.49278
0.0195265
1.49602
0.00517908
1.49727
0.0160314
1.49727
0.0203824
1.49897
0.00944668
0.0117814
1.62236
0.00162884
-1.62214
1.62257
0.00191445
1.62269
0.00145915
1.62278
0.00184286
1.62276
0.00122291
1.62268
0.00165613
1.62251
0.00100774
1.62224
0.00129425
1.62191
0.000928701
1.62148
0.000711688
1.62101
0.0010947
1.62052
-3.5273e-05
1.61996
0.00148683
1.6196
-0.000624806
1.6191
0.00180696
1.61899
-0.000434454
1.61874
0.00139529
1.61868
0.00109345
1.61882
-0.000111181
1.61832
0.00359858
1.61875
-0.00151816
1.61801
0.00513665
1.61819
0.00056086
1.61868
0.00334386
1.61808
0.00754444
1.62006
0.000127727
1.61981
0.0122276
1.62078
0.00425468
1.62397
0.00621394
1.62522
0.017362
1.6278
0.00211558
1.6296
0.0151735
1.63047
0.0186559
1.63264
0.00300208
1.63414
0.0145326
1.63544
0.0190904
1.63691
0.0079739
0.0104681
1.76942
0.00141721
-1.76921
1.76969
0.0016508
1.76981
0.00133741
1.76999
0.00166234
1.77
0.0012135
1.77006
0.00159761
1.76996
0.00110713
1.76986
0.00139587
1.76968
0.00110457
1.7694
0.000994006
1.7692
0.00128923
1.76878
0.000388862
1.76864
0.00162802
1.7682
-0.000188697
1.76815
0.00185595
1.76792
-0.000200856
1.76792
0.00139669
1.76801
0.00100158
1.76795
-4.93508e-05
1.76821
0.00333714
1.76806
-0.00137155
1.76822
0.00498079
1.76817
0.000606619
1.76829
0.00322325
1.76864
0.00720013
1.76906
-0.000298042
1.77008
0.0112081
1.77119
0.00314817
1.77321
0.0041984
1.77589
0.0146739
1.77716
0.000847044
1.7787
0.0136325
1.7806
0.016758
1.78173
0.00187409
1.78384
0.012423
1.78638
0.0165534
1.78747
0.00687808
0.00934437
1.93027
0.00120039
-1.93005
1.93058
0.00133753
1.93072
0.00119829
1.931
0.00137871
1.93104
0.00117006
1.93126
0.00137801
1.93123
0.00114382
1.93133
0.00129761
1.93127
0.00115788
1.93118
0.00109144
1.93122
0.0012489
1.93087
0.000735277
1.9311
0.00139316
1.93058
0.000332824
1.93099
0.0014497
1.93057
0.000212808
1.93086
0.00111366
1.93102
0.000841882
1.93073
0.000240368
1.9317
0.0023626
1.93077
-0.000441382
1.93197
0.00378696
1.93147
0.00110146
1.93156
0.00313246
1.93306
0.00570335
1.93188
0.000884433
1.93475
0.00833555
1.9352
0.00269418
1.93608
0.00332045
1.94058
0.0101752
1.9395
0.00192599
1.94184
0.0112902
1.94543
0.0131738
1.94427
0.00303081
1.94739
0.00930395
1.95165
0.0122933
1.95179
0.00673437
0.00868539
2.10612
0.000942639
-2.10586
2.10644
0.0010123
2.10667
0.000967439
2.107
0.001047
2.1072
0.000977091
2.10752
0.00106013
2.10768
0.000980742
2.10794
0.00103651
2.10811
0.000989033
2.10824
0.000957348
2.10848
0.00101276
2.10841
0.000805739
2.10876
0.00104394
2.10848
0.000614091
2.10888
0.00104507
2.10858
0.000514764
2.10877
0.000924754
2.10887
0.000740485
2.10846
0.000646145
2.10937
0.00145729
2.10842
0.000505089
2.10981
0.00240035
2.10956
0.00134642
2.11005
0.00264643
2.1122
0.00355626
2.11109
0.00198687
2.1144
0.00502697
2.1145
0.00260256
2.11453
0.00328397
2.11861
0.00609292
2.11718
0.0033595
2.12053
0.0079434
2.12508
0.00861884
2.12359
0.00452618
2.12627
0.00662343
2.13043
0.00813485
2.13078
0.0063824
0.00762197
2.29891
0.000647229
-2.29861
2.29923
0.000695084
2.29953
0.000663203
2.29985
0.000721735
2.30016
0.000668742
2.30049
0.00073623
2.3008
0.000670265
2.3011
0.000730339
2.30142
0.000677219
2.30168
0.000694796
2.30199
0.00070157
2.30217
0.000620878
2.30247
0.000745986
2.30256
0.000525968
2.30281
0.000796442
2.30285
0.000475619
2.30297
0.000803495
2.30312
0.000594045
2.30303
0.000730243
2.30351
0.000980393
2.30334
0.000672925
2.3042
0.00153815
2.30455
0.0010006
2.30535
0.00184912
2.30691
0.00198848
2.30717
0.00172787
2.30924
0.00295884
2.30981
0.00203421
2.31031
0.0027833
2.31264
0.00375951
2.31308
0.00292093
2.31607
0.00495171
2.31961
0.0050795
2.32025
0.00388741
2.32214
0.0047319
2.32495
0.00532532
2.32661
0.00472333
0.00553913
2.51018
0.00033652
-2.50987
2.51052
0.000357694
2.51084
0.000347188
2.51119
0.000372247
2.5115
0.000352788
2.51186
0.000381796
2.51217
0.000355631
2.51252
0.000383655
2.51284
0.000359362
2.51315
0.000374996
2.51349
0.000369384
2.51376
0.000352005
2.51411
0.00038919
2.51432
0.000319334
2.5147
0.000419772
2.51487
0.000297741
2.51523
0.000447848
2.51549
0.000334775
2.51576
0.000461184
2.51626
0.000482167
2.51646
0.000471441
2.51726
0.000737755
2.51768
0.00057945
2.51856
0.000969277
2.51964
0.000906211
2.52032
0.00104536
2.52194
0.0013438
2.52282
0.00115617
2.52404
0.0015572
2.52606
0.00174577
2.52722
0.00176124
2.52974
0.00242454
2.53242
0.00240735
2.53401
0.00228903
2.53633
0.00242064
2.53901
0.0026425
2.54114
0.00259643
0.0029795
2.74152
-2.74119
2.74188
2.74223
2.7426
2.74295
2.74333
2.74369
2.74407
2.74443
2.74481
2.74518
2.74553
2.74592
2.74624
2.74666
2.74695
2.7474
2.74774
2.7482
2.74868
2.74915
2.74989
2.75047
2.75144
2.75235
2.75339
2.75473
2.75589
2.75745
2.75919
2.76095
2.76338
2.76579
2.76808
2.7705
2.77314
2.77574
0.430545
0.0311382
-0.425313
0.43631
0.0579534
0.439481
0.0867992
0.444654
0.110564
0.44436
0.140344
0.447126
0.157619
0.443899
0.186229
0.195818
0.45822
0.0276098
-0.454692
0.46294
0.0532339
0.464902
0.084837
0.468127
0.107339
0.469569
0.138902
0.470046
0.157142
0.471613
0.184663
0.198568
0.49147
0.0247947
-0.488654
0.494135
0.0505687
0.496922
0.0820493
0.4989
0.105362
0.502433
0.13537
0.503386
0.156189
0.505872
0.182177
0.199217
0.528618
0.0221762
-0.526
0.530385
0.0488019
0.533895
0.0785399
0.535853
0.103403
0.539691
0.131531
0.541519
0.154361
0.544408
0.179288
0.19792
0.570707
0.0198988
-0.568429
0.57237
0.0471379
0.575712
0.0751985
0.577925
0.10119
0.581516
0.12794
0.584187
0.151691
0.588089
0.175386
0.195084
0.617736
0.0180475
-0.615884
0.619471
0.0454025
0.622333
0.0723369
0.624868
0.0986542
0.628635
0.124174
0.632301
0.148025
0.637289
0.170398
0.190909
0.669917
0.0165529
-0.668422
0.671754
0.0435651
0.674521
0.0695702
0.677671
0.0955041
0.68193
0.119915
0.686519
0.143436
0.69174
0.165177
0.185785
0.727666
0.0152358
-0.726349
0.729708
0.0415239
0.732572
0.0667054
0.736152
0.0919239
0.740519
0.115548
0.745371
0.138584
0.750902
0.159646
0.179689
0.791184
0.0140327
-0.789981
0.7933
0.039408
0.796199
0.0638064
0.799966
0.0881569
0.804485
0.111029
0.809849
0.13322
0.815963
0.153533
0.172965
0.860771
0.012915
-0.859654
0.862934
0.0372457
0.865957
0.0607828
0.869974
0.0841405
0.874812
0.10619
0.880583
0.127449
0.887075
0.147041
0.165745
0.936936
0.0118541
-0.935876
0.93912
0.0350626
0.942262
0.05764
0.946469
0.079934
0.951606
0.101053
0.957717
0.121338
0.964652
0.140105
0.157989
1.02019
0.0108583
-1.0192
1.02239
0.0328662
1.02568
0.0543487
1.03013
0.0754822
1.03562
0.0955657