/*--------------------------------*- C++ -*----------------------------------*\
| =========                 |                                                 |
| \\      /  F ield         | OpenFOAM: The Open Source CFD Toolbox           |
|  \\    /   O peration     | Version:  2312                                  |
|   \\  /    A nd           | Website:  www.openfoam.com                      |
|    \\/     M anipulation  |                                                 |
\*---------------------------------------------------------------------------*/
FoamFile
{
    version     2.0;
    format      ascii;
    arch        "LSB;label=32;scalar=64";
    class       volScalarField;
    location    "62";
    object      p;
}
// * * * * * * * * * * * * * * * * * * * * * * * * * * * * * * * * * * * * * //

dimensions      [0 2 -2 0 0 0 0];

internalField   nonuniform List<scalar> 
32230
(
-0.369766
-0.370765
-0.371556
-0.372306
-0.373089
-0.373859
-0.374537
-0.375016
-0.375174
-0.374866
-0.37393
-0.372193
-0.369474
-0.365597
-0.360398
-0.353744
-0.345548
-0.335785
-0.324498
-0.311807
-0.297902
-0.28303
-0.267479
-0.251552
-0.235547
-0.219736
-0.204355
-0.18959
-0.175581
-0.162422
-0.150169
-0.138849
-0.128455
-0.118999
-0.110397
-0.10279
-0.0958252
-0.373496
-0.374055
-0.374533
-0.375025
-0.375556
-0.376073
-0.376494
-0.376704
-0.376577
-0.375961
-0.37469
-0.372587
-0.369471
-0.365168
-0.359528
-0.352437
-0.343838
-0.333743
-0.32224
-0.309487
-0.295704
-0.281156
-0.266126
-0.250895
-0.235722
-0.220831
-0.206403
-0.192575
-0.179444
-0.167071
-0.15549
-0.144713
-0.134744
-0.125561
-0.117149
-0.109444
-0.102142
-0.377158
-0.377305
-0.377443
-0.377612
-0.377812
-0.377987
-0.378057
-0.377911
-0.377415
-0.376415
-0.374739
-0.372206
-0.368635
-0.363857
-0.357735
-0.35018
-0.341172
-0.330763
-0.319083
-0.306325
-0.292729
-0.278561
-0.264085
-0.249549
-0.235169
-0.22112
-0.207537
-0.194518
-0.18213
-0.170412
-0.159386
-0.149059
-0.13943
-0.130482
-0.12219
-0.114477
-0.107056
-0.380728
-0.3805
-0.380282
-0.380079
-0.379884
-0.379641
-0.379289
-0.378717
-0.377788
-0.376342
-0.374201
-0.371177
-0.367086
-0.361767
-0.355101
-0.347035
-0.33759
-0.326863
-0.315025
-0.302294
-0.28892
-0.275155
-0.261235
-0.247369
-0.233727
-0.220442
-0.207611
-0.195301
-0.183559
-0.17241
-0.161869
-0.151938
-0.142617
-0.133884
-0.125729
-0.118051
-0.110628
-0.384266
-0.383701
-0.383117
-0.382506
-0.381857
-0.381162
-0.380342
-0.379295
-0.377884
-0.375939
-0.373272
-0.369686
-0.364997
-0.359058
-0.351783
-0.343161
-0.333262
-0.322232
-0.310272
-0.297616
-0.284505
-0.271168
-0.257804
-0.244577
-0.231618
-0.21902
-0.206854
-0.195165
-0.183985
-0.173331
-0.163214
-0.153632
-0.144586
-0.136055
-0.128035
-0.120424
-0.113079
-0.387906
-0.387026
-0.386076
-0.385043
-0.383932
-0.382745
-0.381425
-0.379869
-0.37793
-0.375427
-0.372155
-0.367914
-0.362528
-0.355879
-0.347926
-0.338711
-0.328359
-0.317054
-0.305017
-0.29248
-0.279662
-0.266756
-0.253921
-0.241282
-0.228932
-0.216938
-0.205348
-0.194195
-0.1835
-0.173276
-0.163529
-0.154258
-0.145463
-0.137123
-0.129242
-0.121724
-0.114489
-0.391822
-0.390629
-0.389308
-0.387848
-0.386268
-0.384583
-0.382746
-0.380647
-0.378126
-0.374983
-0.371004
-0.365992
-0.359798
-0.352351
-0.343668
-0.333852
-0.323072
-0.311538
-0.299474
-0.287091
-0.274577
-0.262086
-0.249736
-0.237619
-0.2258
-0.214327
-0.203233
-0.19254
-0.182263
-0.172412
-0.16299
-0.153996
-0.145429
-0.137271
-0.129529
-0.122114
-0.115005
-0.396197
-0.394666
-0.392967
-0.391083
-0.389036
-0.386849
-0.384475
-0.381788
-0.378608
-0.374718
-0.369905
-0.363995
-0.356888
-0.348576
-0.339141
-0.32874
-0.317574
-0.30586
-0.293805
-0.281591
-0.269367
-0.257249
-0.245323
-0.233653
-0.222285
-0.211251
-0.200575
-0.190272
-0.180353
-0.170825
-0.161688
-0.152941
-0.144582
-0.136598
-0.128992
-0.121689
-0.114707
-0.401193
-0.399282
-0.39719
-0.394882
-0.392369
-0.389671
-0.386725
-0.383381
-0.379436
-0.374668
-0.368883
-0.361955
-0.353851
-0.344637
-0.334458
-0.323509
-0.312004
-0.300148
-0.28812
-0.276065
-0.264096
-0.252296
-0.240726
-0.229428
-0.218434
-0.207767
-0.197442
-0.187471
-0.177859
-0.16861
-0.159725
-0.151201
-0.143034
-0.135214
-0.127742
-0.120555
-0.113697
-0.406935
-0.404588
-0.402082
-0.399346
-0.396358
-0.393123
-0.389545
-0.385445
-0.380604
-0.374811
-0.367917
-0.359869
-0.350716
-0.340595
-0.329701
-0.318249
-0.306445
-0.294468
-0.282463
-0.27054
-0.258778
-0.247235
-0.235951
-0.224955
-0.214268
-0.203903
-0.193872
-0.18418
-0.174831
-0.165826
-0.157165
-0.148842
-0.140854
-0.13319
-0.12585
-0.118783
-0.112046
-0.413503
-0.410659
-0.407716
-0.404539
-0.401054
-0.39723
-0.39293
-0.387944
-0.382052
-0.375082
-0.366958
-0.357717
-0.347494
-0.336486
-0.324918
-0.313004
-0.300926
-0.288833
-0.276832
-0.265002
-0.253395
-0.24205
-0.23099
-0.220234
-0.209794
-0.199678
-0.189892
-0.180438
-0.171317
-0.162527
-0.154065
-0.145927
-0.138106
-0.130594
-0.123385
-0.116443
-0.109824
-0.420927
-0.417534
-0.414128
-0.410489
-0.406466
-0.401971
-0.396823
-0.390792
-0.383679
-0.375385
-0.365933
-0.355458
-0.344172
-0.332314
-0.320114
-0.307769
-0.295432
-0.283213
-0.271188
-0.259409
-0.247908
-0.236705
-0.225816
-0.215247
-0.205006
-0.195095
-0.185514
-0.176264
-0.167341
-0.158742
-0.150462
-0.142495
-0.134832
-0.127467
-0.12039
-0.113578
-0.107074
-0.429193
-0.425209
-0.421319
-0.417188
-0.412559
-0.407277
-0.401119
-0.393856
-0.385349
-0.375602
-0.364754
-0.353034
-0.340713
-0.328047
-0.315255
-0.302502
-0.289907
-0.277546
-0.265468
-0.2537
-0.24226
-0.231155
-0.220391
-0.209968
-0.199887
-0.190145
-0.180739
-0.171666
-0.162919
-0.154493
-0.146381
-0.138574
-0.131065
-0.123844
-0.116901
-0.110222
-0.103833
-0.438242
-0.43364
-0.429247
-0.424581
-0.41925
-0.413028
-0.405664
-0.396967
-0.386901
-0.3756
-0.36332
-0.350372
-0.337056
-0.323627
-0.310274
-0.297129
-0.284273
-0.271752
-0.259592
-0.247803
-0.236387
-0.225345
-0.214671
-0.204362
-0.194411
-0.184812
-0.175558
-0.166642
-0.158055
-0.149789
-0.141835
-0.134183
-0.126824
-0.119747
-0.112943
-0.106402
-0.100129
-0.447963
-0.442735
-0.437823
-0.43256
-0.426399
-0.419045
-0.410255
-0.399925
-0.388161
-0.37524
-0.361528
-0.347388
-0.333128
-0.31898
-0.305096
-0.291569
-0.278448
-0.265753
-0.25349
-0.241654
-0.230238
-0.219232
-0.208625
-0.198406
-0.188565
-0.179091
-0.169973
-0.1612
-0.152762
-0.144648
-0.136846
-0.129346
-0.122137
-0.115207
-0.108546
-0.102149
-0.0959993
-0.458188
-0.452348
-0.446897
-0.440953
-0.4338
-0.425094
-0.414653
-0.402515
-0.388955
-0.374396
-0.359284
-0.34401
-0.328865
-0.314042
-0.299654
-0.285757
-0.27237
-0.259493
-0.247113
-0.235215
-0.223782
-0.212795
-0.202239
-0.192097
-0.182353
-0.172992
-0.164
-0.155363
-0.147068
-0.1391
-0.131448
-0.124099
-0.11704
-0.110259
-0.103747
-0.0974979
-0.0914776
-0.468694
-0.462267
-0.456248
-0.44951
-0.441168
-0.430878
-0.418581
-0.404504
-0.389107
-0.372935
-0.356488
-0.340151
-0.324181
-0.308728
-0.293863
-0.279609
-0.26596
-0.252897
-0.240395
-0.228428
-0.216969
-0.205994
-0.195481
-0.185407
-0.175753
-0.166499
-0.157629
-0.149124
-0.140968
-0.133147
-0.125644
-0.118446
-0.111539
-0.10491
-0.098551
-0.0924486
-0.0865604
-0.479197
-0.472216
-0.465582
-0.457904
-0.448156
-0.436052
-0.421724
-0.405622
-0.388383
-0.370646
-0.352932
-0.335599
-0.318858
-0.302813
-0.287496
-0.2729
-0.258998
-0.245755
-0.233134
-0.221098
-0.209614
-0.198651
-0.188181
-0.178176
-0.168612
-0.159467
-0.150718
-0.142347
-0.134335
-0.126663
-0.119314
-0.112273
-0.105524
-0.0990536
-0.0928525
-0.0868983
-0.0811483
-0.48938
-0.481895
-0.474601
-0.465829
-0.454445
-0.440296
-0.423762
-0.405546
-0.386449
-0.367178
-0.348246
-0.329967
-0.312499
-0.295898
-0.280157
-0.265243
-0.251107
-0.237701
-0.224975
-0.212885
-0.201389
-0.190451
-0.180035
-0.170111
-0.160649
-0.151623
-0.143009
-0.134784
-0.126927
-0.119418
-0.112238
-0.105369
-0.0987938
-0.0924996
-0.0864731
-0.0806825
-0.0751001
-0.456607
-0.455656
-0.454835
-0.454182
-0.453991
-0.454557
-0.45607
-0.458613
-0.462221
-0.466913
-0.472716
-0.479666
-0.487802
-0.49716
-0.507761
-0.519599
-0.532631
-0.546771
-0.561877
-0.577752
-0.594137
-0.610724
-0.627162
-0.643069
-0.658045
-0.671686
-0.683595
-0.693283
-0.700641
-0.705197
-0.706584
-0.704473
-0.698553
-0.688539
-0.674183
-0.65538
-0.632103
-0.447958
-0.447554
-0.446989
-0.446394
-0.446209
-0.446699
-0.44805
-0.450343
-0.453608
-0.457861
-0.463121
-0.469419
-0.476785
-0.485249
-0.494825
-0.505504
-0.517244
-0.529964
-0.54353
-0.557757
-0.572405
-0.587182
-0.601755
-0.615757
-0.628803
-0.6405
-0.650463
-0.658326
-0.66378
-0.666474
-0.666099
-0.662374
-0.655051
-0.643942
-0.628985
-0.610154
-0.587807
-0.43835
-0.438506
-0.438171
-0.437678
-0.43747
-0.437852
-0.438997
-0.440979
-0.443823
-0.447534
-0.452123
-0.457607
-0.464005
-0.471332
-0.479592
-0.48877
-0.498822
-0.509669
-0.521189
-0.533213
-0.545523
-0.557856
-0.569906
-0.581337
-0.591792
-0.600907
-0.608326
-0.613711
-0.616747
-0.617151
-0.614643
-0.609016
-0.600113
-0.587846
-0.572265
-0.553573
-0.532015
-0.428124
-0.428793
-0.428702
-0.428296
-0.428076
-0.428348
-0.429278
-0.430929
-0.433316
-0.436433
-0.440279
-0.444852
-0.450155
-0.456186
-0.462935
-0.470372
-0.478449
-0.487085
-0.496166
-0.505539
-0.515012
-0.524354
-0.533296
-0.541545
-0.548789
-0.554707
-0.558988
-0.561343
-0.561506
-0.559265
-0.554351
-0.546672
-0.536164
-0.522818
-0.50674
-0.48837
-0.468509
-0.417605
-0.418752
-0.418898
-0.418591
-0.41838
-0.418563
-0.419293
-0.420621
-0.422551
-0.425065
-0.428143
-0.431767
-0.435918
-0.440575
-0.445707
-0.45127
-0.457202
-0.463419
-0.469809
-0.476233
-0.482522
-0.488476
-0.493871
-0.498463
-0.501996
-0.504208
-0.504849
-0.503688
-0.500524
-0.495215
-0.487574
-0.477602
-0.465325
-0.450776
-0.434058
-0.415758
-0.397352
-0.407142
-0.40872
-0.409097
-0.408908
-0.408736
-0.408865
-0.40943
-0.410471
-0.411977
-0.413916
-0.416251
-0.418945
-0.421959
-0.425248
-0.428762
-0.432436
-0.436193
-0.439939
-0.443561
-0.446927
-0.449885
-0.452266
-0.453886
-0.454552
-0.454066
-0.452235
-0.448876
-0.443824
-0.436948
-0.42816
-0.417444
-0.404854
-0.390498
-0.374444
-0.356716
-0.337968
-0.320571
-0.397067
-0.399023
-0.399623
-0.399574
-0.399476
-0.399593
-0.400041
-0.400845
-0.401982
-0.403404
-0.405059
-0.40689
-0.408839
-0.41084
-0.41282
-0.414697
-0.416375
-0.417749
-0.418701
-0.4191
-0.418808
-0.417678
-0.415562
-0.412313
-0.40779
-0.401863
-0.394418
-0.385361
-0.374633
-0.362237
-0.348297
-0.332905
-0.316263
-0.298516
-0.279604
-0.260039
-0.243026
-0.38768
-0.389957
-0.390772
-0.390881
-0.39089
-0.391039
-0.391421
-0.392047
-0.392881
-0.393862
-0.394923
-0.39599
-0.396986
-0.397828
-0.398423
-0.398671
-0.398463
-0.397681
-0.3962
-0.393891
-0.390626
-0.386275
-0.380721
-0.373855
-0.36559
-0.355857
-0.344608
-0.33182
-0.317516
-0.301787
-0.284859
-0.266862
-0.248078
-0.228804
-0.20905
-0.188958
-0.171674
-0.379239
-0.381781
-0.382797
-0.383075
-0.383218
-0.383435
-0.383799
-0.384306
-0.384906
-0.385528
-0.38609
-0.386506
-0.386682
-0.38652
-0.385911
-0.384742
-0.382891
-0.380233
-0.376639
-0.371983
-0.366145
-0.359015
-0.350501
-0.340533
-0.329069
-0.316098
-0.301642
-0.285754
-0.268536
-0.250146
-0.230844
-0.210842
-0.190477
-0.170156
-0.150175
-0.130409
-0.112586
-0.371956
-0.374705
-0.375903
-0.376356
-0.376647
-0.376959
-0.377343
-0.377781
-0.378213
-0.378555
-0.378715
-0.378594
-0.378087
-0.377082
-0.375459
-0.373094
-0.369858
-0.36562
-0.360253
-0.353636
-0.345661
-0.33624
-0.325308
-0.312834
-0.298818
-0.283306
-0.266381
-0.248175
-0.228863
-0.208665
-0.187838
-0.16666
-0.145681
-0.125149
-0.105602
-0.0872095
-0.0678341
-0.365991
-0.36889
-0.370245
-0.370865
-0.371309
-0.371731
-0.372163
-0.372574
-0.372894
-0.37303
-0.37288
-0.372334
-0.371278
-0.369588
-0.367136
-0.36379
-0.359415
-0.35388
-0.347061
-0.338845
-0.329143
-0.317888
-0.305047
-0.290625
-0.274673
-0.257286
-0.238609
-0.218835
-0.198209
-0.177021
-0.155602
-0.134343
-0.113422
-0.0934254
-0.0747914
-0.0578822
-0.0419694
-0.361456
-0.364439
-0.365921
-0.366693
-0.367285
-0.367823
-0.36832
-0.368737
-0.368995
-0.368992
-0.368619
-0.367757
-0.366282
-0.364061
-0.360958
-0.356836
-0.351555
-0.344986
-0.337008
-0.327522
-0.316454
-0.303765
-0.289454
-0.273567
-0.256201
-0.237504
-0.217677
-0.196971
-0.17568
-0.15414
-0.132717
-0.111792
-0.0917346
-0.0730049
-0.0558801
-0.0413583
-0.0274296
-0.358402
-0.361401
-0.362971
-0.363874
-0.364601
-0.365253
-0.365828
-0.366278
-0.366517
-0.366439
-0.365926
-0.364852
-0.363084
-0.360481
-0.356901
-0.352198
-0.346234
-0.338876
-0.330013
-0.319557
-0.307452
-0.293687
-0.278296
-0.261367
-0.243044
-0.223527
-0.203071
-0.181976
-0.16058
-0.139254
-0.118382
-0.0983651
-0.0795443
-0.0624654
-0.0469445
-0.0348265
-0.0224476
-0.35682
-0.359757
-0.361373
-0.362381
-0.363226
-0.363985
-0.364646
-0.365152
-0.365412
-0.365315
-0.364739
-0.363548
-0.361603
-0.358757
-0.354858
-0.349756
-0.343309
-0.335387
-0.325885
-0.314728
-0.301883
-0.287366
-0.27125
-0.253668
-0.234813
-0.214925
-0.194323
-0.173341
-0.152351
-0.131741
-0.111892
-0.0932078
-0.0759133
-0.0606802
-0.0468209
-0.0367401
-0.0261582
-0.356633
-0.359425
-0.361039
-0.362121
-0.363063
-0.363921
-0.364669
-0.365245
-0.365556
-0.365486
-0.364905
-0.363674
-0.361645
-0.358662
-0.354567
-0.349205
-0.342431
-0.334118
-0.324168
-0.312526
-0.299182
-0.284188
-0.267653
-0.249764
-0.230757
-0.210929
-0.190624
-0.170212
-0.150075
-0.130596
-0.112119
-0.0950163
-0.0794095
-0.0659059
-0.0537607
-0.0450379
-0.0365082
-0.357695
-0.360257
-0.361816
-0.362936
-0.363949
-0.364887
-0.365716
-0.366365
-0.366738
-0.366714
-0.366159
-0.364926
-0.362859
-0.359795
-0.355567
-0.350017
-0.342998
-0.33439
-0.32411
-0.312123
-0.298454
-0.283193
-0.2665
-0.248602
-0.229785
-0.210382
-0.190758
-0.171288
-0.152338
-0.134255
-0.11733
-0.101835
-0.0878813
-0.0757832
-0.065175
-0.0571544
-0.0502488
-0.359797
-0.362047
-0.363495
-0.364611
-0.365658
-0.366647
-0.36753
-0.368233
-0.368651
-0.368659
-0.368117
-0.366871
-0.364756
-0.361601
-0.357235
-0.351496
-0.344244
-0.335371
-0.324814
-0.312572
-0.298708
-0.283357
-0.266727
-0.249085
-0.230751
-0.212075
-0.193419
-0.175135
-0.157547
-0.140935
-0.125524
-0.111476
-0.0988949
-0.0878398
-0.0782889
-0.0705245
-0.0644545
-0.362687
-0.36456
-0.365844
-0.366898
-0.367925
-0.368913
-0.369801
-0.370507
-0.370919
-0.370906
-0.370319
-0.368998
-0.366771
-0.363462
-0.358898
-0.352921
-0.345403
-0.336257
-0.325452
-0.313022
-0.299076
-0.283794
-0.267422
-0.250257
-0.232631
-0.214885
-0.197354
-0.180343
-0.164113
-0.14887
-0.134766
-0.121892
-0.110295
-0.0999589
-0.0909217
-0.0831264
-0.0770533
-0.366094
-0.367541
-0.3686
-0.369534
-0.370475
-0.371391
-0.372212
-0.372844
-0.373169
-0.373048
-0.372326
-0.37084
-0.368407
-0.364853
-0.360007
-0.353723
-0.345889
-0.336447
-0.325402
-0.312832
-0.298886
-0.283784
-0.267798
-0.251237
-0.234424
-0.217672
-0.20127
-0.185461
-0.170441
-0.156355
-0.143291
-0.131305
-0.120396
-0.110571
-0.101768
-0.0939396
-0.087157
-0.599632
-0.555941
-0.508176
-0.459389
-0.412789
-0.371025
-0.335875
-0.308228
-0.288248
-0.275694
-0.270369
-0.27234
-0.281584
-0.297275
-0.317315
-0.338534
-0.357453
-0.370957
-0.37641
-0.371399
-0.354309
-0.325496
-0.288526
-0.249204
-0.213091
-0.183629
-0.161902
-0.147458
-0.13934
-0.136786
-0.139403
-0.147139
-0.160597
-0.181351
-0.211047
-0.248904
-0.289742
-0.324727
-0.344441
-0.342081
-0.317847
-0.278504
-0.234331
-0.193831
-0.161167
-0.136845
-0.119924
-0.109383
-0.104335
-0.104397
-0.110229
-0.12288
-0.14206
-0.164892
-0.185876
-0.198407
-0.197317
-0.183463
-0.160187
-0.134044
-0.111027
-0.0944203
-0.0847301
-0.0818184
-0.0868638
-0.102668
-0.131485
-0.168175
-0.196651
-0.200915
-0.181345
-0.150459
-0.122375
-0.105412
-0.103896
-0.118426
-0.144178
-0.171182
-0.187596
-0.186288
-0.168792
-0.143132
-0.11696
-0.0957179
-0.0796772
-0.0694968
-0.0615392
-0.0543869
-0.0456485
-0.0341281
-0.0227646
-0.012083
-0.00305305
-0.55717
-0.519322
-0.477556
-0.435271
-0.395223
-0.359563
-0.329792
-0.306722
-0.290586
-0.281425
-0.279403
-0.284738
-0.297162
-0.315332
-0.336698
-0.358015
-0.376168
-0.388625
-0.393149
-0.387443
-0.369532
-0.339494
-0.30087
-0.259669
-0.221669
-0.190403
-0.166973
-0.150943
-0.141341
-0.13734
-0.13848
-0.14467
-0.156417
-0.1752
-0.20274
-0.238548
-0.27773
-0.311571
-0.330646
-0.328344
-0.305408
-0.268313
-0.226779
-0.188779
-0.158192
-0.135524
-0.12001
-0.110799
-0.107115
-0.108735
-0.11656
-0.131815
-0.154218
-0.180564
-0.204665
-0.218989
-0.217624
-0.202071
-0.175845
-0.146416
-0.120467
-0.101631
-0.0903505
-0.0861825
-0.0900421
-0.104542
-0.131956
-0.167527
-0.195574
-0.200154
-0.181714
-0.152059
-0.125187
-0.10954
-0.109683
-0.126358
-0.154489
-0.183353
-0.200244
-0.19752
-0.177045
-0.147519
-0.117433
-0.0928465
-0.0742518
-0.0622714
-0.0530705
-0.0456892
-0.0375344
-0.027357
-0.0179806
-0.00918944
-0.00220122
-0.502508
-0.474243
-0.437997
-0.402993
-0.370035
-0.340751
-0.316562
-0.298275
-0.286279
-0.280972
-0.282794
-0.291877
-0.30753
-0.327903
-0.35017
-0.371227
-0.388449
-0.39987
-0.403704
-0.39758
-0.379242
-0.34851
-0.308891
-0.266528
-0.227307
-0.194778
-0.170013
-0.15258
-0.141556
-0.136112
-0.135737
-0.140272
-0.150117
-0.166592
-0.191418
-0.224449
-0.26127
-0.293613
-0.31223
-0.310546
-0.28961
-0.255347
-0.216929
-0.181823
-0.153617
-0.132839
-0.118915
-0.111172
-0.108956
-0.11222
-0.122114
-0.140047
-0.165718
-0.195586
-0.222869
-0.239185
-0.237905
-0.220643
-0.191469
-0.158709
-0.129721
-0.108507
-0.0954921
-0.0899243
-0.0924074
-0.105313
-0.130872
-0.164835
-0.192209
-0.197182
-0.180203
-0.152079
-0.126697
-0.112589
-0.114543
-0.133443
-0.16395
-0.194674
-0.212141
-0.208155
-0.184882
-0.151654
-0.117788
-0.0899882
-0.069003
-0.0554136
-0.0451454
-0.0376128
-0.0299714
-0.0210289
-0.013485
-0.00645063
-0.00138765
-0.442697
-0.418525
-0.390561
-0.362995
-0.337443
-0.314414
-0.295886
-0.282658
-0.275302
-0.274461
-0.280661
-0.293812
-0.312752
-0.335209
-0.358243
-0.378991
-0.395315
-0.40579
-0.408922
-0.402396
-0.383733
-0.352601
-0.312517
-0.269664
-0.229907
-0.196722
-0.171091
-0.152549
-0.140225
-0.133354
-0.13144
-0.13425
-0.142044
-0.15596
-0.177687
-0.207434
-0.241396
-0.271868
-0.290071
-0.289499
-0.271124
-0.240188
-0.205274
-0.173329
-0.147695
-0.128948
-0.116709
-0.110489
-0.109757
-0.114652
-0.12656
-0.147067
-0.1759
-0.209309
-0.239914
-0.258481
-0.257535
-0.238777
-0.206742
-0.170691
-0.138637
-0.114954
-0.100089
-0.0929996
-0.093946
-0.105027
-0.128386
-0.160352
-0.186817
-0.192324
-0.176936
-0.150589
-0.126929
-0.114517
-0.118359
-0.139482
-0.172331
-0.204955
-0.22311
-0.218033
-0.192183
-0.155465
-0.117997
-0.0871402
-0.0639281
-0.0489095
-0.0377326
-0.0301161
-0.0229283
-0.0151235
-0.00927182
-0.00386328
-0.000612745
-0.375359
-0.357706
-0.334895
-0.315237
-0.29733
-0.280282
-0.267768
-0.260136
-0.258163
-0.262586
-0.273759
-0.291229
-0.313434
-0.337852
-0.361559
-0.381982
-0.397437
-0.40699
-0.409443
-0.402479
-0.383552
-0.352294
-0.312218
-0.269467
-0.229786
-0.196471
-0.170392
-0.151062
-0.137625
-0.129379
-0.125896
-0.126949
-0.132642
-0.143861
-0.162201
-0.188213
-0.218877
-0.247226
-0.26505
-0.265893
-0.250512
-0.223263
-0.192132
-0.163531
-0.140579
-0.123927
-0.113397
-0.108669
-0.109349
-0.115762
-0.129503
-0.15237
-0.184212
-0.221147
-0.255173
-0.276226
-0.275947
-0.256054
-0.221378
-0.182177
-0.147099
-0.120897
-0.104096
-0.0953923
-0.0946829
-0.103769
-0.124666
-0.154306
-0.179705
-0.187484
-0.172061
-0.147681
-0.125908
-0.115275
-0.120999
-0.144281
-0.179443
-0.213998
-0.232954
-0.227005
-0.198847
-0.158895
-0.118038
-0.0843013
-0.0590229
-0.0427429
-0.0308004
-0.0231599
-0.016377
-0.00962033
-0.00533075
-0.00142137
0.000124166
-0.302623
-0.290971
-0.274261
-0.259396
-0.250911
-0.239488
-0.233593
-0.232158
-0.236318
-0.246634
-0.263106
-0.284877
-0.310104
-0.336211
-0.360445
-0.380548
-0.395279
-0.404017
-0.405803
-0.398324
-0.379075
-0.347843
-0.308212
-0.266182
-0.227185
-0.194239
-0.168101
-0.148299
-0.134008
-0.124539
-0.119503
-0.118761
-0.122342
-0.130862
-0.145721
-0.167756
-0.194758
-0.220706
-0.238088
-0.240623
-0.228249
-0.204837
-0.177666
-0.152524
-0.13231
-0.117771
-0.108928
-0.105623
-0.107601
-0.115365
-0.130707
-0.155667
-0.19027
-0.230552
-0.268003
-0.291776
-0.292637
-0.272031
-0.235048
-0.192952
-0.154977
-0.126269
-0.107483
-0.0971013
-0.0946551
-0.101634
-0.11991
-0.146974
-0.171061
-0.178867
-0.165626
-0.143448
-0.123661
-0.114819
-0.12236
-0.147715
-0.185131
-0.221611
-0.241495
-0.234928
-0.204767
-0.161883
-0.117887
-0.0814692
-0.0542845
-0.0369
-0.0243202
-0.0167078
-0.0102905
-0.00449825
-0.001649
0.000883069
0.000824539
-0.229269
-0.222231
-0.211104
-0.201124
-0.200668
-0.195463
-0.196311
-0.201452
-0.212007
-0.228209
-0.249688
-0.275282
-0.303036
-0.330481
-0.355084
-0.374896
-0.389104
-0.397186
-0.398368
-0.390357
-0.370819
-0.339828
-0.301087
-0.260336
-0.222543
-0.190384
-0.164502
-0.144478
-0.129569
-0.119104
-0.112674
-0.110149
-0.111624
-0.117509
-0.128922
-0.146889
-0.17001
-0.19329
-0.210124
-0.215565
-0.204786
-0.185225
-0.162079
-0.140421
-0.122944
-0.110493
-0.10329
-0.101332
-0.104492
-0.113422
-0.1301
-0.156797
-0.193757
-0.237044
-0.277805
-0.304549
-0.307335
-0.286243
-0.247426
-0.202814
-0.162156
-0.131011
-0.110232
-0.0981494
-0.093929
-0.0987475
-0.11431
-0.138636
-0.161201
-0.169097
-0.157911
-0.138015
-0.120238
-0.113148
-0.122405
-0.149701
-0.189258
-0.227645
-0.248575
-0.241667
-0.209846
-0.164369
-0.117519
-0.0786409
-0.04971
-0.0313681
-0.0182664
-0.0107272
-0.00464404
0.000263037
0.00178767
0.00305901
0.00149026
-0.161813
-0.157988
-0.151868
-0.148123
-0.149148
-0.152537
-0.159716
-0.171133
-0.187521
-0.20883
-0.23442
-0.262964
-0.292536
-0.320857
-0.345646
-0.365193
-0.378791
-0.38672
-0.387469
-0.378974
-0.359239
-0.328756
-0.291344
-0.252369
-0.216233
-0.185222
-0.159878
-0.139845
-0.124503
-0.113257
-0.105674
-0.101559
-0.100983
-0.104332
-0.112463
-0.126429
-0.145569
-0.165921
-0.181644
-0.187729
-0.180342
-0.164829
-0.145663
-0.127416
-0.112616
-0.102193
-0.0965547
-0.095849
-0.10007
-0.10997
-0.127666
-0.155652
-0.194444
-0.24025
-0.284052
-0.313996
-0.3224
-0.298193
-0.258179
-0.211564
-0.168522
-0.13507
-0.11234
-0.0985731
-0.092584
-0.0952404
-0.108073
-0.129581
-0.15046
-0.158454
-0.149168
-0.131535
-0.115731
-0.110305
-0.121136
-0.150184
-0.191722
-0.231969
-0.254046
-0.247105
-0.213991
-0.166297
-0.11691
-0.0758126
-0.0452975
-0.0261365
-0.012616
-0.00518978
0.000583591
0.00468301
0.00499441
0.00511589
0.00212351
-0.105869
-0.101264
-0.10187
-0.102831
-0.107032
-0.115275
-0.127378
-0.143752
-0.164603
-0.189642
-0.218046
-0.24843
-0.27898
-0.307653
-0.332448
-0.351875
-0.365499
-0.373086
-0.373444
-0.364531
-0.344784
-0.315172
-0.279551
-0.242797
-0.208682
-0.179108
-0.154528
-0.13467
-0.119042
-0.107164
-0.0986439
-0.0932301
-0.0908644
-0.0918322
-0.0968899
-0.107043
-0.122224
-0.139466
-0.153708
-0.160254
-0.155772
-0.144126
-0.128741
-0.113759
-0.101523
-0.0930317
-0.0888557
-0.0892821
-0.0944111
-0.105052
-0.123408
-0.152182
-0.192225
-0.239962
-0.286369
-0.319202
-0.328809
-0.307074
-0.267002
-0.219021
-0.173973
-0.138403
-0.113816
-0.0984149
-0.0907129
-0.0912516
-0.101398
-0.120076
-0.139169
-0.147188
-0.139617
-0.12418
-0.110259
-0.106368
-0.118581
-0.149135
-0.192452
-0.23447
-0.257792
-0.251147
-0.217118
-0.167614
-0.116036
-0.0729799
-0.0410455
-0.021196
-0.00734888
-7.00448e-05
0.00541067
0.00878002
0.00798681
0.00706337
0.00272666
-0.0654429
-0.0625897
-0.0632404
-0.0670598
-0.0744987
-0.0857898
-0.101149
-0.120652
-0.144195
-0.17132
-0.201099
-0.232159
-0.262842
-0.291363
-0.315995
-0.33545
-0.349173
-0.356595
-0.356602
-0.347374
-0.327889
-0.29958
-0.266208
-0.232053
-0.200246
-0.172334
-0.148706
-0.129188
-0.113419
-0.10103
-0.0917119
-0.085224
-0.0814253
-0.080393
-0.0826855
-0.0893041
-0.100641
-0.114675
-0.12714
-0.133971
-0.131825
-0.12356
-0.111639
-0.0997154
-0.0898887
-0.0832011
-0.0803584
-0.0817737
-0.0876374
-0.0987776
-0.11742
-0.14644
-0.187058
-0.236103
-0.284629
-0.320047
-0.331628
-0.312788
-0.273655
-0.225021
-0.178412
-0.140981
-0.114675
-0.0977316
-0.0884098
-0.0869188
-0.0944719
-0.11036
-0.1276
-0.135562
-0.12951
-0.116137
-0.103958
-0.10143
-0.114787
-0.14656
-0.191406
-0.235088
-0.259735
-0.253708
-0.219153
-0.168271
-0.114877
-0.0701383
-0.0369529
-0.0165388
-0.00244782
0.00465586
0.00985531
0.0125712
0.0107805
0.00891104
0.00330211
-0.0391032
-0.0368906
-0.0381052
-0.0429529
-0.0516817
-0.0644649
-0.0812992
-0.102055
-0.12651
-0.154129
-0.183942
-0.21464
-0.244736
-0.272664
-0.296989
-0.316869
-0.330395
-0.337575
-0.337227
-0.32786
-0.309024
-0.28251
-0.25182
-0.220563
-0.191265
-0.165171
-0.142642
-0.123604
-0.10783
-0.0950585
-0.0850552
-0.0776335
-0.072638
-0.0700256
-0.0700789
-0.0735891
-0.081306
-0.0921033
-0.10257
-0.109366
-0.109211
-0.1035
-0.0946644
-0.0855508
-0.077937
-0.0728994
-0.0712463
-0.0735009
-0.0799276
-0.0913379
-0.109911
-0.13863
-0.179093
-0.228698
-0.278817
-0.316597
-0.330703
-0.315177
-0.277936
-0.229418
-0.181755
-0.142795
-0.114946
-0.0965836
-0.0857601
-0.0823663
-0.0874655
-0.100649
-0.115999
-0.123806
-0.119078
-0.107594
-0.096979
-0.0956055
-0.109843
-0.142514
-0.188584
-0.233798
-0.259818
-0.254746
-0.220036
-0.168228
-0.113414
-0.0672841
-0.0330197
-0.0121582
0.00210245
0.00900866
0.0139362
0.0160737
0.0133908
0.0106681
0.00385214
-0.0251294
-0.0235189
-0.0242218
-0.0285921
-0.0373278
-0.0503004
-0.0671138
-0.0875536
-0.111445
-0.138258
-0.167031
-0.196558
-0.225507
-0.252438
-0.276131
-0.296056
-0.309338
-0.31622
-0.315607
-0.306401
-0.288702
-0.264482
-0.236831
-0.208675
-0.182003
-0.157828
-0.136508
-0.118075
-0.102426
-0.089405
-0.078846
-0.0706092
-0.0645733
-0.0606398
-0.0589138
-0.0599265
-0.0644228
-0.0720568
-0.0804002
-0.0868284
-0.0895043
-0.0841329
-0.0780965
-0.0715226
-0.0658897
-0.0623288
-0.0617166
-0.0646626
-0.0714933
-0.0829722
-0.101168
-0.129098
-0.168692
-0.218011
-0.269056
-0.308978
-0.325945
-0.314033
-0.279653
-0.232069
-0.183945
-0.143849
-0.114669
-0.0950322
-0.082834
-0.0776996
-0.0805154
-0.0911255
-0.104594
-0.112125
-0.10852
-0.0987359
-0.0894784
-0.089031
-0.103863
-0.137085
-0.184042
-0.230595
-0.258026
-0.254271
-0.219722
-0.167453
-0.111634
-0.0644142
-0.0292465
-0.00804868
0.00631574
0.0130067
0.017672
0.0193048
0.0158315
0.0123429
0.00437881
-0.0213234
-0.0201661
-0.0193416
-0.0220331
-0.0297285
-0.0418899
-0.0576154
-0.0766598
-0.0989835
-0.124086
-0.151049
-0.178798
-0.206126
-0.231674
-0.254164
-0.272048
-0.286028
-0.292835
-0.292174
-0.283533
-0.267503
-0.246023
-0.22166
-0.196699
-0.172691
-0.150482
-0.130452
-0.112731
-0.097329
-0.0841885
-0.0732102
-0.0642944
-0.0573546
-0.0522916
-0.0490952
-0.0480798
-0.0498801
-0.0546219
-0.0608154
-0.0662342
-0.0687849
-0.0653502
-0.062224
-0.0578748
-0.0539591
-0.0516892
-0.0519706
-0.0554695
-0.0625605
-0.073938
-0.0915107
-0.118242
-0.156361
-0.204612
-0.255798
-0.297443
-0.317481
-0.309375
-0.278698
-0.232877
-0.184961
-0.144158
-0.113885
-0.0931292
-0.0797069
-0.073005
-0.073719
-0.0819253
-0.0935499
-0.100706
-0.0980446
-0.0897425
-0.0816192
-0.0818599
-0.0969969
-0.13041
-0.177879
-0.225525
-0.254391
-0.252329
-0.218175
-0.165921
-0.109521
-0.0615211
-0.0256309
-0.00420368
0.0102049
0.0166675
0.0210811
0.0222814
0.018115
0.013943
0.00488396
-0.0263583
-0.0250136
-0.0215565
-0.0218469
-0.0278155
-0.0382568
-0.0520085
-0.0689224
-0.0890382
-0.111822
-0.13642
-0.161899
-0.187154
-0.21092
-0.231979
-0.248992
-0.261688
-0.26806
-0.267525
-0.259917
-0.246052
-0.227632
-0.206664
-0.184885
-0.16351
-0.143272
-0.124585
-0.107667
-0.0926231
-0.0794845
-0.0682172
-0.0587595
-0.051058
-0.0450346
-0.0406207
-0.0379676
-0.0375621
-0.0397763
-0.0438621
-0.0480284
-0.0502741
-0.0475843
-0.0473552
-0.0448141
-0.0423381
-0.0411661
-0.0421932
-0.0461118
-0.0533365
-0.0644861
-0.0812591
-0.106488
-0.142621
-0.189094
-0.239727
-0.28262
-0.305638
-0.301353
-0.275169
-0.231842
-0.184785
-0.143716
-0.112609
-0.0908981
-0.0764215
-0.068345
-0.0671667
-0.0731414
-0.0829819
-0.0897012
-0.0878478
-0.0807768
-0.0735649
-0.0742542
-0.0893942
-0.122631
-0.170243
-0.218712
-0.248979
-0.248828
-0.21535
-0.163617
-0.10706
-0.0585896
-0.0221636
-0.000612601
0.013784
0.0200085
0.0241816
0.0250191
0.0202516
0.0154751
0.00536914
-0.0374579
-0.0354007
-0.0294959
-0.0272569
-0.0307976
-0.0385908
-0.0495944
-0.0637649
-0.0811366
-0.101099
-0.122892
-0.145689
-0.16846
-0.190056
-0.209383
-0.225272
-0.236572
-0.242486
-0.242389
-0.236283
-0.22495
-0.209726
-0.192106
-0.173392
-0.154552
-0.136249
-0.118924
-0.102872
-0.0882786
-0.0752479
-0.0638109
-0.0539441
-0.0456228
-0.0388031
-0.0333981
-0.0294428
-0.0272773
-0.027351
-0.0294659
-0.0323845
-0.0344737
-0.030633
-0.0337629
-0.0325167
-0.0311952
-0.0309224
-0.0325587
-0.0367846
-0.0440351
-0.0548536
-0.0707149
-0.0942467
-0.128026
-0.172188
-0.22153
-0.265096
-0.290926
-0.290107
-0.26924
-0.228982
-0.183386
-0.142493
-0.110845
-0.0883667
-0.0730177
-0.063783
-0.0609727
-0.0648841
-0.072986
-0.0792231
-0.0781658
-0.071975
-0.0654638
-0.0663819
-0.0812508
-0.113958
-0.161298
-0.210269
-0.241871
-0.243351
-0.211254
-0.160539
-0.104243
-0.0556137
-0.0188396
0.00273561
0.0170685
0.0230482
0.0269915
0.0275328
0.0222497
0.0169446
0.00583576
-0.0506835
-0.0475079
-0.0401718
-0.0363016
-0.0373134
-0.0418832
-0.0496065
-0.0605765
-0.0746756
-0.0913332
-0.109932
-0.129724
-0.149733
-0.168929
-0.186449
-0.20087
-0.211159
-0.216895
-0.217603
-0.213325
-0.204656
-0.192555
-0.178092
-0.162241
-0.145791
-0.129352
-0.113389
-0.0982559
-0.0842007
-0.0713879
-0.0599062
-0.0497727
-0.0409835
-0.0335287
-0.0273385
-0.0223706
-0.0188312
-0.0171474
-0.0174834
-0.0192263
-0.0218296
-0.0281338
-0.0220668
-0.021138
-0.020659
-0.0210843
-0.0231919
-0.0276133
-0.0348051
-0.0452439
-0.0601486
-0.0818557
-0.113024
-0.154396
-0.201972
-0.245807
-0.274207
-0.276716
-0.261214
-0.224384
-0.180851
-0.140624
-0.108766
-0.0857166
-0.0696487
-0.0594259
-0.0552106
-0.0572868
-0.0636943
-0.0693756
-0.0706558
-0.0634358
-0.0574628
-0.0583888
-0.0726975
-0.10454
-0.151271
-0.200454
-0.233184
-0.235823
-0.206006
-0.156737
-0.101122
-0.0526456
-0.0156933
0.00583307