/*--------------------------------*- C++ -*----------------------------------*\
| =========                 |                                                 |
| \\      /  F ield         | OpenFOAM: The Open Source CFD Toolbox           |
|  \\    /   O peration     | Version:  2512                                  |
|   \\  /    A nd           | Website:  www.openfoam.com                      |
|    \\/     M anipulation  |                                                 |
\*---------------------------------------------------------------------------*/
FoamFile
{
    version     2.0;
    format      ascii;
    arch        "LSB;label=32;scalar=64";
    class       volVectorField;
    location    "57";
    object      U;
}
// * * * * * * * * * * * * * * * * * * * * * * * * * * * * * * * * * * * * * //

dimensions      [0 1 -1 0 0 0 0];

internalField   nonuniform List<vector> 
9800
(
(1 -3.14021e-05 0)
(1.00013 -9.51399e-05 0)
(1.00037 -0.000156752 0)
(1.00071 -0.00021473 0)
(1.00114 -0.000268281 0)
(1.00164 -0.000317296 0)
(1.0022 -0.000362143 0)
(1.00281 -0.000403396 0)
(1.00345 -0.000441644 0)
(1.00413 -0.000477402 0)
(1.00483 -0.000511094 0)
(1.00556 -0.000543058 0)
(1.00629 -0.000573545 0)
(1.00705 -0.000602712 0)
(1.00781 -0.000630618 0)
(1.00857 -0.000657228 0)
(1.00935 -0.000682411 0)
(1.01012 -0.000705978 0)
(1.01089 -0.000727697 0)
(1.01165 -0.000747337 0)
(1.01241 -0.000764678 0)
(1.01316 -0.000779546 0)
(1.01389 -0.000791812 0)
(1.01461 -0.000801414 0)
(1.01531 -0.000808343 0)
(1.016 -0.000812651 0)
(1.01666 -0.000814435 0)
(1.0173 -0.000813831 0)
(1.01791 -0.000811005 0)
(1.0185 -0.000806141 0)
(1.01907 -0.000799441 0)
(1.01961 -0.000791104 0)
(1.02013 -0.000781336 0)
(1.02062 -0.000770331 0)
(1.02109 -0.000758281 0)
(1.02153 -0.000745358 0)
(1.02195 -0.000731735 0)
(1.02235 -0.000717556 0)
(1.02273 -0.000702967 0)
(1.02308 -0.000688085 0)
(1 -9.30263e-05 0)
(1.00013 -0.000281926 0)
(1.00037 -0.000464578 0)
(1.00071 -0.000636511 0)
(1.00114 -0.000795364 0)
(1.00164 -0.000940802 0)
(1.0022 -0.00107393 0)
(1.00281 -0.00119645 0)
(1.00345 -0.00131013 0)
(1.00413 -0.0014165 0)
(1.00484 -0.00151684 0)
(1.00556 -0.00161216 0)
(1.0063 -0.00170319 0)
(1.00706 -0.0017904 0)
(1.00782 -0.00187395 0)
(1.0086 -0.0019537 0)
(1.00938 -0.00202925 0)
(1.01015 -0.00210001 0)
(1.01093 -0.00216529 0)
(1.01171 -0.00222437 0)
(1.01247 -0.00227659 0)
(1.01323 -0.00232141 0)
(1.01397 -0.00235844 0)
(1.0147 -0.00238749 0)
(1.01541 -0.00240852 0)
(1.01611 -0.00242169 0)
(1.01678 -0.00242728 0)
(1.01743 -0.00242569 0)
(1.01805 -0.00241742 0)
(1.01865 -0.00240302 0)
(1.01923 -0.00238309 0)
(1.01978 -0.00235824 0)
(1.0203 -0.00232907 0)
(1.0208 -0.00229617 0)
(1.02128 -0.00226012 0)
(1.02173 -0.00222143 0)
(1.02215 -0.00218062 0)
(1.02256 -0.00213814 0)
(1.02294 -0.00209441 0)
(1.0233 -0.00204979 0)
(1 -0.000152232 0)
(1.00013 -0.000461566 0)
(1.00037 -0.000760849 0)
(1.00071 -0.00104275 0)
(1.00114 -0.00130338 0)
(1.00164 -0.00154218 0)
(1.0022 -0.00176097 0)
(1.00281 -0.00196258 0)
(1.00345 -0.00214991 0)
(1.00413 -0.00232552 0)
(1.00484 -0.00249153 0)
(1.00557 -0.00264959 0)
(1.00632 -0.00280091 0)
(1.00708 -0.00294621 0)
(1.00786 -0.0030857 0)
(1.00864 -0.00321912 0)
(1.00943 -0.00334574 0)
(1.01022 -0.00346455 0)
(1.01101 -0.00357432 0)
(1.0118 -0.00367383 0)
(1.01259 -0.00376195 0)
(1.01336 -0.00383774 0)
(1.01413 -0.00390053 0)
(1.01487 -0.00394997 0)
(1.0156 -0.00398599 0)
(1.01631 -0.00400881 0)
(1.017 -0.0040189 0)
(1.01767 -0.00401691 0)
(1.01831 -0.00400368 0)
(1.01893 -0.00398011 0)
(1.01953 -0.00394722 0)
(1.02009 -0.003906 0)
(1.02063 -0.00385748 0)
(1.02115 -0.00380265 0)
(1.02164 -0.00374247 0)
(1.0221 -0.00367782 0)
(1.02254 -0.00360956 0)
(1.02296 -0.00353845 0)
(1.02335 -0.00346521 0)
(1.02372 -0.00339046 0)
(1 -0.000208901 0)
(1.00012 -0.000633758 0)
(1.00036 -0.00104518 0)
(1.00071 -0.00143308 0)
(1.00113 -0.00179208 0)
(1.00163 -0.00212144 0)
(1.00219 -0.00242365 0)
(1.0028 -0.00270262 0)
(1.00345 -0.00296241 0)
(1.00413 -0.00320659 0)
(1.00484 -0.0034381 0)
(1.00558 -0.00365923 0)
(1.00633 -0.0038716 0)
(1.0071 -0.00407618 0)
(1.00789 -0.00427317 0)
(1.00869 -0.00446208 0)
(1.0095 -0.00464181 0)
(1.01031 -0.00481085 0)
(1.01112 -0.0049674 0)
(1.01193 -0.00510967 0)
(1.01274 -0.00523596 0)
(1.01354 -0.00534492 0)
(1.01433 -0.00543553 0)
(1.01511 -0.00550724 0)
(1.01587 -0.00555992 0)
(1.01661 -0.00559384 0)
(1.01732 -0.00560962 0)
(1.01802 -0.00560818 0)
(1.01869 -0.00559065 0)
(1.01933 -0.00555832 0)
(1.01995 -0.0055126 0)
(1.02054 -0.00545492 0)
(1.02111 -0.00538676 0)
(1.02164 -0.00530947 0)
(1.02215 -0.00522447 0)
(1.02264 -0.00513299 0)
(1.02309 -0.00503631 0)
(1.02353 -0.00493546 0)
(1.02394 -0.00483154 0)
(1.02432 -0.00472539 0)
(1 -0.000262909 0)
(1.00012 -0.000798189 0)
(1.00036 -0.00131717 0)
(1.0007 -0.00180706 0)
(1.00113 -0.00226107 0)
(1.00162 -0.00267831 0)
(1.00218 -0.00306186 0)
(1.00279 -0.00341673 0)
(1.00344 -0.00374815 0)
(1.00412 -0.00406069 0)
(1.00483 -0.00435812 0)
(1.00558 -0.00464333 0)
(1.00634 -0.00491837 0)
(1.00712 -0.00518437 0)
(1.00792 -0.00544145 0)
(1.00874 -0.00568884 0)
(1.00957 -0.00592496 0)
(1.0104 -0.0061477 0)
(1.01124 -0.00635461 0)
(1.01209 -0.00654323 0)
(1.01293 -0.00671123 0)
(1.01376 -0.00685671 0)
(1.01458 -0.00697827 0)
(1.0154 -0.00707512 0)
(1.01619 -0.00714699 0)
(1.01697 -0.00719417 0)
(1.01772 -0.00721741 0)
(1.01846 -0.00721785 0)
(1.01916 -0.00719696 0)
(1.01984 -0.0071564 0)
(1.02049 -0.007098 0)
(1.02112 -0.00702362 0)
(1.02171 -0.00693521 0)
(1.02228 -0.00683457 0)
(1.02281 -0.00672357 0)
(1.02332 -0.00660384 0)
(1.02381 -0.00647709 0)
(1.02426 -0.0063447 0)
(1.02469 -0.00620814 0)
(1.02509 -0.00606853 0)
(1 -0.000314116 0)
(1.00012 -0.000954503 0)
(1.00036 -0.00157627 0)
(1.00069 -0.00216401 0)
(1.00111 -0.00270961 0)
(1.00161 -0.00321196 0)
(1.00216 -0.00367482 0)
(1.00276 -0.00410426 0)
(1.00341 -0.00450668 0)
(1.00409 -0.0048877 0)
(1.00481 -0.00525188 0)
(1.00556 -0.00560275 0)
(1.00633 -0.00594277 0)
(1.00713 -0.00627317 0)
(1.00795 -0.00659392 0)
(1.00878 -0.00690383 0)
(1.00963 -0.00720076 0)
(1.0105 -0.0074819 0)
(1.01137 -0.00774402 0)
(1.01225 -0.00798384 0)
(1.01312 -0.0081983 0)
(1.014 -0.00838488 0)
(1.01486 -0.00854168 0)
(1.01572 -0.00866758 0)
(1.01656 -0.00876211 0)
(1.01738 -0.00882552 0)
(1.01819 -0.00885866 0)
(1.01896 -0.00886286 0)
(1.01972 -0.00883992 0)
(1.02044 -0.00879187 0)
(1.02113 -0.008721 0)
(1.0218 -0.00862961 0)
(1.02243 -0.00852015 0)
(1.02304 -0.00839492 0)
(1.02361 -0.00825629 0)
(1.02415 -0.00810633 0)
(1.02466 -0.00794724 0)
(1.02515 -0.00778078 0)
(1.0256 -0.00760887 0)
(1.02603 -0.00743291 0)
(1 -0.000362362 0)
(1.00012 -0.00110228 0)
(1.00035 -0.00182177 0)
(1.00068 -0.00250304 0)
(1.00109 -0.0031366 0)
(1.00158 -0.00372115 0)
(1.00213 -0.00426121 0)
(1.00273 -0.00476385 0)
(1.00337 -0.0052367 0)
(1.00405 -0.00568644 0)
(1.00477 -0.00611851 0)
(1.00552 -0.00653705 0)
(1.0063 -0.00694491 0)
(1.00711 -0.0073434 0)
(1.00794 -0.00773221 0)
(1.0088 -0.00810966 0)
(1.00968 -0.00847291 0)
(1.01057 -0.00881834 0)
(1.01148 -0.00914175 0)
(1.0124 -0.00943892 0)
(1.01332 -0.00970589 0)
(1.01424 -0.00993942 0)
(1.01516 -0.010137 0)
(1.01607 -0.010297 0)
(1.01696 -0.0104188 0)
(1.01784 -0.0105023 0)
(1.0187 -0.0105486 0)
(1.01953 -0.0105591 0)
(1.02034 -0.010536 0)
(1.02112 -0.0104816 0)
(1.02186 -0.0103986 0)
(1.02258 -0.0102899 0)
(1.02326 -0.0101585 0)
(1.02391 -0.0100072 0)
(1.02452 -0.00983887 0)
(1.02511 -0.00965618 0)
(1.02566 -0.00946186 0)
(1.02617 -0.00925807 0)
(1.02666 -0.00904728 0)
(1.02712 -0.00883122 0)
(1 -0.000407482 0)
(1.00012 -0.00124103 0)
(1.00034 -0.0020529 0)
(1.00066 -0.00282304 0)
(1.00107 -0.00354066 0)
(1.00154 -0.0042043 0)
(1.00208 -0.00481915 0)
(1.00267 -0.00539346 0)
(1.00331 -0.0059361 0)
(1.00399 -0.00645483 0)
(1.0047 -0.00695602 0)
(1.00545 -0.00744452 0)
(1.00624 -0.00792354 0)
(1.00706 -0.00839436 0)
(1.00791 -0.00885632 0)
(1.00879 -0.00930719 0)
(1.00969 -0.00974331 0)
(1.01062 -0.0101601 0)
(1.01157 -0.0105521 0)
(1.01253 -0.0109141 0)
(1.0135 -0.011241 0)
(1.01448 -0.0115287 0)
(1.01545 -0.0117739 0)
(1.01642 -0.0119745 0)
(1.01738 -0.0121293 0)
(1.01832 -0.0122381 0)
(1.01924 -0.0123018 0)
(1.02014 -0.0123221 0)
(1.02102 -0.0123013 0)
(1.02186 -0.0122421 0)
(1.02267 -0.0121479 0)
(1.02344 -0.0120217 0)
(1.02418 -0.0118674 0)
(1.02489 -0.0116883 0)
(1.02556 -0.011488 0)
(1.02619 -0.0112695 0)
(1.02678 -0.0110364 0)
(1.02734 -0.0107913 0)
(1.02787 -0.0105373 0)
(1.02836 -0.0102764 0)
(1 -0.00044932 0)
(1.00011 -0.00137022 0)
(1.00033 -0.00226882 0)
(1.00064 -0.0031228 0)
(1.00103 -0.00392028 0)
(1.0015 -0.0046595 0)
(1.00202 -0.00534638 0)
(1.0026 -0.00599059 0)
(1.00322 -0.00660218 0)
(1.00389 -0.00718998 0)
(1.0046 -0.0077615 0)
(1.00535 -0.00832239 0)
(1.00614 -0.00887615 0)
(1.00697 -0.00942392 0)
(1.00783 -0.00996466 0)
(1.00873 -0.0104956 0)
(1.00966 -0.0110121 0)
(1.01063 -0.0115083 0)
(1.01161 -0.0119775 0)
(1.01262 -0.012413 0)
(1.01365 -0.0128087 0)
(1.01468 -0.0131594 0)
(1.01572 -0.0134609 0)
(1.01676 -0.01371 0)
(1.01779 -0.0139051 0)
(1.01881 -0.0140456 0)
(1.01981 -0.0141323 0)
(1.02079 -0.0141669 0)
(1.02173 -0.0141519 0)
(1.02265 -0.0140905 0)
(1.02354 -0.0139862 0)
(1.02439 -0.0138429 0)
(1.0252 -0.0136649 0)
(1.02597 -0.0134562 0)
(1.0267 -0.0132212 0)
(1.02739 -0.0129635 0)
(1.02804 -0.0126875 0)
(1.02865 -0.0123963 0)
(1.02922 -0.0120937 0)
(1.02975 -0.0117823 0)
(0.999999 -0.000487713 0)
(1.00011 -0.00148935 0)
(1.00031 -0.00246862 0)
(1.00061 -0.00340111 0)
(1.00099 -0.00427381 0)
(1.00144 -0.00508464 0)
(1.00194 -0.00584053 0)
(1.0025 -0.00655243 0)
(1.00311 -0.00723169 0)
(1.00377 -0.00788831 0)
(1.00446 -0.00853119 0)
(1.00521 -0.00916688 0)
(1.00599 -0.00979902 0)
(1.00683 -0.0104286 0)
(1.0077 -0.0110541 0)
(1.00862 -0.0116724 0)
(1.00958 -0.0122776 0)
(1.01057 -0.0128624 0)
(1.0116 -0.0134185 0)
(1.01266 -0.0139378 0)
(1.01374 -0.0144128 0)
(1.01484 -0.0148369 0)
(1.01595 -0.0152047 0)
(1.01707 -0.0155121 0)
(1.01818 -0.0157565 0)
(1.01929 -0.0159369 0)
(1.02037 -0.0160538 0)
(1.02144 -0.0161088 0)
(1.02248 -0.0161045 0)
(1.02349 -0.0160441 0)
(1.02446 -0.015932 0)
(1.02539 -0.0157723 0)
(1.02628 -0.0155702 0)
(1.02713 -0.0153302 0)
(1.02794 -0.0150577 0)
(1.0287 -0.014757 0)
(1.02941 -0.0144333 0)
(1.03009 -0.0140903 0)
(1.03071 -0.0137329 0)
(1.0313 -0.0133641 0)
(0.999999 -0.000522498 0)
(1.0001 -0.00159796 0)
(1.0003 -0.00265145 0)
(1.00058 -0.00365682 0)
(1.00094 -0.00459957 0)
(1.00136 -0.00547762 0)
(1.00185 -0.00629908 0)
(1.00238 -0.007076 0)
(1.00297 -0.00782102 0)
(1.00361 -0.00854574 0)
(1.00429 -0.00926073 0)
(1.00502 -0.00997334 0)
(1.00579 -0.0106873 0)
(1.00663 -0.0114034 0)
(1.00751 -0.0121201 0)
(1.00844 -0.0128335 0)
(1.00942 -0.0135364 0)
(1.01045 -0.0142198 0)
(1.01152 -0.0148737 0)
(1.01263 -0.0154884 0)
(1.01377 -0.0160547 0)
(1.01494 -0.0165646 0)
(1.01613 -0.0170109 0)
(1.01733 -0.0173882 0)
(1.01853 -0.017693 0)
(1.01973 -0.0179236 0)
(1.02092 -0.0180798 0)
(1.02209 -0.018163 0)
(1.02323 -0.0181758 0)
(1.02434 -0.0181215 0)
(1.02541 -0.0180048 0)
(1.02645 -0.0178305 0)
(1.02744 -0.0176044 0)
(1.02838 -0.0173318 0)
(1.02928 -0.017019 0)
(1.03012 -0.0166711 0)
(1.03091 -0.0162944 0)
(1.03166 -0.0158932 0)
(1.03235 -0.0154737 0)
(1.033 -0.0150393 0)
(0.999999 -0.000553566 0)
(1.00009 -0.00169557 0)
(1.00027 -0.00281662 0)
(1.00054 -0.00388878 0)
(1.00088 -0.00489596 0)
(1.00128 -0.00583639 0)
(1.00173 -0.0067196 0)
(1.00224 -0.0075583 0)
(1.0028 -0.00836638 0)
(1.00341 -0.00915793 0)
(1.00406 -0.00994536 0)
(1.00477 -0.0107365 0)
(1.00554 -0.0115352 0)
(1.00636 -0.0123425 0)
(1.00724 -0.0131568 0)
(1.00818 -0.0139734 0)
(1.00918 -0.0147834 0)
(1.01023 -0.0155761 0)
(1.01135 -0.0163396 0)
(1.01251 -0.0170627 0)
(1.01371 -0.0177342 0)
(1.01495 -0.018344 0)
(1.01622 -0.0188829 0)
(1.01752 -0.0193442 0)
(1.01882 -0.0197229 0)
(1.02012 -0.0200162 0)
(1.02142 -0.0202233 0)
(1.02271 -0.0203448 0)
(1.02397 -0.0203833 0)
(1.0252 -0.0203418 0)
(1.02639 -0.0202257 0)
(1.02754 -0.0200397 0)
(1.02865 -0.0197909 0)
(1.0297 -0.0194849 0)
(1.0307 -0.0191293 0)
(1.03165 -0.0187299 0)
(1.03254 -0.0182943 0)
(1.03337 -0.0178278 0)
(1.03414 -0.0173378 0)
(1.03486 -0.0168284 0)
(0.999999 -0.000580828 0)
(1.00008 -0.00178178 0)
(1.00025 -0.00296361 0)
(1.00049 -0.00409602 0)
(1.00081 -0.00516145 0)
(1.00118 -0.00615923 0)
(1.0016 -0.00709993 0)
(1.00207 -0.00799621 0)
(1.0026 -0.00886402 0)
(1.00317 -0.00972055 0)
(1.00379 -0.0105801 0)
(1.00447 -0.0114506 0)
(1.00521 -0.0123362 0)
(1.00602 -0.013239 0)
(1.00689 -0.0141572 0)
(1.00783 -0.015085 0)
(1.00884 -0.0160115 0)
(1.00992 -0.0169247 0)
(1.01107 -0.0178106 0)
(1.01228 -0.0186566 0)
(1.01355 -0.0194486 0)
(1.01486 -0.0201743 0)
(1.01622 -0.0208224 0)
(1.01761 -0.021384 0)
(1.01902 -0.0218528 0)
(1.02044 -0.0222243 0)
(1.02186 -0.0224968 0)
(1.02328 -0.0226696 0)
(1.02467 -0.022745 0)
(1.02604 -0.0227256 0)
(1.02738 -0.022617 0)
(1.02867 -0.0224244 0)
(1.02991 -0.0221554 0)
(1.03109 -0.0218163 0)
(1.03222 -0.021416 0)
(1.03328 -0.0209611 0)
(1.03428 -0.0204607 0)
(1.03522 -0.019921 0)
(1.03609 -0.019351 0)
(1.0369 -0.0187557 0)
(0.999999 -0.000604162 0)
(1.00007 -0.00185634 0)
(1.00022 -0.00309208 0)
(1.00044 -0.00427763 0)
(1.00073 -0.00539474 0)
(1.00106 -0.00644487 0)
(1.00144 -0.00743804 0)
(1.00188 -0.00838672 0)
(1.00236 -0.00931038 0)
(1.00289 -0.0102296 0)
(1.00347 -0.0111598 0)
(1.00412 -0.0121092 0)
(1.00483 -0.0130833 0)
(1.00561 -0.0140851 0)
(1.00646 -0.0151129 0)
(1.00739 -0.0161596 0)
(1.0084 -0.0172121 0)
(1.0095 -0.0182572 0)
(1.01068 -0.0192791 0)
(1.01193 -0.0202633 0)
(1.01325 -0.0211926 0)
(1.01464 -0.0220523 0)
(1.01609 -0.0228283 0)
(1.01758 -0.0235096 0)
(1.0191 -0.0240877 0)
(1.02065 -0.0245562 0)
(1.02222 -0.0249117 0)
(1.02378 -0.0251522 0)
(1.02533 -0.0252789 0)
(1.02685 -0.025294 0)
(1.02834 -0.0252031 0)
(1.02979 -0.0250113 0)
(1.03119 -0.0247268 0)
(1.03253 -0.0243566 0)
(1.03381 -0.0239107 0)
(1.03502 -0.0233967 0)
(1.03615 -0.0228255 0)
(1.03722 -0.0222042 0)
(1.0382 -0.0215438 0)
(1.03912 -0.0208503 0)
(0.999999 -0.000623434 0)
(1.00006 -0.00191922 0)
(1.00019 -0.00320189 0)
(1.00039 -0.00443266 0)
(1.00064 -0.00559516 0)
(1.00093 -0.00669254 0)
(1.00127 -0.00773206 0)
(1.00166 -0.00872706 0)
(1.00209 -0.00970241 0)
(1.00257 -0.0106815 0)
(1.0031 -0.0116797 0)
(1.0037 -0.0127062 0)
(1.00437 -0.013769 0)
(1.00511 -0.0148727 0)
(1.00593 -0.016015 0)
(1.00684 -0.0171872 0)
(1.00785 -0.0183745 0)
(1.00895 -0.0195631 0)
(1.01015 -0.0207351 0)
(1.01144 -0.0218737 0)
(1.01281 -0.0229584 0)
(1.01427 -0.0239718 0)
(1.01581 -0.0248968 0)
(1.0174 -0.02572 0)
(1.01905 -0.0264301 0)
(1.02074 -0.0270179 0)
(1.02245 -0.0274782 0)
(1.02417 -0.0278065 0)
(1.02589 -0.0280033 0)
(1.0276 -0.0280692 0)
(1.02927 -0.0280097 0)
(1.03091 -0.0278293 0)
(1.03249 -0.027537 0)
(1.03401 -0.0271399 0)
(1.03547 -0.0266494 0)
(1.03685 -0.0260739 0)
(1.03814 -0.0254263 0)
(1.03936 -0.0247149 0)
(1.04049 -0.023953 0)
(1.04154 -0.0231475 0)
(0.999999 -0.00063846 0)
(1.00005 -0.00197073 0)
(1.00016 -0.00329283 0)
(1.00033 -0.00456038 0)
(1.00054 -0.00576276 0)
(1.00079 -0.00690184 0)
(1.00108 -0.00798011 0)
(1.00142 -0.00901503 0)
(1.0018 -0.0100378 0)
(1.00221 -0.0110726 0)
(1.00269 -0.0121347 0)
(1.00323 -0.0132354 0)
(1.00384 -0.0143864 0)
(1.00453 -0.0155937 0)
(1.00531 -0.0168537 0)
(1.00619 -0.0181567 0)
(1.00718 -0.019487 0)
(1.00827 -0.0208304 0)
(1.00948 -0.0221664 0)
(1.01079 -0.023476 0)
(1.01221 -0.024735 0)
(1.01374 -0.0259234 0)
(1.01536 -0.0270212 0)
(1.01706 -0.0280113 0)
(1.01883 -0.0288795 0)
(1.02066 -0.0296131 0)
(1.02253 -0.0302041 0)
(1.02443 -0.0306453 0)
(1.02634 -0.0309356 0)
(1.02825 -0.0310735 0)
(1.03013 -0.0310638 0)
(1.03198 -0.0309099 0)
(1.03378 -0.0306212 0)
(1.03552 -0.0302046 0)
(1.03718 -0.029673 0)
(1.03876 -0.0290355 0)
(1.04026 -0.028307 0)
(1.04166 -0.0274972 0)
(1.04296 -0.026622 0)
(1.04417 -0.0256897 0)
(0.999999 -0.000649046 0)
(1.00004 -0.00201149 0)
(1.00013 -0.00336439 0)
(1.00026 -0.00466053 0)
(1.00043 -0.00589856 0)
(1.00063 -0.00707229 0)
(1.00088 -0.00818058 0)
(1.00116 -0.00924942 0)
(1.00147 -0.0103149 0)
(1.00182 -0.0113998 0)
(1.00223 -0.0125202 0)
(1.0027 -0.0136916 0)
(1.00325 -0.0149292 0)
(1.00388 -0.0162396 0)
(1.0046 -0.0176187 0)
(1.00543 -0.0190563 0)
(1.00638 -0.0205364 0)
(1.00746 -0.0220449 0)
(1.00865 -0.0235583 0)
(1.00998 -0.0250553 0)
(1.01143 -0.0265082 0)
(1.01301 -0.0278945 0)
(1.01471 -0.0291905 0)
(1.01651 -0.0303756 0)
(1.01841 -0.0314317 0)
(1.02038 -0.0323417 0)
(1.02243 -0.0330945 0)
(1.02452 -0.0336791 0)
(1.02664 -0.034092 0)
(1.02877 -0.0343289 0)
(1.03089 -0.0343931 0)
(1.03298 -0.0342863 0)
(1.03503 -0.0340175 0)
(1.03702 -0.0335933 0)
(1.03894 -0.0330277 0)
(1.04076 -0.0323304 0)
(1.04249 -0.0315185 0)
(1.04412 -0.0306031 0)
(1.04563 -0.0296029 0)
(1.04703 -0.0285278 0)
(0.999999 -0.000655112 0)
(1.00002 -0.00204222 0)
(1.00009 -0.00341561 0)
(1.00019 -0.00473399 0)
(1.00031 -0.00600408 0)
(1.00047 -0.00720297 0)
(1.00066 -0.00833262 0)
(1.00088 -0.00943003 0)
(1.00112 -0.0105322 0)
(1.00139 -0.01166 0)
(1.00173 -0.0128326 0)
(1.00213 -0.0140703 0)
(1.00259 -0.0153916 0)
(1.00314 -0.0168027 0)
(1.00379 -0.0182999 0)
(1.00456 -0.0198738 0)
(1.00546 -0.021509 0)
(1.00649 -0.0231914 0)
(1.00766 -0.0248941 0)
(1.00898 -0.0265943 0)
(1.01045 -0.0282606 0)
(1.01207 -0.0298686 0)
(1.01384 -0.0313901 0)
(1.01573 -0.0328008 0)
(1.01775 -0.0340779 0)
(1.01988 -0.0351995 0)
(1.0221 -0.0361506 0)
(1.0244 -0.0369152 0)
(1.02674 -0.0374867 0)
(1.02912 -0.0378564 0)
(1.03151 -0.0380256 0)
(1.03388 -0.037993 0)
(1.03622 -0.037767 0)
(1.0385 -0.037353 0)
(1.04071 -0.0367655 0)
(1.04282 -0.0360148 0)
(1.04483 -0.0351198 0)
(1.04673 -0.034093 0)
(1.0485 -0.0329568 0)
(1.05013 -0.0317226 0)
(0.999999 -0.000656788 0)
(1.00001 -0.00206322 0)
(1.00006 -0.00344536 0)
(1.00012 -0.00478319 0)
(1.00019 -0.00608053 0)
(1.00029 -0.0072927 0)
(1.00043 -0.00843674 0)
(1.00058 -0.00955732 0)
(1.00074 -0.0106888 0)
(1.00094 -0.0118512 0)
(1.00119 -0.0130693 0)
(1.0015 -0.0143683 0)
(1.00187 -0.0157682 0)
(1.00233 -0.0172754 0)
(1.00289 -0.0188875 0)
(1.00358 -0.0205972 0)
(1.00441 -0.0223906 0)
(1.00538 -0.0242532 0)
(1.00651 -0.0261552 0)
(1.0078 -0.0280729 0)
(1.00927 -0.0299716 0)
(1.01091 -0.0318251 0)
(1.01272 -0.0336006 0)
(1.0147 -0.0352696 0)
(1.01683 -0.0368042 0)
(1.0191 -0.0381773 0)
(1.02151 -0.0393687 0)
(1.02401 -0.0403566 0)
(1.02661 -0.04113 0)
(1.02926 -0.0416746 0)
(1.03194 -0.0419883 0)
(1.03463 -0.0420657 0)
(1.0373 -0.0419135 0)
(1.03992 -0.0415347 0)
(1.04247 -0.0409442 0)
(1.04493 -0.0401517 0)
(1.04727 -0.0391784 0)
(1.04949 -0.0380378 0)
(1.05157 -0.0367559 0)
(1.0535 -0.0353463 0)
(0.999998 -0.000654402 0)
(0.999994 -0.00207401 0)
(1.00002 -0.00345303 0)
(1.00003 -0.00481219 0)
(1.00005 -0.00612773 0)
(1.00012 -0.00734082 0)
(1.0002 -0.0084949 0)
(1.00027 -0.00963167 0)
(1.00035 -0.0107838 0)
(1.00046 -0.0119726 0)
(1.00062 -0.0132292 0)
(1.00083 -0.014583 0)
(1.00109 -0.0160544 0)
(1.00145 -0.0176509 0)
(1.00191 -0.0193729 0)
(1.0025 -0.0212155 0)
(1.00323 -0.0231672 0)
(1.00412 -0.0252131 0)
(1.00518 -0.0273214 0)
(1.00642 -0.0294688 0)
(1.00786 -0.0316173 0)
(1.0095 -0.0337395 0)
(1.01134 -0.0357974 0)
(1.01337 -0.037759 0)
(1.01561 -0.0395906 0)
(1.01802 -0.0412592 0)
(1.0206 -0.0427389 0)
(1.02332 -0.0440008 0)
(1.02617 -0.0450277 0)
(1.02911 -0.0457985 0)
(1.03212 -0.0463062 0)
(1.03516 -0.0465395 0)
(1.03821 -0.0465021 0)
(1.04122 -0.0461933 0)
(1.04418 -0.0456273 0)
(1.04704 -0.0448123 0)
(1.04979 -0.0437715 0)
(1.0524 -0.0425188 0)
(1.05486 -0.0410844 0)
(1.05715 -0.0394843 0)
(0.999996 -0.000648123 0)
(0.99998 -0.00207326 0)
(0.999982 -0.00343955 0)
(0.99994 -0.00482583 0)
(0.999919 -0.00614338 0)
(0.999938 -0.00734867 0)
(0.999949 -0.00850962 0)
(0.999938 -0.00965313 0)
(0.999934 -0.0108181 0)
(0.999959 -0.0120245 0)
(1.00002 -0.0133124 0)
(1.00012 -0.0147128 0)
(1.00027 -0.0162464 0)
(1.00051 -0.0179237 0)
(1.00086 -0.0197485 0)
(1.00133 -0.0217186 0)
(1.00194 -0.0238252 0)
(1.00272 -0.0260535 0)
(1.00368 -0.0283718 0)
(1.00484 -0.0307578 0)
(1.00622 -0.0331709 0)
(1.00783 -0.035583 0)
(1.00967 -0.0379511 0)
(1.01174 -0.0402401 0)
(1.01405 -0.0424101 0)
(1.01658 -0.0444226 0)
(1.01933 -0.046244 0)
(1.02227 -0.0478378 0)
(1.02538 -0.049179 0)
(1.02863 -0.0502381 0)
(1.032 -0.0510007 0)
(1.03543 -0.0514482 0)
(1.0389 -0.051579 0)
(1.04236 -0.0513871 0)
(1.04579 -0.0508842 0)
(1.04913 -0.0500758 0)
(1.05236 -0.0489863 0)
(1.05544 -0.0476297 0)
(1.05835 -0.0460403 0)
(1.06107 -0.0442366 0)
(0.999992 -0.000637163 0)
(0.999965 -0.00205958 0)
(0.999934 -0.00340787 0)
(0.999836 -0.00482817 0)
(0.999784 -0.00612348 0)
(0.999753 -0.00732082 0)
(0.999692 -0.00848219 0)
(0.999601 -0.00962235 0)
(0.999509 -0.010794 0)
(0.999442 -0.0120083 0)
(0.999395 -0.0133202 0)
(0.999379 -0.0147568 0)
(0.999412 -0.0163415 0)
(0.999522 -0.0180898 0)
(0.999733 -0.0200076 0)
(1.00007 -0.0220974 0)
(1.00054 -0.0243519 0)
(1.00118 -0.0267578 0)
(1.00202 -0.0292854 0)
(1.00307 -0.0319146 0)
(1.00435 -0.0346033 0)
(1.00589 -0.0373233 0)
(1.00769 -0.0400271 0)
(1.00977 -0.0426779 0)
(1.01212 -0.0452287 0)
(1.01475 -0.0476362 0)
(1.01765 -0.0498579 0)
(1.02079 -0.0518493 0)
(1.02417 -0.053575 0)
(1.02774 -0.054996 0)
(1.03149 -0.0560877 0)
(1.03535 -0.0568222 0)
(1.03929 -0.0571896 0)
(1.04327 -0.0571763 0)
(1.04723 -0.0567892 0)
(1.05113 -0.0560297 0)
(1.05493 -0.0549212 0)
(1.05857 -0.0534777 0)
(1.06204 -0.0517368 0)
(1.06529 -0.0497198 0)
(0.999987 -0.000618785 0)
(0.999947 -0.0020334 0)
(0.999873 -0.00336148 0)
(0.999725 -0.00482124 0)
(0.999651 -0.00606317 0)
(0.99956 -0.00726533 0)
(0.999428 -0.00841069 0)
(0.999255 -0.00954302 0)
(0.999076 -0.0107145 0)
(0.998912 -0.0119261 0)
(0.998754 -0.0132553 0)
(0.998618 -0.0147148 0)
(0.998521 -0.0163391 0)
(0.998491 -0.0181468 0)
(0.998555 -0.0201452 0)
(0.998733 -0.022344 0)
(0.999045 -0.0247358 0)
(0.999526 -0.0273107 0)
(1.0002 -0.0300423 0)
(1.00111 -0.0329139 0)
(1.00226 -0.0358838 0)
(1.00369 -0.0389251 0)
(1.00541 -0.0419867 0)
(1.00744 -0.0450309 0)
(1.0098 -0.0480045 0)
(1.01249 -0.0508596 0)
(1.0155 -0.0535444 0)
(1.01883 -0.0560059 0)
(1.02247 -0.0581964 0)
(1.02636 -0.0600656 0)
(1.0305 -0.0615755 0)
(1.03482 -0.0626867 0)
(1.0393 -0.0633768 0)
(1.04385 -0.0636224 0)
(1.04843 -0.0634217 0)
(1.05298 -0.0627696 0)
(1.05745 -0.0616865 0)
(1.06177 -0.0601848 0)
(1.0659 -0.0583042 0)
(1.0698 -0.0560696 0)
(0.999981 -0.000587548 0)
(0.999924 -0.00200127 0)
(0.999795 -0.00330149 0)
(0.999609 -0.0048061 0)
(0.99952 -0.00595721 0)
(0.999359 -0.0071934 0)
(0.999163 -0.00828877 0)
(0.998902 -0.00942514 0)
(0.998638 -0.0105799 0)
(0.998376 -0.0117825 0)
(0.998102 -0.0131199 0)
(0.997844 -0.0145874 0)
(0.997608 -0.0162405 0)
(0.99743 -0.0180937 0)
(0.997333 -0.0201579 0)
(0.997336 -0.0224529 0)
(0.997466 -0.0249662 0)
(0.99776 -0.0276991 0)
(0.998247 -0.030624 0)
(0.998965 -0.0337319 0)
(0.999943 -0.0369817 0)
(1.00121 -0.0403511 0)
(1.00281 -0.043787 0)
(1.00475 -0.0472522 0)
(1.00706 -0.0506878 0)
(1.00976 -0.0540428 0)
(1.01285 -0.057256 0)
(1.01633 -0.0602659 0)
(1.02019 -0.0630106 0)
(1.02441 -0.0654275 0)
(1.02895 -0.0674614 0)
(1.03376 -0.0690583 0)
(1.0388 -0.0701788 0)
(1.044 -0.070786 0)
(1.04929 -0.0708644 0)
(1.05459 -0.0703997 0)
(1.05985 -0.0694047 0)
(1.06497 -0.067889 0)
(1.06991 -0.0658923 0)
(1.07459 -0.0634432 0)
(0.999975 -0.000535075 0)
(0.999891 -0.00197933 0)
(0.999702 -0.00322241 0)
(0.999496 -0.00478636 0)
(0.99939 -0.00579915 0)
(0.99915 -0.00711954 0)
(0.998902 -0.00810488 0)
(0.998542 -0.00928751 0)
(0.998204 -0.0103823 0)
(0.997835 -0.011589 0)
(0.997448 -0.0129125 0)
(0.997065 -0.0143794 0)
(0.996684 -0.0160473 0)
(0.996351 -0.0179312 0)
(0.99608 -0.020044 0)
(0.995893 -0.0224209 0)
(0.995824 -0.0250347 0)
(0.995904 -0.0279127 0)
(0.996172 -0.0310126 0)
(0.996666 -0.0343474 0)
(0.997425 -0.0378669 0)
(0.998489 -0.0415647 0)
(0.999897 -0.0453824 0)
(1.00169 -0.0492898 0)
(1.00389 -0.0532216 0)
(1.00653 -0.0571261 0)
(1.00964 -0.0609329 0)
(1.01322 -0.064573 0)
(1.01728 -0.0679698 0)
(1.02178 -0.0710468 0)
(1.02672 -0.0737281 0)
(1.03204 -0.0759417 0)
(1.0377 -0.0776254 0)
(1.0436 -0.0787244 0)
(1.04969 -0.0792027 0)
(1.05586 -0.0790322 0)
(1.06204 -0.0782124 0)
(1.06812 -0.0767474 0)
(1.07402 -0.0746734 0)
(1.07965 -0.0720226 0)
(0.999974 -0.000451454 0)
(0.999846 -0.00199 0)
(0.999602 -0.00310932 0)
(0.999392 -0.00477185 0)
(0.999264 -0.00557935 0)
(0.998937 -0.00706249 0)
(0.998653 -0.00784194 0)
(0.998177 -0.00915831 0)
(0.997786 -0.010101 0)
(0.997293 -0.0113709 0)
(0.996806 -0.0126199 0)
(0.996289 -0.0141063 0)
(0.995763 -0.0157554 0)
(0.995268 -0.0176664 0)
(0.994813 -0.0198011 0)
(0.994424 -0.0222492 0)
(0.994138 -0.0249334 0)
(0.99398 -0.0279463 0)
(0.994002 -0.0311905 0)
(0.994234 -0.0347437 0)
(0.99473 -0.0385093 0)
(0.995532 -0.0425329 0)
(0.996693 -0.0467248 0)
(0.99826 -0.0510892 0)
(1.00028 -0.0555405 0)
(1.0028 -0.0600398 0)
(1.00585 -0.0645022 0)
(1.00946 -0.0688557 0)
(1.01364 -0.0730084 0)
(1.01839 -0.076869 0)
(1.02371 -0.0803389 0)
(1.02953 -0.0833241 0)
(1.03583 -0.0857333 0)
(1.0425 -0.0874872 0)
(1.04948 -0.0885214 0)
(1.05665 -0.088787 0)
(1.0639 -0.0882619 0)
(1.0711 -0.0869397 0)
(1.07817 -0.0848476 0)
(1.08495 -0.0820208 0)
(0.999987 -0.00033043 0)
(0.999787 -0.00205313 0)
(0.999515 -0.00294173 0)
(0.999295 -0.00477941 0)
(0.999148 -0.00528536 0)
(0.998721 -0.00704546 0)
(0.998425 -0.00747932 0)
(0.997805 -0.00907327 0)
(0.997403 -0.00970334 0)
(0.996747 -0.0111711 0)
(0.996198 -0.0122097 0)
(0.995515 -0.0138052 0)
(0.994865 -0.0153431 0)
(0.994188 -0.017323 0)
(0.993552 -0.0194165 0)
(0.992946 -0.0219502 0)
(0.992432 -0.0246496 0)
(0.992012 -0.0278039 0)
(0.991765 -0.0311367 0)
(0.991696 -0.0349137 0)
(0.991891 -0.038874 0)
(0.992371 -0.0432312 0)
(0.993226 -0.0477616 0)
(0.994489 -0.0526002 0)
(0.99625 -0.0575689 0)
(0.998545 -0.0627068 0)
(1.00145 -0.0678741 0)
(1.00499 -0.0730259 0)
(1.00922 -0.07804 0)
(1.01414 -0.082818 0)
(1.01978 -0.0872346 0)
(1.02608 -0.0911707 0)
(1.03303 -0.0945 0)
(1.04052 -0.0971107 0)
(1.04848 -0.0988998 0)
(1.05677 -0.0997883 0)
(1.06527 -0.0997204 0)
(1.07381 -0.0986708 0)
(1.08226 -0.096649 0)
(1.09044 -0.09369 0)
(1.00004 -0.000173929 0)
(0.999699 -0.00217549 0)
(0.999476 -0.00270419 0)
(0.99919 -0.00482621 0)
(0.999067 -0.00490746 0)
(0.998491 -0.00708947 0)
(0.998244 -0.00699886 0)
(0.997417 -0.00906654 0)
(0.997081 -0.00915355 0)
(0.996183 -0.0110439 0)
(0.995653 -0.0116333 0)
(0.994729 -0.0135393 0)
(0.994021 -0.0147625 0)
(0.993105 -0.0169563 0)
(0.992329 -0.0188526 0)
(0.991464 -0.0215643 0)
(0.990737 -0.024153 0)
(0.990018 -0.0275123 0)
(0.989497 -0.0308167 0)
(0.989077 -0.0348715 0)
(0.988946 -0.0389121 0)
(0.989035 -0.0436557 0)
(0.989533 -0.0484238 0)
(0.990398 -0.0537907 0)
(0.991815 -0.0592107 0)
(0.99377 -0.0650543 0)
(0.996417 -0.07093 0)
(0.99977 -0.0769803 0)
(1.00393 -0.0829461 0)
(1.00893 -0.0887915 0)
(1.01479 -0.0943271 0)
(1.02152 -0.0994203 0)
(1.0291 -0.1039 0)
(1.03744 -0.107613 0)
(1.04646 -0.110407 0)
(1.05601 -0.11216 0)
(1.06594 -0.112767 0)
(1.07605 -0.112171 0)
(1.08616 -0.110349 0)
(1.09605 -0.107328 0)
(1.00018 6.08171e-06 0)
(0.999544 -0.0023466 0)
(0.999544 -0.00239874 0)
(0.999026 -0.00491617 0)
(0.99908 -0.00444837 0)
(0.998204 -0.00719976 0)
(0.998162 -0.00639639 0)
(0.996973 -0.00915362 0)
(0.996869 -0.0084306 0)
(0.995559 -0.0110309 0)
(0.995224 -0.0108461 0)
(0.993889 -0.0133776 0)
(0.993287 -0.0139507 0)
(0.99198 -0.0166503 0)
(0.991196 -0.0180417 0)
(0.98995 -0.0211734 0)
(0.989106 -0.0233797 0)
(0.987986 -0.0271427 0)
(0.987247 -0.0301652 0)
(0.986383 -0.0346755 0)
(0.985949 -0.0385432 0)
(0.985541 -0.0438489 0)
(0.98567 -0.0486036 0)
(0.986004 -0.0546772 0)
(0.987026 -0.0603265 0)
(0.988473 -0.0670526 0)
(0.990771 -0.0734939 0)
(0.993753 -0.0806258 0)
(0.997727 -0.0875427 0)
(1.00262 -0.0946633 0)
(1.00861 -0.101473 0)
(1.01566 -0.107977 0)
(1.0238 -0.113879 0)
(1.03298 -0.118994 0)
(1.04312 -0.123108 0)
(1.05406 -0.126034 0)
(1.06563 -0.127601 0)
(1.07759 -0.127702 0)
(1.08969 -0.12626 0)
(1.10166 -0.123283 0)
(1.0005 0.000191802 0)
(0.999233 -0.00254131 0)
(0.999822 -0.00204748 0)
(0.998698 -0.00503325 0)
(0.999295 -0.00393089 0)
(0.997753 -0.00735655 0)
(0.99829 -0.00569422 0)
(0.996371 -0.00931668 0)
(0.996867 -0.00754887 0)
(0.994777 -0.0111315 0)
(0.995005 -0.00983881 0)
(0.992894 -0.0133519 0)
(0.992757 -0.0128672 0)
(0.990716 -0.0164727 0)
(0.990254 -0.0169163 0)
(0.988317 -0.0208729 0)
(0.987636 -0.0222439 0)
(0.985845 -0.0268051 0)
(0.985115 -0.0290804 0)
(0.983563 -0.034443 0)
(0.982998 -0.0376393 0)
(0.981857 -0.0439321 0)
(0.981739 -0.0481281 0)
(0.981288 -0.0553752 0)
(0.981979 -0.0606858 0)
(0.982633 -0.0687871 0)
(0.984579 -0.0752753 0)
(0.986872 -0.0839723 0)
(0.990583 -0.0915018 0)
(0.995085 -0.100342 0)
(1.00107 -0.108387 0)
(1.00823 -0.116712 0)
(1.01686 -0.124296 0)
(1.02682 -0.131218 0)
(1.0381 -0.137063 0)
(1.05055 -0.14156 0)
(1.06397 -0.144471 0)
(1.07809 -0.145598 0)
(1.0926 -0.144783 0)
(1.10711 -0.142 0)
(1.00111 0.000366457 0)
(0.998641 -0.00273088 0)
(1.00045 -0.00168374 0)
(0.998047 -0.00515022 0)
(0.999879 -0.00339474 0)
(0.996962 -0.00751874 0)
(0.998802 -0.00494264 0)
(0.99543 -0.00950356 0)
(0.997247 -0.00656749 0)
(0.993656 -0.0112927 0)
(0.995164 -0.00866371 0)
(0.991566 -0.0134252 0)
(0.992602 -0.0115413 0)
(0.989131 -0.0164184 0)
(0.989679 -0.0154711 0)
(0.986381 -0.0206985 0)
(0.986517 -0.0207022 0)
(0.983418 -0.0265761 0)
(0.983299 -0.0274776 0)
(0.980454 -0.0342918 0)
(0.980302 -0.0360612 0)
(0.977839 -0.0440707 0)
(0.977954 -0.0467734 0)
(0.976123 -0.0561068 0)
(0.976894 -0.059944 0)
(0.976129 -0.070531 0)
(0.978042 -0.0757941 0)
(0.978987 -0.0872963 0)
(0.982633 -0.0942158 0)
(0.986092 -0.105995 0)
(0.992138 -0.114438 0)
(0.998899 -0.125601 0)
(1.00798 -0.134704 0)
(1.0185 -0.144201 0)
(1.03094 -0.152218 0)
(1.045 -0.15887 0)
(1.06049 -0.163698 0)
(1.07715 -0.1663 0)
(1.09455 -0.166478 0)
(1.11222 -0.164104 0)
(1.00207 0.000518628 0)
(0.997656 -0.00289404 0)
(1.00154 -0.00133585 0)
(0.996919 -0.00524178 0)