/*--------------------------------*- C++ -*----------------------------------*\
| =========                 |                                                 |
| \\      /  F ield         | OpenFOAM: The Open Source CFD Toolbox           |
|  \\    /   O peration     | Version:  2312                                  |
|   \\  /    A nd           | Website:  www.openfoam.com                      |
|    \\/     M anipulation  |                                                 |
\*---------------------------------------------------------------------------*/
FoamFile
{
    version     2.0;
    format      ascii;
    arch        "LSB;label=32;scalar=64";
    class       volScalarField;
    location    "108.4";
    object      p;
}
// * * * * * * * * * * * * * * * * * * * * * * * * * * * * * * * * * * * * * //

dimensions      [0 2 -2 0 0 0 0];

internalField   nonuniform List<scalar> 
5478
(
-0.331952
-0.333136
-0.331409
-0.326982
-0.31857
-0.305725
-0.288991
-0.270003
-0.250776
-0.232989
-0.217688
-0.204343
-0.19294
-0.181727
-0.170995
-0.339198
-0.338555
-0.33598
-0.330955
-0.322135
-0.308571
-0.290801
-0.27071
-0.250307
-0.230991
-0.213328
-0.197473
-0.183305
-0.170171
-0.157998
-0.348798
-0.345649
-0.341051
-0.334391
-0.323746
-0.308067
-0.288355
-0.266727
-0.245105
-0.224724
-0.206171
-0.189488
-0.174321
-0.159994
-0.146515
-0.361197
-0.354987
-0.347961
-0.33857
-0.324325
-0.305094
-0.282786
-0.259643
-0.23728
-0.216531
-0.197543
-0.180196
-0.164188
-0.149467
-0.136175
-0.37806
-0.368516
-0.358428
-0.344344
-0.3244
-0.30052
-0.275399
-0.250866
-0.22786
-0.206698
-0.187412
-0.169899
-0.153894
-0.139267
-0.125586
-0.401374
-0.386127
-0.371866
-0.350519
-0.323246
-0.294322
-0.266342
-0.240338
-0.216605
-0.195147
-0.175792
-0.158263
-0.142324
-0.127877
-0.114431
-0.427533
-0.406737
-0.384873
-0.353953
-0.318997
-0.285246
-0.254525
-0.227067
-0.20264
-0.180907
-0.161556
-0.14434
-0.128995
-0.115227
-0.102385
-0.451613
-0.426599
-0.39319
-0.35136
-0.30932
-0.271402
-0.23834
-0.209686
-0.184783
-0.16307
-0.144083
-0.127441
-0.11289
-0.100085
-0.088583
-0.477554
-0.479784
-0.482837
-0.489863
-0.500425
-0.513045
-0.525359
-0.534026
-0.539946
-0.537969
-0.5264
-0.505367
-0.477617
-0.446826
-0.41542
-0.438314
-0.439781
-0.43977
-0.441286
-0.444052
-0.44671
-0.447545
-0.444694
-0.43786
-0.425774
-0.408669
-0.38808
-0.367813
-0.354367
-0.33844
-0.404918
-0.405646
-0.403457
-0.400851
-0.397625
-0.39284
-0.385138
-0.373675
-0.358405
-0.339886
-0.319976
-0.301845
-0.285303
-0.289359
-0.283863
-0.378199
-0.378647
-0.375491
-0.370462
-0.363874
-0.354231
-0.34113
-0.324453
-0.304854
-0.283954
-0.261877
-0.249224
-0.234912
-0.243662
-0.250496
-0.357461
-0.358245
-0.355167
-0.349395
-0.340169
-0.327433
-0.311045
-0.291397
-0.269321
-0.247831
-0.227483
-0.217293
-0.207989
-0.215428
-0.229095
-0.341957
-0.343389
-0.340598
-0.334152
-0.323704
-0.309201
-0.291039
-0.270072
-0.248227
-0.227994
-0.211136
-0.20261
-0.198991
-0.204603
-0.218355
-0.331947
-0.333901
-0.331368
-0.32509
-0.314601
-0.300038
-0.281992
-0.262118
-0.242054
-0.223981
-0.210376
-0.202341
-0.200026
-0.20246
-0.209146
-0.328643
-0.330639
-0.328626
-0.323196
-0.313968
-0.300608
-0.283763
-0.264968
-0.246125
-0.229121
-0.215895
-0.206023
-0.199859
-0.195599
-0.19224
-0.398165
-0.435655
-0.47215
-0.433878
-0.312469
-0.209661
-0.165463
-0.152679
-0.163162
-0.167397
-0.152637
-0.147905
-0.14513
-0.122845
-0.0999268
-0.11141
-0.136054
-0.145853
-0.119893
-0.11045
-0.124458
-0.151527
-0.118184
-0.122016
-0.152111
-0.176173
-0.134454
-0.147126
-0.0977655
-0.0768637
-0.0306195
-0.0158426
-0.0107881
-0.00538195
-0.00621925
-0.00440765
-0.00145716
-0.000677174
-0.365268
-0.462939
-0.512679
-0.463414
-0.336076
-0.221908
-0.163901
-0.14102
-0.132654
-0.124741
-0.124106
-0.137835
-0.141316
-0.118602
-0.0967725
-0.107691
-0.131403
-0.141765
-0.121614
-0.118026
-0.138598
-0.16303
-0.11505
-0.111997
-0.131704
-0.154358
-0.151109
-0.168232
-0.097522
-0.0723882
-0.0323949
-0.0171858
-0.0109879
-0.00550538
-0.0061196
-0.00439966
-0.00161769
-0.000700139
-0.317078
-0.449115
-0.51221
-0.465908
-0.342186
-0.224957
-0.160582
-0.134376
-0.115482
-0.0971894
-0.100522
-0.12829
-0.136266
-0.114716
-0.095072
-0.104682
-0.126549
-0.135867
-0.121922
-0.123552
-0.151848
-0.17209
-0.110839
-0.101279
-0.112211
-0.130719
-0.163821
-0.184232
-0.0962163
-0.0666431
-0.0337759
-0.0185787
-0.0111842
-0.00559641
-0.00602465
-0.00437642
-0.00180374
-0.000731538
-0.278139
-0.396966
-0.469581
-0.429077
-0.322381
-0.219899
-0.156114
-0.129546
-0.109779
-0.0872281
-0.0876479
-0.122063
-0.131883
-0.111181
-0.0948804
-0.102793
-0.121725
-0.128498
-0.12044
-0.126419
-0.163499
-0.179281
-0.107127
-0.0906857
-0.0948436
-0.106768
-0.172083
-0.194425
-0.0949719
-0.0605289
-0.0346932
-0.0199368
-0.0113716
-0.00566618
-0.00593995
-0.00436742
-0.00199314
-0.000766881
-0.252147
-0.341579
-0.409751
-0.378501
-0.294502
-0.211947
-0.153524
-0.125714
-0.107725
-0.0903848
-0.0905139
-0.123684
-0.128852
-0.110391
-0.0975745
-0.103573
-0.117653
-0.120382
-0.116716
-0.125997
-0.172898
-0.183913
-0.104205
-0.0804952
-0.0803486
-0.0842451
-0.175754
-0.198205
-0.0942084
-0.0542346
-0.0350115
-0.021115
-0.0115985
-0.00573356
-0.00586423
-0.00434315
-0.00218995
-0.000802701
-0.233614
-0.28652
-0.340204
-0.319646
-0.261041
-0.198549
-0.149221
-0.121779
-0.104036
-0.0955238
-0.100348
-0.130138
-0.128432
-0.111108
-0.100704
-0.104218
-0.112541
-0.111598
-0.110322
-0.122191
-0.17865
-0.186651
-0.103304
-0.0711826
-0.0691596
-0.0642489
-0.174684
-0.195989
-0.0944208
-0.0470532
-0.0348342
-0.0220535
-0.0118762
-0.0058248
-0.00578956
-0.004345
-0.0023962
-0.000835898
-0.214463
-0.238712
-0.27113
-0.266404
-0.23343
-0.187801
-0.146235
-0.118833
-0.100854
-0.0930603
-0.113957
-0.138569
-0.12833
-0.109017
-0.103311
-0.105309
-0.110149
-0.103934
-0.101585
-0.11368
-0.18077
-0.185307
-0.101745
-0.0631666
-0.0619329
-0.046338
-0.169581
-0.188924
-0.0943844
-0.0407264
-0.034317
-0.0226345
-0.0122557
-0.00592876
-0.00569614
-0.00438789
-0.00261515
-0.000864531
-0.189687
-0.198704
-0.214032
-0.216009
-0.202293
-0.174231
-0.141339
-0.117556
-0.0997268
-0.0816364
-0.119291
-0.152735
-0.134493
-0.110825
-0.104352
-0.101415
-0.103015
-0.0944913
-0.0915842
-0.101301
-0.177895
-0.184943
-0.10265
-0.0559129
-0.0576652
-0.0307147
-0.160718
-0.180174
-0.0957447
-0.0335033
-0.0330941
-0.022848
-0.0127179
-0.00608862
-0.00557757
-0.00448291
-0.00285039
-0.000887918
-0.176618
-0.188171
-0.189639
-0.18428
-0.171312
-0.146716
-0.118116
-0.0983112
-0.0846072
-0.0686523
-0.100694
-0.125048
-0.122673
-0.105815
-0.102702
-0.10361
-0.100769
-0.0842152
-0.0795364
-0.0944058
-0.164428
-0.174057
-0.0999404
-0.0482269
-0.0536347
-0.0245463
-0.146363
-0.164166
-0.0964374
-0.0316078
-0.0315946
-0.0222401
-0.013371
-0.00623237
-0.00535238
-0.00467487
-0.00314756
-0.000902831
-0.136313
-0.150774
-0.150819
-0.140608
-0.126839
-0.108839
-0.0883575
-0.0756461
-0.0629202
-0.0521365
-0.0785189
-0.107273
-0.102668
-0.0893797
-0.0946954
-0.0967596
-0.0826161
-0.0650017
-0.0577574
-0.0763368
-0.148624
-0.167585
-0.0909882
-0.0351633
-0.0388698
-0.0138728
-0.123827
-0.158341
-0.0911506
-0.0270893
-0.0293809
-0.0217492
-0.014132
-0.00648118
-0.00506044
-0.004999
-0.00352563
-0.000918777
-0.112418
-0.125021
-0.124231
-0.11546
-0.104447
-0.0906561
-0.0742442
-0.0611414
-0.0451205
-0.0257323
-0.0212646
-0.0180907
-0.0349899
-0.0516764
-0.0761422
-0.0804921
-0.0651273
-0.046828
-0.0359762
-0.0482069
-0.114922
-0.13458
-0.0709581
-0.0228678
-0.0277346
-0.00509019
-0.097847
-0.12981
-0.0781739
-0.0239383
-0.0271799
-0.0208427
-0.0151833
-0.00695702
-0.0046944
-0.00543989
-0.00398716
-0.000941099
-0.0884318
-0.0985847
-0.0981801
-0.089897
-0.0784457
-0.0642312
-0.050274
-0.0382691
-0.0234821
-0.00594931
0.00697169
0.0185569
0.0198843
-0.0131899
-0.0481912
-0.0505454
-0.0393062
-0.0236861
-0.01164
-0.019577
-0.0719864
-0.0819736
-0.0464119
-0.0183519
-0.017578
0.00389408
-0.0652701
-0.0959332
-0.0623282
-0.0230047
-0.0246554
-0.0199373
-0.0167474
-0.00766203
-0.00423514
-0.00601398
-0.00455896
-0.000975049
-0.0661144
-0.0748755
-0.0755854
-0.0693512
-0.0603332
-0.0501352
-0.0389273
-0.028331
-0.0139411
0.00550189
0.0252478
0.0438789
0.0446735
0.01135
-0.01949
-0.0260986
-0.0201264
-0.0119919
0.00225998
0.00664849
-0.0223726
-0.025872
-0.0230784
-0.0214795
-0.0107146
0.00720419
-0.0268192
-0.0456183
-0.0402239
-0.0238501
-0.0212351
-0.019475
-0.0187093
-0.00871312
-0.00376265
-0.00671309
-0.0052385
-0.0010222
-0.0483048
-0.0559626
-0.0570507
-0.05255
-0.04522
-0.0362202
-0.026043
-0.0156345
-0.00331563
0.0123831
0.0272734
0.0406601
0.0448595
0.0230997
0.000223675
-0.00860431
-0.00348594
0.00252105
0.0115756
0.0147679
0.000105431
0.00254462
-0.00858845
-0.0231093
-0.0043454
0.0104061
0.00605997
-0.00274884
-0.0121517
-0.0193648
-0.0155629
-0.0191801
-0.0208254
-0.0101337
-0.00344588
-0.00756081
-0.00598489
-0.00105708
-0.0345607
-0.0402358
-0.041256
-0.038043
-0.0322606
-0.0252639
-0.0175149
-0.00940169
-0.000180263
0.0116449
0.0234469
0.032637
0.0364273
0.0251038
0.0102684
0.00202257
0.00446994
0.0075091
0.0144039
0.0195097
0.01134
0.0124008
0.00167252
-0.0123616
0.000765832
0.0130847
0.0267323
0.0239201
0.0103562
-0.0144443
-0.00825725
-0.0178956
-0.0224336
-0.0112891
-0.00343376
-0.00850924
-0.00688828
-0.00110281
-0.0227566
-0.027246
-0.0285036
-0.0264608
-0.0221905
-0.0168887
-0.0109725
-0.00453225
0.00260848
0.0110781
0.0191476
0.0252443
0.0278882
0.0227739
0.0145925
0.00860807
0.0106683
0.01344
0.0165447
0.0198577
0.0120164
0.0128179
0.00904108
0.000333567
0.00717866
0.015889
0.0291492
0.0284665
0.0209309
-0.00704103
-0.00106666
-0.0147391
-0.0225939
-0.0110659
-0.00348582
-0.00916733
-0.00797463
-0.00119641
-0.013577
-0.0172452
-0.0183756
-0.0170284
-0.0139471
-0.0100597
-0.00569876
-0.000958544
0.00408525
0.00974233
0.0151367
0.0193706
0.0213387
0.0195356
0.0157969
0.0118117
0.0125329
0.0140751
0.0158144
0.0181743
0.0139572
0.0138482
0.0125078
0.00682196
0.0111812
0.016709
0.0264833
0.0290901
0.0234459
0.00102613
0.0042827
-0.00871782
-0.0193644
-0.00878426
-0.00297434
-0.00851876
-0.00789096
-0.00122553
-0.00666157
-0.00929611
-0.0102328
-0.00947143
-0.00739686
-0.00468105
-0.00162707
0.00169487
0.00515365
0.00897563
0.0125517
0.0155596
0.0171057
0.0167388
0.0154538
0.0134237
0.0138248
0.0152675
0.0159293
0.0169211
0.0145215
0.0141643
0.0137184
0.0111323
0.0142521
0.0171134
0.0226307
0.0257982
0.0226554
0.00752141
0.00714062
-0.00176689
-0.0129078
-0.00519156
-0.00167822
-0.00639708
-0.00623014
-0.00107145
-0.00103455
-0.00310448
-0.00392053
-0.00354841
-0.00221436
-0.000367149
0.00170886
0.00396146
0.00625225
0.00876172
0.0111314
0.0132173
0.0144734
0.0147374
0.0147058
0.0139407
0.0140159
0.0148305
0.0151947
0.0157248
0.0145501
0.0144089
0.0142119
0.0127072
0.015089
0.0166568
0.0197436
0.022502
0.0206014
0.0107451
0.00872662
0.00341738
-0.00652337
-0.00176372
-1.84128e-05
-0.00382253
-0.0039065
-0.000776039
0.00337276
0.00177392
0.0010309
0.00114946
0.00195605
0.00315378
0.00450196
0.00595143
0.00741958
0.0090277
0.010584
0.0119642
0.0130153
0.0135095
0.0138185
0.013724
0.0139262
0.0145512
0.0148365
0.0150826
0.0144833
0.014431
0.0144166
0.0137936
0.0155614
0.0164811
0.017638
0.0193393
0.0181724
0.011924
0.0096823
0.00609085
-0.00167215
0.00074043
0.00134437
-0.00179552
-0.00211637
-0.00049518
0.00671475
0.00550509
0.00488047
0.00483922
0.00527965
0.00600207
0.00684156
0.00773399
0.00863789
0.00961753
0.010618
0.01155
0.0123233
0.0128286
0.0132749
0.0135578
0.0137806
0.0141471
0.0143751
0.0145515
0.0142735
0.0143168
0.0143949
0.013989
0.0149723
0.0154023
0.0159294
0.016801
0.0158853
0.0120373
0.00998933
0.0070886
0.00143666
0.00214016
0.00200121
-0.000520473
-0.00101985
-0.000241255
0.00934489
0.00841753
0.00787355
0.0077206
0.00790896
0.00831173
0.0088116
0.00931984
0.00983077
0.010392
0.0110125
0.0116097
0.0121398
0.0125599
0.0129557
0.0132856
0.0135352
0.0137898
0.0140146
0.0141617
0.0140613
0.0140907
0.0141716
0.0139771
0.0144944
0.0148462
0.0147639
0.0148772
0.0140486
0.0116535
0.00982258
0.00742894
0.00339194
0.00293211
0.00233661
0.000311489
-0.000263568
-2.79748e-05
0.0113544
0.0106339
0.010169
0.00996446
0.00999593
0.0101795
0.010436
0.0106916
0.0109465
0.0112387
0.0115851
0.0119427
0.0122682
0.0125612
0.0128609
0.0131313
0.0133546
0.0135306
0.0137013
0.0138218
0.0137936
0.0138097
0.0138486
0.0137067
0.0138391
0.0138556
0.0136555
0.0134262
0.012606
0.0109854
0.00934894
0.00739487
0.00449954
0.00341349
0.00250461
0.00083618
0.000165868
0.000111324
0.0128893
0.0123332
0.0119391
0.0117102
0.0116406
0.0116794
0.0117745
0.0118641
0.0119497
0.0120586
0.0122179
0.0123987
0.0125715
0.0127306
0.0129104
0.0130864
0.0132394
0.0133447
0.0134517
0.0135321
0.0135126
0.0134899
0.0134578
0.0133192
0.0132484
0.0131199
0.0127877
0.0123725
0.0115631
0.0103432
0.00895832
0.00728906
0.00517626
0.00387358
0.00276131
0.00128586
0.000505135
0.000224328
0.0140529
0.0136184
0.013282
0.0130492
0.0129221
0.0128691
0.0128553
0.0128331
0.0128079
0.012797
0.0128302
0.0128782
0.0129266
0.0129727
0.0130492
0.0131304
0.0131959
0.0132313
0.0132647
0.013283
0.0132326
0.0131626
0.0130714
0.0128985
0.0126988
0.0124525
0.0120323
0.0115548
0.0107624
0.00975346
0.00859498
0.00713289
0.00550489
0.00421617
0.00301776
0.00165331
0.000762025
0.000294636
0.0149183
0.0145767
0.0142905
0.0140651
0.0139054
0.0137936
0.0137087
0.0136152
0.0135199
0.0134311
0.0133761
0.0133289
0.0132886
0.0132473
0.0132322
0.0132237
0.0132067
0.0131706
0.0131314
0.0130788
0.0129828
0.012859
0.0127066
0.0124914
0.0122129
0.011905
0.0114316
0.0109233
0.0101782
0.00927839
0.00828832
0.00702343
0.00568183
0.00447509
0.00327731
0.00200102
0.00101085
0.000361265
0.015552
0.0152789
0.0150325
0.0148186
0.0146427
0.0144962
0.0143658
0.0142277
0.0140877
0.0139493
0.0138355
0.0137227
0.0136188
0.0135092
0.0134221
0.0133371
0.0132492
0.0131467
0.0130398
0.0129204
0.0127703
0.012593
0.0123854
0.0121323
0.0118053
0.0114577
0.0109593
0.0104335
0.00973945
0.00891598
0.00803461
0.00694076
0.00578515
0.0046516
0.00350586
0.00232486
0.00127201
0.000431997
0.0160022
0.0157767
0.0155613
0.0153602
0.0151786
0.0150122
0.0148538
0.0146886
0.0145212
0.0143529
0.0141992
0.0140436
0.0138928
0.0137354
0.013593
0.0134486
0.0133028
0.0131441
0.0129804
0.012804
0.0126018
0.012379
0.0121227
0.0118348
0.011473
0.0110921
0.0105931
0.0100546
0.0094084
0.00863946
0.00782075
0.00685498
0.00582585
0.00475823
0.00369357
0.00258962
0.00150197
0.000501634
0.0163068
0.0161137
0.0159215
0.015732
0.0155501
0.0153728
0.0151982
0.0150173
0.0148339
0.0146482
0.0144682
0.0142854
0.0141025
0.0139139
0.013731
0.0135437
0.0133545
0.013153
0.0129455
0.012724
0.0124789
0.0122191
0.011923
0.0116024
0.0112201
0.0108067
0.0103163
0.00976911
0.00914423
0.00842602
0.00764372
0.00675853
0.00580784
0.00479331
0.00375928
0.00270081
0.00161327
0.000530495
0.0164932
0.0163208
0.0161441
0.015964
0.0157839
0.0156019
0.0154189
0.0152299
0.0150387
0.0148425
0.0146479
0.0144474
0.0142463
0.0140374
0.0138289
0.0136132
0.0133938
0.0131645
0.0129256
0.0126744
0.0123998
0.0121114
0.0117884
0.0114447
0.0110456
0.0106162
0.0101229
0.00957532
0.00896534
0.00826923
0.0075177
0.00667889
0.00577422
0.00480955
0.00379552
0.00275921
0.00167546
0.000558108
0.0165807
0.0164184
0.0162499
0.0160753
0.0158972
0.015714
0.0155278
0.0153356
0.0151408
0.0149404
0.0147385
0.0145303
0.0143198
0.0141016
0.0138801
0.0136505
0.0134154
0.0131714
0.012916
0.0126485
0.0123585
0.0120538
0.0117175
0.0113596
0.0109545
0.0105137
0.0100203
0.00947336
0.0088683
0.00818903
0.00744866
0.00663412
0.00575522
0.00481224
0.00381218
0.00278646
0.00170561
0.0005701
-0.0747869
-0.085799
-0.0966238
-0.107102
-0.118267
-0.12877
-0.141012
-0.156716
-0.0602959
-0.0685281
-0.0767738
-0.0851062
-0.0938432
-0.102439
-0.110332
-0.120934
-0.0465033
-0.0523247
-0.0579949
-0.0638789
-0.070213
-0.076559
-0.0836145
-0.0942325
-0.0356386
-0.0397719
-0.0438316
-0.0481184
-0.0533142
-0.0590224
-0.0660944
-0.0750681
-0.0261902
-0.0292679
-0.0323422
-0.0357973
-0.040136
-0.0446977
-0.0496108
-0.0557766
-0.0185054
-0.0207109
-0.0229529
-0.0254312
-0.0283464
-0.0312404
-0.0346177
-0.0396959
-0.0119584
-0.0134196
-0.0148342
-0.0163811
-0.0183003
-0.020536
-0.0236501
-0.0280122
-0.00633674
-0.00722276
-0.00808455
-0.00919282
-0.0108399
-0.0128758
-0.0152327
-0.0181592
-0.0016074
-0.00220508
-0.00284774
-0.00373468
-0.00491995
-0.00614905
-0.00759924
-0.00984143
0.00228005
0.00187788
0.00148856
0.000990697
0.000299533
-0.000586636
-0.001883
-0.00381903
0.00561818
0.00536276
0.00513239
0.00478652
0.00421497
0.0034342
0.00242356
0.00102185
0.0083539
0.00814148
0.0079524
0.00768565
0.00727966
0.00674668
0.00603415
0.00496271
0.0105903
0.0103992
0.0102462
0.0100583
0.00977446
0.00936747
0.00878824
0.00793211
0.012401
0.012215
0.0120657
0.0119013
0.0116707
0.0113471
0.0108991
0.0102546
0.0138203
0.0136328
0.0134771
0.0133237
0.0131355
0.0128853
0.0125412
0.0120484
0.0149168
0.014733
0.0145744
0.0144259
0.0142617
0.0140579
0.0137874
0.0134128
0.0157417
0.0155652
0.0154074
0.0152628
0.0151152
0.0149458
0.0147326
0.0144489
0.0163504
0.016185
0.0160334
0.0158948
0.015759
0.0156123
0.0154386
0.0152203
0.0167891
0.0166355
0.0164923
0.0163602
0.0162332
0.0161024
0.0159568
0.0157857
0.0170918
0.0169503
0.0168172
0.0166932
0.0165743
0.016455
0.0163287
0.0161891
0.0172905
0.0171597
0.0170359
0.0169193
0.0168072
0.0166961
0.0165825
0.0164632
0.0174066
0.0172843
0.0171679
0.0170568
0.0169496
0.016844
0.0167384
0.0166311
0.0174524
0.0173383
0.0172279
0.017121
0.0170169
0.0169142
0.0168123
0.0167101
0.0754257
0.0792027
0.0827359
0.0856816
0.0872548
0.0871935
0.0853326
0.0811764
0.0738046
0.0618733
0.0435249
0.0161734
-0.0243858
-0.0813992
-0.132406
0.0544506
0.0560255
0.0560451
0.0548795
0.0523927
0.0482257
0.041896
0.0326676
0.0194841
0.000902099
-0.0250508
-0.0609423
-0.110825
-0.178811
-0.23385
0.0327952
0.0321975
0.028891
0.0240998
0.0180489
0.010207
-0.000163109
-0.013932
-0.0322141
-0.0565164
-0.0889411
-0.132119
-0.189113
-0.265331
-0.318812
0.0105128
0.00749077
0.0013639
-0.00617597
-0.0150402
-0.0259693
-0.0398072
-0.0574411
-0.07997
-0.108859
-0.146382
-0.195248
-0.25778
-0.334755
-0.385438
-0.0116383
-0.0173058
-0.025564
-0.0350558
-0.0461199
-0.0596044
-0.0762679
-0.0969545
-0.12275
-0.154965
-0.195969
-0.248433
-0.312999
-0.386836
-0.432656
-0.033029
-0.041134
-0.0508776
-0.0618431
-0.0746978
-0.0902413
-0.109057
-0.131933
-0.159898
-0.194323
-0.237155
-0.290345
-0.353759
-0.421393
-0.460782
-0.0533272
-0.0630479
-0.0738149
-0.0860717
-0.100494
-0.117622
-0.137977
-0.162238
-0.191343
-0.226515
-0.269262
-0.320798
-0.380015
-0.438392
-0.471583
-0.0722993
-0.0826599
-0.0943872
-0.107844
-0.123504
-0.141783
-0.163085
-0.187982
-0.21726
-0.25189
-0.29293
-0.340737
-0.392674
-0.439199
-0.467676
0.187241
0.202186
0.218793
0.237524
0.258472
0.281556
0.30668
0.33379
0.362806
0.393479
0.425224
0.456867
0.486408
0.509824
0.5291
0.186843
0.201213
0.217241
0.23544
0.255855
0.278312
0.302654
0.328815
0.356716
0.386093
0.416319
0.446161
0.473539
0.49448
0.511328
0.182318
0.195279
0.210077
0.227198
0.246489
0.267583
0.290223
0.314295
0.339681
0.366058
0.392718
0.418321
0.440617
0.455805
0.467148
0.173686
0.184608
0.197699
0.21322
0.230695
0.249583
0.269581
0.290537
0.312247
0.334248
0.355658
0.374954
0.3896
0.395962
0.399364
0.160951
0.169445
0.180636
0.194344
0.209565
0.225537
0.241962
0.258732
0.275602
0.291964
0.30671
0.318073
0.323154
0.318215
0.311843
0.144472
0.150163
0.159255
0.170907
0.183539
0.196205
0.20859
0.220564
0.231798
0.241534
0.24847
0.2506
0.244683
0.226816
0.20854
0.124524
0.128014
0.135251
0.144357
0.153612
0.162286
0.170149
0.176967
0.182192
0.184848
0.183414
0.175651
0.158009
0.126567
0.0957107
0.101081
0.103324
0.109485
0.115994
0.121507
0.125735
0.128657
0.12995
0.128852
0.124166
0.114164
0.0963678
0.066888
0.0220507
-0.0203877
0.025571
0.0299964
0.0263357
0.0302609
0.0278397
0.0321424
0.0304012
0.0348292
0.0341968
0.0387291
0.0395483
0.0443939
0.0469578
0.0526654
0.0574056
0.0647474
0.0722612
0.0823061
0.0934686
0.107543
0.123706
0.143487
0.166343
0.0256492
0.0300432
0.0264319
0.0303194
0.0279629
0.0322184
0.0305669
0.0349571
0.0344124
0.0389154
0.0398656
0.0446897
0.0473557
0.0531449
0.057939
0.0653524
0.0730348
0.0830371
0.0943678
0.108574
0.12455
0.144265
0.166644
0.0257373
0.0300644
0.0265464
0.0303479
0.0281114
0.03226
0.0307648
0.0350528
0.0346317
0.0390593
0.0402158
0.0449303
0.0477479
0.0535075
0.0583627
0.065629
0.0734294
0.0834577
0.0945064
0.108533
0.123945
0.143117
0.164026
0.0258338
0.0300619
0.0266745
0.0303502
0.02827
0.0322718
0.0309852
0.0351214
0.0350025
0.0391913
0.040584
0.0452033
0.0482044
0.0540218
0.0589235
0.0663906
0.0739639
0.0840668
0.0946363
0.108343
0.122547
0.140442
0.158534
0.025938
0.030039
0.0268153
0.0303299
0.0284752
0.0322604
0.0312229
0.0351584
0.035265
0.0392848
0.0409417
0.0453344
0.048556
0.0541664
0.0591405
0.0663904
0.0738412
0.0835771
0.0936205
0.106569
0.11932
0.135466
0.149815
0.0260463
0.0299979
0.0269659
0.030291
0.0286688
0.0322383
0.0314711
0.0351855
0.0356124
0.0394266
0.0413677
0.0456732
0.0491105
0.0548668
0.0597591
0.0673161
0.074344
0.0841707
0.0932753
0.105427
0.115787
0.12917
0.138326
0.0261596
0.0299415
0.0271211
0.0302407
0.0288672
0.0321998
0.0317148
0.0351829
0.0358647
0.0394864
0.0416446
0.0457025
0.0493457
0.0547144
0.0596842
0.0667976
0.0736301
0.0825605
0.091016
0.101478
0.109944
0.120083
0.123679
0.0262765
0.0298768
0.0272729
0.0301867
0.0290796
0.0321929
0.031974
0.035253
0.0362844
0.0397475
0.0421996
0.0462543
0.0500766
0.0558092
0.0605327
0.0681593
0.0744126
0.0835603
0.0904416
0.0997203
0.104254
0.109738
0.105933
0.0264119
0.0297776
0.0274688
0.0300772
0.0293044
0.032074
0.0322315
0.0351268
0.0364772
0.039662
0.0422886
0.0461058
0.0500073
0.0550753
0.059803
0.066373
0.0721504
0.0789983
0.0848918
0.0898586
0.0921257
0.0903496
0.0815845
0.0265879
0.0296229
0.0277165
0.0299069
0.0295611
0.0318633
0.0324675
0.0348006
0.0365465
0.0392512
0.0420425
0.045328
0.0491571
0.0534023
0.0578069
0.0628978
0.0677571
0.0722118
0.0761296
0.0775579
0.077326
0.072339
0.0649737
0.0267988
0.0294061
0.0279986
0.0296795
0.0298506
0.0315674
0.032711
0.034472
0.0365715
0.0388303
0.0416821
0.0445106
0.0481397
0.051585
0.055537
0.0592864
0.0629943
0.0655433
0.0673273
0.0667441
0.0642549
0.0588321
0.0517194
0.0270455
0.029119
0.028318
0.0294075
0.0301285
0.0313169
0.03284
0.0342037
0.0364751
0.0383367
0.0411134
0.043566
0.046807
0.0495236
0.0528324
0.0553807
0.0577799
0.0589106
0.058882
0.0569814
0.0532417
0.0475517
0.0407848
0.0273321
0.0287556
0.028635
0.0291929
0.030304
0.0311207
0.0328633
0.0339533
0.0362148
0.0378256
0.0403091
0.042483
0.0451388
0.0472083
0.0497479
0.0512743
0.0524229
0.0524632
0.0511715
0.0484745
0.0442744
0.0385978
0.0320722
0.0276549
0.0283778
0.0288623
0.0290493
0.0304059
0.0309551
0.0327656
0.0336802
0.0357937
0.0372191
0.0392979
0.0412167
0.0432223
0.0446421
0.0464348
0.0470983
0.0472054
0.0464151
0.0444422
0.0413401
0.0370905
0.0317199
0.0256066
0.0279693
0.0280409
0.0289871
0.028961
0.0304136
0.030813
0.032534
0.0333715
0.0352184
0.0364874
0.0381276
0.03974
0.0411238
0.0419191
0.0430201
0.0430077
0.042339
0.0409685
0.0387029
0.0354974
0.0314004
0.0264842
0.0209101
0.0282501
0.027761
0.0290228
0.0289089
0.0303154
0.0306772
0.032179
0.0329958
0.0345175
0.0356076
0.0368264
0.0380688
0.0389049
0.0391742
0.039647
0.0391374
0.0379791
0.0362437
0.0338932
0.0308079
0.0270174
0.0226231
0.0176903
0.0284677
0.0275596
0.0289561
0.0288772
0.0301173
0.0305222
0.0317274
0.0325126
0.033712
0.0345774
0.0354184
0.0362659
0.0366386
0.0364974
0.0364462
0.0356009
0.0341808
0.0322758
0.0299731
0.0271472
0.0237755
0.0199436
0.0156881
0.0286043
0.0274471
0.028786
0.0288447
0.0298353
0.0303031
0.0312131
0.031913
0.0328145
0.0334277
0.0339371
0.0344071
0.0344029
0.0339651
0.0335271
0.032475
0.0309584
0.0290511
0.0268906
0.0243858
0.0214827
0.0182256
0.0146324
0.0286464
0.0274186
0.0285308
0.0287755
0.0295072
0.0299931
0.0306513
0.0312054
0.0318376
0.0321965
0.0324208
0.0325661
0.0322767
0.0316425
0.0309496
0.0297965
0.0282986
0.0265066
0.024553
0.0223845
0.0199462
0.0172447
0.014273
0.0285883
0.0274566
0.028223
0.0286126
0.0291554
0.0295926
0.0300466
0.0304184
0.0308042
0.0309312
0.0309205
0.0308085
0.0303215
0.0295694
0.0287382
0.0275699
0.026161
0.0245497
0.0228388
0.0209979
0.0189837
0.0167838
0.0143718
0.0284355
0.0275251
0.02792
0.0283234
0.0287667
0.0291186
0.0294009
0.0295884
0.0297492
0.0296835
0.0294884
0.0291844
0.0285702
0.0277664
0.0268908
0.0257701
0.024489
0.0230826
0.0216216
0.0200829
0.0184348
0.0166597
0.0147207
0.028206
0.0275629
0.0276662
0.0279442
0.0283146
0.0285694
0.0287132
0.0287449
0.028714
0.0284964
0.0281639
0.0277256
0.0270442
0.0262393
0.025383
0.0243522
0.0232179
0.0220138
0.0207863
0.0195137
0.0181726
0.0167467
0.0151986
0.0279228
0.0275005
0.0274454
0.0275812
0.027819
0.0279568
0.0279893
0.0279033
0.0277281
0.0273991
0.0269723
0.0264518
0.0257493
0.024975
0.0241757
0.0232585
0.0222752
0.021257
0.0202357
0.0191916
0.0181068
0.0169682
0.0157415
0.0276125
0.0273432
0.0272285
0.0272275
0.0273051
0.0273211
0.0272515
0.0270751
0.0268036
0.0264081
0.0259306
0.0253729
0.0246823
0.0239561
0.0232283
0.0224265
0.0215845
0.0207292
0.019883
0.0190297
0.0181549
0.0172486
0.016281
0.0272917
0.0271096
0.0269709
0.0268695
0.0268043
0.0267034
0.0265386
0.0262879
0.0259551
0.0255294
0.025039
0.0244825
0.0238296
0.0231609
0.0225034
0.0218041
0.0210843
0.0203663
0.0196656
0.0189687
0.0182639
0.017543
0.0167828
0.02697
0.026829
0.0266711
0.0265024
0.0263308
0.0261296
0.0258809
0.0255704
0.0251992
0.0247652
0.0242848
0.0237531
0.0231547
0.0225494
0.0219577
0.0213448
0.0207261
0.0201203
0.0195377
0.0189669
0.0183976
0.0178231
0.0172274
0.0266529
0.0265259
0.0263495
0.0261348
0.0258921
0.0256176
0.0253034
0.0249463
0.0245507
0.0241186
0.0236579
0.0231613
0.0226224
0.0220819
0.0215524
0.0210129
0.0204761
0.0199587
0.0194687
0.0189966
0.0185328
0.0180723
0.017605
0.0263517
0.0262259
0.0260332
0.0257852
0.0254955
0.0251739
0.0248161
0.0244279
0.0240199
0.0235933
0.0231518
0.0226896
0.0222063
0.0217286
0.0212609
0.0207883
0.0203195
0.01987
0.019448
0.0190477
0.0186613
0.0182847
0.0179123
0.0260866
0.0259587
0.0257506
0.0254798
0.0251608
0.0248099
0.0244263
0.024019
0.023604
0.0231825
0.0227546
0.0223191
0.0218791
0.0214535
0.0210434
0.0206356
0.0202316
0.0198403
0.0194693
0.0191188
0.018786
0.0184697
0.0181677
0.0258771
0.0257447
0.0255271
0.0252441
0.0249083
0.0245406
0.0241449
0.0237302
0.0233154
0.0229043
0.0224927
0.022078
0.0216661
0.021274
0.0209036
0.0205417
0.0201807
0.0198245
0.0194827
0.0191627
0.0188672
0.0185949
0.0183424
0.0257644
0.0256313
0.0254046
0.025109
0.0247603
0.0243807
0.0239781
0.0235584
0.023142
0.0227378
0.0223394
0.0219399
0.0215457
0.0211732
0.0208268
0.0204948
0.0201649
0.0198371
0.0195211
0.0192267
0.0189582
0.0187152
0.0184956
0.0691402
0.0513248
0.0291974
0.00850791
-0.0104154
-0.0284895
-0.0459555
-0.0615622
0.056597
0.040042
0.0182584
-0.000663028
-0.0156266
-0.0283524
-0.0403508
-0.0509056
0.0454534
0.0327656
0.0142512
-0.00225029
-0.0135405
-0.0222452
-0.0308642
-0.0392541
0.0355806
0.0257658
0.0103759
-0.00380096
-0.0128336
-0.0189635
-0.024805
-0.0305039
0.0273493
0.0200724
0.00830981
-0.00278769
-0.0097265
-0.0141189
-0.0182118
-0.0223482
0.020843
0.0151234
0.00680718
-0.00103967
-0.00633587
-0.00980968
-0.0128691
-0.015798
0.0163291
0.0117128
0.00618798
0.00101096
-0.00285146
-0.00561537
-0.00796575
-0.0100791
0.013525
0.00988447
0.00633297
0.00306924
0.000381295
-0.00175235
-0.00356569
-0.00508679
0.0120588
0.00925931
0.00706229
0.00510387
0.00331459
0.00173398
0.00035725
-0.000750781
0.0115613
0.00944831
0.00815834
0.00705932
0.00591329
0.00477274
0.00372923
0.00289579
0.0117373
0.0101658
0.00946555
0.00891381
0.00821462
0.00742022
0.00665643
0.00604778
0.0123305
0.011184
0.0108576
0.010645
0.0102465
0.00970666
0.00914932
0.00868764
0.0131007
0.0122716
0.0121684
0.0121747
0.0120004
0.0116548
0.0112442
0.0108742
0.0139279
0.0133337
0.013356
0.0134845
0.0134572
0.013252
0.0129526
0.0126523
0.0147519
0.0143267
0.014408
0.0145818
0.0146274
0.0145123
0.0142946
0.0140483
0.015518
0.0152149
0.0153126
0.0154842
0.0155537
0.0154886
0.0153266
0.0151227
0.0161996
0.015983
0.0160724
0.016216
0.0162789
0.0162329
0.0161027
0.0159284
0.0167838
0.0166256
0.0166926
0.0167959
0.0168356
0.0167896
0.0166747
0.0165199
0.0172671
0.0171463
0.0171845
0.0172445
0.0172544
0.0171979
0.0170875
0.0169448
0.0176496
0.0175497
0.0175578
0.0175766
0.0175559
0.0174844
0.0173721
0.0172361
0.0179556
0.0178595
0.0178309
0.0178075
0.0177563
0.0176698
0.0175552
0.017425
0.018163
0.0180656
0.0180062
0.0179478
0.0178714
0.0177729
0.0176572
0.0175325
0.0183298
0.0182132
0.0181108
0.0180118
0.0179093
0.0178004
0.0176861
0.017569
-0.622823
-0.635617
-0.654256
-0.678326
-0.7087
-0.741964
-0.772203
-0.793424
-0.617534
-0.630003
-0.647325
-0.668166
-0.69219
-0.718811
-0.7438
-0.760057
-0.61073
-0.622788
-0.637931
-0.655192
-0.673373
-0.689292
-0.699156
-0.698354
-0.604895
-0.614523
-0.624967
-0.634424
-0.641671
-0.644385
-0.640155
-0.626559
-0.601401
-0.604502
-0.605838
-0.604469
-0.600346
-0.592588
-0.579419
-0.558621
-0.598385
-0.590645
-0.580647
-0.569066
-0.556437
-0.541925
-0.523493
-0.498761
-0.591743
-0.571383
-0.55091
-0.531738
-0.51362
-0.495068
-0.473642
-0.446957
-0.577621
-0.545914
-0.518051
-0.494223
-0.472994
-0.452263
-0.429319
-0.401872
-0.553675
-0.514628
-0.483121
-0.457163
-0.434653
-0.413032
-0.389654
-0.362308
-0.520273
-0.478877
-0.446864
-0.420831
-0.398356
-0.376886
-0.353863
-0.327299
-0.479811
-0.440115
-0.410006
-0.385298
-0.363953
-0.343368
-0.321322
-0.296047
-0.434808
-0.399896
-0.372985
-0.350821
-0.33127
-0.312162
-0.291584
-0.267983
-0.388279
-0.358906
-0.336439
-0.317491
-0.300229
-0.283075
-0.264312
-0.242729
-0.3389
-0.317856
-0.300666
-0.285545
-0.270999
-0.255883
-0.239213
-0.219769
-0.289463
-0.279412
-0.265785
-0.255618
-0.242906
-0.230045
-0.215357
-0.198592
-0.519112
-0.557162
-0.586151
-0.60426