/*--------------------------------*- C++ -*----------------------------------*\
| =========                 |                                                 |
| \\      /  F ield         | OpenFOAM: The Open Source CFD Toolbox           |
|  \\    /   O peration     | Version:  2312                                  |
|   \\  /    A nd           | Website:  www.openfoam.com                      |
|    \\/     M anipulation  |                                                 |
\*---------------------------------------------------------------------------*/
FoamFile
{
    version     2.0;
    format      ascii;
    arch        "LSB;label=32;scalar=64";
    class       surfaceScalarField;
    location    "108.4";
    object      phi;
}
// * * * * * * * * * * * * * * * * * * * * * * * * * * * * * * * * * * * * * //

dimensions      [0 3 -1 0 0 0 0];

oriented        oriented;

internalField   nonuniform List<scalar> 
10785
(
-0.00153056
0.00352996
-0.0019994
-0.00283349
0.00543685
-0.00413392
-0.0011604
0.00293671
-0.0046098
0.0062465
-0.00530679
-0.00210011
0.0216535
-0.0201957
0.00478863
0.0455407
-0.0405146
0.0166274
0.076246
-0.0634833
0.032778
0.110821
-0.0862886
0.0517132
0.145818
-0.106831
0.0718345
0.178668
-0.124228
0.0913769
0.206038
-0.137973
0.110604
0.227884
-0.148461
0.126614
0.242947
-0.157502
0.142439
0.251876
-0.163207
0.154278
-0.173242
0.164998
0.26012
-0.000490985
0.00402095
0.000756752
0.00418911
0.00703938
-0.00334591
0.021564
-0.0198314
0.0450134
-0.0436451
0.0747634
-0.0702646
0.106549
-0.0952689
0.136256
-0.115996
0.161117
-0.131691
0.179802
-0.142913
0.19289
-0.151061
0.202628
-0.158199
0.210467
-0.165341
0.221004
-0.173744
-0.184403
0.232165
0.000391834
0.00362912
0.00454269
3.82574e-05
0.0165782
-0.0153814
0.0382221
-0.0414753
0.0661813
-0.0716043
0.0948685
-0.0989518
0.119672
-0.120072
0.138414
-0.134738
0.151357
-0.144635
0.160536
-0.152092
0.168644
-0.159169
0.177147
-0.166703
0.18685
-0.175044
0.196515
-0.183409
-0.192059
0.204171
0.00123698
0.00239213
0.00902243
-0.00774719
0.0271747
-0.0335337
0.0528369
-0.0671375
0.0789696
-0.097737
0.100337
-0.120319
0.115371
-0.135106
0.12542
-0.144787
0.132998
-0.152213
0.140143
-0.159236
0.147364
-0.16639
0.154518
-0.173857
0.160937
-0.181463
0.167049
-0.189521
-0.198693
0.173684
0.00240289
-1.07622e-05
0.0145599
-0.0199042
0.0368232
-0.055797
0.0609744
-0.0912887
0.0804494
-0.117212
0.0936303
-0.1335
0.102191
-0.143667
0.108508
-0.151103
0.114057
-0.157762
0.119178
-0.164358
0.124043
-0.171254
0.128795
-0.178609
0.133835
-0.186503
0.139393
-0.19508
-0.203795
0.144495
0.00403086
-0.00404162
0.0201299
-0.0360032
0.0421911
-0.0778583
0.0609585
-0.110056
0.0735536
-0.129807
0.0813151
-0.141261
0.0864515
-0.148804
0.0904167
-0.155068
0.0938664
-0.161212
0.0972288
-0.167721
0.100682
-0.174708
0.104235
-0.182162
0.107794
-0.190061
0.111039
-0.198325
-0.20696
0.114204
0.00610096
-0.0101426
0.0238965
-0.0537987
0.0422403
-0.096202
0.0551255
-0.122941
0.062667
-0.137349
0.0669281
-0.145522
0.0696336
-0.151509
0.0717474
-0.157182
0.073715
-0.163179
0.0755988
-0.169604
0.0773784
-0.176487
0.079079
-0.183862
0.0806997
-0.191682
0.0823822
-0.200007
-0.208587
0.0840094
0.00796123
-0.0181038
0.0246045
-0.070442
0.0382627
-0.10986
0.0462387
-0.130917
0.0500904
-0.1412
0.0518448
-0.147277
0.0527576
-0.152422
0.0533422
-0.157767
0.0537039
-0.163541
0.0538997
-0.1698
0.0539782
-0.176566
0.0539668
-0.183851
0.0539728
-0.191688
0.0538694
-0.199904
0.0537097
-0.208428
-0.00244623
-0.0145087
0.0169549
-0.00756181
-0.0218685
0.0269841
-0.0143377
-0.0210008
0.0277767
-0.0222357
-0.0179184
0.0258164
-0.0308797
-0.0139994
0.0226434
-0.0399397
-0.00865499
0.0177149
-0.0491346
-0.00104228
0.0102372
-0.0573754
0.00864238
-0.000401621
-0.0649679
0.0211111
-0.0135187
-0.0709631
0.0361189
-0.0301237
-0.0745517
0.0531141
-0.0495256
-0.0746928
0.070963
-0.0708219
-0.0703337
0.0882833
-0.0926424
-0.0617279
0.103962
-0.112568
0.113611
-0.0461801
-0.129159
-0.0029196
-0.0115891
-0.00832909
-0.016459
-0.0152039
-0.0141259
-0.0231769
-0.00994547
-0.0318437
-0.00533253
-0.0406613
0.000162555
-0.0488118
0.00710829
-0.0558891
0.0157197
-0.0608924
0.0261144
-0.0627856
0.0380121
-0.0604973
0.0508258
-0.0530891
0.0635548
-0.0382311
0.0734253
-0.016924
0.082655
0.0817734
0.0149133
-0.00268475
-0.00890435
-0.00732259
-0.0118212
-0.0129346
-0.00851388
-0.0192262
-0.00365395
-0.0257839
0.00122525
-0.0318902
0.0062688
-0.0366883
0.0119064
-0.0392958
0.0183272
-0.038652
0.0254706
-0.0336269
0.032987
-0.022811
0.0400099
-0.00579409
0.0465379
0.0192667
0.0483645
0.0489574
0.0529643
0.0370159
0.0937149
-0.00219014
-0.00671422
-0.00572276
-0.00828853
-0.00955274
-0.0046839
-0.0134074
0.000200671
-0.0168843
0.00470223
-0.0191936
0.0085781
-0.0194285
0.0121413
-0.016619
0.0155177
-0.00978612
0.0186377
0.00218135
0.0210195
0.0199264
0.0222649
0.0434553
0.0230089
0.0769562
0.0148636
0.111974
0.0179469
-0.0104474
0.159437
-0.00190656
-0.00480765
-0.00477682
-0.00541827
-0.00737439
-0.00208633
-0.00927982
0.0021061
-0.010063
0.00548546
-0.00910151
0.00761656
-0.00554954
0.00858932
0.00147219
0.00849594
0.0128577
0.00725223
0.029726
0.00415118
0.0525009
-0.000510002
0.0819651
-0.00645525
0.118855
-0.0220262
0.162328
-0.0255266
-0.0600491
0.21193
-0.00205755
-0.0027501
-0.00505644
-0.00241939
-0.0075124
0.000369634
-0.00870915
0.00330284
-0.00817588
0.0049522
-0.00519682
0.0046375
0.00125449
0.00213801
0.0123665
-0.00261609
0.0294547
-0.00983591
0.0529617
-0.0193559
0.0835793
-0.0311276
0.122566
-0.0454421
0.164549
-0.0640091
0.217914
-0.078892
-0.110033
0.267898
-0.00241791
-0.000332188
-0.00588503
0.00104773
-0.00856912
0.00305373
-0.00933281
0.00406653
-0.0070334
0.00265278
-0.00022323
-0.00217267
0.0123964
-0.0104817
0.0319306
-0.0221503
0.0589421
-0.0368474
0.0924321
-0.0528458
0.132432
-0.0711277
0.176654
-0.0896635
0.221401
-0.108757
0.270866
-0.128357
-0.147262
0.308095
-0.00233159
-0.00541779
-0.00697385
-0.00500743
0.00243398
0.0168887
0.0391851
0.068748
0.103735
0.142266
0.181742
0.218693
0.252376
0.278297
0.296032
-0.00274467
0.260041
-0.303476
0.0704411
0.201659
-0.274845
0.146552
0.0312547
-0.107365
0.200441
-0.167186
0.113297
0.22208
-0.307801
0.286162
0.22703
-0.344278
0.339328
0.208815
-0.316941
0.335156
0.170065
-0.347849
0.386598
0.158682
-0.323256
0.33464
0.201284
-0.126422
0.0838204
0.249746
0.0868302
-0.135292
0.263451
0.232496
-0.246201
0.261786
0.333516
-0.331851
0.263669
0.439978
-0.44186
0.266488
0.372106
-0.374925
0.275791
0.190624
-0.199928
0.286764
-0.0585539
0.0475815
0.29121
-0.391433
0.386988
0.295447
-0.496119
0.491881
0.29717
-0.457813
0.456091
0.305186
-0.189223
0.181207
0.305634
0.418986
-0.419434
0.30906
0.561479
-0.564905
0.319497
0.459789
-0.470227
0.321193
0.197383
-0.19908
0.302344
-0.747694
0.766543
0.318862
-0.783203
0.766685
0.308802
0.442676
-0.432616
0.284987
0.760897
-0.737081
0.269909
-0.113931
0.129008
0.277512
-0.292477
0.284875
0.265411
0.0447855
-0.0326844
0.256306
-0.00568461
0.0147888
0.25957
0.056573
-0.0598365
0.248389
0.0588128
-0.0476324
0.241479
-0.0192549
0.0261654
0.248658
0.0085276
-0.0157069
0.0303168
-0.0308663
0.077391
0.197563
0.140319
0.13873
0.195761
-0.024187
0.227293
-0.198718
0.229528
-0.310036
0.222389
-0.337139
0.205746
-0.300297
0.16995
-0.312053
0.154397
-0.307703
0.194383
-0.166409
0.246664
0.0345486
0.265013
0.214146
0.26169
0.336839
0.260886
0.440782
0.264291
0.368701
0.276338
0.178578
0.285228
-0.0674443
0.283721
-0.389927
0.287952
-0.500349
0.289072
-0.458934
0.300851
-0.201002
0.309016
0.41082
0.310819
0.559677
0.321072
0.449536
0.321736
0.196719
0.293249
-0.719207
0.309218
-0.799172
0.311124
0.440771
0.290099
0.781921
0.270679
-0.0945106
0.277242
-0.29904
0.264749
0.0572781
0.255987
0.00307761
0.261234
0.051326
0.250469
0.0695774
0.242149
-0.010935
0.24873
0.00194741
0.0293234
0.157362
0.133917
0.208017
0.0880751
0.242314
-0.0584845
0.254839
-0.211243
0.24171
-0.296907
0.222928
-0.318357
0.205068
-0.282437
0.174593
-0.281577
0.159366
-0.292476
0.192728
-0.199771
0.24151
-0.0142331
0.262793
0.192863
0.260408
0.339225
0.257852
0.443338
0.261234
0.365319
0.274655
0.165157
0.280847
-0.073637
0.272579
-0.381658
0.275986
-0.503756
0.277085
-0.460033
0.292351
-0.216268
0.309425
0.393747
0.309924
0.559178
0.318794
0.440665
0.317855
0.197659
0.281782
-0.683134
0.295688
-0.813078
0.311169
0.425289
0.293153
0.799937
0.2696
-0.0709575
0.275086
-0.304526
0.262658
0.0697065
0.254206
0.0115296
0.261642
0.0438902
0.25176
0.0794587
0.242168
-0.00134284
0.248126
-0.00401017
0.0277369
0.212365
0.0809886
0.255815
0.0446254
0.279629
-0.0822991
0.277068
-0.208683
0.250494
-0.270332
0.223219
-0.291082
0.204281
-0.2635
0.175739
-0.253035
0.162879
-0.279616
0.194376
-0.231268
0.243705
-0.0635617
0.266351
0.170217
0.258672
0.346904
0.250266
0.451745
0.254514
0.361071
0.269422
0.150249
0.273495
-0.0777102
0.259551
-0.367714
0.260937
-0.505142
0.262309
-0.461405
0.28038
-0.234339
0.305019
0.369108
0.304517
0.55968
0.311958
0.433224
0.309458
0.200159
0.266938
-0.640613
0.278956
-0.825096
0.307374
0.396872
0.2928
0.81451
0.26644
-0.0445973
0.271069
-0.309155
0.25923
0.0815448
0.251087
0.0196725
0.260791
0.034186
0.252231
0.0880194
0.241619
0.00926846
0.246982
-0.00937307
0.0254331
0.252556
0.0403628
0.28926
0.00792157
0.30166
-0.0946992
0.282262
-0.189285
0.245991
-0.23406
0.214749
-0.25984
0.199322
-0.248073
0.173525
-0.227238
0.155989
-0.26208
0.189063
-0.264342
0.243055
-0.117554
0.266532
0.14674
0.25839
0.355046
0.248407
0.461728
0.250871
0.358607
0.263115
0.138004
0.264373
-0.078968
0.24539
-0.348731
0.242786
-0.502538
0.243857
-0.462475
0.264098
-0.25458
0.298097
0.335108
0.29877
0.559007
0.30349
0.428504
0.297776
0.205873
0.248936
-0.591773
0.259627
-0.835788
0.301461
0.355038
0.2908
0.825171
0.262027
-0.0158242
0.265606
-0.312733
0.254722
0.0924281
0.246852
0.0275426
0.258767
0.0222711
0.251887
0.0948999
0.240602
0.020553
0.245463
-0.0142344
0.0223133
0.294098
0.0141629
0.317221
-0.0152012
0.311003
-0.0884812
0.277951
-0.156233
0.23733
-0.19344
0.202916
-0.225426
0.188467
-0.233624
0.171402
-0.210173
0.144278
-0.234956
0.16401
-0.284074
0.227935
-0.18148
0.262215
0.112461
0.257656
0.359605
0.245709
0.473675
0.245899
0.358417
0.255435
0.128468
0.25274
-0.0762738
0.229284
-0.325275
0.221925
-0.495178
0.222761
-0.463312
0.244335
-0.276153
0.284891
0.294552
0.288092
0.555806
0.292072
0.424525
0.283341
0.214603
0.229614
-0.538046
0.238659
-0.844833
0.291542
0.302155
0.285273
0.83144
0.255786
0.0136624
0.258853
-0.3158
0.249221
0.10206
0.241685
0.0350792
0.255678
0.00827718
0.25075
0.0998281
0.239213
0.0320906
0.243731
-0.0187525
0.018295
0.318755
0.00350289
0.32101
-0.0174564
0.297932
-0.0654027
0.260366
-0.118667
0.223396
-0.15647
0.1906
-0.19263
0.173035
-0.216059
0.165114
-0.202252
0.137726
-0.207568
0.131651
-0.278
0.197683
-0.247511
0.257796
0.0523476
0.265665
0.351736
0.252979
0.486361
0.244826
0.36657
0.245798
0.127496
0.238907
-0.0693834
0.211753
-0.29812
0.199546
-0.482972
0.198549
-0.462315
0.222021
-0.299625
0.271227
0.245346
0.2783
0.548732
0.281511
0.421314
0.268599
0.227515
0.210713
-0.480161
0.21759
-0.851709
0.280717
0.239028
0.279074
0.833083
0.248472
0.0442642
0.251291
-0.318619
0.243088
0.110264
0.235855
0.042312
0.251699
-0.00756692
0.248887
0.10264
0.237534
0.0434438
0.241923
-0.0231418
0.0133021
0.297557
0.00197792
0.2909
-0.0107989
0.268465
-0.0429679
0.238292
-0.0884944
0.208014
-0.126191
0.178809
-0.163425
0.157934
-0.195184
0.152406
-0.196724
0.134127
-0.189288
0.109166
-0.253039
0.15014
-0.288485
0.224445
-0.021957
0.257691
0.31849
0.253321
0.490731
0.240439
0.379452
0.237315
0.13062
0.226798
-0.0588664
0.195137
-0.266459
0.176358
-0.464193
0.174206
-0.460163
0.196908
-0.322326
0.249443
0.19281
0.263046
0.53513
0.269164
0.415196
0.253946
0.242733
0.194144
-0.420358
0.196759
-0.854325
0.266499
0.169288
0.269342
0.83024
0.239807
0.0737986
0.242795
-0.321607
0.236354
0.116705
0.229587
0.049079
0.246946
-0.0249257
0.246346
0.10324
0.235622
0.0541682
0.24014
-0.02766
0.00725519
0.498437
-0.00038973
-0.496069
0.50209
-0.0144522
0.501407
-0.042285
0.488382
-0.0754696
0.467932
-0.10574
0.446036
-0.14153
0.412172
-0.16132
0.388178
-0.172731
0.373982
-0.175092
0.327143
-0.2062
0.292284
-0.253626
0.300495
-0.0301684
0.278195
0.340791
0.281245
0.48768
0.340752
0.319945
0.40222
0.0691516
0.437056
-0.0937023
0.432254
-0.261657
0.404424
-0.436363
0.367888
-0.423627
0.328105
-0.282544
0.329061
0.191855
0.334612
0.529578
0.385954
0.363854
0.427523
0.201165
0.388228
-0.381064
0.339723
-0.80582
0.366332
0.14268
0.380711
0.815861
0.381452
0.0730573
0.383112
-0.323267
0.359053
0.140764
0.34929
0.0588418
0.373039
-0.0486747
0.369536
0.106743
0.351697
0.0720069
0.354076
-0.030039
0.00221467
0.527395
-0.00198176
-0.525803
0.527323
-0.0143807
0.523178
-0.0381398
0.51068
-0.0629717
0.489285
-0.0843459
0.464824
-0.117068
0.433062
-0.129558
0.396339
-0.136008
0.377982
-0.156734
0.342215
-0.170434
0.294294
-0.205704
0.271367
-0.00724232
0.269044
0.343114
0.322401
0.434323
0.40724
0.235106
0.465411
0.0109808
0.48658
-0.114871
0.465532
-0.240609
0.421135
-0.391966
0.368708
-0.371201
0.327679
-0.241514
0.327968
0.191565
0.341948
0.515599
0.416547
0.289255
0.465917
0.151794
0.40897
-0.324117
0.354275
-0.751125
0.38412
0.112835
0.406099
0.793883
0.41477
0.0643856
0.415624
-0.324121
0.38798
0.168408
0.378792
0.0680304
0.405835
-0.0757179
0.403482
0.109096
0.384761
0.0907273
0.386699
-0.031977
-0.00323371
0.557668
-0.00294033
-0.55671
0.557637
-0.0143501
0.551915
-0.0324168
0.542483
-0.0535399
0.527477
-0.0693403
0.502733
-0.0923241
0.481843
-0.108667
0.454414
-0.108579
0.420355
-0.122675
0.373257
-0.123336
0.304777
-0.137225
0.270804
0.0267304
0.300052
0.313866
0.40806
0.326316
0.498289
0.144876
0.531649
-0.0223784
0.535494
-0.118716
0.507388
-0.212502
0.445062
-0.32964
0.364252
-0.290391
0.311506
-0.188768
0.316885
0.186186
0.354777
0.477707
0.454206
0.189827
0.510805
0.0951954
0.442913
-0.256225
0.369902
-0.678114
0.400448
0.0822888
0.434484
0.759847
0.451761
0.0471088
0.451252
-0.323612
0.420331
0.199329
0.412387
0.0759748
0.442634
-0.105966
0.440836
0.110894
0.42139
0.110174
0.423594
-0.0341818
-0.00925865
0.591628
-0.00349622
-0.591072
0.58961
-0.012332
0.584701
-0.0275083
0.57271
-0.0415486
0.558413
-0.0550433
0.537807
-0.0717185
0.512316
-0.0831761
0.487478
-0.0837408
0.462351
-0.0975482
0.423311
-0.0842961
0.362921
-0.0768344
0.339107
0.0505446
0.405498
0.247476
0.520503
0.211311
0.586458
0.0789208
0.592415
-0.0283352
0.572782
-0.0990839
0.533631
-0.173351
0.461886
-0.257896
0.360838
-0.189342
0.290631
-0.118561
0.307836
0.16898
0.38209
0.403452
0.492971
0.0789456
0.553048
0.0351183
0.478797
-0.181973
0.378961
-0.578278
0.401186
0.060064
0.462267
0.698766
0.495796
0.0135797
0.491176
-0.318993
0.456633
0.233873
0.451199
0.0814086
0.48386
-0.138626
0.481515
0.113238
0.461751
0.129938
0.465447
-0.0378778
-0.0162737
0.62897
-0.00336612
-0.6291
0.626551
-0.00991302
0.620836
-0.0217926
0.611429
-0.0321419
0.59956
-0.0431746
0.582433
-0.0545912
0.562568
-0.0633115
0.54008
-0.0612524
0.513451
-0.0709195
0.479315
-0.0501596
0.442223
-0.0397429
0.449255
0.0435125
0.52911
0.167621
0.611656
0.128765
0.64159
0.0489865
0.635088
-0.0218332
0.616474
-0.0804697
0.579141
-0.136018
0.511393
-0.190147
0.413796
-0.0917459
0.336284
-0.0410481
0.358618
0.146647
0.450378
0.311692
0.543662
-0.0143386
0.600691
-0.02191
0.53264
-0.113923
0.398292
-0.44393
0.407763
0.050593
0.506418
0.600111
0.551845
-0.0318477
0.535546
-0.302694
0.498299
0.27112
0.497134
0.082574
0.531649
-0.173141
0.528358
0.116529
0.508064
0.150232
0.513561
-0.0433749
-0.024406
0.670688
-0.00281404
-0.67124
0.668266
-0.00749039
0.663529
-0.0170563
0.65504
-0.0236526
0.644495
-0.0326298
0.628905
-0.039001
0.611626
-0.0460326
0.593472
-0.0430983
0.572434
-0.0498819
0.552628
-0.0303533
0.532026
-0.0191412
0.547415
0.0281238
0.61123
0.103806
0.66692
0.0730748
0.682401
0.0335055
0.669437
-0.00886979
0.649219
-0.0602517
0.613042
-0.0998411
0.561868
-0.138973
0.498924
-0.0288017
0.446387
0.0114892
0.481819
0.111215
0.566584
0.226926
0.609796
-0.0575506
0.647007
-0.0591212
0.597156
-0.0640715
0.443581
-0.290354
0.443875
0.0502986
0.5731
0.470886
0.616528
-0.0752765
0.579742
-0.265908
0.54572
0.305141
0.553991
0.0743038
0.587279
-0.206429
0.580877
0.12293
0.560302
0.170807
0.568155
-0.0512278
-0.0336873
0.718169
-0.00216008
-0.718823
0.715901
-0.00522208
0.711384
-0.012539
0.704167
-0.0164365
0.695364
-0.023826
0.683223
-0.0268603
0.669999
-0.0328088
0.656179
-0.0292777
0.639664
-0.0333671
0.628061
-0.0187505
0.617064
-0.00814431
0.630592
0.0145958
0.674705
0.0596936
0.705788
0.0419917
0.718156
0.0211377
0.715985
-0.00669917
0.701087
-0.045354
0.663066
-0.0618193
0.618422
-0.0943292
0.593501
-0.00388073
0.57651
0.0284799
0.61793
0.0697945
0.689492
0.155364
0.688966
-0.0570245
0.688968
-0.0591235
0.665922
-0.041025
0.537691
-0.162124
0.525924
0.062066
0.657149
0.339661
0.684436
-0.102563
0.627132
-0.208604
0.60678
0.325492
0.626233
0.0548516
0.648206
-0.228402
0.636189
0.134947
0.620468
0.186528
0.632778
-0.063538
-0.0435686
0.771915
-0.00126251
-0.772812
0.769722
-0.00302935
0.765891
-0.00870769
0.760178
-0.0107237
0.753011
-0.0166592
0.743895
-0.0177436
0.733289
-0.0222032
0.723525
-0.0195138
0.711145
-0.0209869
0.704857
-0.0124628
0.700688
-0.0039755
0.708061
0.00722267
0.735929
0.0318263
0.755968
0.0219528
0.765171
0.0119342
0.760678
-0.00220602
0.749548
-0.0342239
0.72473
-0.0370011
0.691097
-0.0606965
0.686944
0.000271881
0.687752
0.0276726
0.719363
0.0381831
0.7682
0.106527
0.753994
-0.0428177
0.736067
-0.0411972
0.72438
-0.0293374
0.648092
-0.0858354
0.644217
0.0659411
0.74857
0.235308
0.746007
-0.0999998
0.682304
-0.144901
0.690409
0.317388
0.713061
0.0321989
0.711502
-0.226843
0.698528
0.14792
0.698411
0.186646
0.712792
-0.0779197
-0.0495353
0.832203
-0.00036378
-0.833102
0.830475
-0.00130128
0.827289
-0.00552223
0.823024
-0.00645795
0.817306
-0.0109417
0.810682
-0.0111192
0.80286
-0.0143812
0.795924
-0.0125785
0.78796
-0.0130229
0.783919
-0.0084213
0.782306
-0.00236265
0.786669
0.00285987
0.803135
0.01536
0.81368
0.0114081
0.821022
0.00459253
0.820035
-0.00121903
0.810759
-0.0249488
0.793692
-0.0199334
0.769411
-0.0364158
0.771258
-0.0015753
0.774904
0.0240266
0.79663
0.0164577
0.831292
0.0718641
0.818759
-0.0302842
0.798377
-0.0208155
0.785823
-0.0167835
0.747111
-0.0471234
0.761062
0.0519906
0.835081
0.161289
0.806629
-0.0715485
0.753569
-0.0918409
0.795004
0.275953
0.809431
0.0177718
0.779832
-0.197244
0.776929
0.150824
0.798329
0.165246
0.803357
-0.0829484
-0.044041
0.899913
0.000465827
-0.900742
0.898617
-5.1724e-06
0.89613
-0.00303607
0.893033
-0.00336008
0.88878
-0.00668949
0.884095
-0.00643349
0.878647
-0.0089339
0.87372
-0.00765151
0.868698
-0.00800083
0.865723
-0.00544575
0.865426
-0.00206591
0.867605
0.000681205
0.876548
0.0064163
0.88282
0.00513621
0.886943
0.00046959
0.886114
-0.00038986
0.878051
-0.0168861
0.869131
-0.0110131
0.852785
-0.02007
0.854842
-0.00363202
0.859196
0.0196721
0.871377
0.00427699
0.893337
0.049904
0.884429
-0.0213764
0.871094
-0.0074803
0.863065
-0.00875436
0.840222
-0.0242804
0.85521
0.0370031
0.908504
0.107995
0.874142
-0.0371867
0.837886
-0.0555849
0.899377
0.214462
0.90021
0.016939
0.851064
-0.148099
0.868502
0.133387
0.904598
0.12915
0.890901
-0.0692515
-0.0268446
0.975533
0.00114753
-0.976215
0.974557
0.000970647
0.972738
-0.00121654
0.970573
-0.00119542
0.967586
-0.00370277
0.964334
-0.00318096
0.960694
-0.00529383
0.957184
-0.00414145
0.954121
-0.00493845
0.951934
-0.00325845
0.95173
-0.00186206
0.952718
-0.000306625
0.957117
0.00201692
0.960278
0.00197573
0.96208
-0.00133254
0.962221
-0.000530927
0.956074
-0.0107393
0.951214
-0.00615243
0.941128
-0.00998394
0.941371
-0.00387497
0.945131
0.015912
0.95159
-0.00218271
0.966292
0.0352022
0.961011
-0.0160955
0.951331
0.0021997
0.945761
-0.00318407
0.931598
-0.0101171
0.942223
0.0263781
0.981819
0.0683983
0.95319
-0.00855693
0.926634
-0.0290294
0.989863
0.151233
0.983591
0.023211
0.930278
-0.0947858
0.964028
0.0996364
1.00053
0.0926507
0.972909
-0.0416331
-0.00673735
1.05934
0.00162437
-1.05981
1.0587
0.00161225
1.05745
2.5629e-05
1.05602
0.000233533
1.05399
-0.00167239
1.05185
-0.00104047
1.04944
-0.00287709
1.04708
-0.00178697
1.04511
-0.0029713
1.04346
-0.00160489
1.0432
-0.00160249
1.04333
-0.000438708
1.04524
0.000107876
1.04675
0.000465735
1.04706
-0.00163499
1.04719
-0.000669947
1.04251
-0.00605096
1.03997
-0.00361781
1.034
-0.00401341
1.03358
-0.00345766
1.03706
0.0124369
1.03944
-0.00456018
1.0486
0.0260423
1.04484
-0.0123418
1.03883
0.0082105
1.03689
-0.00124275
1.0284
-0.00162998
1.0326
0.0221829
1.06095
0.0400498
1.04304
0.0093465
1.02277
-0.00875331
1.07468
0.0993224
1.06756
0.0303279
1.02258
-0.0498058
1.06045
0.0617662
1.08814
0.0649592
1.05816
-0.0116517
0.00915047
1.15193
0.00190106
-1.15221
1.15158
0.00196502
1.15075
0.000856901
1.14986
0.00112205
1.14854
-0.000352368
1.14719
0.00030595
1.14562
-0.00130934
1.14407
-0.000232868
1.14278
-0.00167903
1.14153
-0.000353548
1.14116
-0.00123902
1.1408
-7.88298e-05
1.14145
-0.000536215
1.14186
5.29557e-05
1.14141
-0.00118431
1.14145
-0.000709991
1.13821
-0.00281571
1.13687
-0.0022769
1.13351
-0.000646744
1.1327
-0.00265337
1.1353
0.00983842
1.1355
-0.0047654
1.14174
0.0198062
1.13923
-0.00982825
1.13553
0.011903
1.1347
-0.000409049
1.12998
0.00309365
1.13158
0.0205769
1.1513
0.0203351
1.14062
0.0200209
1.1266
0.00526734
1.16501
0.0609163
1.15903
0.0363108
1.12746
-0.0182385
1.15976
0.0294604
1.17764
0.0470833
1.15295
0.0130353
0.0193146
1.25381
0.00202099
-1.25393
1.25366
0.00211293
1.25318
0.00133414
1.2527
0.00160623
1.25187
0.000471366
1.25107
0.00111272
1.25007
-0.000316057
1.24908
0.00076051
1.24821
-0.000812268
1.24728
0.000575666
1.24689
-0.000840351
1.24633
0.000478448
1.24631
-0.000522713
1.24618
0.000185027
1.24549
-0.000493136
1.24533
-0.000552817
1.24314
-0.000616456
1.24233
-0.00146747
1.24043
0.00124405
1.23961
-0.00182985
1.24165
0.00779796
1.24075
-0.00386504
1.24506
0.015494
1.24288
-0.00764808
1.24103
0.0137544
1.24142
-0.000794941
1.23877
0.0057451
1.23955
0.0197907
1.25208
0.00780455
1.24639
0.0257102
1.23906
0.0126042
1.2652
0.0347692
1.26026
0.0412558
1.24151
0.000506507
1.26551
0.00546007
1.27588
0.0367189
1.2584
0.0305135
0.0248146
1.36567
0.00200489
-1.36565
1.36568
0.00210096
1.36546
0.00155577
1.36525
0.00181268
1.36478
0.000940093
1.36436
0.00153657
1.36375
0.000295675
1.36316
0.00135243
1.36256
-0.000219778
1.36192
0.00122416
1.36151
-0.000434027
1.36095
0.0010344
1.36067
-0.000237038
1.36029
0.000562959
1.35959
0.000202598
1.35927
-0.000227343
1.35785
0.000804729
1.3573
-0.000918056
1.35628
0.00226618
1.35554
-0.00109704
1.35707
0.00626878
1.35579
-0.00258465
1.35902
0.0122618
1.35724
-0.00586904
1.35675
0.0142469
1.35733
-0.00137179
1.35568
0.00739878
1.35704
0.0184299
1.36446
0.000377541
1.36201
0.0281657
1.35929
0.0153267
1.37611
0.0179427
1.37324
0.044132
1.36363
0.0101114
1.37957
-0.0104759
1.38526
0.0310229
1.37461
0.0411706
0.0269577
1.48832
0.00188147
-1.48819
1.48845
0.00196837
1.48841
0.00159015
1.48841
0.00181563
1.4882
0.00115243
1.48805
0.00168886
1.4877
0.000645873
1.4874
0.00165017
1.487
0.000181178
1.48658
0.00164176
1.48621
-6.83671e-05
1.48573
0.00151779
1.48538
0.000114835
1.4849
0.00104508
1.48434
0.000757422
1.48391
0.000204743
1.48304
0.00167431
1.48261
-0.000488919
1.4821
0.00277453
1.48156
-0.00055714
1.48278
0.00505395
1.4816
-0.00140741
1.48416
0.00970073
1.48256
-0.00426721
1.483
0.0138108
1.48353
-0.00191044
1.48246
0.00847174
1.48462
0.016271
1.48825
-0.00324894
1.48814
0.0282697
1.48857
0.0148982
1.49832
0.00818883
1.49773
0.0447296
1.49434
0.0134945
1.50379
-0.0199239
1.50684
0.0279772
1.50173
0.046277
0.0266625
1.62268
0.00166722
-1.62246
1.62291
0.00173937
1.62301
0.00148063
1.62316
0.00166667
1.62313
0.00118307
1.62318
0.00163749
1.62301
0.000818099
1.62295
0.0017097
1.62267
0.000465015
1.62247
0.00184121
1.62213
0.000271655
1.62179
0.00186157
1.62143
0.00047499
1.62096
0.00150616
1.62054
0.00117732
1.62008
0.00066873
1.6196
0.0021565
1.61928
-0.000169732
1.6191
0.00294915
1.61887
-0.000324867
1.61985
0.00407425
1.61904
-0.000598167
1.62124
0.00749938
1.61965
-0.00267104
1.62106
0.0123991
1.62088
-0.00172802
1.62038
0.00896785
1.62329
0.0133627
1.62399
-0.00395208
1.62614
0.0261179
1.62814
0.0129005
1.63278
0.00355297
1.63533
0.0421784
1.63528
0.0135397
1.6387
-0.0233364
1.64109
0.0255881
1.64104
0.0463239
0.0246692
1.76978
0.00135017
-1.76947
1.77011
0.00141173
1.77036
0.00122856
1.77065
0.00138233
1.77078
0.00104732
1.771
0.00141783
1.77098
0.000841904
1.77111
0.00158135
1.7709
0.000668989
1.77089
0.00185395
1.77054
0.000626442
1.77032
0.00207409
1.76992
0.00087515
1.7695
0.00193508
1.76918
0.00149692
1.76867
0.00117468
1.76853
0.00229874
1.76828
7.48738e-05
1.76843
0.00279725
1.76862
-0.00050723
1.76947
0.00322397
1.76929
-0.000418088
1.77124
0.0055424
1.76957
-0.000997336
1.77184
0.0101272
1.7705
-0.000386389
1.77079
0.00868061
1.77412
0.0100274
1.77249
-0.00231523
1.7769
0.0217013
1.77966
0.0101479
1.78063
0.0025828
1.78638
0.0364199
1.78794
0.0119861
1.78599
-0.0213866
1.78868
0.0228955
1.79312
0.0418834
0.021358
1.9309
0.00100881
-1.93056
1.93123
0.00108061
1.93153
0.000931285
1.93183
0.00108426
1.93203
0.000847761
1.93229
0.0011564
1.93233
0.000802369
1.93256
0.00134666
1.93239
0.000840726
1.93259
0.00164845
1.93223
0.000992375
1.93235
0.00195465
1.93196
0.0012677
1.93187
0.00201645
1.93175
0.00162002
1.9314
0.00152709
1.93173
0.00196712
1.93139
0.000411852
1.93194
0.00225313
1.93217
-0.000739967
1.93266
0.00273406
1.93309
-0.000847329
1.93434
0.0042903
1.93297
0.00037199
1.93614
0.00695923
1.93338
0.00237699
1.93534
0.00671715
1.93806
0.00731201
1.9343
0.00144478
1.94193
0.0140661
1.9442
0.00787916
1.94229
0.0044915
1.95377
0.0249398
1.95528
0.0104741
1.94365
-0.00975763
1.94834
0.0182084
1.96074
0.0294872
0.016471
2.10721
0.000805564
-2.10701
2.10741
0.000885913
2.10756
0.000775653
2.10773
0.000917485
2.10783
0.000749727
2.108
0.000988043
2.10804
0.000761291
2.10826
0.00111889
2.10826
0.000840937
2.10861
0.00129975
2.10861
0.000990549
2.10909
0.00147941
2.10918
0.00117281
2.10966
0.00154457
2.10997
0.00131088
2.11017
0.0013259
2.11071
0.00142231
2.11046
0.000659762
2.111
0.00171578
2.11055
-0.000285003
2.11083
0.00244681
2.1106
-0.000612859
2.11132
0.00357001
2.11099
0.000701254
2.11339
0.00456176
2.11265
0.00311286
2.11485
0.0045219
2.11666
0.00549386
2.11478
0.00332781
2.12066
0.00818737
2.12272
0.00582086
2.12146
0.00575347
2.13236
0.0140378
2.13485
0.00798429
2.12315
0.0019436
2.12836
0.0129999
2.14187
0.0159708
0.0115049
2.29999
0.000622101
-2.29981
2.3002
0.000678918
2.30035
0.000625541
2.30055
0.000713389
2.30068
0.000622261
2.30091
0.000761567
2.30105
0.000623111
2.30133
0.000831366
2.30153
0.000640307
2.30192
0.000913249
2.30223
0.000681982
2.30273
0.000977981
2.30315
0.000756129
2.30372
0.000973578
2.30417
0.000858961
2.30466
0.000840319
2.30506
0.00101584
2.30516
0.000561429
2.30558
0.00129818
2.30507
0.000219259
2.30572
0.00180242
2.30502
8.32813e-05
2.30607
0.00252181
2.30626
0.000515719
2.30761
0.00321109
2.30903
0.00168528
2.31031
0.00324995
2.31211
0.0036908
2.31307
0.00236428
2.31549
0.00577461
2.31765
0.00365429
2.31889
0.00451209
2.32436
0.00856878
2.32757
0.00477397
2.32548
0.00403944
2.32964
0.0088395
2.33665
0.00895461
0.00765425
2.51109
0.000330849
-2.5108
2.51141
0.000363293
2.51169
0.000338731
2.51202
0.000384119
2.5123
0.000343733
2.51265
0.000408636
2.51293
0.000350241
2.51332
0.000439536
2.5136
0.000362759
2.51404
0.000473066
2.51433
0.00038354
2.51481
0.000499278
2.51515
0.000416522
2.51563
0.000499174
2.51602
0.000464564
2.51642
0.000445902
2.51689
0.000546217
2.51712
0.000327385
2.51772
0.000700722
2.51776
0.000175473
2.5186
0.000959412
2.51856
0.000127493
2.5198
0.0012827
2.51993
0.000387658
2.52159
0.00155074
2.52227
0.00100675
2.5239
0.00161978
2.52573
0.00185632
2.52664
0.00145933
2.52969
0.00271725
2.53145
0.00189351
2.53336
0.00260731
2.5381
0.0038243
2.54042
0.0024585
2.54124
0.00322096
2.54573
0.00434627
2.55084
0.00384685
0.00389795
2.74241
-2.74208
2.74277
2.74311
2.74349
2.74384
2.74425
2.7446
2.74503
2.7454
2.74587
2.74625
2.74675
2.74717
2.74767
2.74813
2.74858
2.74913
2.74945
2.75015
2.75033
2.75129
2.75142
2.7527
2.75309
2.75464
2.75564
2.75726
2.75912
2.76058
2.7633
2.76519
2.7678
2.77162
2.77408
2.7773
2.78165
2.78549
0.428504
0.0464353
-0.421229
0.43685
0.0756633
0.444598
0.106455
0.45364
0.135453
0.462298
0.165026
0.473031
0.193438
0.485017
0.220179
0.249068
0.461412
0.0399633
-0.454939
0.468909
0.0681655
0.476516
0.0988487
0.484935
0.127034
0.494527
0.155435
0.503869
0.184096
0.515201
0.208847
0.238466
0.498003
0.0343897
-0.49243
0.50421
0.0619588
0.511095
0.0919634
0.518103
0.120026
0.526414
0.147124
0.534753
0.175757
0.544648
0.198952
0.226405
0.537245
0.029406
-0.532261
0.542443
0.0567605
0.54845
0.0859563
0.554933
0.113543
0.562139
0.139919
0.570941
0.166954
0.580075
0.189818
0.215407
0.580202
0.0253148
-0.576111
0.584693
0.0522699
0.590083
0.0805666
0.596335
0.107291
0.603199
0.133055
0.611258
0.158896
0.61948
0.181596
0.205787
0.627221
0.0218473
-0.623753
0.631269
0.0482217
0.636115
0.0757204
0.641747
0.101658
0.64778
0.127021
0.654732
0.151944
0.662277
0.174051
0.196823
0.678848
0.0189353
-0.675936
0.682264
0.0448057
0.686389
0.0715957
0.691144
0.0969034
0.696525
0.12164
0.703143
0.145326
0.710499
0.166696
0.188499
0.735178
0.0166369
-0.732879
0.737993
0.0419903
0.741718
0.0678707
0.746258
0.0923636
0.751826
0.116072
0.758184
0.138967
0.765062
0.159819
0.180748
0.79721
0.0147377
-0.79531
0.799796
0.0394041
0.803464
0.0642026
0.80785
0.0879769
0.812993
0.11093
0.818838
0.133122
0.82547
0.153186
0.173117
0.865463
0.0131752
-0.8639
0.86781
0.0370566
0.871178
0.0608355
0.87528
0.0838745
0.880279
0.105931
0.886299
0.127101
0.893065
0.14642
0.16544
0.940335
0.0119249
-0.939084
0.942521
0.0348704
0.945797
0.0575596
0.950042
0.0796288
0.955281
0.100693
0.961472
0.12091
0.968366
0.139526
0.157591
1.02266
0.0108525
-1.02159
1.02483
0.0327011