/*--------------------------------*- C++ -*----------------------------------*\
| =========                 |                                                 |
| \\      /  F ield         | OpenFOAM: The Open Source CFD Toolbox           |
|  \\    /   O peration     | Version:  2512                                  |
|   \\  /    A nd           | Website:  www.openfoam.com                      |
|    \\/     M anipulation  |                                                 |
\*---------------------------------------------------------------------------*/
FoamFile
{
    version     2.0;
    format      ascii;
    arch        "LSB;label=32;scalar=64";
    class       volVectorField;
    location    "112.7";
    object      U;
}
// * * * * * * * * * * * * * * * * * * * * * * * * * * * * * * * * * * * * * //

dimensions      [0 1 -1 0 0 0 0];

internalField   nonuniform List<vector> 
13248
(
(-0.0176122 0.0144387 7.85722e-20)
(-0.0275338 0.0270078 0)
(-0.0102238 0.0293163 -1.35478e-19)
(0.0359419 0.0230608 1.25439e-19)
(0.113256 0.00972132 1.1576e-19)
(0.223617 -0.00901331 0)
(0.36626 -0.0311991 0)
(0.535041 -0.0548692 2.72996e-19)
(0.717554 -0.078361 -7.22149e-22)
(0.897299 -0.10058 -2.33395e-19)
(1.05774 -0.121051 2.11987e-19)
(1.18622 -0.139732 -1.3163e-19)
(1.27635 -0.156711 0)
(1.32855 -0.171974 -2.05019e-19)
(1.34874 -0.185344 3.71711e-19)
(1.34574 -0.196571 -8.91205e-20)
(1.32851 -0.205433 -1.3724e-19)
(1.30401 -0.211761 1.27964e-19)
(1.27649 -0.215456 0)
(1.24807 -0.216954 0)
(1.21994 -0.214595 0)
(1.19019 -0.214594 0)
(1.16523 -0.202394 2.6293e-20)
(1.12834 -0.211585 7.97714e-20)
(-0.0188725 0.0136502 -2.36356e-19)
(-0.0207302 0.0196366 1.4878e-19)
(0.0128683 0.0144184 -8.16626e-22)
(0.083681 0.00181077 -1.90295e-19)
(0.194252 -0.0154161 -1.15597e-19)
(0.34405 -0.0347392 -1.076e-19)
(0.525464 -0.0538238 -1.96587e-19)
(0.722536 -0.0710029 1.82292e-19)
(0.914519 -0.0856673 0)
(1.08198 -0.0981851 1.66516e-21)
(1.21178 -0.10942 1.63675e-21)
(1.29927 -0.120154 1.26944e-19)
(1.34753 -0.130725 0)
(1.36487 -0.14099 0)
(1.36127 -0.150517 1.27499e-19)
(1.34556 -0.158824 -2.37825e-19)
(1.32385 -0.165497 1.29426e-19)
(1.29949 -0.170332 -1.20676e-19)
(1.27411 -0.173188 -4.90121e-20)
(1.24844 -0.174043 -8.22319e-20)
(1.22271 -0.173009 -2.90853e-20)
(1.19781 -0.17031 -5.25761e-20)
(1.1739 -0.163205 8.37354e-20)
(1.14751 -0.163318 2.16224e-20)
(-0.0185078 0.0122729 0)
(-0.00744906 0.0124088 0)
(0.0500185 0.00165266 6.85023e-20)
(0.154718 -0.0147763 6.25759e-20)
(0.306615 -0.0327924 -9.82846e-22)
(0.497781 -0.0490782 -1.09634e-19)
(0.709079 -0.0616553 0)
(0.914701 -0.0703406 -9.06591e-20)
(1.09124 -0.0763816 8.19264e-20)
(1.22452 -0.0815247 -1.57405e-21)
(1.31144 -0.0871319 -1.34357e-19)
(1.35778 -0.0937508 -1.17531e-19)
(1.37399 -0.101189 5.10991e-21)
(1.37098 -0.108857 -8.69857e-20)
(1.3573 -0.116124 2.14104e-19)
(1.33833 -0.122502 0)
(1.31687 -0.127696 -1.23152e-19)
(1.29424 -0.131572 6.06131e-20)
(1.2712 -0.133901 4.8961e-20)
(1.24807 -0.135056 0)
(1.22572 -0.133863 3.59473e-20)
(1.2034 -0.132901 -1.15148e-19)
(1.18276 -0.127281 1.0753e-19)
(1.16047 -0.128768 5.92805e-20)
(-0.0154468 0.00969311 -8.16377e-20)
(0.0147273 0.00392993 -7.77613e-20)
(0.103903 -0.0104358 7.01193e-20)
(0.250254 -0.0274987 0)
(0.446592 -0.042209 0)
(0.671932 -0.0515228 -1.0919e-21)
(0.894686 -0.0553914 0)
(1.08557 -0.0559736 -2.67708e-19)
(1.2278 -0.0559583 2.43194e-19)
(1.31899 -0.0572602 -2.94569e-19)
(1.36709 -0.0605698 6.61285e-20)
(1.38442 -0.0656052 0)
(1.38269 -0.0716404 9.99551e-20)
(1.37048 -0.0779442 -1.81086e-19)
(1.35296 -0.0839736 4.29668e-20)
(1.33289 -0.0893768 1.01018e-19)
(1.3117 -0.0939372 -8.12666e-21)
(1.29019 -0.0974449 -1.07801e-19)
(1.26877 -0.0998904 0)
(1.24789 -0.101001 0)
(1.2275 -0.100896 -3.37698e-20)
(1.20781 -0.100188 2.90531e-20)
(1.18947 -0.0959621 9.61635e-20)
(1.16969 -0.0984364 -8.9795e-20)
(-0.00882501 0.0059208 -8.45314e-20)
(0.0478553 -0.00573382 -7.87277e-20)
(0.176502 -0.0213689 2.17615e-19)
(0.369382 -0.0350366 -1.31342e-19)
(0.605915 -0.0419752 1.21656e-19)
(0.849082 -0.0415711 2.18217e-19)
(1.06099 -0.0368991 -1.50633e-19)
(1.21924 -0.0318244 -1.75356e-19)
(1.32033 -0.0289423 6.35875e-21)
(1.37367 -0.0290968 2.1807e-19)
(1.39348 -0.0318838 0)
(1.39285 -0.0364007 5.51942e-20)
(1.38116 -0.0417777 0)
(1.36413 -0.0473746 -8.46434e-20)
(1.34482 -0.052765 1.17835e-19)
(1.32478 -0.0576679 1.29119e-21)
(1.30471 -0.0618712 -2.87433e-20)
(1.28489 -0.0652777 5.20248e-20)
(1.26548 -0.0677404 4.36095e-20)
(1.24648 -0.0693159 -3.78485e-20)
(1.22806 -0.0698891 3.37534e-20)
(1.21029 -0.0697986 -2.90388e-20)
(1.19315 -0.0679127 0)
(1.17577 -0.070263 -2.09187e-20)
(0.00210771 0.00142753 8.45101e-20)
(0.0936159 -0.0152959 8.14226e-20)
(0.268531 -0.0289341 -7.28474e-20)
(0.507805 -0.0345773 1.33574e-19)
(0.771857 -0.0304017 -1.23721e-19)
(1.01186 -0.0201779 1.09183e-19)
(1.19506 -0.00944015 -5.14782e-20)
(1.31357 -0.00188549 1.31956e-19)
(1.37709 0.00133076 -8.07596e-20)
(1.40195 0.000757621 1.36249e-19)
(1.40344 -0.00242022 -3.0771e-19)
(1.39258 -0.00707542 1.10148e-19)
(1.37607 -0.0123848 -9.30158e-20)
(1.3574 -0.0178144 8.65918e-20)
(1.33814 -0.0230325 7.15423e-20)
(1.31889 -0.0278264 6.05112e-20)
(1.29982 -0.0320741 -1.66566e-19)
(1.28104 -0.0356652 1.01882e-19)
(1.26263 -0.0385683 -4.36016e-20)
(1.24475 -0.0407092 1.097e-19)
(1.22754 -0.0420799 -3.5298e-20)
(1.21099 -0.0428348 -8.12846e-20)
(1.19528 -0.0421483 7.39914e-20)
(1.17978 -0.0445932 2.09119e-20)
(0.0180671 -0.00311816 0)
(0.153037 -0.0227464 5.88933e-22)
(0.378416 -0.0300372 1.50197e-19)
(0.657036 -0.0234987 -1.38562e-19)
(0.930139 -0.00739902 -1.22465e-19)
(1.14856 0.0102828 2.2297e-19)
(1.29432 0.0238231 -1.01525e-19)
(1.37491 0.0313063 1.30098e-19)
(1.40865 0.033371 -4.0877e-21)
(1.41388 0.0316271 -7.03045e-20)
(1.40419 0.0276389 1.48159e-19)
(1.38785 0.0225381 -2.14389e-19)
(1.36908 0.0170214 0)
(1.34971 0.011484 -3.99632e-20)
(1.33044 0.00615265 -1.04042e-19)
(1.3115 0.00116818 3.26358e-20)
(1.29302 -0.00335793 1.71698e-21)
(1.2751 -0.00735342 -6.60843e-20)
(1.25781 -0.0107483 5.71281e-21)
(1.24119 -0.0135147 7.4653e-20)
(1.22524 -0.0156747 -3.17686e-20)
(1.20999 -0.017138 -1.14253e-20)
(1.1953 -0.018069 3.65828e-20)
(1.18094 -0.0205445 0)
(0.0396282 -0.00692684 0)
(0.225959 -0.025734 4.12118e-20)
(0.501538 -0.0217612 -1.93463e-19)
(0.805987 -0.000734203 6.91165e-20)
(1.06962 0.0254881 -6.40209e-20)
(1.25528 0.0472065 -5.61046e-20)
(1.36291 0.0606905 -9.64845e-20)
(1.41163 0.0663908 4.80942e-20)
(1.42361 0.0664675 4.08342e-20)
(1.41618 0.0631619 0)
(1.40012 0.0581137 8.66127e-20)
(1.38099 0.052304 -1.25833e-19)
(1.36123 0.0462561 9.27413e-20)
(1.34172 0.0402495 3.99802e-20)
(1.32277 0.0344524 -3.16925e-20)
(1.30445 0.0289862 -2.56261e-20)
(1.28676 0.023935 -2.32812e-20)
(1.2697 0.0193648 7.07266e-20)
(1.25326 0.0153118 0)
(1.23744 0.0117895 3.35851e-20)
(1.22228 0.00884529 2.70127e-20)
(1.20771 0.00642281 -6.78161e-20)
(1.19375 0.00437648 -4.42408e-20)
(1.18042 0.00207349 4.09427e-20)
(0.0670338 -0.00910026 -4.67273e-20)
(0.310622 -0.021896 -1.21009e-21)
(0.630636 -0.00222019 3.91808e-20)
(0.944373 0.0330863 1.06212e-19)
(1.1847 0.0661062 2.91353e-20)
(1.33363 0.0885546 -5.61609e-20)
(1.40703 0.0998522 5.06968e-20)
(1.43097 0.102724 -4.32777e-20)
(1.42797 0.100405 7.49785e-20)
(1.41274 0.0953613 3.11702e-20)
(1.39311 0.0890818 -8.7175e-20)
(1.37256 0.0823371 2.53035e-20)
(1.35236 0.0755079 4.22174e-20)
(1.33288 0.0687969 -2.06362e-20)
(1.31417 0.06233 0)
(1.29621 0.0561948 2.95243e-20)
(1.27898 0.0504567 4.8968e-20)
(1.26248 0.0451646 7.82479e-21)
(1.24672 0.0403533 -3.9809e-20)
(1.2317 0.0360576 1.63818e-20)
(1.21737 0.0322782 0)
(1.20368 0.0289763 -1.23878e-20)
(1.19058 0.0259563 -1.11795e-20)
(1.17795 0.0234969 0)
(0.100008 -0.0086621 0)
(0.403541 -0.00922308 2.25793e-20)
(0.757429 0.0290439 4.1081e-20)
(1.06514 0.0763367 -1.07084e-19)
(1.27432 0.112453 3.38097e-20)
(1.38752 0.132911 0)
(1.43246 0.140585 4.72327e-20)
(1.43816 0.140061 -6.47968e-20)
(1.42528 0.135148 -3.71548e-20)
(1.4054 0.128218 1.66123e-20)
(1.38385 0.1205 -2.56242e-20)
(1.36262 0.112568 6.19124e-20)
(1.3423 0.104687 3.04603e-20)
(1.32297 0.097001 -2.11194e-20)
(1.30459 0.0896058 -2.12901e-21)
(1.28712 0.0825766 -5.58202e-20)
(1.27051 0.075967 2.51434e-20)
(1.25472 0.06982 -4.79308e-22)
(1.23972 0.0641675 0)
(1.22544 0.0590221 -1.63978e-20)
(1.21182 0.0543908 0)
(1.19879 0.0501797 3.5847e-20)
(1.18628 0.0464046 -4.22358e-20)
(1.17428 0.0437101 1.89957e-20)
(0.13767 -0.00464626 -1.24965e-20)
(0.499863 0.0135921 -5.65498e-20)
(0.874522 0.0712582 6.28866e-20)
(1.16463 0.127098 3.57554e-20)
(1.3398 0.16293 -1.71081e-20)
(1.421 0.179375 2.69123e-20)
(1.4435 0.182545 -1.30721e-20)
(1.43633 0.178343 2.09806e-20)
(1.41716 0.170712 0)
(1.3946 0.161736 4.5766e-20)
(1.37206 0.152367 -1.8903e-21)
(1.35055 0.143009 -3.60748e-20)
(1.33027 0.133846 1.52796e-20)
(1.31117 0.124983 -1.70354e-20)
(1.29315 0.116494 -6.40572e-21)
(1.27613 0.108435 7.32224e-21)
(1.26003 0.100838 -5.63412e-21)
(1.24482 0.0937343 -2.98607e-20)
(1.23043 0.0871476 1.82052e-20)
(1.21683 0.0810933 3.70713e-21)
(1.20394 0.0755517 3.2239e-21)
(1.19168 0.0704655 2.80297e-21)
(1.17997 0.0659951 0)
(1.16872 0.0626889 0)
(0.178659 0.0037862 1.25117e-20)
(0.594233 0.0469743 -1.16331e-20)
(0.976585 0.122981 -2.08868e-20)
(1.24164 0.183599 0)
(1.38337 0.216349 -8.3326e-21)
(1.43743 0.227363 -7.14547e-21)
(1.44294 0.225508 -1.19121e-20)
(1.427 0.217455 0)
(1.404 0.206958 0)
(1.38002 0.195728 0)
(1.35707 0.184464 0)
(1.3356 0.173436 0)
(1.31556 0.162765 -9.62541e-21)
(1.29684 0.152521 4.34902e-21)
(1.2793 0.142753 7.46783e-21)
(1.26285 0.133497 3.43998e-21)
(1.24741 0.124769 8.48568e-21)
(1.23293 0.116594 0)
(1.21932 0.108995 -2.00104e-21)
(1.20651 0.101964 -1.84601e-21)
(1.19442 0.0954718 -3.22894e-21)
(1.18296 0.0894932 -2.80735e-21)
(1.17205 0.084297 0)
(1.16166 0.0802058 1.98416e-21)
(-0.00568217 0.130429 7.94653e-21)
(-0.0187757 0.2444 -7.55613e-21)
(-0.0406072 0.275796 -1.4043e-20)
(-0.0660485 0.26714 0)
(-0.0925269 0.24266 -1.83519e-20)
(-0.118902 0.212139 5.57941e-21)
(-0.144362 0.177265 -1.1075e-20)
(-0.168344 0.136954 0)
(-0.190486 0.0899689 0)
(-0.210614 0.0355545 0)
(-0.228071 -0.0267755 0)
(-0.242642 -0.0964449 0)
(-0.254637 -0.172676 -3.77756e-22)
(-0.263742 -0.254253 -7.37683e-21)
(-0.269846 -0.339517 1.45743e-20)
(-0.272861 -0.426378 1.97661e-20)
(-0.272737 -0.512341 6.41289e-21)
(-0.269496 -0.5946 0)
(-0.263249 -0.670182 4.57493e-21)
(-0.254059 -0.736077 -1.29637e-20)
(-0.241559 -0.789276 -7.58254e-21)
(-0.224154 -0.82685 -6.56625e-21)
(-0.200324 -0.846118 0)
(-0.168971 -0.84553 0)
(-0.012146 0.133931 -2.43163e-20)
(-0.0272703 0.259149 3.82906e-20)
(-0.0438376 0.29956 -1.48119e-20)
(-0.0615173 0.296287 -2.72346e-20)
(-0.0792318 0.274221 3.7553e-20)
(-0.0961222 0.244236 -2.43897e-20)
(-0.111424 0.208875 3.36853e-20)
(-0.124608 0.167496 2.25429e-20)
(-0.135397 0.119011 0)
(-0.14365 0.0627632 -2.00389e-20)
(-0.149214 -0.00129553 -1.04353e-21)
(-0.152035 -0.0731587 1.72606e-20)
(-0.152281 -0.151728 2.62916e-20)
(-0.15011 -0.235719 3.28477e-20)
(-0.145583 -0.323421 -1.46203e-20)
(-0.138809 -0.412641 -4.18707e-20)
(-0.130075 -0.500753 1.31622e-20)
(-0.119993 -0.584821 -4.77649e-20)
(-0.109557 -0.66184 0)
(-0.0999169 -0.729113 8.68162e-21)
(-0.0922356 -0.784509 7.57044e-21)
(-0.0860964 -0.826656 6.55598e-21)
(-0.0824988 -0.85465 0)
(-0.07476 -0.867795 0)
(-0.0180501 0.130564 0)
(-0.0351324 0.262699 8.19851e-20)
(-0.0455532 0.312198 -3.02904e-20)
(-0.0540332 0.315321 2.8331e-20)
(-0.0612861 0.296463 -8.03708e-20)
(-0.0669148 0.267539 0)
(-0.0702674 0.232201 -4.91414e-20)
(-0.0708679 0.190477 2.30995e-20)
(-0.0685215 0.141577 -4.52953e-20)
(-0.0632913 0.0849754 2.27847e-20)
(-0.0554876 0.0205639 1.24606e-19)
(-0.0451769 -0.0513463 -5.81886e-20)
(-0.0323855 -0.129873 -9.27895e-20)
(-0.0175487 -0.213921 -3.6333e-20)
(-0.000703178 -0.301932 1.39722e-22)
(0.018159 -0.391726 1.20726e-19)
(0.0387666 -0.480462 -5.58344e-20)
(0.0604427 -0.564554 -1.10562e-21)
(0.0818602 -0.64009 0)
(0.10128 -0.703585 -3.81249e-20)
(0.115648 -0.753199 0)
(0.124741 -0.788429 -2.45074e-20)
(0.120879 -0.812969 9.00313e-20)
(0.123051 -0.823644 -4.59907e-21)
(-0.0225761 0.120566 0)
(-0.0415715 0.254039 1.13929e-21)
(-0.0460182 0.311726 3.19464e-20)
(-0.0450904 0.322063 -3.05186e-20)
(-0.0413185 0.307437 2.61708e-20)
(-0.0350406 0.280348 1.5875e-19)
(-0.025914 0.245626 -4.95301e-20)
(-0.0136086 0.204184 -4.8524e-20)
(0.00196467 0.15569 9.17572e-20)
(0.0205837 0.0997646 -1.33285e-19)
(0.0417803 0.0363266 4.18835e-20)
(0.0652999 -0.0341535 4.08141e-20)
(0.0909423 -0.111198 0)
(0.118435 -0.194054 3.5683e-20)
(0.147875 -0.281458 0)
(0.179374 -0.371442 6.29316e-20)
(0.212637 -0.46099 -1.11594e-19)
(0.246849 -0.545794 3.03711e-20)
(0.280287 -0.620846 9.21059e-20)
(0.311121 -0.680949 3.80793e-20)
(0.335434 -0.723246 0)
(0.353936 -0.744939 -7.61405e-20)
(0.354411 -0.753268 2.53929e-20)
(0.365196 -0.737687 0)
(-0.0251387 0.105322 0)
(-0.0459095 0.233833 -1.04278e-19)
(-0.0455066 0.297511 -3.25356e-20)
(-0.0360847 0.315238 -6.08918e-20)
(-0.0218633 0.305829 5.64175e-20)
(-0.00410881 0.281571 -5.3239e-20)
(0.0170126 0.248288 1.03942e-19)
(0.0415951 0.2079 5.14169e-20)
(0.0695792 0.160701 -1.38785e-19)
(0.100629 0.106548 9.11852e-20)
(0.134379 0.0453934 -1.28972e-19)
(0.170531 -0.0223832 2.88026e-19)
(0.208905 -0.0966303 -1.54341e-19)
(0.249627 -0.176958 7.31443e-20)
(0.293009 -0.262438 2.04548e-19)
(0.339088 -0.351258 -6.53001e-20)
(0.387008 -0.44023 -6.09651e-20)
(0.434828 -0.524611 -5.39963e-20)
(0.479374 -0.599102 0)
(0.518322 -0.657727 -7.12544e-20)
(0.546628 -0.698173 -5.04777e-20)
(0.568807 -0.71474 8.45187e-20)
(0.569848 -0.716312 7.47891e-20)
(0.586647 -0.684071 -6.86376e-20)
(-0.0255635 0.0870027 0)
(-0.0476558 0.204462 -1.42534e-19)
(-0.0441337 0.270654 -9.61581e-22)
(-0.0281017 0.294801 1.22183e-19)
(-0.00500561 0.291051 0)
(0.0229173 0.27052 0)
(0.054824 0.239538 0)
(0.0904528 0.200915 -5.06788e-20)
(0.129609 0.155595 -2.66565e-21)
(0.171898 0.10372 8.83881e-20)
(0.217244 0.0455857 -1.31352e-19)
(0.265716 -0.018802 -1.41003e-21)
(0.31754 -0.0896122 0)
(0.373357 -0.166666 -7.31045e-20)
(0.433626 -0.249082 6.64434e-20)
(0.49777 -0.334707 -1.86599e-19)
(0.563455 -0.419795 2.21464e-19)
(0.626751 -0.498972 3.93817e-20)
(0.682413 -0.567023 -1.49033e-20)
(0.727113 -0.617965 -1.53037e-19)
(0.754821 -0.651765 -5.80375e-20)
(0.77238 -0.66252 1.59818e-19)
(0.763939 -0.662551 -9.98453e-20)
(0.77179 -0.63391 0)
(-0.0241325 0.0680569 7.65169e-20)
(-0.0467391 0.169658 7.14527e-20)
(-0.041915 0.233981 -6.64782e-20)
(-0.0217076 0.262205 -1.23867e-19)
(0.00796412 0.263538 1.14759e-19)
(0.0440602 0.247104 -1.09475e-19)
(0.0850121 0.219056 1.52525e-19)
(0.130105 0.182719 -5.08438e-20)
(0.179007 0.139567 9.15273e-20)
(0.231805 0.0903252 0)
(0.288822 0.0352185 8.52126e-20)
(0.350565 -0.0261964 -1.56274e-19)
(0.418132 -0.0941117 1.51814e-19)
(0.492362 -0.168266 -1.41309e-19)
(0.57283 -0.247332 0)
(0.656924 -0.328381 1.20006e-19)
(0.739608 -0.406958 2.07766e-19)
(0.814457 -0.477347 -1.96023e-19)
(0.874933 -0.534876 -7.90569e-20)
(0.917537 -0.574137 -6.28173e-20)
(0.938217 -0.59689 1.78461e-19)
(0.94418 -0.596761 3.66935e-20)
(0.924676 -0.590553 -4.11603e-20)
(0.915002 -0.553739 2.65227e-20)
(-0.0215136 0.050659 -7.6536e-20)
(-0.0436704 0.133686 2.16554e-19)
(-0.0389715 0.191674 -6.69608e-20)
(-0.0169571 0.220524 1.23757e-19)
(0.0167894 0.225131 -1.14656e-19)
(0.0588121 0.21224 -1.30689e-21)
(0.107009 0.187201 4.96252e-20)
(0.160382 0.15339 1.92128e-19)
(0.218838 0.112723 3.95395e-21)
(0.283036 0.0660704 -8.55237e-20)
(0.354115 0.0133058 0)
(0.433483 -0.0457691 -7.75681e-20)
(0.522177 -0.111044 1.45533e-19)
(0.619546 -0.181604 1.36273e-19)
(0.722238 -0.255118 -6.53129e-20)
(0.82396 -0.327837 -3.06524e-21)
(0.916557 -0.395061 -5.2627e-20)
(0.992021 -0.451869 8.62016e-20)
(1.04443 -0.495027 7.90606e-20)
(1.07229 -0.521089 -6.62422e-20)
(1.07544 -0.533659 5.05594e-20)
(1.06279 -0.526644 -4.08564e-20)
(1.03016 -0.518151 0)
(1.00468 -0.481313 -2.65315e-20)
(-0.0186084 0.0363322 7.6919e-20)
(-0.0395075 0.100406 -7.23548e-20)
(-0.0356623 0.148445 6.67499e-20)
(-0.0134819 0.1741 0)
(0.0224325 0.179227 0)
(0.0687682 0.168324 1.06293e-19)
(0.123433 0.145596 -9.94897e-20)
(0.185756 0.11412 9.49514e-20)
(0.256383 0.075727 -4.44227e-19)
(0.336852 0.0310892 -1.68361e-21)
(0.428895 -0.0196104 7.86186e-20)
(0.533314 -0.0760367 0)
(0.648577 -0.137247 -1.40943e-19)
(0.769878 -0.201257 2.6117e-19)
(0.889292 -0.264906 -1.82636e-19)
(0.997087 -0.324448 -2.66739e-19)
(1.08413 -0.375917 1.17132e-20)
(1.14399 -0.416271 1.65981e-19)
(1.17459 -0.443753 0)
(1.17863 -0.457462 0)
(1.16011 -0.460961 -5.05837e-20)
(1.1301 -0.450345 4.08771e-20)
(1.08602 -0.441768 -1.17055e-19)
(1.05112 -0.409199 1.09233e-19)
(-0.016354 0.0258337 0)
(-0.0355463 0.0725579 0)
(-0.0323733 0.108524 -2.00189e-19)
(-0.010253 0.127707 6.19931e-20)
(0.0276446 0.130391 -2.42428e-23)
(0.078887 0.119356 1.05077e-19)
(0.142311 0.0976846 0)
(0.218323 0.0677975 -9.21927e-20)
(0.30848 0.0311645 8.81875e-20)
(0.414333 -0.0113311 -1.63848e-19)
(0.535783 -0.0588555 -1.13059e-21)
(0.669576 -0.110215 1.45534e-19)
(0.808727 -0.163553 -6.82678e-22)
(0.943268 -0.216363 1.20884e-19)
(1.06219 -0.265742 -1.74526e-19)
(1.15583 -0.309027 0)
(1.21836 -0.343805 1.71133e-19)
(1.24855 -0.369129 -2.39437e-19)
(1.2505 -0.384289 6.27986e-20)
(1.23077 -0.390454 0)
(1.19734 -0.389675 4.4056e-20)
(1.15937 -0.379347 1.39883e-19)
(1.11462 -0.373227 -1.30633e-19)
(1.08267 -0.344091 -1.13324e-19)
(-0.0154626 0.0191973 2.31004e-19)
(-0.0326846 0.0514172 -2.91288e-19)
(-0.0287465 0.0748572 7.3737e-22)
(-0.00466919 0.0855634 6.20798e-20)
(0.0381809 0.083509 -1.14038e-19)
(0.0990719 0.070451 -1.0576e-19)
(0.178469 0.0485333 1.97015e-19)
(0.277728 0.0195994 2.33842e-21)
(0.397636 -0.0148643 -1.71161e-19)
(0.536398 -0.0534881 3.23338e-19)
(0.688209 -0.0947889 2.66089e-21)
(0.843296 -0.13705 -1.40449e-19)
(0.989524 -0.178372 0)
(1.11492 -0.216843 0)
(1.21029 -0.250758 -5.48361e-20)
(1.27114 -0.27884 -9.0653e-20)
(1.29848 -0.300194 -1.5825e-19)
(1.29772 -0.315007 1.47549e-19)
(1.27746 -0.32297 -6.28707e-20)
(1.24514 -0.326262 9.6863e-20)
(1.20897 -0.323846 -5.38176e-20)
(1.17202 -0.317511 5.80858e-20)
(1.13494 -0.312701 -1.53066e-19)
(1.10869 -0.289176 2.39646e-20)
(-0.016085 0.0157866 7.73976e-20)
(-0.0306335 0.0367593 0)
(-0.022693 0.0486857 1.34413e-19)
(0.00838933 0.0504883 -1.24455e-19)
(0.0632905 0.042667 1.14191e-19)
(0.143231 0.0265958 0)
(0.249596 0.0039955 0)
(0.382208 -0.0233581 -9.1359e-20)
(0.537068 -0.0537303 -5.99671e-22)
(0.705207 -0.0854744 7.83102e-20)
(0.873653 -0.117111 -7.18345e-20)
(1.02809 -0.147405 1.36133e-19)
(1.15604 -0.175388 0)
(1.24947 -0.20031 2.18099e-19)
(1.30615 -0.221607 -3.96344e-19)
(1.32955 -0.23889 2.70815e-19)
(1.32705 -0.251998 1.46897e-19)
(1.30756 -0.261138 -1.36967e-19)
(1.27909 -0.266092 0)
(1.24666 -0.268536 0)
(1.21492 -0.265611 0)
(1.18173 -0.263553 0)
(1.1529 -0.255749 2.85071e-20)
(1.12694 -0.240717 -8.62896e-20)
(-0.134919 -0.818953 -3.27051e-21)
(-0.0575964 -0.74078 3.27489e-21)
(0.0307057 -0.616203 -9.44923e-23)
(0.137924 -0.451181 0)
(0.246669 -0.258596 -3.40718e-21)
(0.348544 -0.0474011 6.64602e-21)
(0.437368 0.177372 -1.25694e-22)
(0.515975 0.404751 -3.02507e-21)
(0.583823 0.600558 0)
(0.636316 0.728015 0)
(0.675104 0.779173 -8.91476e-23)
(0.69927 0.779882 -7.15613e-23)
(0.709137 0.758066 -1.05558e-21)
(0.714336 0.724515 9.65629e-22)
(0.716194 0.699899 0)
(0.704041 0.714439 0)
(0.674764 0.755999 1.23657e-21)
(0.64649 0.748187 2.86097e-22)
(0.64547 0.609576 -1.34182e-21)
(0.672392 0.33265 -1.1657e-22)
(0.713418 -0.0131505 0)
(0.758 -0.324768 0)
(0.799615 -0.528851 0)
(0.827714 -0.624841 0)
(0.839277 -0.646903 0)
(0.845381 -0.623199 0)
(0.84654 -0.602833 1.79167e-22)
(0.82498 -0.628488 -2.87389e-22)
(0.779319 -0.668447 0)
(0.719462 -0.638841 0)
(0.663282 -0.48833 -3.8113e-22)
(0.629252 -0.23856 3.70342e-22)
(0.630978 0.0468149 1.80712e-22)
(0.658327 0.282389 0)
(0.705762 0.435038 0)
(0.750305 0.506008 1.7192e-22)
(0.766933 0.54951 -1.67092e-22)
(0.734341 0.576637 0)
(0.675978 0.559904 1.72395e-22)
(0.624042 0.442696 -2.66754e-22)
(0.603683 0.217791 1.10726e-22)
(0.622046 -0.0286902 0)
(0.675768 -0.234388 -1.4086e-22)
(0.707361 -0.346908 1.36964e-22)
(0.70118 -0.445554 0)
(0.663727 -0.467593 0)
(0.645622 -0.408147 -3.90001e-23)
(0.643367 -0.258403 1.07202e-22)
(0.660832 -0.0136347 0)
(0.666344 0.172671 0)
(0.664808 0.3808 -2.59459e-23)
(0.647377 0.432839 1.31903e-24)
(0.650138 0.34172 7.4584e-25)
(0.647868 0.181782 2.9278e-23)
(0.645059 -0.140587 0)
(0.610938 -0.305503 0)
(0.608784 -0.399577 0)
(0.592282 -0.298324 0)
(0.57084 0.112145 0)
(0.540881 0.162108 0)
(-0.0878433 -0.861228 -2.9318e-22)
(-0.075907 -0.811768 -1.16257e-20)
(-0.0368342 -0.709687 1.62035e-23)
(0.0326848 -0.56305 1.08837e-20)
(0.115597 -0.374106 1.56575e-22)
(0.204304 -0.154274 0)
(0.291483 0.0800946 -1.0574e-20)
(0.377006 0.315205 1.98405e-20)
(0.457625 0.521115 -9.26959e-21)
(0.530206 0.66419 6.16713e-21)
(0.592445 0.735986 -5.89932e-21)
(0.638488 0.757098 4.05945e-21)
(0.669367 0.747703 -3.93164e-21)
(0.693704 0.720047 -1.05207e-22)
(0.710747 0.703035 -3.86582e-21)
(0.711344 0.727768 3.75438e-21)
(0.697549 0.774167 -5.13544e-21)
(0.690496 0.760523 4.81551e-21)
(0.709929 0.610545 -7.39142e-21)
(0.750385 0.322337 1.50187e-20)
(0.797854 -0.0330597 -7.59796e-21)
(0.839544 -0.351044 -4.37053e-22)
(0.869393 -0.553305 -4.92608e-21)
(0.883101 -0.639166 8.44379e-21)
(0.878757 -0.652144 -3.55419e-21)
(0.867637 -0.623281 1.43667e-22)
(0.855861 -0.594339 1.88516e-21)
(0.824358 -0.607747 1.76674e-23)
(0.76795 -0.638463 -3.56752e-21)
(0.698032 -0.607126 4.06831e-21)
(0.632936 -0.464459 -2.17677e-21)
(0.592804 -0.231682 3.15122e-22)
(0.594198 0.0343921 -1.81095e-22)
(0.628395 0.258224 2.6108e-22)
(0.686465 0.410296 0)
(0.741477 0.491492 0)
(0.764982 0.551578 -5.87987e-22)
(0.740944 0.592743 4.26233e-22)
(0.690852 0.58116 5.97422e-22)
(0.646323 0.459354 2.58374e-22)
(0.627963 0.221779 -9.96796e-22)
(0.641476 -0.0396588 2.36856e-22)
(0.691381 -0.249901 0)
(0.722888 -0.352843 0)
(0.716092 -0.439055 0)
(0.67217 -0.459823 0)
(0.652027 -0.405103 1.31798e-22)
(0.645945 -0.260733 -6.93409e-23)
(0.6602 -0.0174245 0)
(0.664154 0.171129 0)
(0.663393 0.382268 0)
(0.651988 0.434761 -5.70386e-23)
(0.655941 0.341874 -1.29151e-23)
(0.655516 0.183367 -5.36298e-23)
(0.653898 -0.136014 0)
(0.614187 -0.302336 0)
(0.60742 -0.396505 1.70245e-23)
(0.588941 -0.296218 5.33428e-24)
(0.575831 0.116646 0)
(0.54689 0.165101 0)
(0.0725808 -0.836797 -2.80807e-21)
(0.0169731 -0.821675 -2.13754e-20)
(-0.0112936 -0.758606 1.8325e-20)
(-0.00368336 -0.645246 -1.71651e-20)
(0.0381653 -0.476038 -1.57713e-22)
(0.0993 -0.266867 0)
(0.170837 -0.030794 -1.70617e-20)
(0.254764 0.206602 1.66261e-20)
(0.345249 0.419952 1.20115e-22)
(0.43566 0.578139 1.47515e-22)
(0.517834 0.672574 1.1866e-22)
(0.583386 0.716406 1.25088e-22)
(0.633998 0.72174 -6.54254e-21)
(0.676324 0.703064 6.45906e-21)
(0.707774 0.694911 0)
(0.721039 0.728213 2.26026e-22)
(0.722701 0.778008 -1.01389e-20)
(0.735019 0.761418 1.00193e-20)
(0.772378 0.608151 0)
(0.825118 0.319356 0)
(0.879192 -0.037433 -1.56705e-20)
(0.919945 -0.35793 2.85795e-20)
(0.939315 -0.559826 -2.26299e-20)
(0.938895 -0.639605 2.61127e-21)
(0.920112 -0.647441 1.2458e-20)
(0.892947 -0.617152 -9.60202e-21)
(0.868495 -0.581425 7.24619e-21)
(0.829594 -0.582442 -4.02532e-22)
(0.765326 -0.605549 -3.01528e-21)
(0.686274 -0.576635 0)
(0.613457 -0.444778 0)
(0.567385 -0.229592 1.73827e-21)
(0.567349 0.0174434 -2.24864e-21)
(0.607175 0.229081 -4.45068e-23)
(0.67373 0.380621 1.37809e-21)
(0.737602 0.472523 -1.33905e-21)
(0.768294 0.5501 0)
(0.754497 0.607355 1.45866e-22)
(0.714073 0.602657 1.87822e-21)
(0.677819 0.477933 -4.18895e-21)
(0.662945 0.230442 1.9884e-21)
(0.670188 -0.0447051 2.942e-22)
(0.712843 -0.261941 -1.82821e-21)
(0.742801 -0.357548 1.36679e-21)
(0.735806 -0.430978 2.12515e-22)
(0.684799 -0.451522 1.50477e-22)
(0.661294 -0.402358 -1.32147e-22)
(0.651147 -0.264157 0)
(0.662925 -0.0217483 0)
(0.665841 0.168911 -2.99801e-22)
(0.665905 0.382342 1.58029e-22)
(0.659719 0.43663 -1.98534e-22)
(0.664734 0.341943 3.68561e-22)
(0.665976 0.185619 5.48473e-22)
(0.666346 -0.130034 -9.25194e-23)
(0.621537 -0.298197 1.66455e-22)
(0.609774 -0.392467 -9.19723e-23)
(0.589103 -0.295571 2.13343e-24)
(0.58492 0.120043 0)
(0.556395 0.168593 0)
(0.301634 -0.745941 -3.75037e-20)
(0.216162 -0.749756 5.87499e-21)
(0.127319 -0.733199 2.96812e-20)
(0.0603442 -0.670734 -2.33497e-22)
(0.037161 -0.544274 0)
(0.0567066 -0.36727 0)
(0.101037 -0.145668 -2.3435e-20)
(0.168904 0.0841693 1.36777e-21)
(0.257787 0.30045 2.95012e-20)
(0.3548 0.472411 -1.50994e-21)
(0.448857 0.589681 -7.24367e-21)
(0.530027 0.6565 -5.24778e-21)
(0.598756 0.678528 5.22983e-21)
(0.658181 0.671622 0)
(0.703279 0.672901 -6.51674e-21)
(0.728366 0.712672 5.9015e-21)
(0.744602 0.764379 0)
(0.775016 0.748803 0)
(0.827173 0.602954 1.39578e-20)
(0.889114 0.323734 1.7493e-21)
(0.95217 -0.0304479 -1.43683e-20)
(0.997449 -0.353404 -1.33117e-20)
(1.00958 -0.555988 1.31893e-20)
(0.995273 -0.631521 -7.61307e-21)
(0.962693 -0.634951 1.98192e-21)
(0.921306 -0.605268 5.19258e-21)
(0.884517 -0.566405 4.26573e-22)
(0.839151 -0.555628 2.07898e-23)
(0.769943 -0.569475 0)
(0.68425 -0.543524 3.02637e-21)
(0.60481 -0.42541 -3.11778e-21)
(0.553142 -0.230366 2.61488e-22)
(0.550617 -0.00291176 0)
(0.593844 0.19516 -2.19492e-22)
(0.666196 0.346242 2.3286e-21)
(0.737937 0.449625 -4.09902e-21)
(0.776974 0.54358 -4.17887e-22)
(0.773592 0.615992 -6.15358e-22)
(0.742924 0.619898 2.28269e-21)
(0.716356 0.496368 4.93009e-22)
(0.707191 0.243093 -4.68508e-21)
(0.708373 -0.0439867 4.01743e-21)
(0.740677 -0.270789 -3.75228e-23)
(0.766713 -0.361961 1.07213e-21)
(0.7598 -0.421716 -1.25551e-21)
(0.701435 -0.44178 -9.64565e-22)
(0.673185 -0.399111 3.02927e-22)
(0.658808 -0.268432 2.90244e-22)
(0.668867 -0.0270533 -5.28701e-22)
(0.67119 0.16564 3.77447e-22)
(0.672039 0.381138 -2.18347e-22)
(0.670259 0.438658 5.90723e-23)
(0.676281 0.342193 2.0236e-22)
(0.678991 0.188399 -9.02194e-22)
(0.682162 -0.122974 2.29616e-23)
(0.632952 -0.29311 -1.86582e-22)
(0.6159 -0.387361 0)
(0.592594 -0.296289 -9.49136e-24)
(0.597705 0.122315 -8.34678e-23)
(0.569264 0.172464 0)
(0.524737 -0.660509 3.22726e-20)
(0.447177 -0.637174 -5.56959e-20)
(0.341662 -0.628632 2.34096e-20)
(0.228686 -0.610885 1.47067e-20)
(0.134697 -0.550626 -2.74986e-20)
(0.0920915 -0.427011 -1.68977e-22)
(0.0932028 -0.248674 1.27625e-20)
(0.131033 -0.0372959 1.20018e-20)
(0.204923 0.173289 -1.17718e-20)
(0.294822 0.354891 0)
(0.389632 0.491747 -7.44858e-21)
(0.479804 0.579605 1.41403e-20)
(0.563025 0.619385 -6.77321e-21)
(0.636836 0.626949 0)
(0.692847 0.639451 0)
(0.727516 0.685202 2.00635e-22)
(0.757311 0.737998 -1.66231e-20)
(0.804694 0.72656 1.61381e-20)
(0.869812 0.594272 0)
(0.941234 0.331092 2.94426e-20)
(1.01509 -0.0142248 -5.63057e-20)
(1.06792 -0.335072 5.25626e-20)
(1.07625 -0.537426 -4.43579e-20)
(1.04964 -0.611956 4.61826e-21)
(1.00462 -0.613922 2.45635e-20)
(0.951346 -0.586689 -1.02774e-20)
(0.903914 -0.548257 -2.07867e-22)
(0.85392 -0.528619 -2.18866e-21)
(0.782234 -0.533657 1.21638e-22)
(0.692044 -0.511015 2.10324e-21)
(0.607114 -0.407426 1.80114e-22)
(0.549967 -0.233291 -2.96341e-21)
(0.542986 -0.0265624 5.64211e-21)
(0.586717 0.157518 -2.95835e-21)
(0.662718 0.307199 0)
(0.741477 0.420274 -2.00694e-21)
(0.789036 0.530725 1.95419e-21)
(0.797022 0.620989 -2.47244e-21)
(0.778407 0.635402 3.05494e-21)
(0.761933 0.515679 -5.46589e-22)
(0.759107 0.260226 0)
(0.755004 -0.0362572 -6.30353e-22)
(0.774656 -0.274582 1.46083e-21)
(0.794086 -0.365133 0)
(0.7875 -0.411155 1.91945e-21)
(0.721889 -0.430384 -8.63222e-22)
(0.687423 -0.395122 2.06913e-22)
(0.668673 -0.273465 1.00442e-22)
(0.677684 -0.0337388 0)
(0.679966 0.161203 0)
(0.68164 0.378247 -4.2812e-22)
(0.683397 0.440339 9.83254e-22)
(0.690286 0.342458 -7.60685e-22)
(0.694305 0.191435 3.52332e-22)
(0.701059 -0.114937 6.42088e-22)
(0.648312 -0.287019 1.86782e-22)
(0.625816 -0.381148 -2.06328e-22)
(0.599176 -0.29822 0)
(0.613719 0.123316 1.05204e-22)
(0.585354 0.176622 2.62135e-23)
(0.705613 -0.61314 2.93953e-20)
(0.638173 -0.564067 -2.89982e-20)
(0.557505 -0.512843 1.44908e-22)
(0.448603 -0.486569 -6.99034e-23)
(0.320845 -0.471409 7.5695e-23)
(0.215001 -0.417452 -6.59719e-23)
(0.154707 -0.30892 9.10004e-24)
(0.146629 -0.14038 0)
(0.189169 0.0503487 -7.63821e-24)
(0.263887 0.231546 5.40827e-24)
(0.352975 0.380703 3.76062e-24)
(0.446556 0.486281 -7.43276e-23)
(0.538936 0.544552 0)
(0.621749 0.569283 0)
(0.683225 0.594595 8.34696e-23)
(0.72279 0.645135 0)
(0.76259 0.697876 -1.60275e-22)
(0.823045 0.693764 0)
(0.897892 0.581436 -2.1861e-20)
(0.979008 0.339458 4.6908e-20)
(1.06649 0.00665862 -5.0901e-20)
(1.1302 -0.308994 2.57071e-20)
(1.13811 -0.509853 1.85781e-20)
(1.10141 -0.584841 -1.80329e-20)
(1.04555 -0.587037 -1.01761e-20)
(0.982654 -0.562832 9.78687e-21)
(0.925256 -0.527364 0)
(0.871574 -0.502249 1.28391e-22)
(0.800606 -0.498505 0)
(0.708773 -0.478 0)
(0.619371 -0.389157 3.82573e-21)
(0.556591 -0.236418 -3.89665e-21)
(0.543171 -0.0517748 2.36073e-22)
(0.584623 0.117095 2.77544e-22)
(0.661943 0.263565 -1.60013e-22)
(0.746863 0.385885 -1.43009e-21)
(0.803805 0.510847 1.38838e-21)
(0.823117 0.616427 -2.92194e-21)
(0.815359 0.64424 2.57323e-21)
(0.80892 0.533693 1.10771e-21)
(0.814681 0.280666 -5.37681e-21)
(0.807996 -0.0215057 -2.35525e-22)
(0.814259 -0.272737 3.61192e-21)
(0.824338 -0.367078 0)
(0.818123 -0.39967 -8.95487e-22)
(0.74601 -0.416919 6.19346e-22)
(0.703725 -0.389811 -8.74423e-22)
(0.680418 -0.279033 -1.01114e-22)
(0.688975 -0.0419708 0)
(0.691873 0.155135 9.7026e-23)
(0.694304 0.373978 -1.08102e-22)
(0.698716 0.442432 -3.97797e-24)
(0.706373 0.343109 -3.16148e-22)
(0.711666 0.194636 7.69091e-22)
(0.72273 -0.106172 -6.99046e-22)
(0.667417 -0.279983 0)
(0.63953 -0.373762 2.06449e-22)
(0.608603 -0.301167 0)
(0.632438 0.122988 0)
(0.604466 0.180998 -3.54475e-23)
(0.843839 -0.546528 -2.84681e-20)
(0.771772 -0.518969 2.79007e-20)
(0.704854 -0.461913 -1.20628e-22)