/*--------------------------------*- C++ -*----------------------------------*\
| =========                 |                                                 |
| \\      /  F ield         | OpenFOAM: The Open Source CFD Toolbox           |
|  \\    /   O peration     | Version:  2312                                  |
|   \\  /    A nd           | Website:  www.openfoam.com                      |
|    \\/     M anipulation  |                                                 |
\*---------------------------------------------------------------------------*/
FoamFile
{
    version     2.0;
    format      ascii;
    arch        "LSB;label=32;scalar=64";
    class       surfaceScalarField;
    location    "53.5";
    object      phi;
}
// * * * * * * * * * * * * * * * * * * * * * * * * * * * * * * * * * * * * * //

dimensions      [0 3 -1 0 0 0 0];

oriented        oriented;

internalField   nonuniform List<scalar> 
10785
(
-7.459e-05
0.0035528
-0.00347821
0.000470196
0.00480179
-0.00534658
0.00323053
0.00155419
-0.00431452
0.0102598
-0.00669739
-0.000331862
0.0234377
-0.0205684
0.00739048
0.0434668
-0.0394034
0.0193743
0.0693556
-0.0611104
0.0352216
0.0989217
-0.0831541
0.053588
0.129405
-0.103349
0.0728656
0.158574
-0.12031
0.0911405
0.184692
-0.133793
0.107675
0.20682
-0.143542
0.121415
0.225117
-0.151076
0.132778
0.239814
-0.15626
0.141563
-0.161067
0.150187
0.250694
0.000298303
0.0032545
0.00241175
0.00268835
0.0085858
-0.00461986
0.0213751
-0.0194866
0.0418149
-0.0410082
0.0682961
-0.0658846
0.0974765
-0.0902908
0.125754
-0.111432
0.150393
-0.127988
0.170127
-0.140044
0.18476
-0.148426
0.195764
-0.154546
0.204639
-0.159952
0.213467
-0.165087
-0.171778
0.224178
0.000615083
0.00263942
0.00470075
-0.00139732
0.0154571
-0.0153762
0.0347624
-0.0387919
0.0605931
-0.066839
0.0883617
-0.0936532
0.113635
-0.115564
0.133726
-0.131522
0.148124
-0.142386
0.157999
-0.149919
0.16555
-0.155977
0.172973
-0.161969
0.181545
-0.168524
0.191987
-0.175529
-0.183797
0.204006
0.00116863
0.00147078
0.00813523
-0.00836391
0.0243994
-0.0316404
0.0484468
-0.0628393
0.0744138
-0.092806
0.0969748
-0.116214
0.113649
-0.132239
0.124809
-0.142682
0.132504
-0.150081
0.139077
-0.156491
0.146056
-0.162956
0.153875
-0.169788
0.162157
-0.176806
0.170784
-0.184156
-0.191883
0.178869
0.00215141
-0.000680627
0.0129926
-0.0192051
0.0337266
-0.0523744
0.0577804
-0.0868931
0.0784703
-0.113496
0.0931504
-0.130894
0.10267
-0.141758
0.109314
-0.149326
0.115044
-0.155811
0.120717
-0.162165
0.126412
-0.16865
0.131982
-0.175358
0.137591
-0.182415
0.143554
-0.190119
-0.198375
0.150046
0.00361516
-0.00429579
0.0183557
-0.0339456
0.040004
-0.0740227
0.059687
-0.106576
0.0735955
-0.127404
0.0823726
-0.139672
0.0881739
-0.14756
0.0926961
-0.153849
0.0967032
-0.159818
0.100496
-0.165957
0.104319
-0.172473
0.108449
-0.179488
0.113079
-0.187045
0.118112
-0.195152
-0.203611
0.123348
0.0054965
-0.00979229
0.0224646
-0.0509137
0.041333
-0.0928911
0.0553609
-0.120604
0.0639812
-0.136025
0.0690709
-0.144761
0.0724032
-0.150892
0.0750039
-0.156449
0.0774101
-0.162224
0.079891
-0.168438
0.0825284
-0.175111
0.0852737
-0.182233
0.0880288
-0.1898
0.0907761
-0.197899
-0.206296
0.0934609
0.00735093
-0.0171432
0.0239461
-0.0675089
0.038462
-0.107407
0.0475226
-0.129665
0.0522818
-0.140784
0.0547061
-0.147185
0.0561546
-0.152341
0.0572945
-0.157589
0.0583306
-0.16326
0.0592754
-0.169383
0.0601327
-0.175968
0.0609689
-0.183069
0.0619413
-0.190773
0.063046
-0.199004
0.0643752
-0.207625
-0.000944873
-0.00853976
0.00948463
-0.00355982
-0.0178858
0.0205008
-0.00749354
-0.0223085
0.0262422
-0.0123295
-0.0246276
0.0294635
-0.0177761
-0.0268233
0.03227
-0.0236556
-0.0295644
0.0354439
-0.0298044
-0.0327163
0.038865
-0.0359938
-0.0358769
0.0420663
-0.0419061
-0.0385307
0.044443
-0.0471478
-0.040045
0.0452867
-0.0512751
-0.0396988
0.0438261
-0.0537695
-0.0367786
0.0392731
-0.0539143
-0.0305968
0.0307416
-0.0514171
-0.0204211
0.017924
-0.00535466
-0.0455176
-0.000544821
-0.00171058
-0.00682918
-0.00545775
-0.0141386
-0.0105115
-0.0172547
-0.0164911
-0.0186481
-0.02325
-0.0200643
-0.0307336
-0.0220809
-0.038864
-0.0245858
-0.0474783
-0.0272626
-0.0562959
-0.0297131
-0.0649141
-0.0314268
-0.072833
-0.0317799
-0.0793941
-0.0302175
-0.0837757
-0.0262153
-0.0857237
-0.0184731
-0.00825189
-0.0828265
-0.00214329
-0.00468589
-0.00643216
-0.00984977
-0.0118837
-0.0118031
-0.0181004
-0.0124314
-0.024967
-0.0131977
-0.0324265
-0.0146214
-0.0403647
-0.0166476
-0.0485786
-0.0190487
-0.0567563
-0.0215354
-0.0644401
-0.0237429
-0.0711848
-0.0250353
-0.0763126
-0.0250897
-0.0782335
-0.0242943
-0.0784612
-0.0182453
-0.0142605
-0.0724526
-0.00227128
-0.00241461
-0.00663346
-0.00548759
-0.0119587
-0.00647787
-0.0177938
-0.00659637
-0.0239801
-0.0070114
-0.0303749
-0.00822662
-0.0367276
-0.0102949
-0.0426647
-0.0131116
-0.0477359
-0.0164642
-0.051383
-0.0200959
-0.0527744
-0.0236439
-0.0524166
-0.0254475
-0.0467462
-0.0299647
-0.0395651
-0.0254263
-0.029324
-0.0245016
-0.00215739
-0.000257217
-0.00623648
-0.0014085
-0.0110445
-0.00166984
-0.0160306
-0.00161027
-0.0209065
-0.00213552
-0.0253512
-0.00378187
-0.0288748
-0.00677134
-0.0308258
-0.0111606
-0.030482
-0.016808
-0.027328
-0.0232499
-0.0205328
-0.030439
-0.0100294
-0.035951
0.00484179
-0.0448359
0.0241132
-0.0446978
-0.0558762
0.0506654
-0.00182791
0.00157069
-0.00525828
0.00202187
-0.00907715
0.00214903
-0.012542
0.00185461
-0.0150372
0.00035965
-0.015932
-0.00288703
-0.0143668
-0.00833657
-0.00947516
-0.0160523
-0.00054598
-0.0257371
0.012989
-0.0367849
0.0308104
-0.0482605
0.0533527
-0.0584932
0.0802248
-0.071708
0.11047
-0.0749432
-0.0915018
0.146096
-0.00127798
0.00284868
-0.00363833
0.00438222
-0.00582625
0.00433695
-0.00678152
0.00280988
-0.00550589
-0.000915984
-0.0008432
-0.00754972
0.00830075
-0.0174805
0.0225392
-0.0302907
0.0419905
-0.0451885
0.0661135
-0.0609079
0.0942414
-0.0763884
0.125868
-0.0901203
0.158288
-0.104128
0.195729
-0.112385
-0.12573
0.229957
-0.000629536
-0.00159389
-0.00157147
0.000906549
0.00738104
0.0192057
0.0369467
0.060244
0.0879212
0.118154
0.14944
0.180735
0.209386
0.238564
0.263021
-0.0280867
0.0150242
-0.0324552
-0.00769749
0.0581899
-0.0785791
0.0141271
0.104889
-0.126714
0.0324921
0.153508
-0.171873
0.0435305
0.196967
-0.208005
0.0475469
0.231598
-0.235614
0.0524468
0.252866
-0.257766
0.0715181
0.240362
-0.259433
0.107873
0.158153
-0.194508
0.152354
0.010024
-0.0545051
0.18752
-0.13526
0.100094
0.207104
-0.23528
0.215696
0.221503
-0.273644
0.259245
0.227675
-0.266759
0.260588
0.214655
-0.298352
0.311372
0.196245
-0.36411
0.38252
0.193996
-0.325593
0.327842
0.205956
-0.123747
0.111787
0.223601
0.124369
-0.142014
0.24249
0.283267
-0.302155
0.245313
0.340618
-0.343441
0.222006
0.403084
-0.379777
0.188558
0.469298
-0.43585
0.173849
0.396515
-0.381806
0.18166
0.135974
-0.143785
0.192354
-0.14268
0.131986
0.189269
-0.351604
0.354689
0.173302
-0.471897
0.487864
0.164067
-0.461374
0.470609
0.173958
-0.26268
0.252789
0.193935
-0.00502039
-0.0149567
0.208809
0.206762
-0.221636
0.210705
0.322884
-0.32478
0.203833
0.396723
-0.389851
0.201957
0.33493
-0.333054
0.209812
0.199411
-0.207265
0.219502
0.0171677
-0.0268578
-0.143579
0.139254
-0.0681324
0.000330047
-0.0477677
0.0378253
-0.0247598
0.0818812
-0.000480863
0.129229
0.0236192
0.172867
0.0479882
0.207229
0.0778294
0.223025
0.113723
0.204468
0.150628
0.121247
0.184045
-0.023393
0.208107
-0.159322
0.215804
-0.242977
0.218133
-0.275972
0.217784
-0.26641
0.199174
-0.279743
0.170579
-0.335514
0.162738
-0.317753
0.179089
-0.140097
0.209269
0.0941879
0.239397
0.253139
0.248919
0.331097
0.227101
0.424902
0.195091
0.501307
0.180663
0.410943
0.184155
0.132482
0.191051
-0.149575
0.187687
-0.34824
0.173837
-0.458047
0.165199
-0.452736
0.174878
-0.27236
0.195482
-0.0256238
0.209658
0.192586
0.209865
0.322678
0.202771
0.403817
0.202315
0.335386
0.211874
0.189851
0.222389
0.00665318
-0.147921
-0.0619108
-0.0102118
-0.0443973
0.0203118
-0.0220602
0.0595441
0.00667129
0.100497
0.0401014
0.139436
0.0793268
0.168003
0.124279
0.178073
0.166618
0.162129
0.196962
0.0909028
0.216844
-0.0432742
0.228321
-0.1708
0.225953
-0.240608
0.217039
-0.267059
0.210554
-0.259925
0.189527
-0.258716
0.152625
-0.298612
0.134722
-0.29985
0.153052
-0.158428
0.194969
0.0522713
0.237103
0.211004
0.253263
0.314937
0.237223
0.440942
0.20944
0.52909
0.192601
0.427783
0.189626
0.135457
0.191706
-0.151656
0.186437
-0.342972
0.174437
-0.446047
0.167629
-0.445927
0.177109
-0.281839
0.197335
-0.0458498
0.210249
0.179672
0.208783
0.324143
0.201764
0.410836
0.202875
0.334274
0.214186
0.17854
0.225484
-0.00464427
-0.152326
-0.0182465
-0.0164669
-0.0043726
0.00643787
0.0180441
0.0371274
0.0471969
0.0713443
0.0813308
0.105303
0.123271
0.126064
0.170162
0.131181
0.210604
0.121688
0.236394
0.0651121
0.246198
-0.0530781
0.245924
-0.170525
0.234745
-0.229429
0.216903
-0.249217
0.204682
-0.247703
0.185018
-0.239052
0.146265
-0.259859
0.117564
-0.271149
0.131757
-0.172621
0.181637
0.0023912
0.234361
0.158281
0.258457
0.290841
0.248021
0.451378
0.22336
0.553751
0.204126
0.447017
0.195544
0.144039
0.193524
-0.149636
0.186121
-0.335569
0.174978
-0.434904
0.170609
-0.441558
0.180312
-0.291542
0.199363
-0.0649004
0.210492
0.168543
0.20744
0.327194
0.200779
0.417497
0.203636
0.331418
0.216725
0.165451
0.228776
-0.0166952
-0.156831
0.0491573
-0.0149589
0.0561205
-0.000525366
0.0723228
0.0209252
0.0968961
0.046771
0.127219
0.0749792
0.164492
0.0887915
0.204287
0.0913861
0.237772
0.088203
0.26101
0.0418734
0.267213
-0.059281
0.255755
-0.159067
0.236416
-0.21009
0.213705
-0.226507
0.197458
-0.231456
0.181881
-0.223476
0.148576
-0.226554
0.11448
-0.237054
0.11931
-0.17745
0.168684
-0.0469832
0.229498
0.0974661
0.264662
0.255678
0.264348
0.451691
0.243415
0.574684
0.21893
0.471502
0.201863
0.161106
0.195565
-0.143337
0.186073
-0.326077
0.17458
-0.423411
0.172673
-0.439651
0.183449
-0.302318
0.201143
-0.0825942
0.210329
0.159357
0.205995
0.331528
0.199949
0.423543
0.20463
0.326736
0.219478
0.150604
0.232232
-0.0294494
-0.161481
0.136791
-0.00565381
0.131648
0.00461742
0.13529
0.0172832
0.148983
0.0330776
0.170092
0.0538705
0.197451
0.061433
0.227507
0.06133
0.255281
0.0604282
0.276731
0.0204238
0.279778
-0.0623282
0.260664
-0.139953
0.234964
-0.184389
0.209149
-0.200692
0.18882
-0.211126
0.176236
-0.210893
0.152691
-0.203008
0.121425
-0.205789
0.11781
-0.173834
0.159564
-0.0887375
0.221211
0.0358186
0.263746
0.213143
0.27523
0.440207
0.26112
0.588794
0.23245
0.500172
0.208378
0.185178
0.197789
-0.132748
0.186616
-0.314904
0.173626
-0.41042
0.172969
-0.438994
0.185532
-0.314882
0.202356
-0.0994182
0.209772
0.151941
0.204297
0.337002
0.199095
0.428746
0.205784
0.320047
0.222402
0.133986
0.235813
-0.0428603
-0.166322
0.218775
0.00552885
0.211334
0.0120585
0.208206
0.0204105
0.21166
0.0296238
0.223153
0.042378
0.238069
0.046517
0.255697
0.0437016
0.275349
0.0407761
0.287704
0.00806907
0.282483
-0.0571068
0.256171
-0.113641
0.22675
-0.154968
0.202161
-0.176103
0.179253
-0.188218
0.167016
-0.198656
0.152834
-0.188826
0.128412
-0.181367
0.120574
-0.165996
0.150544
-0.118707
0.208951
-0.0225883
0.262802
0.159292
0.286906
0.416103
0.278251
0.59745
0.245173
0.53325
0.21312
0.217231
0.197989
-0.117618
0.186173
-0.303088
0.171861
-0.396108
0.171099
-0.438233
0.185548
-0.329331
0.202414
-0.116284
0.208503
0.145852
0.20243
0.343076
0.198462
0.432713
0.207174
0.311336
0.225478
0.115683
0.239473
-0.056855
-0.171406
0.256514
0.0120361
0.252178
0.0163939
0.250672
0.0219169
0.253078
0.0272182
0.260737
0.0347185
0.26888
0.0383744
0.277302
0.0352798
0.28827
0.0298081
0.291603
0.00473579
0.276986
-0.0424902
0.248352
-0.0850069
0.217137
-0.123753
0.194742
-0.153708
0.171433
-0.16491
0.155976
-0.183199
0.148776
-0.181625
0.130645
-0.163236
0.119523
-0.154874
0.139876
-0.13906
0.189463
-0.0721759
0.247473
0.101282
0.288318
0.375258
0.294471
0.591296
0.262943
0.564779
0.222566
0.257608
0.200993
-0.0960441
0.186654
-0.28875
0.170723
-0.380177
0.168271
-0.435781
0.183469
-0.344529
0.200855
-0.13367
0.206856
0.139851
0.200525
0.349406
0.197671
0.435567
0.208601
0.300405
0.228647
0.0956367
0.243164
-0.0713713
-0.176804
0.290789
0.0161303
-0.294884
0.288783
0.0184004
0.288979
0.0217209
0.290267
0.0259302
0.295196
0.0297895
0.302243
0.0313273
0.310498
0.027025
0.323617
0.0166889
0.33173
-0.00337708
0.329798
-0.0405586
0.319365
-0.0745737
0.300954
-0.105343
0.285587
-0.138341
0.265219
-0.144541
0.241174
-0.159154
0.228543
-0.168994
0.205169
-0.139863
0.176259
-0.125964
0.174226
-0.137027
0.193967
-0.0919166
0.209668
0.0855809
0.215694
0.369232
0.217478
0.589513
0.220906
0.561351
0.23177
0.246743
0.241763
-0.106037
0.239411
-0.286397
0.223137
-0.363903
0.210316
-0.42296
0.207374
-0.341586
0.204113
-0.13041
0.193784
0.15018
0.181543
0.361647
0.183492
0.433618
0.201769
0.282129
0.224025
0.0733807
0.235941
-0.0832873
-0.177735
0.316705
0.0183695
-0.318944
0.315865
0.0192404
0.317183
0.0204032
0.320034
0.0230789
0.325673
0.0241511
0.333088
0.0239121
0.340267
0.0198461
0.349028
0.00792832
0.352977
-0.00732656
0.348281
-0.0358621
0.339164
-0.0654572
0.322021
-0.0881996
0.303187
-0.119506
0.28441
-0.125764
0.258897
-0.133641
0.243721
-0.153818
0.227196
-0.123337
0.198849
-0.0976172
0.189692
-0.12787
0.205905
-0.108129
0.226795
0.0646913
0.241275
0.354752
0.249107
0.581681
0.257056
0.553402
0.269994
0.233805
0.277557
-0.1136
0.271772
-0.280612
0.251511
-0.343643
0.235553
-0.407001
0.231418
-0.337452
0.225752
-0.124744
0.211943
0.16399
0.198269
0.375322
0.2036
0.428287
0.226366
0.259363
0.251204
0.0485428
0.263048
-0.095131
-0.177629
0.345964
0.0196942
-0.347289
0.345486
0.0197181
0.34664
0.0192494
0.349392
0.0203273
0.353811
0.0197313
0.359897
0.0178266
0.365816
0.0139271
0.371351
0.00239341
0.373768
-0.00974426
0.369549
-0.0316423
0.361472
-0.0573811
0.347075
-0.0738025
0.329314
-0.101745
0.314613
-0.111063
0.292743
-0.111772
0.276143
-0.137217
0.265181
-0.112376
0.234687
-0.0671226
0.210571
-0.103755
0.219984
-0.117542
0.245015
0.0396603
0.268162
0.331604
0.283602
0.566241
0.299127
0.537877
0.314156
0.218775
0.317967
-0.117411
0.309411
-0.272057
0.285867
-0.320099
0.264511
-0.385645
0.257205
-0.330145
0.248944
-0.116484
0.231557
0.181377
0.217288
0.38959
0.227517
0.418057
0.255487
0.231394
0.28261
0.0214191
0.293733
-0.106254
-0.176059
0.377241
0.0202309
-0.377778
0.377356
0.019603
0.378373
0.018233
0.380737
0.017963
0.384126
0.0163424
0.388644
0.0133087
0.393122
0.00944916
0.396198
-0.000682485
0.397539
-0.011085
0.393613
-0.0277162
0.385192
-0.0489604
0.373072
-0.061683
0.355842
-0.0845152
0.340708
-0.0959289
0.320583
-0.0916465
0.29892
-0.115555
0.29246
-0.105916
0.273627
-0.048289
0.242717
-0.0728453
0.242145
-0.11697
0.268135
0.0136702
0.294095
0.305644
0.316944
0.543393
0.343988
0.510833
0.365071
0.197693
0.364292
-0.116632
0.349318
-0.257083
0.321985
-0.292766
0.295075
-0.358735
0.283669
-0.318739
0.271996
-0.10481
0.251253
0.20212
0.238595
0.402248
0.256325
0.400327
0.290221
0.197498
0.31894
-0.00730001
0.328394
-0.115707
-0.17253
0.410259
0.0199156
-0.409943
0.410937
0.0189248
0.411968
0.0172015
0.41398
0.0159517
0.416524
0.0137981
0.419477
0.0103553
0.422621
0.00630498
0.424077
-0.00213834
0.424115
-0.0111222
0.420285
-0.0238868
0.412092
-0.0407677
0.402018
-0.0516084
0.387019
-0.0695164
0.37141
-0.08032
0.356827
-0.0770636
0.33463
-0.0933575
0.321163
-0.0924497
0.313156
-0.040282
0.287994
-0.0476824
0.27604
-0.105016
0.302235
-0.0125244
0.332537
0.275341
0.358232
0.517698
0.393073
0.475992
0.419356
0.171409
0.414615
-0.111891
0.39345
-0.235918
0.364009
-0.263325
0.329971
-0.324697
0.310869
-0.299637
0.295671
-0.089612
0.272481
0.22531
0.264256
0.410473
0.292108
0.372476
0.331898
0.157708
0.360798
-0.0362008
0.367343
-0.122252
-0.166495
0.44531
0.0190794
-0.444474
0.446318
0.0179167
0.447409
0.0161103
0.448978
0.0143833
0.450865
0.0119106
0.452735
0.00848533
0.454651
0.00438912
0.45502
-0.00250689
0.45401
-0.0101129
0.450276
-0.0201519
0.442824
-0.0333166
0.433319
-0.0421031
0.41995
-0.056147
0.404103
-0.0644735
0.39052
-0.0634803
0.37253
-0.0753673
0.354277
-0.0741968
0.348758
-0.034763
0.33677
-0.0356949
0.317482
-0.085728
0.326435
-0.0214778
0.356856
0.244921
0.391234
0.48332
0.441441
0.425785
0.476576
0.136274
0.468622
-0.103937
0.437571
-0.204867
0.405603
-0.231357
0.367001
-0.286095
0.33634
-0.268976
0.316134
-0.0694061
0.295141
0.246302
0.296439
0.409176
0.337026
0.331889
0.381637
0.113096
0.408532
-0.0630952
0.410708
-0.124428
-0.157445
0.482861
0.0179283
-0.48171
0.48403
0.0167478
0.485141
0.0149986
0.486417
0.0131077
0.48775
0.0105777
0.488822
0.00741316
0.4897
0.00351157
0.489234
-0.00204078
0.487581
-0.00846019
0.483684
-0.0162548
0.47664
-0.0262725
0.467956
-0.0334193
0.456059
-0.0442497
0.442396
-0.0508111
0.429416
-0.0505004
0.413397
-0.0593475
0.395383
-0.0561827
0.387128
-0.0265082
0.380353
-0.0289203
0.354728
-0.0601025
0.337091
-0.00384125
0.358192
0.22382
0.420827
0.420684
0.497886
0.348726
0.536039
0.0981216
0.523182
-0.0910795
0.485884
-0.167569
0.451321
-0.196794
0.410293
-0.245068
0.362902
-0.221584
0.328796
-0.0353007
0.31366
0.261439
0.335561
0.387275
0.393146
0.274304
0.440186
0.0660564
0.461998
-0.0849068
0.45833
-0.12076
-0.145051
0.523493
0.0166043
-0.522169
0.524714
0.0155273
0.525787
0.013925
0.526776
0.0121192
0.527603
0.00975058
0.528084
0.00693186
0.528163
0.00343248
0.527158
-0.00103483
0.524986
-0.00628916
0.521021
-0.0122893
0.514651
-0.0199029
0.506877
-0.0256449
0.496152
-0.0335242
0.483957
-0.0386165
0.472016
-0.0385591
0.456728
-0.0440599
0.441575
-0.0410293
0.433044
-0.0179781
0.423601
-0.0194769
0.395373
-0.0318742
0.365505
0.026026
0.388713
0.200612
0.47972
0.329678
0.568185
0.26026
0.595856
0.0704512
0.574342
-0.0695659
0.532855
-0.126081
0.493118
-0.157057
0.451293
-0.203243
0.393797
-0.164088
0.346418
0.0120784
0.342838
0.265018
0.393564
0.336548
0.465034
0.202835
0.507554
0.0235357
0.520178
-0.0975302
0.509659
-0.110241
-0.129405
0.567659
0.0153005
-0.566355
0.568815
0.0143708
0.569758
0.0129828
0.570505
0.0113716
0.570973
0.00928313
0.571035
0.00686945
0.570584
0.00388363
0.569216
0.000332771
0.566797
-0.00386957
0.562926
-0.00841861
0.557126
-0.014103
0.550005
-0.0185242
0.540566
-0.0240849
0.529744
-0.0277945
0.519262
-0.0280774
0.505568
-0.0303658
0.492313
-0.0277738
0.484789
-0.0104542
0.473179
-0.0078674
0.447888
-0.00658299
0.427838
0.0460761
0.464372
0.164078
0.558003
0.236047
0.631346
0.186917
0.644093
0.0577046
0.618623
-0.0440962
0.582337
-0.089795
0.542656
-0.117377
0.498295
-0.158882
0.442959
-0.108751
0.399895
0.0551418
0.415833
0.249081
0.484709
0.267672
0.552252
0.135291
0.580013
-0.00422515
0.58055
-0.0980673
0.563838
-0.0935295
-0.111317
0.615853
0.0140911
-0.614643
0.616902
0.0133215
0.617717
0.0121676
0.618278
0.0108106
0.618494
0.00906701
0.618272
0.00709172
0.617504
0.00465137
0.615923
0.00191383
0.613437
-0.00138273
0.609733
-0.00471539
0.604531
-0.00890059
0.598158
-0.0121508
0.590072
-0.0159993
0.580735
-0.0184578
0.571428
-0.0187701
0.559894
-0.0188323
0.548534
-0.0164135
0.54179
-0.0037102
0.531769
0.00215338
0.513919
0.0112677
0.509157
0.0508378
0.549728
0.123507
0.623943
0.161832
0.677018
0.133842
0.683658
0.051065
0.660468
-0.0209066
0.630678
-0.0600046
0.595253
-0.0819519
0.550707
-0.114336
0.506201
-0.0642454
0.48834
0.0730031
0.526819
0.210602
0.593257
0.201234
0.640207
0.0883413
0.649465
-0.0134824
0.640303
-0.0889059
0.620434
-0.0736606
-0.092205
0.668758
0.0129884
-0.667656
0.669684
0.0123956
0.670368
0.0114841
0.670767
0.0104112
0.670815
0.00901863
0.670421
0.00748581
0.669503
0.00557018
0.66788
0.00353645
0.665495
0.00100252
0.662139
-0.00135931
0.657592
-0.00435356
0.652052
-0.00661121
0.645236
-0.00918316
0.637361
-0.0105834
0.629368
-0.0107772
0.620132
-0.00959579
0.611012
-0.00729327
0.605072
0.00223001
0.598088
0.00913718
0.588854
0.0205019
0.592768
0.0469239
0.626638
0.0896364
0.678264
0.110206
0.715768
0.0963374
0.722525
0.0443085
0.706131
-0.00451255
0.683308
-0.0371814
0.653969
-0.0526133
0.613473
-0.07384
0.580851
-0.031623
0.585245
0.0686087
0.634137
0.161711
0.686465
0.148906
0.713802
0.0610043
0.712036
-0.0117166
0.699711
-0.0765812
0.680345
-0.0542941
-0.0734179
0.727119
0.0120149
-0.726146
0.727923
0.011592
0.7285
0.0109066
0.728805
0.0101069
0.72878
0.00904352
0.72835
0.0079154
0.727453
0.00646687
0.725967
0.00502311
0.72379
0.00317895
0.720863
0.00156826
0.717013
-0.00050397
0.712357
-0.00195495
0.706798
-0.00362464
0.700427
-0.00421206
0.693902
-0.00425219
0.686778
-0.00247133
0.679837
-0.000352864
0.675183
0.0068838
0.671175
0.0131453
0.668102
0.0235747
0.675031
0.0399954
0.699766
0.0649015
0.73443
0.0755422
0.761488
0.0692791
0.768822
0.0369744
0.758229
0.00607998
0.740935
-0.0198874
0.717961
-0.0296393
0.686146
-0.0420241
0.66371
-0.00918739
0.675664
0.0566546
0.719863
0.117511
0.758707
0.110061
0.776529
0.0431828
0.772533
-0.00772084
0.761758
-0.0658062
0.745027
-0.0375634
-0.0556955
0.791698
0.0111387
-0.790822
0.792421
0.0108688
0.792941
0.010386
0.793212
0.00983658
0.793189
0.00906639
0.792813
0.00829127
0.79203
0.00724989
0.79076
0.00629324
0.788939
0.00499949
0.786535
0.00397224
0.78346
0.002571
0.779747
0.00175852
0.775417
0.000705108
0.770503
0.000701808
0.765469
0.000782141
0.760281
0.00271662
0.755417
0.00451117
0.752272
0.0100291
0.750532
0.0148855
0.750793
0.0233136
0.757842
0.0329463
0.775107
0.0476367
0.798099
0.0525498
0.817072
0.0503059
0.823978
0.0300689
0.818202
0.011856
0.805926
-0.00761179
0.788798
-0.0125113
0.76618
-0.0194061
0.751917
0.00507631
0.762782
0.0457896
0.796363
0.0839296
0.825264
0.0811609
0.839697
0.0287494
0.836956
-0.00497981
0.828918
-0.0577678
0.81584
-0.0244857
-0.0396365
0.863615
0.0103278
-0.862804
0.864302
0.0101817
0.864822
0.00986613
0.865137
0.00952161
0.865209
0.00899427
0.864995
0.00850556
0.86445
0.00779514
0.863529
0.00721352
0.862177
0.00635201
0.86037
0.00577883
0.858051
0.00488982
0.855254
0.00455578
0.852012
0.00394684
0.848404
0.00430997
0.844722
0.00446433
0.841156
0.0062827
0.838003
0.00766417
0.836201
0.0118316
0.835926
0.0151603
0.837696
0.0215435
0.843884
0.0267584
0.855947
0.0355731
0.871363
0.037134
0.884702
0.0369674
0.890623
0.0241475
0.887842
0.0146372
0.87956
0.000670183
0.8676
-0.000551706
0.852611
-0.00441743
0.844144
0.0135435
0.852217
0.0377168
0.87643
0.059717
0.897707
0.0598838
0.909682
0.0167736
0.908094
-0.00339146
0.902945
-0.0526184
0.893539
-0.01508
-0.0253798
0.94356
0.00952742
-0.94276
0.944249
0.00949273
0.944801
0.00931469
0.945186
0.00913692
0.945376
0.00880385
0.945343
0.0085383
0.945057
0.00808117
0.94449
0.00778052
0.94361
0.00723197
0.942405
0.00698361
0.940864
0.00643141
0.939
0.00641932
0.936881
0.00606651
0.934553
0.00663712
0.932228
0.00678936
0.93007
0.00844079
0.928344
0.00939046
0.927579
0.0125961
0.928144
0.0145956
0.930396
0.0192914
0.935396
0.0217584
0.943612
0.0273569
0.953713
0.0270336
0.962657
0.0280234
0.967403
0.0194018
0.966693
0.0153473
0.962035
0.00532736
0.95472
0.00676409
0.945894
0.0044082
0.941771
0.0176668
0.94751
0.0319778
0.964246
0.0429811
0.979122
0.0450076
0.98891
0.00698541
0.988077
-0.00255855
0.984525
-0.0490662
0.979472
-0.0100274
-0.0137703
1.03366
0.00871343
-1.03285
1.03441
0.0087425
1.03506
0.0086613
1.0356
0.00860334
1.03599
0.0084155
1.03621
0.00831161
1.03625
0.00804314
1.03609
0.00794156
1.0357
0.00762156
1.03509
0.00759666
1.03423
0.00728616
1.03317
0.00748024
1.03194
0.00730188
1.03061
0.00795879
1.02932
0.00808225
1.02825
0.00951494
1.02756
0.0100801
1.02761
0.0125399
1.02867
0.0135422
1.03099
0.016969
1.03499
0.0177564
1.04082
0.0215279
1.04773
0.0201286
1.05405
0.0217008
1.05788
0.0155749
1.05838
0.014847
1.05595
0.00774989
1.05204
0.0106816
1.04724
0.00920273
1.04614
0.0187669
1.0504
0.0277148
1.06239
0.0309922
1.07221
0.0351929
1.0789
0.000289196
1.07761
-0.00126391
1.07555
-0.0470023
1.07444
-0.0089221
-0.00455747
1.13374
0.00780922
-1.13283
1.13458
0.00790031
1.13535
0.00788907
1.13604
0.00791075
1.13664
0.0078165
1.13714
0.00781765
1.13751
0.00766925
1.13776
0.00769597
1.13786
0.00751399
1.13783
0.0076273
1.13767
0.00744781
1.13739
0.00775831
1.13704
0.00765227
1.13666
0.00833847
1.13635
0.00839386
1.1362
0.00966097
1.13637
0.0099134
1.13701
0.0118991
1.13834
0.0122101
1.14046
0.0148548
1.14359
0.0146238
1.14763
0.017492
1.15227
0.0154858
1.15656
0.0174087
1.15967
0.0124678
1.16093
0.0135907
1.16066
0.00801477
1.15958
0.0117659
1.15809
0.0106894
1.1592
0.0176531
1.16251
0.0244119
1.17089
0.0226119
1.17664
0.0294398
1.18124
-0.00431277
1.18
-1.94189e-05
1.17722
-0.0442251
1.18
-0.011704
0.000735898
1.24914
0.00683886
-1.24817
1.2501
0.00694081
1.25102
0.0069686
1.2519
0.00703941
1.2527
0.00701355
1.25344
0.0070795
1.25409
0.00701307
1.25468
0.00710978
1.25518
0.00701592
1.25561
0.00719645
1.25596
0.00709581
1.25627
0.00744676
1.25655
0.00737511
1.25686
0.00802263
1.25724
0.00801692
1.25781
0.00909703
1.25858
0.00913534
1.25974
0.010742
1.26132
0.0106296
1.26343
0.012747
1.26608
0.0119688
1.26925
0.0143294
1.27262
0.0121098
1.27588
0.0141514
1.27833
0.0100162
1.27994
0.0119798
1.28048
0.00747248
1.28118
0.0110665
1.28147
0.0104077
1.28446
0.0146625
1.28746
0.0214061
1.29411
0.0159677
1.29721
0.0263355
1.29889
-0.00599473
1.2958
0.00307578
1.29104
-0.039463
1.29706
-0.0177328
0.00241858
1.37897
0.00568643
-1.37782
1.3801
0.00581086
1.38121
0.00586098
1.3823
0.00595009
1.38336
0.00594814
1.3844
0.00603669
1.38542
0.00600108
1.3864
0.00612575
1.38735
0.00606398
1.38828
0.00626826
1.38919
0.00618681
1.3901
0.00653951
1.39102
0.00645262
1.39199
0.0070555
1.39303
0.006971
1.39419
0.0079397
1.39552
0.00780239
1.39703
0.0092306
1.39883
0.00883238
1.40084
0.0107376
1.40317
0.00964222
1.40564
0.0118588
1.40826
0.00948687
1.41069
0.0117215
1.41294
0.00777077
1.41476
0.0101598
1.41627
0.00596005
1.41837
0.00896874
1.42007
0.00870573
1.42423
0.0105007
1.42703
0.0186021
1.43283
0.0101738
1.43421
0.0249559
1.43408
-0.00586991
1.43144
0.00571339
1.42342
-0.0314368
1.43059
-0.024908
-0.000437718
1.53046
0.00447884
-1.52925
1.53169
0.00457676
1.53293
0.00462318
1.53417
0.00471288
1.53539
0.0047253
1.5366
0.00482198
1.5378
0.00480116
1.539
0.00492662
1.54019
0.00487476
1.5414
0.00505848
1.54261
0.00498108
1.54388
0.00526992
1.54516
0.00517084
1.54657
0.00564843
1.54803
0.00550389
1.54967
0.00629929
1.55146
0.00601749
1.55343
0.00725916
1.55559
0.00667511
1.55795
0.0083762
1.56034
0.00724831
1.56294
0.00926557
1.56526
0.0071583
1.56757
0.00941741
1.56938
0.00595767
1.57123
0.00830645
1.57226
0.00493117
1.57501
0.00622637
1.57656
0.00715453
1.58159
0.0054639
1.58536
0.0148339
1.59136
0.00417707
1.59393
0.022384
1.59173
-0.00366684
1.5907
0.00673906
1.57614
-0.0168758
1.57806
-0.0268315
-0.0059434
1.72148
0.00309221
-1.7201
1.72288
0.00317868
1.72429
0.00321516
1.72571
0.00328952
1.72715
0.00329108
1.7286
0.00337196
1.73006
0.00334346
1.73153
0.00344867
1.73302
0.00339028
1.73454
0.00353746
1.73607
0.00344594
1.73767
0.00367043
1.73932
0.00353017
1.74105
0.00391377
1.74288
0.00367415
1.74482
0.00435443
1.74692
0.00392428
1.74915
0.00503124
1.7515
0.00431915
1.754
0.00588237
1.7565
0.00474312
1.75899
0.00677594
1.7614
0.0047491
1.76347
0.00734496
1.76528
0.00414675
1.76716
0.00643387
1.76801
0.00407347
1.77095
0.00329148
1.77229
0.00581339
1.77734
0.000414063
1.78104
0.0111281
1.78781
-0.00259184
1.79147
0.0187265
1.78901
-0.0012011
1.7915
0.00423985
1.77338
0.0012462
1.76797
-0.0214232
-0.0124869
1.92926
0.00149035
-1.92765
1.93091
0.0015285
1.93258
0.00154289
1.93428
0.00158606
1.936
0.0015761
1.93773
0.00163535
1.93949
0.00159148
1.94126
0.0016773
1.94305
0.00159664
1.94488
0.00171058
1.94672
0.00160519
1.94865
0.00173981
1.95055
0.00162686
1.95267
0.00179912
1.95469
0.00164879
1.95707
0.00197344
1.95936
0.00163686
1.96204
0.00235352
1.96475
0.00160602
1.96775
0.00288814
1.97078
0.00170807
1.97425
0.00330579
1.97695
0.00205381
1.98092
0.00337022
1.98272
0.00234636
1.98621
0.0029463
1.98765
0.00262763
1.98993
0.00101743
1.9913
0.00443988
1.99452
-0.00280162
1.99839
0.00725523
1.99962
-0.00382426
2.01237
0.00597836
2.00801
0.00315483
2.014
-0.00174964
2.01088
0.00437294
1.99451
-0.00505735
-0.00793322
2.30469
-2.3032
2.30622
2.30776
2.30935
2.31092
2.31256
2.31415
2.31583
2.31742
2.31913
2.32074
2.32248
2.3241
2.3259
2.32755
2.32953
2.33116
2.33352
2.33512
2.33801
2.33972
2.34302
2.34508
2.34845
2.35079
2.35374
2.35637
2.35739
2.36183
2.35902
2.36628
2.36246
2.36843
2.37159
2.36984
2.37421
2.36915
0.269185
0.0600612
-0.264871
0.273626
0.08902
0.278194
0.11878
0.281407
0.146833
0.286961
0.173315
0.28901
0.201957
0.290281
0.222907
0.246092
0.291651
0.055722
-0.287311
0.295483
0.0851878
0.300565
0.113698
0.3041
0.143298
0.308559
0.168856
0.313117
0.197399
0.314378
0.221646
0.241525
0.316524
0.0516835
-0.312485
0.320167
0.0815448
0.324603
0.109262
0.329064
0.138838
0.332833
0.165087
0.338757
0.191475
0.34335
0.217053
0.237586
0.343441
0.0480495
-0.339807
0.347227
0.0777583
0.351269
0.105221
0.356296
0.13381
0.360887
0.160496
0.36672
0.185642
0.372953
0.210821
0.232761
0.373209
0.0447577
-0.369918
0.377069
0.0738983
0.38119
0.1011
0.386174
0.128826
0.391506
0.155164
0.396963
0.180185
0.403615
0.204168
0.226433
0.405935
0.0416456
-0.402823
0.409711
0.0701222
0.414004
0.0968067
0.418874
0.123957
0.424555
0.149483
0.430348
0.174392
0.437275
0.197241
0.219234
0.441835
0.0386848
-0.438874
0.445539
0.0664176
0.449885
0.0924609
0.454835
0.119007
0.460658
0.14366
0.466938
0.168112
0.474037
0.190142
0.211561
0.481181
0.0358851
-0.478381
0.484835
0.0627633
0.489152
0.0881438
0.494249
0.11391
0.500132
0.137777
0.506759
0.161484
0.51409
0.18281
0.203482
0.524308
0.0332485
-0.521672
0.527917
0.0591551
0.532227
0.0838338
0.537467
0.10867
0.543464
0.13178
0.550353
0.154596
0.557941
0.175223
0.195068
0.571658
0.0307364
-0.569146
0.575215
0.0555989
0.579555
0.0794936
0.584901
0.103324
0.591024
0.125656
0.598106
0.147514
0.605932
0.167397
0.186357
0.623708
0.0283375
-0.621309
0.627196
0.0521105
0.63156
0.0751294
0.636985
0.0978992
0.643253
0.119388
0.650548
0.140219
0.658638
0.159307
0.177339
0.680993
0.0260457
-0.678701
0.684419
0.0486847
0.688842
0.0707061
0.694383
0.0923581
0.700867