/*--------------------------------*- C++ -*----------------------------------*\
| =========                 |                                                 |
| \\      /  F ield         | OpenFOAM: The Open Source CFD Toolbox           |
|  \\    /   O peration     | Version:  2312                                  |
|   \\  /    A nd           | Website:  www.openfoam.com                      |
|    \\/     M anipulation  |                                                 |
\*---------------------------------------------------------------------------*/
FoamFile
{
    version     2.0;
    format      ascii;
    arch        "LSB;label=32;scalar=64";
    class       surfaceScalarField;
    location    "2.55";
    object      phi;
}
// * * * * * * * * * * * * * * * * * * * * * * * * * * * * * * * * * * * * * //

dimensions      [0 3 -1 0 0 0 0];

oriented        oriented;

internalField   nonuniform List<scalar> 
10785
(
0.00279891
0.0117315
-0.0145304
0.0119538
0.013456
-0.0226109
0.0308878
-0.0132607
-0.00567331
0.056105
-0.0585734
0.0333562
0.0798839
-0.101327
0.077548
0.0981835
-0.131425
0.113125
0.110989
-0.148696
0.135891
0.120133
-0.157059
0.147916
0.127675
-0.160597
0.153055
0.13519
-0.162217
0.154702
0.143376
-0.163407
0.15522
0.152604
-0.16483
0.155602
0.1631
-0.166931
0.156436
0.174145
-0.169404
0.158358
-0.172105
0.159757
0.186493
0.00240459
0.00932687
0.0143302
0.00153032
0.0379831
-0.0369136
0.0640841
-0.0846743
0.0850218
-0.122265
0.0990711
-0.145474
0.107992
-0.157618
0.114314
-0.16338
0.120004
-0.166288
0.12613
-0.168343
0.133158
-0.170435
0.141274
-0.172946
0.150282
-0.17594
0.160162
-0.179284
-0.183713
0.171771
0.00286774
0.00645912
0.018643
-0.0142449
0.0443575
-0.0626281
0.0678047
-0.108122
0.0840874
-0.138547
0.0939345
-0.155321
0.0999865
-0.16367
0.10459
-0.167984
0.109161
-0.170859
0.114328
-0.17351
0.120318
-0.176425
0.12713
-0.179757
0.134716
-0.183526
0.143424
-0.187992
-0.192727
0.152438
0.00431829
0.00214084
0.023539
-0.0334656
0.0478257
-0.0869148
0.0667804
-0.127076
0.0784743
-0.150241
0.0850611
-0.161908
0.0891791
-0.167788
0.0926295
-0.171434
0.0963112
-0.174541
0.100565
-0.177764
0.105463
-0.181323
0.111032
-0.185326
0.117332
-0.189826
0.124159
-0.194819
-0.200498
0.13193
0.00642437
-0.00428354
0.0272518
-0.054293
0.0479139
-0.107577
0.0619606
-0.141123
0.069786
-0.158067
0.0739602
-0.166082
0.0766719
-0.170499
0.0791553
-0.173918
0.0819243
-0.177309
0.0851439
-0.180984
0.088881
-0.18506
0.0931417
-0.189587
0.0978958
-0.19458
0.103242
-0.200164
-0.206196
0.10894
0.0086306
-0.0129141
0.0284549
-0.0741174
0.0448799
-0.124002
0.0545309
-0.150774
0.0592724
-0.162808
0.0616201
-0.16843
0.0631887
-0.172068
0.0647341
-0.175463
0.0665281
-0.179104
0.0686608
-0.183116
0.07116
-0.187559
0.0740332
-0.19246
0.0773484
-0.197895
0.0810139
-0.20383
-0.210225
0.085043
0.0102468
-0.023161
0.0273646
-0.0912351
0.0395204
-0.136158
0.0455682
-0.156822
0.0479544
-0.165194
0.0488206
-0.169296
0.0492763
-0.172524
0.0497497
-0.175936
0.0503895
-0.179743
0.0512522
-0.183979
0.0523721
-0.188679
0.0537933
-0.193881
0.0554844
-0.199587
0.0574878
-0.205833
-0.21249
0.059753
0.0108667
-0.0340277
0.0246698
-0.105038
0.0328303
-0.144318
0.0358868
-0.159878
0.0363217
-0.165629
0.0358129
-0.168787
0.0350939
-0.171805
0.0343923
-0.175235
0.0337867
-0.179138
0.0333118
-0.183504
0.0329843
-0.188351
0.0328035
-0.1937
0.0328185
-0.199601
0.0330315
-0.206046
0.0337306
-0.21319
-0.0105944
0.00556777
0.00502663
-0.0250302
0.00757286
0.00686291
-0.0373083
0.00642934
0.00584883
-0.0445491
0.00377914
0.00346166
-0.0446528
3.77973e-05
6.58889e-05
-0.0372279
-0.00395913
-0.0034658
-0.0223121
-0.0079382
-0.00697764
-0.00112365
-0.011267
-0.00992136
0.0247805
-0.0137693
-0.0121348
0.0534998
-0.0152882
-0.0134311
0.083955
-0.0162433
-0.014212
0.114643
-0.0162505
-0.0144371
0.145523
-0.0166071
-0.0142737
0.175403
-0.015749
-0.0141304
-0.0162056
0.205381
-0.0137721
-0.00963616
0.0152039
-0.0230248
0.0209615
-0.0343721
0.0177767
-0.0407037
0.0101107
-0.0399601
-0.000705757
-0.0315523
-0.012367
-0.0157926
-0.0236979
0.00597392
-0.0330336
0.0320093
-0.0398048
0.0604331
-0.043712
0.0902338
-0.046044
0.120103
-0.0461198
0.149896
-0.0464003
0.178817
-0.0446702
-0.0451224
0.207734
-0.00698194
0.0221859
-0.0174285
0.031408
-0.0262053
0.0265535
-0.0302001
0.0141055
-0.0272731
-0.00363275
-0.016594
-0.0230461
0.00102229
-0.0413142
0.023621
-0.0556323
0.0494497
-0.0656335
0.0767258
-0.0709881
0.104459
-0.0737772
0.131896
-0.0735567
0.158859
-0.0733634
0.185248
-0.0710592
-0.0714659
0.211592
-0.00333282
0.0255187
-0.00950224
0.0375774
-0.0144231
0.0314744
-0.0148632
0.0145456
-0.00858518
-0.00991074
0.00499465
-0.0366259
0.0242136
-0.0605331
0.0471898
-0.0786085
0.0717349
-0.0901786
0.0966246
-0.0958778
0.120928
-0.0980808
0.144793
-0.0974218
0.167985
-0.096555
0.191155
-0.0942288
-0.0946726
0.214361
0.000329651
0.025189
-0.00115162
0.0390587
-0.00163397
0.0319567
0.00240892
0.0105027
0.0128435
-0.0203453
0.0293912
-0.0531736
0.0498966
-0.0810385
0.0719084
-0.10062
0.0936954
-0.111966
0.114788
-0.11697
0.134739
-0.118032
0.154486
-0.117168
0.173782
-0.115851
0.193759
-0.114206
-0.114808
0.213894
0.00297206
0.022217
0.00590517
0.0361256
0.0102068
0.027655
0.0190044
0.00170511
0.0341348
-0.0354757
0.0534195
-0.0724583
0.0738524
-0.101471
0.0933692
-0.120137
0.11123
-0.129826
0.127707
-0.133447
0.143332
-0.133658
0.159084
-0.132919
0.174958
-0.131725
0.192037
-0.131286
-0.132252
0.209481
0.00401035
0.0182066
0.00991054
0.0302254
0.0185625
0.0190031
0.0332633
-0.0129957
0.0528044
-0.0550168
0.073486
-0.0931399
0.092262
-0.120247
0.108155
-0.13603
0.121694
-0.143366
0.133903
-0.145656
0.146001
-0.145756
0.158483
-0.145401
0.171762
-0.145004
0.186312
-0.145836
-0.147243
0.201303
0.00367626
0.0112908
0.0246206
0.0449811
0.0675124
0.0874977
0.103141
0.115027
0.124716
0.133762
0.143226
0.153427
0.164859
0.177382
0.189895
0.231076
0.00110809
-0.0268031
0.247147
0.00929433
-0.0253656
0.257775
0.0137637
-0.0243919
0.265316
0.016761
-0.024302
0.270779
0.0191765
-0.0246394
0.274742
0.0213031
-0.0252661
0.277676
0.0233133
-0.0262478
0.279887
0.0252056
-0.0274156
0.281547
0.0270485
-0.0287085
0.282777
0.028931
-0.0301612
0.283669
0.0308924
-0.031785
0.284294
0.0329603
-0.0335845
0.2847
0.0351681
-0.0355749
0.284928
0.0375495
-0.0377775
0.285007
0.0401389
-0.0402177
0.284959
0.0429732
-0.0429253
0.284802
0.0460933
-0.0459364
0.28455
0.0495476
-0.0492949
0.284212
0.0533902
-0.0530522
0.283796
0.0576833
-0.0572681
0.28331
0.0625015
-0.0620146
0.282756
0.0679276
-0.0673739
0.282139
0.0740575
-0.0734404
0.281461
0.0810116
-0.0803338
0.280725
0.0889023
-0.0881658
0.279929
0.0978963
-0.0971011
0.279067
0.108451
-0.107589
0.27819
0.117692
-0.116815
0.277059
0.144837
-0.143706
0.276331
0.103387
-0.102659
0.275284
0.269085
-0.268038
0.273267
0.121048
-0.119031
0.271876
-0.0339367
0.0353278
0.270538
-0.0865402
0.0878778
0.269199
-0.0885155
0.0898549
0.267801
-0.0747865
0.0761846
0.266316
-0.0600302
0.0615148
-0.0269719
0.028586
0.231045
-0.0222029
0.246387
-0.00604799
0.256808
0.00334284
0.264231
0.00933856
0.269708
0.0136992
0.273728
0.0172831
0.276733
0.020308
0.27902
0.0229195
0.280748
0.02532
0.282039
0.0276401
0.282988
0.0299431
0.283667
0.0322815
0.284128
0.0347073
0.28441
0.037267
0.284545
0.0400042
0.284555
0.0429631
0.284458
0.0461901
0.284268
0.0497378
0.283995
0.053663
0.283649
0.0580301
0.283233
0.0629167
0.282755
0.0684065
0.282214
0.0745975
0.281615
0.0816109
0.280958
0.0895598
0.28024
0.0986135
0.279453
0.109239
0.278655
0.118489
0.277558
0.145934
0.276901
0.104043
0.27579
0.270196
0.273283
0.123555
0.271517
-0.0321706
0.270196
-0.0852193
0.268999
-0.0873185
0.267769
-0.0735565
0.266457
-0.0587176
-0.0255181
0.229542
-0.0401533
0.243036
-0.0195419
0.252889
-0.00651041
0.260099
0.00212896
0.265525
0.00827305
0.269614
0.0131941
0.272738
0.0171843
0.275139
0.0205182
0.276977
0.0234821
0.278374
0.0262426
0.279429
0.0288887
0.280213
0.0314972
0.280781
0.0341394
0.281174
0.0368741
0.281423
0.0397552
0.281552
0.0428339
0.28158
0.0461622
0.281521
0.0497969
0.281386
0.053798
0.281182
0.0582336
0.280917
0.0631819
0.280595
0.0687283
0.28022
0.0749725
0.279794
0.0820373
0.279314
0.0900399
0.278782
0.0991457
0.278171
0.109849
0.27759
0.11907
0.276601
0.146923
0.276237
0.104407
0.275185
0.271249
0.272384
0.126355
0.270346
-0.0301327
0.26919
-0.0840631
0.268295
-0.0864237
0.267397
-0.0726588
0.266424
-0.0577442
-0.0243982
0.226349
-0.0521412
0.237149
-0.0303422
0.246163
-0.0155236
0.253126
-0.00483443
0.258398
0.00300107
0.262489
0.00910265
0.265721
0.0139528
0.268288
0.017951
0.270318
0.0214521
0.271909
0.024652
0.273145
0.0276524
0.2741
0.0305421
0.274834
0.0334056
0.275393
0.0363151
0.275812
0.0393359
0.276118
0.0425283
0.27633
0.0459503
0.276463
0.0496631
0.27653
0.0537311
0.276539
0.0582245
0.276498
0.0632229
0.276411
0.0688153
0.276281
0.0751025
0.276113
0.0822059
0.275903
0.0902501
0.275654
0.0993947
0.275318
0.110185
0.27507
0.119319
0.274283
0.147709
0.274365
0.104325
0.273513
0.272101
0.270478
0.129391
0.268382
-0.0280364
0.267535
-0.0832163
0.267096
-0.0859853
0.266691
-0.0722534
0.266221
-0.0572742
-0.0237834
0.220599
-0.0588458
0.228764
-0.0385075
0.236314
-0.0230737
0.242808
-0.0113282
0.248215
-0.0024064
0.252615
0.00470243
0.256124
0.0104447
0.258888
0.0151864
0.261082
0.019258
0.262834
0.0229008
0.264247
0.0262388
0.2654
0.0293895
0.266345
0.0324606
0.267123
0.035537
0.267768
0.0386912
0.268307
0.0419894
0.268762
0.0454953
0.26915
0.0492752
0.269483
0.0533975
0.269773
0.0579349
0.270026
0.0629693
0.27025
0.0685919
0.270448
0.0749042
0.270623
0.0820308
0.270771
0.0901025
0.270902
0.0992631
0.270943
0.110144
0.271136
0.119125
0.270651
0.148195
0.271316
0.10366
0.27082
0.272596
0.267644
0.132567
0.265648
-0.0260398
0.26525
-0.0828189
0.265417
-0.0861523
0.265659
-0.0724949
0.265852
-0.0574671
-0.0238407
0.211809
-0.0611735
0.217724
-0.0444231
0.224294
-0.0296433
0.230183
-0.0172173
0.235243
-0.00746601
0.239493
0.00045268
0.2432
0.0067376
0.246291
0.0120952
0.248866
0.0166831
0.250994
0.020773
0.252746
0.024486
0.254204
0.0279316
0.255438
0.0312271
0.2565
0.0344744
0.257433
0.0377589
0.258266
0.0411555
0.259026
0.0447354
0.259731
0.0485706
0.260395
0.0527339
0.261029
0.0573007
0.261643
0.0623553
0.262244
0.0679904
0.262839
0.0743098
0.263429
0.081441
0.264007
0.0895243
0.264595
0.0986749
0.265099
0.10964
0.265841
0.118384
0.265756
0.14828
0.26713
0.102286
0.267149
0.272578
0.26395
0.135765
0.262177
-0.0242661
0.262362
-0.0830038
0.263277
-0.0870678
0.264314
-0.0735314
0.265323
-0.0584762
-0.0247309
0.200199
-0.0600693
0.203823
-0.0480473
0.20898
-0.034801
0.214412
-0.0226494
0.219732
-0.0127854
0.224566
-0.0043812
0.228564
0.00273895
0.231933
0.00872682
0.234708
0.0139078
0.237035
0.0184464
0.239017
0.0225038
0.240734
0.0262146
0.242248
0.029713
0.243609
0.033114
0.244854
0.036513
0.246017
0.039993
0.247121
0.0436309
0.248188
0.047504
0.249233
0.0516892
0.250268
0.0562651
0.251305
0.0613186
0.252352
0.0669434
0.253412
0.0732497
0.254493
0.0803603
0.255595
0.0884222
0.256743
0.0975262
0.257811
0.108572
0.259204
0.116991
0.259608
0.147876
0.26182
0.100073
0.262545
0.271853
0.259422
0.138889
0.258
-0.0228446
0.258899
-0.0839021
0.260701
-0.0888704
0.262672
-0.0755025
0.264642
-0.0604463
-0.0266066
0.186049
-0.0562227
0.186941
-0.0489391
0.190437
-0.0382968
0.194934
-0.027147
0.200163
-0.0180145
0.205312
-0.00952999
0.209891
-0.00184017
0.213901
0.00471722
0.217316
0.0104927
0.220202
0.0155606
0.222667
0.0200388
0.22482
0.0240607
0.226749
0.0277845
0.228516
0.0313474
0.230167
0.0348611
0.231742
0.0384186
0.233269
0.042104
0.234772
0.046001
0.23627
0.050191
0.237778
0.0547566
0.23931
0.0597872
0.240876
0.0653768
0.242486
0.0716401
0.244146
0.0786998
0.245847
0.086722
0.247614
0.0957587
0.249299
0.106887
0.251415
0.114875
0.252393
0.146898
0.255499
0.0969679
0.257071
0.270281
0.254221
0.141738
0.253223
-0.0218468
0.25494
-0.0856188
0.257744
-0.0916749
0.260769
-0.0785269
0.263824
-0.0635019
-0.0296086
0.400187
-0.0407308
-0.415679
0.388835
-0.0375869
0.381923
-0.0313848
0.377674
-0.0228979
0.375093
-0.015433
0.374222
-0.0086597
0.37454
-0.00215761
0.375241
0.00401626
0.376215
0.00951859
0.377339
0.0144366
0.378528
0.0188492
0.379688
0.0229011
0.380763
0.0267095
0.381735
0.0303752
0.382603
0.0339933
0.383376
0.0376459
0.384066
0.0414133
0.384688
0.0453795
0.385252
0.0496267
0.38577
0.0542387
0.386251
0.0593059
0.386704
0.0649242
0.387132
0.0712125
0.387532
0.0782992
0.387912
0.0863419
0.388295
0.0953763
0.388672
0.106509
0.38893
0.114618
0.389654
0.146174
0.389173
0.0974492
0.388855
0.270599
0.390251
0.140342
0.39073
-0.0223255
0.390768
-0.0856577
0.390725
-0.0916313
0.390749
-0.0785507
0.390811
-0.0635642
-0.0296363
0.441443
-0.0281578
-0.454016
0.430799
-0.0269428
0.422612
-0.0231979
0.417491
-0.0177768
0.414494
-0.0124368
0.412865
-0.00702992
0.412111
-0.00140395
0.412282
0.0038449
0.412932
0.00886875
0.413839
0.01353
0.414825
0.0178626
0.415813
0.0219138
0.416766
0.0257563
0.417666
0.0294753
0.418505
0.0331544
0.41928
0.0368706
0.419993
0.0407004
0.420649
0.0447236
0.421255
0.0490202
0.421821
0.0536735
0.422353
0.0587739
0.422856
0.064421
0.423336
0.0707324
0.4238
0.0778354
0.424252
0.0858893
0.424699
0.0949296
0.425151
0.106057
0.425479
0.11429
0.426174
0.145479
0.425969
0.0976544
0.425759
0.270808
0.426975
0.139126
0.42751
-0.0228607
0.427592
-0.0857395
0.427595
-0.0916337
0.427634
-0.0785898
0.4277
-0.0636304
-0.0296661
0.484339
-0.0166801
-0.495817
0.47469
-0.0172932
0.467066
-0.0155742
0.461547
-0.0122576
0.457612
-0.00850249
0.45513
-0.00454795
0.453939
-0.000212673
0.45341
0.00437398
0.453458
0.00882042
0.453893
0.0130951
0.454569
0.0171873
0.455366
0.0211165
0.456205
0.0249171
0.457041
0.0286395
0.45785
0.0323453
0.45862
0.0361005
0.459346
0.039974
0.460031
0.0440394
0.460677
0.048374
0.461291
0.0530599
0.461877
0.0581876
0.46244
0.0638575
0.462988
0.0701849
0.463526
0.0772969
0.464056
0.0853593
0.464578
0.0944082
0.465108
0.105527
0.465534
0.113864
0.466207
0.144805
0.46627
0.0975922
0.466226
0.270852
0.467255
0.138097
0.467829
-0.0234352
0.467965
-0.0858752
0.468016
-0.0916852
0.468074
-0.0786478
0.468144
-0.0637005
-0.0296989
0.528761
-0.00743886
-0.538002
0.52044
-0.00897267
0.513553
-0.00868702
0.508211
-0.00691546
0.504158
-0.00444977
0.501259
-0.0016484
0.499377
0.00166897
0.498361
0.00538944
0.497958
0.00922412
0.497996
0.0130568
0.498337
0.0168464
0.498875
0.0205785
0.499531
0.0242607
0.50025
0.0279214
0.500991
0.0316037
0.501732
0.0353597
0.502458
0.0392476
0.503164
0.0433334
0.503849
0.0476898
0.504512
0.0523961
0.505159
0.0575411
0.505792
0.0632244
0.506417
0.0695602
0.507037
0.0766766
0.507654
0.084742
0.508266
0.0937966
0.508889
0.104904
0.509433
0.11332
0.510115
0.144123
0.51044
0.0972679
0.510588
0.270703
0.511453
0.137232
0.51205
-0.0240325
0.51225
-0.0860752
0.51235
-0.0917853
0.512429
-0.0787261
0.512502
-0.0637743
-0.0297338
0.575807
-0.000735122
-0.582511
0.569164
-0.00232983
0.563219
-0.00274144
0.558274
-0.00197064
0.554264
-0.000439339
0.551143
0.00147205
0.548891
0.00392066
0.547429
0.00685229
0.546594
0.0100585
0.54625
0.0134006
0.546276
0.0168208
0.546567
0.0202876
0.547039
0.023789
0.547627
0.027333
0.548286
0.0309447
0.548984
0.0346618
0.549699
0.038532
0.55042
0.0426128
0.551139
0.0469707
0.551854
0.051681
0.552566
0.0568296
0.553275
0.0625148
0.553986
0.0688496
0.5547
0.0759624
0.55542
0.0840225
0.55614
0.093076
0.556873
0.104171
0.557556
0.112637
0.55829
0.14339
0.558869
0.0966889
0.55923
0.270342
0.559963
0.136499
0.56057
-0.0246397
0.560844
-0.0863488
0.560994
-0.0919358
0.561093
-0.0788251
0.561169
-0.0638503
-0.0297691
0.626224
0.00415611
-0.631115
0.621056
0.0028379
0.616146
0.00216923
0.611806
0.00236896
0.608125
0.00324171
0.605049
0.00454771
0.602639
0.00633102
0.600895
0.00859615
0.599741
0.0112126
0.599079
0.0140631
0.598813
0.0170864
0.598856
0.0202443
0.599131
0.0235139
0.599574
0.0268899
0.600136
0.0303837
0.600777
0.0340205
0.601471
0.0378378
0.6022
0.0418841
0.602951
0.046219
0.603719
0.0509129
0.604501
0.0560481
0.605295
0.0617203
0.606104
0.0680412
0.606927
0.0751389
0.607767
0.083183
0.608617
0.0922255
0.609483
0.103305
0.610329
0.111791
0.611158
0.142561
0.611992
0.0958547
0.612582
0.269752
0.613224
0.135858
0.613836
-0.0252522
0.614189
-0.0867014
0.614391
-0.0921385
0.614509
-0.078943
0.614584
-0.0639251
-0.0298023
0.680752
0.00763784
-0.684234
0.676903
0.00668685
0.673018
0.00605478
0.669369
0.00601808
0.666091
0.00651909
0.663231
0.00740769
0.660856
0.00870661
0.659006
0.0104463
0.657662
0.0125561
0.656773
0.0149521
0.656277
0.0175828
0.656107
0.0204136
0.656202
0.0234193
0.656503
0.0265885
0.656963
0.029924
0.657542
0.0334419
0.658209
0.0371706
0.658942
0.0411508
0.659726
0.0454352
0.66055
0.0500887
0.661409
0.0551894
0.662299
0.0608301
0.66322
0.0671205
0.664171
0.0741879
0.665152
0.0822023
0.666157
0.0912198
0.667185
0.102278
0.668223
0.110752
0.669194
0.14159
0.670295
0.0947546
0.671131
0.268915
0.671726
0.135262
0.672346
-0.025872
0.67278
-0.0871347
0.673035
-0.0923936
0.673167
-0.0790753
0.673234
-0.0639925
-0.0298294
0.740149
0.0100571
-0.742569
0.737354
0.00948222
0.734366
0.00904233
0.731425
0.00895932
0.728661
0.0092831
0.726143
0.00992608
0.723946
0.0109032
0.722134
0.012258
0.720728
0.0139622
0.719715
0.0159656
0.719063
0.0182343
0.718733
0.0207434
0.71868
0.0234727
0.718858
0.0264108
0.719225
0.0295571
0.719744
0.0329223
0.720386
0.0365289
0.721126
0.0404111
0.721945
0.0446154
0.722832
0.0492017
0.723778
0.0542435
0.724778
0.0598303
0.725829
0.0660696
0.726929
0.0730874
0.728078
0.081054
0.729269
0.0900283
0.730494
0.101053
0.73176
0.109486
0.732926
0.140424
0.734316
0.0933646
0.735423
0.267809
0.736022
0.134663
0.736659
-0.0265087
0.737171
-0.0876468
0.737474
-0.0926973
0.737613
-0.0792135
0.737662
-0.0640416
-0.0298442
0.805057
0.0117277
-0.806727
0.803075
0.0114641
0.800874
0.0112431
0.7986
0.0112328
0.796372
0.0115115
0.794263
0.0120349
0.792348
0.012818
0.790696
0.0139107
0.789346
0.0153118
0.788314
0.0169976
0.787596
0.0189527
0.787174
0.0211652
0.787023
0.0236236
0.787112
0.0263214
0.78741
0.0292591
0.787887
0.0324461
0.788514
0.0359016
0.789269
0.0396555
0.790135
0.04375
0.791096
0.0482402
0.792144
0.0531958
0.793272
0.0587026
0.794476
0.0648657
0.795753
0.07181
0.797101
0.0797056
0.798516
0.0886132
0.799982
0.0995874
0.801522
0.107946
0.802942
0.139004
0.804662
0.0916446
0.806072
0.2664
0.80673
0.134005
0.8074
-0.0271795
0.807986
-0.0882323
0.808328
-0.0930395
0.808457
-0.0793421
0.80847
-0.0640548
-0.029837
0.876108
0.0128333
-0.877213
0.874757
0.0128147
0.873202
0.0127983
0.871531
0.012904
0.869828
0.0132141
0.868159
0.0137036
0.86659
0.0143871
0.865185
0.015316
0.863992
0.0165049
0.863041
0.0179487
0.862347
0.0196469
0.861912
0.0216003
0.861727
0.0238078
0.861779
0.0262699
0.862047
0.0289916
0.862509
0.0319837
0.863145
0.0352653
0.863936
0.0388645
0.864866
0.0428206
0.865921
0.0471853
0.867091
0.0520249
0.868372
0.0574222
0.869758
0.0634798
0.871247
0.070321
0.872836
0.0781166
0.874521
0.0869276
0.876283
0.0978254
0.878156
0.106073
0.879899
0.137261
0.882009
0.0895337
0.883774
0.264635
0.884551
0.133227
0.88528
-0.027908
0.885929
-0.0888815
0.886289
-0.0933993
0.886381
-0.0794347
0.886331
-0.0640042
-0.0297931
0.953933
0.0135027
-0.954603
0.953076
0.0136719
0.952048
0.0138268
0.9509
0.0140519
0.949688
0.0144259
0.948461
0.0149305
0.947271
0.0155769
0.946173
0.0164138
0.945215
0.0174636
0.944431
0.0187321
0.943849
0.0202296
0.943482
0.0219668
0.943338
0.0239521
0.943414
0.0261935
0.943704
0.0287018
0.944196
0.0314916
0.944878
0.0345837
0.945736
0.0380065
0.946758
0.0417981
0.947935
0.0460083
0.949259
0.0507008
0.950726
0.0559558
0.952332
0.0618738
0.954076
0.0685767
0.955957
0.0762358
0.957972
0.0849121
0.960099
0.0956985
0.962381
0.103792
0.964533
0.135109
0.967123
0.0869438
0.96932
0.262438
0.97029
0.132257
0.971105
-0.0287224
0.971799
-0.089576
0.972139
-0.0937389
0.972151
-0.0794475
0.971993
-0.063846
-0.0296902
1.03918
0.0138298
-1.03951
1.03872
0.0141335
1.03813
0.0144205
1.03743
0.0147488
1.03666
0.0151922
1.03586
0.0157328
1.03506
0.0163765
1.03431
0.0171676
1.03364
0.0181307
1.03309
0.019277
1.0327
0.0206226
1.03248
0.022185
1.03246
0.0239796
1.03263
0.0260212
1.033
0.0283261
1.03358
0.0309135
1.03436
0.0338071
1.03533
0.0370368
1.03649
0.040641
1.03782
0.0446688
1.03934
0.0491821
1.04104
0.0542593
1.04291
0.0599988
1.04497
0.0665214
1.04721
0.0739987
1.04963
0.0824917
1.05221
0.0931187
1.055
0.101
1.05767
0.132433
1.06087
0.0837495
1.06362
0.25969
1.06487
0.131
1.0658
-0.0296532
1.06651
-0.0902808
1.06676
-0.0939924
1.06662
-0.0793087
1.06629
-0.063513
-0.0294948
1.13257
0.0138578
-1.1326
1.13244
0.0142687
1.13221
0.0146519
1.13189
0.0150593
1.13152
0.0155619
1.13112
0.0161398
1.1307
0.0167935
1.13031
0.0175622
1.12997
0.0184699
1.12971
0.0195295
1.12958
0.0207595
1.12958
0.022181
1.12975
0.0238138
1.13009
0.0256772
1.13063
0.0277923
1.13136
0.030182
1.13229
0.0328731
1.13343
0.0358976
1.13478
0.0392948
1.13633
0.0431136
1.1381
0.0474151
1.14008
0.052276
1.14229
0.0577928
1.14472
0.0640849
1.1474
0.0713243
1.15032
0.0795715
1.15346
0.0899732
1.1569
0.0975658
1.16025
0.129078
1.16423
0.0797716
1.16772
0.256203
1.1694
0.129324
1.17047
-0.0307277
1.17112
-0.0909262
1.17117
-0.0940468
1.17076
-0.0789024
1.17015
-0.0629018
-0.0291568
1.23477
0.0136679
-1.23458
1.23495
0.0140911
1.23506
0.0145443
1.2351
0.015014
1.2351
0.0155615
1.23507
0.0161694
1.23503
0.0168347
1.235
0.0175912
1.23501
0.0184608
1.23508
0.0194558
1.23525
0.0205948
1.23553
0.0218998
1.23595
0.0233927
1.23653
0.0250956
1.23729
0.0270322
1.23825
0.0292285
1.23941
0.0317136
1.24078
0.0345215
1.24238
0.0376924
1.24422
0.0412752
1.24631
0.0453301
1.24865
0.049932
1.25127
0.0551755
1.25418
0.0611773
1.25739
0.068109
1.26093
0.0760295
1.26479
0.0861131
1.26905
0.0933145
1.27331
0.12481
1.27831
0.0747745
1.28289
0.251622
1.28518
0.127037
1.28639
-0.0319422
1.28684
-0.0913775
1.28651
-0.0937113
1.28565
-0.078043
1.2846
-0.0618556
-0.0286025
1.34625
0.0131404
-1.34572
1.34668
0.0136599
1.34708
0.0141415
1.34747
0.0146303
1.34783
0.0152015
1.34818
0.0158214
1.34853
0.0164788
1.34891
0.0172088
1.34934
0.0180339
1.34983
0.0189652
1.35041
0.0200202
1.35109
0.0212208
1.35189
0.0225887
1.35284
0.0241466
1.35395
0.0259187
1.35525
0.0279317
1.35675
0.0302154
1.35846
0.032804
1.36042
0.0357375
1.36263
0.0390639
1.36512
0.0428416
1.36791
0.0471429
1.37103
0.0520589
1.3745
0.0577026
1.37837
0.0642416
1.38266
0.0717322
1.38741
0.0813712
1.3927
0.0880209
1.39808
0.119428
1.40462
0.0682337
1.41042
0.245822
1.41405
0.123409
1.41533
-0.0332164
1.41522
-0.0912733
1.41411
-0.092605
1.41249
-0.0764156
1.41077
-0.0601335
-0.0277232
1.47036
0.0127225
-1.46994
1.47081
0.013205
1.47127
0.0136903
1.47173
0.0141673
1.47224
0.0146924
1.4728
0.0152575
1.47341
0.0158663
1.47408
0.0165466
1.4748
0.0173134
1.47559
0.0181744
1.47646
0.0191442
1.47744
0.0202415
1.47855
0.0214859
1.47979
0.0228983
1.48121
0.0245021
1.48282
0.0263233
1.48464
0.0283912
1.48671
0.0307393
1.48904
0.0334066
1.49166
0.0364394
1.49461
0.0398934
1.49792
0.0438368
1.50162
0.0483551
1.50577
0.0535548
1.51042
0.059594
1.51562
0.0665242
1.52146
0.0755359
1.52802
0.0814637
1.53521
0.112231
1.54298
0.0604641
1.55246
0.236344
1.55684
0.119031
1.55831
-0.0346837
1.55761
-0.0905807
1.55537
-0.0903604
1.55257
-0.0736192
1.54984
-0.0574037
-0.02637
1.60126
0.0115728
-1.60011
1.60232
0.0121477
1.60335
0.0126644
1.6044
0.0131118
1.60549
0.0136064
1.60659
0.0141512
1.60775
0.0147082
1.60899
0.0153072
1.61032
0.0159854
1.61174
0.0167569
1.61325
0.0176319
1.61487
0.0186245
1.6166
0.0197508
1.61847
0.0210281
1.6205
0.0224762
1.6227
0.0241176
1.62512
0.0259784
1.62777
0.0280887
1.63069
0.0304838
1.63392
0.0332055
1.63751
0.0363038
1.64151
0.0398397
1.64598
0.0438881
1.65099
0.048544
1.65664
0.053939
1.66304
0.0601297
1.67039
0.0681792
1.67868
0.0731829
1.68857
0.102337
1.69904
0.0499915
1.71367
0.221712
1.72296
0.109743
1.72275
-0.034472
1.71816
-0.0859897
1.71265
-0.0848497
1.70749
-0.0684603
1.70313
-0.0530399
-0.0243135
1.75233
0.0115491
-1.75231
1.75216
0.0123229
1.75209
0.0127309
1.75256
0.0126432
1.75358
0.012588
1.75499
0.0127412
1.75664
0.0130632
1.75839
0.0135542
1.76018
0.0141904
1.76201
0.0149266
1.7639
0.0157474
1.76586
0.016661
1.76793
0.0176809
1.77014
0.0188221
1.77251
0.0201026
1.77509
0.0215432
1.7779
0.0231677
1.78098
0.0250037
1.78438
0.027083
1.78814
0.0294426
1.79232
0.0321259
1.79698
0.0351847
1.80219
0.0386801
1.80804
0.0426925
1.81466
0.0473131
1.82217
0.0526207
1.83093
0.0594231
1.84067
0.06344
1.85334
0.0896725
1.86474
0.0385871
1.8861
0.200354
1.89791
0.0979337
1.89871
-0.0352745
1.89333
-0.0806148
1.8855
-0.0770155
1.87793
-0.0608937
1.87164
-0.0467412
-0.0213893
1.90968
0.0119447
-1.91008
1.90909
0.0129159
1.90889
0.0129351
1.90964
0.0118872
1.91133
0.0108986
1.91365
0.0104195
1.91632
0.0104004
1.9191
0.0107725
1.92188
0.011404
1.92466
0.0121553
1.92743
0.0129698
1.93025
0.0138462
1.93313
0.0147955
1.93612
0.015831
1.93926
0.0169686
1.94257
0.018227
1.94612
0.0196271
1.94993
0.0211924
1.95406
0.0229496
1.95857
0.0249288
1.96354
0.0271645
1.96902
0.0296959
1.97514
0.0325668
1.982
0.0358295
1.98978
0.0395381
1.99868
0.0437162
2.00927
0.048831
2.02059
0.0521193
2.04176
0.0685078
2.04251
0.0378309
2.10988
0.132984
2.1425
0.0653149
2.12918
-0.0219571
2.10295
-0.0543753
2.08114
-0.0552065
2.06643
-0.0461846
2.05663
-0.0369411
-0.0172005
2.11481
0.00902963
-2.1119
2.11795
0.00978446
2.12102
0.00986223
2.12377
0.00913632
2.12623
0.00843905
2.12847
0.00817506
2.13061
0.00826874
2.13276
0.00861479
2.13504
0.00912741
2.13747
0.00972764
2.14006
0.0103781
2.14283
0.0110759
2.1458
0.0118292
2.14898
0.0126481
2.1524
0.0135449
2.1561
0.0145335
2.16009
0.0156299
2.16443
0.0168515
2.16917
0.0182181
2.17434
0.0197511
2.18003
0.0214738
2.18632
0.0234103
2.1933
0.0255854
2.20111
0.0280157
2.20992
0.0307291
2.22
0.0336438
2.23183
0.0369952
2.24448
0.0394724
2.26796
0.0450271
2.2666
0.0391895
2.343
0.056582
2.37466
0.033662
2.35384
-0.00114579
2.31932
-0.0198497
2.2909
-0.0267856
2.27147
-0.0267602
2.2586
-0.0240626
-0.0118115
2.31375
0.00532806
-2.31005
2.31798
0.00555742
2.32206
0.00578513
2.32523
0.00595755
2.32758
0.00608956
2.32951
0.00625272
2.3313
0.00647134
2.33319
0.00673119
2.33529
0.00702532
2.33766
0.007357
2.34031
0.00773006
2.34324
0.00814822
2.34645
0.00861645
2.34996
0.00914084
2.35377
0.00972838
2.35792
0.0103871
2.36242
0.0111263
2.36732
0.0119562
2.37265
0.0128885
2.37846
0.0139359
2.38482
0.0151117
2.39181
0.0164295
2.39949
0.017902
2.40797
0.0195345
2.41736
0.0213375
2.42776
0.0232464
2.43937
0.0253871
2.45187
0.0269745
2.46686
0.0300352
2.47866
0.0273883
2.50096
0.0342815
2.51133
0.02329
2.5072
0.00298401
2.49815
-0.0108034
2.48815
-0.0167855
2.47901
-0.0176132
2.47114
-0.0161971
-0.00797851
2.52406
0.0027364
-2.52146
2.52676
0.0028501
2.52959
0.0029537
2.53248
0.00307393
2.53539
0.0031821
2.53836
0.00327829
2.54144
0.00338625
2.54466
0.00351385
2.54803
0.00366057
2.55156
0.00382844
2.55527
0.00402014
2.55918
0.00423759
2.56331
0.00448282
2.56769
0.00475837
2.57235
0.00506728
2.57733
0.00541311
2.58265
0.00579993
2.58838
0.00623235
2.59455
0.00671536
2.60123
0.00725412
2.60849
0.00785346
2.6164
0.00851706
2.62506
0.00924622
2.63456
0.0100368
2.64502
0.0108775
2.65653
0.0117328
2.66934
0.0125729
2.68311
0.0132093
2.69938
0.0137669
2.7136
0.0131636
2.73502
0.0128626
2.74902
0.00928682
2.74902
0.00298369
2.74049
-0.00226921
2.72908
-0.00537821
2.71799
-0.00652327
2.70842
-0.00662005
-0.003433
2.75936
-2.75662
2.76221
2.76516
2.76824
2.77142
2.7747
2.77808
2.7816
2.78526
2.78908
2.7931
2.79734
2.80183
2.80658
2.81165
2.81706
2.82286
2.8291
2.83581
2.84307
2.85092
2.85944
2.86868
2.87872
2.8896
2.90133
2.9139
2.92711
2.94088
2.95404
2.9669
2.97619
2.97918
2.97691
2.97153
2.965
2.95838
0.429305
0.0306688
-0.426243
0.432645
0.0564127
0.433404
0.0842844
0.433787
0.108556
0.431292
0.134425
0.42884
0.15489
0.421273
0.179338
0.192087
0.456155
0.028801
-0.454287
0.458728
0.0538399
0.4592
0.0838127
0.460193
0.107563
0.459746
0.134872
0.459302
0.155333
0.457558
0.181082
0.195629
0.488729
0.0270577
-0.486986
0.490445
0.0521237
0.491733
0.0825249
0.493241
0.106055
0.494829
0.133284
0.495667
0.154495
0.497264
0.179485
0.197077
0.525301
0.0255925
-0.523835
0.526305
0.0511198
0.52838
0.0804495
0.530331
0.104104
0.532908
0.130706
0.534387
0.153016
0.536832
0.17704
0.195907
0.56647
0.0242607
-0.565138
0.567472
0.0501174
0.569718
0.0782034
0.57158
0.102243
0.574136
0.12815
0.576186
0.150966
0.579631
0.173595
0.193027
0.612136
0.0232308
-0.611106
0.613145
0.0491085
0.615253
0.0760955
0.617305
0.10019
0.620317
0.125139
0.623382
0.147901
0.627417
0.169561
0.189328
0.662755
0.022388
-0.661912
0.663924
0.0479395
0.666123
0.0738967
0.668569
0.0977445
0.671916
0.121791
0.675448
0.144369
0.679773
0.165236
0.184867
0.718804
0.0216294
-0.718045
0.720121
0.0466219
0.72238
0.0716379
0.725076
0.0950485
0.728639
0.118229
0.732639
0.140369
0.737421
0.160454
0.179719
0.780572
0.0209118
-0.779854
0.782003
0.0451912
0.784371
0.0692697
0.787364
0.0920552
0.791243
0.11435
0.795737
0.135875
0.800981
0.15521
0.173973
0.848537
0.0201926
-0.847818
0.850102
0.0436264
0.852644
0.0667274
0.855953
0.0887459
0.860169
0.110135
0.865125
0.130919
0.870856
0.149479
0.167615
0.923206
0.0194387
-0.922452
0.924921
0.0419114
0.927672
0.0639772
0.931309
0.0851085
0.935898
0.105546
0.941344
0.125473
0.94761
0.143214
0.160622
1.00515
0.0186267
-1.00433
1.00703
0.0400264
1.01003
0.0609806
1.01402
0.0811152
1.01903
0.100535
1.025
0.119504
1.03185
0.136366
0.152961
1.09498
0.017734
-1.09408
1.09705
0.0379519
1.10032
0.0577153
1.10469
0.0767383
1.11016
0.0950681
1.1167
0.112962
1.12419
0.128881
0.144549
1.19343
0.0166989
-1.19239
1.19577
0.0356137
1.19936
0.054122
1.20415
0.0719529
1.21013
0.0890844
1.21727
0.105823
1.22543
0.120717
0.135402
1.30131
0.0155461
-1.30016
1.30383
0.0330998
1.30762
0.0503315
1.31276
0.0668066
1.31921
0.0826416
1.32693
0.0981011
1.33577
0.111871
0.125453
1.41905
0.0143401
-1.41784
1.42198
0.0301721