/*--------------------------------*- C++ -*----------------------------------*\
| =========                 |                                                 |
| \\      /  F ield         | OpenFOAM: The Open Source CFD Toolbox           |
|  \\    /   O peration     | Version:  2312                                  |
|   \\  /    A nd           | Website:  www.openfoam.com                      |
|    \\/     M anipulation  |                                                 |
\*---------------------------------------------------------------------------*/
FoamFile
{
    version     2.0;
    format      ascii;
    arch        "LSB;label=32;scalar=64";
    class       surfaceScalarField;
    location    "78.25";
    object      phi;
}
// * * * * * * * * * * * * * * * * * * * * * * * * * * * * * * * * * * * * * //

dimensions      [0 3 -1 0 0 0 0];

oriented        oriented;

internalField   nonuniform List<scalar> 
10785
(
-0.00132665
0.00331549
-0.00198883
-0.00242692
0.00483536
-0.0037351
-0.00072901
0.00208379
-0.0037817
0.00636889
-0.00616372
-0.000934175
0.0210579
-0.0207186
0.00602959
0.0438151
-0.0404708
0.0177135
0.0731689
-0.0627814
0.0334276
0.106443
-0.0849542
0.05168
0.140423
-0.104917
0.0709374
0.172863
-0.121858
0.0894172
0.200728
-0.135353
0.107489
0.223638
-0.145586
0.122676
0.240854
-0.154586
0.13737
0.25178
-0.160224
0.149298
-0.168989
0.160231
0.260537
-0.000356408
0.0036719
0.000997403
0.00348155
0.00715678
-0.00407559
0.021156
-0.0201629
0.0437384
-0.043301
0.0725246
-0.0692569
0.103534
-0.0937905
0.132846
-0.114266
0.157816
-0.129887
0.177087
-0.141129
0.190913
-0.149178
0.201385
-0.156058
0.209488
-0.16269
0.219564
-0.1703
-0.180603
0.231179
0.000438871
0.00323303
0.00455793
-0.000637504
0.016251
-0.0157687
0.0372421
-0.041154
0.0645286
-0.0705876
0.0928053
-0.0975336
0.117566
-0.118551
0.136572
-0.133273
0.149891
-0.143206
0.159281
-0.150519
0.167403
-0.1573
0.175805
-0.164461
0.185626
-0.17251
0.196256
-0.18093
-0.189513
0.205166
0.00123626
0.00199677
0.0088404
-0.00824165
0.026506
-0.0334343
0.0516483
-0.0662962
0.0775367
-0.0964761
0.0989721
-0.118969
0.114226
-0.133805
0.124442
-0.143488
0.132029
-0.150794
0.139164
-0.157654
0.146529
-0.164666
0.154111
-0.172042
0.161169
-0.179569
0.167639
-0.1874
-0.196277
0.174403
0.0023604
-0.000363637
0.014221
-0.0201022
0.0360309
-0.0552442
0.0599619
-0.0902272
0.0794878
-0.116002
0.0928186
-0.1323
0.10148
-0.142466
0.107841
-0.149849
0.113491
-0.156444
0.118805
-0.162968
0.123894
-0.169754
0.128811
-0.176959
0.133936
-0.184694
0.139749
-0.193213
-0.201932
0.145404
0.00396585
-0.00432949
0.0197081
-0.0358445
0.0415035
-0.0770396
0.0602518
-0.108976
0.0729431
-0.128693
0.0808023
-0.140159
0.0860264
-0.14769
0.0900975
-0.15392
0.0936494
-0.159996
0.097093
-0.166411
0.10065
-0.173311
0.104398
-0.180707
0.108281
-0.188577
0.111867
-0.196798
-0.205347
0.115282
0.00598224
-0.0103117
0.0234814
-0.0533436
0.0417302
-0.0952885
0.0546633
-0.121909
0.0622954
-0.136325
0.0666473
-0.144511
0.0694331
-0.150476
0.0716134
-0.156101
0.0736619
-0.162045
0.0756755
-0.168425
0.0776203
-0.175256
0.0794959
-0.182582
0.0812882
-0.19037
0.0831399
-0.19865
-0.207218
0.0850115
0.00781275
-0.0181245
0.0242768
-0.0698077
0.0379162
-0.108928
0.0459612
-0.129954
0.0498958
-0.14026
0.0517206
-0.146336
0.0526983
-0.151454
0.0533654
-0.156768
0.0538294
-0.162509
0.0541316
-0.168727
0.0543324
-0.175457
0.0544604
-0.18271
0.05461
-0.190519
0.0547012
-0.198741
0.0547505
-0.207268
-0.0019811
-0.0150778
0.0170589
-0.00647197
-0.0243463
0.0288371
-0.0126023
-0.0250547
0.031185
-0.0198555
-0.0232863
0.0305395
-0.0278842
-0.0208755
0.0289043
-0.0363938
-0.017472
0.0259816
-0.0450824
-0.0123171
0.0210057
-0.0536428
-0.00470592
0.0132663
-0.0609556
0.00531763
0.00199517
-0.0673129
0.0181098
-0.0117526
-0.0718254
0.0336345
-0.0291219
-0.0735531
0.0512202
-0.0494925
-0.0718115
0.0700235
-0.0717651
-0.0665313
0.0889444
-0.0942247
0.105288
-0.0562368
-0.115582
-0.00266152
-0.0124163
-0.00780349
-0.0192043
-0.0144108
-0.0184474
-0.0221403
-0.0155568
-0.0306899
-0.0123259
-0.0396624
-0.00849948
-0.0485634
-0.0034162
-0.0566071
0.00333785
-0.063257
0.0119675
-0.0676337
0.0224865
-0.0687894
0.0347902
-0.0657569
0.0481878
-0.056177
0.0604436
-0.0417571
0.0745245
0.0811171
-0.0175866
-0.00269663
-0.00971965
-0.0075139
-0.014387
-0.0133706
-0.0125907
-0.0199742
-0.00895317
-0.0270055
-0.00529467
-0.0339038
-0.00160117
-0.0400798
0.00275984
-0.0446971
0.00795511
-0.0468671
0.0141375
-0.0455842
0.0212036
-0.0392995
0.0285054
-0.0284584
0.0373467
-0.00945282
0.041438
0.0150029
0.0500688
0.043757
0.052363
-0.00242897
-0.00729069
-0.00653034
-0.0102857
-0.011112
-0.00800901
-0.0158117
-0.00425346
-0.0202807
-0.000825729
-0.0240606
0.00217874
-0.0262394
0.0049386
-0.0259983
0.00771405
-0.0223844
0.0105236
-0.0144971
0.0133163
-0.00138509
0.0153934
0.0174677
0.0184939
0.046141
0.0127648
0.0763132
0.0198966
4.9475e-05
0.120021
-0.00224989
-0.00504079
-0.00587207
-0.00666348
-0.00949658
-0.0043845
-0.012608
-0.00114201
-0.0148992
0.00146545
-0.0157338
0.0030133
-0.0143673
0.00357216
-0.00991365
0.00326037
-0.00144978
0.00205977
0.0122353
-0.000368776
0.0317401
-0.00411137
0.0571122
-0.00687817
0.0913101
-0.0214331
0.130473
-0.0192668
-0.0478633
0.178386
-0.00234401
-0.00269679
-0.00599351
-0.00301399
-0.00938709
-0.000990918
-0.0117671
0.00123799
-0.012611
0.00230935
-0.0111836
0.00158594
-0.00644148
-0.00116997
0.00273812
-0.00591923
0.0175788
-0.0127809
0.0386185
-0.0214085
0.0663938
-0.0318866
0.102496
-0.0429805
0.141856
-0.0607933
0.191934
-0.0693442
-0.0985104
0.242581
-0.00249458
-0.000202207
-0.00624931
0.000740741
-0.00942064
0.00218041
-0.0108414
0.00265878
-0.00932777
0.000795685
-0.00355351
-0.00418831
0.00779037
-0.0125138
0.0257013
-0.0238302
0.0506829
-0.0377626
0.0819523
-0.0526779
0.119263
-0.0691976
0.162072
-0.0857895
0.204461
-0.103182
0.254359
-0.119242
-0.139108
0.294956
-0.00219104
-0.0051854
-0.00678668
-0.00506208
0.0017632
0.0152884
0.0362022
0.064052
0.0972269
0.133966
0.172258
0.209144
0.243332
0.273388
0.294511
-0.0242077
0.262122
-0.294151
0.0290384
0.272607
-0.325853
0.102566
0.156154
-0.229682
0.173161
-0.0510033
-0.0195924
0.210705
-0.2355
0.197957
0.224153
-0.336932
0.323485
0.220616
-0.331677
0.335213
0.188674
-0.321153
0.353095
0.154667
-0.351234
0.385242
0.169556
-0.258393
0.243504
0.22327
-0.0226168
-0.0310979
0.257365
0.142995
-0.177089
0.260889
0.273605
-0.27713
0.263358
0.408925
-0.411394
0.267929
0.442083
-0.446654
0.272132
0.312242
-0.316446
0.283656
0.0617496
-0.0732729
0.292342
-0.235589
0.226902
0.294376
-0.513942
0.511909
0.298842
-0.549931
0.545465
0.301169
-0.259765
0.257438
0.306968
0.183537
-0.189336
0.316339
0.568326
-0.577697
0.317621
0.62285
-0.624131
0.297343
0.163504
-0.143226
0.279245
-0.499164
0.517262
0.287313
-0.538484
0.530416
0.284571
0.108218
-0.105476
0.2613
0.534204
-0.510934
0.230389
0.355341
-0.324429
0.217909
-0.132349
0.144828
0.230908
-0.268565
0.255566
0.24445
-0.0365423
0.0230008
0.239975
0.276879
-0.272405
0.222382
0.293015
-0.275422
0.200887
0.160601
-0.139106
0.196457
-0.213051
0.21748
-0.325765
0.316175
0.0365947
0.207941
0.101161
0.208041
0.161935
0.095381
0.210029
-0.0990975
0.228271
-0.253742
0.225086
-0.333747
0.21628
-0.322871
0.189051
-0.293924
0.155403
-0.317587
0.165754
-0.268744
0.219159
-0.0760213
0.255747
0.106407
0.262455
0.266897
0.264158
0.407223
0.266869
0.439372
0.272276
0.306835
0.28354
0.0504861
0.288095
-0.240144
0.284429
-0.510276
0.288194
-0.553696
0.293891
-0.265462
0.303935
0.173493
0.318488
0.553772
0.322402
0.618935
0.299069
0.186838
0.275002
-0.475097
0.284494
-0.547977
0.287945
0.104768
0.267853
0.554296
0.235948
0.387246
0.221086
-0.117487
0.233651
-0.28113
0.247558
-0.0504494
0.243174
0.281264
0.226786
0.309402
0.205723
0.181665
0.200046
-0.207374
-0.334405
0.115575
0.144729
0.176404
0.147211
0.219595
0.0521898
0.24637
-0.125873
0.248956
-0.256328
0.231647
-0.316439
0.21592
-0.307143
0.192375
-0.27038
0.162982
-0.288194
0.168587
-0.274349
0.215558
-0.122993
0.250842
0.071123
0.260747
0.256992
0.262293
0.405677
0.264036
0.437629
0.269659
0.301211
0.280104
0.0400406
0.280522
-0.240562
0.270152
-0.499905
0.272544
-0.556087
0.282336
-0.275254
0.296966
0.158863
0.316425
0.534314
0.32288
0.61248
0.298174
0.211544
0.268161
-0.445084
0.278334
-0.55815
0.289312
0.09379
0.273432
0.570175
0.240848
0.419831
0.223365
-0.100004
0.235143
-0.292908
0.249817
-0.0651226
0.245905
0.285175
0.230698
0.324609
0.210479
0.201884
0.203939
-0.200834
-0.342139
0.175592
0.089158
0.227732
0.0950706
0.264018
0.0159039
0.276736
-0.13859
0.26421
-0.243802
0.235118
-0.287347
0.214705
-0.28673
0.193584
-0.249258
0.16634
-0.26095
0.171638
-0.279647
0.217212
-0.168566
0.25297
0.0353653
0.261861
0.248101
0.25716
0.410378
0.256653
0.438137
0.263219
0.294645
0.272901
0.0303588
0.270226
-0.237887
0.253301
-0.482981
0.253629
-0.556415
0.267638
-0.289263
0.285612
0.140889
0.308223
0.511703
0.317672
0.603031
0.293593
0.235622
0.259248
-0.41074
0.269255
-0.568157
0.288157
0.0748886
0.277277
0.581055
0.244604
0.452504
0.224606
-0.0800057
0.235416
-0.303719
0.251245
-0.0809513
0.248144
0.288276
0.233993
0.33876
0.214935
0.220942
0.207987
-0.193886
-0.349111
0.21916
0.0483839
0.261367
0.0528639
0.293191
-0.01592
0.291998
-0.137397
0.264813
-0.216617
0.228601
-0.251135
0.206777
-0.264906
0.191583
-0.234065
0.163226
-0.232593
0.164257
-0.280678
0.215059
-0.219368
0.252598
-0.00217355
0.260625
0.240073
0.253528
0.417475
0.251963
0.439702
0.257108
0.289499
0.263868
0.0235995
0.257749
-0.231769
0.234576
-0.459807
0.231524
-0.553363
0.249823
-0.307562
0.272373
0.118339
0.297727
0.486348
0.309357
0.591402
0.286192
0.258787
0.248651
-0.373198
0.257635
-0.577141
0.284771
0.0477519
0.279761
0.586065
0.247275
0.48499
0.224786
-0.0575163
0.2345
-0.313433
0.251823
-0.0982741
0.24986
0.290239
0.236686
0.351934
0.219038
0.23859
0.212097
-0.186945
-0.355503
0.266397
0.024568
0.296837
0.0224238
0.313771
-0.0328538
0.296901
-0.120527
0.259696
-0.179412
0.220268
-0.211707
0.194482
-0.23912
0.185232
-0.224814
0.160052
-0.207413
0.145418
-0.266044
0.193707
-0.267658
0.245414
-0.05388
0.257081
0.228406
0.248278
0.426278
0.245935
0.442046
0.249988
0.285446
0.253368
0.0202198
0.243172
-0.221573
0.214736
-0.431372
0.207858
-0.546484
0.229886
-0.329591
0.255421
0.0928045
0.281509
0.460261
0.295836
0.577075
0.275639
0.278984
0.23681
-0.334369
0.243726
-0.584057
0.278454
0.013024
0.280036
0.584483
0.248423
0.516603
0.223837
-0.032931
0.232436
-0.322032
0.25147
-0.117308
0.251043
0.290666
0.238903
0.364074
0.22284
0.254653
0.216219
-0.180324
-0.361497
0.303977
0.0155473
0.318015
0.00838578
0.313985
-0.0288236
0.283989
-0.0905319
0.244789
-0.140212
0.208842
-0.17576
0.180746
-0.211024
0.172152
-0.21622
0.157866
-0.193127
0.128042
-0.23622
0.158013
-0.297629
0.231228
-0.127095
0.259322
0.200312
0.252744
0.432855
0.246777
0.448013
0.243991
0.288232
0.240175
0.0240357
0.227187
-0.208585
0.194738
-0.398923
0.182976
-0.534722
0.208348
-0.354963
0.238945
0.0622068
0.266697
0.432508
0.282559
0.561213
0.263828
0.297715
0.224287
-0.294828
0.22841
-0.58818
0.27022
-0.028786
0.278668
0.576035
0.248181
0.54709
0.221759
-0.00650895
0.229228
-0.3295
0.250146
-0.138226
0.251631
0.289181
0.240691
0.375013
0.226384
0.26896
0.220315
-0.174255
-0.367264
0.295631
0.0144274
0.29964
0.00437721
0.287397
-0.0165804
0.259319
-0.062454
0.22673
-0.107623
0.195981
-0.145011
0.168322
-0.183365
0.156192
-0.20409
0.150632
-0.187567
0.120519
-0.206108
0.122039
-0.299149
0.189661
-0.194716
0.242174
0.147799
0.249216
0.425813
0.243096
0.454133
0.235983
0.295346
0.229185
0.0308333
0.21274
-0.192141
0.175923
-0.362106
0.158642
-0.51744
0.185147
-0.381468
0.218219
0.029135
0.246
0.404728
0.264545
0.542667
0.250233
0.312027
0.21105
-0.255644
0.212103
-0.589233
0.258764
-0.075446
0.275092
0.559707
0.246665
0.575516
0.218827
0.0213294
0.225191
-0.335865
0.247736
-0.160771
0.251631
0.285287
0.24223
0.384414
0.22973
0.281459
0.224305
-0.16883
-0.373086
0.492225
0.0102208
-0.488018
0.500243
-0.00364103
0.503548
-0.0198856
0.497697
-0.056603
0.479025
-0.0889516
0.458115
-0.1241
0.431353
-0.156603
0.39654
-0.169278
0.383321
-0.174347
0.355373
-0.17816
0.307722
-0.251497
0.305753
-0.192748
0.291723
0.161829
0.26487
0.452665
0.302463
0.416541
0.3664
0.231408
0.414889
-0.0176559
0.438293
-0.215544
0.405794
-0.329607
0.354359
-0.466005
0.327151
-0.35426
0.304148
0.0521375
0.304405
0.404471
0.356168
0.490904
0.401569
0.266627
0.391279
-0.245355
0.371288
-0.569242
0.386847
-0.0910056
0.389763
0.556791
0.370058
0.595221
0.356345
0.0350427
0.367126
-0.346646
0.383112
-0.176757
0.378432
0.289967
0.364846
0.398001
0.351682
0.294623
0.342808
-0.159956
-0.374358
0.522937
0.00844756
-0.521164
0.526186
-0.00688986
0.526753
-0.0204532
0.519897
-0.0497471
0.503114
-0.0721679
0.478565
-0.0995518
0.452252
-0.13029
0.413816
-0.130842
0.387852
-0.148384
0.367558
-0.157866
0.322112
-0.206051
0.293646
-0.164282
0.273716
0.18176
0.281694
0.444687
0.360814
0.33742
0.434957
0.157265
0.474198
-0.0568975
0.477512
-0.218857
0.422519
-0.274614
0.359284
-0.40277
0.33141
-0.326387
0.305403
0.0781447
0.310532
0.399342
0.385016
0.41642
0.440285
0.211358
0.420866
-0.225936
0.397892
-0.546267
0.416517
-0.109631
0.425612
0.547696
0.407326
0.613507
0.397095
0.0452739
0.40941
-0.358962
0.425414
-0.192761
0.421093
0.294288
0.408597
0.410498
0.397684
0.305536
0.387612
-0.149883
-0.372858
0.555509
0.00638874
-0.55345
0.557093
-0.00847399
0.556272
-0.0196321
0.548457
-0.0419321
0.538261
-0.0619725
0.51647
-0.077761
0.493519
-0.107339
0.470231
-0.107554
0.441024
-0.119177
0.405065
-0.121908
0.343631
-0.144616
0.291715
-0.112366
0.275039
0.198435
0.337672
0.382054
0.451683
0.22341
0.51486
0.0940886
0.529708
-0.0717461
0.522458
-0.211607
0.462117
-0.214274
0.378208
-0.31886
0.332527
-0.280706
0.299035
0.111636
0.319211
0.379166
0.425952
0.30968
0.487701
0.149608
0.455458
-0.193693
0.424641
-0.51545
0.447789
-0.132778
0.461573
0.533912
0.448019
0.627061
0.441334
0.0519587
0.45543
-0.373058
0.472165
-0.209495
0.469043
0.297409
0.459147
0.420394
0.45104
0.313643
0.43896
-0.137803
-0.367788
0.591277
0.00421422
-0.589102
0.590269
-0.00746636
0.588283
-0.0176461
0.579974
-0.0336226
0.567294
-0.0492931
0.550075
-0.0605415
0.526907
-0.0841707
0.500945
-0.0815915
0.476569
-0.094801
0.450185
-0.0955241
0.393975
-0.0884062
0.340333
-0.0587237
0.353749
0.18502
0.450124
0.285679
0.55289
0.120644
0.592979
0.0539989
0.580806
-0.0595723
0.553432
-0.184234
0.490859
-0.151701
0.39784
-0.22584
0.330279
-0.213146
0.294456
0.14746
0.341356
0.332266
0.47418
0.176856
0.541928
0.0818595
0.493457
-0.145222
0.449751
-0.471744
0.47673
-0.159757
0.497635
0.513007
0.493531
0.631165
0.492805
0.0526841
0.507507
-0.38776
0.524061
-0.226049
0.522934
0.298536
0.516951
0.426377
0.512265
0.318328
0.497532
-0.12307
-0.358339
0.629371
0.00304511
-0.628202
0.627941
-0.00603607
0.624951
-0.0146559
0.617125
-0.0257969
0.607269
-0.0394372
0.592859
-0.0461316
0.573741
-0.0650524
0.553118
-0.0609682
0.527783
-0.0694662
0.500588
-0.0683295
0.45556
-0.043378
0.428166
-0.0313295
0.478189
0.134997
0.568291
0.195577
0.62845
0.0604848
0.643785
0.0386646
0.626943
-0.0427303
0.600447
-0.157738
0.549282
-0.100536
0.461494
-0.138053
0.382827
-0.134478
0.35228
0.178006
0.41288
0.271666
0.536594
0.0531419
0.601175
0.0172792
0.544667
-0.0887148
0.479416
-0.406492
0.506764
-0.187105
0.540791
0.47898
0.54741
0.624546
0.551066
0.0490278
0.563184
-0.399877
0.578014
-0.240879
0.580286
0.296264
0.581446
0.425217
0.581622
0.318152
0.56362
-0.105067
-0.343675
0.672161
0.00225521
-0.671371
0.670255
-0.0041297
0.667296
-0.0116968
0.660453
-0.0189541
0.650993
-0.029977
0.638449
-0.0335875
0.620349
-0.046953
0.604286
-0.0449047
0.582285
-0.0474653
0.563623
-0.0496674
0.538874
-0.0186295
0.523133
-0.015588
0.575995
0.0821344
0.645629
0.125943
0.677726
0.0283876
0.683083
0.0333077
0.662385
-0.0220324
0.632889
-0.128242
0.595131
-0.0627772
0.532453
-0.0753751
0.480306
-0.0823306
0.481188
0.177124
0.534948
0.217907
0.611727
-0.0236379
0.66078
-0.0317738
0.608555
-0.03649
0.517014
-0.31495
0.519577
-0.189668
0.568154
0.430402
0.602738
0.589962
0.618525
0.0332406
0.623959
-0.405311
0.635341
-0.25226
0.64415
0.287454
0.654574
0.414793
0.659421
0.313304
0.637286
-0.0829319
-0.32316
0.720049
0.00197586
-0.71977
0.718347
-0.00242751
0.715114
-0.00846394
0.709252
-0.0130919
0.700724
-0.0214494
0.691153
-0.0240168
0.676601
-0.0324002
0.664325
-0.0326286
0.647476
-0.0306172
0.63256
-0.034751
0.621202
-0.00727179
0.611961
-0.0063466
0.652152
0.041943
0.698687
0.0794083
0.713424
0.01365
0.725836
0.0208963
0.714626
-0.0108228
0.681094
-0.0947097
0.650827
-0.0325101
0.607897
-0.0324454
0.586502
-0.0609356
0.62239
0.141236
0.665575
0.174721
0.690287
-0.0483503
0.71442
-0.0559066
0.679736
-0.00180553
0.573935
-0.20915
0.534325
-0.150058
0.593437
0.37129
0.67381
0.509589
0.700519
0.00653192
0.687638
-0.39243
0.687933
-0.252556
0.705629
0.269759
0.730036
0.390387
0.741773
0.301567
0.716328
-0.0574861
-0.296994
0.77411
0.00218011
-0.774315
0.772578
-0.000894764
0.76936
-0.00524594
0.764868
-0.0086007
0.757612
-0.0141925
0.750202
-0.0166077
0.738788
-0.0209862
0.728847
-0.0226867
0.717409
-0.0191798
0.705264
-0.0226059
0.70268
-0.00468814
0.697926
-0.00159233
0.720442
0.0194272
0.754125
0.0457248
0.761668
0.00610737
0.76962
0.0129446
0.763006
-0.00420914
0.733252
-0.064956
0.71941
-0.018668
0.694947
-0.00798235
0.678046
-0.0440346
0.724343
0.0949394
0.763336
0.135729
0.754196
-0.0392104
0.75504
-0.0567513
0.741754
0.0114807
0.655995
-0.12339
0.598844
-0.0929073
0.672062
0.298073
0.781615
0.400035
0.798376
-0.0102292
0.75263
-0.346685
0.736967
-0.236893
0.767302
0.239424
0.809897
0.347791
0.828285
0.283179
0.799247
-0.0284478
-0.265569
0.834601
0.00266057
-0.835082
0.833365
0.000341774
0.830585
-0.00246666
0.827091
-0.00510602
0.821375
-0.00847679
0.815506
-0.0107383
0.807393
-0.012874
0.799519
-0.0148122
0.792385
-0.0120455
0.783835
-0.0140562
0.783067
-0.00392051
0.781656
-0.000180855
0.79358
0.00750331
0.814694
0.0246103
0.818552
0.00224964
0.82556
0.0059366
0.823992
-0.0026409
0.798454
-0.039418
0.789876
-0.0100904
0.77908
0.00281377
0.759902
-0.0248563
0.796179
0.0586622
0.83607
0.0958375
0.81999
-0.02313
0.806014
-0.0427753
0.803039
0.0144556
0.74809
-0.0684411
0.706967
-0.0517844
0.790984
0.214056
0.898509
0.292511
0.893472
-0.0051918
0.813511
-0.266724
0.781162
-0.204544
0.825885
0.194701
0.884652
0.289024
0.908002
0.259829
0.878654
0.000899843
-0.232077
0.902395
0.003115
-0.902849
0.901367
0.00136954
0.899225
-0.000325118
0.896516
-0.00239657
0.89235
-0.00431122
0.887872
-0.00626
0.882323
-0.00732549
0.876508
-0.00899713
0.871827
-0.0073643
0.866108
-0.00833734
0.86564
-0.00345255
0.865835
-0.00037519
0.871508
0.00182987
0.884113
0.0120056
0.886919
-0.000556037
0.889961
0.00289438
0.889376
-0.00205618
0.871754
-0.0217957
0.866186
-0.00452225
0.863176
0.00582347
0.847269
-0.00894904
0.868752
0.0371784
0.901094
0.0634961
0.887128
-0.00916417
0.869317
-0.0249639
0.873205
0.0105671
0.844859
-0.0400947
0.820196
-0.0271218
0.893618
0.140634
0.983118
0.20301
0.969321
0.00860547
0.873104
-0.170507
0.822175
-0.153615
0.87019
0.146687
0.941342
0.217872
0.975472
0.225699
0.955055
0.0213163
-0.201229
0.978049
0.00349937
-0.978434
0.977244
0.00217468
0.975646
0.00127349
0.97364
-0.000390704
0.970731
-0.00140291
0.967483
-0.00301188
0.963733
-0.00357485
0.959651
-0.00491553
0.956504
-0.00421706
0.95294
-0.00477377
0.952346
-0.00285834
0.952623
-0.000652366
0.955428
-0.000975376
0.96201
0.00542387
0.963572
-0.00211788
0.965369
0.00109785
0.965055
-0.00174259
0.954238
-0.0109791
0.94975
-3.38682e-05
0.94874
0.00683341
0.938324
0.00146701
0.949798
0.0257048
0.972256
0.0410378
0.964252
-0.00116033
0.948975
-0.00968675
0.952791
0.00675061
0.939829
-0.0271324
0.924396
-0.0116892
0.975307
0.0897235
1.04475
0.133564
1.03444
0.0189153
0.94529
-0.0813542
0.886591
-0.0949157
0.929454
0.103823
1.00524
0.142089
1.04796
0.182975
1.03695
0.0323231
-0.174123
1.06184
0.00374615
-1.06209
1.06128
0.0027366
1.0602
0.00234985
1.05879
0.00102322
1.05684
0.000544601
1.05462
-0.000788069
1.05214
-0.00109619
1.04942
-0.00219467
1.0473
-0.00210165
1.045
-0.00247066
1.04437
-0.00222616
1.04439
-0.000677419
1.04553
-0.00211058
1.04883
0.00212038
1.04955
-0.00283638
1.05016
0.000488788
1.04968
-0.00126749
1.04307
-0.00436288
1.04029
0.00274457
1.03999
0.00713287
1.03408
0.00737491
1.04031
0.0194766
1.05319
0.0281587
1.04803
0.0039987
1.03903
-0.000689334
1.04231
0.00347339
1.03605
-0.0208678
1.02825
-0.0038925
1.0628
0.0551718
1.10994
0.0864242
1.09977
0.0290887
1.03389
-0.0154795
0.989924
-0.0509458
1.0289
0.0648437
1.0939
0.0770875
1.13064
0.146242
1.12236
0.0406009
-0.149708
1.15439
0.00383772
-1.15448
1.15407
0.00306253
1.15342
0.00299728
1.15251
0.00193666
1.15126
0.00179021
1.14981
0.000663151
1.14822
0.000490918
1.14646
-0.000437983
1.14504
-0.00067267
1.14355
-0.000987911
1.14292
-0.00159432
1.1427
-0.000459434
1.143
-0.00240571
1.14436
0.000757466
1.14445
-0.00292333
1.14451
0.000424793
1.14406
-0.00081176
1.14037
-0.000676345
1.13854
0.00457504
1.13853
0.00714067
1.13519
0.0107165
1.1384
0.0162614
1.14582
0.0207391
1.14279
0.00703433
1.13826
0.00384021
1.14094
0.000788009
1.13755
-0.0174693
1.13466
-0.00100419
1.15891
0.0309164
1.18959
0.0557462
1.17975
0.0389329
1.13611
0.0281531
1.1113
-0.026133
1.14478
0.0313701
1.1914
0.0304598
1.21741
0.120236
1.21161
0.0464012
-0.129364
1.25629
0.00381389
-1.25626
1.25615
0.00319459
1.25582
0.00333394
1.2553
0.00245841
1.25457
0.00251611
1.25368
0.00155353
1.2527
0.0014673
1.2516
0.000659553
1.25067
0.000259687
1.24969
-9.17331e-06
1.24914
-0.0010371
1.2488
-0.000123828
1.24866
-0.00226901
1.24908
0.000345519
1.24889
-0.00273774
1.24867
0.000641447
1.24817
-0.000310427
1.24621
0.00128882
1.245
0.00578586
1.24504
0.00709476
1.24347
0.0122928
1.24512
0.014604
1.24896
0.0168983
1.24726
0.00873606
1.24576
0.00534675
1.24825
-0.00171
1.24674
-0.0159552
1.24721
-0.00147119
1.26371
0.0144124
1.2819
0.0375552
1.27315
0.0476819
1.24782
0.0534902
1.23673
-0.0150474
1.26182
0.00627961
1.29065
0.00163156
1.30778
0.103101
1.3071
0.047087
-0.113888
1.36821
0.00368029
-1.36807
1.36824
0.0031636
1.36814
0.00343402
1.3679
0.0026912
1.36754
0.00287622
1.36705
0.00204486
1.36651
0.00200991
1.36585
0.0013154
1.36528
0.000834888
1.36465
0.000621999
1.36419
-0.000584071
1.36385
0.000222221
1.36355
-0.0019669
1.36354
0.000352077
1.3632
-0.00239383
1.3629
0.000937595
1.36247
0.000122936
1.36144
0.00231858
1.36077
0.00644724
1.36088
0.00698823
1.36025
0.0129202
1.36129
0.0135718
1.36351
0.0146726
1.36278
0.00946949
1.36292
0.00520803
1.3651
-0.00389315
1.3645
-0.0153557
1.3662
-0.00316651
1.37711
0.00350107
1.38763
0.0270306
1.3816
0.053717
1.36963
0.0654548
1.36555
-0.0109668
1.38151
-0.00967526
1.39675
-0.0136068
1.41019
0.0896554
1.41396
0.0433156
-0.10148
1.49098
0.00345882
-1.49076
1.49113
0.00301099
1.4912
0.00336513
1.49118
0.00271859
1.49107
0.00297792
1.49086
0.00225923
1.49062
0.00224882
1.49026
0.00167308
1.48995
0.0011487
1.48955
0.00101719
1.48923
-0.000255583
1.48894
0.00050555
1.4886
-0.00162577
1.48846
0.00049421
1.48809
-0.00202016
1.48782
0.00120722
1.4875
0.000435742
1.48699
0.00283339
1.48673
0.00670616
1.48698
0.00674229
1.48691
0.0129822
1.48788
0.0126023
1.48936
0.013199
1.48918
0.00964133
1.49035
0.00403882
1.4922
-0.00574112
1.49195
-0.0150996
1.49417
-0.00539177
1.50124
-0.0035641
1.50668
0.0215911
1.50298
0.0574166
1.50037
0.0680643
1.50022
-0.0108198
1.50898
-0.018435
1.51491
-0.0195414
1.52618
0.0783885
1.53296
0.0365403
-0.0902343
1.6256
0.00315229
-1.62529
1.62585
0.00276037
1.62605
0.00315697
1.62618
0.00259542
1.62626
0.00289244
1.62624
0.00228426
1.62621
0.00227997
1.62604
0.00183799
1.62591
0.00128118
1.62565
0.00127957
1.62541
-1.62285e-05
1.62514
0.000769377
1.62477
-0.0012483
1.62458
0.000682951
1.62411
-0.00155446
1.62395
0.00137379
1.6237
0.000684688
1.62356
0.00297466
1.6238
0.006461
1.62433
0.00621288
1.62496
0.0123497
1.62633
0.0112321
1.62768
0.0118534
1.62809
0.00923167
1.62965
0.00247939
1.63036
-0.00645134
1.62959
-0.0143297
1.63145
-0.00725209
1.63505
-0.00716395
1.63758
0.0190628
1.63852
0.0564767
1.64363
0.062951
1.64395
-0.0111381
1.6457
-0.0201852
1.6457
-0.0195418
1.65929
0.0647991
1.66703
0.0287956
-0.0771713
1.77313
0.00276
-1.77274
1.77347
0.0024227
1.77379
0.0028344
1.77403
0.00235732
1.77425
0.00266885
1.77436
0.0021761
1.77447
0.00217013
1.77442
0.00188389
1.7744
0.00130127
1.7742
0.00148328
1.774
0.000181964
1.77371
0.00106256
1.77326
-0.000795733
1.77303
0.000908371
1.77241
-0.000928529
1.77238
0.00140184
1.77212
0.00094351
1.77231
0.00278551
1.77312
0.00565089
1.77392
0.00541019
1.77545
0.0108215
1.77741
0.00927076
1.77886
0.0104067
1.77999
0.00809705
1.78164
0.000827527
1.78083
-0.0056382
1.77954
-0.0130414
1.78073
-0.00844173
1.78084
-0.00727307
1.78138
0.0185193
1.78751
0.0503535
1.79905
0.0514117
1.79789
-0.0099781
1.79298
-0.0152825
1.79018
-0.0167329
1.80727
0.0477003
1.81516
0.0209132
-0.0611768
1.93496
0.00213368
-1.93433
1.93546
0.00191415
1.93604
0.00226265
1.93645
0.0019428
1.93687
0.00224611
1.93714
0.00191296
1.9373
0.00200162
1.93734
0.00185274
1.93716
0.00147406
1.93687
0.00178081
1.9363
0.000752214
1.93569
0.00166949
1.9347
0.0001963
1.93412
0.0014851
1.93291
0.000280315
1.93287
0.00144641
1.93245
0.00135701
1.93304
0.00219349
1.93504
0.00365413
1.93655
0.00390332
1.94045
0.0069211
1.94409
0.005634
1.94703
0.00745779
1.94995
0.00518172
1.94983
0.000942927
1.94515
-0.000954689
1.94068
-0.00856587
1.93681
-0.00458124
1.93055
-0.00100749
1.93293
0.0161417
1.95342
0.0298625
1.97515
0.0296794
1.96888
-0.00370998
1.95468
-0.00108376
1.94888
-0.0109322
1.9712
0.0253877
1.97767
0.0144385
-0.0403784
2.11083
0.00144855
-2.11014
2.11138
0.00136299
2.11207
0.00157049
2.11259
0.00142788
2.11319
0.00164682
2.11362
0.00148061
2.11399
0.00163539
2.11428
0.00155429
2.11427
0.00148523
2.11438
0.00167205
2.11392
0.00121042
2.11382
0.0017741
2.11301
0.00100215
2.1128
0.00169976
2.11199
0.00108447
2.11194
0.00150104
2.11187
0.00142901
2.11232
0.0017411
2.11402
0.00195052
2.11545
0.00247281
2.1191
0.00327342
2.12201
0.00272347
2.12544
0.00403378
2.1279
0.00271847
2.12691
0.00193705
2.1234
0.00254976
2.11731
-0.00247995
2.11142
0.00131505
2.10699
0.00342146
2.11279
0.0103417
2.13257
0.0100815
2.15014
0.0121107
2.14655
-0.000118512
2.1378
0.00766381
2.12999
-0.00312041
2.14118
0.0141994
2.14702
0.00859365
-0.026747
2.30295
0.000954218
-2.30246
2.30339
0.000919062
2.30394
0.00102788
2.3044
0.000964469
2.30496
0.00108271
2.30544
0.00100662
2.30597
0.00110448
2.30647
0.00105566
2.30687
0.00107787
2.30743
0.00111552
2.30764
0.000996587
2.30824
0.00117738
2.30834
0.000899805
2.30882
0.00122383
2.30903
0.000869373
2.30927
0.00126661
2.30968
0.00101521
2.31003
0.00138927
2.31058
0.00140918
2.31145
0.0016022
2.31273
0.00199366
2.31364
0.00180571
2.3155
0.00217622
2.31631
0.00190546
2.31668
0.00156934
2.3175
0.00173597
2.31489
0.000127085
2.3136
0.00259955
2.31514
0.00188715
2.31995
0.0055323
2.32492
0.00511072
2.33033
0.00669903
2.33149
-0.00127918
2.33413
0.00502084
2.32961
0.00140618
2.33199
0.0118137
2.33664
0.00394428
-0.0193589
2.51456
0.000478456
-2.51408
2.515
0.000472702
2.51551
0.000518338
2.51598
0.000501514
2.51651
0.000553483
2.51698
0.000530757
2.51751
0.00057933
2.518
0.000566183
2.51848
0.000590003
2.51899
0.000609942
2.51941
0.000580188
2.51993
0.000655494
2.52027
0.000560898
2.5208
0.000688172
2.52112
0.000555231
2.52168
0.000701671
2.52211
0.000581892
2.52278
0.000725689
2.52353
0.00065298
2.52437
0.00077031
2.52555
0.000810275
2.52655
0.000808787
2.52777
0.000956681
2.52871
0.000964039
2.52939
0.000881878
2.52979
0.00134543
2.52925
0.000664443
2.53006
0.0017892
2.53073
0.00121699
2.53369
0.00257239
2.5377
0.00109643
2.54226
0.00214349
2.54142
-0.000443639
2.54294
0.00350058
2.54282
0.00153224
2.54966
0.00497332
2.55149
0.00211595
-0.00843806
2.74606
-2.74558
2.74653
2.74705
2.74755
2.7481
2.74863
2.74921
2.74978
2.75037
2.75098
2.75156
2.75221
2.75278
2.75346
2.75402
2.75472
2.7553
2.75603
2.75668
2.75745
2.75826
2.75907
2.76003
2.76099
2.76187
2.76322
2.76388
2.76567
2.76689
2.76946
2.77056
2.7727
2.77226
2.77576
2.77729
2.78226
2.78438
0.426142
0.0475166
-0.418909
0.433976
0.0771777
0.441749
0.107509
0.449828
0.137325
0.458276
0.165955
0.467894
0.195548
0.477625
0.221447
0.250144
0.45922
0.0410222
-0.452725
0.466238
0.0701596
0.473886
0.0998606
0.481782
0.129428
0.490956
0.156782
0.500261
0.186244
0.510586
0.211123
0.239566
0.496081
0.0354742
-0.490533
0.502055
0.064186
0.508867
0.0930483
0.515895
0.122401
0.523764
0.148912
0.532476
0.177532
0.541783
0.201815
0.2279
0.535771
0.0306432
-0.53094
0.540992
0.058965
0.546724
0.0873169
0.553474
0.115651
0.56041
0.141976
0.569297
0.168645
0.578452
0.19266
0.21725
0.579357
0.026707
-0.57542
0.58401
0.0543121
0.58913
0.0821968
0.595559
0.109221
0.602223
0.135312
0.610255
0.160613
0.618644
0.184271
0.207692
0.626962
0.0233191
-0.623574
0.63113
0.0501438
0.635798
0.0775294
0.641502
0.103517
0.64757
0.129244
0.654586
0.153597
0.662434
0.176422
0.198755
0.679033
0.020438
-0.676152
0.682589
0.0465875
0.686759
0.0733598
0.691687
0.0985894
0.697292
0.123639
0.703896
0.146993
0.711413
0.168905
0.190398
0.735819
0.0180872
-0.733468
0.738787
0.0436192
0.74259
0.0695571
0.747202
0.0939773
0.752873
0.117968
0.759278
0.140588
0.766365
0.161818
0.182449
0.798109
0.0161391
-0.796161
0.800819
0.0409092
0.804583
0.0657938
0.809116
0.089444
0.814444
0.11264
0.820472
0.134561
0.82727
0.15502
0.174637
0.866631
0.0144833
-0.864975
0.869142
0.0383985
0.872635
0.0623005
0.876865
0.0852145
0.881979
0.107526
0.888098
0.128441
0.895015
0.148104
0.166802
0.941693
0.0131396
-0.940349
0.943997
0.0360942
0.94737
0.0589281
0.951707
0.0808768
0.957093
0.102141
0.963402
0.122132
0.970468
0.141037
0.158837
1.02415
0.0119734
-1.02299
1.02643
0.0338157
1.02988
0.0554829
1.03438
0.0763728
1.0399
0.0966228
1.04637
0.115663
1.05375
0.133659
0.150494
1.11464
0.0109245
-1.11359
1.11691
0.0315421
1.12042