/*--------------------------------*- C++ -*----------------------------------*\
| =========                 |                                                 |
| \\      /  F ield         | OpenFOAM: The Open Source CFD Toolbox           |
|  \\    /   O peration     | Version:  2512                                  |
|   \\  /    A nd           | Website:  www.openfoam.com                      |
|    \\/     M anipulation  |                                                 |
\*---------------------------------------------------------------------------*/
FoamFile
{
    version     2.0;
    format      ascii;
    arch        "LSB;label=32;scalar=64";
    class       volVectorField;
    location    "48.5";
    object      U;
}
// * * * * * * * * * * * * * * * * * * * * * * * * * * * * * * * * * * * * * //

dimensions      [0 1 -1 0 0 0 0];

internalField   nonuniform List<vector> 
9800
(
(1 -2.43066e-05 0)
(1.0001 -7.4137e-05 0)
(1.00029 -0.000125416 0)
(1.00057 -0.000178764 0)
(1.00093 -0.000234073 0)
(1.00138 -0.000290559 0)
(1.0019 -0.000347043 0)
(1.0025 -0.000402255 0)
(1.00315 -0.000455086 0)
(1.00386 -0.000504713 0)
(1.00461 -0.000550632 0)
(1.00539 -0.000592615 0)
(1.0062 -0.000630619 0)
(1.00703 -0.000664723 0)
(1.00787 -0.000695068 0)
(1.00872 -0.00072183 0)
(1.00956 -0.000745196 0)
(1.01041 -0.000765356 0)
(1.01124 -0.000782501 0)
(1.01206 -0.000796815 0)
(1.01286 -0.000808482 0)
(1.01365 -0.000817672 0)
(1.01442 -0.000824547 0)
(1.01516 -0.000829252 0)
(1.01589 -0.000831925 0)
(1.01659 -0.000832691 0)
(1.01726 -0.000831667 0)
(1.01791 -0.000828965 0)
(1.01854 -0.000824692 0)
(1.01914 -0.000818953 0)
(1.01971 -0.000811853 0)
(1.02026 -0.000803498 0)
(1.02079 -0.000793995 0)
(1.02129 -0.000783451 0)
(1.02177 -0.000771972 0)
(1.02222 -0.000759669 0)
(1.02265 -0.000746645 0)
(1.02306 -0.000733009 0)
(1.02344 -0.000718859 0)
(1.02381 -0.000704298 0)
(1 -7.1855e-05 0)
(1.0001 -0.000219246 0)
(1.00029 -0.000371022 0)
(1.00056 -0.000529038 0)
(1.00093 -0.000692999 0)
(1.00137 -0.000860582 0)
(1.00189 -0.00102828 0)
(1.00249 -0.00119233 0)
(1.00314 -0.00134943 0)
(1.00385 -0.00149713 0)
(1.0046 -0.00163394 0)
(1.00539 -0.00175917 0)
(1.0062 -0.00187267 0)
(1.00703 -0.00197467 0)
(1.00788 -0.00206557 0)
(1.00873 -0.0021459 0)
(1.00959 -0.00221617 0)
(1.01043 -0.00227694 0)
(1.01127 -0.00232876 0)
(1.0121 -0.00237216 0)
(1.01292 -0.00240766 0)
(1.01372 -0.00243576 0)
(1.01449 -0.00245692 0)
(1.01525 -0.00247158 0)
(1.01599 -0.00248012 0)
(1.0167 -0.00248292 0)
(1.01739 -0.00248031 0)
(1.01805 -0.00247263 0)
(1.01869 -0.00246019 0)
(1.0193 -0.00244331 0)
(1.01988 -0.00242229 0)
(1.02044 -0.00239746 0)
(1.02098 -0.00236914 0)
(1.02149 -0.00233765 0)
(1.02197 -0.00230331 0)
(1.02243 -0.00226645 0)
(1.02287 -0.00222739 0)
(1.02329 -0.00218645 0)
(1.02368 -0.00214394 0)
(1.02405 -0.00210017 0)
(1 -0.000117093 0)
(1.0001 -0.000357503 0)
(1.00028 -0.00060542 0)
(1.00056 -0.000863953 0)
(1.00092 -0.00113266 0)
(1.00136 -0.00140774 0)
(1.00188 -0.00168342 0)
(1.00247 -0.00195352 0)
(1.00312 -0.00221258 0)
(1.00383 -0.00245658 0)
(1.00458 -0.00268302 0)
(1.00537 -0.00289071 0)
(1.00619 -0.00307941 0)
(1.00704 -0.00324944 0)
(1.00789 -0.00340143 0)
(1.00875 -0.00353616 0)
(1.00962 -0.00365448 0)
(1.01048 -0.00375723 0)
(1.01134 -0.00384526 0)
(1.01219 -0.00391939 0)
(1.01302 -0.00398046 0)
(1.01384 -0.00402922 0)
(1.01464 -0.00406641 0)
(1.01542 -0.00409268 0)
(1.01618 -0.00410866 0)
(1.01691 -0.00411493 0)
(1.01762 -0.00411204 0)
(1.0183 -0.0041005 0)
(1.01896 -0.00408085 0)
(1.0196 -0.00405358 0)
(1.0202 -0.00401923 0)
(1.02078 -0.00397833 0)
(1.02134 -0.00393141 0)
(1.02186 -0.00387902 0)
(1.02237 -0.00382172 0)
(1.02284 -0.00376005 0)
(1.0233 -0.00369458 0)
(1.02372 -0.00362585 0)
(1.02413 -0.00355438 0)
(1.02451 -0.00348071 0)
(1 -0.000159695 0)
(1.00009 -0.000487997 0)
(1.00028 -0.000827274 0)
(1.00054 -0.00118199 0)
(1.0009 -0.00155155 0)
(1.00133 -0.00193076 0)
(1.00185 -0.00231165 0)
(1.00244 -0.00268563 0)
(1.00309 -0.00304515 0)
(1.0038 -0.00338461 0)
(1.00455 -0.00370048 0)
(1.00535 -0.00399106 0)
(1.00618 -0.00425592 0)
(1.00703 -0.00449545 0)
(1.0079 -0.00471045 0)
(1.00878 -0.0049019 0)
(1.00966 -0.00507089 0)
(1.01055 -0.00521848 0)
(1.01143 -0.00534576 0)
(1.0123 -0.00545378 0)
(1.01316 -0.0055436 0)
(1.01401 -0.00561616 0)
(1.01484 -0.0056724 0)
(1.01565 -0.00571315 0)
(1.01644 -0.00573921 0)
(1.0172 -0.00575132 0)
(1.01795 -0.00575022 0)
(1.01866 -0.00573658 0)
(1.01935 -0.00571112 0)
(1.02002 -0.00567452 0)
(1.02065 -0.00562754 0)
(1.02126 -0.00557091 0)
(1.02185 -0.00550542 0)
(1.0224 -0.00543186 0)
(1.02293 -0.00535103 0)
(1.02343 -0.00526374 0)
(1.02391 -0.00517079 0)
(1.02436 -0.005073 0)
(1.02478 -0.00497111 0)
(1.02518 -0.00486593 0)
(1 -0.000199392 0)
(1.00009 -0.000609989 0)
(1.00027 -0.00103549 0)
(1.00053 -0.00148182 0)
(1.00087 -0.00194826 0)
(1.0013 -0.00242833 0)
(1.00181 -0.00291188 0)
(1.00239 -0.00338797 0)
(1.00304 -0.00384695 0)
(1.00375 -0.00428165 0)
(1.00451 -0.00468751 0)
(1.00531 -0.00506225 0)
(1.00615 -0.00540522 0)
(1.00701 -0.0057168 0)
(1.00789 -0.00599789 0)
(1.00879 -0.00624963 0)
(1.0097 -0.00647324 0)
(1.01061 -0.00666993 0)
(1.01152 -0.00684093 0)
(1.01242 -0.00698744 0)
(1.01332 -0.00711061 0)
(1.0142 -0.00721151 0)
(1.01507 -0.00729117 0)
(1.01592 -0.00735051 0)
(1.01675 -0.00739044 0)
(1.01756 -0.0074118 0)
(1.01835 -0.00741546 0)
(1.01911 -0.00740221 0)
(1.01984 -0.00737294 0)
(1.02055 -0.00732851 0)
(1.02122 -0.00726988 0)
(1.02187 -0.00719803 0)
(1.02249 -0.007114 0)
(1.02309 -0.00701884 0)
(1.02365 -0.00691364 0)
(1.02418 -0.00679949 0)
(1.02469 -0.00667747 0)
(1.02517 -0.00654871 0)
(1.02562 -0.00641421 0)
(1.02605 -0.00627509 0)
(1 -0.000235954 0)
(1.00009 -0.000722806 0)
(1.00026 -0.00122907 0)
(1.00051 -0.00176216 0)
(1.00084 -0.00232137 0)
(1.00126 -0.00289891 0)
(1.00176 -0.00348261 0)
(1.00233 -0.00405917 0)
(1.00298 -0.00461688 0)
(1.00368 -0.00514698 0)
(1.00444 -0.00564388 0)
(1.00525 -0.0061047 0)
(1.00609 -0.00652846 0)
(1.00697 -0.00691551 0)
(1.00787 -0.0072668 0)
(1.00879 -0.00758352 0)
(1.00972 -0.00786693 0)
(1.01066 -0.00811829 0)
(1.0116 -0.00833885 0)
(1.01255 -0.00852984 0)
(1.01348 -0.00869244 0)
(1.01441 -0.00882765 0)
(1.01533 -0.0089365 0)
(1.01623 -0.00901989 0)
(1.01711 -0.00907875 0)
(1.01797 -0.00911394 0)
(1.01881 -0.00912639 0)
(1.01962 -0.00911697 0)
(1.02041 -0.00908668 0)
(1.02117 -0.00903655 0)
(1.0219 -0.00896776 0)
(1.0226 -0.00888151 0)
(1.02327 -0.00877913 0)
(1.0239 -0.00866196 0)
(1.02451 -0.00853141 0)
(1.02509 -0.00838889 0)
(1.02564 -0.00823582 0)
(1.02615 -0.00807365 0)
(1.02664 -0.00790372 0)
(1.0271 -0.00772747 0)
(1 -0.00026917 0)
(1.00008 -0.000825847 0)
(1.00024 -0.00140706 0)
(1.00048 -0.00202173 0)
(1.00081 -0.00266936 0)
(1.00121 -0.00334079 0)
(1.0017 -0.00402198 0)
(1.00226 -0.00469734 0)
(1.00289 -0.00535307 0)
(1.00359 -0.00597891 0)
(1.00435 -0.00656816 0)
(1.00515 -0.00711733 0)
(1.006 -0.00762511 0)
(1.00689 -0.00809175 0)
(1.00781 -0.00851816 0)
(1.00875 -0.00890551 0)
(1.00971 -0.00925498 0)
(1.01068 -0.00956777 0)
(1.01166 -0.00984508 0)
(1.01265 -0.010088 0)
(1.01363 -0.0102975 0)
(1.01461 -0.0104745 0)
(1.01558 -0.0106199 0)
(1.01654 -0.0107343 0)
(1.01748 -0.0108186 0)
(1.01841 -0.0108735 0)
(1.01931 -0.0109001 0)
(1.02019 -0.0108991 0)
(1.02104 -0.0108716 0)
(1.02186 -0.0108188 0)
(1.02266 -0.010742 0)
(1.02342 -0.0106427 0)
(1.02415 -0.0105226 0)
(1.02484 -0.0103832 0)
(1.02551 -0.0102264 0)
(1.02614 -0.0100539 0)
(1.02673 -0.00986748 0)
(1.0273 -0.00966909 0)
(1.02783 -0.00946035 0)
(1.02833 -0.00924318 0)
(1 -0.000298852 0)
(1.00008 -0.000918586 0)
(1.00023 -0.00156855 0)
(1.00045 -0.00225936 0)
(1.00076 -0.00299064 0)
(1.00115 -0.00375214 0)
(1.00162 -0.00452783 0)
(1.00216 -0.00530004 0)
(1.00278 -0.00605296 0)
(1.00347 -0.00677479 0)
(1.00422 -0.00745775 0)
(1.00503 -0.0080977 0)
(1.00588 -0.00869301 0)
(1.00678 -0.00924384 0)
(1.00771 -0.00975094 0)
(1.00867 -0.0102154 0)
(1.00966 -0.0106381 0)
(1.01066 -0.0110202 0)
(1.01169 -0.0113628 0)
(1.01272 -0.0116665 0)
(1.01375 -0.011932 0)
(1.01479 -0.0121599 0)
(1.01582 -0.0123506 0)
(1.01685 -0.0125046 0)
(1.01786 -0.0126226 0)
(1.01886 -0.0127049 0)
(1.01983 -0.0127524 0)
(1.02079 -0.0127658 0)
(1.02171 -0.0127462 0)
(1.02261 -0.0126948 0)
(1.02348 -0.0126133 0)
(1.02432 -0.0125032 0)
(1.02512 -0.0123665 0)
(1.02589 -0.0122051 0)
(1.02662 -0.0120213 0)
(1.02731 -0.0118173 0)
(1.02797 -0.0115952 0)
(1.02859 -0.0113575 0)
(1.02918 -0.0111062 0)
(1.02973 -0.0108437 0)
(1 -0.000324854 0)
(1.00007 -0.00100054 0)
(1.00021 -0.00171275 0)
(1.00042 -0.00247388 0)
(1.00071 -0.0032837 0)
(1.00107 -0.00413104 0)
(1.00152 -0.00499782 0)
(1.00204 -0.00586447 0)
(1.00265 -0.0067134 0)
(1.00332 -0.00753126 0)
(1.00406 -0.00830906 0)
(1.00486 -0.00904211 0)
(1.00571 -0.00972858 0)
(1.00661 -0.0103685 0)
(1.00756 -0.0109623 0)
(1.00854 -0.0115108 0)
(1.00955 -0.0120148 0)
(1.01059 -0.0124753 0)
(1.01165 -0.0128927 0)
(1.01273 -0.0132675 0)
(1.01382 -0.0135996 0)
(1.01492 -0.0138891 0)
(1.01602 -0.0141359 0)
(1.01712 -0.0143401 0)
(1.01821 -0.0145017 0)
(1.01929 -0.0146209 0)
(1.02035 -0.0146979 0)
(1.0214 -0.0147334 0)
(1.02241 -0.0147285 0)
(1.0234 -0.0146842 0)
(1.02436 -0.0146024 0)
(1.02529 -0.0144848 0)
(1.02618 -0.0143336 0)
(1.02703 -0.0141512 0)
(1.02784 -0.0139402 0)
(1.02861 -0.0137034 0)
(1.02935 -0.0134434 0)
(1.03004 -0.0131632 0)
(1.03069 -0.0128652 0)
(1.0313 -0.0125527 0)
(1 -0.00034705 0)
(1.00006 -0.00107132 0)
(1.00018 -0.001839 0)
(1.00038 -0.0026642 0)
(1.00064 -0.00354715 0)
(1.00098 -0.00447557 0)
(1.0014 -0.00542953 0)
(1.0019 -0.00638766 0)
(1.00248 -0.00733091 0)
(1.00313 -0.00824432 0)
(1.00386 -0.00911765 0)
(1.00464 -0.00994585 0)
(1.00549 -0.010727 0)
(1.00639 -0.0114608 0)
(1.00734 -0.0121475 0)
(1.00834 -0.0127875 0)
(1.00937 -0.0133815 0)
(1.01044 -0.0139302 0)
(1.01154 -0.0144335 0)
(1.01267 -0.0148908 0)
(1.01382 -0.0153017 0)
(1.01498 -0.0156652 0)
(1.01616 -0.0159808 0)
(1.01734 -0.0162477 0)
(1.01852 -0.0164652 0)
(1.01969 -0.0166327 0)
(1.02085 -0.0167501 0)
(1.02199 -0.0168176 0)
(1.02311 -0.0168359 0)
(1.02421 -0.0168063 0)
(1.02527 -0.0167303 0)
(1.0263 -0.0166099 0)
(1.02729 -0.0164476 0)
(1.02825 -0.0162462 0)
(1.02916 -0.0160087 0)
(1.03002 -0.0157384 0)
(1.03085 -0.0154385 0)
(1.03162 -0.0151127 0)
(1.03236 -0.014764 0)
(1.03304 -0.0143962 0)
(1 -0.000365329 0)
(1.00005 -0.00113069 0)
(1.00016 -0.00194671 0)
(1.00033 -0.00282946 0)
(1.00057 -0.00377975 0)
(1.00088 -0.00478394 0)
(1.00127 -0.00582051 0)
(1.00174 -0.00686666 0)
(1.00229 -0.00790184 0)
(1.00291 -0.00890954 0)
(1.00361 -0.00987842 0)
(1.00438 -0.0108034 0)
(1.00521 -0.0116823 0)
(1.0061 -0.0125147 0)
(1.00705 -0.0133003 0)
(1.00806 -0.0140394 0)
(1.00911 -0.0147327 0)
(1.01021 -0.0153801 0)
(1.01135 -0.015981 0)
(1.01252 -0.0165339 0)
(1.01373 -0.0170371 0)
(1.01496 -0.017489 0)
(1.01621 -0.0178881 0)
(1.01748 -0.0182323 0)
(1.01875 -0.0185202 0)
(1.02003 -0.01875 0)
(1.0213 -0.018921 0)
(1.02256 -0.0190327 0)
(1.02379 -0.0190854 0)
(1.02501 -0.0190801 0)
(1.02619 -0.0190182 0)
(1.02734 -0.0189017 0)
(1.02846 -0.0187334 0)
(1.02953 -0.0185164 0)
(1.03055 -0.018254 0)
(1.03153 -0.0179505 0)
(1.03246 -0.0176094 0)
(1.03334 -0.0172353 0)
(1.03417 -0.0168317 0)
(1.03495 -0.0164035 0)
(1 -0.00037966 0)
(1.00004 -0.00117845 0)
(1.00013 -0.00203545 0)
(1.00028 -0.00296904 0)
(1.00049 -0.00398046 0)
(1.00077 -0.00505452 0)
(1.00112 -0.00616845 0)
(1.00155 -0.0072987 0)
(1.00206 -0.00842262 0)
(1.00265 -0.00952227 0)
(1.00332 -0.0105858 0)
(1.00406 -0.0116085 0)
(1.00487 -0.0125879 0)
(1.00575 -0.0135229 0)
(1.00669 -0.0144131 0)
(1.00769 -0.0152589 0)
(1.00876 -0.0160608 0)
(1.00988 -0.0168181 0)
(1.01105 -0.0175292 0)
(1.01227 -0.0181914 0)
(1.01353 -0.0188022 0)
(1.01483 -0.0193586 0)
(1.01616 -0.0198579 0)
(1.01752 -0.0202966 0)
(1.0189 -0.0206719 0)
(1.02028 -0.0209806 0)
(1.02167 -0.0212212 0)
(1.02305 -0.021392 0)
(1.02442 -0.0214931 0)
(1.02578 -0.0215244 0)
(1.0271 -0.0214874 0)
(1.02839 -0.0213839 0)
(1.02964 -0.0212167 0)
(1.03085 -0.0209893 0)
(1.03201 -0.0207055 0)
(1.03312 -0.0203702 0)
(1.03418 -0.0199875 0)
(1.03518 -0.0195631 0)
(1.03613 -0.0191008 0)
(1.03702 -0.0186071 0)
(1 -0.000390056 0)
(1.00003 -0.00121451 0)
(1.0001 -0.00210497 0)
(1.00022 -0.00308262 0)
(1.0004 -0.00414855 0)
(1.00064 -0.0052858 0)
(1.00095 -0.00647152 0)
(1.00134 -0.00768124 0)
(1.00181 -0.00888976 0)
(1.00236 -0.0100778 0)
(1.00298 -0.0112343 0)
(1.00369 -0.0123549 0)
(1.00446 -0.0134363 0)
(1.00531 -0.0144771 0)
(1.00624 -0.0154769 0)
(1.00723 -0.0164366 0)
(1.0083 -0.0173565 0)
(1.00943 -0.018235 0)
(1.01063 -0.0190693 0)
(1.01188 -0.0198556 0)
(1.0132 -0.0205904 0)
(1.01457 -0.0212692 0)
(1.01598 -0.0218877 0)
(1.01743 -0.0224402 0)
(1.01891 -0.0229225 0)
(1.02042 -0.0233297 0)
(1.02194 -0.023659 0)
(1.02346 -0.0239074 0)
(1.02498 -0.0240739 0)
(1.02648 -0.0241575 0)
(1.02796 -0.0241592 0)
(1.02941 -0.0240805 0)
(1.03083 -0.0239242 0)
(1.0322 -0.0236941 0)
(1.03352 -0.0233944 0)
(1.03479 -0.0230306 0)
(1.03599 -0.0226073 0)
(1.03714 -0.0221316 0)
(1.03823 -0.0216076 0)
(1.03925 -0.0210435 0)
(0.999999 -0.000396575 0)
(1.00002 -0.00123883 0)
(1.00007 -0.00215522 0)
(1.00016 -0.00317027 0)
(1.0003 -0.0042834 0)
(1.0005 -0.00547662 0)
(1.00077 -0.00672834 0)
(1.00111 -0.0080122 0)
(1.00153 -0.00929977 0)
(1.00203 -0.0105718 0)
(1.0026 -0.0118184 0)
(1.00325 -0.013036 0)
(1.00399 -0.0142199 0)
(1.0048 -0.0153684 0)
(1.0057 -0.016482 0)
(1.00667 -0.0175622 0)
(1.00773 -0.018609 0)
(1.00886 -0.0196196 0)
(1.01007 -0.0205903 0)
(1.01136 -0.0215161 0)
(1.01272 -0.0223925 0)
(1.01415 -0.0232132 0)
(1.01564 -0.0239716 0)
(1.01719 -0.0246598 0)
(1.01878 -0.0252716 0)
(1.02041 -0.0258001 0)
(1.02207 -0.0262407 0)
(1.02374 -0.0265886 0)
(1.02542 -0.0268413 0)
(1.0271 -0.0269965 0)
(1.02875 -0.0270544 0)
(1.03039 -0.0270158 0)
(1.03199 -0.0268836 0)
(1.03354 -0.0266615 0)
(1.03505 -0.0263539 0)
(1.0365 -0.0259671 0)
(1.03788 -0.0255061 0)
(1.0392 -0.0249795 0)
(1.04045 -0.0243917 0)
(1.04163 -0.0237532 0)
(0.999999 -0.000399347 0)
(1.00001 -0.00125129 0)
(1.00004 -0.00218656 0)
(1.00009 -0.00323233 0)
(1.0002 -0.00438449 0)
(1.00035 -0.00562642 0)
(1.00057 -0.00693826 0)
(1.00085 -0.00828974 0)
(1.00122 -0.00964947 0)
(1.00166 -0.0110002 0)
(1.00217 -0.0123336 0)
(1.00277 -0.0136456 0)
(1.00345 -0.0149304 0)
(1.00421 -0.0161873 0)
(1.00506 -0.017418 0)
(1.006 -0.0186243 0)
(1.00703 -0.0198059 0)
(1.00815 -0.0209588 0)
(1.00937 -0.0220789 0)
(1.01068 -0.02316 0)
(1.01208 -0.0241965 0)
(1.01356 -0.0251796 0)
(1.01513 -0.0261005 0)
(1.01676 -0.0269486 0)
(1.01847 -0.0277154 0)
(1.02023 -0.0283912 0)
(1.02203 -0.0289696 0)
(1.02387 -0.0294428 0)
(1.02572 -0.0298068 0)
(1.02758 -0.0300571 0)
(1.02944 -0.0301931 0)
(1.03128 -0.0302143 0)
(1.03309 -0.0301232 0)
(1.03486 -0.0299233 0)
(1.03657 -0.0296192 0)
(1.03823 -0.0292177 0)
(1.03983 -0.0287244 0)
(1.04135 -0.0281492 0)
(1.0428 -0.0274972 0)
(1.04416 -0.0267811 0)
(0.999999 -0.000398442 0)
(0.999996 -0.00125182 0)
(0.999999 -0.00219988 0)
(1.00002 -0.00326918 0)
(1.00009 -0.00445153 0)
(1.0002 -0.00573552 0)
(1.00035 -0.00710122 0)
(1.00058 -0.00851214 0)
(1.00088 -0.00993624 0)
(1.00126 -0.0113601 0)
(1.0017 -0.0127758 0)
(1.00222 -0.0141779 0)
(1.00284 -0.0155602 0)
(1.00354 -0.0169246 0)
(1.00434 -0.0182742 0)
(1.00523 -0.0196108 0)
(1.00621 -0.0209336 0)
(1.00731 -0.0222379 0)
(1.00852 -0.0235197 0)
(1.00983 -0.0247719 0)
(1.01125 -0.0259872 0)
(1.01278 -0.0271542 0)
(1.0144 -0.0282617 0)
(1.01613 -0.029296 0)
(1.01794 -0.030246 0)
(1.01983 -0.031099 0)
(1.02179 -0.0318453 0)
(1.0238 -0.0324742 0)
(1.02584 -0.0329792 0)
(1.02791 -0.0333531 0)
(1.02998 -0.033594 0)
(1.03205 -0.0336994 0)
(1.0341 -0.0336714 0)
(1.03611 -0.0335124 0)
(1.03807 -0.0332272 0)
(1.03997 -0.0328229 0)
(1.04181 -0.0323057 0)
(1.04357 -0.031687 0)
(1.04524 -0.030972 0)
(1.04683 -0.0301767 0)
(0.999999 -0.000393768 0)
(0.999983 -0.00124056 0)
(0.999959 -0.00219652 0)
(0.999953 -0.003281 0)
(0.999977 -0.0044848 0)
(1.00003 -0.00580528 0)
(1.00013 -0.00721729 0)
(1.00029 -0.00867795 0)
(1.00053 -0.0101583 0)
(1.00082 -0.0116491 0)
(1.00119 -0.0131411 0)
(1.00163 -0.0146273 0)
(1.00217 -0.0161022 0)
(1.00279 -0.0175715 0)
(1.00351 -0.0190398 0)
(1.00434 -0.0205087 0)
(1.00527 -0.0219773 0)
(1.00632 -0.0234408 0)
(1.0075 -0.0248956 0)
(1.0088 -0.0263338 0)
(1.01022 -0.0277464 0)
(1.01178 -0.0291193 0)
(1.01346 -0.0304385 0)
(1.01526 -0.0316874 0)
(1.01718 -0.0328517 0)
(1.01919 -0.0339148 0)
(1.0213 -0.0348636 0)
(1.02349 -0.0356831 0)
(1.02573 -0.0363641 0)
(1.02802 -0.0368958 0)
(1.03034 -0.0372742 0)
(1.03266 -0.037494 0)
(1.03497 -0.0375565 0)
(1.03726 -0.0374623 0)
(1.0395 -0.0372164 0)
(1.04168 -0.0368257 0)
(1.0438 -0.0362967 0)
(1.04584 -0.0356427 0)
(1.04778 -0.0348688 0)
(1.04963 -0.0339946 0)
(0.999999 -0.000384899 0)
(0.999968 -0.00121814 0)
(0.999917 -0.00217805 0)
(0.99988 -0.00326762 0)
(0.999861 -0.00448578 0)
(0.999857 -0.00583779 0)
(0.999893 -0.0072863 0)
(0.999995 -0.00878629 0)
(1.00015 -0.0103151 0)
(1.00036 -0.0118659 0)
(1.00064 -0.0134264 0)
(1.00099 -0.0149889 0)
(1.00144 -0.0165503 0)
(1.00197 -0.0181205 0)
(1.0026 -0.0197047 0)
(1.00334 -0.0213053 0)
(1.0042 -0.0229221 0)
(1.00518 -0.0245506 0)
(1.00631 -0.0261882 0)
(1.00757 -0.0278258 0)
(1.00898 -0.0294532 0)
(1.01055 -0.0310534 0)
(1.01226 -0.0326103 0)
(1.01413 -0.0341037 0)
(1.01614 -0.0355158 0)
(1.01828 -0.0368254 0)
(1.02054 -0.0380153 0)
(1.0229 -0.0390655 0)
(1.02536 -0.0399632 0)
(1.02788 -0.0406928 0)
(1.03045 -0.0412479 0)
(1.03306 -0.041619 0)
(1.03566 -0.0418061 0)
(1.03826 -0.041807 0)
(1.04082 -0.0416267 0)
(1.04333 -0.0412712 0)
(1.04576 -0.0407475 0)
(1.04813 -0.0400701 0)
(1.05038 -0.0392447 0)
(1.05254 -0.0382941 0)
(1 -0.00037095 0)
(0.99995 -0.00118599 0)
(0.999872 -0.00214569 0)
(0.999807 -0.00322887 0)
(0.999741 -0.00445759 0)
(0.999677 -0.00583494 0)
(0.999653 -0.00730776 0)
(0.999687 -0.00883744 0)
(0.999763 -0.010407 0)
(0.999882 -0.0120098 0)
(1.00006 -0.0136293 0)
(1.00032 -0.015259 0)
(1.00066 -0.0168999 0)
(1.00108 -0.018565 0)
(1.0016 -0.0202598 0)
(1.00224 -0.0219884 0)
(1.003 -0.0237529 0)
(1.0039 -0.0255498 0)
(1.00495 -0.0273775 0)
(1.00615 -0.0292259 0)
(1.00753 -0.0310838 0)
(1.00908 -0.032932 0)
(1.0108 -0.0347523 0)
(1.01271 -0.036521 0)
(1.01479 -0.0382164 0)
(1.01704 -0.0398119 0)
(1.01945 -0.0412856 0)
(1.02199 -0.0426117 0)
(1.02466 -0.0437729 0)
(1.02743 -0.0447478 0)
(1.03028 -0.0455261 0)
(1.03319 -0.0460931 0)
(1.03612 -0.0464466 0)
(1.03907 -0.0465804 0)
(1.04198 -0.0464993 0)
(1.04486 -0.0462069 0)
(1.04767 -0.0457115 0)
(1.0504 -0.0450274 0)
(1.05302 -0.0441617 0)
(1.05555 -0.0431401 0)
(1 -0.000350529 0)
(0.999929 -0.00114653 0)
(0.999827 -0.00209969 0)
(0.999735 -0.00316553 0)
(0.999616 -0.00440479 0)
(0.999494 -0.00579724 0)
(0.999412 -0.00728154 0)
(0.999374 -0.00883312 0)
(0.999361 -0.0104351 0)
(0.99938 -0.0120804 0)
(0.999454 -0.0137482 0)
(0.999604 -0.0154354 0)
(0.999827 -0.0171472 0)
(1.00013 -0.018899 0)
(1.00053 -0.0206966 0)
(1.00104 -0.0225471 0)
(1.00168 -0.0244554 0)
(1.00247 -0.0264208 0)
(1.00342 -0.0284429 0)
(1.00454 -0.0305108 0)
(1.00584 -0.0326125 0)
(1.00735 -0.0347275 0)
(1.00906 -0.036836 0)
(1.01099 -0.0389107 0)
(1.01312 -0.0409258 0)
(1.01546 -0.0428491 0)
(1.01799 -0.0446533 0)
(1.02071 -0.0463059 0)
(1.0236 -0.047784 0)
(1.02662 -0.0490587 0)
(1.02977 -0.0501152 0)
(1.033 -0.0509314 0)
(1.03629 -0.0515024 0)
(1.03962 -0.0518159 0)
(1.04294 -0.0518762 0)
(1.04623 -0.0516827 0)
(1.04947 -0.0512455 0)
(1.05263 -0.0505771 0)
(1.05567 -0.0496874 0)
(1.05862 -0.0486035 0)
(1 -0.000321714 0)
(0.999903 -0.0011032 0)
(0.999783 -0.002039 0)
(0.999662 -0.0030806 0)
(0.999487 -0.00433194 0)
(0.999312 -0.00572337 0)
(0.99917 -0.00720914 0)
(0.999055 -0.00877595 0)
(0.998948 -0.0104007 0)
(0.998864 -0.0120787 0)
(0.99883 -0.0137828 0)
(0.998863 -0.0155173 0)
(0.998959 -0.0172899 0)
(0.999127 -0.0191179 0)
(0.999387 -0.0210081 0)
(0.999756 -0.0229722 0)
(1.00026 -0.0250176 0)
(1.00091 -0.0271475 0)
(1.00173 -0.0293638 0)
(1.00273 -0.0316556 0)
(1.00394 -0.0340112 0)
(1.00537 -0.0364092 0)
(1.00703 -0.0388286 0)
(1.00894 -0.0412388 0)
(1.01109 -0.0436103 0)
(1.01349 -0.0459051 0)
(1.01614 -0.0480899 0)
(1.01902 -0.0501248 0)
(1.02211 -0.0519797 0)
(1.02539 -0.0536172 0)
(1.02883 -0.0550159 0)
(1.03242 -0.0561449 0)
(1.0361 -0.0569951 0)
(1.03984 -0.0575455 0)
(1.04361 -0.0577998 0)
(1.04738 -0.0577505 0)
(1.0511 -0.0574102 0)
(1.05476 -0.056787 0)
(1.0583 -0.0558957 0)
(1.06173 -0.0547621 0)
(1 -0.00028186 0)
(0.99987 -0.00106074 0)
(0.99974 -0.0019611 0)
(0.999585 -0.00298033 0)
(0.999354 -0.00424108 0)
(0.999133 -0.00561136 0)
(0.998929 -0.00709456 0)
(0.998732 -0.00866839 0)
(0.998529 -0.0103054 0)
(0.998338 -0.0120067 0)
(0.998193 -0.0137338 0)
(0.9981 -0.0155057 0)
(0.998058 -0.0173267 0)
(0.998081 -0.0192185 0)
(0.998187 -0.0211892 0)
(0.998398 -0.0232558 0)
(0.998738 -0.0254288 0)
(0.999225 -0.0277154 0)
(0.999883 -0.0301204 0)
(1.00073 -0.0326357 0)
(1.00181 -0.0352507 0)
(1.00312 -0.0379439 0)
(1.0047 -0.0406936 0)
(1.00654 -0.0434666 0)
(1.00868 -0.0462301 0)
(1.01111 -0.0489406 0)
(1.01384 -0.0515588 0)
(1.01685 -0.0540363 0)
(1.02013 -0.0563349 0)
(1.02366 -0.0584068 0)
(1.02742 -0.0602223 0)
(1.03136 -0.0617393 0)
(1.03546 -0.0629425 0)
(1.03967 -0.0638002 0)
(1.04394 -0.0643133 0)
(1.04824 -0.0644653 0)
(1.05251 -0.0642707 0)
(1.05674 -0.0637311 0)
(1.06084 -0.0628674 0)
(1.06484 -0.0617019 0)
(1.00001 -0.000227301 0)
(0.999829 -0.00102529 0)
(0.9997 -0.00186156 0)
(0.9995 -0.00287411 0)
(0.999222 -0.00412881 0)
(0.998961 -0.00546145 0)
(0.998687 -0.00694321 0)
(0.998408 -0.00851204 0)
(0.998105 -0.0101528 0)
(0.997806 -0.0118674 0)
(0.997547 -0.0136027 0)
(0.997322 -0.0154032 0)
(0.997136 -0.0172569 0)
(0.997003 -0.0192002 0)
(0.996943 -0.0212363 0)
(0.996978 -0.0233927 0)
(0.997135 -0.0256796 0)
(0.997432 -0.0281116 0)
(0.9979 -0.0306955 0)
(0.998565 -0.0334276 0)
(0.999464 -0.0363012 0)
(1.00062 -0.0392966 0)
(1.00206 -0.0423912 0)
(1.0038 -0.0455506 0)
(1.00588 -0.048739 0)
(1.00829 -0.0519087 0)
(1.01105 -0.0550142 0)
(1.01416 -0.0579987 0)
(1.01761 -0.0608142 0)
(1.02138 -0.0634014 0)
(1.02544 -0.0657195 0)
(1.02976 -0.0677133 0)
(1.0343 -0.0693579 0)
(1.03901 -0.0706083 0)
(1.04383 -0.0714601 0)
(1.04873 -0.0718849 0)
(1.05363 -0.0718975 0)
(1.0585 -0.0714908 0)
(1.06327 -0.0706923 0)
(1.06792 -0.0695187 0)
(1 -0.00015311 0)
(0.99978 -0.0010058 0)
(0.99966 -0.00173331 0)
(0.999405 -0.002774 0)
(0.999095 -0.00398445 0)
(0.998791 -0.00528054 0)
(0.998443 -0.00675816 0)
(0.998085 -0.00830929 0)
(0.997679 -0.0099475 0)
(0.997275 -0.0116641 0)
(0.996899 -0.0133924 0)
(0.996536 -0.0152147 0)
(0.996202 -0.0170806 0)
(0.995904 -0.0190657 0)
(0.995667 -0.0211472 0)
(0.995511 -0.0233803 0)
(0.995466 -0.0257625 0)
(0.995549 -0.0283256 0)
(0.995798 -0.0310731 0)
(0.996242 -0.0340106 0)
(0.996923 -0.0371349 0)
(0.997871 -0.0404311 0)
(0.999126 -0.0438787 0)
(1.00071 -0.0474425 0)
(1.00267 -0.0510849 0)
(1.00501 -0.0547548 0)
(1.00775 -0.058401 0)
(1.01091 -0.061959 0)
(1.01449 -0.0653702 0)
(1.01846 -0.0685628 0)
(1.02282 -0.0714817 0)
(1.02751 -0.0740564 0)
(1.03251 -0.076248 0)
(1.03776 -0.0779955 0)
(1.04319 -0.0792843 0)
(1.04876 -0.0800715 0)
(1.05437 -0.0803688 0)
(1.05999 -0.0801582 0)
(1.06552 -0.0794722 0)
(1.07094 -0.0783213 0)
(1 -5.22656e-05 0)
(0.999723 -0.00101738 0)
(0.999621 -0.00156613 0)
(0.999297 -0.00269541 0)
(0.998982 -0.00378986 0)
(0.998621 -0.00508658 0)
(0.998202 -0.00653431 0)
(0.997766 -0.00806829 0)
(0.997256 -0.00969228 0)
(0.996752 -0.0114016 0)
(0.996255 -0.0131057 0)
(0.995753 -0.0149468 0)
(0.995268 -0.0167976 0)
(0.994797 -0.0188223 0)
(0.994377 -0.0209188 0)
(0.994015 -0.0232215 0)
(0.993752 -0.02567 0)
(0.993598 -0.0283516 0)
(0.993601 -0.0312381 0)
(0.993787 -0.0343672 0)
(0.994208 -0.0377258 0)
(0.9949 -0.0413139 0)
(0.995911 -0.0451125 0)
(0.997277 -0.0490907 0)
(0.999045 -0.0532096 0)
(1.00124 -0.0574163 0)
(1.00391 -0.0616544 0)
(1.00706 -0.065853 0)
(1.0107 -0.0699426 0)
(1.01484 -0.0738385 0)
(1.01945 -0.077469 0)
(1.02452 -0.0807456 0)
(1.02999 -0.0836101 0)
(1.03581 -0.0859818 0)
(1.0419 -0.0878295 0)
(1.04821 -0.0890924 0)
(1.05463 -0.0897725 0)
(1.0611 -0.0898396 0)
(1.06752 -0.0893263 0)
(1.07384 -0.0882379 0)
(0.999995 8.16454e-05 0)
(0.999658 -0.00107902 0)
(0.999589 -0.00134438 0)
(0.99918 -0.00265653 0)
(0.998891 -0.00352151 0)
(0.998443 -0.00491021 0)
(0.997973 -0.00625303 0)
(0.99745 -0.00781014 0)
(0.996844 -0.0093798 0)
(0.996243 -0.0110916 0)
(0.995623 -0.0127421 0)
(0.994983 -0.0146101 0)
(0.994346 -0.0164055 0)
(0.993697 -0.0184829 0)
(0.99309 -0.0205446 0)
(0.992509 -0.0229275 0)
(0.992018 -0.0253908 0)
(0.991603 -0.0281929 0)
(0.991337 -0.031173 0)
(0.991228 -0.0344867 0)
(0.99135 -0.0380463 0)
(0.991732 -0.0419166 0)
(0.992438 -0.0460493 0)
(0.993515 -0.0504425 0)
(0.995021 -0.0550494 0)
(0.996999 -0.0598224 0)
(0.999499 -0.0646991 0)
(1.00255 -0.0696039 0)
(1.0062 -0.0744567 0)
(1.01043 -0.0791607 0)
(1.01526 -0.0836251 0)
(1.02067 -0.0877421 0)
(1.0266 -0.0914278 0)
(1.03302 -0.0945776 0)
(1.03983 -0.0971351 0)
(1.04696 -0.099017 0)
(1.0543 -0.100206 0)
(1.06176 -0.100657 0)
(1.06921 -0.100396 0)
(1.07657 -0.0994219 0)
(0.999999 0.000251789 0)
(0.999583 -0.00120647 0)
(0.999576 -0.00105013 0)
(0.999052 -0.00267594 0)
(0.998834 -0.00315598 0)
(0.99825 -0.0047896 0)
(0.997776 -0.00588378 0)
(0.997134 -0.00757272 0)
(0.996462 -0.008986 0)
(0.995752 -0.0107624 0)
(0.995019 -0.0122892 0)
(0.994237 -0.0142267 0)
(0.993453 -0.0158946 0)
(0.992618 -0.0180708 0)
(0.991829 -0.0200095 0)
(0.99101 -0.0225231 0)
(0.990291 -0.024903 0)
(0.989585 -0.0278696 0)
(0.98904 -0.030849 0)
(0.988594 -0.0343758 0)
(0.988387 -0.0380595 0)
(0.988398 -0.0422234 0)
(0.988745 -0.0466403 0)
(0.989452 -0.0514533 0)
(0.990614 -0.0565332 0)
(0.992278 -0.0618959 0)
(0.994517 -0.0674457 0)
(0.997381 -0.07312 0)
(1.00092 -0.0788215 0)
(1.00517 -0.0844441 0)
(1.01014 -0.0898763 0)
(1.01583 -0.0949899 0)
(1.02221 -0.0996691 0)
(1.02923 -0.103781 0)
(1.03681 -0.107234 0)
(1.04484 -0.109915 0)
(1.05323 -0.111776 0)
(1.06182 -0.112749 0)
(1.07048 -0.112844 0)
(1.07909 -0.112053 0)
(1.00004 0.000455466 0)
(0.999481 -0.00140245 0)
(0.999615 -0.000674142 0)
(0.998897 -0.00276609 0)
(0.998834 -0.00267982 0)
(0.998023 -0.00475599 0)
(0.99764 -0.0053955 0)
(0.996801 -0.00740126 0)
(0.996141 -0.00847395 0)
(0.995266 -0.0104612 0)
(0.994469 -0.0117174 0)
(0.993512 -0.0138381 0)
(0.992611 -0.0152403 0)
(0.991565 -0.0176276 0)
(0.990617 -0.0192838 0)
(0.989529 -0.0220564 0)
(0.988604 -0.0241648 0)
(0.987559 -0.027433 0)
(0.986752 -0.0302116 0)
(0.985902 -0.0340766 0)
(0.985365 -0.0377003 0)
(0.984925 -0.0422522 0)
(0.98488 -0.0468107 0)
(0.985118 -0.0521039 0)
(0.98586 -0.0575707 0)
(0.98709 -0.0635688 0)
(0.98896 -0.0697803 0)
(0.991507 -0.0762935 0)
(0.994827 -0.082917 0)
(0.998969 -0.0895789 0)
(1.00398 -0.0961251 0)
(1.00987 -0.102414 0)
(1.01665 -0.108287 0)
(1.02426 -0.113581 0)
(1.03263 -0.118156 0)
(1.04166 -0.12186 0)
(1.05121 -0.1246 0)
(1.06111 -0.126274 0)
(1.0712 -0.126862 0)
(1.08129 -0.126345 0)
(1.00018 0.000680958 0)
(0.999301 -0.0016512 0)
(0.999766 -0.000224634 0)
(0.998665 -0.00292252 0)
(0.998943 -0.00210102 0)
(0.997718 -0.00481762 0)
(0.997616 -0.00477472 0)
(0.996408 -0.0073253 0)
(0.995932 -0.00781264 0)
(0.994745 -0.010236 0)
(0.994021 -0.010989 0)
(0.992776 -0.0134985 0)
(0.991866 -0.0144047 0)
(0.990517 -0.0172121 0)
(0.989498 -0.0183218 0)
(0.98805 -0.0216003 0)
(0.987003 -0.0231098 0)
(0.985516 -0.0269761 0)
(0.984529 -0.029167 0)
(0.983149 -0.0336945 0)
(0.982355 -0.0368486 0)
(0.981315 -0.0420968 0)
(0.980917 -0.0464214 0)
(0.980521 -0.0524473 0)
(0.980829 -0.0580116 0)
(0.981443 -0.0648288 0)
(0.98286 -0.0715326 0)
(0.984904 -0.0790288 0)
(0.987873 -0.0865618 0)
(0.991742 -0.0944225 0)
(0.996653 -0.10222 0)
(1.00263 -0.109899 0)
(1.00971 -0.117207 0)
(1.01787 -0.123952 0)
(1.02705 -0.129934 0)
(1.03714 -0.134945 0)
(1.048 -0.138832 0)
(1.05943 -0.141443 0)
(1.0712 -0.142704 0)
(1.08307 -0.142576 0)
(1.00053 0.000910984 0)
(0.998932 -0.00192317 0)
(1.00013 0.000267341 0)
(0.998247 -0.00311841 0)
(0.999253 -0.0014523 0)
(0.997238 -0.00495081 0)
(0.997796 -0.00404168 0)
(0.995862 -0.00733812 0)
(0.995927 -0.00700374 0)
(0.994097 -0.0101032 0)
(0.99377 -0.0100873 0)
(0.991942 -0.013242 0)
(0.991309 -0.0133592 0)
(0.98939 -0.0168737 0)
(0.988563 -0.0170815 0)
(0.986498 -0.0212273 0)
(0.985585 -0.0216676 0)
(0.983385 -0.0266112 0)
(0.982479 -0.0275955 0)
(0.980271 -0.0333919 0)
(0.979479 -0.0353226 0)
(0.977508 -0.0419594 0)
(0.976995 -0.0452308 0)
(0.97561 -0.0526863 0)
(0.975654 -0.0575719 0)
(0.975295 -0.0658221 0)
(0.976324 -0.0723989 0)
(0.977513 -0.0813586 0)
(0.980074 -0.0894381 0)
(0.983367 -0.0988648 0)
(0.988046 -0.107875 0)
(0.993898 -0.117277 0)
(1.00116 -0.126257 0)
(1.00978 -0.134814 0)
(1.01975 -0.142575 0)
(1.03096 -0.149271 0)
(1.04327 -0.15467 0)
(1.05645 -0.158537 0)
(1.07023 -0.160724 0)
(1.08426 -0.161149 0)
(1.00122 0.00112864 0)
(0.998217 -0.00218269 0)
(1.00086 0.000757684 0)
(0.997487 -0.0033137 0)
(0.999902 -0.000785831 0)
(0.996435 -0.00510631 0)
(0.998318 -0.00325108 0)
(0.995015 -0.00739516 0)
(0.99627 -0.00609581 0)
(0.993164 -0.0100316 0)
(0.993874 -0.0090455 0)
(0.990838 -0.013052 0)
(0.991115 -0.0121238 0)
(0.988004 -0.016609 0)
(0.988002 -0.0155711 0)
(0.984685 -0.0209524 0)
(0.984551 -0.0198223 0)
(0.980976 -0.0263927 0)
(0.980818 -0.0254276 0)
(0.977078 -0.0332944 0)
(0.976975 -0.0329587 0)
(0.97332 -0.0420666 0)
(0.973377 -0.0429467 0)
(0.970201 -0.0531513 0)
(0.970623 -0.0558206 0)
(0.968466 -0.0669394 0)
(0.969625 -0.0718422 0)
(0.969162 -0.0836379 0)
(0.97163 -0.0909522 0)
(0.973634 -0.103089 0)
(0.97816 -0.112503 0)
(0.983359 -0.124476 0)
(0.990735 -0.134993 0)
(0.999563 -0.146 0)
(1.01028 -0.15594 0)
(1.02264 -0.164861 0)
(1.03655 -0.172301 0)
(1.05176 -0.177869 0)
(1.06793 -0.181361 0)
(1.08464 -0.182586 0)
(1.00236 0.00132342 0)
(0.997026 -0.00239639 0)
(1.00206 0.00120533 0)
(0.996242 -0.0034644 0)
(1.00102 -0.000163161 0)