/*--------------------------------*- C++ -*----------------------------------*\
| =========                 |                                                 |
| \\      /  F ield         | OpenFOAM: The Open Source CFD Toolbox           |
|  \\    /   O peration     | Version:  2312                                  |
|   \\  /    A nd           | Website:  www.openfoam.com                      |
|    \\/     M anipulation  |                                                 |
\*---------------------------------------------------------------------------*/
FoamFile
{
    version     2.0;
    format      ascii;
    arch        "LSB;label=32;scalar=64";
    class       surfaceScalarField;
    location    "26.5";
    object      phi;
}
// * * * * * * * * * * * * * * * * * * * * * * * * * * * * * * * * * * * * * //

dimensions      [0 3 -1 0 0 0 0];

oriented        oriented;

internalField   nonuniform List<scalar> 
4490
(
-0.00105122
0.00963386
-0.00858264
0.00494617
0.0101224
-0.0161198
0.0268356
-0.0087578
-0.0131317
0.0688374
-0.0431599
0.00115814
0.12775
-0.084654
0.0257413
0.196455
-0.126717
0.0580122
0.271394
-0.165953
0.0910149
0.337075
-0.199799
0.134117
0.402321
-0.228156
0.16291
-0.253061
0.215044
0.440338
-0.000196685
0.00983055
0.0168969
-0.00697121
0.0597295
-0.0515904
0.119713
-0.103143
0.184412
-0.149353
0.243648
-0.185954
0.290749
-0.213054
0.32417
-0.233219
0.346313
-0.2503
-0.264748
0.358001
0.00503978
0.00479077
0.0403422
-0.0422736
0.0957247
-0.106973
0.150749
-0.158168
0.193548
-0.192151
0.220926
-0.213332
0.237276
-0.229404
0.249971
-0.245914
0.264162
-0.264491
-0.286584
0.285998
0.0153193
-0.0105286
0.062519
-0.0894732
0.108238
-0.152692
0.13909
-0.18902
0.156263
-0.209324
0.167582
-0.224652
0.179872
-0.241694
0.194742
-0.260784
0.210372
-0.280121
-0.299727
0.223515
0.0261093
-0.0366379
0.0668171
-0.130181
0.0927815
-0.178656
0.105745
-0.201983
0.11385
-0.217429
0.121428
-0.23223
0.128225
-0.248491
0.133072
-0.265631
0.136771
-0.283821
0.141318
-0.304273
-0.00945811
0.0115931
-0.00213495
-0.024978
0.0181332
-0.00261326
-0.0422376
0.0191975
-0.00193791
-0.0600577
0.0190284
-0.00120825
-0.0784266
0.0191979
-0.000829056
-0.0969954
0.019222
-0.000653253
-0.116959
0.0206659
-0.000702664
-0.13516
0.0192682
-0.00106698
-0.156142
0.0233259
-0.00234401
0.0213004
-0.173402
-0.00403987
-0.00353634
0.0151294
-0.01141
0.0260068
-0.0209356
0.0287231
-0.0300133
0.0281061
-0.0383617
0.0275463
-0.0435979
0.0244582
-0.0493497
0.0264177
-0.0475783
0.0174969
-0.045161
0.0209085
0.00757614
-0.0314367
0.00178484
0.0133446
0.00222238
0.0255692
0.00196838
0.0289771
0.00282026
0.0272542
0.00678695
0.0235796
0.0149838
0.0162613
0.0285613
0.0128402
0.054393
-0.00833479
0.0867894
-0.0114879
-0.0454186
0.139784
0.00347616
0.00986841
0.00848485
0.0205606
0.0145081
0.0229539
0.0230293
0.0187331
0.0379322
0.00867671
0.0629042
-0.00871065
0.100729
-0.0249847
0.155575
-0.0631804
0.219797
-0.0757103
-0.129523
0.303902
0.00128577
0.00572655
0.0155487
0.03544
0.069858
0.11916
0.18519
0.256126
0.343326
0.428847
-0.181788
0.0185797
-0.0101938
-0.184923
0.0233803
-0.0202455
-0.182183
0.0366904
-0.0394301
-0.166419
0.0552375
-0.0710014
-0.135719
0.0724519
-0.103152
-0.0836496
0.0796969
-0.131766
-0.0107105
0.0680373
-0.140976
0.0864399
-0.00194576
-0.0952046
0.192986
-0.127557
0.0210105
0.282705
-0.246672
0.156953
0.343025
-0.284661
0.224341
0.376213
-0.268193
0.235005
0.397041
-0.213409
0.192581
0.409519
-0.170653
0.158175
0.417985
-0.122962
0.114495
0.424175
-0.110019
0.103829
0.428701
-0.0848447
0.0803185
0.430116
-0.0883038
0.0868883
0.428065
-0.0714105
0.0734617
0.424237
-0.0828451
0.086673
0.421021
-0.0662614
0.0694772
0.419447
-0.0747964
0.0763704
0.418672
-0.0416682
0.0424439
0.417929
-0.042764
0.0435069
0.00707833
-0.00511758
-0.0324449
0.0195879
-0.0305837
0.0215192
-0.0197848
0.0258915
0.00231209
0.0331406
0.0391198
0.0356441
0.0932571
0.0255596
0.160611
0.000683652
0.237061
-0.0783965
0.309932
-0.200427
0.354668
-0.291408
0.370308
-0.300301
0.37179
-0.269676
0.377083
-0.218702
0.389897
-0.183467
0.405666
-0.138731
0.419068
-0.123421
0.429131
-0.0949074
0.434664
-0.0938365
0.435395
-0.072142
0.43212
-0.0795692
0.427368
-0.0615096
0.423442
-0.0708709
0.420769
-0.0389946
0.41918
-0.0411758
0.00882378
0.136343
0.0230285
0.13927
0.0185924
0.14996
0.0152021
0.170745
0.0123553
0.202612
0.00377689
0.245628
-0.0174563
0.295204
-0.0488921
0.343714
-0.126907
0.374343
-0.231057
0.374989
-0.292053
0.359604
-0.284916
0.346541
-0.256613
0.3438
-0.215961
0.351035
-0.190701
0.364178
-0.151874
0.378362
-0.137605
0.39152
-0.108065
0.402615
-0.104931
0.411056
-0.0805837
0.416191
-0.0847034
0.418259
-0.0635779
0.418743
-0.0713555
0.418581
-0.0388322
0.418704
-0.0412986
0.00883958
0.299371
0.0275593
0.296685
0.0212785
0.299452
0.0124354
0.309676
0.00213146
0.327419
-0.0139663
0.350903
-0.0409404
0.37799
-0.0759793
0.396031
-0.144948
0.383414
-0.21844
0.350419
-0.259058
0.323413
-0.25791
0.314437
-0.247637
0.319391
-0.220916
0.330905
-0.202215
0.344582
-0.165551
0.358087
-0.15111
0.370315
-0.120293
0.381229
-0.115846
0.391014
-0.090369
0.399315
-0.0930037
0.405519
-0.0697823
0.410139
-0.0759749
0.413563
-0.0422562
0.416786
-0.0445222
0.00587
0.420869
0.0355372
0.412642
0.0295054
0.40647
0.0186079
0.403797
0.00480471
0.403803
-0.0139728
0.404256
-0.0413933
0.403984
-0.075707
0.38934
-0.130304
0.352863
-0.181963
0.312459
-0.218654
0.289108
-0.234558
0.285489
-0.244018
0.293774
-0.2292
0.307793
-0.216234
0.323715
-0.181474
0.339024
-0.166419
0.352719
-0.133988
0.364654
-0.127781
0.375322
-0.101036
0.384766
-0.102448
0.393023
-0.0780388
0.400399
-0.0833511
0.407213
-0.0490704
0.414
-0.0513092
-0.000990613
0.473974
0.0413962
-0.479833
0.472443
0.0310365
0.471619
0.0194315
0.471505
0.00491937
0.472046
-0.0145142
0.471255
-0.0406024
0.468057
-0.0725085
0.452861
-0.115108
0.427683
-0.156786
0.404479
-0.195449
0.387997
-0.218076
0.375774
-0.231796
0.366923
-0.220349
0.361369
-0.210681
0.360026
-0.18013
0.361245
-0.167638
0.36422
-0.136964
0.367306
-0.130866
0.370349
-0.104079
0.372639
-0.104739
0.374183
-0.0795828
0.374925
-0.084093
0.375333
-0.0494787
0.375685
-0.0516603
-0.00162331
0.531108
0.0408709
-0.530583
0.531744
0.0304004
0.532382
0.0187938
0.53348
0.00382106
0.532345
-0.013379
0.528774
-0.0370314
0.52106
-0.0647952
0.506776
-0.100823
0.488353
-0.138363
0.469138
-0.176234
0.449995
-0.198933
0.432273
-0.214074
0.419118
-0.207195
0.412088
-0.203651
0.410791
-0.178833
0.412828
-0.169675
0.416663
-0.140798
0.420848
-0.135052
0.424816
-0.108047
0.42795
-0.107872
0.430056
-0.0816887
0.431254
-0.0852911
0.431948
-0.0501727
0.432482
-0.0521943
-0.00238282
0.597163
0.0382296
-0.594521
0.598789
0.0287737
0.600041
0.0175415
0.599885
0.00397741
0.598565
-0.0120588
0.594644
-0.0331104
0.587375
-0.0575258
0.575859
-0.0893077
0.559682
-0.122186
0.539956
-0.156508
0.519405
-0.178382
0.501982
-0.19665
0.489611
-0.194823
0.482501
-0.196541
0.480193
-0.176525
0.480762
-0.170244
0.483221
-0.143257
0.486513
-0.138344
0.490227
-0.111762
0.493314
-0.110959
0.495541
-0.083916
0.496723
-0.0864727
0.497477
-0.0509275
0.498047
-0.0527641
-0.00335495
0.675602
0.0348135
-0.672186
0.677449
0.026927
0.677962
0.0170286
0.677542
0.00439761
0.675688
-0.0102054
0.671764
-0.029186
0.664896
-0.0506581
0.654142
-0.0785533
0.638786
-0.10683
0.620308
-0.13803
0.601275
-0.159349
0.585194
-0.18057
0.573608
-0.183237
0.566216
-0.189149
0.562912
-0.173221
0.562523
-0.169855
0.563983
-0.144718
0.566061
-0.140421
0.568425
-0.114126
0.570415
-0.112948
0.571918
-0.0854193
0.572817
-0.0873711
0.573476
-0.0515863
0.57395
-0.0532387
-0.0042596
0.764317
0.0315796
-0.761084
0.76629
0.0249543
0.766956
0.0163628
0.766455
0.00489904
0.764393
-0.00814381
0.760398
-0.0251908
0.753868
-0.0441282
0.744109
-0.0687939
0.730455
-0.093176
0.714469
-0.122045
0.697558
-0.142437
0.681961
-0.164973
0.668931
-0.170207
0.659194
-0.179412
0.653378
-0.167405
0.651151
-0.167628
0.651617
-0.145184
0.653397
-0.142201
0.655806
-0.116535
0.657713
-0.114856
0.659327
-0.0870327
0.660073
-0.0881176
0.660838
-0.052351
0.66135
-0.0537513
-0.005639
0.866741
0.0283314
-0.863493
0.868969
0.0227257
0.869932
0.0154004
0.869367
0.00546376
0.867199
-0.0059757
0.863253
-0.0212443
0.856938
-0.0378133
0.848128
-0.0599845
0.836156
-0.0812041
0.821513
-0.107402
0.805271
-0.126195
0.789667
-0.14937
0.776427
-0.156967
0.766689
-0.169675
0.760759
-0.161474
0.757741
-0.16461
0.756937
-0.14438
0.757346
-0.14261
0.758867
-0.118056
0.760301
-0.11629
0.76164
-0.0883709
0.762305
-0.0887829
0.762897
-0.0529429
0.763099
-0.0539533
-0.00644034
0.984394
0.0253823
-0.981444
0.98641
0.0207093
0.98717
0.0146406
0.98683
0.00580326
0.985045
-0.00419014
0.981554
-0.0177536
0.976004
-0.0322638
0.968233
-0.052213
0.957502
-0.0704737
0.944535
-0.0944341
0.93028
-0.11194
0.916552
-0.135641
0.904392
-0.144807
0.894436
-0.159719
0.886861
-0.1539
0.882072
-0.15982
0.879937
-0.142246
0.879169
-0.141842
0.879446
-0.118334
0.879352
-0.116196
0.879632
-0.0886508
0.879268
-0.0884193
0.879662
-0.0533361
0.879769
-0.0540603
-0.00829937
1.12375
0.0227697
-1.12114
1.12562
0.0188383
1.12641
0.0138573
1.12587
0.00633443
1.12388
-0.00219769
1.12055
-0.0144175
1.11529
-0.0270117
1.10818
-0.045095
1.09876
-0.06106
1.0876
-0.0832678
1.07504
-0.0993896
1.06217
-0.122769
1.04974
-0.132369
1.0394
-0.149385
1.03139
-0.145884
1.02548
-0.153917
1.0217
-0.138461
1.01916
-0.139305
1.01833
-0.117498
1.01761
-0.11548
1.01759
-0.0886302
1.01705
-0.087877
1.01696
-0.0532501
1.01639
-0.0534921
-0.0086424
1.28282
0.0207284
-1.28078
1.28428
0.0173727
1.28489
0.013247
1.28473
0.00649457
1.28346
-0.000923397
1.28076
-0.0117176
1.27635
-0.0226072
1.27037
-0.0391133
1.26245
-0.0531381
1.25301
-0.0738271
1.24196
-0.0883342
1.23052
-0.111337
1.21926
-0.121108
1.20933
-0.139449
1.20075
-0.137304
1.19382
-0.146989
1.18891
-0.133554
1.18478
-0.135177
1.18219
-0.114904
1.17913
-0.112418
1.17717
-0.0866756
1.1746
-0.0853092
1.17384
-0.0524844
1.17281
-0.0524584
-0.0107886
1.47828
0.0188159
-1.47637
1.4796
0.0160577
1.48
0.0128412
1.4793
0.00719946
1.47712
0.00125693
1.4741
-0.00869503
1.46962
-0.0181303
1.46388
-0.0333731
1.45644
-0.0456973
1.44782
-0.0652069
1.43772
-0.0782357
1.42722
-0.10084
1.41634
-0.110223
1.40625
-0.12936
1.39721
-0.128263
1.3891
-0.138886
1.38243
-0.126881
1.37608
-0.128823
1.37163
-0.110461
1.36714
-0.107921
1.36412
-0.0836558
1.36071
-0.0818975
1.35871
-0.0504844
1.35621
-0.0499626
-0.0101919
1.70132
0.017299
-1.69981
1.70239
0.014995
1.70278
0.0124427
1.70263
0.00735865
1.70169
0.00219179
1.69951
-0.0065107
1.69574
-0.0143598
1.69072
-0.0283564
1.68412
-0.0390961
1.67655
-0.0576437
1.66748
-0.0691624
1.65796
-0.0913212
1.6477
-0.0999588
1.63786
-0.119522
1.62831
-0.11871
1.61893
-0.129511
1.61083
-0.118776
1.60202
-0.120019
1.59495
-0.103385
1.5866
-0.099575
1.58049
-0.0775422
1.57368
-0.0750922
1.57028
-0.0470777
1.56671
-0.0464002
-0.011912
1.98307
0.0154354
-1.98121
1.98434
0.0137277
1.98474
0.0120395
1.98401
0.008089
1.9818
0.00440692
1.97846
-0.00316967
1.97366
-0.00956655
1.96765
-0.0223398
1.96006
-0.0315149
1.95149
-0.0490716
1.94146
-0.0591289
1.93077
-0.0806366
1.91959
-0.0887696
1.90838
-0.108317
1.8974
-0.107729
1.88595
-0.118065
1.87516
-0.107985
1.8631
-0.107955
1.85273
-0.0930186
1.84165
-0.0884955
1.83314
-0.0690319
1.82421
-0.0661592
1.81838
-0.0412536
1.81199
-0.0400066
-0.00973758
2.33485
0.0133853
-2.3328
2.3363
0.0122853
2.33693
0.0114007
2.33663
0.00839773
2.33511
0.00591904
2.33223
-0.000283225
2.32731
-0.00464495
2.32023
-0.0152606
2.31124
-0.0225324
2.30049
-0.0383138
2.28819
-0.0468316
2.27458
-0.0670271
2.2604
-0.0745917
2.2451
-0.093011
2.23033
-0.0929608
2.2131
-0.10084
2.19706
-0.0919449
2.17799
-0.0888872
2.16159
-0.0766188
2.14297
-0.0698674
2.128
-0.0540665
2.113
-0.0511612
2.10376
-0.0320123
2.09478
-0.0310216
-0.00949983
2.75027
0.00910531
-2.74599
2.75385
0.00871108
2.75648
0.00876536
2.75767
0.00721178
2.75706
0.00652468
2.75387
0.00291337
2.74829
0.000928364
2.73931
-0.00627989
2.72741
-0.0106313
2.7114
-0.0222974
2.6931
-0.0285311
2.67183
-0.0457638
2.65011
-0.052874
2.62681
-0.069705
2.60509
-0.0712416
2.57997
-0.0757176
2.55657
-0.0685488
2.53099
-0.0633063
2.50794
-0.0535639
2.48257
-0.0445015
2.46234
-0.0338398
2.44362
-0.0324341
2.43182
-0.0202187
2.41954
-0.0187408
-0.0051708
3.47665
-3.46755
3.48537
3.49413
3.50134
3.50787
3.51078
3.51171
3.50543
3.4948
3.4725
3.44397
3.39821
3.34533
3.27563
3.20438
3.12867
3.06012
2.99681
2.94325
2.89875
2.86491
2.83247
2.81225
2.79351
0.409385
0.131322
-0.399389
0.425719
0.207182
0.430771
0.280946
0.45242
0.336351
0.412925
0.467048
0.122415
-0.458141
0.482804
0.191426
0.495498
0.268251
0.507757
0.324092
0.3901
0.534352
0.113007
-0.524944
0.54631
0.179468
0.562288
0.252273
0.575075
0.311305
0.370653
0.610439
0.10305
-0.600483
0.621442
0.168465
0.637141
0.236574
0.653145
0.295301
0.351612
0.698404
0.0935437
-0.688897
0.709737
0.157131
0.724557
0.221755
0.741434
0.278424
0.331963
0.799744
0.0845238
-0.790724
0.81105
0.145825
0.825776
0.207029
0.843003
0.261197
0.311473
0.916166
0.0764037
-0.908046
0.927342
0.134649
0.942362
0.192009
0.960169
0.243391
0.290197
1.0529
0.0683877
-1.04488
1.06417
0.123375
1.07977
0.176408
1.09863
0.224537
0.267687
1.20936
0.0612057
-1.20218
1.22069
0.112052
1.23685
0.160242
1.25683
0.204555
0.243745
1.39778
0.0537309
-1.39031
1.41034
0.0994871
1.42791
0.14268
1.44993
0.182528
0.217308
1.61514
0.0463545
-1.60777
1.62825
0.0863808
1.64697
0.123956
1.6709
0.1586
0.188404
1.88113
0.0380395
-1.87281
1.89667
0.0708447
1.9191
0.101526
1.94753
0.130169
0.154723
2.21818
0.0284974
-2.20864
2.23603
0.052997
2.26156
0.0759971
2.29415
0.0975772
0.116069
2.59976
0.0162454
-2.58751
2.6225
0.0302609
2.65502
0.0434786
2.6966
0.0559995
0.0666702
3.27114
-3.25489
3.3014
3.34488
3.40088
0.175302
0.256887
-0.23255
-0.19964
0.149016
0.243524
-0.217237
0.121943
0.229279
-0.202206
0.0971384
0.214228
-0.189423
0.0754688
0.201477
-0.179807
0.055259
0.191753
-0.171543
0.035818
0.183395
-0.163954
0.0173541
0.177373
-0.158909
0.00269069
0.167247
-0.152584
0.112399
-0.109709
0.114789
0.281634
-0.139536
0.0954796
0.262834
0.0772711
0.247487
0.0593129
0.232186
0.0423503
0.21844
0.0268801
0.207223
0.0128973
0.197378
0.000894255
0.189376
-0.00585548
0.173997
0.106544
0.0555708
0.297532
-0.0714687
0.0402454
0.278159
0.0270446
0.260688
0.0151959
0.244034
0.00483452
0.228801
-0.00436732
0.216425
-0.0128896
0.2059
-0.0184135
0.1949
-0.0152497
0.170833
0.0912942
-0.0131008
0.306768
0.0038651
-0.0198089
0.284867
-0.0258318
0.266711
-0.0309883
0.249191
-0.0356167
0.233429
-0.0395019
0.22031
-0.0414265
0.207825
-0.0384295
0.191903
-0.0245816
0.156985
0.0667125
-0.0828744
0.0853686
-0.0818277
-0.0807479
-0.0800476
-0.0788483
-0.075967
-0.0701253
-0.0568789
-0.0300747
0.333106
0.0676708
-0.380769
-0.020008
0.288368
0.0631716
-0.0184332
0.246112
0.0592136
-0.0169579
0.206056
0.0556362
-0.0155801
0.167961
0.0524045
-0.0143093
0.131475
0.0496897
-0.0132038
0.0962113
0.0475094
-0.0122457
0.0616458
0.0460563
-0.0114909
0.0270109
0.0455485
-0.0109136
0.0353941
-0.00838319
0.319358
0.113992
-0.365678
0.275749
0.10678
0.234733
0.100229
0.196131
0.0942383
0.159608
0.0889271
0.124688
0.0846105
0.0910021
0.0811949
0.0580078
0.0790506
0.0250768
0.0784796
0.0604709
0.295656
0.157011
-0.338676
0.255033
0.147404
0.216528
0.138734
0.180014
0.130752
0.145642
0.123298
0.113036
0.117217
0.0817954
0.112435
0.0515191
0.109327
0.0220875
0.107911
0.0825584
0.259762
0.197438
-0.300189
0.222796
0.18437
0.189362
0.172169
0.15739
0.162724
0.126418
0.15427
0.0970503
0.146585
0.0691568
0.140329
0.042122
0.136362
0.0169938
0.133039
0.0995521
0.215973
-0.251085
0.183105
0.153068
0.126369
0.100832
0.0758735
0.0522482
0.0297009
0.0101565
0.41933
0.382235
-0.383749
0.426745
0.301263
-0.308679
0.429218
0.244767
-0.24724
0.441011
0.19043
-0.202222
0.438444
0.136489
-0.133923
0.442192
0.103223
-0.106971
0.435133
0.079162
-0.0721031
0.434999
0.0658238
-0.0656899
0.427989
0.0593836
-0.0523737
0.425872
0.0526325
-0.0505155
0.418287
0.0513648
-0.0437801
0.413068
0.0457429
-0.0405237
0.403303
0.0450522
-0.0352872
0.393899
0.0406582
-0.0312537
0.0402478
-0.0271183
0.415702
0.384347
0.420119
0.296847
0.420328
0.244558
0.430809
0.179948
0.428078
0.13922
0.431438
0.0998637
0.42451
0.0860893
0.423596
0.0667385
0.416408
0.0665711
0.413424
0.0556171
0.405838
0.0589503
0.399736
0.0518449
0.389432
0.0553567
0.379478
0.0506114
0.0540479
0.410925
0.391238
0.410777
0.296995
0.407702
0.247632
0.414883
0.172768
0.410784
0.143319
0.412425
0.0982226
0.404699
0.0938154
0.402542
0.0688958
0.394026
0.0750865
0.389862
0.0597812
0.380785
0.0680274
0.373772
0.0588581
0.362614
0.0665149
0.352471
0.060754
0.0678428
0.404829
0.404224
0.398956
0.302867
0.391406
0.255182
0.394014
0.17016
0.387394
0.14994
0.38616
0.0994561
0.377224
0.102752
0.373002
0.0731178
0.364472
0.0836162
0.357874
0.0663791
0.348346
0.0775561
0.338995
0.0682083
0.326807
0.078703
0.315208
0.0723535
0.0828617
0.397445
0.424595
0.384278
0.316034
0.372429
0.267031
0.367974
0.174616
0.358966
0.158948
0.352931
0.105491
0.342085
0.113597
0.334151
0.0810518
0.323803
0.0939641
0.31358
0.0766025
0.301591
0.0895452
0.290055
0.0797439
0.276769
0.0919891
0.265008
0.084115
0.0967847
0.370582
0.426748
0.370771
0.315846
0.369259
0.268543
0.373003
0.170872
0.370355
0.161596
0.370878
0.104967
0.366221
0.118254
0.364882
0.0823908
0.359765
0.0990813
0.35901
0.0773574
0.353901
0.0946546
0.353965
0.0796794
0.350922
0.0950322
0.354296
0.0807414
0.090466
0.360614
0.426635
0.428431
0.426991
0.31549
0.424391
0.271142
0.429255
0.166008
0.426421
0.16443
0.426741
0.104647
0.422298
0.122698
0.420947
0.0837416
0.41715
0.102878
0.41592
0.0785878
0.41388
0.0966941
0.413465
0.0800944
0.416031
0.0924667
0.41747
0.0793021
0.0839575
0.423978
0.490851
0.429767
0.492611
0.31373
0.489015
0.274738
0.493324
0.161699
0.492135
0.165619
0.490647
0.106135
0.4886
0.124745
0.486274
0.0860671
0.485539
0.103614
0.483497
0.0806305
0.484508
0.0956823
0.48428
0.0803229
0.488478
0.0882685
0.491235
0.0765455
0.0780056
0.497187
0.564036
0.431311
0.567873
0.309894
0.566252
0.276359
0.566675
0.161277
0.567507
0.164787
0.565144
0.108497
0.5657
0.124188
0.56301
0.0887576
0.5642
0.102423
0.562554
0.0822773
0.565108
0.0931277
0.566184
0.0792472
0.57086
0.0835919
0.575293
0.0721134
0.0718012
0.581497
0.648068
0.43316
0.652885
0.305077
0.65472
0.274523
0.65209
0.163907
0.654029
0.162849
0.651995
0.110531
0.654527
0.121656
0.652835
0.09045
0.655257
0.100001
0.654861
0.0826732
0.658488
0.0895007
0.660946
0.0767895
0.666217
0.0783204
0.671181
0.0671498
0.0655303
0.677452
0.745644
0.434347
0.749412
0.301309
0.755046
0.26889
0.751587
0.167366
0.754703
0.159733
0.753366
0.111868
0.757486
0.117536
0.757127
0.0908086
0.760836
0.0962922
0.762026
0.0814835
0.766732
0.0847939
0.770346
0.0731761
0.776068
0.072598
0.7811
0.0621177
0.0592492
0.787382
0.858838
0.433705
0.861393
0.298755
0.869417
0.260865
0.866829
0.169954
0.871578
0.154984
0.871628
0.111818
0.877415
0.11175
0.878707
0.0895168
0.883786
0.0912126
0.886735
0.0785349
0.89251
0.0790188
0.897111
0.0685756
0.903327
0.0663815
0.908383
0.0570615
0.0534761
0.914156
0.989121
0.430752
0.991286
0.296591
1.00134
0.250808
1.00097
0.170322
1.00763
0.148328
1.00955
0.1099
1.01666
0.10464
1.01984
0.0863325
1.02623
0.0848264
1.03091
0.0738529
1.03772
0.0722071
1.04324
0.0630523
1.05
0.0596262
1.05579
0.0512761
0.0471079
1.06215
1.13914
0.424836
1.14222
0.293506
1.15394
0.239088
1.15665
0.167617
1.16504
0.13993
1.16968
0.105262
1.17822
0.0961068
1.18401
0.0805371
1.19173
0.0771048
1.19812
0.0674614
1.20566
0.064671
1.212
0.0567147
1.21863
0.052991
1.2241
0.0458128
0.0417405
1.22946
1.31186
0.415183
1.31856
0.2868
1.33363
0.224026
1.34053
0.160714
1.35148
0.12898
1.35867
0.0980722
1.36879
0.0859834
1.37668
0.0726467
1.38588
0.0679116
1.39364
0.0596989
1.40213
0.0561782
1.40941
0.0494377
1.4168
0.0456002
1.42305
0.0395663
0.0357092
1.42908
1.51041
0.401161
1.52214
0.275067
1.53976
0.206402
1.552
0.148474
1.5659
0.115087
1.57725
0.0867133
1.5898
0.0734415
1.60072
0.0617215
1.61162
0.05701
1.62113
0.0501938
1.63026
0.047045
1.63812
0.0415827
1.64534
0.0383736
1.6514
0.0335061
0.0302609
1.65685
1.74605
0.374632
1.76795
0.253169
1.79217
0.182184
1.80947
0.131165
1.82697
0.0975921
1.84061
0.0730773
1.85488
0.0591679
1.86722
0.0493789
1.87954
0.0446882
1.89028
0.0394577
1.90065
0.0366699
1.90961
0.0326289
1.91796
0.0300177
1.92503
0.0264437
0.0238883
1.9314
2.02179
0.328774
2.06162
0.213337
2.09726
0.146544
2.12608
0.102345
2.1511
0.0725688
2.17166
0.0525241
2.19013
0.0406901
2.20641
0.0330997
2.22116
0.0299373
2.23415
0.0264679
2.24586
0.0249613
2.25607
0.0224171
2.26514
0.0209531
2.27292
0.0186647
0.0170623
2.27974
2.35087
0.248483
2.40936
0.154843
2.45776
0.0981414
2.49489
0.0652134
2.52458
0.0428782
2.54764
0.0294652
2.56719
0.0211472
2.58398
0.0163101
2.59966
0.0142539
2.61364
0.0124814
2.62679
0.011818
2.63851
0.0106999
2.64928
0.0101764
2.65869
0.00925536
0.00861503
2.66714
2.85764
3.01248
3.11062
3.17584
3.21871
3.24818
3.26933
3.28564
3.29989
3.31237
3.32419
3.33489
3.34507
3.35432
3.36294
0.364043
-0.203068
0.373374
-0.148867
0.379234
-0.0773285
0.38985
-0.00675067
0.0758293
0.430504
-0.209594
0.435147
-0.15351
0.439979
-0.0821605
0.446683
-0.0134547
0.0643707
0.501888
-0.214295
0.502659
-0.15428
0.508824
-0.0883252
0.514657
-0.0192884
0.0540841
0.583006
-0.215804
0.583613
-0.154888
0.588045
-0.0927564
0.59208
-0.0233234
0.0456812
0.67549
-0.213842
0.675351
-0.15475
0.677592
-0.0949977
0.681711
-0.0274421
0.0384949
0.782564
-0.209025
0.780973
-0.153159
0.781415
-0.0954391
0.784713
-0.0307406
0.0324845
0.906383
-0.201252
0.902213
-0.148989
0.900627
-0.093853
0.902894
-0.0330079
0.0273328
1.05109
-0.190187
1.04404
-0.141937
1.04025
-0.0900694
1.0407
-0.033455
0.0231509
1.21512
-0.175847
1.20513
-0.131944
1.19933
-0.0842722
1.19862
-0.0327363
0.0195841
1.41114
-0.157914
1.39813
-0.118934
1.39007
-0.0762039
1.38764
-0.0303101
0.016918
1.63514
-0.136203
1.61902
-0.102812
1.60883
-0.0660176
1.60505
-0.0265308
0.0142035
1.90626
-0.111062
1.88739
-0.0839399
1.87547
-0.0540982
1.8706
-0.021664
0.0119886
2.24946
-0.0807749
2.22658
-0.0610586
2.21164
-0.039159
2.20561
-0.0156353
0.00895867
2.63266
-0.0462965
2.60673
-0.0351312
2.5902
-0.022628
2.58363
-0.00906169
0.00507524
3.31664
3.28151
3.25888
3.24982
0.00785644
-0.00114535
-0.00671109
0.00714797
0.000708471
-0.00077277
0.00792074
-0.0202458
0.019473
0.0288626
-0.0491084
0.00320868
0.00711919
-0.0114732
-0.0185325
0.0224496
-0.0590435
0.0484318
-0.106789
0.0672189
0.0648386
-0.142765
-0.0215037
0.0338198
-0.00519689
-0.0692555
0.0702014
-0.124804
0.10398
-0.165203
0.107617
0.0843979
-0.184762
-0.0591106
0.0806043
0.0123262
-0.120883
0.131973
-0.171609
0.154707
-0.195562
0.131571
0.092891
-0.204055
-0.100675
0.14273
0.0385495
-0.163841
0.195139
-0.200703
0.191569
-0.212748
0.143615
0.0982443
-0.218102
-0.140551
0.211472
0.0718087
-0.196828
0.251417
-0.218833
0.213573
-0.227011
0.151793
0.103151
-0.231917
-0.17762
0.287222
0.10187
-0.221351
0.295148
-0.233074
0.225296
-0.243302
0.162021
0.106591
-0.246742
-0.209541
0.351643
0.14512
-0.239433
0.32504
-0.248951
0.234815
-0.262403
0.175472
0.107552
-0.263364
-0.235957
0.417442
0.170158
-0.256592
0.345674
-0.268468
0.246691
-0.282584
0.189588
0.106224
-0.281255
-0.263056
0.22432
0.456178
-0.271726
0.354344
-0.290494
0.265458
-0.30143
0.200524
0.103814
-0.29902
0.00960003
-0.011735
0.0147587
-0.00515869
0.0127235
0.00203526
0.00827543
0.00444803
0.00156433
0.0157273
-0.0300755
0.0256451
-0.0150766
0.0246529
0.00302743
0.0175793
0.0115217
0.00767037
0.0179697
-0.0499831
0.0289703
-0.0260771
0.0278938
0.00410397
0.0185947
0.0208207
0.0210682
0.0190759
-0.0702673
0.0288839
-0.0358852
0.0253052
0.0076827
0.0122742
0.0338517
0.0456686
0.01999
-0.0910863
0.028497
-0.0443922
0.0208889
0.0152908
0.00102164
0.053719
0.0852397
0.0203265
-0.112066
0.0247155
-0.0487812
0.0105107
0.0294956
-0.0200981
0.0843278
0.13695
0.0217644
-0.134533
0.0265096
-0.0535264
0.00750606
0.0484991
-0.0337699
0.125604
0.20505
0.0205034
-0.156103
0.0182788
-0.0513018
-0.0143547
0.0811326
-0.0733985
0.184648
0.276772
0.0224484
-0.180896
0.0198432
-0.0486966
-0.0182093
0.119185
-0.0826521
0.24909
0.364279
0.0184813
-0.203417
0.00850707
-0.0387223
-0.0514453
0.179137
-0.135511
0.333156
0.453088
0.00538037
-0.218991
0.0207482
-0.0540901
0.0255128
0.174373
0.0319579
0.326711
0.445706
0.0393394
-0.0100749
-0.229162
0.00778886
-0.0719539
0.0136848
0.168477
0.0223929
0.318003
0.435478
0.0326218
-0.0338379
-0.234754
-0.0161617
-0.0896302
-0.00538159
0.157697
0.00657056
0.306051
0.42198
0.020068
-0.0716542
-0.234101
-0.0533685
-0.107916
-0.0385622
0.142891
-0.0219253
0.289414
0.402858
-0.00280328
-0.11559
-0.221663
-0.0997379
-0.123768
-0.0810125
0.124165
-0.0609738
0.269375
0.377763
-0.0358792
-0.159793
-0.193637
-0.148394
-0.135167
-0.122917
0.0986884
-0.101822
0.24828
0.348599
-0.0726575
-0.19003
-0.144584
-0.189209
-0.135988
-0.157546
0.0670252
-0.139893
0.230627
0.31869
-0.109984
-0.175132
-0.0646566
-0.199741
-0.111378
-0.16829
0.0355735
-0.155295
0.217633
0.294298
-0.130903
-0.088956
0.0453098
-0.153843
-0.0464912
-0.145
0.0267301
-0.132094
0.204728
0.284039
-0.121835
0.0443547
0.157908
-0.0465282
0.0443917
-0.0794157
0.0596176
-0.0770393
0.202351
0.285692
-0.0786928
0.137857
0.244392
0.0512143
0.131035
-0.00677281
0.117605
-0.0259839
0.221562
0.297519
-0.0378111
0.179957
0.29944
0.112936
0.198056
0.0489089
0.181631
0.0132873
0.257184
0.316123
-0.00531641
0.162715
0.329307
0.114536
0.246234
0.0553877
0.24078
0.0142802
0.298291
0.33488
-0.00447636
0.141177
0.346305
0.103184
0.284227
0.0536156
0.290348
0.0184155
0.333491
0.349168
0.00412745
0.101436
0.359364
0.0693102
0.316353
0.0310188
0.328639
0.00648308
0.358027
0.357631
-0.00198034
0.0902611
0.372933
0.0632722
0.343342
0.0356036
0.356308
0.0204557
0.373175
0.362375
0.0157122
0.0682703
0.384981
0.0476408
0.363971
0.0288349
0.375114
0.0198745
0.382135
0.365938
0.0163107
0.0780151
0.393854
0.0635013
0.378485
0.0516075
0.387008
0.0459605
0.387782
0.370129
0.0417704
0.0676243
0.399692
0.0571802
0.388929
0.0495158
0.394672
0.0455171
0.391781
0.375033
0.0406125
0.0820423
0.404323
0.0735765
0.397395
0.0680058
0.400243
0.064405
0.395382
0.380676
0.0587618
0.0649752
0.408825
0.0576577
0.404712
0.0529618
0.404939
0.0492822
0.399061
0.38661
0.0433484
0.0722902
0.412905
0.0666714
0.410331
0.0628699
0.40874
0.0590688
0.402863
0.392831
0.0528476
0.0398519
0.415497
0.0364636
0.41372
0.0337288
0.411475
0.0300705
0.406521
0.399114
0.0237882
0.0427228
0.416281
0.0414788
0.414963
0.0398385
0.413115
0.0363997
0.40996
0.405676
0.0298374
-0.00367676
-0.00298385
-0.00374898
-0.0071029
-0.0140453
0.0410111
0.497742
-0.499413
0.035583
0.548827
-0.543399
0.0294854
0.604647
-0.59855
0.0239838
0.674629
-0.669127
0.0194149
0.753069
-0.7485
0.0155218
0.839728
-0.835835
0.0126234
0.936842
-0.933944
0.0108194
1.04481
-1.043
0.0101544
1.16814
-1.16748
0.0104664
1.30268
-1.30299
0.0122332
1.45312
-1.45488
0.0142864
1.61215
-1.61421
0.0166612
1.75273
-1.7551
0.0174531
1.93656
-1.93736
1.92594
-1.90848
0.0314462
0.498917
0.0271168
0.553156
0.0226091
0.609155
0.0191452
0.678093
0.0163998
0.755814
0.0143786
0.841749
0.0130498
0.938171
0.0124046
1.04545
0.0125844
1.16796
0.0135291
1.30173
0.015668
1.45098
0.0178093
1.61001
0.0196889
1.75085
0.019535
1.93672
1.94547
0.0186242
0.500361
0.0155067
0.556274
0.0129669
0.611695
0.0121883
0.678871
0.0118701
0.756132
0.0121366
0.841483
0.0127349
0.937573
0.0136399
1.04455
0.0150318
1.16657
0.0168031
1.29996
0.0194226
1.44836
0.0216698
1.60777
0.0230178
1.7495
0.0218382
1.9379
1.96731
0.000470825
0.497087
0.000791234
0.555954
0.00172325
0.610763
0.00370336
0.676891
0.00617071
0.753665
0.00936219
0.838291
0.0124901
0.934445
0.0153702
1.04167
0.0181701
1.16377
0.0208308
1.2973
0.0238692
1.44532
0.0260932
1.60554
0.0265054
1.74909
0.0239704
1.94043
1.99128
-0.0278367
0.489044
-0.0193871
0.547504
-0.0131298
0.604506
-0.0066551
0.670417
-0.000388944
0.747399
0.00634312
0.831559
0.0120738
0.928714
0.0169406
1.0368
0.021152
1.15956
0.0247415
1.29371
0.0282623
1.4418
0.0304951
1.60331
0.0301107
1.74947
0.0263729
1.94417
2.01765
-0.0586132
0.475
-0.0413628
0.530253
-0.0284722
0.591615
-0.0158851
0.65783
-0.00521606
0.73673
0.00491714
0.821426
0.0129593
0.920672
0.0198515
1.02991
0.0253786
1.15403
0.0298483
1.28924
0.0336297
1.43802
0.0356358
1.6013
0.0338715
1.75124
0.0282556
1.94979
2.04591
-0.0872517
0.452268
-0.0629403
0.505942
-0.043703
0.572378
-0.0254012
0.639528
-0.0105633
0.721892
0.0029411
0.807922
0.0133846
0.910228
0.0220617
1.02123
0.0287691
1.14732
0.0339819
1.28403
0.0379658
1.43404
0.039837
1.59943
0.0372154
1.75386
0.0305327
1.95647
2.07644
-0.1024
0.423765
-0.0759884
0.479531
-0.0513649
0.547754
-0.0292813
0.617444
-0.0109337
0.703544
0.00438455
0.792604
0.0162209
0.898392
0.0260332
1.01142
0.0335926
1.13976
0.0395003
1.27812
0.0436385
1.4299
0.0453478
1.59772
0.0412362
1.75797
0.0322868
1.96542
2.10873
-0.0961482
0.398078
-0.0724719
0.455854
-0.0476108
0.522893
-0.0264383
0.596272
-0.00818329
0.685289
0.00626929
0.778151
0.0181722
0.886489
0.0282869
1.0013
0.0364691
1.13158
0.0430525
1.27154
0.047361
1.42559
0.0489585
1.59612
0.0439824
1.76295
0.0335821
1.97582
2.14231
-0.0616438
0.381029
-0.0467773
0.440988
-0.0296941
0.50581
-0.0145713
0.581149
0.000401511
0.670316
0.0126761
0.765877
0.0241255
0.87504
0.0343493
0.99108
0.0429755
1.12296
0.0499201
1.26459
0.0539144
1.42159
0.0547922
1.59525
0.0478199
1.76992
0.0352751
1.98836
2.17759
-0.030892
0.37411
-0.0249015
0.434998
-0.0171287
0.498037
-0.00798268
0.572003
0.00328982
0.659044
0.014481
0.754685
0.0257337
0.863787
0.0359515
0.980862
0.0445833
1.11432
0.05128
1.2579
0.0546407
1.41823
0.0547323
1.59516
0.0469865
1.77767
0.0335982
2.00175
2.21118
-0.00543193
0.374225
-0.00407439
0.43364
-0.000380201
0.494343
0.00516257
0.56646
0.0135279
0.650679
0.0232566
0.744957
0.0335529
0.853491
0.0433814
0.971034
0.0514404
1.10626
0.0576856
1.25165
0.0602449
1.41567
0.0595254
1.59587