/*--------------------------------*- C++ -*----------------------------------*\
| =========                 |                                                 |
| \\      /  F ield         | OpenFOAM: The Open Source CFD Toolbox           |
|  \\    /   O peration     | Version:  2512                                  |
|   \\  /    A nd           | Website:  www.openfoam.com                      |
|    \\/     M anipulation  |                                                 |
\*---------------------------------------------------------------------------*/
FoamFile
{
    version     2.0;
    format      ascii;
    arch        "LSB;label=32;scalar=64";
    class       surfaceScalarField;
    location    "149";
    object      phi;
}
// * * * * * * * * * * * * * * * * * * * * * * * * * * * * * * * * * * * * * //

dimensions      [0 3 -1 0 0 0 0];

oriented        oriented;

internalField   nonuniform List<scalar> 
26232
(
-0.000421573
0.00102731
-0.000605735
-0.00117643
0.00188308
-0.00112823
-0.00178068
0.00193874
-0.00133448
-0.00178648
0.00119089
-0.0011851
-0.000779266
-0.000517139
-0.00049007
0.00163272
-0.00337253
0.000960549
0.00582246
-0.00754601
0.00335627
0.0120708
-0.0131037
0.00685534
0.0205202
-0.0199589
0.0115094
0.031112
-0.0278548
0.0172629
0.0435659
-0.0363994
0.0239455
0.0574068
-0.0451354
0.0312945
0.0720301
-0.0536188
0.0389955
0.0867836
-0.0614832
0.0467298
0.101049
-0.0684779
0.0542124
0.11431
-0.0744857
0.0612243
0.126213
-0.0795111
0.0676084
0.136548
-0.083668
0.0733335
0.145399
-0.0871383
0.0782871
0.152806
-0.0902014
0.082794
0.159331
-0.0929583
0.0864334
0.165112
-0.0960553
0.090275
0.170503
-0.0986944
0.0933031
-0.102604
0.0972431
0.175864
-0.000181105
0.00120841
-0.000379378
0.00208135
-0.000153774
0.00171313
0.000960706
7.64067e-05
0.00342302
-0.00297945
0.00766453
-0.00761405
0.0140174
-0.0138988
0.0226228
-0.0217091
0.0333483
-0.0306844
0.0457709
-0.0402773
0.0592383
-0.0498668
0.0729858
-0.0588829
0.0862684
-0.0669014
0.0984756
-0.0736904
0.109212
-0.0792141
0.118332
-0.0836062
0.125932
-0.0871113
0.132312
-0.0900471
0.137869
-0.0926955
0.143013
-0.0953461
0.148141
-0.0980861
0.153227
-0.101141
0.15865
-0.104118
-0.107844
0.16389
5.3962e-07
0.00120787
0.000306281
0.00177561
0.00135749
0.000661926
0.00365087
-0.00221697
0.00767965
-0.00700823
0.0138464
-0.0137808
0.0223197
-0.0223721
0.0329129
-0.0323024
0.0450659
-0.0428374
0.0579548
-0.0531662
0.0706794
-0.0625914
0.0824529
-0.0706565
0.0927425
-0.077191
0.101336
-0.0822835
0.108331
-0.0862099
0.114061
-0.0893361
0.118979
-0.0920289
0.123515
-0.0945832
0.127998
-0.0971789
0.132586
-0.099934
0.137277
-0.102777
0.142016
-0.10588
0.146733
-0.108834
-0.112379
0.151267
0.000129099
0.00107877
0.000891456
0.00101325
0.00278008
-0.0012267
0.00633518
-0.00577207
0.012035
-0.012708
0.0201104
-0.0218562
0.0303559
-0.0326176
0.0420938
-0.0440403
0.054342
-0.0550856
0.0660885
-0.0649128
0.0765437
-0.0730465
0.0852894
-0.0794022
0.0923044
-0.084206
0.0978819
-0.0878611
0.10248
-0.0908075
0.10656
-0.0934161
0.110469
-0.0959381
0.114389
-0.0985032
0.118377
-0.101168
0.12238
-0.103936
0.126414
-0.106811
0.130393
-0.109859
0.134436
-0.112878
-0.116438
0.138495
0.000244518
0.000834256
0.00147918
-0.000221408
0.00428136
-0.00402888
0.00920549
-0.0106962
0.0165831
-0.0200856
0.0262485
-0.0315216
0.0374478
-0.0438169
0.0490556
-0.0556481
0.0599551
-0.0659851
0.0693588
-0.0743165
0.0769536
-0.0806412
0.0828647
-0.0853134
0.0874971
-0.0888384
0.0913355
-0.0916995
0.0947866
-0.0942585
0.0981061
-0.0967357
0.101409
-0.0992407
0.104731
-0.101826
0.108075
-0.104511
0.11146
-0.107321
0.114906
-0.110257
0.118396
-0.113348
0.122004
-0.116486
-0.119997
0.125563
0.000389969
0.000444287
0.00217758
-0.00200902
0.00600019
-0.00785148
0.0123284
-0.0170244
0.0211254
-0.0288826
0.0316392
-0.0420355
0.0426252
-0.0548029
0.0528465
-0.0658693
0.0614845
-0.0746232
0.068283
-0.0811149
0.0734496
-0.0858078
0.077434
-0.0892978
0.0807074
-0.0921118
0.0836277
-0.0946199
0.0864089
-0.0970397
0.0891562
-0.099483
0.0919207
-0.102005
0.0947268
-0.104632
0.0975924
-0.107377
0.100513
-0.110242
0.103481
-0.113225
0.106465
-0.116332
0.10949
-0.119511
-0.122956
0.112449
0.000588616
-0.000144329
0.00302502
-0.00444542
0.00793232
-0.0127588
0.0155028
-0.0245949
0.0251197
-0.0384995
0.035474
-0.0523898
0.0451779
-0.0645068
0.0533135
-0.074005
0.0596066
-0.0809163
0.0642834
-0.0857917
0.0678018
-0.0893262
0.0706194
-0.0921154
0.0730757
-0.0945681
0.0753778
-0.096922
0.0776365
-0.0992984
0.0799067
-0.101753
0.0822102
-0.104309
0.0845518
-0.106973
0.0869234
-0.109749
0.0893197
-0.112638
0.0917404
-0.115646
0.0941782
-0.11877
0.0966656
-0.121998
-0.12542
0.0991295
0.000838864
-0.000983194
0.00399228
-0.00759884
0.00992193
-0.0186884
0.0183209
-0.0329938
0.0279442
-0.0481228
0.0372357
-0.0616812
0.0450848
-0.0723559
0.0511056
-0.0800258
0.0554827
-0.0852934
0.0586642
-0.0889733
0.0611093
-0.0917712
0.063164
-0.0941701
0.0650438
-0.0964479
0.0668641
-0.0987423
0.0686778
-0.101112
0.0705033
-0.103579
0.072345
-0.10615
0.0742034
-0.108832
0.0760823
-0.111628
0.0779858
-0.114542
0.0799129
-0.117573
0.0818578
-0.120715
0.0838233
-0.123963
-0.127338
0.0857414
0.00112659
-0.00210978
0.00499616
-0.0114684
0.0117204
-0.0254126
0.0203503
-0.0416238
0.0292208
-0.0569933
0.0369336
-0.069394
0.0428745
-0.0782968
0.0471158
-0.0842671
0.0500764
-0.088254
0.052227
-0.0911239
0.0539364
-0.0934806
0.0554371
-0.0956708
0.056852
-0.0978628
0.0582361
-0.100126
0.0596107
-0.102487
0.0609846
-0.104953
0.0623631
-0.107529
0.0637505
-0.110219
0.0651482
-0.113025
0.0665544
-0.115948
0.0679659
-0.118985
0.0693805
-0.12213
0.0707989
-0.125382
-0.128739
0.0721999
0.00142768
-0.00353747
0.00592471
-0.0159654
0.0130694
-0.0325573
0.0213155
-0.0498699
0.028937
-0.0646148
0.0349516
-0.0754086
0.0392152
-0.0825604
0.042075
-0.0871268
0.0440109
-0.0901899
0.0454261
-0.0925391
0.0465817
-0.0946363
0.0476177
-0.0967068
0.0485982
-0.0988433
0.04955
-0.101078
0.0504851
-0.103422
0.0514093
-0.105877
0.0523261
-0.108446
0.0532376
-0.11113
0.0541455
-0.113933
0.0550517
-0.116854
0.0559557
-0.119889
0.0568566
-0.123031
0.0577505
-0.126276
-0.12961
0.0586214
0.00171399
-0.00525146
0.00666198
-0.0209134
0.0137853
-0.0396806
0.021172
-0.0572566
0.0273428
-0.0707856
0.0317811
-0.0798469
0.0346752
-0.0854545
0.0364888
-0.0889405
0.0376655
-0.0913667
0.0385111
-0.0933846
0.039195
-0.0953202
0.0397971
-0.0973088
0.040351
-0.0993972
0.0408709
-0.101598
0.0413629
-0.103914
0.0418313
-0.106345
0.0422797
-0.108894
0.042712
-0.111563
0.0431315
-0.114353
0.0435388
-0.117261
0.0439327
-0.120283
0.0443098
-0.123408
0.0446636
-0.12663
-0.129944
0.0449975
0.00195932
-0.00721077
0.00711714
-0.0260712
0.0138083
-0.0463718
0.0200612
-0.0635095
0.0247908
-0.0755152
0.0278699
-0.082926
0.0296766
-0.0872612
0.0306855
-0.0899494
0.0312613
-0.0919424
0.0316193
-0.0937426
0.0318641
-0.095565
0.0320398
-0.0974845
0.0321641
-0.0995216
0.032245
-0.101679
0.0322873
-0.103956
0.0322951
-0.106353
0.0322722
-0.108871
0.0322214
-0.111512
0.0321452
-0.114276
0.0320454
-0.117162
0.0319235
-0.120161
0.0317788
-0.123263
0.0316072
-0.126458
0.0314108
-0.129747
-7.40159e-05
-0.00882278
0.00889679
-0.000790533
-0.0186582
0.0193747
-0.0022085
-0.0233782
0.0247961
-0.00418896
-0.0250764
0.0270568
-0.0065569
-0.0253394
0.0277074
-0.00916318
-0.0250689
0.0276752
-0.0118859
-0.0245704
0.0272932
-0.0146201
-0.0237959
0.02653
-0.0172687
-0.0225661
0.0252147
-0.0197397
-0.0206917
0.0231628
-0.0219493
-0.0180119
0.0202215
-0.023829
-0.0144023
0.016282
-0.0253339
-0.00977349
0.0112785
-0.0264565
-0.00405165
0.00517425
-0.0271179
0.00254487
-0.00188355
-0.0273092
0.0101013
-0.00990994
-0.0269971
0.0185941
-0.0189062
-0.0261256
0.0278791
-0.0287506
-0.0246299
0.0377787
-0.0392744
-0.0224776
0.0480543
-0.0502066
-0.0196896
0.058407
-0.0611949
-0.016407
0.0684818
-0.0717644
-0.0128153
0.0779651
-0.0815569
0.0866337
-0.00929486
-0.0901541
-0.000432159
-0.00839062
-0.00174328
-0.0173471
-0.00378326
-0.0213382
-0.00638142
-0.0224782
-0.00940386
-0.022317
-0.0127509
-0.0217219
-0.016334
-0.0209873
-0.0200613
-0.0200686
-0.0238321
-0.0187953
-0.0275379
-0.0169858
-0.0310665
-0.0144833
-0.0343083
-0.0111605
-0.0371673
-0.00691452
-0.0395837
-0.00163522
-0.0413519
0.00431308
-0.0425084
0.0112578
-0.042962
0.0190476
-0.0426266
0.0275437
-0.0414147
0.0365669
-0.0392444
0.045884
-0.0360558
0.0552184
-0.0318293
0.0642552
-0.0264654
0.0726012
0.079997
-0.0198287
-0.000698443
-0.00769218
-0.00240703
-0.0156385
-0.00482391
-0.0189213
-0.00775654
-0.0195456
-0.011107
-0.0189665
-0.0148192
-0.0180097
-0.0188333
-0.0169732
-0.0230684
-0.0158335
-0.0274233
-0.0144405
-0.0317796
-0.0126295
-0.0360072
-0.0102557
-0.0399681
-0.00719963
-0.043532
-0.00335055
-0.0463964
0.00122913
-0.0486475
0.00656422
-0.0500701
0.0126804
-0.0505043
0.0194818
-0.049796
0.0268355
-0.0477855
0.0345564
-0.0443056
0.042404
-0.039161
0.0500738
-0.032177
0.0572712
-0.0232306
0.0636548
0.0685401
-0.0117737
-0.000860479
-0.0068317
-0.00277731
-0.0137217
-0.00534223
-0.0163564
-0.00834203
-0.0165458
-0.0116968
-0.0156117
-0.0153777
-0.0143288
-0.0193455
-0.0130054
-0.0235277
-0.0116513
-0.0278205
-0.0101478
-0.0320967
-0.00835328
-0.036207
-0.00614541
-0.0399828
-0.00342382
-0.0432149
-0.000118424
-0.0457425
0.00375677
-0.0474072
0.00822888
-0.0479837
0.0132569
-0.047256
0.018754
-0.045004
0.0245835
-0.0409996
0.030552
-0.0350212
0.0364256
-0.0268483
0.0419009
-0.0161261
0.046549
-0.00287084
0.0503996
0.0522142
0.0134551
-0.000936364
-0.00589533
-0.0029209
-0.0117372
-0.00547242
-0.0138049
-0.0083482
-0.01367
-0.0114622
-0.0124977
-0.0147921
-0.0109989
-0.0183083
-0.00948918
-0.0219427
-0.00801696
-0.0255873
-0.00650316
-0.0291058
-0.0048348
-0.0323344
-0.00291674
-0.0350741
-0.000684122
-0.0371557
0.00196312
-0.0383587
0.00495977
-0.0384526
0.00832276
-0.0371974
0.0120018
-0.0343475
0.0159041
-0.0296565
0.0198926
-0.022892
0.0237875
-0.0137869
0.0273204
-0.00229003
0.030404
0.012048
0.032211
0.0285458
0.0339018
0.0315954
0.0491647
-0.000962148
-0.00493319
-0.00294299
-0.00975632
-0.00540915
-0.0113387
-0.00807945
-0.0109997
-0.0108407
-0.00973653
-0.0136569
-0.00818262
-0.0164965
-0.00664959
-0.0192924
-0.00522105
-0.0219355
-0.00386007
-0.0242784
-0.00249184
-0.0261437
-0.00105148
-0.0273867
0.000558836
-0.0277481
0.00232454
-0.0270338
0.00424547
-0.0250134
0.00630236
-0.0214519
0.00844028
-0.0161182
0.0105704
-0.00879967
0.012574
0.000660813
0.014327
0.0125684
0.0154129
0.0265915
0.0163809
0.0437067
0.0150958
0.0623131
0.0152954
0.00935582
0.0845527
-0.000975251
-0.00395793
-0.00294531
-0.00778626
-0.00533631
-0.00894771
-0.00782675
-0.00850927
-0.0102658
-0.0072975
-0.0125906
-0.00585781
-0.0147572
-0.00448298
-0.0166978
-0.00328045
-0.0183048
-0.00225309
-0.0194382
-0.00135841
-0.0199376
-0.000552064
-0.0196065
0.000227688
-0.0182442
0.000962312
-0.015652
0.00165323
-0.0116272
0.00227759
-0.00596548
0.00277853
0.00150558
0.00309932
0.0109547
0.00312492
0.022458
0.00282374
0.0362989
0.001572
0.0520039
0.000675795
0.0705667
-0.00346688
0.0902955
-0.00443351
-0.0135222
0.113174
-0.000996207
-0.00296173
-0.00297927
-0.0058032
-0.00534428
-0.00658269
-0.00773704
-0.00611651
-0.00997121
-0.00506333
-0.0119533
-0.00387576
-0.0136202
-0.00281608
-0.0148965
-0.00200413
-0.0156771
-0.00147246
-0.0158233
-0.00121226
-0.0151719
-0.00120343
-0.0135162
-0.00142805
-0.0106679
-0.00188596
-0.00642808
-0.00258657
-0.000607425
-0.00354306
0.00695939
-0.00478829
0.0164454
-0.00638672
0.027968
-0.00839769
0.0416441
-0.0108524
0.0574812
-0.0142651
0.0754684
-0.0173114
0.0957091
-0.0237076
0.117658
-0.0263827
-0.0376917
0.141828
-0.00101513
-0.0019466
-0.00301146
-0.00380687
-0.0053666
-0.00422755
-0.00770535
-0.00377777
-0.00981163
-0.00295705
-0.0115578
-0.00212963
-0.012847
-0.00152678
-0.0135744
-0.00127682
-0.013604
-0.00144287
-0.0127647
-0.00205149
-0.0108548
-0.0031133
-0.00765125
-0.00463165
-0.00293424
-0.00660298
0.00349704
-0.00901784
0.0118232
-0.0118692
0.0221963
-0.0151614
0.0346815
-0.0188718
0.0493246
-0.0230409
0.0661551
-0.0276828
0.0848079
-0.0329179
0.105774
-0.0382778
0.12756
-0.0454935
0.151604
-0.0504267
-0.0613916
0.175304
-0.000992518
-0.000954083
-0.00292664
-0.00187275
-0.00518123
-0.00197296
-0.00736766
-0.00159134
-0.00923388
-0.00109083
-0.0105979
-0.000765645
-0.0113006
-0.000824025
-0.0111655
-0.0014119
-0.00998542
-0.002623
-0.00752379
-0.00451312
-0.00353375
-0.00710335
0.0022121
-0.0103775
0.00990005
-0.0142909
0.0196545
-0.0187723
0.0315135
-0.0237282
0.0454464
-0.0290943
0.0612999
-0.0347253
0.0789297
-0.0406707
0.0979881
-0.0467412
0.118079
-0.0530089
0.139204
-0.0594025
0.159663
-0.0659523
0.181246
-0.0720104
-0.0797225
0.199577
-0.000883471
-7.06124e-05
-0.00259369
-0.000162533
-0.00453061
-3.60343e-05
-0.00629653
0.000174579
-0.00758259
0.000195229
-0.00812717
-0.000221073
-0.00770105
-0.00125014
-0.0060339
-0.00307905
-0.00285229
-0.00580461
0.00209947
-0.00946487
0.00902366
-0.0140275
0.0180384
-0.0193923
0.0291485
-0.0254009
0.0422389
-0.0318628
0.0570839
-0.0385732
0.0733557
-0.0453661
0.0906599
-0.0520296
0.108567
-0.0585778
0.12651
-0.0646843
0.144181
-0.0706798
0.160866
-0.0760872
0.17621
-0.0812969
0.190352
-0.0861521
-0.0903639
0.200993
-0.000676347
-0.00196711
-0.00333762
-0.00434813
-0.00464298
-0.0039035
-0.00179737
0.00197893
0.00768376
0.0154818
0.0253998
0.037302
0.0508966
0.0657636
0.0814028
0.097261
0.11284
0.127596
0.141198
0.153313
0.163659
0.172637
0.179788
0.186667
-0.00417897
0.127955
-0.133071
0.00116769
0.13779
-0.143137
0.0091348
0.142158
-0.150125
0.0215393
0.139212
-0.151616
0.0392672
0.126087
-0.143815
0.0610627
0.101924
-0.12372
0.0835282
0.069243
-0.0917085
0.10326
0.0310888
-0.0508202
0.119463
-0.0134042
-0.00279928
0.133058
-0.0646417
0.0510472
0.144016
-0.115096
0.104138
0.151393
-0.15351
0.146132
0.154989
-0.174287
0.170692
0.155253
-0.180143
0.179878
0.153171
-0.179043
0.181125
0.150429
-0.176363
0.179106
0.147479
-0.173453
0.176403
0.142639
-0.175714
0.180554
0.134822
-0.189069
0.196886
0.125906
-0.204275
0.21319
0.119623
-0.195818
0.202101
0.118408
-0.143831
0.145045
0.123037
-0.0543989
0.0497701
0.131532
0.045955
-0.0544499
0.14096
0.130451
-0.13988
0.148954
0.185994
-0.193988
0.155372
0.210636
-0.217054
0.159618
0.215562
-0.219808
0.159915
0.225455
-0.225752
0.155358
0.250949
-0.246392
0.146658
0.273754
-0.265055
0.136224
0.26357
-0.253136
0.127733
0.201189
-0.192698
0.124391
0.0907825
-0.0874404
0.126508
-0.0383412
0.0362237
0.132615
-0.148898
0.142792
0.139365
-0.218431
0.211681
0.141062
-0.24955
0.247853
0.134671
-0.267317
0.273708
0.123648
-0.276757
0.287781
0.1142
-0.25275
0.262197
0.111403
-0.175006
0.177803
0.116541
-0.0524779
0.0473402
0.124401
0.0676841
-0.0755448
0.127656
0.175306
-0.178561
0.125447
0.258252
-0.256043
0.121672
0.305138
-0.301363
0.11941
0.288263
-0.286001
0.119628
0.181621
-0.181839
0.120993
0.0402949
-0.0416608
0.119507
-0.136399
0.137885
0.116981
-0.270784
0.27331
0.114897
-0.323522
0.325606
0.113971
-0.283607
0.284533
0.111148
-0.0639886
0.0668123
0.108205
0.129203
-0.126261
0.105321
0.308068
-0.305184
0.102423
0.364611
-0.361712
0.095358
0.0496408
-0.0425763
-0.102957
0.106296
-0.00808897
0.116215
0.00557782
0.124123
0.0220788
0.125657
0.0418749
0.119416
0.064495
0.103467
0.0881154
0.0783041
0.109672
0.0476864
0.126897
0.013864
0.14008
-0.026587
0.150365
-0.0749275
0.157456
-0.122187
0.160437
-0.15649
0.159661
-0.173511
0.156332
-0.176814
0.151407
-0.174118
0.14628
-0.171236
0.141419
-0.168592
0.134777
-0.169072
0.124804
-0.179097
0.113763
-0.193233
0.106412
-0.188467
0.10591
-0.143328
0.112574
-0.0610626
0.124162
0.0343673
0.136581
0.118032
0.147452
0.175124
0.15654
0.201548
0.163175
0.208927
0.166095
0.222535
0.164354
0.25269
0.157858
0.280249
0.148284
0.273144
0.139166
0.210307
0.133618
0.0963304
0.132513
-0.0372358
0.134978
-0.151363
0.139098
-0.222552
0.139616
-0.250068
0.132431
-0.260132
0.120871
-0.265198
0.111961
-0.24384
0.11056
-0.173605
0.116819
-0.0587363
0.12503
0.0594728
0.128769
0.171567
0.127153
0.259868
0.123758
0.308533
0.121167
0.290853
0.120893
0.181895
0.122009
0.0391782
0.119707
-0.134096
0.116408
-0.267485
0.113626
-0.32074
0.113246
-0.283227
0.111458
-0.0622002
0.109313
0.131348
0.107896
0.309485
0.104073
0.368433
0.0955184
0.0581956
-0.099488
0.00544509
0.0989963
0.0250029
0.104565
0.0462448
0.104415
0.0689213
0.0967391
0.0921125
0.0802759
0.114192
0.0562242
0.132893
0.0289862
0.147141
-0.000384058
0.157639
-0.037085
0.165147
-0.0824358
0.168788
-0.125828
0.167703
-0.155405
0.162927
-0.168736
0.156543
-0.17043
0.149471
-0.167045
0.142441
-0.164206
0.136184
-0.162335
0.128683
-0.161571
0.117391
-0.167805
0.104353
-0.180194
0.095544
-0.179659
0.0952862
-0.143071
0.103543
-0.0693191
0.117393
0.0205173
0.132323
0.103101
0.145898
0.16155
0.157541
0.189905
0.166673
0.199795
0.172526
0.216682
0.17403
0.251186
0.170189
0.28409
0.161746
0.281587
0.15189
0.220163
0.143947
0.104274
0.139516
-0.0328049
0.1382
-0.150047
0.139397
-0.223748
0.138871
-0.249542
0.131304
-0.252565
0.119218
-0.253112
0.110407
-0.23503
0.110091
-0.173288
0.117304
-0.0659498
0.126051
0.0507257
0.130529
0.16709
0.129578
0.260819
0.126387
0.311723
0.123329
0.293911
0.122498
0.182726
0.123465
0.0382119
0.120522
-0.131153
0.116398
-0.263362
0.112847
-0.317189
0.112939
-0.283319
0.112319
-0.0615805
0.110993
0.132675
0.110948
0.309529
0.106447
0.372935
0.0965273
0.0681149
-0.0957218
0.0330963
0.0793551
0.0543177
0.0833441
0.076466
0.0822665
0.0985589
0.0746462
0.119542
0.0592928
0.138122
0.0376446
0.152918
0.0141896
0.164301
-0.0117671
0.173027
-0.0458107
0.178264
-0.0876724
0.17837
-0.125934
0.173358
-0.150394
0.16511
-0.160488
0.156148
-0.161468
0.147547
-0.158444
0.139219
-0.155878
0.131698
-0.154813
0.123845
-0.153719
0.112454
-0.156414
0.0982059
-0.165946
0.0875754
-0.169028
0.0865524
-0.142048
0.0953838
-0.0781505
0.11075
0.0051507
0.12777
0.0860813
0.143797
0.145523
0.157844
0.175857
0.169465
0.188175
0.178485
0.207662
0.183698
0.245973
0.182981
0.284807
0.175938
0.288631
0.165315
0.230786
0.154981
0.114608
0.147373
-0.0251972
0.142372
-0.145046
0.140298
-0.221674
0.138593
-0.247837
0.131057
-0.245029
0.118621
-0.240676
0.109507
-0.225916
0.109764
-0.173545
0.117879
-0.0740645
0.127385
0.0412198
0.132834
0.161641
0.132605
0.261048
0.129507
0.314822
0.125857
0.29756
0.124406
0.184177
0.125321
0.0372972
0.121927
-0.127759
0.116971
-0.258406
0.112561
-0.312779
0.113044
-0.283802
0.113661
-0.0621977
0.11317
0.133166
0.114461
0.308239
0.109523
0.377872
0.0983719
0.0792665
-0.0915549
0.0679396
0.0605801
0.0878674
0.0634163
0.108157
0.061977
0.127536
0.0552673
0.144809
0.0420194
0.158999
0.0234552
0.169845
0.00334373
0.178729
-0.0206518
0.185793
-0.0528745
0.188604
-0.0904837
0.18519
-0.122519
0.176712
-0.141916
0.165862
-0.149638
0.155097
-0.150702
0.145517
-0.148864
0.136593
-0.146955
0.128313
-0.146533
0.120277
-0.145682
0.109502
-0.14564
0.0949706
-0.151415
0.0824778
-0.156535
0.0796988
-0.139268
0.0881645
-0.0866162
0.104246
-0.0109309
0.122822
0.0675052
0.140834
0.127511
0.156895
0.159796
0.170855
0.174215
0.183065
0.195452
0.192177
0.23686
0.195255
0.281729
0.190558
0.293327
0.179443
0.241901
0.166543
0.127509
0.155783
-0.0144376
0.147289
-0.136552
0.141761
-0.216147
0.138651
-0.244727
0.131484
-0.237862
0.118972
-0.228163
0.109193
-0.216137
0.109463
-0.173815
0.118372
-0.0829736
0.128863
0.0307292
0.135605
0.154899
0.136286
0.260366
0.1332
0.317908
0.128797
0.301964
0.126604
0.18637
0.127553
0.0363489
0.123883
-0.12409
0.118121
-0.252644
0.112757
-0.307416
0.11353
-0.284574
0.115436
-0.0641033
0.115761
0.13284
0.11838
0.30562
0.11327
0.382982
0.101031
0.0915053
-0.0869137
0.101192
0.0439407
0.118322
0.0462859
0.13539
0.0449093
0.151232
0.0394258
0.164707
0.0285443
0.175101
0.0130612
0.18373
-0.00528544
0.191003
-0.0279247
0.196202
-0.0580738
0.195956
-0.0902382
0.189041
-0.115604
0.177726
-0.130602
0.165149
-0.13706
0.153345
-0.138899
0.143225
-0.138744
0.134121
-0.137851
0.12545
-0.137862
0.117484
-0.137716
0.107993
-0.136149
0.0943526
-0.137774
0.080394
-0.142577
0.0749352
-0.13381
0.0819506
-0.0936316
0.0977047
-0.026685
0.117318
0.0478923
0.136779
0.10805
0.154436
0.14214
0.170382
0.158269
0.185524
0.180309
0.198651
0.223734
0.205762
0.274617
0.203816
0.295274
0.193332
0.252385
0.178199
0.142641
0.164399
-0.00063719
0.152721
-0.124874
0.143698
-0.207124
0.138824
-0.239853
0.132236
-0.231274
0.120071
-0.215998
0.109407
-0.205473
0.109087
-0.173495
0.118607
-0.0924929
0.130322
0.0190142
0.138622
0.146599
0.140378
0.25861
0.13736
0.320925
0.132163
0.30716
0.129119
0.189414
0.130112
0.0353566
0.126335
-0.120313
0.119821
-0.246129
0.113423
-0.301018
0.11435
-0.285502
0.117562
-0.0673152
0.118673
0.131729
0.122624
0.30167
0.117618
0.387988
0.104473
0.10465
-0.08175
0.12691
0.0302045
0.14102
0.032176
0.155038
0.0308912
0.168046
0.0264175
0.179204
0.0173864
0.187988
0.0042774
0.195453
-0.012751
0.201653
-0.0341243
0.204126
-0.0605466
0.200038
-0.0861507
0.189769
-0.105335
0.176395
-0.117227
0.162947
-0.123613
0.150813
-0.126765
0.140514
-0.128445
0.131607
-0.128944
0.122965
-0.12922
0.114895
-0.129646
0.106777
-0.128031
0.0952914
-0.126288
0.081159
-0.128444
0.0726744
-0.125325
0.0767962
-0.0977534
0.0913933
-0.0412821
0.111294
0.0279915
0.13163
0.0877133
0.15037
0.123401
0.167799
0.14084
0.185436
0.162673
0.202296
0.206873
0.213765
0.263149
0.215512
0.293527
0.20649
0.261406
0.190212
0.15892
0.173102
0.0164722
0.158308
-0.110079
0.145994
-0.19481
0.139002
-0.23286
0.13299
-0.225262
0.121662
-0.204671
0.11012
-0.193931
0.108609
-0.171983
0.118414
-0.102298
0.131529
0.00589915
0.141751
0.136377
0.144958
0.255403
0.142144
0.32374
0.13607
0.313235
0.131995
0.193488
0.132974
0.034378
0.129218
-0.116557
0.122025
-0.238936
0.11453
-0.293524
0.115435
-0.286407
0.119966
-0.0718456
0.121836
0.129859
0.127107
0.296398
0.122491
0.392604
0.108644
0.118496
-0.0760488
0.151648
0.020384
0.162441
0.0213835
0.173506
0.0198256
0.184047
0.0158769
0.193218
0.00821544
0.201039
-0.00354327
0.206799
-0.0185117
0.210087
-0.0374125
0.208115
-0.0585744
0.199773
-0.0778083
0.187027
-0.0925887
0.172872
-0.103072
0.159508
-0.110249
0.147691
-0.114947
0.137469
-0.118223
0.128753
-0.120228
0.120546
-0.121013
0.112535
-0.121635
0.10526
-0.120756
0.0964343
-0.117462
0.0839774
-0.115988
0.0733019
-0.11465
0.073386
-0.0978376
0.0855914
-0.0534875
0.104887
0.00869585
0.125413
0.0671871
0.144629
0.104185
0.163036
0.122433
0.182606
0.143103
0.202654
0.186825
0.21816
0.247644
0.223397
0.28829
0.216204
0.268599
0.199771
0.175353
0.180608
0.0356353
0.16349
-0.0929613
0.148406
-0.179726
0.139075
-0.22353
0.133447
-0.219634
0.123428
-0.194651
0.111273
-0.181777
0.108056
-0.168767
0.117673
-0.111915
0.132256
-0.00868297
0.144633
0.123999
0.149588
0.250448
0.147349
0.325979
0.140546
0.320037
0.135283
0.198751
0.136123
0.0335381
0.132465
-0.112899
0.124672
-0.231143
0.116047
-0.284899
0.11672
-0.287081
0.122557
-0.0776822
0.125152
0.127265
0.131713
0.289837
0.127774
0.396543
0.113473
0.132798
-0.069829
0.180854
0.0148339
0.187783
0.0144547
0.195058
0.0125512
0.202103
0.00883134
0.208022
0.00229705
0.212482
-0.00800353
0.214504
-0.0205342
0.21289
-0.0357983
0.206128
-0.0518124
0.19485
-0.0665299
0.181369
-0.0791077
0.167715
-0.0894186
0.155075
-0.0976079
0.143912
-0.103784
0.134075
-0.108386
0.125532
-0.111686
0.117817
-0.113298
0.11017
-0.113988
0.103253
-0.11384
0.0965826
-0.110792
0.0871722
-0.106577
0.0763767
-0.103854
0.072493
-0.0939539
0.0809082
-0.0619027
0.098506
-0.00890189
0.118581
0.0471119
0.137741
0.085025
0.156318
0.103856
0.176824
0.122596
0.199613
0.164037
0.219515
0.227742
0.229333
0.278471
0.225073
0.272859
0.208726
0.191701
0.187146
0.0572155
0.168007
-0.0738224
0.150748
-0.162467
0.139006
-0.211788
0.133405
-0.214033
0.125033
-0.18628
0.11274
-0.169483
0.107502
-0.163528
0.11627
-0.120684
0.132247
-0.0246598
0.147166
0.10908
0.154382
0.243232
0.153098
0.327263
0.14563
0.327505
0.139022
0.20536
0.139474
0.0330862
0.135991
-0.109416
0.127679
-0.222831
0.117908
-0.275128
0.118126
-0.287298
0.125264
-0.0848202
0.128558
0.123971
0.13635
0.282045
0.133359
0.399533
0.118871
0.147285
-0.0631466
0.202287
0.012124
0.205898
0.0108443
0.209419
0.00902972
0.212587
0.00566353
0.214843
4.0751e-05
0.21498
-0.00814036
0.21267
-0.0182241
0.206922
-0.0300508
0.197659
-0.0425495
0.186063
-0.0549337
0.173611
-0.0666551
0.161317
-0.0771253
0.14978
-0.0860705
0.139388
-0.0933922
0.130099
-0.0990971
0.121813
-0.103399
0.114512
-0.105997
0.107531
-0.107007
0.100893
-0.107202
0.095313
-0.105211
0.0889802
-0.100244
0.0802884
-0.0951623
0.0742081
-0.0878736
0.078283
-0.0659776
0.092445
-0.0230639
0.111217
0.0283401
0.129711
0.0665311
0.147903
0.085664
0.168724
0.101775
0.192879
0.139881
0.215588
0.205034
0.229472
0.264586
0.228766
0.273565
0.213723
0.206744
0.19192
0.0790185
0.171603
-0.0535058
0.152781
-0.143645
0.138666
-0.197673
0.132654
-0.208021
0.126141
-0.179767
0.114301
-0.157642
0.106989
-0.156217
0.114238
-0.127933
0.131206
-0.0416277
0.148684
0.0916014
0.158559
0.233357
0.159006
0.326816
0.151405
0.335106
0.143246
0.213519
0.143054
0.0332784
0.139719
-0.106081
0.130946
-0.214057
0.120036
-0.264219
0.119583
-0.286844
0.127996
-0.0932338
0.131962
0.120005
0.140876
0.273131
0.139093
0.401317
0.124736
0.161642
-0.0560987
0.202826
0.0102916
0.204713
0.00895657
0.206229
0.00751383
0.207186
0.00470655
0.206872
0.000355083
0.204862
-0.00613022
0.200681
-0.0140429
0.194081
-0.0234508
0.185441
-0.0339101
0.175471
-0.0449632
0.164801
-0.0559854
0.154012
-0.0663361
0.143611
-0.0756698
0.133975
-0.0837558
0.125244
-0.0903666
0.117335
-0.0954903
0.110329
-0.0989909
0.104022
-0.1007
0.0979868
-0.101167
0.0928297
-0.100054
0.0884508
-0.0958654
0.0827839
-0.0894954
0.0769947
-0.0820844
0.0776375
-0.0666204
0.0881548
-0.0335812
0.104725
0.0117695
0.121829
0.0494271
0.138701
0.0687925
0.158594
0.0818814
0.183883
0.114592
0.210425
0.178492
0.228774
0.246237
0.231508
0.270831
0.218011
0.220241
0.195183
0.101847
0.173502
-0.0318254
0.154015
-0.124158
0.13801
-0.181668
0.131134
-0.201145
0.126528
-0.175161
0.115787
-0.146901
0.106587
-0.147018
0.11152
-0.132865
0.129059
-0.0591668
0.149482
0.0711784
0.162455
0.220384
0.164926
0.324344
0.157481
0.342551
0.147787
0.223213
0.14664
0.0344253
0.143556
-0.102997
0.134391
-0.204892
0.122411
-0.252239
0.121049
-0.285482
0.130701
-0.102886
0.13534
0.115366
0.145249
0.263222
0.144879
0.401687
0.130963
0.175558
-0.0488177
0.188463
0.00849539
0.189652
0.00776815
0.190647
0.00651881
0.191156
0.00419721
0.190945
0.000566177
0.189017
-0.00420199
0.185518
-0.0105447
0.180334
-0.0182666
0.173583
-0.0271592
0.165502
-0.0368823
0.156483
-0.0469657
0.147048
-0.0569011
0.137722
-0.0663439
0.128856
-0.0748901
0.120654
-0.082164
0.113194
-0.0880304
0.106497
-0.092294
0.100604
-0.0948077
0.0952473
-0.09581
0.0904321
-0.095239
0.0867451
-0.0921784
0.0833255
-0.0860757
0.0794019
-0.0781608
0.0785742
-0.0657927
0.0853696
-0.0403767
0.0984641
-0.00132497
0.113721
0.0341706
0.128772
0.0537414
0.146477
0.0641758
0.169962
0.0911074
0.19708
0.151374
0.21997
0.223347
0.229098
0.261703
0.219452
0.229887
0.197567
0.123732
0.175644
-0.00990273
0.15559
-0.104103
0.137909
-0.163987
0.129542
-0.192778
0.126459
-0.172078
0.117283
-0.137725
0.106614
-0.136348
0.108818
-0.13507
0.125518
-0.0758665
0.1481
0.0485969
0.164705
0.203779
0.170551
0.318498
0.16441
0.348692
0.152994
0.234629
0.150664
0.0367546
0.147647
-0.0999797
0.138048
-0.195293
0.125108
-0.239299
0.122696
-0.28307
0.133298
-0.113488
0.13857
0.110094
0.149299
0.252493
0.15054
0.400446
0.137431
0.188667
-0.0414812
0.200409
0.00736618
-0.19928
0.202036
0.00614117
0.203988
0.00456617
0.205925
0.00226116
0.207566
-0.00107575
0.208928
-0.00556305
0.209647
-0.0112641
0.20951
-0.0181298
0.208318
-0.0259669
0.205965
-0.0345298
0.202499
-0.043499
0.198029
-0.0524314
0.192707
-0.0610224
0.186659
-0.0688413
0.179976
-0.075481
0.172854
-0.0809089
0.165409
-0.0848487
0.15776
-0.087159
0.150134
-0.0881841
0.142224
-0.0873293
0.134213
-0.0841666
0.126482
-0.078345
0.117914
-0.0695934
0.10856
-0.0564384
0.10219
-0.0340068
0.102386
-0.00152046
0.108098
0.0284584
0.118145
0.0436943
0.130181
0.0521397
0.14279
0.0784985
0.155776
0.138388
0.169272
0.209851
0.181136
0.249838
0.189213
0.22181
0.192282
0.120662
0.191599
-0.00921975
0.185423
-0.0979272
0.17295
-0.151514
0.16175
-0.181578
0.153366
-0.163694
0.140951
-0.12531
0.126469
-0.121866
0.120934
-0.129535
0.125931
-0.0808629
0.135983
0.0385444
0.142964
0.196799
0.146217
0.315244
0.146493
0.348417
0.146463
0.234659
0.152322
0.0308957
0.154078
-0.101736
0.14604
-0.187256
0.13206
-0.225318
0.12454
-0.275551
0.128102
-0.11705
0.128786
0.10941
0.136831
0.244448
0.140259
0.397018
0.13068
0.198246
-0.034155
0.210773
0.00662006
-0.210027
0.211809
0.00510503
0.213157
0.0032181
0.214671
0.000747098
0.216052
-0.00245648
0.21707
-0.00658123
0.217486
-0.0116802
0.217108
-0.0177522
0.215789
-0.0246479
0.213422
-0.0321624
0.209988
-0.0400645
0.205524
-0.0479678
0.2001
-0.0555984
0.193889
-0.0626303
0.187062
-0.0686539
0.179849
-0.0736965
0.17251
-0.077509
0.165015
-0.0796642
0.157561
-0.0807304
0.150125
-0.079893
0.142418
-0.0764592
0.135019
-0.0709468
0.128096
-0.0626697
0.120942
-0.0492843
0.115102
-0.0281671
0.11364
-5.80414e-05
0.118177
0.0239211
0.126903
0.0349686
0.13784
0.0412019
0.150131
0.066208
0.163993
0.124526
0.179218
0.194626
0.192924
0.236132
0.202343
0.212391
0.206202
0.116803
0.205419
-0.00843658
0.198524
-0.0910325
0.184887
-0.137876
0.172228
-0.16892
0.163676
-0.155142
0.152034
-0.113669
0.137136
-0.106967
0.130068
-0.122467
0.134551
-0.0853455
0.146377
0.0267175
0.155808
0.187369
0.161409
0.309643
0.163237
0.346588
0.162759
0.235138
0.167983
0.0256721
0.169064
-0.102817
0.159595
-0.177787
0.143599
-0.209322
0.134956
-0.266908
0.139243
-0.121336
0.140081
0.108571
0.14858
0.235949
0.153511
0.392087
0.144371
0.207387
-0.0264126
0.220896
0.0059869
-0.220263
0.221779
0.00422171
0.222846
0.00215174
0.223972
-0.000379274
0.224955
-0.00343926
0.225601
-0.00722757
0.225726
-0.0118047
0.225162
-0.0171889
0.223784
-0.0232698
0.221497