/*--------------------------------*- C++ -*----------------------------------*\
| =========                 |                                                 |
| \\      /  F ield         | OpenFOAM: The Open Source CFD Toolbox           |
|  \\    /   O peration     | Version:  2312                                  |
|   \\  /    A nd           | Website:  www.openfoam.com                      |
|    \\/     M anipulation  |                                                 |
\*---------------------------------------------------------------------------*/
FoamFile
{
    version     2.0;
    format      ascii;
    arch        "LSB;label=32;scalar=64";
    class       volScalarField;
    location    "104.2";
    object      p;
}
// * * * * * * * * * * * * * * * * * * * * * * * * * * * * * * * * * * * * * //

dimensions      [0 2 -2 0 0 0 0];

internalField   nonuniform List<scalar> 
5478
(
-0.563732
-0.559629
-0.55182
-0.544145
-0.538558
-0.535025
-0.530967
-0.522954
-0.50808
-0.485279
-0.455534
-0.420525
-0.382851
-0.340424
-0.296046
-0.577515
-0.572688
-0.56547
-0.55688
-0.546976
-0.534613
-0.518856
-0.49897
-0.474789
-0.446847
-0.415874
-0.382882
-0.348177
-0.312397
-0.278209
-0.597047
-0.590533
-0.581766
-0.570074
-0.55301
-0.530671
-0.50475
-0.476665
-0.447232
-0.416804
-0.385708
-0.354104
-0.322463
-0.290879
-0.259438
-0.62204
-0.612197
-0.600506
-0.58244
-0.555816
-0.523906
-0.490307
-0.456862
-0.424146
-0.392276
-0.361133
-0.330804
-0.301256
-0.272671
-0.245782
-0.653058
-0.63751
-0.621039
-0.593019
-0.555515
-0.515178
-0.475822
-0.438681
-0.403889
-0.371147
-0.34021
-0.31079
-0.282734
-0.256184
-0.230429
-0.68899
-0.666448
-0.640288
-0.599461
-0.551397
-0.504061
-0.460302
-0.420494
-0.3842
-0.350926
-0.320171
-0.291596
-0.264969
-0.240025
-0.21624
-0.722807
-0.695175
-0.654176
-0.599137
-0.541774
-0.488789
-0.441622
-0.39984
-0.362622
-0.329186
-0.29892
-0.271337
-0.24608
-0.222852
-0.200698
-0.748301
-0.71617
-0.658005
-0.589592
-0.524513
-0.467136
-0.417586
-0.374637
-0.337093
-0.304019
-0.274622
-0.248336
-0.224767
-0.203378
-0.183695
-0.518534
-0.51832
-0.522542
-0.534384
-0.55369
-0.57975
-0.611174
-0.645403
-0.678765
-0.706847
-0.724812
-0.726072
-0.706327
-0.666167
-0.604949
-0.544217
-0.542146
-0.546845
-0.560079
-0.581681
-0.610841
-0.646079
-0.684747
-0.723131
-0.756705
-0.778671
-0.783057
-0.7628
-0.716538
-0.639911
-0.560218
-0.555691
-0.558865
-0.570507
-0.590577
-0.618283
-0.652093
-0.689351
-0.726497
-0.758691
-0.781234
-0.785455
-0.762474
-0.710624
-0.625096
-0.566435
-0.559575
-0.559484
-0.566692
-0.581839
-0.604535
-0.633346
-0.665974
-0.699319
-0.728929
-0.748181
-0.749095
-0.721432
-0.665967
-0.579683
-0.565354
-0.557272
-0.553304
-0.554474
-0.562834
-0.578996
-0.601968
-0.629676
-0.658826
-0.683788
-0.695842
-0.688253
-0.652702
-0.593277
-0.513087
-0.560917
-0.55318
-0.546102
-0.541704
-0.543684
-0.553938
-0.572175
-0.595666
-0.618747
-0.634453
-0.635048
-0.615838
-0.573077
-0.515326
-0.444905
-0.556966
-0.550642
-0.54191
-0.534147
-0.53216
-0.53845
-0.552152
-0.568596
-0.581348
-0.583468
-0.57032
-0.540391
-0.495601
-0.444836
-0.387883
-0.556943
-0.552246
-0.543338
-0.534916
-0.531285
-0.533853
-0.540392
-0.545825
-0.544611
-0.532287
-0.508019
-0.472455
-0.430495
-0.385128
-0.338376
-0.492578
-0.366168
-0.310953
-0.312074
-0.297011
-0.224562
-0.166555
-0.149432
-0.146365
-0.164333
-0.173765
-0.161816
-0.153233
-0.147686
-0.120048
-0.100174
-0.111004
-0.135771
-0.13366
-0.113399
-0.110592
-0.133606
-0.128984
-0.114658
-0.131703
-0.158255
-0.173492
-0.159712
-0.102716
-0.0412593
-0.0296861
-0.0198737
-0.00498202
-0.00466374
-0.00568971
-0.000397432
-0.00103761
-0.0006943
-0.504505
-0.345787
-0.246299
-0.21152
-0.188849
-0.159354
-0.143268
-0.148844
-0.160765
-0.194965
-0.21563
-0.184662
-0.158377
-0.148351
-0.125465
-0.105753
-0.117252
-0.140343
-0.135042
-0.109738
-0.0988288
-0.119128
-0.123483
-0.116725
-0.15104
-0.181984
-0.17236
-0.141121
-0.100895
-0.0466088
-0.032376
-0.0195472
-0.00543752
-0.00495095
-0.00567527
-0.000768644
-0.00103986
-0.000591878
-0.482125
-0.315128
-0.195461
-0.140009
-0.0893087
-0.0863691
-0.115474
-0.144996
-0.171493
-0.219737
-0.251694
-0.206457
-0.161863
-0.146597
-0.129732
-0.110568
-0.12306
-0.143732
-0.135289
-0.105013
-0.0875455
-0.104031
-0.116468
-0.116307
-0.167706
-0.200797
-0.167606
-0.120073
-0.096157
-0.0509359
-0.0348244
-0.0191321
-0.00592625
-0.00529665
-0.00564432
-0.00114841
-0.0010395
-0.000501885
-0.440758
-0.294956
-0.176244
-0.10814
-0.0464303
-0.0323311
-0.0884408
-0.132119
-0.167111
-0.228218
-0.268405
-0.222417
-0.164052
-0.142522
-0.1304
-0.113482
-0.128009
-0.146304
-0.135662
-0.100146
-0.0774421
-0.0869795
-0.10792
-0.112944
-0.179857
-0.213197
-0.161225
-0.0986994
-0.0887714
-0.0539716
-0.0369633
-0.0187153
-0.0064567
-0.00568627
-0.00562872
-0.00152881
-0.00103032
-0.000424302
-0.388723
-0.278331
-0.172254
-0.10215
-0.0491787
-0.0170794
-0.0791372
-0.123603
-0.148934
-0.21235
-0.262317
-0.229959
-0.164792
-0.137578
-0.127207
-0.114582
-0.132113
-0.148109
-0.135281
-0.0953434
-0.0688326
-0.0746714
-0.0984602
-0.10676
-0.186315
-0.219873
-0.155102
-0.0785022
-0.0793194
-0.0556727
-0.0386483
-0.0183929
-0.00704455
-0.00609872
-0.00566723
-0.0019061
-0.00100624
-0.000356519
-0.34259
-0.260946
-0.175102
-0.109433
-0.0587966
-0.0236622
-0.068639
-0.112232
-0.12211
-0.176905
-0.238298
-0.217882
-0.16019
-0.130448
-0.120111
-0.11292
-0.134083
-0.149031
-0.136358
-0.0921211
-0.0618377
-0.0640855
-0.0879406
-0.0979167
-0.186827
-0.22142
-0.150557
-0.0618674
-0.0687776
-0.0562566
-0.0398741
-0.0182303
-0.00769015
-0.0064981
-0.00576975
-0.00228242
-0.000962824
-0.000293923
-0.312618
-0.247754
-0.172209
-0.108931
-0.0624649
-0.0289909
-0.0280907
-0.084627
-0.0899474
-0.143608
-0.209875
-0.207176
-0.157587
-0.125056
-0.110489
-0.107297
-0.133981
-0.146328
-0.134818
-0.0883265
-0.0564115
-0.0565549
-0.0767427
-0.0855856
-0.181491
-0.218782
-0.145317
-0.0500224
-0.0574254
-0.0559982
-0.0403146
-0.0183672
-0.0084462
-0.00683768
-0.00597137
-0.00267344
-0.000900503
-0.000231339
-0.293197
-0.247446
-0.1821
-0.122884
-0.0757895
-0.0337011
-0.0266369
-0.0437398
-0.0566197
-0.105559
-0.171145
-0.175138
-0.14537
-0.11922
-0.0984835
-0.0978394
-0.129736
-0.152684
-0.1371
-0.08743
-0.0527043
-0.0498115
-0.0650235
-0.071907
-0.170757
-0.216978
-0.140901
-0.0418005
-0.0461824
-0.0549694
-0.0402166
-0.0185743
-0.0092326
-0.00707547
-0.00629622
-0.00308208
-0.000823345
-0.000164547
-0.257504
-0.227642
-0.164385
-0.104082
-0.053609
-0.00534006
0.0511469
0.049627
0.00170631
-0.0763406
-0.145797
-0.147365
-0.122272
-0.100464
-0.0815192
-0.0892013
-0.118911
-0.129187
-0.129794
-0.0827936
-0.0487417
-0.0472676
-0.0556777
-0.0654064
-0.156865
-0.204166
-0.135533
-0.0382122
-0.0394005
-0.0524551
-0.0392978
-0.0197662
-0.0101692
-0.00718096
-0.00689122
-0.00360985
-0.000674252
-6.88766e-05
-0.193728
-0.17264
-0.122974
-0.0738628
-0.0320339
0.0124156
0.0561735
0.0728322
0.0321356
-0.0391332
-0.0915622
-0.0943101
-0.0854901
-0.0720307
-0.0573876
-0.0701811
-0.112203
-0.164565
-0.120055
-0.0694575
-0.0350015
-0.0354536
-0.0421692
-0.0488727
-0.135459
-0.203027
-0.125192
-0.0259728
-0.0350359
-0.0479094
-0.0391514
-0.0207479
-0.0113376
-0.00747197
-0.0078288
-0.00427753
-0.000476967
6.87646e-05
-0.15139
-0.140612
-0.105779
-0.0645397
-0.0267312
0.0137802
0.0583759
0.0718726
0.0431209
-0.00672446
-0.0440637
-0.0547923
-0.0570118
-0.0511262
-0.0363772
-0.0412733
-0.0778252
-0.106396
-0.0898071
-0.049158
-0.0229545
-0.0270972
-0.028661
-0.0291609
-0.102907
-0.154225
-0.0968985
-0.0156103
-0.0313093
-0.0417189
-0.0375511
-0.0219638
-0.0128026
-0.00775399
-0.00902385
-0.0051275
-0.000267511
0.000237632
-0.116653
-0.110042
-0.0839936
-0.0506348
-0.0192177
0.0117352
0.0415297
0.056386
0.0410503
0.0084288
-0.0152911
-0.0249692
-0.0298226
-0.0252069
-0.0120181
-0.0111506
-0.0386486
-0.057724
-0.0533844
-0.0340216
-0.0183586
-0.0122378
-0.0126331
-0.00843566
-0.0664794
-0.107296
-0.05738
-0.00601367
-0.023647
-0.0330976
-0.0351748
-0.0237867
-0.0143801
-0.00797426
-0.0105091
-0.00621682
-7.93897e-05
0.000421838
-0.0891795
-0.0855372
-0.0680351
-0.0436476
-0.0199222
0.00293233
0.0243862
0.0369595
0.0308952
0.0127117
-0.00326831
-0.00965855
-0.0136231
-0.0133997
0.000239068
0.0134812
0.00346867
-0.00700913
-0.0187624
-0.0235253
-0.0161508
-0.0109827
-0.00336453
0.00805855
-0.031719
-0.0585304
-0.0108802
0.00585625
-0.0119059
-0.0215948
-0.031381
-0.0258489
-0.0160493
-0.00830935
-0.0122262
-0.00753281
6.0767e-05
0.000585181
-0.0683718
-0.0665531
-0.0549704
-0.0375595
-0.0198219
-0.00337163
0.0116687
0.0211978
0.0209118
0.0119184
0.00354297
0.000272089
-0.00107635
0.00187458
0.0117925
0.0236364
0.0195323
0.0114866
0.000923724
-0.0130686
-0.0101834
-0.00285948
0.00417504
0.0147982
-0.0140139
-0.0235587
0.0263051
0.0159512
0.00187338
-0.00759757
-0.0250855
-0.0276408
-0.0170935
-0.00887669
-0.0141178
-0.00913302
0.00014481
0.000708785
-0.0516897
-0.0510766
-0.0438062
-0.0320272
-0.0193938
-0.00769731
0.00288486
0.0102761
0.0126773
0.00985981
0.00625169
0.00490055
0.00472389
0.00631075
0.0141851
0.0254898
0.0242029
0.0174356
0.0104154
-0.00122201
-0.00162922
0.00127044
0.00769244
0.017747
-0.00737786
-0.00184005
0.0416
0.0205664
0.0117144
0.00717235
-0.015362
-0.0280924
-0.0161581
-0.00926593
-0.0159619
-0.0112011
1.85434e-05
0.000732659
-0.0384499
-0.0388355
-0.0345279
-0.0267185
-0.017897
-0.00953323
-0.00197674
0.00377162
0.00704358
0.00730172
0.00641812
0.00663184
0.00809754
0.0109784
0.0162285
0.0234189
0.0223451
0.0175941
0.0133584
0.00583302
0.00582455
0.00758951
0.0109682
0.0178553
-0.000255968
0.00688702
0.0359026
0.0221993
0.0174635
0.0181629
-0.00567761
-0.0252223
-0.012466
-0.00843563
-0.0166757
-0.012875
-0.000417351
0.000509163
-0.0284674
-0.0291751
-0.0265825
-0.0214879
-0.0155152
-0.00959542
-0.00411855
0.000322314
0.0036128
0.00520705
0.00614523
0.00728768
0.00893585
0.0111233
0.014323
0.019274
0.0194632
0.0164309
0.0137876
0.00936585
0.00880863
0.00881105
0.011326
0.0168234
0.00616114
0.0108546
0.0282405
0.0216456
0.0182497
0.0110072
0.00160016
-0.0169981
-0.00697107
-0.00562559
-0.014557
-0.0119133
-0.000695448
0.000131567
-0.0203094
-0.0211829
-0.0198154
-0.0165643
-0.0125046
-0.00838119
-0.00448835
-0.0011621
0.00177322
0.00377886
0.00535978
0.00678936
0.00856691
0.0108894
0.0131457
0.0161906
0.0168847
0.0150804
0.013427
0.0109584
0.0110062
0.0116263
0.0120206
0.0157272
0.0102755
0.0122483
0.0224228
0.0199878
0.0178035
0.0131843
0.00692085
-0.00773221
-0.00186401
-0.00145741
-0.00966695
-0.00798437
-0.000368642
4.37276e-05
-0.0137943
-0.0147754
-0.0141177
-0.0120593
-0.00933101
-0.00647224
-0.00368
-0.00112773
0.0012207
0.00311846
0.00479038
0.00638469
0.00803839
0.00996168
0.0115483
0.0134737
0.0143775
0.0136398
0.0127301
0.0114892
0.0112938
0.0113033
0.0117525
0.0144273
0.012222
0.0129735
0.0184891
0.0175823
0.0163842
0.0138038
0.00945754
-0.00196447
0.00171099
0.00190574
-0.00485153
-0.00368681
0.000365879
0.000277578
-0.0086536
-0.00956446
-0.00930291
-0.00803638
-0.00623655
-0.00428252
-0.00229688
-0.000414401
0.00141573
0.00304156
0.00453578
0.00597345
0.00736893
0.00894588
0.0102798
0.0115991
0.0124862
0.0123997
0.0120319
0.0115108
0.0116103
0.0118396
0.0119904
0.0134951
0.0128338
0.0130336
0.0159584
0.0155431
0.0148192
0.0133267
0.0100566
0.002355
0.00391518
0.00386528
-0.0013676
-0.000756817
0.000965897
0.000440352
-0.00448266
-0.00529615
-0.00528357
-0.00452703
-0.00334121
-0.00200968
-0.000639364
0.000716468
0.0020612
0.0033395
0.00455438
0.00574434
0.00692567
0.00817727
0.00927754
0.0102294
0.0110071
0.0113192
0.0113266
0.0111893
0.0112965
0.011503
0.0115995
0.0126109
0.0126345
0.0126517
0.0140409
0.0137329
0.0131251
0.0122329
0.00980983
0.00483672
0.00487156
0.00436205
0.000555603
0.000551064
0.00112506
0.0004967
-0.00114496
-0.00183824
-0.00193701
-0.0014955
-0.000736607
0.00013738
0.00104829
0.00198599
0.00297139
0.00394011
0.00486409
0.00577916
0.00672276
0.00769118
0.00859258
0.00937864
0.0100374
0.0104659
0.0106712
0.0107556
0.0109769
0.0112259
0.0113768
0.0119177
0.012091
0.012053
0.0126251
0.0123838
0.0118481
0.0110848
0.00925513
0.00605829
0.00524491
0.00438606
0.00161069
0.00119791
0.00129525
0.000510615
0.00155209
0.00098803
0.000833714
0.00106101
0.00152379
0.00207938
0.00267047
0.00329754
0.00397655
0.00466103
0.00533853
0.00600973
0.00672418
0.00745946
0.00815699
0.00878003
0.0093248
0.00977599
0.0100908
0.0102844
0.0105383
0.0107564
0.0109106
0.0112254
0.0113745
0.0113431
0.011475
0.0111344
0.0106639
0.0100088
0.00854239
0.00642828
0.00529142
0.0042203
0.00216907
0.00142924
0.00127562
0.000502194
0.003733
0.00327526
0.00309986
0.00319439
0.00345954
0.00379219
0.00415214
0.00454579
0.00498945
0.00545199
0.00591921
0.00638565
0.00689711
0.00743463
0.00796189
0.00844053
0.00888325
0.00928105
0.00960606
0.00982902
0.0100717
0.0102779
0.0104187
0.0106011
0.0106744
0.0106075
0.010558
0.0102443
0.00974638
0.00915286
0.00794237
0.00645941
0.0053449
0.0041673
0.0025656
0.00160507
0.00122418
0.00048958
0.0054744
0.00511415
0.00494261
0.00495339
0.00508142
0.00525668
0.00545391
0.00568176
0.005952
0.00624274
0.00654074
0.00684216
0.00718504
0.00755858
0.0079364
0.0082824
0.00862291
0.00893703
0.00921674
0.00942372
0.00962961
0.00980117
0.00990332
0.00999141
0.0100145
0.00991832
0.00977619
0.00946121
0.00895039
0.00843097
0.00743346
0.00626854
0.00528228
0.00414612
0.00281168
0.00175802
0.00117186
0.000458908
0.00686256
0.00658157
0.00642049
0.00637788
0.0064137
0.00648161
0.00656656
0.00667627
0.00681938
0.00698127
0.00715219
0.00733114
0.00754521
0.00777777
0.00802672
0.00825689
0.00849618
0.00871925
0.00892744
0.00908819
0.00923945
0.00935933
0.00942398
0.00945115
0.0094274
0.00930208
0.0091115
0.0088203
0.00832488
0.00783982
0.00702583
0.00606144
0.00518558
0.00414138
0.00299471
0.001936
0.00117772
0.000441725
0.00795125
0.00773192
0.00758481
0.00751034
0.0074854
0.00748048
0.0074883
0.00751497
0.00756675
0.00763442
0.00770951
0.00779346
0.00790256
0.00803083
0.00817471
0.00830859
0.00845676
0.00859219
0.00872594
0.00882417
0.00891877
0.00898119
0.00900387
0.00898198
0.00891812
0.00878153
0.00856289
0.00828555
0.00782608
0.00736049
0.00668771
0.00587019
0.00506629
0.00412976
0.0031496
0.00215204
0.00125349
0.000431946
0.00878145
0.00860806
0.00847431
0.00838169
0.00831759
0.00826547
0.00822229
0.00819277
0.00818112
0.00818169
0.00818887
0.00820397
0.00823694
0.00828488
0.00834539
0.0084022
0.008472
0.00853375
0.00859731
0.0086349
0.00867289
0.00868209
0.00866137
0.00860078
0.00849971
0.00834823
0.00811229
0.00784089
0.0074193
0.00696898
0.00638838
0.00568353
0.00494253
0.00411222
0.00324629
0.00232321
0.00136719
0.000459175
0.00939155
0.00925028
0.00912718
0.00902424
0.00893543
0.00885367
0.00877808
0.00871178
0.00865768
0.00861174
0.00857282
0.00853911
0.00851869
0.00850706
0.00850569
0.00850449
0.00851228
0.00851654
0.00852113
0.00850865
0.00849596
0.0084591
0.0084
0.00830851
0.00817506
0.00800789
0.00776425
0.00748282
0.00710053
0.00665916
0.00612841
0.00549886
0.00480137
0.00402761
0.00322025
0.00234309
0.00138745
0.00045836
0.00980026
0.00967886
0.00956338
0.00945486
0.00935235
0.00925337
0.00915899
0.00907028
0.00898934
0.00891417
0.00884544
0.00878101
0.0087255
0.00867414
0.0086317
0.00858913
0.00855589
0.00851786
0.0084822
0.00843287
0.00838066
0.00831213
0.00822212
0.00810748
0.00795169
0.00776874
0.00751936
0.00723477
0.00686534
0.00643842
0.00593825
0.00534708
0.0046948
0.00395889
0.00317597
0.00233481
0.00141409
0.000473796
0.0100071
0.00989573
0.00978476
0.00967458
0.00956635
0.00945976
0.00935697
0.0092577
0.00916418
0.00907462
0.00899146
0.00891164
0.00883858
0.00876749
0.00870342
0.0086401
0.00858371
0.00852403
0.00846525
0.00839625
0.00832178
0.00823477
0.00812788
0.00799953
0.00783197
0.00763833
0.00738868
0.00709898
0.00674002
0.0063188
0.00583174
0.00526494
0.00463014
0.00391769
0.00315254
0.00232678
0.00141885
0.000475506
-0.158977
-0.1707
-0.183343
-0.193702
-0.207056
-0.214064
-0.226672
-0.234151
-0.131443
-0.138326
-0.145852
-0.152261
-0.158544
-0.162402
-0.167951
-0.177592
-0.106109
-0.110065
-0.113535
-0.117513
-0.121599
-0.12697
-0.131786
-0.139893
-0.0858641
-0.0877986
-0.0895837
-0.0930748
-0.0963279
-0.100196
-0.10288
-0.108108
-0.0682629
-0.0693401
-0.0703254
-0.0725443
-0.0741501
-0.0761529
-0.0779799
-0.082305
-0.0539034
-0.0541704
-0.0543764
-0.0554467
-0.0563717
-0.0578937
-0.0595999
-0.0631517
-0.0417756
-0.0415956
-0.0414652
-0.0420596
-0.04277
-0.0439039
-0.045152
-0.0478048
-0.0318434
-0.0314754
-0.0311835
-0.0314474
-0.031865
-0.0325796
-0.0334177
-0.0353768
-0.0236398
-0.0231919
-0.0227945
-0.022793
-0.0229603
-0.0234059
-0.0241276
-0.0258497
-0.0168291
-0.0163818
-0.0159656
-0.0158472
-0.0159429
-0.0163195
-0.0169757
-0.0183054
-0.0112401
-0.0108699
-0.0105195
-0.0103797
-0.0104263
-0.0106734
-0.0111424
-0.0121575
-0.00664972
-0.00636796
-0.0060808
-0.00592317
-0.00591455
-0.00607982
-0.00647121
-0.00731725
-0.00287313
-0.0026792
-0.0024681
-0.00234085
-0.0023334
-0.00246551
-0.00277735
-0.00343573
0.000218895
0.000329329
0.000462763
0.000549305
0.000554148
0.000454859
0.000207382
-0.000314639
0.00274627
0.00278491
0.0028492
0.0028914
0.0028787
0.00278876
0.0025874
0.00218668
0.00478523
0.00476796
0.00477604
0.00477886
0.00475084
0.00467346
0.00451751
0.00421611
0.00642495
0.00637144
0.00634061
0.0063137
0.00627111
0.00619682
0.00606765
0.00583815
0.00773061
0.00765406
0.00759561
0.00754466
0.00748754
0.00741261
0.00730402
0.00713178
0.00875024
0.00866176
0.00858699
0.00852046
0.00845299
0.00837733
0.00828301
0.00815163
0.00952591
0.0094333
0.00935064
0.00927484
0.00920042
0.00912336
0.00903774
0.00893337
0.0100942
0.0100008
0.00991512
0.00983481
0.00975688
0.00967916
0.00959903
0.00951152
0.0104708
0.0103784
0.0102924
0.0102111
0.0101325
0.0100554
0.00997892
0.00990119
0.0106582
0.0105692
0.0104848
0.0104039
0.0103254
0.0102486
0.0101733
0.0100994
0.0130771
0.0153249
0.0165009
0.0158758
0.0129566
0.00774912
0.000131481
-0.010531
-0.0253862
-0.0460679
-0.0748261
-0.114811
-0.171133
-0.247366
-0.318626
-0.013662
-0.0142547
-0.017713
-0.0232843
-0.0307928
-0.0405696
-0.0532475
-0.0697677
-0.0914206
-0.119943
-0.157712
-0.207862
-0.275619
-0.365432
-0.442621
-0.0388102
-0.0430138
-0.0511843
-0.0613618
-0.073151
-0.0872607
-0.104705
-0.126611
-0.154352
-0.189767
-0.235428
-0.294553
-0.371187
-0.473097
-0.548202
-0.0647797
-0.0725348
-0.084337
-0.0979722
-0.113317
-0.131339
-0.153128
-0.179811
-0.212814
-0.254036
-0.306124
-0.372832
-0.456624
-0.562222
-0.633591
-0.0916955
-0.102615
-0.116944
-0.132969
-0.15108
-0.172388
-0.19787
-0.228527
-0.265755
-0.311564
-0.368335
-0.440213
-0.528486
-0.631813
-0.697245
-0.117483
-0.131417
-0.147745
-0.165717
-0.186195
-0.210231
-0.23864
-0.272298
-0.312573
-0.361511
-0.421577
-0.49579
-0.584431
-0.681868
-0.738711
-0.141584
-0.158031
-0.175947
-0.195691
-0.218317
-0.244567
-0.275145
-0.310968
-0.353289
-0.403878
-0.464999
-0.538672
-0.624197
-0.712047
-0.759239
-0.163813
-0.181714
-0.20125
-0.22299
-0.247585
-0.275616
-0.307736
-0.344818
-0.388004
-0.43876
-0.498908
-0.569562
-0.648485
-0.723052
-0.761572
0.186956
0.201427
0.217722
0.236231
0.256959
0.279766
0.304551
0.33127
0.359839
0.389988
0.42111
0.451998
0.480613
0.502891
0.521039
0.179409
0.192523
0.207659
0.225221
0.24499
0.266641
0.290017
0.315078
0.341732
0.369653
0.398137
0.425855
0.450594
0.468325
0.482
0.167675
0.178694
0.192096
0.208164
0.226348
0.246075
0.267089
0.289316
0.312618
0.33658
0.360365
0.382469
0.400394
0.410216
0.416487
0.151743
0.160133
0.171338
0.185334
0.201203
0.218184
0.235947
0.254358
0.273166
0.29179
0.309173
0.323565
0.332085
0.330714
0.32717
0.131753
0.137298
0.146251
0.157983
0.171013
0.184416
0.197902
0.211365
0.224481
0.236481
0.246033
0.251078
0.248315
0.233452
0.217224
0.107972
0.110054
0.116565
0.125945
0.13596
0.145495
0.154266
0.16215
0.168724
0.173043
0.173539
0.167855
0.152249
0.122165
0.0911805
0.0811437
0.0804145
0.0845923
0.0908399
0.096854
0.101766
0.105374
0.107389
0.107095
0.103282
0.094127
0.0769768
0.0476974
0.00171021
-0.0444938
0.0495614
0.0479706
0.051418
0.0546416
0.0561294
0.0557617
0.0536118
0.0492548
0.0416925
0.0294364
0.0103999
-0.0183902
-0.0615382
-0.123294
-0.183641
0.028522
0.0329527
0.0292775
0.0332082
0.0307845
0.0350758
0.0333117
0.037741
0.0370952
0.0416011
0.0423766
0.0471904
0.049704
0.0553447
0.0600109
0.0672839
0.0746291
0.0845444
0.0954799
0.109368
0.125137
0.144571
0.166813
0.0284675
0.0328624
0.0292249
0.0330961
0.0307171
0.0349416
0.0332708
0.0375492
0.0369477
0.0413525
0.0421209
0.0468191
0.0493379
0.0548448
0.0594004
0.0665882
0.0735737
0.0833075
0.0936473
0.107114
0.121864
0.140422
0.16107
0.0284222
0.0327467
0.0291901
0.0329551
0.0306756
0.0347733
0.0331932
0.03732
0.0368357
0.0411031
0.0419036
0.0464635
0.0489717
0.0542396
0.0587309
0.0657473
0.0723371
0.0818354
0.0913478
0.104184
0.117492
0.134608
0.152471
0.0283861
0.0326075
0.0291706
0.032789
0.0306554
0.0345748
0.0331521
0.0370677
0.036748
0.0408218
0.0417088
0.0461151
0.0486592
0.0538421
0.0581469
0.0650386
0.071039
0.0802577
0.0886347
0.100601
0.111815
0.12683
0.140784
0.0283586
0.0324483
0.0291674
0.0326021
0.0306534
0.0343535
0.0331348
0.0367929
0.0366787
0.0405027
0.0415256
0.0456652
0.0482608
0.0530436
0.0573842
0.0638897
0.0693756
0.0780033
0.0852652
0.0960129
0.104897
0.117066
0.125821
0.0283361
0.0322722
0.0291685
0.0323998
0.0306626
0.0341188
0.0331393
0.0365306
0.0366271
0.0402186
0.0413945
0.0454013
0.0480677
0.0528386
0.0568443
0.0631354
0.0679183
0.0760629
0.0817033
0.0910256
0.0965566
0.105512
0.108188
0.0283217
0.0320817
0.0291773
0.0321897
0.0306801
0.0338733
0.0331359
0.0362359
0.0365667
0.0398635
0.041206
0.0448969
0.0476185
0.0518588
0.0558675
0.0614378
0.065831
0.0728307
0.0773624
0.0846267
0.0874416
0.0914307
0.087623
0.0283052
0.031884
0.0291869
0.0319812
0.0307022
0.0336497
0.033182
0.03604
0.0365521
0.0396793
0.0411853
0.0448451
0.047543
0.0518434
0.0554892
0.0608624
0.0644063
0.0707685
0.0729892
0.0782186
0.0760212
0.0764496
0.0635227
0.0282842
0.0316214
0.0292071
0.0316815
0.0307146
0.0332745
0.0331335
0.0355643
0.0363858
0.0390994
0.0408
0.0440724
0.0465641
0.0500198
0.0535105
0.0573343
0.0604655
0.0640919
0.0651853
0.0661143
0.0610974
0.0525116
0.032351
0.0282659
0.0312624
0.0292361
0.0312753
0.0307024
0.0327299
0.0330121
0.0348947
0.0360137
0.0380371
0.0398934
0.0422851
0.0448101
0.0473904
0.0502971
0.0525769
0.0546237
0.0555888
0.0551004
0.0516335
0.0451453
0.0334385
0.0175138
0.0282655
0.0308252
0.0292814
0.0307891
0.0307047
0.0320954
0.0328624
0.0341354
0.0355297
0.0370092
0.0389094
0.0406983
0.0428532
0.0446045
0.0466795
0.0476525
0.0483852
0.0473661
0.0451524
0.0396811
0.032077
0.0204002
0.00544481
0.0282838
0.0303001
0.0293444
0.0302348
0.0306741
0.0314883
0.0325815
0.0334158
0.0349045
0.035903
0.0377263
0.0388909
0.0405835
0.0416565
0.0426837
0.0426241
0.0420412
0.0395729
0.0359983
0.0296446
0.0214832
0.0104047
-0.00329814
0.0283236
0.0296796
0.029387
0.0297162
0.0305231
0.0309279
0.0321723
0.0326703
0.0340988
0.0347699
0.0362994
0.0369894
0.0380362
0.0385654
0.0385233
0.0375543
0.0359223
0.0324538
0.0280182
0.0214453
0.0134115
0.0032586
-0.00900702
0.0283802
0.0290237
0.0293206
0.0292503
0.0302777
0.0303739
0.031623
0.0319092
0.0331191
0.0335337
0.0346702
0.0349391
0.0353253
0.0353302
0.0343858
0.0326234
0.0302609
0.0262859
0.021459
0.0150837
0.00760904
-0.0014444
-0.0121153
0.0284108
0.0283898
0.0291308
0.0288223
0.0299176
0.029822
0.0309336
0.0311067
0.0319796
0.0321967
0.0328879
0.0327504
0.0325472
0.032029
0.0304218
0.028085
0.0252826
0.02119
0.0163295
0.0104008
0.00373678
-0.00407351
-0.0130895
0.0283884
0.0277932
0.0288331
0.0284135
0.0294346
0.0292581
0.030116
0.0302331
0.0307278
0.0307484
0.0310017
0.0304759
0.0297882
0.0288024
0.0267643
0.0241058
0.0210907
0.0171438
0.0125476
0.0072296
0.00149207
-0.00502709
-0.0124555
0.0282837
0.0272565
0.0284159
0.0280091
0.0288357
0.0286685
0.0292062
0.0292644
0.029402
0.0292034
0.0290609
0.0281952
0.0271336
0.0257833
0.0235299
0.0207662
0.0177318
0.0140987
0.00997273
0.00536567
0.000550389
-0.00476078
-0.0107632
0.0280797
0.0267919
0.0278802
0.02759
0.0281424
0.0280102
0.0282402
0.0281928
0.0280303
0.0276018
0.0271212
0.0259918
0.0246688
0.0230837
0.0207792
0.0180854
0.0151958
0.0119637
0.00840122
0.0045307
0.00057138
-0.0036837
-0.00846004
0.0277648
0.0263962
0.027246
0.0271309
0.0273979
0.0272685
0.0272408
0.0270382
0.0266349
0.0259915
0.0252423
0.0239396
0.0224692
0.020773
0.0185384
0.0160379
0.0134094
0.0106098
0.0076181
0.00444648
0.00124959
-0.00211979
-0.00588367
0.0273354
0.0260549
0.0265505
0.026565
0.0266291
0.026449
0.0262209
0.02584
0.0252439
0.0244309
0.0234853
0.0220999
0.0205805
0.0188825
0.0167997
0.0145602
0.0122566
0.0098865
0.00742329
0.00487067
0.0023267
-0.000319334
-0.0032682
0.0268001
0.0257346
0.0258529
0.0258761
0.0258325
0.0255765
0.0251916
0.0246442
0.0238998
0.0229722
0.021904
0.020505
0.019017
0.0174005
0.0155204
0.0135698
0.011608
0.00963889
0.00763693
0.00560381
0.00359897
0.0015329
-0.000768285
0.026181
0.0253763
0.0252018
0.0251021
0.0249889
0.0246574
0.0241602
0.0234908
0.0226449
0.0216551
0.0205314
0.0191721
0.0177696
0.0162891
0.0146402
0.0129793
0.0113423
0.00972772
0.00811262
0.00650108
0.00492949
0.00332264
0.0015337
0.0255064
0.0249234
0.0245909
0.0243544
0.0241245
0.0237079
0.0231384
0.022401
0.0215086
0.0205036
0.0193803
0.0180978
0.0168119
0.0154961
0.0140837
0.0126929
0.011345
0.0100318
0.00873387
0.00745863
0.00622992
0.0049852
0.00360206
0.0248094
0.024385
0.0239988
0.023638
0.0232712
0.0227726
0.022151
0.0213853
0.0204952
0.0195199
0.0184465
0.0172696
0.016115
0.0149667
0.0137736
0.0126196
0.0115166
0.0104517
0.00940885
0.00839753
0.00743575
0.00647299
0.00540927
0.0241146
0.0237849
0.0233871
0.0229459
0.0224666
0.0218961
0.0212347
0.0204661
0.0196105
0.018697
0.0177104
0.01666
0.0156419
0.0146492
0.0136446
0.0126868
0.0117827
0.0109173
0.0100769
0.00927099
0.00851458
0.00776902
0.00695708
0.0234403
0.0231621
0.0227621
0.0222769
0.0217291
0.0211086
0.020422
0.0196661
0.0188595
0.0180205
0.0171354
0.0162178
0.015335
0.0144815
0.0136338
0.0128341
0.0120881
0.0113812
0.0107003
0.0100531
0.00945226
0.00887228
0.00825587
0.0228015
0.0225484
0.0221503
0.0216472
0.0210687
0.0204255
0.0197311
0.0189978
0.0182436
0.0174798
0.0166951
0.0159023
0.0151448
0.0144138
0.013695
0.0130197
0.0123956
0.0118112
0.0112534
0.0107263
0.0102409
0.00978381
0.00931539
0.0222197
0.02198
0.0215859
0.0210781
0.0204929
0.0198501
0.0191657
0.0184646
0.0177616
0.0170633
0.0163644
0.0156764
0.0150273
0.0144046
0.0137953
0.0132205
0.0126896
0.0121966
0.01173
0.0112906
0.0108879
0.0105174
0.0101552
0.0217239
0.0214923
0.021103
0.0205993
0.0200204
0.01939
0.0187252
0.0180571
0.0173994
0.0167531
0.0161179
0.0155064
0.0149395
0.0144068
0.0138922
0.0134043
0.0129504
0.0125292
0.0121322
0.0117582
0.0114147
0.0111045
0.0108172
0.0213474
0.0211196
0.0207365
0.0202413
0.0196724
0.0190579
0.0184147
0.0177756
0.0171573
0.0165569
0.0159706
0.0154096
0.0148956
0.0144255
0.0139802
0.0135521
0.0131437
0.0127605
0.0124039
0.0120749
0.0117764
0.0115097
0.0112703
0.0211412
0.0209173
0.0205347
0.0200398
0.0194734
0.0188662
0.0182345
0.0176091
0.0170125
0.01644
0.015883
0.0153513
0.0148666
0.0144315
0.0140269
0.0136369
0.0132609
0.0129074
0.0125822
0.0122863
0.0120189
0.0117801
0.0115702
0.00916167
-0.0158982
-0.0400806
-0.0621257
-0.0846317
-0.106392
-0.12686
-0.144206
-2.60782e-05
-0.0225084
-0.047663
-0.0669251
-0.0826582
-0.0974993
-0.111253
-0.122424
-0.00926058
-0.0272522
-0.047668
-0.0623588
-0.0725148
-0.0824294
-0.0919321
-0.100092
-0.016506
-0.0308879
-0.0455703
-0.0566145
-0.0640642
-0.0710768
-0.0773138
-0.0825684
-0.0208538
-0.0321429
-0.0418844
-0.0492871
-0.0544868
-0.0591962
-0.0630478
-0.0663271
-0.0224456
-0.0310784
-0.0371411
-0.0417006
-0.0452914
-0.0485686
-0.0510798
-0.0530325
-0.0218224
-0.0282936
-0.0318115
-0.0343392
-0.0366804
-0.0389058
-0.0405023
-0.0415453
-0.0196621
-0.0244673
-0.0263158
-0.0274728
-0.0288711
-0.0303544
-0.0313896
-0.0319228
-0.0165928
-0.0201433
-0.0209539
-0.0212429
-0.0219625
-0.0229193
-0.0236007
-0.0238597
-0.0130994
-0.015716
-0.0159224
-0.0157008
-0.0159517
-0.0165284
-0.0169719
-0.0170874
-0.00953072
-0.0114558
-0.0113401
-0.010852
-0.0108016
-0.0111095
-0.0113982
-0.0114582
-0.00610927
-0.00752365
-0.00726055
-0.00666774
-0.00644492
-0.00657219
-0.00675896
-0.00680437
-0.00296555
-0.00400506
-0.00369894
-0.00309567
-0.00278515
-0.00279846
-0.00291866
-0.00296527
-0.000153792
-0.000915581
-0.000619638
-6.33665e-05
0.000272897
0.000325154
0.000245063
0.000186587
0.00231503
0.00175607
0.00201202
0.00248663
0.00280283
0.0028856
0.00283239
0.00276396
0.00443994
0.00403292
0.00423638
0.00461365
0.00487986
0.00496277
0.00492013
0.00484147
0.00623655
0.00594142
0.00608918
0.00636744
0.00656917
0.00663247
0.00658968
0.00650451
0.00772821
0.00751532
0.00761111
0.00779787
0.00793156
0.00796445
0.00791388
0.00782371
0.00893392
0.0087804
0.00883171
0.00893999
0.00900959
0.00900764
0.00894431
0.00884975
0.0098779
0.0097632
0.00977719
0.00982133
0.00983565
0.00980052
0.00972394
0.00962641
0.0106086
0.0105121
0.0104895
0.0104796
0.0104476
0.0103835
0.0102945
0.0101941
0.0111026
0.0110138
0.010964
0.0109165
0.0108526
0.0107688
0.0106714
0.0105696
0.0114174
0.0113135
0.0112244
0.0111378
0.0110469
0.0109504
0.0108509
0.0107525
-0.37606
-0.384053
-0.393103
-0.404701
-0.420647
-0.441632
-0.465276
-0.485857
-0.377636
-0.383322
-0.389598
-0.398322
-0.41062
-0.426301
-0.444228
-0.460375
-0.377737
-0.381644
-0.385298
-0.390866
-0.399562
-0.4104
-0.420076
-0.424548
-0.376133
-0.37805
-0.378832
-0.380449
-0.383425
-0.386373
-0.386269
-0.379997
-0.370418
-0.370211
-0.367633
-0.364355
-0.360792
-0.356156
-0.348526
-0.335522
-0.358733
-0.356105
-0.350125
-0.34245
-0.33391
-0.324311
-0.312161
-0.295377
-0.339983
-0.335302
-0.326946
-0.316635
-0.305505
-0.293412
-0.278919
-0.260212
-0.314995
-0.30944
-0.300294
-0.289242
-0.277425
-0.264445
-0.248985
-0.229521
-0.286134
-0.281138