/*--------------------------------*- C++ -*----------------------------------*\
| =========                 |                                                 |
| \\      /  F ield         | OpenFOAM: The Open Source CFD Toolbox           |
|  \\    /   O peration     | Version:  2512                                  |
|   \\  /    A nd           | Website:  www.openfoam.com                      |
|    \\/     M anipulation  |                                                 |
\*---------------------------------------------------------------------------*/
FoamFile
{
    version     2.0;
    format      ascii;
    arch        "LSB;label=32;scalar=64";
    class       volVectorField;
    location    "149.1";
    object      U;
}
// * * * * * * * * * * * * * * * * * * * * * * * * * * * * * * * * * * * * * //

dimensions      [0 1 -1 0 0 0 0];

internalField   nonuniform List<vector> 
13248
(
(-0.0128396 0.00865898 4.03449e-20)
(-0.0267856 0.0110674 0)
(-0.0342327 0.00496221 -7.08047e-20)
(-0.0306948 -0.00330907 6.55645e-20)
(-0.0120486 -0.0115921 6.08684e-20)
(0.0250989 -0.0191797 0)
(0.0832895 -0.0255348 0)
(0.163515 -0.0300192 1.39136e-19)
(0.264535 -0.0319353 -2.71077e-21)
(0.382591 -0.0306407 -1.14922e-19)
(0.511671 -0.0257674 9.84898e-20)
(0.644394 -0.017394 -6.04601e-20)
(0.773176 -0.00608009 0)
(0.891307 0.0072157 -8.3825e-20)
(0.993721 0.0213242 1.4957e-19)
(1.07726 0.035025 -3.45731e-20)
(1.14105 0.0472481 -5.19162e-20)
(1.1855 0.0571435 4.8401e-20)
(1.21325 0.0643643 0)
(1.22775 0.0680086 0)
(1.23099 0.0703454 0)
(1.23261 0.0664558 0)
(1.22513 0.0669072 1.13698e-20)
(1.22715 0.0549076 3.8849e-20)
(-0.0161803 0.0117773 -1.21507e-19)
(-0.0290648 0.0188 7.71604e-20)
(-0.0266943 0.0161894 -3.82942e-23)
(-0.00640432 0.00971674 -9.92273e-20)
(0.0350927 0.00227231 -6.07793e-20)
(0.100644 -0.00446816 -5.62381e-20)
(0.191598 -0.00923362 -1.0194e-19)
(0.30652 -0.0109862 9.46429e-20)
(0.440342 -0.00901379 0)
(0.584707 -0.00313221 1.65961e-21)
(0.729472 0.00620036 3.50991e-21)
(0.864691 0.0179611 6.03789e-20)
(0.982312 0.0308015 0)
(1.07722 0.0433349 0)
(1.1475 0.0544187 5.35359e-20)
(1.1943 0.0632233 -9.93981e-20)
(1.22089 0.069508 5.30557e-20)
(1.23227 0.0731176 -4.94661e-20)
(1.23374 0.0746367 -2.04281e-20)
(1.22998 0.0741991 -3.37681e-20)
(1.22561 0.0724801 -1.28888e-20)
(1.22193 0.0693701 -2.33775e-20)
(1.2193 0.0661922 3.59459e-20)
(1.22152 0.0593701 9.83384e-21)
(-0.0173353 0.0119468 0)
(-0.026055 0.0199001 0)
(-0.0110101 0.0189571 3.56955e-20)
(0.0296289 0.0140163 3.27938e-20)
(0.0985131 0.00842203 -4.50749e-22)
(0.197206 0.00456285 -5.66661e-20)
(0.32408 0.0041981 0)
(0.472619 0.00828788 -4.67361e-20)
(0.631653 0.0167755 4.18942e-20)
(0.787729 0.028606 -3.11792e-22)
(0.928309 0.0420666 -6.61554e-20)
(1.04429 0.0552926 -5.61515e-20)
(1.13123 0.0667293 3.57393e-21)
(1.1893 0.0754317 -3.86767e-20)
(1.22237 0.081107 9.69941e-20)
(1.23653 0.0840509 0)
(1.23864 0.084874 -5.3336e-20)
(1.23475 0.0841567 2.59697e-20)
(1.22909 0.0828439 2.04074e-20)
(1.22449 0.0802202 0)
(1.22058 0.0785543 1.51743e-20)
(1.21835 0.0738817 -5.06062e-20)
(1.21474 0.0723862 4.72583e-20)
(1.2128 0.0653543 2.77622e-20)
(-0.0166821 0.0103123 -4.19645e-20)
(-0.0173596 0.0163173 -3.9944e-20)
(0.0145936 0.0155809 3.6217e-20)
(0.0806778 0.0123437 0)
(0.182496 0.0102941 0)
(0.318345 0.012229 -1.7657e-22)
(0.480291 0.0195821 0)
(0.653922 0.0320427 -1.37738e-19)
(0.821826 0.0477478 1.2463e-19)
(0.968517 0.0640675 -1.49862e-19)
(1.08403 0.0785353 3.28731e-20)
(1.16514 0.0895145 0)
(1.21459 0.0964474 4.79084e-20)
(1.23905 0.0997077 -8.59944e-20)
(1.24672 0.100228 2.0206e-20)
(1.24517 0.0990705 4.56631e-20)
(1.2399 0.0970226 -4.37739e-21)
(1.23394 0.0947085 -4.90789e-20)
(1.22848 0.0919798 0)
(1.22325 0.089241 0)
(1.21813 0.0860041 -1.4971e-20)
(1.21306 0.081852 1.28823e-20)
(1.20735 0.0792436 4.30383e-20)
(1.2037 0.0717617 -4.01764e-20)
(-0.0142811 0.00780238 -4.33508e-20)
(-0.00186914 0.0102962 -4.02635e-20)
(0.0529795 0.00947233 1.11465e-19)
(0.151063 0.00925806 -6.72795e-20)
(0.290947 0.0135351 6.23239e-20)
(0.463827 0.0245567 1.12311e-19)
(0.651919 0.0418698 -7.75006e-20)
(0.833021 0.0626121 -9.03519e-20)
(0.987938 0.0829665 3.60576e-21)
(1.10561 0.0997296 1.11567e-19)
(1.18415 0.111215 0)
(1.22886 0.117352 2.76097e-20)
(1.24881 0.119197 0)
(1.25346 0.11824 -4.05483e-20)
(1.25034 0.115809 5.61017e-20)
(1.24413 0.112745 3.43636e-22)
(1.23705 0.1095 -1.33348e-20)
(1.2299 0.106029 2.34635e-20)
(1.22283 0.102525 1.97731e-20)
(1.21614 0.0985804 -1.7008e-20)
(1.20995 0.0947234 1.49643e-20)
(1.20463 0.0900609 -1.28765e-20)
(1.19954 0.0866123 0)
(1.19632 0.0796524 -9.21948e-21)
(-0.00964088 0.00494201 4.334e-20)
(0.0222227 0.00373393 4.1686e-20)
(0.107267 0.00406654 -3.72602e-20)
(0.243736 0.0095716 6.81716e-20)
(0.423098 0.0234964 -6.31471e-20)
(0.624948 0.0457088 5.60981e-20)
(0.821477 0.0722863 -2.63901e-20)
(0.988343 0.0978506 6.80337e-20)
(1.11239 0.118159 -4.16686e-20)
(1.1926 0.131354 6.95606e-20)
(1.23649 0.137813 -1.56302e-19)
(1.25506 0.139216 5.57444e-20)
(1.25865 0.137512 -4.5692e-20)
(1.25474 0.134236 4.25357e-20)
(1.24766 0.130291 3.41107e-20)
(1.23955 0.126114 2.81294e-20)
(1.23136 0.121796 -7.77156e-20)
(1.22356 0.117472 4.72561e-20)
(1.21644 0.113002 -1.977e-20)
(1.21001 0.10859 4.92398e-20)
(1.20417 0.10404 -1.59561e-20)
(1.19869 0.0992714 -3.58214e-20)
(1.19319 0.0952282 3.25018e-20)
(1.18833 0.088507 9.2165e-21)
(-0.00184837 0.00201569 0)
(0.0569588 -0.00186674 2.51674e-22)
(0.179542 0.00231587 7.66572e-20)
(0.357942 0.0171516 -7.07153e-20)
(0.571125 0.0432533 -6.27725e-20)
(0.785585 0.0760095 1.14569e-19)
(0.969617 0.108041 -5.22968e-20)
(1.1058 0.133468 6.72716e-20)
(1.19273 0.14988 -2.26035e-21)
(1.23954 0.157918 -3.62177e-20)
(1.25899 0.159803 7.50248e-20)
(1.2625 0.157936 -1.08085e-19)
(1.25802 0.154126 0)
(1.25015 0.149448 -1.95289e-20)
(1.24125 0.14445 -4.98927e-20)
(1.23242 0.139351 1.57644e-20)
(1.2241 0.134285 9.23159e-22)
(1.21638 0.129213 -3.00135e-20)
(1.20918 0.124206 3.11652e-21)
(1.20238 0.119144 3.37581e-20)
(1.19594 0.114045 -1.41295e-20)
(1.18992 0.108943 -4.84235e-21)
(1.18416 0.103995 1.57935e-20)
(1.17942 0.097577 0)
(0.0101103 -0.000669799 0)
(0.103928 -0.0050308 2.10333e-20)
(0.269731 0.00680494 -9.92176e-20)
(0.48808 0.0344213 3.5474e-20)
(0.721669 0.0729454 -3.2858e-20)
(0.92905 0.112703 -2.91284e-20)
(1.08479 0.145191 -5.00886e-20)
(1.18466 0.166675 2.50709e-20)
(1.23853 0.1777 2.11954e-20)
(1.26107 0.180958 0)
(1.26542 0.17941 4.38695e-20)
(1.2607 0.175308 -6.30082e-20)
(1.25226 0.170035 4.62781e-20)
(1.24277 0.164317 1.95374e-20)
(1.23339 0.158481 -1.49918e-20)
(1.22448 0.152667 -1.16257e-20)
(1.21609 0.146884 -1.04848e-20)
(1.20821 0.141162 3.26565e-20)
(1.20085 0.135454 0)
(1.19405 0.129802 1.47893e-20)
(1.18781 0.124197 1.14616e-20)
(1.18197 0.118688 -2.93641e-20)
(1.17638 0.11317 -1.86251e-20)
(1.17107 0.107251 1.71035e-20)
(0.0270535 -0.00257885 -2.43506e-20)
(0.16362 -0.00400823 -8.37861e-22)
(0.374842 0.0197545 2.0156e-20)
(0.62441 0.0620536 5.50918e-20)
(0.860766 0.110452 1.53667e-20)
(1.04516 0.152347 -2.93535e-20)
(1.16612 0.181309 2.64472e-20)
(1.23257 0.197113 -2.25049e-20)
(1.2612 0.202828 3.88021e-20)
(1.2677 0.202151 1.58315e-20)
(1.26323 0.198017 -4.43478e-20)
(1.25432 0.19227 1.26842e-20)
(1.24415 0.185882 2.06656e-20)
(1.23403 0.179295 -1.02215e-20)
(1.22439 0.172684 0)
(1.21531 0.166107 1.3921e-20)
(1.20685 0.159605 2.23827e-20)
(1.199 0.153183 3.11608e-21)
(1.19174 0.146875 -1.78571e-20)
(1.18498 0.140671 7.03452e-21)
(1.17862 0.134577 0)
(1.17257 0.128601 -5.07521e-21)
(1.16674 0.122531 -4.63704e-21)
(1.16132 0.116765 0)
(0.0493919 -0.00296056 0)
(0.234961 0.00311282 1.18167e-20)
(0.488931 0.0426295 2.14897e-20)
(0.755818 0.0990166 -5.59928e-20)
(0.978786 0.152932 1.77913e-20)
(1.13176 0.192631 0)
(1.21886 0.215792 2.47421e-20)
(1.25827 0.225547 -3.39161e-20)
(1.26915 0.22653 -1.92298e-20)
(1.26572 0.222667 8.5379e-21)
(1.25642 0.216504 -1.27073e-20)
(1.24542 0.209394 3.09498e-20)
(1.2344 0.201956 1.47649e-20)
(1.22394 0.194447 -1.0515e-20)
(1.21417 0.186975 -1.29285e-21)
(1.20512 0.179601 -2.58405e-20)
(1.19672 0.172349 1.15188e-20)
(1.18894 0.165244 -3.27958e-22)
(1.18172 0.158285 0)
(1.17504 0.151487 -7.0415e-21)
(1.16882 0.144859 0)
(1.16297 0.138356 1.4378e-20)
(1.15736 0.131893 -1.65149e-20)
(1.15186 0.126268 7.31198e-21)
(0.0769963 -0.000930821 -6.74485e-21)
(0.315135 0.018077 -2.98789e-20)
(0.604149 0.0757153 3.34498e-20)
(0.873137 0.143285 1.9007e-20)
(1.0718 0.198105 -9.03288e-21)
(1.19152 0.232574 1.42554e-20)
(1.24938 0.248949 -6.93284e-21)
(1.26853 0.252913 1.09646e-20)
(1.26765 0.249814 0)
(1.25833 0.243291 2.32069e-20)
(1.24642 0.235345 -1.17498e-21)
(1.23434 0.226898 -1.78999e-20)
(1.22291 0.218337 7.39034e-21)
(1.21232 0.209822 -7.98089e-21)
(1.20254 0.201427 -2.76403e-21)
(1.1935 0.193187 3.43494e-21)
(1.18517 0.18513 -2.44601e-21)
(1.17751 0.177273 -1.282e-20)
(1.17049 0.169642 7.74019e-21)
(1.16401 0.162246 1.47056e-21)
(1.15793 0.155068 1.23587e-21)
(1.15213 0.14806 1.03572e-21)
(1.14652 0.141253 0)
(1.14108 0.135371 0)
(0.10919 0.00441153 6.75302e-21)
(0.39991 0.0420663 -6.22915e-21)
(0.7127 0.118147 -1.11635e-20)
(0.970868 0.192754 0)
(1.1399 0.244591 -4.44697e-21)
(1.22858 0.27199 -3.83774e-21)
(1.26297 0.281345 -6.3005e-21)
(1.26774 0.279981 0)
(1.25939 0.273285 0)
(1.2467 0.264348 0)
(1.23343 0.254644 0)
(1.22085 0.244773 0)
(1.20926 0.234965 -4.56051e-21)
(1.19865 0.225319 2.03834e-21)
(1.18895 0.215884 3.41416e-21)
(1.18007 0.20669 1.57379e-21)
(1.17196 0.19776 3.68001e-21)
(1.16455 0.189115 0)
(1.15778 0.180763 -7.86292e-22)
(1.15156 0.172707 -7.39287e-22)
(1.14579 0.164923 -1.23781e-21)
(1.14034 0.157387 -1.03735e-21)
(1.13509 0.150215 0)
(1.12999 0.143934 6.28168e-22)
(0.00584756 -0.154802 7.52257e-21)
(0.00852761 -0.325705 -7.13894e-21)
(-0.00317075 -0.403517 -1.31981e-20)
(-0.0236656 -0.426928 0)
(-0.0482357 -0.424924 -1.73907e-20)
(-0.0739015 -0.41367 5.51026e-21)
(-0.0988654 -0.398838 -1.01797e-20)
(-0.121962 -0.380235 0)
(-0.142362 -0.355709 0)
(-0.159425 -0.323166 0)
(-0.172679 -0.281201 0)
(-0.181848 -0.229178 0)
(-0.186901 -0.167173 5.33264e-22)
(-0.188055 -0.0958675 -7.69483e-21)
(-0.185884 -0.0164155 1.38739e-20)
(-0.180469 0.0702485 1.99277e-20)
(-0.171834 0.16214 5.57473e-21)
(-0.160331 0.25755 0)
(-0.145887 0.354413 5.32202e-21)
(-0.12841 0.450153 -1.3927e-20)
(-0.108115 0.541545 -7.91388e-21)
(-0.0850456 0.625 -6.89855e-21)
(-0.0625326 0.697923 0)
(-0.038083 0.758076 0)
(0.0131376 -0.150331 -2.21226e-20)
(0.0191016 -0.308588 3.52408e-20)
(0.00319366 -0.376235 -1.24658e-20)
(-0.0238082 -0.39329 -2.38502e-20)
(-0.0554745 -0.388139 3.35348e-20)
(-0.0886678 -0.376117 -2.09803e-20)
(-0.121759 -0.362315 2.9632e-20)
(-0.153772 -0.346231 1.78474e-20)
(-0.183969 -0.325565 0)
(-0.211674 -0.298108 -1.81358e-20)
(-0.236249 -0.262281 -8.10154e-22)
(-0.257145 -0.217182 1.58783e-20)
(-0.273984 -0.162544 2.13495e-20)
(-0.286591 -0.0986539 2.77082e-20)
(-0.294479 -0.0263292 -1.37397e-20)
(-0.297796 0.0535419 -3.71203e-20)
(-0.296973 0.139131 1.00256e-20)
(-0.291741 0.228607 -3.89323e-20)
(-0.282067 0.319825 0)
(-0.267942 0.410315 8.9514e-21)
(-0.24944 0.497311 7.90428e-21)
(-0.226444 0.577847 6.89003e-21)
(-0.199906 0.649113 0)
(-0.170646 0.709951 0)
(0.019429 -0.139916 0)
(0.0283013 -0.28252 6.47765e-20)
(0.00969684 -0.34075 -2.41081e-20)
(-0.0215431 -0.352679 2.30615e-20)
(-0.0576821 -0.34495 -6.14274e-20)
(-0.0954215 -0.331979 0)
(-0.133279 -0.318604 -3.65343e-20)
(-0.170473 -0.304348 1.60839e-20)
(-0.206399 -0.286958 -3.07021e-20)
(-0.240426 -0.264222 1.27912e-20)
(-0.271864 -0.234488 8.46891e-20)
(-0.300004 -0.196688 -3.92347e-20)
(-0.324148 -0.150297 -6.42898e-20)
(-0.343786 -0.0952966 -2.16199e-20)
(-0.358199 -0.0319298 4.54452e-22)
(-0.367055 0.0383294 8.00396e-20)
(-0.370467 0.114213 -3.69266e-20)
(-0.367837 0.193984 3.85878e-21)
(-0.358744 0.275559 0)
(-0.342814 0.356543 -2.21429e-20)
(-0.319836 0.434347 0)
(-0.289315 0.506396 -2.02551e-20)
(-0.249839 0.569915 6.53353e-20)
(-0.202598 0.623111 -2.20799e-21)
(0.0241791 -0.125425 0)
(0.0354646 -0.250899 -1.51648e-21)
(0.0156796 -0.300604 2.19326e-20)
(-0.0175605 -0.308485 -2.0185e-20)
(-0.0555297 -0.298619 1.9984e-20)
(-0.0946851 -0.284425 1.06751e-19)
(-0.133601 -0.270723 -3.34403e-20)
(-0.171656 -0.257337 -3.00356e-20)
(-0.2084 -0.242252 5.85824e-20)
(-0.243296 -0.223364 -8.32634e-20)
(-0.275677 -0.199036 2.36512e-20)
(-0.304775 -0.168127 2.19995e-20)
(-0.329747 -0.129951 0)
(-0.349524 -0.0842537 2.17012e-20)
(-0.363658 -0.0313987 0)
(-0.371727 0.0275052 2.9031e-20)
(-0.372825 0.0914883 -5.57374e-20)
(-0.366217 0.158997 1.77897e-20)
(-0.351194 0.228083 4.53702e-20)
(-0.327004 0.296484 2.21225e-20)
(-0.292926 0.361652 0)
(-0.249218 0.42095 -4.19277e-20)
(-0.194962 0.472298 1.43914e-20)
(-0.121578 0.514354 0)
(0.0270592 -0.108659 0)
(0.0399244 -0.216618 -6.97084e-20)
(0.0199849 -0.258874 -2.07232e-20)
(-0.0135371 -0.26399 -3.91864e-20)
(-0.0511962 -0.252897 3.63117e-20)
(-0.0891244 -0.23781 -3.47611e-20)
(-0.125833 -0.223571 6.21065e-20)
(-0.160795 -0.210462 2.98054e-20)
(-0.193693 -0.196859 -8.12322e-20)
(-0.224108 -0.18087 4.87179e-20)
(-0.25144 -0.160949 -6.84552e-20)
(-0.274917 -0.13599 1.39004e-19)
(-0.293692 -0.105292 -7.52472e-20)
(-0.306968 -0.0686781 3.0781e-20)
(-0.313934 -0.0265091 8.41117e-20)
(-0.313735 0.0208244 -3.2535e-20)
(-0.305481 0.0724087 -2.35639e-20)
(-0.288307 0.126912 -2.30251e-20)
(-0.261384 0.182636 0)
(-0.224077 0.237488 -2.51004e-20)
(-0.175688 0.289416 -1.81746e-20)
(-0.114571 0.335664 3.11075e-20)
(-0.0477354 0.375757 3.2833e-20)
(0.0520448 0.401738 -2.78986e-20)
(0.027874 -0.0910081 0)
(0.0410176 -0.181811 -8.58517e-20)
(0.021248 -0.217814 1.31581e-21)
(-0.0115833 -0.221655 7.42931e-20)
(-0.047612 -0.210762 0)
(-0.0826412 -0.195872 0)
(-0.115025 -0.181702 0)
(-0.14425 -0.16901 -2.72015e-20)
(-0.1701 -0.15667 7.92164e-22)
(-0.192273 -0.143096 4.51894e-20)
(-0.210279 -0.126909 -6.21518e-20)
(-0.223461 -0.10712 7.2624e-22)
(-0.231146 -0.0831954 0)
(-0.232565 -0.0548306 -3.07664e-20)
(-0.226918 -0.0220582 2.00505e-20)
(-0.213457 0.0147141 -6.3065e-20)
(-0.191407 0.0547548 6.90208e-20)
(-0.160092 0.0969785 6.76182e-21)
(-0.119039 0.139975 -6.61615e-21)
(-0.0667785 0.18187 -4.11324e-20)
(-0.00674433 0.222084 -1.35148e-20)
(0.0726499 0.254563 4.30869e-20)
(0.141594 0.287703 -2.57956e-20)
(0.262816 0.295605 0)
(0.026468 -0.0732935 4.23473e-20)
(0.0381395 -0.147692 4.24088e-20)
(0.0182296 -0.178667 -3.75233e-20)
(-0.0136189 -0.182822 -7.05264e-20)
(-0.0475008 -0.173944 6.53513e-20)
(-0.0790061 -0.161037 -5.97891e-20)
(-0.106306 -0.148444 8.24958e-20)
(-0.12883 -0.137266 -2.66444e-20)
(-0.146424 -0.126893 4.64417e-20)
(-0.158912 -0.11613 0)
(-0.16598 -0.103827 3.38471e-20)
(-0.167216 -0.0891168 -6.47431e-20)
(-0.161965 -0.0713851 5.56411e-20)
(-0.149612 -0.0502883 -5.1791e-20)
(-0.129731 -0.0258603 0)
(-0.101801 0.00162384 3.58198e-20)
(-0.0653691 0.0316538 5.12882e-20)
(-0.0199661 0.0633937 -5.01546e-20)
(0.0335515 0.0957005 -1.70241e-20)
(0.100617 0.126417 -1.35873e-20)
(0.165359 0.157745 3.86871e-20)
(0.263515 0.177489 7.52137e-21)
(0.326715 0.206327 -7.63543e-21)
(0.466194 0.201985 7.63282e-21)
(0.0227249 -0.0558739 -4.23577e-20)
(0.0309677 -0.114721 1.18556e-19)
(0.0103604 -0.141706 -3.59928e-20)
(-0.0204899 -0.14753 6.78625e-20)
(-0.0520882 -0.142385 -6.28826e-20)
(-0.080024 -0.133413 -4.69448e-22)
(-0.102327 -0.124329 2.62294e-20)
(-0.11832 -0.116366 9.34948e-20)
(-0.127826 -0.109317 -2.58188e-21)
(-0.130717 -0.102353 -4.138e-20)
(-0.126759 -0.094531 0)
(-0.11562 -0.0850215 -2.7351e-20)
(-0.0969501 -0.0731871 5.5033e-20)
(-0.0703014 -0.0586937 4.2934e-20)
(-0.0353511 -0.0413845 -2.17056e-20)
(0.00818409 -0.0213687 -1.58709e-21)
(0.0604097 0.000915516 -1.34653e-20)
(0.121625 0.0249186 1.92159e-20)
(0.189236 0.0493139 1.70246e-20)
(0.273538 0.0727896 -1.33944e-20)
(0.345124 0.0972856 1.00152e-20)
(0.465746 0.110966 -8.53667e-21)
(0.523918 0.135195 0)
(0.68996 0.128662 -7.63106e-21)
(0.0167244 -0.0389832 4.02066e-20)
(0.0198514 -0.0830693 -3.91268e-20)
(-0.00163029 -0.106627 3.5432e-20)
(-0.0310361 -0.114784 0)
(-0.0597187 -0.114331 0)
(-0.0834558 -0.110533 5.45697e-20)
(-0.10014 -0.106309 -5.17812e-20)
(-0.108841 -0.102774 4.4784e-20)
(-0.109133 -0.0999145 -2.10608e-19)
(-0.100681 -0.0971342 1.10133e-21)
(-0.083116 -0.0936366 3.30987e-20)
(-0.0560669 -0.088634 0)
(-0.0192592 -0.0814637 -4.79408e-20)
(0.0274247 -0.0716098 8.48597e-20)
(0.0838929 -0.0588618 -5.57458e-20)
(0.149834 -0.0433013 -6.89238e-20)
(0.224612 -0.0252787 6.99518e-21)
(0.307773 -0.00527578 3.98997e-20)
(0.396806 0.0152299 0)
(0.498071 0.0362065 0)
(0.587658 0.0561311 -1.00174e-20)
(0.717289 0.0708502 8.53856e-21)
(0.783329 0.0891676 -3.35379e-20)
(0.952312 0.0884602 3.12697e-20)
(0.00898 -0.0230998 0)
(0.00615238 -0.0531805 0)
(-0.0153754 -0.073188 -1.0574e-19)
(-0.0416803 -0.0833229 3.25504e-20)
(-0.0652449 -0.0872886 3.08528e-22)
(-0.0820631 -0.0885325 5.49821e-20)
(-0.0897389 -0.0891108 0)
(-0.0868391 -0.0898426 -4.60487e-20)
(-0.0724227 -0.0906989 4.19328e-20)
(-0.0458037 -0.0911512 -7.21489e-20)
(-0.00654981 -0.0904437 1.43075e-21)
(0.0453806 -0.087774 5.50477e-20)
(0.109551 -0.0824426 -4.25488e-21)
(0.184961 -0.0739715 3.52438e-20)
(0.270087 -0.0621974 -5.59998e-20)
(0.363306 -0.0474029 0)
(0.4623 -0.0297226 4.3795e-20)
(0.565079 -0.0106608 -5.96177e-20)
(0.670388 0.00964784 1.63932e-20)
(0.774242 0.0292445 0)
(0.875385 0.0472557 1.20316e-20)
(0.978963 0.062069 4.02042e-20)
(1.05386 0.0745844 -3.75385e-20)
(1.16885 0.0767939 -4.64757e-20)
(0.000489192 -0.00905332 1.18141e-19)
(-0.007902 -0.0261398 -1.50291e-19)
(-0.0274706 -0.041887 -1.36274e-22)
(-0.0475663 -0.0527303 3.22715e-20)
(-0.0618639 -0.0597238 -6.00033e-20)
(-0.0664656 -0.0647317 -5.52744e-20)
(-0.0586771 -0.0689305 1.00213e-19)
(-0.0365609 -0.0726853 -2.26206e-21)
(0.00112459 -0.0757796 -8.43782e-20)
(0.0548733 -0.0776203 1.47102e-19)
(0.124291 -0.0774327 -3.87988e-21)
(0.207961 -0.0744685 -5.92888e-20)
(0.30349 -0.0681851 0)
(0.407775 -0.0583689 0)
(0.517195 -0.045129 -1.75202e-20)
(0.628414 -0.0292059 -3.01359e-20)
(0.73737 -0.0108825 -4.65272e-20)
(0.842096 0.00739336 4.33707e-20)
(0.939092 0.0268289 -1.64051e-20)
(1.02561 0.0424054 2.84731e-20)
(1.10458 0.0577943 -1.34691e-20)
(1.16424 0.0665567 2.19734e-20)
(1.2195 0.0734156 -5.32297e-20)
(1.25641 0.0712713 9.40447e-21)
(-0.00718962 0.0017949 3.94474e-20)
(-0.0195239 -0.0040916 0)
(-0.0343793 -0.0149298 7.02554e-20)
(-0.0444687 -0.02498 -6.50582e-20)
(-0.044612 -0.0333125 6.00767e-20)
(-0.0310166 -0.0403994 0)
(-0.000807001 -0.0465212 0)
(0.0478993 -0.051554 -4.53589e-20)
(0.115753 -0.0550307 2.68717e-21)
(0.201887 -0.0562701 3.91604e-20)
(0.303747 -0.0545722 -3.14359e-20)
(0.417264 -0.0494447 5.99682e-20)
(0.537323 -0.0407452 0)
(0.658432 -0.0287665 8.21987e-20)
(0.775348 -0.0141885 -1.46129e-19)
(0.883642 0.00192764 9.49915e-20)
(0.979595 0.018583 4.96448e-20)
(1.06174 0.0339811 -4.62798e-20)
(1.12695 0.0484098 0)
(1.17866 0.0578942 0)
(1.21272 0.0671387 0)
(1.23512 0.0674932 0)
(1.24894 0.0696237 1.08121e-20)
(1.2447 0.0619335 -3.99647e-20)
(-0.0174502 0.813211 -3.23085e-21)
(0.00431565 0.858084 3.23763e-21)
(0.0266837 0.879369 -8.05978e-23)
(0.0617371 0.866827 0)
(0.122213 0.802681 -2.49051e-21)
(0.214775 0.676583 5.02339e-21)
(0.331235 0.496103 2.35677e-22)
(0.450526 0.283366 -2.68508e-21)
(0.555085 0.0505332 0)
(0.643446 -0.200834 0)
(0.718211 -0.444825 -1.61224e-22)
(0.772609 -0.633308 -1.34264e-22)
(0.801904 -0.735267 -1.59188e-21)
(0.812921 -0.758102 1.44392e-21)
(0.809784 -0.738925 0)
(0.796264 -0.708254 0)
(0.783206 -0.67458 7.5209e-22)
(0.76935 -0.656887 3.35475e-23)
(0.740575 -0.681019 -6.95919e-22)
(0.692496 -0.723328 -5.18155e-23)
(0.642461 -0.699356 0)
(0.616006 -0.536315 0)
(0.621972 -0.247563 0)
(0.652327 0.0801429 0)
(0.696802 0.352752 0)
(0.73949 0.52561 0)
(0.775145 0.597327 2.31334e-22)
(0.808299 0.598288 -3.71864e-22)
(0.83016 0.596474 0)
(0.824373 0.63227 0)
(0.790296 0.671031 -2.46055e-22)
(0.736782 0.642255 2.3909e-22)
(0.686694 0.50115 1.74586e-22)
(0.658711 0.256141 0)
(0.660484 -0.0323024 0)
(0.681494 -0.278448 2.76106e-22)
(0.719443 -0.430697 -2.68348e-22)
(0.753227 -0.494698 0)
(0.750274 -0.524819 1.2497e-22)
(0.697778 -0.537341 -1.77279e-22)
(0.636903 -0.489318 5.71821e-23)
(0.597116 -0.345132 0)
(0.603553 -0.121847 -1.32287e-22)
(0.642086 0.0907795 1.28629e-22)
(0.684052 0.266837 0)
(0.683534 0.393425 0)
(0.66669 0.462982 -3.75778e-23)
(0.646293 0.439607 1.13025e-22)
(0.647859 0.285619 0)
(0.6551 0.0845114 0)
(0.668341 -0.162485 -2.95207e-23)
(0.648278 -0.346063 -1.80455e-24)
(0.639075 -0.41595 -3.49375e-24)
(0.629182 -0.36962 1.2964e-23)
(0.631996 -0.104082 0)
(0.605851 0.128327 0)
(0.594799 0.334974 0)
(0.580006 0.408435 0)
(0.562846 0.0681106 0)
(0.519114 -0.102127 0)
(-0.136506 0.766333 -2.66861e-22)
(-0.0781524 0.811322 -1.04782e-20)
(-0.0133738 0.819348 3.89108e-22)
(0.0717732 0.785979 9.43666e-21)
(0.18068 0.699014 1.49791e-22)
(0.310878 0.557222 0)
(0.4482 0.377806 -1.13007e-20)
(0.572853 0.182887 2.30773e-20)
(0.676736 -0.0296094 -1.1777e-20)
(0.765316 -0.267741 1.11974e-20)
(0.837449 -0.500315 -1.07115e-20)
(0.881202 -0.671765 7.75058e-21)
(0.89168 -0.754554 -7.55352e-21)
(0.880243 -0.761576 -1.61908e-22)
(0.857491 -0.730416 -3.7315e-21)
(0.826813 -0.693857 3.624e-21)
(0.798398 -0.659346 -2.87123e-21)
(0.773564 -0.636634 2.70613e-21)
(0.73605 -0.649561 -3.06635e-21)
(0.677825 -0.684534 6.46517e-21)
(0.615124 -0.667615 -3.38002e-21)
(0.572915 -0.524754 -2.57149e-22)
(0.566735 -0.259963 -5.01103e-21)
(0.594498 0.048541 9.51886e-21)
(0.64259 0.315728 -4.51821e-21)
(0.693183 0.493545 1.99668e-22)
(0.742064 0.572115 2.41925e-21)
(0.789554 0.580961 -2.96809e-22)
(0.824152 0.590788 -3.58334e-21)
(0.83129 0.640335 3.47374e-21)
(0.810046 0.69093 -1.74038e-21)
(0.769161 0.668363 2.97337e-22)
(0.729565 0.524245 -1.74956e-22)
(0.70754 0.267452 4.37675e-22)
(0.709879 -0.0339593 0)
(0.723603 -0.290433 0)
(0.747369 -0.446425 -8.86671e-22)
(0.770879 -0.502119 6.76881e-22)
(0.763564 -0.515386 3.54e-22)
(0.705315 -0.517076 1.79277e-23)
(0.639141 -0.471606 -4.78797e-22)
(0.597451 -0.339949 1.02897e-22)
(0.604137 -0.130777 0)
(0.640844 0.0762201 0)
(0.679207 0.259291 0)
(0.679117 0.395114 0)
(0.665364 0.46804 1.4474e-22)
(0.647649 0.443229 -7.65563e-23)
(0.651068 0.285601 0)
(0.661868 0.0821141 0)
(0.678344 -0.161288 0)
(0.655779 -0.343272 -4.53096e-23)
(0.641356 -0.413265 1.46094e-23)
(0.627834 -0.36926 -3.17021e-23)
(0.630416 -0.101861 0)
(0.606847 0.13086 0)
(0.60163 0.337107 1.2847e-23)
(0.591655 0.411386 4.91704e-23)
(0.567954 0.075956 0)
(0.518657 -0.0988538 0)
(-0.149222 0.678015 -7.62428e-22)
(-0.0602741 0.714055 -1.79385e-20)
(0.03559 0.711729 1.80998e-20)
(0.153648 0.666922 -1.69193e-20)
(0.287914 0.571349 -1.50866e-22)
(0.432192 0.429102 0)
(0.570882 0.263745 -2.31468e-20)
(0.688347 0.0946007 2.2663e-20)
(0.787186 -0.0929302 1.86408e-22)
(0.877168 -0.314021 3.52349e-22)
(0.947655 -0.53077 3.17499e-22)
(0.98026 -0.68265 2.72579e-22)
(0.972895 -0.747764 -1.21507e-20)
(0.940943 -0.745268 1.19625e-20)
(0.901626 -0.709895 0)
(0.858405 -0.672399 1.97759e-22)
(0.816979 -0.639489 -5.37769e-21)
(0.782788 -0.612473 5.30558e-21)
(0.740729 -0.613139 0)
(0.675378 -0.641773 0)
(0.600923 -0.635859 -7.18455e-21)
(0.545759 -0.517171 1.5378e-20)
(0.52765 -0.277881 -1.63107e-20)
(0.549208 0.0122732 5.00616e-22)
(0.597413 0.27267 1.43252e-20)
(0.653655 0.454163 -1.22106e-20)
(0.713503 0.539639 9.16028e-21)
(0.773448 0.557306 -7.72151e-22)
(0.82078 0.577707 -3.42501e-21)
(0.841644 0.639806 0)
(0.83463 0.704722 0)
(0.807407 0.693193 2.23095e-21)
(0.778446 0.549629 -2.75731e-21)
(0.762611 0.284682 2.49579e-23)
(0.765505 -0.026441 3.33953e-21)
(0.772616 -0.291813 -3.24482e-21)
(0.781499 -0.454108 0)
(0.793204 -0.506242 1.85658e-22)
(0.782611 -0.504813 1.0675e-21)
(0.720081 -0.496273 -1.87031e-21)
(0.648019 -0.454956 7.49265e-22)
(0.603574 -0.337093 6.19645e-23)
(0.609749 -0.141404 -8.37216e-22)
(0.643845 0.0615808 6.62012e-22)
(0.679007 0.251556 1.21366e-22)
(0.679824 0.396307 1.2159e-22)
(0.668589 0.47262 -1.45129e-22)
(0.6523 0.447209 0)
(0.656973 0.286193 0)
(0.671481 0.0802293 -7.94379e-22)
(0.691909 -0.158753 3.65807e-22)
(0.667461 -0.339185 -2.59385e-22)
(0.64734 -0.409612 2.45077e-22)
(0.62969 -0.369443 1.45255e-22)
(0.632468 -0.100859 -5.81432e-23)
(0.611631 0.132567 2.11644e-23)
(0.61216 0.337515 -2.86014e-23)
(0.606748 0.415029 2.43579e-23)
(0.577808 0.0853285 0)
(0.522468 -0.0952325 0)
(-0.0565893 0.562878 -2.8486e-20)
(0.0447726 0.589602 -1.6967e-21)
(0.158379 0.584085 2.84585e-20)
(0.287653 0.537645 -2.6911e-22)
(0.426933 0.444747 0)
(0.568615 0.311924 0)
(0.696277 0.166002 -4.52552e-20)
(0.799965 0.0216344 -3.14669e-21)
(0.892546 -0.145983 6.84089e-20)
(0.984127 -0.351873 -1.21107e-21)
(1.05227 -0.550048 -2.11784e-20)
(1.07226 -0.679743 -1.46227e-20)
(1.0473 -0.726855 1.46862e-20)
(0.997043 -0.717059 0)
(0.942853 -0.681005 -7.12813e-21)
(0.890927 -0.644646 6.53308e-21)
(0.840373 -0.615647 0)
(0.796612 -0.587939 0)
(0.751349 -0.575889 4.50599e-21)
(0.684376 -0.592852 5.06811e-22)
(0.601412 -0.59612 -4.56228e-21)
(0.533838 -0.506535 -6.83694e-21)
(0.504498 -0.298325 6.8181e-21)
(0.516684 -0.0285177 -7.23944e-21)
(0.560771 0.224233 1.16611e-21)
(0.620282 0.408298 5.67558e-21)
(0.688974 0.500286 4.9611e-22)
(0.759509 0.526154 3.16345e-23)
(0.818443 0.556115 0)
(0.853652 0.630324 3.4878e-21)
(0.86227 0.709638 -3.61552e-21)
(0.848423 0.710833 3.10768e-22)
(0.830276 0.573341 0)
(0.821152 0.305561 -4.68271e-22)
(0.825221 -0.0126236 7.09574e-21)
(0.827613 -0.285698 -1.17056e-20)
(0.822175 -0.454908 8.89967e-22)
(0.819736 -0.507651 1.21362e-21)
(0.8057 -0.494132 2.32103e-21)
(0.74103 -0.47464 1.9108e-22)
(0.662933 -0.43757 -1.21387e-21)
(0.614081 -0.335344 1.01342e-21)
(0.619063 -0.153663 4.15828e-23)
(0.650662 0.0461475 4.53408e-22)
(0.683427 0.242335 -5.62621e-22)
(0.685201 0.396283 -8.35675e-22)
(0.675811 0.477212 2.24015e-22)
(0.660058 0.452189 8.11184e-22)
(0.665542 0.287794 -1.68133e-21)
(0.683791 0.0784159 1.28751e-21)
(0.708857 -0.155546 -2.61471e-22)
(0.683215 -0.333948 4.6845e-22)
(0.657071 -0.40466 2.63422e-22)
(0.634666 -0.369867 -1.71611e-22)
(0.638014 -0.101271 1.40538e-23)
(0.619922 0.133355 3.58592e-23)
(0.625999 0.336336 0)
(0.625058 0.419129 -1.74513e-23)
(0.592418 0.096116 2.17588e-22)
(0.530643 -0.0911326 0)
(0.116365 0.441623 2.1917e-20)
(0.216031 0.463392 -4.60432e-20)
(0.328787 0.455972 2.37838e-20)
(0.45248 0.413953 3.27004e-20)
(0.582474 0.331481 -6.89511e-20)
(0.710204 0.214748 -4.27406e-21)
(0.819123 0.0902153 3.95804e-20)
(0.907946 -0.0347128 4.41057e-20)
(0.997994 -0.190444 -4.3169e-20)
(1.0903 -0.379985 0)
(1.14926 -0.551248 -3.50654e-20)
(1.1512 -0.654775 6.25377e-20)
(1.10858 -0.686719 -2.77067e-20)
(1.04505 -0.674793 0)
(0.98042 -0.643906 0)
(0.922595 -0.611709 1.91467e-22)
(0.867581 -0.587413 -9.16684e-21)
(0.816979 -0.562943 8.89998e-21)
(0.768588 -0.54221 0)
(0.702907 -0.545621 8.02484e-21)
(0.615703 -0.553206 -1.64489e-20)
(0.535954 -0.492397 1.89319e-20)
(0.494229 -0.319157 -2.18687e-20)
(0.495736 -0.0729308 -8.02081e-23)
(0.533243 0.171126 2.07627e-20)
(0.593192 0.356518 -9.56184e-21)
(0.667686 0.45495 -2.29362e-22)
(0.746178 0.488983 -2.51036e-21)
(0.816063 0.52584 -1.25255e-22)
(0.865552 0.608818 2.66566e-21)
(0.889269 0.704087 2.30359e-22)
(0.890375 0.724691 -5.82308e-21)
(0.884315 0.600196 1.2951e-20)
(0.881754 0.333124 -8.052e-21)
(0.88671 0.00947979 0)
(0.885712 -0.270851 -6.69397e-21)
(0.868054 -0.447232 6.305e-21)
(0.850128 -0.504772 -2.27139e-21)
(0.831856 -0.483036 2.85816e-21)
(0.767238 -0.45263 -1.5757e-22)
(0.68353 -0.419157 0)
(0.628136 -0.333871 -9.78173e-23)
(0.630961 -0.167384 2.7539e-22)
(0.660535 0.029179 0)
(0.692003 0.231699 7.92047e-22)
(0.695435 0.395236 -2.8849e-22)
(0.687747 0.480984 2.73029e-22)
(0.671471 0.457509 3.89217e-22)
(0.676953 0.290204 0)
(0.698762 0.0766573 0)
(0.72901 -0.151699 -1.12895e-21)
(0.702877 -0.327418 1.45683e-21)
(0.67049 -0.398291 -6.046e-22)
(0.642628 -0.370417 1.24393e-22)
(0.646799 -0.10309 8.99911e-24)
(0.631406 0.133146 -3.58979e-23)
(0.642746 0.333484 8.24212e-23)
(0.646318 0.423363 0)
(0.611667 0.108097 -2.89366e-22)
(0.5432 -0.0864636 -9.5175e-23)
(0.322069 0.330317 1.7735e-20)
(0.409608 0.348506 -1.75567e-20)
(0.509532 0.340799 1.91973e-22)
(0.617517 0.306034 -1.99211e-22)
(0.730142 0.238136 2.60976e-22)
(0.838862 0.14093 -2.92295e-22)
(0.93043 0.0351833 5.72331e-22)
(1.01245 -0.0783563 0)
(1.10502 -0.226522 -6.02389e-22)
(1.19258 -0.396607 5.72788e-22)
(1.23418 -0.537568 5.09891e-22)
(1.21557 -0.616484 -4.76173e-22)
(1.15744 -0.638046 0)
(1.08513 -0.627055 0)
(1.01451 -0.603243 2.12816e-22)
(0.952965 -0.576417 0)
(0.895716 -0.555482 -1.33775e-22)
(0.840479 -0.536115 0)
(0.790022 -0.511953 -6.16221e-21)
(0.728829 -0.500976 1.21064e-20)
(0.642758 -0.506014 -1.24612e-20)
(0.552438 -0.47108 6.45702e-21)
(0.49609 -0.336082 8.56542e-21)
(0.485153 -0.117156 -8.31491e-21)
(0.514139 0.115206 -7.83012e-21)
(0.571755 0.300348 7.55696e-21)
(0.648981 0.404424 0)
(0.733388 0.445053 1.17505e-22)
(0.812252 0.487116 0)
(0.874524 0.578098 0)
(0.91445 0.687558 7.63211e-21)
(0.930155 0.72739 -7.77472e-21)
(0.934566 0.621202 7.67721e-22)
(0.939744 0.362818 9.79736e-22)
(0.946742 0.0366549 -9.85777e-22)
(0.944374 -0.249394 -6.0086e-21)
(0.917877 -0.43183 5.83292e-21)
(0.883888 -0.497572 -3.08986e-21)
(0.85964 -0.472178 2.60198e-21)
(0.797064 -0.430618 3.02073e-22)
(0.709246 -0.398943 -7.56961e-22)
(0.645337 -0.331358 9.63076e-23)
(0.644475 -0.181894 4.18106e-22)
(0.672798 0.0104731 0)
(0.704545 0.217952 -1.74996e-22)
(0.709783 0.39137 6.34387e-22)
(0.703343 0.484977 -7.74751e-22)
(0.686215 0.464834 -3.91834e-22)
(0.691423 0.294172 0)
(0.716462 0.0750826 4.53463e-22)
(0.752122 -0.147519 -9.76529e-22)
(0.726194 -0.319698 1.46131e-23)
(0.687482 -0.390323 -1.56288e-22)
(0.653438 -0.370855 -8.10149e-23)
(0.6585 -0.106333 4.47178e-23)
(0.64567 0.131963 0)
(0.661921 0.329065 -8.24701e-23)
(0.670131 0.427538 0)
(0.635289 0.121114 0)
(0.560108 -0.0811503 1.19116e-22)
(0.51707 0.233133 -1.55588e-20)