/*--------------------------------*- C++ -*----------------------------------*\
| =========                 |                                                 |
| \\      /  F ield         | OpenFOAM: The Open Source CFD Toolbox           |
|  \\    /   O peration     | Version:  2312                                  |
|   \\  /    A nd           | Website:  www.openfoam.com                      |
|    \\/     M anipulation  |                                                 |
\*---------------------------------------------------------------------------*/
FoamFile
{
    version     2.0;
    format      ascii;
    arch        "LSB;label=32;scalar=64";
    class       surfaceScalarField;
    location    "76.1";
    object      phi;
}
// * * * * * * * * * * * * * * * * * * * * * * * * * * * * * * * * * * * * * //

dimensions      [0 3 -1 0 0 0 0];

oriented        oriented;

internalField   nonuniform List<scalar> 
10785
(
-0.00151499
0.00489605
-0.00338106
-0.00209545
0.00798577
-0.00740531
0.00126676
0.00527056
-0.00863276
0.0117364
-0.00478174
-0.00568793
0.0316295
-0.022989
0.00309595
0.0607791
-0.0472795
0.0181299
0.0962213
-0.0739703
0.0385282
0.133655
-0.0996989
0.0622649
0.168496
-0.122086
0.0872457
0.197199
-0.140005
0.111302
0.217242
-0.153294
0.133252
0.229719
-0.162943
0.150465
0.235818
-0.171375
0.165276
0.240573
-0.178211
0.173456
-0.189659
0.185078
0.245153
-0.000645795
0.00554184
0.00109232
0.00624765
0.00919233
-0.00282945
0.0272373
-0.0228267
0.054981
-0.0507327
0.0881929
-0.0804914
0.121328
-0.107105
0.149703
-0.128074
0.170779
-0.143162
0.184521
-0.153748
0.193211
-0.161984
0.200275
-0.170006
0.207432
-0.178532
0.216566
-0.187345
-0.196965
0.223872
0.000373614
0.00516823
0.00534509
0.00127617
0.0198335
-0.0173178
0.0448705
-0.0478638
0.0752752
-0.0811374
0.10432
-0.109536
0.127448
-0.130233
0.143423
-0.14405
0.153848
-0.153587
0.161571
-0.161471
0.16891
-0.169323
0.176272
-0.177368
0.183155
-0.185414
0.188985
-0.193175
-0.201391
0.193411
0.00142116
0.00374707
0.010576
-0.00787867
0.0314145
-0.0381563
0.0590176
-0.0754669
0.0851691
-0.107289
0.105082
-0.129449
0.118346
-0.143497
0.127206
-0.152909
0.13415
-0.160531
0.140466
-0.167787
0.146147
-0.175004
0.15117
-0.182391
0.155792
-0.190037
0.160799
-0.198182
-0.207112
0.16652
0.00275803
0.000989047
0.0167462
-0.0218668
0.0409001
-0.0623103
0.0652523
-0.099819
0.0836978
-0.125734
0.0957
-0.141451
0.103466
-0.151263
0.109153
-0.158597
0.113854
-0.165232
0.11795
-0.171883
0.121846
-0.178901
0.12581
-0.186355
0.129889
-0.194116
0.133963
-0.202256
-0.210357
0.137209
0.00462895
-0.0036399
0.0224546
-0.0396925
0.0451818
-0.0850375
0.0634095
-0.118047
0.0751478
-0.137473
0.0821936
-0.148497
0.0867152
-0.155785
0.0900803
-0.161962
0.0929941
-0.168145
0.0958174
-0.174706
0.0985678
-0.181651
0.101123
-0.188911
0.103521
-0.196514
0.105748
-0.204483
-0.212937
0.108328
0.00686215
-0.0105021
0.0258543
-0.0586846
0.044158
-0.103341
0.0564431
-0.130332
0.0633405
-0.14437
0.0670675
-0.152224
0.0693505
-0.158068
0.0710887
-0.1637
0.0725922
-0.169649
0.0738752
-0.175989
0.0749671
-0.182743
0.0759882
-0.189932
0.0769967
-0.197522
0.0780853
-0.205571
-0.213739
0.0788871
0.00874661
-0.0192487
0.0259336
-0.0758715
0.0393858
-0.116793
0.0468561
-0.137802
0.0502421
-0.147756
0.0516356
-0.153617
0.0522165
-0.158649
0.0524162
-0.163899
0.0523506
-0.169583
0.0520999
-0.175738
0.0517211
-0.182364
0.0512124
-0.189423
0.0506264
-0.196936
0.0499098
-0.204854
0.0494067
-0.213236
-0.00145909
0.00385986
-0.00240077
-0.00483305
0.0137073
-0.0103333
-0.00976656
0.0217961
-0.0168626
-0.0156569
0.0281542
-0.0222639
-0.0218815
0.0344356
-0.028211
-0.0278914
0.0415213
-0.0355114
-0.0330813
0.0492795
-0.0440896
-0.0366736
0.0571253
-0.053533
-0.0377464
0.0642584
-0.0631855
-0.0353047
0.069667
-0.0721088
-0.0284323
0.0722246
-0.0790969
-0.016513
0.0707598
-0.0826791
0.000790617
0.0640507
-0.0813544
0.0237944
0.0507745
-0.0737782
0.0334098
0.0499857
-0.0596011
-0.000235052
0.00409491
-0.00131264
0.0147849
-0.00355307
0.0240365
-0.00640888
0.03101
-0.00895982
0.0369866
-0.0103561
0.0429175
-0.0098481
0.0487716
-0.00666078
0.0539379
4.18356e-05
0.0575558
0.0109809
0.0587279
0.0267184
0.0564871
0.0477547
0.0497235
0.0728285
0.0389769
0.10289
0.0207126
0.00214553
0.134155
0.000812575
0.00328234
0.00205771
0.0135398
0.00292484
0.0231694
0.00359068
0.0303442
0.00499995
0.0355773
0.00821768
0.0396998
0.0141285
0.0428607
0.0234486
0.0446178
0.0366308
0.0443735
0.0543448
0.0410139
0.0758512
0.0349807
0.102153
0.0234213
0.131146
0.00998442
0.163413
-0.0115546
-0.0348087
0.200367
0.00126832
0.00201401
0.00406431
0.0107438
0.0074985
0.0197352
0.0113772
0.0264655
0.016323
0.0306315
0.0233064
0.0327164
0.0331819
0.0329852
0.0466115
0.0311882
0.0635552
0.0274298
0.0847827
0.0197864
0.108794
0.0109695
0.137304
-0.00508851
0.169371
-0.0220832
0.204456
-0.0466395
-0.0767683
0.246416
0.00101074
0.00100328
0.00396712
0.00778739
0.00846417
0.0152381
0.0141998
0.0207299
0.0213954
0.0234359
0.0306475
0.0234644
0.0425652
0.0210675
0.0576407
0.0161128
0.0763009
0.00876965
0.0990523
-0.00296502
0.126557
-0.016535
0.159526
-0.0380577
0.197503
-0.0600605
0.241574
-0.0907104
-0.123246
0.288052
0.000189655
0.000813625
0.00195029
0.00602676
0.00563183
0.0115566
0.0111436
0.0152181
0.0185468
0.0160328
0.0283253
0.0136859
0.0413501
0.00804257
0.0586763
-0.00121341
0.0819701
-0.0145242
0.110951
-0.0319455
0.147837
-0.053421
0.189352
-0.079573
0.235153
-0.105861
0.281594
-0.137152
-0.161
0.319348
-0.000901526
0.00171515
-0.000998383
0.00612361
0.000814832
0.00974337
0.00504008
0.0109928
0.0124809
0.00859192
0.0246261
0.00154069
0.0430093
-0.0103406
0.0687257
-0.0269298
0.102024
-0.0478227
0.14121
-0.0711316
0.184958
-0.0971685
0.2272
-0.121815
0.267551
-0.146212
0.296914
-0.166514
-0.178173
0.314087
-0.00166591
-0.0029476
-0.00183699
0.00346791
0.0151558
0.0348263
0.063014
0.0983491
0.137772
0.177943
0.214026
0.242675
0.261739
0.268681
0.275586
0.100213
0.000573107
-0.0508006
0.140731
-0.154698
0.11418
0.163985
-0.295821
0.272567
0.184933
-0.364166
0.343218
0.17018
-0.336256
0.351008
0.123936
-0.33506
0.381304
0.128554
-0.2955
0.290883
0.177461
-0.0772552
0.0283479
0.226479
0.14922
-0.198237
0.254535
0.256523
-0.28458
0.247788
0.324662
-0.317915
0.228729
0.410925
-0.391867
0.232465
0.381751
-0.385487
0.254803
0.192499
-0.214837
0.270844
-0.0262304
0.0101893
0.279161
-0.263063
0.254746
0.285764
-0.451706
0.445103
0.28943
-0.51345
0.509784
0.295081
-0.333357
0.327706
0.299263
0.0731949
-0.0773774
0.303909
0.432709
-0.437354
0.311414
0.581284
-0.588789
0.311864
0.424622
-0.425073
0.293683
-0.0572818
0.0754629
0.280142
-0.579573
0.593114
0.289393
-0.48401
0.47476
0.286372
0.194767
-0.191746
0.264144
0.604477
-0.582249
0.233793
0.383227
-0.352876
0.219508
-0.121391
0.135676
0.23159
-0.334235
0.322153
0.246321
-0.0710852
0.0563544
0.243215
0.224878
-0.221772
0.225248
0.340263
-0.322296
0.205702
0.140655
-0.121109
0.193781
-0.0868992
0.0988199
0.202806
-0.378974
0.36995
-0.326742
0.312616
0.169813
-0.0350851
0.1991
-0.183985
0.199547
-0.296268
0.191256
-0.355875
0.176257
-0.321256
0.128135
-0.286939
0.11229
-0.279655
0.160182
-0.125147
0.220039
0.0893634
0.251512
0.22505
0.242412
0.333762
0.220966
0.432371
0.225204
0.377514
0.254101
0.163602
0.271785
-0.0439141
0.275114
-0.266393
0.276801
-0.453393
0.278882
-0.515531
0.286935
-0.341411
0.295944
0.0641856
0.303333
0.42532
0.311956
0.572661
0.313742
0.422836
0.29327
-0.0368096
0.274574
-0.560878
0.28621
-0.495646
0.290451
0.190526
0.271948
0.62298
0.240152
0.415022
0.222897
-0.104136
0.234057
-0.345395
0.249462
-0.0864898
0.246519
0.22782
0.228936
0.357846
0.210472
0.15912
0.197725
-0.0741527
0.205083
-0.386332
-0.340549
0.22389
-0.0586077
0.237499
-0.197594
0.228591
-0.28736
0.198658
-0.325942
0.178538
-0.301136
0.141226
-0.249627
0.113766
-0.252195
0.150254
-0.161636
0.213548
0.026069
0.253742
0.184856
0.25318
0.334325
0.229154
0.456396
0.225364
0.381304
0.252475
0.136491
0.270098
-0.0615374
0.268892
-0.265186
0.264989
-0.44949
0.264332
-0.514874
0.274516
-0.351595
0.288881
0.049821
0.299858
0.414342
0.308693
0.563826
0.311389
0.42014
0.290353
-0.0157734
0.266568
-0.537093
0.279732
-0.508809
0.292409
0.177849
0.278694
0.636695
0.245807
0.447909
0.225322
-0.0836508
0.23514
-0.355212
0.251455
-0.102805
0.249336
0.229939
0.232129
0.375053
0.214708
0.176541
0.201897
-0.0613414
0.207748
-0.392184
-0.353775
0.267382
-0.079574
0.263412
-0.193624
0.23966
-0.263608
0.199174
-0.285455
0.174301
-0.276263
0.150791
-0.226117
0.124568
-0.225973
0.15335
-0.190418
0.215857
-0.0364375
0.256835
0.143878
0.252093
0.339066
0.227453
0.481036
0.224844
0.383913
0.249204
0.112132
0.265868
-0.0782019
0.260665
-0.259983
0.25112
-0.439944
0.246884
-0.510638
0.259536
-0.364246
0.278788
0.0305684
0.291538
0.401593
0.299777
0.555587
0.303902
0.416015
0.284739
0.00338931
0.256777
-0.509131
0.270244
-0.522276
0.291564
0.156529
0.283417
0.644842
0.250138
0.481188
0.226579
-0.060091
0.234866
-0.3635
0.252337
-0.120276
0.251612
0.230665
0.234816
0.391849
0.218325
0.193032
0.20605
-0.0490666
0.210716
-0.39685
-0.366321
0.301948
-0.0934695
0.281645
-0.173321
0.242292
-0.224255
0.197744
-0.240908
0.167958
-0.246477
0.154227
-0.212385
0.131717
-0.203463
0.153191
-0.211892
0.215543
-0.0987894
0.257975
0.101446
0.265739
0.331302
0.249221
0.497555
0.238116
0.395018
0.248958
0.101289
0.258661
-0.0879052
0.249747
-0.251069
0.234528
-0.424725
0.225729
-0.501839
0.240094
-0.378612
0.266133
0.00452911
0.282624
0.385102
0.289697
0.548514
0.293727
0.411984
0.276341
0.0207757
0.245307
-0.478097
0.257939
-0.534909
0.288357
0.126111
0.286656
0.646544
0.253301
0.514543
0.226645
-0.0334347
0.23327
-0.370126
0.252122
-0.139128
0.25325
0.229537
0.237039
0.40806
0.221422
0.20865
0.210069
-0.0377136
0.213883
-0.400665
-0.378206
0.313024
-0.0871455
0.279607
-0.139904
0.235122
-0.17977
0.195589
-0.201375
0.16555
-0.216438
0.153593
-0.200429
0.134863
-0.184733
0.140017
-0.217046
0.201315
-0.160088
0.254692
0.0480693
0.27213
0.313864
0.259682
0.510002
0.242363
0.412337
0.246203
0.0974494
0.249753
-0.0914547
0.236935
-0.238251
0.21732
-0.40511
0.203335
-0.487854
0.218026
-0.393303
0.249494
-0.0269382
0.269132
0.365464
0.275887
0.541759
0.280483
0.407388
0.265231
0.036028
0.23277
-0.445635
0.243064
-0.545204
0.2816
0.0875752
0.287084
0.64106
0.254664
0.546963
0.225418
-0.00418883
0.230383
-0.375091
0.250759
-0.159504
0.254191
0.226105
0.238925
0.423325
0.224176
0.223399
0.213921
-0.0274583
0.217155
-0.403899
-0.389521
0.293644
-0.0667024
0.258273
-0.104533
0.219402
-0.1409
0.186263
-0.168235
0.161421
-0.191596
0.148776
-0.187784
0.133494
-0.169451
0.120748
-0.2043
0.165907
-0.205246
0.238659
-0.0246824
0.275083
0.27744
0.275313
0.509773
0.256757
0.430893
0.243084
0.111122
0.237259
-0.0856296
0.220345
-0.221337
0.198396
-0.383162
0.179806
-0.469263
0.192944
-0.406442
0.23261
-0.0666034
0.258529
0.339544
0.264494
0.535794
0.267538
0.404344
0.252536
0.0510294
0.219126
-0.412225
0.226731
-0.552808
0.273062
0.0412437
0.285974
0.628148
0.254637
0.5783
0.222837
0.0276119
0.226192
-0.378447
0.248261
-0.181572
0.254312
0.220054
0.240401
0.437236
0.226652
0.237148
0.217586
-0.0183918
0.220452
-0.406766
-0.400401
0.25798
-0.0490968
0.232725
-0.0792779
0.204723
-0.112897
0.175393
-0.138906
0.152521
-0.168723
0.140365
-0.175628
0.127413
-0.156499
0.107529
-0.184416
0.121564
-0.219282
0.188613
-0.0917315
0.258996
0.207057
0.281783
0.486985
0.259052
0.453625
0.240423
0.129751
0.227844
-0.0730503
0.205939
-0.199432
0.180357
-0.357579
0.157876
-0.446783
0.166775
-0.415341
0.208475
-0.108303
0.240904
0.307115
0.249485
0.527214
0.253609
0.40022
0.23966
0.0649779
0.20486
-0.377425
0.20915
-0.557098
0.260404
-0.0100104
0.281633
0.606919
0.252839
0.607094
0.21939
0.0610601
0.221182
-0.380239
0.244545
-0.204935
0.253594
0.211005
0.241636
0.449195
0.228972
0.249812
0.221034
-0.010454
0.223664
-0.409396
-0.411118
0.497883
-0.03843
-0.50855
0.485594
-0.0669888
0.466354
-0.0936572
0.440055
-0.112606
0.411603
-0.140272
0.383395
-0.14742
0.356229
-0.129332
0.322491
-0.150678
0.270592
-0.167384
0.246499
-0.0676386
0.252631
0.200925
0.27407
0.465547
0.346205
0.381489
0.421876
0.0540802
0.445512
-0.0966862
0.442755
-0.196676
0.427434
-0.342258
0.376789
-0.396138
0.326253
-0.364806
0.312752
-0.0948023
0.303425
0.316443
0.316558
0.514081
0.376065
0.340713
0.416578
0.0244654
0.395771
-0.356619
0.367065
-0.528392
0.382716
-0.0256621
0.392436
0.597199
0.375851
0.623679
0.361487
0.0754237
0.369665
-0.388417
0.383951
-0.21922
0.382016
0.21294
0.364488
0.466722
0.351575
0.262725
0.343407
-0.00228543
0.341688
-0.407677
-0.417918
0.520275
-0.0292574
-0.529447
0.505286
-0.0520002
0.484859
-0.0732301
0.461874
-0.0896215
0.430839
-0.109237
0.397836
-0.114416
0.371238
-0.102734
0.34997
-0.129409
0.29914
-0.116554
0.240358
-0.00885708
0.246464
0.194819
0.323785
0.388225
0.435526
0.269748
0.498428
-0.00882099
0.49872
-0.096979
0.479271
-0.177226
0.447065
-0.310052
0.377641
-0.326713
0.321795
-0.30896
0.311003
-0.0840103
0.306543
0.320903
0.334057
0.486567
0.414935
0.259834
0.456426
-0.0170257
0.421863
-0.322055
0.390931
-0.497459
0.409822
-0.0445529
0.426571
0.58045
0.412257
0.637994
0.402498
0.0851827
0.413041
-0.39896
0.42681
-0.232989
0.424699
0.215051
0.408587
0.482834
0.397275
0.274037
0.389527
0.0054624
0.384645
-0.402796
-0.421768
0.547861
-0.0230627
-0.554056
0.536696
-0.0408357
0.520961
-0.0574946
0.502187
-0.0708476
0.475149
-0.0821998
0.451428
-0.090695
0.423614
-0.0749201
0.384601
-0.0903967
0.341743
-0.0736953
0.301811
0.0310748
0.328824
0.167806
0.440231
0.276819
0.540826
0.169153
0.566308
-0.0343039
0.546059
-0.0767301
0.522983
-0.154149
0.484205
-0.271274
0.394239
-0.236747
0.3134
-0.228121
0.299894
-0.0705042
0.305279
0.315518
0.358491
0.433355
0.461513
0.156812
0.502498
-0.0580102
0.452286
-0.271844
0.41388
-0.459054
0.439459
-0.0701313
0.460638
0.55927
0.453304
0.645328
0.447548
0.090939
0.459953
-0.411366
0.474391
-0.247427
0.472888
0.216554
0.45956
0.496162
0.450607
0.28299
0.442629
0.0134405
0.433351
-0.393517
-0.421886
0.580159
-0.017672
-0.58555
0.57006
-0.0307367
0.553929
-0.041363
0.536672
-0.0535914
0.514248
-0.0597756
0.490843
-0.0672899
0.471476
-0.0555527
0.44067
-0.0595914
0.410155
-0.0431796
0.397974
0.0432558
0.449293
0.116487
0.548892
0.17722
0.608418
0.109627
0.612752
-0.0386376
0.58321
-0.0471884
0.545653
-0.116592
0.500908
-0.22653
0.411974
-0.147813
0.317909
-0.134055
0.296207
-0.0488031
0.326731
0.284995
0.408581
0.351505
0.516877
0.0485155
0.550477
-0.0916101
0.48026
-0.201626
0.430591
-0.409385
0.467137
-0.106678
0.49914
0.527268
0.500268
0.6442
0.500398
0.0908088
0.513371
-0.424339
0.527128
-0.261184
0.526431
0.21725
0.517263
0.50533
0.511755
0.288498
0.503306
0.0218901
0.488513
-0.378725
-0.417412
0.615832
-0.0121988
-0.621305
0.607241
-0.022146
0.595337
-0.0294587
0.581251
-0.0395061
0.563911
-0.0424352
0.54456
-0.0479393
0.528129
-0.0391217
0.504605
-0.0360673
0.485538
-0.0241124
0.491268
0.037526
0.539755
0.0679997
0.612075
0.1049
0.644398
0.0773048
0.641206
-0.0354457
0.624664
-0.0306463
0.593372
-0.0853007
0.550298
-0.183455
0.477701
-0.0752159
0.390656
-0.0470109
0.366589
-0.0247364
0.411704
0.23988
0.497837
0.265372
0.58069
-0.0343381
0.601333
-0.112253
0.520881
-0.121174
0.448474
-0.336977
0.484104
-0.142309
0.533213
0.47816
0.550993
0.62642
0.559461
0.0823402
0.570172
-0.43505
0.581818
-0.272829
0.583276
0.215791
0.581738
0.506869
0.581444
0.288792
0.571773
0.0315613
0.550206
-0.357158
-0.407496
0.657986
-0.00800477
-0.66218
0.651406
-0.0155657
0.641898
-0.0199511
0.629987
-0.0275954
0.616449
-0.0288968
0.600538
-0.0320287
0.58884
-0.0274233
0.573168
-0.0203959
0.563726
-0.0146703
0.576025
0.0252277
0.604593
0.0394311
0.65248
0.0570129
0.679913
0.049872
0.671105
-0.0266375
0.657536
-0.0170776
0.629704
-0.0574684
0.59256
-0.146312
0.549423
-0.0320786
0.496251
0.00616053
0.487498
-0.0159832
0.54484
0.182539
0.607908
0.202303
0.645693
-0.0721225
0.650872
-0.117432
0.576319
-0.0466208
0.476374
-0.237033
0.481215
-0.147149
0.547021
0.412354
0.605225
0.568216
0.630344
0.0572205
0.632854
-0.437559
0.639206
-0.279181
0.646048
0.20895
0.654695
0.498222
0.659521
0.283966
0.647829
0.0432532
0.618791
-0.32812
-0.391525
0.707071
-0.004596
-0.71048
0.701459
-0.00995332
0.694276
-0.0127679
0.684761
-0.0180811
0.675004
-0.0191394
0.663501
-0.0205257
0.654855
-0.018777
0.645993
-0.0115341
0.64037
-0.00904756
0.6513
0.0142982
0.668419
0.0223119
0.697942
0.0274903
0.715735
0.032079
0.710432
-0.0213346
0.709777
-0.0164222
0.684457
-0.0321492
0.64144
-0.103295
0.621159
-0.0117976
0.600401
0.026919
0.603341
-0.0189229
0.661917
0.123963
0.706438
0.157782
0.706173
-0.0718578
0.69948
-0.110739
0.64949
0.00336925
0.541984
-0.129527
0.506991
-0.112156
0.585617
0.333729
0.686532
0.4673
0.716744
0.0270084
0.696862
-0.417677
0.689091
-0.271411
0.703483
0.194558
0.72874
0.472966
0.742098
0.270608
0.728989
0.0563624
0.692949
-0.29208
-0.369576
0.762718
-0.00197004
-0.765344
0.758331
-0.00556641
0.753067
-0.00750357
0.746025
-0.0110392
0.738906
-0.01202
0.731033
-0.0126531
0.724364
-0.0121083
0.719942
-0.00711203
0.716413
-0.00551815
0.724646
0.00606525
0.734751
0.0122063
0.750971
0.0112708
0.766204
0.0168461
0.758516
-0.0136466
0.755779
-0.0136856
0.741635
-0.0180051
0.705501
-0.0671612
0.698991
-0.00528761
0.696985
0.0289258
0.692204
-0.0141426
0.739076
0.0770909
0.778608
0.11825
0.757363
-0.0506127
0.73908
-0.092456
0.721121
0.0213282
0.646397
-0.0548029
0.601602
-0.0673615
0.686624
0.248707
0.800801
0.353123
0.814405
0.0134046
0.759239
-0.362511
0.733821
-0.245992
0.761261
0.167117
0.80775
0.426476
0.829121
0.249237
0.813492
0.0719911
0.771381
-0.249969
-0.342419
0.82521
-7.33944e-05
-0.827107
0.822051
-0.00240718
0.818284
-0.00373691
0.813417
-0.00617127
0.808221
-0.00682479
0.803186
-0.00761812
0.798333
-0.00725536
0.796161
-0.00493914
0.794083
-0.00344066
0.798745
0.00140309
0.805382
0.00556951
0.813351
0.00330218
0.822779
0.00741787
0.81801
-0.00887743
0.816162
-0.0118384
0.807602
-0.00944432
0.779519
-0.039078
0.776039
-0.001808
0.781286
0.0236786
0.770607
-0.00346368
0.801346
0.0463517
0.840984
0.0786119
0.818942
-0.0285703
0.791326
-0.0648404
0.79128
0.0213741
0.754763
-0.0182858
0.725504
-0.038102
0.805609
0.168601
0.906784
0.251948
0.902609
0.0175798
0.816295
-0.276197
0.772276
-0.201974
0.812637
0.126757
0.878487
0.360626
0.90721
0.220514
0.892401
0.0868006
0.849137
-0.206705
-0.312842
0.895011
0.00133666
-0.896421
0.892888
-0.000284655
0.89026
-0.00110896
0.887032
-0.00294329
0.883479
-0.0032714
0.880242
-0.00438147
0.876957
-0.00397007
0.875554
-0.00353661
0.874427
-0.00231302
0.876721
-0.0008913
0.880602
0.00168915
0.884264
-0.000360137
0.889811
0.00187088
0.886638
-0.00570411
0.883352
-0.00855329
0.878359
-0.00445123
0.8603
-0.0210191
0.85694
0.00155285
0.863347
0.0172712
0.855517
0.00436623
0.871322
0.0305469
0.901146
0.0487876
0.885304
-0.0127277
0.859416
-0.0389533
0.866677
0.0141133
0.856259
-0.00786762
0.838867
-0.0207095
0.896633
0.110835
0.977472
0.171109
0.970421
0.0246303
0.873487
-0.179263
0.810276
-0.138763
0.850469
0.0865641
0.931328
0.279767
0.97324
0.178602
0.966889
0.0931516
0.928546
-0.168362
-0.283076
0.972457
0.00226184
-0.973382
0.971054
0.0011184
0.969321
0.000623393
0.967246
-0.000868153
0.964941
-0.00096592
0.962829
-0.00226951
0.9607
-0.00184108
0.959665
-0.00250139
0.958924
-0.00157253
0.959813
-0.00177984
0.961756
-0.000254309
0.9632
-0.00180392
0.965699
-0.00062813
0.96363
-0.00363501
0.961056
-0.0059799
0.957724
-0.00111869
0.9469
-0.0101952
0.943901
0.00455202
0.948037
0.0131354
0.943552
0.00885097
0.951762
0.0223362
0.971049
0.0295015
0.962344
-0.00402314
0.943432
-0.0200408
0.949383
0.00816233
0.949284
-0.00776937
0.938689
-0.0101143
0.974749
0.0747754
1.03514
0.110719
1.03138
0.0283917
0.945165
-0.0930496
0.877843
-0.071441
0.911842
0.0525652
0.997259
0.19435
1.04662
0.129239
1.047
0.0927726
1.01444
-0.135801
-0.254027
1.05776
0.00279522
-1.05829
1.05693
0.0019423
1.05587
0.00169045
1.05458
0.00041564
1.05315
0.00046566
1.05179
-0.000913691
1.05044
-0.000483762
1.04964
-0.00170123
1.04903
-0.000966522
1.04916
-0.00191339
1.0499
-0.000986009
1.05015
-0.00205814
1.0511
-0.00157838
1.04957
-0.00210729
1.04737
-0.00377468
1.04508
0.00116821
1.03876
-0.00387818
1.03655
0.00676964
1.03902
0.0106621
1.037
0.0108711
1.04124
0.018092
1.05187
0.0188723
1.04659
0.00126384
1.03618
-0.00963838
1.04102
0.00332892
1.04272
-0.00947181
1.03809
-0.00548267
1.06227
0.0505929
1.10171
0.0712768
1.09563
0.0344683
1.03247
-0.0298873
0.985275
-0.0242435
1.01689
0.0209532
1.08965
0.121588
1.12992
0.0889669
1.12972
0.09297
1.1018
-0.107874
-0.227015
1.15152
0.00304036
-1.15176
1.15109
0.00237107
1.1505
0.00228
1.14974
0.0011743
1.14888
0.00131941
1.14804
-6.64006e-05
1.14718
0.00037163
1.14655
-0.00107117
1.14603
-0.000448744
1.1458
-0.00168057
1.14587
-0.00105412
1.14561
-0.00180094
1.14564
-0.00161108
1.14442
-0.000885868
1.14281
-0.00215875
1.14122
0.00275706
1.13767
-0.000332791
1.13624
0.00820155
1.13737
0.00953005
1.13659
0.0116541
1.13882
0.0158664
1.1447
0.0129904
1.14181
0.00415436
1.13674
-0.00456717
1.14071
-0.000648181
1.14222
-0.0109748
1.14078
-0.00404634
1.15804
0.0333369
1.18297
0.0463382
1.17603
0.0414097
1.13368
0.0124675
1.1083
0.00113931
1.13551
-0.00625983
1.18875
0.0683498
1.2157
0.0620119
1.21559
0.0930847
1.19458
-0.0868684
-0.202947
1.25428
0.00309193
-1.25433
1.25412
0.00253105
1.25384
0.00255703
1.25346
0.00155998
1.25298
0.00179301
1.25248
0.000436288
1.25194
0.000910816
1.25148
-0.000608459
1.25105
-1.77074e-05
1.25069
-0.00132579
1.25047
-0.00083534
1.25001
-0.00133693
1.2497
-0.00129594
1.24876
5.12139e-05
1.24758
-0.000976695
1.24646
0.00387112
1.2445
0.00162963
1.24359
0.00910806
1.24403
0.00909215
1.24392
0.0117629
1.24517
0.0146155
1.24819
0.00997222
1.24682
0.00552701
1.24494
-0.00269051
1.24837
-0.00407574
1.24977
-0.0123779
1.25044
-0.00470941
1.2624
0.0213774
1.27663
0.0321083
1.27011
0.0479278
1.24453
0.0380436
1.23433
0.0113455
1.2544
-0.0263372
1.28885
0.0339038
1.30526
0.0456022
1.30788
0.0904623
1.29461
-0.0736026
-0.182232
1.36683
0.00300225
-1.36674
1.36685
0.00251086
1.36678
0.00262643
1.36664
0.00170602
1.36641
0.00201839
1.36615
0.000704039
1.36583
0.00122662
1.3655
-0.000281903
1.36519
0.00029832
1.36482
-0.000963795
1.36454
-0.000550025
1.36406
-0.000855071
1.36366
-0.000898608
1.36297
0.000743631
1.36213
-0.00014221
1.36144
0.00456774
1.36034
0.00272575
1.3599
0.00954591
1.36013
0.00886021
1.36027
0.0116251
1.36113
0.0137586
1.36293
0.00817632
1.36251
0.00594142
1.36228
-0.00246324
1.36512
-0.00691549
1.36621
-0.0134637
1.36738
-0.00588394
1.37553
0.0132353
1.38351
0.024122
1.37911
0.0523314
1.36578
0.0513756
1.36362
0.0134984
1.37575
-0.0384658
1.39601
0.0136478
1.40626
0.035347
1.41289
0.0838332
1.40469
-0.0653956
-0.16289
1.49003
0.00282681
-1.48986
1.49017
0.00237671
1.49023
0.00256306
1.49024
0.00169338
1.49019
0.00207826
1.49008
0.000808201
1.48992
0.00138332
1.48972
-7.77184e-05
1.48951
0.000508745
1.4892
-0.000655489
1.48896
-0.000310254
1.48854
-0.000431389
1.4882
-0.000561685
1.48772
0.00122584
1.48717
0.000402981
1.48683
0.00491363
1.48627
0.0032849
1.4862
0.00961657
1.48647
0.0085862
1.48682
0.0112729
1.48761
0.0129726
1.48892
0.00686188
1.48901
0.00585618
1.48961
-0.00306502
1.49195
-0.00925262
1.49253
-0.0140412
1.49388
-0.00723767
1.49947
0.00764645
1.50352
0.0200674
1.5009
0.0549519
1.49604
0.0562355
1.49877
0.0107741
1.50451
-0.0442055
1.51478
0.00337946
1.52116
0.028967
1.5306
0.0743853
1.52507
-0.059867
-0.143614
1.62496
0.00258803
-1.62472
1.62517
0.00217281
1.62532
0.00240936
1.62542
0.0015992
1.62546
0.00203324
1.62543
0.000838155
1.62537
0.00144616
1.62521
7.94018e-05
1.62505
0.000665274
1.62476
-0.000356664
1.62454
-9.51817e-05
1.62414
-3.14713e-05
1.62389
-0.000308493
1.62355
0.00156584
1.62326
0.000686888
1.62329
0.00488277
1.62316
0.00341698
1.6237
0.00907879
1.62429
0.00799781
1.62509
0.0104751
1.62623
0.0118329
1.62733
0.00575268
1.62768
0.00550754
1.62841
-0.00379513
1.62947
-0.010305
1.62885
-0.0134265
1.62997
-0.00835447
1.6334
0.00421244
1.63534
0.0181326
1.63657
0.0537197
1.63928
0.053524
1.64322
0.00683238
1.64204
-0.0430246
1.64583
-0.00041204
1.65195
0.0228467
1.66505
0.0612887
1.65739
-0.0522057
-0.121483
1.77274
0.00230599
-1.77246
1.77299
0.0019286
1.77319
0.00220265
1.77332
0.00146813
1.77342
0.00193344
1.77341
0.000849886
1.77338
0.00147615
1.77321
0.000252292
1.77305
0.000828353
1.77271
-2.08851e-05
1.77247
0.000144598
1.77204
0.000395929
1.77184
-0.000108384
1.77159
0.0018191
1.77154
0.00073847
1.77195
0.00446719
1.77219
0.00318587
1.77348
0.00778139
1.77444
0.00704025
1.77586
0.0090513
1.77764
0.0100551
1.77858
0.00481593
1.77923
0.00485229
1.77982
-0.00438226
1.77926
-0.00974764
1.77747
-0.0116283
1.77823
-0.00912186
1.7794
0.00304372
1.77993
0.0176045
1.78548
0.048174
1.7947
0.0442951
1.79803
0.00350809
1.78989
-0.0348862
1.78965
-0.000169434
1.79796
0.0145339
1.81376
0.0454942
1.80297
-0.041422
-0.0957022
1.93526
0.00192247
-1.93487
1.93551
0.00167658
1.93577
0.00193763
1.93579
0.00144714
1.93588
0.00185198
1.93561
0.00111728
1.93543
0.00165527
1.93489
0.000794379
1.93439
0.00132644
1.93369
0.000679858
1.93297
0.000867294
1.93232
0.00104137
1.93177
0.000444679
1.93159
0.00199239
1.93167
0.000665289
1.93278
0.0033519
1.93372
0.00224808
1.93668
0.00482336
1.93894
0.0047807
1.94216
0.005828
1.94606
0.00615614
1.94715
0.00372219
1.94827
0.00373626
1.94646
-0.00256785
1.94092
-0.00421549
1.93564
-0.00634492
1.93269
-0.00616804
1.92978
0.00595264
1.93303
0.0143467
1.9515
0.0297058
1.97199
0.0238039
1.9709
0.00460577
1.9513
-0.0152848
1.94737
0.00375946
1.95904
0.0028638
1.97794
0.02659
1.96046
-0.0239434
-0.0643454
2.11148
0.00140587
-2.11096
2.11182
0.00133407
2.11227
0.00149335
2.1124
0.00130868
2.11271
0.00154462
2.11259
0.00123792
2.11269
0.00155999
2.11233
0.00115091
2.11214
0.00151425
2.1117
0.00112182
2.11123
0.00133821
2.11098
0.0012941
2.11042
0.00100436
2.1107
0.0017114
2.11053
0.000838068
2.11174
0.00213639
2.11258
0.00141215
2.11499
0.00241242
2.11734
0.00243004
2.12022
0.00294958
2.1237
0.00267742
2.12488
0.00253437
2.12608
0.00254326
2.12319
0.000323091
2.11805
0.000916571
2.11245
-0.000746088
2.10717
-0.000881951
2.10624
0.00687706
2.11295
0.00764348
2.13102
0.0116361
2.14778
0.00703664
2.14692
0.00546672
2.1333
-0.00165717
2.12908
0.00797643
2.13196
-2.04999e-05
2.14421
0.0143394
2.13516
-0.0148853
-0.0423288
2.30305
0.000910709
-2.30256
2.30348
0.00090354
2.304
0.000977497
2.3044
0.000911037
2.30491
0.00103079
2.30525
0.000895829
2.30575
0.00106512
2.30602
0.000874956
2.30647
0.00106549
2.30672
0.000876487
2.30704
0.00101613
2.30739
0.000948916
2.30746
0.000929855
2.30804
0.00113231
2.30799
0.00089173
2.3087
0.00141777
2.30908
0.00103648
2.30978
0.00170805
2.31086
0.00135797
2.31195
0.00185379
2.31299
0.0016417
2.31398
0.00153921
2.31489
0.00164011
2.31428
0.000929108
2.31419
0.00101008
2.31265
0.000793153
2.31059
0.00117605
2.31363
0.00383363
2.31807
0.00320432
2.32328
0.00643203
2.32682
0.003492
2.32952
0.0027666
2.32897
-0.00110893
2.32947
0.00747671
2.32606
0.00339351
2.33152
0.00887883
2.3295
-0.0128701
-0.0290506
2.5144
0.000465542
-2.51395
2.51483
0.000474107
2.5153
0.000505047
2.51572
0.000492985
2.51621
0.000541261
2.5166
0.000503974
2.51709
0.000572987
2.51745
0.00051206
2.51793
0.000592771
2.51828
0.000524448
2.51871
0.00058782
2.5191
0.00055531
2.51948
0.000552333
2.52
0.000613345
2.52038
0.000510019
2.52111
0.000684208
2.52163
0.000515967
2.5226
0.000742274
2.52337
0.000586184
2.52442
0.00080124
2.52538
0.000681749
2.52611
0.00081374
2.5269
0.000847556
2.52705
0.000779696
2.52711
0.000954584
2.52686
0.00104275
2.52711
0.000922591
2.52896
0.00198582
2.53097
0.00119017
2.53534
0.00206742
2.53845
0.000378278
2.53963
0.00158218
2.538
0.000525403
2.541
0.00447865
2.5429
0.00149563
2.54817
0.00360261
2.54034
-0.00504206
-0.0129423
2.74581
-2.74535
2.74629
2.74679
2.74728
2.74783
2.74833
2.7489
2.74941
2.75001
2.75053
2.75112
2.75167
2.75223
2.75284
2.75335
2.75403
2.75455
2.75529
2.75588
2.75668
2.75736
2.75818
2.75902
2.7598
2.76076
2.7618
2.76272
2.76471
2.7659
2.76797
2.76834
2.76993
2.77045
2.77493
2.77643
2.78003
2.77499
0.43713
0.042255
-0.429978
0.446278
0.0697393
0.45373
0.100876
0.463874
0.127064
0.472628
0.157765
0.48428
0.18176
0.497704
0.210448
0.234306
0.46813
0.0359494
-0.461824
0.475634
0.0622346
0.483003
0.0935074
0.491194
0.118873
0.50038
0.14858
0.509018
0.173122
0.519523
0.199943
0.224382
0.502863
0.0305613
-0.497475
0.508384
0.0567131
0.514781
0.0871104
0.520985
0.112669
0.52812
0.141444
0.534836
0.166406
0.54348
0.191299
0.213806
0.540463
0.0259673
-0.535869
0.544572
0.052604
0.549733
0.0819502
0.554589
0.107812
0.560934
0.135099
0.568188
0.159152
0.576769
0.182718
0.205026
0.581914
0.0224281
-0.578375
0.585279
0.0492388
0.58992
0.0773093
0.594951
0.102782
0.60106
0.12899
0.607429
0.152783
0.613832
0.176315
0.197553
0.62798
0.0195404
-0.625092
0.631109
0.0461099
0.635206
0.0732121
0.63947
0.0985172
0.644074
0.124386
0.649094
0.147763
0.655065
0.170344
0.190438
0.678743
0.0173381
-0.676541
0.681294
0.0435591
0.684475
0.0700305
0.688073
0.0949198
0.692519
0.119941
0.697993
0.142289
0.704091
0.164246
0.184049
0.734608
0.0157026
-0.732972
0.736832
0.0413347
0.739905
0.0669583
0.743677
0.0911475
0.748385
0.115233
0.753506
0.137167
0.759185
0.158567
0.17789
0.796578
0.0143541
-0.79523
0.798689
0.0392244
0.801725
0.0639224
0.805369
0.087503
0.809826
0.110776
0.814766
0.132227
0.820681
0.152652
0.171464
0.864849
0.0132381
-0.863733
0.866808
0.0372659
0.869736
0.0609945
0.873369
0.0838701
0.878007
0.106138
0.883424
0.12681
0.889659
0.146417
0.164702
0.939992
0.012277
-0.939031
0.941935
0.0353223
0.944949
0.0579808
0.948863
0.0799565
0.953835
0.101165
0.959577
0.121069
0.966124
0.139869
0.157444
1.02267
0.0113856
-1.02178
1.02468
0.0333128
1.02783
0.0548303
1.032
0.0757859
1.03723
0.0959375
1.04334
0.114955
1.0504
0.132813
0.14955
1.11338
0.0105361
-1.11253
1.11547
0.0312278
1.11878
0.0515179
1.12325
0.071319
1.12887
0.0903151