/*--------------------------------*- C++ -*----------------------------------*\
| =========                 |                                                 |
| \\      /  F ield         | OpenFOAM: The Open Source CFD Toolbox           |
|  \\    /   O peration     | Version:  2512                                  |
|   \\  /    A nd           | Website:  www.openfoam.com                      |
|    \\/     M anipulation  |                                                 |
\*---------------------------------------------------------------------------*/
FoamFile
{
    version     2.0;
    format      ascii;
    arch        "LSB;label=32;scalar=64";
    class       volScalarField;
    location    "164.6";
    object      p;
}
// * * * * * * * * * * * * * * * * * * * * * * * * * * * * * * * * * * * * * //

dimensions      [0 2 -2 0 0 0 0];

internalField   nonuniform List<scalar> 
13248
(
-0.538762
-0.537848
-0.534844
-0.530435
-0.525406
-0.520505
-0.516444
-0.513507
-0.511384
-0.509223
-0.505862
-0.500163
-0.49131
-0.478986
-0.463364
-0.444931
-0.424269
-0.401911
-0.378285
-0.353773
-0.328407
-0.302741
-0.275029
-0.246384
-0.548184
-0.546651
-0.543562
-0.53946
-0.534824
-0.53004
-0.525271
-0.520319
-0.514652
-0.507584
-0.49849
-0.486984
-0.473002
-0.456758
-0.438619
-0.418975
-0.398161
-0.376453
-0.354064
-0.331161
-0.307891
-0.284344
-0.260383
-0.237054
-0.560305
-0.557749
-0.554234
-0.550038
-0.54533
-0.540009
-0.533676
-0.525795
-0.515929
-0.503885
-0.489726
-0.47371
-0.45619
-0.437514
-0.417967
-0.397763
-0.37706
-0.355992
-0.334662
-0.313225
-0.291686
-0.270326
-0.248834
-0.227387
-0.574788
-0.570972
-0.566729
-0.56205
-0.556671
-0.549934
-0.541004
-0.52935
-0.514995
-0.49839
-0.480159
-0.460883
-0.440995
-0.420771
-0.400368
-0.379876
-0.359355
-0.338857
-0.318457
-0.298205
-0.278193
-0.258562
-0.239101
-0.22043
-0.591688
-0.586464
-0.581303
-0.575739
-0.568919
-0.559664
-0.547058
-0.531033
-0.512285
-0.491798
-0.470455
-0.448862
-0.427363
-0.40611
-0.385154
-0.364505
-0.344166
-0.324152
-0.304483
-0.285207
-0.266367
-0.248017
-0.230065
-0.212698
-0.611203
-0.604497
-0.598247
-0.59127
-0.581986
-0.568958
-0.551744
-0.531084
-0.50829
-0.484595
-0.460857
-0.437546
-0.414857
-0.392833
-0.371455
-0.350686
-0.330497
-0.310868
-0.291798
-0.273291
-0.255365
-0.238043
-0.221268
-0.205251
-0.633401
-0.625171
-0.617569
-0.608417
-0.595412
-0.577419
-0.555002
-0.52977
-0.503383
-0.477033
-0.451383
-0.42671
-0.403074
-0.380435
-0.358725
-0.337872
-0.317817
-0.298515
-0.279931
-0.262043
-0.244839
-0.228292
-0.212394
-0.197172
-0.658007
-0.648224
-0.638843
-0.626473
-0.608422
-0.584566
-0.556757
-0.527244
-0.49771
-0.46911
-0.441851
-0.416027
-0.391586
-0.368426
-0.346437
-0.325519
-0.305588
-0.28657
-0.268406
-0.251046
-0.234445
-0.218573
-0.203416
-0.188897
-0.684283
-0.672931
-0.661161
-0.644314
-0.620059
-0.589893
-0.556859
-0.523471
-0.491183
-0.46063
-0.43197
-0.405143
-0.380008
-0.356411
-0.334207
-0.313266
-0.293475
-0.274737
-0.256967
-0.240089
-0.224038
-0.208761
-0.194213
-0.18023
-0.711038
-0.698081
-0.683097
-0.6605
-0.629249
-0.592759
-0.554884
-0.51805
-0.483344
-0.451071
-0.421177
-0.393474
-0.36775
-0.343802
-0.321449
-0.300531
-0.280912
-0.26247
-0.245101
-0.228706
-0.213204
-0.19853
-0.184593
-0.171201
-0.736654
-0.72202
-0.702798
-0.673341
-0.634712
-0.592166
-0.549915
-0.510044
-0.473223
-0.439457
-0.40851
-0.380088
-0.353912
-0.329733
-0.307334
-0.286528
-0.267151
-0.249063
-0.232138
-0.216264
-0.201352
-0.18732
-0.174039
-0.16134
-0.759228
-0.742793
-0.718247
-0.681056
-0.635021
-0.586858
-0.540738
-0.498255
-0.459656
-0.424675
-0.392914
-0.363988
-0.337552
-0.313313
-0.291018
-0.270452
-0.25143
-0.233793
-0.217393
-0.20211
-0.187857
-0.174554
-0.162059
-0.150271
-0.518124
-0.516104
-0.515221
-0.516974
-0.522284
-0.531379
-0.544223
-0.560704
-0.580581
-0.603379
-0.628309
-0.654272
-0.679903
-0.703648
-0.723837
-0.741167
-0.750342
-0.752274
-0.745667
-0.729355
-0.702566
-0.66507
-0.618586
-0.564624
-0.534386
-0.530993
-0.529857
-0.531738
-0.537425
-0.547176
-0.560931
-0.578535
-0.599711
-0.62395
-0.650437
-0.678048
-0.705423
-0.731077
-0.753527
-0.771384
-0.782941
-0.787085
-0.782445
-0.767482
-0.740806
-0.701351
-0.650713
-0.589825
-0.545202
-0.540589
-0.538912
-0.540403
-0.54573
-0.555204
-0.568757
-0.586181
-0.607156
-0.631155
-0.657376
-0.684733
-0.711933
-0.737603
-0.760494
-0.778184
-0.790319
-0.795363
-0.791663
-0.777252
-0.750305
-0.709156
-0.655547
-0.590129
-0.550568
-0.545057
-0.542638
-0.543185
-0.547331
-0.555518
-0.567735
-0.583757
-0.603231
-0.62563
-0.650178
-0.675841
-0.701367
-0.725375
-0.746418
-0.764125
-0.776124
-0.781015
-0.777013
-0.761785
-0.733323
-0.68992
-0.633918
-0.566343
-0.551254
-0.545331
-0.542101
-0.541256
-0.543483
-0.549452
-0.559322
-0.572928
-0.589932
-0.60982
-0.631866
-0.655119
-0.678457
-0.700723
-0.720613
-0.736885
-0.747853
-0.75171
-0.746266
-0.728872
-0.697703
-0.651643
-0.593952
-0.526247
-0.548535
-0.542761
-0.538832
-0.536396
-0.536242
-0.539325
-0.546093
-0.556566
-0.570497
-0.587426
-0.606685
-0.627408
-0.648598
-0.669108
-0.687586
-0.702408
-0.711777
-0.713393
-0.704822
-0.683525
-0.648624
-0.600226
-0.542635
-0.47778
-0.543864
-0.538747
-0.534385
-0.530478
-0.527903
-0.527888
-0.531233
-0.538257
-0.548906
-0.562829
-0.579424
-0.597885
-0.617238
-0.636131
-0.652895
-0.665595
-0.671972
-0.669424
-0.655807
-0.629439
-0.591032
-0.54207
-0.487287
-0.428395
-0.538589
-0.534481
-0.53002
-0.525022
-0.520424
-0.517641
-0.517807
-0.521583
-0.529178
-0.540398
-0.554702
-0.571285
-0.588818
-0.6056
-0.619591
-0.628418
-0.629631
-0.621032
-0.601495
-0.570835
-0.531257
-0.484793
-0.435685
-0.384471
-0.533856
-0.530893
-0.526612
-0.521012
-0.515073
-0.510291
-0.508036
-0.509263
-0.514432
-0.523482
-0.53584
-0.550318
-0.565241
-0.578502
-0.58769
-0.590437
-0.584802
-0.569736
-0.545481
-0.51325
-0.475761
-0.43457
-0.3928
-0.34935
-0.530666
-0.528765
-0.524819
-0.519073
-0.512555
-0.506743
-0.503105
-0.50275
-0.506243
-0.513452
-0.523534
-0.534955
-0.545671
-0.553367
-0.555811
-0.5513
-0.53896
-0.519056
-0.492744
-0.461806
-0.428339
-0.393239
-0.358639
-0.321954
-0.529981
-0.528857
-0.525295
-0.519772
-0.513372
-0.507441
-0.503376
-0.502205
-0.504329
-0.509384
-0.51621
-0.523029
-0.52776
-0.528421
-0.523535
-0.512428
-0.495287
-0.473086
-0.447031
-0.418592
-0.388799
-0.358486
-0.32923
-0.298147
-0.532586
-0.531808
-0.528606
-0.523559
-0.517753
-0.5123
-0.508282
-0.506438
-0.506859
-0.508864
-0.51112
-0.511948
-0.509725
-0.503265
-0.492058
-0.476284
-0.456618
-0.433953
-0.40906
-0.382769
-0.355301
-0.327668
-0.300231
-0.273025
-0.498821
-0.426917
-0.3658
-0.3201
-0.292493
-0.283831
-0.294797
-0.323123
-0.359626
-0.388758
-0.394787
-0.36824
-0.315121
-0.253611
-0.200867
-0.164701
-0.144584
-0.13824
-0.143485
-0.160342
-0.194173
-0.248903
-0.310879
-0.351592
-0.345779
-0.299345
-0.235097
-0.176438
-0.136571
-0.114992
-0.107652
-0.116565
-0.144352
-0.180861
-0.202901
-0.19205
-0.158201
-0.121904
-0.0969786
-0.0864991
-0.0922445
-0.109976
-0.123992
-0.11795
-0.103439
-0.0846286
-0.0697354
-0.0613163
-0.0591917
-0.0586193
-0.0541861
-0.0461247
-0.0415038
-0.0416186
-0.0432755
-0.0351747
-0.0267967
-0.0161427
-0.0100123
-0.00255975
-0.515803
-0.435293
-0.365108
-0.30986
-0.272591
-0.254546
-0.256112
-0.276096
-0.307532
-0.336358
-0.344975
-0.324527
-0.279834
-0.227395
-0.18282
-0.152494
-0.136741
-0.134327
-0.143438
-0.164591
-0.203819
-0.264385
-0.330988
-0.37462
-0.368525
-0.318219
-0.248571
-0.184254
-0.138989
-0.112507
-0.100198
-0.102946
-0.123306
-0.153276
-0.171713
-0.162648
-0.135171
-0.106997
-0.0897716
-0.0865855
-0.100135
-0.12567
-0.145281
-0.140671
-0.119215
-0.0940951
-0.0731462
-0.0588104
-0.0512108
-0.0475196
-0.0424888
-0.0381202
-0.0390637
-0.0459389
-0.0534612
-0.0458176
-0.0354414
-0.0176655
-0.0041592
0.000294107
-0.510852
-0.426087
-0.3522
-0.29142
-0.24694
-0.219556
-0.209968
-0.218803
-0.241657
-0.267583
-0.280859
-0.267816
-0.234118
-0.193025
-0.157536
-0.133501
-0.122529
-0.124233
-0.136971
-0.161508
-0.203992
-0.267345
-0.336469
-0.382988
-0.380022
-0.329172
-0.256394
-0.188126
-0.138783
-0.1082
-0.0913058
-0.0883102
-0.101618
-0.125299
-0.140819
-0.133667
-0.11212
-0.0912684
-0.0811774
-0.0853356
-0.10704
-0.140677
-0.166203
-0.161497
-0.134542
-0.102814
-0.0759946
-0.05629
-0.0435278
-0.0367759
-0.0309421
-0.030154
-0.036452
-0.0498982
-0.0631186
-0.0561181
-0.0438345
-0.0194161
0.00163055
0.00302154
-0.484946
-0.401571
-0.32987
-0.26873
-0.220801
-0.186975
-0.167546
-0.163419
-0.17427
-0.193035
-0.207028
-0.202587
-0.181046
-0.151961
-0.125848
-0.108342
-0.102148
-0.107666
-0.123293
-0.149552
-0.192348
-0.255341
-0.32589
-0.375439
-0.378301
-0.330938
-0.257788
-0.187701
-0.135905
-0.102377
-0.0818458
-0.0736634
-0.0805933
-0.098526
-0.111478
-0.106286
-0.0897091
-0.0750062
-0.0711423
-0.0822283
-0.111972
-0.153905
-0.185707
-0.181405
-0.149064
-0.110586
-0.0781699
-0.0537534
-0.0362868
-0.0265916
-0.0197049
-0.0222608
-0.0336206
-0.0533693
-0.0720807
-0.0658963
-0.0518622
-0.0214346
0.00728473
0.00561074
-0.446357
-0.369234
-0.303874
-0.245479
-0.197321
-0.160122
-0.133458
-0.118931
-0.117152
-0.125353
-0.135932
-0.137605
-0.125696
-0.107569
-0.0901863
-0.0788129
-0.076931
-0.0857271
-0.103585
-0.130308
-0.171101
-0.230554
-0.299658
-0.352726
-0.362857
-0.322843
-0.252965
-0.183411
-0.130649
-0.0953931
-0.0723599
-0.0600257
-0.0611895
-0.0739293
-0.0846548
-0.0813431
-0.0683949
-0.0584533
-0.0596964
-0.0767557
-0.114033
-0.164219
-0.202577
-0.199857
-0.162475
-0.11733
-0.0796565
-0.0512084
-0.0295892
-0.017144
-0.00892578
-0.0144348
-0.0305287
-0.0562447
-0.0801989
-0.0749932
-0.0594316
-0.0237483
0.0127319
0.00805854
-0.402973
-0.33505
-0.27864
-0.225353
-0.1786
-0.140338
-0.109613
-0.0869421
-0.0742664
-0.071534
-0.0749469
-0.078171
-0.0732937
-0.063895
-0.0536077
-0.0474801
-0.049305
-0.0608021
-0.0803324
-0.106677
-0.14387
-0.197085
-0.261458
-0.316854
-0.335482
-0.305506
-0.242298
-0.175742
-0.123475
-0.087555
-0.0630639
-0.0477984
-0.0441559
-0.0521542
-0.0609666
-0.060204
-0.0486704
-0.0420501
-0.0470692
-0.0690205
-0.112909
-0.170528
-0.215644
-0.215822
-0.174344
-0.122939
-0.0804481
-0.0486725
-0.023531
-0.00857959
0.00122051
-0.00671942
-0.0271575
-0.058402
-0.0873646
-0.0832643
-0.0664521
-0.0263598
0.0179029
0.0103551
-0.361896
-0.30398
-0.256446
-0.209214
-0.165322
-0.127393
-0.0950795
-0.0680099
-0.0472472
-0.0345504
-0.0295507
-0.0296407
-0.0280986
-0.0234653
-0.0185768
-0.0166207
-0.0214168
-0.0348396
-0.0552802
-0.080701
-0.113709
-0.159639
-0.217333
-0.272822
-0.300662
-0.281423
-0.226948
-0.165441
-0.115083
-0.0793877
-0.0542955
-0.0370514
-0.0296005
-0.0334465
-0.0404722
-0.0403272
-0.0308421
-0.0264074
-0.0339078
-0.0591771
-0.108059
-0.172346
-0.223997
-0.232498
-0.184281
-0.127376
-0.0805843
-0.0461417
-0.0181737
-0.00101439
0.0105782
0.00085942
-0.0235149
-0.0598053
-0.0935245
-0.0906088
-0.0728382
-0.0292108
0.0227078
0.0124839
-0.327712
-0.279458
-0.23946
-0.19777
-0.15723
-0.120405
-0.087641
-0.0588443
-0.0340803
-0.0141791
-0.000954158
0.00537089
0.00775283
0.0110561
0.0120855
0.0113064
0.00456792
-0.00987989
-0.0303248
-0.054311
-0.0832932
-0.121962
-0.17155
-0.225073
-0.261848
-0.251461
-0.207586
-0.153002
-0.105896
-0.0712683
-0.046273
-0.0279541
-0.0175785
-0.0178595
-0.0231909
-0.0235145
-0.0155283
-0.0121995
-0.0207075
-0.0477796
-0.0999188
-0.169016
-0.22645
-0.23797
-0.191344
-0.130569
-0.08011
-0.0435896
-0.0135163
0.0054787
0.0189848
0.00821211
-0.0196369
-0.0603885
-0.0986233
-0.0969477
-0.0785061
-0.0321978
0.0270347
0.0144265
-0.301483
-0.261249
-0.227231
-0.190322
-0.153408
-0.118658
-0.0862951
-0.0566512
-0.0301545
-0.00687276
0.0125724
0.0262282
0.0333725
0.0380273
0.0364321
0.0343505
0.0270532
0.0127794
-0.00674893
-0.0289861
-0.0545094
-0.0867908
-0.12843
-0.177253
-0.216321
-0.219129
-0.186229
-0.139215
-0.0962232
-0.0633517
-0.0390199
-0.0204335
-0.00803943
-0.00528044
-0.00894238
-0.00992309
-0.00318635
8.92996e-05
-0.00805833
-0.0352297
-0.0882314
-0.160862
-0.22369
-0.238713
-0.19568
-0.132493
-0.0790476
-0.0410047
-0.00951777
0.0108759
0.0263278
0.0153741
-0.0155589
-0.06025
-0.102687
-0.102507
-0.0833791
-0.035247
0.0307495
0.0161674
-0.281862
-0.248477
-0.218969
-0.185889
-0.152411
-0.120193
-0.0891572
-0.0597544
-0.0326278
-0.00806501
0.0136972
0.0317935
0.044127
0.0482578
0.0527816
0.050969
0.044044
0.0310916
0.0136701
-0.0062677
-0.0288145
-0.0557715
-0.0892202
-0.13171
-0.172049
-0.183159
-0.161739
-0.123739
-0.086186
-0.0558744
-0.0327144
-0.0145584
-0.00103091
0.00429402
0.00243787
0.000811469
0.00542971
0.0101286
0.0033121
-0.0226339
-0.0748217
-0.147706
-0.214664
-0.234011
-0.196167
-0.133021
-0.0775137
-0.0385453
-0.00630601
0.0151588
0.03238
0.0221557
-0.0113817
-0.0592597
-0.105643
-0.108764
-0.0873611
-0.0383119
0.03369
0.0176936
-0.266117
-0.239905
-0.213844
-0.183488
-0.152558
-0.122286
-0.0928076
-0.0641652
-0.0367769
-0.0114424
0.0114924
0.0315426
0.0476041
0.0585092
0.0652557
0.0645476
0.0588136
0.0472262
0.0320296
0.0144901
-0.00568813
-0.0286802
-0.0563584
-0.0937537
-0.132793
-0.153293
-0.140689
-0.110286
-0.0778341
-0.0501165
-0.0280901
-0.0105523
0.00351232
0.0110048
0.0110909
0.00906755
0.0126068
0.0177616
0.0135355
-0.00969331
-0.059566
-0.131648
-0.202082
-0.22594
-0.194369
-0.132833
-0.0761291
-0.0364844
-0.00390891
0.0181316
0.041074
0.0288156
-0.00706476
-0.0577097
-0.107593
-0.111054
-0.0903456
-0.0411055
0.0357204
0.0189905
-0.252136
-0.235672
-0.213885
-0.187021
-0.15959
-0.132305
-0.104995
-0.077727
-0.0508445
-0.0250823
-0.00102885
0.0206089
0.0390337
0.0538603
0.0641746
0.0698528
0.0677094
0.0596348
0.0478171
0.0332798
0.014639
-0.00603348
-0.0282839
-0.0587074
-0.0932759
-0.114032
-0.111315
-0.0914134
-0.0662877
-0.0426654
-0.0225058
-0.00600619
0.00780738
0.0165498
0.0182272
0.0160148
0.0180434
0.0224796
0.0203977
0.00102694
-0.044262
-0.112863
-0.183237
-0.211831
-0.18653
-0.129785
-0.0736392
-0.0336915
-0.00100515
0.0205295
0.0442552
0.0345884
-0.00279621
-0.0552522
-0.108158
-0.111929
-0.0921307
-0.0428727
0.0369626
0.020056
-0.224624
-0.220771
-0.199942
-0.172561
-0.145248
-0.119288
-0.0940347
-0.0688362
-0.0438026
-0.0196513
0.00320169
0.0244123
0.042894
0.0580273
0.0681625
0.0748207
0.0761325
0.0706979
0.0610914
0.0501905
0.0365647
0.0189243
-0.00549979
-0.0403149
-0.076791
-0.096556
-0.0900709
-0.0719768
-0.0505677
-0.0304985
-0.0130586
0.0014003
0.0136563
0.0220152
0.0243897
0.0221767
0.0229004
0.0292263
0.0292984
0.0138771
-0.0278132
-0.0936927
-0.165256
-0.19939
-0.178511
-0.122264
-0.0669468
-0.0283648
0.00307567
0.0237776
0.0481076
0.0404579
0.00181681
-0.0522067
-0.108202
-0.112435
-0.0924837
-0.0435801
0.0375615
0.0208672
-0.198489
-0.198121
-0.179674
-0.153748
-0.128158
-0.10463
-0.0822655
-0.0599271
-0.0374199
-0.0153919
0.00546925
0.0247604
0.0418297
0.0561576
0.0666917
0.0744279
0.0773099
0.0741227
0.0673098
0.0601178
0.0509847
0.0352559
0.00877037
-0.0269821
-0.0590031
-0.0718453
-0.0660969
-0.0517311
-0.0351566
-0.0192842
-0.00470551
0.00783598
0.0184489
0.0258307
0.0282809
0.0262282
0.0260742
0.0318197
0.0336063
0.0211348
-0.0164867
-0.0781672
-0.148512
-0.184249
-0.164926
-0.112433
-0.0595426
-0.0229925
0.00686393
0.0263181
0.0506056
0.0441372
0.00494392
-0.049763
-0.107658
-0.111618
-0.0914167
-0.04382
0.0373983
0.0213208
-0.176519
-0.176601
-0.161449
-0.138756
-0.115685
-0.0943222
-0.0741091
-0.0539441
-0.0334773
-0.0132374
0.00608647
0.0241005
0.0402841
0.0546025
0.064456
0.0721919
0.0759209
0.074472
0.0698755
0.0651674
0.058381
0.0434404
0.018159
-0.0125925
-0.0375142
-0.0476207
-0.044655
-0.0347666
-0.0222716
-0.00966139
0.0024929
0.0132556
0.0224832
0.0290786
0.0315894
0.0295583
0.0285259
0.0337248
0.0360841
0.0247978
-0.0100587
-0.0667399
-0.130822
-0.164558
-0.14858
-0.101305
-0.0519226
-0.0178611
0.0103232
0.0282646
0.0524211
0.046546
0.00658874
-0.0480189
-0.106201
-0.10981
-0.0891502
-0.043539
0.0364355
0.021474
-0.155666
-0.156249
-0.144022
-0.1244
-0.103687
-0.084233
-0.0658988
-0.0477857
-0.0294528
-0.0111689
0.00645898
0.0229419
0.0376518
0.0495657
0.0605397
0.0685637
0.0730607
0.0732525
0.0705546
0.0672818
0.061624
0.0487446
0.0279173
0.00323948
-0.0167031
-0.0258895
-0.0255415
-0.0192489
-0.0102017
-0.000661017
0.00912657
0.0181869
0.0259887
0.0315134
0.0338949
0.0319517
0.0302342
0.0345124
0.0374305
0.0271696
-0.00520066
-0.0547307
-0.110192
-0.141926
-0.129498
-0.0883352
-0.0437154
-0.0127001
0.0136295
0.0296782
0.0531633
0.0479895
0.00757999
-0.0459538
-0.103518
-0.1067
-0.0855457
-0.042453
0.0346639
0.0213088
-0.136268
-0.13767
-0.12781
-0.110968
-0.0926289
-0.0751751
-0.0587447
-0.0426237
-0.0263221
-0.00994198
0.0060023
0.0210024
0.0345416
0.0461513
0.0562539
0.0641479
0.0691524
0.0706889
0.0695938
0.0673738
0.0628534
0.0528993
0.0366879
0.0173302
0.00126416
-0.00743684
-0.00931865
-0.0061876
-2.77492e-05
0.00705623
0.0148012
0.0223348
0.0289512
0.0334591
0.035534
0.0336198
0.031314
0.0344935
0.0374376
0.0285274
0.000129451
-0.0405211
-0.0877851
-0.116989
-0.108288
-0.0740568
-0.0352845
-0.0078048
0.0165637
0.0305885
0.0526168
0.048475
0.00846432
-0.0431175
-0.0994247
-0.102156
-0.0805081
-0.0404939
0.0321077
0.0207822
-0.119147
-0.120911
-0.112876
-0.0984742
-0.0824069
-0.0669254
-0.0523089
-0.0380147
-0.0235857
-0.00902409
0.00527897
0.0188636
0.0312877
0.0421992
0.0516007
0.0592002
0.064475
0.066999
0.0671805
0.0658561
0.0624004
0.0549151
0.0426489
0.0278744
0.0149405
0.00678954
0.00359457
0.00462757
0.00869825
0.0138412
0.0197894
0.0258875
0.031407
0.0349305
0.0365568
0.0347322
0.0319606
0.0340111
0.0363718
0.0292281
0.0058845
-0.0259209
-0.0650599
-0.0910204
-0.0858784
-0.0589132
-0.0267064
-0.00314537
0.019065
0.031052
0.0506183
0.0479096
0.00923119
-0.0395214
-0.0937366
-0.0961333
-0.0740472
-0.0375437
0.0288885
0.0198562
-0.103714
-0.105571
-0.0990751
-0.0868622
-0.0729262
-0.059335
-0.0464461
-0.0338609
-0.0211702
-0.00831156
0.00442594
0.0166364
0.0279282
0.0379931
0.0467228
0.0539307
0.0592605
0.0623854
0.0634467
0.0628677
0.060367
0.0548615
0.0458152
0.0347347
0.0245656
0.0173515
0.0137173
0.0134039
0.0158577
0.0194818
0.0239349
0.0287446
0.0333379
0.0360824
0.0371655
0.0355423
0.0325377
0.033519
0.0346265
0.0290684
0.0107607
-0.0123812
-0.04314
-0.0653179
-0.0633866
-0.0436334
-0.0182404
0.00118735
0.0210366
0.0311951
0.0471247
0.0461425
0.00966157
-0.0350774
-0.0862076
-0.0884791
-0.066266
-0.0335977
0.0251909
0.0185077
-0.0895482
-0.0915717
-0.0864179
-0.0761474
-0.0641569
-0.0523271
-0.0410594
-0.0300572
-0.0189589
-0.00767803
0.0035689
0.0144463
0.0246153
0.0338004
0.0418425
0.0485997
0.0538255
0.0572677
0.0589356
0.0590157
0.0573658
0.0534081
0.0468473
0.0387041
0.0309661
0.0248279
0.0212731
0.0202408
0.0215862
0.0241004
0.0273747
0.0310454
0.0347727
0.0369273
0.0375072
0.0361515
0.0332459
0.0334133
0.032999
0.0281275
0.0145891
-0.000173284
-0.0228664
-0.0411886
-0.041894
-0.0290171
-0.0100853
0.00522132
0.0225133
0.0311824
0.0423376
0.0431277
0.00980176
-0.0294565
-0.076554
-0.0791076
-0.0574179
-0.0287379
0.0212758
0.0167513
-0.0767876
-0.07892
-0.0748771
-0.0662917
-0.0560442
-0.0458236
-0.0360461
-0.026494
-0.0168569
-0.00703656
0.00281398
0.0124203
0.0214932
0.0297911
0.0371481
0.0434279
0.0484486
0.0520183
0.0540834
0.054694
0.0537675
0.0510492
0.0464262
0.0405875
0.0349674
0.0298708
0.0267319
0.025441
0.0260447
0.0277263
0.0300943
0.0328195
0.0357598
0.0374622
0.0377008
0.036619
0.0340678
0.0337398
0.0323854
0.0270988
0.0179956
0.0105269
-0.00513518
-0.0200047
-0.0231066
-0.015865
-0.00250796
0.00894545
0.0235994
0.031131
0.0370067
0.0393142
0.0101652
-0.0222259
-0.0645908
-0.0680416
-0.0479159
-0.0231891
0.0174352
0.0146571
-0.0653421
-0.0674624
-0.064336
-0.0572167
-0.0485205
-0.0397493
-0.0313246
-0.0230977
-0.0147987
-0.00631567
0.00224781
0.0106638
0.0186869
0.0261121
0.0327824
0.0385648
0.0433132
0.046876
0.0491752
0.0502039
0.0499122
0.0482102
0.0450744
0.0409422
0.0365719
0.0329862
0.030458
0.0291911
0.0293595
0.0304577
0.0321658
0.0341467
0.0364007
0.037725
0.0377882
0.0369716
0.0349163
0.0343751
0.0329811
0.0275944
0.0220383
0.0195796
0.00904976
-0.00314872
-0.00779483
-0.00470285
0.00427078
0.0123634
0.02444
0.0309869
0.0325795
0.0356153
0.011662
-0.0130772
-0.0504271
-0.0555301
-0.0382866
-0.0173065
0.0139639
0.0123657
-0.0549722
-0.0570681
-0.0547156
-0.0488605
-0.0415282
-0.0340546
-0.0268555
-0.0198279
-0.0127333
-0.00545713
0.00193091
0.00924321
0.016275
0.0228592
0.028851
0.0341253
0.0385606
0.0420339
0.044459
0.045812
0.0460532
0.0451748
0.0432024
0.0404237
0.0373403
0.0347526
0.032828
0.0317539
0.0317121
0.0324126
0.0336447
0.0350577
0.03676
0.0377744
0.0377702
0.0372242
0.0356893
0.0351878
0.0343918
0.0306209
0.027598
0.0270549
0.0192254
0.00895358
0.00387599
0.00438195
0.0100945
0.0154669
0.0251121
0.0306379
0.0304132
0.0330363
0.0152454
-0.0022778
-0.0348513
-0.0422587
-0.0292214
-0.0115585
0.0111376
0.0100845
-0.0456187
-0.0476717
-0.0459485
-0.0411704
-0.0350343
-0.0287159
-0.0226094
-0.0166462
-0.0106219
-0.00442719
0.00189629
0.00820006
0.0143068
0.0200999
0.0254355
0.0302057
0.0343025
0.037628
0.040097
0.0416847
0.0423553
0.0421326
0.0410639
0.0393553
0.0373497
0.035554
0.0341705
0.0333495
0.0332455
0.033695
0.0346033
0.0356057
0.0368828
0.0376737
0.0376498
0.0373655
0.0363308
0.0359943
0.0360244
0.0346139
0.0334474
0.032759
0.0260534
0.0173012
0.0125228
0.0115775
0.0148929
0.0182563
0.0256356
0.0301809
0.0306835
0.0324104
0.0210454
0.00890115
-0.0194525
-0.0292445
-0.021099
-0.00646387
0.00917919
0.00807708
-0.0372267
-0.0391843
-0.0379639
-0.034102
-0.0290044
-0.0236965
-0.0185501
-0.0135261
-0.00845095
-0.00321862
0.00215239
0.00754945
0.0128333
0.0178764
0.022582
0.0268556
0.0306004
0.0337369
0.0361864
0.0379253
0.0389197
0.0392077
0.0388366
0.0379504
0.0367787
0.0356407
0.0347315
0.0341784
0.0341115
0.0344228
0.0351186
0.0358459
0.0367996
0.0374476
0.0374442
0.0373689
0.0367974
0.0366576
0.0373076
0.03753
0.0374753
0.0362161
0.0303082
0.0229774
0.0187966
0.0171018
0.0186847
0.0206829
0.0260384
0.0298344
0.0322359
0.0329468
0.027027
0.0181008
-0.00630398
-0.0176421
-0.0141114
-0.00243538
0.00810941
0.0065819
-0.0296676
-0.03151
-0.0306926
-0.0276027
-0.0234004
-0.0189747
-0.0146691
-0.010467
-0.00622259
-0.00183656
0.0026884
0.00726846
0.0118041
0.0161728
0.0202926
0.0240891
0.0274782
0.0303984
0.032776
0.0345923
0.035816
0.0364816
0.0366282
0.036367
0.0358221
0.0352213
0.0347196
0.0344222
0.0344451
0.0346995
0.0352618
0.0358239
0.0365437
0.0370992
0.0371558
0.0372155
0.0370311
0.0370517
0.0377764
0.0386938
0.0390443
0.0376351
0.0326666
0.0266947
0.0231534
0.0211509
0.0215782
0.0226736
0.0264281
0.0297424
0.033258
0.0323943
0.0308555
0.0236784
0.00307978
-0.00856151
-0.00822899
0.000405309
0.00770716
0.00567901
-0.0228524
-0.0245818
-0.0240866
-0.0216438
-0.018207
-0.0145405
-0.0109604
-0.00746887
-0.00394491
-0.000295351
0.0034824
0.00730816
0.0112002
0.0149649
0.0185466
0.0218918
0.0249299
0.0276146
0.0298802
0.0317107
0.0330751
0.0340034
0.0345209
0.0347168
0.0346374
0.0344598
0.0342987
0.0342299
0.0343629
0.0346198
0.0351035
0.0355767
0.0361419
0.0366287
0.0367685
0.0369031
0.0369901
0.0371375
0.037744
0.0387258
0.0390203
0.0377197
0.0337297
0.0289673
0.0259988
0.0239785
0.0237193
0.0242
0.0268813
0.0297822
0.03303
0.0317787
0.0317871
0.0256108
0.00861319
-0.00212517
-0.00337584
0.00227743
0.00747019
0.0051253
-0.0167516
-0.0183518
-0.0180969
-0.0161834
-0.0133919
-0.0103744
-0.00741792
-0.00453676
-0.00162891
0.00139555
0.00455794
0.00782792
0.0110443
0.0142315
0.0173098
0.0202285
0.0229259
0.0253643
0.0274867
0.0292786
0.0307084
0.0317995
0.0325621
0.0330452
0.0333313
0.0334832
0.0335979
0.0337265
0.0339699
0.034264
0.0347075
0.0351382
0.0356123
0.0360434
0.0362627
0.036438
0.036676
0.0369232
0.037326
0.0380998
0.0381957
0.0370604
0.0339607
0.0302226
0.0277308
0.025857
0.0252438
0.0253068
0.0273192
0.0297336
0.0319717
0.0310901
0.0311713
0.0257015
0.0117684
0.00225283
0.000416648
0.00352951
0.00697764
0.0044848
-0.0112906
-0.0127411
-0.012656
-0.0111817
-0.00893582
-0.00647422
-0.00405319
-0.0016947
0.000683064
0.0031566
0.00575973
0.0084597
0.0111813
0.0138847
0.0165173
0.0190456
0.0214185
0.0236071
0.0255636
0.0272746
0.0287102
0.0298854
0.0308043
0.0314967
0.0320138
0.0324001
0.032724
0.0330137
0.0333544
0.0337008
0.0341302
0.0345432
0.0349691
0.0353559
0.0356273
0.0358287
0.0361332
0.0363147
0.0366121
0.0371251
0.0370345
0.0360497
0.033682
0.0307828
0.0286785
0.0269954
0.0262735
0.026065
0.0275646
0.0293786
0.0306102
0.0301466
0.0297785
0.024994
0.0136464
0.00525799
0.00315459
0.00449428
0.00625663
0.00371065
-0.00642419
-0.00775229
-0.00780731
-0.00665982
-0.00485112
-0.00284782
-0.000875177
0.00104329
0.00297632
0.00499738
0.00712063
0.00934011
0.011606
0.0138776
0.0161119
0.0182834
0.0203517
0.0222937
0.0240698
0.0256674
0.0270611
0.0282558
0.0292515
0.0300723
0.0307413
0.0312872
0.0317591
0.032172
0.0325912
0.0329894
0.03342
0.0338271
0.0342274
0.0345821
0.0348733
0.0350775
0.0352851
0.0355479
0.0357174
0.03599
0.0357707
0.0349117
0.0331015
0.0308689
0.0290915
0.0276388
0.0269007
0.0265146
0.0275011
0.0287191
0.0291925
0.0288606
0.0279768
0.0238743
0.0147435
0.00738207
0.00504403
0.00518996
0.00549431
0.00295531
-0.00204578
-0.00323835
-0.00338689
-0.00253544
-0.00110597
0.000507139
0.00210309
0.00365246
0.00521095
0.00684184
0.00856989
0.0103874
0.0122586
0.0141516
0.016032
0.0178806
0.0196657
0.0213689
0.0229583
0.0244214
0.0257354
0.0268979
0.0279205
0.0288006
0.0295552
0.0301987
0.0307661
0.031265
0.031741
0.032181
0.0326182
0.0330235
0.0334087
0.0337426
0.034034
0.0342479
0.0344421
0.0346476
0.0347165
0.0348031
0.0345084
0.0337563
0.0323536
0.0306312
0.0291398
0.0278834
0.0271775
0.0266788
0.0271509
0.0278339
0.0277979
0.0269894
0.0260265
0.0225683
0.0152818
0.00887839
0.00634154
0.00566869
0.00487026
0.0023403
0.00186164
0.000791713
0.000576931
0.00120034
0.00232161
0.00360953
0.00488835
0.0061279
0.00737325
0.00868001
0.0100732
0.0115498
0.0130829
0.0146477
0.0162165
0.0177754
0.0193003
0.0207761
0.0221779
0.0234942
0.0247072
0.0258164
0.026808
0.0276944
0.0284814
0.0291729
0.0297916
0.0303419
0.0308524
0.0313191
0.0317613
0.0321638
0.0325367
0.0328553
0.0331344
0.0333473
0.0335106
0.0336588
0.0336597
0.0336204
0.0332893
0.0326293
0.0315218
0.0301746
0.0289292
0.0278178
0.0271251
0.02658
0.0266045
0.0268489
0.0264949
0.02546
0.0241769
0.0212273
0.0154188
0.00988818
0.00722299
0.0059852
0.00446234
0.00190453
0.00532253
0.00438027
0.00413371
0.00458109
0.00544964
0.00646586
0.00747932
0.00846058
0.0094454
0.010482
0.0115947
0.0127837
0.0140289
0.0153107
0.0166076
0.0179086
0.0191971
0.0204607
0.0216793
0.0228406
0.0239277
0.0249535
0.0258942
0.0267528
0.0275327
0.0282337
0.0288683
0.0294393
0.0299632
0.0304398
0.0308802
0.0312757
0.0316343
0.0319383
0.0321982
0.0323985
0.0325309
0.032627
0.032584
0.0324679
0.0321277
0.0315449
0.0306517
0.029573
0.0285284
0.0275376
0.0268495
0.0262657
0.0259472
0.0258197
0.025251
0.0240283
0.0225134
0.0199377
0.0152835
0.010519
0.0077965
0.00618214
0.00421473
0.00163044
0.0084072
0.00758428
0.00731931
0.00762534
0.00828703
0.00907947
0.00987386
0.0106417
0.0114113
0.0122239
0.0131029
0.0140506
0.0150517
0.0160909
0.017152
0.0182265
0.0193021
0.0203702
0.0214155
0.0224275
0.0233961
0.0243109
0.0251714
0.0259733
0.0267153
0.0273951
0.0280174
0.0285833
0.0291014
0.0295722
0.0300014
0.0303835
0.0307238
0.0310107
0.0312477
0.0314274
0.031532
0.0315857
0.0315156
0.0313569
0.0310235
0.0305046
0.0297666
0.0288786
0.0279852
0.0270994
0.0263895
0.0257652
0.025219
0.0247846
0.0240528
0.0227263
0.0210633
0.0187419
0.014971
0.0108602
0.00813928
0.00629168
0.00407664
0.00147113
0.0111444
0.0104263
0.0101558
0.010354
0.01085
0.0114595
0.0120733
0.0126654
0.013258
0.0138861
0.014571
0.0153168
0.0161122
0.016945
0.017803
0.0186796
0.0195657
0.0204556
0.0213377
0.0222029
0.0230412
0.0238482
0.0246173
0.0253451
0.0260285
0.0266642
0.0272522
0.0277924
0.0282877
0.0287386
0.0291469
0.0295086
0.0298254
0.0300907
0.0303023
0.0304578
0.0305385
0.0305588
0.0304718
0.0302917
0.0299727
0.0295059
0.0288778
0.0281271
0.0273398
0.0265373
0.0258074
0.0251343
0.0244479
0.023778
0.0229078
0.021548
0.0198154
0.0176581
0.0145463
0.0109879
0.00831198
0.00632906
0.00399723
0.00138281
0.0135588
0.0129402
0.0126767
0.0127929
0.0131552
0.0136145
0.0140799
0.0145279
0.0149757
0.0154525
0.0159774
0.0165551
0.0171779
0.0178359
0.0185196
0.0192248
0.0199448
0.0206748
0.021407
0.0221352
0.0228527
0.0235431
0.0242121
0.0248547
0.0254658
0.0260418
0.0265796
0.0270782
0.0275372
0.027956
0.0283339
0.0286676
0.0289563
0.0291952
0.0293795
0.0295093
0.0295687
0.0295629
0.0294642
0.0292746
0.0289703
0.0285461
0.0279941
0.0273402
0.0266272
0.0258836
0.0251442
0.0244212
0.0236477
0.022819
0.0218308
0.020474
0.01874
0.0166919
0.0140551
0.0109608
0.00835884
0.00630275
0.00394081
0.00133429
0.0156887
0.0151596
0.0149084
0.0149618
0.0152168
0.0155539
0.0158981
0.0162285
0.0165583
0.0169117
0.0173053
0.017744
0.0182222
0.0187326
0.019268
0.0198252
0.0204
0.0209886
0.0215842
0.0221817
0.0227751
0.0233604
0.0239312
0.024485
0.0250169
0.0255237
0.026001
0.0264468
0.026859
0.027236
0.0275756
0.0278748
0.0281306
0.0283384
0.0284949
0.0285979
0.0286363
0.0286093
0.0285002
0.0283068
0.0280147
0.0276229
0.0271229
0.0265346
0.025875
0.0251695
0.0244291
0.0236661
0.0228334
0.0219105
0.0208332
0.0194871
0.0178017
0.0158395
0.0135316
0.0108207
0.0083128
0.00622261
0.00388447
0.00130525
0.0175592
0.017109
0.0168741
0.0168808
0.0170504
0.0172883
0.0175337
0.0177684
0.0180025
0.0182557
0.018542
0.0188661
0.0192242
0.0196107
0.0200204
0.0204512
0.0208999
0.0213644
0.0218393
0.0223201
0.0228014
0.0232818
0.0237561
0.0242199
0.0246699
0.0251027
0.0255133
0.0258994
0.0262576
0.0265859
0.0268813
0.0271406
0.0273586
0.0275331
0.0276591
0.0277351
0.0277514
0.0277052
0.0275856
0.0273894
0.0271061
0.0267363
0.0262718
0.0257261
0.0251046
0.0244241
0.0236853
0.022897
0.0220225
0.021049
0.0199179
0.0185801
0.0169681
0.0150894
0.0130019
0.0105986
0.00820143
0.0061014
0.00381466
0.00128263