/*--------------------------------*- C++ -*----------------------------------*\
| =========                 |                                                 |
| \\      /  F ield         | OpenFOAM: The Open Source CFD Toolbox           |
|  \\    /   O peration     | Version:  2312                                  |
|   \\  /    A nd           | Website:  www.openfoam.com                      |
|    \\/     M anipulation  |                                                 |
\*---------------------------------------------------------------------------*/
FoamFile
{
    version     2.0;
    format      ascii;
    arch        "LSB;label=32;scalar=64";
    class       volVectorField;
    location    "86.05";
    object      U;
}
// * * * * * * * * * * * * * * * * * * * * * * * * * * * * * * * * * * * * * //

dimensions      [0 1 -1 0 0 0 0];

internalField   nonuniform List<vector> 
5478
(
(-0.0427785 0.0260794 -8.14782e-20)
(-0.0777406 0.04282 0)
(-0.0616208 0.0434988 1.21566e-19)
(0.0261527 0.0395942 -2.11504e-19)
(0.19958 0.0346165 1.35844e-19)
(0.442358 0.0322223 -4.13884e-20)
(0.712356 0.0344895 -6.87723e-20)
(0.96577 0.0384439 0)
(1.17046 0.040457 0)
(1.3078 0.0345128 9.13841e-20)
(1.3744 0.0209869 -4.08121e-20)
(1.38394 0.00111561 -7.0493e-20)
(1.35363 -0.0326998 -2.78225e-20)
(1.32307 -0.0368238 0)
(1.30414 -0.103406 7.57493e-20)
(-0.0529586 0.0318536 1.63763e-19)
(-0.0677058 0.043955 0)
(0.00646251 0.0364065 0)
(0.190527 0.0289596 -1.0729e-19)
(0.467795 0.0312364 1.40673e-19)
(0.770295 0.0427613 3.95966e-20)
(1.0332 0.0568684 -6.76955e-20)
(1.22079 0.0663733 6.00245e-20)
(1.32522 0.0663304 1.48822e-19)
(1.35991 0.0559699 -1.30276e-19)
(1.35383 0.0395833 3.0156e-21)
(1.33273 0.0169948 0)
(1.32113 0.0014087 2.77746e-20)
(1.3112 -0.0219268 0)
(1.29302 -0.0419113 0)
(-0.0551862 0.0299405 -4.89183e-22)
(-0.0313012 0.0343343 -7.74553e-20)
(0.132874 0.0267472 6.35873e-22)
(0.433626 0.0337354 0)
(0.774715 0.0557387 -4.82455e-20)
(1.05659 0.0794327 4.06509e-20)
(1.23733 0.0942984 3.40249e-20)
(1.32253 0.0965426 0)
(1.34344 0.0880042 -4.9475e-20)
(1.33737 0.0745731 4.19361e-20)
(1.3266 0.0578493 3.54315e-20)
(1.31928 0.0446263 0)
(1.30445 0.0249857 0)
(1.28141 0.0158013 -7.4695e-20)
(1.25645 -0.00611817 6.65267e-20)
(-0.0473261 0.0220811 -9.09429e-20)
(0.0433485 0.016651 7.63514e-20)
(0.331614 0.0257153 -6.58528e-20)
(0.716342 0.0617377 5.83646e-20)
(1.03674 0.0994235 9.71633e-20)
(1.23154 0.1221 -8.12079e-20)
(1.31743 0.127497 -3.4006e-20)
(1.33967 0.121021 2.66174e-20)
(1.33764 0.109845 -2.54285e-20)
(1.32834 0.0960808 0)
(1.31512 0.0834575 0)
(1.2949 0.0666592 -5.05581e-20)
(1.27476 0.0549122 6.58746e-20)
(1.25839 0.038661 -3.70793e-20)
(1.24505 0.0219834 0)
(-0.0262798 0.0111861 4.61393e-20)
(0.170317 0.00407392 3.86927e-20)
(0.581217 0.0509938 -1.39725e-19)
(0.965796 0.110488 2.15381e-21)
(1.20313 0.14765 -1.35553e-21)
(1.30947 0.159972 -1.49414e-21)
(1.34053 0.156769 3.26819e-20)
(1.33945 0.14698 2.7531e-20)
(1.32565 0.134153 1.9949e-20)
(1.30706 0.120917 -3.00151e-21)
(1.28772 0.105664 -4.54308e-20)
(1.27262 0.0927789 0)
(1.25885 0.0785181 2.07593e-20)
(1.24246 0.0647141 -1.54792e-20)
(1.22348 0.0551656 2.76165e-20)
(0.0146047 0.000212299 -1.00872e-19)
(0.352173 0.0151476 1.08755e-19)
(0.82024 0.102199 -3.75091e-20)
(1.13963 0.166507 2.79407e-20)
(1.29129 0.193063 -5.17603e-20)
(1.3398 0.195594 -3.82976e-20)
(1.34084 0.187046 1.20708e-21)
(1.32466 0.174052 0)
(1.30548 0.159962 4.03711e-20)
(1.28822 0.144967 -3.59012e-20)
(1.27302 0.131374 1.43768e-20)
(1.25608 0.116773 0)
(1.23788 0.103692 8.71166e-21)
(1.22149 0.0899456 -1.5518e-20)
(1.20791 0.0786506 0)
(0.0809341 -0.00353384 -1.26497e-20)
(0.557653 0.0606797 1.2766e-21)
(1.00688 0.167727 1.81415e-20)
(1.24587 0.223894 3.07554e-20)
(1.33119 0.238106 -2.34502e-20)
(1.34165 0.231925 3.9337e-20)
(1.32614 0.218317 -8.91538e-21)
(1.30603 0.202928 0)
(1.28651 0.187018 -2.36605e-20)
(1.26746 0.171623 1.63884e-21)
(1.24863 0.155819 1.95803e-20)
(1.23227 0.141247 0)
(1.21841 0.127078 -1.26353e-20)
(1.20471 0.113153 0)
(1.18996 0.105227 7.64749e-21)
(0.171005 0.00788611 -1.40989e-20)
(0.742466 0.132365 0)
(1.13668 0.240729 1.9452e-20)
(1.30119 0.282279 0)
(1.33828 0.283333 0)
(1.32742 0.269257 0)
(1.30509 0.251501 -7.57671e-21)
(1.28208 0.233116 0)
(1.26099 0.215007 4.77145e-21)
(1.24271 0.197122 0)
(1.22709 0.180571 -6.08978e-21)
(1.21198 0.164511 0)
(1.19679 0.149443 3.91895e-21)
(1.18316 0.135628 0)
(1.17143 0.125021 2.51963e-21)
(-0.00657973 0.0649446 -1.12917e-20)
(-0.0276378 0.177676 0)
(-0.0634125 0.246344 1.75746e-20)
(-0.102069 0.289753 0)
(-0.137725 0.330088 0)
(-0.167253 0.37372 0)
(-0.187828 0.417036 -1.1332e-20)
(-0.196443 0.45441 0)
(-0.190202 0.479975 9.6639e-21)
(-0.167091 0.487872 0)
(-0.125865 0.47361 -1.70857e-20)
(-0.0659005 0.433439 0)
(0.00736644 0.363488 1.52783e-20)
(0.0918568 0.26432 0)
(0.180931 0.142482 1.32897e-20)
(-0.00799101 0.0694358 5.58983e-20)
(-0.0247592 0.196378 -3.92483e-20)
(-0.0462841 0.278207 1.65974e-20)
(-0.0690936 0.325695 6.07364e-20)
(-0.0874965 0.361703 3.379e-22)
(-0.0968838 0.395954 -4.89832e-20)
(-0.0939043 0.426531 3.32253e-20)
(-0.0759915 0.448008 0)
(-0.0413024 0.455145 2.95909e-20)
(0.0116875 0.443717 2.20076e-21)
(0.0815534 0.409012 -1.5962e-20)
(0.165229 0.349913 0)
(0.268759 0.27039 -4.54509e-20)
(0.355418 0.15769 0)
(0.474254 0.0522569 -6.75001e-20)
(-0.00890903 0.05931 8.74389e-20)
(-0.0230965 0.188478 1.8848e-20)
(-0.0304677 0.283318 -3.40874e-20)
(-0.0354496 0.338004 -8.92371e-20)
(-0.0339554 0.37095 5.22593e-20)
(-0.021405 0.395038 4.73878e-20)
(0.00556592 0.412136 -8.3178e-20)
(0.0490275 0.418874 0)
(0.109622 0.410573 -7.4961e-20)
(0.185225 0.382905 6.66447e-20)
(0.281682 0.339243 3.13962e-20)
(0.369468 0.263578 0)
(0.499847 0.188343 3.01582e-20)
(0.572088 0.0684955 -5.33542e-20)
(0.724792 -0.0156988 0)
(-0.00812934 0.0403689 4.2354e-20)
(-0.0233249 0.156423 -1.1274e-19)
(-0.0224219 0.257029 1.30726e-19)
(-0.0124544 0.319922 -1.13228e-19)
(0.00763117 0.353512 -4.88264e-20)
(0.0405025 0.369973 4.30432e-20)
(0.0883369 0.374709 4.1177e-20)
(0.151982 0.366978 3.49692e-20)
(0.231822 0.348288 -1.01799e-19)
(0.321155 0.305713 -3.7725e-21)
(0.43085 0.263655 2.6966e-20)
(0.522999 0.178505 0)
(0.670273 0.120492 5.18894e-20)
(0.750248 -0.00261371 1.56848e-19)
(0.940861 -0.0858671 -9.19298e-20)
(-0.00653186 0.0212535 -5.12294e-22)
(-0.0258274 0.112172 7.25045e-20)
(-0.0257287 0.204497 -6.26907e-20)
(-0.00900516 0.268367 5.59383e-20)
(0.0234951 0.302307 9.53189e-20)
(0.0715006 0.314137 -8.34836e-20)
(0.134683 0.310599 -3.57404e-20)
(0.212125 0.292817 -1.03159e-19)
(0.30303 0.267983 9.28787e-20)
(0.408488 0.22075 0)
(0.527673 0.181286 0)
(0.665204 0.0975144 1.07713e-19)
(0.826908 0.0420121 -2.48861e-19)
(0.969843 -0.0765621 9.0088e-20)
(1.1817 -0.155427 0)
(-0.00719142 0.00922664 3.33755e-22)
(-0.0331178 0.0718701 -7.16182e-20)
(-0.0410566 0.142029 1.86383e-19)
(-0.0264293 0.193991 -5.38368e-20)
(0.00985402 0.221538 -4.65303e-20)
(0.0658749 0.228201 4.04743e-20)
(0.141356 0.219996 3.57655e-20)
(0.238821 0.200312 6.31312e-20)
(0.361936 0.171212 -1.11979e-19)
(0.514692 0.131267 5.22496e-20)
(0.686433 0.0838666 4.89715e-20)
(0.886832 0.0169741 0)
(1.07216 -0.0363947 0)
(1.25012 -0.134593 1.60209e-19)
(1.39358 -0.178756 -1.4217e-19)
(-0.0140662 0.00787796 -3.44761e-22)
(-0.0486732 0.0468513 0)
(-0.0659906 0.0886599 0)
(-0.0546309 0.119837 1.02049e-19)
(-0.011636 0.134919 -4.58706e-20)
(0.0668078 0.135148 3.80143e-20)
(0.18652 0.124032 6.69051e-20)
(0.348195 0.105893 -5.93194e-20)
(0.545894 0.0787151 5.59851e-20)
(0.76181 0.051517 -5.2301e-20)
(0.982283 0.0106862 -3.46184e-21)
(1.17841 -0.0253491 0)
(1.33265 -0.0718083 3.65283e-20)
(1.43249 -0.128404 0)
(1.44047 -0.151168 0)
(-0.02782 0.0156118 -7.98868e-20)
(-0.0682416 0.0394174 0)
(-0.0821982 0.0561487 -1.19656e-19)
(-0.0527062 0.0665949 2.07517e-19)
(0.0332578 0.0688355 -2.21889e-19)
(0.182344 0.0633217 -3.66432e-20)
(0.387294 0.0540715 6.71949e-20)
(0.62586 0.044264 0)
(0.869151 0.0328701 0)
(1.0898 0.0212769 -9.79925e-20)
(1.26353 -0.00156115 -4.60328e-20)
(1.3755 -0.0176323 7.80825e-20)
(1.42196 -0.0615514 -3.66016e-20)
(1.40158 -0.081339 0)
(1.35359 -0.113987 -9.4709e-20)
(0.308628 -0.100463 0)
(0.508053 -0.502726 4.63645e-21)
(0.559218 -0.773178 -4.26365e-21)
(0.657996 -0.769831 0)
(0.62622 -0.714774 0)
(0.386033 -0.711026 -8.4096e-23)
(0.43404 -0.380683 0)
(0.624739 0.12567 0)
(0.767731 0.426333 5.85616e-23)
(0.873299 0.489041 0)
(0.853182 0.545449 0)
(0.744535 0.619124 -8.06185e-23)
(0.723391 0.440148 0)
(0.823931 0.125969 -7.26409e-23)
(0.931022 -0.1262 -7.92947e-23)
(0.967238 -0.383984 0)
(0.984339 -0.549118 -4.54959e-22)
(0.98953 -0.489355 5.33889e-22)
(0.985538 -0.265034 0)
(1.04335 0.128582 4.71144e-22)
(1.05432 0.504896 -5.49166e-22)
(1.05288 0.556246 1.12506e-22)
(1.08674 0.304729 -2.32603e-22)
(1.12007 -0.138542 2.22255e-22)
(1.02715 -0.585981 -1.87317e-22)
(1.05518 -0.406544 0)
(1.11738 0.259688 -1.3779e-22)
(1.06038 0.497225 1.31751e-22)
(0.979627 0.0803061 -7.85249e-23)
(0.936268 -0.254924 0)
(1.00216 -0.10569 -1.54135e-23)
(1.00028 0.152973 0)
(0.887856 0.114537 -2.79884e-23)
(0.809186 -0.0267096 -2.19171e-23)
(0.786895 -0.0801884 -2.26237e-24)
(0.884745 0.0244655 3.929e-23)
(0.872068 0.158374 0)
(0.801315 0.0546945 1.35329e-24)
(0.584913 -0.197776 2.50795e-20)
(0.782891 -0.556747 -1.67319e-22)
(0.799672 -0.800211 -1.24448e-20)
(0.738388 -0.806322 1.18696e-20)
(0.722139 -0.660457 0)
(0.492569 -0.632923 8.47461e-23)
(0.391755 -0.430804 -1.21978e-22)
(0.535711 0.0212917 0)
(0.718528 0.341029 -5.90049e-23)
(0.840776 0.462571 0)
(0.782285 0.579763 0)
(0.664958 0.645439 8.1203e-23)
(0.687124 0.417386 0)
(0.826954 0.08284 2.6593e-21)
(0.959221 -0.154566 -2.22361e-21)
(0.999306 -0.393464 2.36684e-21)
(1.00016 -0.55762 -2.2592e-21)
(1.01335 -0.492481 -1.00102e-22)
(0.992849 -0.273373 0)
(1.02724 0.112826 0)
(1.04134 0.493013 -1.1716e-22)
(1.04582 0.547321 8.67772e-22)
(1.08093 0.30201 -1.56091e-21)
(1.13824 -0.128981 7.85074e-22)
(1.04185 -0.575539 5.35513e-22)
(1.03767 -0.418675 0)
(1.10355 0.253911 3.73799e-22)
(1.06197 0.503442 0)
(0.990519 0.0947008 7.8801e-23)
(0.938899 -0.257587 -1.19243e-22)
(1.00938 -0.113453 1.52073e-22)
(1.00919 0.16103 -1.65458e-23)
(0.900782 0.129625 3.77845e-23)
(0.824213 -0.0192235 1.20203e-23)
(0.800335 -0.0850614 1.50892e-23)
(0.895717 0.0180426 3.88965e-23)
(0.883976 0.163398 3.22153e-24)
(0.813961 0.0596413 -1.85467e-24)
(0.823711 -0.271974 4.65032e-20)
(0.98557 -0.59112 -8.10637e-20)
(1.01226 -0.750696 1.08363e-20)
(0.84361 -0.765665 2.33502e-20)
(0.782916 -0.608566 1.7433e-22)
(0.616881 -0.551545 -1.31069e-22)
(0.450336 -0.454313 1.24071e-22)
(0.510203 -0.0899637 -1.32654e-22)
(0.689079 0.250678 0)
(0.82495 0.451879 6.13946e-21)
(0.783802 0.624163 -5.85652e-21)
(0.658344 0.6757 -1.91648e-22)
(0.6921 0.401319 0)
(0.844063 0.042177 -5.60446e-21)
(0.987488 -0.172287 5.17946e-21)
(1.03389 -0.382868 -2.41058e-21)
(1.01402 -0.555323 2.30006e-21)
(1.03099 -0.497516 2.11857e-21)
(0.998798 -0.282484 -1.80696e-21)
(1.00419 0.096635 0)
(1.02388 0.482602 0)
(1.0361 0.542405 1.39273e-21)
(1.06851 0.302997 -1.32952e-21)
(1.14769 -0.112832 -1.41207e-21)
(1.05392 -0.554387 -1.18697e-22)
(1.01144 -0.430601 1.36517e-21)
(1.08326 0.243208 2.69502e-23)
(1.06178 0.51115 -4.71443e-22)
(0.998935 0.114737 7.50717e-22)
(0.937864 -0.256652 -6.6e-22)
(1.01188 -0.122822 2.01417e-23)
(1.01617 0.167637 -4.09609e-23)
(0.912831 0.144377 5.72731e-23)
(0.838898 -0.0112812 -5.47602e-23)
(0.813662 -0.0895103 1.78435e-23)
(0.905228 0.0113558 6.12376e-23)
(0.897123 0.168127 -1.01195e-22)
(0.828071 0.0645677 4.52812e-24)
(1.05879 -0.31842 0)
(1.14908 -0.601706 3.3357e-20)
(1.13113 -0.697342 -3.27851e-20)
(0.941326 -0.698838 0)
(0.813201 -0.56513 -1.79176e-22)
(0.711232 -0.473575 1.3467e-22)
(0.561901 -0.449546 0)
(0.57264 -0.191265 3.01535e-23)
(0.71751 0.142972 -1.16099e-22)
(0.839943 0.400737 0)
(0.746858 0.636615 -6.63111e-21)
(0.608383 0.705022 6.51932e-21)
(0.704059 0.392347 -4.53249e-22)
(0.872098 0.00653575 -6.09271e-21)
(1.01483 -0.194443 5.80903e-21)
(1.06721 -0.373475 3.14581e-22)
(1.02817 -0.551035 0)
(1.04335 -0.505365 -2.30153e-22)
(1.00508 -0.292873 4.57161e-21)
(0.982856 0.0700209 1.62983e-22)
(1.0008 0.453843 -9.16644e-22)
(1.01477 0.530549 -2.93719e-21)
(1.04635 0.303766 -2.17383e-21)
(1.14722 -0.0969475 2.6048e-21)
(1.06539 -0.530491 -3.18478e-22)
(0.98106 -0.44097 0)
(1.05577 0.22164 -4.09936e-22)
(1.05388 0.510369 4.77676e-22)
(1.00247 0.134076 -7.30505e-22)
(0.933822 -0.254007 6.39233e-22)
(1.00982 -0.134614 -7.26739e-23)
(1.02121 0.171972 0)
(0.923851 0.158623 -6.16701e-23)
(0.85262 -0.00280935 1.54278e-22)
(0.82702 -0.0934841 3.68827e-23)
(0.913761 0.00433216 -1.54839e-22)
(0.911008 0.172406 1.01266e-22)
(0.843055 0.0694608 1.4517e-24)
(1.27734 -0.342686 5.59592e-22)
(1.29768 -0.541771 1.0743e-21)
(1.18487 -0.600829 0)
(1.01417 -0.600277 0)
(0.840209 -0.527963 0)
(0.778585 -0.422772 0)
(0.667028 -0.435165 4.62346e-21)
(0.657426 -0.282514 -8.07741e-21)
(0.777351 0.0341595 3.67444e-21)
(0.840248 0.382394 0)
(0.734551 0.699759 -6.78679e-21)
(0.65841 0.741331 6.66386e-21)
(0.770887 0.389178 8.22396e-21)
(0.923174 -0.020509 -6.93525e-21)
(1.04303 -0.211496 5.72733e-21)
(1.09404 -0.354029 -5.78122e-21)
(1.03933 -0.535152 -2.68563e-22)
(1.04676 -0.513161 -4.30453e-21)
(1.00596 -0.303668 4.10206e-21)
(0.953035 0.0492068 6.49318e-22)
(0.972158 0.437951 5.3461e-22)
(0.996497 0.526838 1.93431e-21)
(1.02471 0.307381 -2.18811e-21)
(1.13969 -0.0774708 -5.14087e-22)
(1.07487 -0.50047 -2.34754e-22)
(0.946556 -0.450261 -4.06914e-22)
(1.02348 0.197519 0)
(1.04656 0.51293 0)
(1.00441 0.158487 0)
(0.928473 -0.247497 0)
(1.00383 -0.14771 2.11319e-22)
(1.0242 0.174176 -1.31219e-22)
(0.933827 0.172138 1.32138e-22)
(0.864926 0.0057136 -4.44644e-22)
(0.840342 -0.0969967 4.04589e-23)
(0.921766 -0.0029085 -3.25005e-23)
(0.925093 0.176076 1.22013e-22)
(0.858427 0.0742723 -3.13715e-24)
(1.40213 -0.323624 -5.89173e-22)
(1.35712 -0.444614 5.46287e-20)
(1.20391 -0.496118 -5.25218e-20)
(1.06759 -0.506412 -2.88857e-20)
(0.905492 -0.481258 2.75098e-20)
(0.826942 -0.391883 1.49904e-20)
(0.764126 -0.408624 -1.39583e-20)
(0.703827 -0.357164 1.36668e-22)
(0.813824 -0.0700496 -1.24717e-22)
(0.873162 0.29592 0)
(0.766089 0.639402 -2.16039e-22)
(0.646344 0.75569 1.60771e-20)
(0.780636 0.423555 -1.52997e-20)
(0.961633 -0.00938667 -4.71501e-22)
(1.07175 -0.21328 0)
(1.11957 -0.331476 -5.16781e-21)
(1.05413 -0.513659 9.18259e-21)
(1.04484 -0.520297 -3.83451e-21)
(1.00243 -0.315454 0)
(0.926628 0.0161205 4.41414e-21)
(0.939067 0.395112 -1.91936e-21)
(0.962332 0.513176 -3.30717e-21)
(0.994605 0.313881 -1.97307e-21)
(1.12565 -0.057663 1.89232e-21)
(1.08013 -0.468214 -2.54973e-21)
(0.915121 -0.455367 -1.05641e-21)
(0.985836 0.160667 3.8057e-21)
(1.02998 0.503629 -1.49338e-21)
(0.999977 0.181469 1.41995e-21)
(0.922228 -0.239474 -2.90638e-22)
(0.994822 -0.162736 2.76357e-22)
(1.02543 0.173321 0)
(0.942865 0.185133 1.4086e-22)
(0.875628 0.0147555 8.68487e-24)
(0.853483 -0.0999405 0)
(0.929489 -0.0105501 1.53519e-22)
(0.9389 0.179227 -8.58472e-23)
(0.873857 0.0790481 -2.05771e-23)
(1.38704 -0.254157 0)
(1.32063 -0.338168 0)
(1.20438 -0.397693 -1.67541e-22)
(1.09081 -0.430944 0)
(0.982457 -0.435724 0)
(0.871941 -0.361913 1.52088e-20)
(0.831218 -0.367578 -1.447e-20)
(0.739378 -0.399812 1.04044e-20)
(0.774167 -0.190667 -9.88306e-21)
(0.865497 0.248803 0)
(0.725297 0.685315 -2.10477e-22)
(0.67358 0.778091 2.1004e-22)
(0.85195 0.412838 -1.86735e-20)
(1.01393 -0.0265293 1.03494e-21)
(1.10026 -0.225235 1.56478e-20)
(1.13694 -0.312004 1.71734e-22)
(1.06533 -0.485275 -1.25924e-22)
(1.03657 -0.522371 8.89889e-21)
(0.991191 -0.330538 -8.70107e-21)
(0.89298 -0.00229192 0)
(0.903388 0.377973 0)
(0.938258 0.51001 -1.41826e-22)
(0.974021 0.315749 0)
(1.11417 -0.0387663 1.50019e-21)
(1.08 -0.429634 1.18422e-21)
(0.887697 -0.459847 -2.2699e-21)
(0.948553 0.126887 -3.78485e-21)
(1.01705 0.501161 2.48734e-21)
(0.995753 0.206213 -1.08148e-22)
(0.917364 -0.227492 0)
(0.984423 -0.178118 -1.8119e-22)
(1.02494 0.170632 1.71813e-22)
(0.950895 0.196779 7.17716e-23)
(0.884738 0.0232819 2.33269e-23)
(0.866099 -0.102747 -1.23689e-22)
(0.936912 -0.0180393 -1.27725e-22)
(0.951963 0.181681 0)
(0.889123 0.0836353 1.01362e-23)
(1.31735 -0.185029 5.80944e-20)
(1.27898 -0.257208 4.9329e-20)
(1.21727 -0.319207 -5.93506e-21)
(1.11681 -0.368364 -7.02131e-20)
(1.03412 -0.403549 2.98737e-20)
(0.926472 -0.34848 -1.44731e-22)
(0.864294 -0.338685 0)
(0.786116 -0.38451 -7.82442e-23)
(0.700864 -0.293901 -9.07473e-23)
(0.772728 0.0566081 0)
(0.740894 0.538857 -1.38857e-20)
(0.706954 0.768069 1.3157e-20)
(0.810622 0.508129 2.73196e-22)
(1.0226 0.0509505 1.5547e-20)
(1.12755 -0.195702 -1.47721e-20)
(1.15846 -0.280727 1.7087e-22)
(1.08062 -0.44932 1.33937e-22)
(1.02729 -0.517405 0)
(0.979193 -0.342611 1.13346e-20)
(0.857092 -0.0487103 -1.07292e-20)
(0.856812 0.317305 -3.68779e-21)
(0.898534 0.491959 1.75797e-21)
(0.939547 0.331905 1.78449e-21)
(1.10686 -0.00808886 -1.10533e-21)
(1.0755 -0.387632 -1.13342e-21)
(0.87168 -0.458263 6.00064e-21)
(0.907115 0.0764817 -2.86151e-21)
(0.995015 0.481795 1.81325e-21)
(0.984098 0.234087 -1.3532e-21)
(0.913086 -0.210767 0)
(0.973252 -0.195405 0)
(1.02292 0.163925 0)
(0.95857 0.208868 8.64296e-23)
(0.892548 0.0334337 -7.19037e-23)
(0.8782 -0.105066 -4.94349e-23)
(0.943853 -0.0266928 -1.52511e-23)
(0.964173 0.183639 5.83307e-23)
(0.90421 0.0882288 0)
(1.29137 -0.121813 0)
(1.26798 -0.185179 0)
(1.22036 -0.226063 0)
(1.14347 -0.247172 0)
(1.06794 -0.307216 0)
(0.989625 -0.268196 0)
(0.934409 -0.235766 0)
(0.855421 -0.309813 0)
(0.662806 -0.304585 0)
(0.625129 0.0130075 0)
(0.659025 0.519723 0)
(0.650097 0.740547 0)
(0.899064 0.441608 0)
(1.11741 0.0171448 0)
(1.15616 -0.193015 0)
(1.17733 -0.229337 0)
(1.09643 -0.390714 0)
(1.0175 -0.520006 0)
(0.954917 -0.364939 0)
(0.831159 -0.0545679 0)
(0.82034 0.303254 0)
(0.851717 0.484619 0)
(0.920139 0.321984 0)
(1.12298 0.00267575 0)
(1.07355 -0.358683 0)
(0.850801 -0.456669 0)
(0.872195 0.0402707 0)
(0.974991 0.474995 0)
(0.969569 0.256249 0)
(0.909842 -0.19951 0)
(0.95974 -0.209521 0)
(1.0193 0.15654 0)
(0.965766 0.219461 0)
(0.899998 0.0429111 0)
(0.892284 -0.105823 0)
(0.951458 -0.0347772 0)
(0.977405 0.185129 0)
(0.922423 0.093134 0)
(1.22562 -0.104325 0)
(1.20864 -0.166166 0)
(1.15692 -0.207261 0)
(1.09899 -0.245023 0)
(1.02578 -0.286952 0)
(0.938179 -0.238295 0)
(0.882471 -0.261216 0)
(0.853237 -0.269006 0)
(0.701747 -0.161009 0)
(0.565164 0.08245 0)
(0.548964 0.513549 0)
(0.695978 0.635143 0)
(1.06157 0.28819 0)
(1.21051 -0.0577228 0)
(1.18927 -0.210086 0)
(1.16619 -0.25471 0)
(1.06421 -0.392346 0)
(0.972022 -0.469215 0)
(0.890433 -0.282423 0)
(0.75967 0.00462453 0)
(0.746258 0.320434 0)
(0.786799 0.471289 0)
(0.915035 0.261456 0)
(1.13099 -0.0520579 0)
(1.04737 -0.321559 0)
(0.790183 -0.399587 0)
(0.831667 0.0426543 0)
(0.941399 0.46754 0)
(0.951235 0.252221 0)
(0.91521 -0.201944 0)
(0.956179 -0.220487 0)
(1.0139 0.15889 0)
(0.970436 0.233462 0)
(0.908567 0.0480993 0)
(0.910764 -0.111737 0)
(0.961289 -0.0448482 0)
(0.992362 0.186808 0)
(0.944917 0.098863 0)
(1.1801 -0.0808368 0)
(1.17097 -0.121313 0)
(1.13483 -0.158685 0)
(1.0953 -0.15888 0)
(1.03106 -0.199358 0)
(0.973434 -0.157276 0)
(0.929646 -0.1551 0)
(0.850772 -0.185456 0)
(0.734859 -0.0754474 0)
(0.65822 0.120776 0)
(0.66486 0.415298 0)
(0.906704 0.434398 0)
(1.20711 0.163409 0)
(1.2566 -0.0662557 0)
(1.18568 -0.184584 0)
(1.16298 -0.182012 0)
(1.07861 -0.300927 0)
(0.943722 -0.424567 0)
(0.801412 -0.250549 0)
(0.64527 0.027375 0)
(0.642344 0.302646 0)
(0.73169 0.413104 0)
(0.920435 0.199997 0)
(1.13872 -0.0512309 0)
(1.05092 -0.263093 0)
(0.744813 -0.367617 0)
(0.768898 0.00841127 0)
(0.892239 0.435834 0)
(0.942908 0.253687 0)
(0.928514 -0.19711 0)
(0.955819 -0.236826 0)
(1.00962 0.155103 0)
(0.977145 0.245262 0)
(0.918102 0.0557291 0)
(0.928471 -0.115848 0)
(0.970067 -0.0546184 0)
(1.00591 0.18877 0)
(0.96906 0.104654 0)
(1.14093 -0.061594 0)
(1.13712 -0.0902259 0)
(1.10442 -0.121698 0)
(1.07067 -0.128416 0)
(1.02309 -0.164096 0)
(0.968217 -0.130537 0)
(0.942201 -0.132223 0)
(0.891808 -0.130715 0)
(0.802794 -0.0166494 0)
(0.780333 0.112124 0)
(0.863443 0.301268 0)
(1.06597 0.270463 0)
(1.22323 0.0734067 0)
(1.2358 -0.0432031 0)
(1.16701 -0.14398 0)
(1.10661 -0.189046 0)
(1.03003 -0.281551 0)
(0.898226 -0.332845 0)
(0.704235 -0.139832 0)
(0.543486 0.0871017 0)
(0.57446 0.276097 0)
(0.722748 0.337492 0)
(0.935268 0.104747 0)
(1.12836 -0.0944683 0)
(1.03835 -0.194958 0)
(0.714675 -0.285536 0)
(0.684909 -0.00611131 0)
(0.822237 0.40042 0)
(0.950499 0.235952 0)
(0.961869 -0.198544 0)
(0.963107 -0.247545 0)
(1.00601 0.15098 0)
(0.98203 0.257233 0)
(0.928494 0.0612388 0)
(0.946134 -0.121762 0)
(0.977619 -0.0662654 0)
(1.02064 0.188093 0)
(0.996204 0.109299 0)
(1.10742 -0.0473827 0)
(1.10638 -0.0635268 0)
(1.08374 -0.0937448 0)
(1.06063 -0.0876445 0)
(1.02439 -0.116071 0)
(0.986028 -0.0861926 0)
(0.964347 -0.0786672 0)
(0.924893 -0.0776531 0)
(0.876846 0.0194814 0)
(0.875266 0.0766054 0)
(0.96476 0.184771 0)
(1.09974 0.174002 0)
(1.1744 0.0505725 0)
(1.17449 -0.0358458 0)
(1.13436 -0.115145 0)
(1.09344 -0.114272 0)
(1.03311 -0.191459 0)
(0.906249 -0.248353 0)
(0.708887 -0.0515754 0)
(0.59445 0.109847 0)
(0.654468 0.205422 0)
(0.817147 0.238368 0)
(0.976684 0.0320113 0)
(1.10972 -0.100814 0)
(1.05444 -0.12209 0)
(0.742583 -0.215462 0)
(0.643106 -0.0284489 0)
(0.797578 0.346316 0)
(0.996668 0.208752 0)
(1.0072 -0.19667 0)
(0.975964 -0.252697 0)
(0.992726 0.149998 0)
(0.980505 0.266731 0)
(0.942415 0.0647596 0)
(0.964439 -0.126524 0)
(0.981546 -0.0767872 0)
(1.03274 0.185738 0)
(1.02394 0.113032 0)
(1.08266 -0.0347539 0)
(1.08627 -0.0423004 0)
(1.06722 -0.0664701 0)
(1.05098 -0.0590162 0)
(1.02657 -0.0817344 0)
(0.993762 -0.0597395 0)
(0.984884 -0.0526055 0)
(0.951875 -0.0507465 0)
(0.936168 0.025284 0)
(0.94373 0.0398618 0)
(0.995742 0.114063 0)
(1.07779 0.105454 0)
(1.12273 0.0185435 0)
(1.13108 -0.00372264 0)
(1.09068 -0.0841109 0)
(1.05209 -0.113728 0)
(1.01092 -0.159138 0)
(0.913889 -0.165564 0)
(0.778836 0.0308832 0)
(0.743688 0.118867 0)
(0.823622 0.144273 0)
(0.965259 0.177436 0)
(1.04398 -0.0172321 0)
(1.0702 -0.130709 0)
(1.04864 -0.0569059 0)
(0.818369 -0.109846 0)
(0.666571 -0.0342067 0)
(0.826221 0.26798 0)
(1.06649 0.168038 0)
(1.05643 -0.186448 0)
(0.984819 -0.250186 0)
(0.985413 0.148884 0)
(0.988622 0.274376 0)
(0.966194 0.0671339 0)
(0.985732 -0.130691 0)
(0.982376 -0.0889414 0)
(1.04404 0.17915 0)
(1.0532 0.114624 0)
(1.06495 -0.0241545 0)
(1.06846 -0.0261181 0)
(1.05568 -0.0459328 0)
(1.04334 -0.038534 0)
(1.02916 -0.0531965 0)
(1.00318 -0.0411017 0)
(1.00282 -0.0285649 0)
(0.975744 -0.0324303 0)
(0.976439 0.023669 0)
(0.982225 0.0216918 0)
(1.00455 0.0640122 0)
(1.06556 0.0657989 0)
(1.07613 0.00504616 0)
(1.08815 -0.00128681 0)
(1.07683 -0.0647999 0)
(1.04217 -0.0662492 0)
(1.00473 -0.0872104 0)
(0.917187 -0.113419 0)
(0.860278 0.0563203 0)
(0.889653 0.105379 0)
(0.945049 0.0704353 0)
(1.05398 0.118118 0)
(1.10099 -0.0083211 0)
(1.04281 -0.109902 0)
(1.03004 -0.0142012 0)
(0.933406 -0.0282864 0)
(0.784517 -0.0358806 0)
(0.888043 0.176203 0)
(1.11799 0.12498 0)
(1.09699 -0.161638 0)
(0.976418 -0.232206 0)
(0.959656 0.147437 0)
(0.985923 0.2748 0)
(0.994514 0.066897 0)
(1.01001 -0.129671 0)
(0.978328 -0.09827 0)
(1.05064 0.168314 0)
(1.07894 0.113816 0)
(1.05228 -0.0150507 0)
(1.05475 -0.0152263 0)
(1.04839 -0.0288015 0)
(1.03733 -0.0241039 0)
(1.03182 -0.0321993 0)
(1.01084 -0.0266516 0)
(1.01371 -0.0153499 0)
(0.995657 -0.0206035 0)
(0.996809 0.0163267 0)
(1.00673 0.0101275 0)
(1.00863 0.0345226 0)
(1.05275 0.0385894 0)
(1.05282 -0.00623502 0)
(1.06105 0.0062766 0)
(1.05608 -0.0449465 0)
(1.01713 -0.0560181 0)
(1.01089 -0.0499759 0)
(0.943685 -0.0772902 0)
(0.914846 0.0439501 0)
(0.977388 0.0817166 0)
(0.998018 0.0350835 0)
(1.05665 0.0821645 0)
(1.09975 -0.00181455 0)
(1.02717 -0.0969058 0)
(1.00573 -0.00614206 0)
(1.00233 0.0195343 0)
(0.91531 -0.0177535 0)
(0.950304 0.113436 0)
(1.1219 0.0848032 0)
(1.10427 -0.13183 0)
(0.953447 -0.195031 0)
(0.893869 0.150109 0)
(0.972558 0.262254 0)
(1.03546 0.0586742 0)
(1.04169 -0.124659 0)
(0.972188 -0.105256 0)
(1.04835 0.152315 0)
(1.09788 0.109237 0)
(1.04386 -0.00772669 0)
(1.04497 -0.00770487 0)
(1.04242 -0.0163289 0)
(1.03395 -0.014324 0)
(1.03165 -0.0180632 0)
(1.01759 -0.0166992 0)
(1.01942 -0.00788571 0)
(1.00969 -0.0122467 0)
(1.0086 0.00928116 0)
(1.0185 0.00556491 0)
(1.0129 0.0161296 0)
(1.04231 0.0221186 0)
(1.03836 -0.00741585 0)
(1.03915 0.00238171 0)
(1.04726 -0.0280178 0)
(1.01102 -0.036863 0)
(1.0109 -0.0189507 0)
(0.972729 -0.0458312 0)
(0.948153 0.0268429 0)
(1.00483 0.0607498 0)
(1.01053 0.0156232 0)
(1.04037 0.0502435 0)
(1.08558 0.00968898 0)
(1.02469 -0.06197 0)
(0.991068 0.000125439 0)
(1.01944 0.028742 0)
(0.983992 -0.0139438 0)
(0.986826 0.0744646 0)
(1.0988 0.0588166 0)
(1.08704 -0.0935151 0)
(0.936865 -0.142813 0)
(0.85938 0.144972 0)
(1.00278 0.224205 0)
(1.09584 0.0430825 0)
(1.07363 -0.106818 0)
(0.964069 -0.103623 0)
(1.04364 0.130602 0)
(1.10879 0.100856 0)
(1.03759 -0.00230786 0)
(1.03808 -0.0025341 0)
(1.03732 -0.00794633 0)
(1.03173 -0.00724672 0)
(1.03033 -0.00938764 0)
(1.02223 -0.00903441 0)
(1.02202 -0.0040308 0)
(1.01797 -0.00652027 0)
(1.01533 0.00486373 0)
(1.0228 0.00261895 0)
(1.01732 0.00747376 0)
(1.03283 0.0112058 0)
(1.03173 -0.00578561 0)
(1.02823 0.00104396 0)
(1.0359 -0.0154632 0)
(1.00955 -0.0247089 0)
(1.00917 -0.00871248 0)
(0.993633 -0.0249733 0)
(0.971777 0.01323 0)
(1.01188 0.0393988 0)
(1.01716 0.00987519 0)
(1.02441 0.031421 0)
(1.0614 0.00829317 0)
(1.0254 -0.0401749 0)
(0.991484 -0.00102505 0)
(1.02434 0.0279169 0)
(1.00974 -0.00568497 0)
(0.996516 0.0529773 0)
(1.06878 0.039708 0)
(1.06339 -0.0590284 0)
(0.939651 -0.0963026 0)
(0.888004 0.11858 0)
(1.05685 0.168192 0)
(1.13946 0.0321771 0)
(1.09137 -0.0762921 0)
(0.957039 -0.095064 0)
(1.02278 0.104008 0)
(1.09687 0.0884443 0)
(1.03254 0.00121692 0)
(1.03313 0.00101629 0)
(1.03291 -0.00256395 0)
(1.02987 -0.00236683 0)
(1.02857 -0.00390683 0)
(1.0242 -0.00398929 0)
(1.02329 -0.00147008 0)
(1.0215 -0.00297753 0)
(1.01938 0.00281218 0)
(1.02339 0.00136942 0)
(1.01988 0.00360251 0)
(1.02711 0.00545615 0)
(1.02653 -0.00319953 0)
(1.02277 -5.60689e-05 0)
(1.02743 -0.00833384 0)
(1.0125 -0.0133902 0)
(1.01032 -0.0026914 0)
(1.00464 -0.0114447 0)
(0.990303 0.00886248 0)
(1.01278 0.0239896 0)
(1.01822 0.00609598 0)
(1.01921 0.0198956 0)
(1.04425 0.00599256 0)
(1.02576 -0.0197949 0)
(0.99779 0.00392998 0)
(1.02096 0.023244 0)
(1.01834 -0.000779771 0)
(1.002 0.0402209 0)
(1.04769 0.0258243 0)
(1.04528 -0.0285413 0)
(0.958275 -0.0572415 0)
(0.931153 0.0842634 0)
(1.07813 0.111825 0)
(1.13609 0.0276941 0)
(1.08789 -0.0361463 0)
(0.960106 -0.0741796 0)
(0.993374 0.0796157 0)
(1.07332 0.0732624 0)
(1.02853 0.00336349 0)
(1.02929 0.00322322 0)
(1.02928 0.000737528 0)
(1.02771 0.000772354 0)
(1.02665 -0.000565966 0)
(1.02435 -0.000660088 0)
(1.02337 0.000301366 0)
(1.02255 -0.000609889 0)
(1.02093 0.00223756 0)
(1.02287 0.00110731 0)
(1.02065 0.00246673 0)
(1.02371 0.00291258 0)
(1.02309 -0.000977416 0)
(1.02058 0.000433462 0)
(1.0224 -0.00321121 0)
(1.0141 -0.00611884 0)
(1.01234 0.000171217 0)
(1.00996 -0.00469639 0)
(1.00193 0.00619266 0)
(1.01456 0.0138621 0)
(1.01781 0.00355487 0)
(1.01739 0.0137149 0)
(1.03219 0.00276023 0)
(1.02284 -0.00948426 0)
(1.00542 0.00522848 0)
(1.02004 0.0180042 0)
(1.02076 0.00381281 0)
(1.0069 0.0336441 0)
(1.03491 0.0161809 0)
(1.0315 -0.0098505 0)
(0.980658 -0.0333371 0)
(0.965416 0.054599 0)
(1.07159 0.0692876 0)
(1.10509 0.0266416 0)
(1.07193 -0.00205475 0)
(0.976833 -0.0532126 0)
(0.991544 0.0579708 0)
(1.06384 0.0564345 0)
(1.02526 0.00455431 0)
(1.02606 0.00453018 0)
(1.0261 0.00265804 0)
(1.02547 0.00270928 0)
(1.02462 0.00151316 0)
(1.02348 0.00146624 0)
(1.02257 0.00163285 0)
(1.02219 0.00103051 0)
(1.02104 0.00244691 0)
(1.02187 0.00149696 0)
(1.02035 0.00256692 0)
(1.02159 0.00217664 0)
(1.02088 0.00100629 0)
(1.01928 0.00118438 0)
(1.01971 -8.16253e-05 0)
(1.01535 -0.00165862 0)
(1.01417 0.00192294 0)
(1.0133 -0.000809757 0)
(1.0087 0.00489292 0)
(1.0157 0.00844322 0)
(1.01721 0.00189143 0)
(1.01707 0.0094179 0)
(1.02575 0.00129651 0)
(1.02097 -0.00207261 0)
(1.01077 0.00684219 0)
(1.01951 0.0151864 0)
(1.02024 0.00777417 0)
(1.0113 0.0296033 0)
(1.0293 0.010507 0)
(1.02412 0.00367275 0)
(0.997376 -0.016916 0)
(0.988535 0.0323422 0)
(1.06108 0.0394465 0)
(1.07644 0.0273864 0)
(1.05748 0.0243438 0)
(0.996901 -0.0355851 0)
(1.00886 0.0399571 0)
(1.06287 0.0421868 0)
(1.02244 0.00507492 0)
(1.02322 0.00517929 0)
(1.0233 0.00369518 0)
(1.02317 0.00384151 0)
(1.02251 0.0027409 0)
(1.02201 0.00278964 0)
(1.02124 0.00259047 0)
(1.02117 0.00218145 0)
(1.02026 0.00299056 0)
(1.02067 0.00207342 0)
(1.01958 0.00318124 0)
(1.02006 0.00231133 0)
(1.01938 0.00255338 0)
(1.01847 0.00210653 0)
(1.01832 0.00198777 0)
(1.0161 0.00110506 0)
(1.0153 0.00284485 0)
(1.01502 0.00128976 0)
(1.01251 0.00380699 0)
(1.01635 0.00532533 0)
(1.01688 0.00104861 0)
(1.01707 0.00647836 0)
(1.02139 0.000268901 0)
(1.01942 0.00155196 0)
(1.01417 0.00647249 0)
(1.01937 0.0127788 0)
(1.01959 0.0106011 0)
(1.0143 0.0264884 0)
(1.02605 0.00696246 0)
(1.01988 0.0109292 0)
(1.00902 -0.00971855 0)
(1.0046 0.0150813 0)
(1.05256 0.0199528 0)
(1.05501 0.029101 0)
(1.04696 0.0388397 0)
(1.01352 -0.0270637 0)
(1.02295 0.0251961 0)
(1.05849 0.0309742 0)
(1.02002 0.00516315 0)
(1.02073 0.00539848 0)
(1.02079 0.00415858 0)
(1.02093 0.00441066 0)
(1.02042 0.00342646 0)
(1.02032 0.00355189 0)
(1.01968 0.00326554 0)
(1.01982 0.00293335 0)
(1.01909 0.00356205 0)
(1.01941 0.00263283 0)
(1.01855 0.00387372 0)
(1.01886 0.00273144 0)
(1.01825 0.00370478 0)
(1.01784 0.00294572 0)
(1.01749 0.00326367 0)
(1.01647 0.00277903 0)
(1.01589 0.00331122 0)
(1.01599 0.0024875 0)
(1.01445 0.00322605 0)
(1.01672 0.00357026 0)
(1.01657 0.000742421 0)
(1.01719 0.00451342 0)
(1.01908 -0.000251806 0)
(1.01857 0.00392776 0)
(1.01588 0.00634961 0)
(1.01916 0.0113218 0)