/*--------------------------------*- C++ -*----------------------------------*\
| =========                 |                                                 |
| \\      /  F ield         | OpenFOAM: The Open Source CFD Toolbox           |
|  \\    /   O peration     | Version:  2312                                  |
|   \\  /    A nd           | Website:  www.openfoam.com                      |
|    \\/     M anipulation  |                                                 |
\*---------------------------------------------------------------------------*/
FoamFile
{
    version     2.0;
    format      ascii;
    arch        "LSB;label=32;scalar=64";
    class       volVectorField;
    location    "55";
    object      U;
}
// * * * * * * * * * * * * * * * * * * * * * * * * * * * * * * * * * * * * * //

dimensions      [0 1 -1 0 0 0 0];

internalField   nonuniform List<vector> 
2300
(
(-0.0576564 0.0470547 0)
(-0.0483205 0.0628696 1.88073e-19)
(0.0900099 0.0544716 -1.0266e-19)
(0.350897 0.0467497 -4.19451e-20)
(0.654366 0.0493956 0)
(0.917905 0.0507264 -5.56612e-20)
(1.13002 0.0605897 2.18658e-19)
(1.23522 0.0470541 -3.93382e-20)
(1.29059 0.0599876 9.11528e-20)
(1.28348 0.0207273 -1.09826e-19)
(-0.0628402 0.0280877 7.94848e-20)
(0.0372457 0.0171715 -6.30794e-20)
(0.371426 0.0380694 1.01717e-19)
(0.75256 0.0773431 3.91424e-20)
(1.04837 0.110777 6.0935e-20)
(1.23729 0.135286 -1.60809e-19)
(1.30328 0.129848 -4.42513e-21)
(1.29602 0.119924 -3.72357e-21)
(1.24623 0.0946752 0)
(1.17436 0.0710323 1.82026e-20)
(-0.042931 0.00452158 8.22616e-20)
(0.280467 0.0131979 -2.86746e-21)
(0.771288 0.100998 -1.54455e-19)
(1.10393 0.166155 8.36203e-20)
(1.26251 0.196641 -5.95174e-20)
(1.28482 0.189889 1.39318e-19)
(1.24816 0.168157 -1.12437e-19)
(1.20115 0.142701 -7.74114e-20)
(1.17519 0.123376 4.14844e-20)
(1.16616 0.113111 7.95711e-20)
(0.0477458 -0.0132684 2.21638e-20)
(0.652442 0.101017 -6.66067e-20)
(1.07818 0.209273 5.47624e-20)
(1.24249 0.247662 0)
(1.25674 0.238611 1.37588e-20)
(1.23389 0.217889 4.0424e-20)
(1.21814 0.197945 -3.37438e-20)
(1.21604 0.186088 4.36903e-20)
(1.21028 0.172006 -4.81455e-21)
(1.19643 0.166019 -6.2842e-20)
(0.24217 0.0341599 2.2871e-20)
(0.934278 0.233724 0)
(1.19866 0.303476 0)
(1.2479 0.300408 0)
(1.24467 0.283163 -1.37994e-20)
(1.23082 0.264866 0)
(1.20796 0.244777 0)
(1.17703 0.222414 -9.31978e-21)
(1.1497 0.198998 7.81684e-21)
(1.11633 0.184426 -4.84942e-21)
(-0.0205787 0.0255652 1.56675e-20)
(-0.0658173 -0.00188149 0)
(-0.123986 -0.0361503 0)
(-0.173329 -0.072386 0)
(-0.215348 -0.114122 -1.57009e-20)
(-0.248211 -0.159953 0)
(-0.269789 -0.20706 0)
(-0.268308 -0.256906 1.77735e-20)
(-0.273902 -0.283954 -1.49047e-20)
(-0.230268 -0.321164 1.19983e-20)
(-0.0289742 0.0694175 -4.79881e-20)
(-0.0652898 0.0674723 5.44634e-20)
(-0.108081 0.037324 -4.48109e-20)
(-0.143202 8.48183e-06 0)
(-0.16926 -0.0462041 1.56592e-20)
(-0.180886 -0.103241 -5.58908e-20)
(-0.192756 -0.161908 4.66468e-20)
(-0.148394 -0.240103 -7.42649e-20)
(-0.169855 -0.276466 6.22776e-20)
(-0.0745919 -0.326259 2.06373e-20)
(-0.0391173 0.0900074 -6.96311e-20)
(-0.0646406 0.111647 -8.80253e-22)
(-0.0819482 0.0913671 1.45922e-19)
(-0.0866828 0.0594165 -8.10641e-20)
(-0.0772413 0.0159055 7.12562e-20)
(-0.0224756 -0.0354237 -1.80464e-19)
(-0.00667644 -0.110885 4.94403e-20)
(0.143075 -0.168392 3.72697e-20)
(0.119574 -0.230634 -6.48445e-20)
(0.325721 -0.23725 -3.45075e-20)
(-0.0465861 0.0868059 -7.30214e-20)
(-0.0645866 0.123695 -6.09833e-20)
(-0.0540769 0.113735 -1.02096e-19)
(-0.0136027 0.0865701 4.02714e-20)
(0.0632351 0.0389607 -7.55346e-20)
(0.203298 0.00454691 6.17335e-20)
(0.310942 -0.0771652 1.28383e-21)
(0.559667 -0.0925868 9.78874e-22)
(0.566889 -0.15249 1.13933e-19)
(0.846322 -0.125287 -7.53521e-20)
(-0.0512182 0.067913 0)
(-0.0641338 0.104083 6.11311e-20)
(-0.0179642 0.0976088 1.03169e-19)
(0.0966942 0.0737244 -1.2817e-19)
(0.2944 0.0379206 0)
(0.515487 0.00870473 1.80462e-19)
(0.740869 -0.0174365 -1.43439e-19)
(0.944128 -0.0339357 1.1816e-19)
(1.04696 -0.0509498 -1.05525e-19)
(1.20699 -0.0225822 4.63663e-20)
(-0.229073 -0.310029 -8.49579e-21)
(-0.177305 -0.241425 0)
(-0.136538 -0.134008 1.88919e-22)
(-0.0621021 0.0304513 0)
(0.0283552 0.23409 1.47895e-22)
(0.113117 0.413678 0)
(0.190181 0.523712 3.26597e-21)
(0.158105 0.648751 -3.03831e-21)
(0.15014 0.591859 0)
(0.518245 0.038351 -1.68082e-22)
(0.80438 -0.347183 0)
(0.877429 -0.452502 1.77863e-21)
(0.857146 -0.610861 -7.79299e-23)
(0.876271 -0.541101 -1.11922e-21)
(1.0181 0.0378191 -4.01923e-22)
(1.04921 0.606908 3.50098e-22)
(1.01326 0.608419 0)
(0.95176 0.120623 0)
(0.830485 -0.33855 0)
(0.741204 -0.405788 0)
(0.792326 -0.104444 0)
(0.803921 0.159131 -4.35486e-23)
(0.784578 0.262257 4.07226e-23)
(0.78065 0.170496 -6.06951e-23)
(0.841768 -0.0175581 0)
(-0.146669 -0.328818 -2.98484e-20)
(-0.14304 -0.278628 2.24158e-20)
(-0.168986 -0.191581 -2.1025e-20)
(-0.129045 -0.0432699 1.62914e-20)
(-0.0912037 0.152115 -1.38774e-21)
(-0.0138606 0.327959 -2.43397e-20)
(0.0844566 0.47097 1.06242e-20)
(0.135651 0.630282 0)
(0.338671 0.470511 4.36273e-22)
(0.735236 -0.0974744 1.71092e-22)
(0.903103 -0.402864 0)
(0.895159 -0.456493 -2.27943e-22)
(0.884229 -0.634258 -1.70729e-22)
(0.860617 -0.593281 6.16228e-21)
(0.944175 0.0221035 -8.62053e-21)
(0.992936 0.619968 2.70982e-21)
(0.993786 0.622046 -1.92273e-21)
(0.961601 0.156578 1.49162e-22)
(0.860717 -0.305297 3.04808e-22)
(0.74949 -0.40347 1.2525e-21)
(0.781588 -0.112854 -3.11941e-22)
(0.778545 0.157835 0)
(0.762769 0.261365 0)
(0.787343 0.163287 -3.89412e-24)
(0.856667 -0.0232351 -7.56908e-23)
(0.212291 -0.266369 1.02648e-19)
(0.168313 -0.276722 -9.56644e-21)
(0.076988 -0.224776 -2.99156e-20)
(0.0406832 -0.120433 0)
(0.0143513 0.0507949 -1.32798e-20)
(0.105703 0.210056 1.23168e-20)
(0.179367 0.35944 0)
(0.239326 0.525413 0)
(0.574855 0.358787 -4.53997e-22)
(0.965692 -0.167614 0)
(1.05582 -0.411338 -6.48514e-22)
(1.06189 -0.402182 0)
(0.989211 -0.581941 -5.87321e-21)
(0.890348 -0.616465 -1.14902e-21)
(0.901063 -0.0639064 -7.42337e-22)
(0.943556 0.543605 7.14019e-21)
(0.94066 0.6239 3.93865e-22)
(0.964169 0.213202 2.75561e-22)
(0.907298 -0.25236 0)
(0.766411 -0.389187 1.46527e-22)
(0.760796 -0.119561 -4.96173e-23)
(0.746087 0.156229 0)
(0.740872 0.258032 1.12992e-23)
(0.797872 0.153956 1.47978e-22)
(0.875769 -0.0290288 7.54687e-23)
(0.759379 -0.1506 4.23688e-22)
(0.657322 -0.162516 0)
(0.53069 -0.133841 0)
(0.417762 -0.0833392 -5.13007e-21)
(0.322758 -0.00521974 4.86858e-21)
(0.333072 0.109003 0)
(0.392032 0.28478 1.19277e-23)
(0.453175 0.378324 -1.69291e-22)
(0.787477 0.190144 0)
(1.14313 -0.251193 2.78398e-20)
(1.10856 -0.462149 -2.51023e-20)
(1.11912 -0.395206 0)
(1.03559 -0.531781 -3.21772e-22)
(0.918416 -0.619276 0)
(0.845673 -0.101574 1.43891e-20)
(0.881855 0.520921 -1.37305e-20)
(0.907688 0.622679 -2.95661e-21)
(0.957396 0.227944 4.07754e-21)
(0.940542 -0.218479 -1.81411e-21)
(0.780161 -0.374436 0)
(0.734723 -0.123702 3.93967e-22)
(0.715296 0.15291 -3.12766e-22)
(0.725821 0.249076 -4.26112e-22)
(0.815971 0.140469 8.87262e-23)
(0.897949 -0.0355973 0)
(1.15752 -0.0706904 5.55383e-20)
(1.0922 -0.0656922 -5.14268e-20)
(1.03663 -0.063724 0)
(0.923248 -0.0333167 -9.20446e-23)
(0.818102 0.0172845 -3.82759e-23)
(0.747874 0.0320658 -4.56491e-22)
(0.69965 0.166397 4.08858e-22)
(0.71266 0.303962 -1.68777e-20)
(0.973056 0.171521 4.31619e-20)
(1.29653 -0.159136 -2.52988e-20)
(1.19901 -0.377522 -1.89924e-20)
(1.13328 -0.361311 1.75254e-20)
(1.05405 -0.46465 1.10535e-20)
(0.929787 -0.600621 -2.32643e-20)
(0.792581 -0.19215 1.2344e-20)
(0.770351 0.421887 -3.97605e-22)
(0.811712 0.608982 -4.68132e-21)
(0.914626 0.283037 2.94445e-21)
(0.99272 -0.152237 1.57316e-21)
(0.816572 -0.340744 -5.28498e-22)
(0.714717 -0.128592 5.4172e-22)
(0.684093 0.145851 2.06931e-22)
(0.712846 0.237179 -1.18027e-22)
(0.838449 0.125562 -7.76719e-23)
(0.921332 -0.0417787 0)
(1.21618 0.0050131 0)
(1.16554 9.06546e-05 0)
(1.14979 0.00724378 0)
(1.07167 0.0350129 0)
(1.05042 0.0819908 0)
(1.04626 0.0942796 0)
(0.991903 0.150038 0)
(1.0656 0.18799 0)
(1.21789 0.0462049 0)
(1.38211 -0.171127 0)
(1.2579 -0.310299 0)
(1.14853 -0.283241 0)
(1.09347 -0.399463 0)
(0.893907 -0.582975 0)
(0.810512 -0.201161 0)
(0.75175 0.401122 0)
(0.750579 0.594279 0)
(0.89875 0.263298 0)
(1.02724 -0.131512 0)
(0.852386 -0.301124 0)
(0.70056 -0.119243 0)
(0.666341 0.141412 0)
(0.717125 0.219006 0)
(0.871397 0.106704 0)
(0.946911 -0.0473544 0)
(1.16343 0.0315369 0)
(1.13806 0.0142351 0)
(1.13217 0.00776495 0)
(1.09082 0.0344164 0)
(1.09326 0.0561914 0)
(1.1214 0.0850827 0)
(1.10665 0.117778 0)
(1.22425 0.138402 0)
(1.30363 0.0272032 0)
(1.33437 -0.168438 0)
(1.21519 -0.264413 0)
(1.09001 -0.271972 0)
(1.06458 -0.385799 0)
(0.83533 -0.520434 0)
(0.776087 -0.154387 0)
(0.719387 0.421447 0)
(0.673956 0.577938 0)
(0.881216 0.217852 0)
(1.04305 -0.136548 0)
(0.889126 -0.257446 0)
(0.677933 -0.0871191 0)
(0.642209 0.143132 0)
(0.730173 0.196604 0)
(0.912234 0.0845293 0)
(0.974921 -0.0537037 0)
(1.1415 0.0536455 0)
(1.13821 0.0406143 0)
(1.12551 0.0316199 0)
(1.10994 0.0528614 0)
(1.10266 0.050317 0)
(1.13205 0.0767961 0)
(1.13203 0.0840224 0)
(1.21453 0.0661982 0)
(1.26269 0.00402935 0)
(1.27073 -0.133652 0)
(1.18858 -0.206924 0)
(1.08576 -0.206462 0)
(1.10454 -0.292432 0)
(0.857692 -0.432571 0)
(0.647403 -0.117897 0)
(0.570787 0.456878 0)
(0.613317 0.527959 0)
(0.901607 0.145564 0)
(1.0537 -0.143999 0)
(0.950305 -0.211202 0)
(0.694443 -0.0531045 0)
(0.645613 0.134385 0)
(0.775784 0.159915 0)
(0.971867 0.0582428 0)
(1.00905 -0.0582798 0)
(1.12799 0.0663788 0)
(1.13655 0.0521194 0)
(1.12487 0.0395757 0)
(1.12362 0.0538787 0)
(1.11786 0.0379311 0)
(1.13004 0.0637237 0)
(1.14772 0.0459145 0)
(1.18087 0.0316944 0)
(1.21651 0.00206344 0)
(1.21193 -0.119051 0)
(1.15296 -0.147042 0)
(1.05466 -0.194312 0)
(1.0199 -0.295507 0)
(0.847744 -0.310461 0)
(0.533664 -0.00985687 0)
(0.473068 0.450004 0)
(0.729933 0.437712 0)
(1.02636 0.0717271 0)
(1.06562 -0.152514 0)
(0.970445 -0.155679 0)
(0.759641 -0.000733657 0)
(0.734963 0.122047 0)
(0.882045 0.114131 0)
(1.05101 0.0307587 0)
(1.04633 -0.0609922 0)
(1.1177 0.0680294 0)
(1.13293 0.0589283 0)
(1.12465 0.046185 0)
(1.12899 0.0505806 0)
(1.1265 0.0375192 0)
(1.12831 0.0442869 0)
(1.1506 0.0333926 0)
(1.15046 0.00816395 0)
(1.1817 -0.00682811 0)
(1.16989 -0.0909162 0)
(1.11961 -0.118965 0)
(1.08521 -0.12042 0)
(1.00953 -0.189382 0)
(0.870116 -0.178262 0)
(0.617511 0.0845668 0)
(0.63164 0.362319 0)
(0.946365 0.28907 0)
(1.14479 0.0202497 0)
(1.11019 -0.127021 0)
(1.01041 -0.111287 0)
(0.884668 0.0251199 0)
(0.908086 0.102359 0)
(1.02183 0.073597 0)
(1.12728 0.0163366 0)
(1.07886 -0.0554253 0)
(1.11104 0.0662873 0)
(1.12322 0.0576651 0)
(1.12331 0.0470469 0)
(1.12549 0.0457677 0)
(1.12786 0.0321257 0)
(1.12529 0.0336267 0)
(1.14126 0.0188267 0)
(1.13733 0.000130249 0)
(1.14735 -0.0100286 0)
(1.14642 -0.0674478 0)
(1.09337 -0.0776363 0)
(1.06395 -0.0929372 0)
(1.01062 -0.143207 0)
(0.899287 -0.0956726 0)
(0.782601 0.114443 0)
(0.882486 0.254747 0)
(1.10489 0.185286 0)
(1.18955 0.000574601 0)
(1.12173 -0.0996037 0)
(1.02395 -0.0742813 0)
(0.971116 0.0343554 0)
(1.03423 0.0787731 0)
(1.10671 0.0449627 0)
(1.16324 0.0125953 0)
(1.09588 -0.0470715 0)
(1.1038 0.0614561 0)
(1.11429 0.0547018 0)
(1.11695 0.0462893 0)
(1.11983 0.0413685 0)
(1.12181 0.0319135 0)
(1.11933 0.0266778 0)
(1.12749 0.0172381 0)
(1.12169 0.000503743 0)
(1.1249 -0.00673495 0)
(1.12101 -0.0400729 0)
(1.08491 -0.0502295 0)
(1.07124 -0.0512739 0)
(1.03276 -0.06433 0)
(0.949894 -0.0294032 0)
(0.916463 0.102488 0)
(1.01499 0.168685 0)
(1.14088 0.120166 0)
(1.18076 0.0116657 0)
(1.12286 -0.0503389 0)
(1.04705 -0.0438861 0)
(1.02554 0.0242866 0)
(1.0868 0.055348 0)
(1.12749 0.0278625 0)
(1.16652 0.0190684 0)
(1.10452 -0.0319279 0)
(1.10085 0.0521012 0)
(1.10834 0.0463465 0)
(1.11226 0.0397188 0)
(1.11432 0.0341281 0)
(1.11598 0.0263587 0)
(1.11445 0.0202091 0)
(1.11697 0.0126046 0)
(1.11397 0.000488726 0)
(1.11036 -0.00434775 0)
(1.10692 -0.0248759 0)
(1.08426 -0.0276696 0)
(1.06995 -0.0313629 0)
(1.04776 -0.0340008 0)
(1.00437 -0.00967205 0)
(0.997352 0.0651894 0)
(1.06323 0.0986948 0)
(1.1322 0.0809404 0)
(1.15312 0.0124041 0)
(1.11961 -0.0292334 0)
(1.07474 -0.0278223 0)
(1.05836 0.0123307 0)
(1.10249 0.0326764 0)
(1.12571 0.0105435 0)
(1.15965 0.0187347 0)
(1.10971 -0.0246548 0)
(1.09972 0.0508514 0)
(1.10537 0.0461531 0)
(1.10863 0.0415302 0)
(1.11044 0.0359992 0)
(1.11116 0.0310585 0)
(1.11013 0.0244852 0)
(1.11019 0.0200786 0)
(1.10777 0.0106532 0)
(1.10451 0.00753291 0)
(1.1019 -0.00351078 0)
(1.08879 -0.00493635 0)
(1.08104 -0.0063093 0)
(1.06829 -0.000897601 0)
(1.04902 0.0117573 0)
(1.04761 0.0532189 0)
(1.08165 0.0671304 0)
(1.11843 0.0605583 0)
(1.13678 0.0213674 0)
(1.1177 -0.00177998 0)
(1.09377 -0.00686595 0)
(1.08221 0.0106626 0)
(1.11307 0.0249842 0)
(1.12253 0.00359715 0)
(1.15466 0.0261544 0)
(1.11808 -0.00848487 0)
(1.10404 0.0371879 0)
(1.10855 0.0332661 0)
(1.11142 0.0298768 0)
(1.11339 0.0251238 0)
(1.11385 0.0215857 0)
(1.11394 0.0161139 0)
(1.11302 0.0132131 0)
(1.11233 0.00645653 0)
(1.10911 0.00496259 0)
(1.10743 -0.00239274 0)
(1.1 -0.00199722 0)
(1.09532 -0.00428047 0)
(1.08797 0.00122784 0)
(1.08186 0.00589942 0)
(1.08095 0.028425 0)
(1.10065 0.0328833 0)
(1.11985 0.0352302 0)
(1.13265 0.0123366 0)
(1.12237 -0.00174871 0)
(1.11379 -0.00725962 0)
(1.1026 -0.00213213 0)
(1.12351 0.00777484 0)
(1.12281 -0.012832 0)
(1.15356 0.0180304 0)
(1.12768 -0.00786714 0)
(1.10924 0.0433864 0)
(1.1128 0.0403542 0)
(1.11526 0.0382097 0)
(1.11736 0.0343781 0)
(1.11799 0.0321596 0)
(1.11877 0.0277315 0)
(1.11818 0.0259735 0)
(1.1186 0.0210368 0)
(1.11673 0.0202464 0)
(1.11705 0.0153634 0)
(1.11329 0.0165293 0)
(1.11283 0.0137287 0)
(1.10878 0.0193723 0)
(1.10888 0.0191631 0)
(1.10785 0.0324451 0)
(1.11855 0.0318046 0)
(1.12595 0.035191 0)
(1.13662 0.0218097 0)
(1.13024 0.0144934 0)
(1.13003 0.00969772 0)
(1.12114 0.00513623 0)
(1.13705 0.0144766 0)
(1.13044 -0.0117585 0)
(1.1581 0.0233615 0)
(1.14212 0.00891984 0)
(1.1222 0.0198333 0)
(1.12546 0.0175668 0)
(1.12736 0.0162901 0)
(1.12967 0.0133883 0)
(1.13014 0.0122022 0)
(1.13176 0.00881285 0)
(1.13123 0.00819674 0)
(1.13287 0.00444535 0)
(1.1314 0.00484009 0)
(1.13328 0.0009522 0)
(1.13062 0.00288934 0)
(1.13268 -0.000396151 0)
(1.12957 0.00430485 0)
(1.13306 0.00172204 0)
(1.13127 0.010282 0)
(1.14011 0.00715731 0)
(1.14129 0.0122848 0)
(1.15191 0.00466776 0)
(1.14557 0.000943298 0)
(1.1513 -0.00201821 0)
(1.14029 -0.0104572 0)
(1.15495 -0.00109926 0)
(1.13948 -0.0293523 0)
(1.16162 0.00647156 0)
(1.15813 0.0011887 0)
(1.15039 0.035774 0)
(1.15303 0.0340088 0)
(1.15464 0.0331155 0)
(1.15723 0.0308654 0)
(1.15797 0.0300292 0)
(1.16034 0.0274071 0)
(1.16014 0.0269531 0)
(1.16281 0.0239681 0)
(1.16178 0.0243718 0)
(1.16515 0.0210259 0)
(1.16326 0.0228562 0)
(1.16744 0.0192009 0)
(1.16485 0.0230895 0)
(1.17039 0.0194375 0)
(1.16755 0.0247613 0)
(1.17618 0.0214385 0)
(1.17286 0.0243521 0)
(1.18403 0.0204094 0)
(1.17702 0.0170963 0)
(1.18555 0.0180062 0)
(1.1749 0.00412924 0)
(1.18904 0.0179635 0)
(1.1696 -0.0115689 0)
(1.18767 0.00876325 0)
(1.19214 0.0150994 0)
(1.17438 -0.00183606 0)
(1.17712 -0.00280451 0)
(1.17816 -0.00283866 0)
(1.18104 -0.0041496 0)
(1.18134 -0.00409584 0)
(1.18442 -0.00570845 0)
(1.18396 -0.00530004 0)
(1.18753 -0.00731857 0)
(1.18628 -0.00612526 0)
(1.19078 -0.00878226 0)
(1.1884 -0.00616881 0)
(1.19451 -0.0096232 0)
(1.19035 -0.00527032 0)
(1.19931 -0.00890687 0)
(1.19317 -0.00404226 0)
(1.2056 -0.00660734 0)
(1.19828 -0.00331906 0)
(1.2126 -0.00533534 0)
(1.20289 -0.00556231 0)
(1.21866 -0.00261058 0)
(1.20231 -0.0183502 0)
(1.21872 0.00133391 0)
(1.20462 -0.0295405 0)
(1.20037 -0.0187581 0)
(1.21213 -0.00392192 0)
(1.29096 0.0237265 0)
(1.29369 0.0230168 0)
(1.29382 0.0230651 0)
(1.29731 0.0219189 0)
(1.29662 0.0222741 0)
(1.30105 0.0206896 0)
(1.29899 0.0213058 0)
(1.3048 0.0195818 0)
(1.30079 0.0200875 0)
(1.3087 0.0188017 0)
(1.30213 0.0186682 0)
(1.31303 0.0180805 0)
(1.30315 0.0175538 0)
(1.3181 0.0164495 0)
(1.30396 0.0176495 0)
(1.32447 0.0148234 0)
(1.30559 0.0163142 0)
(1.33141 0.0176031 0)
(1.31002 0.00977134 0)
(1.33334 0.0228174 0)
(1.32164 0.00887551 0)
(1.32433 0.0149154 0)
(1.33312 0.0188311 0)
(1.3144 0.00283952 0)
(1.31603 0.00572127 0)
(1.12388 0.160571 6.21064e-22)
(1.14524 0.147736 3.10175e-20)
(1.18885 0.116984 -7.26871e-20)
(1.12886 0.0843519 -3.269e-22)
(1.19569 0.0331093 0)
(1.14407 0.153933 2.56165e-21)
(1.10112 0.137749 -1.22576e-20)
(1.17202 0.111398 2.85049e-20)
(1.12772 0.0979355 2.59819e-20)
(1.13681 0.0454756 -3.15706e-20)
(1.13267 0.131612 0)
(1.09852 0.121881 2.3334e-22)
(1.1337 0.0974798 1.4591e-20)
(1.13284 0.0999247 -2.30317e-20)
(1.12392 0.0624288 5.93658e-21)
(1.10641 0.117761 6.67535e-23)
(1.10369 0.116253 4.02139e-21)
(1.10843 0.0901889 -1.28484e-20)
(1.12492 0.100152 1.11183e-20)
(1.12093 0.0734356 1.86881e-20)
(1.09021 0.103579 0)
(1.10144 0.103459 -3.43568e-21)
(1.09766 0.0847213 2.21864e-22)
(1.10958 0.0889685 -1.65347e-20)
(1.11233 0.0765022 0)
(1.08485 0.0921491 -3.01577e-22)
(1.09428 0.089783 1.49444e-22)
(1.09231 0.0781818 1.59736e-23)
(1.09901 0.0776197 5.78814e-21)
(1.10334 0.071751 -1.657e-22)
(1.085 0.0825541 2.91309e-22)
(1.09038 0.0777195 0)
(1.08991 0.0724556 4.9081e-22)
(1.0941 0.0684195 0)
(1.09675 0.0666972 -2.06444e-21)
(1.08791 0.0708714 7.10687e-24)
(1.09132 0.066006 -2.12304e-22)
(1.09072 0.062591 -4.27712e-22)
(1.0943 0.0582424 0)
(1.0945 0.0563185 1.77918e-21)
(1.09093 0.0653333 -5.76524e-23)
(1.0938 0.0610358 2.34048e-22)
(1.09258 0.0590315 4.88877e-22)
(1.09569 0.0553069 -2.77628e-23)
(1.09484 0.0541742 7.68217e-22)
(1.09692 0.0492088 0)
(1.09959 0.0460205 0)
(1.09826 0.0440298 -1.26697e-21)
(1.10129 0.0412919 0)
(1.10011 0.039718 -2.06117e-21)
(1.10444 0.0518037 0)
(1.10697 0.0494243 2.13331e-22)
(1.1057 0.0480012 -6.67072e-22)
(1.10793 0.0460553 -7.01111e-22)
(1.10643 0.0450596 1.22359e-21)
(1.11777 0.025638 0)
(1.12012 0.0239546 2.26351e-22)
(1.11874 0.0229048 -1.32367e-22)
(1.1211 0.0215933 8.06388e-22)
(1.11968 0.0208713 -7.4113e-22)
(1.14739 0.0403682 -2.50762e-22)
(1.1497 0.0393156 5.07481e-22)
(1.14877 0.0382656 1.41347e-21)
(1.15045 0.0374576 2.52654e-24)
(1.14889 0.0365077 8.18936e-22)
(1.16977 -0.00122362 2.35533e-22)
(1.17223 -0.00174254 -5.44529e-24)
(1.17196 -0.00180572 -1.09627e-21)
(1.1738 -0.00200546 4.42092e-22)
(1.17299 -0.00182328 -4.25535e-22)
(1.28698 0.0259511 0)
(1.28865 0.0256878 0)
(1.28936 0.0250096 -2.04928e-22)
(1.29029 0.0247762 0)
(1.29054 0.0238606 0)
(0.980243 0.250162 1.24734e-20)
(0.973568 0.27097 -1.48474e-20)
(0.94786 0.294769 7.80567e-21)
(0.930694 0.329755 -1.62152e-20)
(0.927218 0.37784 7.26628e-21)
(0.926754 0.43239 0)
(0.916343 0.4987 0)
(0.911698 0.581949 -2.39667e-20)
(0.896063 0.669737 1.20493e-22)
(0.634523 0.586798 0)
(0.985505 0.238072 1.13312e-21)
(0.998579 0.269204 0)
(1.00573 0.301112 -4.03902e-21)
(1.00845 0.336863 -7.42731e-21)
(1.00957 0.379387 -1.63432e-20)
(1.01156 0.42799 4.90393e-21)
(1.0168 0.489183 -1.03791e-20)
(1.03465 0.570084 3.68079e-20)
(1.02996 0.628933 2.89255e-20)
(0.711905 0.509244 -7.00496e-20)
(1.05903 0.244521 -1.48834e-20)
(1.05473 0.266577 9.85539e-21)
(1.05157 0.289362 -7.71698e-21)
(1.05276 0.321408 -1.74892e-20)
(1.06899 0.363437 4.84305e-20)
(1.09254 0.410047 -2.30447e-20)
(1.11211 0.460248 4.87296e-20)
(1.13371 0.523817 -9.83116e-20)
(1.11441 0.552184 -1.50425e-20)
(0.720995 0.396925 7.64818e-20)
(1.05947 0.224459 -1.40757e-21)
(1.08905 0.248377 -3.39036e-21)
(1.10744 0.276619 2.1255e-20)
(1.12291 0.305171 -1.88937e-20)
(1.13584 0.336551 2.26359e-20)
(1.15244 0.371848 -1.02805e-20)
(1.17882 0.413282 0)
(1.20665 0.46194 4.78746e-20)
(1.14221 0.455346 -5.81939e-20)
(0.649731 0.270073 -2.31624e-20)
(1.1373 0.219694 7.18476e-21)
(1.1373 0.229929 6.24188e-21)
(1.14028 0.247981 -7.4423e-21)
(1.14752 0.271219 0)
(1.17349 0.301183 0)
(1.20917 0.33248 1.03017e-20)
(1.23822 0.361718 0)
(1.23143 0.383298 0)
(1.08249 0.346458 0)
(0.481176 0.145111 -2.34006e-20)
(0.813408 0.0808154 -7.2493e-23)
(0.784334 0.0839646 1.01067e-20)
(0.747557 0.0884542 -1.20519e-20)
(0.70438 0.0940932 0)
(0.64901 0.101263 0)
(0.584522 0.110528 -1.45072e-20)
(0.499753 0.122926 0)
(0.402223 0.138567 0)
(0.260896 0.162449 0)
(0.096038 0.148527 2.13439e-20)
(0.827212 0.124109 2.02702e-20)
(0.801495 0.133767 -3.7024e-20)
(0.767556 0.147049 4.41499e-20)
(0.727795 0.163672 -3.25907e-20)
(0.67864 0.18464 3.90491e-20)
(0.621825 0.210231 1.44699e-20)
(0.546192 0.243936 0)
(0.458465 0.285137 4.96942e-20)
(0.327884 0.345804 -6.03826e-20)
(0.152538 0.321315 -6.0164e-20)
(0.850666 0.167105 -2.25454e-20)
(0.831225 0.181885 3.14551e-20)
(0.800985 0.201162 -5.47831e-20)
(0.761375 0.224668 -7.69312e-20)
(0.715135 0.255867 1.0073e-19)
(0.66928 0.295474 -4.28484e-20)
(0.609159 0.347232 5.983e-20)
(0.542887 0.410297 -1.0976e-19)
(0.436773 0.50189 8.21502e-22)
(0.24844 0.468304 5.42071e-20)
(0.880323 0.19957 2.79814e-20)
(0.869876 0.221656 -4.58719e-20)
(0.85479 0.250251 1.72864e-20)
(0.829435 0.280956 6.81984e-21)
(0.78653 0.316114 -7.15108e-20)
(0.743719 0.361687 2.9801e-20)
(0.698168 0.425237 -1.51739e-22)
(0.654144 0.501833 4.71785e-20)
(0.579541 0.610107 -1.39534e-20)
(0.3756 0.569332 -2.14227e-20)
(0.920494 0.221171 -2.59409e-20)
(0.899287 0.239216 3.0874e-20)
(0.88055 0.272384 -2.00139e-20)
(0.876904 0.314954 6.42888e-20)
(0.864487 0.360753 -9.43105e-21)
(0.836967 0.409606 0)
(0.802172 0.476248 1.55915e-20)
(0.780583 0.56131 -1.88654e-20)
(0.739713 0.667063 1.39852e-20)
(0.512618 0.609949 0)
(0.981819 0.154784 4.99438e-22)
(0.982105 0.148405 2.7476e-22)
(0.982196 0.121144 1.6189e-22)
(0.974007 0.117077 -1.83372e-22)
(0.974962 0.0958743 2.15909e-22)
(0.968868 0.0958135 0)
(0.969729 0.0825908 0)
(0.962115 0.0809425 -2.03392e-22)
(0.956124 0.0752167 1.06485e-21)
(0.944135 0.0730271 -2.5789e-21)
(0.930559 0.0726099 -2.04269e-22)
(0.912465 0.0711262 4.28892e-21)
(0.89258 0.0737443 -2.43286e-21)
(0.868152 0.0739835 2.18505e-22)
(0.841895 0.0789792 -5.05485e-21)
(0.980798 0.156616 -9.6276e-22)
(0.978794 0.145359 -3.10319e-22)
(0.982661 0.125014 1.33201e-21)
(0.97352 0.114355 -3.55511e-22)
(0.975868 0.100564 7.28956e-22)
(0.969353 0.0926595 -7.90191e-22)
(0.970292 0.0885291 -3.31773e-22)
(0.962859 0.0801723 2.0642e-22)
(0.95715 0.0840753 -2.56044e-22)
(0.94618 0.0771717 -5.82566e-21)
(0.933299 0.0863098 6.27941e-21)
(0.916513 0.082839 8.76494e-21)
(0.898078 0.0962246 -2.20687e-20)
(0.875569 0.0983505 -1.80271e-21)
(0.851623 0.117283 -1.44943e-21)
(0.98227 0.15854 4.93183e-22)
(0.974483 0.142746 0)
(0.983417 0.127612 -6.567e-22)
(0.973647 0.111977 -4.25476e-22)
(0.976397 0.103397 0)
(0.970482 0.0902509 -2.94736e-22)
(0.969702 0.092544 3.4138e-22)
(0.963347 0.0803139 0)
(0.956274 0.0918029 -9.27625e-21)
(0.946798 0.0830117 1.09783e-20)
(0.933448 0.100608 0)
(0.919513 0.0973761 2.73724e-22)
(0.903072 0.120666 0)
(0.885752 0.125037 -2.83631e-20)
(0.86667 0.156341 6.69505e-20)
(0.983221 0.160568 0)
(0.974552 0.139943 6.11285e-23)
(0.980483 0.130008 7.62047e-22)
(0.977586 0.108943 0)
(0.97535 0.106669 2.11266e-21)
(0.973377 0.087321 -2.11234e-21)
(0.96921 0.0969397 0)
(0.964827 0.078436 -4.61063e-22)
(0.956341 0.0979264 8.40422e-22)
(0.949387 0.0835888 1.13351e-20)
(0.935914 0.109618 -1.34193e-20)
(0.926309 0.104072 -1.79881e-20)
(0.911774 0.138126 -1.37834e-21)
(0.900359 0.142488 2.52479e-20)
(0.888249 0.187216 2.07054e-22)
(0.982787 0.162311 0)
(0.976196 0.138013 -7.2699e-22)
(0.980437 0.130182 0)
(0.978189 0.106335 0)
(0.977612 0.107461 0)
(0.974646 0.0863513 -3.3613e-22)
(0.969566 0.099716 0)
(0.965701 0.0812224 4.94312e-22)
(0.95575 0.104217 9.85248e-21)
(0.949583 0.0936668 -1.17318e-20)
(0.938432 0.122794 -1.52275e-20)
(0.931341 0.120911 1.75557e-20)
(0.924019 0.159489 2.10114e-20)
(0.918674 0.164031 -4.73955e-20)
(0.920204 0.21513 2.64545e-20)
(0.98301 0.163319 0)
(0.975882 0.136573 0)
(0.981783 0.132245 0)
(0.980557 0.104053 0)
(0.976207 0.109296 0)
(0.980398 0.0841661 0)
(0.967671 0.101016 0)
(0.971434 0.0786214 0)
(0.956682 0.105548 0)
(0.958498 0.0908383 0)
(0.943208 0.127149 0)
(0.94758 0.116925 0)
(0.938278 0.167146 0)
(0.948091 0.159095 0)
(0.953787 0.222803 0)
(0.983466 0.164739 0)
(0.978416 0.134976 0)
(0.978879 0.133763 0)
(0.987328 0.10298 0)
(0.975987 0.111141 0)
(0.98198 0.0833712 0)
(0.973373 0.104366 0)
(0.968584 0.0792899 0)
(0.96888 0.110012 0)
(0.95612 0.0935258 0)
(0.962029 0.13005 0)
(0.95187 0.119736 0)
(0.964682 0.16328 0)
(0.959762 0.15593 0)
(0.983574 0.199149 0)
(0.979836 0.166088 0)
(0.985636 0.133671 0)
(0.977043 0.135094 0)
(0.988639 0.100612 0)
(0.985522 0.11471 0)
(0.979616 0.0821982 0)
(0.985227 0.107486 0)
(0.968435 0.0813851 0)
(0.980918 0.112489 0)
(0.959563 0.0966308 0)
(0.977455 0.129447 0)
(0.963819 0.120319 0)
(0.982396 0.155714 0)
(0.979123 0.147612 0)
(0.998402 0.180438 0)
(0.975709 0.16729 0)
(0.987674 0.131327 0)
(0.981654 0.137731 0)
(0.98488 0.0961889 0)
(0.990271 0.11733 0)
(0.984731 0.0828814 0)
(0.989539 0.107682 0)
(0.980992 0.0853468 0)
(0.984671 0.112941 0)
(0.976726 0.0994325 0)
(0.984154 0.125397 0)
(0.983963 0.118615 0)
(0.992785 0.145312 0)
(1.00099 0.137325 0)
(1.00908 0.163071 0)
(0.975823 0.169205 0)
(0.987669 0.127519 0)
(0.984045 0.140803 0)
(0.98922 0.0935892 0)
(0.984453 0.116131 0)
(0.993155 0.0846521 0)
(0.987744 0.105796 0)
(0.993196 0.0887624 0)
(0.987766 0.112015 0)
(0.994081 0.100666 0)
(0.992776 0.120444 0)
(1.00074 0.114457 0)
(1.00467 0.134031 0)
(1.01624 0.126427 0)
(1.02076 0.145312 0)
(0.976407 0.17038 0)
(0.99231 0.124372 0)
(0.982175 0.141835 0)
(0.999754 0.0948912 0)
(0.983193 0.113098 0)
(0.999441 0.0861362 0)
(0.989356 0.102996 0)
(1.00111 0.0899699 0)
(0.994691 0.108802 0)
(1.00705 0.0997743 0)
(1.00446 0.11422 0)
(1.01444 0.108702 0)
(1.01691 0.12246 0)
(1.02825 0.115563 0)
(1.03153 0.1283 0)
(0.975551 0.171191 0)
(0.996711 0.121526 0)
(0.981418 0.13999 0)
(1.00684 0.0964247 0)
(0.989998 0.110539 0)
(1.00578 0.0870827 0)
(0.996776 0.100119 0)
(1.00973 0.0890898 0)
(1.00494 0.103835 0)
(1.01855 0.0964297 0)
(1.01701 0.107439 0)
(1.02745 0.102114 0)
(1.02884 0.111922 0)
(1.03981 0.105813 0)
(1.04169 0.113942 0)
(0.975199 0.170301 0)
(0.998012 0.120918 0)
(0.983573 0.134694 0)
(1.00955 0.0974075 0)
(0.997718 0.106045 0)
(1.01279 0.0876883 0)
(1.00669 0.0951187 0)
(1.01979 0.0861441 0)
(1.01672 0.0953 0)
(1.02982 0.0899804 0)
(1.02936 0.0968076 0)
(1.04017 0.0925339 0)
(1.04098 0.0983091 0)
(1.05159 0.0935386 0)
(1.05297 0.0977019 0)
(0.976007 0.168531 0)
(0.999247 0.120234 0)
(0.988129 0.128476 0)
(1.01193 0.0971805 0)
(1.00438 0.102424 0)
(1.01968 0.0878613 0)
(1.01616 0.092898 0)
(1.02944 0.0847668 0)
(1.02781 0.0910066 0)
(1.03988 0.0861726 0)
(1.04015 0.0910593 0)
(1.05066 0.0868415 0)
(1.05133 0.09073 0)
(1.061 0.0864076 0)
(1.06191 0.0890616 0)
(0.976698 0.165155 0)
(1.00225 0.119842 0)
(0.995136 0.118175 0)
(1.01778 0.0922152 0)
(1.01368 0.0907811 0)
(1.02974 0.0784864 0)
(1.02809 0.0795166 0)
(1.04151 0.0725103 0)
(1.04106 0.0747952 0)
(1.05243 0.0706148 0)
(1.05304 0.0725719 0)
(1.063 0.0690108 0)
(1.06378 0.0704773 0)
(1.07257 0.0671245 0)
(1.07339 0.0679939 0)
(0.977996 0.160023 0)
(1.00461 0.12051 0)
(1.00222 0.11457 0)
(1.02303 0.0950295 0)
(1.02268 0.0920875 0)
(1.03886 0.0817068 0)
(1.03955 0.081699 0)
(1.05259 0.075625 0)
(1.05361 0.0766032 0)
(1.06413 0.0725637 0)
(1.0653 0.0734678 0)
(1.07426 0.0700645 0)
(1.07528 0.0707316 0)
(1.08286 0.0676534 0)
(1.08356 0.0680363 0)
(0.978233 0.149096 0)
(1.0131 0.105866 0)
(1.01538 0.09106 0)
(1.03774 0.0717997 0)
(1.03824 0.0656669 0)
(1.05532 0.0552338 0)
(1.05642 0.0531493 0)
(1.06978 0.0472563 0)
(1.07065 0.0467578 0)
(1.08113 0.0429865 0)
(1.08186 0.0429623 0)
(1.09062 0.0400425 0)
(1.09116 0.0401194 0)
(1.09836 0.0376585 0)
(1.09838 0.0377044 0)
(0.978742 0.145827 0)
(1.0239 0.112721 0)
(1.03458 0.0981102 0)
(1.05908 0.0834207 0)
(1.06385 0.0764814 0)
(1.08165 0.0684335 0)
(1.0855 0.064987 0)
(1.09883 0.0604372 0)
(1.1014 0.0587411 0)
(1.11147 0.0558455 0)
(1.11322 0.054897 0)
(1.12121 0.0527122 0)
(1.12234 0.0520214 0)
(1.12864 0.0502337 0)
(1.12905 0.0496617 0)
(0.98048 0.0961885 0)
(1.03976 0.0589104 0)
(1.05474 0.0425704 0)
(1.08019 0.026922 0)
(1.08627 0.0213776 0)
(1.10407 0.0142369 0)
(1.10883 0.0127266 0)
(1.12199 0.00915239 0)
(1.12495 0.00905179 0)
(1.13466 0.00678481 0)
(1.13652 0.00712115 0)
(1.14406 0.00539857 0)
(1.14512 0.00574849 0)
(1.15089 0.00429572 0)
(1.15113 0.00458862 0)
(0.982558 0.105244 0)
(1.13143 0.0786159 0)
(1.15817 0.0608967 0)
(1.18869 0.0512757 0)
(1.20257 0.0437012 0)
(1.22165 0.0400847 0)
(1.2302 0.0362318 0)
(1.24256 0.0346769 0)
(1.2473 0.0327399 0)
(1.25566 0.0320037 0)
(1.25845 0.0305142 0)
(1.26443 0.0302227 0)
(1.26609 0.0290493 0)
(1.27038 0.0289213 0)
(1.27123 0.0280089 0)
(0.973654 0.21395 0)
(1.00655 0.198443 -2.44138e-23)
(1.06172 0.204233 1.54648e-20)
(1.06738 0.185632 -7.68506e-21)
(1.1253 0.189264 -4.12175e-22)
(0.98292 0.189959 -6.3774e-21)
(1.0397 0.19181 -3.72369e-22)
(1.05003 0.18952 -6.67503e-21)
(1.09848 0.179375 5.26113e-21)
(1.08891 0.173824 -2.0805e-21)
(1.00402 0.169824 1.4271e-21)
(1.04882 0.175058 2.95662e-22)
(1.05089 0.160361 -4.72799e-21)
(1.10419 0.155922 -4.48732e-21)
(1.07899 0.143882 0)
(1.0245 0.151515 3.52833e-21)
(1.04865 0.15781 -4.29897e-22)
(1.06285 0.141869 3.98702e-21)
(1.09016 0.142034 -2.4443e-21)
(1.08545 0.128727 4.95162e-23)
(1.03711 0.135154 0)
(1.05179 0.138939 4.41614e-22)
(1.06981 0.124666 3.74234e-23)
(1.07815 0.124488 2.15178e-21)
(1.08977 0.112254 0)
(1.04607 0.120038 2.97411e-23)
(1.05777 0.121114 -1.35687e-22)
(1.07229 0.109517 -3.05372e-23)
(1.0753 0.108951 7.48101e-23)
(1.08779 0.0985969 1.7619e-22)
(1.0543 0.107291 -2.00627e-21)
(1.06425 0.1059 0)
(1.07476 0.0971746 1.92144e-22)
(1.07737 0.0953221 -1.69893e-24)
(1.08612 0.0868499 -2.18893e-22)
(1.06436 0.092594 1.7286e-21)
(1.07269 0.089936 -1.52215e-21)
(1.08019 0.0836792 -1.6744e-22)
(1.08255 0.0807799 4.37267e-22)
(1.08798 0.0745648 -5.22369e-23)
(1.07176 0.0844416 1.28175e-22)
(1.0784 0.0810843 1.19957e-21)
(1.0847 0.0760369 -9.01725e-22)
(1.0866 0.0729453 -3.02331e-22)