/*--------------------------------*- C++ -*----------------------------------*\
| =========                 |                                                 |
| \\      /  F ield         | OpenFOAM: The Open Source CFD Toolbox           |
|  \\    /   O peration     | Version:  2312                                  |
|   \\  /    A nd           | Website:  www.openfoam.com                      |
|    \\/     M anipulation  |                                                 |
\*---------------------------------------------------------------------------*/
FoamFile
{
    version     2.0;
    format      ascii;
    arch        "LSB;label=32;scalar=64";
    class       volScalarField;
    location    "33.05";
    object      p;
}
// * * * * * * * * * * * * * * * * * * * * * * * * * * * * * * * * * * * * * //

dimensions      [0 2 -2 0 0 0 0];

internalField   nonuniform List<scalar> 
5478
(
-0.265824
-0.264672
-0.260279
-0.253858
-0.24746
-0.242396
-0.239723
-0.239997
-0.242943
-0.24761
-0.253047
-0.257345
-0.26046
-0.259844
-0.256983
-0.272145
-0.270202
-0.26571
-0.25997
-0.25395
-0.248564
-0.244441
-0.241874
-0.240652
-0.2401
-0.239373
-0.237907
-0.235534
-0.231876
-0.22809
-0.282645
-0.278984
-0.273959
-0.26807
-0.261601
-0.254689
-0.247825
-0.241472
-0.235724
-0.230425
-0.225448
-0.220557
-0.215578
-0.209944
-0.203991
-0.296983
-0.291069
-0.284727
-0.277768
-0.269285
-0.259283
-0.248706
-0.238428
-0.228915
-0.22033
-0.212436
-0.205004
-0.197697
-0.190369
-0.183656
-0.315744
-0.306949
-0.298751
-0.289097
-0.276454
-0.261931
-0.247248
-0.233448
-0.220933
-0.209663
-0.199478
-0.190157
-0.181406
-0.173263
-0.165405
-0.339521
-0.326755
-0.315889
-0.300996
-0.282084
-0.262212
-0.243413
-0.226424
-0.211335
-0.19801
-0.186162
-0.175488
-0.165716
-0.15673
-0.148159
-0.36761
-0.349869
-0.333587
-0.3107
-0.284386
-0.259054
-0.236383
-0.216577
-0.199372
-0.18438
-0.171237
-0.159634
-0.149323
-0.140145
-0.131419
-0.395234
-0.373497
-0.347761
-0.314915
-0.281233
-0.250935
-0.224883
-0.202712
-0.18382
-0.167669
-0.153769
-0.141742
-0.131344
-0.12226
-0.114033
-0.28213
-0.283067
-0.283437
-0.284604
-0.287017
-0.290901
-0.29652
-0.304235
-0.31449
-0.327779
-0.344602
-0.36534
-0.390088
-0.418287
-0.449699
-0.28131
-0.281044
-0.280727
-0.281262
-0.283133
-0.286666
-0.292236
-0.300338
-0.311542
-0.326411
-0.345459
-0.368924
-0.396879
-0.429223
-0.463294
-0.280098
-0.278647
-0.277576
-0.277221
-0.278173
-0.28087
-0.285761
-0.293405
-0.304444
-0.319411
-0.338675
-0.362814
-0.390287
-0.423369
-0.456341
-0.277822
-0.275493
-0.273519
-0.271915
-0.271404
-0.272635
-0.276164
-0.282569
-0.29242
-0.306516
-0.324137
-0.347879
-0.372757
-0.404375
-0.434776
-0.27437
-0.271717
-0.268799
-0.265559
-0.262996
-0.262104
-0.263629
-0.268274
-0.276332
-0.289277
-0.305034
-0.327811
-0.350951
-0.380265
-0.407895
-0.270204
-0.267843
-0.264116
-0.259121
-0.254233
-0.250881
-0.250148
-0.253011
-0.2598
-0.271769
-0.287312
-0.30852
-0.330729
-0.356066
-0.379249
-0.266254
-0.264575
-0.260278
-0.25389
-0.247184
-0.242017
-0.23992
-0.242006
-0.248733
-0.25969
-0.274484
-0.291798
-0.310297
-0.329393
-0.345986
-0.264121
-0.262984
-0.258525
-0.251585
-0.244445
-0.238954
-0.236658
-0.238344
-0.244075
-0.252768
-0.264113
-0.275438
-0.286725
-0.296415
-0.304287
-0.507294
-0.584948
-0.646263
-0.669423
-0.641409
-0.546162
-0.401948
-0.231489
-0.0964942
-0.00926179
0.0459741
0.0399232
0.0381863
0.0402475
0.041412
0.0418794
0.040492
0.0364062
0.0323394
0.0274461
0.0222528
0.0185402
0.0146558
0.0115471
0.0098824
0.0074256
0.00601758
0.00526813
0.00388803
0.00331087
0.00286707
0.00222807
0.00162498
0.00128106
0.00111233
0.000658409
0.000182382
7.29043e-05
-0.524676
-0.600718
-0.658366
-0.675504
-0.639575
-0.539196
-0.390035
-0.223991
-0.0854539
0.0109486
0.0697897
0.0647898
0.0502663
0.0431186
0.0389712
0.0398647
0.0385596
0.0356762
0.0326657
0.0276433
0.0229339
0.0189897
0.0148778
0.0119378
0.0100199
0.00751156
0.00613689
0.00531322
0.00393183
0.00335449
0.00290545
0.0022375
0.00161716
0.00135163
0.00109592
0.000642465
0.000225716
7.50179e-05
-0.513067
-0.587398
-0.640469
-0.658447
-0.621034
-0.52094
-0.375981
-0.22334
-0.0929309
0.00213313
0.0653358
0.0694408
0.0540085
0.0427144
0.034432
0.0367422
0.0362194
0.0345201
0.0325398
0.0276698
0.0234687
0.019366
0.0151687
0.0124149
0.0101022
0.00767358
0.00629279
0.00531504
0.0040074
0.00340597
0.00292963
0.00224037
0.00162446
0.00141429
0.00107882
0.000630696
0.000266584
7.69385e-05
-0.484008
-0.55602
-0.606015
-0.622003
-0.584236
-0.48999
-0.36027
-0.229277
-0.11335
-0.0219741
0.0435766
0.0580133
0.0488842
0.0383258
0.0299713
0.0331248
0.0336674
0.0329926
0.0317482
0.0272848
0.0236415
0.0195073
0.0154227
0.0128065
0.0101464
0.00788381
0.00645314
0.00528018
0.00410505
0.00346004
0.00293842
0.0022357
0.00164841
0.00146494
0.00106178
0.000625371
0.000303025
7.85863e-05
-0.446675
-0.515199
-0.560618
-0.572032
-0.537347
-0.455814
-0.344984
-0.234246
-0.135272
-0.0511014
0.0169671
0.0420037
0.0415348
0.0343871
0.0268181
0.0296615
0.0309728
0.0310317
0.0303671
0.0265392
0.0233944
0.0194143
0.0155795
0.0130051
0.0101674
0.00807398
0.0065798
0.00523151
0.00419901
0.0035085
0.002935
0.0022248
0.00168502
0.00150143
0.00104591
0.000627717
0.000333038
7.99241e-05
-0.405524
-0.455948
-0.501646
-0.510282
-0.481072
-0.41663
-0.328218
-0.236554
-0.149875
-0.0737429
-0.00907196
0.0248388
0.0320659
0.0294897
0.0242231
0.0264109
0.0280323
0.0286487
0.0284052
0.0253595
0.0226475
0.0190312
0.0155432
0.0130182
0.0101826
0.00821485
0.00666207
0.00519735
0.00427302
0.00354768
0.00292482
0.00221187
0.00172919
0.00152308
0.00103174
0.000638667
0.000355121
8.09664e-05
-0.361444
-0.400989
-0.435321
-0.448556
-0.43231
-0.386909
-0.318167
-0.238888
-0.162507
-0.0908198
-0.0279224
0.0106059
0.0238326
0.0258121
0.0223829
0.023533
0.0252719
0.0263244
0.026559
0.0242242
0.0218583
0.0186028
0.01534
0.0129088
0.010146
0.00826891
0.0066984
0.00517312
0.00431404
0.00357632
0.00291142
0.00219656
0.00177679
0.00153112
0.00101881
0.000658739
0.000368062
8.19968e-05
-0.314946
-0.342026
-0.369967
-0.381047
-0.378029
-0.354305
-0.308655
-0.247339
-0.18028
-0.115224
-0.0553215
-0.0104668
0.01026
0.0179984
0.0182997
0.0199594
0.0220174
0.0234967
0.0242027
0.022715
0.0207432
0.0180763
0.0151327
0.0127596
0.0101774
0.00830594
0.00673477
0.00520449
0.00434513
0.00359534
0.00290836
0.00218468
0.00182347
0.00152426
0.00100995
0.000689026
0.000369778
8.28892e-05
-0.283944
-0.31321
-0.328185
-0.335451
-0.331593
-0.312477
-0.276184
-0.22538
-0.167785
-0.110789
-0.0588549
-0.0185663
0.00182335
0.0110587
0.0137479
0.0161855
0.0188792
0.0208371
0.0220768
0.0212437
0.0196209
0.0173186
0.0146109
0.0124404
0.00991637
0.00821856
0.00668552
0.00511418
0.00432722
0.00360881
0.00284044
0.0021756
0.00190358
0.00146265
0.00100543
0.000741079
0.000358601
8.08719e-05
-0.23805
-0.267317
-0.280625
-0.281959
-0.274831
-0.258491
-0.231526
-0.193936
-0.149885
-0.105417
-0.0640703
-0.0299492
-0.00934533
0.00192159
0.00760616
0.01144
0.0145966
0.016689
0.017926
0.0176013
0.0167736
0.0151959
0.0131367
0.0113937
0.0093234
0.00775645
0.00639223
0.00496749
0.00419812
0.00351862
0.00276613
0.00215777
0.00188365
0.00139677
0.00101895
0.000753763
0.000330098
7.83016e-05
-0.201801
-0.227741
-0.238373
-0.238428
-0.232334
-0.220205
-0.200948
-0.173622
-0.13971
-0.103524
-0.0687718
-0.0389795
-0.0187363
-0.00637115
0.0010793
0.00599635
0.00970689
0.012608
0.0147799
0.0154617
0.0149168
0.0137652
0.012125
0.0105775
0.00876619
0.00733798
0.00610331
0.00481858
0.00404276
0.00341138
0.00269758
0.00212423
0.00183996
0.00135091
0.00101327
0.000750609
0.000307478
7.46201e-05
-0.169798
-0.190798
-0.20033
-0.200529
-0.195308
-0.18561
-0.170599
-0.14972
-0.123701
-0.0955242
-0.0681459
-0.0437785
-0.0253514
-0.012833
-0.00428256
0.0016451
0.00596414
0.0091979
0.0114354
0.012209
0.0122473
0.0117173
0.0105394
0.00945073
0.00801658
0.00677455
0.00572131
0.00459836
0.0038482
0.00326828
0.00260849
0.00207658
0.00179352
0.00129757
0.00100087
0.000754758
0.000285699
6.75463e-05
-0.140769
-0.158578
-0.16717
-0.167742
-0.163641
-0.156214
-0.145216
-0.130235
-0.111294
-0.0899683
-0.068326
-0.0480801
-0.0314433
-0.0191315
-0.0101107
-0.00358721
0.00109981
0.00468248
0.00749303
0.00923013
0.0101737
0.00989015
0.00919179
0.00836554
0.00725222
0.00620746
0.0053013
0.00435414
0.00363785
0.00310429
0.00250986
0.00201621
0.00173664
0.00123718
0.000988143
0.000757041
0.000257314
5.893e-05
-0.117139
-0.131494
-0.138787
-0.139709
-0.136775
-0.131304
-0.123297
-0.112451
-0.0985668
-0.0823621
-0.0653148
-0.0489528
-0.0347116
-0.023265
-0.0142738
-0.0073147
-0.00218891
0.00175516
0.00479692
0.00670267
0.00750469
0.00781401
0.00755443
0.00709868
0.00633236
0.00551906
0.0047893
0.00402261
0.00337694
0.00290608
0.00238232
0.00192927
0.00167085
0.00117377
0.000966322
0.000751633
0.000228168
4.93665e-05
-0.0964783
-0.108114
-0.114379
-0.115608
-0.113698
-0.10984
-0.104163
-0.0964382
-0.0864562
-0.0744974
-0.0615242
-0.048611
-0.0366185
-0.0262808
-0.0178769
-0.0111852
-0.0061389
-0.002246
0.000980374
0.00330686
0.00501617
0.00576898
0.00593117
0.00580671
0.00536049
0.00480048
0.00423398
0.00364807
0.00309674
0.00268541
0.00222776
0.00182433
0.00159749
0.00110097
0.000933391
0.000744572
0.000199769
3.7639e-05
-0.0792043
-0.0885887
-0.0938873
-0.0952653
-0.0941453
-0.0915277
-0.0875942
-0.082212
-0.0751484
-0.0665301
-0.0568113
-0.046712
-0.0369767
-0.0282033
-0.0206548
-0.0141537
-0.00887125
-0.00471774
-0.00149505
0.00111504
0.00281583
0.00380088
0.0043123
0.00448229
0.00433417
0.00401667
0.00361698
0.00321318
0.00277199
0.00243221
0.00204808
0.00169698
0.00151096
0.0010196
0.000890722
0.00073326
0.000168865
2.20472e-05
-0.06468
-0.0721843
-0.0766137
-0.078038
-0.0774982
-0.0758177
-0.0732056
-0.0695701
-0.0646992
-0.0586019
-0.0514817
-0.0438547
-0.0362157
-0.028877
-0.0221515
-0.0162011
-0.0113808
-0.00751689
-0.00434376
-0.00162568
0.000444898
0.00179439
0.00263041
0.003107
0.0032472
0.00316725
0.00294801
0.00272201
0.00240061
0.00214336
0.00183964
0.00154363
0.00140797
0.000936539
0.000842324
0.000716454
0.000144787
1.71724e-05
-0.0526033
-0.0585631
-0.0622282
-0.0636153
-0.0634799
-0.0624835
-0.0608289
-0.0584608
-0.0552078
-0.0510176
-0.0459615
-0.0403346
-0.0343995
-0.0284726
-0.0229035
-0.0177809
-0.0132941
-0.00940682
-0.00606248
-0.00354869
-0.00143018
4.39371e-05
0.00110918
0.00180648
0.0021842
0.00232498
0.00226727
0.00220218
0.00200512
0.00183132
0.00159526
0.00135315
0.00128231
0.000823925
0.000746146
0.000686942
0.000104415
-1.70344e-05
-0.0425228
-0.0472434
-0.0502542
-0.0515495
-0.0516801
-0.0511662
-0.0501968
-0.0487507
-0.0466756
-0.0439064
-0.0404292
-0.0363943
-0.0319805
-0.0273963
-0.0228583
-0.0184546
-0.0144595
-0.0109041
-0.00791504
-0.0054077
-0.0032429
-0.0016299
-0.000403397
0.000505075
0.0011096
0.00143548
0.00154208
0.00165
0.0015801
0.00150913
0.00136498
0.00120003
0.001173
0.000750097
0.000736946
0.000673978
0.0001117
6.71058e-06
-0.0341903
-0.0379097
-0.0403621
-0.0415388
-0.0418364
-0.0416519
-0.0411529
-0.040343
-0.0391003
-0.0373549
-0.0350511
-0.0322891
-0.0291261
-0.0256812
-0.0221394
-0.0185567
-0.0152155
-0.01206
-0.00929462
-0.00688571
-0.00472166
-0.00305711
-0.00171677
-0.000676
8.3744e-05
0.00057119
0.000802464
0.00104503
0.00109797
0.00111086
0.0010297
0.000887529
0.000965974
0.000569817
0.000500754
0.000596675
2.95625e-05
-6.80477e-05
-0.0272812
-0.0301974
-0.032181
-0.0332231
-0.0336157
-0.033659
-0.0334957
-0.0331361
-0.0324956
-0.0315003
-0.0300665
-0.0282486
-0.0260359
-0.0235277
-0.0208305
-0.0179829
-0.0152543
-0.0125716
-0.0100255
-0.00780603
-0.00575216
-0.00412145
-0.00276451
-0.0016599
-0.000762616
-0.000154927
0.000184213
0.000563213
0.000715161
0.000824429
0.000850279
0.000826214
0.000900507
0.000559442
0.000640486
0.000622273
0.0001111
1.0055e-05
-0.0215894
-0.023873
-0.0254674
-0.0263689
-0.0267858
-0.0269482
-0.0269834
-0.0269202
-0.02668
-0.0262087
-0.0254219
-0.0243547
-0.0229487
-0.0212461
-0.0193336
-0.0171664
-0.0150215
-0.0128448
-0.01061
-0.00863069
-0.00673489
-0.00517057
-0.00382298
-0.00268066
-0.00171227
-0.00100855
-0.0005856
-0.000117535
0.000140129
0.000317789
0.000383661
0.000315477
0.000565924
0.000250844
0.000103883
0.000447377
-4.36643e-05
-0.000122231
-0.0168217
-0.0186069
-0.0198985
-0.0206888
-0.0211305
-0.0213817
-0.0215442
-0.021658
-0.0216784
-0.0215431
-0.0211723
-0.0205988
-0.0197288
-0.0186002
-0.0172315
-0.0155994
-0.0139093
-0.0118754
-0.0101778
-0.00852992
-0.00685835
-0.00545725
-0.00421026
-0.00312719
-0.00214413
-0.00139356
-0.000945855
-0.000397855
-8.3625e-05
0.000168339
0.000365153
0.00045981
0.000628215
0.000413623
0.000479113
0.000586337
0.000148163
2.50218e-05
-0.0129488
-0.0143164
-0.0153284
-0.0159859
-0.0163957
-0.01668
-0.0169274
-0.0171806
-0.0174027
-0.0175567
-0.0175546
-0.0174086
-0.0170026
-0.0163551
-0.015492
-0.0143185
-0.0131171
-0.0116724
-0.0101728
-0.00876398
-0.00729499
-0.0060488
-0.00491634
-0.00388449
-0.0029321
-0.00217738
-0.00168429
-0.00110335
-0.00072442
-0.000450102
-0.000271144
-0.00026948
0.000122552
-4.49511e-05
-4.19416e-06
0.000325886
-7.01074e-05
-0.000160668
-0.00964123
-0.010708
-0.0115164
-0.0120552
-0.0124036
-0.0126494
-0.0128859
-0.0131646
-0.0134644
-0.0137306
-0.0139044
-0.0139909
-0.0138603
-0.0135375
-0.0130051
-0.0121924
-0.0112046
-0.010089
-0.0089507
-0.0078438
-0.00661282
-0.00558896
-0.00461876
-0.00372121
-0.00285235
-0.00212017
-0.00168209
-0.00107191
-0.000689442
-0.000341215
-3.45574e-05
5.05689e-05
0.000377653
0.000253176
0.00030434
0.000583449
0.000211045
3.93853e-05
-0.00699577
-0.00776899
-0.00837026
-0.00879628
-0.00909419
-0.00932423
-0.00956605
-0.00988612
-0.0102769
-0.0106903
-0.0110597
-0.0113565
-0.0114574
-0.0113766
-0.0110974
-0.0105507
-0.00999098
-0.00917401
-0.00830472
-0.00747417
-0.00651991
-0.00572132
-0.00492179
-0.0041429
-0.00341805
-0.00277054
-0.00230542
-0.00172766
-0.00134021
-0.00101842
-0.000737279
-0.000643247
-0.000219862
-0.000249893
-0.000281367
0.000210875
-1.91606e-05
-0.000160656
-0.0045575
-0.0051084
-0.00552967
-0.00582598
-0.00602905
-0.00618244
-0.00635316
-0.00661032
-0.00697503
-0.00740069
-0.00782837
-0.00819005
-0.00842539
-0.0084952
-0.00844258
-0.00815274
-0.00776435
-0.00720853
-0.00659172
-0.00602374
-0.00527483
-0.00472518
-0.00410921
-0.00347747
-0.00290069
-0.00231241
-0.00193839
-0.00140058
-0.00100262
-0.000608195
-0.000351282
-0.000254074
0.000230595
6.00804e-05
0.000113734
0.000637295
0.000307964
5.26257e-05
-0.0027571
-0.00311737
-0.00342587
-0.00368732
-0.00390965
-0.00410241
-0.00427536
-0.00445636
-0.00468224
-0.00493198
-0.00519826
-0.00540664
-0.0056207
-0.00571416
-0.00582413
-0.00580494
-0.00572937
-0.00562844
-0.00537088
-0.00520881
-0.00479646
-0.0044763
-0.00409601
-0.00363056
-0.00327212
-0.00273847
-0.00239469
-0.0019849
-0.00156713
-0.0011808
-0.000906234
-0.000736301
-0.00019207
-0.0003555
-0.000330206
0.000376159
0.000101424
-0.000133321
-0.00216934
-0.0024428
-0.00267654
-0.00287809
-0.00306853
-0.00325875
-0.00345561
-0.00364665
-0.00384042
-0.00402292
-0.00419353
-0.00432711
-0.0044584
-0.00452852
-0.00457349
-0.00458633
-0.00452379
-0.00447044
-0.00428863
-0.00411734
-0.00386101
-0.00359074
-0.00326033
-0.00291972
-0.00260032
-0.00217518
-0.00186201
-0.00146448
-0.00111519
-0.000780832
-0.00035981
-0.00020377
0.000121058
0.000317095
0.000236367
0.000528934
0.000484092
0.000121894
-0.00126655
-0.00148094
-0.0016963
-0.00190253
-0.00209861
-0.00228564
-0.00247393
-0.00266134
-0.00285446
-0.003046
-0.00323932
-0.0034195
-0.00359112
-0.00373687
-0.00385885
-0.00395577
-0.00398975
-0.00402017
-0.00397636
-0.0039107
-0.00376474
-0.00358619
-0.00337085
-0.00309247
-0.00286885
-0.00250409
-0.00221319
-0.00189187
-0.00151701
-0.00125466
-0.00087021
-0.000653303
-0.000421108
-0.000143896
-0.00017228
7.26717e-05
0.000180227
3.69639e-06
-0.00107231
-0.00125962
-0.00144753
-0.00163521
-0.00182365
-0.00201148
-0.00219763
-0.00237795
-0.00255343
-0.00272288
-0.00288783
-0.00304177
-0.00318341
-0.00331106
-0.00340508
-0.0034847
-0.00351158
-0.00351809
-0.00347502
-0.003412
-0.00331326
-0.00316318
-0.00297754
-0.00271927
-0.0024998
-0.00221364
-0.00190328
-0.00161766
-0.0012581
-0.000990962
-0.000654292
-0.000378419
-0.000210163
9.97233e-05
0.000112984
0.000217084
0.000347204
0.000123827
-0.104548
-0.120318
-0.136754
-0.154393
-0.174281
-0.195794
-0.220807
-0.24878
-0.0950023
-0.108191
-0.121789
-0.136435
-0.152109
-0.168474
-0.185436
-0.205656
-0.0835982
-0.0937078
-0.104011
-0.115191
-0.127189
-0.140016
-0.154745
-0.17292
-0.0740722
-0.0822324
-0.090621
-0.0996932
-0.109868
-0.120866
-0.133386
-0.147733
-0.065103
-0.0716047
-0.0783711
-0.0856538
-0.0937465
-0.102209
-0.111683
-0.122958
-0.0572658
-0.062277
-0.0674763
-0.0730115
-0.07919
-0.0857931
-0.0934455
-0.102759
-0.0498168
-0.053555
-0.0574832
-0.0617779
-0.0666526
-0.0719204
-0.0779525
-0.0852722
-0.043128
-0.045917
-0.0488681
-0.0521482
-0.0558774
-0.0599156
-0.0645616
-0.0703479
-0.0370087
-0.0390221
-0.041153
-0.0435759
-0.046385
-0.049494
-0.0531237
-0.05772
-0.0314757
-0.0329173
-0.0344396
-0.0362169
-0.0383277
-0.0407148
-0.0435342
-0.0471555
-0.0264935
-0.0275276
-0.0285996
-0.0298719
-0.0314231
-0.033227
-0.0354024
-0.0382531
-0.0220189
-0.0227738
-0.0235322
-0.0244342
-0.0255624
-0.02692
-0.028602
-0.0308465
-0.0180415
-0.0186088
-0.0191581
-0.0197993
-0.020613
-0.0216244
-0.0229148
-0.0246706
-0.0145289
-0.0149665
-0.0153712
-0.0158284
-0.016417
-0.0171751
-0.0181709
-0.0195474
-0.0114686
-0.0118211
-0.0121309
-0.0124567
-0.0128675
-0.0134145
-0.0141662
-0.015233
-0.00878392
-0.00907362
-0.00932694
-0.00958259
-0.00990162
-0.0103276
-0.0109084
-0.0117294
-0.00650641
-0.00674947
-0.00694449
-0.00711886
-0.00732496
-0.00761934
-0.00805376
-0.00869053
-0.00452517
-0.00473179
-0.00490241
-0.00505987
-0.00524695
-0.00549678
-0.00583252
-0.00630326
-0.00276089
-0.00294855
-0.00309888
-0.00322033
-0.00334447
-0.00350531
-0.00373317
-0.00406229
-0.00140972
-0.00158417
-0.00174151
-0.00187076
-0.00198986
-0.00211541
-0.00226975
-0.00246283
-0.000790474
-0.000936651
-0.00109056
-0.00124533
-0.0014025
-0.00156213
-0.00173393
-0.00192147
-0.000209038
-0.00035046
-0.000490823
-0.000625164
-0.000749884
-0.000866172
-0.000980295
-0.00110052
1.48908e-05
-0.000119479
-0.000252372
-0.000386573
-0.000521695
-0.000655321
-0.000786227
-0.000914224
0.0653516
0.0692039
0.0725098
0.0747794
0.0754132
0.074314
0.0713428
0.0659674
0.0572577
0.0439165
0.0241786
-0.00435232
-0.0455146
-0.102225
-0.150287
0.0429747
0.0444668
0.0442801
0.042795
0.0399454
0.0353889
0.0286104
0.0188694
0.00515156
-0.013903
-0.0401696
-0.0760525
-0.124929
-0.190778
-0.240332
0.0205272
0.0196747
0.0161768
0.0114369
0.00558307
-0.00203258
-0.0121698
-0.0256619
-0.0435674
-0.0673228
-0.0988908
-0.140786
-0.195516
-0.266024
-0.314068
-0.0030305
-0.00623061
-0.0120599
-0.0189418
-0.0270194
-0.0371331
-0.0500716
-0.0666066
-0.0877072
-0.115032
-0.150469
-0.196563
-0.25503
-0.32483
-0.369694
-0.0272465
-0.032591
-0.0397706
-0.0478538
-0.0574778
-0.0694676
-0.0844738
-0.103268
-0.126403
-0.156092
-0.193874
-0.242017
-0.300942
-0.366626
-0.406494
-0.0511465
-0.0580971
-0.0659283
-0.0747437
-0.0855021
-0.0987513
-0.115017
-0.135021
-0.15966
-0.190259
-0.228549
-0.27615
-0.332609
-0.391206
-0.425205
-0.0742873
-0.0815199
-0.0897438
-0.0993491
-0.110895
-0.12484
-0.141675
-0.162071
-0.186863
-0.21709
-0.254152
-0.298999
-0.350107
-0.398993
-0.42778
-0.0952419
-0.102825
-0.111438
-0.121563
-0.13355
-0.147724
-0.164507
-0.184485
-0.208374
-0.237026
-0.271369
-0.311515
-0.354546
-0.391924
-0.41685
0.202175
0.216833
0.233037
0.251109
0.271063
0.292775
0.316143
0.341111
0.367594
0.395345
0.423814
0.45194
0.477885
0.498172
0.515109
0.197771
0.211401
0.226679
0.243979
0.263154
0.283932
0.306158
0.329777
0.354697
0.380634
0.406973
0.432576
0.455492
0.472324
0.485915
0.18948
0.20141
0.215259
0.231323
0.249174
0.268331
0.288564
0.3098
0.331916
0.354557
0.377001
0.397977
0.415327
0.425814
0.433505
0.177278
0.187026
0.199078
0.213465
0.229417
0.246277
0.263762
0.281764
0.30008
0.318227
0.335311
0.349871
0.359455
0.36089
0.360752
0.161266
0.16865
0.178836
0.191341
0.20493
0.218826
0.232777
0.246685
0.260276
0.272912
0.283488
0.29031
0.29059
0.281022
0.271268
0.141746
0.146501
0.154769
0.165295
0.176307
0.186933
0.196949
0.206244
0.214452
0.220787
0.223959
0.222045
0.211936
0.1902
0.169317
0.119354
0.121923
0.128419
0.136492
0.144299
0.151171
0.156967
0.161461
0.16407
0.16381
0.159209
0.148137
0.127216
0.0930395
0.0609619
0.0935251
0.0952855
0.100913
0.10645
0.110647
0.113372
0.114657
0.114142
0.111019
0.104102
0.091741
0.0716051
0.0400576
-0.00606513
-0.0478353
0.0206455
0.0249507
0.0215826
0.0258715
0.0239958
0.0286406
0.0276039
0.0325943
0.0329385
0.0382203
0.0401198
0.0460933
0.0498365
0.0568859
0.063
0.0718534
0.0809833
0.0925272
0.105098
0.120594
0.137816
0.158407
0.181574
0.0206652
0.0248908
0.0216483
0.0258347
0.0240434
0.0285469
0.027667
0.0324964
0.0329508
0.0381535
0.0400747
0.045974
0.0498567
0.0567881
0.0628491
0.0717023
0.0807113
0.0920471
0.104541
0.119813
0.136359
0.156446
0.178449
0.020691
0.0248048
0.0217271
0.0257675
0.0241117
0.0284258
0.0277646
0.032376
0.0330006
0.0380631
0.0400817
0.0457491
0.0497178
0.0566168
0.0626717
0.0714533
0.0801308
0.0916269
0.103393
0.118237
0.133736
0.152816
0.172631
0.020722
0.0246959
0.0218174
0.0256743
0.024195
0.0282867
0.0278859
0.0322414
0.0330788
0.0379515
0.040124
0.0454685
0.0496238
0.0565423
0.0625929
0.0714625
0.0798403
0.0911453
0.102099
0.116343
0.130161
0.147557
0.163945
0.0207573
0.024568
0.0219159
0.0255591
0.0242901
0.0281377
0.0280176
0.0320885
0.0331757
0.0378204
0.0402176
0.045506
0.0496216
0.0562827
0.0623471
0.070824
0.0789313
0.0896252
0.0997614
0.112969
0.124904
0.140096
0.152156
0.0207943
0.0244286
0.0220185
0.0254264
0.0243874
0.027992
0.0281678
0.0319657
0.0332931
0.0377041
0.0403342
0.0457255
0.0497654
0.0565328
0.0625203
0.0710762
0.0786551
0.0891453
0.0979625
0.110027
0.119096
0.131267
0.137603
0.0208286
0.0242779
0.0221212
0.0252863
0.0244867
0.0278418
0.0282844
0.0317879
0.0333896
0.0375612
0.0404244
0.045585
0.0496731
0.0560036
0.0617711
0.0695174
0.0769472
0.0863914
0.0943371
0.104484
0.111315
0.119768
0.120444
0.020894
0.0241225
0.0222125
0.0251376
0.0245889
0.0277471
0.0284784
0.0317891
0.033555
0.0375561
0.0406209
0.0458453
0.0499891
0.0566248
0.0624679
0.070618
0.0769894
0.0862763
0.0922554
0.100703
0.103284
0.107078
0.100079
0.0209307
0.0239147
0.022345
0.0249196
0.0246713
0.0274407
0.0284485
0.0313605
0.0335322
0.0372194
0.0406028
0.0451407
0.0495019
0.0553972
0.0606528
0.0673264
0.0730669
0.0798963
0.0846206
0.0889798
0.0890153
0.0855545
0.0738875
0.0209824
0.0236306
0.0224934
0.0245766
0.0247122
0.02703
0.0284426
0.0308304
0.0332129
0.0363332
0.0395576
0.043307
0.0475605
0.0524421
0.0572931
0.0626119
0.0671838
0.071462
0.0741752
0.074543
0.0721944
0.0652692
0.0553864
0.0210472
0.0232663
0.0226581
0.0241678
0.0247624
0.0265643
0.028352
0.0302082
0.032724
0.0353881
0.0385445
0.0419487
0.0457304
0.0497754
0.0537258
0.0574407
0.060687
0.0626588
0.0632987
0.0611938
0.0570316
0.0497511
0.0406623
0.0211228
0.0228376
0.0228352
0.0237147
0.024736
0.0261183
0.0281257
0.0295612
0.03212
0.0343807
0.0372792
0.0400305
0.0433037
0.0464479
0.0494989
0.0518545
0.0536629
0.0538908
0.0527853
0.0492772
0.0440096
0.0366896
0.0280307
0.0212065
0.0223403
0.0229733
0.0232989
0.0246078
0.0256903
0.0277697
0.0288719
0.031313
0.0332191
0.035729
0.0379698
0.0406068
0.0429096
0.0449345
0.0460606
0.0465145
0.045432
0.0429744
0.0386281
0.0328406
0.0256566
0.0176099
0.0212859
0.0218234
0.0230332
0.0229179
0.0243666
0.0252519
0.0272723
0.0281099
0.030316
0.0319259
0.0339379
0.0356397
0.037583
0.0390593
0.0401057
0.0401587
0.0394999
0.0374424
0.0341642
0.0294205
0.0235682
0.0167275
0.00928085
0.0213393
0.0212968
0.0229937
0.0225706
0.024002
0.0247927
0.0266217
0.0272472
0.0291327
0.0304654
0.0319137
0.0330787
0.0343335
0.0350614
0.035195
0.0343736
0.0328822
0.0302181
0.026523
0.021675
0.0160151
0.00963393
0.00275552
0.0213434
0.0207818
0.0228429
0.022245
0.0235019
0.0242906
0.0258299
0.0262556
0.0277839
0.0288435
0.0297072
0.030313
0.0309503
0.0310129
0.0303713
0.0288799
0.0268509
0.0238775
0.0200444
0.0153208
0.0100204
0.00417883
-0.00218846
0.0212808
0.0202945
0.0225681
0.0219243
0.0228709
0.0237164
0.0249258
0.0251171
0.0262804
0.0270805
0.0273661
0.0274079
0.0275276
0.0270643
0.0258022
0.0238315
0.0214987
0.018463
0.0146982
0.0102113
0.00532012
3.73075e-05
-0.00573982
0.0211308
0.0198469
0.022164
0.0215876
0.0221242
0.0230359
0.0239439
0.0238311
0.0246352
0.0251985
0.0249634
0.024458
0.0241531
0.0233241
0.0216372
0.0193365
0.0168672
0.013951
0.0104029
0.00622885
0.00177333
-0.0029139
-0.00797914
0.0208824
0.0194317
0.0216448
0.0212033
0.0212946
0.0222113
0.0228966
0.0224468
0.0228768
0.023219
0.0225696
0.0215851
0.0209258
0.0198785
0.0179487
0.0154604
0.0129798
0.0102916
0.00707811
0.00329227
-0.000689405
-0.00474146
-0.00903855
0.0205215
0.019047
0.0210226
0.020747
0.0204133
0.0212484
0.0217769
0.0210144
0.0210513
0.0211745
0.0202381
0.0188859
0.01795
0.0167803
0.0147621
0.0122209
0.00982021
0.00742025
0.00461299
0.0012768
-0.00220708
-0.00563887
-0.00920067
0.0200675
0.0186589
0.020338
0.0201812
0.0194834
0.0201627
0.0205694
0.0195766
0.0192349
0.0191363
0.0180185
0.0164292
0.0153029
0.0140822
0.0120898
0.00962498
0.00738213
0.00529607
0.00291036
4.28553e-05
-0.00294957
-0.00581621
-0.00872806
0.0195094
0.0182506
0.0196069
0.0195149
0.0185231
0.0189414
0.0192832
0.0181425
0.0174801
0.0171734
0.015948
0.0142571
0.013034
0.0117989
0.00990109
0.00759298
0.00558485
0.00382541
0.00183629
-0.000591442
-0.00312337
-0.00548335
-0.00782522
0.0188963
0.0177983
0.0188527
0.0187458
0.0175432
0.0177944
0.0179849
0.0167455
0.0158374
0.0153464
0.014086
0.0124136
0.0111848
0.00998364
0.00818181
0.0060984
0.00435078
0.00291033
0.00126703
-0.000777826
-0.00289868
-0.0048178
-0.00667926
0.0182254
0.0172879
0.0181039
0.0179077
0.0165614
0.0165546
0.016709
0.0154293
0.0143317
0.0136869
0.0124416
0.0108808
0.00969548
0.0085314
0.00685499
0.00500801
0.00356624
0.00244064
0.00109521
-0.000628857
-0.00239544
-0.00393051
-0.00537391
0.0175165
0.0167432
0.0173387
0.0170501
0.0156443
0.0156267
0.0155498
0.0142475
0.0130246
0.012263
0.0110998
0.00972212
0.00862497
0.00746344
0.0059235
0.0043587
0.0032425
0.00233567
0.00121003
-0.000250306
-0.00171019
-0.00292661
-0.00404606
0.0168337
0.0161643
0.0165884
0.016174
0.0147713
0.0145681
0.014426
0.0131781
0.0119072
0.0110588
0.00998671
0.00881753
0.00781324
0.00668622
0.0052993
0.00401341
0.00314698
0.00243606
0.00147826
0.000253183
-0.000912233
-0.00183733
-0.00267607
0.0160891
0.0156256
0.0158594
0.015311
0.0139882
0.0136974
0.0134853
0.0123529
0.0110675
0.0101683
0.00923508
0.00823925
0.007243
0.00614023
0.00494216
0.0039296
0.00327179
0.00267855
0.00185336
0.000832472
-9.19449e-05
-0.000787848
-0.00140463
0.0154812
0.0150825
0.0151077
0.0146331
0.0133888
0.0128328
0.0126848
0.0117794
0.0104119
0.0094598
0.00878549
0.00800178
0.00700598
0.00591239
0.00492461
0.00414506
0.00358366
0.0030643
0.00240512
0.00160277
0.000822183
0.000195135
-0.000331814
0.0149552
0.0145759
0.0144278
0.0140347
0.0128934
0.0120672
0.0118271
0.0111949
0.00993754
0.00883935
0.00813291
0.00752353
0.00670543
0.00573075
0.00478801
0.00401543
0.0034966
0.00311843
0.00270154
0.00214777
0.00152484
0.000959493
0.000512071
0.0145321
0.0141697
0.0139784
0.013569
0.0124801
0.0115306
0.0111647
0.0107226
0.00967703
0.00851582
0.00774075
0.00725817
0.00666479
0.00580607
0.00487779
0.0041322
0.00366038
0.00334333
0.00300113
0.00253598
0.00199532
0.00148325
0.0010696
0.0143353
0.0139615
0.0136161
0.01326
0.0123814
0.0113108
0.0106857
0.0102804
0.00954491
0.00850864
0.0075795
0.00695987
0.0064353
0.00577602
0.0049984
0.00425761
0.00368649
0.00328842
0.00298032
0.00265881
0.00228515
0.00188969
0.00152892
0.0590265
0.0395382
0.016707
-0.00514694
-0.0268417
-0.0484106
-0.0689241
-0.0875699
0.0450453
0.0260144
0.002573
-0.0175781
-0.0351645
-0.0516101
-0.0670191
-0.081318
0.0323585
0.0171436
-0.00336501
-0.0216497
-0.0357125
-0.0480716
-0.0602812
-0.0725124
0.0204934
0.00775091
-0.010111
-0.0263743
-0.0382964
-0.0478336
-0.0568795
-0.0655856
0.0108131
0.00042593
-0.0142937
-0.0279052
-0.0374834
-0.0446388
-0.0514263
-0.0583251
0.0030122
-0.00559719
-0.0175242
-0.0285462
-0.0362481
-0.041813
-0.0469622
-0.0521197
-0.00308743
-0.0102018
-0.0195335
-0.0279066
-0.0337884
-0.0380774
-0.0420163
-0.0459453
-0.00778757
-0.0136928
-0.0204459
-0.0263664
-0.0307729
-0.0341681
-0.0372478
-0.04023
-0.0109304
-0.0156997
-0.0202821
-0.0242317
-0.0274468
-0.030141
-0.0325867
-0.0348688
-0.0125461
-0.0162817
-0.0192853
-0.0218177
-0.024099
-0.0262017
-0.0281418
-0.0298952
-0.0129247
-0.0158126
-0.0177362
-0.0192924
-0.0208513
-0.0224417
-0.0239621
-0.0253167
-0.0124203
-0.0146314
-0.0158416
-0.0167496
-0.0177688
-0.0189259
-0.0200886
-0.0211313
-0.0113488
-0.0130315
-0.0137785
-0.0142695
-0.0149017
-0.0157102
-0.016573
-0.0173656
-0.00991749
-0.0111852
-0.0116353
-0.0118668
-0.0122303
-0.0127724
-0.0134
-0.0140039
-0.00833184
-0.00928586
-0.00955382
-0.00963482
-0.00982029
-0.0101622
-0.0105999
-0.0110527
-0.00664528
-0.00735481
-0.00751795
-0.00752235
-0.00760031
-0.00781082
-0.00811949
-0.00845806
-0.00503545
-0.00557142
-0.00567449
-0.00564416
-0.00565745
-0.00576921
-0.0059708
-0.00622913
-0.00342879
-0.00383702
-0.00391468
-0.00388075
-0.00387094
-0.00394163
-0.00409567
-0.00430464
-0.00194565
-0.00222411
-0.0022691
-0.00224011
-0.00222749
-0.00227235
-0.00238686
-0.00255957
-0.000720826
-0.000904707
-0.000943929
-0.000947159
-0.00096316
-0.00101049
-0.00110214
-0.00123875
0.000228427
7.23224e-05
-3.44443e-05
-0.000147129
-0.000274501
-0.000405076
-0.000531296
-0.000656546
0.000822547
0.000701536
0.000619475
0.000517119
0.000382469
0.00023058
7.8671e-05
-6.69902e-05
0.00127332
0.00110081
0.00095103
0.000801975
0.000642215
0.000474614
0.000309858
0.000156313
-0.330024
-0.336316
-0.343505
-0.352797
-0.365352
-0.381784
-0.401346