/*--------------------------------*- C++ -*----------------------------------*\
| =========                 |                                                 |
| \\      /  F ield         | OpenFOAM: The Open Source CFD Toolbox           |
|  \\    /   O peration     | Version:  2512                                  |
|   \\  /    A nd           | Website:  www.openfoam.com                      |
|    \\/     M anipulation  |                                                 |
\*---------------------------------------------------------------------------*/
FoamFile
{
    version     2.0;
    format      ascii;
    arch        "LSB;label=32;scalar=64";
    class       surfaceScalarField;
    location    "88.5";
    object      phi;
}
// * * * * * * * * * * * * * * * * * * * * * * * * * * * * * * * * * * * * * //

dimensions      [0 3 -1 0 0 0 0];

oriented        oriented;

internalField   nonuniform List<scalar> 
19380
(
0.874545
-4.25706e-05
0.874666
-0.000120799
0.874858
-0.000192287
0.875118
-0.000259413
0.875441
-0.000323646
0.875827
-0.000385749
0.876273
-0.000445968
0.876776
-0.000503404
0.877333
-0.000556897
0.877939
-0.000605258
0.878586
-0.00064751
0.879269
-0.000683029
0.879981
-0.000711565
0.880714
-0.000733193
0.881462
-0.000748236
0.882219
-0.000757173
0.88298
-0.000760571
0.883739
-0.000759028
0.884492
-0.000753143
0.885236
-0.000743491
0.885966
-0.00073062
0.886681
-0.000715038
0.887378
-0.000697221
0.888056
-0.000677596
0.888713
-0.000656556
0.889347
-0.00063445
0.889959
-0.000611588
0.890547
-0.000588243
0.891111
-0.000564656
0.891653
-0.000541036
0.89217
-0.000517537
0.892664
-0.000494264
0.893136
-0.000471332
0.893585
-0.000448854
0.894011
-0.000426914
0.894417
-0.000405583
0.894802
-0.000384909
0.895167
-0.000364934
0.895513
-0.000345683
-0.000327222
0.89584
0.844004
-8.33384e-05
0.84412
-0.000236445
0.844304
-0.000376372
0.844552
-0.000507862
0.844863
-0.00063386
0.845233
-0.00075585
0.845661
-0.000874383
0.846145
-0.000987643
0.846682
-0.00109333
0.847266
-0.00118907
0.847891
-0.00127293
0.848552
-0.00134364
0.849241
-0.00140067
0.849952
-0.00144414
0.850678
-0.00147465
0.851414
-0.00149313
0.852154
-0.00150067
0.852894
-0.00149844
0.853628
-0.00148759
0.854354
-0.00146925
0.855068
-0.00144449
0.855767
-0.00141432
0.856449
-0.00137966
0.857113
-0.00134135
0.857757
-0.00130018
0.858379
-0.00125682
0.858979
-0.0012119
0.859557
-0.00116596
0.860112
-0.00111947
0.860644
-0.00107286
0.861153
-0.00102643
0.861639
-0.000980404
0.862103
-0.000935012
0.862544
-0.000890479
0.862964
-0.000846978
0.863363
-0.000804654
0.863742
-0.000763609
0.864101
-0.00072393
0.864441
-0.000685671
-0.000648964
0.864763
0.81453
-0.000121993
0.814639
-0.000345995
0.814814
-0.000550859
0.815049
-0.000743735
0.815345
-0.000929098
0.815698
-0.00110895
0.816108
-0.0012842
0.816572
-0.00145213
0.817088
-0.00160926
0.817651
-0.00175205
0.818256
-0.00187755
0.818896
-0.00198383
0.819565
-0.00207004
0.820257
-0.0021363
0.820966
-0.00218344
0.821686
-0.00221278
0.822411
-0.00222588
0.823137
-0.00222443
0.82386
-0.00221012
0.824575
-0.00218458
0.82528
-0.00214938
0.825971
-0.002106
0.826648
-0.00205579
0.827306
-0.00199999
0.827946
-0.00193976
0.828565
-0.00187611
0.829163
-0.00180995
0.829739
-0.00174212
0.830293
-0.00167331
0.830824
-0.00160415
0.831333
-0.00153516
0.831819
-0.00146667
0.832283
-0.00139902
0.832725
-0.00133255
0.833146
-0.00126754
0.833546
-0.00120421
0.833925
-0.00114274
0.834284
-0.00108325
0.834624
-0.00102585
-0.000970741
0.834946
0.786084
-0.000158315
0.786187
-0.0004488
0.786351
-0.000714725
0.786573
-0.000965754
0.786851
-0.00120797
0.787186
-0.00144378
0.787576
-0.00167424
0.78802
-0.00189595
0.788515
-0.00210416
0.789057
-0.00229411
0.789641
-0.00246182
0.790262
-0.00260464
0.790913
-0.00272135
0.791589
-0.00281199
0.792283
-0.00287756
0.79299
-0.0029197
0.793705
-0.00294041
0.794422
-0.00294182
0.795138
-0.0029261
0.795849
-0.00289535
0.796551
-0.00285162
0.797242
-0.0027968
0.797919
-0.00273266
0.79858
-0.00266083
0.799223
-0.00258281
0.799846
-0.00249995
0.80045
-0.00241348
0.801032
-0.00232447
0.801593
-0.00223388
0.802131
-0.00214256
0.802647
-0.00205122
0.803141
-0.00196038
0.803613
-0.00187046
0.804062
-0.00178194
0.80449
-0.0016952
0.804896
-0.00161058
0.805282
-0.0015283
0.805647
-0.0014486
0.805993
-0.00137161
-0.0012976
0.80632
0.758631
-0.000192112
0.758727
-0.00054427
0.758879
-0.00086706
0.759086
-0.00117274
0.759347
-0.00146907
0.759662
-0.00175912
0.760031
-0.00204319
0.760453
-0.00231794
0.760926
-0.00257712
0.761447
-0.00281467
0.762011
-0.00302555
0.762612
-0.00320633
0.763246
-0.00335534
0.763907
-0.00347246
0.764588
-0.0035588
0.765285
-0.00361626
0.765991
-0.00364718
0.766704
-0.00365408
0.767417
-0.00363953
0.768128
-0.00360608
0.768832
-0.00355618
0.769528
-0.00349212
0.770211
-0.00341606
0.77088
-0.00332997
0.771533
-0.00323572
0.772168
-0.00313496
0.772784
-0.00302922
0.773379
-0.00291986
0.773953
-0.00280808
0.774506
-0.00269496
0.775036
-0.00258142
0.775544
-0.00246822
0.776029
-0.0023559
0.776492
-0.00224503
0.776933
-0.00213614
0.777352
-0.00202968
0.77775
-0.00192599
0.778127
-0.00182539
0.778483
-0.00172806
-0.00163439
0.77882
0.732137
-0.000223208
0.732225
-0.000631869
0.732365
-0.00100703
0.732555
-0.00136361
0.732797
-0.00171108
0.733092
-0.00205348
0.733438
-0.00238972
0.733837
-0.00271675
0.734287
-0.00302686
0.734785
-0.00331262
0.735327
-0.00356787
0.735909
-0.00378834
0.736526
-0.00397181
0.737171
-0.00411794
0.73784
-0.00422788
0.738528
-0.00430367
0.739228
-0.00434791
0.739938
-0.00436343
0.740651
-0.00435317
0.741365
-0.00432004
0.742076
-0.00426684
0.74278
-0.00419622
0.743475
-0.00411067
0.744157
-0.0040125
0.744825
-0.0039039
0.745477
-0.00378684
0.746111
-0.00366314
0.746726
-0.00353443
0.74732
-0.00340217
0.747893
-0.00326768
0.748443
-0.00313212
0.748972
-0.0029965
0.749477
-0.00286153
0.74996
-0.00272792
0.75042
-0.0025963
0.750858
-0.00246731
0.751273
-0.00234138
0.751667
-0.00221896
0.752039
-0.0021003
-0.00198594
0.752391
0.706568
-0.000251434
0.706647
-0.000711123
0.706774
-0.00113385
0.706948
-0.00153734
0.707169
-0.00193279
0.707441
-0.00232512
0.707764
-0.00271255
0.708138
-0.0030908
0.708563
-0.00345175
0.709036
-0.0037864
0.709556
-0.00408736
0.710117
-0.0043494
0.710715
-0.00456972
0.711345
-0.00474771
0.712001
-0.00488444
0.71268
-0.004982
0.713375
-0.00504314
0.714082
-0.00507092
0.714798
-0.00506859
0.715517
-0.00503934
0.716236
-0.00498627
0.716953
-0.00491228
0.717662
-0.00482017
0.718362
-0.00471256
0.71905
-0.00459194
0.719724
-0.00446056
0.720381
-0.00432053
0.721021
-0.00417375
0.72164
-0.00402194
0.722239
-0.00386668
0.722817
-0.00370937
0.723371
-0.00355131
0.723903
-0.00339344
0.724412
-0.00323663
0.724897
-0.00308162
0.725359
-0.00292924
0.725798
-0.00278008
0.726214
-0.00263473
0.726607
-0.00249355
-0.00235724
0.726978
0.681891
-0.000276641
0.681962
-0.000781612
0.682075
-0.00124683
0.68223
-0.00169299
0.682431
-0.00213297
0.682678
-0.00257256
0.682975
-0.00300999
0.683323
-0.00343838
0.683721
-0.00384991
0.684169
-0.00423405
0.684663
-0.00458201
0.685202
-0.00488755
0.685779
-0.00514723
0.686392
-0.00536014
0.687034
-0.00552716
0.687703
-0.00565028
0.688392
-0.00573231
0.689097
-0.00577647
0.689815
-0.00578624
0.690541
-0.00576499
0.69127
-0.00571603
0.692001
-0.00564244
0.692728
-0.00554729
0.693449
-0.00543344
0.69416
-0.00530364
0.69486
-0.00516041
0.695546
-0.00500611
0.696215
-0.00484289
0.696866
-0.00467277
0.697497
-0.00449759
0.698106
-0.00431901
0.698693
-0.0041386
0.699258
-0.00395762
0.699798
-0.00377715
0.700315
-0.00359806
0.700807
-0.00342138
0.701275
-0.00324787
0.701718
-0.00307833
0.702138
-0.00291325
-0.0027535
0.702534
0.658076
-0.000298706
0.658138
-0.000842961
0.658236
-0.00134541
0.658373
-0.00182972
0.65855
-0.00231058
0.658772
-0.0027946
0.659042
-0.00327987
0.659362
-0.00375792
0.659731
-0.00421928
0.660151
-0.00465329
0.660618
-0.00504938
0.661131
-0.00540025
0.661685
-0.00570185
0.662278
-0.00595287
0.662905
-0.00615384
0.663561
-0.00630655
0.664242
-0.00641381
0.664945
-0.00647891
0.665664
-0.00650548
0.666396
-0.00649692
0.667137
-0.00645664
0.667882
-0.00638785
0.668629
-0.00629379
0.669373
-0.00617753
0.670111
-0.00604203
0.670841
-0.00588999
0.671558
-0.005724
0.672262
-0.00554648
0.672949
-0.00535969
0.673617
-0.0051658
0.674265
-0.00496671
0.674891
-0.00476429
0.675493
-0.00456011
0.676071
-0.00435557
0.676625
-0.00415173
0.677154
-0.00394981
0.677656
-0.00375077
0.678134
-0.00355567
0.678586
-0.00336513
-0.00318029
0.679012
0.635093
-0.000317523
0.635145
-0.000894892
0.635228
-0.00142912
0.635345
-0.0019468
0.635499
-0.00246468
0.635695
-0.00299004
0.635935
-0.00352049
0.636225
-0.0040472
0.636563
-0.0045579
0.636952
-0.00504169
0.637389
-0.0054867
0.637873
-0.00588451
0.638402
-0.0062305
0.638972
-0.00652279
0.63958
-0.00676145
0.640221
-0.00694794
0.640892
-0.00708505
0.641589
-0.00717607
0.642308
-0.0072246
0.643045
-0.00723396
0.643796
-0.00720755
0.644557
-0.0071486
0.645324
-0.0070605
0.646093
-0.00694638
0.64686
-0.00680934
0.647622
-0.00665221
0.648376
-0.00647775
0.649118
-0.00628864
0.649846
-0.00608738
0.650556
-0.00587644
0.651248
-0.00565799
0.651918
-0.00543423
0.652565
-0.00520698
0.653187
-0.00497814
0.653784
-0.00474893
0.654355
-0.00452088
0.6549
-0.00429509
0.655417
-0.00407297
0.655907
-0.0038553
-0.00364356
0.65637
0.612911
-0.00033301
0.612954
-0.000937237
0.613022
-0.00149759
0.613119
-0.0020437
0.613249
-0.00259456
0.613417
-0.00315786
0.613627
-0.00373057
0.613883
-0.00430373
0.614189
-0.00486379
0.614544
-0.00539674
0.614949
-0.00589092
0.615401
-0.00633698
0.6159
-0.00672966
0.616444
-0.00706625
0.617028
-0.00734623
0.617651
-0.00757073
0.618309
-0.00774253
0.618997
-0.00786476
0.619714
-0.00794086
0.620454
-0.00797387
0.621213
-0.00796711
0.621988
-0.00792376
0.622775
-0.00784722
0.623569
-0.00774059
0.624367
-0.00760696
0.625164
-0.00744922
0.625956
-0.00727028
0.626741
-0.007073
0.627514
-0.00686012
0.628271
-0.00663438
0.629012
-0.00639822
0.629732
-0.00615419
0.630429
-0.00590439
0.631102
-0.0056512
0.631749
-0.00539618
0.63237
-0.0051412
0.632962
-0.00488748
0.633526
-0.00463685
0.634061
-0.00439029
-0.00414968
0.634567
0.591505
-0.000345121
0.591537
-0.000969918
0.59159
-0.00155055
0.591667
-0.00212009
0.591772
-0.00269979
0.591911
-0.00329716
0.59209
-0.00390884
0.592312
-0.00452607
0.592582
-0.00513414
0.592902
-0.00571609
0.59327
-0.00625898
0.593687
-0.00675421
0.594153
-0.00719551
0.594666
-0.00757909
0.595223
-0.00790378
0.595823
-0.0081705
0.596462
-0.00838193
0.597138
-0.0085409
0.597848
-0.00865046
0.598587
-0.0087133
0.599353
-0.00873259
0.60014
-0.0087113
0.600946
-0.00865273
0.601765
-0.00855976
0.602594
-0.00843536
0.603427
-0.00828238
0.60426
-0.0081038
0.60509
-0.00790262
0.605911
-0.00768174
0.606721
-0.00744417
0.607516
-0.00719256
0.608291
-0.00692989
0.609045
-0.00665851
0.609776
-0.00638131
0.61048
-0.00610025
0.611156
-0.00581767
0.611804
-0.00553493
0.612421
-0.00525435
0.613008
-0.00497706
-0.00470552
0.613564
0.570845
-0.000353861
0.570868
-0.000992928
0.570906
-0.00158787
0.570962
-0.00217594
0.571042
-0.00278015
0.571152
-0.00340718
0.571297
-0.00405433
0.571485
-0.00471313
0.571717
-0.00536674
0.571998
-0.00599668
0.572327
-0.00658803
0.572705
-0.00713277
0.573134
-0.00762405
0.573612
-0.00805675
0.574137
-0.00842922
0.574709
-0.00874221
0.575325
-0.0089982
0.575984
-0.00919949
0.576682
-0.00934862
0.577416
-0.00944786
0.578184
-0.00950013
0.578981
-0.00950808
0.579803
-0.00947469
0.580645
-0.00940239
0.581504
-0.00929398
0.582374
-0.00915211
0.583249
-0.00897973
0.584127
-0.0087799
0.585001
-0.00855556
0.585866
-0.00830998
0.58672
-0.00804596
0.587557
-0.00776693
0.588374
-0.00747551
0.589168
-0.00717515
0.589936
-0.00686813
0.590675
-0.00655753
0.591385
-0.00624484
0.592064
-0.00593291
0.59271
-0.00562305
-0.00531844
0.593323
0.550908
-0.000359301
0.550921
-0.00100627
0.550943
-0.00160952
0.550978
-0.0022116
0.551034
-0.00283558
0.551114
-0.00348742
0.551226
-0.00416651
0.551377
-0.00486407
0.55157
-0.00556012
0.551809
-0.00623535
0.552096
-0.00687514
0.552433
-0.00746943
0.55282
-0.00801127
0.553258
-0.00849451
0.553746
-0.00891737
0.554284
-0.00928038
0.554872
-0.00958564
0.555507
-0.00983469
0.556188
-0.0100296
0.556912
-0.0101721
0.557677
-0.0102648
0.558478
-0.0103098
0.559313
-0.0103095
0.560177
-0.0102658
0.561064
-0.0101812
0.561969
-0.0100578
0.562888
-0.0098986
0.563815
-0.00970645
0.564744
-0.00948428
0.565669
-0.00923549
0.566586
-0.00896304
0.56749
-0.00867079
0.568376
-0.00836156
0.56924
-0.0080395
0.570079
-0.00770708
0.57089
-0.00736836
0.57167
-0.00702496
0.572418
-0.00668045
0.573131
-0.00633622
-0.00599633
0.573809
0.531666
-0.000361583
0.53167
-0.00100983
0.531676
-0.00161582
0.531692
-0.00222776
0.531722
-0.00286606
0.531773
-0.00353775
0.531852
-0.00424545
0.531966
-0.00497826
0.532119
-0.00571283
0.532314
-0.00643033
0.532555
-0.00711687
0.532847
-0.00776108
0.533189
-0.00835324
0.533582
-0.00888766
0.534028
-0.00936292
0.534526
-0.00977918
0.535079
-0.010138
0.535684
-0.0104399
0.536341
-0.0106867
0.537049
-0.0108795
0.537804
-0.0110205
0.538605
-0.0111108
0.539448
-0.0111524
0.540328
-0.0111461
0.541241
-0.011094
0.542181
-0.0109977
0.543143
-0.0108599
0.544119
-0.010683
0.545105
-0.0104698
0.546093
-0.0102239
0.547078
-0.00994803
0.548054
-0.00964669
0.549015
-0.00932279
0.549957
-0.00898122
0.550874
-0.00862461
0.551764
-0.00825809
0.552623
-0.0078835
0.553448
-0.0075054
0.554236
-0.00712504
-0.00674767
0.554988
0.513096
-0.00036085
0.51309
-0.00100338
0.513082
-0.00160752
0.513079
-0.00222524
0.513085
-0.00287159
0.513106
-0.00355871
0.513152
-0.00429174
0.513229
-0.0050552
0.51334
-0.00582369
0.51349
-0.00658031
0.513684
-0.00731131
0.513927
-0.00800385
0.51422
-0.00864618
0.514564
-0.00923176
0.514962
-0.00976068
0.515415
-0.0102326
0.515926
-0.0106485
0.516494
-0.0110081
0.51712
-0.0113126
0.517803
-0.0115628
0.518542
-0.0117599
0.519336
-0.0119044
0.520181
-0.0119971
0.521073
-0.0120379
0.522007
-0.0120282
0.522978
-0.0119689
0.52398
-0.0118619
0.525006
-0.0117092
0.52605
-0.0115133
0.527103
-0.0112775
0.52816
-0.0110047
0.529213
-0.0106996
0.530255
-0.0103652
0.531281
-0.0100073
0.532285
-0.00962844
0.533262
-0.00923506
0.534208
-0.00882918
0.535119
-0.00841669
0.535993
-0.00799859
-0.00758154
0.536827
0.495175
-0.000357121
0.495158
-0.000986631
0.495137
-0.001586
0.495116
-0.00220471
0.495097
-0.00285242
0.49509
-0.00355175
0.495105
-0.00430611
0.495144
-0.00509445
0.495212
-0.00589211
0.495317
-0.00668457
0.495462
-0.00745716
0.495654
-0.00819505
0.495893
-0.00888571
0.496184
-0.00952264
0.496529
-0.0101057
0.496931
-0.0106347
0.497393
-0.0111102
0.497916
-0.0115315
0.498503
-0.0118993
0.499154
-0.0122136
0.499869
-0.012475
0.500647
-0.0126825
0.501486
-0.0128361
0.502382
-0.0129345
0.503332
-0.0129781
0.50433
-0.0129667
0.50537
-0.0129015
0.506444
-0.0127835
0.507546
-0.0126147
0.508666
-0.0123981
0.509798
-0.0121362
0.510932
-0.0118342
0.512062
-0.0114948
0.513179
-0.0111247
0.514277
-0.0107265
0.51535
-0.010308
0.516392
-0.00987126
0.5174
-0.00942392
0.518368
-0.00896662
-0.00850772
0.519294
0.477879
-0.000350071
0.477852
-0.000959488
0.477819
-0.00155312
0.477781
-0.0021664
0.477738
-0.00280959
0.477705
-0.00351899
0.477688
-0.00428903
0.47769
-0.00509593
0.477716
-0.00591825
0.477774
-0.00674293
0.477871
-0.00755342
0.478008
-0.00833285
0.478191
-0.00906869
0.478424
-0.00975564
0.478712
-0.0103932
0.479057
-0.0109797
0.479463
-0.0115164
0.479934
-0.0120024
0.480473
-0.0124382
0.481082
-0.0128229
0.481764
-0.0131562
0.482517
-0.0134358
0.483341
-0.0136604
0.484234
-0.0138275
0.485192
-0.0139364
0.486211
-0.0139852
0.487283
-0.0139742
0.488403
-0.0139029
0.489561
-0.0137729
0.490749
-0.0135862
0.491958
-0.0133451
0.493178
-0.0130545
0.494401
-0.0127172
0.495617
-0.0123406
0.496817
-0.0119272
0.497995
-0.0114862
0.499144
-0.0110196
0.500257
-0.0105374
0.50133
-0.0100397
-0.00953681
0.502359
0.461187
-0.000338772
0.46115
-0.000922507
0.461107
-0.00151095
0.461051
-0.00211019
0.460987
-0.00274541
0.460931
-0.00346267
0.460882
-0.00424053
0.460847
-0.0050603
0.460831
-0.00590298
0.460844
-0.00675569
0.46089
-0.00759952
0.460973
-0.00841584
0.461098
-0.00919316
0.461269
-0.0099273
0.461494
-0.0106178
0.461776
-0.011262
0.46212
-0.0118605
0.462531
-0.0124133
0.463014
-0.0129207
0.463572
-0.0133812
0.464209
-0.0137935
0.464927
-0.0141537
0.465726
-0.0144597
0.466606
-0.014707
0.467564
-0.0148939
0.468595
-0.0150163
0.469694
-0.0150734
0.470854
-0.0150628
0.472066
-0.0149851
0.473321
-0.0148411
0.474609
-0.0146327
0.475918
-0.0143641
0.477239
-0.014038
0.47856
-0.0136621
0.479872
-0.013239
0.481165
-0.0127794
0.482431
-0.012285
0.483662
-0.0117684
0.484851
-0.0112294
-0.0106804
0.485995
0.445075
-0.000321419
0.44503
-0.000877406
0.44498
-0.00146115
0.444906
-0.00203611
0.444824
-0.00266351
0.444745
-0.003384
0.444665
-0.00416058
0.444594
-0.00498934
0.444539
-0.00584752
0.444507
-0.00672369
0.444503
-0.00759541
0.44453
-0.00844326
0.444595
-0.00925778
0.444703
-0.0100354
0.444861
-0.0107756
0.445074
-0.0114756
0.44535
-0.0121363
0.445693
-0.0127567
0.446111
-0.0133382
0.446608
-0.0138786
0.447191
-0.0143758
0.447862
-0.0148249
0.448624
-0.0152222
0.449479
-0.0155616
0.450425
-0.0158397
0.451458
-0.0160502
0.452576
-0.0161907
0.453769
-0.0162564
0.455031
-0.0162469
0.456351
-0.0161608
0.457718
-0.0159994
0.459119
-0.0157657
0.460543
-0.0154621
0.461977
-0.0150964
0.463409
-0.014671
0.464828
-0.014198
0.466222
-0.0136791
0.467583
-0.0131292
0.468902
-0.0125484
-0.0119514
0.470173
0.429522
-0.000295088
0.429473
-0.000827691
0.429416
-0.00140424
0.429325
-0.00194525
0.429229
-0.00256811
0.429128
-0.00328252
0.429018
-0.00405017
0.428914
-0.00488568
0.428819
-0.00575311
0.428744
-0.00664848
0.42869
-0.0075414
0.428662
-0.00841522
0.428666
-0.00926196
0.428709
-0.0100783
0.428798
-0.0108638
0.428938
-0.0116161
0.429139
-0.0123372
0.429408
-0.0130256
0.429752
-0.0136822
0.430178
-0.0143051
0.430695
-0.0148921
0.431307
-0.0154369
0.432019
-0.0159349
0.432836
-0.0163779
0.433757
-0.0167608
0.434781
-0.0170746
0.435906
-0.0173153
0.437124
-0.0174749
0.438429
-0.0175516
0.439809
-0.0175412
0.441254
-0.0174439
0.442749
-0.0172609
0.444281
-0.016994
0.445835
-0.0166504
0.447397
-0.0162327
0.448952
-0.0157534
0.450488
-0.0152149
0.451993
-0.0146339
0.453456
-0.0140112
-0.0133642
0.454868
0.414509
-0.000255539
0.41446
-0.000779527
0.414395
-0.00133857
0.41429
-0.0018409
0.414184
-0.00246202
0.414058
-0.00315658
0.41392
-0.0039121
0.413787
-0.00475201
0.413655
-0.00562114
0.413539
-0.00653252
0.413435
-0.00743795
0.413353
-0.00833301
0.413297
-0.00920566
0.413274
-0.0100553
0.413291
-0.0108808
0.413355
-0.0116806
0.413476
-0.0124582
0.413663
-0.0132124
0.413925
-0.0139446
0.414272
-0.0146512
0.41471
-0.0153309
0.41525
-0.015977
0.415899
-0.0165837
0.416662
-0.0171411
0.417544
-0.0176422
0.418544
-0.0180752
0.419663
-0.0184338
0.420895
-0.0187067
0.422233
-0.01889
0.423668
-0.0189759
0.425187
-0.0189632
0.426776
-0.01885
0.42842
-0.0186376
0.4301
-0.0183313
0.431802
-0.017934
0.433506
-0.0174581
0.435198
-0.0169067
0.436862
-0.0162981
0.438486
-0.0156345
-0.0149358
0.440057
0.400013
-0.000197069
0.399976
-0.000742903
0.399897
-0.00125888
0.399785
-0.00172973
0.399667
-0.00234404
0.399517
-0.0030058
0.399355
-0.00375057
0.399194
-0.00459053
0.399026
-0.00545348
0.398873
-0.00637903
0.39872
-0.00728537
0.398587
-0.00819958
0.39847
-0.00908889
0.398382
-0.00996729
0.398326
-0.0108254
0.398313
-0.0116673
0.398351
-0.0124963
0.39845
-0.0133116
0.398623
-0.0141169
0.398879
-0.0149074
0.399229
-0.0156812
0.399684
-0.016432
0.400254
-0.0171536
0.400948
-0.017835
0.401773
-0.0184668
0.402732
-0.0190348
0.403828
-0.0195298
0.405058
-0.019937
0.406418
-0.0202496
0.407898
-0.0204556
0.409486
-0.0205514
0.411167
-0.0205314
0.412925
-0.0203952
0.414739
-0.0201457
0.416591
-0.0197853
0.418459
-0.0193258
0.420323
-0.018771
0.422165
-0.0181404
0.423968
-0.0174378
-0.0166858
0.425718
0.386016
-0.000112809
0.386005
-0.000731945
0.385901
-0.00115509
0.385794
-0.00162271
0.385657
-0.00220651
0.385486
-0.00283526
0.385304
-0.00356818
0.385117
-0.00440401
0.384916
-0.00525223
0.384729
-0.00619186
0.384527
-0.00708379
0.384348
-0.00802011
0.38417
-0.00891088
0.38402
-0.00981781
0.383891
-0.0106964
0.383801
-0.0115769
0.383753
-0.0124486
0.383761
-0.0133198
0.383837
-0.0141927
0.383993
-0.0150634
0.384244
-0.015932
0.384601
-0.0167887
0.385077
-0.0176296
0.385684
-0.018442
0.386433
-0.0192157
0.387332
-0.0199337
0.388386
-0.0205838
0.389596
-0.0211476
0.390961
-0.0216144
0.392473
-0.0219675
0.394121
-0.0221999
0.395891
-0.022301
0.397764
-0.022268
0.399718
-0.0220998
0.40173
-0.0217979
0.403777
-0.021372
0.405832
-0.0208268
0.407874
-0.0201821
0.40988
-0.0194442
-0.0186381
0.411833
0.3725
4.00298e-06
0.372531
-0.00076318
0.372389
-0.00101246
0.372301
-0.0015353
0.372129
-0.00203425
0.371954
-0.00265975
0.371746
-0.00336105
0.371542
-0.0041994
0.371307
-0.00501721
0.371092
-0.00597685
0.37084
-0.00683226
0.370623
-0.00780268
0.370381
-0.00866877
0.370178
-0.00961472
0.369972
-0.0104903
0.369809
-0.0114139
0.369671
-0.0123111
0.369588
-0.0132368
0.369562
-0.0141664
0.369611
-0.015113
0.369751
-0.0160712
0.369996
-0.0170339
0.370363
-0.0179964
0.370865
-0.0189441
0.371518
-0.0198686
0.372334
-0.0207498
0.373323
-0.0215729
0.374491
-0.0223161
0.375841
-0.0229639
0.377368
-0.0234944
0.379063
-0.0238957
0.380914
-0.0241513
0.3829
-0.0242543
0.384999
-0.0241985
0.387184
-0.0239828
0.389426
-0.0236139
0.391695
-0.0230962
0.393962
-0.0224492
0.3962
-0.0216818
-0.0208218
0.398383
0.359451
0.000158064
0.359539
-0.000851603
0.35934
-0.000813949
0.359291
-0.0014862
0.359065
-0.00180756
0.358908
-0.00250338
0.358663
-0.00311544
0.358456
-0.00399229
0.35818
-0.00474129
0.357948
-0.00574563
0.357642
-0.00652606
0.3574
-0.00756034
0.357087
-0.00835551
0.356844
-0.00937258
0.356552
-0.0101984
0.35633
-0.011191
0.356093
-0.0120748
0.355926
-0.0130694
0.355788
-0.0140287
0.355731
-0.0150554
0.355747
-0.0160872
0.355868
-0.0171558
0.356109
-0.0182366
0.356488
-0.019323
0.357023
-0.0204044
0.357733
-0.0214588
0.358631
-0.0224713
0.359731
-0.023416
0.361039
-0.0242722
0.362558
-0.0250131
0.364282
-0.0256202
0.366201
-0.02607
0.368296
-0.0263492
0.370542
-0.0264448
0.372911
-0.0263512
0.375367
-0.0260702
0.377876
-0.0256049
0.380399
-0.0249729
0.382903
-0.0241856
-0.0232734
0.385355
0.346856
0.000348526
0.347008
-0.00100382
0.346741
-0.000546874
0.346747
-0.00149147
0.346449
-0.00151043
0.346338
-0.00239157
0.346033
-0.00281082
0.345847
-0.00380655
0.345514
-0.00440834
0.345287
-0.00551877
0.344915
-0.00615332
0.344668
-0.00731401
0.34427
-0.00795709
0.344013
-0.00911578
0.343617
-0.00980212
0.34336
-0.010934
0.343004
-0.0117192
0.342774
-0.012839
0.342505
-0.0137597
0.342352
-0.0149022
0.342226
-0.0159611
0.342224
-0.0171539
0.342313
-0.0183265
0.342554
-0.0195638
0.342948
-0.0207978
0.343525
-0.0220361
0.344304
-0.02325
0.345305
-0.0244169
0.346541
-0.0255083
0.348022
-0.0264945
0.34975
-0.0273479
0.351718
-0.0280379
0.35391
-0.0285418
0.356303
-0.0288378
0.358865
-0.0289126
0.361555
-0.028761
0.364333
-0.0283821
0.36715
-0.0277903
0.369963
-0.0269987
-0.0260393
0.372729
0.334708
0.000567169
0.334917
-0.00121242
0.334582
-0.000212085
0.334647
-0.00155571
0.334275
-0.00113848
0.334223
-0.00234008
0.333843
-0.0024311
0.333702
-0.0036651
0.333294
-0.00400022
0.333096
-0.00532132
0.33264
-0.00569715
0.332417
-0.00709048
0.331913
-0.0074535
0.331675
-0.00887761
0.331146
-0.00927367
0.330897
-0.0106841
0.330385
-0.0112075
0.330136
-0.0125898
0.329694
-0.0133182
0.329483
-0.0146906
0.329174
-0.0156526
0.329071
-0.0170503
0.328972
-0.0182279
0.329076
-0.0196679
0.329285
-0.0210066
0.329714
-0.022465
0.330334
-0.0238706
0.331205
-0.0252878
0.332331
-0.0266338
0.33374
-0.0279036
0.335437
-0.0290449
0.337426
-0.0300272
0.339697
-0.0308133
0.34223
-0.0313702
0.34499
-0.0316733
0.347936
-0.0317067
0.351015
-0.0314612
0.354171
-0.0309461
0.357346
-0.0301736
-0.0291776
0.360484
0.322999
0.000798781
0.323242
-0.00145493
0.322858
0.00017188
0.322969
-0.00166636
0.322534
-0.000703938
0.32254
-0.00234583
0.322086
-0.00197779
0.321997
-0.00357556
0.321508
-0.00351161
0.321355
-0.00516851
0.320807
-0.00514822
0.320626
-0.00691036
0.320003
-0.00682974
0.319813
-0.00868803
0.319126
-0.00858637
0.318928
-0.0104865
0.318217
-0.0104964
0.31801
-0.0123832
0.317336
-0.0126434
0.317137
-0.0144917
0.316572
-0.015088
0.316432
-0.0169099
0.316068
-0.0178639
0.316078
-0.0196783
0.316025
-0.0209537
0.316319
-0.0227585
0.316708
-0.0242599
0.317434
-0.0260139
0.318388
-0.0275881
0.319692
-0.0292069
0.32131
-0.030663
0.323286
-0.0320036
0.325607
-0.0331338
0.328261
-0.034025
0.331222
-0.0346337
0.334441
-0.0349257
0.33786
-0.0348801
0.341408
-0.0344942
0.345009
-0.0337752
-0.0327619
0.348594
0.311717
0.00102465
0.311961
-0.00169888
0.311559
0.000574108
0.311688
-0.00179581
0.31122
-0.000235672
0.31126
-0.00238586
0.310756
-0.00147359
0.310704
-0.00352382
0.310152
-0.00295941
0.310037
-0.00505336
0.309408
-0.00451947
0.309269
-0.0067714
0.308534
-0.00609465
0.308398
-0.00855224
0.307551
-0.00773906
0.307426
-0.0103611
0.306494
-0.00956508
0.306374
-0.0122628
0.305417
-0.0116862
0.305302
-0.0143772
0.304401
-0.0141869
0.304321
-0.0168295
0.30358
-0.0171232
0.303602
-0.0197006
0.303154
-0.0205051
0.303397
-0.0230014
0.303404
-0.0242668
0.304029
-0.0266396
0.304679
-0.0282376
0.305877
-0.0304053
0.30732
-0.0321056
0.309259
-0.0339432
0.311574
-0.0354486
0.314328
-0.0367792
0.317478
-0.0377835
0.320981
-0.038429
0.324781
-0.0386793
0.328785
-0.0384984
0.332896
-0.0378868
-0.0368899
0.337024
0.300847
0.00122764
0.301057
-0.00190923
0.300672
0.00095913
0.300785
-0.00190924
0.300321
0.000228398
0.300361
-0.00242521
0.299843
-0.00095572
0.299798
-0.00347947
0.299218
-0.00237896
0.299113
-0.00494823
0.29844
-0.00384711
0.298313
-0.00664431
0.297508
-0.00528906
0.297393
-0.0084377
0.296429
-0.0067749
0.296346
-0.0102776
0.29523
-0.00844937
0.295179
-0.0122118
0.293953
-0.0104605
0.293933
-0.0143574
0.292672
-0.0129252
0.2927
-0.0168577
0.291508
-0.015931
0.291635
-0.0198278
0.290657
-0.0195273
0.290984
-0.0233279
0.290409
-0.0236919
0.291089
-0.0273203
0.291161
-0.0283092
0.292377
-0.0316208
0.293384
-0.0331132
0.295342
-0.0359005
0.297494
-0.0376011
0.30036
-0.0396453
0.303655
-0.0410781
0.307448
-0.0422226
0.311669
-0.0429003
0.316194
-0.0430234
0.32093
-0.042622
-0.0416963
0.325736
0.290368
0.0013965
0.290515
-0.00205675
0.290178
0.00129598
0.290244
-0.00197511
0.289821
0.000651725
0.289825
-0.00242932
0.289332
-0.000462887
0.289262
-0.00340903
0.288694
-0.00181088
0.288563
-0.00481813
0.287894
-0.00317761
0.287735
-0.00648567
0.28692
-0.00447366
0.286767
-0.00828472
0.285766
-0.00577425
0.285647
-0.0101578
0.284443
-0.00724634
0.284372
-0.0121404
0.28298
-0.00906793
0.282967
-0.0143446
0.281432
-0.0113905
0.281499
-0.0169248
0.279905
-0.0143366
0.280105
-0.0200278
0.278579
-0.0180019
0.279014
-0.023762
0.277748
-0.0224263
0.278577
-0.0281495
0.27784
-0.027572
0.279273
-0.0330541
0.279437
-0.0332768
0.281667
-0.0381311
0.283187
-0.0391204
0.286363
-0.0428218
0.289558
-0.0442723
0.293741
-0.0464063
0.298395
-0.0475544
0.3035
-0.0481282
0.309027
-0.0481488
-0.0473469
0.314677
0.280261
0.0015263
0.280326
-0.00212235
0.28006
0.00156217
0.280057
-0.00197174
0.279702
0.00100628
0.279646
-0.00237294
0.279208
-2.48512e-05
0.279087
-0.00328843
0.278563
-0.00128667
0.278382
-0.00463692
0.277754
-0.0025497
0.277526
-0.0062584
0.276759
-0.0037065
0.276507
-0.0080323
0.27556
-0.00482738
0.275308
-0.00990621
0.274147
-0.00608507
0.273923
-0.011916
0.272528
-0.00767354
0.272358
-0.014174
0.27074
-0.00977278
0.270659
-0.0168437
0.268859
-0.0125371
0.268936
-0.0201046
0.267039
-0.0161043
0.267396
-0.0241191
0.265548
-0.0205789
0.266387
-0.0289883
0.264835
-0.0260203
0.266438
-0.0346571
0.265558
-0.0323964
0.268222
-0.0407952
0.268567
-0.0394655
0.272475
-0.0467301
0.274811
-0.0466084
0.279922
-0.0515165
0.284709
-0.0523418
0.290613
-0.0540325
0.297153
-0.0546883
-0.0539698
0.303776
0.270509
0.00161598
0.270485
-0.00209839
0.270303
0.00174446
0.270221
-0.00188984
0.269952
0.00127564
0.269821
-0.00224207
0.269456
0.000339481
0.269272
-0.00310448
0.268811
-0.000825426
0.268567
-0.00439234
0.268003
-0.00198628
0.267689
-0.00594399
0.267008
-0.00302619
0.266618
-0.00764141
0.265797
-0.00400727
0.265335
-0.00944421
0.264341
-0.00509083
0.26383
-0.0114051
0.262621
-0.00646417
0.2621
-0.0136527
0.260644
-0.00831683
0.260167
-0.0163671
0.258453
-0.0108231
0.25811
-0.0197619
0.256165
-0.0141591
0.256097
-0.0240513
0.254009
-0.0184902
0.254446
-0.0294252
0.252398
-0.0239728
0.253749
-0.0360081
0.252029
-0.030676
0.25482
-0.0435868
0.253909
-0.0385541
0.258591
-0.0514117
0.259364
-0.0473822
0.266087
-0.0582391
0.269888
-0.0561434
0.2778
-0.0619444
0.285204
-0.0620924
-0.0617084
0.292943
0.2611
0.00166509
0.260998
-0.00199606
0.260895
0.00184722
0.260739
-0.00173362
0.260553
0.00146099
0.26035
-0.00203841
0.260061
0.000627811
0.259815
-0.00285834
0.259419
-0.000429401
0.259116
-0.0040896
0.258615
-0.0014852
0.258227
-0.0055562
0.257627
-0.0024256
0.257119
-0.00713337
0.256421
-0.00330986
0.255765
-0.00878796
0.254962
-0.00428722
0.254146
-0.0105893
0.253212
-0.00553024
0.252245
-0.0126858
0.251148
-0.0072204
0.250063
-0.0152821
0.248768
-0.00952731
0.24764
-0.0186346
0.246107
-0.0126263
0.245105
-0.0230484
0.243329
-0.0167149
0.242774
-0.0288704
0.240808
-0.0220062
0.241196
-0.0363962
0.239245
-0.0287253
0.241315
-0.0456569
0.239708
-0.036947
0.24445
-0.0561531
0.24382
-0.0467528
0.251982
-0.0664005
0.253792
-0.0579541
0.265212
-0.0733643
0.271959
-0.0688394
-0.0723719
0.282623
0.252026
0.00166843
0.25186
-0.00183056
0.251825
0.00188268
0.251607
-0.00151581
0.251491
0.0015775
0.251229
-0.00177676
0.251004
0.000852937
0.250709
-0.00256356
0.250367
-8.77006e-05
0.250022
-0.00374393
0.24957
-0.00103348
0.249134
-0.00512055
0.248588
-0.00187954
0.248013
-0.00655831
0.247386
-0.00268263
0.246627
-0.0080288
0.245919
-0.00357968
0.244943
-0.00961281