/*--------------------------------*- C++ -*----------------------------------*\
| =========                 |                                                 |
| \\      /  F ield         | OpenFOAM: The Open Source CFD Toolbox           |
|  \\    /   O peration     | Version:  2312                                  |
|   \\  /    A nd           | Website:  www.openfoam.com                      |
|    \\/     M anipulation  |                                                 |
\*---------------------------------------------------------------------------*/
FoamFile
{
    version     2.0;
    format      ascii;
    arch        "LSB;label=32;scalar=64";
    class       surfaceScalarField;
    location    "176.65";
    object      phi;
}
// * * * * * * * * * * * * * * * * * * * * * * * * * * * * * * * * * * * * * //

dimensions      [0 3 -1 0 0 0 0];

oriented        oriented;

internalField   nonuniform List<scalar> 
10785
(
-0.0014149
0.00548336
-0.00406846
-0.00130753
0.008281
-0.00838837
0.00371836
0.00384688
-0.00887277
0.0172157
-0.00959113
-0.00390621
0.0410713
-0.0321282
0.00827257
0.0736288
-0.060167
0.0276095
0.110449
-0.0890354
0.0522153
0.146208
-0.115044
0.0792857
0.176144
-0.13601
0.106074
0.197568
-0.151456
0.130031
0.210173
-0.162288
0.149683
0.217203
-0.170545
0.163515
0.221919
-0.17895
0.174234
0.22713
-0.18615
0.18094
-0.19604
0.19284
0.230329
-0.000486615
0.00596997
0.00214505
0.00564934
0.0124743
-0.00648241
0.0338421
-0.0309589
0.0642767
-0.0625627
0.0979355
-0.0938259
0.128702
-0.119802
0.152496
-0.138838
0.168301
-0.151815
0.177939
-0.161094
0.184694
-0.169043
0.191368
-0.177219
0.197796
-0.185378
0.204658
-0.193013
-0.201648
0.210266
0.000625369
0.0053446
0.00684897
-0.000574258
0.0239574
-0.0235909
0.0512758
-0.0582773
0.0817344
-0.0930214
0.108404
-0.120496
0.127861
-0.139258
0.140455
-0.151432
0.148838
-0.160199
0.155642
-0.167898
0.162127
-0.175527
0.167905
-0.182997
0.172885
-0.190358
0.177649
-0.197777
-0.205541
0.181542
0.00178983
0.00355477
0.0126367
-0.0114211
0.0356025
-0.0465567
0.0633666
-0.0860413
0.0875549
-0.11721
0.104709
-0.13765
0.115744
-0.150293
0.12328
-0.158968
0.129272
-0.166192
0.13445
-0.173075
0.138854
-0.179931
0.142927
-0.187071
0.147113
-0.194544
0.151656
-0.20232
-0.210635
0.15675
0.00330585
0.00024892
0.0190437
-0.027159
0.0438537
-0.0713667
0.0668712
-0.109059
0.0832338
-0.133572
0.0935127
-0.147929
0.100101
-0.156881
0.104833
-0.1637
0.108655
-0.170013
0.112049
-0.176469
0.115439
-0.183321
0.118862
-0.190493
0.122148
-0.19783
0.125327
-0.205499
-0.213194
0.127886
0.00532708
-0.00507816
0.024357
-0.0461888
0.0464666
-0.0934764
0.0631309
-0.125723
0.0733916
-0.143833
0.0793284
-0.153865
0.0830272
-0.16058
0.0857781
-0.166451
0.0881962
-0.172432
0.0904994
-0.178772
0.0926013
-0.185423
0.0944768
-0.192369
0.0963431
-0.199697
0.0982447
-0.2074
-0.215531
0.100582
0.00764571
-0.0127239
0.0269332
-0.0654763
0.0442096
-0.110753
0.0551936
-0.136707
0.0610339
-0.149673
0.0640222
-0.156854
0.0657814
-0.162339
0.067055
-0.167725
0.0680615
-0.173438
0.0688337
-0.179544
0.0694783
-0.186068
0.0701248
-0.193015
0.0707503
-0.200322
0.0713713
-0.208021
-0.21588
0.0717199
0.00936971
-0.0220936
0.0261966
-0.0823032
0.0386618
-0.123218
0.0451464
-0.143192
0.0478114
-0.152338
0.0486892
-0.157732
0.0488357
-0.162486
0.0486183
-0.167508
0.0481602
-0.17298
0.047542
-0.178926
0.0467811
-0.185307
0.0458564
-0.192091
0.0448722
-0.199338
0.043879
-0.207028
0.0432779
-0.215279
-0.000374556
0.0104496
-0.010075
-0.00254324
0.0258497
-0.023681
-0.00645331
0.0354798
-0.0315697
-0.0112285
0.0417867
-0.0370115
-0.0159936
0.0473842
-0.0426191
-0.0200353
0.053005
-0.0489633
-0.0226473
0.058079
-0.055467
-0.0230165
0.0616486
-0.0612794
-0.0203068
0.0627266
-0.0654363
-0.0137612
0.0603504
-0.066896
-0.00284549
0.0537587
-0.0646744
0.0128679
0.042191
-0.0579044
0.0321683
0.0263766
-0.045677
0.0550283
0.0040237
-0.0268837
-0.0229086
0.079442
-0.00150514
0.00124302
0.00920656
0.00203712
0.0250556
0.00157907
0.0359379
0.000619027
0.0427467
0.000341187
0.047662
0.00172442
0.0516218
0.00554518
0.0542582
0.0124629
0.0547309
0.0229828
0.0522067
0.0376021
0.045731
0.0557699
0.0355909
0.0780375
0.0199234
0.102185
0.00222896
0.129663
-0.0234543
-0.0516582
0.158413
0.0023514
0.00685516
0.00589841
0.0215086
0.00906163
0.0327746
0.012109
0.0396994
0.0162025
0.0435686
0.0224778
0.0453465
0.0316856
0.0450504
0.0443196
0.0420969
0.0602995
0.0362268
0.0800959
0.0259346
0.102112
0.0135747
0.127434
-0.00539826
0.155163
-0.0255007
0.185918
-0.0542087
-0.0857622
0.220022
0.00255349
0.00430166
0.00765276
0.0164093
0.0135941
0.0268333
0.0200522
0.0332412
0.0277262
0.0358945
0.0375725
0.0355002
0.0502483
0.0323746
0.066092
0.0262532
0.0847917
0.0175271
0.10635
0.00437593
0.130662
-0.0107366
0.159069
-0.0338058
0.190368
-0.0567999
0.227649
-0.091489
-0.12537
0.267256
0.00187516
0.0024265
0.00672969
0.0115548
0.0135352
0.0200277
0.021693
0.0250834
0.031347
0.0262405
0.0429975
0.0238498
0.0571032
0.0182688
0.0739474
0.00940897
0.0944041
-0.0029296
0.118726
-0.0199459
0.148535
-0.0405459
0.183514
-0.068785
0.223558
-0.0968433
0.266118
-0.134049
-0.16221
0.302958
0.000649084
0.00177742
0.0037224
0.00848148
0.00923397
0.0145162
0.0167676
0.0175498
0.026282
0.0167262
0.0383036
0.0118282
0.0539308
0.0026416
0.074403
-0.0110632
0.101275
-0.0298015
0.134279
-0.0529502
0.17423
-0.0804968
0.215791
-0.110346
0.258013
-0.139066
0.291686
-0.167722
-0.18233
0.311807
-0.000708938
0.00248635
4.3936e-05
0.00772861
0.00319656
0.0113635
0.00927763
0.0114687
0.019175
0.00682885
0.0346414
-0.00363822
0.0571751
-0.0198921
0.0874563
-0.0413444
0.124511
-0.0668561
0.165626
-0.0940651
0.206923
-0.121795
0.242405
-0.145828
0.269963
-0.166624
0.282304
-0.180063
-0.187142
0.287116
-0.00158211
-0.00224187
0.000248904
0.00781139
0.0229128
0.0468841
0.0792073
0.117149
0.156367
0.192333
0.220221
0.237909
0.245519
0.246395
0.252094
0.118401
-0.141654
0.102695
0.146089
-0.281612
0.253924
0.169486
-0.352518
0.329121
0.150878
-0.324073
0.342681
0.109731
-0.34506
0.386206
0.131092
-0.298412
0.277051
0.182798
-0.0358481
-0.0158578
0.232917
0.156563
-0.206683
0.257254
0.289586
-0.313922
0.246543
0.321518
-0.310807
0.220437
0.419347
-0.393241
0.21804
0.379541
-0.377144
0.246894
0.120161
-0.149015
0.275152
-0.0140177
-0.01424
0.276768
-0.275694
0.274078
0.283496
-0.396806
0.390078
0.287869
-0.47379
0.469417
0.290785
-0.413067
0.41015
0.291168
0.0177495
-0.0181329
0.306915
0.233777
-0.249524
0.316457
0.594497
-0.604039
0.31242
0.582939
-0.578902
0.305298
-0.00102788
0.0081502
0.311243
-0.281336
0.275391
0.313205
-0.707047
0.705085
0.327661
-0.586447
0.571991
0.315876
0.682295
-0.67051
0.308758
0.8803
-0.873183
0.287016
-0.23248
0.254222
0.28191
-0.541656
0.546761
0.277401
0.0483577
-0.0438486
0.271328
0.205177
-0.199104
0.267119
0.00623002
-0.00202178
0.264807
-0.0406798
0.0429918
0.262847
0.00484135
-0.00288145
0.260651
0.0133195
-0.0111228
0.258687
0.00699646
-0.00503314
0.00772946
-0.00581639
0.181234
-0.164476
0.183084
-0.283462
0.183084
-0.352518
0.173509
-0.314498
0.121708
-0.293258
0.110574
-0.287278
0.161877
-0.0871509
0.224374
0.094066
0.255907
0.258053
0.241497
0.335928
0.216838
0.444006
0.215641
0.380738
0.24604
0.0897624
0.27734
-0.0453174
0.272045
-0.2704
0.275539
-0.400299
0.279188
-0.477438
0.283266
-0.417146
0.2885
0.0125154
0.305308
0.21697
0.319964
0.57984
0.315339
0.587565
0.303206
0.0111044
0.306441
-0.28457
0.301244
-0.70185
0.317799
-0.603002
0.31985
0.680245
0.315424
0.884727
0.286903
-0.20396
0.278592
-0.533345
0.276613
0.0503367
0.272135
0.209655
0.267668
0.0106973
0.265215
-0.038227
0.263429
0.00662784
0.261426
0.0153227
0.25966
0.00876189
0.00940127
0.236039
-0.180493
0.225219
-0.272642
0.195095
-0.322394
0.180571
-0.299974
0.138465
-0.251153
0.110126
-0.258939
0.150869
-0.127894
0.216432
0.0285032
0.260125
0.21436
0.254967
0.341086
0.231294
0.467678
0.223587
0.388444
0.246196
0.0671538
0.276187
-0.0753083
0.266808
-0.26102
0.265269
-0.39876
0.266595
-0.478764
0.272199
-0.42275
0.282886
0.00182904
0.300146
0.199709
0.319885
0.560102
0.315409
0.592041
0.29868
0.027833
0.297558
-0.283448
0.284906
-0.689198
0.303325
-0.621421
0.320872
0.662698
0.318776
0.886823
0.284769
-0.169953
0.273091
-0.521667
0.273852
0.0495765
0.271104
0.212403
0.266611
0.0151895
0.264194
-0.0358097
0.26273
0.00809204
0.261086
0.0169668
0.259684
0.0101632
0.0106564
0.267271
-0.180507
0.245944
-0.251315
0.201599
-0.278049
0.175592
-0.273966
0.148517
-0.224078
0.12099
-0.231412
0.154254
-0.161158
0.218201
-0.0354436
0.260852
0.171709
0.25405
0.347887
0.235298
0.486431
0.231329
0.392413
0.246092
0.0523908
0.271205
-0.100421
0.260049
-0.249864
0.252495
-0.391207
0.250469
-0.476738
0.258545
-0.430826
0.274767
-0.0143925
0.290628
0.183848
0.313872
0.536858
0.310975
0.594938
0.291352
0.0474562
0.285265
-0.277362
0.265929
-0.669862
0.28507
-0.640561
0.316901
0.630867
0.317498
0.886226
0.280722
-0.133177
0.265724
-0.506669
0.269213
0.0460869
0.268237
0.213379
0.263982
0.0194446
0.2618
-0.033627
0.260803
0.00908845
0.259674
0.0180957
0.258795
0.0110422
0.01133
0.284257
-0.161806
0.246112
-0.213171
0.199753
-0.23169
0.167138
-0.241352
0.150714
-0.207654
0.12904
-0.209738
0.154541
-0.18666
0.216502
-0.0974046
0.264073
0.124138
0.274389
0.337571
0.267548
0.493272
0.25273
0.407231
0.24914
0.0559804
0.263394
-0.114676
0.25053
-0.237
0.236322
-0.376999
0.229547
-0.469963
0.24022
-0.441499
0.262711
-0.0368832
0.278948
0.16761
0.306121
0.509686
0.304994
0.596064
0.282619
0.0698315
0.270794
-0.265537
0.244878
-0.643947
0.264164
-0.659847
0.310569
0.584462
0.314085
0.88271
0.274983
-0.094075
0.257122
-0.488808
0.263066
0.0401429
0.263796
0.212649
0.259966
0.0232748
0.258183
-0.031844
0.257766
0.00950459
0.257288
0.018574
0.257075
0.0112557
0.0112745
0.280597
-0.130596
0.236483
-0.169058
0.195573
-0.190779
0.164004
-0.209783
0.148132
-0.191781
0.131093
-0.192699
0.142161
-0.197728
0.199265
-0.154508
0.256749
0.0666543
0.274004
0.320316
0.271558
0.495719
0.259408
0.419381
0.248797
0.066592
0.253975
-0.119853
0.239537
-0.222562
0.219765
-0.357227
0.20669
-0.456888
0.218777
-0.453586
0.246798
-0.0649039
0.263417
0.150991
0.29248
0.480623
0.294077
0.594467
0.272027
0.0918816
0.254887
-0.248397
0.22341
-0.61247
0.24163
-0.678066
0.299045
0.527047
0.305767
0.875988
0.266262
-0.0545695
0.247499
-0.470045
0.255449
0.0321929
0.257817
0.210281
0.254689
0.0264027
0.253494
-0.0306493
0.253764
0.00923504
0.254058
0.0182803
0.254639
0.0106742
0.0103625
0.256475
-0.0999545
0.220166
-0.132749
0.186251
-0.156864
0.160959
-0.184491
0.144626
-0.175449
0.126895
-0.174967
0.121267
-0.192101
0.160641
-0.193881
0.236339
-0.00904429
0.278613
0.278042
0.292453
0.481879
0.275889
0.435944
0.248306
0.0941757
0.24127
-0.112817
0.224184
-0.205476
0.201241
-0.334284
0.182618
-0.438265
0.194281
-0.465249
0.228374
-0.0989971
0.247885
0.13148
0.280861
0.447646
0.284046
0.591282
0.260698
0.115229
0.238783
-0.226482
0.20165
-0.575338
0.218953
-0.695369
0.287547
0.458453
0.297179
0.866356
0.256774
-0.0141651
0.237561
-0.450831
0.247017
0.0227369
0.250775
0.206523
0.248436
0.0287415
0.24796
-0.0301734
0.248987
0.00820827
0.25015
0.0171171
0.251635
0.00918908
0.00849053
0.230633
-0.0784937
0.205611
-0.107727
0.176253
-0.127506
0.152591
-0.160829
0.138173
-0.161031
0.120578
-0.157372
0.1035
-0.175023
0.114399
-0.20478
0.180181
-0.0748267
0.253264
0.204959
0.287119
0.448024
0.270075
0.452989
0.244194
0.120057
0.231331
-0.099955
0.210925
-0.18507
0.183856
-0.307215
0.160086
-0.414495
0.169634
-0.474797
0.204841
-0.134205
0.225988
0.110333
0.261567
0.412068
0.267701
0.585148
0.248278
0.134653
0.221736
-0.199939
0.181561
-0.535162
0.196161
-0.709969
0.270181
0.384433
0.283056
0.853481
0.245701
0.0231896
0.227001
-0.432131
0.23752
0.0122183
0.242581
0.201462
0.241362
0.0299611
0.241772
-0.0305836
0.243632
0.00634816
0.245745
0.0150039
0.248221
0.00671374
0.00557775
0.48465
-0.0602778
-0.502866
0.466449
-0.0895256
0.44079
-0.101847
0.41301
-0.133049
0.385772
-0.133794
0.35342
-0.12502
0.315219
-0.136822
0.254315
-0.143876
0.218114
-0.0386255
0.215256
0.207817
0.264299
0.39898
0.360368
0.356919
0.436607
0.0438185
0.458854
-0.122202
0.450106
-0.176322
0.43169
-0.288799
0.39853
-0.381335
0.35327
-0.429537
0.330331
-0.111266
0.303999
0.136665
0.317634
0.398432
0.366393
0.536389
0.411511
0.0895344
0.416844
-0.205272
0.370908
-0.489226
0.321873
-0.660934
0.352759
0.353547
0.397921
0.808319
0.400737
0.0203733
0.367641
-0.399035
0.358335
0.0215248
0.364368
0.195428
0.365743
0.0285865
0.363838
-0.0286789
0.362465
0.00772065
0.362151
0.0153181
0.36226
0.00660494
0.00513401
0.504871
-0.0442347
-0.520914
0.484831
-0.0694853
0.462239
-0.079256
0.432899
-0.103708
0.400152
-0.101047
0.372609
-0.097477
0.347798
-0.112011
0.295086
-0.0911649
0.23898
0.0174807
0.242909
0.203888
0.340702
0.301187
0.46106
0.236562
0.51403
-0.00915204
0.507069
-0.11524
0.485034
-0.154287
0.454927
-0.258691
0.40768
-0.334089
0.36034
-0.382197
0.322394
-0.0733195
0.296192
0.162867
0.324225
0.3704
0.397902
0.462712
0.452089
0.0353475
0.445395
-0.198579
0.377156
-0.420987
0.322449
-0.606226
0.358671
0.317324
0.418676
0.748314
0.430284
0.00876567
0.393233
-0.361984
0.381607
0.0331511
0.389892
0.187143
0.392868
0.0256107
0.39092
-0.0267305
0.389256
0.00938452
0.389047
0.0155272
0.38924
0.00641177
0.00469819
0.534917
-0.0333159
-0.545836
0.520166
-0.0547336
0.501383
-0.060473
0.476218
-0.0785437
0.451989
-0.0768173
0.424767
-0.0702554
0.38716
-0.0744033
0.347776
-0.0517811
0.325808
0.0394483
0.361602
0.168095
0.466189
0.1966
0.558891
0.143859
0.573465
-0.0237261
0.54725
-0.0890258
0.528097
-0.135134
0.495016
-0.22561
0.428662
-0.267734
0.35738
-0.310915
0.302248
-0.0181873
0.276299
0.188815
0.333061
0.313638
0.437068
0.358705
0.497061
-0.0246455
0.482247
-0.183765
0.391916
-0.330657
0.313224
-0.527534
0.355866
0.274683
0.446154
0.658026
0.465243
-0.0103232
0.420823
-0.317565
0.407225
0.0467492
0.418402
0.175966
0.422288
0.021725
0.419859
-0.024302
0.417916
0.0113273
0.417871
0.0155721
0.418046
0.00623674
0.00438414
0.568587
-0.0244734
-0.577429
0.553752
-0.0398993
0.536767
-0.0434878
0.515586
-0.0573625
0.49311
-0.054341
0.47337
-0.0505152
0.447314
-0.0483474
0.420437
-0.024904
0.424291
0.0355943
0.47959
0.112796
0.555886
0.120304
0.607831
0.0919139
0.610318
-0.0262122
0.580961
-0.0596692
0.550777
-0.104951
0.510389
-0.185222
0.441868
-0.199213
0.353107
-0.222154
0.291228
0.0436912
0.288396
0.191647
0.368439
0.233596
0.48693
0.240214
0.540643
-0.0783591
0.517455
-0.160577
0.413052
-0.226254
0.304173
-0.418654
0.358014
0.220841
0.486053
0.529987
0.505166
-0.0294361
0.445801
-0.258201
0.431353
0.0611972
0.449286
0.158033
0.454947
0.016064
0.451408
-0.0207633
0.449409
0.0133263
0.449866
0.015115
0.450085
0.00601809
0.00421161
0.605281
-0.0168945
-0.61286
0.594141
-0.0287594
0.581049
-0.0303956
0.564147
-0.04046
0.547515
-0.0377094
0.531005
-0.0340055
0.512455
-0.0297967
0.498316
-0.0107654
0.508408
0.0255021
0.555255
0.0659485
0.606325
0.0692344
0.637153
0.0610863
0.635351
-0.0244104
0.618631
-0.0429491
0.597064
-0.0833833
0.556476
-0.144635
0.490468
-0.133205
0.402118
-0.133804
0.360033
0.085776
0.381991
0.169689
0.458582
0.157005
0.558111
0.140685
0.588927
-0.109174
0.56633
-0.13798
0.46728
-0.127203
0.326976
-0.278351
0.383786
0.164031
0.541073
0.372701
0.552166
-0.0405294
0.475316
-0.181351
0.462617
0.0738964
0.490758
0.129893
0.497204
0.00961786
0.490733
-0.0142927
0.488646
0.0154134
0.489764
0.0139973
0.489852
0.00593037
0.00436731
0.649455
-0.0113538
-0.654996
0.64026
-0.0195639
0.630227
-0.0203633
0.617022
-0.0272548
0.603912
-0.0245992
0.59245
-0.0225439
0.580274
-0.0176199
0.574813
-0.00530514
0.585095
0.0152204
0.614379
0.0366645
0.645377
0.0382366
0.671667
0.0347962
0.667741
-0.0204841
0.64997
-0.0251787
0.631024
-0.0644374
0.596348
-0.109959
0.549452
-0.0863086
0.485132
-0.0694835
0.480363
0.0905445
0.524604
0.125448
0.579547
0.102062
0.642183
0.0780493
0.635069
-0.10206
0.608243
-0.111154
0.542823
-0.061783
0.401529
-0.137058
0.445436
0.120125
0.602091
0.216045
0.60371
-0.0421486
0.519301
-0.0969416
0.513507
0.0796906
0.549863
0.093536
0.554464
0.0050175
0.544518
-0.00434726
0.542663
0.0172684
0.54428
0.0123802
0.543943
0.0062676
0.00512976
0.699722
-0.00705054
-0.704025
0.69253
-0.0123714
0.685129
-0.0129627
0.675314
-0.0174395
0.666238
-0.0155235
0.658542
-0.0148479
0.651067
-0.0101449
0.649365
-0.0036032
0.656098
0.00848747
0.674286
0.0184769
0.69362
0.0189027
0.709318
0.0190975
0.706797
-0.0179626
0.701137
-0.0195192
0.684744
-0.0480439
0.645982
-0.0711969
0.613334
-0.0536607
0.580337
-0.0364865
0.600752
0.07013
0.646935
0.0792652
0.680634
0.0683619
0.717664
0.0410201
0.689859
-0.0742556
0.65198
-0.0732756
0.628759
-0.0385616
0.536658
-0.0449566
0.557596
0.0991863
0.672589
0.101053
0.667541
-0.0371011
0.593648
-0.0230489
0.594488
0.0788509
0.629299
0.0587251
0.630078
0.00423842
0.618498
0.00723281
0.616874
0.0188923
0.618036
0.0112177
0.61684
0.00746382
0.00675205
0.756524
-0.00391836
-0.759657
0.751318
-0.00716464
0.746035
-0.00768018
0.739265
-0.0106691
0.733
-0.00925851
0.727737
-0.00958501
0.723372
-0.00578037
0.72288
-0.00311057
0.72749
0.00387715
0.737878
0.00808854
0.748769
0.00801182
0.760046
0.00782071
0.756483
-0.0144001
0.749672
-0.0127079
0.737282
-0.035654
0.710741
-0.0446554
0.690757
-0.033677
0.673575
-0.0193045
0.698175
0.0455299
0.732431
0.0450093
0.749397
0.0513954
0.768512
0.0219053
0.74378
-0.0495228
0.712246
-0.0417421
0.70569
-0.0320056
0.664431
-0.00369749
0.682201
0.0814158
0.743855
0.0394
0.730054
-0.0233007
0.683003
0.0240025
0.692506
0.0693479
0.716835
0.0343957
0.713579
0.00749449
0.704349
0.0164631
0.703816
0.0194257
0.704129
0.0109039
0.702372
0.00922162
0.00876966
0.82009
-0.00168254
-0.822326
0.816546
-0.00362103
0.812992
-0.00412586
0.808372
-0.00604892
0.80434
-0.00522695
0.80073
-0.00597503
0.798358
-0.0034075
0.798005
-0.00275801
0.800725
0.0011575
0.806238
0.00257517
0.812342
0.00190768
0.817943
0.00221992
0.815113
-0.0115702
0.812036
-0.00963067
0.801466
-0.0250847
0.783222
-0.0264105
0.770121
-0.0205763
0.761718
-0.0109019
0.779127
0.0281215
0.799888
0.0242484
0.815973
0.0353103
0.825979
0.0118987
0.805806
-0.0293497
0.783597
-0.0195334
0.776161
-0.0245693
0.76484
0.00762389
0.787752
0.0585037
0.810554
0.0165974
0.791841
-0.00458762
0.775444
0.0403994
0.791377
0.0534154
0.802622
0.0231505
0.796849
0.0132679
0.792374
0.0209382
0.793245
0.0185544
0.792777
0.011372
0.791032
0.0109666
0.0105035
0.890807
-0.000160727
-0.892329
0.888509
-0.00132311
0.886159
-0.0017758
0.883159
-0.00304909
0.880629
-0.0026969
0.878132
-0.00347775
0.876797
-0.00207224
0.876229
-0.00218968
0.877725
-0.000339005
0.880282
1.83431e-05
0.883147
-0.00095731
0.886087
-0.000719977
0.883356
-0.00883972
0.880687
-0.00696179
0.87218
-0.0165775
0.861437
-0.0156675
0.853262
-0.0124015
0.848633
-0.00627218
0.86037
0.0163837
0.871869
0.0127502
0.883531
0.0236479
0.888516
0.00691359
0.875356
-0.0161891
0.864331
-0.00850915
0.855909
-0.0161465
0.852648
0.0108841
0.870611
0.0405408
0.877484
0.00972497
0.865936
0.00696038
0.867092
0.0392428
0.879918
0.0405892
0.882354
0.0207144
0.878458
0.0171639
0.878363
0.0210337
0.879556
0.0173609
0.87861
0.0123184
0.877424
0.0121526
0.0115729
0.96886
0.000843269
-0.969864
0.967432
0.000104857
0.965961
-0.000305436
0.964041
-0.00112855
0.962469
-0.00112525
0.960734
-0.00174267
0.959871
-0.00120952
0.959186
-0.00150392
0.959754
-0.000907593
0.960684
-0.000911749
0.961652
-0.0019247
0.962629
-0.00169714
0.960078
-0.00628865
0.958399
-0.00528246
0.95227
-0.0104486
0.945922
-0.00931954
0.940836
-0.00731593
0.938044
-0.00347981
0.945166
0.00926151
0.951053
0.00686336
0.960406
0.0142944
0.962722
0.00459761
0.954141
-0.00760795
0.947986
-0.00235384
0.939716
-0.00787624
0.940181
0.0104183
0.953877
0.0268451
0.954292
0.00931013
0.948312
0.0129402
0.954702
0.0328532
0.963659
0.0316322
0.963771
0.0206024
0.96232
0.0186148
0.963815
0.0195384
0.964765
0.0164111
0.964001
0.0130829
0.963458
0.0126951
0.012059
1.05464
0.00141297
-1.05521
1.05379
0.000961008
1.05287
0.00060946
1.05169
4.96344e-05
1.05069
-0.000124079
1.04953
-0.000578484
1.04885
-0.000527502
1.04818
-0.0008388
1.0481
-0.000824184
1.04818
-0.000993555
1.04803
-0.00177894
1.04814
-0.00180218
1.04609
-0.00423626
1.04457
-0.00377085
1.04044
-0.00630975
1.03651
-0.0053921
1.0334
-0.00420931
1.03179
-0.00186924
1.03603
0.00502197
1.03901
0.00388448
1.04465
0.00865156
1.04574
0.00350628
1.04067
-0.00253132
1.03766
0.000654576
1.03206
-0.00227521
1.03289
0.00958868
1.04079
0.0189377
1.04032
0.00978792
1.03927
0.013984
1.04569
0.0264361
1.05134
0.0259866
1.0516
0.020335
1.05178
0.0184417
1.05345
0.0178621
1.05421
0.0156544
1.05387
0.0134249
1.05373
0.0128285
0.0122501
1.14861
0.00170079
-1.1489
1.14815
0.00142692
1.14762
0.00113836
1.1469
0.000771253
1.14624
0.000536573
1.14547
0.000191401
1.14488
5.39142e-05
1.1443
-0.000250888
1.14388
-0.000412434
1.14358
-0.000684031
1.143
-0.00120265
1.14259
-0.00139341
1.14094
-0.00258173
1.13963
-0.00246754
1.13696
-0.00364074
1.13455
-0.00297966
1.13269
-0.00234441
1.13163
-0.000813057
1.13391
0.00274586
1.13526
0.00253313
1.13876
0.00515232
1.13925
0.00300856
1.13635
0.000373593
1.13455
0.0024574
1.13079
0.00148603
1.13199
0.00838131
1.13716
0.0137715
1.13676
0.0101848
1.13722
0.0135298
1.14233
0.02132
1.14668
0.0216341
1.14787
0.0191496
1.1486
0.0177125
1.14999
0.0164678
1.15079
0.0148556
1.15091
0.0133123
1.15102
0.0127113
0.0122551
1.25141
0.00179932
-1.25151
1.25119
0.00164171
1.25091
0.00142068
1.25051
0.0011765
1.25008
0.000966105
1.24957
0.000693564
1.24909
0.00053505
1.24861
0.000232355
1.2481
9.28224e-05
1.24766
-0.000241539
1.24697
-0.0005058
1.24638
-0.000804173
1.24513
-0.00133632
1.24405
-0.00138324
1.24232
-0.00191083
1.24077
-0.00143243
1.23957
-0.00114609
1.23885
-9.41349e-05
1.23998
0.0016131
1.24055
0.00196941
1.24234
0.0033613
1.24252
0.00282525
1.24098
0.0019143
1.24017
0.00326846
1.23819
0.00346867
1.23914
0.00742939
1.24201
0.0109034
1.24228
0.00991802
1.24365
0.0121528
1.2477
0.0172705
1.2511
0.018234
1.25282
0.0174362
1.25394
0.0165906
1.25519
0.0152177
1.25606
0.0139795
1.2565
0.0128754
1.25686
0.0123561
0.0120439
1.36387
0.00177567
-1.36384
1.36381
0.00169977
1.36369
0.00153883
1.36348
0.00138208
1.36323
0.00122243
1.36291
0.00100888
1.36255
0.000899303
1.36217
0.000612158
1.36172
0.000543046
1.36128
0.000191824
1.36066
0.000120014
1.36009
-0.000231109
1.35915
-0.000398977
1.35832
-0.000553821
1.35715
-0.000744668
1.35617
-0.000445984
1.35537
-0.000347358
1.35483
0.000442697
1.35531
0.00113345
1.35546
0.00182288
1.35637
0.00244774
1.35648
0.00271238
1.35571
0.00269155
1.35541
0.0035679
1.35439
0.00448293
1.35525
0.00657074
1.35728
0.00887187
1.35797
0.009234
1.35934
0.0107832
1.36246
0.0141424
1.36541
0.0152891
1.36739
0.0154595
1.36881
0.0151631
1.37001
0.0140208
1.37096
0.0130291
1.37166
0.0121728
1.37226
0.0117627
0.0116354
1.48688
0.00167706
-1.48678
1.48692
0.00165608
1.48691
0.00154363
1.48685
0.00145106
1.48672
0.00134545
1.48655
0.00118383
1.48631
0.00113221
1.48605
0.000877025
1.4857
0.000889218
1.48536
0.000538658
1.48488
0.000599589
1.48441
0.00023233
1.48375
0.000269093
1.48314
5.29256e-05
1.48236
3.25894e-05
1.48171
0.000205073
1.48117
0.000192182
1.48077
0.000841541
1.48092
0.000982351
1.48093
0.00181385
1.48136
0.00202147
1.48143
0.00263754
1.48113
0.00299616
1.48112
0.00357475
1.48087
0.00473748
1.48161
0.00583152
1.48298
0.0074944
1.48392
0.00829361
1.48548
0.00923007
1.48793
0.0116858
1.49041
0.0128151
1.49247
0.0134015
1.49416
0.01347
1.49539
0.0127924
1.49646
0.0119588
1.49739
0.0112371
1.49819
0.0109714
0.0109775
1.62145
0.00152469
-1.6213
1.62157
0.00154135
1.62165
0.00146573
1.62168
0.00142262
1.62166
0.00135957
1.6216
0.00124579
1.62149
0.00124021
1.62134
0.00102681
1.62113
0.00109883
1.62089
0.000777647
1.62057
0.000919695
1.62025
0.000556335
1.61981
0.000706964
1.61941
0.000455801
1.61892
0.000521289
1.61851
0.000619382
1.61816
0.000541055
1.61789
0.00111285
1.6179
0.000962815
1.61788
0.00183671
1.61809
0.00180947
1.61821
0.00251943
1.6182
0.00300589
1.6184
0.00337968
1.61853
0.00460059
1.61923
0.00513752
1.62042
0.00629886
1.62147
0.00724576
1.62294
0.00776672
1.62501
0.00961292
1.62714
0.0106827
1.62922
0.0113222
1.63098
0.0117142
1.63228
0.0114893
1.63358
0.0106582
1.63477
0.0100483
1.6357
0.0100413
0.0101485
1.76868
0.00133643
-1.7685
1.76885
0.001374
1.76899
0.00132487
1.7691
0.00131615
1.76918
0.00128188
1.76921
0.00121088
1.76922
0.00123099
1.76918
0.00106745
1.76911
0.00116487
1.769
0.000896406
1.76884
0.00107069
1.76866
0.000745861
1.76843
0.000936907
1.76818
0.000696314
1.76791
0.000792226
1.76768
0.000852077
1.76748
0.00074501
1.76735
0.00124234
1.76733
0.000977357
1.76738
0.00178636
1.76752
0.00166999
1.76772
0.00231953
1.76789
0.00284087
1.76823
0.00304219
1.76865
0.0041793
1.76934
0.0044403
1.77042
0.00521842
1.77147
0.00620186
1.77292
0.00631197
1.77478
0.00775296
1.77658
0.00888491
1.77866
0.00923795
1.78046
0.00992303
1.78175
0.0101915
1.78336
0.00905136
1.78486
0.00855226
1.78588
0.00901328
0.0091517
1.92974
0.00112097
-1.92952
1.92995
0.0011576
1.93015
0.00113233
1.93032
0.00113857
1.93048
0.00112248
1.93061
0.00108685
1.93073
0.00110724
1.93079
0.00100831
1.93087
0.00108238
1.93086
0.00091057
1.93089
0.0010403
1.93081
0.000828384
1.93077
0.000968263
1.93066
0.00081102
1.93057
0.000881159
1.93049
0.000935466
1.93038
0.000848712
1.93041
0.00121685
1.93037
0.001012
1.93056
0.00160323
1.93067
0.00155385
1.93099
0.00200382
1.93133
0.00249984
1.93178
0.00259276
1.93246
0.00350397
1.93316
0.00373704
1.93422
0.0041591
1.93527
0.00514762
1.93657
0.00501549
1.93826
0.00605989
1.93994
0.00720819
1.94197
0.00721115
1.94381
0.00807355
1.94526
0.00874323
1.94703
0.0072854
1.94868
0.00690291
1.94987
0.00782394
0.00793973
2.106
0.000879707
-2.10576
2.10625
0.00090464
2.10648
0.00089804
2.10672
0.000906562
2.10694
0.000901011
2.10714
0.000889995
2.10734
0.000898942
2.10749
0.000859407
2.10768
0.0008906
2.10778
0.000819307
2.10794
0.000875218
2.10798
0.00078958
2.1081
0.000850461
2.10811
0.000793792
2.10817
0.000825023
2.10823
0.000877918
2.10823
0.000845687
2.10839
0.001054
2.10842
0.000988968
2.10871
0.00130845
2.10891
0.00135936
2.1093
0.00161104
2.10982
0.0019759
2.11033
0.00208359
2.11118
0.00265209
2.11198
0.00293783
2.11296
0.00318671
2.11414
0.00396064
2.11526
0.00389665
2.11675
0.0045702
2.11852
0.00543708
2.12032
0.00540944
2.1223
0.00609665
2.12432
0.00672133
2.12593
0.00567628
2.12734
0.00549258
2.12891
0.00626079
0.00631818
2.29895
0.00061142
-2.29868
2.29922
0.000628197
2.29949
0.000629748
2.29976
0.000638626
2.30002
0.000638159
2.30027
0.000639419
2.30053
0.000642601
2.30075
0.000633312
2.301
0.000643017
2.3012
0.000622613
2.30143
0.000641473
2.3016
0.000617724
2.30181
0.000640329
2.30198
0.000629712
2.30216
0.000646188
2.30235
0.000681433
2.30251
0.000686052
2.30278
0.000785701
2.30298
0.000793139
2.30334
0.000947106
2.30368
0.00101347
2.30413
0.00116373
2.30474
0.00136619
2.30533
0.001496
2.30619
0.00179353
2.3071
0.0020289
2.30806
0.00221896
2.30936
0.00266505
2.31051
0.00274457
2.31193
0.00315036
2.31376
0.00360998
2.31545
0.00371997
2.31745
0.00409258
2.31975
0.0044237
2.32138
0.00404988
2.32284
0.00402944
2.32474
0.00435929
0.00439388
2.51014
0.000318147
-2.50985
2.51044
0.000326999
2.51074
0.000330029
2.51105
0.000335898
2.51135
0.000337059
2.51165
0.000340802
2.51195
0.000341898
2.51224
0.000342915
2.51254
0.000344648
2.51282
0.00034301
2.51311
0.000346917
2.51338
0.000345184
2.51367
0.000350775
2.51395
0.000353624
2.51423
0.000360554
2.51454
0.000377539
2.51484
0.000387269
2.5152
0.000425896
2.51554
0.000445912
2.51598
0.000506302
2.51644
0.000553186
2.51699
0.000622865
2.51763
0.000717911
2.51833
0.000798471
2.5192
0.000924166
2.52017
0.0010573
2.52124
0.00115244
2.52254
0.00136285
2.52385
0.00143556
2.52537
0.00163045
2.52714
0.00183755
2.52894
0.00192435
2.53094
0.0020931
2.53312
0.00223768
2.53504
0.00213473
2.53691
0.00215585
2.53899
0.00228094
0.00230106
2.74147
-2.74115
2.74179
2.74212
2.74246
2.7428
2.74314
2.74348
2.74382
2.74417
2.74451
2.74486
2.7452
2.74555
2.74591
2.74627
2.74664
2.74703
2.74746
2.7479
2.74841
2.74896
2.74959
2.7503
2.7511
2.75203
2.75308
2.75424
2.7556
2.75703
2.75867
2.7605
2.76243
2.76452
2.76676
2.76889
2.77105
2.77333
0.4399
0.0366327
-0.433255
0.448809
0.0628109
0.45538
0.0940115
0.464853
0.118412
0.472348
0.149255
0.482495
0.171395
0.493146
0.199615
0.22061
0.469767
0.030967
-0.464101
0.476971
0.0556067
0.483095
0.0878872
0.49069
0.110817
0.498043
0.141902
0.505242
0.164196
0.512859
0.191998
0.212555
0.503703
0.0261914
-0.498928
0.508675
0.0506348
0.513964
0.0825985
0.51881
0.105971
0.524391
0.136322
0.530052
0.158535
0.537245
0.184805
0.203963
0.540506
0.0222136
-0.536529
0.543816
0.0473251
0.548258
0.0781568
0.552363
0.101867
0.558022
0.130663
0.563959
0.152597
0.570874
0.177891
0.197408
0.581437
0.0191127
-0.578336
0.584057
0.0447051
0.588249
0.0739649
0.59222
0.0978951
0.597189
0.125693
0.601893
0.147894
0.607137
0.172647
0.191684
0.626897
0.0166117
-0.624396
0.629142
0.0424605
0.632594
0.0705127
0.635686
0.0948031
0.63972
0.121659
0.643946
0.143668
0.649392
0.167202
0.186079
0.677018
0.0148111
-0.675218
0.678849
0.04063
0.681771
0.0675911
0.684766
0.0918076
0.688989
0.117436
0.693377
0.13928
0.698833
0.161746
0.180887
0.732677
0.0134609
-0.731326
0.734395
0.0389115
0.73724
0.0647464
0.740338
0.0887094
0.744583
0.113191
0.748921
0.134943
0.754215
0.156451
0.175446
0.794439
0.0123979
-0.793376
0.796122
0.037228
0.798856
0.0620131
0.802012
0.085553
0.806234
0.108969
0.810828
0.130349
0.816423
0.150856
0.169543
0.862643
0.0115332
-0.861779
0.864326
0.0355453
0.867038
0.059301
0.87042
0.0821713
0.874872
0.104517
0.879966
0.125255
0.885924
0.144898
0.163138
0.937834
0.010763
-0.937064
0.939602
0.0337779
0.942435
0.0564677
0.946151
0.0784554
0.95092
0.0997476
0.956452
0.119722
0.96283
0.138521
0.156104
1.02051
0.0100215
-1.01977
1.02238
0.0319079
1.02538
0.0534677
1.02941
0.0744301
1.03451
0.0946432
1.04052
0.113713
1.04747
0.131575
0.14836