/*--------------------------------*- C++ -*----------------------------------*\
| =========                 |                                                 |
| \\      /  F ield         | OpenFOAM: The Open Source CFD Toolbox           |
|  \\    /   O peration     | Version:  2512                                  |
|   \\  /    A nd           | Website:  www.openfoam.com                      |
|    \\/     M anipulation  |                                                 |
\*---------------------------------------------------------------------------*/
FoamFile
{
    version     2.0;
    format      ascii;
    arch        "LSB;label=32;scalar=64";
    class       volScalarField;
    location    "64.85";
    object      p;
}
// * * * * * * * * * * * * * * * * * * * * * * * * * * * * * * * * * * * * * //

dimensions      [0 2 -2 0 0 0 0];

internalField   nonuniform List<scalar> 
13248
(
-0.378261
-0.378307
-0.376311
-0.372819
-0.36824
-0.363072
-0.357908
-0.353382
-0.349963
-0.347803
-0.346695
-0.346118
-0.345356
-0.343669
-0.340451
-0.335355
-0.328317
-0.319463
-0.308953
-0.297033
-0.283386
-0.268649
-0.250756
-0.230892
-0.385073
-0.384525
-0.382338
-0.379036
-0.374943
-0.370362
-0.365642
-0.361074
-0.356796
-0.352745
-0.34868
-0.344244
-0.339064
-0.332858
-0.32549
-0.316966
-0.307349
-0.296709
-0.285075
-0.27242
-0.258753
-0.244015
-0.22791
-0.211722
-0.394293
-0.392806
-0.390142
-0.386713
-0.382761
-0.378392
-0.373606
-0.368316
-0.362404
-0.355774
-0.348374
-0.340193
-0.33127
-0.321681
-0.311512
-0.300813
-0.289594
-0.277855
-0.265542
-0.252716
-0.239217
-0.225272
-0.210589
-0.195567
-0.405613
-0.402922
-0.399523
-0.395678
-0.391508
-0.386837
-0.381265
-0.374405
-0.3661
-0.356469
-0.345808
-0.334458
-0.32271
-0.310758
-0.29869
-0.286517
-0.274218
-0.261745
-0.249082
-0.236182
-0.223046
-0.209812
-0.196214
-0.183142
-0.41907
-0.415044
-0.410753
-0.406276
-0.401475
-0.395794
-0.388495
-0.379156
-0.367886
-0.355182
-0.341652
-0.327811
-0.313993
-0.300358
-0.286951
-0.273747
-0.260693
-0.247744
-0.234849
-0.222002
-0.209196
-0.196468
-0.183743
-0.171424
-0.434992
-0.429541
-0.42429
-0.418945
-0.412915
-0.40525
-0.395158
-0.382563
-0.368047
-0.352443
-0.336492
-0.320691
-0.305296
-0.290394
-0.275973
-0.261981
-0.248358
-0.235046
-0.222009
-0.209215
-0.196651
-0.184341
-0.172215
-0.160627
-0.453659
-0.446725
-0.440422
-0.433814
-0.425683
-0.414881
-0.401028
-0.384697
-0.366927
-0.348701
-0.3307
-0.313294
-0.296622
-0.280693
-0.265457
-0.250844
-0.236784
-0.223217
-0.21009
-0.197366
-0.185022
-0.173023
-0.161367
-0.150201
-0.475094
-0.466636
-0.459078
-0.450557
-0.439197
-0.42413
-0.405845
-0.385624
-0.364764
-0.344187
-0.324399
-0.305604
-0.28783
-0.271025
-0.255107
-0.239988
-0.225587
-0.211831
-0.198657
-0.186014
-0.173855
-0.162147
-0.15089
-0.140084
-0.498905
-0.488921
-0.479739
-0.468356
-0.452542
-0.432335
-0.409326
-0.385316
-0.361605
-0.338907
-0.317512
-0.29747
-0.278716
-0.261149
-0.244655
-0.229128
-0.214472
-0.2006
-0.187434
-0.174905
-0.162954
-0.151534
-0.140621
-0.130103
-0.524231
-0.51274
-0.501369
-0.485937
-0.464566
-0.438735
-0.411039
-0.383483
-0.357166
-0.332536
-0.309673
-0.288498
-0.268871
-0.250642
-0.233671
-0.217828
-0.202998
-0.189076
-0.175972
-0.163602
-0.151892
-0.140791
-0.13023
-0.120049
-0.549767
-0.536767
-0.522396
-0.501669
-0.473923
-0.442337
-0.410181
-0.379368
-0.350687
-0.324306
-0.300125
-0.277951
-0.257579
-0.238814
-0.221482
-0.205432
-0.190527
-0.176647
-0.163686
-0.151549
-0.140154
-0.129435
-0.119279
-0.109544
-0.573827
-0.559296
-0.540907
-0.513748
-0.479158
-0.441942
-0.405664
-0.37193
-0.341161
-0.313262
-0.287968
-0.264986
-0.24405
-0.224918
-0.207385
-0.191272
-0.176422
-0.162699
-0.149984
-0.138172
-0.127182
-0.116941
-0.107319
-0.0982338
-0.403596
-0.40298
-0.402209
-0.402196
-0.403421
-0.406185
-0.410623
-0.416967
-0.42542
-0.436242
-0.449682
-0.465919
-0.484991
-0.506744
-0.530778
-0.556428
-0.582783
-0.608783
-0.633196
-0.654706
-0.672192
-0.684568
-0.689982
-0.687459
-0.405845
-0.404058
-0.402854
-0.40248
-0.403429
-0.406068
-0.410344
-0.416875
-0.425688
-0.437109
-0.45144
-0.46889
-0.489501
-0.513087
-0.539184
-0.56704
-0.595637
-0.623772
-0.650137
-0.673332
-0.692063
-0.704894
-0.712112
-0.710656
-0.406293
-0.403541
-0.401821
-0.401011
-0.401486
-0.403636
-0.407661
-0.413819
-0.422345
-0.433546
-0.447717
-0.465057
-0.485589
-0.509099
-0.53509
-0.562776
-0.591122
-0.618918
-0.644964
-0.668038
-0.686065
-0.698396
-0.704959
-0.702828
-0.40469
-0.401268
-0.399043
-0.397652
-0.397385
-0.398694
-0.401859
-0.407102
-0.414664
-0.424827
-0.437859
-0.453936
-0.473066
-0.495024
-0.519312
-0.54516
-0.571564
-0.597319
-0.621343
-0.641766
-0.659639
-0.671182
-0.676774
-0.672886
-0.40122
-0.397508
-0.394855
-0.392755
-0.391452
-0.391478
-0.393224
-0.396963
-0.402941
-0.411413
-0.422612
-0.43669
-0.453644
-0.473262
-0.495089
-0.518416
-0.542319
-0.565783
-0.587819
-0.607229
-0.62322
-0.633078
-0.636866
-0.629831
-0.396369
-0.392783
-0.389846
-0.387
-0.384457
-0.382841
-0.382695
-0.384423
-0.388337
-0.3947
-0.403726
-0.415545
-0.430148
-0.447344
-0.466741
-0.487748
-0.509418
-0.530978
-0.551377
-0.568913
-0.582687
-0.589833
-0.58986
-0.577475
-0.390764
-0.387676
-0.384649
-0.381144
-0.377349
-0.373951
-0.37167
-0.371098
-0.372688
-0.376777
-0.383601
-0.393284
-0.405813
-0.420984
-0.43842
-0.457544
-0.477768
-0.497592
-0.515799
-0.530556
-0.54047
-0.542696
-0.536456
-0.517364
-0.385038
-0.382718
-0.379791
-0.375815
-0.370965
-0.365956
-0.361656
-0.35886
-0.358212
-0.360178
-0.365065
-0.373022
-0.384025
-0.397874
-0.414117
-0.431888
-0.450136
-0.467291
-0.481888
-0.491729
-0.495533
-0.49096
-0.477739
-0.453132
-0.379809
-0.378375
-0.375674
-0.371445
-0.365885
-0.359711
-0.353881
-0.349361
-0.346974
-0.347343
-0.350869
-0.357716
-0.367773
-0.380593
-0.395367
-0.410922
-0.425855
-0.438427
-0.447227
-0.450331
-0.447312
-0.436651
-0.419261
-0.39337
-0.375751
-0.375153
-0.372711
-0.368424
-0.362549
-0.355815
-0.349205
-0.343779
-0.340488
-0.340042
-0.342845
-0.348914
-0.357872
-0.368937
-0.380961
-0.392567
-0.402206
-0.408462
-0.410256
-0.406751
-0.398465
-0.384867
-0.367814
-0.344814
-0.373687
-0.373685
-0.37147
-0.367335
-0.361517
-0.35489
-0.348312
-0.342839
-0.339434
-0.338696
-0.340863
-0.345727
-0.35263
-0.360544
-0.368185
-0.374243
-0.377461
-0.377098
-0.372657
-0.36449
-0.353268
-0.339441
-0.324894
-0.306051
-0.374399
-0.37463
-0.372572
-0.368712
-0.36343
-0.357389
-0.35143
-0.346454
-0.343165
-0.342017
-0.34301
-0.345703
-0.34928
-0.352697
-0.35487
-0.354891
-0.352155
-0.346546
-0.338095
-0.327471
-0.314633
-0.30049
-0.285529
-0.269254
-0.674744
-0.642035
-0.587736
-0.514113
-0.431094
-0.352073
-0.287452
-0.242999
-0.219695
-0.214124
-0.224603
-0.252424
-0.294155
-0.335607
-0.356526
-0.341427
-0.293576
-0.233132
-0.179821
-0.142539
-0.121697
-0.115238
-0.120567
-0.139372
-0.177531
-0.230848
-0.276925
-0.288342
-0.257351
-0.201985
-0.146982
-0.108123
-0.0862155
-0.0771773
-0.0832512
-0.105907
-0.132447
-0.141237
-0.122736
-0.0912236
-0.0637733
-0.0483143
-0.044818
-0.0543496
-0.0663768
-0.0686544
-0.0619599
-0.0505479
-0.0378611
-0.0327751
-0.0387727
-0.0449698
-0.0407923
-0.0268944
-0.0159137
-0.00975026
-0.0112729
-0.0137949
-0.0129096
-0.0030705
-0.698989
-0.666843
-0.612647
-0.536498
-0.448473
-0.363606
-0.292796
-0.241293
-0.209829
-0.196821
-0.200294
-0.220743
-0.255923
-0.294531
-0.316172
-0.304879
-0.264288
-0.212065
-0.166098
-0.133953
-0.117291
-0.114842
-0.124303
-0.148167
-0.192591
-0.251864
-0.302163
-0.313726
-0.279608
-0.218495
-0.157289
-0.112472
-0.0852779
-0.0708897
-0.0707
-0.0867827
-0.108573
-0.115542
-0.0991894
-0.0730063
-0.0521574
-0.0424998
-0.0444308
-0.0598225
-0.0771994
-0.0815224
-0.0733949
-0.058346
-0.0406922
-0.0295543
-0.0308109
-0.0346406
-0.0318812
-0.0224987
-0.0167463
-0.0160978
-0.021061
-0.0251552
-0.0224328
-0.00488882
-0.689864
-0.657856
-0.605971
-0.532008
-0.444415
-0.358463
-0.286467
-0.232579
-0.196265
-0.175955
-0.170655
-0.181463
-0.207485
-0.240229
-0.262539
-0.257078
-0.226034
-0.184138
-0.146245
-0.119719
-0.107753
-0.109455
-0.12281
-0.151005
-0.200098
-0.263534
-0.317266
-0.331885
-0.295879
-0.230674
-0.164435
-0.114723
-0.083033
-0.063869
-0.0578578
-0.0677397
-0.0850994
-0.0906672
-0.0763089
-0.0550682
-0.0401203
-0.0359055
-0.0435499
-0.0652322
-0.0881805
-0.0943334
-0.084323
-0.0653684
-0.0429608
-0.0260777
-0.0226804
-0.0241921
-0.0228813
-0.017959
-0.0175155
-0.022669
-0.0313842
-0.0374155
-0.032703
-0.0068414
-0.656229
-0.624032
-0.576279
-0.506345
-0.422969
-0.341108
-0.271492
-0.218097
-0.179988
-0.155135
-0.142293
-0.142271
-0.156891
-0.181002
-0.201628
-0.201934
-0.181345
-0.150378
-0.120877
-0.100261
-0.0929815
-0.0985288
-0.114974
-0.14567
-0.197013
-0.263297
-0.320398
-0.340439
-0.304591
-0.237746
-0.168023
-0.114734
-0.0795995
-0.0566595
-0.045522
-0.0497478
-0.0630367
-0.0675108
-0.0549927
-0.0378625
-0.027839
-0.0284826
-0.0418195
-0.0700584
-0.098743
-0.106621
-0.0943016
-0.0713638
-0.044525
-0.0224131
-0.0146107
-0.013851
-0.0139598
-0.0133197
-0.0181837
-0.0293713
-0.0421025
-0.0504384
-0.0435926
-0.00894813
-0.607488
-0.573772
-0.530543
-0.466746
-0.39079
-0.316666
-0.252426
-0.200972
-0.162427
-0.134915
-0.117022
-0.108772
-0.111682
-0.125298
-0.141257
-0.146905
-0.133264
-0.112731
-0.0914425
-0.076583
-0.0735904
-0.0825249
-0.101256
-0.132698
-0.183612
-0.250394
-0.310543
-0.336353
-0.304678
-0.239402
-0.168302
-0.112723
-0.0752046
-0.0495314
-0.0343388
-0.0334674
-0.0430471
-0.0467733
-0.0359738
-0.0217926
-0.0155473
-0.0202209
-0.0388367
-0.0737295
-0.108182
-0.117776
-0.102991
-0.0761748
-0.0453308
-0.0186295
-0.00677399
-0.00381335
-0.00521428
-0.00857846
-0.0186837
-0.0360838
-0.0530664
-0.064039
-0.0549433
-0.0112282
-0.547304
-0.5114
-0.473709
-0.418613
-0.353347
-0.289583
-0.232825
-0.184874
-0.146501
-0.11722
-0.0956914
-0.0813694
-0.0753133
-0.078396
-0.0867308
-0.0922528
-0.0847048
-0.0741959
-0.0601607
-0.0504583
-0.0512143
-0.0630024
-0.0833086
-0.114122
-0.162092
-0.226134
-0.287585
-0.317415
-0.29495
-0.235116
-0.165412
-0.109002
-0.0700822
-0.0427034
-0.0244759
-0.0193386
-0.0255978
-0.0289162
-0.0207646
-0.00726226
-0.00360435
-0.0113565
-0.0345747
-0.0756937
-0.115703
-0.127155
-0.110033
-0.0796294
-0.04532
-0.0147754
0.000680051
0.00575922
0.00329578
-0.00374749
-0.0189221
-0.0426679
-0.0641255
-0.0780218
-0.066587
-0.0136908
-0.480032
-0.444364
-0.414258
-0.36981
-0.316766
-0.26412
-0.215255
-0.171567
-0.134177
-0.103656
-0.0794914
-0.0609095
-0.0480169
-0.0421697
-0.0427857
-0.0453544
-0.0374305
-0.0372287
-0.0291477
-0.0238566
-0.0276467
-0.0415465
-0.0627321
-0.0919139
-0.135159
-0.193893
-0.254048
-0.289278
-0.277453
-0.225659
-0.159741
-0.104022
-0.0646383
-0.0364303
-0.0161148
-0.00749452
-0.0108689
-0.0139137
-0.00636035
0.00550859
0.00743188
-0.00227336
-0.0287783
-0.0754875
-0.120607
-0.134134
-0.115193
-0.0816368
-0.0445004
-0.0108734
0.00764261
0.0147291
0.0115244
0.001191
-0.0188256
-0.0490649
-0.0751541
-0.092208
-0.0783742
-0.0163318
-0.412273
-0.380676
-0.359044
-0.325353
-0.284086
-0.241787
-0.200358
-0.161269
-0.125771
-0.0948295
-0.0688709
-0.0474797
-0.0301691
-0.0176585
-0.0114359
-0.0113064
-0.0180774
-0.0061459
-0.000528672
0.0014752
-0.00460386
-0.0197677
-0.0411533
-0.0681785
-0.106093
-0.157856
-0.214747
-0.254759
-0.253481
-0.211622
-0.15158
-0.0980361
-0.0590919
-0.0308306
-0.00933408
0.00202505
0.00117764
-0.00169343
0.00514945
0.0160206
0.0171106
0.00667899
-0.0218863
-0.0727261
-0.122223
-0.138083
-0.118097
-0.0821294
-0.0428979
-0.00694026
0.0140488
0.0230037
0.019409
0.00618723
-0.0183444
-0.0551569
-0.0860163
-0.106443
-0.0901947
-0.0191403
-0.354625
-0.32945
-0.314507
-0.289219
-0.257338
-0.223426
-0.188398
-0.153691
-0.120786
-0.0905013
-0.0635425
-0.0402902
-0.0203436
-0.00357692
0.00861324
0.0147194
0.0157846
0.0224535
0.0246373
0.0242716
0.0167945
0.00129059
-0.019615
-0.0443626
-0.0768127
-0.121243
-0.173429
-0.216316
-0.226051
-0.194523
-0.141423
-0.0912226
-0.053479
-0.0258107
-0.00399167
0.00937031
0.0107325
0.00799279
0.0136739
0.0240649
0.0250139
0.0151266
-0.0135675
-0.0670722
-0.12067
-0.138783
-0.118906
-0.0811788
-0.0405939
-0.00309354
0.0198399
0.030501
0.0269276
0.0112804
-0.0174191
-0.0609704
-0.0966631
-0.120609
-0.101988
-0.0221119
-0.312403
-0.293173
-0.281557
-0.261263
-0.235875
-0.208265
-0.178685
-0.148134
-0.118028
-0.0892489
-0.0623407
-0.0379854
-0.0164074
0.00268066
0.01861
0.0298707
0.0360246
0.0398302
0.0442223
0.0424946
0.0345995
0.0199415
0.000524587
-0.0218866
-0.0498685
-0.0871075
-0.132442
-0.176599
-0.193563
-0.173295
-0.128939
-0.0836881
-0.0479872
-0.0214468
-8.80203e-05
0.0146112
0.0179871
0.0154794
0.0197467
0.0295387
0.03082
0.0225878
-0.00509922
-0.0588907
-0.115099
-0.135586
-0.11673
-0.0787279
-0.0377249
0.000433314
0.0248154
0.0371951
0.0339938
0.0163585
-0.0160586
-0.066309
-0.10693
-0.13459
-0.113708
-0.0252406
-0.281593
-0.268076
-0.257834
-0.240268
-0.219313
-0.196432
-0.171319
-0.144499
-0.117
-0.0898056
-0.0635984
-0.0389851
-0.0164365
0.00409754
0.0223715
0.0372369
0.0478765
0.0552465
0.0593579
0.0568745
0.0493047
0.0360179
0.0184213
-0.0014127
-0.0248136
-0.0558971
-0.0968958
-0.139987
-0.168378
-0.154337
-0.117489
-0.0773533
-0.0438443
-0.0183621
0.00221173
0.0177889
0.023174
0.0211351
0.0239139
0.0329625
0.0342926
0.029425
0.00426907
-0.0484135
-0.10707
-0.129732
-0.113515
-0.0754203
-0.0345496
0.00382574
0.0288971
0.0428633
0.0407282
0.0215508
-0.0141362
-0.0713314
-0.116913
-0.148328
-0.125231
-0.0284445
-0.256287
-0.24984
-0.240087
-0.224241
-0.206696
-0.187969
-0.167346
-0.144666
-0.120386
-0.0953737
-0.070416
-0.0461775
-0.0232958
-0.00202739
0.0175239
0.0344238
0.0480072
0.0587372
0.0654614
0.065948
0.0597584
0.0488761
0.0340376
0.0162288
-0.00452602
-0.0295491
-0.0626699
-0.100536
-0.126132
-0.124462
-0.0996786
-0.0676662
-0.038061
-0.0141733
0.00520275
0.0206797
0.0274128
0.0258427
0.0272268
0.0351249
0.0342403
0.0336013
0.0123504
-0.0369452
-0.0952302
-0.119757
-0.105763
-0.0703226
-0.0301042
0.00842479
0.0332349
0.0477183
0.0467073
0.0265679
-0.0116661
-0.0756341
-0.12615
-0.161692
-0.136277
-0.0315027
-0.227805
-0.23396
-0.223494
-0.205795
-0.186963
-0.168256
-0.148965
-0.128224
-0.105949
-0.0828117
-0.0595877
-0.036971
-0.0154827
0.00479473
0.0238304
0.0408026
0.0547365
0.0658783
0.0739915
0.075884
0.0707377
0.0612398
0.0495657
0.035204
0.0176506
-0.0047758
-0.0386325
-0.0797057
-0.110089
-0.104102
-0.0808265
-0.0526827
-0.026882
-0.00584843
0.0111658
0.0250148
0.031629
0.030038
0.0302713
0.0378697
0.0485276
0.0404407
0.0223107
-0.0241133
-0.0831319
-0.110822
-0.0997696
-0.0633049
-0.0235611
0.0141041
0.0381992
0.0528578
0.0528616
0.0320138
-0.00823301
-0.0789145
-0.134747
-0.174219
-0.146462
-0.0342484
-0.198217
-0.207624
-0.199327
-0.181951
-0.163388
-0.145889
-0.128765
-0.110668
-0.0910627
-0.0703793
-0.0493591
-0.0287105
-0.00894344
0.00984878
0.0274726
0.0432309
0.0566295
0.0678929
0.0760863
0.079278
0.0757741
0.0684167
0.0598438
0.0489576
0.0347249
0.0135429
-0.0212207
-0.0614897
-0.0815155
-0.0798177
-0.0603281
-0.0374567
-0.0162903
0.00172907
0.0164668
0.0283239
0.034214
0.0327855
0.03263
0.0396274
0.0477783
0.0430403
0.0279009
-0.014324
-0.0718833
-0.100408
-0.0889619
-0.0542607
-0.0161252
0.0198108
0.0426972
0.0570708
0.0574054
0.0365243
-0.00517145
-0.0821915
-0.143291
-0.185896
-0.156015
-0.036901
-0.172809
-0.182576
-0.176678
-0.161544
-0.144642
-0.128646
-0.11324
-0.0971482
-0.0796567
-0.0609678
-0.0417379
-0.0226297
-0.00420245
0.01336
0.0299597
0.0450228
0.0579406
0.0689645
0.077234
0.0811022
0.0789874
0.0735745
0.0679239
0.0606093
0.0485056
0.0269014
-0.00662171
-0.0420465
-0.0591861
-0.0571019
-0.0420706
-0.0240516
-0.00684504
0.00840055
0.0211137
0.0313333
0.0366482
0.0352534
0.0346209
0.0407195
0.0477013
0.0439834
0.030156
-0.00800102
-0.0604104
-0.0867773
-0.0766589
-0.0443938
-0.00853615
0.0253836
0.0469076
0.0608568
0.0612918
0.0403058
-0.0029028
-0.0863285
-0.152203
-0.197382
-0.165473
-0.0396542
-0.150738
-0.159424
-0.155251
-0.142373
-0.127134
-0.112389
-0.0982468
-0.0837381
-0.068133
-0.051419
-0.0340897
-0.0167389
0.000134446
0.0163127
0.0316685
0.0457156
0.0579167
0.0682354
0.076591
0.0811757
0.0806308
0.0772662
0.0742919
0.0702264
0.0598666
0.0388376
0.00797557
-0.0223849
-0.0367196
-0.0354312
-0.0245389
-0.0110313
0.00228328
0.0147744
0.0255491
0.0340318
0.038594
0.0372443
0.0363572
0.0415286
0.0472846
0.0440504
0.0312147
-0.00178771
-0.0465881
-0.0706684
-0.0627338
-0.0336264
-0.000413592
0.0312285
0.0508421
0.0640343
0.0646614
0.0436147
-0.00104945
-0.0905352
-0.160941
-0.208453
-0.174478
-0.0424107
-0.129981
-0.138025
-0.13512
-0.124249
-0.110741
-0.097398
-0.0846357
-0.0717493
-0.05801
-0.0432435
-0.0277685
-0.0120834
0.00332828
0.0181854
0.0323283
0.0453779
0.0568924
0.0668226
0.0748964
0.0799339
0.0808404
0.0793211
0.0781357
0.0759443
0.0672452
0.0486277
0.0220688
-0.00257145
-0.0148172
-0.0155992
-0.00903954
0.000433749
0.0104545
0.0204585
0.0295307
0.0365537
0.0403674
0.0390667
0.0380044
0.0421986
0.046573
0.0432676
0.0321156
0.00603138
-0.0308053
-0.0525828
-0.0472898
-0.0222122
0.00777267
0.0369868
0.0544476
0.0665718
0.067483
0.0467165
0.00111601
-0.0939842
-0.169076
-0.21856
-0.182574
-0.0450851
-0.111023
-0.118637
-0.116618
-0.107443
-0.0956369
-0.0837728
-0.0723788
-0.0609444
-0.0488184
-0.0357612
-0.0219738
-0.00788205
0.0060649
0.0195762
0.0324866
0.0444987
0.055239
0.0645503
0.0723209
0.0776488
0.079727
0.079651
0.079382
0.0778279
0.070812
0.0558551
0.0348688
0.0153585
0.00409628
0.00111972
0.00430534
0.0106327
0.0179322
0.0256844
0.0331472
0.0388813
0.0419612
0.0408223
0.0397137
0.0429343
0.0458107
0.0420661
0.0332011
0.0145275
-0.0142448
-0.0332759
-0.0309646
-0.0105828
0.01584
0.042624
0.0576989
0.0684279
0.0696988
0.0497564
0.00396167
-0.0963141
-0.176121
-0.227029
-0.189145
-0.0475334
-0.0943978
-0.101138
-0.0996982
-0.0919749
-0.081746
-0.0713021
-0.0612066
-0.051103
-0.0404402
-0.0289626
-0.0167861
-0.00425087
0.00825812
0.0204536
0.0321548
0.0431201
0.0530512
0.0617505
0.069119
0.0745284
0.0774027
0.0783427
0.0785619
0.0773375
0.072028
0.0607443
0.0447747
0.0292742
0.0189913
0.0147269
0.0154842
0.0193263
0.0244646
0.0302916
0.0362997
0.0410071
0.043438
0.042566
0.0415727
0.0439828
0.0454354
0.0410352
0.0342794
0.0227213
0.00218434
-0.0137781
-0.0144155
0.000885132
0.0234431
0.0478664
0.0605755
0.0696197
0.071323
0.0527644
0.0074289
-0.0972554
-0.181399
-0.233
-0.193439
-0.0495752
-0.0791793
-0.0851503
-0.0842293
-0.0777834
-0.0689843
-0.0598696
-0.0510073
-0.0421501
-0.0328349
-0.0228085
-0.0121251
-0.0010522
0.01008
0.020998
0.0315207
0.0414552
0.0505553
0.0586139
0.0655063
0.0708221
0.074157
0.0757812
0.0763757
0.075515
0.0715627
0.0631201
0.0511129
0.039
0.0299931
0.0252855
0.0245438
0.0266043
0.0301194
0.034378
0.0390697
0.0429089
0.0448136
0.0442653
0.0435157
0.0454348
0.04591
0.0406604
0.0357066
0.0305644
0.0178018
0.00480347
0.001485
0.0117209
0.0303312
0.0525215
0.0630788
0.0701995
0.0723811
0.0556044
0.011332
-0.0963749
-0.184038
-0.235485
-0.194622
-0.0509755
-0.0651687
-0.0706685
-0.0701962
-0.0648462
-0.0573211
-0.0494245
-0.0417079
-0.0340012
-0.0259141
-0.017206
-0.00789352
0.00181124
0.0116329
0.0213284
0.0307227
0.0396506
0.0479105
0.0553038
0.0616891
0.0667939
0.0703378
0.0723873
0.0732739
0.0727305
0.0697712
0.0635076
0.0546213
0.0453356
0.0378025
0.0332681
0.0317543
0.0325753
0.0348643
0.0379065
0.0414706
0.0445652
0.0461091
0.0458722
0.0454721
0.0472113
0.0474593
0.0420142
0.0384506
0.0383508
0.0318762
0.0211523
0.0156702
0.0215119
0.036292
0.0563231
0.065173
0.0702213
0.0728541
0.058112
0.0156115
-0.0931464
-0.183068
-0.233456
-0.191863
-0.0514675
-0.0527347
-0.0576721
-0.0574969
-0.0530813
-0.0466856
-0.0398884
-0.0332168
-0.0265593
-0.0195867
-0.0120769
-0.00402082
0.00441899
0.013015
0.0215545
0.0298748
0.0378341
0.0452632
0.0519835
0.0578463
0.0626598
0.0662198
0.068487
0.0695863
0.0693408
0.0672047
0.0626602
0.0561774
0.0492039
0.0431425
0.0391032
0.0373057
0.0373475
0.0387486
0.0409
0.0435519
0.0459891
0.0473153
0.0473632
0.0473585
0.0491605
0.0499672
0.0461024
0.0435738
0.0464893
0.0436557
0.0340685
0.0273768
0.0299528
0.0412035
0.0590367
0.0667424
0.0696986
0.0727584
0.0602395
0.0202876
-0.0870803
-0.177529
-0.225958
-0.184448
-0.050758
-0.0415979
-0.0459285
-0.0459927
-0.0423946
-0.0369987
-0.0311868
-0.0254595
-0.0197507
-0.0137851
-0.00735901
-0.000442683
0.00684183
0.0143055
0.0217646
0.0290731
0.0361079
0.0427299
0.0487813
0.0541199
0.0585917
0.0620415
0.0643919
0.0656572
0.0657141
0.064286
0.061091
0.0564518
0.0513307
0.0466225
0.0432217
0.0414568
0.041074
0.0418518
0.0433593
0.0453161
0.0472053
0.0483944
0.0487349
0.0491063
0.0510335
0.0529063
0.0519257
0.0505702
0.0543266
0.0525049
0.043346
0.0365609
0.0369911
0.0450487
0.0604578
0.0675305
0.0686261
0.0721147
0.0619065
0.0252036
-0.0779227
-0.166675
-0.212253
-0.17189
-0.0485644
-0.0314429
-0.0353413
-0.0356241
-0.0327197
-0.0281931
-0.0232552
-0.0183744
-0.013518
-0.00845402
-0.0029957
0.00289882
0.0091377
0.0155655
0.0220266
0.0283932
0.0345571
0.0404053
0.0458039
0.0506239
0.0547346
0.0580069
0.060355
0.0617477
0.0620933
0.0612671
0.0591326
0.0559119
0.0522559
0.0487313
0.0459978
0.0444345
0.0438799
0.0442542
0.0453148
0.0467692
0.0482338
0.0493341
0.0499525
0.0506524
0.0526712
0.0554499
0.0565545
0.0566946
0.0598828
0.0580796
0.0497132
0.0435611
0.0426845
0.0478846
0.0605823
0.0671129
0.0669133
0.0707687
0.0628015
0.0299458
-0.0656846
-0.150007
-0.19187
-0.154029
-0.0446633
-0.0223835
-0.0258852
-0.0263025
-0.0239699
-0.020198
-0.0160342
-0.0119069
-0.00780618
-0.00353809
0.00106458
0.00604908
0.0113488
0.0168394
0.02239
0.0278904
0.033246
0.0383617
0.0431381
0.0474538
0.0511963
0.054255
0.0565475
0.0580323
0.0586341
0.0583077
0.0570079
0.0548802
0.0523648
0.049828
0.0477337
0.046456
0.0459032
0.0460477
0.0468098
0.0479175
0.049073
0.0501154
0.0509636
0.0519263
0.0539535
0.0571523
0.0594464
0.0601113
0.0621453
0.0605325
0.0537383
0.0485609
0.0470508
0.0497737
0.0595673
0.0651431
0.0643728
0.0682565
0.0622914
0.0337904
-0.0507379
-0.12741
-0.164922
-0.131256
-0.038993
-0.0143465
-0.0174131
-0.0179094
-0.0160662
-0.0129537
-0.00946807
-0.00600042
-0.00256149
0.00100812
0.00485707
0.00903731
0.0135033
0.0181563
0.0228865
0.0275983
0.0322094
0.0366424
0.0408417
0.0446775
0.0480537
0.0508798
0.0530826
0.0546198
0.0554337
0.0555128
0.0548591
0.0535678
0.0519418
0.0502051
0.0486888
0.0477199
0.0472699
0.0473149
0.0478861
0.0487703
0.0497137
0.0507055
0.0517126
0.0528458
0.054761
0.057894
0.0605636
0.0612948
0.0621893
0.0607455
0.0558071
0.0516788
0.0500955
0.0508214
0.0576873
0.0617009
0.0608063
0.0640445
0.0596098
0.0360856
-0.0337801
-0.0995705
-0.132426
-0.104682
-0.0317513
-0.00710316
-0.00980519
-0.0103742
-0.00894644
-0.00639804
-0.00349995
-0.000607965
0.00225305
0.005214
0.00840679
0.0118853
0.01562
0.0195325
0.0235322
0.0275376
0.0314726
0.0352434
0.0389471
0.0423339
0.0453528
0.047937
0.0500232
0.0515751
0.0525499
0.0529433
0.0527756
0.0521168
0.0511901
0.0500734
0.0490603
0.048392
0.0480941
0.0481334
0.0485909
0.0493386
0.0501446
0.0510783
0.0521654
0.053373
0.0550935
0.0578747
0.0604385
0.0611735
0.061253
0.0598254
0.0564269
0.0532485
0.0519095
0.051342
0.0555604
0.057562
0.0563769
0.0583364
0.0546458
0.0363258
-0.0162214
-0.0685044
-0.0967408
-0.0764589
-0.0235387
-0.000621981
-0.00302205
-0.00363561
-0.00254542
-0.000475225
0.00191564
0.00430943
0.00667226
0.00910957
0.0117369
0.0146081
0.0177065
0.0209719
0.0243326
0.0277258
0.0311009
0.0344243
0.0375201
0.0404449
0.0431096
0.045446
0.0473972
0.0489284
0.0500074
0.0506291
0.0508163
0.0506125
0.0501249
0.0495754
0.0490022
0.0486152
0.0484814
0.0485729
0.048973
0.0496356
0.0503589
0.0512251
0.0523141
0.0535144
0.0550161
0.0573174
0.0595194
0.0602672
0.0599122
0.0584999
0.0561331
0.0537644
0.0526406
0.0515116
0.053552
0.0539286
0.0522874
0.0527973
0.04811
0.0350013
-3.83254e-06
-0.0381638
-0.0620075
-0.0497303
-0.0153321
0.0051074
0.00300484
0.00238724
0.00320726
0.00487352
0.00682971
0.00879503
0.0107293
0.0127174
0.0148601
0.0172098
0.0197591
0.0224617
0.0252604
0.0281038
0.0309472
0.0337473
0.0364236
0.0389603
0.041302
0.0433975
0.0452005
0.0466798
0.0478113
0.0485885
0.0490301
0.04917
0.049072
0.0488819
0.0486498
0.0485066
0.0485258
0.0486963
0.0490789
0.0496827
0.050355
0.0511523
0.0521756
0.0533093
0.0546055
0.0563658
0.0581475
0.0588642
0.0583757
0.0570621
0.0553176
0.053586
0.0525642
0.0513416
0.051789
0.0512815
0.0492461
0.048562
0.0433022
0.0339841
0.0132402
-0.0132286
-0.0327667
-0.0273928
-0.00816381
0.0102056
0.00838224
0.0077776
0.00837482
0.0096983
0.0112816
0.0128782
0.0144461
0.0160529
0.0177849
0.0196906
0.0217692
0.0239863
0.0262966
0.0286575
0.0310323
0.0333861
0.0356701
0.0378559
0.0399009
0.0417643
0.043411
0.044814
0.0459536
0.0468226
0.0474348
0.04782
0.047995
0.0480737
0.0481006
0.0481579
0.0483095
0.048561
0.0489501
0.0495098
0.0501426
0.050873
0.0517909
0.0528143
0.0538907
0.0552249
0.0565695
0.0571794
0.0567238
0.055575
0.0542056
0.052904
0.0519018
0.0507711
0.0503161
0.0494215
0.0471438
0.0458672
0.0407403
0.0334384
0.0215672
0.00339237
-0.0120026
-0.0116693
-0.00292298
0.0147351
0.0131588
0.0125791
0.0129968
0.0140347
0.0153034
0.0165886
0.0178475
0.0191331
0.0205184
0.0220484
0.0237269
0.0255292
0.0274195
0.0293634
0.0313307
0.0332968
0.035228
0.0370966
0.038868
0.0405104
0.0419958
0.0433023
0.0444131
0.0453198
0.0460263
0.0465479
0.0469316
0.0472101
0.0474281
0.0476416
0.0478999
0.0482206
0.0486256
0.0491504
0.0497429
0.0504078
0.0512055
0.0520918
0.0529762
0.0539669
0.0549268
0.0553831
0.0550044
0.0540392
0.0529127
0.0518451
0.0508334
0.0497554
0.0488385
0.0477221
0.0454366
0.0436383
0.0389998
0.0319254
0.0240194
0.0114099
-0.000265764
-0.00263512
9.48545e-05
0.0187496
0.0173762
0.0168192
0.0171053
0.0179189
0.0189331
0.0199551
0.0209535
0.0219695
0.0230648
0.0242796
0.0256214
0.0270722
0.0286042
0.0301898
0.0318047
0.0334362
0.0350552
0.0366388
0.0381595
0.0395923
0.0409153
0.0421106
0.0431641
0.0440667
0.0448132
0.0454349
0.045933
0.0463411
0.0466894
0.047015
0.0473527
0.0477242
0.048142
0.0486369
0.0491843
0.0497822
0.0504599
0.0511992
0.051913
0.0526349
0.0532861
0.0535827
0.0532608
0.0524597
0.0514948
0.0505278
0.0495034
0.0484005
0.0472545
0.0459093
0.0437082
0.041444
0.0372875
0.0309109
0.024483
0.015123
0.00596305
0.00206083
0.0012205
0.0222927
0.0211065
0.0205832
0.0207534
0.0213687
0.0221607
0.0229774
0.0237687
0.0245669
0.0254244
0.0263782
0.0274389
0.0285946
0.0298237
0.0311058
0.032426
0.0337648
0.0351074
0.0364354
0.0377274
0.0389633
0.0401259
0.0412013
0.0421779
0.0430484
0.043814
0.0444604
0.0450159
0.0454983
0.0459257
0.046323
0.0467123
0.0471136
0.0475354
0.0480003
0.0484979
0.0490257
0.049591
0.0501879
0.0507461
0.0512599
0.0516749
0.0518274
0.0515306
0.0508491
0.0499868
0.0490582
0.0480193
0.0468588
0.0455758
0.044025
0.0418633
0.0393477
0.0355779
0.030171
0.0245701
0.0170887
0.00937111
0.00459872
0.00195962
0.0254141
0.0244016
0.0239207
0.0240064
0.0244636
0.0250737
0.0257031
0.0263138
0.0269292
0.0275919
0.0283338
0.0291648
0.0300776
0.0310553
0.0320819
0.0331453
0.0342338
0.0353354
0.0364369
0.0375226
0.0385759
0.0395826
0.0405325
0.0414148
0.0422195
0.0429546
0.0436067
0.0441847
0.0447005
0.0451667
0.0456003
0.0460145
0.0464256
0.0468389
0.0472701
0.0477144
0.0481704
0.0486333
0.0490989
0.0495174
0.0498673
0.0501035
0.0501343
0.0498338
0.0492242
0.0484232
0.0475062
0.0464485
0.0452302
0.0438403
0.0421483
0.0399797
0.03736
0.0338701
0.0292643
0.0242205
0.0179359
0.0112005
0.00605364
0.00231937
0.0281704
0.0273073
0.0268659
0.0268854
0.0272139
0.0276735
0.0281517
0.0286146
0.0290795
0.0295812
0.0301471
0.0307873
0.0314976
0.0322656
0.0330785
0.0339263
0.0348014
0.0356951
0.0365976
0.0374978
0.0383835
0.0392427
0.0400666
0.0408479
0.0415818
0.0422578
0.0428787
0.0434442
0.0439602
0.0444327
0.044873
0.0452885
0.0456909
0.0460828
0.0464744
0.0468623
0.0472463
0.0476154
0.0479659
0.0482608
0.0484776
0.0485766
0.0485051
0.0481802
0.0476039
0.0468341
0.0459164
0.0448367
0.0435702
0.0420999
0.0403217
0.0381365
0.035492
0.0321877
0.0280991
0.0234962
0.0180374
0.0120609
0.00685368
0.00248939
0.0305851
0.0298515
0.0294517
0.0294243
0.0296506
0.0299872
0.0303413
0.0306829
0.0310247
0.0313951
0.0318172
0.0323007
0.0328435
0.0334367
0.0340704
0.0347368
0.0354307
0.0361461
0.0368754
0.0376106
0.0383431
0.0390636
0.0397643
0.0404392
0.041084
0.0416939
0.0422643
0.0427932
0.0432835
0.0437371
0.0441608
0.0445574
0.0449346
0.0452931
0.0456392
0.0459684
0.0462804
0.0465633
0.0468127
0.0470001
0.0471059
0.047096
0.0469379
0.0465771
0.0460055
0.0452449
0.0443191
0.0432169
0.0419131
0.0403873
0.0385602
0.0363677
0.0337427
0.0305835
0.0268342
0.0225844
0.0177034
0.0123171
0.00721676
0.00254792
0.0326927
0.0320752
0.0317175
0.031656
0.0318001
0.0320362
0.0322886
0.0325314
0.0327735
0.0330374
0.0333427
0.0336983
0.0341034
0.0345517
0.0350359
0.0355503
0.0360907
0.0366535
0.0372333
0.0378235
0.038418
0.0390099
0.0395927
0.0401595
0.0407035
0.0412451
0.0417531
0.0422284
0.0426735
0.0430887
0.0434772
0.043839
0.0441779
0.044493
0.0447876
0.0450557
0.045297
0.0455003
0.04566
0.0457532
0.0457644
0.0456647
0.0454327
0.0450295
0.0444437
0.0436767
0.0427376
0.0416141
0.040283
0.0387222
0.0368717
0.0346865
0.0321056
0.0290733
0.0255656
0.0215996
0.0171348
0.0122082
0.00729263
0.00253556
0.0345302
0.034012
0.0336929
0.033607
0.033686
0.033841
0.0340109
0.0341734
0.0343348
0.0345129
0.0347238
0.0349755
0.035268
0.0355969
0.0359569
0.0363438
0.0367551
0.0371878
0.0376388
0.0381032
0.0385758
0.0390524
0.0395298
0.0400046
0.0404778
0.0409143
0.0413387
0.0417451
0.0421304
0.0424926
0.0428322
0.0431467
0.0434374
0.0437015
0.0439393
0.0441448
0.0443175
0.0444465
0.0445252
0.0445353
0.0444644
0.0442882
0.0439904
0.0435418
0.0429306
0.0421474
0.0411917
0.0400491
0.0386989
0.0371183
0.0352627
0.0330975
0.0305737
0.0276576
0.0243367
0.0206028
0.0164522
0.0118891
0.00718822
0.0024782
0.0361223
0.0356887
0.0354058
0.0353036
0.0353317
0.0354213
0.0355241
0.0356216
0.035718