/*--------------------------------*- C++ -*----------------------------------*\
| =========                 |                                                 |
| \\      /  F ield         | OpenFOAM: The Open Source CFD Toolbox           |
|  \\    /   O peration     | Version:  2312                                  |
|   \\  /    A nd           | Website:  www.openfoam.com                      |
|    \\/     M anipulation  |                                                 |
\*---------------------------------------------------------------------------*/
FoamFile
{
    version     2.0;
    format      ascii;
    arch        "LSB;label=32;scalar=64";
    class       surfaceScalarField;
    location    "41";
    object      phi;
}
// * * * * * * * * * * * * * * * * * * * * * * * * * * * * * * * * * * * * * //

dimensions      [0 3 -1 0 0 0 0];

oriented        oriented;

internalField   nonuniform List<scalar> 
10785
(
0.000431436
0.00356362
-0.00399505
0.00331571
0.0037472
-0.00663147
0.0104143
-0.00318703
-0.00391157
0.0240336
-0.0180008
0.00438147
0.0454076
-0.03992
0.018546
0.0731305
-0.0659064
0.0381835
0.103641
-0.0921158
0.061605
0.132799
-0.11546
0.0863022
0.157151
-0.134106
0.109754
0.175079
-0.147756
0.129828
0.18627
-0.156982
0.145791
0.192983
-0.163204
0.156491
0.196928
-0.168316
0.16437
0.199644
-0.171414
0.168698
-0.176209
0.172525
0.203328
0.000392813
0.0031708
0.00452463
-0.00038462
0.0155781
-0.0142405
0.0355679
-0.0379906
0.062603
-0.0669551
0.0918681
-0.0951715
0.11844
-0.118687
0.139066
-0.136087
0.152935
-0.147975
0.16124
-0.156061
0.166428
-0.16217
0.171112
-0.167888
0.176278
-0.173482
0.184002
-0.179139
-0.185806
0.193599
0.000946552
0.00222425
0.007781
-0.00721907
0.0243136
-0.0307731
0.0492519
-0.0629289
0.0765463
-0.0942495
0.100394
-0.119019
0.117831
-0.136124
0.128983
-0.147239
0.13595
-0.154942
0.141209
-0.16132
0.146564
-0.167526
0.152428
-0.173751
0.158829
-0.179883
0.165652
-0.185962
-0.191785
0.171632
0.00201379
0.000210467
0.0127912
-0.0179965
0.0340347
-0.0520166
0.0591627
-0.0880569
0.0810436
-0.11613
0.096594
-0.134569
0.106457
-0.145988
0.112962
-0.153743
0.118161
-0.160141
0.123073
-0.166233
0.127785
-0.172237
0.132295
-0.178261
0.136805
-0.184393
0.141681
-0.190837
-0.197666
0.147561
0.00350236
-0.0032919
0.0184121
-0.0329062
0.0409077
-0.0745122
0.0617143
-0.108864
0.0765701
-0.130986
0.0859106
-0.14391
0.0919058
-0.151983
0.0963214
-0.158159
0.100017
-0.163836
0.103304
-0.169519
0.106499
-0.175432
0.10993
-0.181692
0.11381
-0.188274
0.118199
-0.195226
-0.202369
0.122902
0.00542756
-0.00871946
0.0229156
-0.0503942
0.0428548
-0.0944515
0.0579143
-0.123923
0.0672554
-0.140327
0.0727321
-0.149386
0.0761946
-0.155445
0.0787582
-0.160722
0.081001
-0.166079
0.0832664
-0.171785
0.0856998
-0.177866
0.088282
-0.184274
0.0909727
-0.190965
0.0937703
-0.198023
-0.20523
0.0966316
0.00739974
-0.0161192
0.0248452
-0.0678397
0.0404574
-0.110064
0.0503989
-0.133864
0.0557147
-0.145643
0.0584504
-0.152122
0.060071
-0.157066
0.0613102
-0.161961
0.0624307
-0.167199
0.0634698
-0.172824
0.0644303
-0.178826
0.0653874
-0.185231
0.0664732
-0.192051
0.0676909
-0.199241
-0.206754
0.069215
0.00878046
-0.0248997
0.0239613
-0.0830205
0.0351779
-0.12128
0.0409979
-0.139684
0.0433595
-0.148005
0.0441144
-0.152877
0.0442509
-0.157202
0.0441046
-0.161815
0.0437733
-0.166868
0.0433328
-0.172383
0.0428797
-0.178373
0.0424806
-0.184832
0.042152
-0.191722
0.0419758
-0.199065
0.0419902
-0.206769
-0.00161024
0.00765567
-0.00604542
-0.00495215
0.0108378
-0.00749584
-0.00942518
0.0098907
-0.00541767
-0.0147102
0.00815614
-0.00287112
-0.0205888
0.00620281
-0.000324233
-0.0267721
0.00352378
0.00265957
-0.0330939
-0.000397316
0.00671909
-0.0393288
-0.00586028
0.0120952
-0.0450765
-0.0132736
0.0190212
-0.049884
-0.022801
0.0276086
-0.0532847
-0.0343886
0.0377893
-0.0548398
-0.047714
0.0492691
-0.0542247
-0.0621776
0.0615625
-0.0513412
-0.0767129
0.0738295
-0.0910385
-0.0457328
0.0854301
-0.0012539
0.00890957
-0.00418658
0.0137704
-0.00820088
0.013905
-0.0128812
0.0128365
-0.0179773
0.0112989
-0.0233201
0.00886662
-0.0286639
0.00494648
-0.0336479
-0.000876336
-0.0381426
-0.00877888
-0.0417058
-0.0192377
-0.0440278
-0.0320666
-0.0449516
-0.0467902
-0.0443144
-0.0628149
-0.0427024
-0.0783249
-0.0944143
-0.0393266
-0.000524974
0.00943454
-0.00236721
0.0156127
-0.00506758
0.0166054
-0.00811572
0.0158846
-0.0111561
0.0143393
-0.0139494
0.0116599
-0.0162537
0.00725076
-0.0176096
0.000479612
-0.0177769
-0.00861159
-0.0163373
-0.0206774
-0.0131018
-0.0353021
-0.00801016
-0.0518818
-0.00188827
-0.0689367
0.00587157
-0.0860847
-0.100228
0.011685
0.000385952
0.00904859
0.000103503
0.0158951
-0.000693027
0.0174019
-0.00137707
0.0165687
-0.00145023
0.0144124
-0.000527068
0.0107367
0.00178957
0.00493412
0.0058878
-0.00361862
0.0124805
-0.0152043
0.0218818
-0.0300787
0.033819
-0.0472393
0.0485588
-0.0666216
0.0644797
-0.0848576
0.0810634
-0.102668
-0.11653
0.097366
0.0011633
0.00788529
0.00243188
0.0146265
0.00372313
0.0161107
0.00561532
0.0146765
0.00876738
0.0112604
0.0137719
0.00573217
0.0212188
-0.0025127
0.0317932
-0.014193
0.045988
-0.0293991
0.0639438
-0.0480345
0.0850627
-0.0683582
0.108559
-0.0901176
0.132639
-0.108938
0.156556
-0.126585
-0.138834
0.178859
0.00154862
0.00633667
0.0039589
0.0122163
0.00697103
0.0130985
0.0111365
0.010511
0.0172633
0.0051335
0.0262996
-0.0033041
0.0393005
-0.0155136
0.056783
-0.0316756
0.0788196
-0.0514357
0.104406
-0.073621
0.132118
-0.0960699
0.159855
-0.117855
0.185488
-0.134571
0.209034
-0.150131
-0.156863
0.227063
0.0014213
0.00491537
0.00426131
0.00937624
0.00838776
0.00897207
0.0144932
0.00440554
0.0238806
-0.00425389
0.0379907
-0.0174141
0.0575833
-0.0351062
0.0823743
-0.0564666
0.110915
-0.0799763
0.140526
-0.103232
0.16904
-0.124584
0.193332
-0.142147
0.213551
-0.154789
0.228148
-0.164729
-0.166465
0.237751
0.000920316
0.00366509
0.00872558
0.0175126
0.0318047
0.0525741
0.0790729
0.108909
0.138686
0.165282
0.186489
0.200833
0.210414
0.214383
0.220443
-0.026633
-0.220506
0.201406
0.00594185
-0.234739
0.202164
0.0517307
-0.212782
0.166993
0.110915
-0.0993172
0.0401326
0.164638
0.101686
-0.155409
0.202878
0.315727
-0.353968
0.22612
0.417933
-0.441175
0.212004
0.46468
-0.450564
0.179452
0.55443
-0.521878
0.172207
0.480365
-0.473121
0.178433
0.157946
-0.164172
0.185893
-0.187069
0.179608
0.19296
-0.379205
0.372139
0.187126
-0.433995
0.439829
0.18032
-0.419759
0.426566
0.177615
-0.342374
0.345079
0.161971
-0.258804
0.274448
0.146441
-0.166649
0.182179
0.146766
-0.0983894
0.0980644
0.160399
-0.0408525
0.0272193
0.174904
-0.000138087
-0.0143666
0.189818
-0.0111919
-0.00372234
0.204473
-0.00489949
-0.00975519
0.215819
-0.0249173
0.0135709
0.227459
-0.0217587
0.0101185
0.238295
-0.0159784
0.00514328
0.246978
0.0106393
-0.0193226
0.255025
0.000547939
-0.0085951
0.261
0.0659619
-0.0719366
0.263605
0.0379183
-0.0405236
0.266231
0.0576115
-0.0602379
0.266735
0.117967
-0.11847
0.266144
0.048168
-0.0475774
0.266571
0.101816
-0.102243
0.265887
0.121001
-0.120317
0.264679
0.0854307
-0.0842225
0.263986
0.0946951
-0.0940022
0.120023
-0.118918
-0.0388651
-0.220967
-0.026913
-0.246691
0.00356
-0.243255
0.0640039
-0.159761
0.12746
0.0382308
0.193011
0.250176
0.238059
0.372886
0.235814
0.466925
0.210741
0.579503
0.202471
0.488636
0.201799
0.158618
0.199966
-0.185236
0.199975
-0.379214
0.194008
-0.428028
0.182564
-0.408316
0.182037
-0.341847
0.178827
-0.255595
0.166047
-0.153869
0.160626
-0.0929692
0.168341
-0.0485667
0.182016
-0.013813
0.197704
-0.0268805
0.211385
-0.0185805
0.220431
-0.0339637
0.228186
-0.0295133
0.235237
-0.0230297
0.241535
0.00434115
0.249039
-0.00695574
0.255504
0.0594968
0.258658
0.0347648
0.26248
0.0537893
0.263817
0.11663
0.26385
0.0481351
0.265075
0.10059
0.264949
0.121127
0.264132
0.0862469
0.263753
0.0950741
0.120947
-0.00915292
-0.200129
-0.0248173
-0.231027
-0.0202302
-0.247842
0.0225246
-0.202516
0.0921445
-0.0313892
0.174845
0.167476
0.240349
0.307381
0.250364
0.456909
0.237064
0.592803
0.228644
0.497055
0.220539
0.166724
0.212488
-0.177185
0.203324
-0.37005
0.193831
-0.418535
0.182431
-0.396916
0.180126
-0.339542
0.18723
-0.262699
0.188081
-0.154719
0.186735
-0.0916235
0.191925
-0.0537566
0.20378
-0.025668
0.217921
-0.0410216
0.228704
-0.0293641
0.234135
-0.0393939
0.236598
-0.0319766
0.238053
-0.0244846
0.239914
0.00247999
0.244606
-0.0116478
0.249761
0.0543415
0.252682
0.0318443
0.257237
0.0492338
0.259422
0.114445
0.260374
0.0471835
0.262656
0.0983082
0.263345
0.120439
0.263171
0.0864208
0.263316
0.0949295
0.121504
0.0621089
-0.164872
0.0199828
-0.188901
-0.0105099
-0.217349
-0.00290648
-0.210119
0.0534192
-0.0877148
0.140263
0.0806316
0.22152
0.226125
0.248606
0.429823
0.250051
0.591359
0.247618
0.499489
0.235189
0.179152
0.221386
-0.163382
0.207978
-0.356642
0.194749
-0.405306
0.183633
-0.385801
0.17786
-0.333769
0.185911
-0.27075
0.199247
-0.168055
0.209267
-0.101643
0.218801
-0.0632908
0.229717
-0.0365837
0.240687
-0.0519915
0.247731
-0.0364084
0.249692
-0.0413554
0.248085
-0.0303689
0.244933
-0.0213325
0.242456
0.00495678
0.243257
-0.0124493
0.245686
0.0519123
0.247445
0.0300856
0.251783
0.0448957
0.254418
0.11181
0.2563
0.0453021
0.259635
0.0949729
0.261246
0.118828
0.261882
0.0857844
0.262711
0.0941008
0.121526
0.149188
-0.1352
0.100913
-0.140626
0.0413919
-0.157828
0.0052807
-0.174008
0.0269293
-0.109363
0.0954731
0.0120878
0.178817
0.142781
0.234271
0.374368
0.261762
0.563868
0.267372
0.493878
0.252555
0.19397
0.230079
-0.140906
0.209478
-0.336041
0.191634
-0.387462
0.18008
-0.374247
0.174165
-0.327854
0.18028
-0.276866
0.197937
-0.185713
0.216251
-0.119957
0.232524
-0.0795637
0.245017
-0.0490761
0.254021
-0.0609957
0.258782
-0.0411694
0.259014
-0.0415875
0.25595
-0.0273047
0.251031
-0.0164137
0.246295
0.00969264
0.244073
-0.0102265
0.243735
0.0522495
0.243914
0.0299074
0.247217
0.0415927
0.249751
0.109276
0.252303
0.0427496
0.256437
0.0908391
0.258893
0.116372
0.260389
0.0842883
0.261992
0.0924979
0.120875
0.203441
-0.111579
0.173578
-0.110763
0.119403
-0.103653
0.0563266
-0.110932
0.0314632
-0.0845001
0.0617136
-0.0181626
0.131963
0.0725323
0.207055
0.299276
0.255179
0.515744
0.273562
0.475495
0.263407
0.204124
0.23774
-0.115239
0.210562
-0.308863
0.188692
-0.365592
0.174524
-0.360079
0.168042
-0.321372
0.17248
-0.281304
0.189957
-0.203189
0.210235
-0.140235
0.229849
-0.0991774
0.24419
-0.0634178
0.253201
-0.0700068
0.258125
-0.0460934
0.25891
-0.0423717
0.256741
-0.0251358
0.252651
-0.0123244
0.248002
0.0143419
0.24468
-0.00690466
0.242767
0.0541631
0.241716
0.0309583
0.243813
0.0394956
0.245908
0.107181
0.248787
0.03987
0.25338
0.0862461
0.256491
0.113262
0.258799
0.0819798
0.261207
0.0900897
0.119439
0.213228
-0.0870563
0.1938
-0.0913349
0.169619
-0.0794713
0.129785
-0.0710985
0.0825304
-0.0372453
0.066006
-0.00163818
0.103402
0.0351365
0.188808
0.21387
0.261716
0.442836
0.28524
0.451971
0.268236
0.221128
0.235668
-0.082671
0.203812
-0.277007
0.179719
-0.341498
0.164828
-0.345188
0.158433
-0.314977
0.161852
-0.284722
0.17762
-0.218958
0.197382
-0.159996
0.217304
-0.119099
0.232549
-0.0786634
0.242319
-0.0797767
0.248632
-0.0524067
0.251134
-0.0448736
0.25102
-0.0250218
0.249074
-0.0103782
0.245879
0.0175375
0.24313
-0.00415586
0.241129
0.0561637
0.239655
0.032432
0.241026
0.0381247
0.242741
0.105467
0.245722
0.0368889
0.250538
0.0814295
0.254123
0.109677
0.257166
0.0789375
0.260386
0.0868693
0.117122
0.201653
-0.0682665
0.183059
-0.0727404
0.168814
-0.0652265
0.156726
-0.0590103
0.135742
-0.0162617
0.103939
0.0301649
0.102735
0.0363411
0.170052
0.146553
0.250929
0.361959
0.282108
0.420792
0.272315
0.230921
0.240952
-0.0513077
0.203013
-0.239069
0.17366
-0.312145
0.156887
-0.328415
0.149231
-0.307321
0.150014
-0.285505
0.163292
-0.232236
0.181312
-0.178016
0.200578
-0.138365
0.216155
-0.0942404
0.226841
-0.090462
0.234669
-0.0602348
0.238939
-0.0491438
0.240915
-0.0269982
0.241248
-0.0107104
0.239936
0.0188494
0.238634
-0.00285421
0.237667
0.0571303
0.23658
0.0335193
0.238015
0.0366896
0.239711
0.103771
0.242767
0.0338321
0.247771
0.0764263
0.251748
0.1057
0.255477
0.0752089
0.259528
0.0828179
0.11383
0.418979
-0.0428022
-0.444443
0.392897
-0.0466582
0.364431
-0.0367604
0.339281
-0.0338603
0.311646
0.0113735
0.268575
0.073236
0.218725
0.0861907
0.211606
0.153672
0.269045
0.30452
0.373269
0.316568
0.471517
0.132673
0.502458
-0.0822493
0.481967
-0.218578
0.44205
-0.272228
0.402338
-0.288704
0.3707
-0.275682
0.348915
-0.263719
0.342559
-0.22588
0.348539
-0.183996
0.362486
-0.152313
0.377191
-0.108945
0.388243
-0.101514
0.394988
-0.0669796
0.397163
-0.0513191
0.396166
-0.0260011
0.392723
-0.00726713
0.388679
0.0228934
0.383746
0.00207884
0.379069
0.061807
0.375902
0.0366859
0.373408
0.0391836
0.372753
0.104426
0.37444
0.0321456
0.376854
0.0740125
0.379048
0.103505
0.381238
0.0730183
0.383406
0.08065
0.112524
0.450746
-0.0215582
-0.47199
0.429275
-0.0251878
0.40792
-0.0154056
0.387784
-0.0137237
0.377314
0.0218432
0.373694
0.0768562
0.362283
0.0976018
0.362715
0.15324
0.420224
0.247011
0.514773
0.222019
0.574433
0.0730131
0.57045
-0.078266
0.527984
-0.176112
0.476205
-0.22045
0.433881
-0.24638
0.405817
-0.247618
0.389405
-0.247307
0.384935
-0.221411
0.389759
-0.18882
0.400959
-0.163514
0.413499
-0.121484
0.423206
-0.111222
0.429124
-0.0728978
0.431112
-0.0533064
0.430108
-0.0249976
0.427181
-0.0043404
0.423952
0.026123
0.42023
0.00580082
0.417069
0.0649676
0.414836
0.0389188
0.413261
0.0407592
0.412576
0.105111
0.413521
0.0312012
0.415026
0.0725071
0.416234
0.102298
0.417791
0.071461
0.419548
0.0788931
0.111351
0.491838
-0.00735613
-0.50604
0.476352
-0.00970114
0.461974
-0.00102812
0.444029
0.00422103
0.437358
0.0285146
0.447096
0.0671178
0.456044
0.0886538
0.480044
0.129241
0.543174
0.183881
0.612175
0.153018
0.638447
0.0467417
0.617928
-0.0577468
0.576304
-0.134489
0.533777
-0.177922
0.498139
-0.210742
0.469017
-0.218495
0.447507
-0.225797
0.437112
-0.211016
0.436843
-0.188552
0.443908
-0.170578
0.453671
-0.131247
0.46191
-0.11946
0.467111
-0.0780983
0.46875
-0.0549456
0.467822
-0.0240699
0.465328
-0.00184643
0.462167
0.029284
0.459029
0.00893887
0.456708
0.0672883
0.455215
0.0404125
0.454756
0.0412174
0.454493
0.105374
0.455054
0.0306394
0.456074
0.0714875
0.456591
0.101781
0.457611
0.0704407
0.459013
0.0774915
0.110285
0.535194
0.00266911
-0.545219
0.523664
0.00182868
0.514566
0.00806997
0.504449
0.0143375
0.501924
0.0310405
0.512585
0.0564565
0.525489
0.0757493
0.554574
0.100156
0.610986
0.127469
0.659928
0.104076
0.670026
0.0366437
0.647447
-0.035168
0.610584
-0.0976265
0.572312
-0.139649
0.537592
-0.176022
0.509953
-0.190857
0.491238
-0.207082
0.48286
-0.202638
0.483007
-0.188698
0.488896
-0.176467
0.497004
-0.139356
0.503972
-0.126428
0.508492
-0.0826188
0.510213
-0.0566667
0.509577
-0.0234332
0.507291
0.000439776
0.504343
0.0322312
0.501407
0.011875
0.499461
0.0692345
0.498239
0.0416342
0.4985
0.0409573
0.498601
0.105273
0.498994
0.0302462
0.499861
0.0706205
0.500052
0.101591
0.500767
0.0697257
0.501975
0.0762832
0.10924
0.583723
0.00865241
-0.589706
0.576673
0.00887855
0.571347
0.0133959
0.566356
0.0193283
0.566336
0.0310613
0.575929
0.0468628
0.589616
0.0620621
0.614678
0.0750949
0.654781
0.0873662
0.686602
0.0722545
0.694014
0.0292312
0.680505
-0.0216591
0.655551
-0.0726727
0.625834
-0.109932
0.596864
-0.147053
0.571849
-0.165842
0.552302
-0.187535
0.540932
-0.191267
0.537425
-0.185192
0.540012
-0.179054
0.545713
-0.145057
0.551139
-0.131854
0.554694
-0.0861738
0.555873
-0.0578455
0.555138
-0.0226979
0.553168
0.00240925
0.550419
0.034981
0.54777
0.0145232
0.546033
0.0709721
0.544871
0.0427958
0.545389
0.0404396
0.545622
0.10504
0.545923
0.0299455
0.546792
0.0697513
0.546933
0.10145
0.547558
0.0691005
0.548744
0.0750976
0.108111
0.637571
0.0114878
-0.640406
0.634001
0.0124482
0.631327
0.0160696
0.629918
0.0207377
0.631829
0.0291507
0.640056
0.0386352
0.652565
0.0495531
0.67142
0.0562406
0.697818
0.0609682
0.719837
0.0502354
0.72649
0.0225778
0.717769
-0.0129381
0.698061
-0.0529644
0.67306
-0.0849313
0.648228
-0.12222
0.626806
-0.14442
0.610077
-0.170806
0.599677
-0.180867
0.595343
-0.180858
0.595881
-0.179591
0.599015
-0.148192
0.602297
-0.135136
0.604612
-0.0884891
0.605271
-0.0585048
0.604613
-0.0220394
0.603016
0.00400608
0.600651
0.0373458
0.598372
0.0168017
0.596899
0.0724457
0.595742
0.0439527
0.596341
0.0398406
0.596577
0.104804
0.596781
0.0297415
0.597703
0.0688287
0.597905
0.101248
0.598525
0.0684804
0.599784
0.0738388
0.106827
0.696336
0.0123956
-0.697244
0.695136
0.0136483
0.694623
0.0165827
0.695446
0.019915
0.698498
0.0260985
0.705404
0.0317295
0.71579
0.0391663
0.729598
0.0424331
0.746545
0.0440207
0.760803
0.0359777
0.765948
0.0174328
0.760539
-0.0075294
0.747299
-0.0397241
0.729543
-0.0671755
0.710063
-0.10274
0.691268
-0.125625
0.675074
-0.154611
0.66377
-0.169563
0.657651
-0.174739
0.656055
-0.177996
0.657338
-0.149474
0.659199
-0.136996
0.660387
-0.0896774
0.660294
-0.0584115
0.659216
-0.020962
0.657618
0.00560487
0.655379
0.039584
0.653432
0.0187493
0.652218
0.0736594
0.651061
0.0451101
0.651712
0.039189
0.651904
0.104612
0.652022
0.0296233
0.653114
0.0677369
0.653467
0.100895
0.65414
0.0678078
0.655555
0.0724242
0.105321
0.759868
0.0117951
-0.759268
0.760501
0.0130156
0.761528
0.0155561
0.763528
0.0179141
0.767032
0.0225948
0.772812
0.0259494
0.780846
0.0311325
0.790764
0.0325151
0.801864
0.0329208
0.81111
0.0267318
0.814782
0.0137611
0.811378
-0.00412555
0.801967
-0.0303129
0.787755
-0.052964
0.771521
-0.0865065
0.755813
-0.109917
0.742114
-0.140912
0.731967
-0.159416
0.725518
-0.168291
0.72249
-0.174968
0.721514
-0.148499
0.721015
-0.136497
0.720574
-0.0892366
0.719568
-0.0574049
0.71827
-0.0196641
0.716881
0.00699359
0.714934
0.0415313
0.713402
0.0202806
0.71253
0.0745311
0.711401
0.0462401
0.712219
0.0383701
0.712409
0.104422
0.71245
0.0295827
0.713792
0.0663945
0.714284
0.100403
0.714982
0.0671097
0.716585
0.0708213
0.103564
0.828863
0.0102574
-0.827325
0.830491
0.0113876
0.832399
0.0136477
0.834949
0.015364
0.838467
0.0190773
0.843266
0.0211504
0.849348
0.0250501
0.856347
0.0255158
0.863506
0.025762
0.869257
0.0209809
0.871571
0.0114467
0.869129
-0.00168294
0.862175
-0.0233595
0.851833
-0.0426218
0.8397
-0.0743736
0.827151
-0.0973683
0.815337
-0.129097
0.805692
-0.149772
0.798381
-0.16098
0.793659
-0.170245
0.790912
-0.145752
0.788966
-0.134551
0.787319
-0.0875894
0.785335
-0.0554208
0.783391
-0.0177209
0.781829
0.0085564
0.779941
0.0434188
0.778691
0.0215309
0.778145
0.0750773
0.77702
0.0473648
0.778049
0.0373411
0.778258
0.104212
0.778262
0.0295789
0.779974
0.0646825
0.780668
0.0997085
0.78145
0.0663279
0.783304
0.0689672
0.101459
0.903499
0.00828253
-0.901525
0.905619
0.00926781
0.907967
0.0112996
0.910684
0.0126472
0.913941
0.0158205
0.91786
0.0172312
0.922382
0.0205288
0.927236
0.0206609
0.931896
0.0211022
0.935422
0.0174552
0.936669
0.0102
0.934831
0.000154677
0.929931
-0.0184597
0.92234
-0.0350303
0.912943
-0.0649764
0.902758
-0.0871837
0.89268
-0.119019
0.883905
-0.140997
0.876655
-0.15373
0.871209
-0.164799
0.866841
-0.141383
0.862886
-0.130597
0.859547
-0.0842498
0.856448
-0.0523215
0.854001
-0.0152739
0.852377
0.0101795
0.850603
0.0451937
0.849704
0.0224295
0.84954
0.0752414
0.848496
0.0484088
0.849899
0.0359377
0.850297
0.103815
0.850275
0.0296008
0.852436
0.0625212
0.853333
0.098812
0.854188
0.0654724
0.856334
0.0668213
0.0990624
0.984325
0.00612562
-0.982168
0.986606
0.00698635
0.989031
0.00887458
0.991661
0.0100174
0.994537
0.0129439
0.997704
0.0140646
1.00107
0.0171674
1.00444
0.0172893
1.00746
0.018082
1.00956
0.0153506
1.01018
0.00958084
1.00868
0.00165401
1.0051
-0.0148802
0.999458
-0.0293859
0.992338
-0.0578563
0.984386
-0.0792322
0.976167
-0.110799
0.968495
-0.133325
0.961165
-0.146401
0.954586
-0.15822
0.948592
-0.135389
0.943086
-0.125091
0.938493
-0.0796568
0.934342
-0.04817
0.931313
-0.0122451
0.929459
0.0120331
0.92777
0.0468827
0.927142
0.0230573
0.927355
0.0750293
0.926436
0.0493272
0.928182
0.0341923
0.928728
0.103268
0.928809
0.0295198
0.931459
0.0598712
0.932645
0.0976256
0.933645
0.0644727
0.936135
0.0643311
0.0961166
1.07199
0.00400264
-1.06987
1.0742
0.00477088
1.0765
0.00657803
1.07889
0.0076253
1.08136
0.0104758
1.0839
0.0115239
1.08642
0.0146533
1.08879
0.014918
1.09077
0.0160981
1.09203
0.0140888
1.09226
0.00935278
1.09104
0.0028779
1.08841
-0.0122524
1.08426
-0.0252365
1.07897
-0.0525681
1.07279
-0.0730539
1.06586
-0.103863
1.05881
-0.126281
1.05148
-0.139071
1.04442
-0.151158
1.03738
-0.12835
1.03044
-0.118153
1.02442
-0.073628
1.01915
-0.042902
1.01535
-0.0084453
1.01332
0.0140596
1.01168
0.0485247
1.01135
0.0233908
1.01208
0.0742928
1.01129
0.0501207
1.01356
0.0319187
1.01461
0.102221
1.01464
0.0294924
1.01789
0.0566174
1.01942
0.0960929
1.02059
0.0633018
1.02345
0.0614723
0.0928866
1.16721
0.00203491
-1.16524
1.16923
0.00274395
1.1713
0.00451249
1.17338
0.0055397
1.17546
0.00839657
1.1775
0.00949037
1.17941
0.012743
1.1811
0.013228
1.18243
0.0147645
1.18318
0.0133342
1.18324
0.00930183
1.18228
0.00383602
1.18035
-0.0103209
1.17736
-0.0222459
1.17342
-0.0486282
1.16858
-0.0682137
1.16279
-0.0980803
1.15644
-0.119929
1.14899
-0.131625
1.14094
-0.143104
1.13236
-0.119765
1.12374
-0.109533
1.11655
-0.0664425
1.11046
-0.0368128
1.10655
-0.00453711
1.10443
0.0161849
1.10296
0.0499897
1.10301
0.0233387
1.1042
0.0731059
1.10379
0.0505362
1.10656
0.029142
1.10792
0.100866
1.10831
0.0291016
1.11218
0.0527449
1.11414
0.0941342
1.11556
0.0618808
1.11891
0.0581208
0.0887769
1.27084
0.000288478
-1.26909
1.27261
0.000964685
1.2744
0.00273144
1.27616
0.00377291
1.27787
0.00668478
1.2795
0.00786098
1.28097
0.0112724
1.28223
0.0119688
1.28318
0.0138186
1.28367
0.0128419
1.28366
0.00931601
1.28291
0.00458712
1.28148
-0.00889527
1.27919
-0.019956
1.2761
-0.0455338
1.27218
-0.0642995
1.26711
-0.0930077
1.26108
-0.113895
1.25348
-0.124027
1.24485
-0.134476
1.23537
-0.110284
1.22571
-0.0998743
1.21735
-0.0580846
1.21032
-0.0297758
1.20558
0.000203509
1.20354
0.0182194
1.20245
0.051084
1.20285
0.0229307
1.20492
0.0710436
1.2047
0.0507552
1.20811
0.0257271
1.21046
0.0985155
1.2107
0.0288685
1.21528
0.0481619
1.21783
0.0915835
1.2195
0.0602115
1.22324
0.054383
0.0844361
1.38367
-0.00116061
-1.38222
1.38514
-0.000508455
1.38661
0.00126506
1.38804
0.00233796
1.38943
0.00529508
1.39073
0.00656238
1.39191
0.0100873
1.39292
0.0109608
1.39371
0.0130276
1.39418
0.0123781
1.39431
0.00918684
1.3939
0.00499446
1.39297
-0.00796457
1.39134
-0.0183236
1.38886
-0.0430589
1.38534
-0.0607775
1.38022
-0.0878919
1.37354
-0.107209
1.36466
-0.115154
1.35429
-0.124097
1.34306
-0.0990564
1.33183
-0.0886423
1.32286
-0.0491198
1.31577
-0.0226823
1.31178
0.0041934
1.31018
0.0198174
1.3097
0.0515607
1.31087
0.0217647
1.31369
0.0682231
1.31426
0.0501818
1.31837
0.0216186
1.32136
0.0955222
1.32225
0.0279834
1.32764
0.0427725
1.33091
0.0883096
1.33299
0.0581332
1.33741
0.0499678
0.0787408
1.50681
-0.00229717
-1.50567
1.50794
-0.00164226
1.50909
0.000124321
1.5102
0.00122808
1.51128
0.00420905
1.51231
0.00553786
1.51327
0.00912333
1.51411
0.010117
1.51482
0.0123215
1.51529
0.0119034
1.51549
0.00898869
1.51524
0.00524246
1.51451
-0.00723072
1.51314
-0.0169567
1.51082
-0.0407362
1.50732
-0.0572755
1.50198
-0.082549
1.49467
-0.0998993
1.48482
-0.105304
1.47319
-0.112476
1.46073
-0.0865899
1.4486
-0.0765148
1.43899
-0.039512
1.43156
-0.0152489
1.42761
0.00813804
1.42679
0.0206417
1.42752
0.0508275
1.42932
0.0199642
1.43348
0.0640681
1.43444
0.0492166
1.43917
0.0168935
1.44393
0.0907573
1.44464
0.0272815
1.45072
0.0366859
1.45488
0.0841503
1.45723
0.0557856
1.46196
0.0452388
0.0728779
1.64043
-0.00283098
-1.63989
1.64099
-0.00220178
1.64162
-0.000509087
1.6423
0.000551354
1.64309
0.0034148
1.64395
0.00467723
1.64497
0.00810353
1.64605
0.00904411
1.64722
0.0111482
1.64834
0.010787
1.6493
0.00801991
1.64986
0.00469132
1.64961
-0.00698146
1.64833
-0.015685
1.64519
-0.0375901
1.63988
-0.0519722
1.63149
-0.0741522
1.62034
-0.0887521
1.60665
-0.0916087
1.59157
-0.0974
1.57723
-0.0722548
1.56418
-0.0634575
1.55553
-0.0308628
1.55004
-0.00976434
1.54847
0.00970712
1.54972
0.0193956
1.5525
0.0480494
1.55582
0.0166439
1.56178
0.0581041
1.56426
0.0467368
1.56952
0.0116388
1.57608
0.0841951
1.57758
0.0257774
1.58426
0.0300101
1.59008
0.0783285
1.59303
0.0528391
1.59827
0.039994
0.065144
1.78611
-0.0026839
-1.78625
1.78601
-0.00210138
1.78602
-0.000528274
1.7862
0.000372832
1.78666
0.00295319
1.78738
0.00396364
1.78854
0.00693847
1.78998
0.00760692
1.79185
0.00928188
1.79385
0.00878449
1.79578
0.00609358
1.79729
0.00317858
1.79757
-0.00726576
1.79659
-0.0147021
1.79259
-0.0335912
1.78513
-0.0445112
1.7735
-0.0625205
1.75822
-0.0734743
1.74068
-0.074065
1.72303
-0.0797497
1.70781
-0.0570411
1.69512
-0.050767
1.68829
-0.0240335
1.6847
-0.00616895
1.6849
0.00950561
1.68782
0.0164697
1.69324
0.0426386
1.69745
0.0124338
1.70479
0.0507593
1.70762
0.0439052
1.71304
0.0062215
1.72284
0.0743899
1.72429
0.0243293
1.73144
0.022859
1.73845
0.0713185
1.74151
0.049779
1.74692
0.0345886
0.057157
1.93798
-0.000150884
-1.94051
1.93576
0.000117803
1.93421
0.00102304
1.93332
0.00126167
1.93363
0.00263957
1.93487
0.0027288
1.93771
0.00409648
1.94151
0.00380734
1.94676
0.00403375
1.95262
0.00291848
1.95844
0.000272148
1.96395
-0.00233306
1.96612
-0.00942753
1.96536
-0.0139483
1.95683
-0.0250561
1.94144
-0.0291198
1.91842
-0.0394995
1.89089
-0.0459533
1.86381
-0.0469785
1.83901
-0.054948
1.82308
-0.0411191
1.81153
-0.0392132
1.80967
-0.0221758
1.81368
-0.0101717
1.81913
0.00405292
1.82671
0.00888431
1.83927
0.030087
1.84462
0.00707808
1.85492
0.040461
1.86195
0.0368707
1.86388
0.0042993
1.88091
0.0573555
1.88543
0.0198127
1.88737
0.0209122
1.89834
0.0603503
1.9038
0.0443171
1.90745
0.0309387
0.0476722
2.11331
0.00196064
-2.11542
2.11146
0.00196709
2.1103
0.00217628
2.1096
0.00196386
2.11007
0.00216754
2.11113
0.00167151
2.11361
0.00162073
2.11665
0.000759791
2.12071
-2.40019e-05
2.125
-0.00137434
2.1287
-0.00342809
2.13191
-0.00553391
2.13168
-0.00919857
2.12927
-0.0115459
2.12033
-0.0161099
2.10827
-0.0170636
2.09034
-0.0215678
2.06947
-0.0250791
2.04945
-0.0269591
2.02772
-0.0332194
2.01468
-0.0280851
2.00377
-0.0283043
2.00046
-0.0188567
2.00374
-0.013455
2.00897
-0.00118278
2.01644
0.00142294
2.03095
0.0155712
2.03278
0.00525435
2.04751
0.0257299
2.05979
0.0245842
2.05559
0.00849776
2.07637
0.0365832
2.0804
0.0157827
2.07853
0.0227809
2.09656
0.042317
2.10679
0.0340848
2.1091
0.0286357
0.0389189
2.31598
0.00139887
-2.31541
2.31653
0.00141701
2.31719
0.00151044
2.31774
0.00141926
2.31843
0.00147739
2.31889
0.00120618
2.31941
0.0010985
2.31961
0.000562375
2.31954
4.83218e-05
2.31904
-0.000878397
2.31775
-0.00213965
2.31575
-0.00353001
2.31235
-0.00579357
2.30838
-0.00758437
2.30309
-0.0108111
2.2988
-0.0127786
2.29317
-0.0159383
2.28616
-0.0180668
2.27794
-0.0187376
2.26531
-0.0205927
2.25448
-0.017251
2.24324
-0.0170661
2.23531
-0.0109298
2.23074
-0.00888568
2.23055
-0.000991789
2.23228
-0.000306591
2.23889
0.00895917
2.23939
0.00475638
2.25024
0.0148826
2.25965
0.0151765
2.2597
0.00844714
2.27297
0.0233103
2.27653
0.0122241
2.28132
0.0179915
2.29719
0.02644
2.30848
0.0227992
2.31576
0.0213543
0.0273177
2.52635
0.000959282
-2.52591
2.52682
0.000955269
2.52736
0.000967786
2.52789
0.000889702
2.52852
0.000847109
2.52907
0.0006583
2.52966
0.000501633
2.53006
0.000165923
2.53029
-0.000185834
2.5301
-0.000683655
2.52929
-0.00133246
2.52776
-0.00200214
2.52496
-0.0029948
2.52113
-0.00374937
2.51527
-0.00495371
2.50816
-0.00566832
2.49901
-0.00678823
2.48858
-0.0076313
2.47787
-0.00803536
2.46626
-0.00897425
2.45696
-0.0079594
2.44816
-0.00825986
2.44297
-0.0057439
2.43944
-0.00535441
2.43996
-0.00151117
2.44108
-0.00143047
2.44703
0.00301346
2.44992
0.00186689
2.45872
0.0060768
2.46701
0.00688921
2.47073
0.00472576
2.48338
0.0106681
2.48883
0.00677152
2.49707
0.00974952
2.51076
0.0127459
2.52155
0.0120118
2.5311
0.0118091
0.0146179
2.75897
-2.75801
2.75992
2.76089
2.76178
2.76263
2.76329
2.76379
2.76395
2.76377
2.76308
2.76175
2.75975
2.75675
2.753
2.74805
2.74238
2.73559
2.72796
2.71993
2.71095
2.70299
2.69473
2.68899
2.68364
2.68212
2.68069
2.68371
2.68557
2.69165
2.69854
2.70327
2.71393
2.72071
2.73046
2.7432
2.75521
2.76702
0.422077
0.0361213
-0.416208
0.427813
0.0634787
0.432851
0.0915942
0.438667
0.117086
0.441056
0.145173
0.447097
0.165591
0.446659
0.194037
0.205543
0.451139
0.0318648
-0.446883
0.456284
0.0583344
0.459569
0.0883084
0.464273
0.112382
0.466047
0.143399
0.468813
0.162825
0.471917
0.190932
0.205471
0.4856
0.0286944
-0.482429
0.48931
0.0546244
0.491996
0.0856224
0.494847
0.109531
0.49841
0.139836
0.500687
0.160548
0.504617
0.187002
0.204047
0.523643
0.025779
-0.520727
0.526129
0.0521377
0.529601
0.082151
0.532348
0.106784
0.536824
0.135359
0.539633
0.15774
0.543274
0.18336
0.202103
0.566925
0.023055
-0.564201
0.56918
0.0498827
0.573035
0.0782956
0.57595
0.103869
0.580032
0.131278
0.58281
0.154961
0.586633
0.179537
0.199029
0.615103
0.0205477
-0.612596
0.617354
0.0476321
0.620767
0.0748824
0.623571
0.101065
0.627377
0.127472
0.631114
0.151224
0.636212
0.174439
0.194835
0.668268
0.018475
-0.666195
0.670524
0.0453765
0.673761
0.0716455
0.677214
0.0976114
0.68195
0.122736
0.686836
0.146339
0.692265
0.16901
0.189856
0.727181
0.0165643
-0.72527
0.729739
0.0428187
0.733258
0.0681265
0.737323
0.0935462
0.742243
0.117816
0.74733
0.141252
0.753175
0.163164
0.183764
0.792174
0.0147007
-0.790311
0.794887
0.0401057
0.798453
0.0645611
0.802727
0.0892717
0.807869
0.112674
0.813658
0.135463
0.820293
0.156529
0.176731
0.863417
0.0129017
-0.861618
0.866212
0.037311
0.86992
0.060853
0.874574
0.0846178
0.880168
0.10708
0.886564
0.129067
0.893738
0.149355
0.168945
0.941423
0.0111441
-0.939666
0.94431
0.0344241
0.948195
0.0569681
0.953148
0.0796644
0.959067
0.101161
0.965924
0.12221
0.973639
0.14164
0.160416
1.02665
0.00943717
-1.02495
1.02959
0.0314892
1.03362
0.0529337
1.03883
0.0744545
1.04509
0.094902
1.05242
0.114885
1.06067
0.133382
0.151225
1.11966
0.00779641
-1.11802
1.12263
0.0285241
1.12681
0.0487552
1.13226
0.0689997
1.13886
0.0883011
1.14663
0.107119
1.15541
0.124598
0.1414