/*--------------------------------*- C++ -*----------------------------------*\
| =========                 |                                                 |
| \\      /  F ield         | OpenFOAM: The Open Source CFD Toolbox           |
|  \\    /   O peration     | Version:  2512                                  |
|   \\  /    A nd           | Website:  www.openfoam.com                      |
|    \\/     M anipulation  |                                                 |
\*---------------------------------------------------------------------------*/
FoamFile
{
    version     2.0;
    format      ascii;
    arch        "LSB;label=32;scalar=64";
    class       volVectorField;
    location    "163.95";
    object      U;
}
// * * * * * * * * * * * * * * * * * * * * * * * * * * * * * * * * * * * * * //

dimensions      [0 1 -1 0 0 0 0];

internalField   nonuniform List<vector> 
13248
(
(-0.0226509 0.0181264 7.3922e-20)
(-0.0392525 0.0329739 0)
(-0.0278999 0.0353408 -1.27257e-19)
(0.0140881 0.0294847 1.17828e-19)
(0.0899013 0.0172231 1.08703e-19)
(0.202182 -1.50324e-05 0)
(0.350256 -0.0205507 0)
(0.527205 -0.0425598 2.54154e-19)
(0.719171 -0.0644406 -6.58733e-22)
(0.908064 -0.0851641 -2.17309e-19)
(1.07614 -0.104365 1.98254e-19)
(1.21016 -0.122146 -1.23044e-19)
(1.30383 -0.138738 0)
(1.35818 -0.154242 -1.95558e-19)
(1.38 -0.168544 3.56147e-19)
(1.37891 -0.181429 -8.54251e-20)
(1.36416 -0.19264 -1.34901e-19)
(1.34244 -0.201972 1.25783e-19)
(1.31743 -0.209225 0)
(1.29078 -0.214697 0)
(1.26345 -0.216627 0)
(1.2338 -0.221643 0)
(1.20815 -0.212551 2.74221e-20)
(1.16965 -0.230631 8.59523e-20)
(-0.0251194 0.0184592 -2.22611e-19)
(-0.0341075 0.028532 1.40261e-19)
(-0.00495893 0.0244748 -8.17509e-22)
(0.0642885 0.012266 -1.79418e-19)
(0.176488 -0.00469911 -1.08546e-19)
(0.331272 -0.0237507 -1.01356e-19)
(0.520371 -0.0425093 -1.84332e-19)
(0.726267 -0.0592657 1.7152e-19)
(0.9264 -0.0734091 0)
(1.10006 -0.08537 1.35842e-21)
(1.23374 -0.0961192 1.6073e-21)
(1.32321 -0.106563 1.1947e-19)
(1.37251 -0.117155 0)
(1.39084 -0.127851 0)
(1.38875 -0.138289 1.22921e-19)
(1.37507 -0.148018 -2.29377e-19)
(1.3555 -0.156634 1.26718e-19)
(1.33301 -0.163906 -1.18152e-19)
(1.30903 -0.169616 -4.84994e-20)
(1.28428 -0.173712 -8.2792e-20)
(1.25908 -0.176219 -2.99675e-20)
(1.23451 -0.176994 -5.46566e-20)
(1.20993 -0.173743 8.55702e-20)
(1.18412 -0.177467 2.2354e-20)
(-0.0253634 0.017179 0)
(-0.0215835 0.0221274 0)
(0.0326982 0.0132243 6.46507e-20)
(0.137949 -0.00274661 5.90047e-20)
(0.294045 -0.0209328 -9.87161e-22)
(0.492479 -0.0376166 -1.04017e-19)
(0.712468 -0.0505653 0)
(0.926065 -0.0594842 -8.52264e-20)
(1.10836 -0.0656209 7.74708e-20)
(1.24487 -0.0707798 -1.06611e-21)
(1.33313 -0.0764011 -1.26953e-19)
(1.37998 -0.0831198 -1.11584e-19)
(1.39676 -0.090834 4.44884e-21)
(1.39478 -0.0990448 -8.37795e-20)
(1.3825 -0.107193 2.0519e-19)
(1.36503 -0.114834 0)
(1.34495 -0.121683 -1.20156e-19)
(1.32357 -0.127567 5.90483e-20)
(1.30161 -0.132199 4.84494e-20)
(1.27932 -0.135945 0)
(1.25754 -0.137277 3.61843e-20)
(1.23512 -0.139469 -1.16538e-19)
(1.21426 -0.135916 1.08829e-19)
(1.19091 -0.141211 6.08729e-20)
(-0.0225554 0.0141596 -7.74794e-20)
(0.000371297 0.0130849 -7.3895e-20)
(0.0874562 0.00071423 6.6401e-20)
(0.236228 -0.0159084 0)
(0.438936 -0.0309162 0)
(0.67293 -0.040749 -1.47385e-21)
(0.904057 -0.0451256 0)
(1.10106 -0.0461528 -2.54027e-19)
(1.24668 -0.0465182 2.30848e-19)
(1.3392 -0.0481402 -2.79386e-19)
(1.38767 -0.0517311 6.26581e-20)
(1.40526 -0.0570667 0)
(1.40407 -0.0635086 9.55378e-20)
(1.39266 -0.0704149 -1.73392e-19)
(1.37611 -0.0773057 4.11309e-20)
(1.35709 -0.0838555 9.78582e-20)
(1.33696 -0.0898365 -7.29074e-21)
(1.31643 -0.0950084 -1.04671e-19)
(1.29579 -0.0993543 0)
(1.27538 -0.102462 0)
(1.25501 -0.104651 -3.33714e-20)
(1.23515 -0.106073 2.88536e-20)
(1.21614 -0.103998 9.67432e-20)
(1.19574 -0.109185 -9.0336e-20)
(-0.0160785 0.0098109 -8.0667e-20)
(0.0336753 0.00223796 -7.50339e-20)
(0.161451 -0.0116228 2.07219e-19)
(0.358663 -0.0248666 -1.25001e-19)
(0.603233 -0.0319316 1.15781e-19)
(0.855225 -0.0318323 2.07593e-19)
(1.07406 -0.0275761 -1.43555e-19)
(1.23637 -0.0230001 -1.67386e-19)
(1.33919 -0.0206285 6.02883e-21)
(1.393 -0.021244 2.0761e-19)
(1.41291 -0.0244406 0)
(1.41247 -0.0293732 5.27736e-20)
(1.40121 -0.0352501 0)
(1.38483 -0.0414943 -8.12876e-20)
(1.36633 -0.0477149 1.13211e-19)
(1.34714 -0.0536415 1.26627e-21)
(1.32785 -0.0590597 -2.78155e-20)
(1.30862 -0.06387 5.06651e-20)
(1.28959 -0.0678674 4.24917e-20)
(1.27073 -0.0711599 -3.70121e-20)
(1.2523 -0.0734314 3.33554e-20)
(1.23426 -0.0751777 -2.88396e-20)
(1.2167 -0.0749947 0)
(1.19887 -0.0792898 -2.07633e-20)
(-0.00524844 0.0047565 8.06467e-20)
(0.0800362 -0.00865224 7.79505e-20)
(0.255631 -0.0208277 -6.94462e-20)
(0.501084 -0.0259449 1.27627e-19)
(0.773908 -0.0215786 -1.18212e-19)
(1.02173 -0.0114225 1.04402e-19)
(1.20999 -0.00102551 -4.93155e-20)
(1.33095 0.00601878 1.25933e-19)
(1.39529 0.00869308 -7.7221e-20)
(1.42029 0.00762105 1.30312e-19)
(1.42183 0.0039831 -2.94468e-19)
(1.4112 -0.00114154 1.05544e-19)
(1.39512 -0.00698438 -8.92413e-20)
(1.37701 -0.0130551 8.30781e-20)
(1.35833 -0.0190497 6.89133e-20)
(1.33959 -0.0247688 5.85134e-20)
(1.32094 -0.0300904 -1.61079e-19)
(1.30247 -0.034877 9.86418e-20)
(1.28425 -0.0391018 -4.24843e-20)
(1.26646 -0.0426051 1.072e-19)
(1.24912 -0.0454404 -3.45066e-20)
(1.2323 -0.0476358 -7.97766e-20)
(1.21613 -0.0483556 7.26849e-20)
(1.20004 -0.0523469 2.07567e-20)
(0.0107107 -0.000337997 0)
(0.140541 -0.0173972 7.12902e-22)
(0.368417 -0.0234285 1.44222e-19)
(0.654594 -0.0161335 -1.32904e-19)
(0.936122 0.000433645 -1.17547e-19)
(1.16077 0.0181707 2.14024e-19)
(1.30995 0.0314058 -9.74563e-20)
(1.39192 0.0384049 1.24756e-19)
(1.42601 0.0399541 -3.93925e-21)
(1.43129 0.0377231 -6.74393e-20)
(1.42171 0.0332694 1.42029e-19)
(1.40561 0.0276868 -2.05702e-19)
(1.38718 0.0216299 0)
(1.36818 0.0154629 -3.84329e-20)
(1.34927 0.00939818 -1.00194e-19)
(1.33067 0.00357582 3.14028e-20)
(1.31249 -0.00188085 1.61692e-21)
(1.29476 -0.00689843 -6.40476e-20)
(1.27756 -0.0113746 5.37287e-21)
(1.26086 -0.0153031 7.24433e-20)
(1.24469 -0.018643 -3.10074e-20)
(1.22907 -0.0213125 -1.1146e-20)
(1.21389 -0.0234797 3.55984e-20)
(1.19901 -0.027098 0)
(0.0324523 -0.00468181 0)
(0.215068 -0.0215513 3.96053e-20)
(0.494946 -0.0163479 -1.86302e-19)
(0.807529 0.00570333 6.66059e-20)
(1.07851 0.0325442 -6.16949e-20)
(1.26879 0.0543509 -5.41671e-20)
(1.37861 0.067554 -9.29169e-20)
(1.42806 0.0728148 4.64127e-20)
(1.44019 0.0724251 3.9263e-20)
(1.43282 0.0686688 0)
(1.41688 0.0631735 8.32468e-20)
(1.39796 0.0568893 -1.21073e-19)
(1.37845 0.0503127 8.91821e-20)
(1.35922 0.0437087 3.84493e-20)
(1.34053 0.0372399 -3.05447e-20)
(1.32241 0.0310272 -2.47443e-20)
(1.30484 0.0251544 -2.25264e-20)
(1.28779 0.0196998 6.82958e-20)
(1.27126 0.0146999 0)
(1.25527 0.0102047 3.2539e-20)
(1.23985 0.00626126 2.62476e-20)
(1.22496 0.00283566 -6.58341e-20)
(1.2106 -0.000168137 -4.30902e-20)
(1.1968 -0.00335537 3.98252e-20)
(0.0602362 -0.00738047 -4.52592e-20)
(0.301793 -0.0187108 -1.36389e-21)
(0.62758 0.00233614 3.78323e-20)
(0.949242 0.0388801 1.02872e-19)
(1.19558 0.0725608 2.82376e-20)
(1.34778 0.0950883 -5.44178e-20)
(1.4225 0.106127 4.90189e-20)
(1.44681 0.108612 -4.17284e-20)
(1.44388 0.105884 7.23393e-20)
(1.42871 0.100434 3.00017e-20)
(1.4092 0.093735 -8.4046e-20)
(1.3888 0.0865371 2.43511e-20)
(1.36878 0.0792062 4.06547e-20)
(1.34945 0.0719369 -1.98664e-20)
(1.33086 0.0648526 0)
(1.31296 0.0580417 2.84467e-20)
(1.29575 0.0515791 4.72065e-20)
(1.27921 0.0455184 7.56356e-21)
(1.26335 0.0399119 -3.83995e-20)
(1.24815 0.0347945 1.57993e-20)
(1.23357 0.0301809 0)
(1.21955 0.0260468 -1.19578e-20)
(1.20604 0.0222032 -1.08428e-20)
(1.19293 0.0189713 0)
(0.0937987 -0.00744274 0)
(0.397098 -0.00681245 2.191e-20)
(0.757689 0.033062 3.99415e-20)
(1.07261 0.0817132 -1.04e-19)
(1.28649 0.118463 3.29257e-20)
(1.40192 0.138975 0)
(1.44761 0.146412 4.57701e-20)
(1.45347 0.145554 -6.28042e-20)
(1.44062 0.140287 -3.58954e-20)
(1.42079 0.132992 1.60025e-20)
(1.39932 0.124885 -2.47474e-20)
(1.37819 0.116526 5.97565e-20)
(1.35796 0.108173 2.93541e-20)
(1.3387 0.0999689 -2.03603e-20)
(1.32036 0.0920119 -2.05974e-21)
(1.3029 0.0843795 -5.37644e-20)
(1.28624 0.0771298 2.42155e-20)
(1.27033 0.0703116 -4.74746e-22)
(1.25513 0.0639586 0)
(1.2406 0.0580989 -1.58147e-20)
(1.22669 0.0527471 0)
(1.21332 0.0478284 3.45635e-20)
(1.20046 0.0433805 -4.07007e-20)
(1.18807 0.0400567 1.83062e-20)
(0.132239 -0.0038733 -1.22375e-20)
(0.495946 0.0154922 -5.51527e-20)
(0.877671 0.0750137 6.14519e-20)
(1.17404 0.132247 3.48816e-20)
(1.35278 0.168647 -1.6672e-20)
(1.43544 0.185116 2.61895e-20)
(1.45833 0.188071 -1.27147e-20)
(1.45118 0.18358 2.03449e-20)
(1.432 0.17564 0)
(1.40946 0.166334 4.42836e-20)
(1.38695 0.156603 -1.85915e-21)
(1.36548 0.146846 -3.48557e-20)
(1.34522 0.137244 1.47426e-20)
(1.32612 0.127906 -1.64196e-20)
(1.30806 0.118906 -6.16062e-21)
(1.29096 0.1103 7.05623e-21)
(1.27474 0.10213 -5.4191e-21)
(1.25935 0.0944313 -2.87235e-20)
(1.24477 0.0872355 1.75068e-20)
(1.23094 0.0805677 3.55881e-21)
(1.21779 0.0744141 3.0932e-21)
(1.20525 0.0687349 2.68787e-21)
(1.19323 0.0636717 0)
(1.1816 0.0597899 0)
(0.174159 0.004196 1.22524e-20)
(0.592793 0.0486404 -1.13859e-20)
(0.982133 0.126707 -2.04367e-20)
(1.25247 0.188686 0)
(1.39683 0.221922 -8.13166e-21)
(1.4518 0.232926 -6.98501e-21)
(1.45745 0.230871 -1.15986e-20)
(1.44146 0.222563 0)
(1.41841 0.21179 0)
(1.3944 0.200255 0)
(1.37144 0.188653 0)
(1.34994 0.177252 0)
(1.32986 0.166173 -9.29134e-21)
(1.31108 0.155489 4.19757e-21)
(1.29346 0.145252 7.19469e-21)
(1.2769 0.135501 3.31344e-21)
(1.26131 0.126261 8.16196e-21)
(1.24663 0.11756 0)
(1.23278 0.109419 -1.91951e-21)
(1.2197 0.101843 -1.77353e-21)
(1.20732 0.0948092 -3.09803e-21)
(1.19556 0.0883011 -2.69207e-21)
(1.18434 0.0825732 0)
(1.1736 0.0780214 1.89561e-21)
(-0.00273594 0.152889 8.3271e-21)
(-0.0068717 0.320584 -7.87954e-21)
(-0.0175089 0.395141 -1.45898e-20)
(-0.0332661 0.414855 0)
(-0.0513592 0.408218 -1.90709e-20)
(-0.0694688 0.390743 5.84209e-21)
(-0.0860411 0.367711 -1.15028e-20)
(-0.10003 0.339152 0)
(-0.110809 0.303496 0)
(-0.118051 0.259353 0)
(-0.121664 0.205989 0)
(-0.121789 0.143353 0)
(-0.118836 0.0720695 -1.77138e-22)
(-0.113401 -0.00701902 -8.27954e-21)
(-0.105385 -0.092753 1.63807e-20)
(-0.0950003 -0.183688 2.27856e-20)
(-0.0825132 -0.278294 7.37074e-21)
(-0.0677771 -0.374603 0)
(-0.050653 -0.470055 5.5932e-21)
(-0.0312351 -0.561209 -1.57813e-20)
(-0.0105917 -0.644233 -9.26092e-21)
(0.0107151 -0.715615 -7.98665e-21)
(0.0266598 -0.774404 0)
(0.0451517 -0.818494 0)
(-0.00973076 0.14618 -2.52995e-20)
(-0.0171945 0.318677 3.97987e-20)
(-0.0220618 0.402824 -1.51901e-20)
(-0.0287349 0.429905 -2.79424e-20)
(-0.0362888 0.42684 3.86424e-20)
(-0.0430696 0.409702 -2.50195e-20)
(-0.0476094 0.384957 3.46954e-20)
(-0.0488547 0.353569 2.28955e-20)
(-0.0463275 0.314554 0)
(-0.0399372 0.266871 -2.13415e-20)
(-0.0298992 0.210038 -1.4385e-21)
(-0.0165356 0.144223 1.84233e-20)
(-0.000797835 0.0700773 2.80151e-20)
(0.0165168 -0.011366 3.59425e-20)
(0.0352585 -0.0988182 -1.59142e-20)
(0.0549271 -0.191408 -4.6937e-20)
(0.0755873 -0.288049 1.50244e-20)
(0.0976584 -0.387164 -5.48668e-20)
(0.121549 -0.486113 0)
(0.147721 -0.580578 1.05454e-20)
(0.174847 -0.665479 9.24526e-21)
(0.203253 -0.734381 7.97316e-21)
(0.223997 -0.786673 0)
(0.251892 -0.814089 0)
(-0.0153732 0.132591 0)
(-0.0264176 0.303276 8.29653e-20)
(-0.0259056 0.395538 -3.0674e-20)
(-0.0232545 0.430913 2.87158e-20)
(-0.0197132 0.432669 -8.04137e-20)
(-0.0144778 0.416797 0)
(-0.00642509 0.391016 -4.92287e-20)
(0.00532716 0.357522 2.28275e-20)
(0.0211508 0.316193 -4.49033e-20)
(0.040935 0.266501 2.20558e-20)
(0.0641946 0.208285 1.26244e-19)
(0.0901563 0.141896 -5.89303e-20)
(0.117768 0.0679431 -9.67871e-20)
(0.146251 -0.0123313 -3.84217e-20)
(0.175119 -0.098163 -9.80037e-22)
(0.20411 -0.189198 1.30669e-19)
(0.233578 -0.285064 -6.10186e-20)
(0.264255 -0.384815 -5.46452e-22)
(0.296415 -0.486054 0)
(0.33015 -0.583625 -4.50428e-20)
(0.362405 -0.672221 0)
(0.39518 -0.742144 -3.0238e-20)
(0.414882 -0.794463 1.11819e-19)
(0.447502 -0.813136 -6.1084e-21)
(-0.0190293 0.113786 0)
(-0.0337051 0.275318 5.3358e-22)
(-0.0292624 0.372807 3.13939e-20)
(-0.0183082 0.416538 -2.96933e-20)
(-0.00419339 0.424397 2.61896e-20)
(0.0127367 0.411226 1.54887e-19)
(0.0329756 0.385583 -4.84399e-20)
(0.0570903 0.351014 -4.68422e-20)
(0.0852836 0.308463 8.9784e-20)
(0.117274 0.258048 -1.31564e-19)
(0.152362 0.199952 4.04724e-20)
(0.18952 0.134641 3.99431e-20)
(0.227877 0.0627407 0)
(0.266755 -0.0146503 3.6754e-20)
(0.305798 -0.0973652 0)
(0.345432 -0.18561 6.51248e-20)
(0.386628 -0.279569 -1.21503e-19)
(0.430306 -0.378288 3.06093e-20)
(0.475737 -0.479263 1.0325e-19)
(0.521871 -0.575757 4.49906e-20)
(0.562169 -0.663226 0)
(0.599561 -0.72902 -9.53818e-20)
(0.6147 -0.779342 3.15297e-20)
(0.642638 -0.794361 0)
(-0.0204742 0.0922825 0)
(-0.0383959 0.237778 -1.02234e-19)
(-0.0321541 0.335995 -3.13458e-20)
(-0.0150829 0.386663 -5.88183e-20)
(0.00793233 0.401257 5.44937e-20)
(0.0352765 0.392226 -5.15706e-20)
(0.0665389 0.368232 9.92505e-20)
(0.101745 0.333908 4.95341e-20)
(0.14081 0.2913 -1.32969e-19)
(0.183294 0.241292 8.73236e-20)
(0.228415 0.184456 -1.24291e-19)
(0.275 0.121229 2.76995e-19)
(0.322604 0.0526983 -1.49591e-19)
(0.37113 -0.0209256 7.12389e-20)
(0.420787 -0.100139 2.05234e-19)
(0.47299 -0.185548 -6.46393e-20)
(0.52911 -0.277498 -5.99352e-20)
(0.589495 -0.374234 -5.7043e-20)
(0.651242 -0.472614 0)
(0.711049 -0.563659 -8.39027e-20)
(0.759385 -0.644149 -6.44335e-20)
(0.798832 -0.698416 1.02803e-19)
(0.808632 -0.73933 9.78102e-20)
(0.826336 -0.739405 -8.96715e-20)
(-0.0199599 0.0708145 0)
(-0.040265 0.195153 -1.36991e-19)
(-0.0344454 0.288549 8.31031e-23)
(-0.0141829 0.342916 1.16964e-19)
(0.0150715 0.363464 0)
(0.0506222 0.359353 0)
(0.0910272 0.338418 0)
(0.135552 0.305799 -4.76983e-20)
(0.183659 0.26442 -2.50015e-21)
(0.234705 0.215885 8.26127e-20)
(0.28781 0.161048 -1.24815e-19)
(0.34277 0.100931 -2.03039e-21)
(0.399567 0.0360192 0)
(0.458655 -0.0344904 -7.12065e-20)
(0.521913 -0.11131 6.5628e-20)
(0.591234 -0.195014 -1.84728e-19)
(0.666892 -0.285232 2.29091e-19)
(0.746571 -0.378531 4.61897e-20)
(0.823631 -0.470707 -9.72984e-21)
(0.891714 -0.551454 -1.70447e-19)
(0.94011 -0.619607 -6.76568e-20)
(0.971369 -0.658843 1.9695e-19)
(0.969988 -0.688416 -1.23963e-19)
(0.970251 -0.67444 0)
(-0.0181532 0.0517075 7.28008e-20)
(-0.0397242 0.152469 6.85591e-20)
(-0.0360454 0.235632 -6.29007e-20)
(-0.0155394 0.289052 -1.16437e-19)
(0.0168014 0.313022 1.07871e-19)
(0.0576693 0.313235 -1.0147e-19)
(0.104724 0.29597 1.41014e-19)
(0.156434 0.266178 -4.75282e-20)
(0.211776 0.227198 8.41844e-20)
(0.270002 0.181042 0)
(0.330998 0.129192 7.83997e-20)
(0.395379 0.072377 -1.436e-19)
(0.464366 0.00992128 1.43069e-19)
(0.540043 -0.0587602 -1.33169e-19)
(0.624372 -0.134189 0)
(0.717341 -0.215912 1.18501e-19)
(0.815387 -0.301737 2.12711e-19)
(0.911492 -0.386583 -2.01246e-19)
(0.995316 -0.465548 -8.45427e-20)
(1.05928 -0.529315 -7.29575e-20)
(1.09429 -0.578971 2.03966e-19)
(1.10568 -0.601263 4.47116e-20)
(1.08472 -0.618155 -4.83855e-20)
(1.06252 -0.596136 3.36092e-20)
(-0.015974 0.0364793 -7.28192e-20)
(-0.0378405 0.114121 2.04446e-19)
(-0.037176 0.183029 -6.31156e-20)
(-0.0186321 0.230562 1.15482e-19)
(0.0139686 0.254129 -1.06986e-19)
(0.0572774 0.256534 -1.03479e-21)
(0.108474 0.242255 4.55442e-20)
(0.165562 0.215506 1.74295e-19)
(0.227442 0.179458 3.45663e-21)
(0.294108 0.136424 -7.79301e-20)
(0.366697 0.0876301 0)
(0.447148 0.0329779 -7.16239e-20)
(0.537787 -0.0278394 1.34399e-19)
(0.639932 -0.094905 1.29304e-19)
(0.752171 -0.167467 -6.15302e-20)
(0.869188 -0.243346 -3.35021e-21)
(0.982054 -0.318677 -5.30191e-20)
(1.07999 -0.388335 8.83718e-20)
(1.15266 -0.44798 8.45506e-20)
(1.19543 -0.491436 -7.31242e-20)
(1.20475 -0.521907 5.63042e-20)
(1.19158 -0.529099 -4.68495e-20)
(1.15187 -0.537096 0)
(1.1145 -0.50858 -3.36291e-20)
(-0.0144058 0.0257755 7.2358e-20)
(-0.0360959 0.0830384 -6.82652e-20)
(-0.0384212 0.135767 6.25647e-20)
(-0.0227131 0.173449 0)
(0.00863821 0.192618 0)
(0.0528128 0.19422 9.72168e-20)
(0.107266 0.181145 -9.11114e-20)
(0.170455 0.156587 8.58229e-20)
(0.242358 0.123304 -4.02632e-19)
(0.324409 0.0830459 -1.81088e-21)
(0.418811 0.036432 7.15978e-20)
(0.527402 -0.016189 0)
(0.649894 -0.0742544 -1.3136e-19)
(0.782406 -0.136616 2.45274e-19)
(0.917163 -0.201021 -1.73432e-19)
(1.04335 -0.264431 -2.6205e-19)
(1.14961 -0.322904 7.32459e-21)
(1.22628 -0.373092 1.66153e-19)
(1.26879 -0.412092 0)
(1.27849 -0.437839 0)
(1.26002 -0.45388 -5.63346e-20)
(1.22714 -0.453618 4.68761e-20)
(1.17821 -0.458023 -1.38411e-19)
(1.13893 -0.432759 1.29142e-19)
(-0.0142809 0.0195188 0)
(-0.035828 0.0604325 0)
(-0.0401585 0.0971361 -1.87238e-19)
(-0.0262846 0.122807 5.84303e-20)
(0.00486004 0.1346 6.86216e-22)
(0.051671 0.13263 9.7232e-20)
(0.113003 0.118652 0)
(0.189045 0.0949156 -8.40801e-20)
(0.281231 0.0633303 7.99426e-20)
(0.391326 0.0251181 -1.49406e-19)
(0.519605 -0.0186686 -1.45511e-21)
(0.663065 -0.0668746 1.34315e-19)
(0.814625 -0.117984 8.0933e-22)
(0.963728 -0.169998 1.16109e-19)
(1.09818 -0.22044 -1.648e-19)
(1.20661 -0.266885 0)
(1.28133 -0.306732 1.70934e-19)
(1.31968 -0.338856 -2.40425e-19)
(1.32579 -0.361598 6.4362e-20)
(1.30692 -0.376429 0)
(1.2732 -0.38419 4.70695e-20)
(1.23455 -0.382887 1.56407e-19)
(1.18954 -0.387027 -1.46067e-19)
(1.15657 -0.364512 -1.3328e-19)
(-0.0159845 0.0170559 2.16262e-19)
(-0.037372 0.0459153 -2.72818e-19)
(-0.0413569 0.0683561 9.57171e-22)
(-0.0256652 0.0818506 5.81471e-20)
(0.0103128 0.0849513 -1.06119e-19)
(0.0669478 0.0777228 -9.74668e-20)
(0.145237 0.061285 1.80579e-19)
(0.246728 0.0371902 1.06741e-21)
(0.372167 0.00693401 -1.56424e-19)
(0.519398 -0.0280089 2.95885e-19)
(0.681974 -0.0661226 2.66404e-21)
(0.849246 -0.105822 -1.29282e-19)
(1.00806 -0.145475 0)
(1.14534 -0.183464 0)
(1.25084 -0.218289 -5.23495e-20)
(1.31929 -0.248722 -8.77986e-20)
(1.35148 -0.273766 -1.57e-19)
(1.35345 -0.293479 1.46384e-19)
(1.33492 -0.307142 -6.44386e-20)
(1.30425 -0.317277 1.01429e-19)
(1.27032 -0.321535 -5.55708e-20)
(1.23503 -0.323064 6.52157e-20)
(1.19965 -0.325617 -1.67171e-19)
(1.17239 -0.30766 2.75769e-20)
(-0.0191474 0.0171368 7.24744e-20)
(-0.0394113 0.0376899 0)
(-0.0388017 0.0486469 1.25878e-19)
(-0.0145176 0.0513967 -1.16553e-19)
(0.0356149 0.046128 1.0626e-19)
(0.11395 0.0333585 0)
(0.22243 0.014176 0)
(0.360808 -0.009924 -8.44894e-20)
(0.524363 -0.0373032 -5.35237e-22)
(0.702915 -0.0663488 7.24411e-20)
(0.882145 -0.0956665 -6.7108e-20)
(1.04655 -0.124185 1.26274e-19)
(1.18281 -0.151135 0)
(1.28244 -0.17594 2.0744e-19)
(1.3433 -0.198131 -3.79067e-19)
(1.36939 -0.217334 2.6111e-19)
(1.36903 -0.233353 1.44995e-19)
(1.3519 -0.246277 -1.35195e-19)
(1.32622 -0.255777 0)
(1.29662 -0.263513 0)
(1.26701 -0.265739 0)
(1.23463 -0.270652 0)
(1.20577 -0.267179 3.11366e-20)
(1.17773 -0.259747 -9.59605e-20)
(0.0449862 -0.859674 -3.24741e-21)
(0.0365689 -0.886578 3.26445e-21)
(0.035306 -0.887362 -8.25009e-23)
(0.0557721 -0.847137 0)
(0.107375 -0.747525 -2.58918e-21)
(0.190617 -0.586355 5.21684e-21)
(0.292508 -0.378999 1.91073e-22)
(0.394438 -0.14369 -2.73391e-21)
(0.486307 0.10812 0)
(0.567717 0.358188 0)
(0.636118 0.567057 -1.25638e-22)
(0.687658 0.698868 -9.99104e-23)
(0.724529 0.750374 -1.27025e-21)
(0.745907 0.751108 1.15823e-21)
(0.75327 0.729732 0)
(0.756447 0.697734 0)
(0.756665 0.677837 8.33107e-22)
(0.74283 0.70059 1.10967e-22)
(0.710905 0.749613 -8.32131e-22)
(0.677632 0.742511 -7.55969e-23)
(0.667296 0.598401 0)
(0.682639 0.315067 0)
(0.713683 -0.0295192 0)
(0.753275 -0.330214 0)
(0.79106 -0.524716 0)
(0.815021 -0.614405 0)
(0.829965 -0.623676 2.05945e-22)
(0.841306 -0.60088 -3.39822e-22)
(0.835167 -0.607268 0)
(0.800092 -0.643702 0)
(0.743027 -0.646959 -2.59091e-22)
(0.678232 -0.555076 2.51758e-22)
(0.63143 -0.355332 1.55972e-22)
(0.61758 -0.086904 0)
(0.636457 0.175362 0)
(0.67693 0.364509 2.18566e-22)
(0.728228 0.467604 -2.12426e-22)
(0.752647 0.520051 0)
(0.730329 0.557458 1.31748e-22)
(0.673373 0.552242 -1.97773e-22)
(0.622761 0.452808 8.43593e-23)
(0.599363 0.250127 0)
(0.622103 0.0033452 -1.5407e-22)
(0.668891 -0.192501 1.49808e-22)
(0.702093 -0.335438 0)
(0.68658 -0.42953 0)
(0.662763 -0.464123 -3.59397e-23)
(0.643125 -0.397119 9.91778e-23)
(0.648103 -0.21543 0)
(0.654725 -0.00210588 0)
(0.661236 0.239005 -2.43763e-23)
(0.642315 0.387811 3.59783e-24)
(0.640835 0.416172 1.28812e-25)
(0.6354 0.314433 2.51681e-23)
(0.635286 0.0284815 0)
(0.604108 -0.190308 0)
(0.590318 -0.371659 0)
(0.573311 -0.367709 0)
(0.556717 0.00367972 0)
(0.521621 0.123046 0)
(0.241244 -0.839922 -3.33347e-22)
(0.212685 -0.85583 -1.13362e-20)
(0.168057 -0.863024 1.23794e-21)
(0.126739 -0.849476 9.43647e-21)
(0.112054 -0.789771 1.22677e-22)
(0.135924 -0.664123 0)
(0.193935 -0.474923 -9.46516e-21)
(0.272115 -0.240975 1.90849e-20)
(0.356736 0.0162512 -9.62118e-21)
(0.441766 0.272659 8.30754e-21)
(0.521456 0.492027 -7.94121e-21)
(0.592286 0.640219 5.36228e-21)
(0.651654 0.712323 -5.19843e-21)
(0.693924 0.732393 -1.09679e-22)
(0.720808 0.722283 -3.21477e-21)
(0.741499 0.695358 3.12205e-21)
(0.755984 0.682013 -3.34097e-21)
(0.754611 0.714341 3.1391e-21)
(0.737444 0.76973 -4.62498e-21)
(0.723365 0.760474 1.01364e-20)
(0.731248 0.60758 -5.46676e-21)
(0.758389 0.31238 -4.38153e-22)
(0.793243 -0.0440157 -6.69952e-21)
(0.827523 -0.35274 1.21167e-20)
(0.854179 -0.545558 -5.44866e-21)
(0.864584 -0.627619 2.26541e-22)
(0.862574 -0.63074 2.40772e-21)
(0.858218 -0.600053 -3.62056e-22)
(0.840768 -0.59396 -3.38054e-21)
(0.795347 -0.618321 3.12948e-21)
(0.728701 -0.61531 -1.53412e-21)
(0.65515 -0.526806 2.20079e-22)
(0.600849 -0.340754 -1.56299e-22)
(0.584077 -0.090945 2.76217e-22)
(0.607146 0.155863 0)
(0.657472 0.339697 0)
(0.718094 0.450057 -6.0477e-22)
(0.748909 0.51849 4.59061e-22)
(0.733192 0.570797 4.27257e-22)
(0.684103 0.572208 1.91349e-22)
(0.639096 0.468774 -7.26619e-22)
(0.616798 0.253603 2.19152e-22)
(0.636541 -0.00715361 0)
(0.682274 -0.206757 0)
(0.717378 -0.33939 0)
(0.699704 -0.424277 0)
(0.670817 -0.457871 1.4068e-22)
(0.647373 -0.395217 -6.42872e-23)
(0.649726 -0.217287 0)
(0.653253 -0.00455894 0)
(0.659199 0.239432 0)
(0.644069 0.389605 -4.29343e-23)
(0.646492 0.416906 -6.65478e-24)
(0.643367 0.316023 -4.60066e-23)
(0.643817 0.032873 0)
(0.610204 -0.186239 0)
(0.589862 -0.366984 1.73228e-23)
(0.569019 -0.366267 9.88283e-24)
(0.562118 0.00834975 0)
(0.529647 0.126176 0)
(0.426731 -0.821642 -4.87264e-21)
(0.39922 -0.811792 -2.50797e-20)
(0.344012 -0.800278 1.7752e-20)
(0.265342 -0.794322 -1.66129e-20)
(0.190015 -0.771098 -1.23553e-22)
(0.148083 -0.695643 0)
(0.148912 -0.546901 -1.49938e-20)
(0.188017 -0.334665 1.46322e-20)
(0.251477 -0.0840019 1.35052e-22)
(0.330807 0.172446 1.9144e-22)
(0.417732 0.399138 1.67076e-22)
(0.504208 0.562861 1.72438e-22)
(0.581793 0.656857 -7.32796e-21)
(0.642383 0.697939 7.22621e-21)
(0.687903 0.701139 0)
(0.725854 0.681761 1.60805e-22)
(0.754933 0.675656 -6.40385e-21)
(0.767197 0.716164 6.32536e-21)
(0.765841 0.777294 0)
(0.770155 0.768914 0)
(0.795211 0.614744 -1.3841e-20)
(0.834108 0.317768 2.84584e-20)
(0.873266 -0.0425819 -2.78804e-20)
(0.903115 -0.356897 2.21542e-21)
(0.918654 -0.550523 1.97644e-20)
(0.915955 -0.628425 -1.52151e-20)
(0.898259 -0.62923 1.05506e-20)
(0.878467 -0.594113 -1.20883e-21)
(0.85096 -0.576483 -3.45005e-21)
(0.798195 -0.589685 0)
(0.723874 -0.583321 0)
(0.642583 -0.501274 1.37532e-21)
(0.581499 -0.330137 -1.72494e-21)
(0.561115 -0.0994652 -5.17354e-23)
(0.587215 0.131643 1.6408e-21)
(0.64535 0.310338 -1.59434e-21)
(0.713243 0.428607 0)
(0.750473 0.514108 1.29272e-22)
(0.743078 0.582779 1.27871e-21)
(0.702973 0.592462 -2.89016e-21)
(0.6646 0.486648 1.4112e-21)
(0.644416 0.261107 2.7343e-22)
(0.659589 -0.0129173 -2.1131e-21)
(0.700987 -0.218662 1.59297e-21)
(0.737043 -0.34202 2.76753e-22)
(0.7176 -0.417599 1.93298e-22)
(0.682691 -0.450835 -1.41052e-22)
(0.654419 -0.393986 0)
(0.654222 -0.219869 0)
(0.655203 -0.00775934 -2.55133e-22)
(0.661194 0.238629 1.32949e-22)
(0.649499 0.390738 -1.33889e-22)
(0.655277 0.417058 2.73489e-22)
(0.654263 0.318034 4.77299e-22)
(0.655812 0.0384641 -7.70369e-23)
(0.620458 -0.181017 1.78597e-22)
(0.593735 -0.360818 -1.08636e-22)
(0.56829 -0.365999 2.28872e-23)
(0.571666 0.0114181 0)
(0.541306 0.129578 0)
(0.601167 -0.803501 -4.85126e-20)
(0.563151 -0.77839 9.10651e-21)
(0.514466 -0.733651 3.70451e-20)
(0.437881 -0.70186 -2.28283e-22)
(0.334108 -0.69003 0)
(0.234525 -0.661911 0)
(0.173013 -0.573555 -2.07173e-20)
(0.160371 -0.408506 -1.69872e-21)
(0.189939 -0.184445 3.17298e-20)
(0.252195 0.0611304 -6.99043e-22)
(0.336728 0.289212 -9.78972e-21)
(0.430343 0.466506 -6.76287e-21)
(0.519909 0.582806 6.75587e-21)
(0.595388 0.646043 0)
(0.657687 0.664672 -4.7782e-21)
(0.711562 0.654716 4.34665e-21)
(0.754092 0.655252 0)
(0.778821 0.701335 0)
(0.79213 0.767056 8.60403e-21)
(0.813813 0.764187 2.48314e-21)
(0.853241 0.619649 -1.0143e-20)
(0.90163 0.33186 -1.46992e-20)
(0.947832 -0.0289982 1.47148e-20)
(0.97807 -0.349662 -1.20338e-20)
(0.984468 -0.546047 2.73452e-21)
(0.968975 -0.620979 8.62234e-21)
(0.936759 -0.620413 6.5058e-22)
(0.902353 -0.584085 1.12595e-23)
(0.86521 -0.557532 0)
(0.806779 -0.559152 2.3493e-21)
(0.72748 -0.548932 -2.40817e-21)
(0.640253 -0.474742 1.80286e-22)
(0.573052 -0.321249 0)
(0.548541 -0.111631 -2.27524e-22)
(0.57598 0.102998 2.66262e-21)
(0.639205 0.276884 -4.47882e-21)
(0.712979 0.403749 2.20924e-23)
(0.757458 0.505348 -9.60066e-23)
(0.758862 0.589363 1.6054e-21)
(0.727576 0.609331 3.21646e-22)
(0.697844 0.504845 -3.9041e-21)
(0.68184 0.272435 3.29737e-21)
(0.691822 -0.0138666 -5.1563e-23)
(0.725504 -0.228519 1.39772e-21)
(0.760749 -0.344269 -1.63647e-21)
(0.739925 -0.409661 -1.2653e-21)
(0.698279 -0.442185 3.90215e-22)
(0.664126 -0.392618 3.15402e-22)
(0.661437 -0.223216 -5.34023e-22)
(0.660427 -0.0121138 3.39903e-22)
(0.667004 0.236353 -1.48188e-22)
(0.658262 0.391336 2.83057e-23)
(0.666921 0.416892 1.23305e-22)
(0.667812 0.320539 -7.73871e-22)
(0.670977 0.044977 1.51736e-24)
(0.634698 -0.174834 -2.20532e-22)
(0.602107 -0.353135 0)
(0.570987 -0.36674 -2.17133e-23)
(0.584884 0.0128889 -8.85614e-23)
(0.556418 0.133126 0)
(0.765816 -0.752461 4.53228e-20)
(0.704046 -0.739123 -7.93869e-20)
(0.645425 -0.692031 3.39728e-20)
(0.581073 -0.628639 2.03756e-20)
(0.494217 -0.586309 -3.57439e-20)
(0.379235 -0.570847 2.1191e-21)
(0.267946 -0.539311 1.30887e-20)
(0.19768 -0.441424 1.29104e-20)
(0.18174 -0.267549 -1.26707e-20)
(0.214498 -0.0479725 0)
(0.283684 0.171775 -1.10848e-20)
(0.372372 0.35791 1.9941e-20)
(0.465078 0.493871 -8.99178e-21)
(0.550471 0.578594 0)
(0.626809 0.614477 0)
(0.694943 0.616531 1.32178e-22)
(0.749593 0.624615 -9.76637e-21)
(0.785522 0.674869 9.48168e-21)
(0.812373 0.744033 0)
(0.849576 0.749281 2.01526e-20)
(0.901283 0.620772 -4.32095e-20)
(0.958069 0.350278 5.04133e-20)
(1.01254 -0.00328894 -5.36294e-20)
(1.04751 -0.327393 3.02149e-21)
(1.04823 -0.52783 4.0148e-20)
(1.02125 -0.603134 -1.73963e-20)
(0.976246 -0.603374 -3.24863e-22)
(0.928653 -0.568525 -2.95605e-21)
(0.883426 -0.536782 6.9518e-22)
(0.821639 -0.529026 2.33184e-21)
(0.739508 -0.515495 1.2765e-22)
(0.647976 -0.449119 -2.16047e-21)
(0.575014 -0.313814 4.5435e-21)
(0.545243 -0.126272 -2.64547e-21)
(0.571838 0.0710351 0)
(0.637755 0.239395 -1.95778e-21)
(0.716362 0.37328 1.86111e-21)
(0.768138 0.491194 -1.54532e-21)
(0.779535 0.592681 1.90758e-21)
(0.759145 0.624273 -3.32682e-22)
(0.739277 0.523551 0)
(0.728297 0.287812 -5.82681e-22)
(0.732974 -0.00865349 1.69334e-21)
(0.75584 -0.234723 0)
(0.78794 -0.34544 2.70117e-21)
(0.766289 -0.400282 -1.20364e-21)
(0.717423 -0.431718 2.65158e-22)
(0.67626 -0.390887 1.44753e-22)
(0.671087 -0.227445 0)
(0.668625 -0.0177752 0)
(0.676378 0.232401 -2.27366e-22)
(0.670141 0.390972 5.54232e-22)
(0.681163 0.416141 -4.8395e-22)
(0.683702 0.323265 2.38193e-22)
(0.688989 0.0520194 5.81203e-22)
(0.652678 -0.167774 2.20769e-22)
(0.615083 -0.343904 -3.09397e-22)
(0.576962 -0.368216 0)
(0.601235 0.0126845 1.05334e-22)
(0.574784 0.136724 4.32634e-23)
(0.899834 -0.679269 4.25505e-20)
(0.827174 -0.665907 -4.20205e-20)
(0.754326 -0.637742 2.30078e-22)
(0.683425 -0.584477 -1.56197e-22)
(0.615147 -0.514377 1.25853e-22)
(0.527709 -0.466236 -9.42337e-23)
(0.4121 -0.448367 8.97202e-23)
(0.299772 -0.413157 0)
(0.231108 -0.310611 -5.00173e-23)
(0.220504 -0.139641 5.03944e-23)
(0.26144 0.0584814 4.81663e-23)
(0.334474 0.244783 -1.17852e-22)
(0.420765 0.394193 0)
(0.509233 0.496965 0)
(0.595261 0.549911 3.54737e-23)
(0.674627 0.565542 0)
(0.7384 0.582017 -8.13387e-23)
(0.782655 0.635346 0)
(0.820595 0.707362 -1.26843e-20)
(0.870894 0.724159 2.9071e-20)
(0.933527 0.617894 -3.72308e-20)
(0.999881 0.369801 2.06748e-20)
(1.06543 0.0284811 2.47263e-20)
(1.10906 -0.295754 -2.39976e-20)
(1.10834 -0.500384 -1.74273e-20)
(1.07185 -0.578 1.67688e-20)
(1.01625 -0.580208 0)
(0.956906 -0.548502 2.04509e-22)
(0.903701 -0.514628 0)
(0.84065 -0.499558 0)
(0.758514 -0.482516 2.71011e-21)
(0.664684 -0.423257 -2.78041e-21)
(0.586386 -0.30584 1.71627e-22)
(0.549833 -0.141364 2.74193e-22)
(0.573133 0.0369106 -1.78854e-22)
(0.639489 0.198221 -1.25098e-21)
(0.722166 0.338411 1.21449e-21)
(0.781783 0.470613 -1.6549e-21)
(0.803553 0.587019 1.44026e-21)
(0.793088 0.633192 6.60898e-22)
(0.783846 0.541573 -4.42957e-21)
(0.780509 0.306847 -1.25455e-21)
(0.781556 0.00363526 3.60684e-21)
(0.791752 -0.236527 0)
(0.817955 -0.345679 -1.29745e-21)
(0.796115 -0.389684 9.35848e-22)
(0.740016 -0.419019 -1.30742e-21)
(0.690574 -0.38828 -1.45721e-22)
(0.682812 -0.232435 0)
(0.67946 -0.0249333 2.95204e-23)
(0.68893 0.226486 -2.09243e-23)
(0.684731 0.390083 -1.94769e-23)
(0.697587 0.415348 -1.90595e-22)
(0.701543 0.326242 6.85328e-22)
(0.709515 0.0596259 -6.314e-22)
(0.674066 -0.160024 0)
(0.632671 -0.33311 3.09579e-22)
(0.586104 -0.370153 0)
(0.620141 0.0107861 0)
(0.596156 0.140301 -5.32691e-23)
(0.984842 -0.607969 -4.03734e-20)
(0.910619 -0.593525 3.96019e-20)
(0.839627 -0.565815 -2.06687e-22)
(0.763743 -0.533294 1.60132e-22)
(0.69391 -0.480161 0)