/*--------------------------------*- C++ -*----------------------------------*\
| =========                 |                                                 |
| \\      /  F ield         | OpenFOAM: The Open Source CFD Toolbox           |
|  \\    /   O peration     | Version:  2312                                  |
|   \\  /    A nd           | Website:  www.openfoam.com                      |
|    \\/     M anipulation  |                                                 |
\*---------------------------------------------------------------------------*/
FoamFile
{
    version     2.0;
    format      ascii;
    arch        "LSB;label=32;scalar=64";
    class       surfaceScalarField;
    location    "48";
    object      phi;
}
// * * * * * * * * * * * * * * * * * * * * * * * * * * * * * * * * * * * * * //

dimensions      [0 3 -1 0 0 0 0];

oriented        oriented;

internalField   nonuniform List<scalar> 
10785
(
-0.000645372
0.00339405
-0.00274868
-0.000882333
0.00502171
-0.00478475
0.0012188
0.00249515
-0.00459629
0.0078731
-0.004989
-0.0016653
0.0210896
-0.0181891
0.00497261
0.0416664
-0.0364773
0.0159005
0.0686614
-0.0577707
0.0307757
0.0998853
-0.0796049
0.048381
0.132412
-0.0998101
0.067283
0.164016
-0.117191
0.0855879
0.192227
-0.131321
0.10311
0.216015
-0.14184
0.118051
0.235119
-0.150633
0.131529
0.248989
-0.156349
0.142479
-0.162988
0.152699
0.259277
-7.76799e-05
0.00347173
0.00152037
0.00342366
0.00733588
-0.00332036
0.020108
-0.0177611
0.040932
-0.0390131
0.0681662
-0.0637115
0.0983967
-0.0880013
0.127887
-0.109095
0.153807
-0.12573
0.174625
-0.138009
0.18994
-0.146636
0.201479
-0.153379
0.210167
-0.159321
0.219205
-0.165387
-0.173827
0.230045
0.000443909
0.00302782
0.00429103
-0.000423464
0.0150033
-0.0140326
0.0345464
-0.0373043
0.0608358
-0.0653025
0.0891825
-0.0920582
0.115062
-0.113881
0.135739
-0.129772
0.150666
-0.140657
0.160966
-0.148309
0.16909
-0.154759
0.176958
-0.161248
0.186028
-0.168391
0.196884
-0.176243
-0.184592
0.207649
0.00110969
0.00191813
0.0080563
-0.00737008
0.0244799
-0.0304562
0.0488199
-0.0616442
0.0750903
-0.0915729
0.0979111
-0.114879
0.114826
-0.130796
0.126266
-0.141212
0.134304
-0.148696
0.14134
-0.155345
0.14865
-0.162069
0.156554
-0.169152
0.164588
-0.176425
0.172247
-0.183902
-0.191866
0.179521
0.00214763
-0.000229493
0.0131015
-0.018324
0.0340669
-0.0514216
0.0583066
-0.085884
0.0790959
-0.112362
0.093854
-0.129637
0.103506
-0.140448
0.110345
-0.148051
0.116288
-0.154638
0.122034
-0.161091
0.127661
-0.167696
0.133093
-0.174584
0.138517
-0.18185
0.144487
-0.189872
-0.198331
0.150952
0.00364471
-0.0038742
0.0185698
-0.0332491
0.0403778
-0.0732296
0.0601016
-0.105608
0.0740012
-0.126262
0.0827929
-0.138429
0.0886386
-0.146294
0.0932047
-0.152617
0.0972131
-0.158646
0.10101
-0.164887
0.104861
-0.171546
0.108964
-0.178688
0.113454
-0.18634
0.118006
-0.194424
-0.202709
0.122384
0.00557293
-0.00944713
0.0227009
-0.0503771
0.0415963
-0.092125
0.0555651
-0.119576
0.0641171
-0.134814
0.0691584
-0.14347
0.072463
-0.149599
0.0750482
-0.155202
0.0774463
-0.161045
0.0798775
-0.167318
0.0823544
-0.174023
0.0848399
-0.181173
0.0872662
-0.188766
0.0897011
-0.196859
-0.205264
0.0922562
0.00745004
-0.0168972
0.0241068
-0.0670339
0.038546
-0.106564
0.0474836
-0.128514
0.0521352
-0.139465
0.0544842
-0.145819
0.0558735
-0.150988
0.05694
-0.156269
0.0578558
-0.16196
0.0586326
-0.168095
0.0593134
-0.174704
0.0599611
-0.181821
0.0606817
-0.189487
0.0614419
-0.197619
0.0622783
-0.2061
-0.00141885
-0.0104288
0.0118477
-0.00482965
-0.0189115
0.0223222
-0.00963033
-0.0213607
0.0261613
-0.0154279
-0.0217138
0.0275113
-0.0220243
-0.021846
0.0284424
-0.0293014
-0.0220404
0.0293175
-0.0371284
-0.0219314
0.0297584
-0.0453075
-0.021024
0.0292032
-0.0535593
-0.018779
0.0270308
-0.0615338
-0.0146205
0.022595
-0.0688209
-0.00797095
0.0152581
-0.0746276
0.00140173
0.00440505
-0.0785497
0.0131777
-0.00925563
-0.0803102
0.0278342
-0.0260737
0.0448355
-0.0792154
-0.0459303
-0.00202378
-0.00840507
-0.00617691
-0.0147583
-0.0116077
-0.0159299
-0.0179883
-0.0153332
-0.0252043
-0.0146299
-0.0331669
-0.0140778
-0.0417312
-0.0133671
-0.050648
-0.0121073
-0.05952
-0.00990704
-0.067786
-0.00635443
-0.0747481
-0.00100884
-0.0794605
0.00611416
-0.0811667
0.0148838
-0.0799962
0.0266638
0.0380221
-0.0731828
-0.00221389
-0.00619118
-0.00644662
-0.0105256
-0.0116961
-0.0106804
-0.0176145
-0.00941475
-0.0240639
-0.00818051
-0.0308852
-0.00725656
-0.037835
-0.00641731
-0.0445708
-0.00537142
-0.0506098
-0.00386807
-0.0552381
-0.00172609
-0.0576287
0.00138175
-0.0576459
0.00613137
-0.0522027
0.00944066
-0.0437126
0.0181736
0.0212359
-0.0269264
-0.00214851
-0.00404266
-0.00609908
-0.00657504
-0.0107576
-0.00602188
-0.0157051
-0.00446725
-0.0207416
-0.00314407
-0.02562
-0.00237814
-0.0299759
-0.00206142
-0.0333295
-0.00201781
-0.0350826
-0.002115
-0.0345413
-0.00226735
-0.0305431
-0.00261641
-0.0234538
-0.000957992
-0.00970481
-0.00430829
0.00811736
0.000351422
-0.00587196
0.0352252
-0.00201285
-0.00202981
-0.00561385
-0.00297404
-0.00964872
-0.00198701
-0.0136029
-0.000513017
-0.0172009
0.000453909
-0.0200785
0.000499412
-0.0216935
-0.000446445
-0.0213527
-0.00235861
-0.0181684
-0.00529926
-0.011296
-0.00913979
-9.4258e-05
-0.0138181
0.0166365
-0.0176887
0.0400768
-0.0277486
0.0681096
-0.0276814
-0.044132
0.10637
-0.00188192
-0.000147892
-0.00515145
0.000295494
-0.00859037
0.00145191
-0.011532
0.0024286
-0.0134429
0.00236484
-0.0136211
0.000677573
-0.011172
-0.0028955
-0.00505722
-0.00847341
0.00575858
-0.0161151
0.0219576
-0.0253388
0.0440034
-0.035864
0.0722658
-0.0459511
0.105463
-0.0609454
0.145625
-0.0678433
-0.0880875
0.18958
-0.00166457
0.00151668
-0.00441686
0.00304778
-0.00689423
0.00392928
-0.00808179
0.00361616
-0.00692496
0.00120801
-0.00225336
-0.00399403
0.00718288
-0.0123317
0.022328
-0.0236185
0.0435946
-0.0373817
0.0705402
-0.0522843
0.10269
-0.068014
0.139953
-0.083214
0.177869
-0.0988616
0.221719
-0.111693
-0.127801
0.261432
-0.00123199
-0.00296895
-0.00363596
-0.0016851
0.00449552
0.016402
0.034846
0.0596085
0.0895098
0.122813
0.157909
0.192746
0.225414
0.2562
0.281099
-0.0633686
0.140005
-0.155852
-0.045207
0.215154
-0.233316
-0.0249057
0.275704
-0.296005
0.026266
0.254723
-0.305894
0.109126
0.0958181
-0.178678
0.175354
-0.0993734
0.0331457
0.213735
-0.240616
0.202235
0.234522
-0.294041
0.273254
0.218668
-0.295354
0.311207
0.174615
-0.328119
0.372172
0.1576
-0.320734
0.337749
0.192558
-0.15048
0.115522
0.242087
0.0846293
-0.134158
0.26494
0.298893
-0.321746
0.253329
0.491927
-0.480316
0.226888
0.586446
-0.560006
0.201569
0.47631
-0.45099
0.184608
0.167209
-0.150249
0.179482
-0.148297
0.153423
0.178449
-0.352181
0.353214
0.182722
-0.398931
0.394659
0.18749
-0.350599
0.34583
0.185905
-0.250835
0.25242
0.18577
-0.194914
0.19505
0.191698
-0.103328
0.0973997
0.201316
-0.0898592
0.0802415
0.213495
-0.0650082
0.0528294
0.221598
-0.0331021
0.0249986
0.229774
-0.0703998
0.0622245
0.239925
-0.0059935
-0.00415804
0.246818
-0.00978548
0.00289304
0.254047
0.00501225
-0.0122419
0.259467
0.0651571
-0.0705767
0.261458
0.0638438
-0.0658347
0.262687
0.0705683
-0.071798
0.262946
0.109098
-0.109356
0.262275
0.109086
-0.108416
0.108182
-0.107133
-0.0491768
0.115999
-0.0161972
0.182174
0.0251246
0.234382
0.0845331
0.195314
0.157041
0.0233106
0.206876
-0.149209
0.22216
-0.2559
0.227049
-0.298929
0.211477
-0.279782
0.166178
-0.28282
0.141716
-0.296271
0.179082
-0.187846
0.239934
0.0237777
0.274688
0.264138
0.271424
0.495191
0.245234
0.612636
0.214649
0.506894
0.192199
0.189659
0.183784
-0.139882
0.180689
-0.349086
0.182524
-0.400765
0.19058
-0.358654
0.198058
-0.258313
0.202417
-0.199273
0.208112
-0.109024
0.216654
-0.0984004
0.22574
-0.0740945
0.230122
-0.0374838
0.233982
-0.0742601
0.239768
-0.0117791
0.24395
-0.0139677
0.250498
-0.00153562
0.256199
0.0594555
0.258628
0.0614149
0.26055
0.068646
0.261446
0.108202
0.261331
0.109201
0.10885
0.00627242
0.0828002
0.0530291
0.135418
0.103612
0.183799
0.153507
0.145419
0.199203
-0.0223854
0.231214
-0.18122
0.231362
-0.256048
0.222912
-0.290479
0.21072
-0.267591
0.169078
-0.241178
0.136381
-0.263574
0.167171
-0.218637
0.236279
-0.0453301
0.281596
0.218822
0.287949
0.488837
0.267646
0.632939
0.233886
0.540654
0.202821
0.220724
0.187693
-0.124753
0.182422
-0.343816
0.182432
-0.400774
0.18975
-0.365973
0.203005
-0.271569
0.214805
-0.211073
0.224611
-0.11883
0.234101
-0.10789
0.241499
-0.0814925
0.243059
-0.0390434
0.242574
-0.0737756
0.242909
-0.0121145
0.243075
-0.0141333
0.247384
-0.00584507
0.252293
0.0545466
0.254829
0.0588789
0.257471
0.0660043
0.259206
0.106467
0.259951
0.108457
0.108867
0.0687879
0.0492375
0.117735
0.086471
0.170902
0.130632
0.21522
0.101101
0.238303
-0.0454687
0.251159
-0.194076
0.239696
-0.244586
0.217906
-0.268689
0.209059
-0.258743
0.178231
-0.210351
0.140993
-0.226336
0.159178
-0.236821
0.229068
-0.11522
0.28484
0.16305
0.303164
0.470513
0.287453
0.64865
0.250743
0.577364
0.213689
0.257777
0.191765
-0.102829
0.182943
-0.334994
0.181816
-0.399647
0.187335
-0.371492
0.201097
-0.285331
0.217992
-0.227968
0.233235
-0.134073
0.245315
-0.119969
0.253548
-0.0897258
0.254739
-0.0402341
0.251965
-0.0710021
0.248198
-0.00834745
0.244529
-0.0104646
0.245648
-0.0069634
0.248682
0.0515125
0.250783
0.056778
0.253901
0.0628857
0.256475
0.103894
0.258265
0.106667
0.108019
0.128357
0.0272503
0.165076
0.0497521
0.210794
0.0849133
0.255399
0.0564966
0.269668
-0.0597383
0.260933
-0.18534
0.240275
-0.223928
0.210034
-0.238448
0.202844
-0.251553
0.186539
-0.194046
0.14884
-0.188637
0.150878
-0.238859
0.215707
-0.18005
0.28512
0.093638
0.317658
0.437975
0.307889
0.658418
0.269314
0.61594
0.224677
0.302414
0.195093
-0.0732453
0.182113
-0.322014
0.179546
-0.397079
0.183927
-0.375873
0.195672
-0.297076
0.213492
-0.245787
0.231947
-0.152528
0.246394
-0.134416
0.257013
-0.100345
0.260168
-0.0433898
0.257913
-0.0687464
0.252919
-0.00335378
0.247107
-0.00465269
0.245307
-0.00516318
0.246016
0.0508037
0.247242
0.055552
0.250452
0.0596757
0.253668
0.100677
0.256515
0.103821
0.106187
0.1972
0.01963
0.218001
0.0289514
0.248638
0.054276
0.28371
0.0214246
0.287345
-0.0633728
0.261618
-0.159614
0.235556
-0.197865
0.200605
-0.203496
0.189993
-0.240941
0.189219
-0.193272
0.156717
-0.156134
0.14275
-0.224893
0.19809
-0.23539
0.274745
0.0169837
0.320836
0.391883
0.324107
0.655147
0.288195
0.651852
0.236385
0.354224
0.199214
-0.0360746
0.180538
-0.303337
0.17535
-0.391891
0.17873
-0.379252
0.188644
-0.30699
0.205102
-0.262246
0.224133
-0.171559
0.239574
-0.149857
0.252365
-0.113136
0.258313
-0.0493376
0.258398
-0.0688315
0.254756
0.000288293
0.248959
0.00114401
0.245527
-0.00173093
0.244338
0.0519925
0.244625
0.0552649
0.247621
0.0566798
0.25121
0.0970869
0.254975
0.100056
0.103355
0.259953
0.0211094
0.268393
0.0205106
0.285175
0.0374948
0.300339
0.00626001
0.289241
-0.0522749
0.251386
-0.121758
0.223926
-0.170405
0.191487
-0.171058
0.172071
-0.221525
0.182807
-0.204008
0.163153
-0.136481
0.13335
-0.195089
0.167111
-0.269151
0.256856
-0.0727613
0.323794
0.324945
0.335955
0.642987
0.299194
0.688613
0.242475
0.410943
0.198448
0.00795205
0.176096
-0.280986
0.168579
-0.384374
0.171068
-0.381741
0.179983
-0.315905
0.194878
-0.277141
0.213338
-0.190019
0.228795
-0.165314
0.242826
-0.127166
0.251126
-0.057638
0.253917
-0.0716225
0.25292
0.00128538
0.248712
0.00535241
0.245205
0.00177624
0.24315
0.0540469
0.24286
0.0555549
0.245587
0.0539526
0.249362
0.0933126
0.253844
0.0955734
0.0995767
0.27836
0.023848
0.280193
0.0186781
0.287372
0.0303157
0.289581
0.00405072
0.27276
-0.0354539
0.235461
-0.0844597
0.209528
-0.144471
0.184815
-0.146345
0.156586
-0.193296
0.167068
-0.21449
0.163754
-0.133167
0.128326
-0.159661
0.137483
-0.278308
0.220248
-0.155527
0.30514
0.240054
0.341095
0.607031
0.317404
0.712304
0.258681
0.469666
0.205912
0.0607209
0.174732
-0.249805
0.162902
-0.372544
0.163443
-0.382283
0.170571
-0.323033
0.18371
-0.29028
0.201292
-0.207601
0.216367
-0.180389
0.231095
-0.141894
0.240958
-0.067501
0.246012
-0.0766763
0.247819
-0.000521879
0.24585
0.00732098
0.24351
0.00411675
0.241751
0.0558056
0.241503
0.0558031
0.244186
0.0512691
0.248138
0.0893607
0.25318
0.0905313
0.0949179
0.4712
0.0251631
-0.472515
0.474398
0.0154801
0.48889
0.015824
0.495747
-0.00280581
0.495199
-0.0349065
0.47789
-0.0671503
0.454843
-0.121424
0.438677
-0.13018
0.402119
-0.156738
0.386199
-0.19857
0.380814
-0.127782
0.342617
-0.121465
0.313457
-0.249148
0.337437
-0.179507
0.366257
0.211234
0.373474
0.599814
0.369842
0.715936
0.378669
0.460838
0.387885
0.0515055
0.385533
-0.247453
0.371082
-0.358093
0.354865
-0.366066
0.345972
-0.314139
0.347041
-0.29135
0.357857
-0.218416
0.370505
-0.193037
0.382484
-0.153873
0.390517
-0.0755339
0.393538
-0.079698
0.392008
0.00100845
0.387697
0.0116313
0.38131
0.0105041
0.374709
0.0624064
0.371021
0.0594917
0.370556
0.0517342
0.371866
0.0880507
0.375187
0.0872097
0.0919379
0.508446
0.0242238
-0.507506
0.508249
0.0156767
0.516351
0.00772229
0.52061
-0.00706481
0.516796
-0.0310926
0.507122
-0.0574762
0.482087
-0.0963892
0.462219
-0.110312
0.433478
-0.127997
0.402135
-0.167227
0.393655
-0.119302
0.373949
-0.101759
0.347831
-0.223029
0.355891
-0.187568
0.382816
0.184309
0.402127
0.580503
0.417398
0.700665
0.441642
0.436595
0.458244
0.0349039
0.447936
-0.237146
0.42323
-0.333387
0.400949
-0.343786
0.389318
-0.302508
0.388474
-0.290506
0.397051
-0.226993
0.407726
-0.203713
0.41812
-0.164266
0.425112
-0.0825258
0.428012
-0.0825978
0.42737
0.00165062
0.424435
0.0145661
0.419797
0.0151421
0.414512
0.0676915
0.411229
0.0627751
0.410288
0.0526746
0.410648
0.0876912
0.412809
0.0850482
0.0896447
0.545572
0.0220958
-0.543443
0.54698
0.0142677
0.549643
0.00506013
0.552173
-0.00959497
0.547596
-0.0265155
0.539121
-0.0490016
0.521636
-0.0789038
0.501393
-0.0900691
0.482463
-0.109067
0.456376
-0.14114
0.442433
-0.105359
0.422921
-0.082247
0.388707
-0.188815
0.395306
-0.194166
0.432051
0.147564
0.459337
0.553216
0.485397
0.674605
0.520137
0.401855
0.532772
0.0222686
0.516801
-0.221175
0.485111
-0.301697
0.455657
-0.314332
0.437776
-0.284626
0.432586
-0.285317
0.438463
-0.23287
0.447408
-0.212658
0.456816
-0.173674
0.463103
-0.0888135
0.465737
-0.0852317
0.465361
0.00202722
0.462822
0.0171049
0.459541
0.0184233
0.455908
0.0713245
0.453589
0.0650936
0.452901
0.0533625
0.4529
0.0876927
0.454061
0.0838868
0.0880708
0.58462
0.0199428
-0.582467
0.585426
0.0134614
0.586587
0.00389935
0.585715
-0.00872329
0.581135
-0.0219354
0.572053
-0.0399198
0.555063
-0.061913
0.537114
-0.0721206
0.518764
-0.0907172
0.491952
-0.114328
0.479044
-0.0924507
0.474545
-0.0777484
0.443956
-0.158226
0.430238
-0.180448
0.459507
0.118294
0.493085
0.519639
0.541935
0.625755
0.598377
0.345413
0.616088
0.00455701
0.587817
-0.192903
0.544738
-0.258619
0.510078
-0.279671
0.489728
-0.264276
0.482036
-0.277625
0.485031
-0.235864
0.491685
-0.219313
0.499491
-0.18148
0.504936
-0.0942586
0.507303
-0.0875979
0.507038
0.00229188
0.504474
0.019669
0.501965
0.0209319
0.499533
0.0737565
0.498035
0.0665919
0.497826
0.0535714
0.497876
0.0876423
0.498426
0.0833367
0.0870033
0.626164
0.0183522
-0.624574
0.626911
0.0127147
0.62668
0.00413021
0.624365
-0.00640834
0.61992
-0.0174906
0.611461
-0.0314602
0.598897
-0.0493492
0.584764
-0.0579877
0.567248
-0.0732007
0.543523
-0.0906027
0.526003
-0.0749314
0.515198
-0.0669429
0.478505
-0.121533
0.435245
-0.137187
0.435683
0.117856
0.492566
0.462756
0.600205
0.518116
0.685495
0.260123
0.697606
-0.00755419
0.662874
-0.158171
0.617075
-0.21282
0.578599
-0.241194
0.552848
-0.238525
0.539748
-0.264525
0.538197
-0.234313
0.54152
-0.222636
0.546993
-0.186954
0.551058
-0.0983226
0.552931
-0.0894715
0.55269
0.00253331
0.550181
0.0221781
0.548109
0.0230037
0.546364
0.0755013
0.545299
0.0676571
0.545416
0.0534541
0.545628
0.08743
0.545911
0.0830536
0.08617
0.671539
0.0169584
-0.670145
0.671944
0.0123098
0.671189
0.00488506
0.6682
-0.00341918
0.663747
-0.0130376
0.655997
-0.0237102
0.643756
-0.037109
0.630838
-0.0450696
0.614328
-0.0566901
0.592971
-0.0692461
0.578082
-0.0600424
0.56581
-0.0546707
0.523434
-0.0791572
0.460156
-0.0739094
0.453264
0.124748
0.550509
0.365511
0.69487
0.373755
0.773905
0.181088
0.768575
-0.00222487
0.722184
-0.11178
0.671603
-0.162239
0.632638
-0.202229
0.607894
-0.213782
0.595245
-0.251875
0.59276
-0.231828
0.594522
-0.224398
0.598398
-0.19083
0.601281
-0.101206
0.60262
-0.0908102
0.602437
0.00271593
0.600135
0.0244802
0.598458
0.0246809
0.597174
0.0767851
0.596304
0.0685276
0.596554
0.0532041
0.596901
0.0870831
0.597103
0.0828512
0.0853891
0.721468
0.0159399
-0.72045
0.721517
0.0122609
0.720286
0.00611597
0.717224
-0.000357537
0.712576
-0.00838946
0.705389
-0.0165227
0.695244
-0.0269641
0.6843
-0.0341253
0.670312
-0.0427028
0.652009
-0.0509427
0.636737
-0.0447701
0.622191
-0.0401252
0.585409
-0.0423753
0.535743
-0.0242428
0.549053
0.111438
0.662204
0.25236
0.786425
0.249534
0.837596
0.129918
0.824051
0.0113192
0.782566
-0.0702944
0.738419
-0.118091
0.702374
-0.166184
0.676715
-0.188123
0.661404
-0.236565
0.655537
-0.225961
0.654295
-0.223155
0.655772
-0.192308
0.656943
-0.102377
0.657315
-0.091182
0.6569
0.00313085
0.654734
0.0266464
0.65336
0.0260549
0.65243
0.0777148
0.651639
0.0693189
0.651923
0.0529207
0.652402
0.0866035
0.652641
0.0826121
0.0845365
0.776656
0.0152774
-0.775994
0.776405
0.0125122
0.775001
0.0075197
0.772
0.00264411
0.767722
-0.00411208
0.761511
-0.0103118
0.75303
-0.0184824
0.743269
-0.0243648
0.730992
-0.0304255
0.716041
-0.0359919
0.702919
-0.0316481
0.690753
-0.0279588
0.667051
-0.0186734
0.641324
0.0014837
0.667679
0.0850834
0.759545
0.160493
0.846074
0.163005
0.87846
0.0975327
0.865666
0.0241132
0.832961
-0.0375895
0.797575
-0.0827059
0.767483
-0.136092
0.744853
-0.165493
0.730001
-0.221712
0.7226
-0.218561
0.718895
-0.21945
0.718101
-0.191514
0.717484
-0.10176
0.716824
-0.0905226
0.71621
0.00374487
0.714181
0.0286758
0.713152
0.0270842
0.712616
0.078251
0.711929
0.0700053
0.712281
0.0525692
0.712944
0.0859398
0.713279
0.0822773
0.0835775
0.837868
0.0149081
-0.837499
0.837435
0.0129455
0.836047
0.00890735
0.833364
0.00532708
0.829583
-0.000331484
0.824254
-0.00498279
0.817214
-0.0114425
0.809152
-0.0163025
0.799492
-0.0207652
0.788411
-0.0249111
0.778215
-0.0214526
0.769026
-0.0187689
0.75666
-0.00630741
0.748538
0.00960522
0.774337
0.0592843
0.835781
0.0990498
0.891809
0.106978
0.91601
0.073331
0.911295
0.0288283
0.890847
-0.0171416
0.864694
-0.0565531
0.839723
-0.11112
0.81887
-0.144641
0.803848
-0.20669
0.795041
-0.209754
0.789348
-0.213756
0.786587
-0.188753
0.784149
-0.099322
0.782242
-0.0886157
0.781187
0.00480079
0.779089
0.0307731
0.778316
0.0278575
0.778123
0.0784442
0.777532
0.0705959
0.778005
0.0520968
0.778919
0.0850252
0.779409
0.0817876
0.0824029
0.905872
0.0147279
-0.905692
0.905396
0.0134218
0.904149
0.0101539
0.901902
0.00757404
0.898725
0.00284604
0.894477
-0.000734718
0.889017
-0.00598296
0.882786
-0.0100713
0.875542
-0.0135212
0.867633
-0.0170024
0.860567
-0.0143863
0.85494
-0.0131418
0.85016
-0.0015274
0.850971
0.00879463
0.870855
0.0394004
0.909363
0.0605416
0.946103
0.0702377
0.965144
0.054289
0.964921
0.0290516
0.952122
-0.00434236
0.933185
-0.0376158
0.91393
-0.0918651
0.89689
-0.127601
0.883444
-0.193244
0.874007
-0.200317
0.866219
-0.205969
0.861162
-0.183696
0.856715
-0.0948749
0.85345
-0.0853509
0.851934
0.00631738
0.849715
0.0329916
0.849205
0.0283681
0.84943
0.0782185
0.849054
0.0709723
0.849754
0.0513965
0.851042
0.0837373
0.851783
0.0810472
0.0810691
0.981525
0.0146125
-0.981409
0.981112
0.0138347
0.980095
0.0111704
0.978357
0.00931242
0.975885
0.00531848
0.972682
0.00246751
0.968693
-0.00199365
0.964169
-0.00554689
0.959183
-0.00853578
0.954083
-0.011902
0.949807
-0.0101105
0.947098
-0.0104324
0.946377
-0.000806587
0.95032
0.00485123
0.96471
0.0250109
0.988671
0.0365806
1.01222
0.0466847
1.02625
0.0402664
1.0284
0.0268969
1.02151
0.00254581
1.00902
-0.02512
0.994971
-0.0778197
0.981038
-0.113667
0.968552
-0.180759
0.958539
-0.190304
0.949117
-0.196547
0.942162
-0.176741
0.935851
-0.0885641
0.931266
-0.0807657
0.929216
0.00836747
0.926796
0.0354116
0.92654
0.0286237
0.927134
0.0776253
0.92695
0.0711555
0.927994
0.0503524
0.929663
0.0820687
0.930669
0.0800411
0.0793156
1.06543
0.0145364
-1.06536
1.06514
0.0141237
1.06443
0.011882
1.06322
0.0105266
1.06149
0.00704574
1.05927
0.00469173
1.05661
0.000668169
1.05364
-0.00257772
1.05052
-0.00542078
1.04757
-0.0089532
1.04538
-0.00791671
1.04462
-0.00967494
1.04584
-0.00202162
1.05033
0.000355961
1.06041
0.0149312
1.07536
0.0216367
1.09045
0.0315909
1.10042
0.030292
1.10317
0.0241469
1.09946
0.00626226
1.09136
-0.0170235
1.08126
-0.0677213
1.07035
-0.102758
1.0596
-0.170009
1.04966
-0.180359
1.03893
-0.185817
1.03017
-0.167986
1.022
-0.080394
1.01594
-0.0747048
1.01337
0.0109421
1.01069
0.0380938
1.01067
0.0286431
1.01178
0.0765107
1.01197
0.0709702
1.01338
0.0489366
1.01565
0.0798052
1.01707
0.0786184
0.0774026
1.15823
0.0143565
-1.15805
1.15816
0.0141917
1.15779
0.0122495
1.1571
0.0112233
1.15606
0.0080782
1.15474
0.00601449
1.15315
0.00226103
1.15146
-0.000888747
1.14977
-0.00373464
1.14838
-0.00755771
1.14762
-0.00715497
1.14797
-0.0100293
1.14987
-0.00392468
1.15385
-0.00361601
1.16078
0.00799552
1.17004
0.0123765
1.17948
0.0221517
1.18609
0.0236814
1.18856
0.0216773
1.1869
0.00791932
1.18206
-0.0121826
1.17551
-0.0611663
1.16747
-0.094718
1.15784
-0.160386
1.14744
-0.16996
1.13504
-0.173413
1.12434
-0.15729
1.11459
-0.0706437
1.10756
-0.0676659
1.10469
0.0138098
1.10194
0.0408393
1.10232
0.0282614
1.10394
0.0748958
1.10448
0.0704304
1.10649
0.0469296
1.10929
0.076998
1.11115
0.0767636
0.0747446
1.26064
0.0140488
-1.26034
1.26079
0.014048
1.26075
0.012291
1.26051
0.0114625
1.26007
0.0085173
1.25947
0.00661441
1.25873
0.00299521
1.258
-0.000158301
1.25734
-0.00307557
1.25698
-0.00719806
1.25708
-0.00724962
1.25796
-0.0109112
1.25989
-0.00585041
1.26305
-0.00678136
1.26771
0.00333371
1.27343
0.00666432
1.27927
0.0163093
1.28354
0.0194114
1.28545
0.0197644
1.28477
0.00860494
1.28188
-0.00929995
1.27756
-0.0568481
1.27134
-0.0884917
1.26275
-0.151798
1.25233
-0.159539
1.23898
-0.160067
1.22692
-0.145228
1.21555
-0.0592699
1.20717
-0.0592927
1.20411
0.0168684
1.20136
0.0435949
1.20209
0.0275291
1.20455
0.0724351
1.20571
0.0692695
1.20823
0.0444148
1.21189
0.0733328
1.21433
0.0743241
0.0719948
1.37344
0.0135541
-1.37295
1.37385
0.0136395
1.37415
0.0119938
1.37433
0.0112788
1.37439
0.00845842
1.37437
0.00663788
1.37427
0.00309038
1.3742
-8.36091e-05
1.37418
-0.00305742
1.37437
-0.00738352
1.37485
-0.00773732
1.3758
-0.0118601
1.37741
-0.00746136
1.37963
-0.00899845
1.38267
0.000297551
1.38608
0.00325108
1.38968
0.0127115
1.39236
0.0167292
1.39388
0.0182421
1.39389
0.00859743
1.39261
-0.00801783
1.38986
-0.0540995
1.38468
-0.0833164
1.37556
-0.142672
1.36346
-0.147441
1.34778
-0.144388
1.33377
-0.13122
1.32179
-0.047283
1.31327
-0.0507811
1.3108
0.0193467
1.30862
0.0457686
1.31023
0.0259209
1.31363
0.069038
1.31546
0.0674347
1.31884
0.04104
1.32336
0.0688114
1.32653
0.0711562
0.0680596
1.49716
0.0128593
-1.49647
1.49782
0.0129783
1.49841
0.0114036
1.49895
0.0107439
1.4994
0.00801063
1.4998
0.00623537
1.50014
0.0027485
1.50048
-0.000421503
1.50085
-0.0034262
1.50131
-0.007847
1.50191
-0.00834016
1.50273
-0.0126737
1.50388
-0.00861694
1.50526
-0.0103813
1.50709
-0.00153108
1.50901
0.00133354
1.51116
0.0105642
1.51282
0.0150712
1.51391
0.0171441
1.51416
0.00835106
1.51356
-0.00741244
1.51144
-0.0519837
1.50647
-0.0783443
1.49663
-0.132832
1.48314
-0.133949
1.46607
-0.127318
1.45092
-0.116073
1.43799
-0.0343536
1.42906
-0.0418547
1.42755
0.0208576
1.42632
0.0470003
1.42854
0.023703
1.43326
0.0643145
1.43618
0.0645197
1.44026
0.0369546
1.44593
0.0631488
1.44982
0.0672586
0.0641469
1.63405
0.011688
-1.63288
1.63521
0.0118223
1.63628
0.0103304
1.63729
0.00973331
1.63815
0.00715256
1.6389
0.00548604
1.63946
0.00218484
1.63986
-0.000820725
1.6401
-0.00365969
1.64016
-0.00791067
1.64017
-0.00835411
1.64007
-0.0125701
1.64022
-0.00876943
1.64031
-0.0104725
1.64103
-0.002251
1.6419
0.000463904
1.6435
0.00897063
1.64511
0.0134615
1.64701
0.0152405
1.64856
0.00680116
1.6489
-0.00775314
1.64559
-0.048671
1.63749
-0.0702439
1.62253
-0.117873
1.60436
-0.115783
1.58389
-0.10685
1.56718
-0.0993596
1.5562
-0.0233686
1.54882
-0.0344811
1.55004
0.0196357
1.55143
0.0456161
1.5553
0.01983
1.56209
0.0575206
1.56652
0.0600978
1.57154
0.0319274
1.57864
0.0560509
1.58384
0.0620607
0.0586083
1.78301
0.0100639
-1.78139
1.78468
0.0101567
1.78622
0.00878295
1.78772
0.00823321
1.78899
0.00588462
1.79006
0.00441519
1.79083
0.00142187
1.7912
-0.00119124
1.79124
-0.00370291
1.79079
-0.00746643
1.79004
-0.00760156
1.78892
-0.0114468
1.78786
-0.00771227
1.78659
-0.00920419
1.7862
-0.00185511
1.7862
0.000465298
1.7877
0.00746994
1.78984
0.0113142
1.79302
0.0120676
1.79641
0.00341106
1.79775
-0.0091008
1.79284
-0.043755
1.78107
-0.0584772
1.76037
-0.0971736
1.73735
-0.0927647
1.71516
-0.0846522
1.69876
-0.0829616
1.68951
-0.0141159
1.68383
-0.0288002
1.68847
0.0149901
1.69227
0.0418195
1.6965
0.0155979
1.70482
0.0491973
1.71079
0.0541309
1.71682
0.0258964
1.72541
0.0474613
1.73137
0.056097
0.0532359
1.95333
0.00635037
-1.94961
1.95712
0.00635942
1.96048
0.00542578
1.96359
0.00512177
1.96586
0.00361742
1.96736
0.00291528
1.96766
0.0011252
1.96657
-0.000103209
1.9642
-0.00133851
1.96008
-0.00333695
1.95512
-0.00264623
1.94891
-0.00523264
1.94334
-0.00214512
1.93786
-0.00372606
1.93542
0.000589542
1.93499
0.00088843
1.93815
0.0043133
1.94462
0.00484804
1.95364
0.00303989
1.9632
-0.00614403
1.9662
-0.0121006
1.95434
-0.0318975
1.93177
-0.0359073
1.89614
-0.0615473
1.86266
-0.0592824
1.83716
-0.059151
1.81876
-0.0645606
1.81768
-0.0130385
1.81639
-0.0275053
1.82646
0.00491493
1.83942
0.0288645
1.84352
0.0114938
1.85419
0.0385274
1.86618
0.042138
1.87284
0.0192426
1.88254
0.0377594
1.89067
0.0479715
0.0460782
2.13135
0.00279936
-2.1278
2.13489
0.00281648
2.13785
0.00246614
2.14053
0.00244507
2.14221
0.00193814
2.1432
0.00192143
2.14288
0.00144461
2.1414
0.00138636
2.1387
0.0013554
2.13438
0.000980212
2.12987
0.00187224
2.12382
0.000814045
2.1192
0.00247828
2.11437
0.00109783
2.11245
0.00251169
2.11226
0.0010806
2.11476
0.00180663
2.12029
-0.000673883
2.12619
-0.00286457
2.13039
-0.0103442
2.13021
-0.0119206
2.11907
-0.0207546
2.10391
-0.020753
2.07663
-0.034265
2.05249
-0.0351395
2.03183
-0.0384955
2.01077
-0.0434968
2.01324
-0.01551
2.0086
-0.0228635
2.01487
-0.00136159
2.03126
0.0124769
2.03377
0.008989
2.0466
0.0256957
2.06195
0.0267848
2.06479
0.0164022
2.07339
0.0291612
2.08547
0.0358967
0.0368011
2.31431
0.00160251
-2.31311
2.31548
0.00164479
2.31642
0.00152551
2.3173
0.00156391
2.31785
0.00138959
2.31835
0.00141963
2.31853
0.00126454
2.31867
0.00124663
2.31876
0.00126581
2.31864
0.00110366
2.31903
0.00148303
2.31878
0.00105908
2.31942
0.00183991
2.31942
0.00110236
2.31993
0.00199516
2.32013
0.000883593
2.32062
0.00131934
2.32079
-0.000849437
2.31939
-0.00146122
2.31498
-0.005936
2.31071
-0.00765284
2.30488
-0.0149198
2.30089
-0.0167682
2.29076
-0.0241319
2.27992
-0.0243015
2.26534
-0.0239113
2.24709
-0.0252454
2.24248
-0.0109038
2.23329
-0.0136727
2.23269
-0.00075888
2.23929
0.00587517
2.24197
0.00631195
2.25195
0.015714
2.26201
0.0167196
2.2651
0.0133156
2.27353
0.0207303
2.28587
0.0235615
0.0248952
2.52378
0.000585104
-2.52276
2.5248
0.000619585
2.52573
0.000600869
2.52664
0.000649515
2.5274
0.000634279
2.52812
0.000701952
2.52866
0.000721936
2.52911
0.000795566
2.52948
0.00089759
2.52966
0.00092606
2.52998
0.0011559
2.52999
0.00104675
2.53045
0.00138643
2.53051
0.0010379
2.53118
0.00133194
2.53144
0.000614762
2.5321
0.000667952
2.53192
-0.000675425
2.53155
-0.0010923
2.52902
-0.0034025
2.52535
-0.00398245
2.51733
-0.00689591
2.50791
-0.00734909
2.49393
-0.0101588
2.48025
-0.0106171
2.46708
-0.0107405
2.45362
-0.0117912
2.44914
-0.00642501
2.44287
-0.00739671
2.44385
-0.00173718
2.44858
0.00114675
2.45241
0.00248055
2.46154
0.00657829
2.47067
0.00759402
2.47697
0.00701705
2.48725
0.010443
2.49905
0.0117653
0.013122
2.75288
-2.7523
2.7535
2.7541
2.75475
2.75538
2.75609
2.75681
2.7576
2.7585
2.75943
2.76058
2.76163
2.76302
2.76405
2.76539
2.766
2.76667
2.76599
2.7649
2.7615
2.75752
2.75062
2.74327
2.73311
2.7225
2.71176
2.69996
2.69354
2.68614
2.6844
2.68555
2.68803
2.69461
2.7022
2.70922
2.71966
2.73143
0.423553
0.0554069
-0.416682
0.430448
0.0853615
0.437907
0.114925
0.443995
0.144863
0.451809
0.171708
0.458419
0.201039
0.463541
0.224923
0.250303
0.456355
0.0491182
-0.450066
0.462525
0.0791912
0.469623
0.107827
0.476464
0.138022
0.48384
0.164332
0.49215
0.19273
0.499584
0.217488
0.24238
0.4934
0.0438958
-0.488177
0.499004
0.0735865
0.505107
0.101725
0.51173
0.131398
0.518677
0.157385
0.526428
0.184979
0.535085
0.208831
0.234022
0.533507
0.0393196
-0.52893
0.538607
0.0684859
0.544022
0.0963103
0.550376
0.125045
0.557088
0.150673
0.564696
0.177371
0.573279
0.200247
0.224834
0.577711
0.0354741
-0.573865
0.58237
0.0638262
0.587439
0.0912412
0.593493
0.118991
0.600066
0.1441
0.60748
0.169957
0.615536
0.192192
0.215796
0.626005
0.0320147
-0.622546
0.630172
0.0596594
0.634881
0.0865324
0.640512
0.11336
0.646607
0.138005
0.653684
0.162881
0.661321
0.184555
0.206972
0.678655
0.029064
-0.675704
0.682321
0.0559939
0.686607
0.0822458
0.691825
0.108142
0.697609
0.13222
0.704497
0.155993
0.711938
0.177113
0.198461
0.736118
0.0265676
-0.733621
0.739377
0.0527343
0.743367
0.0782563
0.748332
0.103177
0.753961
0.126592
0.760576
0.149378
0.767772
0.169917
0.190239
0.798999
0.0244644
-0.796896
0.80196
0.049774
0.80577
0.0744461
0.810513
0.0984341
0.815969
0.121136
0.822356
0.142991
0.82944
0.162833
0.18218
0.867945
0.0226551
-0.866136
0.870709
0.0470096
0.874354
0.0708014
0.878903
0.0938847
0.884272
0.115767
0.890595
0.136667
0.897687
0.155741
0.174175
0.943505
0.0211016
-0.941951
0.946057
0.0444573
0.94958
0.0672784
0.954089
0.0893754
0.959578
0.110278
0.966019
0.130227
0.973266
0.148494
0.166032
1.02631
0.0197513
-1.02496
1.02878
0.0419856
1.03238
0.0636717
1.03707
0.0846852
1.04276
0.104594
1.0494
0.123589
1.05691
0.140975
0.157589
1.11721
0.0184924
-1.11595