/*--------------------------------*- C++ -*----------------------------------*\
| =========                 |                                                 |
| \\      /  F ield         | OpenFOAM: The Open Source CFD Toolbox           |
|  \\    /   O peration     | Version:  2312                                  |
|   \\  /    A nd           | Website:  www.openfoam.com                      |
|    \\/     M anipulation  |                                                 |
\*---------------------------------------------------------------------------*/
FoamFile
{
    version     2.0;
    format      ascii;
    arch        "LSB;label=32;scalar=64";
    class       volVectorField;
    location    "70.15";
    object      U;
}
// * * * * * * * * * * * * * * * * * * * * * * * * * * * * * * * * * * * * * //

dimensions      [0 1 -1 0 0 0 0];

internalField   nonuniform List<vector> 
5478
(
(-0.0279245 0.0278783 -1.10139e-19)
(-0.0265256 0.0387739 0)
(0.0234598 0.0279324 1.70162e-19)
(0.1283 0.00707684 -2.99928e-19)
(0.293634 -0.0158636 1.98405e-19)
(0.504297 -0.0349258 -5.92744e-20)
(0.725529 -0.0472599 -1.0135e-19)
(0.922709 -0.0535769 0)
(1.07302 -0.0547382 0)
(1.16728 -0.0537101 1.06382e-19)
(1.2144 -0.0499621 -5.44807e-20)
(1.21627 -0.0442618 -7.45068e-20)
(1.19977 -0.0407731 -2.64174e-20)
(1.17022 -0.0298899 0)
(1.12683 -0.0280406 5.49305e-20)
(-0.0251979 0.0196967 2.20742e-19)
(-0.00441196 0.0219234 0)
(0.0912019 0.00889074 0)
(0.270084 -0.00652607 -1.48756e-19)
(0.514695 -0.0144074 1.96907e-19)
(0.772551 -0.0133157 5.71204e-20)
(0.992554 -0.00784785 -9.3203e-20)
(1.14686 -0.0027212 8.26458e-20)
(1.23005 -0.00111418 1.89117e-19)
(1.25705 -0.00237627 -1.62958e-19)
(1.24331 -0.00521289 2.13576e-21)
(1.21485 -0.00782934 0)
(1.18337 -0.00910385 2.63702e-20)
(1.1556 -0.00328037 0)
(1.13977 -0.00933368 0)
(-0.0197626 0.0118015 -5.51951e-22)
(0.0381338 0.00278918 -1.00946e-19)
(0.208482 -0.00824018 1.27263e-22)
(0.479535 -0.00589124 0)
(0.776145 0.0101363 -6.38567e-20)
(1.02091 0.0291275 5.38827e-20)
(1.17924 0.0420587 4.48746e-20)
(1.25346 0.045451 0)
(1.26853 0.0416077 -6.36883e-20)
(1.2508 0.0342772 5.14318e-20)
(1.22599 0.0277772 4.11159e-20)
(1.2035 0.0234591 0)
(1.1868 0.0230474 0)
(1.17428 0.0228416 -7.50706e-20)
(1.1643 0.0235763 6.68643e-20)
(-0.00773654 0.00431563 -1.16571e-19)
(0.114409 -0.0133781 9.98381e-20)
(0.388579 -0.00798395 -8.64885e-20)
(0.728655 0.0226738 7.48531e-20)
(1.01056 0.0565794 1.26676e-19)
(1.18424 0.0785251 -1.06037e-19)
(1.26048 0.0852525 -4.48482e-20)
(1.27575 0.0813909 3.39293e-20)
(1.2635 0.0731887 -3.27876e-20)
(1.2461 0.0652942 0)
(1.22876 0.0594376 0)
(1.21177 0.0548517 -5.8026e-20)
(1.19364 0.0515368 7.41356e-20)
(1.17497 0.0489294 -4.1273e-20)
(1.15411 0.0431269 0)
(0.0164082 -0.00345594 5.87757e-20)
(0.236062 -0.0188992 4.97312e-20)
(0.612212 0.0206739 -1.76887e-19)
(0.954305 0.0735645 1.74903e-21)
(1.16586 0.108558 -2.54028e-21)
(1.2596 0.121761 -1.14032e-21)
(1.28333 0.120695 4.11097e-20)
(1.27661 0.113572 3.50875e-20)
(1.26065 0.105164 2.45736e-20)
(1.24085 0.0970464 -4.36094e-21)
(1.21939 0.0890889 -5.57214e-20)
(1.19802 0.0817652 0)
(1.17914 0.076135 2.38569e-20)
(1.16304 0.0691209 -1.71354e-20)
(1.1524 0.0670144 3.1438e-20)
(0.0588484 -0.00980481 -1.23519e-19)
(0.402412 -0.00148136 1.34028e-19)
(0.828144 0.0740742 -4.54944e-20)
(1.11475 0.132094 3.49869e-20)
(1.24904 0.157573 -6.3829e-20)
(1.28955 0.161594 -4.7649e-20)
(1.28725 0.155648 1.05451e-21)
(1.26968 0.146081 0)
(1.24744 0.135482 5.01886e-20)
(1.22571 0.124865 -4.46312e-20)
(1.20673 0.115418 1.75917e-20)
(1.19093 0.107197 0)
(1.17709 0.100178 1.06378e-20)
(1.16444 0.0933864 -1.81506e-20)
(1.14988 0.0894782 0)
(0.123426 -0.00898022 -1.53506e-20)
(0.587474 0.0461744 9.93398e-22)
(0.99838 0.141053 2.26396e-20)
(1.21335 0.191936 3.73932e-20)
(1.28798 0.205863 -2.84952e-20)
(1.29438 0.201513 4.79872e-20)
(1.27643 0.190417 -1.09249e-20)
(1.25338 0.17764 0)
(1.23203 0.164998 -2.94233e-20)
(1.21311 0.153373 2.02505e-21)
(1.19552 0.142442 2.44119e-20)
(1.17864 0.132304 0)
(1.16263 0.122915 -1.5551e-20)
(1.14736 0.113439 0)
(1.13407 0.108782 9.32308e-21)
(0.207821 0.00594305 -1.64611e-20)
(0.754161 0.11755 0)
(1.11681 0.214974 2.29562e-20)
(1.26508 0.252601 0)
(1.29574 0.253856 0)
(1.28194 0.241362 0)
(1.25804 0.225724 -9.2811e-21)
(1.23469 0.210045 0)
(1.21312 0.19495 5.93165e-21)
(1.19321 0.180395 0)
(1.1756 0.166891 -7.6231e-21)
(1.1608 0.154494 0)
(1.14854 0.143438 4.90776e-21)
(1.13819 0.13359 0)
(1.12787 0.127502 3.15083e-21)
(-0.000302109 -0.0996286 -1.16349e-20)
(-0.0163452 -0.216265 0)
(-0.0541829 -0.269902 1.83161e-20)
(-0.0961229 -0.297485 0)
(-0.136707 -0.324043 0)
(-0.174232 -0.355349 0)
(-0.20707 -0.387715 -1.18737e-20)
(-0.233158 -0.4157 0)
(-0.250155 -0.43369 9.81268e-21)
(-0.256069 -0.436136 0)
(-0.249607 -0.418199 -1.62277e-20)
(-0.229996 -0.376383 0)
(-0.197262 -0.308295 1.32169e-20)
(-0.153943 -0.212191 0)
(-0.103806 -0.089546 1.03852e-20)
(0.00168099 -0.0770558 5.8152e-20)
(-0.0160347 -0.170995 -4.15255e-20)
(-0.0595013 -0.215662 1.86522e-20)
(-0.106351 -0.240646 6.56888e-20)
(-0.151219 -0.267412 4.34507e-22)
(-0.193469 -0.30082 -5.24456e-20)
(-0.232428 -0.337812 3.52746e-20)
(-0.266935 -0.373985 0)
(-0.295331 -0.404421 2.87594e-20)
(-0.316096 -0.423729 1.94311e-22)
(-0.327883 -0.426767 -1.44908e-20)
(-0.328348 -0.408968 0)
(-0.315517 -0.365604 -3.47471e-20)
(-0.292792 -0.292652 0)
(-0.254842 -0.195311 -4.54481e-20)
(-1.19865e-05 -0.0479995 9.38971e-20)
(-0.0185218 -0.11832 2.15244e-20)
(-0.0622189 -0.156299 -3.68895e-20)
(-0.107541 -0.179978 -9.94658e-20)
(-0.148948 -0.206632 5.88197e-20)
(-0.185854 -0.240661 5.342e-20)
(-0.217748 -0.279712 -9.54371e-20)
(-0.244019 -0.320167 0)
(-0.264018 -0.357843 -7.40568e-20)
(-0.277885 -0.388122 6.58503e-20)
(-0.286611 -0.406692 2.69954e-20)
(-0.288792 -0.40948 0)
(-0.278109 -0.391497 2.15233e-20)
(-0.274238 -0.341081 -2.70103e-20)
(-0.224988 -0.273341 0)
(-0.00555134 -0.0181353 4.84496e-20)
(-0.0244453 -0.0655381 -1.28397e-19)
(-0.0639657 -0.0979424 1.52155e-19)
(-0.102693 -0.120961 -1.36335e-19)
(-0.134816 -0.147512 -6.18075e-20)
(-0.158919 -0.18182 5.54046e-20)
(-0.173752 -0.222088 4.80892e-20)
(-0.178505 -0.264762 4.34666e-20)
(-0.173081 -0.305313 -1.10437e-19)
(-0.158778 -0.338785 3.81308e-21)
(-0.139165 -0.361405 2.73502e-20)
(-0.122929 -0.371753 0)
(-0.0760241 -0.36698 2.96175e-20)
(-0.0927252 -0.333572 6.71247e-20)
(0.0103489 -0.287829 -3.59304e-20)
(-0.0137492 0.0077771 7.13834e-22)
(-0.0327046 -0.018051 8.94291e-20)
(-0.0637124 -0.0447732 -7.95283e-20)
(-0.0900883 -0.0673069 6.89197e-20)
(-0.105636 -0.0940535 1.25607e-19)
(-0.107453 -0.128779 -1.12559e-19)
(-0.0930911 -0.170145 -5.08017e-20)
(-0.062024 -0.214419 -1.29984e-19)
(-0.0161225 -0.2566 1.14342e-19)
(0.0403689 -0.290562 0)
(0.107455 -0.308723 0)
(0.15093 -0.321996 7.04819e-20)
(0.25364 -0.304906 -1.42314e-19)
(0.23628 -0.284683 4.45033e-20)
(0.40648 -0.240463 0)
(-0.0215814 0.0259306 -4.76697e-22)
(-0.0391282 0.018835 -9.04508e-20)
(-0.0570644 -0.00191163 2.41257e-19)
(-0.0640705 -0.0238113 -7.17014e-20)
(-0.053034 -0.0506628 -6.3835e-20)
(-0.019323 -0.0852659 5.71847e-20)
(0.039728 -0.12609 5.08159e-20)
(0.121933 -0.168559 8.79352e-20)
(0.221146 -0.207176 -1.53997e-19)
(0.327548 -0.236224 6.20803e-20)
(0.434597 -0.24803 4.8949e-20)
(0.518327 -0.254851 0)
(0.641505 -0.230081 0)
(0.639644 -0.205745 6.34429e-20)
(0.819513 -0.167338 -5.64955e-20)
(-0.0269487 0.0343077 1.2441e-21)
(-0.0411377 0.0406242 0)
(-0.0413308 0.0255929 0)
(-0.021129 0.00437975 1.4892e-19)
(0.027183 -0.0231377 -6.50655e-20)
(0.109085 -0.057442 5.89309e-20)
(0.224428 -0.0951212 1.02741e-19)
(0.364072 -0.130768 -9.10992e-20)
(0.513065 -0.159928 7.59699e-20)
(0.657355 -0.176471 -6.21217e-20)
(0.77884 -0.182639 -1.43965e-21)
(0.884914 -0.173083 0)
(0.963895 -0.155101 2.70399e-20)
(0.998882 -0.126388 0)
(1.0866 -0.0960934 0)
(-0.0288705 0.0339527 -1.06075e-19)
(-0.037456 0.0466687 0)
(-0.0161094 0.0355858 -1.69282e-19)
(0.0392484 0.0143313 2.99474e-19)
(0.137103 -0.0133962 -3.32465e-19)
(0.28012 -0.0442089 -5.82703e-20)
(0.456377 -0.0730648 1.03658e-19)
(0.642707 -0.0960981 0)
(0.816484 -0.110962 0)
(0.957912 -0.115844 -1.11973e-19)
(1.06073 -0.11417 -3.52025e-20)
(1.12967 -0.101899 7.77567e-20)
(1.15168 -0.0887531 -2.70865e-20)
(1.17096 -0.0682237 0)
(1.15514 -0.048749 -5.2881e-20)
(-0.00946059 0.126298 0)
(0.170379 0.455107 3.92464e-21)
(0.334431 0.643394 -3.62978e-21)
(0.394492 0.759997 0)
(0.217764 0.853748 0)
(0.305397 0.584643 -1.37223e-22)
(0.587446 0.0219378 0)
(0.753312 -0.399009 0)
(0.852061 -0.521294 7.15006e-23)
(0.873792 -0.528905 0)
(0.799116 -0.597859 0)
(0.70924 -0.540321 -7.56246e-23)
(0.762638 -0.281047 0)
(0.894139 0.0185056 -8.25412e-23)
(0.931888 0.300499 -9.14664e-23)
(0.940025 0.545509 0)
(0.983057 0.580521 -4.40413e-22)
(0.962802 0.390149 5.17015e-22)
(0.956771 0.0481123 0)
(1.02169 -0.294373 4.23686e-22)
(1.0094 -0.482549 -4.72976e-22)
(0.963662 -0.44754 8.26336e-23)
(1.01575 -0.0634094 -1.38114e-22)
(1.03566 0.402712 1.31974e-22)
(1.00121 0.541743 -1.40106e-22)
(0.939048 0.285165 0)
(0.847531 -0.131505 -1.1313e-22)
(0.820739 -0.306711 1.0817e-22)
(0.879896 -0.136141 -5.58543e-24)
(0.924177 0.0985117 0)
(0.881705 0.20427 -3.02915e-23)
(0.802053 0.144456 0)
(0.731089 -0.00866561 -1.54513e-22)
(0.708893 -0.121733 -9.07696e-23)
(0.724733 -0.179822 7.0582e-24)
(0.806073 -0.145184 -4.06621e-23)
(0.869096 -0.121547 0)
(0.901332 -0.0583476 -3.81421e-24)
(-0.223584 -0.00234159 1.6129e-20)
(-0.0419171 0.321967 -1.19783e-22)
(0.119296 0.56734 -9.56915e-21)
(0.179223 0.794083 9.12671e-21)
(0.144935 0.847696 0)
(0.424674 0.464515 1.38298e-22)
(0.736673 -0.0831474 -3.15094e-22)
(0.8747 -0.467731 0)
(0.933833 -0.558307 -7.20309e-23)
(0.934318 -0.515706 0)
(0.845476 -0.564892 0)
(0.774507 -0.536305 7.61589e-23)
(0.803311 -0.316173 0)
(0.886032 -0.0167562 2.91601e-21)
(0.906241 0.275138 -2.43051e-21)
(0.914191 0.519443 2.20123e-21)
(0.951928 0.57104 -2.10118e-21)
(0.948326 0.396938 -9.7114e-23)
(0.961 0.0453932 0)
(1.0383 -0.301974 0)
(1.04244 -0.475354 -8.78522e-23)
(0.96736 -0.447075 6.4027e-22)
(1.00021 -0.0756092 -1.1616e-21)
(1.03053 0.397163 5.86064e-22)
(1.01392 0.548361 4.30403e-22)
(0.965575 0.305454 0)
(0.876754 -0.116187 3.08903e-22)
(0.8435 -0.312772 0)
(0.897114 -0.147576 5.60497e-24)
(0.936089 0.0984318 -3.15701e-23)
(0.88816 0.215071 9.49313e-23)
(0.812699 0.157311 -1.10648e-22)
(0.748266 -0.00110723 2.30373e-22)
(0.728093 -0.121009 1.63501e-23)
(0.739216 -0.185989 9.91572e-23)
(0.805176 -0.15497 -3.59822e-23)
(0.883291 -0.127807 -8.67542e-25)
(0.917549 -0.0604739 1.60213e-24)
(-0.272991 -0.103734 1.77129e-20)
(-0.124235 0.187647 -3.12358e-20)
(-0.00671417 0.47328 7.12762e-22)
(0.0767041 0.747402 1.24974e-20)
(0.213626 0.747649 2.36568e-22)
(0.575421 0.336715 -3.2226e-22)
(0.898484 -0.155097 3.20496e-22)
(1.00432 -0.49442 -4.93672e-22)
(0.997237 -0.570529 0)
(0.985347 -0.488022 6.66662e-21)
(0.881801 -0.525829 -6.35908e-21)
(0.82012 -0.540095 -1.53156e-22)
(0.856172 -0.352637 0)
(0.888254 -0.0392785 -5.64866e-21)
(0.880112 0.272372 5.20578e-21)
(0.882803 0.509623 -2.15359e-21)
(0.916536 0.565107 2.05496e-21)
(0.939679 0.403962 1.76956e-21)
(0.969228 0.0503427 -1.52554e-21)
(1.04597 -0.303681 0)
(1.06946 -0.464597 0)
(0.969968 -0.443241 1.22699e-21)
(0.976793 -0.0932872 -1.1715e-21)
(1.01916 0.385948 -1.29341e-21)
(1.02517 0.553927 -2.18477e-23)
(0.990242 0.329027 1.20325e-21)
(0.904221 -0.095082 -5.4523e-24)
(0.865737 -0.315883 -3.07242e-22)
(0.912462 -0.159495 6.92927e-23)
(0.947044 0.0975644 -3.11698e-23)
(0.896135 0.224806 1.00815e-22)
(0.824138 0.169416 -1.29405e-22)
(0.764916 0.00631581 2.72135e-22)
(0.746708 -0.119921 -2.60195e-22)
(0.758027 -0.190648 -6.06829e-23)
(0.805592 -0.164307 -1.70522e-23)
(0.891332 -0.135067 3.72257e-23)
(0.931173 -0.0628541 -1.33673e-24)
(-0.09324 -0.167394 0)
(-0.031576 0.0458742 4.46034e-21)
(0.0490063 0.341996 -4.43113e-21)
(0.168393 0.631421 0)
(0.383846 0.623563 -2.43165e-22)
(0.739613 0.227151 3.31115e-22)
(1.0436 -0.211697 0)
(1.1273 -0.491661 1.63403e-23)
(1.04758 -0.570125 -3.22872e-22)
(1.02572 -0.467484 0)
(0.931677 -0.481902 -5.58605e-21)
(0.843555 -0.546742 5.48298e-21)
(0.899925 -0.390638 -2.89298e-22)
(0.919202 -0.0676284 -5.81238e-21)
(0.879271 0.241356 5.54329e-21)
(0.845706 0.48047 3.03842e-22)
(0.866981 0.553737 0)
(0.925182 0.411228 -1.74572e-22)
(0.977114 0.060835 3.46382e-21)
(1.0503 -0.303604 -1.06319e-22)
(1.09349 -0.454007 -4.62474e-22)
(0.976755 -0.435106 -2.17829e-21)
(0.950415 -0.115042 -2.48566e-21)
(1.00207 0.360552 3.05282e-21)
(1.02787 0.550385 -3.00526e-22)
(1.00758 0.351937 0)
(0.927858 -0.0708948 -3.10627e-22)
(0.887221 -0.316928 3.11279e-22)
(0.926633 -0.172732 -8.24857e-23)
(0.9576 0.0948758 4.33053e-23)
(0.905696 0.234695 -8.31452e-23)
(0.836558 0.182054 0)
(0.782062 0.0140929 -2.8735e-22)
(0.764464 -0.118713 5.97086e-22)
(0.778567 -0.194152 2.15976e-22)
(0.809526 -0.172683 1.45458e-22)
(0.8952 -0.142954 -3.72518e-23)
(0.94169 -0.0656141 1.68077e-24)
(0.261911 -0.151678 8.65808e-23)
(0.221401 -0.0386712 7.42569e-23)
(0.236794 0.18984 0)
(0.34922 0.483638 0)
(0.57664 0.511768 0)
(0.913201 0.154809 0)
(1.16791 -0.234337 1.79416e-20)
(1.23785 -0.452497 -3.06184e-20)
(1.10818 -0.537262 1.34882e-20)
(1.05011 -0.450046 0)
(0.995153 -0.428907 -5.43746e-21)
(0.864479 -0.536927 5.35009e-21)
(0.913665 -0.44254 5.80776e-21)
(0.940329 -0.0948865 -4.87812e-21)
(0.872685 0.242811 5.70624e-21)
(0.810562 0.476279 -5.75143e-21)
(0.828955 0.537525 -1.94603e-22)
(0.916166 0.407518 -2.88069e-21)
(0.986139 0.0740026 2.74424e-21)
(1.05161 -0.29755 4.15363e-22)
(1.10848 -0.443734 3.29168e-22)
(0.987809 -0.42412 2.34997e-21)
(0.920782 -0.137606 -2.5163e-21)
(0.981269 0.332642 -7.30933e-22)
(1.03226 0.545738 -3.01128e-22)
(1.02391 0.375468 -2.98752e-22)
(0.94807 -0.0428411 0)
(0.907341 -0.315012 0)
(0.940049 -0.185974 0)
(0.967923 0.0915387 0)
(0.916207 0.242646 4.02156e-22)
(0.849968 0.193306 -3.02938e-22)
(0.800509 0.0217556 6.05439e-22)
(0.78223 -0.11733 -1.93851e-21)
(0.798783 -0.19672 2.24962e-22)
(0.817438 -0.179834 2.5122e-23)
(0.897009 -0.150999 -6.45551e-23)
(0.949258 -0.0687373 2.74787e-25)
(0.697833 -0.0944413 -9.10379e-23)
(0.612435 -0.0332387 -4.20131e-21)
(0.550962 0.0836531 3.98369e-21)
(0.549888 0.331893 -5.0283e-21)
(0.741398 0.390186 4.78808e-21)
(1.07865 0.100582 3.56321e-20)
(1.27726 -0.233614 -3.30888e-20)
(1.30866 -0.399032 4.28237e-22)
(1.17028 -0.482836 -3.31192e-22)
(1.05857 -0.436006 0)
(1.04415 -0.384166 -1.85873e-22)
(0.902351 -0.501506 1.05544e-20)
(0.887629 -0.484909 -1.00475e-20)
(0.945063 -0.138988 -3.87935e-22)
(0.868422 0.20771 0)
(0.767013 0.446506 -4.54136e-21)
(0.768562 0.520513 7.06949e-21)
(0.888189 0.412752 -2.56161e-21)
(0.988026 0.0985846 0)
(1.05426 -0.28483 2.64146e-21)
(1.11734 -0.434706 -7.0562e-22)
(1.00353 -0.410979 -2.43362e-21)
(0.895079 -0.159927 -3.40425e-21)
(0.952253 0.288885 3.26885e-21)
(1.02281 0.530196 -2.47797e-21)
(1.02817 0.400016 -6.028e-23)
(0.962057 -0.00851643 2.60703e-21)
(0.925769 -0.310178 -8.58916e-22)
(0.952963 -0.20045 8.16876e-22)
(0.978329 0.084759 -1.01991e-22)
(0.928172 0.251157 9.69815e-23)
(0.864942 0.206394 0)
(0.820547 0.0305598 6.35608e-22)
(0.801022 -0.115388 -2.62895e-23)
(0.817858 -0.198606 0)
(0.828676 -0.185843 -1.65408e-22)
(0.898444 -0.158849 3.75077e-23)
(0.954407 -0.0721327 5.21776e-24)
(1.01115 -0.0418395 0)
(0.955486 0.00308084 0)
(0.913492 0.0599157 2.65257e-24)
(0.816898 0.251255 0)
(0.940661 0.301017 0)
(1.24636 0.0634497 2.91162e-20)
(1.36544 -0.209957 -2.77639e-20)
(1.33255 -0.343923 2.39586e-20)
(1.21023 -0.421819 -2.28969e-20)
(1.06507 -0.421445 0)
(1.05692 -0.356869 -1.79385e-22)
(0.953654 -0.449266 1.39193e-22)
(0.852369 -0.521555 -1.27076e-20)
(0.926721 -0.197506 -2.09249e-21)
(0.855197 0.206924 1.33364e-20)
(0.723593 0.457825 1.66866e-22)
(0.733739 0.49933 -9.43659e-23)
(0.879629 0.394719 5.15401e-21)
(0.993292 0.110182 -5.03952e-21)
(1.05811 -0.269206 0)
(1.12102 -0.423754 0)
(1.02053 -0.397344 -1.3573e-22)
(0.873454 -0.178792 0)
(0.92807 0.253648 3.00998e-21)
(1.02102 0.516391 -4.03894e-23)
(1.03616 0.418507 -2.34007e-21)
(0.973476 0.020439 -2.52134e-21)
(0.942117 -0.305296 1.66227e-21)
(0.965283 -0.21499 -4.95379e-23)
(0.988349 0.0786411 0)
(0.940173 0.256277 -3.60037e-22)
(0.880423 0.215573 3.41346e-22)
(0.841452 0.0381792 3.47396e-22)
(0.821141 -0.113249 2.03339e-22)
(0.835862 -0.200184 -3.42815e-22)
(0.842145 -0.191004 3.07664e-23)
(0.900586 -0.166306 0)
(0.957797 -0.0756829 1.80625e-25)
(1.11637 -0.030956 3.24034e-20)
(1.10177 0.000139273 1.16942e-20)
(1.09795 0.0287614 -9.88039e-21)
(1.02956 0.157642 -8.92947e-22)
(1.10818 0.216298 -2.69615e-22)
(1.32693 0.0782398 -1.69162e-22)
(1.38218 -0.115936 0)
(1.32377 -0.249273 -2.02623e-22)
(1.23955 -0.341785 -1.55454e-22)
(1.08861 -0.387868 0)
(1.06043 -0.341832 -1.06137e-20)
(0.991953 -0.391481 1.01138e-20)
(0.836114 -0.513045 1.75085e-22)
(0.871153 -0.277061 1.48174e-20)
(0.823288 0.143934 -1.40279e-20)
(0.690809 0.418895 1.73339e-22)
(0.6726 0.47803 9.97976e-23)
(0.832566 0.400685 0)
(0.986397 0.148595 5.9781e-21)
(1.06374 -0.237578 -5.67819e-21)
(1.1237 -0.411543 -2.43296e-21)
(1.03384 -0.379286 -2.61187e-22)
(0.866631 -0.199573 2.56449e-21)
(0.892646 0.193606 -3.07306e-21)
(1.00195 0.488435 3.84713e-22)
(1.03066 0.445547 5.02252e-21)
(0.977121 0.063343 -1.948e-21)
(0.956719 -0.292116 1.18734e-21)
(0.977595 -0.231841 -8.93467e-22)
(0.998501 0.0653309 0)
(0.953941 0.262564 0)
(0.897704 0.230126 0)
(0.863386 0.0488758 3.40912e-22)
(0.842643 -0.109948 -3.42232e-22)
(0.853329 -0.200815 2.9741e-22)
(0.856794 -0.19491 -2.21697e-22)
(0.903981 -0.172881 -5.55956e-23)
(0.960063 -0.0791723 0)
(1.11129 -0.00817525 0)
(1.11073 0.0181498 0)
(1.10544 0.0435408 0)
(1.11079 0.103651 0)
(1.19051 0.120392 0)
(1.32157 0.03481 0)
(1.33613 -0.0959063 0)
(1.27495 -0.185523 0)
(1.24809 -0.250668 0)
(1.11466 -0.316389 0)
(1.06388 -0.288002 0)
(1.03599 -0.321243 0)
(0.845093 -0.504975 0)
(0.809524 -0.344351 0)
(0.795714 0.130383 0)
(0.643629 0.455786 0)
(0.643257 0.461251 0)
(0.862693 0.346141 0)
(1.02378 0.139338 0)
(1.07553 -0.221017 0)
(1.12909 -0.399765 0)
(1.04064 -0.370454 0)
(0.871161 -0.201413 0)
(0.876628 0.162238 0)
(0.993076 0.460844 0)
(1.02511 0.453556 0)
(0.980223 0.090594 0)
(0.971434 -0.277443 0)
(0.992277 -0.237973 0)
(1.00985 0.0572911 0)
(0.969828 0.263518 0)
(0.918497 0.235277 0)
(0.890881 0.0562706 0)
(0.870755 -0.104271 0)
(0.87526 -0.198395 0)
(0.875562 -0.19694 0)
(0.909847 -0.179211 0)
(0.962035 -0.0832344 0)
(1.12129 0.0140618 0)
(1.12475 0.0217572 0)
(1.11717 0.0254978 0)
(1.13578 0.0631008 0)
(1.18732 0.0583896 0)
(1.23936 -0.00308996 0)
(1.27264 -0.0730315 0)
(1.21766 -0.179594 0)
(1.17762 -0.24776 0)
(1.09302 -0.274468 0)
(1.00151 -0.294338 0)
(0.956224 -0.312617 0)
(0.810833 -0.413727 0)
(0.733248 -0.254812 0)
(0.684373 0.213732 0)
(0.543607 0.494064 0)
(0.645136 0.388133 0)
(0.905464 0.258962 0)
(1.07081 0.0796194 0)
(1.10586 -0.270711 0)
(1.1251 -0.401975 0)
(1.01089 -0.30178 0)
(0.832012 -0.146086 0)
(0.855966 0.150796 0)
(0.984473 0.441557 0)
(1.00743 0.457614 0)
(0.987002 0.0830174 0)
(0.995257 -0.292723 0)
(1.01843 -0.243417 0)
(1.0278 0.0643236 0)
(0.988836 0.275188 0)
(0.946189 0.244609 0)
(0.928263 0.0589096 0)
(0.90987 -0.10629 0)
(0.904397 -0.201194 0)
(0.899802 -0.200573 0)
(0.920683 -0.185922 0)
(0.964533 -0.0875028 0)
(1.11816 0.0222967 0)
(1.12744 0.0233524 0)
(1.12696 0.0237751 0)
(1.13373 0.0239819 0)
(1.17355 0.0295061 0)
(1.1839 -0.023495 0)
(1.21193 -0.0774197 0)
(1.1873 -0.124671 0)
(1.14112 -0.184706 0)
(1.0907 -0.204792 0)
(1.02723 -0.202738 0)
(0.998385 -0.210941 0)
(0.843698 -0.343295 0)
(0.678012 -0.234493 0)
(0.584008 0.264756 0)
(0.540638 0.490767 0)
(0.738342 0.263986 0)
(0.981721 0.133359 0)
(1.11954 0.0515285 0)
(1.11812 -0.238256 0)
(1.1138 -0.370606 0)
(0.991834 -0.25919 0)
(0.787402 -0.126156 0)
(0.808353 0.117961 0)
(0.940471 0.404766 0)
(0.980061 0.450596 0)
(1.0032 0.0957038 0)
(1.0157 -0.289542 0)
(1.03812 -0.250553 0)
(1.04798 0.0657895 0)
(1.01311 0.284806 0)
(0.979378 0.253049 0)
(0.970278 0.0653962 0)
(0.952698 -0.100572 0)
(0.936174 -0.197431 0)
(0.923922 -0.200731 0)
(0.933206 -0.190692 0)
(0.96719 -0.091323 0)
(1.11197 0.0280749 0)
(1.11752 0.0192894 0)
(1.12894 0.017977 0)
(1.12528 0.00787792 0)
(1.14769 0.00263 0)
(1.15642 -0.0314503 0)
(1.15814 -0.0666069 0)
(1.14373 -0.109696 0)
(1.10533 -0.163026 0)
(1.05822 -0.169611 0)
(0.986072 -0.21498 0)
(0.956996 -0.210466 0)
(0.867418 -0.222831 0)
(0.686385 -0.116454 0)
(0.59465 0.293231 0)
(0.70139 0.417382 0)
(0.919014 0.14915 0)
(1.0693 0.0570455 0)
(1.14034 0.0215661 0)
(1.11944 -0.256433 0)
(1.08833 -0.350735 0)
(0.945907 -0.179851 0)
(0.715674 -0.0658205 0)
(0.707336 0.0971146 0)
(0.847676 0.370815 0)
(0.946931 0.434188 0)
(1.03097 0.0789313 0)
(1.04517 -0.304609 0)
(1.05964 -0.258819 0)
(1.06494 0.0691554 0)
(1.03227 0.294717 0)
(1.01282 0.259253 0)
(1.01619 0.0672291 0)
(0.998425 -0.0984954 0)
(0.970702 -0.195059 0)
(0.948936 -0.200398 0)
(0.947688 -0.194057 0)
(0.970735 -0.0944533 0)
(1.10339 0.0276439 0)
(1.10791 0.0150243 0)
(1.11726 0.0128189 0)
(1.11515 -0.00301792 0)
(1.12572 -0.00937428 0)
(1.12736 -0.0328389 0)
(1.12162 -0.0644205 0)
(1.11798 -0.0810009 0)
(1.08072 -0.12668 0)
(1.05604 -0.119545 0)
(1.00998 -0.13417 0)
(0.947157 -0.13005 0)
(0.880867 -0.131936 0)
(0.750711 -0.0674087 0)
(0.726688 0.239777 0)
(0.913266 0.318266 0)
(1.0593 0.0649573 0)
(1.11286 -0.00349218 0)
(1.13952 0.0226937 0)
(1.10999 -0.207567 0)
(1.05896 -0.28755 0)
(0.896662 -0.0909962 0)
(0.664642 -0.00301834 0)
(0.623532 0.0718138 0)
(0.769321 0.307232 0)
(0.951085 0.385457 0)
(1.0813 0.0658682 0)
(1.07184 -0.302426 0)
(1.06831 -0.260996 0)
(1.07654 0.0735038 0)
(1.05384 0.301099 0)
(1.05302 0.261639 0)
(1.06625 0.0708034 0)
(1.04384 -0.0899539 0)
(1.00387 -0.186146 0)
(0.972024 -0.195946 0)
(0.961814 -0.194889 0)
(0.974678 -0.0965634 0)
(1.09189 0.0246019 0)
(1.09637 0.0116955 0)
(1.10316 0.00785221 0)
(1.1036 -0.00567503 0)
(1.10358 -0.0157404 0)
(1.10687 -0.0292532 0)
(1.09473 -0.0552892 0)
(1.09204 -0.061894 0)
(1.06212 -0.0990007 0)
(1.03295 -0.094494 0)
(1.00233 -0.110211 0)
(0.953007 -0.109347 0)
(0.923814 -0.0714654 0)
(0.838844 -0.0242219 0)
(0.843926 0.160552 0)
(1.02313 0.209937 0)
(1.10294 0.0302279 0)
(1.09917 -7.63415e-05 0)
(1.11619 0.0198146 0)
(1.07927 -0.205996 0)
(1.00652 -0.244675 0)
(0.87063 0.00307347 0)
(0.697232 0.071636 0)
(0.642505 0.0478066 0)
(0.76995 0.217119 0)
(0.999503 0.311813 0)
(1.14102 0.039933 0)
(1.10149 -0.301488 0)
(1.06776 -0.264772 0)
(1.07556 0.07019 0)
(1.06685 0.301041 0)
(1.08829 0.259974 0)
(1.1128 0.0719879 0)
(1.08584 -0.0821956 0)
(1.03505 -0.176507 0)
(0.99383 -0.190107 0)
(0.975694 -0.194048 0)
(0.979048 -0.0977952 0)
(1.07982 0.0199828 0)
(1.08497 0.00978826 0)
(1.08825 0.00426105 0)
(1.09022 -0.00605202 0)
(1.08558 -0.0173362 0)
(1.08798 -0.0239644 0)
(1.07493 -0.0461005 0)
(1.07082 -0.0471939 0)
(1.05159 -0.0718624 0)
(1.02785 -0.0673224 0)
(1.01166 -0.0670621 0)
(0.969006 -0.0671358 0)
(0.947304 -0.0288017 0)
(0.90913 -0.00705433 0)
(0.915619 0.0899363 0)
(1.0383 0.141179 0)
(1.08272 0.0181167 0)
(1.06417 -0.0160083 0)
(1.10167 0.0262797 0)
(1.07159 -0.144358 0)
(0.961619 -0.178857 0)
(0.87731 0.0707495 0)
(0.826597 0.129155 0)
(0.790922 0.0346088 0)
(0.860643 0.117384 0)
(1.07483 0.224183 0)
(1.19034 0.0282007 0)
(1.11291 -0.274332 0)
(1.0453 -0.249439 0)
(1.04588 0.0746939 0)
(1.06007 0.295803 0)
(1.11786 0.249211 0)
(1.15335 0.0728945 0)
(1.12007 -0.0678301 0)
(1.06088 -0.160056 0)
(1.01277 -0.17975 0)
(0.988406 -0.190304 0)
(0.983369 -0.0976924 0)
(1.06835 0.0156759 0)
(1.0733 0.00854859 0)
(1.07453 0.00211484 0)
(1.07666 -0.00482585 0)
(1.07127 -0.0150417 0)
(1.07174 -0.0187437 0)
(1.06181 -0.0347134 0)
(1.05564 -0.0339247 0)
(1.04414 -0.0492766 0)
(1.02332 -0.047096 0)
(1.01216 -0.0446291 0)
(0.984028 -0.0459174 0)
(0.96893 -0.0154427 0)
(0.959533 0.00314196 0)
(0.954502 0.0488823 0)
(1.02622 0.0830019 0)
(1.06717 0.0184038 0)
(1.03473 -0.0107699 0)
(1.06693 0.0133027 0)
(1.06045 -0.108792 0)
(0.941769 -0.13277 0)
(0.896944 0.0820997 0)
(0.954548 0.136669 0)
(0.964153 0.0311577 0)
(0.968867 0.0561091 0)
(1.11212 0.157885 0)
(1.20385 0.0243144 0)
(1.11149 -0.238096 0)
(1.00437 -0.232862 0)
(1.00331 0.0627289 0)
(1.05548 0.270934 0)
(1.14064 0.230657 0)
(1.17716 0.074077 0)
(1.14203 -0.0531264 0)
(1.08152 -0.143577 0)
(1.03045 -0.168689 0)
(1.00139 -0.185106 0)
(0.988109 -0.096746 0)
(1.05816 0.0121741 0)
(1.06217 0.00763196 0)
(1.06294 0.00146445 0)
(1.0641 -0.00292844 0)
(1.05988 -0.0112824 0)
(1.05862 -0.0134586 0)
(1.05154 -0.0243308 0)
(1.04517 -0.023445 0)
(1.03768 -0.0326344 0)
(1.02283 -0.0305337 0)
(1.01507 -0.027236 0)
(0.999149 -0.0252453 0)
(0.986397 -0.00536678 0)
(0.985805 0.00596433 0)
(0.982771 0.0290237 0)
(1.01698 0.0469321 0)
(1.04608 0.0158444 0)
(1.02545 -0.0111562 0)
(1.04586 0.00397555 0)
(1.04835 -0.0611156 0)
(0.952025 -0.0799597 0)
(0.926223 0.06067 0)
(1.0162 0.102996 0)
(1.04942 0.0268719 0)
(1.02096 0.026868 0)
(1.09773 0.105967 0)
(1.17937 0.0241566 0)
(1.101 -0.179208 0)
(0.95721 -0.189596 0)
(0.934398 0.0520545 0)
(1.01382 0.232698 0)
(1.12174 0.202352 0)
(1.17092 0.0735708 0)
(1.14665 -0.0348259 0)
(1.09188 -0.12184 0)
(1.04234 -0.153116 0)
(1.01204 -0.176364 0)
(0.992727 -0.0938642 0)
(1.04938 0.00973182 0)
(1.05243 0.00699582 0)
(1.05303 0.00163978 0)
(1.05339 -0.000893917 0)
(1.0503 -0.00753366 0)
(1.04862 -0.00825974 0)
(1.0435 -0.0159672 0)
(1.03861 -0.0140959 0)
(1.03303 -0.0202629 0)
(1.02367 -0.0171356 0)
(1.01753 -0.0151897 0)
(1.00784 -0.0130266 0)
(0.999887 -0.000306426 0)
(1.00056 0.00518018 0)
(0.99909 0.0188994 0)
(1.01498 0.0246379 0)
(1.03282 0.0120063 0)
(1.02243 -0.0063437 0)
(1.02867 -0.00197126 0)
(1.03276 -0.0384219 0)
(0.976774 -0.0482951 0)
(0.959446 0.0356249 0)
(1.02866 0.0622419 0)
(1.06579 0.0237174 0)
(1.03602 0.0218032 0)
(1.06797 0.0717902 0)
(1.1324 0.0176742 0)
(1.08108 -0.125888 0)
(0.933678 -0.137116 0)
(0.879924 0.0387347 0)
(0.964582 0.178613 0)
(1.09128 0.161223 0)
(1.15417 0.0643003 0)
(1.13928 -0.0239898 0)
(1.09127 -0.106082 0)
(1.04633 -0.140924 0)
(1.01786 -0.168293 0)
(0.995493 -0.0907687 0)
(1.04196 0.00794316 0)
(1.04429 0.00660877 0)
(1.04456 0.0020078 0)
(1.04481 0.00111306 0)
(1.04249 -0.00421601 0)
(1.04117 -0.00365037 0)
(1.03727 -0.00925458 0)
(1.0339 -0.00691865 0)
(1.02978 -0.0110158 0)
(1.02387 -0.00798931 0)
(1.01967 -0.00671437 0)
(1.01398 -0.00491594 0)
(1.00895 0.00373588 0)
(1.00942 0.00493159 0)
(1.00834 0.0138805 0)
(1.01551 0.0136973 0)
(1.02453 0.0086833 0)
(1.01989 -0.00487731 0)
(1.02275 -0.00301831 0)
(1.02482 -0.022201 0)
(0.995412 -0.0272746 0)
(0.986925 0.0221905 0)
(1.02708 0.0341031 0)
(1.05429 0.0194363 0)
(1.03778 0.0218504 0)
(1.05223 0.048446 0)
(1.09007 0.0122092 0)
(1.05698 -0.0734166 0)
(0.943295 -0.0733445 0)
(0.889175 0.0342956 0)
(0.965961 0.119277 0)
(1.08497 0.1121 0)
(1.14019 0.0526064 0)
(1.12777 -0.0095653 0)
(1.08872 -0.0845379 0)
(1.05063 -0.12402 0)
(1.02438 -0.156813 0)
(0.998596 -0.0856648 0)
(1.03574 0.00669153 0)
(1.03756 0.00635018 0)
(1.0377 0.00251935 0)
(1.03797 0.00284232 0)
(1.03624 -0.00151081 0)
(1.03532 2.37741e-05 0)
(1.03245 -0.0042755 0)
(1.03034 -0.00152439 0)
(1.02726 -0.00439631 0)
(1.02394 -0.00158515 0)
(1.02083 -0.000565783 0)
(1.01758 0.000422393 0)
(1.01438 0.0063556 0)
(1.01441 0.00508789 0)
(1.01359 0.0114489 0)
(1.01641 0.00772342 0)
(1.02126 0.00685309 0)
(1.01876 -0.00351853 0)
(1.01964 -0.00354786 0)
(1.02092 -0.0144623 0)
(1.00618 -0.0185063 0)
(1.00396 0.0111579 0)
(1.02593 0.0154316 0)
(1.04293 0.01499 0)
(1.03507 0.02053 0)
(1.04452 0.0360837 0)
(1.06097 0.0134918 0)
(1.03497 -0.0365995 0)
(0.964631 -0.0319845 0)
(0.937387 0.0244799 0)
(0.998499 0.0681268 0)
(1.08418 0.0728114 0)
(1.11856 0.0444641 0)
(1.10791 -8.25556e-05 0)
(1.07954 -0.0717071 0)
(1.04978 -0.113357 0)
(1.0275 -0.147226 0)
(1.00046 -0.0808645 0)
(1.03065 0.00573441 0)
(1.03214 0.0061502 0)
(1.03216 0.00293246 0)
(1.03247 0.00410648 0)
(1.0312 0.000499722 0)
(1.03071 0.00271336 0)
(1.02865 -0.000658892 0)
(1.02747 0.0023181 0)
(1.02521 0.000254476 0)
(1.02348 0.00281422 0)
(1.02121 0.00363354 0)
(1.01953 0.00405214 0)
(1.01737 0.00837939 0)
(1.01715 0.00571607 0)
(1.01661 0.0106608 0)
(1.01741 0.00511246 0)
(1.01966 0.00593186 0)
(1.01842 -0.00315164 0)
(1.0187 -0.00398018 0)
(1.01989 -0.0102283 0)
(1.01311 -0.0143774 0)
(1.01355 0.00457922 0)
(1.02444 0.00457754 0)
(1.0352 0.0119952 0)
(1.03109 0.0192509 0)
(1.0377 0.0286549 0)
(1.04375 0.017964 0)
(1.02535 -0.0092378 0)
(0.985396 -0.00619749 0)
(0.976918 0.0137411 0)
(1.01886 0.0313101 0)
(1.07295 0.0456941 0)
(1.09268 0.0399619 0)
(1.08701 0.00913594 0)
(1.06909 -0.057613 0)
(1.04738 -0.100391 0)
(1.0282 -0.135228 0)
(1.00069 -0.0737795 0)
(1.02651 0.00496097 0)
(1.02771 0.0058732 0)
(1.02764 0.00315114 0)
(1.02807 0.00489252 0)
(1.02712 0.00187286 0)
(1.02704 0.00453915 0)
(1.02551 0.00178212 0)
(1.02503 0.00491802 0)
(1.02334 0.00333497 0)
(1.02264 0.0057272 0)
(1.02101 0.0064723 0)
(1.02019 0.00645392 0)
(1.01879 0.00988864 0)
(1.01846 0.00643042 0)
(1.01817 0.0105544 0)
(1.01811 0.00406478 0)
(1.01921 0.0054001 0)
(1.01868 -0.00276063 0)
(1.01871 -0.00427389 0)
(1.01969 -0.00855666 0)
(1.01672 -0.0131739 0)
(1.01833 -0.000254049 0)
(1.02306 -0.0022058 0)
(1.03025 0.00949328 0)
(1.02763 0.0178593 0)
(1.03225 0.0250016 0)
(1.03311 0.0223408 0)
(1.02124 0.00696673 0)
(1.0007 0.00487507 0)
(1.00095 0.00226742 0)
(1.02693 0.00647358 0)
(1.0586 0.0285942 0)
(1.06892 0.0364515 0)
(1.06859 0.0126726 0)
(1.05927 -0.0502001 0)
(1.04378 -0.0918515 0)
(1.02773 -0.124592 0)
(1.00035 -0.0679274 0)
(1.02306 0.00422487 0)
(1.02408 0.00552655 0)
(1.02396 0.00314478 0)
(1.02448 0.00532227 0)
(1.02376 0.00267891 0)
(1.02397 0.00569339 0)
(1.02283 0.00330067 0)
(1.02284 0.00659691 0)
(1.0216 0.00527954 0)
(1.02153 0.00759554 0)
(1.02037 0.00832006 0)
(1.02014 0.00796478 0)
(1.01921 0.0110661 0)
(1.01905 0.00696331 0)
(1.01888 0.0108224 0)
(1.01869 0.00365973 0)
(1.01919 0.00513837 0)
(1.01902 -0.00270077 0)