/*--------------------------------*- C++ -*----------------------------------*\
| =========                 |                                                 |
| \\      /  F ield         | OpenFOAM: The Open Source CFD Toolbox           |
|  \\    /   O peration     | Version:  2512                                  |
|   \\  /    A nd           | Website:  www.openfoam.com                      |
|    \\/     M anipulation  |                                                 |
\*---------------------------------------------------------------------------*/
FoamFile
{
    version     2.0;
    format      ascii;
    arch        "LSB;label=32;scalar=64";
    class       surfaceScalarField;
    location    "189.5";
    object      phi;
}
// * * * * * * * * * * * * * * * * * * * * * * * * * * * * * * * * * * * * * //

dimensions      [0 3 -1 0 0 0 0];

oriented        oriented;

internalField   nonuniform List<scalar> 
26232
(
-0.000397118
0.00103002
-0.000632897
-0.00111216
0.00185115
-0.0011361
-0.00167243
0.00185122
-0.00129095
-0.00163567
0.00103803
-0.00107478
-0.000592304
-0.00074045
-0.000302917
0.00185397
-0.00366961
0.00122333
0.00606184
-0.00791471
0.00370685
0.0123065
-0.0135365
0.00729185
0.0207228
-0.0204413
0.012025
0.0312454
-0.0283653
0.0178427
0.0435902
-0.0369113
0.0245665
0.0572831
-0.0456193
0.0319264
0.0717258
-0.0540455
0.0396027
0.0862788
-0.0618274
0.0472745
0.100341
-0.0687209
0.054659
0.113415
-0.0746169
0.0615422
0.125167
-0.0795282
0.0677766
0.135402
-0.083575
0.0733398
0.144211
-0.0869438
0.0781349
0.151636
-0.0899112
0.0824864
0.158213
-0.0925814
0.0860046
0.164087
-0.0955789
0.0897041
0.169591
-0.0981623
0.0926591
-0.101944
0.0964327
0.175102
-0.000159171
0.00118919
-0.000319348
0.00201132
-5.18521e-05
0.00158372
0.0011018
-0.000115622
0.00359812
-0.00323677
0.00786086
-0.00793236
0.014216
-0.0142698
0.0227975
-0.022118
0.0334667
-0.0311105
0.0457978
-0.0406964
0.0591405
-0.050254
0.0727378
-0.0592166
0.0858574
-0.0671651
0.0979045
-0.0738745
0.108499
-0.0793158
0.11751
-0.0836275
0.125038
-0.0870565
0.131383
-0.08992
0.136937
-0.0924973
0.142101
-0.0950756
0.147264
-0.097744
0.152413
-0.100728
0.1579
-0.103649
-0.107304
0.16326
1.65516e-05
0.00117263
0.000351435
0.00167644
0.00143519
0.000499967
0.00375952
-0.00243995
0.00781032
-0.00728757
0.0139849
-0.014107
0.0224445
-0.0227294
0.032996
-0.0326694
0.045076
-0.0431906
0.0578635
-0.0534839
0.0704667
-0.0628572
0.0821112
-0.0708611
0.0922776
-0.0773316
0.100765
-0.0823622
0.10768
-0.0862307
0.113355
-0.0893025
0.11824
-0.0919418
0.122762
-0.0944413
0.127246
-0.0969812
0.13185
-0.0996802
0.136578
-0.102471
0.141373
-0.105523
0.146167
-0.108443
-0.111937
0.150799
0.000138909
0.00103373
0.000921604
0.000893745
0.00283382
-0.00141225
0.0064096
-0.00601574
0.012121
-0.012999
0.0201912
-0.0221772
0.0304072
-0.0329454
0.0420879
-0.0443501
0.0542542
-0.0553568
0.0659029
-0.0651326
0.076256
-0.0732104
0.0849072
-0.0795122
0.0918432
-0.0842675
0.09736
-0.087879
0.101914
-0.0907847
0.105965
-0.093353
0.109856
-0.0958334
0.113771
-0.0983562
0.117768
-0.100978
0.121794
-0.103706
0.125863
-0.106541
0.129891
-0.109551
0.133987
-0.112539
-0.116057
0.138107
0.000250922
0.000782803
0.00150013
-0.000355462
0.00431842
-0.00423053
0.00925498
-0.0109523
0.016633
-0.020377
0.0262782
-0.0318224
0.0374323
-0.0440995
0.0489729
-0.0558907
0.0597922
-0.0661762
0.0691142
-0.0744545
0.0766353
-0.0807315
0.0824861
-0.0853631
0.087072
-0.0888534
0.090876
-0.091683
0.0943024
-0.0942111
0.097606
-0.0966566
0.100902
-0.0991293
0.104227
-0.101681
0.107582
-0.104334
0.110987
-0.107111
0.114461
-0.110014
0.117986
-0.113077
0.121636
-0.116189
-0.119674
0.125254
0.0003952
0.000387603
0.00219322
-0.00215348
0.00602698
-0.0080643
0.0123588
-0.0172841
0.0211427
-0.0291609
0.0316208
-0.0423005
0.0425508
-0.0550295
0.052705
-0.0660449
0.0612759
-0.0747471
0.0680154
-0.081194
0.0731347
-0.0858507
0.0770829
-0.0893113
0.0803292
-0.0920997
0.0832295
-0.0945833
0.0859968
-0.0969784
0.0887363
-0.0993962
0.0914989
-0.101892
0.0943093
-0.104491
0.0971858
-0.10721
0.100125
-0.110049
0.103119
-0.113009
0.106136
-0.116094
0.1092
-0.119253
-0.122678
0.112203
0.000593384
-0.000205781
0.00303813
-0.00459822
0.00795077
-0.0129769
0.0155142
-0.0248476
0.025104
-0.0387506
0.0354118
-0.0526084
0.0450586
-0.0646763
0.0531372
-0.0741235
0.0593811
-0.080991
0.0640192
-0.0858321
0.0675084
-0.0893399
0.0703041
-0.0921071
0.0727441
-0.0945396
0.0750343
-0.0968735
0.0772852
-0.0992293
0.079552
-0.101663
0.0818568
-0.104197
0.0842051
-0.10684
0.0865891
-0.109594
0.0890032
-0.112463
0.0914463
-0.115452
0.093911
-0.118559
0.0964279
-0.12177
-0.125176
0.0989267
0.000843459
-0.00104924
0.0040025
-0.00775726
0.00993043
-0.0189049
0.018311
-0.0332282
0.027897
-0.0483366
0.0371395
-0.0618508
0.0449388
-0.0724755
0.0509165
-0.0801013
0.0552602
-0.0853346
0.0584171
-0.088989
0.0608439
-0.0917668
0.062885
-0.0941482
0.0647547
-0.0964093
0.066568
-0.0986868
0.0683779
-0.101039
0.0702031
-0.103488
0.0720485
-0.106042
0.0739145
-0.108706
0.0758049
-0.111485
0.0777238
-0.114382
0.0796703
-0.117399
0.0816385
-0.120527
0.0836309
-0.123763
-0.127125
0.08558
0.00113045
-0.00217969
0.00500205
-0.0116289
0.0117166
-0.0256195
0.0203191
-0.0418306
0.0291485
-0.057166
0.0368168
-0.0695192
0.0427185
-0.0783772
0.0469293
-0.0843121
0.0498677
-0.0882731
0.0520024
-0.0911237
0.0537002
-0.0934646
0.0551922
-0.0956402
0.0566008
-0.0978179
0.0579811
-0.100067
0.0593545
-0.102413
0.0607301
-0.104864
0.0621133
-0.107425
0.0635085
-0.110101
0.0649173
-0.112893
0.0663381
-0.115803
0.0677671
-0.118828
0.0692018
-0.121961
0.0706423
-0.125203
-0.12855
0.0720671
0.00143038
-0.00361007
0.005925
-0.0161235
0.0130527
-0.0327472
0.0212663
-0.0500442
0.0288485
-0.0647482
0.0348266
-0.0754972
0.039061
-0.0826117
0.0418996
-0.0871507
0.0438208
-0.0901942
0.0452254
-0.0925283
0.0463733
-0.0946125
0.0474037
-0.0966706
0.0483804
-0.0987947
0.0493305
-0.101017
0.050266
-0.103348
0.051193
-0.105791
0.0521151
-0.108347
0.0530345
-0.11102
0.0539529
-0.113812
0.0548719
-0.116722
0.0557909
-0.119747
0.0567089
-0.122879
0.0576221
-0.126116
-0.129443
0.0585147
0.00171517
-0.00532524
0.00665603
-0.0210643
0.0137569
-0.0398481
0.0211105
-0.0573978
0.0272471
-0.0708849
0.0316568
-0.0799069
0.0345297
-0.0854846
0.0363287
-0.0889497
0.0374953
-0.0913608
0.0383335
-0.0933665
0.0390121
-0.0952911
0.0396105
-0.0972689
0.0401624
-0.0993466
0.0406819
-0.101537
0.0411755
-0.103842
0.0416473
-0.106263
0.0421012
-0.108801
0.042541
-0.11146
0.0429701
-0.114241
0.043389
-0.117141
0.0437963
-0.120154
0.0441885
-0.123272
0.0445588
-0.126486
-0.129794
0.0449102
0.00195876
-0.00728401
0.00710514
-0.0262107
0.0137713
-0.0465142
0.0199934
-0.0636199
0.0246948
-0.0755862
0.0277521
-0.0829642
0.0295435
-0.0872761
0.0305421
-0.0899482
0.0311105
-0.0919292
0.0314633
-0.0937193
0.0317043
-0.0955321
0.0318776
-0.0974422
0.032001
-0.0994699
0.0320824
-0.101618
0.0321269
-0.103886
0.0321384
-0.106274
0.0321208
-0.108784
0.0320772
-0.111417
0.0320098
-0.114173
0.0319203
-0.117052
0.0318101
-0.120044
0.0316783
-0.12314
0.0315211
-0.126329
0.0313401
-0.129613
-2.57002e-05
-0.00886222
0.00888792
-0.000658661
-0.018924
0.0195569
-0.00199783
-0.0238837
0.0252229
-0.00390733
-0.0257835
0.027693
-0.00620976
-0.0262145
0.0285169
-0.00874908
-0.0261042
0.0286435
-0.0113973
-0.0257809
0.0284291
-0.0140447
-0.025206
0.0278534
-0.0165894
-0.0241988
0.0267435
-0.0189342
-0.0225627
0.0249074
-0.0209901
-0.0201287
0.0221846
-0.022684
-0.0167656
0.0184596
-0.0239661
-0.0123814
0.0136634
-0.0248135
-0.00691701
0.00776448
-0.0252502
-0.000303968
0.000740596
-0.025159
0.00696549
-0.00705661
-0.0245588
0.0153371
-0.0159374
-0.0233974
0.0245558
-0.0257172
-0.0216007
0.0344605
-0.0362572
-0.0191061
0.0448289
-0.0473236
-0.0159055
0.0553644
-0.058565
-0.0121315
0.0657016
-0.0694756
-0.00797858
0.0755208
-0.0796737
0.0845671
-0.00396544
-0.0885802
-0.000392921
-0.0084693
-0.00164716
-0.0176697
-0.0036383
-0.0218925
-0.00619817
-0.0232236
-0.0091871
-0.0232255
-0.0125002
-0.0227911
-0.016046
-0.0222351
-0.0197306
-0.0215214
-0.0234508
-0.0204786
-0.0270948
-0.0189187
-0.0305465
-0.016677
-0.0336939
-0.0136182
-0.0364407
-0.00963459
-0.0387258
-0.00463188
-0.0402907
0.00126086
-0.0412953
0.00797009
-0.0415795
0.0156214
-0.0410754
0.0240518
-0.0397063
0.0330913
-0.0374
0.0425226
-0.0341187
0.052083
-0.0298802
0.0614631
-0.0246486
0.0702892
0.0783355
-0.0184169
-0.000674054
-0.00779525
-0.00235697
-0.0159868
-0.00476191
-0.0194876
-0.00769429
-0.0202912
-0.0110502
-0.0198697
-0.0147703
-0.0190711
-0.0187952
-0.0182102
-0.0230456
-0.017271
-0.0274209
-0.0161033
-0.0318021
-0.0145375
-0.0360559
-0.0124232
-0.04004
-0.00963413
-0.0436099
-0.00606461
-0.046637
-0.0016048
-0.0488583
0.00348215
-0.0503188
0.00943061
-0.0508276
0.0161301
-0.0502346
0.0234588
-0.0483937
0.0312505
-0.0451542
0.0392831
-0.0403468
0.0472756
-0.0338376
0.0549539
-0.0255083
0.0619599
0.0677658
-0.0149386
-0.000854018
-0.00694123
-0.00277874
-0.0140621
-0.0053705
-0.0168958
-0.00841036
-0.0172514
-0.0118123
-0.0164678
-0.0155459
-0.0153374
-0.0195752
-0.0141809
-0.0238325
-0.0130136
-0.0282193
-0.0117166
-0.0326114
-0.0101454
-0.0368634
-0.0081712
-0.040812
-0.00568552
-0.0442738
-0.0026028
-0.0469704
0.00109182
-0.0488853
0.00539706
-0.0497621
0.0103073
-0.0493875
0.0157555
-0.0475514
0.0216227
-0.0440365
0.0277356
-0.0386344
0.033881
-0.0311295
0.0397707
-0.0211952
0.0450196
-0.00885999
0.0496247
0.0524459
0.00645994
-0.000948023
-0.0059932
-0.00297245
-0.0120377
-0.00558736
-0.0142809
-0.0085417
-0.014297
-0.0117433
-0.0132661
-0.0151689
-0.0119118
-0.0187929
-0.0105569
-0.0225539
-0.00925258
-0.0263522
-0.00791833
-0.0300569
-0.00644064
-0.0335113
-0.00471681
-0.0365353
-0.00266148
-0.0388986
-0.000239521
-0.0404521
0.00264534
-0.0409512
0.00589612
-0.040161
0.00951717
-0.0378378
0.0134323
-0.0337393
0.0175242
-0.0276298
0.0216261
-0.0192367
0.0254879
-0.008485
0.029019
0.00506534
0.0314693
0.0208886
0.0338014
0.0325066
0.0408279
-0.000989285
-0.00500392
-0.00303615
-0.0099908
-0.00559526
-0.0117218
-0.008376
-0.0115163
-0.0112595
-0.0103826
-0.0142089
-0.0089625
-0.0171955
-0.0075702
-0.0201588
-0.00628929
-0.0229965
-0.00508066
-0.0255729
-0.00386424
-0.027723
-0.00256674
-0.0292469
-0.00113751
-0.029987
0.000500594
-0.0296745
0.00233279
-0.028111
0.00433263
-0.0250587
0.00646484
-0.0202848
0.0086584
-0.013556
0.0107954
-0.00470136
0.0127715
0.00656277
0.0142238
0.0199973
0.0155845
0.0365578
0.0149088
0.0546921
0.0156671
0.0104824
0.0767162
-0.00101243
-0.00399149
-0.00306426
-0.00793897
-0.00556557
-0.00922052
-0.00818577
-0.00889607
-0.0107697
-0.00779866
-0.0132538
-0.0064784
-0.0155961
-0.00522789
-0.0177323
-0.00415312
-0.0195611
-0.00325184
-0.0209454
-0.00248
-0.0217248
-0.00178735
-0.0217203
-0.00114201
-0.020706
-0.000513661
-0.0185008
0.000127635
-0.0148945
0.000726275
-0.00968049
0.00125085
-0.00266771
0.00164562
0.0063003
0.00182735
0.017337
0.00173475
0.0307538
0.000807074
0.0460888
0.000249476
0.0643733
-0.00337573
0.0838849
-0.00384447
-0.012372
0.106739
-0.00103528
-0.00295621
-0.00310126
-0.00587299
-0.00557653
-0.00674524
-0.00809924
-0.00637336
-0.0104804
-0.00541747
-0.0126263
-0.00433251
-0.0144741
-0.00338009
-0.0159497
-0.00267756
-0.0169467
-0.0022548
-0.0173254
-0.00210136
-0.0169172
-0.00219554
-0.0155405
-0.00251874
-0.0129965
-0.00305765
-0.00905977
-0.00380905
-0.00355009
-0.00478341
0.0037082
-0.00600744
0.0128775
-0.00752368
0.0240967
-0.00939187
0.0374664
-0.011635
0.0530383
-0.0147648
0.0707384
-0.0174506
0.0908033
-0.0234406
0.112561
-0.0256017
-0.0364582
0.136647
-0.00104622
-0.00190999
-0.00310954
-0.00380967
-0.00555412
-0.00430067
-0.00799857
-0.00392891
-0.010225
-0.00319107
-0.012105
-0.00245247
-0.0135404
-0.00194467
-0.0144235
-0.00179454
-0.0146151
-0.00206319
-0.013941
-0.00277539
-0.0121981
-0.00393845
-0.00916713
-0.00554974
-0.00462708
-0.0075977
0.00162363
-0.0100598
0.00975964
-0.0129194
0.0199236
-0.0161714
0.0321827
-0.0197828
0.0465819
-0.0237911
0.0631447
-0.0281978
0.081538
-0.0331581
0.102218
-0.0381304
0.123797
-0.0450199
0.14763
-0.0494342
-0.0600965
0.171268
-0.0010069
-0.000903087
-0.00297762
-0.00183895
-0.0052833
-0.00199499
-0.00752941
-0.00168279
-0.00946166
-0.00125882
-0.0108993
-0.00101487
-0.0116784
-0.00116556
-0.0116198
-0.00185306
-0.0105145
-0.00316855
-0.00812664
-0.00516324
-0.00421315
-0.00785194
0.00144739
-0.0112103
0.00903061
-0.0151809
0.0186538
-0.0196829
0.030348
-0.0246136
0.0440766
-0.0299001
0.0596906
-0.0353968
0.0770472
-0.0411477
0.0958259
-0.0469765
0.115631
-0.052963
0.136527
-0.0590265
0.156812
-0.0653051
0.178348
-0.0709697
-0.078561
0.196812
-0.000877898
-2.51889e-05
-0.00258949
-0.000127358
-0.00453484
-4.96358e-05
-0.00630852
9.08788e-05
-0.00759818
3.0846e-05
-0.00815817
-0.000454888
-0.00774237
-0.00158136
-0.00608664
-0.00350879
-0.00292215
-0.00633304
0.0020005
-0.0100859
0.00887477
-0.0147262
0.0178085
-0.020144
0.028799
-0.0261714
0.0417261
-0.0326101
0.0563639
-0.0392513
0.0723911
-0.0459273
0.0894267
-0.0524323
0.107061
-0.0587821
0.124759
-0.0646741
0.142225
-0.0704292
0.158821
-0.0756227
0.174137
-0.0806215
0.188463
-0.0852948
-0.0894609
0.199362
-0.000658086
-0.00192155
-0.00326214
-0.00424604
-0.00451811
-0.00374967
-0.00162417
0.00215889
0.00785082
0.0156076
0.025448
0.0372304
0.0506617
0.0653261
0.0807337
0.0963486
0.111693
0.126251
0.139712
0.151769
0.162151
0.171233
0.178598
0.185569
0.00109281
0.126171
-0.131229
0.00549003
0.137365
-0.141762
0.0113978
0.143916
-0.149824
0.0210439
0.144044
-0.15369
0.0361507
0.134552
-0.149658
0.0563486
0.113496
-0.133694
0.0786878
0.0823814
-0.104721
0.0992621
0.044792
-0.0653663
0.116304
0.00106302
-0.0181049
0.130552
-0.0499015
0.0356537
0.142287
-0.102585
0.0908498
0.150639
-0.145533
0.137181
0.155159
-0.171141
0.166621
0.156183
-0.180185
0.17916
0.154517
-0.180108
0.181774
0.151798
-0.177683
0.180401
0.149004
-0.174611
0.177406
0.144794
-0.174952
0.179162
0.137607
-0.185963
0.19315
0.128569
-0.202866
0.211905
0.121222
-0.202477
0.209823
0.118513
-0.160949
0.163658
0.121602
-0.0780198
0.0749302
0.129272
0.0229876
-0.0306576
0.138613
0.113529
-0.12287
0.146969
0.17668
-0.185036
0.153833
0.207838
-0.214702
0.158749
0.21539
-0.220306
0.159948
0.22332
-0.224519
0.156257
0.246696
-0.243005
0.148103
0.271936
-0.263783
0.137671
0.269327
-0.258895
0.128553
0.216774
-0.207656
0.124205
0.113234
-0.108885
0.125515
-0.0157232
0.0144131
0.131102
-0.132255
0.126667
0.138143
-0.209652
0.20261
0.140958
-0.245978
0.243163
0.13568
-0.265005
0.270284
0.125014
-0.276832
0.287498
0.115147
-0.259697
0.269564
0.111374
-0.18916
0.192932
0.115628
-0.0709709
0.0667173
0.123436
0.051892
-0.0597004
0.12732
0.162284
-0.166168
0.12561
0.249616
-0.247907
0.121901
0.303365
-0.299655
0.119449
0.29394
-0.291488
0.119409
0.196492
-0.196452
0.120639
0.0562377
-0.0574681
0.119305
-0.120745
0.12208
0.116762
-0.260794
0.263337
0.114543
-0.324496
0.326715
0.113534
-0.290574
0.291584
0.110759
-0.0802039
0.0829787
0.107698
0.115765
-0.112704
0.104632
0.302624
-0.299558
0.101701
0.362094
-0.359164
0.0946908
0.0561812
-0.049171
-0.0966169
0.0999485
-0.00736721
0.115121
0.0047674
0.12523
0.0194986
0.129185
0.0375464
0.125997
0.0589703
0.113128
0.0823999
0.0900662
0.104844
0.0599371
0.123384
0.026252
0.13756
-0.0131127
0.1486
-0.060942
0.156629
-0.110614
0.160691
-0.149595
0.160757
-0.171207
0.157975
-0.177403
0.153342
-0.175474
0.148157
-0.172498
0.14337
-0.169824
0.137402
-0.168984
0.128153
-0.176714
0.116945
-0.191658
0.108263
-0.193795
0.105902
-0.158588
0.110719
-0.0828373
0.121331
0.0123763
0.133669
0.101191
0.144907
0.165442
0.154491
0.198253
0.161824
0.208057
0.165579
0.219565
0.164695
0.24758
0.15889
0.277741
0.149578
0.278639
0.140114
0.226238
0.133821
0.119527
0.132061
-0.0139634
0.133985
-0.134179
0.138183
-0.213849
0.139689
-0.247484
0.133627
-0.258944
0.122351
-0.265556
0.112848
-0.250193
0.11041
-0.186722
0.11583
-0.0763904
0.124032
0.0436894
0.12835
0.157967
0.127245
0.250721
0.123987
0.306623
0.121265
0.296663
0.120746
0.197011
0.121689
0.0552943
0.119583
-0.118639
0.116245
-0.257457
0.113273
-0.321524
0.112775
-0.290076
0.111005
-0.0784339
0.108797
0.117972
0.107239
0.304182
0.103341
0.365992
0.0947923
0.0647299
-0.0931491
0.0011158
0.0990669
0.0198755
0.106471
0.040245
0.108815
0.062381
0.103861
0.0855839
0.0899249
0.108427
0.0672233
0.128547
0.039817
0.144159
0.0106396
0.155646
-0.0245999
0.164002
-0.0692978
0.168774
-0.115386
0.168893
-0.149713
0.164857
-0.167171
0.158754
-0.171301
0.151837
-0.168557
0.144721
-0.165382
0.138389
-0.163491
0.131517
-0.162112
0.12114
-0.166338
0.108026
-0.178544
0.0976757
-0.183444
0.0951917
-0.156104
0.101398
-0.0890437
0.114168
-0.000393595
0.128923
0.0864359
0.142839
0.151526
0.155004
0.186088
0.164809
0.198252
0.171405
0.212969
0.173745
0.24524
0.170761
0.280726
0.162869
0.28653
0.153006
0.2361
0.144587
0.127946
0.139632
-0.00900813
0.137781
-0.132328
0.138821
-0.214889
0.139064
-0.247727
0.132633
-0.252512
0.120825
-0.253747
0.11127
-0.240638
0.109817
-0.185269
0.116233
-0.082806
0.124988
0.0349336
0.129998
0.152957
0.129597
0.251123
0.12663
0.309589
0.123495
0.299798
0.122415
0.19809
0.123175
0.0545348
0.120471
-0.115935
0.116307
-0.253293
0.112507
-0.317723
0.112442
-0.290011
0.111808
-0.0777997
0.110478
0.119302
0.110329
0.304331
0.105712
0.37061
0.0957534
0.0746883
-0.0893701
0.0258307
0.0796962
0.0466971
0.0856041
0.0687812
0.0867314
0.0912315
0.0814103
0.113024
0.0681328
0.132884
0.0473625
0.149208
0.0234935
0.161796
-0.00194832
0.171325
-0.0341295
0.177686
-0.0756583
0.17922
-0.11692
0.175433
-0.145926
0.1678
-0.159538
0.158877
-0.162378
0.150227
-0.159907
0.141831
-0.156986
0.134136
-0.155797
0.126671
-0.154646
0.116267
-0.155934
0.102244
-0.164521
0.0900969
-0.171297
0.0865535
-0.15256
0.0931905
-0.0956807
0.107211
-0.0144145
0.123972
0.0696751
0.140288
0.13521
0.154852
0.171524
0.167082
0.186023
0.176713
0.203338
0.182734
0.239219
0.183056
0.280404
0.176902
0.292684
0.166608
0.246394
0.156068
0.138486
0.148036
-0.000976153
0.142549
-0.126841
0.140129
-0.212469
0.138881
-0.24648
0.132448
-0.246079
0.12035
-0.24165
0.110398
-0.230686
0.109398
-0.184269
0.116711
-0.0901191
0.126225
0.0254196
0.13217
0.147011
0.132544
0.25075
0.129769
0.312364
0.126095
0.303472
0.124386
0.199799
0.125047
0.0538733
0.121941
-0.112829
0.116965
-0.248317
0.112246
-0.313004
0.112525
-0.29029
0.113095
-0.0783692
0.112663
0.119735
0.113886
0.303107
0.108803
0.375693
0.0975603
0.0859306
-0.0851707
0.059493
0.061031
0.0795328
0.0655644
0.100305
0.0659592
0.120592
0.0611232
0.139146
0.0495789
0.154837
0.0316711
0.166926
0.0114048
0.176559
-0.0115807
0.184378
-0.0419493
0.188647
-0.0799267
0.186901
-0.115174
0.179538
-0.138563
0.169085
-0.149084
0.158168
-0.151461
0.148351
-0.15009
0.139337
-0.147972
0.130886
-0.147346
0.123002
-0.146762
0.113133
-0.146065
0.0991641
-0.150552
0.0854422
-0.157576
0.0800192
-0.147137
0.0861032
-0.101765
0.100495
-0.0288059
0.118738
0.0514317
0.136981
0.116967
0.153529
0.154977
0.167983
0.171568
0.180651
0.190671
0.190509
0.229361
0.194715
0.276198
0.191241
0.296158
0.180969
0.256666
0.168101
0.151354
0.156967
0.0101578
0.148058
-0.117932
0.142055
-0.206466
0.139032
-0.243456
0.13286
-0.239907
0.120807
-0.229596
0.110172
-0.220051
0.109058
-0.183155
0.117092
-0.098153
0.12757
0.0149413
0.134774
0.139807
0.136126
0.249398
0.133481
0.315009
0.129109
0.307844
0.126648
0.20226
0.12728
0.0532416
0.123951
-0.1095
0.11821
-0.242576
0.112484
-0.307278
0.112996
-0.290802
0.114816
-0.0801888
0.115265
0.119286
0.117854
0.300518
0.112575
0.380972
0.100198
0.0983078
-0.0804702
0.0934325
0.0443147
0.110881
0.0481162
0.128641
0.048199
0.145548
0.0442159
0.16035
0.034777
0.17217
0.0198506
0.1812
0.00237497
0.189006
-0.0193867
0.195233
-0.0481757
0.196791
-0.0814852
0.191595
-0.109978
0.181157
-0.128126
0.168698
-0.136625
0.15659
-0.139352
0.146092
-0.139593
0.136861
-0.138741
0.128056
-0.138541
0.120005
-0.138711
0.111184
-0.137245
0.0984127
-0.13778
0.0837852
-0.142948
0.0757688
-0.139121
0.080043
-0.106039
0.0940379
-0.0428009
0.113091
0.0323782
0.132698
0.0973598
0.150786
0.136889
0.1671
0.155253
0.18251
0.175261
0.196266
0.215605
0.204621
0.267843
0.20417
0.296609
0.194893
0.265944
0.180291
0.165956
0.165989
0.0244595
0.154061
-0.106004
0.144503
-0.196908
0.139328
-0.238281
0.133527
-0.234106
0.121966
-0.218035
0.110527
-0.208612
0.108698
-0.181326
0.117213
-0.106668
0.128865
0.00328898
0.137601
0.131072
0.1401
0.246898
0.137644
0.317464
0.13254
0.312949
0.129212
0.205587
0.12984
0.0526136
0.126445
-0.106105
0.120015
-0.236146
0.113204
-0.300466
0.113807
-0.291406
0.116892
-0.0832738
0.118184
0.117994
0.12215
0.296552
0.116965
0.386157
0.103635
0.111638
-0.075215
0.120565
0.0304894
0.134971
0.0337096
0.149584
0.0335867
0.163445
0.0303541
0.175557
0.0226655
0.185086
0.0103219
0.193292
-0.00583094
0.199971
-0.0260659
0.203945
-0.0521501
0.201872
-0.0794122
0.193108
-0.101214
0.180256
-0.115274
0.166649
-0.123017
0.154115
-0.126819
0.143359
-0.128836
0.134229
-0.129611
0.125537
-0.129849
0.117274
-0.130448
0.109406
-0.129377
0.0988456
-0.12722
0.0847512
-0.128854
0.0741877
-0.128557
0.0753548
-0.107206
0.0879549
-0.055401
0.107073
0.0132605
0.127447
0.0769851
0.146556
0.11778
0.164215
0.137595
0.181903
0.157573
0.199236
0.198272
0.211951
0.255128
0.215429
0.293131
0.208043
0.273329
0.192722
0.181276
0.17524
0.0419419
0.160217
-0.0909809
0.147329
-0.18402
0.139684
-0.230636
0.134148
-0.228571
0.123551
-0.207438
0.111416
-0.196477
0.108312
-0.178223
0.116924
-0.11528
0.129886
-0.00967238
0.140502
0.120456
0.14452
0.24288
0.142403
0.319581
0.136494
0.318858
0.13214
0.209942
0.132687
0.0520667
0.129359
-0.102778
0.12233
-0.229118
0.114385
-0.292521
0.114889
-0.29191
0.119249
-0.0876337
0.121336
0.115907
0.126684
0.291205
0.121893
0.390949
0.107819
0.125711
-0.0693847
0.146389
0.020747
0.157304
0.0227949
0.168747
0.0221435
0.179888
0.019213
0.189979
0.0125742
0.198107
0.00219383
0.204766
-0.012489
0.209254
-0.0305541
0.209215
-0.0521114
0.202695
-0.0728925
0.190918
-0.0894359
0.176876
-0.101233
0.163161
-0.109302
0.150923
-0.11458
0.140282
-0.118196
0.131248
-0.120577
0.122978
-0.121578
0.11482
-0.122291
0.107438
-0.121995
0.0992299
-0.119011
0.0873508
-0.116975
0.0754623
-0.116669
0.0727424
-0.104486
0.0825881
-0.0652466
0.100843
-0.00499449
0.12127
0.0565586
0.140769
0.0982805
0.159255
0.11911
0.178681
0.138147
0.199014
0.177938
0.215741
0.238401
0.22292
0.285952
0.217658
0.278591
0.20241
0.196525
0.183258
0.0610932
0.165879
-0.0736019
0.150245
-0.168385
0.139996
-0.220388
0.134459
-0.223034
0.125232
-0.198211
0.112745
-0.18399
0.10793
-0.173408
0.116121
-0.123471
0.130415
-0.0239663
0.143144
0.107727
0.148954
0.23707
0.147536
0.321
0.140997
0.325397
0.135469
0.21547
0.135825
0.0517105
0.132627
-0.0995801
0.125093
-0.221583
0.11599
-0.283418
0.116179
-0.292099
0.121803
-0.0932573
0.124632
0.113077
0.131338
0.284499
0.127245
0.395041
0.112679
0.140277
-0.0629956
0.176628
0.0153873
0.183595
0.0158272
0.19113
0.0146088
0.198613
0.0117303
0.205244
0.00594276
0.210735
-0.00329692
0.213736
-0.0154903
0.213679
-0.0304969
0.208643
-0.0470753
0.198528
-0.0627776
0.185408
-0.0763154
0.171594
-0.0874192
0.158558
-0.0962663
0.146984
-0.103006
0.136799
-0.108011
0.127928
-0.111706
0.120069
-0.113719
0.11235
-0.114572
0.10518
-0.114824
0.0986435
-0.112475
0.0898991
-0.10823
0.0788127
-0.105582
0.0727777
-0.0984511
0.0787539
-0.0712229
0.0946459
-0.0208865
0.114572
0.0366327
0.133942
0.0789099
0.152519
0.100533
0.172668
0.117997
0.195411
0.155195
0.216389
0.217423
0.228277
0.274064
0.226319
0.28055
0.211525
0.211319
0.190331
0.082287
0.170805
-0.0540757
0.153036
-0.150616
0.140221
-0.207573
0.134287
-0.2171
0.126679
-0.190603
0.114355
-0.171665
0.107618
-0.166671
0.114721
-0.130574
0.130195
-0.0394404
0.1454
0.0925228
0.153496
0.228973
0.153169
0.321326
0.146082
0.332485
0.139243
0.222309
0.139179
0.0517747
0.136169
-0.09657
0.128215
-0.213629
0.117957
-0.273161
0.117603
-0.291745
0.124472
-0.100126
0.128008
0.109541
0.136018
0.276489
0.132909
0.39815
0.118126
0.15506
-0.0561029
0.199445
0.012754
0.2032
0.0120727
0.207041
0.0107675
0.210732
0.00803966
0.213623
0.00305147
0.214885
-0.00455909
0.213652
-0.014257
0.209195
-0.0260403
0.200954
-0.0388343
0.189829
-0.0516521
0.177391
-0.0638776
0.164883
-0.0749109
0.153024
-0.0844077
0.142277
-0.0922589
0.13269
-0.0984241
0.124117
-0.103134
0.11659
-0.106192
0.10954
-0.107522
0.102705
-0.107989
0.0969041
-0.106674
0.0909004
-0.102227
0.0824594
-0.0971415
0.0751531
-0.0911448
0.0768706
-0.0729404
0.0892488
-0.0332647
0.107515
0.0183664
0.126098
0.0603274
0.144191
0.0824404
0.16449
0.0976972
0.188417
0.131269
0.211973
0.193867
0.227852
0.258184
0.229681
0.278721
0.216581
0.224419
0.195274
0.103594
0.1747
-0.0335014
0.15545
-0.131366
0.140222
-0.192345
0.133447
-0.210324
0.127571
-0.184728
0.116004
-0.160098
0.107397
-0.158064
0.112766
-0.135943
0.128978
-0.055653
0.146653
0.0748486
0.157386
0.21824
0.158881
0.319831
0.151833
0.339533
0.143513
0.230629
0.142776
0.0525111
0.139911
-0.0937044
0.131597
-0.205315
0.120207
-0.261771
0.119084
-0.290621
0.127176
-0.108219
0.131377
0.105341
0.14058
0.267286
0.138724
0.400005
0.124051
0.169734
-0.0488078
0.201229
0.010887
0.203361
0.00994126
0.205235
0.00889336
0.206726
0.00654898
0.207144
0.00263327
0.205901
-0.00331641
0.202585
-0.0109405
0.196742
-0.0201974
0.188574
-0.0306664
0.178797
-0.0418757
0.168137
-0.0532173
0.157224
-0.0639973
0.146605
-0.0737888
0.136693
-0.0823474
0.127695
-0.0894259
0.119545
-0.0949837
0.11229
-0.0989369
0.105832
-0.101064
0.0996784
-0.101836
0.0942288
-0.101225
0.0897602
-0.097758
0.0843486
-0.0917299
0.0781017
-0.0848979
0.0769597
-0.0717984
0.0855776
-0.0418826
0.101486
0.00245843
0.118529
0.0432835
0.135265
0.065705
0.154476
0.0784858
0.179077
0.106668
0.206132
0.166812
0.226575
0.237741
0.232098
0.273198
0.220845
0.235672
0.19894
0.125499
0.176813
-0.0113745
0.156941
-0.111494
0.139912
-0.175317
0.131898
-0.202309
0.127695
-0.180526
0.117512
-0.149915
0.107322
-0.147874
0.110233
-0.138854
0.126662
-0.0720819
0.147137
0.0543743
0.160971
0.204406
0.164579
0.316223
0.157863
0.346248
0.148079
0.240414
0.146413
0.0541763
0.14376
-0.0910513
0.135153
-0.196708
0.122721
-0.249339
0.120594
-0.288495
0.129856
-0.117481
0.134716
0.10048
0.144978
0.257024
0.144593
0.400391
0.130348
0.183979
-0.0412486
0.18749
0.00896652
0.188925
0.00850603
0.190232
0.00758679
0.191156
0.00562464
0.191354
0.00243528
0.190091
-0.0020531
0.187191
-0.00804122
0.182512
-0.0155186
0.176143
-0.0242966
0.168316
-0.0340491
0.159411
-0.0443119
0.149944
-0.0545308
0.140473
-0.0643179
0.131405
-0.0732788
0.122971
-0.0809922
0.115287
-0.0872995
0.108368
-0.0920183
0.102266
-0.0949618
0.0967785
-0.0963482
0.0917548
-0.0962009
0.0877819
-0.093785
0.0843433
-0.0882913
0.0802831
-0.0808377
0.0784012
-0.0699164
0.0836924
-0.0471737
0.0956896
-0.00953877
0.110812
0.0281615
0.125745
0.0507718
0.142805
0.061426
0.165425
0.0840477
0.192535
0.139703
0.216911
0.213365
0.228887
0.261222
0.222102
0.242457
0.201299
0.146302
0.179196
0.0107287
0.158736
-0.091034
0.140166
-0.156747
0.130384
-0.192527
0.127359
-0.177501
0.118973
-0.141529
0.10766
-0.136561
0.10781
-0.139004
0.123122
-0.0873939
0.145525
0.0319712
0.162857
0.187075
0.169887
0.309192
0.164685
0.351451
0.153344
0.251754
0.150515
0.0570058
0.147859
-0.0883951
0.138916
-0.187765
0.125573
-0.235995
0.1223
-0.285222
0.132446
-0.127626
0.137911
0.0950149
0.14904
0.245895
0.15033
0.399101
0.136888
0.19742
-0.0336139
0.199148
0.00782593
-0.198008
0.200796
0.0068581
0.202826
0.00555736
0.204939
0.00351167
0.20678
0.000594091
0.208389
-0.00366172
0.209425
-0.0090774
0.209643
-0.0157366
0.20882
-0.023474
0.206813
-0.0320422
0.203637
-0.0411355
0.199398
-0.0502914
0.194248
-0.0591689
0.188337
-0.0673675
0.181754
-0.0744087
0.174684
-0.0802298
0.16728
-0.0846144
0.159623
-0.0873045
0.151987
-0.0887126
0.144131
-0.0883447
0.13606
-0.0857141
0.128287
-0.0805185
0.119914
-0.0724643
0.110444
-0.0604471
0.103163
-0.039892
0.102019
-0.00839533
0.10672
0.0234605
0.116154
0.0413374
0.128021
0.0495591
0.140692
0.0713769
0.153691
0.126704
0.167244
0.199812
0.179525
0.248942
0.188181
0.233801
0.192096
0.142387
0.191605
0.0112191
0.186647
-0.0860755
0.174725
-0.144825
0.163056
-0.180858
0.154708
-0.169153
0.1429
-0.129721
0.128084
-0.121745
0.121057
-0.131977
0.124957
-0.0912939
0.134841
0.0220872
0.142085
0.179831
0.145619
0.305657
0.145891
0.351179
0.145594
0.252051
0.151347
0.0512527
0.153816
-0.0908634
0.146717
-0.180666
0.132618
-0.221896
0.124481
-0.277086
0.127674
-0.130819
0.128366
0.0943228
0.136658
0.237603
0.140077
0.395683
0.130201
0.207296
-0.0260597
0.209644
0.00706025
-0.208878
0.210735
0.00576707
0.212164
0.00412786
0.213753
0.00192267
0.215362
-0.00101497
0.216608
-0.00490717
0.217318
-0.00978748
0.217267
-0.015686
0.216285
-0.0224921
0.214243
-0.0299995
0.211097
-0.0379904
0.206886
-0.0460797
0.201667
-0.0539498
0.195603
-0.0613034
0.188876
-0.0676816
0.181696
-0.0730497
0.174361
-0.0772799
0.166867
-0.0798108
0.159365
-0.0812106
0.151933
-0.0809121
0.144222
-0.0780029
0.136662
-0.0729586
0.129641
-0.0654433
0.122428
-0.0532342
0.116097
-0.0335612
0.113545
-0.00584321
0.117087
0.0199186
0.125192
0.033232
0.135902
0.038849
0.148082
0.0591969
0.16175
0.113036
0.176952
0.18461
0.191151
0.234743
0.201268
0.223684
0.205704
0.137951
0.205791
0.0111324
0.199945
-0.0802295
0.186938
-0.131818
0.173738
-0.167659
0.164984
-0.160399
0.153923
-0.118661
0.138888
-0.106709
0.130352
-0.123441
0.133527
-0.0944689
0.145
0.010614
0.154663
0.170168
0.160535
0.299785
0.16244
0.349274
0.161827
0.252664
0.166977
0.0461024
0.168865
-0.0927517
0.160446
-0.172247
0.144324
-0.205774
0.13492
-0.267682
0.138796
-0.134694
0.139629
0.09349
0.148398
0.228834
0.153356
0.390724
0.14392
0.216733
-0.0180771
0.219937
0.0064314
-0.219309
0.22085
0.00485417
0.22199
0.00298852
0.223225
0.000687086
0.224387
-0.00217712
0.225244
-0.00576419
0.225621
-0.0101639
0.22534
-0.0154051
0.224256
-0.0214079
0.222258
-0.0280022
0.219284
-0.0350162