/*--------------------------------*- C++ -*----------------------------------*\
| =========                 |                                                 |
| \\      /  F ield         | OpenFOAM: The Open Source CFD Toolbox           |
|  \\    /   O peration     | Version:  2512                                  |
|   \\  /    A nd           | Website:  www.openfoam.com                      |
|    \\/     M anipulation  |                                                 |
\*---------------------------------------------------------------------------*/
FoamFile
{
    version     2.0;
    format      ascii;
    arch        "LSB;label=32;scalar=64";
    class       volScalarField;
    location    "194.9";
    object      p;
}
// * * * * * * * * * * * * * * * * * * * * * * * * * * * * * * * * * * * * * //

dimensions      [0 2 -2 0 0 0 0];

internalField   nonuniform List<scalar> 
13248
(
-0.539162
-0.538244
-0.535238
-0.530831
-0.525805
-0.520913
-0.516863
-0.513937
-0.511821
-0.509659
-0.506287
-0.500565
-0.491681
-0.479319
-0.463654
-0.445178
-0.424475
-0.402076
-0.378413
-0.353867
-0.328472
-0.302779
-0.275047
-0.246385
-0.54859
-0.547055
-0.543964
-0.539862
-0.535228
-0.530447
-0.525682
-0.520732
-0.515063
-0.507985
-0.498874
-0.487344
-0.473332
-0.457056
-0.438883
-0.419205
-0.398357
-0.376616
-0.354197
-0.331266
-0.307971
-0.284403
-0.260423
-0.237079
-0.560718
-0.558159
-0.554644
-0.550447
-0.545739
-0.540416
-0.534079
-0.526192
-0.516315
-0.504255
-0.490076
-0.474037
-0.456491
-0.437787
-0.418211
-0.397978
-0.377248
-0.356153
-0.334798
-0.313337
-0.291778
-0.270398
-0.24889
-0.227428
-0.575206
-0.571388
-0.567145
-0.562465
-0.557082
-0.550339
-0.541398
-0.52973
-0.515358
-0.498734
-0.480482
-0.461184
-0.441272
-0.421024
-0.400597
-0.38008
-0.359536
-0.339015
-0.318594
-0.298322
-0.278292
-0.258645
-0.239169
-0.220484
-0.592111
-0.586886
-0.581724
-0.576157
-0.56933
-0.560063
-0.54744
-0.531397
-0.512628
-0.492121
-0.470756
-0.449143
-0.427622
-0.406347
-0.38537
-0.364701
-0.344341
-0.324308
-0.30462
-0.285328
-0.266472
-0.248107
-0.230141
-0.212762
-0.61163
-0.604923
-0.598671
-0.591689
-0.582394
-0.569348
-0.552113
-0.531431
-0.508615
-0.484899
-0.46114
-0.437809
-0.415101
-0.393058
-0.371661
-0.350873
-0.330667
-0.31102
-0.291935
-0.273412
-0.255472
-0.238138
-0.221351
-0.205323
-0.633829
-0.625597
-0.617993
-0.608832
-0.595811
-0.577796
-0.555355
-0.5301
-0.503691
-0.477321
-0.451651
-0.426959
-0.403305
-0.380648
-0.358921
-0.338052
-0.317981
-0.298664
-0.280065
-0.262164
-0.244948
-0.228389
-0.21248
-0.197247
-0.658433
-0.648649
-0.639263
-0.62688
-0.608809
-0.584928
-0.557095
-0.527558
-0.498003
-0.469382
-0.442104
-0.416262
-0.391805
-0.368628
-0.346624
-0.325691
-0.305746
-0.286714
-0.268537
-0.251165
-0.234553
-0.21867
-0.203503
-0.188976
-0.684704
-0.67335
-0.661573
-0.644709
-0.620431
-0.590239
-0.55718
-0.523768
-0.49146
-0.460888
-0.43221
-0.405366
-0.380215
-0.356603
-0.334385
-0.31343
-0.293626
-0.274876
-0.257095
-0.240206
-0.224144
-0.208857
-0.194301
-0.180309
-0.711449
-0.69849
-0.683496
-0.66088
-0.629603
-0.593086
-0.555187
-0.518331
-0.483605
-0.451314
-0.421403
-0.393685
-0.367946
-0.343984
-0.321618
-0.300688
-0.281056
-0.262604
-0.245224
-0.228819
-0.213308
-0.198624
-0.18468
-0.171279
-0.737051
-0.722414
-0.70318
-0.6737
-0.635045
-0.592473
-0.5502
-0.510308
-0.473468
-0.439685
-0.408722
-0.380286
-0.354096
-0.329905
-0.307494
-0.286676
-0.267288
-0.24919
-0.232256
-0.216373
-0.201452
-0.187412
-0.174122
-0.161417
-0.759608
-0.743169
-0.718607
-0.681392
-0.635331
-0.587145
-0.541003
-0.4985
-0.459885
-0.424887
-0.393112
-0.364172
-0.337724
-0.313473
-0.291168
-0.270591
-0.251559
-0.233913
-0.217505
-0.202213
-0.187951
-0.174641
-0.16214
-0.150344
-0.518108
-0.516094
-0.515217
-0.516979
-0.522299
-0.531407
-0.544262
-0.560751
-0.580631
-0.60342
-0.628327
-0.654246
-0.679806
-0.703438
-0.723449
-0.741194
-0.75017
-0.751943
-0.745185
-0.728721
-0.701786
-0.664169
-0.617601
-0.563616
-0.534442
-0.531055
-0.529926
-0.531819
-0.537523
-0.547291
-0.561065
-0.578685
-0.599872
-0.624113
-0.650587
-0.678169
-0.705497
-0.731088
-0.753481
-0.771376
-0.782866
-0.786897
-0.782114
-0.766985
-0.740127
-0.700499
-0.649726
-0.588774
-0.545325
-0.540717
-0.539049
-0.540554
-0.545901
-0.555399
-0.568976
-0.586423
-0.607417
-0.631428
-0.65765
-0.684993
-0.71216
-0.737767
-0.760531
-0.778277
-0.790374
-0.795327
-0.791494
-0.776915
-0.749772
-0.708425
-0.654653
-0.589137
-0.550752
-0.545244
-0.542832
-0.543396
-0.547564
-0.555778
-0.568026
-0.584077
-0.603578
-0.625998
-0.650559
-0.67623
-0.701761
-0.725786
-0.746886
-0.764449
-0.776345
-0.781125
-0.776983
-0.76158
-0.732915
-0.689311
-0.633146
-0.565475
-0.551488
-0.545566
-0.542343
-0.541514
-0.543765
-0.549764
-0.559668
-0.573308
-0.590344
-0.610259
-0.632326
-0.655592
-0.678936
-0.701197
-0.721073
-0.73728
-0.748164
-0.75191
-0.746321
-0.728747
-0.697377
-0.651126
-0.593289
-0.525509
-0.548811
-0.543035
-0.53911
-0.536688
-0.536558
-0.539674
-0.546479
-0.55699
-0.570956
-0.587915
-0.607197
-0.627934
-0.649127
-0.669631
-0.688081
-0.702849
-0.712134
-0.713635
-0.704915
-0.683444
-0.64836
-0.599801
-0.542096
-0.477187
-0.544172
-0.53905
-0.534691
-0.530796
-0.528244
-0.528261
-0.531644
-0.538709
-0.549395
-0.563349
-0.579968
-0.598449
-0.617806
-0.636685
-0.653412
-0.666051
-0.672337
-0.669667
-0.655904
-0.629378
-0.590821
-0.541739
-0.486879
-0.427954
-0.538923
-0.534808
-0.530347
-0.525359
-0.520781
-0.518029
-0.518233
-0.52205
-0.529684
-0.540934
-0.55527
-0.571867
-0.589399
-0.606157
-0.620102
-0.628857
-0.629972
-0.621254
-0.601585
-0.570795
-0.531104
-0.484556
-0.435395
-0.384159
-0.53421
-0.53124
-0.526958
-0.521365
-0.515442
-0.510688
-0.508469
-0.509737
-0.514946
-0.524036
-0.536414
-0.550897
-0.565807
-0.579035
-0.588167
-0.590836
-0.585104
-0.569932
-0.54557
-0.513241
-0.475672
-0.434421
-0.392611
-0.349138
-0.531037
-0.529129
-0.525181
-0.51944
-0.512935
-0.507147
-0.50354
-0.503221
-0.506749
-0.513987
-0.524084
-0.535505
-0.5462
-0.553855
-0.556238
-0.551651
-0.539226
-0.519236
-0.492842
-0.461833
-0.428307
-0.393161
-0.358526
-0.32182
-0.530365
-0.529235
-0.52567
-0.520151
-0.513761
-0.507848
-0.503808
-0.502665
-0.504816
-0.509891
-0.516723
-0.523533
-0.528237
-0.528854
-0.523909
-0.512736
-0.495527
-0.473259
-0.447143
-0.41865
-0.388811
-0.35846
-0.329174
-0.29807
-0.532979
-0.532197
-0.528991
-0.523948
-0.518147
-0.512707
-0.508708
-0.506884
-0.507322
-0.509337
-0.51159
-0.5124
-0.510146
-0.503643
-0.492386
-0.476558
-0.456838
-0.434121
-0.409181
-0.382848
-0.355343
-0.32768
-0.300218
-0.272993
-0.497863
-0.426119
-0.365196
-0.319702
-0.292295
-0.283842
-0.294988
-0.323346
-0.359488
-0.387667
-0.392112
-0.366266
-0.313588
-0.252431
-0.200059
-0.164222
-0.144373
-0.138253
-0.143694
-0.160786
-0.194967
-0.250043
-0.312044
-0.35246
-0.346117
-0.299129
-0.234631
-0.176008
-0.136292
-0.114849
-0.107635
-0.11676
-0.144722
-0.181254
-0.203029
-0.191835
-0.157809
-0.12156
-0.0967456
-0.0864119
-0.0923212
-0.110166
-0.124212
-0.118977
-0.103372
-0.0844213
-0.0694816
-0.0610562
-0.0589576
-0.0582731
-0.0537399
-0.0457068
-0.0411994
-0.0413784
-0.0430614
-0.0348653
-0.0265354
-0.0156855
-0.00990961
-0.0024581
-0.514776
-0.434398
-0.364407
-0.309372
-0.272316
-0.254494
-0.256278
-0.276399
-0.30762
-0.33536
-0.339494
-0.32278
-0.278737
-0.226554
-0.182248
-0.152176
-0.136653
-0.134443
-0.143741
-0.165133
-0.204711
-0.265579
-0.332182
-0.37546
-0.368701
-0.317865
-0.24801
-0.183755
-0.138655
-0.112316
-0.100126
-0.103065
-0.123589
-0.153601
-0.171832
-0.162492
-0.134858
-0.106728
-0.0896069
-0.0865572
-0.10028
-0.125896
-0.145408
-0.140167
-0.118985
-0.0938087
-0.072822
-0.0584769
-0.0509245
-0.0471166
-0.0420376
-0.0377255
-0.0388205
-0.045805
-0.0532842
-0.0455542
-0.0350924
-0.0169864
-0.00401601
0.000365451
-0.50985
-0.42519
-0.351461
-0.290865
-0.246585
-0.219419
-0.210109
-0.219268
-0.242489
-0.269286
-0.286302
-0.268779
-0.233958
-0.192647
-0.157232
-0.133357
-0.122565
-0.124447
-0.137351
-0.162113
-0.204922
-0.268542
-0.337674
-0.383757
-0.380156
-0.32874
-0.25575
-0.187565
-0.138399
-0.107958
-0.0911827
-0.0883477
-0.101825
-0.125553
-0.140919
-0.133564
-0.111877
-0.0910639
-0.0810746
-0.085371
-0.107246
-0.140943
-0.166302
-0.161146
-0.134188
-0.102443
-0.0756031
-0.0558869
-0.0431947
-0.0363163
-0.0304814
-0.0297795
-0.0362715
-0.0498679
-0.0629788
-0.0559107
-0.0434016
-0.0185318
0.00181001
0.00306482
-0.484058
-0.400754
-0.329172
-0.268178
-0.220406
-0.186774
-0.167607
-0.163865
-0.175212
-0.194677
-0.20962
-0.203761
-0.181355
-0.151939
-0.12578
-0.108356
-0.102296
-0.107958
-0.123724
-0.150175
-0.193263
-0.256519
-0.327004
-0.376174
-0.378414
-0.330455
-0.257078
-0.18709
-0.135478
-0.102096
-0.0816711
-0.0736297
-0.0807301
-0.0987113
-0.111556
-0.106233
-0.0895226
-0.0748504
-0.0710963
-0.0823211
-0.112235
-0.154211
-0.185801
-0.181252
-0.148604
-0.110128
-0.0777149
-0.0532881
-0.0359119
-0.0260739
-0.0192277
-0.0219035
-0.033505
-0.0534316
-0.0719765
-0.0657576
-0.0513499
-0.0203689
0.00749717
0.00562899
-0.445618
-0.368542
-0.303252
-0.244971
-0.196946
-0.159893
-0.133438
-0.119237
-0.117871
-0.126554
-0.137433
-0.13855
-0.12617
-0.10777
-0.0903014
-0.0789533
-0.0771689
-0.0860764
-0.104045
-0.130912
-0.171947
-0.231654
-0.300766
-0.353462
-0.362976
-0.322335
-0.252226
-0.182769
-0.130191
-0.095082
-0.0721453
-0.0599328
-0.0612457
-0.074046
-0.0847035
-0.0813445
-0.0682458
-0.0583296
-0.0596971
-0.0768896
-0.11435
-0.16455
-0.202653
-0.199923
-0.161909
-0.116783
-0.0791431
-0.0506903
-0.0291788
-0.0165678
-0.00841671
-0.0140942
-0.030475
-0.0563902
-0.0801276
-0.0749366
-0.0588437
-0.022525
0.0129728
0.00805501
-0.402393
-0.334505
-0.278132
-0.224917
-0.178267
-0.140121
-0.10954
-0.0870911
-0.0747219
-0.072324
-0.0759102
-0.0789737
-0.0737979
-0.0642349
-0.0538564
-0.0477155
-0.0496075
-0.0611918
-0.0807981
-0.107245
-0.144617
-0.198039
-0.262481
-0.317591
-0.335816
-0.305084
-0.241573
-0.175086
-0.122997
-0.0872209
-0.0628192
-0.0476553
-0.0441416
-0.0522076
-0.0609723
-0.059958
-0.0485273
-0.0419415
-0.0471005
-0.069186
-0.113267
-0.170871
-0.215673
-0.216183
-0.173657
-0.1223
-0.0798834
-0.0481112
-0.0230946
-0.00794958
0.00178454
-0.00639815
-0.0271565
-0.0586304
-0.0873179
-0.083306
-0.0657933
-0.025002
0.0181692
0.0103335
-0.361466
-0.303563
-0.256044
-0.208857
-0.165039
-0.127202
-0.0949956
-0.0680649
-0.0474892
-0.0350166
-0.0301709
-0.0302649
-0.0285262
-0.0239245
-0.0189282
-0.0169218
-0.0217566
-0.0352446
-0.0557355
-0.0812133
-0.114342
-0.16045
-0.218198
-0.273604
-0.301276
-0.281078
-0.226258
-0.164791
-0.114596
-0.0790392
-0.0540306
-0.0368672
-0.0295293
-0.0334505
-0.0404503
-0.0401027
-0.0306986
-0.0263013
-0.0339549
-0.0593619
-0.108446
-0.172709
-0.223925
-0.230983
-0.183409
-0.126647
-0.0799761
-0.0455468
-0.0177216
-0.000345997
0.0112248
0.00115669
-0.02356
-0.0601105
-0.0934867
-0.0907692
-0.072112
-0.0277474
0.023003
0.012448
-0.327413
-0.279152
-0.239147
-0.197482
-0.156992
-0.120235
-0.0875534
-0.0588518
-0.0341929
-0.0144238
-0.00134027
0.00486536
0.00711276
0.0104063
0.0116446
0.0109662
0.00421778
-0.0102786
-0.0307498
-0.0547615
-0.0838182
-0.122623
-0.172307
-0.225723
-0.261621
-0.25111
-0.206955
-0.152379
-0.105411
-0.0709132
-0.0459953
-0.0277401
-0.0174599
-0.0178191
-0.0231466
-0.0233145
-0.0153915
-0.0120872
-0.0207559
-0.047972
-0.10032
-0.169403
-0.226353
-0.236736
-0.190364
-0.129761
-0.0794673
-0.0429719
-0.0130565
0.00616398
0.0197476
0.0084759
-0.0197229
-0.0607548
-0.0985754
-0.0972461
-0.0777122
-0.0306609
0.0273705
0.0143792
-0.301276
-0.26103
-0.226996
-0.190097
-0.153213
-0.118506
-0.0862018
-0.0566264
-0.0302014
-0.00699282
0.0123676
0.0258815
0.0328057
0.0370256
0.0359178
0.0340142
0.0267265
0.0124125
-0.0071314
-0.0293779
-0.0549402
-0.0873162
-0.129048
-0.177826
-0.216515
-0.218929
-0.185676
-0.138631
-0.0957514
-0.0629967
-0.0387368
-0.0202009
-0.00788377
-0.00519927
-0.00887914
-0.00974443
-0.00305779
0.000213716
-0.00809399
-0.0354126
-0.0886255
-0.161273
-0.223586
-0.237675
-0.194662
-0.131625
-0.0783798
-0.0403738
-0.00905903
0.0115546
0.0272573
0.0155876
-0.0156783
-0.0606665
-0.102599
-0.102877
-0.0825148
-0.033668
0.0311457
0.0161124
-0.281727
-0.248325
-0.218797
-0.185718
-0.152256
-0.120061
-0.089059
-0.0597007
-0.0326243
-0.00810925
0.0136095
0.0316427
0.0438219
0.0474663
0.0524336
0.0507253
0.0437835
0.0307877
0.0133461
-0.00659096
-0.0291679
-0.0561687
-0.0896866
-0.132284
-0.172397
-0.183072
-0.161284
-0.123218
-0.0857411
-0.0555267
-0.0324329
-0.0143157
-0.000847174
0.00441102
0.00251711
0.000988065
0.0056618
0.0102726
0.00330252
-0.022797
-0.0751874
-0.148107
-0.214579
-0.233154
-0.195172
-0.132117
-0.0768318
-0.0379084
-0.00585767
0.0157937
0.0335748
0.0222987
-0.0115244
-0.0597174
-0.105483
-0.107317
-0.0864204
-0.0367222
0.0341664
0.0176358
-0.266037
-0.239804
-0.21372
-0.183356
-0.152426
-0.122163
-0.0927088
-0.0640855
-0.0367198
-0.0114058
0.0115201
0.0315771
0.0477192
0.0592882
0.0653545
0.0644811
0.0586518
0.0470058
0.031782
0.0142375
-0.00597217
-0.0289843
-0.0567562
-0.094276
-0.133158
-0.15327
-0.140313
-0.109823
-0.0774178
-0.0497771
-0.0278107
-0.0103053
0.00371546
0.0111543
0.011187
0.00923494
0.0128381
0.0179282
0.0135667
-0.00982671
-0.0598898
-0.132048
-0.202034
-0.225272
-0.193418
-0.131919
-0.0754417
-0.0358458
-0.00347866
0.0186611
0.0405029
0.0288545
-0.00722586
-0.0582023
-0.107401
-0.109996
-0.0893802
-0.0395381
0.0362887
0.0189327
-0.252098
-0.235619
-0.213815
-0.18694
-0.159502
-0.132215
-0.104909
-0.0776446
-0.0507639
-0.0249988
-0.000929672
0.0207519
0.0392997
0.0544227
0.0644245
0.0699078
0.0676523
0.0595105
0.0476592
0.0330956
0.0144147
-0.00624684
-0.0285617
-0.0591098
-0.0936184
-0.114124
-0.111072
-0.0910478
-0.0659246
-0.042348
-0.0222351
-0.00576201
0.00801922
0.0167224
0.0183385
0.0161702
0.0182685
0.0226952
0.0204728
0.000938424
-0.0445306
-0.113237
-0.183231
-0.211267
-0.185641
-0.128892
-0.0729558
-0.0330539
-0.000593311
0.0209852
0.0439247
0.0345612
-0.00296552
-0.0557649
-0.107959
-0.111011
-0.091167
-0.041351
0.0376201
0.0199992
-0.224594
-0.220723
-0.199879
-0.172488
-0.145169
-0.119205
-0.0939501
-0.0687482
-0.0437094
-0.019547
0.00333052
0.0245843
0.043142
0.0584481
0.0683838
0.0749253
0.0761363
0.0706281
0.0609984
0.0500916
0.0364368
0.0187441
-0.00583411
-0.0407864
-0.0771397
-0.096485
-0.0898012
-0.0716348
-0.0502411
-0.0302104
-0.0128093
0.00162796
0.0138613
0.0221931
0.024513
0.0223229
0.0231091
0.0294206
0.029421
0.0138298
-0.0280394
-0.0940486
-0.165302
-0.198913
-0.177617
-0.121378
-0.0662739
-0.0277421
0.0034767
0.0241915
0.0479732
0.0403909
0.00164581
-0.0527394
-0.108013
-0.111692
-0.0915431
-0.0421025
0.0382867
0.020813
-0.198473
-0.198084
-0.17962
-0.153684
-0.128088
-0.104556
-0.0821856
-0.0598398
-0.0373229
-0.0152813
0.00560143
0.0249195
0.0420055
0.0563007
0.066866
0.0745444
0.077344
0.0740931
0.0672659
0.0600774
0.0509085
0.0350486
0.00837834
-0.0274375
-0.0592284
-0.0717381
-0.065835
-0.0514355
-0.0348799
-0.0190321
-0.00447831
0.00804748
0.0186424
0.0260053
0.0284101
0.0263682
0.0262708
0.0320402
0.033765
0.0211239
-0.0166634
-0.0784975
-0.14858
-0.18382
-0.164087
-0.111575
-0.0588888
-0.0223883
0.00725376
0.0267005
0.0505743
0.0440541
0.00477377
-0.050302
-0.107481
-0.110976
-0.0905194
-0.0423944
0.0381762
0.0212725
-0.176512
-0.176572
-0.161404
-0.138701
-0.115623
-0.0942532
-0.0740325
-0.0538576
-0.0333787
-0.0131248
0.00622127
0.0242566
0.0404237
0.0544869
0.0645828
0.0723046
0.07597
0.0744658
0.0698547
0.0651457
0.0582954
0.0432062
0.0177996
-0.012928
-0.0376182
-0.0474805
-0.0444267
-0.0345193
-0.0220348
-0.00943821
0.00269985
0.0134523
0.0226666
0.0292499
0.0317226
0.0296926
0.0287095
0.0339639
0.036263
0.0248075
-0.0101962
-0.0670235
-0.130861
-0.164167
-0.147808
-0.100491
-0.0512938
-0.0172803
0.0107019
0.0286241
0.0524838
0.04645
0.00641675
-0.0485462
-0.106033
-0.109261
-0.0883046
-0.0421808
0.0372544
0.0214342
-0.155663
-0.156228
-0.143985
-0.124352
-0.103632
-0.0841705
-0.0658275
-0.0477034
-0.0293571
-0.0110567
0.00659277
0.0231075
0.0378834
0.0500338
0.0607446
0.0686873
0.0731225
0.0732627
0.0705457
0.0672611
0.0615296
0.0485453
0.0276565
0.0030306
-0.0167129
-0.0257513
-0.025349
-0.0190426
-0.0100026
-0.000467506
0.00931295
0.0183684
0.0261595
0.031678
0.0340304
0.0320806
0.0304102
0.0347468
0.0376219
0.0271902
-0.00529723
-0.0549418
-0.110196
-0.141578
-0.128803
-0.0875812
-0.0431189
-0.0121475
0.0139932
0.0300182
0.0533118
0.0478851
0.00741178
-0.0464556
-0.103362
-0.1061
-0.0847498
-0.0411764
0.0355075
0.0212806
-0.136269
-0.137655
-0.12778
-0.110927
-0.0925803
-0.0751188
-0.0586793
-0.0425469
-0.0262317
-0.00983487
0.00613146
0.0211629
0.0347512
0.0464279
0.0564376
0.0642677
0.0692186
0.0707097
0.0695936
0.0673531
0.0627796
0.052755
0.0365171
0.0172332
0.0012866
-0.00731955
-0.0091628
-0.00601742
0.000139786
0.00722383
0.014968
0.0225026
0.0291101
0.0336154
0.0356697
0.0337441
0.0314841
0.0347136
0.0376329
0.0285628
9.00207e-05
-0.0406539
-0.0877596
-0.116674
-0.107673
-0.0733741
-0.0347283
-0.00728527
0.0169105
0.0309064
0.0528397
0.0483761
0.00831031
-0.0435848
-0.0992822
-0.101579
-0.0797648
-0.0393123
0.0329554
0.0207691
-0.11915
-0.120901
-0.112852
-0.0984399
-0.0823645
-0.0668754
-0.0522501
-0.0379452
-0.0235032
-0.00892693
0.00539524
0.0190062
0.0314553
0.0423823
0.0517472
0.0593048
0.0645378
0.0670253
0.0671821
0.0658368
0.0623484
0.0548185
0.0425484
0.0278504
0.0150482
0.00692178
0.00373042
0.00476887
0.00883924
0.0139851
0.0199364
0.0260412
0.0315545
0.035077
0.0366911
0.0348542
0.0321218
0.0342101
0.036561
0.0292886
0.00590449
-0.0259812
-0.0649996
-0.0907314
-0.0853507
-0.0583101
-0.0261976
-0.00266406
0.0193941
0.0313428
0.0509009
0.0478309
0.00910221
-0.0399469
-0.0936094
-0.0955799
-0.0733581
-0.0364679
0.0297155
0.0198613
-0.103717
-0.105563
-0.0990557
-0.0868334
-0.0728897
-0.0592911
-0.0463943
-0.0338001
-0.0210979
-0.0082258
0.00452566
0.0167511
0.0280559
0.0381245
0.0468359
0.0540154
0.0593143
0.0624092
0.0634475
0.0628493
0.0603224
0.0547982
0.045775
0.034787
0.0247546
0.017504
0.013837
0.01352
0.0159744
0.0196045
0.024063
0.0288838
0.0334753
0.0362192
0.0372972
0.035662
0.0326911
0.0337002
0.0348076
0.0291523
0.0108301
-0.0123626
-0.0430455
-0.065058
-0.0629479
-0.0431103
-0.0177841
0.00162651
0.0213485
0.031458
0.0474461
0.0460953
0.00956852
-0.0354582
-0.0860999
-0.0879408
-0.0656296
-0.0326344
0.025973
0.0185322
-0.089552
-0.0915658
-0.0864021
-0.0761232
-0.0641258
-0.0522894
-0.0410148
-0.0300045
-0.0188977
-0.00760764
0.00364959
0.0145352
0.0247093
0.0338944
0.0419258
0.0486648
0.0538674
0.0572858
0.0589335
0.0589938
0.0573255
0.0533594
0.0468295
0.0388202
0.0313734
0.0250118
0.0213735
0.0203292
0.0216788
0.0242034
0.0274858
0.0311699
0.0349001
0.0370544
0.0376347
0.0362695
0.0333911
0.0335839
0.0331649
0.0282318
0.0147055
-7.8343e-05
-0.0227495
-0.0409573
-0.0415438
-0.0285679
-0.00968345
0.00561751
0.0228075
0.0314204
0.0426713
0.0431208
0.00975002
-0.0297889
-0.0764647
-0.0785868
-0.0568351
-0.0278935
0.021993
0.0167948
-0.0767911
-0.0789153
-0.074864
-0.0662713
-0.0560177
-0.0457916
-0.0360079
-0.0264493
-0.0168063
-0.00698063
0.00287468
0.0124835
0.0215571
0.0298554
0.0372068
0.0434739
0.0484777
0.0520287
0.054074
0.0546655
0.053725
0.0509925
0.0463821
0.0406936
0.0358926
0.0300391
0.0267879
0.0254945
0.0261117
0.0278099
0.0301897
0.0329305
0.0358783
0.0375806
0.0378225
0.0367369
0.0342024
0.0338969
0.0325404
0.027233
0.0181565
0.0106774
-0.00500324
-0.0197939
-0.0228098
-0.0154822
-0.00215796
0.0092997
0.0238753
0.0313508
0.0373219
0.0393513
0.0101549
-0.022501
-0.0645216
-0.067554
-0.0473896
-0.0224669
0.0180692
0.0147177
-0.0653443
-0.067458
-0.0643249
-0.0571996
-0.048498
-0.0397219
-0.0312924
-0.0230608
-0.0147568
-0.00627054
0.00229203
0.0107027
0.0187185
0.0261502
0.0328205
0.0385944
0.0433303
0.0468769
0.0491581
0.0501689
0.0498553
0.0481243
0.0449443
0.0406804
0.0355966
0.0327898
0.0304156
0.0292023
0.0294007
0.0305225
0.0322464
0.0342448
0.0365101
0.0378361
0.0379053
0.0370878
0.035051
0.0345276
0.0331285
0.0277462
0.0222244
0.0197608
0.00919061
-0.00295033
-0.00755027
-0.00438115
0.00457578
0.0126781
0.0246982
0.0311989
0.032845
0.0356974
0.01169
-0.0132902
-0.0503856
-0.055095
-0.0378176
-0.0167004
0.0144988
0.0124378
-0.0549727
-0.0570634
-0.0547053
-0.0488456
-0.0415093
-0.0340317
-0.0268289
-0.0197975
-0.012699
-0.00542068
0.0019645
0.00926575
0.0162556
0.0228766
0.0288747
0.0341443
0.0385688
0.0420272
0.0444355
0.0457691
0.0459849
0.0450688
0.043038
0.0401513
0.0368565
0.0345256
0.0327371
0.0317332
0.0317314
0.0324608
0.0337125
0.0351437
0.0368599
0.0378782
0.0378832
0.0373395
0.0358215
0.0353382
0.0345354
0.0307671
0.0277907
0.0272444
0.0193676
0.00914213
0.0040941
0.00466189
0.0103638
0.0157445
0.0253543
0.0308442
0.0306131
0.0331673
0.0152981
-0.00243198
-0.0348371
-0.0418954
-0.0288087
-0.0110545
0.0115669
0.0101577
-0.0456175
-0.0476663
-0.0459385
-0.0411567
-0.0350177
-0.0286962
-0.0225867
-0.0166203
-0.0105934
-0.00439595
0.00193229
0.0082465
0.0143881
0.0201408
0.0254608
0.0302199
0.034305
0.0376163
0.0400701
0.0416362
0.0422791
0.0420252
0.040914
0.03914
0.0370728
0.0353651
0.0340709
0.0333132
0.0332498
0.0337306
0.0346606
0.0356816
0.0369743
0.0377706
0.0377579
0.037479
0.0364592
0.0361402
0.0361772
0.0347668
0.0336367
0.0329405
0.0261926
0.0174786
0.0127275
0.0118272
0.0151339
0.0185018
0.025864
0.0303741
0.030824
0.0325793
0.0211021
0.00880037
-0.019458
-0.028963
-0.0207446
-0.00604769
0.00950978
0.00814238
-0.0372233
-0.0391776
-0.0379536
-0.0340885
-0.0289888
-0.0236793
-0.0185308
-0.0135041
-0.00842637
-0.00319199
0.00218152
0.00758183
0.0128738
0.0179064
0.0226021
0.0268654
0.0305988
0.0337224
0.0361564
0.0378772
0.0388506
0.0391117
0.0387062
0.037787
0.0365959
0.0354983
0.0346423
0.0341383
0.0341083
0.0344498
0.0351683
0.0359136
0.0368838
0.0375387
0.0375472
0.0374788
0.0369218
0.0367978
0.0374627
0.0376908
0.0376561
0.0363847
0.0304455
0.0231473
0.0189866
0.0173211
0.018902
0.0209017
0.0262494
0.0300042
0.0323358
0.0329689
0.0270748
0.0180472
-0.00631597
-0.0174351
-0.0138118
-0.00209307
0.00835435
0.00663681
-0.0296621
-0.0315022
-0.0306818
-0.0275888
-0.0233844
-0.0189571
-0.0146503
-0.0104475
-0.00620327
-0.00181804
0.00270495
0.00728248
0.0118223
0.0161903
0.0203053
0.0240942
0.0274744
0.0303835
0.0327479
0.034549
0.0357549
0.0364018
0.0365265
0.0362423
0.0356964
0.0351173
0.0346494
0.0343874
0.0344405
0.0347221
0.035306
0.0358847
0.0366217
0.0371857
0.0372545
0.0373227
0.0371501
0.0371864
0.0379375
0.0388555
0.0392155
0.0377951
0.0328025
0.026855
0.0233317
0.0213489
0.0217757
0.0228713
0.0266206
0.0298869
0.0333524
0.0324426
0.030903
0.0236649
0.0030753
-0.00841345
-0.00797843
0.000688986
0.00788621
0.00572254
-0.0228437
-0.0245711
-0.0240741
-0.0216294
-0.018191
-0.0145229
-0.0109415
-0.00744968
-0.00392654
-0.000280652
0.00348815
0.00729027
0.0112066
0.0149768
0.0185561
0.0218953
0.0249261
0.0276015
0.0298564
0.031675
0.0330265
0.033941
0.0344434
0.0346281
0.0345509
0.0343871
0.0342471
0.034204
0.0343611
0.0346403
0.0351439
0.0356331
0.036215
0.036712
0.0368633
0.0370068
0.037103
0.0372642
0.0378937
0.0388805
0.0391821
0.0378727
0.0338643
0.0291198
0.0261681
0.0241603
0.0238996
0.0243807
0.0270542
0.0299082
0.0331293
0.0318326
0.0318378
0.0256261
0.00862248
-0.00200784
-0.0031662
0.00251027
0.0076072
0.00516177
-0.0167403
-0.018339
-0.0180824
-0.0161675
-0.0133748
-0.0103564
-0.00739894
-0.00451595
-0.00160527
0.00142328
0.00459305
0.00788672
0.0110772
0.0142521
0.0173225
0.0202345
0.0229244
0.0253546
0.0274685
0.0292512
0.030671
0.0317528
0.03251
0.0329953
0.0332779
0.0334365
0.0335643
0.033711
0.0339731
0.0342855
0.0347464
0.0351921
0.0356819
0.0361236
0.0363533
0.0365378
0.0367828
0.0370393
0.0374659
0.0382472
0.0383476
0.0372081
0.034096
0.030371
0.0278884
0.0260206
0.0254084
0.0254712
0.0274745
0.0298478
0.0320718
0.0311444
0.031229
0.025733
0.0117902
0.00235508
0.000592878
0.00371705
0.00708798
0.00451911
-0.0112774
-0.0127274
-0.0126418
-0.0111651
-0.00891808
-0.00645499
-0.00403289
-0.00167275
0.000707994
0.00318539
0.00579216
0.00849271
0.0112083
0.013905
0.0165311
0.019053
0.02142
0.0236024
0.0255519
0.0272555
0.0286842
0.0298545
0.0307707
0.0314628
0.0319803
0.0323722
0.0327055
0.0330084
0.033364
0.0337251
0.0341694
0.0345958
0.0350356
0.0354339
0.0357167
0.0359259
0.0362308
0.0364421
0.0367467
0.0372658
0.0371777
0.0361923
0.033816
0.0309263
0.0288267
0.0271495
0.0264254
0.0262145
0.0277079
0.0294898
0.0307076
0.0302
0.0298445
0.0250366
0.0136781
0.00535226
0.00330329
0.00464538
0.00634965
0.0037429
-0.00640683
-0.00773366
-0.00778704
-0.00663978
-0.00483038
-0.00282695
-0.000853861
0.001065
0.00299834
0.00502015
0.00714526
0.0093646
0.011628
0.0138958
0.0161257
0.018293
0.0203566
0.0222935
0.0240645
0.0256579
0.0270471
0.0282386
0.0292319
0.0300527
0.0307234
0.031274
0.0317533
0.0321763
0.032607
0.0330173
0.0334608
0.0338798
0.0342927
0.0346588
0.0349625
0.0351797
0.0354138
0.0356724
0.0358465
0.0361241
0.0359059
0.0350482
0.0332332
0.0310067
0.0292319
0.0277882
0.0270429
0.0266524
0.0276364
0.0288318
0.0292887
0.0289021
0.0280502
0.0239276
0.0147835
0.00746979
0.00516898
0.00531227
0.00557435
0.00298381
-0.00202576
-0.00321767
-0.00336555
-0.00251367
-0.00108393
0.00052918
0.00212509
0.00367443
0.00523285
0.00686378
0.00859183
0.0104087
0.0122784
0.0141692
0.0160469
0.0178923
0.0196738
0.0213735
0.0229596
0.0244195
0.0257317
0.0268925
0.0279135
0.0287936
0.02955
0.0301976
0.030771
0.0312778
0.031763
0.032213
0.0326611
0.0330768
0.0334734
0.0338178
0.0341212
0.0343467
0.0345544
0.0347647
0.0348387
0.03493
0.0346364
0.0338867
0.0324816
0.0307632
0.0292739
0.0280225
0.0273088
0.0268065
0.0272797
0.0279478
0.0279029
0.027116
0.0261133
0.0226313
0.0153295
0.00895994
0.00644808
0.00576799
0.00493848
0.00236523
0.00188409
0.00081447
0.000600038
0.00122366
0.00234495
0.00363274
0.00491137
0.0061507
0.00739586
0.00870234
0.0100951
0.0115709
0.0131029
0.014666
0.016233
0.0177896
0.0193123
0.0207858
0.0221853
0.0234998
0.0247111
0.0258188
0.0268102
0.0276975
0.0284866
0.0291817
0.0298054
0.030362
0.0308802
0.031355
0.0318062
0.032218
0.0326011
0.0329291
0.0332184
0.033441
0.0336145
0.033769
0.0337747
0.0337403
0.0334111
0.0327535
0.031645
0.0303015
0.029058
0.0279495
0.0272609
0.0267041
0.0267275
0.0269624
0.026599
0.0255684
0.0242666
0.0212974
0.0154729
0.00996408
0.0073153
0.00606653
0.00451811
0.00192597
0.00534737
0.00440526
0.00415886
0.00460627
0.0054747
0.00649066
0.00750381
0.00848475
0.00946924
0.0105055
0.0116177
0.012806
0.0140502
0.0153308
0.0166264
0.0179261
0.019213
0.0204751
0.0216922
0.0228524
0.0239381
0.0249634
0.0259045
0.0267644
0.0275464
0.0282506
0.0288895
0.0294656
0.0299957
0.0304793
0.0309275
0.031331
0.0316984
0.0320106
0.0322791
0.0324879
0.0326283
0.0327308
0.0326925
0.0325814
0.0322431
0.0316629
0.03077
0.0296943
0.0286511
0.0276612
0.0269749
0.0263834
0.0260637
0.0259301
0.025352
0.0241267
0.0226018
0.020012
0.0153421
0.0105892
0.00787724
0.00625016
0.00426123
0.00164873
0.00843452
0.0076116
0.00734664
0.0076526
0.00831409
0.00910621
0.00990024
0.0106677
0.011437
0.0122492
0.0131277
0.0140748
0.0150752
0.0161137
0.0171739
0.0182473
0.0193219
0.020389
0.0214333
0.0224444
0.0234122
0.0243273
0.0251887
0.0259919
0.026736
0.0274186
0.0280445
0.0286149
0.0291383
0.0296151
0.030051
0.0304399
0.0307874
0.0310816
0.0313259
0.0315128
0.0316241
0.0316837
0.0316181
0.031464
0.031133
0.0306168
0.0298799
0.0289937
0.0281017
0.0272157
0.0265069
0.025877
0.0253284
0.0248903
0.0241505
0.0228186
0.0211487
0.0188177
0.0150323
0.0109254
0.00821074
0.00634985
0.00411513
0.0014864
0.0111742
0.010456
0.0101855
0.0103836
0.0108794
0.0114885
0.012102
0.0126936
0.0132859
0.0139136
0.0145982
0.0153436
0.0161384
0.0169706
0.017828
0.018704
0.0195895
0.0204788
0.0213604
0.0222251
0.0230633
0.0238708
0.0246407
0.0253698
0.026055
0.0266931
0.0272843
0.0278284
0.0283284
0.0287843
0.0291982
0.0295657
0.0298887
0.0301603
0.0303782
0.0305398
0.0306261
0.0306519
0.030569
0.030393
0.0300766
0.0296124
0.0289858
0.0282363
0.0274503
0.0266472
0.0259175
0.0252406
0.0245513
0.0238784
0.0230019
0.0216357
0.019897
0.0177333
0.0146088
0.0110487
0.00837567
0.00637963
0.00402928
0.00139542
0.0135912
0.0129725
0.0127089
0.0128249
0.013187
0.0136459
0.0141111
0.0145587
0.0150062
0.0154827
0.0160073
0.0165847
0.0172071
0.0178647
0.018548
0.0192528
0.0199725
0.0207024
0.0214343
0.0221626
0.0228808
0.0235714
0.0242408
0.0248842
0.0254969
0.0260751
0.0266158
0.0271179
0.0275809
0.028004
0.0283867
0.0287256
0.0290196
0.0292638
0.0294533
0.0295883
0.0296526
0.0296516
0.0295566
0.0293707
0.029069
0.0286471
0.0280967
0.0274437
0.0267318
0.0259875
0.0252478
0.0245223
0.0237459
0.0229141
0.0219208
0.020558
0.0188177
0.0167649
0.0141176
0.0110176
0.00841573
0.00634746
0.00396798
0.00134469
0.0157237
0.0151945
0.0149432
0.0149965
0.0152512
0.015588
0.0159319
0.016262
0.0165916
0.0169447
0.0173381
0.0177765
0.0182545
0.0187646
0.0192998
0.0198569
0.0204315
0.0210201
0.0216157
0.0222134
0.0228069
0.0233931
0.0239637
0.024518
0.0250511
0.0255601
0.0260402
0.0264894
0.0269051
0.0272861
0.0276299
0.0279335
0.0281937
0.0284059
0.0285669
0.0286745
0.0287171
0.028694
0.0285883
0.0283981
0.0281085
0.0277188
0.0272204
0.0266328
0.025974
0.0252679
0.0245269
0.0237619
0.0229266
0.0220005
0.0209188
0.0195678
0.0178757
0.0159092
0.0135931
0.0108741
0.0083638
0.00626272
0.00390808
0.0013139
0.0175969
0.0171466
0.0169115
0.0169181
0.0170875
0.0173252
0.0175703
0.0178048
0.0180387
0.0182917
0.0185778
0.0189018
0.0192598
0.0196461
0.0200557
0.0204864
0.020935
0.0213995
0.0218744
0.022355
0.022836
0.0233155
0.0237902
0.0242541
0.0247046
0.0251405
0.0255547
0.0259443
0.0263061
0.026638
0.0269369
0.0271999
0.0274217
0.0275999
0.0277297
0.0278096
0.0278294
0.0277866
0.0276698
0.0274764
0.0271954
0.0268273
0.0263643
0.0258192
0.0251983
0.0245173
0.0237779
0.0229878
0.0221108
0.0211344
0.0199991
0.0186572
0.0170387
0.0151554
0.0130613
0.010649
0.00824736
0.00613768