/*--------------------------------*- C++ -*----------------------------------*\
| =========                 |                                                 |
| \\      /  F ield         | OpenFOAM: The Open Source CFD Toolbox           |
|  \\    /   O peration     | Version:  2312                                  |
|   \\  /    A nd           | Website:  www.openfoam.com                      |
|    \\/     M anipulation  |                                                 |
\*---------------------------------------------------------------------------*/
FoamFile
{
    version     2.0;
    format      ascii;
    arch        "LSB;label=32;scalar=64";
    class       volVectorField;
    location    "25.5";
    object      U;
}
// * * * * * * * * * * * * * * * * * * * * * * * * * * * * * * * * * * * * * //

dimensions      [0 1 -1 0 0 0 0];

internalField   nonuniform List<vector> 
5478
(
(-0.0277197 0.0210266 -5.9221e-20)
(-0.0576549 0.047118 0)
(-0.0594772 0.0618299 8.94756e-20)
(-0.0306205 0.0695915 -1.56631e-19)
(0.0327837 0.0740989 1.02507e-19)
(0.134864 0.0796488 -3.01848e-20)
(0.273826 0.0893562 -5.31871e-20)
(0.439147 0.104185 0)
(0.616985 0.122305 0)
(0.789701 0.143199 7.71818e-20)
(0.94492 0.15762 -3.31333e-20)
(1.07576 0.177101 -6.16659e-20)
(1.16651 0.170162 -2.64458e-20)
(1.23051 0.185691 0)
(1.25979 0.146419 8.46047e-20)
(-0.0345953 0.0205472 1.18616e-19)
(-0.0593883 0.0380105 0)
(-0.0410835 0.045058 0)
(0.0269916 0.0504907 -7.82917e-20)
(0.150191 0.0606781 1.03266e-19)
(0.32232 0.0796011 3.00025e-20)
(0.52211 0.106808 -5.29733e-20)
(0.723392 0.137958 4.69657e-20)
(0.90363 0.168464 1.24236e-19)
(1.0473 0.191413 -1.10072e-19)
(1.14962 0.207238 1.87861e-21)
(1.20668 0.208752 0)
(1.22948 0.203347 2.63954e-20)
(1.22654 0.190484 0)
(1.20819 0.168358 0)
(-0.0398409 0.0196117 -2.94804e-22)
(-0.0483017 0.0306376 -5.49394e-20)
(0.0112557 0.0356651 2.72539e-22)
(0.146197 0.047953 0)
(0.347581 0.0750318 -3.50753e-20)
(0.579304 0.114428 3.03882e-20)
(0.799518 0.15743 2.63436e-20)
(0.97877 0.195297 0)
(1.10347 0.220932 -4.09727e-20)
(1.17489 0.233732 3.60539e-20)
(1.20181 0.231381 3.16536e-20)
(1.20205 0.223843 0)
(1.19133 0.206229 0)
(1.18289 0.198313 -7.9109e-20)
(1.18018 0.178235 7.06762e-20)
(-0.0400518 0.0163956 -6.39402e-20)
(-0.0160909 0.0222068 5.42255e-20)
(0.110355 0.0339378 -4.68457e-20)
(0.332209 0.0671068 4.16048e-20)
(0.596631 0.119024 7.0737e-20)
(0.837921 0.173969 -6.08969e-20)
(1.01729 0.218247 -2.63203e-20)
(1.12583 0.244595 2.2207e-20)
(1.17551 0.254202 -2.04762e-20)
(1.18729 0.249774 0)
(1.18414 0.241404 0)
(1.18033 0.228667 -4.86599e-20)
(1.1815 0.220022 6.48176e-20)
(1.1832 0.210617 -3.73725e-20)
(1.18736 0.196079 0)
(-0.0318971 0.0110867 3.23609e-20)
(0.0473652 0.0148481 2.72872e-20)
(0.2661 0.0482005 -9.84836e-20)
(0.563438 0.113224 1.21933e-21)
(0.835661 0.183088 -3.40902e-22)
(1.02571 0.235964 -7.09157e-22)
(1.12931 0.264639 2.56806e-20)
(1.17054 0.273348 2.22734e-20)
(1.17955 0.269581 1.74329e-20)
(1.17922 0.262239 -1.43372e-21)
(1.17836 0.252853 -4.06072e-20)
(1.17742 0.24395 0)
(1.17279 0.233971 2.04506e-20)
(1.16737 0.221895 -1.6823e-20)
(1.15773 0.210203 2.92817e-20)
(-0.0120102 0.00525036 -6.99147e-20)
(0.151397 0.0168657 7.57768e-20)
(0.467564 0.089071 -2.64379e-20)
(0.786575 0.179693 2.04651e-20)
(1.00733 0.247602 -3.7636e-20)
(1.12263 0.283241 -2.96864e-20)
(1.1672 0.294511 5.88348e-22)
(1.17801 0.292595 0)
(1.17754 0.286082 3.46062e-20)
(1.17326 0.276956 -3.07743e-20)
(1.16691 0.267262 1.30288e-20)
(1.15952 0.255843 0)
(1.15439 0.245539 8.55154e-21)
(1.15082 0.233733 -1.5983e-20)
(1.15197 0.22531 0)
(0.0244212 0.00141752 -8.72749e-21)
(0.29714 0.0405798 8.27962e-22)
(0.673345 0.154517 1.26027e-20)
(0.954749 0.249869 2.22172e-20)
(1.10421 0.301018 -1.78324e-20)
(1.16287 0.318986 3.03373e-20)
(1.1769 0.319408 -6.85557e-21)
(1.17396 0.31265 0)
(1.16579 0.30262 -2.0303e-20)
(1.15743 0.291798 9.52008e-22)
(1.15102 0.280423 1.75476e-20)
(1.14711 0.269728 0)
(1.14321 0.259321 -1.24013e-20)
(1.14011 0.247188 0)
(1.13379 0.239912 8.5081e-21)
(0.0808497 0.00534109 -9.83309e-21)
(0.465327 0.0944696 0)
(0.842457 0.231661 1.38904e-20)
(1.06075 0.31469 0)
(1.15068 0.34668 0)
(1.17314 0.350884 0)
(1.1694 0.343511 -6.06228e-21)
(1.15921 0.332096 0)
(1.14988 0.319976 4.05383e-21)
(1.14246 0.307614 0)
(1.13601 0.295566 -5.53573e-21)
(1.12947 0.283318 0)
(1.12419 0.271315 3.84518e-21)
(1.12029 0.259198 0)
(1.11894 0.251685 2.70321e-21)
(-0.0122722 -0.000769425 -6.67578e-21)
(-0.0494145 0.00235118 0)
(-0.102768 0.00606139 1.07749e-20)
(-0.153849 0.00975849 0)
(-0.201048 0.0137683 0)
(-0.245174 0.01859 0)
(-0.286278 0.0245401 -7.43574e-21)
(-0.324514 0.0318373 0)
(-0.35998 0.0405632 6.32972e-21)
(-0.392614 0.0508118 0)
(-0.42231 0.0626527 -1.08142e-20)
(-0.448848 0.0760818 0)
(-0.47198 0.091015 9.21274e-21)
(-0.491902 0.107479 0)
(-0.509369 0.125287 7.84247e-21)
(-0.0137839 0.0288105 3.35092e-20)
(-0.0479617 0.0545742 -2.40834e-20)
(-0.0946279 0.0642984 1.08898e-20)
(-0.138756 0.0678509 3.91e-20)
(-0.178551 0.0700196 5.33811e-22)
(-0.214429 0.0726546 -3.21492e-20)
(-0.246318 0.0762395 2.18963e-20)
(-0.274194 0.08087 0)
(-0.297995 0.0866391 1.91015e-20)
(-0.317557 0.0935818 8.20674e-22)
(-0.332683 0.101697 -1.00598e-20)
(-0.343093 0.110963 0)
(-0.348076 0.121306 -2.69794e-20)
(-0.346918 0.132658 0)
(-0.341991 0.144415 -3.89017e-20)
(-0.0169018 0.0487362 5.47122e-20)
(-0.0467843 0.0940375 1.25012e-20)
(-0.0821218 0.111676 -2.16138e-20)
(-0.114236 0.11676 -5.89066e-20)
(-0.141531 0.11765 3.48453e-20)
(-0.16389 0.118051 3.25629e-20)
(-0.181033 0.119058 -5.80675e-20)
(-0.192807 0.120878 0)
(-0.199112 0.123564 -4.99863e-20)
(-0.199734 0.127042 4.44458e-20)
(-0.194227 0.130859 2.05517e-20)
(-0.182965 0.136523 0)
(-0.16409 0.14075 1.77565e-20)
(-0.14212 0.148572 -3.19713e-20)
(-0.098871 0.15115 0)
(-0.0198886 0.0562227 2.82748e-20)
(-0.0459473 0.1153 -7.46349e-20)
(-0.0687956 0.142565 8.83316e-20)
(-0.0866524 0.151815 -7.86101e-20)
(-0.0989245 0.152955 -3.54281e-20)
(-0.105329 0.151617 3.19628e-20)
(-0.105489 0.150098 2.92027e-20)
(-0.0991458 0.149075 2.63395e-20)
(-0.0862978 0.148676 -7.32252e-20)
(-0.0677702 0.14866 -1.25789e-21)
(-0.0397083 0.148593 1.95377e-20)
(-0.0111094 0.151183 0)
(0.0386851 0.148885 3.36463e-20)
(0.0693381 0.150933 9.57751e-20)
(0.156046 0.151294 -5.70283e-20)
(-0.0213445 0.0526697 2.99226e-22)
(-0.0452347 0.117146 5.08067e-20)
(-0.0579111 0.152993 -4.46918e-20)
(-0.0625213 0.168247 3.94909e-20)
(-0.0598996 0.171754 7.06689e-20)
(-0.0503482 0.169989 -6.35524e-20)
(-0.0339309 0.166447 -2.84736e-20)
(-0.0106249 0.162643 -7.91804e-20)
(0.0201492 0.159104 7.09381e-20)
(0.053686 0.155708 0)
(0.107879 0.152744 0)
(0.13919 0.150629 7.36125e-20)
(0.236895 0.146315 -1.66858e-19)
(0.2543 0.142799 6.03198e-20)
(0.405883 0.137198 0)
(-0.0211313 0.0426528 1.3311e-22)
(-0.0448631 0.103402 -5.06688e-20)
(-0.0519798 0.14264 1.34437e-19)
(-0.0472598 0.162342 -3.95132e-20)
(-0.0328208 0.168699 -3.52659e-20)
(-0.00999358 0.167588 3.16125e-20)
(0.0204432 0.163026 2.84871e-20)
(0.0579484 0.157166 5.13949e-20)
(0.106694 0.151892 -9.10093e-20)
(0.153983 0.14529 4.13798e-20)
(0.243062 0.141974 3.76506e-20)
(0.28188 0.135553 0)
(0.443366 0.132544 0)
(0.455174 0.125313 1.20441e-19)
(0.681948 0.121315 -1.0754e-19)
(-0.0207438 0.031713 6.03814e-23)
(-0.0461966 0.082039 0)
(-0.0524564 0.117237 0)
(-0.0432527 0.136345 7.85771e-20)
(-0.0211143 0.143236 -3.49356e-20)
(0.012506 0.142638 3.04297e-20)
(0.0578643 0.13859 5.52531e-20)
(0.116236 0.133514 -4.89977e-20)
(0.193919 0.129292 4.54215e-20)
(0.280386 0.125834 -4.14243e-20)
(0.407804 0.124068 -1.19449e-21)
(0.499648 0.121926 0)
(0.689114 0.124021 3.03568e-20)
(0.744612 0.117454 0)
(0.985936 0.124365 0)
(-0.0225514 0.0240858 -5.85076e-20)
(-0.0510184 0.0616292 0)
(-0.0580478 0.0870963 -8.93769e-20)
(-0.0449098 0.100955 1.56694e-19)
(-0.0121448 0.106158 -1.71708e-19)
(0.0419734 0.106766 -3.05497e-20)
(0.120711 0.106431 5.36158e-20)
(0.225394 0.107911 0)
(0.354536 0.110474 0)
(0.500617 0.119546 -7.99057e-20)
(0.655372 0.122775 -3.8008e-20)
(0.806472 0.137519 6.4663e-20)
(0.958647 0.137006 -3.04043e-20)
(1.06033 0.144616 0)
(1.21044 0.144197 -9.86305e-20)
(-0.525281 0.146052 0)
(-0.542246 0.16843 5.80931e-21)
(-0.541611 0.188356 -5.54164e-21)
(-0.534615 0.206706 0)
(-0.50488 0.213944 -1.59917e-22)
(-0.465383 0.214818 0)
(-0.395703 0.197201 2.80807e-22)
(-0.313392 0.16699 0)
(-0.197853 0.116483 -2.25203e-22)
(-0.0694665 0.0511104 2.73276e-21)
(0.0792589 -0.0388585 -2.60758e-21)
(0.243298 -0.154569 -1.19637e-22)
(0.415208 -0.269404 0)
(0.560648 -0.340275 7.18561e-23)
(0.664395 -0.354444 1.46763e-23)
(0.729885 -0.323434 0)
(0.772143 -0.277168 0)
(0.799921 -0.224242 0)
(0.826282 -0.181796 3.40264e-23)
(0.84855 -0.140706 0)
(0.871433 -0.115019 0)
(0.887708 -0.0897465 4.03306e-23)
(0.904693 -0.0789892 -7.98573e-23)
(0.915816 -0.0655124 -2.81979e-23)
(0.927985 -0.064103 0)
(0.935463 -0.0563183 0)
(0.943043 -0.0569134 0)
(0.945782 -0.0492642 0)
(0.947596 -0.0509643 1.70227e-23)
(0.947536 -0.0435169 1.34408e-23)
(0.949296 -0.0457846 -1.06571e-23)
(0.952952 -0.0358558 -4.66325e-24)
(0.958167 -0.0358732 3.00567e-24)
(0.964619 -0.02329 0)
(0.969803 -0.0220375 8.3382e-25)
(0.975332 -0.00827981 -7.98766e-25)
(0.977905 -0.00757992 1.36892e-25)
(0.98215 0.00711895 -1.30813e-25)
(-0.338501 0.161367 -8.96126e-22)
(-0.346145 0.16396 2.23952e-20)
(-0.329272 0.175995 0)
(-0.306562 0.178075 3.3398e-22)
(-0.261884 0.171889 -1.62439e-22)
(-0.207927 0.157644 0)
(-0.128114 0.126855 -2.8285e-22)
(-0.0370623 0.0843759 1.57953e-20)
(0.0813496 0.0231775 -1.53557e-20)
(0.205208 -0.0486443 4.19936e-22)
(0.342218 -0.143372 0)
(0.495684 -0.259847 1.2044e-22)
(0.641312 -0.363238 0)
(0.742482 -0.408861 -1.67514e-22)
(0.794495 -0.396014 -1.47694e-23)
(0.81337 -0.344844 -7.52926e-25)
(0.819553 -0.287944 -9.05253e-22)
(0.823639 -0.231673 8.6423e-22)
(0.83297 -0.189233 9.29983e-22)
(0.848209 -0.149403 -9.72559e-22)
(0.86857 -0.123841 -4.62091e-23)
(0.889502 -0.0976311 3.52912e-22)
(0.910581 -0.0852927 -3.6141e-22)
(0.92735 -0.0701421 -2.279e-22)
(0.941506 -0.0672873 3.54711e-22)
(0.950951 -0.0584488 -1.53944e-22)
(0.958721 -0.0580575 -2.71494e-23)
(0.962523 -0.049556 0)
(0.964401 -0.0506989 -5.09667e-23)
(0.963915 -0.043223 -1.34793e-23)
(0.963651 -0.0458501 1.06838e-23)
(0.964431 -0.0364129 4.14762e-23)
(0.966378 -0.0367579 -3.53773e-23)
(0.970063 -0.0242895 1.21828e-24)
(0.973213 -0.022963 1.10321e-24)
(0.977573 -0.00901473 1.1074e-23)
(0.979521 -0.00816764 7.13753e-24)
(0.983504 0.006731 -5.3265e-25)
(-0.077495 0.159625 4.61197e-20)
(-0.0782235 0.156067 -4.43415e-20)
(-0.0536983 0.154934 0)
(-0.0242052 0.14625 4.42052e-20)
(0.0248731 0.127789 -4.15084e-20)
(0.0845122 0.100843 6.36358e-22)
(0.161669 0.0602814 0)
(0.249217 0.0102558 5.47494e-22)
(0.3544 -0.0570925 0)
(0.463446 -0.133203 -8.7154e-22)
(0.587714 -0.22933 -2.13335e-20)
(0.724649 -0.341911 2.03493e-20)
(0.831743 -0.424887 1.01715e-20)
(0.87625 -0.441311 -1.45187e-20)
(0.873465 -0.406879 4.71141e-21)
(0.852346 -0.347053 7.63402e-25)
(0.835889 -0.289833 0)
(0.829414 -0.236164 7.66224e-22)
(0.833344 -0.195757 -6.18153e-22)
(0.844368 -0.157711 5.25117e-23)
(0.86084 -0.133146 -3.49519e-23)
(0.879754 -0.106991 -5.74525e-22)
(0.899745 -0.0936303 5.53468e-22)
(0.918035 -0.0768144 3.92308e-22)
(0.933679 -0.0721964 -4.13118e-22)
(0.945914 -0.0619763 0)
(0.955929 -0.0604788 2.73796e-23)
(0.963204 -0.0509704 4.24291e-23)
(0.968084 -0.0512968 -9.0492e-23)
(0.970544 -0.0433337 6.94726e-23)
(0.971502 -0.0458784 8.7132e-23)
(0.972285 -0.0366068 -2.35352e-23)
(0.97291 -0.0371814 -4.16463e-23)
(0.975001 -0.0248772 1.32282e-23)
(0.976599 -0.02361 1.48639e-23)
(0.97993 -0.00958987 -2.22761e-23)
(0.981246 -0.00868146 5.61523e-24)
(0.98491 0.00636672 -1.0803e-24)
(0.177506 0.144631 3.47989e-22)
(0.194014 0.137915 4.61014e-20)
(0.221682 0.12835 -9.02413e-20)
(0.256108 0.113417 4.34605e-20)
(0.302336 0.0893991 6.70056e-22)
(0.359805 0.0550908 -6.53129e-22)
(0.429036 0.010211 0)
(0.508529 -0.0470106 0)
(0.60217 -0.118926 0)
(0.697723 -0.197508 -2.73754e-20)
(0.80994 -0.293791 2.57594e-20)
(0.919737 -0.395401 6.06814e-22)
(0.973812 -0.452348 -8.38528e-22)
(0.960321 -0.443307 2.39287e-22)
(0.916123 -0.397879 2.69196e-22)
(0.87457 -0.339881 0)
(0.851056 -0.288888 -2.8995e-22)
(0.842239 -0.240977 2.44279e-22)
(0.845442 -0.204033 -8.46132e-23)
(0.854004 -0.166834 0)
(0.868096 -0.142356 8.32229e-23)
(0.883342 -0.11583 0)
(0.900158 -0.101566 6.26271e-23)
(0.915964 -0.0834768 -4.5004e-23)
(0.930491 -0.0774632 4.21146e-23)
(0.942525 -0.0661074 0)
(0.952755 -0.0637189 0)
(0.961256 -0.053361 -1.9948e-22)
(0.967882 -0.0528907 2.40477e-22)
(0.972683 -0.0442389 -1.93803e-23)
(0.975291 -0.0463702 -9.51616e-23)
(0.97705 -0.0369215 -6.40091e-23)
(0.977502 -0.0375019 1.14141e-22)
(0.978965 -0.0252688 -2.64612e-23)
(0.979611 -0.0240764 -1.85134e-23)
(0.982211 -0.01004 0)
(0.982997 -0.00912345 -6.70077e-24)
(0.986346 0.00602851 0)
(0.414982 0.127859 -3.61406e-22)
(0.438469 0.115903 0)
(0.468627 0.101549 7.18291e-22)
(0.504536 0.081871 -7.09186e-22)
(0.549017 0.0528351 -1.37003e-21)
(0.605036 0.0141985 6.55427e-22)
(0.669045 -0.0341591 3.99946e-20)
(0.743916 -0.0950945 -7.62345e-20)
(0.827584 -0.167785 3.52213e-20)
(0.912291 -0.247124 0)
(1.00435 -0.338156 1.59286e-21)
(1.06495 -0.414942 -6.26954e-22)
(1.05865 -0.443851 -1.1926e-20)
(1.00275 -0.421744 1.21023e-20)
(0.941242 -0.379865 -1.58172e-22)
(0.898619 -0.332458 1.8649e-21)
(0.877784 -0.290507 -1.49962e-21)
(0.869686 -0.247763 -3.5539e-23)
(0.871515 -0.213547 -3.89219e-22)
(0.876727 -0.176639 1.09075e-21)
(0.887173 -0.151307 1.18517e-22)
(0.898535 -0.123975 -3.25686e-23)
(0.911964 -0.10884 -9.23856e-22)
(0.924598 -0.0896535 1.90143e-22)
(0.936943 -0.0824213 0)
(0.947243 -0.0700176 0)
(0.956051 -0.0668709 0)
(0.963667 -0.0558643 0)
(0.970028 -0.0547879 1.59279e-22)
(0.975321 -0.045509 -1.19201e-22)
(0.978451 -0.0471555 -1.24134e-22)
(0.980698 -0.0373856 7.68437e-23)
(0.981069 -0.0378314 -7.90856e-23)
(0.982247 -0.0255836 4.86288e-23)
(0.982286 -0.0244406 1.64998e-23)
(0.984385 -0.0104074 6.82795e-24)
(0.984748 -0.00950828 4.46941e-24)
(0.987809 0.00571305 0)
(0.677845 0.111216 0)
(0.691631 0.0972232 9.36531e-20)
(0.7168 0.0808036 -8.88568e-20)
(0.747597 0.057355 -9.19206e-20)
(0.786642 0.0267988 8.82504e-20)
(0.837363 -0.0129021 -2.98336e-23)
(0.895486 -0.0627263 6.57354e-22)
(0.962929 -0.123895 0)
(1.03187 -0.19452 -6.73321e-20)
(1.09732 -0.270625 6.464e-20)
(1.15023 -0.347561 -8.26007e-22)
(1.1488 -0.397429 3.63349e-20)
(1.09311 -0.407816 -6.20967e-20)
(1.02325 -0.389938 7.05896e-21)
(0.967048 -0.362536 1.73434e-20)
(0.929922 -0.327491 1.08397e-22)
(0.908843 -0.29301 2.0687e-23)
(0.897259 -0.253888 0)
(0.894432 -0.221156 0)
(0.895896 -0.184967 -2.24262e-23)
(0.902685 -0.159098 -1.5972e-23)
(0.911336 -0.130961 4.88455e-23)
(0.922441 -0.115097 -4.72316e-23)
(0.933391 -0.0951492 -5.12156e-23)
(0.94424 -0.086944 5.70942e-22)
(0.953486 -0.0736092 -5.431e-22)
(0.961144 -0.0697546 -5.07019e-23)
(0.96791 -0.0581953 0)
(0.973531 -0.0566307 3.35292e-23)
(0.978622 -0.046816 0)
(0.981593 -0.0480033 1.25448e-22)
(0.983907 -0.0378937 -9.4935e-23)
(0.984081 -0.0381558 0)
(0.985088 -0.0258565 -1.76415e-23)
(0.984703 -0.0247363 3.56458e-23)
(0.986463 -0.0107155 -1.36623e-23)
(0.986496 -0.00984156 0)
(0.989299 0.00541752 2.21279e-24)
(0.974544 0.107602 -1.75244e-22)
(0.976031 0.0904968 0)
(0.988329 0.0695696 -9.38896e-20)
(1.00716 0.0410321 8.93305e-20)
(1.03485 0.00430069 9.04455e-20)
(1.07028 -0.0379437 -8.67554e-20)
(1.11165 -0.0894655 0)
(1.15667 -0.148298 -7.66764e-20)
(1.19565 -0.21201 7.29348e-20)
(1.22346 -0.276267 0)
(1.22033 -0.330397 4.0817e-22)
(1.16951 -0.359621 1.01086e-21)
(1.10001 -0.364345 -2.61659e-22)
(1.04114 -0.358824 -2.09953e-20)
(0.996705 -0.346427 1.97741e-20)
(0.961786 -0.320434 8.11897e-21)
(0.936264 -0.291485 -7.74592e-21)
(0.918864 -0.256099 -1.54813e-21)
(0.910535 -0.225913 1.47107e-21)
(0.907899 -0.191651 -3.35348e-23)
(0.911244 -0.166985 -7.09209e-22)
(0.917595 -0.138585 1.33384e-21)
(0.926882 -0.12148 -6.95896e-22)
(0.937042 -0.100384 5.97141e-22)
(0.94724 -0.091106 -9.22406e-23)
(0.956418 -0.0768995 -5.22986e-22)
(0.963808 -0.0723898 -3.28692e-22)
(0.970568 -0.0603583 3.81822e-22)
(0.975916 -0.0583603 -3.43059e-23)
(0.981055 -0.0480835 2.7158e-23)
(0.983908 -0.0488374 1.04092e-22)
(0.986356 -0.0384141 2.37489e-23)
(0.98643 -0.0384728 -4.82471e-23)
(0.987442 -0.0261178 -1.1165e-23)
(0.986817 -0.0249927 0)
(0.988404 -0.010992 3.79913e-24)
(0.988206 -0.0101301 -1.14405e-23)
(0.990806 0.00513897 2.27057e-24)
(1.20239 0.121445 9.28709e-20)
(1.19954 0.105555 0)
(1.20173 0.0852825 9.17953e-20)
(1.20696 0.0576759 -1.77877e-19)
(1.21827 0.023129 8.57931e-20)
(1.23411 -0.0167673 0)
(1.25106 -0.0661704 0)
(1.2659 -0.120834 0)
(1.27221 -0.17933 0)
(1.26196 -0.235658 0)
(1.22455 -0.282493 -4.36167e-22)
(1.16804 -0.314809 -4.24134e-20)
(1.11298 -0.335282 4.02089e-20)
(1.06603 -0.344257 2.08298e-22)
(1.02543 -0.341145 0)
(0.988544 -0.323026 0)
(0.958337 -0.299293 1.10335e-22)
(0.936452 -0.266789 0)
(0.924317 -0.237699 -1.09116e-21)
(0.918494 -0.203469 1.03726e-21)
(0.919169 -0.177858 4.22243e-22)
(0.923498 -0.14818 1.76005e-22)
(0.930901 -0.129658 -5.16298e-22)
(0.939619 -0.107156 0)
(0.948797 -0.0964015 5.59356e-22)
(0.95766 -0.0809281 -9.44267e-22)
(0.964855 -0.0754758 4.24676e-22)
(0.97175 -0.0627589 -2.11051e-23)
(0.977023 -0.0602143 0)
(0.982352 -0.0494098 -2.78163e-23)
(0.985215 -0.0497114 -2.24656e-23)
(0.987927 -0.0389635 -8.47564e-23)
(0.988051 -0.0388073 4.85472e-23)
(0.989241 -0.0263782 1.1283e-23)
(0.988554 -0.0252259 0)
(0.99013 -0.0112446 -5.89363e-24)
(0.989809 -0.0103885 0)
(0.992297 0.00488096 -2.23625e-24)
(1.25367 0.129063 0)
(1.26137 0.105759 0)
(1.26398 0.0820211 0)
(1.26622 0.0544986 0)
(1.27089 0.0229711 0)
(1.27471 -0.0148113 0)
(1.27601 -0.0563406 0)
(1.27293 -0.100031 0)
(1.2622 -0.145233 0)
(1.23941 -0.18722 0)
(1.20569 -0.224436 0)
(1.1669 -0.254462 0)
(1.12781 -0.276585 0)
(1.08823 -0.287327 0)
(1.04912 -0.290143 0)
(1.01224 -0.282351 0)
(0.980907 -0.269171 0)
(0.956447 -0.246408 0)
(0.940998 -0.225263 0)
(0.93206 -0.197265 0)
(0.929654 -0.175948 0)
(0.931219 -0.149673 0)
(0.936373 -0.133307 0)
(0.943439 -0.111806 0)
(0.9514 -0.100965 0)
(0.959522 -0.0850835 0)
(0.966233 -0.0790086 0)
(0.972923 -0.0657668 0)
(0.977958 -0.0626388 0)
(0.98328 -0.0513048 0)
(0.986085 -0.0510374 0)
(0.988985 -0.0399023 0)
(0.98919 -0.0394018 0)
(0.99058 -0.0268472 0)
(0.989927 -0.0255682 0)
(0.991571 -0.0115716 0)
(0.991219 -0.0106558 0)
(0.99367 0.00460197 0)
(1.22992 0.128287 0)
(1.24624 0.10345 0)
(1.25386 0.0783832 0)
(1.25708 0.0514562 0)
(1.25874 0.0197323 0)
(1.25963 -0.0167682 0)
(1.2582 -0.0560649 0)
(1.25197 -0.0973112 0)
(1.23942 -0.140381 0)
(1.21909 -0.181927 0)
(1.19193 -0.220713 0)
(1.15956 -0.252856 0)
(1.12323 -0.277167 0)
(1.08403 -0.290361 0)
(1.04578 -0.294392 0)
(1.01075 -0.285969 0)
(0.981964 -0.271877 0)
(0.960275 -0.24831 0)
(0.947145 -0.226675 0)
(0.939686 -0.198822 0)
(0.937784 -0.177848 0)
(0.939172 -0.151757 0)
(0.943585 -0.135191 0)
(0.949597 -0.113551 0)
(0.956365 -0.102555 0)
(0.963468 -0.0864617 0)
(0.969327 -0.0801581 0)
(0.975424 -0.0667532 0)
(0.97988 -0.0634985 0)
(0.984854 -0.0519701 0)
(0.987328 -0.0514711 0)
(0.990189 -0.0400854 0)
(0.990331 -0.039454 0)
(0.991839 -0.0268352 0)
(0.991191 -0.0255979 0)
(0.992916 -0.0116328 0)
(0.992534 -0.0107939 0)
(0.994988 0.00440186 0)
(1.21112 0.120509 0)
(1.22829 0.0966298 0)
(1.23649 0.0716315 0)
(1.23882 0.0446857 0)
(1.2393 0.0150587 0)
(1.23913 -0.0171663 0)
(1.23692 -0.0526533 0)
(1.23078 -0.0897358 0)
(1.21987 -0.127739 0)
(1.20298 -0.163878 0)
(1.18033 -0.196855 0)
(1.1523 -0.223169 0)
(1.12044 -0.243532 0)
(1.08675 -0.254276 0)
(1.05419 -0.258609 0)
(1.02426 -0.253896 0)
(0.999173 -0.246062 0)
(0.978943 -0.229547 0)
(0.965033 -0.214344 0)
(0.955734 -0.191782 0)
(0.951374 -0.174417 0)
(0.950403 -0.150824 0)
(0.952543 -0.13586 0)
(0.95678 -0.115231 0)
(0.962 -0.10461 0)
(0.967996 -0.0885073 0)
(0.972945 -0.0819983 0)
(0.978455 -0.0683599 0)
(0.982307 -0.0648369 0)
(0.986889 -0.0529915 0)
(0.988951 -0.0521448 0)
(0.991685 -0.0404664 0)
(0.991687 -0.0396365 0)
(0.993248 -0.0269409 0)
(0.992559 -0.0256967 0)
(0.994336 -0.011788 0)
(0.993917 -0.0109969 0)
(0.99638 0.00416033 0)
(1.19669 0.113741 0)
(1.21245 0.091309 0)
(1.22032 0.0668773 0)
(1.22237 0.0412162 0)
(1.22214 0.0136574 0)
(1.22072 -0.0159312 0)
(1.21766 -0.0482397 0)
(1.21183 -0.0817089 0)
(1.20216 -0.11604 0)
(1.18771 -0.14898 0)
(1.16828 -0.179959 0)
(1.14394 -0.206154 0)
(1.11637 -0.228198 0)
(1.08709 -0.242436 0)
(1.05838 -0.251467 0)
(1.03143 -0.250733 0)
(1.00795 -0.245712 0)
(0.988178 -0.230727 0)
(0.973895 -0.216034 0)
(0.964158 -0.19364 0)
(0.959117 -0.176416 0)
(0.957488 -0.153087 0)
(0.958759 -0.138247 0)
(0.962225 -0.117692 0)
(0.966568 -0.106914 0)
(0.971899 -0.0905629 0)
(0.976225 -0.0837397 0)
(0.981354 -0.069849 0)
(0.98474 -0.066065 0)
(0.989033 -0.0539351 0)
(0.990736 -0.0527727 0)
(0.993372 -0.0408337 0)
(0.99324 -0.0398244 0)
(0.994849 -0.0270707 0)
(0.994107 -0.0258153 0)
(0.995913 -0.0119522 0)
(0.995438 -0.0111908 0)
(0.997887 0.00389859 0)
(1.18249 0.106296 0)
(1.19676 0.0855217 0)
(1.20438 0.0626013 0)
(1.20628 0.0384574 0)
(1.20543 0.0125858 0)
(1.20333 -0.0148159 0)
(1.19996 -0.0441548 0)
(1.19441 -0.0743866 0)
(1.18587 -0.105487 0)
(1.17347 -0.13539 0)
(1.15695 -0.164099 0)
(1.13641 -0.188417 0)
(1.11314 -0.209033 0)
(1.08832 -0.222081 0)
(1.06368 -0.230288 0)
(1.03986 -0.229528 0)
(1.01849 -0.226025 0)
(0.999981 -0.213891 0)
(0.986053 -0.202763 0)
(0.97606 -0.184145 0)
(0.970186 -0.170339 0)
(0.967433 -0.149746 0)
(0.967307 -0.13687 0)
(0.969459 -0.117681 0)
(0.972489 -0.107677 0)
(0.976798 -0.091691 0)
(0.980228 -0.0849617 0)
(0.984779 -0.0710459 0)
(0.987568 -0.0671259 0)
(0.991499 -0.0547784 0)
(0.992794 -0.0533438 0)
(0.995311 -0.0411759 0)
(0.995023 -0.0399938 0)
(0.996668 -0.0271908 0)
(0.995861 -0.0259217 0)
(0.997677 -0.0121243 0)
(0.997134 -0.0113928 0)
(0.999541 0.00361068 0)
(1.16881 0.0984356 0)
(1.18171 0.0795085 0)
(1.18877 0.0583961 0)
(1.19057 0.0359193 0)
(1.18962 0.0120079 0)
(1.18732 -0.0130609 0)
(1.18387 -0.039735 0)
(1.1787 -0.0670759 0)
(1.17119 -0.0952763 0)
(1.16057 -0.122461 0)
(1.14669 -0.148876 0)
(1.12954 -0.171431 0)
(1.11 -0.191229 0)
(1.08882 -0.204557 0)
(1.06721 -0.214689 0)
(1.0459 -0.217049 0)
(1.02652 -0.217336 0)
(1.00954 -0.208722 0)
(0.996287 -0.200446 0)
(0.986418 -0.183832 0)
(0.98007 -0.171387 0)
(0.976615 -0.15163 0)
(0.975431 -0.139191 0)
(0.976592 -0.120223 0)
(0.978524 -0.110158 0)
(0.981959 -0.0939688 0)
(0.984531 -0.0869327 0)
(0.988506 -0.0727259 0)
(0.99066 -0.0684704 0)
(0.994223 -0.0557806 0)
(0.995097 -0.0539942 0)
(0.997497 -0.0415773 0)
(0.997035 -0.0402 0)
(0.998703 -0.0273453 0)
(0.997816 -0.026034 0)
(0.99963 -0.0123061 0)
(0.999013 -0.0116069 0)
(1.00136 0.0032906 0)
(1.1564 0.0911132 0)
(1.16772 0.0739306 0)
(1.17411 0.0546358 0)
(1.17587 0.0340207 0)
(1.17494 0.0120313 0)
(1.1726 -0.0109387 0)
(1.16925 -0.0353064 0)
(1.16454 -0.0601354 0)
(1.15798 -0.0858406 0)
(1.14899 -0.110597 0)
(1.13742 -0.134958 0)
(1.12316 -0.156007 0)
(1.10676 -0.175155 0)
(1.0887 -0.188664 0)
(1.07008 -0.199648 0)
(1.05163 -0.203029 0)
(1.03463 -0.20448 0)
(1.0194 -0.197312 0)
(1.00693 -0.190803 0)
(0.997178 -0.176159 0)
(0.990329 -0.165736 0)
(0.98617 -0.147875 0)
(0.983924 -0.136972 0)
(0.984092 -0.119233 0)
(0.984914 -0.109963 0)
(0.987477 -0.0942877 0)
(0.989168 -0.0875088 0)
(0.992557 -0.0734473 0)
(0.994049 -0.0691744 0)
(0.997234 -0.0563751 0)
(0.997662 -0.0543841 0)
(0.999934 -0.0418278 0)
(0.999276 -0.0403145 0)
(1.00096 -0.0274754 0)
(0.999969 -0.0261438 0)
(1.00176 -0.012504 0)
(1.00106 -0.0117778 0)
(1.00334 0.00298441 0)
(1.14521 0.0843493 0)
(1.15499 0.0687707 0)
(1.16066 0.0512353 0)
(1.16228 0.0324128 0)
(1.1614 0.0122459 0)
(1.15919 -0.00876024 0)
(1.1561 -0.0310311 0)
(1.1519 -0.0536272 0)
(1.14627 -0.0771 0)
(1.13871 -0.0996952 0)
(1.12907 -0.122258 0)
(1.11723 -0.141926 0)
(1.10352 -0.160422 0)
(1.08836 -0.173748 0)
(1.07257 -0.185163 0)
(1.05676 -0.189469 0)
(1.04179 -0.192644 0)
(1.02803 -0.187691 0)
(1.01632 -0.183751 0)
(1.00689 -0.171448 0)
(0.999859 -0.163103 0)
(0.995347 -0.146865 0)
(0.992326 -0.137126 0)
(0.991721 -0.120175 0)
(0.991562 -0.111305 0)
(0.993336 -0.0958012 0)
(0.994162 -0.0889833 0)
(0.996975 -0.07482 0)
(0.997785 -0.0703151 0)
(1.0006 -0.0572734 0)
(1.00057 -0.0549698 0)
(1.00269 -0.0422165 0)
(1.00178 -0.0404782 0)
(1.00343 -0.0276076 0)
(1.00232 -0.0262048 0)
(1.0041 -0.0126924 0)
(1.00331 -0.0120443 0)
(1.00548 0.00257073 0)
(1.13535 0.0781367 0)
(1.14371 0.0640569 0)
(1.14864 0.0481637 0)
(1.15009 0.0310579 0)
(1.14929 0.0126616 0)
(1.14727 -0.00648664 0)
(1.14449 -0.0268615 0)
(1.1408 -0.0474792 0)
(1.13599 -0.0690209 0)
(1.12966 -0.0897642 0)
(1.12166 -0.110748 0)
(1.11189 -0.129148 0)
(1.10055 -0.146906 0)
(1.08797 -0.159923 0)
(1.07467 -0.171683 0)
(1.06118 -0.176857 0)
(1.0481 -0.181484 0)
(1.03592 -0.178171 0)
(1.02522 -0.176014 0)
(1.0164 -0.165367 0)
(1.00935 -0.158586 0)
(1.00464 -0.143767 0)
(1.00096 -0.135193 0)
(0.999686 -0.11922 0)
(0.998599 -0.110986 0)
(0.999629 -0.0959361 0)
(0.99958 -0.0893248 0)
(1.00182 -0.075303 0)
(1.0019 -0.07076 0)
(1.00431 -0.0576533 0)
(1.00378 -0.0551892 0)
(1.00575 -0.0424071 0)
(1.00457 -0.0405668 0)
(1.00617 -0.0277675 0)
(1.00488 -0.0263 0)
(1.00656 -0.0128681 0)
(1.00568 -0.0120813 0)
(1.00781 0.00233666 0)
(1.12703 0.0725921 0)
(1.13407 0.0598674 0)
(1.13829 0.0454702 0)
(1.13958 0.029945 0)
(1.13886 0.0131414 0)
(1.137 -0.00434724 0)
(1.1345 -0.0230308 0)
(1.13129 -0.0418967 0)
(1.12721 -0.061752 0)
(1.12192 -0.0808449 0)
(1.11532 -0.100416 0)
(1.10731 -0.117623 0)
(1.09797 -0.134655 0)
(1.0876 -0.147317 0)
(1.07645 -0.159333 0)
(1.06506 -0.165099 0)
(1.0538 -0.170824 0)
(1.04319 -0.168786 0)
(1.03354 -0.168231 0)
(1.02541 -0.159178 0)
(1.01847 -0.153997 0)
(1.01373 -0.140623 0)
(1.00954 -0.13326 0)
(1.00777 -0.118299 0)
(1.00586 -0.110728 0)
(1.00625 -0.0961767 0)
(1.00536 -0.0897919 0)
(1.00705 -0.0759243 0)
(1.0064 -0.0713088 0)
(1.00842 -0.058128 0)
(1.00735 -0.0554118 0)
(1.00912 -0.0425384 0)
(1.00761 -0.0405058 0)
(1.00914 -0.0278014 0)
(1.0077 -0.0263116 0)
(1.00937 -0.0131264 0)
(1.00835 -0.012514 0)
(1.01027 0.00168418 0)
(1.12027 0.0680099 0)
(1.12612 0.0564982 0)
(1.12967 0.0434401 0)
(1.13071 0.0293391 0)
(1.13004 0.0139872 0)
(1.12841 -0.00199502 0)
(1.12624 -0.0191908 0)
(1.12345 -0.0365323 0)
(1.11999 -0.054939 0)
(1.11561 -0.0726136 0)
(1.11016 -0.0909853 0)
(1.10362 -0.10715 0)
(1.09595 -0.123545 0)
(1.08745 -0.135839 0)
(1.07816 -0.147997 0)
(1.06865 -0.154139 0)
(1.05904 -0.160737 0)
(1.04992 -0.159739 0)
(1.04131 -0.160569 0)
(1.03399 -0.152889 0)
(1.02727 -0.149105 0)
(1.02267 -0.136995 0)
(1.01812 -0.130716 0)
(1.016 -0.1167 0)
(1.01338 -0.109775 0)
(1.01322 -0.0957476 0)
(1.01152 -0.0896448 0)
(1.01273 -0.0760411 0)
(1.01133 -0.0714573 0)
(1.01295 -0.0583126 0)
(1.01132 -0.0554853 0)
(1.01289 -0.0426454 0)
(1.01101 -0.0404326 0)
(1.01239 -0.0277726 0)
(1.01063 -0.0261136 0)
(1.01211 -0.0130305 0)
(1.01101 -0.0121782 0)
(1.013 0.00176017 0)
(1.11528 0.0636529 0)
(1.1201 0.0532379 0)
(1.12306 0.0413821 0)
(1.12398 0.0285534 0)
(1.12338 0.0144832 0)
(1.12184 -0.000168133 0)
(1.11985 -0.0160375 0)
(1.11741 -0.0320101 0)
(1.11445 -0.0491286 0)
(1.11078 -0.0655312 0)
(1.10626 -0.0828303 0)
(1.10093 -0.0980269 0)
(1.09461 -0.113809 0)
(1.08768 -0.125668 0)
(1.07998 -0.137846 0)
(1.07212 -0.14418 0)
(1.06397 -0.151442 0)
(1.05623 -0.151232 0)
(1.04863 -0.153191 0)
(1.04219 -0.14667 0)
(1.03581 -0.144106 0)
(1.03149 -0.133152 0)
(1.02669 -0.127867 0)
(1.02438 -0.114775 0)
(1.02113 -0.108461 0)
(1.02052 -0.0949685 0)
(1.01803 -0.089106 0)
(1.01878 -0.0757702 0)
(1.01663 -0.0712152 0)
(1.01787 -0.0581742 0)
(1.01564 -0.0552438 0)
(1.01698 -0.0425457 0)
(1.01469 -0.0403382 0)
(1.01597 -0.0279927 0)
(1.01407 -0.0264406 0)
(1.01555 -0.0136848 0)
(1.01424 -0.0130401 0)
(1.01575 0.000569006 0)
(1.11183 0.0610131 0)
(1.11575 0.0515697 0)
(1.11815 0.0407711 0)
(1.11881 0.0290737 0)
(1.11825 0.0161331 0)
(1.11697 0.00264705 0)
(1.1153 -0.0121206 0)
(1.1132 -0.026965 0)
(1.11066 -0.0430484 0)
(1.10761 -0.0584117 0)
(1.10384 -0.0748723 0)
(1.09948 -0.0892765 0)
(1.09425 -0.1046 0)
(1.08862 -0.116085 0)
(1.08222 -0.128326 0)
(1.07576 -0.13479 0)
(1.06884 -0.142623 0)
(1.06236 -0.143002 0)
(1.05565 -0.145894 0)
(1.0501 -0.140276 0)
(1.04407 -0.138744 0)
(1.04016 -0.128755 0)
(1.03522 -0.124359 0)
(1.03288 -0.112124 0)
(1.02915 -0.106442 0)
(1.02823 -0.0935366 0)
(1.02499 -0.0879907 0)
(1.02535 -0.0750042 0)
(1.02244 -0.0705042 0)
(1.02328 -0.0575557 0)
(1.02036 -0.0544754 0)
(1.02145 -0.0418396 0)
(1.01864 -0.0393073 0)
(1.0197 -0.0270395 0)
(1.01731 -0.0251901 0)
(1.01851 -0.0127081 0)
(1.01709 -0.0118514 0)
(1.01897 0.00138231 0)
(1.11097 0.0569099 0)
(1.11414 0.0484034 0)
(1.11613 0.0386015 0)
(1.11672 0.0279585 0)
(1.11617 0.0160713 0)
(1.11482 0.00367584 0)
(1.11311 -0.0100185 0)
(1.11117 -0.023752 0)
(1.1089 -0.0388271 0)
(1.10625 -0.053172 0)
(1.10299 -0.0688061 0)
(1.09936 -0.0824059 0)
(1.09494 -0.0972288 0)
(1.09033 -0.108268 0)
(1.08497 -0.12046 0)
(1.0797 -0.12692 0)
(1.07384 -0.135142 0)
(1.06852 -0.135941 0)
(1.06262 -0.139549 0)
(1.05799 -0.134671 0)
(1.05233 -0.133958 0)
(1.0489 -0.124804 0)
(1.04383 -0.121096 0)
(1.04152 -0.109609 0)
(1.03729 -0.104405 0)
(1.03613 -0.0921008 0)
(1.03217 -0.0868372 0)
(1.03218 -0.0743022 0)
(1.02859 -0.0700231 0)
(1.02907 -0.0574322 0)
(1.02556 -0.0544768 0)
(1.02638 -0.0422253 0)
(1.02315 -0.0399 0)
(1.02402 -0.0281151 0)
(1.0215 -0.0264923 0)
(1.02262 -0.0143681 0)
(1.02096 -0.013612 0)
(1.02192 -0.000829453 0)
(1.11102 0.0570918 0)
(1.11352 0.0493914 0)
(1.11503 0.0404346 0)
(1.11539 0.0306905 0)
(1.11492 0.0196573 0)
(1.11395 0.00815257 0)
(1.11264 -0.00472975 0)
(1.11101 -0.0176382 0)
(1.10901 -0.032037 0)
(1.10675 -0.0456607 0)
(1.10394 -0.0608097 0)
(1.10091 -0.0738742 0)
(1.09712 -0.0885055 0)
(1.09332 -0.0992872 0)
(1.08871 -0.111649 0)
(1.08439 -0.118158 0)