/*--------------------------------*- C++ -*----------------------------------*\
| =========                 |                                                 |
| \\      /  F ield         | OpenFOAM: The Open Source CFD Toolbox           |
|  \\    /   O peration     | Version:  2512                                  |
|   \\  /    A nd           | Website:  www.openfoam.com                      |
|    \\/     M anipulation  |                                                 |
\*---------------------------------------------------------------------------*/
FoamFile
{
    version     2.0;
    format      ascii;
    arch        "LSB;label=32;scalar=64";
    class       volVectorField;
    location    "22.5";
    object      U;
}
// * * * * * * * * * * * * * * * * * * * * * * * * * * * * * * * * * * * * * //

dimensions      [0 1 -1 0 0 0 0];

internalField   nonuniform List<vector> 
9800
(
(1 -2.49306e-05 0)
(1.0001 -7.67901e-05 0)
(1.0003 -0.00013034 0)
(1.00059 -0.000185817 0)
(1.00097 -0.00024309 0)
(1.00143 -0.000300734 0)
(1.00197 -0.000356943 0)
(1.00258 -0.000410704 0)
(1.00324 -0.000461319 0)
(1.00396 -0.000508144 0)
(1.00471 -0.000551094 0)
(1.0055 -0.000590387 0)
(1.0063 -0.000625938 0)
(1.00713 -0.000657612 0)
(1.00796 -0.000685644 0)
(1.00879 -0.000710427 0)
(1.00962 -0.000732202 0)
(1.01045 -0.00075113 0)
(1.01126 -0.000767409 0)
(1.01207 -0.000781217 0)
(1.01286 -0.00079266 0)
(1.01363 -0.000801825 0)
(1.01438 -0.000808825 0)
(1.01511 -0.000813772 0)
(1.01582 -0.000816764 0)
(1.01651 -0.000817894 0)
(1.01717 -0.000817269 0)
(1.01781 -0.000814986 0)
(1.01843 -0.000811134 0)
(1.01902 -0.00080579 0)
(1.01959 -0.000799043 0)
(1.02013 -0.000790986 0)
(1.02064 -0.000781718 0)
(1.02114 -0.000771333 0)
(1.02161 -0.00075994 0)
(1.02205 -0.000747657 0)
(1.02247 -0.000734609 0)
(1.02287 -0.000720919 0)
(1.02325 -0.000706702 0)
(1.02361 -0.000692068 0)
(1 -7.37729e-05 0)
(1.0001 -0.000226942 0)
(1.0003 -0.000385609 0)
(1.00058 -0.000550526 0)
(1.00096 -0.000720143 0)
(1.00142 -0.000890524 0)
(1.00196 -0.00105735 0)
(1.00257 -0.00121744 0)
(1.00324 -0.00136833 0)
(1.00395 -0.00150811 0)
(1.00471 -0.00163617 0)
(1.0055 -0.00175288 0)
(1.00631 -0.00185852 0)
(1.00713 -0.00195328 0)
(1.00797 -0.00203771 0)
(1.00881 -0.00211245 0)
(1.00965 -0.00217799 0)
(1.01048 -0.00223491 0)
(1.01131 -0.00228389 0)
(1.01212 -0.00232555 0)
(1.01292 -0.00236027 0)
(1.0137 -0.00238833 0)
(1.01446 -0.00240998 0)
(1.01521 -0.00242546 0)
(1.01593 -0.00243502 0)
(1.01663 -0.00243892 0)
(1.0173 -0.00243748 0)
(1.01795 -0.00243099 0)
(1.01858 -0.0024197 0)
(1.01918 -0.00240387 0)
(1.01975 -0.00238378 0)
(1.02031 -0.00235971 0)
(1.02083 -0.00233197 0)
(1.02133 -0.00230085 0)
(1.02181 -0.0022667 0)
(1.02226 -0.00222987 0)
(1.02269 -0.00219073 0)
(1.0231 -0.00214964 0)
(1.02349 -0.00210693 0)
(1.02385 -0.00206293 0)
(1 -0.00012026 0)
(1.0001 -0.000370095 0)
(1.00029 -0.000629698 0)
(1.00058 -0.000900087 0)
(1.00095 -0.0011779 0)
(1.00141 -0.00145706 0)
(1.00195 -0.00173133 0)
(1.00255 -0.00199528 0)
(1.00322 -0.00224448 0)
(1.00394 -0.00247596 0)
(1.0047 -0.00268836 0)
(1.00549 -0.00288162 0)
(1.00631 -0.00305647 0)
(1.00714 -0.00321403 0)
(1.00799 -0.00335534 0)
(1.00884 -0.00348109 0)
(1.00969 -0.00359189 0)
(1.01054 -0.00368856 0)
(1.01138 -0.00377208 0)
(1.01221 -0.00384324 0)
(1.01303 -0.0039027 0)
(1.01383 -0.003951 0)
(1.01461 -0.00398867 0)
(1.01538 -0.0040161 0)
(1.01612 -0.00403363 0)
(1.01684 -0.00404161 0)
(1.01754 -0.00404051 0)
(1.01821 -0.00403074 0)
(1.01886 -0.00401275 0)
(1.01948 -0.00398698 0)
(1.02008 -0.00395392 0)
(1.02065 -0.00391408 0)
(1.02119 -0.00386798 0)
(1.02171 -0.00381614 0)
(1.0222 -0.00375915 0)
(1.02267 -0.00369758 0)
(1.02312 -0.00363204 0)
(1.02354 -0.00356311 0)
(1.02393 -0.00349135 0)
(1.02431 -0.00341733 0)
(1 -0.000164099 0)
(1.0001 -0.000505647 0)
(1.00029 -0.000861427 0)
(1.00057 -0.0012327 0)
(1.00094 -0.00161491 0)
(1.00139 -0.00200001 0)
(1.00192 -0.00237925 0)
(1.00253 -0.00274483 0)
(1.00319 -0.00309066 0)
(1.00391 -0.00341284 0)
(1.00468 -0.00370943 0)
(1.00547 -0.00398007 0)
(1.0063 -0.00422562 0)
(1.00715 -0.00444757 0)
(1.008 -0.00464728 0)
(1.00887 -0.00482584 0)
(1.00974 -0.00498427 0)
(1.01061 -0.00512366 0)
(1.01148 -0.00524497 0)
(1.01233 -0.00534894 0)
(1.01318 -0.00543632 0)
(1.01401 -0.00550783 0)
(1.01482 -0.00556423 0)
(1.01562 -0.00560607 0)
(1.01639 -0.00563386 0)
(1.01714 -0.00564807 0)
(1.01787 -0.00564924 0)
(1.01858 -0.00563788 0)
(1.01925 -0.00561455 0)
(1.01991 -0.0055798 0)
(1.02053 -0.00553434 0)
(1.02113 -0.00547888 0)
(1.0217 -0.00541422 0)
(1.02225 -0.00534113 0)
(1.02277 -0.00526044 0)
(1.02326 -0.00517302 0)
(1.02372 -0.00507971 0)
(1.02416 -0.00498139 0)
(1.02458 -0.00487886 0)
(1.02497 -0.00477298 0)
(1 -0.000205054 0)
(1.00009 -0.000632869 0)
(1.00028 -0.00107981 0)
(1.00055 -0.00154735 0)
(1.00091 -0.00203007 0)
(1.00136 -0.00251816 0)
(1.00189 -0.00300018 0)
(1.00249 -0.00346575 0)
(1.00315 -0.00390709 0)
(1.00387 -0.00431943 0)
(1.00464 -0.00470053 0)
(1.00544 -0.00505003 0)
(1.00628 -0.00536877 0)
(1.00714 -0.00565815 0)
(1.00801 -0.00591954 0)
(1.0089 -0.00615436 0)
(1.00979 -0.00636411 0)
(1.01069 -0.00655005 0)
(1.01158 -0.00671312 0)
(1.01247 -0.00685412 0)
(1.01335 -0.00697387 0)
(1.01422 -0.00707315 0)
(1.01507 -0.00715265 0)
(1.01591 -0.00721293 0)
(1.01672 -0.0072546 0)
(1.01752 -0.0072782 0)
(1.01829 -0.00728432 0)
(1.01903 -0.00727352 0)
(1.01975 -0.00724647 0)
(1.02045 -0.0072039 0)
(1.02111 -0.00714672 0)
(1.02175 -0.00707583 0)
(1.02236 -0.0069923 0)
(1.02294 -0.00689719 0)
(1.02349 -0.00679164 0)
(1.02401 -0.0066768 0)
(1.0245 -0.00655383 0)
(1.02497 -0.00642392 0)
(1.02541 -0.00628819 0)
(1.02583 -0.00614779 0)
(1 -0.000242865 0)
(1.00009 -0.000751066 0)
(1.00027 -0.00128392 0)
(1.00053 -0.00184308 0)
(1.00089 -0.00242232 0)
(1.00133 -0.00300997 0)
(1.00184 -0.00359228 0)
(1.00244 -0.00415652 0)
(1.0031 -0.00469294 0)
(1.00382 -0.00519583 0)
(1.00458 -0.00566266 0)
(1.00539 -0.00609285 0)
(1.00624 -0.00648708 0)
(1.00711 -0.00684694 0)
(1.008 -0.00717414 0)
(1.00891 -0.00747031 0)
(1.00983 -0.0077369 0)
(1.01076 -0.00797503 0)
(1.01169 -0.00818555 0)
(1.01261 -0.00836928 0)
(1.01353 -0.00852709 0)
(1.01444 -0.00865971 0)
(1.01534 -0.00876777 0)
(1.01623 -0.00885173 0)
(1.01709 -0.00891215 0)
(1.01794 -0.00894945 0)
(1.01876 -0.00896416 0)
(1.01956 -0.00895682 0)
(1.02033 -0.0089283 0)
(1.02108 -0.00887948 0)
(1.02179 -0.0088115 0)
(1.02248 -0.0087255 0)
(1.02313 -0.00862284 0)
(1.02376 -0.0085049 0)
(1.02435 -0.00837317 0)
(1.02492 -0.00822912 0)
(1.02545 -0.00807428 0)
(1.02595 -0.00791017 0)
(1.02642 -0.00773826 0)
(1.02687 -0.00756006 0)
(1 -0.000277446 0)
(1.00008 -0.000859689 0)
(1.00025 -0.00147254 0)
(1.00051 -0.00211851 0)
(1.00085 -0.00279031 0)
(1.00128 -0.0034741 0)
(1.00179 -0.00415404 0)
(1.00237 -0.0048152 0)
(1.00302 -0.00544621 0)
(1.00373 -0.00604034 0)
(1.0045 -0.00659447 0)
(1.00532 -0.00710775 0)
(1.00617 -0.00758078 0)
(1.00705 -0.00801529 0)
(1.00796 -0.00841308 0)
(1.0089 -0.00877587 0)
(1.00984 -0.00910509 0)
(1.0108 -0.00940189 0)
(1.01177 -0.00966705 0)
(1.01274 -0.00990112 0)
(1.01371 -0.0101046 0)
(1.01467 -0.010278 0)
(1.01562 -0.0104217 0)
(1.01656 -0.010536 0)
(1.01749 -0.0106212 0)
(1.0184 -0.0106777 0)
(1.01928 -0.0107058 0)
(1.02015 -0.0107061 0)
(1.02098 -0.0106795 0)
(1.02179 -0.0106269 0)
(1.02257 -0.0105498 0)
(1.02331 -0.0104495 0)
(1.02402 -0.0103277 0)
(1.02471 -0.0101861 0)
(1.02535 -0.0100266 0)
(1.02597 -0.0098512 0)
(1.02655 -0.00966169 0)
(1.02709 -0.00946008 0)
(1.02761 -0.00924821 0)
(1.02809 -0.00902804 0)
(1 -0.000308547 0)
(1.00008 -0.000958208 0)
(1.00024 -0.00164502 0)
(1.00048 -0.00237234 0)
(1.00081 -0.0031322 0)
(1.00122 -0.00390887 0)
(1.00171 -0.00468369 0)
(1.00228 -0.00543966 0)
(1.00292 -0.00616435 0)
(1.00363 -0.00685017 0)
(1.00439 -0.00749316 0)
(1.0052 -0.0080922 0)
(1.00606 -0.00864784 0)
(1.00696 -0.00916174 0)
(1.00788 -0.00963567 0)
(1.00884 -0.0100713 0)
(1.00981 -0.0104702 0)
(1.01081 -0.0108334 0)
(1.01181 -0.0111615 0)
(1.01283 -0.0114547 0)
(1.01385 -0.0117129 0)
(1.01487 -0.0119361 0)
(1.01589 -0.0121242 0)
(1.0169 -0.012277 0)
(1.01789 -0.0123948 0)
(1.01887 -0.0124773 0)
(1.01983 -0.012525 0)
(1.02077 -0.0125382 0)
(1.02168 -0.012518 0)
(1.02256 -0.0124654 0)
(1.02341 -0.0123818 0)
(1.02423 -0.0122688 0)
(1.02502 -0.0121284 0)
(1.02576 -0.0119629 0)
(1.02648 -0.0117744 0)
(1.02715 -0.0115654 0)
(1.02779 -0.0113383 0)
(1.02839 -0.0110956 0)
(1.02896 -0.0108394 0)
(1.02949 -0.0105724 0)
(1 -0.000335931 0)
(1.00007 -0.00104613 0)
(1.00022 -0.00180067 0)
(1.00045 -0.00260359 0)
(1.00076 -0.00344647 0)
(1.00115 -0.00431189 0)
(1.00162 -0.00517841 0)
(1.00217 -0.00602731 0)
(1.0028 -0.00684494 0)
(1.00349 -0.00762255 0)
(1.00424 -0.00835545 0)
(1.00505 -0.0090425 0)
(1.00591 -0.0096843 0)
(1.00681 -0.0102825 0)
(1.00775 -0.0108387 0)
(1.00873 -0.0113547 0)
(1.00973 -0.0118316 0)
(1.01076 -0.0122703 0)
(1.01181 -0.0126709 0)
(1.01287 -0.0130329 0)
(1.01395 -0.013356 0)
(1.01503 -0.0136394 0)
(1.01612 -0.0138823 0)
(1.0172 -0.014084 0)
(1.01828 -0.0142439 0)
(1.01934 -0.0143616 0)
(1.02038 -0.014437 0)
(1.02141 -0.0144704 0)
(1.02241 -0.0144627 0)
(1.02338 -0.0144147 0)
(1.02432 -0.0143283 0)
(1.02522 -0.0142051 0)
(1.02609 -0.0140476 0)
(1.02692 -0.0138582 0)
(1.02771 -0.0136398 0)
(1.02846 -0.0133953 0)
(1.02917 -0.0131275 0)
(1.02984 -0.0128397 0)
(1.03047 -0.0125344 0)
(1.03106 -0.0122151 0)
(0.999999 -0.000359544 0)
(1.00006 -0.00112301 0)
(1.0002 -0.00193855 0)
(1.00041 -0.00281128 0)
(1.0007 -0.00373204 0)
(1.00106 -0.00468113 0)
(1.00151 -0.00563543 0)
(1.00204 -0.00657492 0)
(1.00264 -0.00748442 0)
(1.00332 -0.00835356 0)
(1.00406 -0.00917702 0)
(1.00486 -0.00995408 0)
(1.00571 -0.0106856 0)
(1.00661 -0.0113733 0)
(1.00756 -0.0120183 0)
(1.00855 -0.0126223 0)
(1.00958 -0.0131861 0)
(1.01064 -0.0137101 0)
(1.01173 -0.0141938 0)
(1.01285 -0.0146362 0)
(1.01399 -0.015036 0)
(1.01514 -0.0153916 0)
(1.0163 -0.0157017 0)
(1.01746 -0.0159644 0)
(1.01862 -0.0161784 0)
(1.01978 -0.0163424 0)
(1.02092 -0.016456 0)
(1.02205 -0.0165188 0)
(1.02315 -0.0165315 0)
(1.02422 -0.0164951 0)
(1.02526 -0.0164111 0)
(1.02627 -0.0162816 0)
(1.02724 -0.0161093 0)
(1.02817 -0.0158971 0)
(1.02905 -0.0156483 0)
(1.02989 -0.0153665 0)
(1.03069 -0.0150551 0)
(1.03144 -0.0147181 0)
(1.03214 -0.0143587 0)
(1.0328 -0.0139809 0)
(0.999999 -0.000379263 0)
(1.00006 -0.00118854 0)
(1.00018 -0.00205817 0)
(1.00036 -0.00299434 0)
(1.00063 -0.0039872 0)
(1.00097 -0.00501484 0)
(1.00139 -0.0060528 0)
(1.00189 -0.00707971 0)
(1.00246 -0.00807873 0)
(1.00311 -0.00903823 0)
(1.00383 -0.00995265 0)
(1.00461 -0.0108218 0)
(1.00545 -0.0116465 0)
(1.00635 -0.0124283 0)
(1.0073 -0.0131683 0)
(1.0083 -0.013868 0)
(1.00935 -0.0145281 0)
(1.01044 -0.0151482 0)
(1.01157 -0.0157269 0)
(1.01274 -0.0162624 0)
(1.01394 -0.0167525 0)
(1.01516 -0.0171947 0)
(1.01639 -0.0175864 0)
(1.01765 -0.0179245 0)
(1.01891 -0.0182067 0)
(1.02017 -0.0184305 0)
(1.02142 -0.0185948 0)
(1.02266 -0.0186985 0)
(1.02387 -0.018742 0)
(1.02507 -0.0187257 0)
(1.02623 -0.0186515 0)
(1.02736 -0.0185212 0)
(1.02844 -0.0183381 0)
(1.02949 -0.0181052 0)
(1.03048 -0.0178267 0)
(1.03143 -0.0175067 0)
(1.03233 -0.0171493 0)
(1.03318 -0.0167593 0)
(1.03397 -0.0163406 0)
(1.03472 -0.0158982 0)
(0.999999 -0.000395026 0)
(1.00005 -0.00124254 0)
(1.00015 -0.00215906 0)
(1.00031 -0.00315207 0)
(1.00055 -0.00421072 0)
(1.00086 -0.00531119 0)
(1.00124 -0.00642806 0)
(1.00171 -0.00753873 0)
(1.00225 -0.00862413 0)
(1.00287 -0.00967199 0)
(1.00356 -0.0106771 0)
(1.00431 -0.0116397 0)
(1.00513 -0.0125604 0)
(1.00602 -0.0134403 0)
(1.00696 -0.014281 0)
(1.00797 -0.0150843 0)
(1.00903 -0.0158504 0)
(1.01014 -0.0165778 0)
(1.01131 -0.0172644 0)
(1.01252 -0.017907 0)
(1.01378 -0.0185028 0)
(1.01507 -0.0190477 0)
(1.01639 -0.0195377 0)
(1.01774 -0.019968 0)
(1.0191 -0.0203348 0)
(1.02047 -0.0206345 0)
(1.02185 -0.0208649 0)
(1.02321 -0.0210238 0)
(1.02456 -0.021111 0)
(1.02589 -0.0211263 0)
(1.02719 -0.0210715 0)
(1.02846 -0.0209484 0)
(1.02968 -0.0207604 0)
(1.03086 -0.0205111 0)
(1.03199 -0.020205 0)
(1.03306 -0.0198469 0)
(1.03409 -0.0194419 0)
(1.03505 -0.0189955 0)
(1.03596 -0.0185125 0)
(1.03681 -0.017999 0)
(0.999999 -0.000406891 0)
(1.00004 -0.00128479 0)
(1.00012 -0.00224083 0)
(1.00026 -0.00328412 0)
(1.00046 -0.00440183 0)
(1.00074 -0.00556857 0)
(1.00108 -0.00675915 0)
(1.00151 -0.00794919 0)
(1.00201 -0.00911699 0)
(1.00258 -0.0102501 0)
(1.00323 -0.0113447 0)
(1.00395 -0.0124012 0)
(1.00475 -0.0134196 0)
(1.00561 -0.0144013 0)
(1.00654 -0.0153484 0)
(1.00754 -0.0162627 0)
(1.0086 -0.0171442 0)
(1.00973 -0.0179903 0)
(1.01093 -0.0187979 0)
(1.01219 -0.0195629 0)
(1.0135 -0.0202812 0)
(1.01486 -0.0209467 0)
(1.01626 -0.0215537 0)
(1.01771 -0.0220953 0)
(1.01918 -0.0225662 0)
(1.02067 -0.0229609 0)
(1.02218 -0.023276 0)
(1.02368 -0.0235077 0)
(1.02518 -0.0236549 0)
(1.02667 -0.0237165 0)
(1.02812 -0.023694 0)
(1.02955 -0.0235887 0)
(1.03093 -0.0234045 0)
(1.03227 -0.023145 0)
(1.03355 -0.0228154 0)
(1.03478 -0.022421 0)
(1.03595 -0.0219678 0)
(1.03706 -0.0214625 0)
(1.0381 -0.0209105 0)
(1.03907 -0.0203194 0)
(0.999999 -0.000414894 0)
(1.00002 -0.00131526 0)
(1.00009 -0.00230345 0)
(1.0002 -0.00339016 0)
(1.00037 -0.00455956 0)
(1.0006 -0.00578602 0)
(1.0009 -0.00704497 0)
(1.00128 -0.00830872 0)
(1.00173 -0.00955334 0)
(1.00226 -0.0107678 0)
(1.00286 -0.0119498 0)
(1.00354 -0.0130997 0)
(1.00429 -0.0142165 0)
(1.00512 -0.0153025 0)
(1.00603 -0.0163605 0)
(1.00701 -0.0173928 0)
(1.00806 -0.0183987 0)
(1.0092 -0.0193748 0)
(1.01042 -0.0203172 0)
(1.01171 -0.0212206 0)
(1.01307 -0.0220792 0)
(1.0145 -0.0228849 0)
(1.01599 -0.0236297 0)
(1.01753 -0.0243043 0)
(1.01912 -0.0249015 0)
(1.02074 -0.0254137 0)
(1.02238 -0.0258355 0)
(1.02404 -0.0261613 0)
(1.02571 -0.0263887 0)
(1.02736 -0.0265151 0)
(1.029 -0.0265413 0)
(1.0306 -0.0264682 0)
(1.03217 -0.0262996 0)
(1.03369 -0.026039 0)
(1.03516 -0.0256923 0)
(1.03657 -0.0252655 0)
(1.03791 -0.0247653 0)
(1.03918 -0.0241995 0)
(1.04038 -0.0235746 0)
(1.04151 -0.0228999 0)
(0.999999 -0.000419111 0)
(1.00001 -0.00133379 0)
(1.00005 -0.00234731 0)
(1.00013 -0.00347033 0)
(1.00027 -0.00468333 0)
(1.00046 -0.00596293 0)
(1.00071 -0.00728435 0)
(1.00103 -0.00861501 0)
(1.00143 -0.00993004 0)
(1.00191 -0.0112216 0)
(1.00245 -0.0124878 0)
(1.00307 -0.0137286 0)
(1.00377 -0.0149428 0)
(1.00455 -0.0161344 0)
(1.00542 -0.0173071 0)
(1.00637 -0.0184634 0)
(1.00741 -0.019602 0)
(1.00854 -0.0207188 0)
(1.00976 -0.0218096 0)
(1.01108 -0.0228676 0)
(1.01248 -0.0238853 0)
(1.01396 -0.024852 0)
(1.01553 -0.0257572 0)
(1.01717 -0.0265892 0)
(1.01888 -0.0273382 0)
(1.02063 -0.0279939 0)
(1.02243 -0.0285484 0)
(1.02426 -0.0289938 0)
(1.0261 -0.0293257 0)
(1.02794 -0.0295396 0)
(1.02978 -0.0296355 0)
(1.03159 -0.029613 0)
(1.03337 -0.0294757 0)
(1.0351 -0.0292269 0)
(1.03678 -0.0288729 0)
(1.0384 -0.0284201 0)
(1.03994 -0.0278763 0)
(1.04141 -0.0272505 0)
(1.0428 -0.0265501 0)
(1.04411 -0.0257865 0)
(0.999999 -0.00041953 0)
(1 -0.00134041 0)
(1.00002 -0.00237326 0)
(1.00007 -0.00352474 0)
(1.00016 -0.00477287 0)
(1.0003 -0.00609948 0)
(1.0005 -0.00747671 0)
(1.00077 -0.00886613 0)
(1.00111 -0.0102447 0)
(1.00151 -0.0116081 0)
(1.00199 -0.0129541 0)
(1.00254 -0.0142817 0)
(1.00318 -0.0155904 0)
(1.0039 -0.0168876 0)
(1.00471 -0.0181775 0)
(1.00562 -0.0194624 0)
(1.00662 -0.0207407 0)
(1.00773 -0.022008 0)
(1.00895 -0.0232602 0)
(1.01027 -0.0244889 0)
(1.0117 -0.0256849 0)
(1.01324 -0.0268343 0)
(1.01488 -0.0279246 0)
(1.01661 -0.0289407 0)
(1.01843 -0.02987 0)
(1.02032 -0.0306988 0)
(1.02228 -0.0314163 0)
(1.02428 -0.0320111 0)
(1.02632 -0.0324767 0)
(1.02837 -0.032806 0)
(1.03043 -0.0329975 0)
(1.03247 -0.033049 0)
(1.03449 -0.0329636 0)
(1.03647 -0.0327437 0)
(1.03839 -0.0323962 0)
(1.04025 -0.0319275 0)
(1.04203 -0.0313466 0)
(1.04374 -0.0306634 0)
(1.04535 -0.0298868 0)
(1.04688 -0.0290301 0)
(0.999999 -0.000415943 0)
(0.999987 -0.00133552 0)
(0.999978 -0.00238242 0)
(0.999997 -0.00355321 0)
(1.00005 -0.00482868 0)
(1.00014 -0.00619686 0)
(1.00028 -0.00762156 0)
(1.00049 -0.0090604 0)
(1.00076 -0.0104955 0)
(1.00109 -0.011925 0)
(1.00149 -0.0133446 0)
(1.00196 -0.0147531 0)
(1.00253 -0.0161525 0)
(1.00317 -0.0175535 0)
(1.00391 -0.0189608 0)
(1.00475 -0.0203768 0)
(1.00571 -0.0218001 0)
(1.00678 -0.0232264 0)
(1.00797 -0.0246521 0)
(1.00929 -0.0260671 0)
(1.01073 -0.0274603 0)
(1.0123 -0.0288151 0)
(1.014 -0.0301161 0)
(1.01582 -0.0313452 0)
(1.01775 -0.0324863 0)
(1.01978 -0.0335214 0)
(1.02189 -0.0344363 0)
(1.02408 -0.0352156 0)
(1.02632 -0.0358496 0)
(1.02861 -0.0363278 0)
(1.03091 -0.0366468 0)
(1.03321 -0.0368014 0)
(1.0355 -0.0367943 0)
(1.03775 -0.0366258 0)
(1.03996 -0.0363036 0)
(1.0421 -0.0358334 0)
(1.04416 -0.0352256 0)
(1.04614 -0.0344909 0)
(1.04802 -0.0336397 0)
(1.04981 -0.0326874 0)
(0.999999 -0.000407891 0)
(0.999972 -0.00132008 0)
(0.999937 -0.00237579 0)
(0.999926 -0.00355553 0)
(0.999935 -0.00485259 0)
(0.999965 -0.0062566 0)
(1.00005 -0.00771826 0)
(1.00019 -0.009197 0)
(1.00039 -0.0106816 0)
(1.00064 -0.0121703 0)
(1.00095 -0.0136556 0)
(1.00134 -0.0151383 0)
(1.00181 -0.0166232 0)
(1.00237 -0.0181242 0)
(1.00302 -0.0196464 0)
(1.00378 -0.0211937 0)
(1.00467 -0.022765 0)
(1.00568 -0.0243571 0)
(1.00683 -0.0259668 0)
(1.00811 -0.0275823 0)
(1.00955 -0.029191 0)
(1.01114 -0.0307735 0)
(1.01288 -0.032312 0)
(1.01477 -0.0337846 0)
(1.0168 -0.0351714 0)
(1.01896 -0.0364497 0)
(1.02123 -0.037601 0)
(1.02361 -0.0386049 0)
(1.02607 -0.039448 0)
(1.0286 -0.0401153 0)
(1.03117 -0.0406004 0)
(1.03376 -0.0408943 0)
(1.03635 -0.0409984 0)
(1.03891 -0.0409104 0)
(1.04144 -0.0406384 0)
(1.04391 -0.0401866 0)
(1.04629 -0.0395671 0)
(1.0486 -0.0387905 0)
(1.05079 -0.0378696 0)
(1.05288 -0.0368215 0)
(1 -0.000394597 0)
(0.999954 -0.00129571 0)
(0.999895 -0.00235382 0)
(0.999855 -0.00353201 0)
(0.999814 -0.00484783 0)
(0.999786 -0.00627967 0)
(0.999809 -0.00776628 0)
(0.999887 -0.00927637 0)
(1 -0.010803 0)
(1.00016 -0.0123425 0)
(1.00037 -0.0138847 0)
(1.00067 -0.0154336 0)
(1.00104 -0.0169975 0)
(1.00149 -0.0185928 0)
(1.00204 -0.0202249 0)
(1.00271 -0.0219005 0)
(1.0035 -0.0236204 0)
(1.00443 -0.0253827 0)
(1.00551 -0.0271846 0)
(1.00674 -0.0290127 0)
(1.00815 -0.0308535 0)
(1.00973 -0.0326853 0)
(1.0115 -0.0344881 0)
(1.01344 -0.0362357 0)
(1.01555 -0.0379045 0)
(1.01783 -0.0394661 0)
(1.02026 -0.0408971 0)
(1.02283 -0.0421713 0)
(1.02551 -0.0432707 0)
(1.0283 -0.0441743 0)
(1.03115 -0.0448719 0)
(1.03406 -0.0453494 0)
(1.03698 -0.045606 0)
(1.0399 -0.0456354 0)
(1.04279 -0.0454458 0)
(1.04563 -0.0450387 0)
(1.04839 -0.0444285 0)
(1.05107 -0.0436245 0)
(1.05363 -0.0426429 0)
(1.05608 -0.0415014 0)
(1 -0.000375027 0)
(0.999933 -0.00126457 0)
(0.999853 -0.00231605 0)
(0.999783 -0.00348438 0)
(0.999688 -0.00481838 0)
(0.999604 -0.00626577 0)
(0.999569 -0.00776588 0)
(0.999574 -0.00930013 0)
(0.999598 -0.0108604 0)
(0.999657 -0.0124411 0)
(0.999774 -0.0140302 0)
(0.999961 -0.0156367 0)
(1.00022 -0.0172713 0)
(1.00055 -0.0189528 0)
(1.00098 -0.0206877 0)
(1.00153 -0.0224863 0)
(1.00221 -0.0243518 0)
(1.00303 -0.0262855 0)
(1.00402 -0.0282845 0)
(1.00517 -0.0303346 0)
(1.00652 -0.0324218 0)
(1.00807 -0.0345229 0)
(1.00983 -0.0366158 0)
(1.01179 -0.0386704 0)
(1.01397 -0.0406586 0)
(1.01635 -0.0425464 0)
(1.01893 -0.0443048 0)
(1.02168 -0.0459008 0)
(1.02459 -0.0473104 0)
(1.02764 -0.0485056 0)
(1.0308 -0.0494708 0)
(1.03405 -0.0501852 0)
(1.03734 -0.050645 0)
(1.04065 -0.0508381 0)
(1.04396 -0.0507721 0)
(1.04722 -0.0504444 0)
(1.05042 -0.0498717 0)
(1.05353 -0.0490608 0)
(1.05652 -0.0480325 0)
(1.05939 -0.0468034 0)
(1 -0.000347822 0)
(0.999908 -0.0012293 0)
(0.999813 -0.00226119 0)
(0.999707 -0.00341681 0)
(0.999556 -0.00476744 0)
(0.999423 -0.00621337 0)
(0.999328 -0.00771907 0)
(0.999253 -0.00927029 0)
(0.999183 -0.0108545 0)
(0.999141 -0.0124669 0)
(0.999152 -0.014092 0)
(0.999224 -0.0157465 0)
(0.999355 -0.0174417 0)
(0.999559 -0.0191993 0)
(0.999854 -0.0210278 0)
(1.00026 -0.0229415 0)
(1.00081 -0.0249467 0)
(1.0015 -0.0270486 0)
(1.00236 -0.0292453 0)
(1.00341 -0.031523 0)
(1.00466 -0.0338678 0)
(1.00614 -0.0362556 0)
(1.00786 -0.0386625 0)
(1.00982 -0.0410549 0)
(1.01203 -0.0434007 0)
(1.01449 -0.0456597 0)
(1.01719 -0.0477968 0)
(1.02012 -0.0497715 0)
(1.02325 -0.0515524 0)
(1.02657 -0.053103 0)
(1.03005 -0.0544007 0)
(1.03366 -0.0554164 0)
(1.03735 -0.0561411 0)
(1.0411 -0.0565552 0)
(1.04487 -0.0566648 0)
(1.04862 -0.0564609 0)
(1.05231 -0.055963 0)
(1.05593 -0.055173 0)
(1.05941 -0.054118 0)
(1.06278 -0.0528115 0)
(1 -0.000310923 0)
(0.999879 -0.00119331 0)
(0.999773 -0.00218746 0)
(0.999626 -0.00333598 0)
(0.999422 -0.00469505 0)
(0.999245 -0.00612127 0)
(0.999085 -0.00762993 0)
(0.998927 -0.00918864 0)
(0.99876 -0.0107874 0)
(0.998614 -0.0124218 0)
(0.998514 -0.0140708 0)
(0.998461 -0.0157634 0)
(0.998457 -0.0175068 0)
(0.998519 -0.019329 0)
(0.998664 -0.0212395 0)
(0.99892 -0.023258 0)
(0.999305 -0.025394 0)
(0.999837 -0.0276571 0)
(1.00054 -0.0300469 0)
(1.00145 -0.0325526 0)
(1.00258 -0.0351619 0)
(1.00395 -0.0378499 0)
(1.0056 -0.0405914 0)
(1.00751 -0.0433503 0)
(1.00972 -0.0460909 0)
(1.01222 -0.048767 0)
(1.01501 -0.0513372 0)
(1.01808 -0.0537528 0)
(1.02143 -0.0559735 0)
(1.02502 -0.0579526 0)
(1.02882 -0.0596584 0)
(1.03281 -0.0610518 0)
(1.03694 -0.062116 0)
(1.04117 -0.0628219 0)
(1.04546 -0.0631718 0)
(1.04976 -0.0631487 0)
(1.05402 -0.0627735 0)
(1.05821 -0.0620416 0)
(1.06228 -0.0609873 0)
(1.06622 -0.0596191 0)
(1 -0.000261099 0)
(0.999843 -0.00116131 0)
(0.999733 -0.00209184 0)
(0.999535 -0.00325046 0)
(0.999289 -0.00459628 0)
(0.99907 -0.00599148 0)
(0.998838 -0.00750306 0)
(0.998597 -0.00905651 0)
(0.99833 -0.0106628 0)
(0.99808 -0.0123082 0)
(0.997864 -0.0139683 0)
(0.997681 -0.0156897 0)
(0.997536 -0.0174659 0)
(0.997444 -0.0193412 0)
(0.997427 -0.0213191 0)
(0.997511 -0.02343 0)
(0.997716 -0.0256842 0)
(0.998063 -0.0280976 0)
(0.998587 -0.0306708 0)
(0.999313 -0.0333994 0)
(1.00028 -0.0362738 0)
(1.0015 -0.03927 0)
(1.00302 -0.0423621 0)
(1.00484 -0.0455129 0)
(1.007 -0.0486829 0)
(1.0095 -0.0518216 0)
(1.01234 -0.0548811 0)
(1.01554 -0.057804 0)
(1.01906 -0.0605397 0)
(1.02291 -0.0630302 0)
(1.02704 -0.065232 0)
(1.03142 -0.0670934 0)
(1.03602 -0.0685868 0)
(1.04077 -0.0696713 0)
(1.04563 -0.0703419 0)
(1.05055 -0.0705715 0)
(1.05546 -0.0703799 0)
(1.06032 -0.0697552 0)
(1.06506 -0.0687374 0)
(1.06967 -0.0673298 0)
(0.999998 -0.000193498 0)
(0.999801 -0.00114184 0)
(0.999691 -0.00196889 0)
(0.999433 -0.00317066 0)
(0.999164 -0.00446024 0)
(0.998895 -0.00583284 0)
(0.99859 -0.00733988 0)
(0.998267 -0.00887708 0)
(0.997898 -0.0104854 0)
(0.997544 -0.0121291 0)
(0.99721 -0.0137877 0)
(0.996891 -0.0155289 0)
(0.9966 -0.0173194 0)
(0.996345 -0.0192382 0)
(0.996155 -0.0212637 0)
(0.996052 -0.0234547 0)
(0.996057 -0.0258089 0)
(0.996196 -0.0283586 0)
(0.996507 -0.0311006 0)
(0.997018 -0.0340419 0)
(0.997773 -0.0371742 0)
(0.998802 -0.0404789 0)
(1.00014 -0.0439314 0)
(1.00182 -0.047494 0)
(1.00387 -0.0511242 0)
(1.00631 -0.0547687 0)
(1.00916 -0.0583734 0)
(1.01242 -0.0618728 0)
(1.01609 -0.0652051 0)
(1.02017 -0.0682995 0)
(1.02462 -0.0710981 0)
(1.0294 -0.0735339 0)
(1.03448 -0.0755642 0)
(1.0398 -0.0771331 0)
(1.04529 -0.078224 0)
(1.0509 -0.078797 0)
(1.05655 -0.0788667 0)
(1.06218 -0.0784123 0)
(1.06771 -0.0774776 0)
(1.07311 -0.0760607 0)
(0.999991 -0.000101323 0)
(0.999752 -0.00115065 0)
(0.999646 -0.0018089 0)
(0.999322 -0.00311025 0)
(0.999052 -0.00426981 0)
(0.998717 -0.00566445 0)
(0.998345 -0.00713321 0)
(0.997939 -0.00866039 0)
(0.997468 -0.0102565 0)
(0.997015 -0.0118893 0)
(0.996559 -0.0135321 0)
(0.996104 -0.0152865 0)
(0.995663 -0.0170681 0)
(0.995237 -0.0190258 0)
(0.994867 -0.0210704 0)
(0.99456 -0.0233341 0)
(0.994351 -0.0257599 0)
(0.994257 -0.0284336 0)
(0.994326 -0.0313204 0)
(0.994586 -0.0344619 0)
(0.995088 -0.0378359 0)
(0.995868 -0.0414418 0)
(0.996975 -0.0452547 0)
(0.998443 -0.0492408 0)
(1.00032 -0.0533561 0)
(1.00263 -0.0575454 0)
(1.00542 -0.0617492 0)
(1.00869 -0.0658949 0)
(1.01245 -0.0699097 0)
(1.01672 -0.0737094 0)
(1.02145 -0.0772189 0)
(1.02663 -0.080353 0)
(1.03221 -0.0830488 0)
(1.03813 -0.0852316 0)
(1.04432 -0.0868668 0)
(1.0507 -0.0878977 0)
(1.05719 -0.088328 0)
(1.06371 -0.0881259 0)
(1.07016 -0.0873344 0)
(1.07647 -0.0859477 0)
(0.999983 2.33533e-05 0)
(0.999696 -0.00120686 0)
(0.999605 -0.00159565 0)
(0.999205 -0.00308656 0)
(0.998961 -0.00400309 0)
(0.99853 -0.00551682 0)
(0.998114 -0.00686294 0)
(0.997613 -0.00842984 0)
(0.997051 -0.00996631 0)
(0.996499 -0.0116021 0)
(0.99592 -0.0132002 0)
(0.995329 -0.0149723 0)
(0.994735 -0.0167109 0)
(0.994135 -0.0187148 0)
(0.993579 -0.020734 0)
(0.993055 -0.0230776 0)
(0.992619 -0.0255262 0)
(0.992269 -0.0283247 0)
(0.992074 -0.0313123 0)
(0.992043 -0.034648 0)
(0.992253 -0.0382302 0)
(0.99273 -0.04213 0)
(0.993541 -0.0462867 0)
(0.994731 -0.0506999 0)
(0.996359 -0.0553137 0)
(0.998467 -0.0600801 0)
(1.0011 -0.0649324 0)
(1.0043 -0.0697932 0)
(1.00809 -0.0745787 0)
(1.01248 -0.0791921 0)
(1.01746 -0.0835391 0)
(1.02301 -0.0875137 0)
(1.02909 -0.0910271 0)
(1.03564 -0.093981 0)
(1.04258 -0.0963144 0)
(1.04982 -0.0979488 0)
(1.05726 -0.0988679 0)
(1.0648 -0.0990255 0)
(1.07232 -0.0984566 0)
(1.07972 -0.0971519 0)
(0.999985 0.000182913 0)
(0.999632 -0.00132579 0)
(0.999581 -0.00131087 0)
(0.99908 -0.0031184 0)
(0.998902 -0.00363831 0)
(0.998328 -0.00542715 0)
(0.997917 -0.00649819 0)
(0.997283 -0.00822489 0)
(0.996667 -0.00958788 0)
(0.995997 -0.0112987 0)
(0.995308 -0.0127771 0)
(0.994576 -0.0146093 0)
(0.993834 -0.0162385 0)
(0.993052 -0.0183259 0)
(0.992312 -0.020242 0)
(0.991555 -0.0227065 0)
(0.99089 -0.0250875 0)
(0.990255 -0.0280496 0)
(0.989782 -0.0310481 0)
(0.989419 -0.0346052 0)
(0.989305 -0.0383189 0)
(0.989418 -0.042527 0)
(0.989878 -0.0469766 0)
(0.990707 -0.0518255 0)
(0.992004 -0.0569237 0)
(0.993813 -0.0622949 0)
(0.996207 -0.0678323 0)
(0.999233 -0.0734753 0)
(1.00294 -0.0791205 0)
(1.00737 -0.0846623 0)
(1.01252 -0.0899853 0)
(1.01839 -0.0949608 0)
(1.02495 -0.0994687 0)
(1.03214 -0.103382 0)
(1.03989 -0.106603 0)
(1.04808 -0.109024 0)
(1.05661 -0.110598 0)
(1.06532 -0.111256 0)
(1.07409 -0.111016 0)
(1.08278 -0.109863 0)
(1.00002 0.000373124 0)
(0.999543 -0.00150966 0)
(0.999607 -0.000945987 0)
(0.998931 -0.00321856 0)
(0.998899 -0.00316285 0)
(0.998092 -0.00542536 0)
(0.997782 -0.00600859 0)
(0.996934 -0.00809083 0)
(0.996346 -0.00908241 0)
(0.995495 -0.0110297 0)
(0.994753 -0.0122297 0)
(0.99384 -0.0142418 0)
(0.992982 -0.0156245 0)
(0.991992 -0.0178995 0)
(0.991089 -0.019567 0)
(0.99007 -0.0222636 0)
(0.989192 -0.0244063 0)
(0.988229 -0.027654 0)
(0.987488 -0.0304767 0)
(0.986732 -0.0343718 0)
(0.986289 -0.0380377 0)
(0.985956 -0.0426494 0)
(0.986032 -0.0472471 0)
(0.986399 -0.0525989 0)
(0.987291 -0.0580921 0)
(0.988677 -0.0641209 0)
(0.99072 -0.0703318 0)
(0.993448 -0.0768331 0)
(0.996963 -0.0834137 0)
(1.00131 -0.0900097 0)
(1.00653 -0.0964602 0)
(1.01264 -0.102619 0)
(1.01963 -0.108328 0)
(1.02746 -0.113425 0)
(1.03604 -0.117765 0)
(1.04528 -0.121202 0)
(1.05502 -0.123641 0)
(1.0651 -0.124982 0)
(1.07534 -0.12521 0)
(1.08556 -0.1243 0)
(1.00016 0.00058337 0)
(0.999375 -0.00174211 0)
(0.999744 -0.000511207 0)
(0.998708 -0.00338248 0)
(0.999002 -0.00258484 0)
(0.997779 -0.00551839 0)
(0.997761 -0.00538212 0)
(0.996523 -0.00805584 0)
(0.99614 -0.00841872 0)
(0.994953 -0.010844 0)
(0.994306 -0.0115168 0)
(0.993086 -0.0139273 0)
(0.992227 -0.0148268 0)
(0.990932 -0.0174965 0)
(0.989955 -0.0186634 0)
(0.988584 -0.0218177 0)
(0.987571 -0.0234215 0)
(0.986183 -0.027223 0)
(0.985248 -0.0295114 0)
(0.983981 -0.0340447 0)
(0.98327 -0.0372715 0)
(0.98235 -0.042586 0)
(0.982074 -0.0469593 0)
(0.981816 -0.053073 0)
(0.982284 -0.0586636 0)
(0.983065 -0.0655475 0)
(0.984672 -0.0722533 0)
(0.986912 -0.0797725 0)
(0.990102 -0.0872725 0)
(0.994198 -0.0950939 0)
(0.999355 -0.102812 0)
(1.00559 -0.110375 0)
(1.01293 -0.11753 0)
(1.02135 -0.124087 0)
(1.03079 -0.129835 0)
(1.04114 -0.134577 0)
(1.05224 -0.138153 0)
(1.0639 -0.140415 0)
(1.07588 -0.141294 0)
(1.08795 -0.140745 0)
(1.0005 0.000796958 0)
(0.999017 -0.00199417 0)
(1.0001 -3.58965e-05 0)
(0.9983 -0.00358286 0)
(0.99931 -0.00193749 0)
(0.99729 -0.00568152 0)
(0.99795 -0.00464096 0)
(0.995957 -0.00811095 0)
(0.996144 -0.00760039 0)
(0.994278 -0.0107571 0)
(0.994059 -0.0106203 0)
(0.992225 -0.0137014 0)
(0.99166 -0.0138126 0)
(0.989787 -0.0171697 0)
(0.988997 -0.0174859 0)
(0.987022 -0.0214409 0)
(0.986117 -0.0220653 0)
(0.984049 -0.0268626 0)
(0.983161 -0.0280407 0)
(0.981105 -0.033775 0)
(0.980364 -0.0358475 0)
(0.978545 -0.0425278 0)
(0.978136 -0.0458764 0)
(0.97691 -0.0534464 0)
(0.977117 -0.0583507 0)
(0.976934 -0.0667247 0)
(0.97817 -0.0732812 0)
(0.979564 -0.0823325 0)
(0.982376 -0.0903649 0)
(0.985914 -0.0998098 0)
(0.990877 -0.108746 0)
(0.997016 -0.118063 0)
(1.00458 -0.126908 0)
(1.01351 -0.135291 0)
(1.02379 -0.14283 0)
(1.03532 -0.149258 0)
(1.04794 -0.154342 0)
(1.06142 -0.157847 0)
(1.07548 -0.159631 0)
(1.08977 -0.159604 0)
(1.00117 0.000998877 0)
(0.99831 -0.00223314 0)
(1.00082 0.000435886 0)
(0.997543 -0.00377938 0)
(0.999967 -0.00127367 0)
(0.996472 -0.00586471 0)
(0.998494 -0.00384192 0)
(0.995081 -0.00820868 0)
(0.996503 -0.00667914 0)
(0.993312 -0.0107346 0)
(0.99417 -0.00957503 0)
(0.991089 -0.0135462 0)
(0.991451 -0.0126002 0)
(0.988378 -0.0169188 0)
(0.9884 -0.0160368 0)
(0.985199 -0.0211529 0)
(0.985027 -0.020318 0)
(0.981643 -0.0266282 0)
(0.981439 -0.0259968 0)
(0.977921 -0.0336827 0)
(0.977802 -0.0336097 0)
(0.974363 -0.0426915 0)
(0.974475 -0.0437139 0)
(0.971505 -0.0540414 0)
(0.972068 -0.0567213 0)
(0.970108 -0.0680452 0)
(0.971485 -0.0728633 0)
(0.971229 -0.0848836 0)
(0.973986 -0.0920679 0)
(0.976234 -0.104359 0)
(0.981096 -0.113643 0)
(0.986597 -0.125622 0)
(0.994329 -0.136 0)
(1.00352 -0.146875 0)
(1.01461 -0.156616 0)
(1.02736 -0.165282 0)
(1.04165 -0.172414 0)
(1.05724 -0.177614 0)
(1.07377 -0.180683 0)
(1.09081 -0.181421 0)
(1.00228 0.00118159 0)
(0.997121 -0.00243095 0)
(1.00203 0.000863687 0)
(0.996287 -0.00392951 0)