/*--------------------------------*- C++ -*----------------------------------*\
| =========                 |                                                 |
| \\      /  F ield         | OpenFOAM: The Open Source CFD Toolbox           |
|  \\    /   O peration     | Version:  2512                                  |
|   \\  /    A nd           | Website:  www.openfoam.com                      |
|    \\/     M anipulation  |                                                 |
\*---------------------------------------------------------------------------*/
FoamFile
{
    version     2.0;
    format      ascii;
    arch        "LSB;label=32;scalar=64";
    class       volScalarField;
    location    "153.7";
    object      p;
}
// * * * * * * * * * * * * * * * * * * * * * * * * * * * * * * * * * * * * * //

dimensions      [0 2 -2 0 0 0 0];

internalField   nonuniform List<scalar> 
13248
(
-0.605228
-0.603636
-0.60025
-0.595868
-0.591361
-0.587527
-0.584795
-0.582961
-0.581141
-0.57799
-0.572071
-0.562243
-0.547933
-0.529215
-0.506675
-0.481151
-0.453489
-0.424416
-0.394504
-0.364222
-0.333707
-0.303478
-0.27199
-0.240116
-0.614083
-0.612108
-0.608718
-0.604473
-0.599931
-0.595452
-0.590976
-0.585938
-0.57942
-0.570461
-0.558346
-0.54279
-0.523957
-0.502335
-0.478542
-0.453172
-0.426724
-0.399598
-0.372108
-0.344503
-0.316991
-0.28972
-0.262574
-0.236516
-0.625753
-0.622943
-0.619218
-0.61478
-0.609768
-0.604012
-0.596968
-0.587914
-0.576257
-0.561718
-0.544374
-0.52458
-0.502832
-0.479633
-0.455412
-0.430508
-0.405188
-0.379674
-0.354149
-0.32882
-0.303759
-0.279237
-0.254997
-0.23111
-0.639883
-0.63593
-0.631528
-0.626476
-0.620364
-0.612463
-0.601924
-0.588244
-0.571465
-0.552057
-0.530668
-0.507927
-0.484338
-0.460258
-0.435928
-0.411517
-0.387157
-0.362966
-0.339067
-0.315559
-0.292559
-0.27023
-0.248372
-0.227467
-0.656388
-0.651081
-0.645736
-0.639584
-0.631553
-0.620462
-0.605553
-0.586944
-0.565439
-0.542055
-0.517675
-0.492917
-0.468145
-0.443553
-0.419241
-0.395267
-0.371684
-0.348551
-0.325924
-0.303878
-0.282481
-0.26179
-0.24171
-0.222368
-0.675314
-0.668538
-0.661999
-0.654126
-0.643132
-0.627715
-0.607744
-0.584214
-0.55855
-0.531995
-0.505385
-0.479173
-0.453559
-0.428603
-0.404313
-0.380684
-0.357716
-0.33542
-0.313817
-0.292931
-0.272794
-0.253438
-0.234803
-0.217039
-0.696632
-0.688313
-0.680241
-0.669814
-0.654629
-0.633855
-0.608454
-0.580276
-0.55105
-0.521953
-0.493612
-0.466281
-0.440013
-0.414774
-0.390509
-0.367164
-0.344698
-0.323082
-0.3023
-0.282341
-0.263202
-0.244864
-0.227318
-0.210562
-0.719962
-0.710071
-0.699984
-0.685929
-0.665316
-0.638468
-0.607635
-0.575235
-0.542979
-0.511786
-0.482027
-0.45377
-0.426953
-0.401471
-0.37722
-0.35411
-0.332065
-0.311021
-0.29093
-0.271749
-0.253438
-0.235973
-0.21934
-0.203439
-0.744542
-0.733039
-0.720287
-0.701379
-0.674315
-0.641117
-0.605148
-0.569019
-0.534175
-0.501209
-0.470246
-0.4412
-0.413919
-0.388244
-0.364028
-0.341144
-0.319485
-0.298957
-0.279481
-0.260984
-0.243406
-0.226699
-0.210814
-0.195575
-0.769148
-0.755976
-0.739724
-0.714789
-0.68064
-0.64121
-0.600575
-0.561195
-0.524127
-0.489637
-0.457639
-0.427924
-0.400265
-0.374454
-0.350306
-0.327661
-0.306382
-0.286351
-0.267462
-0.249623
-0.232752
-0.216785
-0.20163
-0.187087
-0.792162
-0.777234
-0.756491
-0.724537
-0.683068
-0.637771
-0.592985
-0.550791
-0.511819
-0.47604
-0.443188
-0.412952
-0.38504
-0.359194
-0.335194
-0.312847
-0.291992
-0.272486
-0.254204
-0.237035
-0.220891
-0.205689
-0.1913
-0.177557
-0.811718
-0.794892
-0.768648
-0.728925
-0.680215
-0.62955
-0.581148
-0.536577
-0.496048
-0.459259
-0.425791
-0.395241
-0.367254
-0.341528
-0.317805
-0.295866
-0.275526
-0.25662
-0.239005
-0.22256
-0.207196
-0.192833
-0.179336
-0.166596
-0.525599
-0.525462
-0.526106
-0.529622
-0.536631
-0.54711
-0.560813
-0.577375
-0.596242
-0.616615
-0.637444
-0.657467
-0.675238
-0.689205
-0.697808
-0.699809
-0.694026
-0.679692
-0.656601
-0.625224
-0.586872
-0.543651
-0.498825
-0.453858
-0.551992
-0.550593
-0.551318
-0.555496
-0.563729
-0.575857
-0.591601
-0.610531
-0.63203
-0.655226
-0.678976
-0.701917
-0.722539
-0.73915
-0.750184
-0.754143
-0.74923
-0.73445
-0.709152
-0.673438
-0.628602
-0.576984
-0.522417
-0.466772
-0.573185
-0.570425
-0.570829
-0.575085
-0.583628
-0.596356
-0.612895
-0.632746
-0.655249
-0.679503
-0.704356
-0.728448
-0.750306
-0.767963
-0.78006
-0.784796
-0.780337
-0.765035
-0.737658
-0.697894
-0.647046
-0.587581
-0.524331
-0.459248
-0.588353
-0.584332
-0.584029
-0.58767
-0.595615
-0.607817
-0.623877
-0.643249
-0.665246
-0.688973
-0.713304
-0.736896
-0.758217
-0.77598
-0.788212
-0.793088
-0.788575
-0.772595
-0.743476
-0.70056
-0.645233
-0.58011
-0.510803
-0.439765
-0.59759
-0.592613
-0.591352
-0.593754
-0.600218
-0.610843
-0.62529
-0.643007
-0.663307
-0.685337
-0.708044
-0.730162
-0.750212
-0.766879
-0.778287
-0.782391
-0.776886
-0.7594
-0.728143
-0.682578
-0.624539
-0.557012
-0.485819
-0.413366
-0.601785
-0.596324
-0.594043
-0.594781
-0.599083
-0.607294
-0.619241
-0.634442
-0.652251
-0.671883
-0.692441
-0.712226
-0.7306
-0.745682
-0.755533
-0.757879
-0.750169
-0.729954
-0.695772
-0.647714
-0.588498
-0.521632
-0.452853
-0.384078
-0.602335
-0.596924
-0.593762
-0.592712
-0.594515
-0.599824
-0.608732
-0.620918
-0.635808
-0.652626
-0.67036
-0.688451
-0.704878
-0.717901
-0.725378
-0.72476
-0.71346
-0.689409
-0.65201
-0.602336
-0.543902
-0.480312
-0.416625
-0.354188
-0.600785
-0.595901
-0.592146
-0.589494
-0.588874
-0.591242
-0.597012
-0.606116
-0.618126
-0.632365
-0.647967
-0.663615
-0.677532
-0.687608
-0.691335
-0.686112
-0.669804
-0.641323
-0.601339
-0.551935
-0.496934
-0.439246
-0.382795
-0.327637
-0.59857
-0.59453
-0.590517
-0.586665
-0.584057
-0.583878
-0.586845
-0.59316
-0.602556
-0.614426
-0.627587
-0.640438
-0.650909
-0.656541
-0.654807
-0.643626
-0.621873
-0.589801
-0.549134
-0.502428
-0.452985
-0.402659
-0.354224
-0.306514
-0.59693
-0.593833
-0.589837
-0.58527
-0.581318
-0.579289
-0.580103
-0.584152
-0.591272
-0.600621
-0.610769
-0.619746
-0.625198
-0.624735
-0.616407
-0.599168
-0.573116
-0.539565
-0.500558
-0.458426
-0.415375
-0.372407
-0.331444
-0.290221
-0.596959
-0.594669
-0.590858
-0.58604
-0.581431
-0.578334
-0.577711
-0.579952
-0.584742
-0.590999
-0.596988
-0.600555
-0.599522
-0.592134
-0.57745
-0.555531
-0.527332
-0.494435
-0.458479
-0.421115
-0.383479
-0.346457
-0.31144
-0.275845
-0.599517
-0.597816
-0.594209
-0.589504
-0.584794
-0.581225
-0.579577
-0.580027
-0.581975
-0.584089
-0.584566
-0.581531
-0.573489
-0.559655
-0.540075
-0.515493
-0.487045
-0.455945
-0.423198
-0.389738
-0.35592
-0.322705
-0.290431
-0.259139
-0.407533
-0.367221
-0.343532
-0.338776
-0.35155
-0.376433
-0.403351
-0.419216
-0.412051
-0.37541
-0.317149
-0.254728
-0.203466
-0.169621
-0.152124
-0.14852
-0.15655
-0.176256
-0.212812
-0.26984
-0.333268
-0.374494
-0.367649
-0.318768
-0.252606
-0.191506
-0.147682
-0.122967
-0.112952
-0.117193
-0.14002
-0.178175
-0.211805
-0.211405
-0.191985
-0.151839
-0.116862
-0.0961833
-0.0909217
-0.103082
-0.125814
-0.140195
-0.131316
-0.110021
-0.0888102
-0.0730087
-0.0655711
-0.0639428
-0.0638614
-0.059283
-0.0522994
-0.0458142
-0.0457492
-0.0470827
-0.0450019
-0.032681
-0.0259728
-0.0143888
-0.0127708
-0.00314526
-0.409196
-0.356133
-0.318058
-0.298907
-0.29948
-0.316873
-0.341049
-0.358727
-0.355409
-0.325537
-0.276633
-0.224294
-0.182068
-0.154921
-0.142564
-0.143445
-0.155757
-0.179998
-0.221807
-0.283887
-0.350958
-0.394576
-0.387908
-0.335865
-0.264757
-0.198728
-0.150244
-0.120983
-0.106549
-0.105439
-0.121175
-0.151735
-0.179951
-0.182336
-0.163657
-0.131399
-0.104808
-0.0915551
-0.0936255
-0.113813
-0.144271
-0.163419
-0.153113
-0.125627
-0.0978148
-0.0757559
-0.0625049
-0.0554788
-0.0520951
-0.0473562
-0.0428702
-0.0424791
-0.0485227
-0.0557686
-0.0564268
-0.0411943
-0.0297709
-0.00927516
-0.00452508
-0.000537851
-0.391595
-0.329342
-0.281014
-0.249403
-0.236677
-0.24238
-0.260266
-0.278028
-0.280681
-0.260411
-0.224279
-0.184616
-0.152507
-0.132592
-0.125724
-0.131249
-0.147466
-0.174998
-0.219438
-0.283155
-0.351869
-0.398055
-0.395446
-0.34397
-0.270418
-0.201345
-0.149767
-0.116889
-0.0983999
-0.0922632
-0.101224
-0.124438
-0.147977
-0.151788
-0.135509
-0.110435
-0.0914251
-0.085244
-0.094793
-0.123207
-0.161473
-0.185728
-0.174567
-0.140651
-0.105956
-0.0779189
-0.0594184
-0.0474498
-0.0407842
-0.035619
-0.0334073
-0.0390567
-0.0510087
-0.0639456
-0.0679728
-0.0494469
-0.0334209
-0.00447532
0.00354961
0.00198935
-0.365296
-0.297197
-0.241667
-0.200104
-0.175814
-0.168448
-0.175275
-0.188989
-0.195693
-0.18489
-0.163899
-0.13786
-0.11601
-0.103371
-0.101912
-0.111739
-0.130971
-0.159953
-0.204029
-0.266357
-0.335564
-0.384918
-0.388596
-0.341869
-0.268914
-0.199114
-0.146196
-0.110997
-0.0894055
-0.0787204
-0.0814819
-0.0979671
-0.117166
-0.121623
-0.108297
-0.0894838
-0.0769484
-0.0770664
-0.093611
-0.129999
-0.176126
-0.205797
-0.194616
-0.154706
-0.113053
-0.079397
-0.0563129
-0.0399991
-0.0300963
-0.0242445
-0.0239782
-0.0354847
-0.0531021
-0.0714406
-0.0784164
-0.0572786
-0.0368874
-0.000153446
0.0113836
0.00444271
-0.337406
-0.268089
-0.210359
-0.161954
-0.126818
-0.107582
-0.102485
-0.107566
-0.113695
-0.106504
-0.101585
-0.0879779
-0.0754856
-0.0695079
-0.0729457
-0.0864737
-0.107996
-0.137148
-0.17867
-0.236775
-0.303918
-0.356842
-0.36823
-0.329425
-0.260898
-0.192719
-0.139921
-0.10367
-0.0800717
-0.0659747
-0.0631274
-0.0734314
-0.0886057
-0.0933811
-0.0826123
-0.0690551
-0.0616064
-0.066953
-0.0894541
-0.13318
-0.186926
-0.22221
-0.212243
-0.167467
-0.119062
-0.0802005
-0.0531934
-0.0332153
-0.0201829
-0.013386
-0.014619
-0.0316932
-0.05471
-0.0781145
-0.08781
-0.0645782
-0.0401402
0.0035392
0.0189086
0.00682459
-0.311749
-0.245349
-0.190001
-0.140256
-0.0981132
-0.0673049
-0.0500845
-0.0451001
-0.0483801
-0.056656
-0.0465864
-0.0399841
-0.0344261
-0.0339189
-0.0416501
-0.0582455
-0.081308
-0.109684
-0.147364
-0.199281
-0.26187
-0.31705
-0.336982
-0.308232
-0.247016
-0.182796
-0.131538
-0.0952666
-0.0706546
-0.0543352
-0.0471168
-0.0518014
-0.0631403
-0.0680475
-0.0591146
-0.0498381
-0.0458835
-0.0551159
-0.0824854
-0.132394
-0.192819
-0.233821
-0.226355
-0.178503
-0.123917
-0.0803543
-0.0500776
-0.0271823
-0.0111805
-0.00322624
-0.00543181
-0.0276483
-0.055726
-0.0838477
-0.0962026
-0.0712496
-0.0431453
0.00648696
0.0260542
0.00912551
-0.289282
-0.229354
-0.17851
-0.130916
-0.087886
-0.0510042
-0.0224563
-0.00541934
0.000657769
-0.00048248
0.00363518
0.00296884
0.00366393
0.00028046
-0.0105755
-0.0292026
-0.0528555
-0.0798317
-0.113418
-0.158715
-0.215334
-0.270907
-0.299098
-0.281011
-0.228715
-0.17024
-0.121844
-0.0864142
-0.0615399
-0.0439153
-0.0335062
-0.0334347
-0.041232
-0.0461712
-0.0382026
-0.0325141
-0.0304636
-0.0422558
-0.0728155
-0.127168
-0.193541
-0.239925
-0.236328
-0.187427
-0.127624
-0.0799319
-0.0469705
-0.0219367
-0.00320805
0.00609509
0.00350312
-0.0233291
-0.0561221
-0.0885927
-0.103513
-0.0772098
-0.0458604
0.00863142
0.0327425
0.0113288
-0.270621
-0.218185
-0.173168
-0.128981
-0.0871448
-0.0496828
-0.0170005
0.00993188
0.0275442
0.0343694
0.0339416
0.0364004
0.0348545
0.0293823
0.0170748
-0.00220316
-0.0253225
-0.0502914
-0.0797937
-0.1183
-0.167811
-0.221986
-0.256068
-0.249033
-0.206893
-0.155669
-0.111339
-0.0775666
-0.0530151
-0.0348787
-0.0222748
-0.0183546
-0.0230037
-0.0280639
-0.0196985
-0.0176702
-0.016096
-0.0288837
-0.0611559
-0.118041
-0.1886
-0.240109
-0.240451
-0.193681
-0.130153
-0.0790062
-0.0438669
-0.0174425
0.00365894
0.0143953
0.0120071
-0.0187604
-0.0558326
-0.0922892
-0.109646
-0.0823705
-0.04824
0.00997919
0.0388991
0.013414
-0.257152
-0.211301
-0.171181
-0.130673
-0.0911204
-0.0544565
-0.0214583
0.007828
0.033038
0.0511875
0.0595391
0.0613052
0.0589586
0.0527421
0.0405394
0.0220954
0.000527818
-0.0222812
-0.0484642
-0.0813913
-0.124272
-0.175678
-0.217144
-0.21647
-0.183611
-0.139971
-0.100386
-0.0689258
-0.0452036
-0.0271675
-0.0133479
-0.00647975
-0.00829588
-0.0139871
-0.01905
-0.00597372
-0.00335346
-0.0157119
-0.0479175
-0.104969
-0.178621
-0.235197
-0.249406
-0.19727
-0.131451
-0.0776086
-0.0407682
-0.0136212
0.00938792
0.0213559
0.0200622
-0.013893
-0.0549687
-0.0949899
-0.114564
-0.086669
-0.0502708
0.0105493
0.0444578
0.0153582
-0.247954
-0.208625
-0.172837
-0.135403
-0.0982847
-0.0632138
-0.0305234
-0.00091753
0.0252641
0.047557
0.0646944
0.0737014
0.0749177
0.0701613
0.059441
0.0430185
0.0240636
0.00384901
-0.0196515
-0.0479925
-0.0843352
-0.131491
-0.17245
-0.179507
-0.157462
-0.122821
-0.0890836
-0.0607331
-0.0383448
-0.0208989
-0.00673749
0.00219977
0.00311887
-0.00179754
-0.0049565
0.0037939
0.00731159
-0.00356257
-0.0343872
-0.0900814
-0.163322
-0.223505
-0.240357
-0.196082
-0.131333
-0.0758779
-0.0378351
-0.010562
0.0139082
0.0271485
0.0273929
-0.00885226
-0.0533962
-0.0965676
-0.1182
-0.0900386
-0.0519818
0.0103065
0.0493446
0.0171363
-0.240792
-0.208083
-0.175433
-0.140391
-0.105749
-0.0722922
-0.0400598
-0.00958826
0.0183818
0.0426571
0.0621252
0.0768406
0.0839889
0.0845255
0.0780186
0.0640199
0.0468975
0.0284455
0.00667471
-0.0193595
-0.0527686
-0.0959261
-0.134905
-0.149478
-0.13559
-0.108259
-0.0796483
-0.054332
-0.0333186
-0.0164977
-0.00241951
0.00788402
0.0114036
0.00796164
0.00531454
0.0114792
0.0159049
0.00769789
-0.0203385
-0.073232
-0.145559
-0.208252
-0.228724
-0.192419
-0.130584
-0.0744972
-0.0353989
-0.00825141
0.0169863
0.0315977
0.0342528
-0.0034445
-0.0514216
-0.0973438
-0.120591
-0.0925162
-0.0533092
0.00938807
0.0534605
0.0187201
-0.23479
-0.212876
-0.185521
-0.153765
-0.122077
-0.091047
-0.0603457
-0.0308059
-0.00275707
0.0231989
0.0459079
0.0629597
0.0762448
0.0844945
0.0850605
0.0779288
0.0653054
0.0499169
0.0307018
0.00696941
-0.0229572
-0.0604702
-0.0938532
-0.110456
-0.105784
-0.0885054
-0.0669851
-0.0459802
-0.0272493
-0.0115461
0.00197065
0.0127925
0.0181133
0.0160148
0.0130489
0.0166051
0.0220258
0.0155064
-0.00844061
-0.0563479
-0.125018
-0.187274
-0.211385
-0.182524
-0.126771
-0.0719876
-0.0324115
-0.00527927
0.0196745
0.0346385
0.03979
0.0020471
-0.0486874
-0.0967554
-0.121604
-0.0937433
-0.0537479
0.00859793
0.0567205
0.020073
-0.209931
-0.200434
-0.174741
-0.143327
-0.112467
-0.0832193
-0.0548854
-0.0272885
-0.000832377
0.0240253
0.0461562
0.063632
0.0761286
0.0852759
0.0898844
0.087205
0.0778867
0.0659194
0.0513014
0.0289104
-0.0049048
-0.0446862
-0.0762444
-0.0887939
-0.0830319
-0.0685712
-0.0507547
-0.033227
-0.0172009
-0.00345013
0.00845692
0.018399
0.0240888
0.0230355
0.0198039
0.0218322
0.0285078
0.0252429
0.00556834
-0.0386084
-0.104793
-0.167974
-0.196902
-0.172708
-0.11822
-0.0650942
-0.0268806
-0.000849997
0.0232078
0.0382746
0.0456542
0.0081525
-0.0455119
-0.0957434
-0.122148
-0.0936361
-0.0530366
0.00836969
0.059325
0.0211355
-0.187011
-0.181015
-0.157871
-0.128331
-0.099689
-0.0733566
-0.0483322
-0.023827
-6.72146e-05
0.0221867
0.0420898
0.0581747
0.0715258
0.08149
0.0873028
0.0867508
0.0803448
0.0713653
0.0592381
0.038004
0.0057141
-0.0295842
-0.0540033
-0.0628732
-0.0588639
-0.0484546
-0.0351062
-0.0214468
-0.00834948
0.00351956
0.0139919
0.0227104
0.0278898
0.0271948
0.0240753
0.0247983
0.0314517
0.0297452
0.0134298
-0.0260835
-0.0883191
-0.150018
-0.179688
-0.157703
-0.107434
-0.0576461
-0.0213274
0.00326412
0.026046
0.0407764
0.049356
0.012444
-0.0433069
-0.0945166
-0.121497
-0.0922709
-0.0515751
0.00800497
0.0606476
0.021857
-0.16742
-0.162298
-0.14283
-0.116877
-0.0911387
-0.0673603
-0.0448625
-0.0228101
-0.00125353
0.0192043
0.0377657
0.05347
0.0661468
0.0758264
0.0818737
0.0826556
0.0783386
0.0710363
0.0600577
0.0415367
0.0154706
-0.0115893
-0.031552
-0.0394763
-0.0384695
-0.0320714
-0.0223437
-0.0115558
-0.000720124
0.00941989
0.0185296
0.0262418
0.0311127
0.0307161
0.0275405
0.0268381
0.029165
0.0317197
0.0171318
-0.0188392
-0.0757152
-0.130698
-0.158262
-0.140336
-0.095602
-0.0500574
-0.0160355
0.00696451
0.0283543
0.0425805
0.0519043
0.0151184
-0.0422533
-0.0927963
-0.119385
-0.0897846
-0.0494449
0.00743564
0.0611368
0.022291
-0.148275
-0.144537
-0.128515
-0.105997
-0.0829625
-0.061453
-0.0412215
-0.0215246
-0.00219974
0.0163155
0.0332819
0.0478743
0.0598408
0.0691854
0.0754079
0.077325
0.0748162
0.0691438
0.0601237
0.0458534
0.0261251
0.00494064
-0.011577
-0.019847
-0.0210897
-0.0175044
-0.0105989
-0.00236393
0.00627076
0.0147374
0.0225516
0.0290911
0.0333474
0.0331144
0.0300323
0.0283425
0.030715
0.0328398
0.019441
-0.0130819
-0.0620724
-0.108656
-0.134608
-0.120646
-0.0821205
-0.0419128
-0.0107375
0.0104392
0.0301777
0.043452
0.0535196
0.0169641
-0.0411415
-0.0900771
-0.115815
-0.0860568
-0.0464544
0.00689878
0.0606383
0.0224134
-0.130661
-0.128421
-0.115252
-0.0958343
-0.0754506
-0.0562266
-0.03819
-0.0207215
-0.0035658
0.0129973
0.028365
0.0418717
0.0531509
0.0621377
0.0684492
0.071286
0.0704381
0.0666155
0.059835
0.0489915
0.0338622
0.0173147
0.00379448
-0.00413928
-0.00674432
-0.00534689
-0.000802625
0.00538157
0.012228
0.0191936
0.0258625
0.0313996
0.0349944
0.0347547
0.0317847
0.0293831
0.0311456
0.0328166
0.0209065
-0.00651614
-0.0461932
-0.0852312
-0.109239
-0.099339
-0.0676584
-0.0335827
-0.00569091
0.013455
0.0315031
0.0433247
0.0540875
0.0185038
-0.0393779
-0.086168
-0.110513
-0.0809533
-0.0425862
0.00647186
0.0590119
0.0221791
-0.115109
-0.113758
-0.102908
-0.0862816
-0.0684483
-0.0514555
-0.0355027
-0.0201118
-0.00498389
0.00973293
0.0235557
0.0359353
0.0464642
0.0549879
0.0612242
0.064668
0.06507
0.0627414
0.0577273
0.0495305
0.0382329
0.02571
0.0147765
0.00764848
0.00445064
0.00455459
0.00748466
0.012093
0.0174278
0.0230139
0.0285849
0.0331925
0.0360899
0.0357419
0.0329795
0.030092
0.0309363
0.0318577
0.0219695
0.000505921
-0.0301153
-0.0617522
-0.0835014
-0.0773836
-0.0526611
-0.0250973
-0.000871845
0.0159899
0.0323608
0.0421918
0.0534481
0.0196939
-0.0369285
-0.0808637
-0.103299
-0.074423
-0.0378376
0.00631436
0.0561912
0.0215354
-0.100914
-0.10023
-0.0913934
-0.0772962
-0.0618576
-0.0469985
-0.0330148
-0.0195369
-0.00626446
0.0067249
0.0190376
0.0302558
0.039944
0.0479103
0.0539413
0.0577077
0.0589717
0.0578476
0.054406
0.0484847
0.0402515
0.0309097
0.022323
0.016305
0.0131225
0.0125227
0.0142566
0.0175793
0.0217
0.0261056
0.0306729
0.0345213
0.0368352
0.0363209
0.033831
0.0307864
0.0307293
0.0303983
0.0223946
0.00662705
-0.0151891
-0.0392777
-0.0585796
-0.0558267
-0.0378437
-0.0167181
0.00360671
0.0180085
0.0328462
0.0402021
0.0514146
0.0201967
-0.0336378
-0.0738427
-0.0939835
-0.0664573
-0.0323048
0.0065164
0.0521885
0.0204419
-0.0878846
-0.0878397
-0.0807402
-0.0688866
-0.0556427
-0.0427704
-0.0306038
-0.0188663
-0.00729414
0.00408361
0.014976
0.0249915
0.033799
0.041182
0.0469501
0.0508739
0.0527597
0.0526211
0.0505104
0.0464137
0.0405609
0.033771
0.0272807
0.0224243
0.0195422
0.018634
0.0196157
0.021997
0.0251773
0.0286109
0.0322498
0.0354064
0.0372716
0.0366482
0.0344601
0.0315805
0.0309824
0.0293819
0.0223094
0.0116144
-0.00172221
-0.0185496
-0.0356379
-0.0358453
-0.0239279
-0.00864023
0.00773191
0.0196252
0.0330749
0.037706
0.0479117
0.0199368
-0.0290105
-0.0646739
-0.0824832
-0.0571967
-0.0261873
0.00712895
0.0471345
0.0188903
-0.0761284
-0.0765573
-0.0709159
-0.0610281
-0.0497501
-0.0386739
-0.0281624
-0.0180185
-0.00800771
0.00187913
0.0114233
0.0203036
0.0282413
0.0350271
0.0404868
0.0444442
0.0467453
0.0473609
0.0463313
0.0437138
0.0397484
0.0350044
0.0302596
0.0265307
0.0241418
0.0232158
0.023753
0.0254255
0.0278541
0.0305233
0.0333726
0.0359061
0.0374363
0.0367989
0.0349521
0.0325041
0.0316916
0.0294949
0.0227127
0.0162479
0.0100805
-0.000705064
-0.0160377
-0.0185972
-0.0115792
-0.00113865
0.0114682
0.0209941
0.0331214
0.0353563
0.0432544
0.0194741
-0.0223837
-0.0529775
-0.0689344
-0.0469642
-0.0197963
0.00812458
0.0412897
0.0169238
-0.065494
-0.0662496
-0.0618352
-0.0536512
-0.0441081
-0.0346472
-0.0256457
-0.0169534
-0.00835579
0.000175906
0.00847743
0.0162913
0.0233825
0.0295594
0.0346662
0.0385604
0.041124
0.0423125
0.0421546
0.0407275
0.0382432
0.0351019
0.0318161
0.0291053
0.0272674
0.0264648
0.0267702
0.0279682
0.0298274
0.0319141
0.0341324
0.0361105
0.0373762
0.0368089
0.0353411
0.0335506
0.0327061
0.0307875
0.025189
0.022079
0.0200735
0.0128838
-0.000897826
-0.00503409
-0.00115322
0.00558286
0.0148228
0.0222481
0.0329813
0.0338948
0.0382929
0.0198566
-0.0132822
-0.0387043
-0.0538442
-0.0362939
-0.0135062
0.00942206
0.0350394
0.0146571
-0.0558029
-0.0568166
-0.0534239
-0.0467084
-0.0387028
-0.0306898
-0.0230392
-0.0156427
-0.0083118
-0.00100346
0.0061665
0.0129917
0.0192743
0.0248466
0.0295745
0.0333398
0.0360489
0.0376524
0.0381692
0.0376732
0.0363326
0.0344537
0.0323272
0.0304943
0.0292048
0.0286253
0.0288551
0.0297556
0.0311844
0.0328251
0.034563
0.0360824
0.0371416
0.0367064
0.0356504
0.0345251
0.0338508
0.0329339
0.0300397
0.0291417
0.0281663
0.0220276
0.0100981
0.00565325
0.00736945
0.0113656
0.0177908
0.0234291
0.0326602
0.0334465
0.0341373
0.0220568
-0.00200005
-0.022666
-0.0382607
-0.0258884
-0.00767919
0.0109001
0.0288839
0.012294
-0.0470151
-0.0482092
-0.0456566
-0.0401946
-0.0335278
-0.0267857
-0.0203254
-0.014078
-0.00788014
-0.00166699
0.00449117
0.0104138
0.0159388
0.0209237
0.0252577
0.0288408
0.0315949
0.0334757
0.0344908
0.0347014
0.0342258
0.0333056
0.0321079
0.0310157
0.0302353
0.0299157
0.0301547
0.0308848
0.0320124
0.0333211
0.0347093
0.0358774
0.0367837
0.0365254
0.0358622
0.0353259
0.0349469
0.035124
0.0345627
0.0351729
0.0338905
0.0278697
0.017983
0.0137357
0.0140852
0.0161229
0.0203613
0.0245344
0.0321884
0.0334932
0.0316921
0.0259214
0.00986945
-0.00682641
-0.0235916
-0.0164282
-0.00256903
0.012357
0.0234255
0.0101556
-0.0390858
-0.0403617
-0.0384757
-0.0340668
-0.0285544
-0.0229236
-0.0175099
-0.0122804
-0.00712094
-0.00181214
0.00343949
0.00853935
0.013358
0.0177793
0.0217114
0.0250711
0.0277909
0.0298326
0.0311911
0.0319175
0.0320894
0.0318628
0.0313934
0.0309086
0.0305726
0.0305152
0.0308199
0.0314712
0.0324035
0.03347
0.0346127
0.0355323
0.0363272
0.036273
0.0359352
0.0358611
0.0358228
0.0364726
0.0372535
0.0383573
0.0369457
0.0314394
0.0234977
0.0196284
0.0191456
0.0198631
0.0225103
0.0255254
0.0315809
0.0332299
0.0310318
0.0294285
0.019566
0.00614097
-0.01124
-0.00844288
0.00172152
0.0135019
0.0191821
0.00862046
-0.0318668
-0.0331742
-0.0318325
-0.0283169
-0.023796
-0.0191184
-0.0145943
-0.0102051
-0.00578814
-0.00143326
0.00297431
0.00731822
0.0114828
0.0153705
0.0189019
0.0220085
0.0246304
0.0267356
0.028309
0.0293917
0.0300324
0.0303141
0.0303771
0.0303711
0.0304061
0.0305933
0.0309922
0.0316195
0.0324354
0.0333345
0.0343095
0.0350721
0.0357837
0.0359241
0.03584
0.0360839
0.036335
0.0370263
0.0381353
0.0391558
0.037894
0.0333732
0.0271306
0.0237003
0.0227715
0.0226786
0.0242253
0.026355
0.0309292
0.0325174
0.0312932
0.0309941
0.0253991
0.0146482
-0.00213371
-0.00222285
0.00518562
0.0141514
0.0163008
0.00787034
-0.0253885
-0.0266723
-0.02575
-0.0229632
-0.0192728
-0.0154112
-0.011665
-0.00802504
-0.00440303
-0.000738227
0.00297157
0.00665832
0.0102367
0.0136298
0.0167708
0.0196057
0.0220815
0.0241717
0.0258514
0.027151
0.0280872
0.0287575
0.0292097
0.0295648
0.0298941
0.0302894
0.0307897
0.0314254
0.0321819
0.0329728
0.0338318
0.0345071
0.0351578
0.0354516
0.0355564
0.0358977
0.0363389
0.0369584
0.0379398
0.0386937
0.0375961
0.0341256
0.0293262
0.0263571
0.0252542
0.0247128
0.0255185
0.026959
0.0303103
0.0316945
0.0315717
0.030996
0.0277119
0.0188545
0.00402039
0.0024302
0.00779831
0.0141417
0.0143466
0.00755014
-0.0194785
-0.0207503
-0.0201741
-0.0179943
-0.0150021
-0.0118321
-0.00874703
-0.00575482
-0.00276878
0.000273228
0.00337405
0.00648494
0.00953951
0.0124782
0.0152455
0.0178005
0.0200963
0.0221116
0.0238175
0.0252343
0.0263647
0.0272755
0.0279956
0.0286104
0.0291607
0.0297207
0.0303161
0.0309765
0.0317076
0.0324344
0.0332121
0.0338442
0.0344521
0.0348464
0.0350939
0.0354688
0.0359679
0.036469
0.0371787
0.0376583
0.0366921
0.0340973
0.0304867
0.0279801
0.026876
0.0261083
0.0264173
0.0273199
0.0297659
0.0310009
0.0313735
0.0304879
0.0282663
0.0205956
0.00818087
0.00578903
0.0095249
0.0135973
0.0126165
0.00698959
-0.0141828
-0.0153985
-0.0150731
-0.0133806
-0.010972
-0.00838738
-0.00586297
-0.0034148
-0.000968042
0.0015375
0.00411126
0.00671879
0.00930766
0.0118327
0.0142484
0.016523
0.0186162
0.0205123
0.0221803
0.0236331
0.0248625
0.0259158
0.0268077
0.0275963
0.0283037
0.0289845
0.0296592
0.030347
0.0310689
0.0317622
0.0324821
0.033093
0.0336706
0.0341174
0.0344588
0.0348314
0.0353076
0.0357003
0.0361424
0.036391
0.0355437
0.0336065
0.0309216
0.0288486
0.0278947
0.0269664
0.0269696
0.0274587
0.0292404
0.0302997
0.0305716
0.0295486
0.0277854
0.0211416
0.0110374
0.00815609
0.0104529
0.0126206
0.0108965
0.00599879
-0.00942291
-0.0105469
-0.0104018
-0.00910527
-0.0071849
-0.00509523
-0.00304511
-0.00105465
0.000937859
0.00298802
0.00510988
0.00728062
0.00945928
0.0116112
0.0136997
0.0157007
0.0175802
0.0193236
0.0209057
0.0223339
0.0235935
0.0247136
0.0256995
0.0265903
0.0273983
0.0281583
0.0288895
0.0296
0.0303168
0.030993
0.0316713
0.0322671
0.0328214
0.0332866
0.033675
0.0340298
0.0344428
0.0347481
0.0349848
0.0350578
0.0343266
0.0328647
0.0308575
0.0291153
0.0277787
0.0273313
0.0272251
0.0273993
0.0286323
0.0294332
0.0293388
0.0282215
0.0266365
0.0210732
0.0129526
0.00978737
0.0108034
0.0115278
0.00929495
0.00486383
-0.00511003
-0.00615061
-0.00615031
-0.00517631
-0.00365645
-0.00197598
-0.000320738
0.00128683
0.00289816
0.00456412
0.00630143
0.00809585
0.00991546
0.0117339
0.0135222
0.0152622
0.0169229
0.0184863
0.0199661
0.0213249
0.0225586
0.023685
0.0247043
0.0256401
0.0264998
0.0273021
0.0280642
0.0287874
0.0294967
0.03016
0.0308055
0.0313856
0.0319179
0.0323786
0.032779
0.0331132
0.0334524
0.0336855
0.0337862
0.0337398
0.0331178
0.032001
0.03049
0.0290944
0.0280202
0.0274348
0.027231
0.0271644
0.0278954
0.0283839
0.0279439
0.0267302
0.0251756
0.020648
0.0141311
0.0108586
0.0108224
0.0105495
0.00795506
0.00384767
-0.00125733
-0.00220971
-0.00230257
-0.00157616
-0.000380278
0.000961359
0.00228726
0.00357499
0.0048678
0.00621124
0.00762304
0.0090954
0.0106038
0.0121277
0.0136453
0.0151441
0.0166024
0.0180137
0.0193332
0.0205833
0.0217481
0.022835
0.0238411
0.0247775
0.0256481
0.0264608
0.0272291
0.0279511
0.0286457
0.0292934
0.0299094
0.030469
0.0309784
0.0314219
0.03181
0.0321209
0.0323947
0.0325696
0.0325895
0.0324732
0.0319486
0.0310851
0.029935
0.0288261
0.0279181
0.0272824
0.027012
0.0267742
0.0270533
0.0272349
0.0265456
0.025233
0.0236481
0.0200016
0.0147479
0.0114927
0.0106735
0.00968749
0.00690303
0.00305996
0.0021807
0.0013339
0.00118463
0.00171453
0.00264377
0.00370446
0.00475755
0.00578035
0.00680843
0.00788259
0.00902065
0.0102188
0.0114584
0.0127231
0.0139963
0.0152694
0.0165248
0.0177538
0.0189343
0.0200667
0.0211402
0.0221581
0.0231167
0.0240202
0.0248696
0.0256662
0.0264187
0.0271244
0.0277951
0.0284202
0.0290061
0.0295394
0.0300219
0.0304413
0.0308043
0.0310897
0.0313116
0.0314417
0.0314188
0.0312696
0.0308295
0.0301506
0.0292611
0.028368
0.0275852
0.0269518
0.026584
0.0262425
0.0261556
0.0260477
0.0252298
0.0238264
0.0221926
0.0192227
0.0149544
0.0117952
0.0104276
0.0089654
0.00610413
0.0024969
0.00526522
0.00451456
0.00432712
0.00470228
0.00541635
0.00624732
0.00707588
0.00788024
0.00868946
0.00953986
0.0104486
0.0114141
0.0124228
0.0134622
0.0145184
0.0155855
0.0166519
0.0177105
0.0187438
0.0197481
0.0207146
0.0216438
0.0225315
0.0233777
0.0241811
0.0249399
0.0256578
0.0263325
0.0269698
0.0275638
0.0281155
0.0286174
0.0290685
0.0294589
0.0297915
0.0300503
0.0302331
0.0303298
0.0302878
0.0301289
0.0297598
0.0292142
0.0285113
0.027775
0.0270891
0.0264728
0.0260285
0.0256002
0.0252379
0.0248692
0.0239846
0.0225463
0.0208687
0.0183754
0.0148697
0.0118558
0.0101245
0.00836944
0.00550446
0.00210803
0.00801146
0.00735267
0.00714749
0.00740463
0.00794576
0.0085887
0.00923261
0.00985746
0.0104868
0.0111517
0.0118688
0.0126383
0.01345
0.0142945
0.0151611
0.0160443
0.0169372
0.0178366
0.0187239
0.0195973
0.0204486
0.0212775
0.0220791
0.0228514
0.0235911
0.0242953
0.0249637
0.0255946
0.0261889
0.0267434
0.027256
0.0277216
0.0281373
0.0284941
0.0287961
0.0290276
0.0291809
0.0292522
0.0292033
0.0290471
0.0287354
0.0282852
0.0277139
0.027091
0.0264738
0.0258799
0.0253672
0.0248637
0.0243243
0.0237404
0.0228048
0.0213852
0.0196894
0.0175068
0.0145839
0.0117486
0.00979183
0.00786755
0.00505286
0.00184201
0.0104517
0.00988142
0.00967175
0.0098379
0.0102396
0.0107291
0.0112218
0.0116995
0.0121814
0.0126939
0.0132518
0.013857
0.0145015
0.0151782
0.0158798
0.016602
0.0173381
0.0180854
0.0188353
0.0195824
0.0203183
0.0210417
0.0217488
0.022437
0.0231014
0.0237391
0.0243471
0.0249236
0.0254668
0.0259745
0.026443
0.0268682
0.0272461
0.0275719
0.0278375
0.0280403
0.0281691
0.0282201
0.0281694
0.0280209
0.0277521
0.0273705
0.0268881
0.0263465
0.0257771
0.0252017
0.0246396
0.024067
0.0234179
0.0226805
0.0216931
0.0203212
0.0186431
0.0166539
0.0141651
0.0115285
0.00944239
0.00743055
0.00470627
0.00165869
0.0126162
0.0121263
0.0119203
0.0120171
0.0123073
0.0126719
0.0130411
0.013399
0.0137606
0.0141482
0.0145748
0.0150425
0.015546
0.0160796
0.0166382
0.0172193
0.0178177
0.0184299
0.0190515
0.019676
0.0202989
0.0209172
0.0215269
0.0221258
0.0227087
0.0232724
0.0238125
0.0243273
0.0248133
0.0252683
0.0256879
0.0260679
0.0264022
0.0266914
0.0269254
0.0271004
0.027207
0.0272411
0.0271883
0.0270476
0.0268084
0.0264748
0.0260512
0.0255657
0.0250301
0.0244656
0.0238729
0.0232436
0.0225234
0.0216912
0.0206558
0.0193338
0.0177088
0.015843
0.0136643
0.011233
0.00908645
0.00703872
0.00443021
0.00152948
0.0145274
0.01411
0.0139137
0.0139584
0.0141597
0.0144231
0.0146918
0.014952
0.0152158
0.0155014
0.01582
0.0161738
0.0165588
0.0169712
0.0174073
0.0178654
0.0183426
0.0188358
0.0193394
0.0198515
0.0203665
0.0208837
0.0213978
0.0219068
0.0224058
0.0228919
0.0233602
0.0238087
0.0242333
0.0246319
0.0249996
0.0253319
0.0256257
0.0258724
0.0260717
0.0262176
0.0263015
0.0263196
0.026262
0.0261264
0.0259059
0.0256033
0.0252185
0.0247687
0.0242576
0.0236988
0.0230871
0.0224179
0.0216489
0.0207655
0.019697
0.0184134
0.0168633
0.0150882
0.0131207