/*--------------------------------*- C++ -*----------------------------------*\
| =========                 |                                                 |
| \\      /  F ield         | OpenFOAM: The Open Source CFD Toolbox           |
|  \\    /   O peration     | Version:  2512                                  |
|   \\  /    A nd           | Website:  www.openfoam.com                      |
|    \\/     M anipulation  |                                                 |
\*---------------------------------------------------------------------------*/
FoamFile
{
    version     2.0;
    format      ascii;
    arch        "LSB;label=32;scalar=64";
    class       volScalarField;
    location    "134.9";
    object      p;
}
// * * * * * * * * * * * * * * * * * * * * * * * * * * * * * * * * * * * * * //

dimensions      [0 2 -2 0 0 0 0];

internalField   nonuniform List<scalar> 
13248
(
-0.477423
-0.477012
-0.47443
-0.470259
-0.465157
-0.459769
-0.454826
-0.450922
-0.448204
-0.446288
-0.444358
-0.441398
-0.436472
-0.428962
-0.41868
-0.405804
-0.390706
-0.373773
-0.355332
-0.335701
-0.314821
-0.29328
-0.269199
-0.243779
-0.486431
-0.485297
-0.482534
-0.478689
-0.474159
-0.469298
-0.464386
-0.459491
-0.4544
-0.448685
-0.441838
-0.433425
-0.423207
-0.41118
-0.397511
-0.382436
-0.366173
-0.34891
-0.330791
-0.311914
-0.292375
-0.272208
-0.251236
-0.230582
-0.498013
-0.49578
-0.49253
-0.488592
-0.48418
-0.479265
-0.473589
-0.466775
-0.4585
-0.448612
-0.437141
-0.424252
-0.410187
-0.395186
-0.37944
-0.363081
-0.346198
-0.328862
-0.311112
-0.293065
-0.274668
-0.256196
-0.23732
-0.218301
-0.511846
-0.508317
-0.504295
-0.499929
-0.495122
-0.489367
-0.481909
-0.472199
-0.460174
-0.446197
-0.430821
-0.414574
-0.39785
-0.380884
-0.363788
-0.346607
-0.329354
-0.312036
-0.29469
-0.277328
-0.260017
-0.242888
-0.225715
-0.209218
-0.528064
-0.523119
-0.518188
-0.513082
-0.507229
-0.499596
-0.489201
-0.47577
-0.459799
-0.442158
-0.423686
-0.404989
-0.38641
-0.368096
-0.350078
-0.33234
-0.314854
-0.297607
-0.280588
-0.263827
-0.247344
-0.231188
-0.215274
-0.199855
-0.546968
-0.540545
-0.5346
-0.528344
-0.520534
-0.509771
-0.495353
-0.477692
-0.457889
-0.437099
-0.416181
-0.395633
-0.37567
-0.356341
-0.337618
-0.31945
-0.301792
-0.284602
-0.267867
-0.251573
-0.235727
-0.220352
-0.205383
-0.191082
-0.568712
-0.560782
-0.553637
-0.54559
-0.534638
-0.519477
-0.500247
-0.478213
-0.454876
-0.431404
-0.408492
-0.386456
-0.365378
-0.345232
-0.325947
-0.307449
-0.289668
-0.272551
-0.256053
-0.240146
-0.224809
-0.210012
-0.195749
-0.182082
-0.593159
-0.583674
-0.574978
-0.564199
-0.548773
-0.528173
-0.503758
-0.477491
-0.450974
-0.42518
-0.400561
-0.377249
-0.355217
-0.334376
-0.314622
-0.295856
-0.27799
-0.260948
-0.244668
-0.229097
-0.214186
-0.199905
-0.18624
-0.173142
-0.61961
-0.608592
-0.597807
-0.583087
-0.561941
-0.535284
-0.505698
-0.475509
-0.446155
-0.41831
-0.392178
-0.367737
-0.34487
-0.323436
-0.303299
-0.284335
-0.266434
-0.2495
-0.233447
-0.218201
-0.203694
-0.189877
-0.176707
-0.164037
-0.646984
-0.634415
-0.620782
-0.600807
-0.573003
-0.540117
-0.505641
-0.471904
-0.440017
-0.410334
-0.382847
-0.357402
-0.333807
-0.311877
-0.291441
-0.272348
-0.254466
-0.237678
-0.221881
-0.20698
-0.192895
-0.179564
-0.1669
-0.15472
-0.67372
-0.659551
-0.642073
-0.615642
-0.580637
-0.541668
-0.5027
-0.46579
-0.431652
-0.400343
-0.371671
-0.345372
-0.321189
-0.298889
-0.278268
-0.259148
-0.241371
-0.224805
-0.209326
-0.194825
-0.181217
-0.168422
-0.156313
-0.144732
-0.697941
-0.682081
-0.659643
-0.625765
-0.583392
-0.538692
-0.495693
-0.456008
-0.41994
-0.387272
-0.357647
-0.330706
-0.306128
-0.283635
-0.262986
-0.243977
-0.22643
-0.210191
-0.195122
-0.181104
-0.16805
-0.155884
-0.144463
-0.133695
-0.486352
-0.484061
-0.482757
-0.483503
-0.487176
-0.494151
-0.504545
-0.518451
-0.535921
-0.55685
-0.580866
-0.60727
-0.63504
-0.662944
-0.689501
-0.713202
-0.732763
-0.747018
-0.754897
-0.755222
-0.747021
-0.728827
-0.699858
-0.658738
-0.496004
-0.492343
-0.490624
-0.491222
-0.494886
-0.502031
-0.512786
-0.527233
-0.545417
-0.567227
-0.59228
-0.619854
-0.648893
-0.678083
-0.705965
-0.731081
-0.752104
-0.767897
-0.777278
-0.779247
-0.772618
-0.755364
-0.726485
-0.683418
-0.501139
-0.496374
-0.494073
-0.49416
-0.497251
-0.503827
-0.514043
-0.527952
-0.545564
-0.566751
-0.591132
-0.618005
-0.646346
-0.674879
-0.702189
-0.726873
-0.747687
-0.763293
-0.772863
-0.775116
-0.768766
-0.751214
-0.721384
-0.676015
-0.501902
-0.496439
-0.493477
-0.492642
-0.49449
-0.499636
-0.508325
-0.520613
-0.536483
-0.555794
-0.578183
-0.603
-0.629299
-0.655893
-0.681464
-0.704748
-0.724329
-0.739366
-0.748534
-0.750383
-0.743339
-0.724342
-0.692365
-0.644022
-0.499086
-0.493454
-0.489862
-0.487785
-0.487787
-0.490683
-0.496912
-0.50663
-0.519844
-0.53642
-0.556025
-0.578073
-0.601715
-0.625882
-0.649421
-0.670997
-0.68966
-0.703858
-0.712221
-0.712819
-0.703667
-0.681633
-0.646302
-0.595239
-0.493848
-0.488599
-0.484551
-0.481142
-0.478957
-0.479032
-0.482101
-0.488546
-0.4985
-0.51189
-0.528432
-0.547601
-0.568637
-0.590593
-0.612347
-0.632783
-0.65031
-0.663211
-0.669679
-0.6672
-0.653769
-0.626938
-0.587644
-0.53508
-0.4874
-0.482995
-0.478773
-0.474215
-0.469907
-0.467056
-0.466722
-0.469615
-0.476106
-0.486268
-0.499897
-0.516525
-0.535456
-0.555778
-0.576278
-0.595264
-0.610932
-0.621039
-0.623427
-0.615553
-0.596338
-0.564779
-0.523453
-0.472831
-0.480821
-0.477541
-0.473436
-0.468109
-0.462133
-0.4568
-0.453441
-0.453108
-0.456468
-0.463806
-0.475035
-0.489734
-0.507145
-0.525987
-0.54458
-0.560903
-0.572709
-0.577548
-0.573605
-0.559254
-0.53502
-0.501358
-0.461666
-0.416376
-0.475035
-0.472945
-0.469156
-0.463484
-0.456517
-0.449553
-0.444085
-0.441429
-0.442522
-0.447833
-0.457348
-0.470486
-0.486063
-0.502398
-0.517389
-0.528729
-0.534187
-0.531964
-0.521242
-0.501916
-0.475798
-0.443838
-0.409129
-0.370721
-0.470953
-0.469898
-0.466491
-0.460835
-0.453586
-0.445997
-0.439595
-0.435816
-0.435713
-0.439771
-0.447761
-0.458773
-0.471243
-0.483161
-0.492309
-0.496662
-0.494664
-0.485693
-0.470034
-0.448784
-0.423846
-0.39595
-0.367352
-0.335287
-0.469555
-0.469181
-0.466142
-0.460822
-0.453922
-0.446631
-0.44035
-0.436464
-0.435806
-0.438644
-0.444478
-0.452075
-0.459689
-0.465369
-0.467335
-0.464347
-0.455882
-0.442305
-0.424382
-0.403415
-0.380408
-0.356091
-0.332127
-0.305367
-0.471645
-0.471495
-0.468752
-0.463992
-0.457901
-0.451501
-0.445954
-0.442195
-0.440848
-0.441827
-0.444353
-0.447109
-0.448554
-0.44728
-0.442334
-0.433377
-0.420639
-0.404734
-0.386258
-0.365987
-0.344019
-0.321371
-0.298446
-0.275167
-0.598483
-0.516969
-0.435188
-0.363425
-0.309011
-0.274935
-0.259621
-0.26146
-0.281221
-0.317103
-0.358489
-0.387116
-0.385847
-0.349394
-0.290705
-0.230408
-0.18317
-0.152618
-0.137142
-0.134566
-0.143234
-0.165815
-0.208639
-0.268165
-0.321843
-0.340485
-0.311573
-0.252466
-0.190368
-0.144157
-0.117165
-0.105317
-0.109243
-0.132144
-0.1661
-0.189364
-0.181873
-0.151404
-0.117447
-0.093884
-0.0841305
-0.0898113
-0.104971
-0.115607
-0.110077
-0.0950229
-0.0784722
-0.0655136
-0.0580878
-0.0574664
-0.0553753
-0.0490083
-0.0421956
-0.0405792
-0.0421685
-0.0407793
-0.0319756
-0.0236049
-0.00870145
-0.00339699
-0.619776
-0.534741
-0.448156
-0.369847
-0.307678
-0.265102
-0.24136
-0.235223
-0.246674
-0.274583
-0.311064
-0.339544
-0.341432
-0.31169
-0.261551
-0.209901
-0.169488
-0.143562
-0.131921
-0.133043
-0.145559
-0.172873
-0.221635
-0.286905
-0.344791
-0.364964
-0.333129
-0.269082
-0.201075
-0.148877
-0.116548
-0.0995099
-0.0973866
-0.113032
-0.140192
-0.159413
-0.152999
-0.128519
-0.102495
-0.086585
-0.084128
-0.0974589
-0.120151
-0.135239
-0.128662
-0.108761
-0.0865423
-0.0677798
-0.0541729
-0.0489302
-0.0436947
-0.0386866
-0.035969
-0.0404334
-0.049773
-0.0513137
-0.0430725
-0.0302724
-0.00553832
-0.000644745
-0.609676
-0.524114
-0.438877
-0.360482
-0.296325
-0.249562
-0.219264
-0.204078
-0.20509
-0.222475
-0.250814
-0.277293
-0.284232
-0.262933
-0.223794
-0.182355
-0.149317
-0.128517
-0.121069
-0.12586
-0.141765
-0.172644
-0.22514
-0.293771
-0.354478
-0.377892
-0.346131
-0.279737
-0.207535
-0.150754
-0.114009
-0.0923436
-0.0846231
-0.0935014
-0.114225
-0.130083
-0.124905
-0.105873
-0.0868929
-0.0780793
-0.0830043
-0.104376
-0.134999
-0.154993
-0.147507
-0.12208
-0.0939125
-0.0696408
-0.0503145
-0.0406967
-0.0322692
-0.0284731
-0.0296762
-0.0400724
-0.0568966
-0.0614135
-0.0538398
-0.0369449
-0.00240024
0.00196688
-0.574548
-0.492062
-0.413662
-0.339866
-0.277552
-0.230281
-0.196534
-0.175074
-0.165839
-0.170762
-0.188151
-0.208925
-0.21872
-0.206651
-0.179667
-0.148906
-0.123481
-0.107945
-0.104507
-0.112527
-0.130831
-0.163108
-0.216175
-0.28605
-0.349185
-0.37617
-0.348872
-0.283455
-0.20923
-0.149603
-0.109705
-0.0844808
-0.0718559
-0.0746665
-0.0896083
-0.102497
-0.0987736
-0.0840298
-0.0708903
-0.0683058
-0.0802926
-0.109726
-0.148644
-0.174031
-0.165904
-0.134726
-0.100406
-0.0710018
-0.0465652
-0.0329309
-0.0213053
-0.0184816
-0.023345
-0.0394021
-0.0634083
-0.0708948
-0.0641111
-0.0435537
0.000611609
0.00443107
-0.52431
-0.448239
-0.380074
-0.314119
-0.255934
-0.209703
-0.17466
-0.149091
-0.132942
-0.127318
-0.13271
-0.144805
-0.153965
-0.149106
-0.132877
-0.111932
-0.0937268
-0.0830872
-0.0831819
-0.0939117
-0.113763
-0.145615
-0.196269
-0.264136
-0.328619
-0.360119
-0.340359
-0.279794
-0.20649
-0.145721
-0.103936
-0.0762699
-0.0599139
-0.0573607
-0.0671437
-0.0774649
-0.0754437
-0.0632989
-0.0547089
-0.0572517
-0.075467
-0.112687
-0.160099
-0.191294
-0.183254
-0.146497
-0.105948
-0.0718416
-0.0429629
-0.0257605
-0.0109975
-0.00877993
-0.0169957
-0.0383464
-0.0692035
-0.0795834
-0.0737323
-0.0500094
0.00336052
0.00673858
-0.465733
-0.399633
-0.343846
-0.287537
-0.235361
-0.191395
-0.155872
-0.127872
-0.106843
-0.0932808
-0.0884571
-0.091139
-0.0967736
-0.0976392
-0.087662
-0.0745767
-0.0624553
-0.0560567
-0.0591251
-0.0720206
-0.092782
-0.122971
-0.168871
-0.231158
-0.294391
-0.331376
-0.321099
-0.268844
-0.199609
-0.139543
-0.097028
-0.0679997
-0.048979
-0.0421423
-0.0473277
-0.0553857
-0.0538364
-0.0440356
-0.0387555
-0.0450974
-0.0685987
-0.112795
-0.168255
-0.205635
-0.198718
-0.157109
-0.110452
-0.07215
-0.0395464
-0.0192996
-0.00151659
0.000535706
-0.0106914
-0.036838
-0.0741732
-0.0873354
-0.0825577
-0.0561992
0.00570094
0.00887587
-0.40937
-0.354746
-0.310845
-0.263909
-0.218068
-0.177208
-0.142016
-0.112546
-0.0884723
-0.069615
-0.0567916
-0.050842
-0.0503348
-0.0511154
-0.0462961
-0.0392239
-0.0318976
-0.0289677
-0.0342991
-0.0486501
-0.0697483
-0.0976218
-0.137502
-0.192094
-0.251352
-0.292861
-0.293435
-0.251966
-0.189285
-0.131714
-0.0895379
-0.0600323
-0.0392799
-0.0290672
-0.0303411
-0.0364487
-0.035128
-0.0267815
-0.0236228
-0.0324146
-0.0596618
-0.109466
-0.172512
-0.216099
-0.211831
-0.166306
-0.113897
-0.0719458
-0.0363208
-0.0136249
0.00698049
0.00937243
-0.0044865
-0.0348691
-0.0782649
-0.0940527
-0.0904521
-0.0619938
0.00750373
0.0108303
-0.361754
-0.317907
-0.283517
-0.244507
-0.204607
-0.167355
-0.133331
-0.103155
-0.0772509
-0.0553703
-0.0374047
-0.0243231
-0.0170483
-0.0145445
-0.0124129
-0.00766471
-0.00381137
-0.00359072
-0.0105488
-0.0255594
-0.0464056
-0.0718357
-0.105669
-0.151613
-0.204792
-0.248801
-0.259106
-0.230144
-0.176065
-0.122637
-0.0818251
-0.052606
-0.0309926
-0.0182459
-0.0162046
-0.0205922
-0.0196689
-0.0119869
-0.00991064
-0.019651
-0.0491745
-0.10284
-0.172034
-0.221745
-0.221087
-0.173641
-0.116256
-0.0712526
-0.0332521
-0.00874884
0.0143734
0.0176128
0.00151482
-0.0324231
-0.0814229
-0.0996572
-0.0972869
-0.0672752
0.00867727
0.0125938
-0.325365
-0.290151
-0.262325
-0.229298
-0.194513
-0.16101
-0.129139
-0.0993368
-0.0723744
-0.0486366
-0.0279487
-0.0102242
0.00320357
0.0109355
0.0148064
0.0190335
0.0200456
0.0186838
0.0110129
-0.00380853
-0.0237595
-0.0468799
-0.0753698
-0.113045
-0.159039
-0.202812
-0.221813
-0.205691
-0.160909
-0.112685
-0.0740495
-0.0457374
-0.024053
-0.0096241
-0.00480376
-0.00758181
-0.00729597
9.47208e-05
0.00193201
-0.00734859
-0.0373443
-0.0925621
-0.167259
-0.222528
-0.229707
-0.178951
-0.117516
-0.070086
-0.0303207
-0.00462865
0.0205718
0.025204
0.00730438
-0.0295675
-0.0837102
-0.104112
-0.102976
-0.071983
0.00915636
0.0141641
-0.297863
-0.269672
-0.246281
-0.21759
-0.187135
-0.157138
-0.127781
-0.0993445
-0.0724194
-0.0476794
-0.0254454
-0.00551027
0.0117484
0.0246819
0.0324333
0.0357619
0.0381093
0.0359585
0.0283795
0.0147969
-0.00335962
-0.0242028
-0.0485775
-0.0791632
-0.116977
-0.1589
-0.177945
-0.177397
-0.143409
-0.101939
-0.0664463
-0.0396094
-0.0185487
-0.00325578
0.00387675
0.00278031
0.00229679
0.00690242
0.0115222
0.00376856
-0.0252882
-0.0801629
-0.15703
-0.217444
-0.228017
-0.181074
-0.117658
-0.0685786
-0.0276827
-0.00136464
0.0255272
0.0320052
0.0127159
-0.0263201
-0.0850138
-0.107375
-0.107398
-0.0760693
0.00887791
0.0155372
-0.276135
-0.254988
-0.23477
-0.209137
-0.182087
-0.155001
-0.12777
-0.100716
-0.0744261
-0.0495323
-0.026491
-0.00536629
0.0139761
0.030345
0.0421345
0.0491581
0.0520919
0.0497434
0.0425434
0.0304814
0.0144052
-0.00414338
-0.0247925
-0.0494564
-0.0817981
-0.122052
-0.161914
-0.155314
-0.12834
-0.0928582
-0.0604813
-0.0350702
-0.0147777
0.000839222
0.00995826
0.0106928
0.00963311
0.0138588
0.0188369
0.0139622
-0.0126963
-0.0655972
-0.143297
-0.20855
-0.222487
-0.181179
-0.117361
-0.067244
-0.0254541
0.000980621
0.0289841
0.0380722
0.0178903
-0.0227563
-0.0856279
-0.109506
-0.110598
-0.0793271
0.0078971
0.0166948
-0.257308
-0.244999
-0.227909
-0.205327
-0.181843
-0.158121
-0.133744
-0.108819
-0.0837517
-0.0591579
-0.0356807
-0.013678
0.00663802
0.0245851
0.039394
0.051847
0.0575807
0.0576774
0.0521563
0.0426724
0.029805
0.0133629
-0.00582227
-0.0259681
-0.0505222
-0.0830922
-0.114672
-0.121263
-0.105869
-0.0795752
-0.0524077
-0.0293378
-0.0102687
0.00482634
0.0150318
0.0173421
0.0158792
0.0188798
0.0232624
0.0209532
-0.00185372
-0.0504959
-0.125642
-0.192984
-0.21121
-0.176138
-0.115002
-0.064965
-0.0224914
0.0036943
0.0314376
0.0428676
0.0224296
-0.0188971
-0.085081
-0.110347
-0.112462
-0.0812847
0.00664832
0.0176583
-0.229023
-0.229303
-0.212672
-0.189102
-0.165171
-0.14226
-0.119704
-0.0968292
-0.0736227
-0.0506318
-0.0285702
-0.0076759
0.0119749
0.0297257
0.0449232
0.060548
0.0639293
0.0658554
0.0618948
0.0535738
0.0434474
0.0308138
0.0151182
-0.00246703
-0.0276634
-0.0632902
-0.0951387
-0.101876
-0.0861475
-0.062839
-0.0394224
-0.019324
-0.00262782
0.0107116
0.0202789
0.0231596
0.0214851
0.0235361
0.0305586
0.0300904
0.0109661
-0.0342046
-0.107251
-0.177574
-0.201481
-0.169143
-0.108182
-0.0588781
-0.0177704
0.00750929
0.0345802
0.0480264
0.0271032
-0.0146017
-0.0839493
-0.110652
-0.113578
-0.0820712
0.00547217
0.0184435
-0.201485
-0.205215
-0.190838
-0.168299
-0.145594
-0.124706
-0.104785
-0.0846286
-0.0638811
-0.0429988
-0.0227555
-0.00353973
0.0144148
0.030483
0.0438249
0.0517649
0.0632837
0.0675145
0.0653531
0.0590366
0.0517511
0.0429969
0.0312615
0.0149151
-0.0119967
-0.0477342
-0.0736642
-0.0781426
-0.0644925
-0.0457193
-0.027026
-0.0102884
0.00410298
0.0155578
0.0239992
0.026987
0.0253296
0.0266277
0.0330869
0.0347659
0.0184025
-0.022515
-0.0920182
-0.162293
-0.188147
-0.157897
-0.0995241
-0.0522199
-0.0130332
0.0109119
0.0369286
0.0508239
0.0299945
-0.011465
-0.0827389
-0.110282
-0.111391
-0.0819591
0.00407417
0.0188263
-0.178481
-0.182447
-0.170954
-0.151304
-0.130817
-0.111814
-0.0938142
-0.0756629
-0.0568615
-0.037692
-0.0189135
-0.00103846
0.0157134
0.0308077
0.0434924
0.0533831
0.0626728
0.067485
0.0667181
0.0622417
0.0575492
0.0524503
0.0435719
0.0270456
0.000449576
-0.0312723
-0.0543784
-0.0556314
-0.0454238
-0.0311415
-0.0163543
-0.00249833
0.0098442
0.0197112
0.0272047
0.0302325
0.028453
0.0289625
0.0350663
0.0375724
0.0221806
-0.0155649
-0.0800324
-0.144844
-0.17022
-0.143903
-0.0898577
-0.0454246
-0.00850652
0.013963
0.0384346
0.0528175
0.031544
-0.00960382
-0.081416
-0.108881
-0.108815
-0.0809096
0.00232904
0.0189003
-0.157191
-0.16099
-0.151975
-0.135086
-0.116661
-0.0992645
-0.082866
-0.0665276
-0.0496865
-0.0324369
-0.0153531
0.00103971
0.0164386
0.0304033
0.0423938
0.0522427
0.0608106
0.0660711
0.0667499
0.0642099
0.0616406
0.0590758
0.0520869
0.0366715
0.0127988
-0.0139522
-0.0317599
-0.0343687
-0.0276314
-0.0173344
-0.00623798
0.00478051
0.0151402
0.02338
0.0296534
0.0325513
0.0306998
0.0305634
0.0358567
0.0392978
0.0245747
-0.0100004
-0.0668527
-0.124138
-0.149013
-0.127008
-0.0786821
-0.0381689
-0.00396745
0.0168007
0.0389636
0.0539791
0.0322139
-0.00807521
-0.07924
-0.106356
-0.104803
-0.078664
0.000392167
0.018639
-0.137192
-0.14128
-0.134238
-0.11983
-0.103524
-0.0878905
-0.0731674
-0.0586265
-0.0436797
-0.0282701
-0.0128276
0.00212738
0.016235
0.0291373
0.0404582
0.0500896
0.0581684
0.0636639
0.0655877
0.0647968
0.063684
0.0623073
0.0567641
0.0439182
0.0241836
0.00291584
-0.0112272
-0.0154495
-0.012271
-0.00554491
0.00249382
0.0110514
0.0196464
0.0265459
0.0316368
0.0342526
0.0322504
0.0315376
0.0357028
0.039653
0.0260775
-0.00367662
-0.0513324
-0.101294
-0.124933
-0.107773
-0.066384
-0.0307979
0.000261768
0.0192857
0.0384892
0.0541425
0.0322085
-0.00627061
-0.0759053
-0.102599
-0.0992598
-0.0751099
-0.00160759
0.0179175
-0.119452
-0.123576
-0.117963
-0.105689
-0.091418
-0.0775326
-0.0644037
-0.0514858
-0.0382361
-0.0245357
-0.0106992
0.00281834
0.0156569
0.0275094
0.0380627
0.0472012
0.054876
0.0604753
0.0633342
0.0639143
0.0637461
0.0628546
0.0586097
0.0487146
0.0334818
0.0170884
0.00524714
-0.000184573
0.000422945
0.00455564
0.0102026
0.0166255
0.0235664
0.0292395
0.0331647
0.0353916
0.0332858
0.0320444
0.0349575
0.0387706
0.0271261
0.00318154
-0.0353445
-0.0776478
-0.0992607
-0.0870245
-0.0532426
-0.0233675
0.00415086
0.0213523
0.0370226
0.0531567
0.031516
-0.00418672
-0.0713305
-0.097518
-0.0922012
-0.0701485
-0.00345828
0.0168471
-0.103653
-0.107452
-0.102982
-0.0925976
-0.0802219
-0.0680144
-0.0564088
-0.0450069
-0.0333377
-0.0212495
-0.00895377
0.00316817
0.0147655
0.0255626
0.0353064
0.0438571
0.0511166
0.0566849
0.0601315
0.0616608
0.06214
0.0616098
0.0585224
0.0511922
0.03978
0.0271956
0.017344
0.0116886
0.0106799
0.0128726
0.016659
0.0213113
0.0267685
0.0314335
0.034394
0.0361438
0.0341157
0.0324006
0.0341126
0.0369177
0.027423
0.00911714
-0.0203249
-0.054384
-0.0732999
-0.0658237
-0.0397973
-0.0160911
0.00758585
0.0228872
0.0347713
0.0508889
0.0300021
-0.00195147
-0.0653516
-0.0909656
-0.083702
-0.0637833
-0.00494615
0.0153615
-0.0891137
-0.0927129
-0.089263
-0.0805556
-0.0699104
-0.0592709
-0.0491005
-0.0391127
-0.0289006
-0.0182991
-0.00745165
0.00332556
0.013715
0.023473
0.0323877
0.040306
0.0471076
0.0525259
0.0562773
0.05842
0.0593965
0.0592353
0.0570334
0.051639
0.0432185
0.0336957
0.025695
0.0204565
0.0186202
0.019524
0.0219742
0.0252476
0.0293864
0.0331485
0.0353698
0.0366109
0.0348444
0.0328864
0.0336249
0.0346303
0.0269801
0.013923
-0.00667885
-0.0325737
-0.0485123
-0.045376
-0.0267042
-0.00909312
0.0106057
0.023837
0.0321807
0.047267
0.0277074
0.000546209
-0.0576798
-0.0827354
-0.0739712
-0.0561513
-0.00585102
0.0135227
-0.0759539
-0.0794139
-0.0768045
-0.0695423
-0.0604399
-0.051232
-0.0423875
-0.0337008
-0.0248227
-0.0155898
-0.00609621
0.00340469
0.0126379
0.0213863
0.0294629
0.0367268
0.0430441
0.048229
0.0520825
0.0545852
0.0559195
0.0560806
0.0545613
0.0506714
0.0445912
0.0375058
0.0312074
0.0267204
0.0246253
0.0247122
0.0261946
0.0284155
0.031451
0.0344111
0.0360887
0.0369043
0.0354695
0.0335111
0.0336942
0.032978
0.0265199
0.0180628
0.00525913
-0.0132487
-0.026298
-0.0268958
-0.014703
-0.00253522
0.0132429
0.0242432
0.0299867
0.0426057
0.0251565
0.00366079
-0.0480228
-0.0726202
-0.063348
-0.0475678
-0.00601948
0.0114467
-0.064215
-0.0674246
-0.0654817
-0.0594676
-0.0517362
-0.0438227
-0.0361867
-0.0286874
-0.0210284
-0.0130498
-0.00480457
0.00350536
0.0116434
0.0194147
0.0266554
0.0332686
0.0390886
0.043975
0.0477796
0.0504498
0.0520236
0.0524809
0.0515603
0.048873
0.0445937
0.0394395
0.0346346
0.0309858
0.028963
0.0285908
0.0294227
0.0308801
0.033053
0.0353125
0.0365483
0.0370859
0.0359665
0.0342348
0.0341758
0.0327063
0.0270912
0.0220043
0.0150993
0.00253974
-0.00811746
-0.0115273
-0.0044078
0.00344881
0.0155289
0.024327
0.0289886
0.0376246
0.0233459
0.00786706
-0.0362819
-0.0605288
-0.0523001
-0.0385368
-0.00538677
0.00930208
-0.0536024
-0.0565709
-0.0551918
-0.0502609
-0.0437401
-0.0369841
-0.0304399
-0.0240183
-0.0174643
-0.0106207
-0.00351148
0.00370243
0.0108195
0.0176585
0.0240426
0.030049
0.0353658
0.0399119
0.0435697
0.0462793
0.0480152
0.0487495
0.0483521
0.0466214
0.0437217
0.0400899
0.0365389
0.033705
0.0319475
0.0313713
0.0317908
0.032702
0.0342254
0.0359121
0.0367728
0.037176
0.0363321
0.0349696
0.0348322
0.0337347
0.0294573
0.0265847
0.022911
0.0140645
0.00519487
0.00030604
0.00398612
0.00873444
0.0174781
0.0244247
0.0292513
0.0335078
0.023487
0.0134173
-0.0229412
-0.0467846
-0.0414335
-0.0297099
-0.00401665
0.00728486
-0.0440279
-0.0467955
-0.0458751
-0.0418634
-0.036399
-0.0306718
-0.0251074
-0.0196509
-0.014082
-0.00825318
-0.00216872
0.00404733
0.0102309
0.0162422
0.0219869
0.0272217
0.0319891
0.03616
0.039612
0.0422811
0.0441155
0.0450866
0.0451348
0.0441658
0.0423206
0.039875
0.0373642
0.0352563
0.0338442
0.0332276
0.0334117
0.0339635
0.0350053
0.0362562
0.0368263
0.0371515
0.0365869
0.0355995
0.0355328
0.0354279
0.0331846
0.0316245
0.0289682
0.0218262
0.0143704
0.00928907
0.0106245
0.0132271
0.0191843
0.0248607
0.0301674
0.031255
0.0262029
0.0198734
-0.00934542
-0.0324085
-0.0313638
-0.0217288
-0.00213962
0.00558779
-0.0354789
-0.0380152
-0.0374443
-0.0342098
-0.0296669
-0.0248474
-0.020148
-0.015542
-0.010844
-0.00591816
-0.000753728
0.00455728
0.0098798
0.0150909
0.0200846
0.0247401
0.0290054
0.0327978
0.0360106
0.0385875
0.0404692
0.0416302
0.0420414
0.0416686
0.0406268
0.0390962
0.0374198
0.0359318
0.0348852
0.0343389
0.034409
0.034749
0.0354419
0.0363687
0.0367547
0.0370069
0.0367201
0.0360739
0.0361698
0.0369472
0.0363078
0.0355504
0.0329996
0.026769
0.0205999
0.0159132
0.0157348
0.0168755
0.0207901
0.0256299
0.0308629
0.0309005
0.0298085
0.0255196
0.00235904
-0.0190916
-0.022492
-0.0150235
-0.000135523
0.00432736
-0.0278135
-0.0301154
-0.0298221
-0.027245
-0.0234963
-0.0194673
-0.0155254
-0.0116661
-0.007735
-0.00360601
0.000742496
0.005244
0.00978573
0.0142647
0.018587
0.0226757
0.0264605
0.0298771
0.0328338
0.0352828
0.0371663
0.0384628
0.0391553
0.0392422
0.0388056
0.0379653
0.0369489
0.0359785
0.0352769
0.0348624
0.034895
0.0351277
0.0355907
0.0362747
0.0365698
0.0367578
0.0366993
0.0363538
0.0366007
0.0377592
0.0378277
0.0374464
0.0350095
0.0296798
0.0247052
0.0206408
0.0195678
0.0197244
0.0223713
0.0264444
0.0308387
0.0313834
0.0320126
0.0286797
0.0104119
-0.00851964
-0.0149943
-0.00977228
0.00159268
0.00367758
-0.020925
-0.0230196
-0.0229444
-0.0209147
-0.0178462
-0.0145037
-0.0112216
-0.00801166
-0.00474683
-0.00131197
0.00232058
0.00610489
0.00994947
0.0137702
0.0174875
0.0210431
0.024372
0.0274219
0.0301151
0.0324106
0.034254
0.0356305
0.0365279
0.0369545
0.0369658
0.036646
0.0361369
0.0355853
0.0351836
0.0349293
0.0349751
0.0351675
0.0354989
0.0360005
0.0362644
0.0364136
0.0365007
0.0363996
0.0366225
0.0377691
0.0380262
0.0377633
0.0355971
0.0312103
0.0272486
0.0238355
0.0223545
0.0219008
0.0238473
0.027058
0.0302715
0.0315095
0.031952
0.0289967
0.0145101
-0.00142072
-0.00883253
-0.0057549
0.00268541
0.0031847
-0.0147746
-0.0166701
-0.0167542
-0.015174
-0.0126813
-0.00992726
-0.00721342
-0.00456289
-0.00187266
0.000960955
0.00397028
0.00712617
0.0103542
0.0135864
0.0167593
0.0198265
0.0227308
0.0254296
0.0278576
0.0299806
0.0317515
0.0331582
0.0341877
0.0348485
0.0351815
0.0352375
0.0351128
0.0348948
0.0347434
0.0346522
0.0347432
0.0349316
0.0352017
0.0355756
0.0358318
0.0359738
0.0361283
0.0362066
0.0363805
0.0372226
0.0374625
0.0371865
0.0353588
0.0318515
0.0286878
0.0258589
0.0243065
0.023538
0.0250206
0.0273453
0.0294452
0.0309055
0.0308151
0.028075
0.0162934
0.00296649
-0.00393606
-0.00263965
0.00312385
0.002656
-0.00929344
-0.0109879
-0.0111816
-0.00996758
-0.00795868
-0.00570773
-0.00348311
-0.00131368
0.000884293
0.00320239
0.00567467
0.0082847
0.0109722
0.0136782
0.0163722
0.018998
0.021511
0.0238771
0.0260437
0.0279822
0.029653
0.0310435
0.0321422
0.0329573
0.0335154
0.0338182
0.0339736
0.0340168
0.0340679
0.0341247
0.0342767
0.0344806
0.0347307
0.0350268
0.035278
0.035433
0.0355993
0.0357726
0.0358819
0.0364073
0.0365266
0.0361869
0.0346806
0.03193
0.0293805
0.0270453
0.025607
0.0247218
0.025743
0.0273159
0.0285556
0.0297145
0.0292446
0.0267066
0.0170055
0.00574958
-0.000240062
-0.000212527
0.00313304
0.0021307
-0.00439078
-0.0058973
-0.00616663
-0.00525123
-0.00364911
-0.00182767
-2.10402e-05
0.0017386
0.00351844
0.00539877
0.00741364
0.00955557
0.0117795
0.0140465
0.0162984
0.0185211
0.0206739
0.0227281
0.0246406
0.0263871
0.0279351
0.0292712
0.0303867
0.0312895
0.0320204
0.0324595
0.0328007
0.0330371
0.0332442
0.0334248
0.03364
0.0338692
0.0341202
0.0343766
0.0346163
0.0347871
0.0349381
0.0351316
0.0351852
0.0354575
0.0354385
0.0350325
0.0337884
0.0316513
0.0295832
0.0276465
0.0263746
0.0254983
0.0260207
0.0270062
0.0276263
0.0281791
0.0274339
0.025073
0.0171371
0.00764991
0.00244919
0.0016372
0.00300695
0.00169676
-4.42472e-05
-0.00136792
-0.00167772
-0.00099447
0.00028004
0.00172978
0.00318139
0.00459507
0.0060223
0.007533
0.00915919
0.0108995
0.0127223
0.0145944
0.0164739
0.0183425
0.0201704
0.0219361
0.023606
0.0251582
0.0265667
0.0278169
0.0288975
0.0297977
0.030506
0.0311494
0.031642
0.0320197
0.0323416
0.0326173
0.0328881
0.0331452
0.033404
0.0336433
0.0338666
0.0340439
0.0341723
0.0343397
0.0343498
0.034438
0.034303
0.0338535
0.0328113
0.0311462
0.0294631
0.0278404
0.0267431
0.0258985
0.0259478
0.0264679
0.0266429
0.0265597
0.0255719
0.0233442
0.0169063
0.00898262
0.00437413
0.00301536
0.00294962
0.00138951
0.00382617
0.00264754
0.00229481
0.00276892
0.00374862
0.00493402
0.00611075
0.00724567
0.00838368
0.0095876
0.0108909
0.0122955
0.0137748
0.0153051
0.0168561
0.0184113
0.0199488
0.0214513
0.022893
0.0242548
0.0255159
0.0266622
0.027685
0.0285755
0.0293439
0.0300042
0.03056
0.0310192
0.0314145
0.0317549
0.0320676
0.0323484
0.0326139
0.0328466
0.0330527
0.033224
0.0333285
0.0334491
0.0334243
0.0333898
0.0331723
0.032705
0.0318186
0.0304995
0.0291233
0.0277505
0.0267681
0.025964
0.0256411
0.0257588
0.0256117
0.0250199
0.0237947
0.0216646
0.0164563
0.00988636
0.00573237
0.00401895
0.00300921
0.00120779
0.00725334
0.00622286
0.00586572
0.00619616
0.00695679
0.00787913
0.00880549
0.00969975
0.0105951
0.0115437
0.0125762
0.0136975
0.0148889
0.01613
0.0173976
0.0186791
0.0199586
0.0212234
0.0224533
0.0236318
0.0247431
0.025775
0.026719
0.0275664
0.0283244
0.0289899
0.0295697
0.0300676
0.0305017
0.0308789
0.0312169
0.0315126
0.0317796
0.0320074
0.0321971
0.0323529
0.0324343
0.0325027
0.0324494
0.0323389
0.0320724
0.0316055
0.0308403
0.029769
0.0286284
0.0274563
0.0265311
0.0257555
0.0251896
0.02495
0.0245499
0.0236174
0.0221803
0.0201196
0.0158904
0.0104529
0.0066671
0.0047306
0.00314481
0.00113077
0.0102919
0.00940089
0.00904939
0.0092613
0.00983381
0.0105467
0.0112675
0.0119623
0.0126564
0.0133932
0.0142007
0.0150855
0.0160338
0.0170292
0.0180542
0.0190987
0.0201514
0.0212031
0.0222387
0.0232448
0.0242079
0.0251181
0.0259684
0.0267519
0.0274653
0.0281075
0.0286802
0.0291846
0.02963
0.0300203
0.0303665
0.0306662
0.030928
0.031147
0.0313201
0.0314553
0.0315159
0.0315408
0.031461
0.0313044
0.0310129
0.0305577
0.029886
0.0289925
0.0280224
0.0270087
0.026113
0.0253395
0.0246313
0.0240986
0.0234806
0.022357
0.0207662
0.0187476
0.0152742
0.0107568
0.00728533
0.00521913
0.0033049
0.00111974
0.012982
0.0122109
0.0118701
0.0119901
0.0124115
0.0129542
0.0135065
0.0140369
0.0145651
0.0151273
0.0157485
0.0164362
0.0171807
0.0179688
0.0187869
0.0196277
0.0204826
0.0213449
0.0222042
0.0230499
0.0238704
0.024657
0.0254035
0.0261061
0.0267576
0.0273552
0.027897
0.0283832
0.0288173
0.029201
0.02954
0.0298322
0.0300815
0.0302863
0.0304412
0.0305523
0.0305931
0.0305835
0.030483
0.0302983
0.0299965
0.0295594
0.0289576
0.0281927
0.027341
0.0264437
0.0255752
0.024783
0.0239916
0.0232437
0.0224347
0.0212183
0.01955
0.0175568
0.0146437
0.0108632
0.00766705
0.00553515
0.00344743
0.00113986
0.0153449
0.0146832
0.0143624
0.0144141
0.0147142
0.0151173
0.0155306
0.0159262
0.0163188
0.0167383
0.0172064
0.0177308
0.0183052
0.0189193
0.0195621
0.0202282
0.0209119
0.0216082
0.0223091
0.0230072
0.0236929
0.0243592
0.0250005
0.0256126
0.0261897
0.026727
0.027221
0.0276705
0.0280756
0.0284365
0.028755
0.0290289
0.0292589
0.0294436
0.0295774
0.029663
0.0296844
0.0296479
0.02953
0.029329
0.0290239
0.028607
0.028056
0.027381
0.0266134
0.0257958
0.0249551
0.0241371
0.0232907
0.0224051
0.0214415
0.0201784
0.0185038
0.0165366
0.0140202
0.0108244
0.00787389
0.00571325
0.00354983
0.00116867
0.0174195
0.0168562
0.0165585
0.0165584
0.0167607
0.01705
0.0173497
0.0176353
0.0179176
0.018221
0.018564
0.0189542
0.0193874
0.0198556
0.0203506
0.0208682
0.0214045
0.0219564
0.0225173
0.0230817
0.0236425
0.0241942
0.0247318
0.0252534
0.0257475
0.0262144
0.0266489
0.0270486
0.027412
0.0277376
0.0280248
0.028271
0.028475
0.0286343
0.0287436
0.0288039
0.0288048
0.0287462
0.0286127
0.0284016
0.0280963
0.0276965
0.0271826
0.026568
0.0258617
0.0250958
0.0242795
0.0234421
0.022554
0.0215897
0.0205179
0.019224
0.0175907
0.0156665
0.01342
0.0106791
0.00795089
0.00578316
0.00360343
0.00119318
0.019235
0.0187569
0.0184834
0.018445
0.01857
0.0187671
0.0189743
0.0191705
0.0193635
0.0195728
0.0198142
0.0200945
0.0204111
0.0207579
0.0211288
0.0215208
0.0219311
0.0223579
0.0227964
0.023242
0.0236888
0.0241332
0.0245706
0.0249985
0.0254121
0.0258043
0.0261733
0.0265151
0.0268284
0.0271101
0.0273583
0.0275696
0.0277417
0.0278702
0.0279521
0.0279866
0.027966
0.0278872
0.027739
0.0275198
0.027215
0.0268269
0.0263401
0.025765
0.0251015
0.0243705
0.0235727
0.0227265
0.0218072
0.0208005
0.0196671
0.0183511
0.0167784
0.0149207
0.0128548
0.0104565
0.00793261
0.00577315
0.00360819