/*--------------------------------*- C++ -*----------------------------------*\
| =========                 |                                                 |
| \\      /  F ield         | OpenFOAM: The Open Source CFD Toolbox           |
|  \\    /   O peration     | Version:  2512                                  |
|   \\  /    A nd           | Website:  www.openfoam.com                      |
|    \\/     M anipulation  |                                                 |
\*---------------------------------------------------------------------------*/
FoamFile
{
    version     2.0;
    format      ascii;
    arch        "LSB;label=32;scalar=64";
    class       volScalarField;
    location    "88";
    object      p;
}
// * * * * * * * * * * * * * * * * * * * * * * * * * * * * * * * * * * * * * //

dimensions      [0 2 -2 0 0 0 0];

internalField   nonuniform List<scalar> 
9800
(
0.0592965
0.0592009
0.0590189
0.058759
0.0584288
0.0580344
0.0575818
0.0570764
0.056523
0.0559262
0.0552904
0.05462
0.0539195
0.0531936
0.0524466
0.0516829
0.050907
0.0501231
0.0493353
0.0485474
0.0477629
0.0469852
0.046217
0.0454612
0.0447199
0.0439953
0.0432889
0.0426022
0.0419362
0.0412919
0.0406698
0.0400703
0.0394937
0.03894
0.0384091
0.0379008
0.0374147
0.0369504
0.0365074
0.0360851
0.0593916
0.0592968
0.0591161
0.0588581
0.0585301
0.0581382
0.0576882
0.0571851
0.0566338
0.0560386
0.0554038
0.0547337
0.0540328
0.0533055
0.0525563
0.0517896
0.0510096
0.0502208
0.0494272
0.0486328
0.0478411
0.0470555
0.0462789
0.0455141
0.0447636
0.0440294
0.0433133
0.0426168
0.0419411
0.041287
0.0406553
0.0400465
0.0394607
0.0388981
0.0383586
0.0378421
0.0373482
0.0368764
0.0364263
0.0359973
0.0595711
0.0594778
0.0592998
0.0590455
0.0587219
0.0583349
0.0578899
0.0573916
0.0568445
0.0562527
0.0556202
0.054951
0.0542496
0.0535201
0.052767
0.0519946
0.0512073
0.0504094
0.049605
0.0487983
0.0479928
0.0471922
0.0463995
0.0456177
0.0448494
0.0440969
0.0433621
0.0426467
0.041952
0.0412791
0.0406289
0.0400018
0.0393983
0.0388184
0.0382623
0.0377298
0.0372206
0.0367343
0.0362704
0.0358283
0.0598248
0.0597337
0.0595597
0.0593109
0.0589939
0.0586144
0.058177
0.0576861
0.0571457
0.0565594
0.0559308
0.0552638
0.0545623
0.0538304
0.0530724
0.0522926
0.0514953
0.0506848
0.0498654
0.0490412
0.0482163
0.0473942
0.0465783
0.045772
0.0449779
0.0441988
0.0434368
0.0426938
0.0419714
0.0412709
0.0405933
0.0399394
0.0393097
0.0387044
0.0381237
0.0375675
0.0370356
0.0365277
0.0360433
0.0355818
0.0601424
0.0600542
0.0598856
0.0596443
0.0593366
0.0589672
0.0585404
0.0580599
0.0575291
0.0569509
0.0563286
0.0556654
0.0549651
0.0542314
0.0534683
0.0526801
0.0518709
0.0510452
0.0502073
0.0493615
0.048512
0.0476626
0.0468172
0.0459793
0.045152
0.0443382
0.0435407
0.0427616
0.0420027
0.0412659
0.0405522
0.0398628
0.0391983
0.0385592
0.0379457
0.037358
0.0367958
0.0362591
0.0357472
0.0352598
0.0605141
0.0604298
0.0602681
0.0600365
0.0597405
0.0593844
0.0589716
0.0585049
0.057987
0.0574203
0.0568071
0.0561504
0.0554532
0.0547191
0.0539518
0.0531551
0.0523333
0.0514907
0.0506317
0.0497608
0.0488824
0.0480007
0.0471198
0.0462436
0.0453758
0.0445198
0.0436785
0.0428547
0.0420507
0.0412685
0.0405097
0.0397758
0.0390676
0.0383859
0.0377312
0.0371035
0.0365031
0.0359297
0.0353831
0.0348627
0.0609308
0.0608511
0.060698
0.0604784
0.0601971
0.0598576
0.0594624
0.0590134
0.0585124
0.0579609
0.0573607
0.0567138
0.0560228
0.0552907
0.0545209
0.0537169
0.0528827
0.0520225
0.0511408
0.0502423
0.0493316
0.0484131
0.0474913
0.0465707
0.0456555
0.0447496
0.0438565
0.0429794
0.0421212
0.0412843
0.040471
0.039683
0.0389216
0.038188
0.0374827
0.0368062
0.0361588
0.0355404
0.0349509
0.0343899
0.0613834
0.0613093
0.0611666
0.0609614
0.0606979
0.0603787
0.0600052
0.0595782
0.0590985
0.0585669
0.0579841
0.0573513
0.0566704
0.0559439
0.0551746
0.0543655
0.0535202
0.0526429
0.0517381
0.0508105
0.0498648
0.0489058
0.0479385
0.0469679
0.0459986
0.0450353
0.0440822
0.0431429
0.0422211
0.0413199
0.040442
0.0395898
0.038765
0.0379691
0.0372032
0.036468
0.035764
0.0350913
0.03445
0.0338399
0.0618637
0.0617961
0.0616655
0.0614773
0.0612349
0.0609397
0.0605922
0.060192
0.0597387
0.0592322
0.058672
0.0580586
0.0573929
0.0566766
0.0559119
0.0551012
0.0542476
0.053355
0.0524278
0.0514707
0.0504885
0.0494863
0.0484695
0.0474436
0.0464142
0.0453863
0.0443648
0.0433543
0.0423592
0.0413833
0.0404301
0.0395026
0.0386032
0.0377338
0.0368961
0.0360912
0.0353198
0.0345825
0.0338794
0.0332104
0.0623638
0.0623037
0.0621871
0.0620184
0.0618003
0.0615333
0.0612163
0.0608479
0.0604267
0.0599509
0.0594194
0.0588313
0.0581869
0.0574869
0.0567323
0.0559247
0.0550668
0.0541621
0.0532148
0.0522292
0.0512101
0.0501629
0.0490935
0.0480081
0.0469127
0.0458132
0.0447151
0.0436242
0.0425455
0.041484
0.040444
0.0394291
0.0384427
0.0374874
0.0365655
0.0356785
0.0348276
0.0340138
0.0332375
0.0324988
0.0628765
0.0628247
0.0627238
0.0625774
0.062387
0.0621519
0.06187
0.0615388
0.0611556
0.0607172
0.0602208
0.059665
0.0590491
0.0583724
0.0576346
0.0568364
0.0559798
0.055068
0.0541043
0.0530926
0.0520376
0.050945
0.0498212
0.0486728
0.0475064
0.0463284
0.0451457
0.0439647
0.0427919
0.0416332
0.0404939
0.0393786
0.0382916
0.0372364
0.0362161
0.0352331
0.0342891
0.0333854
0.0325228
0.0317018
0.0633948
0.0633524
0.0632689
0.0631472
0.0629878
0.0627887
0.0625465
0.0622579
0.061919
0.0615245
0.0610705
0.0605548
0.0599757
0.0593306
0.0586176
0.0578364
0.0569885
0.0560761
0.0551015
0.0540678
0.0529796
0.0518427
0.050664
0.0494503
0.0482085
0.0469461
0.0456708
0.0443903
0.0431124
0.0418441
0.040592
0.0393619
0.0381592
0.0369886
0.0358543
0.0347594
0.0337065
0.0326976
0.0317337
0.030816
0.0639128
0.0638805
0.0638161
0.0637215
0.0635963
0.0634366
0.0632386
0.0629984
0.0627099
0.0623662
0.0619624
0.0614956
0.0609624
0.0603579
0.0596789
0.0589241
0.0580942
0.0571896
0.0562114
0.0551617
0.054045
0.052867
0.0516345
0.0503545
0.0490343
0.0476821
0.0463067
0.0449174
0.0435231
0.0421323
0.0407528
0.039392
0.0380569
0.0367535
0.0354873
0.0342625
0.0330828
0.0319508
0.0308686
0.0298374
0.0644248
0.0644033
0.0643595
0.0642945
0.0642061
0.0640892
0.06394
0.0637536
0.0635214
0.0632351
0.0628899
0.0624817
0.0620041
0.0614503
0.0608157
0.0600984
0.0592973
0.0584109
0.0574384
0.056381
0.0552426
0.0540289
0.0527459
0.0514003
0.0499999
0.0485537
0.0470719
0.0455647
0.0440426
0.0425155
0.0409931
0.0394845
0.0379984
0.0365427
0.0351244
0.0337492
0.032422
0.0311465
0.0299257
0.0287617
0.0649259
0.0649158
0.064894
0.0648609
0.0648114
0.0647401
0.0646442
0.0645168
0.0643461
0.064124
0.0638462
0.0635065
0.0630949
0.0626025
0.0620241
0.0613569
0.0605974
0.0597413
0.058786
0.0577316
0.0565813
0.0553396
0.0540117
0.0526035
0.0511232
0.0495806
0.0479868
0.0463534
0.0446921
0.0430146
0.0413326
0.0396575
0.038
0.0363701
0.0347768
0.0332275
0.031729
0.0302863
0.0289037
0.0275844
0.0654116
0.0654135
0.0654153
0.0654157
0.0654066
0.0653838
0.0653457
0.0652813
0.0651768
0.0650258
0.0648243
0.0645627
0.0642276
0.0638083
0.0632994
0.0626963
0.0619924
0.0611807
0.0602565
0.0592187
0.058069
0.0568101
0.0554455
0.0539805
0.0524231
0.0507837
0.0490742
0.0473072
0.0454957
0.0436536
0.0417946
0.0399326
0.0380811
0.0362525
0.0344581
0.0327079
0.0310104
0.029373
0.0278014
0.0263002
0.0658779
0.0658925
0.0659197
0.0659546
0.0659865
0.0660153
0.0660386
0.0660401
0.0660063
0.0659335
0.0658169
0.0656425
0.065394
0.0650605
0.0646354
0.0641115
0.0634787
0.0627274
0.0618509
0.0608462
0.0597127
0.0584504
0.0570607
0.0555478
0.0539194
0.0521857
0.050359
0.0484525
0.0464809
0.0444599
0.0424058
0.0403354
0.038265
0.0362102
0.0341851
0.0322028
0.0302746
0.0284103
0.0266178
0.0249036
0.0663215
0.0663499
0.0664041
0.0664733
0.0665467
0.0666304
0.0667173
0.0667865
0.0668277
0.0668403
0.0668163
0.0667373
0.0665854
0.0663505
0.0660245
0.0655958
0.0650511
0.0643781
0.0635683
0.0626162
0.0615177
0.0602693
0.0588701
0.0573223
0.0556327
0.0538107
0.0518681
0.0498188
0.0476785
0.045465
0.0431975
0.0408956
0.0385792
0.0362674
0.0339781
0.031728
0.029532
0.0274031
0.0253523
0.0233883
0.0667393
0.0667833
0.0668661
0.0669682
0.067084
0.0672254
0.0673761
0.0675141
0.0676351
0.0677394
0.0678146
0.0678382
0.0677929
0.0676694
0.0674571
0.0671405
0.0667021
0.0661275
0.0654058
0.0645284
0.0634869
0.062274
0.060885
0.0593202
0.0575838
0.0556837
0.0536305
0.051438
0.049123
0.046705
0.0442058
0.0416484
0.0390565
0.0364534
0.0338618
0.0313028
0.0287959
0.0263583
0.0240047
0.0217471
0.0671286
0.0671913
0.0673035
0.0674361
0.067596
0.0677962
0.0680091
0.0682176
0.068423
0.0686242
0.0688035
0.0689362
0.0690073
0.0690074
0.0689229
0.0687345
0.0684221
0.067968
0.0673582
0.0665801
0.065621
0.0644689
0.0631152
0.0615563
0.059793
0.0578303
0.0556767
0.0533452
0.0508529
0.0482206
0.0454724
0.0426349
0.0397358
0.0368036
0.0338664
0.0309512
0.028083
0.0252844
0.0225753
0.019972
0.0674873
0.0675734
0.0677145
0.0678747
0.068081
0.0683385
0.0686112
0.0688928
0.0691864
0.0694878
0.0697749
0.0700226
0.0702189
0.0703538
0.0704102
0.0703661
0.0701992
0.0698888
0.0694168
0.0687657
0.0679177
0.0668561
0.0655675
0.0640433
0.0622794
0.060276
0.0580386
0.055578
0.0529105
0.0500576
0.0470452
0.0439031
0.0406635
0.0373607
0.0340292
0.0307031
0.0274145
0.0241931
0.0210653
0.0180536
0.0678136
0.0679295
0.0680975
0.068283
0.0685372
0.0688476
0.0691788
0.0695368
0.0699202
0.070324
0.070721
0.0710888
0.0714181
0.0716972
0.0719066
0.0720222
0.07202
0.0718766
0.0715695
0.0710755
0.0703709
0.0694339
0.0682456
0.0667911
0.0650596
0.0630454
0.0607485
0.0581761
0.0553421
0.0522674
0.0489789
0.045509
0.0418947
0.0381762
0.0343957
0.0305957
0.0268175
0.0230998
0.0194775
0.0159812
0.0681061
0.0682605
0.0684511
0.0686608
0.0689624
0.0693193
0.0697102
0.0701466
0.0706198
0.071127
0.0716343
0.0721266
0.0725948
0.0730261
0.0733993
0.073689
0.0738699
0.0739157
0.0738006
0.0734955
0.0729703
0.0721967
0.0711491
0.0698056
0.0681474
0.0661606
0.0638381
0.0611806
0.0581975
0.0549071
0.0513358
0.047518
0.0434945
0.0393122
0.0350217
0.0306756
0.0263264
0.0220245
0.0178163
0.0137431
0.0683643
0.0685676
0.0687741
0.0690082
0.0693532
0.0697513
0.070205
0.0707194
0.0712811
0.0718916
0.072508
0.0731286
0.0737391
0.0743294
0.074875
0.0753517
0.0757326
0.075989
0.0760922
0.0760077
0.0757001
0.0751328
0.0742722
0.0730878
0.0715518
0.0696406
0.067337
0.0646327
0.0615294
0.0580395
0.0541868
0.0500058
0.0455406
0.0408441
0.035976
0.031001
0.0259851
0.0209937
0.0160883
0.0113248
0.0685889
0.0688519
0.0690648
0.0693256
0.0697059
0.0701441
0.0706632
0.0712527
0.0719011
0.0726127
0.073336
0.0740882
0.0748411
0.0755964
0.0763204
0.0769955
0.0775905
0.0780773
0.0784238
0.0785912
0.0785393
0.078224
0.0776024
0.0766328
0.0752767
0.0734993
0.0712713
0.068572
0.0653912
0.061732
0.0576113
0.0530607
0.0481255
0.0428638
0.0373446
0.0316459
0.0258505
0.0200425
0.0143036
0.00870934
0.0687823
0.0691134
0.0693208
0.0696128
0.0700174
0.0705005
0.0710837
0.071745
0.072477
0.0732864
0.0741132
0.0749995
0.0758917
0.076818
0.0777214
0.0786061
0.079425
0.0801608
0.0807728
0.081222
0.0814634
0.081446
0.0811185
0.0804266
0.0793183
0.0777446
0.075662
0.0730345
0.0698359
0.0660546
0.0616957
0.0567826
0.0513581
0.0454829
0.0392347
0.0327056
0.0259981
0.0192201
0.0124792
0.00587813
0.0689501
0.0693499
0.0695398
0.0698695
0.0702876
0.0708245
0.071464
0.0721959
0.0730057
0.0739095
0.0748357
0.0758574
0.0768824
0.0779859
0.0790643
0.0801703
0.0812162
0.0822202
0.0831134
0.0838748
0.0844433
0.0847699
0.0847917
0.0844452
0.0836618
0.082375
0.0805236
0.0780518
0.0749139
0.0710786
0.066532
0.0612826
0.055364
0.0488349
0.0417786
0.0343013
0.0265273
0.0185939
0.0106429
0.00281323
0.0690987
0.0695559
0.0697209
0.0700952
0.0705187
0.0711193
0.0718017
0.0726065
0.0734837
0.074481
0.0755001
0.0766575
0.0778063
0.0790928
0.0803354
0.0816766
0.0829429
0.084237
0.0854171
0.0865233
0.0874442
0.0881636
0.0885856
0.0886556
0.0882777
0.0873759
0.0858589
0.083649
0.0806738
0.0768772
0.0722178
0.0666824
0.0602857
0.0530757
0.0451363
0.0365837
0.0275653
0.0182532
0.00883371
-0.000504894
0.0692346
0.0697248
0.0698662
0.0702888
0.0707156
0.071385
0.0720971
0.0729768
0.0739094
0.0750003
0.0761039
0.0773957
0.0786582
0.0801311
0.081524
0.0831136
0.0845847
0.0861944
0.0876519
0.0891419
0.0904245
0.0915924
0.0924532
0.0930189
0.093122
0.0927167
0.0916485
0.0898377
0.0871565
0.0835267
0.078862
0.0731221
0.0662883
0.0583897
0.0495001
0.0397389
0.0292734
0.0183136
0.00710191
-0.00410433
0.0693626
0.0698509
0.06998
0.0704488
0.0708848
0.071618
0.0723533
0.0733045
0.0742851
0.0754661
0.076648
0.0780674
0.0794369
0.0810915
0.0826244
0.0844673
0.0861267
0.0880729
0.0897889
0.0917043
0.0933375
0.0950197
0.0963336
0.0974897
0.0981305
0.0983517
0.0978409
0.0966048
0.0943721
0.0910971
0.0865788
0.0807705
0.073577
0.0650105
0.0551144
0.0440044
0.0318611
0.0189293
0.00551751
-0.00802462
0.0694851
0.0699319
0.0700672
0.0705742
0.0710319
0.071814
0.0725752
0.0735857
0.0746154
0.0758742
0.0771363
0.0786659
0.0801459
0.081962
0.0836384
0.0857184
0.0875651
0.0898454
0.0918114
0.0941748
0.0961461
0.0984016
0.100163
0.102015
0.103217
0.104224
0.104349
0.103906
0.102267
0.0996226
0.0954391
0.0898132
0.082395
0.0732545
0.0623144
0.0497097
0.0356191
0.0203175
0.00419031
-0.0123073
0.069602
0.0699701
0.0701321
0.0706655
0.0711611
0.0719703
0.0727675
0.0738172
0.0749057
0.0762204
0.0775735
0.079184
0.0807903
0.0827297
0.0845719
0.0868441
0.0889042
0.0914756
0.0937177
0.0965016
0.0988347
0.10167
0.103903
0.106515
0.108309
0.110253
0.111068
0.111672
0.110733
0.109083
0.105398
0.100391
0.092925
0.0835223
0.0715408
0.0573492
0.0409751
0.022798
0.00329223
-0.0169947
0.0697105
0.0699705
0.0701777
0.0707251
0.0712739
0.072088
0.072933
0.0739999
0.0751593
0.0765045
0.0779628
0.0796194
0.0813734
0.0833877
0.0854287
0.0878283
0.0901489
0.0929315
0.0955116
0.0986291
0.101401
0.104737
0.107536
0.110866
0.113368
0.116285
0.117936
0.11976
0.119684
0.119382
0.116358
0.112541
0.10515
0.0961962
0.0831489
0.0676654
0.0485284
0.0268764
0.0030594
-0.0221898
0.0698052
0.069941
0.0702066
0.0707565
0.0713693
0.0721706
0.0730729
0.0741378
0.0753768
0.0767312
0.0783033
0.0799778
0.0818927
0.0839408
0.0862051
0.0886718
0.0912945
0.0942044
0.0971874
0.10053
0.103836
0.107544
0.111047
0.114957
0.118369
0.122135
0.124913
0.127911
0.12911
0.130272
0.128352
0.126109
0.119073
0.11139
0.0971948
0.0815799
0.0588212
0.0335384
0.00372545
-0.0281465
0.0698811
0.0698899
0.070221
0.0707646
0.0714447
0.0722227
0.0731841
0.0742369
0.0755557
0.0769077
0.078591
0.0802677
0.0823414
0.0844
0.0868902
0.089387
0.0923245
0.0953063
0.0987195
0.102211
0.1061
0.110085
0.114379
0.118751
0.123241
0.127711
0.131936
0.135931
0.138975
0.14146
0.141562
0.140803
0.135188
0.128912
0.113997
0.0992967
0.072068
0.0450074
0.00538512
-0.0348852
0.0699348
0.0698246
0.0702222
0.0707535
0.0714984
0.072248
0.0732664
0.0743033
0.0756948
0.0770408
0.0788224
0.0804989
0.0827119
0.0847793
0.0874692
0.0899923
0.0932154
0.0962572
0.100077
0.103689
0.108157
0.11236
0.117482
0.122223
0.127893
0.132959
0.138848
0.143747
0.149078
0.152805
0.155882
0.156438
0.154139
0.148637
0.135316
0.12044
0.0893439
0.0619622
0.00794141
-0.0399046
0.0699656
0.0697506
0.0702107
0.0707263
0.0715291
0.0722506
0.0733198
0.0743419
0.0757935
0.0771364
0.0789965
0.0806795
0.0830013
0.0850897
0.087934
0.0905035
0.0939465
0.0970793
0.101215
0.104991
0.109922
0.114401
0.120216
0.125399
0.132131
0.137872
0.145412
0.151266
0.15915
0.164065
0.170976
0.172818
0.175782
0.170958
0.163113
0.145253
0.115222
0.0824232
0.0135659
-0.0378324
0.0699747
0.0696715
0.0701866
0.0706854
0.0715373
0.0722338
0.0733454
0.074356
0.0758539
0.0771985
0.0791166
0.080814
0.0832144
0.0853362
0.0882913
0.0909254
0.0945258
0.0977766
0.102138
0.106121
0.111382
0.116213
0.122526
0.128285
0.135795
0.142454
0.151238
0.158491
0.16842
0.17531
0.185756
0.189955
0.199066
0.195428
0.197619
0.176387
0.15537
0.10531
0.0310101
-0.0343821
0.0699634
0.0695892
0.0701502
0.0706328
0.0715242
0.0721999
0.0733449
0.0743479
0.0758813
0.0772298
0.0791864
0.0809054
0.0833567
0.0855214
0.0885488
0.0912582
0.0949642
0.0983435
0.102862
0.107061
0.11256
0.117753
0.124435
0.1308
0.138892
0.146566
0.156278
0.165227
0.176648
0.18634
0.199215
0.207779
0.221102
0.223207
0.234407
0.215782
0.213651
0.137134
0.0670866
-0.0884511
0.0699335
0.0695045
0.0701022
0.0705694
0.071492
0.0721506
0.0733208
0.0743186
0.0758735
0.0772315
0.0792101
0.0809555
0.0834331
0.0856467
0.0887123
0.0915024
0.0952683
0.0987774
0.103394
0.107801
0.113465
0.118992
0.125954
0.132866
0.141435
0.150024
0.160543
0.171064
0.183825
0.196292
0.211304
0.224945
0.241457
0.253107
0.268857
0.266742
0.277351
0.212957
0.177676
-0.204633
0.035693
0.0353232
0.0349586
0.0345996
0.0342463
0.0338991
0.0335582
0.0332238
0.0328962
0.0325756
0.0355991
0.0352236
0.0348535
0.0344891
0.0341307
0.0337786
0.033433
0.0330941
0.0327624
0.0324379
0.0354181
0.0350315
0.0346506
0.0342757
0.0339073
0.0335456
0.0331908
0.0328434
0.0325035
0.0321714
0.0351539
0.0347506
0.0343536
0.0339633
0.0335799
0.0332039
0.0328356
0.0324753
0.0321233
0.03178
0.034808
0.0343826
0.033964
0.0335529
0.0331495
0.0327543
0.0323678
0.0319902
0.031622
0.0312635
0.0343806
0.033927
0.033481
0.0330433
0.0326144
0.0321949
0.0317851
0.0313855
0.0309966
0.0306189
0.0338704
0.0333819
0.032902
0.0324316
0.0319712
0.0315215
0.0310829
0.0306562
0.0302418
0.0298402
0.0332751
0.0327442
0.0322232
0.031713
0.0312144
0.030728
0.0302546
0.0297949
0.0293495
0.028919
0.0325914
0.0320098
0.0314395
0.0308816
0.0303371
0.0298068
0.0292915
0.0287922
0.0283096
0.0278446
0.0318153
0.0311735
0.0305446
0.0299299
0.0293308
0.0287481
0.0281831
0.0276367
0.02711
0.0266039
0.0309422
0.0302291
0.0295308
0.028849
0.0281852
0.0275407
0.0269168
0.0263148
0.0257359
0.0251814
0.0299668
0.0291697
0.0283896
0.0276286
0.0268886
0.0261712
0.025478
0.0248105
0.0241704
0.0235591
0.028883
0.0279872
0.027111
0.0262569
0.0254273
0.0246241
0.0238495
0.0231053
0.0223935
0.021716
0.027684
0.0266725
0.0256833
0.0247198
0.0237851
0.0228815
0.0220117
0.0211778
0.0203825
0.0196279
0.0263621
0.0252148
0.0240932
0.0230015
0.0219436
0.0209225
0.0199413
0.019003
0.0181106
0.0172668
0.0249086
0.0236021
0.0223251
0.0210832
0.019881
0.0187225
0.0176116
0.0165518
0.015547
0.0146002
0.0233134
0.0218201
0.0203609
0.0189428
0.0175718
0.0162527
0.0149907
0.01379
0.0126553
0.0115904
0.0215649
0.019852
0.0181788
0.0165539
0.0149852
0.0134788
0.0120411
0.0106773
0.00939325
0.00819333
0.0196493
0.017678
0.0157528
0.0138851
0.0120848
0.0103597
0.00871779
0.00716571
0.00571049
0.00435728
0.0175503
0.0152739
0.0130516
0.0108982
0.00882603
0.00684553
0.00496665
0.0031977
0.00154724
2.12414e-05
0.0152484
0.0126106
0.0100368
0.00754615
0.00515467
0.00287573
0.000722015
-0.00129604
-0.00316806
-0.00488707
0.0127201
0.00965241
0.00666103
0.00377106
0.0010034
-0.00162454
-0.00409668
-0.00639981
-0.00852151
-0.0104537
0.00993737
0.00635567
0.00286566
-0.00049929
-0.00371163
-0.00674842
-0.00958917
-0.0122172
-0.0146177
-0.0167815
0.00686546
0.00266609
-0.00142233
-0.00535501
-0.00909509
-0.012612
-0.0158793
-0.0188758
-0.0215843
-0.0239947
0.00346037
-0.00148587
-0.00629654
-0.010911
-0.0152796
-0.0193612
-0.0231213
-0.0265331
-0.0295767
-0.032242
-0.000332597
-0.00618955
-0.0118786
-0.0173169
-0.0224369
-0.027183
-0.0315102
-0.0353851
-0.0387851
-0.0417015
-0.00457887
-0.0115569
-0.0183244
-0.0247663
-0.0307893
-0.0363184
-0.0412949
-0.0456779
-0.0494436
-0.0525879
-0.00935919
-0.0177294
-0.0258331
-0.0335081
-0.040623
-0.0470756
-0.0527897
-0.0577178
-0.0618385
-0.0651581
-0.0147841
-0.0248978
-0.0346706
-0.0438702
-0.0523096
-0.0598477
-0.066388
-0.071879
-0.0763108
-0.0797111
-0.021013
-0.033337
-0.0452132
-0.0563062
-0.0663483
-0.0751464
-0.082583
-0.0886146
-0.0932606
-0.0965887
-0.0282644
-0.0434368
-0.0579996
-0.0714583
-0.0834251
-0.0936432
-0.10199
-0.108462
-0.113145
-0.116175
-0.0368185
-0.0557246
-0.0737863
-0.0902303
-0.104477
-0.116212
-0.125362
-0.132043
-0.136475
-0.138891
-0.0470615
-0.0709503
-0.0936777
-0.113898
-0.130751
-0.14395
-0.153616
-0.160119
-0.163885
-0.165263
-0.0596479
-0.0904198
-0.119446
-0.14426
-0.163787
-0.178053
-0.1877
-0.193541
-0.196189
-0.196065
-0.0760732
-0.116955
-0.154001
-0.183713
-0.205315
-0.219584
-0.228208
-0.232703
-0.233794
-0.23187
-0.10142
-0.157464
-0.202538
-0.235823
-0.257741
-0.269888
-0.27545
-0.277041
-0.275875
-0.272077
-0.146229
-0.223629
-0.274141
-0.306045
-0.323309
-0.329908
-0.329423
-0.324929
-0.318827
-0.311983
-0.20995
-0.314174
-0.375725
-0.395758
-0.397281
-0.395063
-0.388014
-0.374959
-0.36008
-0.347117
-0.291073
-0.386645
-0.504551
-0.49837
-0.451573
-0.41571
-0.394196
-0.379751
-0.368662
-0.358859
-0.70386
-0.432216
-0.528567
-0.522362
-0.49717
-0.451971
-0.414248
-0.38615
-0.367356
-0.352527
0.0322444
0.0319007
0.0315589
0.0312198
0.0308842
0.030553
0.0302271
0.0299074
0.0295949
0.0292906
0.0289953
0.0287101
0.0284357
0.0281731
0.0279229
0.0276861
0.0274628
0.027254
0.0270596
0.0268799
0.0267146
0.0265636
0.0264266
0.0263023
0.0261891
0.0260863
0.0259912
0.0259025
0.0258167
0.0257315
0.0256429
0.0255479
0.0254416
0.0253207
0.0251794
0.0250138
0.0248177
0.0245872
0.0243157
0.0239994
0.0236314
0.0232084
0.0227233
0.0221735
0.0215516
0.0208558
0.0200784
0.0192183
0.0182675
0.0172253
0.0160837
0.0148425
0.013495
0.0120412
0.0104767
0.00880397
0.00702156
0.00513617
0.00314857
0.00106918
0.032103
0.0317556
0.0314105
0.0310685
0.0307303
0.030397
0.0300695
0.0297488
0.0294359
0.0291318
0.0288374
0.0285538
0.0282818
0.0280224
0.0277762
0.0275443
0.0273268
0.0271247
0.0269378
0.0267667
0.0266108
0.0264703
0.0263433
0.02623
0.0261286
0.0260381
0.0259559
0.0258802
0.0258076
0.0257357
0.0256601
0.0255777
0.0254837
0.0253743
0.0252437
0.0250879
0.0249007
0.024678
0.0244131
0.0241022
0.0237383
0.0233185
0.0228354
0.022287
0.0216654
0.0209694
0.020191
0.0193296
0.0183767
0.017332
0.016187
0.0149416
0.0135885
0.0121277
0.0105546
0.00887138
0.00707666
0.00517722
0.00317392
0.00107794
0.0318291
0.0314746
0.031123
0.0307751
0.030432
0.0300946
0.029764
0.0294414
0.0291276
0.0288239
0.0285313
0.0282509
0.0279836
0.0277304
0.0274922
0.0272698
0.0270636
0.0268744
0.0267022
0.0265473
0.0264093
0.0262879
0.0261817
0.0260905
0.0260123
0.0259461
0.0258888
0.0258385
0.0257916
0.0257452
0.025695
0.0256369
0.0255663
0.0254791
0.0253691
0.0252321
0.0250617
0.0248535
0.0246008
0.0242998
0.0239436
0.0235294
0.02305
0.0225036
0.0218824
0.0211858
0.0204055
0.0195415
0.0185847
0.0175353
0.0163839
0.0151306
0.0137674
0.0122934
0.0107041
0.00900078
0.00718265
0.00525624
0.00322312
0.0010949
0.0314266
0.0310615
0.0307002
0.0303438
0.0299933
0.0296499
0.0293147
0.0289891
0.0286741
0.0283712
0.0280812
0.0278057
0.0275454
0.0273017
0.0270752
0.0268671
0.0266777
0.0265079
0.0263575
0.026227
0.0261152
0.0260224
0.0259469
0.0258885
0.0258447
0.0258143
0.0257937
0.0257809
0.0257714
0.0257622
0.0257478
0.0257265
0.0256904
0.0256353
0.025555
0.0254449
0.0252984
0.0251106
0.0248749
0.0245875
0.0242415
0.0238345
0.0233594
0.0228153
0.0221939
0.0214959
0.0207127
0.0198447
0.0188826
0.0178268
0.0166667
0.0154026
0.0140252
0.0125326
0.0109205
0.00918831
0.00733648
0.0053711
0.00329478
0.00111947
0.0308954
0.030516
0.0301418
0.0297739
0.0294135
0.0290621
0.0287209
0.0283914
0.028075
0.0277731
0.0274869
0.027218
0.0269673
0.0267364
0.0265259
0.0263371
0.0261703
0.0260265
0.0259055
0.0258072
0.0257307
0.0256762
0.0256419
0.0256272
0.0256293
0.0256465
0.0256747
0.0257114
0.0257517
0.025792
0.0258269
0.0258517
0.0258596
0.0258459
0.0258037
0.0257278
0.0256112
0.0254486
0.0252337
0.0249623
0.0246279
0.0242286
0.0237574
0.0232149
0.0225923
0.0218918
0.0211043
0.020231
0.0192624
0.0181989
0.0170286
0.0157517
0.0143571
0.0128414
0.0112002
0.00943114
0.00753587
0.00552035
0.0033879
0.00115121
0.030232
0.0298345
0.0294438
0.0290614
0.0286885
0.028327
0.0279782
0.027644
0.0273258
0.0270254
0.0267442
0.0264839
0.0262458
0.0260313
0.0258414
0.0256775
0.0255398
0.0254292
0.0253451
0.0252878
0.0252562
0.0252506
0.0252685
0.0253093
0.0253693
0.0254463
0.0255358
0.0256345
0.0257369
0.025839
0.025934
0.0260162
0.0260783
0.026115
0.0261191
0.0260839
0.0260024
0.025869
0.0256771
0.0254229
0.0251003
0.0247079
0.0242389
0.0236963
0.0230704
0.0223659
0.0215724
0.0206928
0.0197169
0.0186448
0.0174635
0.016173
0.0147594
0.0132167
0.0115414
0.00972742
0.00777917
0.00570299
0.00350159
0.00118966
0.0294301
0.0290102
0.0285993
0.0281989
0.0278108
0.0274369
0.027079
0.0267391
0.026419
0.0261208
0.0258461
0.0255968
0.0253745
0.0251807
0.0250166
0.0248836
0.0247819
0.0247122
0.0246738
0.0246672
0.0246913
0.0247459
0.0248281
0.0249368
0.0250674
0.0252175
0.0253813
0.0255551
0.0257327
0.0259088
0.0260757
0.026226
0.0263527
0.0264488
0.0265066
0.026518
0.026476
0.0263744
0.0262068
0.0259692
0.0256569
0.025269
0.0247992
0.0242535
0.023621
0.0229108
0.0221092
0.0212223
0.020239
0.0191583
0.0179663
0.0166622
0.0152291
0.0136563
0.0119427
0.010076
0.00806564
0.00591845
0.00363454
0.00123425
0.0284807
0.0280339
0.0275985
0.0271765
0.0267701
0.0263814
0.0260126
0.0256662
0.0253442
0.0250491
0.0247826
0.0245472
0.0243444
0.0241763
0.0240439
0.0239487
0.0238907
0.0238704
0.0238875
0.0239428
0.0240344
0.0241618
0.0243214
0.0245116
0.0247266
0.0249638
0.025216
0.025479
0.0257454
0.0260084
0.026259
0.0264889
0.0266908
0.0268549
0.0269736
0.0270366
0.0270377
0.0269691
0.0268252
0.0266022
0.0262965
0.0259087
0.0254338
0.0248807
0.024237
0.0235187
0.0227063
0.021812
0.0208212
0.0197331
0.0185318
0.0172162
0.0157641
0.0141583
0.0124033
0.0104757
0.00839529
0.00616653
0.00378486
0.00128433
0.0273727
0.0268935
0.0264289
0.0259813
0.0255532
0.0251471
0.0247658
0.024412
0.0240883
0.0237974
0.0235415
0.0233233
0.0231446
0.0230076
0.0229135
0.0228641
0.0228582
0.0228976
0.0229817
0.0231113
0.0232834
0.0234975
0.0237488
0.0240352
0.0243498
0.0246894
0.0250451
0.0254125
0.0257822
0.0261455
0.0264926
0.0268139
0.0271017
0.0273421
0.0275286
0.0276477
0.0276945
0.0276587
0.027536
0.0273231
0.027018
0.0266234
0.0261371
0.0255707
0.0249108
0.0241815
0.0233548
0.0224537
0.0214558
0.0203624
0.0191547
0.0178324
0.0163633
0.014722
0.0129228
0.0109251
0.00876845
0.00644642
0.00395038
0.00133956
0.0260921
0.0255747
0.0250757
0.024598
0.0241445
0.0237183
0.0233227
0.0229608
0.0226357
0.0223506
0.0221082
0.0219112
0.0217617
0.0216622
0.0216152
0.0216193
0.0216757
0.0217866
0.0219507
0.0221684
0.0224356
0.0227517
0.0231105
0.0235096
0.0239403
0.024399
0.0248747
0.0253629
0.0258507
0.0263286
0.0267859
0.0272112
0.0275957
0.0279208
0.0281822
0.0283609
0.0284548
0.0284496
0.0283435
0.0281339
0.0278204
0.0274095
0.026903
0.0263147
0.0256331
0.0248898
0.0240454
0.0231387
0.0221339
0.0210388
0.0198284
0.018508
0.0170252
0.0153473
0.0135013
0.0114235
0.00918545
0.00675563
0.00412899
0.00140037
0.0246226
0.0240604
0.0235212
0.0230083
0.0225254
0.0220762
0.0216645
0.021294
0.0209684
0.0206912
0.0204657
0.0202951
0.0201825
0.0201297
0.0201351
0.0202028
0.0203337
0.0205297
0.0207883
0.0211092
0.0214878
0.021923
0.0224069
0.0229367
0.0235015
0.0240974
0.0247111
0.0253373
0.0259591
0.0265675
0.0271495
0.0276918
0.0281837
0.0286024
0.0289457
0.0291871
0.0293287
0.0293498
0.0292532
0.0290365
0.028702
0.0282625
0.0277243
0.027103
0.0263934
0.0256315
0.0247666
0.0238574
0.0228463
0.0217535
0.0205459
0.0192401
0.0177466
0.0160325
0.0141382
0.0119711
0.00964562
0.00708954
0.00431954
0.00146794
0.0229453
0.0223308
0.0217448
0.0211914
0.0206748
0.0201995
0.0197699
0.0193905
0.0190654
0.0187988
0.0185941
0.0184554
0.0183847
0.0183855
0.0184561
0.0186012
0.0188214
0.0191177
0.0194868
0.0199283
0.0204365
0.0210096
0.0216381
0.0223183
0.0230371
0.02379
0.0245607
0.0253431
0.0261161
0.0268721
0.0275937
0.0282668
0.0288775
0.0293996
0.0298318
0.0301382
0.0303276
0.0303682
0.0302712
0.0300332
0.0296603
0.029177
0.0285917
0.0279237
0.0271802
0.0263929
0.0255056
0.0245989
0.0235814
0.022496
0.0212986
0.0200257
0.0185233
0.0167729
0.0148296
0.0125666
0.0101451
0.00744183
0.00452252
0.00154351
0.0210382
0.020363
0.019723
0.0191231
0.0185683
0.0180639
0.0176149
0.0172266
0.0169039
0.0166512
0.0164723
0.0163717
0.0163549
0.0164184
0.016566
0.0168028
0.0171275
0.0175408
0.0180384
0.0186198
0.0192778
0.0200099
0.0208043
0.0216565
0.0225508
0.0234819
0.0244299
0.0253876
0.0263305
0.0272519
0.0281287
0.0289471
0.0296887
0.0303251
0.0308536
0.0312282
0.0314644
0.0315151
0.0314047
0.0311254
0.030691
0.0301446
0.0294914
0.0287619
0.0279793
0.0271601
0.0262512
0.0253525
0.0243249
0.0232524
0.0220765
0.0208617
0.0193482
0.0175619
0.0155701
0.0132034
0.0106715
0.00780534
0.00474069
0.00162704
0.018876
0.0181307
0.0174289
0.0167762
0.0161785
0.0156419
0.0151725
0.0147762
0.0144585
0.0142244
0.0140802
0.0140304
0.0140716
0.0142095
0.0144486
0.0147928
0.0152392
0.0157882
0.0164344
0.0171772
0.0180074
0.0189217
0.0199054
0.0209533
0.0220462
0.023178
0.0243247
0.0254779
0.0266102
0.027715
0.0287633
0.0297425
0.0306279
0.0313913
0.0320243
0.0324719
0.0327536
0.0328027
0.0326619
0.0323131
0.031787
0.0311529
0.0304039
0.0296046
0.0287822
0.0279165
0.0269931
0.0261009
0.0250606
0.0240054
0.0228678
0.0217427
0.0202057
0.0183888
0.0163531
0.0138659
0.0111991
0.00816897
0.00497641
0.00171661
0.0164294
0.0156039
0.0148318
0.0141195
0.0134742
0.0129029
0.0124123
0.0120097
0.0117004
0.0114905
0.011385
0.0113936
0.0115079
0.0117369
0.012085
0.0125546
0.013142
0.0138477
0.014665
0.0155933
0.0166205
0.0177425
0.018941
0.0202101
0.0215266
0.0228829
0.0242505
0.0256204
0.0269617
0.0282673
0.0295037
0.0306594
0.0317032
0.0326082
0.0333565
0.0338853
0.0342121
0.0342454
0.0340508
0.0335938
0.0329384
0.032184
0.0312999
0.0304231
0.0295526
0.0286381
0.0277189
0.0268345
0.025777
0.0247325
0.0236588
0.0226559
0.021066
0.0192367
0.0171621
0.0145225
0.0116891
0.00851779
0.00522539
0.00180528
0.0136647
0.0127479
0.0118965
0.011118
0.0104208
0.00981262
0.00930151
0.00889547
0.00860048
0.00842609
0.00837612
0.00844746
0.00864619
0.00898172
0.00945627
0.0100707
0.0108205
0.0117062
0.0127196
0.0138598
0.015111
0.0164687
0.0179098
0.019428
0.0209943
0.0226003
0.0242115
0.0258194
0.0273885
0.0289123
0.0303525
0.0316995