/*--------------------------------*- C++ -*----------------------------------*\
| =========                 |                                                 |
| \\      /  F ield         | OpenFOAM: The Open Source CFD Toolbox           |
|  \\    /   O peration     | Version:  2512                                  |
|   \\  /    A nd           | Website:  www.openfoam.com                      |
|    \\/     M anipulation  |                                                 |
\*---------------------------------------------------------------------------*/
FoamFile
{
    version     2.0;
    format      ascii;
    arch        "LSB;label=32;scalar=64";
    class       surfaceScalarField;
    location    "92.15";
    object      phi;
}
// * * * * * * * * * * * * * * * * * * * * * * * * * * * * * * * * * * * * * //

dimensions      [0 3 -1 0 0 0 0];

oriented        oriented;

internalField   nonuniform List<scalar> 
26232
(
5.36795e-05
0.0011637
-0.00121738
0.000744228
0.00173451
-0.00242506
0.00240405
0.000571597
-0.00223142
0.00535239
-0.00247445
-0.000473887
0.00996957
-0.00758321
0.00296603
0.016641
-0.0148754
0.008204
0.0255899
-0.0242676
0.0153187
0.0366777
-0.0353453
0.0242575
0.0493106
-0.0473658
0.0347329
0.0625241
-0.0594067
0.0461933
0.0752087
-0.0705789
0.0578943
0.0863818
-0.0802132
0.0690401
0.0954068
-0.0879648
0.0789398
0.1021
-0.0938269
0.0871338
0.106703
-0.0980595
0.0934565
0.10974
-0.101062
0.098025
0.111825
-0.10324
0.101154
0.113491
-0.104911
0.103245
0.115125
-0.106271
0.104638
0.116927
-0.107445
0.105643
0.119007
-0.108401
0.106321
0.121376
-0.109324
0.106955
0.123581
-0.109697
0.107492
-0.110126
0.108293
0.125414
4.79942e-05
0.00111571
0.00084331
0.000939196
0.00288893
-0.00147402
0.00667412
-0.00625965
0.0126663
-0.0135754
0.021137
-0.0233461
0.0319234
-0.035054
0.0443215
-0.0477433
0.0572233
-0.0602676
0.0694256
-0.071609
0.0799524
-0.0811057
0.0882689
-0.0885297
0.0943372
-0.094033
0.0985172
-0.0980069
0.101374
-0.100916
0.103476
-0.103164
0.105265
-0.105029
0.107018
-0.106664
0.108889
-0.108142
0.110939
-0.109496
0.113275
-0.110737
0.115893
-0.111941
0.119179
-0.112983
-0.114459
0.123512
0.000144579
0.000971127
0.00128229
-0.000198519
0.004046
-0.00423772
0.00902492
-0.0112386
0.0166102
-0.0211607
0.0267035
-0.0334394
0.0385531
-0.0469036
0.0509299
-0.0601201
0.0625363
-0.0718741
0.0723984
-0.081471
0.0800731
-0.0887804
0.0856414
-0.094098
0.0895386
-0.0979303
0.0923249
-0.100793
0.0944972
-0.103088
0.0964012
-0.105068
0.0982389
-0.106866
0.100123
-0.108548
0.102125
-0.110144
0.104317
-0.111688
0.10676
-0.113179
0.109505
-0.114687
0.112619
-0.116098
-0.117688
0.115848
0.000317089
0.000654038
0.00198352
-0.00186495
0.0057099
-0.0079641
0.0120581
-0.0175867
0.021109
-0.0302117
0.0321734
-0.0445038
0.0439419
-0.0586722
0.0550073
-0.0711854
0.0643555
-0.0812224
0.071582
-0.0886975
0.0768263
-0.0940247
0.0805447
-0.0978164
0.0832627
-0.100648
0.085412
-0.102943
0.0872809
-0.104957
0.0890423
-0.10683
0.0908044
-0.108628
0.0926434
-0.110387
0.094627
-0.112128
0.0968028
-0.113864
0.0992233
-0.1156
0.101922
-0.117386
0.104959
-0.119134
-0.121149
0.10842
0.000536577
0.000117461
0.0028577
-0.00418608
0.00767734
-0.0127837
0.0153425
-0.0252519
0.025378
-0.0402472
0.0364737
-0.0555994
0.0470863
-0.0692848
0.056087
-0.0801861
0.06303
-0.0881653
0.0680538
-0.0937213
0.0716093
-0.0975803
0.0742001
-0.100407
0.0762331
-0.102681
0.077983
-0.104692
0.0796199
-0.106594
0.0812491
-0.108459
0.0829377
-0.110317
0.0847324
-0.112182
0.0866657
-0.114061
0.0887633
-0.115961
0.0910578
-0.117895
0.0935462
-0.119874
0.0962755
-0.121863
-0.124034
0.0991611
0.000789529
-0.000672067
0.00384114
-0.00723769
0.00975601
-0.0186986
0.0184324
-0.0339282
0.0287162
-0.050531
0.0389323
-0.0658155
0.047745
-0.0780976
0.0545704
-0.0870116
0.0594864
-0.0930813
0.0629245
-0.0971594
0.0653853
-0.100041
0.0672796
-0.102302
0.068886
-0.104288
0.0703723
-0.106179
0.0718326
-0.108054
0.0733187
-0.109945
0.0748626
-0.111861
0.0764891
-0.113809
0.0782231
-0.115795
0.0800928
-0.117831
0.0821221
-0.119924
0.0843319
-0.122084
0.0867691
-0.124301
-0.126679
0.0894136
0.0010727
-0.00174477
0.00487824
-0.0110432
0.0117376
-0.025558
0.0209004
-0.043091
0.0306628
-0.0602934
0.0394009
-0.0745535
0.0462694
-0.0849661
0.0512052
-0.0919474
0.0545949
-0.0964709
0.0569447
-0.0995093
0.0586868
-0.101783
0.060116
-0.103731
0.0614046
-0.105576
0.0626437
-0.107418
0.0638804
-0.109291
0.0651446
-0.111209
0.0664612
-0.113178
0.0678543
-0.115202
0.0693473
-0.117288
0.0709584
-0.119442
0.0727029
-0.121668
0.0745866
-0.123968
0.0766274
-0.126341
-0.128837
0.0787854
0.00137708
-0.00312184
0.00589277
-0.0155589
0.0133893
-0.0330545
0.0224251
-0.0521268
0.0310899
-0.0689582
0.0381342
-0.0815978
0.043233
-0.0900649
0.0466727
-0.095387
0.048958
-0.0987563
0.0505549
-0.101106
0.0517902
-0.103019
0.052855
-0.104795
0.0538477
-0.106569
0.0548182
-0.108388
0.0557957
-0.110269
0.0568018
-0.112215
0.0578548
-0.114231
0.058971
-0.116318
0.0601641
-0.118481
0.0614469
-0.120725
0.0628287
-0.12305
0.0643194
-0.125458
0.0659358
-0.127958
-0.130557
0.0676558
0.00168448
-0.00480632
0.00678497
-0.0206594
0.0145036
-0.0407731
0.0228777
-0.0605009
0.0301477
-0.0762282
0.0355535
-0.0870036
0.0391737
-0.0936852
0.0414747
-0.097688
0.0429596
-0.100241
0.0440044
-0.102151
0.0448346
-0.103849
0.0455669
-0.105528
0.0462575
-0.107259
0.0469353
-0.109066
0.0476188
-0.110952
0.0483226
-0.112919
0.0490605
-0.114968
0.049846
-0.117103
0.0506923
-0.119327
0.0516101
-0.121643
0.052608
-0.124048
0.0536937
-0.126544
0.0548683
-0.129132
-0.131803
0.0561146
0.00196874
-0.00677506
0.00744992
-0.0261406
0.0149578
-0.048281
0.0223127
-0.0678558
0.0281221
-0.0820376
0.0320747
-0.0909562
0.0345087
-0.0961191
0.0359454
-0.0991248
0.036823
-0.101119
0.0374204
-0.102748
0.0378846
-0.104313
0.0382846
-0.105928
0.0386524
-0.107627
0.0390062
-0.10942
0.0393595
-0.111305
0.0397248
-0.113285
0.0401147
-0.115358
0.0405408
-0.11753
0.041013
-0.1198
0.0415393
-0.122169
0.0421259
-0.124635
0.0427785
-0.127197
0.0435001
-0.129854
-0.132596
0.0442928
0.00220243
-0.00897749
0.00780903
-0.0317472
0.0147431
-0.0552151
0.0209014
-0.0740142
0.0253239
-0.0864601
0.0280451
-0.0936774
0.0295376
-0.0976116
0.0302997
-0.0998869
0.0306826
-0.101502
0.0308815
-0.102947
0.0309887
-0.10442
0.0310446
-0.105984
0.0310691
-0.107652
0.0310752
-0.109426
0.031074
-0.111304
0.0310756
-0.113286
0.0310896
-0.115372
0.0311254
-0.117565
0.0311912
-0.119865
0.0312948
-0.122272
0.0314437
-0.124784
0.0316435
-0.127396
0.0318938
-0.130104
-0.1329
0.0321983
0.00236601
-0.0113435
0.00783568
-0.0372169
0.013946
-0.0613254
0.018866
-0.0789341
0.0220406
-0.0896347
0.0237374
-0.0953742
0.0244712
-0.0983454
0.0246771
-0.100093
0.024622
-0.101447
0.0244378
-0.102763
0.024181
-0.104163
0.0238761
-0.105679
0.0235365
-0.107312
0.0231718
-0.109061
0.022791
-0.110923
0.0224022
-0.112897
0.0220137
-0.114984
0.0216335
-0.117185
0.0212687
-0.119501
0.0209268
-0.121931
0.0206159
-0.124473
0.0203429
-0.127123
0.0201111
-0.129872
0.0199306
-0.13272
-0.000638295
0.00632746
-0.00568917
-0.0021938
0.0115313
-0.00997581
-0.00439591
0.0127669
-0.0105648
-0.00706046
0.0121262
-0.00946169
-0.0100702
0.0107281
-0.00771834
-0.0133548
0.00894345
-0.00565885
-0.0168732
0.00674863
-0.00323026
-0.0206251
0.00400586
-0.000253975
-0.0244279
0.000582604
0.00322027
-0.0283852
-0.00347913
0.00743641
-0.0323851
-0.00838693
0.0123868
-0.0363516
-0.0141177
0.0180842
-0.0401987
-0.0206514
0.0244985
-0.0438275
-0.0279214
0.0315502
-0.0471232
-0.0358074
0.0391032
-0.0499514
-0.0441315
0.0469597
-0.0521522
-0.0526571
0.0548579
-0.0535329
-0.0610927
0.0624734
-0.0538564
-0.0691016
0.0694251
-0.0528363
-0.0763101
0.07529
-0.0501532
-0.0823197
0.0796366
-0.0454809
-0.0867263
0.082054
-0.0385226
-0.0891151
0.0821567
-0.0891179
-0.0291229
0.0797182
-0.000368271
0.00669574
-0.00151028
0.0126733
-0.00327333
0.01453
-0.00547364
0.0143266
-0.00796856
0.013223
-0.0106735
0.0116484
-0.0135474
0.00962249
-0.0165688
0.00702735
-0.0197186
0.00373237
-0.0228798
-0.000317927
-0.0261155
-0.00515128
-0.0293535
-0.0108797
-0.0325459
-0.0174591
-0.0356443
-0.0248229
-0.0386014
-0.0328504
-0.0413736
-0.0413593
-0.0439215
-0.0501093
-0.0461984
-0.0588158
-0.048129
-0.0671709
-0.0495742
-0.0748649
-0.050309
-0.081585
-0.0500247
-0.0870105
-0.0482842
-0.0908555
-0.092846
-0.0445561
-2.61412e-05
0.00672188
-0.000582052
0.0132292
-0.00168111
0.015629
-0.0031668
0.0158122
-0.00487635
0.0149325
-0.00670372
0.0134758
-0.00859681
0.0115156
-0.0105329
0.00896344
-0.0125044
0.00570385
-0.0144554
0.00163314
-0.0163798
-0.00322696
-0.0182564
-0.00900305
-0.0200526
-0.0156629
-0.0217306
-0.0231449
-0.0232553
-0.0313256
-0.0246115
-0.0400031
-0.0258217
-0.0488991
-0.026969
-0.0576684
-0.0281892
-0.0659507
-0.0296205
-0.0734336
-0.0313631
-0.0798424
-0.0333286
-0.085045
-0.0353286
-0.0888555
-0.0917207
-0.0364539
0.000329413
0.00639246
0.000447541
0.0131111
0.000148413
0.0159282
-0.000465638
0.0164263
-0.00123003
0.0156969
-0.00201929
0.014265
-0.00276612
0.0122624
-0.00344236
0.00963969
-0.00403794
0.00629943
-0.00455757
0.00215277
-0.00494367
-0.00284086
-0.00519776
-0.00874897
-0.0052856
-0.015575
-0.00515273
-0.0232778
-0.00473166
-0.0317467
-0.00395941
-0.0407753
-0.0028189
-0.0500396
-0.00138672
-0.0591006
0.000127791
-0.0674653
0.00135152
-0.0746574
0.00188198
-0.0803728
0.00122273
-0.0843858
-0.00052784
-0.087105
-0.0879008
-0.00434776
0.000634672
0.00575779
0.00140645
0.0123393
0.00194314
0.0153915
0.00225207
0.0161174
0.00247782
0.0154712
0.00275664
0.0139862
0.00317082
0.0118482
0.00375644
0.00905407
0.00452475
0.00553111
0.00546639
0.00121113
0.00662339
-0.00399786
0.00800184
-0.0101274
0.00964024
-0.0172134
0.0116032
-0.0252407
0.0139672
-0.0341108
0.0167981
-0.0436062
0.0201102
-0.0533518
0.023838
-0.0628284
0.0278448
-0.071472
0.0318827
-0.0786952
0.035646
-0.0841361
0.0386986
-0.0874384
0.0405741
-0.0889804
-0.0878806
0.0405539
0.000842536
0.00491526
0.00215853
0.0110233
0.00344856
0.0141015
0.00462642
0.0149395
0.00579032
0.0143073
0.0070708
0.0127057
0.00856223
0.0103568
0.0103137
0.00730262
0.0123395
0.00350529
0.0146682
-0.00111756
0.0173238
-0.00665348
0.0203442
-0.0131478
0.0237966
-0.0206658
0.0277594
-0.0292035
0.032291
-0.0386424
0.0373822
-0.0486974
0.0429322
-0.0589017
0.0487489
-0.0686451
0.0545976
-0.0773207
0.0602456
-0.0843433
0.0655704
-0.0894609
0.0704914
-0.0923595
0.0748822
-0.0933713
-0.0921428
0.0791444
0.000929045
0.00398621
0.00260006
0.00935233
0.00446673
0.0122348
0.00635987
0.0130464
0.0083179
0.0123493
0.0104483
0.0105753
0.01285
0.00795504
0.0155921
0.00456058
0.0186885
0.000408831
0.0222693
-0.00469832
0.0263473
-0.0107314
0.031028
-0.0178285
0.0364136
-0.0260515
0.0425722
-0.035362
0.0494798
-0.04555
0.0569798
-0.0561974
0.0647825
-0.0667044
0.0725091
-0.0763718
0.0797836
-0.0845951
0.0862836
-0.0908434
0.0918935
-0.0950707
0.0965922
-0.0970582
0.100734
-0.0975132
-0.0960824
0.104674
0.000896668
0.00308954
0.00269758
0.00755142
0.00489457
0.0100378
0.00727149
0.0106694
0.00981003
0.00981072
0.0125858
0.00779959
0.0156971
0.00484374
0.0192249
0.00103278
0.0233464
-0.0037127
0.0280961
-0.00944804
0.0336535
-0.0162888
0.0401574
-0.0243324
0.0476855
-0.0335796
0.05618
-0.0438565
0.0653958
-0.0547658
0.0749105
-0.0657122
0.0841933
-0.0759872
0.0927307
-0.0849092
0.100133
-0.0919974
0.106226
-0.0969366
0.111072
-0.0999164
0.114839
-0.100825
0.118032
-0.100706
-0.0986958
0.120645
0.000767687
0.00232186
0.0024814
0.00583771
0.00474196
0.00777722
0.00733678
0.00807462
0.0102175
0.00692995
0.013443
0.00457412
0.0171233
0.00116349
0.0214532
-0.00329716
0.0265912
-0.00885074
0.0327516
-0.0156084
0.0401258
-0.023663
0.0487972
-0.0330038
0.0586545
-0.0434369
0.0693406
-0.0545426
0.0802771
-0.0657023
0.0907687
-0.0762038
0.100148
-0.0853663
0.107939
-0.0927004
0.113922
-0.0979802
0.118221
-0.101236
0.121144
-0.102839
0.123231
-0.102913
0.124967
-0.102442
-0.100483
0.126754
0.00057524
0.00174662
0.00203447
0.00437848
0.00413439
0.00567731
0.00672066
0.00548835
0.00976495
0.00388567
0.0133515
0.000987545
0.017685
-0.00316997
0.0230002
-0.0086124
0.0295761
-0.0154266
0.037638
-0.0236703
0.0472493
-0.0332743
0.0582132
-0.0439677
0.0700345
-0.0552582
0.0819764
-0.0664846
0.0932029
-0.0769288
0.102959
-0.0859602
0.11074
-0.0931473
0.116397
-0.0983572
0.120117
-0.1017
0.12239
-0.10351
0.123742
-0.104191
0.124821
-0.103992
0.12599
-0.10361
-0.102264
0.127771
0.000359526
0.00138709
0.00148416
0.00325385
0.00331211
0.00384935
0.00580127
0.0029992
0.00900848
0.000678457
0.0131299
-0.00313383
0.0184424
-0.00848249
0.0252666
-0.0154366
0.0338367
-0.0239968
0.044162
-0.0339956
0.0559263
-0.0450386
0.0684807
-0.056522
0.0809451
-0.0677225
0.0923912
-0.0779307
0.10205
-0.0865872
0.109474
-0.0933842
0.11462
-0.0982936
0.117813
-0.10155
0.119611
-0.103498
0.120678
-0.104577
0.121556
-0.105069
0.122805
-0.105241
0.124512
-0.105317
-0.104578
0.126825
0.000169711
0.000998497
0.00261643
0.00514174
0.00878623
0.0138564
0.0206926
0.0295135
0.0402496
0.0524472
0.0653029
0.0778209
0.0890382
0.0982413
0.105111
0.109751
0.112612
0.114307
0.115447
0.116514
0.117766
0.119479
0.121655
0.12537
-0.0118467
-0.117313
0.100036
0.00884944
-0.102503
0.0818067
0.0304887
-0.0801743
0.0585351
0.0511554
-0.050395
0.0297283
0.0697027
-0.015641
-0.00290634
0.0856033
0.0247231
-0.0406237
0.0999463
0.0684421
-0.0827852
0.112722
0.11053
-0.123305
0.12319
0.143275
-0.153744
0.130489
0.162529
-0.169828
0.13435
0.170862
-0.174723
0.135927
0.172805
-0.174383
0.136589
0.17058
-0.171243
0.135824
0.169471
-0.168706
0.132543
0.177398
-0.174117
0.127905
0.19274
-0.188102
0.125368
0.196855
-0.194318
0.127024
0.16757
-0.169227
0.132171
0.0984633
-0.103611
0.139534
0.00314619
-0.0105092
0.147931
-0.0910739
0.0826772
0.155554
-0.160013
0.15239
0.160087
-0.196845
0.192312
0.16163
-0.211401
0.209858
0.161964
-0.212044
0.21171
0.160554
-0.207883
0.209293
0.155459
-0.215399
0.220493
0.146691
-0.237351
0.246119
0.136121
-0.246265
0.256835
0.126248
-0.212707
0.22258
0.120334
-0.129255
0.135169
0.121392
-0.0184804
0.0174231
0.127814
0.0901206
-0.0965432
0.137048
0.169825
-0.179059
0.144791
0.219383
-0.227125
0.146601
0.249567
-0.251377
0.140769
0.27789
-0.272057
0.130165
0.294257
-0.283653
0.119809
0.269218
-0.258862
0.114327
0.183234
-0.177752
0.116564
0.0446564
-0.0468931
0.124974
-0.0845227
0.0761126
0.13166
-0.179063
0.172376
0.130766
-0.233964
0.234859
0.12493
-0.280077
0.285913
0.120131
-0.286881
0.29168
0.119484
-0.230455
0.231102
0.121754
-0.123504
0.121234
0.123872
0.0422588
-0.0443774
0.123633
0.173753
-0.173514
0.121593
0.303157
-0.301118
0.120057
0.331688
-0.330152
0.119143
0.225293
-0.224379
0.117125
0.0865085
-0.0844903
0.114237
-0.179402
0.18229
0.113254
-0.249039
0.250021
0.112016
-0.30159
0.302829
0.111603
-0.341842
0.342255
0.106365
0.0872977
-0.0820601
0.20599
-0.203137
-0.0351194
-0.126749
-0.0203555
-0.117267
-0.00246049
-0.0980693
0.0188666
-0.0717221
0.0400049
-0.0367793
0.0601842
0.00454389
0.079396
0.0492302
0.0973077
0.0926184
0.112972
0.127611
0.125095
0.150406
0.133208
0.162749
0.138491
0.167522
0.142135
0.166936
0.143885
0.16772
0.14347
0.177814
0.14241
0.1938
0.143027
0.196238
0.145704
0.164894
0.149418
0.0947494
0.153573
-0.00100965
0.157873
-0.0953738
0.161492
-0.163632
0.162675
-0.198029
0.161243
-0.209969
0.159029
-0.20983
0.15567
-0.204524
0.148607
-0.208335
0.137764
-0.226508
0.126037
-0.234538
0.116631
-0.203301
0.112242
-0.124866
0.115714
-0.021953
0.125095
0.0807398
0.137104
0.157816
0.147092
0.209395
0.150678
0.245981
0.146552
0.282015
0.137198
0.303611
0.127088
0.279328
0.120312
0.19001
0.119749
0.0452186
0.125952
-0.0907252
0.131958
-0.185069
0.130747
-0.232753
0.124186
-0.273516
0.11938
-0.282074
0.118967
-0.230042
0.121793
-0.12633
0.124362
0.0396894
0.124761
0.173355
0.123684
0.304234
0.122123
0.33325
0.120965
0.226451
0.11802
0.0894535
0.114149
-0.175531
0.113334
-0.248224
0.111067
-0.299324
0.111073
-0.341848
0.106976
0.0913946
0.209046
-0.0391116
-0.124092
-0.0349513
-0.121427
-0.0237875
-0.109233
-0.00771248
-0.0877972
0.0126311
-0.0571229
0.034944
-0.017769
0.0581159
0.0260583
0.0810033
0.0697311
0.101924
0.10669
0.118986
0.133344
0.131604
0.150132
0.140837
0.158288
0.14765
0.160124
0.1521
0.16327
0.15465
0.175264
0.15699
0.19146
0.160411
0.192817
0.163839
0.161465
0.165697
0.0928915
0.166632
-0.00194447
0.167177
-0.0959188
0.16696
-0.163415
0.164922
-0.195991
0.160807
-0.205854
0.156248
-0.205271
0.151291
-0.199567
0.142985
-0.200029
0.130597
-0.21412
0.117717
-0.221658
0.108514
-0.194097
0.105694
-0.122045
0.111067
-0.0273264
0.122948
0.068859
0.137507
0.143257
0.149768
0.197133
0.155448
0.240301
0.153509
0.283955
0.145782
0.311337
0.136179
0.288931
0.12814
0.198049
0.124427
0.0489323
0.127743
-0.094042
0.13277
-0.190096
0.131344
-0.231327
0.123989
-0.266161
0.118792
-0.276877
0.118571
-0.229821
0.122014
-0.129774
0.125277
0.036427
0.126389
0.172243
0.126201
0.304422
0.124617
0.334833
0.123263
0.227805
0.119524
0.0931928
0.114683
-0.170689
0.113887
-0.247429
0.110714
-0.29615
0.110992
-0.342126
0.108195
0.094192
0.21228
-0.0182905
-0.110149
-0.0273106
-0.112407
-0.0283575
-0.108186
-0.0205382
-0.0956164
-0.00588994
-0.0717712
0.0151469
-0.0388058
0.0395189
0.00168632
0.0651625
0.0440874
0.0895956
0.0822566
0.110716
0.112224
0.127673
0.133175
0.140991
0.144971
0.151126
0.149989
0.158363
0.156034
0.16383
0.169797
0.16943
0.18586
0.175471
0.186776
0.179638
0.157298
0.180359
0.0921711
0.178715
-0.000301206
0.175932
-0.0931358
0.172017
-0.1595
0.166866
-0.190839
0.160352
-0.199341
0.153699
-0.198617
0.147305
-0.193173
0.138291
-0.191016
0.12513
-0.20096
0.111409
-0.207936
0.102136
-0.184824
0.100251
-0.120161
0.107038
-0.0341131
0.120977
0.0549204
0.137807
0.126427
0.1525
0.18244
0.160754
0.232048
0.161318
0.283391
0.155413
0.317242
0.146503
0.297842
0.137441
0.20711
0.130599
0.0557743
0.130451
-0.0938943
0.134048
-0.193693
0.132468
-0.229748
0.12433
-0.258023
0.118444
-0.270991
0.11828
-0.229657
0.122395
-0.133889
0.126542
0.0322804
0.128437
0.170348
0.129065
0.303793
0.127451
0.336448
0.125982
0.229274
0.121608
0.0975673
0.115816
-0.164898
0.114927
-0.24654
0.110914
-0.292137
0.111391
-0.342604
0.109868
0.095715
0.215551
0.0228967
-0.0924917
0.00344472
-0.0929549
-0.0106905
-0.094051
-0.0160261
-0.0902808
-0.010668
-0.0771292
0.00377063
-0.0532445
0.0261364
-0.0206794
0.0521575
0.0180663
0.0782654
0.0561487
0.102234
0.0882548
0.122827
0.112582
0.139678
0.128121
0.152595
0.137071
0.162065
0.146564
0.169974
0.161888
0.178431
0.177402
0.18668
0.178527
0.191505
0.152474
0.191728
0.0919477
0.188755
0.00267222
0.183359
-0.08774
0.176215
-0.152356
0.168241
-0.182865
0.159696
-0.190796
0.151351
-0.190272
0.14387
-0.185692
0.134634
-0.18178
0.121346
-0.187671
0.107116
-0.193706
0.0975971
-0.175305
0.0961257
-0.11869
0.103632
-0.0416198
0.118904
0.0396489
0.13758
0.107751
0.154718
0.165302
0.165897
0.220868
0.169554
0.279734
0.166066
0.32073
0.158004
0.305903
0.147966
0.217149
0.138053
0.0656873
0.134053
-0.0898942
0.135701
-0.195341
0.134006
-0.228053
0.125167
-0.249184
0.118331
-0.264154
0.118042
-0.229367
0.122876
-0.138724
0.128075
0.027082
0.130835
0.167588
0.132215
0.302412
0.130535
0.338128
0.129056
0.230753
0.124225
0.102398
0.117515
-0.158188
0.116441
-0.245466
0.111647
-0.287343
0.112256
-0.343213
0.111995
0.0959764
0.218768
0.0673988
-0.0807461
0.0511988
-0.076755
0.0304278
-0.07328
0.0114883
-0.0713413
0.00167254
-0.0673135
0.00494735
-0.0565193
0.0195164
-0.0352485
0.0423783
-0.00479562
0.0684258
0.0301013
0.0942764
0.0624042
0.117676
0.0891823
0.137275
0.108522
0.152248
0.122098
0.163241
0.135571
0.172862
0.152267
0.183411
0.166853
0.193346
0.168592
0.198987
0.146833
0.199437
0.0914973
0.195874
0.00623534
0.188972
-0.0808374
0.179398
-0.142782
0.169026
-0.172493
0.15882
-0.18059
0.149141
-0.180594
0.140707
-0.177257
0.13163
-0.172704
0.118936
-0.174978
0.104694
-0.179464
0.0948274
-0.165439
0.0932423
-0.117105
0.10069
-0.0490678
0.116442
0.0238975
0.136434
0.0877585
0.155957
0.145779
0.170351
0.206475
0.177321
0.272764
0.176444
0.321607
0.169573
0.312774
0.158868
0.227853
0.146409
0.0781465
0.138453
-0.081938
0.137617
-0.194505
0.135799
-0.226235
0.126442
-0.239826
0.118441
-0.256154
0.117793
-0.228719
0.123367
-0.144299
0.129762
0.0206876
0.133469
0.16388
0.135563
0.300319
0.13377
0.339921
0.132383
0.23214
0.12733
0.107451
0.119742
-0.1506
0.118406
-0.244129
0.112895
-0.281832
0.113556
-0.343874
0.114545
0.094987
0.22186
0.0955231
-0.0715954
0.086601
-0.0678328
0.0743503
-0.0610294
0.0570387
-0.0540296
0.0384502
-0.048725
0.0259686
-0.0440376
0.0257397
-0.0350196
0.0381467
-0.0172026
0.0593875
0.00886057
0.084239
0.0375527
0.108835
0.0645865
0.130302
0.0870545
0.146986
0.105413
0.159514
0.123043
0.170895
0.140886
0.183369
0.154379
0.194903
0.157058
0.2019
0.139836
0.203629
0.0897686
0.200517
0.00934674
0.192781
-0.0731007
0.181414
-0.131416
0.169072
-0.160151
0.157518
-0.169036
0.146963
-0.170038
0.137804
-0.168098
0.128944
-0.163845
0.11739
-0.163424
0.103765
-0.165838
0.0936276
-0.155301
0.0914875
-0.114964
0.098167
-0.0557473
0.113455
0.00860956
0.134058
0.0671552
0.155681
0.124156
0.173476
0.18868
0.184283
0.261957
0.18668
0.31921
0.181503
0.317952
0.170143
0.239212
0.155332
0.0929576
0.143519
-0.0701251
0.139701
-0.190686
0.137668
-0.224202
0.128072
-0.23023
0.118771
-0.246853
0.117461
-0.227409
0.123751
-0.150589
0.131489
0.0129495
0.136269
0.159101
0.139041
0.297546
0.137055
0.341907
0.135861
0.233334
0.130847
0.112465
0.122455
-0.142208
0.120789
-0.242464
0.114636
-0.275679
0.115254
-0.344492
0.117474
0.0927669
0.224758
0.110859
-0.0618088
0.102895
-0.0598693
0.0967116
-0.0548458
0.0898256
-0.0471437
0.0790753
-0.0379747
0.0646511
-0.0296134
0.0522139
-0.0225824
0.048891
-0.0138798
0.0571
0.000651582
0.0744101
0.0202426
0.0961112
0.0428854
0.117502
0.0656636
0.135415
0.0875003
0.149813
0.108645
0.163507
0.127191
0.178239
0.139647
0.191714
0.143583
0.200869
0.130681
0.204845
0.0857925
0.203004
0.0111871
0.194822
-0.0649189
0.182141
-0.118734
0.168327
-0.146338
0.155717
-0.156425
0.144607
-0.158929
0.135008
-0.158498
0.126345
-0.155182
0.116156
-0.153234
0.103823
-0.153506
0.0937443
-0.145222
0.0907713
-0.111991
0.0960768
-0.0610528
0.109905
-0.00521836
0.130304
0.0467562
0.153687
0.100773
0.174796
0.167571
0.189285
0.247468
0.194792
0.313703
0.191633
0.321112
0.180768
0.250078
0.164347
0.109378
0.149071
-0.0548488
0.141869
-0.183485
0.139426
-0.221759
0.129948
-0.220752
0.119338
-0.236242
0.117002
-0.225073
0.123906
-0.157493
0.133121
0.00373464
0.139099
0.153123
0.142563
0.294082
0.140315
0.344154
0.139381
0.234268
0.134706
0.11714
0.125614
-0.133116
0.123556
-0.240406
0.11684
-0.268964
0.117311
-0.344963
0.120724
0.089354
0.227392
0.118061
-0.0531149
0.110281
-0.0520897
0.104177
-0.0487415
0.100448
-0.0434149
0.0980168
-0.0355437
0.0940638
-0.0256604
0.0870343
-0.015553
0.0788685
-0.00571391
0.0743706
0.00514946
0.0776454
0.0169678
0.089341
0.0311898
0.105758
0.0492468
0.122744
0.0705138
0.138623
0.0927664
0.154658
0.111157
0.171368
0.122937
0.186488
0.128463
0.197864
0.119306
0.204277
0.0793786
0.203484
0.0119802
0.195065
-0.0564998
0.181464
-0.105132
0.166688
-0.131563
0.153359
-0.143096
0.14196
-0.14753
0.132206
-0.148745
0.123675
-0.146651
0.114718
-0.144277
0.104125
-0.142913
0.0946827
-0.13578
0.0909544
-0.108263
0.0946555
-0.0647539
0.106088
-0.0166507
0.125235
0.0276096
0.149446
0.0765611
0.17387
0.143147
0.192829
0.228509
0.202038
0.304493
0.200844
0.322306
0.190875
0.260047
0.173502
0.126751
0.154962
-0.0363083
0.144054
-0.172577
0.140889
-0.218594
0.131912
-0.211776
0.120152
-0.224483
0.116393
-0.221314
0.1237
-0.1648
0.13454
-0.00710459
0.141904
0.145758
0.146079
0.289908
0.143452
0.346781
0.142821
0.234899
0.13881
0.121151
0.129171
-0.123477
0.126665
-0.237899
0.119466
-0.261765
0.119681
-0.345178
0.124238
0.0847972
0.229689
0.12021
-0.0455542
0.113603
-0.045482
0.108205
-0.0433438
0.104549
-0.0397586
0.103156
-0.0341515
0.103671
-0.0261744
0.104346
-0.0162283
0.103212
-0.00457958
0.100313
0.008048
0.0976201
0.0196607
0.0986107
0.0301991
0.105388
0.0424698
0.116763
0.0591381
0.13097
0.0785601
0.147308
0.0948184
0.164627
0.105619
0.1808
0.11229
0.194277
0.105828
0.202779
0.0708766
0.203164
0.0115955
0.194124
-0.0474599
0.179604
-0.0906122
0.164145
-0.116104
0.150335
-0.129285
0.138762
-0.135957
0.129095
-0.139078
0.12075
-0.138306
0.112724
-0.136251
0.103934
-0.134122
0.0957685
-0.127615
0.0917718
-0.104266
0.0938463
-0.0668284
0.102484
-0.0252889
0.119219
0.0108749
0.143269
0.0525112
0.170125
0.116291
0.192756
0.205878
0.20571
0.291539
0.207186
0.32083
0.198516
0.268717
0.181527
0.14374
0.160828
-0.01561
0.146149
-0.157898
0.141857
-0.214301
0.133733
-0.203653
0.121182
-0.211931
0.115651
-0.215784
0.123017
-0.172167
0.135553
-0.0196402
0.144515
0.136796
0.149527
0.284896
0.146478
0.34983
0.14612
0.235257
0.143096
0.124175
0.133079
-0.113459
0.130057
-0.234877
0.122459
-0.254167
0.122309
-0.345029
0.127947
0.0791594
0.231574
0.120249
-0.0389779
0.11411
-0.0393432
0.109126
-0.0383594
0.105751
-0.0363834
0.104278
-0.0326788
0.104927
-0.0268239
0.107715
-0.0190162
0.112154
-0.00901877
0.116694
0.00350882
0.118846
0.0175088
0.119757
0.0292877
0.121849
0.040378
0.127042
0.0539444
0.136266
0.0693368
0.148912
0.0821724
0.163457
0.0910731
0.178417
0.0973304
0.192187
0.0920576
0.201048
0.0620158
0.200049
0.012595
0.190375
-0.0377863
0.175508
-0.0757453
0.160113
-0.100709
0.146401
-0.115572
0.134885
-0.124441
0.125482
-0.129676
0.11747
-0.130294
0.1101
-0.128881
0.102803
-0.126826
0.0962863
-0.121097
0.0927464
-0.100726
0.0937409
-0.067823
0.099803
-0.031351
0.113055
-0.00237753
0.135166
0.0304011
0.164128
0.0873281
0.191635
0.178371
0.208743
0.274431
0.212155
0.317418
0.204274
0.276598
0.187992
0.160022
0.165817
0.00656544
0.148038
-0.14012
0.142194
-0.208457
0.135209
-0.196668
0.122419
-0.199141
0.114869
-0.208234
0.121731
-0.179028
0.136155
-0.0340637
0.146927
0.126024
0.152841
0.278981
0.149271
0.3534
0.149154
0.235374
0.147461
0.125868
0.137274
-0.103272
0.133654
-0.231257
0.125748
-0.246261
0.125147
-0.344428
0.131795
0.0725111
0.232971
0.120337
-0.0339453
0.115
-0.0340061
0.110075
-0.0334343
0.10605
-0.032358
0.103552
-0.0301814
0.102992
-0.0262633
0.104512
-0.0205366
0.108229
-0.0127353
0.11408
-0.00234213
0.120952
0.010636
0.127236
0.0230041
0.132863
0.0347508
0.139136
0.0476716
0.146975
0.0614974
0.156687
0.0724607
0.167821
0.0799395
0.180313
0.0848382
0.192802
0.079568
0.200309
0.0545089
0.198884
0.0140202
0.187882
-0.026784
0.172349
-0.0602129
0.156717
-0.0850771
0.142978
-0.101833
0.13138
-0.112843
0.122119
-0.120415
0.114482
-0.122656
0.107531
-0.12193
0.101161
-0.120457
0.0961759
-0.116112
0.0936274
-0.0981779
0.094255
-0.0684505
0.0984839
-0.03558
0.107729
-0.011623
0.126164
0.011967
0.153938
0.0595535
0.18425
0.148059
0.206464
0.252218
0.214379
0.309503
0.208859
0.282117
0.193462
0.175419
0.171051
0.0289772
0.150403
-0.119472
0.142444
-0.200497
0.1365
-0.190724
0.123963
-0.186604
0.114544
-0.198816
0.120211
-0.184695
0.135864
-0.0497173
0.148794
0.113095
0.156072
0.271703
0.152072
0.3574
0.152033
0.235413
0.151849
0.126053
0.141745
-0.0931685
0.137385
-0.226896
0.129272
-0.238149
0.128195
-0.343351
0.135728
0.0649784
0.233829
0.171554
-0.0276178
-0.177881
0.166175
-0.028627
0.160948
-0.0282075
0.155596
-0.0270057
0.150255
-0.024841
0.145252
-0.0212596
0.140855
-0.0161401
0.137479
-0.0093587
0.135656
-0.000519199
0.135816
0.0104753
0.136922
0.0218985
0.138058
0.0336147
0.13966
0.0460697
0.143336
0.0578218
0.149615
0.0661816
0.158554
0.071
0.171958
0.0714342
0.190055
0.0614713
0.207044
0.0375202
0.216088
0.0049759
0.216567
-0.0272635
0.210816
-0.0544613
0.201968
-0.0762298
0.191921
-0.0917854
0.18138
-0.102302
0.171299
-0.110333
0.161544
-0.112902
0.151837
-0.112223
0.142313
-0.110932
0.13291
-0.10671
0.123143
-0.0884105
0.114631
-0.0599389
0.110641
-0.0315899
0.112648
-0.0136304
0.121979
0.00263655
0.137051
0.0444814
0.153254
0.131856
0.165759
0.239713
0.174431
0.300831
0.181081
0.275467
0.18496
0.171541
0.180996
0.0329403
0.172024
-0.110499
0.16522
-0.193693
0.156713
-0.182217
0.142996
-0.172887
0.129381
-0.185201
0.12618
-0.181494
0.13155
-0.0550868
0.135456
0.109189
0.137658
0.2695
0.135697
0.359361
0.141089
0.230021
0.147462
0.11968
0.141989
-0.0876955
0.136692
-0.221599
0.127429
-0.228886
0.122087
-0.338008
0.126408
0.0606569
0.234418
0.181114
-0.0225719
-0.18616
0.176045
-0.0235586
0.171132
-0.0232936
0.166322
-0.0221959
0.161675
-0.0201944
0.157447
-0.017031
0.153866
-0.0125597
0.151194
-0.00668688
0.149818
0.000857184
0.150276
0.010017
0.152311
0.0198639
0.155649
0.0302762
0.160485
0.0412342
0.167207
0.0511
0.175569
0.0578189
0.185789
0.06078
0.198754
0.058469
0.212872
0.047354
0.223461
0.0269312
0.227568
0.000868784
0.225202
-0.0248974
0.218507
-0.0477663
0.209383
-0.0671065
0.199395
-0.0817966
0.189044
-0.0919513
0.179098
-0.100387
0.169674
-0.103478
0.160155
-0.102704
0.150604
-0.101381
0.142069
-0.0981753
0.133875
-0.0802163
0.126293
-0.0523565
0.122061
-0.0273584
0.122738
-0.0143068
0.130467
-0.00509276
0.1455
0.0294483
0.163693
0.113663
0.178535
0.224871
0.189076
0.29029
0.196756
0.267787
0.20092
0.167377
0.197401
0.0364592
0.186685
-0.099783
0.177833
-0.184842
0.168469
-0.172853
0.154427
-0.158845
0.139437
-0.170211
0.135417
-0.177473
0.141754
-0.0614238
0.147147
0.103795
0.149993
0.266654
0.147628
0.361727
0.153306
0.224342
0.161602
0.111384
0.155834
-0.0819274
0.149218
-0.214983
0.138817
-0.218485
0.132656
-0.331847
0.137411
0.0559019
0.234725
0.191717
-0.0182623
-0.196026
0.187052
-0.0188941
0.182558
-0.0187991
0.178236
-0.017874
0.174124
-0.0160828
0.170423
-0.0133302
0.167349
-0.00948517
0.165108
-0.00444596
0.164096
0.00186947
0.164697
0.00941603
0.16696
0.0176009
0.170962
0.026274
0.176961
0.0352356
0.184907
0.0431531
0.194257
0.0484698
0.204827
0.05021
0.216331
0.046965
0.226918
0.0367663
0.233706
0.0201437
0.235334
-0.000758849
0.232417
-0.0219812
0.226274
-0.0416228
0.218121
-0.0589539
0.209188
-0.072863
0.199678
-0.0824417
0.190065
-0.0907739
0.180875
-0.094288