/*--------------------------------*- C++ -*----------------------------------*\
| =========                 |                                                 |
| \\      /  F ield         | OpenFOAM: The Open Source CFD Toolbox           |
|  \\    /   O peration     | Version:  2512                                  |
|   \\  /    A nd           | Website:  www.openfoam.com                      |
|    \\/     M anipulation  |                                                 |
\*---------------------------------------------------------------------------*/
FoamFile
{
    version     2.0;
    format      ascii;
    arch        "LSB;label=32;scalar=64";
    class       volVectorField;
    location    "8.25";
    object      U;
}
// * * * * * * * * * * * * * * * * * * * * * * * * * * * * * * * * * * * * * //

dimensions      [0 1 -1 0 0 0 0];

internalField   nonuniform List<vector> 
13248
(
(-0.0178925 0.0119002 3.39496e-20)
(-0.043368 0.0227976 0)
(-0.0602308 0.0244361 -5.90698e-20)
(-0.0631047 0.0229664 5.4698e-20)
(-0.0479093 0.0209319 5.01948e-20)
(-0.0109109 0.0193712 0)
(0.0511278 0.0188012 0)
(0.140038 0.0196918 1.10617e-19)
(0.255087 0.0225909 -2.27024e-21)
(0.392112 0.0277913 -9.12455e-20)
(0.543885 0.0351852 7.99872e-20)
(0.701074 0.0441842 -4.90936e-20)
(0.853727 0.0537555 0)
(0.992707 0.0625907 -7.81773e-20)
(1.11082 0.0693463 1.44158e-19)
(1.20355 0.0729572 -3.37632e-20)
(1.26933 0.0726848 -5.99158e-20)
(1.30989 0.0684856 5.5861e-20)
(1.32926 0.0609956 0)
(1.33409 0.0495707 0)
(1.33039 0.0397049 0)
(1.32511 0.0194214 0)
(1.31715 0.0160026 1.65157e-20)
(1.31393 -0.0223628 6.02436e-20)
(-0.023527 0.0162603 -1.02245e-19)
(-0.0490891 0.0307038 6.48061e-20)
(-0.0562538 0.0335399 -3.1705e-22)
(-0.0415875 0.0315171 -8.29536e-20)
(-0.0014978 0.0281414 -5.01217e-20)
(0.0673738 0.0253919 -4.6384e-20)
(0.166979 0.0245896 -8.26376e-20)
(0.295919 0.0267485 7.74205e-20)
(0.448242 0.0323036 0)
(0.613681 0.0410092 9.37287e-22)
(0.779627 0.0518906 2.53462e-21)
(0.933682 0.0634234 5.025e-20)
(1.06585 0.0738831 0)
(1.16989 0.0817163 0)
(1.24386 0.0859163 5.29383e-20)
(1.2898 0.086032 -9.86288e-20)
(1.31306 0.0824544 5.78305e-20)
(1.3206 0.075728 -5.39193e-20)
(1.31958 0.0667737 -2.33962e-20)
(1.31544 0.0565574 -4.26499e-20)
(1.31052 0.0445798 -1.73978e-20)
(1.30605 0.0328622 -3.27487e-20)
(1.29815 0.0211347 4.75187e-20)
(1.2924 0.00551804 1.32625e-20)
(-0.0267832 0.0175711 0)
(-0.0487279 0.0327773 0)
(-0.0419829 0.0362653 2.98282e-20)
(-0.00447562 0.0344711 2.71405e-20)
(0.0667084 0.0315717 -6.58856e-22)
(0.173506 0.0303749 -4.77539e-20)
(0.314085 0.0327504 0)
(0.480543 0.0395539 -3.81411e-20)
(0.659151 0.0503842 3.49491e-20)
(0.83351 0.0637023 4.47739e-22)
(0.988654 0.0773166 -5.56687e-20)
(1.11417 0.0890336 -4.88636e-20)
(1.20559 0.0972115 1.86303e-21)
(1.26424 0.101093 -3.72509e-20)
(1.29587 0.100769 9.03273e-20)
(1.3086 0.096997 0)
(1.31053 0.0907993 -5.56744e-20)
(1.30785 0.0828335 2.70333e-20)
(1.30387 0.0744382 2.33731e-20)
(1.29931 0.064134 0)
(1.29389 0.0560093 1.88407e-20)
(1.287 0.0432373 -6.29619e-20)
(1.27856 0.0376334 5.87975e-20)
(1.27138 0.0219415 3.58589e-20)
(-0.0277047 0.016447 -3.58037e-20)
(-0.0416314 0.0295725 -3.42094e-20)
(-0.0160562 0.0327582 3.06514e-20)
(0.050221 0.0319573 0)
(0.158776 0.031834 0)
(0.307542 0.0356305 -8.10218e-22)
(0.48687 0.0449158 0)
(0.679145 0.0591365 -1.16201e-19)
(0.863446 0.0759674 1.05544e-19)
(1.02185 0.0923397 -1.26948e-19)
(1.1437 0.105557 2.79595e-20)
(1.2267 0.114029 0)
(1.27555 0.117465 4.31388e-20)
(1.29903 0.116589 -7.83971e-20)
(1.30676 0.112609 1.84755e-20)
(1.30652 0.106715 4.50505e-20)
(1.30304 0.09962 -2.64667e-21)
(1.29827 0.0920384 -4.87781e-20)
(1.29252 0.0835674 0)
(1.28598 0.0752967 0)
(1.2786 0.0660971 -1.64362e-20)
(1.27144 0.0565577 1.44857e-20)
(1.2633 0.0495211 5.12984e-20)
(1.25705 0.0356088 -4.78881e-20)
(-0.0263243 0.0138186 -3.76212e-20)
(-0.0266956 0.0229407 -3.47243e-20)
(0.0241504 0.0256275 9.59393e-20)
(0.126167 0.0274427 -5.75138e-20)
(0.277306 0.0332962 5.32763e-20)
(0.466846 0.0459051 9.54953e-20)
(0.673207 0.0647031 -6.63267e-20)
(0.869963 0.0863549 -7.81237e-20)
(1.03527 0.10662 2.74023e-21)
(1.15777 0.122178 9.59303e-20)
(1.23716 0.131543 0)
(1.28105 0.134993 2.448e-20)
(1.30039 0.133888 0)
(1.30547 0.129829 -3.73488e-20)
(1.30352 0.124095 5.19133e-20)
(1.29848 0.117397 5.09356e-22)
(1.2921 0.110187 -1.28914e-20)
(1.28505 0.102377 2.37675e-20)
(1.27787 0.0944859 1.99605e-20)
(1.2707 0.0859365 -1.7544e-20)
(1.26375 0.0778363 1.6429e-20)
(1.25658 0.068934 -1.44792e-20)
(1.24885 0.0620287 0)
(1.24201 0.050881 -1.03018e-20)
(-0.0222481 0.0104131 3.76118e-20)
(-0.00213317 0.0149679 3.65414e-20)
(0.081733 0.0183735 -3.21647e-20)
(0.226166 0.0257741 5.90435e-20)
(0.42065 0.0414005 -5.46904e-20)
(0.640561 0.0652451 4.86344e-20)
(0.852936 0.0928744 -2.30391e-20)
(1.03018 0.118433 5.8757e-20)
(1.15889 0.137636 -3.63006e-20)
(1.23989 0.148966 6.11963e-20)
(1.28308 0.153228 -1.38154e-19)
(1.30112 0.152375 4.96179e-20)
(1.30488 0.148385 -4.1408e-20)
(1.30163 0.142678 3.85479e-20)
(1.29535 0.13604 3.18485e-20)
(1.28798 0.128889 2.70125e-20)
(1.28044 0.121329 -7.45163e-20)
(1.27311 0.113636 4.57102e-20)
(1.26592 0.105633 -1.99577e-20)
(1.25875 0.0977553 5.05429e-20)
(1.25133 0.08968 -1.63952e-20)
(1.24387 0.0815039 -3.77372e-20)
(1.23618 0.0744536 3.44338e-20)
(1.2293 0.0641474 1.02986e-20)
(-0.0146412 0.00671386 0)
(0.0340929 0.00755215 4.14003e-22)
(0.15881 0.0144669 6.76331e-20)
(0.34909 0.0314067 -6.21886e-20)
(0.579587 0.0595919 -5.5206e-20)
(0.810607 0.0939239 1.00824e-19)
(1.00602 0.126378 -4.60542e-20)
(1.14766 0.151006 5.92858e-20)
(1.23592 0.165826 -1.90472e-21)
(1.28229 0.171987 -3.2098e-20)
(1.30114 0.172001 6.68632e-20)
(1.30449 0.168301 -9.68083e-20)
(1.3003 0.162599 0)
(1.29304 0.155874 -1.78342e-20)
(1.28487 0.148636 -4.62059e-20)
(1.27669 0.141094 1.4486e-20)
(1.2687 0.133417 7.416e-22)
(1.26083 0.125562 -2.92032e-20)
(1.25305 0.117705 2.48898e-21)
(1.24536 0.109715 3.31367e-20)
(1.2379 0.101775 -1.44067e-20)
(1.23058 0.0939885 -4.9714e-21)
(1.22318 0.0865463 1.59117e-20)
(1.21628 0.0776844 0)
(-0.00251701 0.00316908 0)
(0.0835739 0.00251166 1.86312e-20)
(0.255166 0.0169768 -8.85624e-20)
(0.488458 0.0471834 3.1674e-20)
(0.739181 0.0880653 -2.93377e-20)
(0.959619 0.129036 -2.62338e-20)
(1.12236 0.161312 -4.48139e-20)
(1.22456 0.181593 2.25333e-20)
(1.27843 0.191013 1.88734e-20)
(1.30037 0.192638 0)
(1.30434 0.189526 3.94501e-20)
(1.2997 0.183883 -5.70646e-20)
(1.29167 0.177007 4.18911e-20)
(1.28272 0.169558 1.78421e-20)
(1.27377 0.161825 -1.39002e-20)
(1.26508 0.153944 -1.101e-20)
(1.25667 0.145939 -1.01227e-20)
(1.24859 0.137911 3.0901e-20)
(1.24082 0.129838 0)
(1.23332 0.121852 1.44201e-20)
(1.22596 0.113962 1.14746e-20)
(1.21867 0.106204 -2.9095e-20)
(1.21141 0.0985751 -1.89698e-20)
(1.20443 0.0906059 1.73027e-20)
(0.0149855 0.000364113 -2.2218e-20)
(0.146774 0.00180252 -1.08511e-21)
(0.367364 0.0284312 1.81524e-20)
(0.633329 0.0738566 5.01303e-20)
(0.884639 0.124554 1.40635e-20)
(1.07823 0.167153 -2.68242e-20)
(1.20304 0.195496 2.399e-20)
(1.2702 0.210026 -2.02659e-20)
(1.29838 0.21431 3.51291e-20)
(1.30441 0.21226 1.42871e-20)
(1.29983 0.206823 -4.0233e-20)
(1.29109 0.199769 1.14863e-20)
(1.28123 0.191993 1.88565e-20)
(1.27137 0.183885 -9.30575e-21)
(1.2619 0.175616 0)
(1.25287 0.167261 1.28976e-20)
(1.2443 0.1589 2.08998e-20)
(1.23608 0.150551 3.04786e-21)
(1.22817 0.142289 -1.68049e-20)
(1.22052 0.134114 6.66054e-21)
(1.21314 0.126082 0)
(1.20597 0.118246 -4.8842e-21)
(1.19892 0.110451 -4.60803e-21)
(1.19204 0.103136 0)
(0.0383082 -0.000869373 0)
(0.222473 0.00755308 1.08547e-20)
(0.48873 0.0504324 1.98386e-20)
(0.771675 0.110268 -5.14836e-20)
(1.00656 0.166158 1.65211e-20)
(1.16555 0.206117 0)
(1.25452 0.228482 2.26989e-20)
(1.29386 0.237048 -3.11557e-20)
(1.30425 0.236819 -1.75016e-20)
(1.30051 0.231819 7.70599e-21)
(1.29118 0.22455 -1.16467e-20)
(1.28029 0.216291 2.82659e-20)
(1.26942 0.207612 1.34989e-20)
(1.25906 0.198759 -9.58634e-21)
(1.2493 0.189844 -1.14614e-21)
(1.2401 0.180942 -2.37898e-20)
(1.23139 0.172086 1.06252e-20)
(1.22314 0.163332 -3.432e-22)
(1.21533 0.154703 0)
(1.20791 0.146258 -6.66717e-21)
(1.20078 0.138032 0)
(1.19383 0.12996 1.37752e-20)
(1.187 0.122053 -1.58385e-20)
(1.18022 0.115107 7.03958e-21)
(0.0672806 0.000406034 -6.3925e-21)
(0.307546 0.0216224 -2.78923e-20)
(0.610658 0.0832154 3.14381e-20)
(0.894103 0.154265 1.77801e-20)
(1.10172 0.210646 -8.40619e-21)
(1.22513 0.245065 1.32652e-20)
(1.28368 0.260604 -6.43142e-21)
(1.30245 0.263526 1.00995e-20)
(1.30113 0.259415 0)
(1.29158 0.251931 2.13203e-20)
(1.27962 0.243015 -1.10317e-21)
(1.26756 0.23354 -1.64128e-20)
(1.25613 0.223868 6.76687e-21)
(1.24546 0.214155 -7.31131e-21)
(1.23551 0.204481 -2.53417e-21)
(1.22621 0.194895 3.15269e-21)
(1.2175 0.185451 -2.24056e-21)
(1.20933 0.176182 -1.18365e-20)
(1.20162 0.167132 7.13868e-21)
(1.19431 0.158326 1.35415e-21)
(1.18734 0.149764 1.14118e-21)
(1.18062 0.141416 9.59463e-22)
(1.17405 0.133427 0)
(1.16751 0.126447 0)
(0.101175 0.00514439 6.40024e-21)
(0.397387 0.0452515 -5.88852e-21)
(0.724881 0.125803 -1.05401e-20)
(0.995365 0.203708 0)
(1.17086 0.256704 -4.16523e-21)
(1.26163 0.283853 -3.62553e-21)
(1.29606 0.2924 -5.88284e-21)
(1.30033 0.290137 0)
(1.29158 0.282584 0)
(1.27867 0.272808 0)
(1.26527 0.262233 0)
(1.25259 0.251424 0)
(1.24086 0.240603 -4.18267e-21)
(1.23006 0.229877 1.8695e-21)
(1.22009 0.219302 3.12549e-21)
(1.21084 0.208924 1.44368e-21)
(1.20226 0.198775 3.36748e-21)
(1.19428 0.188889 0)
(1.18685 0.179295 -7.18288e-22)
(1.1799 0.170018 -6.86138e-22)
(1.17333 0.16105 -1.14298e-21)
(1.16702 0.152354 -9.60974e-22)
(1.16085 0.144181 0)
(1.15475 0.136918 5.78575e-22)
(-0.00172405 -0.0884389 6.51521e-21)
(-0.0165541 -0.144347 -6.21584e-21)
(-0.0446761 -0.140822 -1.15279e-20)
(-0.0774364 -0.113336 0)
(-0.111845 -0.0790222 -1.51561e-20)
(-0.146782 -0.042565 4.82225e-21)
(-0.181275 -0.003073 -8.67773e-21)
(-0.214709 0.0411617 0)
(-0.246646 0.0908927 0)
(-0.276413 0.146307 0)
(-0.303284 0.207141 0)
(-0.326483 0.272632 0)
(-0.345183 0.341523 4.05742e-22)
(-0.358515 0.412045 -5.7626e-21)
(-0.365574 0.481934 9.9329e-21)
(-0.365441 0.548471 1.40487e-20)
(-0.357206 0.608572 3.9143e-21)
(-0.340005 0.658926 0)
(-0.313077 0.696191 3.7831e-21)
(-0.275893 0.717253 -1.02884e-20)
(-0.228347 0.719632 -6.35649e-21)
(-0.170601 0.701811 -6.03132e-21)
(-0.102739 0.66295 0)
(-0.0249668 0.604054 0)
(0.00232497 -0.0739262 -1.91084e-20)
(-0.0100255 -0.115254 3.05377e-20)
(-0.0374149 -0.104376 -1.06789e-20)
(-0.070108 -0.072688 -2.05789e-20)
(-0.104726 -0.0359236 2.90115e-20)
(-0.139899 0.00153781 -1.77693e-20)
(-0.174572 0.0406939 2.51512e-20)
(-0.207897 0.0832841 1.46678e-20)
(-0.239087 0.130282 0)
(-0.26731 0.18179 -1.41218e-20)
(-0.291639 0.237368 -8.75248e-24)
(-0.311056 0.296141 1.22916e-20)
(-0.324481 0.356777 1.58202e-20)
(-0.330807 0.417468 1.98105e-20)
(-0.328939 0.475961 -1.00441e-20)
(-0.31785 0.529622 -2.62231e-20)
(-0.296645 0.575558 7.3025e-21)
(-0.264639 0.610759 -2.85877e-20)
(-0.2215 0.632343 0)
(-0.16724 0.637841 6.74759e-21)
(-0.102214 0.625293 6.34527e-21)
(-0.0281455 0.593929 6.02056e-21)
(0.0534768 0.544025 0)
(0.145415 0.474332 0)
(0.00531727 -0.0600526 0)
(-0.0042353 -0.0887306 5.57179e-20)
(-0.0289613 -0.0717346 -2.0721e-20)
(-0.0590439 -0.0362183 1.96519e-20)
(-0.0909443 0.00311876 -5.23841e-20)
(-0.123182 0.0416428 0)
(-0.154531 0.0801199 -3.007e-20)
(-0.183873 0.120514 1.32618e-20)
(-0.210199 0.163942 -2.45451e-20)
(-0.232522 0.210502 9.96462e-21)
(-0.249801 0.259659 6.4517e-20)
(-0.260922 0.310461 -2.98387e-20)
(-0.264739 0.361569 -4.72568e-20)
(-0.260119 0.411251 -1.59787e-20)
(-0.246012 0.457409 1.28766e-22)
(-0.22153 0.497695 5.94868e-20)
(-0.186055 0.52961 -2.77333e-20)
(-0.139305 0.550649 1.39406e-21)
(-0.0812747 0.558499 0)
(-0.0129081 0.551381 -2.32724e-20)
(0.0648169 0.528272 0)
(0.15185 0.487826 -2.4779e-20)
(0.238675 0.433823 9.04365e-20)
(0.342709 0.359486 2.18007e-21)
(0.00745079 -0.0483421 0)
(0.000749479 -0.0672489 -1.23813e-21)
(-0.0202647 -0.0457983 1.88784e-20)
(-0.0461928 -0.00717887 -1.71108e-20)
(-0.073414 0.0347222 1.73025e-20)
(-0.10035 0.0745395 8.95361e-20)
(-0.125737 0.112385 -2.7854e-20)
(-0.148322 0.15018 -2.44645e-20)
(-0.166916 0.189346 4.68795e-20)
(-0.180402 0.230214 -6.50012e-20)
(-0.187715 0.272312 1.86935e-20)
(-0.1878 0.314694 1.7034e-20)
(-0.179628 0.356071 0)
(-0.16226 0.394865 1.6204e-20)
(-0.134856 0.429239 0)
(-0.0967921 0.457226 2.48802e-20)
(-0.0478257 0.476755 -5.01999e-20)
(0.0117658 0.485839 1.10381e-20)
(0.0813702 0.482996 4.49781e-20)
(0.161057 0.466402 2.32436e-20)
(0.244702 0.437034 0)
(0.341627 0.391548 -6.73708e-20)
(0.425753 0.33712 2.10908e-20)
(0.536207 0.263408 0)
(0.0090052 -0.0394027 0)
(0.00488304 -0.0517968 -6.01841e-20)
(-0.0124348 -0.028084 -1.78741e-20)
(-0.0339203 0.0121776 -3.34701e-20)
(-0.0557436 0.0560065 3.10124e-20)
(-0.0762328 0.0971683 -2.91775e-20)
(-0.0942031 0.134625 5.10623e-20)
(-0.108487 0.169825 2.35685e-20)
(-0.117892 0.204378 -6.55409e-20)
(-0.121271 0.239053 3.8494e-20)
(-0.11756 0.273715 -5.38668e-20)
(-0.105824 0.307602 1.10198e-19)
(-0.0852622 0.339567 -5.94291e-20)
(-0.0552498 0.368214 2.57027e-20)
(-0.0153271 0.392022 7.40332e-20)
(0.0347037 0.409352 -2.43064e-20)
(0.094509 0.418644 -2.00567e-20)
(0.164262 0.418303 -2.17889e-20)
(0.240083 0.407839 0)
(0.327717 0.384845 -4.23412e-20)
(0.409891 0.352734 -4.45405e-20)
(0.511365 0.305424 5.91271e-20)
(0.585881 0.254302 8.43414e-20)
(0.695718 0.185449 -7.69959e-20)
(0.0101428 -0.0329628 0)
(0.0079431 -0.041787 -7.47806e-20)
(-0.00663292 -0.0183081 1.32815e-21)
(-0.0245938 0.0212688 6.42173e-20)
(-0.0416954 0.0652476 0)
(-0.0560203 0.106893 0)
(-0.0664742 0.143942 0)
(-0.072144 0.176878 -2.1998e-20)
(-0.0720946 0.207078 1.07645e-21)
(-0.0653546 0.235608 3.63614e-20)
(-0.0510279 0.262789 -4.96813e-20)
(-0.0283739 0.288254 5.76249e-22)
(0.0031384 0.311176 0)
(0.0438074 0.330464 -2.56888e-20)
(0.0936369 0.344905 2.13606e-20)
(0.152493 0.353326 -6.21049e-20)
(0.218973 0.354371 8.0942e-20)
(0.294491 0.347437 2.07586e-20)
(0.371032 0.331734 3.91243e-21)
(0.461561 0.305985 -7.24478e-20)
(0.536095 0.274029 -3.54273e-20)
(0.640592 0.228581 1.30514e-19)
(0.703357 0.184652 -8.67696e-20)
(0.820503 0.120115 0)
(0.0107573 -0.0281172 3.74051e-20)
(0.00935379 -0.0353981 3.70266e-20)
(-0.00413487 -0.0145105 -3.26939e-20)
(-0.0203368 0.0215161 -6.06622e-20)
(-0.0344786 0.0627406 5.62055e-20)
(-0.0442386 0.102626 -5.00816e-20)
(-0.0485074 0.138077 6.8883e-20)
(-0.0466584 0.168535 -2.16719e-20)
(-0.0381461 0.194755 3.78014e-20)
(-0.0224142 0.217694 0)
(0.00105581 0.237934 2.77026e-20)
(0.0326539 0.255529 -5.2532e-20)
(0.0725626 0.270096 4.804e-20)
(0.120717 0.280995 -4.4714e-20)
(0.176748 0.287349 0)
(0.240203 0.288717 3.82918e-20)
(0.309694 0.283481 7.1913e-20)
(0.386295 0.273023 -6.86389e-20)
(0.46345 0.253955 -3.29224e-20)
(0.554975 0.23008 -3.73924e-20)
(0.630286 0.198482 1.00749e-19)
(0.746598 0.158274 3.42603e-20)
(0.809371 0.117516 -2.98307e-20)
(0.957968 0.0559658 3.13091e-20)
(0.0103913 -0.0236711 -3.74143e-20)
(0.008088 -0.0302297 1.03695e-19)
(-0.00628848 -0.0137007 -3.15814e-20)
(-0.0227491 0.0160641 5.83628e-20)
(-0.0360875 0.0512046 -5.40751e-20)
(-0.0436398 0.086046 -1.6713e-22)
(-0.0441224 0.117271 2.20646e-20)
(-0.0371061 0.143686 7.53785e-20)
(-0.0224252 0.165356 -2.81625e-21)
(9.26496e-06 0.182888 -3.34694e-20)
(0.0302576 0.196875 0)
(0.0683332 0.207653 -2.30786e-20)
(0.114191 0.215258 4.55683e-20)
(0.167738 0.21954 4.0326e-20)
(0.228898 0.220065 -1.94585e-20)
(0.297613 0.216859 -1.29947e-21)
(0.374299 0.208398 -1.73464e-20)
(0.458767 0.196984 3.13455e-20)
(0.551465 0.176964 3.29288e-20)
(0.655364 0.156777 -3.26196e-20)
(0.757555 0.123802 3.03555e-20)
(0.89097 0.091711 -3.00107e-20)
(0.979296 0.0492814 0)
(1.14783 -0.000633729 -3.13166e-20)
(0.00834007 -0.0184751 3.53791e-20)
(0.00298613 -0.0239761 -3.42434e-20)
(-0.0140716 -0.0126905 3.06287e-20)
(-0.0323725 0.00893462 0)
(-0.0465495 0.0352933 0)
(-0.0538436 0.0619532 4.48141e-20)
(-0.0527878 0.086047 -4.29351e-20)
(-0.042859 0.106167 3.53623e-20)
(-0.0240861 0.122025 -1.67258e-19)
(0.00353542 0.133964 1.15702e-21)
(0.0401283 0.142523 2.59242e-20)
(0.0859866 0.148217 0)
(0.141668 0.151342 -4.14809e-20)
(0.207891 0.152009 7.64942e-20)
(0.28536 0.150108 -5.33766e-20)
(0.374558 0.145452 -8.35861e-20)
(0.475822 0.137341 -2.09983e-21)
(0.587286 0.126515 5.86469e-20)
(0.710261 0.109369 0)
(0.8362 0.0924925 0)
(0.968239 0.0631564 -3.03655e-20)
(1.09701 0.0409451 3.00205e-20)
(1.20343 0.000245982 -1.13616e-19)
(1.32895 -0.0309039 1.05865e-19)
(0.00399457 -0.0117866 0)
(-0.00648557 -0.0150369 0)
(-0.0270533 -0.00877412 -9.08661e-20)
(-0.0473798 0.00423562 2.82029e-20)
(-0.0623077 0.0207164 1.02379e-21)
(-0.0690171 0.0377054 4.53346e-20)
(-0.0658249 0.0531238 0)
(-0.0516292 0.0658469 -3.64075e-20)
(-0.025725 0.0756409 3.30517e-20)
(0.0125741 0.082756 -5.56591e-20)
(0.0643004 0.0876769 8.84943e-22)
(0.130451 0.0908827 4.46385e-20)
(0.211709 0.092685 -1.19024e-21)
(0.308148 0.0931903 3.64258e-20)
(0.418797 0.0924427 -5.16332e-20)
(0.541808 0.0897289 0)
(0.673549 0.0854281 6.27658e-20)
(0.810191 0.07765 -8.86879e-20)
(0.946448 0.0674336 2.85118e-20)
(1.07477 0.0537641 0)
(1.19428 0.0338406 2.64533e-20)
(1.28717 0.0168188 1.0725e-19)
(1.36559 -0.0162779 -1.00147e-19)
(1.40736 -0.0336317 -1.14612e-19)
(-0.00262499 -0.00365723 1.01513e-19)
(-0.019293 -0.0030394 -1.28476e-19)
(-0.0422815 -0.000431582 3.19865e-22)
(-0.062301 0.00515452 2.72836e-20)
(-0.0745288 0.0127525 -4.96416e-20)
(-0.0759035 0.0208785 -4.54411e-20)
(-0.0639785 0.0284133 7.95658e-20)
(-0.0366746 0.0348563 -2.78515e-21)
(0.00791819 0.0401107 -6.58556e-20)
(0.0711365 0.0443778 1.13549e-19)
(0.153632 0.0480475 -2.35184e-21)
(0.254972 0.0515416 -4.64286e-20)
(0.373245 0.0550781 0)
(0.504952 0.0584919 0)
(0.645173 0.0615427 -1.72504e-20)
(0.788267 0.063067 -3.26713e-20)
(0.927558 0.063413 -6.2211e-20)
(1.05732 0.0594849 5.79907e-20)
(1.17036 0.0545206 -2.85363e-20)
(1.26357 0.0422177 5.39486e-20)
(1.331 0.0297301 -2.57619e-20)
(1.37258 0.0115359 4.83602e-20)
(1.39361 -0.0117161 -1.10804e-19)
(1.38215 -0.0251086 2.21855e-20)
(-0.0104657 0.00480941 3.364e-20)
(-0.0326765 0.0105362 0)
(-0.0548364 0.0116539 5.88521e-20)
(-0.0694526 0.0123659 -5.44977e-20)
(-0.0720529 0.0137009 4.97063e-20)
(-0.0591166 0.0155547 0)
(-0.0273305 0.0177869 0)
(0.0260122 0.0202982 -3.52359e-20)
(0.102512 0.0231897 2.52359e-21)
(0.202153 0.0268313 3.05398e-20)
(0.322762 0.0316025 -2.54087e-20)
(0.459782 0.0375735 4.75613e-20)
(0.606825 0.0444292 0)
(0.756373 0.0514794 7.66122e-20)
(0.900588 0.0577853 -1.42101e-19)
(1.0322 0.0621344 9.86268e-20)
(1.14504 0.0638831 6.14422e-20)
(1.23472 0.0611544 -5.72791e-20)
(1.29906 0.0561806 0)
(1.33852 0.0436319 0)
(1.35549 0.0341595 0)
(1.35795 0.0127988 0)
(1.34907 0.000696645 2.11589e-20)
(1.33895 -0.0188995 -7.22954e-20)
(0.0651341 0.521713 -3.99915e-21)
(0.185096 0.384224 4.01069e-21)
(0.29659 0.229418 -1.32206e-22)
(0.401269 0.0612621 0)
(0.490399 -0.117236 -3.98515e-21)
(0.566388 -0.315789 7.53096e-21)
(0.63442 -0.521712 -3.8292e-22)
(0.688987 -0.693787 -3.08055e-21)
(0.720728 -0.795289 0)
(0.733823 -0.8218 0)
(0.73381 -0.802351 -8.73517e-23)
(0.722136 -0.768272 -7.20318e-23)
(0.708994 -0.728961 -1.09068e-21)
(0.696258 -0.698677 9.97479e-22)
(0.67104 -0.704012 0)
(0.628067 -0.735356 0)
(0.584221 -0.721162 1.47931e-21)
(0.568612 -0.581425 2.6546e-22)
(0.590379 -0.308812 -1.54939e-21)
(0.634253 0.0264453 -1.04585e-22)
(0.687244 0.32514 0)
(0.740561 0.521535 0)
(0.782079 0.618928 0)
(0.807191 0.646552 0)
(0.827194 0.628306 0)
(0.840222 0.610742 0)
(0.832316 0.640469 1.96924e-22)
(0.800579 0.694637 -3.1899e-22)
(0.756526 0.685936 0)
(0.711861 0.549473 0)
(0.682748 0.292565 -4.71048e-22)
(0.678136 -0.0137339 4.57704e-22)
(0.698226 -0.276345 2.08827e-22)
(0.728887 -0.444209 0)
(0.763964 -0.520897 0)
(0.780518 -0.547989 1.5505e-22)
(0.755878 -0.564616 -1.50697e-22)
(0.693105 -0.558699 0)
(0.629386 -0.478782 1.72242e-22)
(0.590292 -0.295713 -2.50084e-22)
(0.597517 -0.0532665 8.15886e-23)
(0.640746 0.164513 0)
(0.690977 0.316693 -1.10805e-22)
(0.697574 0.420485 1.07741e-22)
(0.673127 0.484615 0)
(0.641911 0.45613 0)
(0.636 0.331222 -4.67283e-23)
(0.645455 0.124658 1.45498e-22)
(0.670359 -0.101096 0)
(0.666977 -0.288431 0)
(0.655276 -0.427483 -2.54106e-23)
(0.637809 -0.403876 3.04707e-24)
(0.644025 -0.273819 -1.58846e-24)
(0.632632 -0.0274922 1.22199e-23)
(0.621979 0.255812 0)
(0.59816 0.3584 0)
(0.607659 0.382734 0)
(0.575291 0.13826 0)
(0.541644 -0.211608 0)
(0.522598 -0.143255 0)
(0.243348 0.387782 -3.90464e-22)
(0.358038 0.257219 -1.74945e-20)
(0.464292 0.112864 -3.92246e-22)
(0.558565 -0.0354446 1.67359e-20)
(0.638649 -0.195575 2.61003e-22)
(0.711213 -0.383823 0)
(0.776086 -0.581931 -1.29117e-20)
(0.819314 -0.738676 2.34861e-20)
(0.830768 -0.819768 -1.05708e-20)
(0.81863 -0.828566 6.56263e-21)
(0.796261 -0.7955 -6.28556e-21)
(0.765745 -0.753433 4.33681e-21)
(0.734198 -0.711842 -4.21766e-21)
(0.707303 -0.676716 -1.13995e-22)
(0.672406 -0.670896 -4.01294e-21)
(0.619126 -0.694473 3.89734e-21)
(0.55929 -0.689185 -5.19449e-21)
(0.520456 -0.574572 4.88667e-21)
(0.521987 -0.329003 -6.45593e-21)
(0.558877 -0.0144219 1.23196e-20)
(0.61627 0.275328 -5.87184e-21)
(0.679643 0.478003 -2.67815e-22)
(0.733416 0.5895 -3.17702e-21)
(0.773678 0.627692 5.59267e-21)
(0.809287 0.616357 -2.43495e-21)
(0.835231 0.608029 1.21115e-22)
(0.839785 0.649073 2.20014e-21)
(0.82141 0.712909 5.27284e-22)
(0.790889 0.710571 -5.65227e-21)
(0.757938 0.57446 6.94859e-21)
(0.736676 0.307909 -3.74201e-21)
(0.733899 -0.0131631 5.27705e-22)
(0.749134 -0.287826 -2.0926e-22)
(0.767731 -0.460165 3.42429e-22)
(0.787748 -0.532774 0)
(0.794504 -0.546549 0)
(0.763636 -0.547272 -5.17385e-22)
(0.69404 -0.533903 3.88766e-22)
(0.624094 -0.459136 4.53364e-22)
(0.58231 -0.290442 1.25571e-22)
(0.591112 -0.0649333 -6.67019e-22)
(0.63624 0.145916 1.13258e-22)
(0.685413 0.305786 0)
(0.692113 0.422344 0)
(0.671417 0.492872 0)
(0.642592 0.463036 0)
(0.637637 0.331779 2.23123e-22)
(0.65 0.121003 -1.00153e-22)
(0.680154 -0.104668 0)
(0.677655 -0.286657 0)
(0.661592 -0.424083 0)
(0.639233 -0.40244 -3.34206e-23)
(0.642911 -0.273588 1.49758e-23)
(0.631433 -0.0256455 -3.18627e-23)
(0.623873 0.258189 0)
(0.604994 0.359876 0)
(0.618607 0.38461 3.13037e-23)
(0.584655 0.146632 1.19854e-22)
(0.541615 -0.206723 0)
(0.525293 -0.141985 0)
(0.431546 0.274526 2.25043e-21)
(0.531267 0.152665 -3.37151e-20)
(0.623905 0.0223828 3.57934e-20)
(0.703293 -0.106509 -3.34338e-20)
(0.773217 -0.249976 -2.62858e-22)
(0.844766 -0.4267 0)
(0.907549 -0.611923 -2.64213e-20)
(0.938178 -0.749394 2.58004e-20)
(0.930098 -0.81089 1.46769e-22)
(0.895635 -0.808983 2.22796e-22)
(0.853642 -0.77193 1.74585e-22)
(0.809301 -0.728815 1.45025e-22)
(0.763572 -0.689217 -7.5499e-21)
(0.724094 -0.65133 7.44652e-21)
(0.682669 -0.633612 0)
(0.622558 -0.648374 2.04299e-22)
(0.549303 -0.65269 -8.72608e-21)
(0.491152 -0.56666 8.63388e-21)
(0.472979 -0.353218 0)
(0.49872 -0.0625984 0)
(0.556378 0.216736 -9.28676e-21)
(0.62605 0.425527 1.65319e-20)
(0.689359 0.550506 -1.2771e-20)
(0.742947 0.600045 1.10365e-21)
(0.793027 0.597343 8.32307e-21)
(0.832355 0.597736 -7.91435e-21)
(0.850166 0.648364 7.84669e-21)
(0.845532 0.723288 7.92749e-22)
(0.828621 0.732153 -5.0872e-21)
(0.807861 0.600879 0)
(0.795938 0.329633 0)
(0.79527 -0.00188146 3.04224e-21)
(0.805302 -0.287514 -4.01618e-21)
(0.812318 -0.465642 1.77019e-23)
(0.816707 -0.538227 1.70858e-21)
(0.813484 -0.542805 -1.66019e-21)
(0.778276 -0.528817 0)
(0.703018 -0.508906 1.14578e-22)
(0.626907 -0.441207 1.06037e-21)
(0.582563 -0.288346 -2.08949e-21)
(0.591948 -0.0790471 9.36887e-22)
(0.637012 0.126339 6.3531e-23)
(0.684761 0.294711 -8.16833e-22)
(0.692393 0.423728 6.46197e-22)
(0.675382 0.500812 1.66563e-22)
(0.64765 0.470794 2.09371e-22)
(0.642947 0.333378 -2.23721e-22)
(0.657662 0.117969 0)
(0.693439 -0.107561 0)
(0.692499 -0.283426 -6.48058e-22)
(0.671918 -0.419312 2.85966e-22)
(0.643973 -0.401079 -1.47585e-22)
(0.644977 -0.273842 1.50128e-22)
(0.633804 -0.0254649 1.02144e-22)
(0.629766 0.259649 -5.3468e-23)
(0.615255 0.360503 8.47624e-23)
(0.632914 0.386204 -1.24473e-22)
(0.598454 0.15667 1.05979e-22)
(0.546613 -0.200838 0)
(0.531628 -0.141678 0)
(0.609203 0.184326 -6.7313e-20)
(0.691015 0.073995 -2.56169e-21)
(0.768737 -0.0408247 6.61027e-20)
(0.836131 -0.156905 -5.36761e-22)
(0.901829 -0.293753 0)
(0.974559 -0.463065 0)
(1.03288 -0.631197 -5.09496e-20)
(1.04834 -0.744857 7.29193e-21)
(1.02053 -0.785596 5.6863e-20)
(0.967149 -0.774633 -3.31244e-21)
(0.908071 -0.737349 -1.26169e-20)
(0.852364 -0.694867 -8.03673e-21)
(0.796975 -0.659124 8.0668e-21)
(0.74611 -0.624123 0)
(0.699066 -0.596277 -6.13461e-21)
(0.638137 -0.596181 5.57842e-21)
(0.557603 -0.604214 0)
(0.482774 -0.548955 0)
(0.445842 -0.376265 8.6956e-21)
(0.457719 -0.115575 1.05382e-22)
(0.509877 0.151452 -8.0227e-21)
(0.580409 0.36515 -6.46707e-21)
(0.649974 0.502717 6.36177e-21)
(0.714785 0.563608 -4.16845e-21)
(0.777532 0.569557 4.24486e-22)
(0.829201 0.578082 3.50028e-21)
(0.861025 0.637818 4.58681e-22)
(0.871316 0.72392 1.46466e-23)
(0.867864 0.745548 0)
(0.859512 0.624252 8.37326e-21)
(0.857871 0.354567 -8.68878e-21)
(0.860163 0.0164071 5.65842e-22)
(0.865537 -0.279651 0)
(0.862538 -0.463569 -3.64493e-22)
(0.851079 -0.537772 3.48443e-21)
(0.836228 -0.537307 -5.40894e-21)
(0.797985 -0.510379 3.56154e-22)
(0.719236 -0.483031 1.93356e-22)
(0.6369 -0.423119 1.27102e-21)
(0.589269 -0.288246 2.15407e-22)
(0.598288 -0.0953242 -1.35184e-21)
(0.642246 0.105547 1.13544e-21)
(0.6891 0.282016 3.64702e-23)
(0.698083 0.423022 6.10624e-22)
(0.684155 0.508331 -7.6083e-22)
(0.656929 0.479901 -1.62861e-21)
(0.652356 0.336624 3.9439e-22)
(0.668677 0.115523 1.05529e-21)
(0.710141 -0.110392 -1.89154e-21)
(0.711364 -0.27929 1.19676e-21)
(0.686207 -0.412971 -1.42675e-22)
(0.652046 -0.399265 3.15784e-22)
(0.650108 -0.274464 1.22628e-22)
(0.639574 -0.0269891 -6.77133e-23)
(0.63934 0.260063 -1.63175e-23)
(0.628587 0.360317 -6.25181e-23)
(0.650297 0.387475 0)
(0.616594 0.16816 -9.19979e-23)
(0.55679 -0.193853 2.64793e-22)
(0.541547 -0.142067 0)
(0.754801 0.11557 6.36431e-20)
(0.82345 0.0188474 -1.27291e-19)
(0.893378 -0.0835298 6.28424e-20)
(0.958879 -0.194114 6.41537e-20)
(1.02942 -0.329355 -1.23559e-19)
(1.10266 -0.487244 4.28213e-21)
(1.14757 -0.627922 5.3989e-20)
(1.14032 -0.712661 3.91228e-20)
(1.0915 -0.736589 -3.82612e-20)
(1.02439 -0.722486 0)
(0.954959 -0.691525 -1.95152e-20)
(0.891809 -0.654614 3.47279e-20)
(0.831918 -0.622606 -1.53374e-20)
(0.774356 -0.593831 0)
(0.722256 -0.563833 0)
(0.662883 -0.549433 1.74489e-22)
(0.581894 -0.553026 -1.1025e-20)
(0.494987 -0.522821 1.07042e-20)
(0.439512 -0.393999 0)
(0.435113 -0.169223 1.38951e-20)
(0.476833 0.0818222 -2.54183e-20)
(0.543397 0.298324 2.21809e-20)
(0.615813 0.447103 -1.84662e-20)
(0.688687 0.519543 1.20918e-21)
(0.761369 0.53478 1.29154e-20)
(0.82493 0.549571 -6.18178e-21)
(0.871195 0.614774 -2.22154e-22)
(0.895577 0.712197 -4.67072e-21)
(0.905755 0.752333 -1.79914e-21)
(0.910494 0.648685 6.40558e-21)
(0.919559 0.386475 5.62617e-22)
(0.925788 0.0438163 -8.8438e-21)
(0.927072 -0.261945 1.58045e-20)
(0.915898 -0.45231 -7.77223e-21)
(0.889953 -0.529985 0)
(0.862263 -0.528814 -2.63497e-21)
(0.821773 -0.492119 2.45532e-21)
(0.74215 -0.457129 -1.05895e-21)
(0.653663 -0.404643 1.32744e-21)
(0.60091 -0.289152 -1.20815e-22)
(0.60847 -0.11358 0)
(0.651053 0.0825442 -8.83301e-23)
(0.697672 0.267388 2.797e-22)
(0.70913 0.421054 0)
(0.698839 0.514951 1.87553e-21)
(0.671735 0.489512 -6.12718e-22)
(0.66686 0.341267 5.55735e-22)
(0.68355 0.113932 6.47856e-22)
(0.730085 -0.113077 0)
(0.734042 -0.274174 0)
(0.704321 -0.404842 -6.48816e-22)
(0.663356 -0.396858 6.80697e-22)
(0.658086 -0.275452 -2.04221e-22)
(0.648456 -0.0302651 -4.3634e-23)
(0.652251 0.259195 -2.48534e-23)
(0.644667 0.359191 6.25857e-23)
(0.670407 0.388163 -2.8456e-22)
(0.638831 0.180859 0)
(0.572164 -0.185673 -3.83121e-22)
(0.554972 -0.142894 -4.98566e-23)
(0.872389 0.0595106 5.84118e-20)
(0.938787 -0.0259698 -5.78399e-20)
(1.01258 -0.121695 4.92306e-22)
(1.08567 -0.230179 -4.42893e-22)
(1.16097 -0.359953 4.72759e-22)
(1.22346 -0.497051 -4.38082e-22)
(1.24333 -0.605059 6.90752e-22)
(1.21091 -0.663018 0)
(1.14516 -0.677127 -4.79594e-22)
(1.06984 -0.665087 3.86351e-22)
(0.995547 -0.641597 3.08542e-22)
(0.92788 -0.612122 -2.63325e-22)
(0.866104 -0.583398 0)
(0.805523 -0.559344 0)
(0.749931 -0.532139 1.37147e-22)
(0.694226 -0.507488 0)
(0.619087 -0.500568 -1.11311e-22)
(0.526574 -0.486238 0)
(0.452971 -0.400647 -9.65398e-21)
(0.428884 -0.218003 1.94102e-20)
(0.456119 0.0130632 -1.90827e-20)
(0.514901 0.227125 9.19014e-21)
(0.586532 0.384818 6.42896e-21)
(0.664299 0.468294 -6.2403e-21)
(0.745008 0.491922 -5.18214e-21)
(0.818751 0.51162 5.03528e-21)
(0.877492 0.582184 0)
(0.916136 0.690327 2.15093e-22)
(0.939909 0.747609 0)
(0.956321 0.664479 0)
(0.975907 0.418388 1.70434e-20)
(0.987941 0.0781709 -1.75482e-20)
(0.98762 -0.235732 9.94343e-22)
(0.970709 -0.433268 7.74114e-22)
(0.932634 -0.515581 -5.19591e-22)
(0.890826 -0.517623 -2.20373e-21)
(0.847636 -0.474429 2.13948e-21)
(0.770223 -0.430975 -1.10609e-21)
(0.676666 -0.38454 9.33e-22)
(0.616594 -0.289587 2.05498e-22)
(0.620944 -0.132863 -6.35062e-22)
(0.662307 0.0575019 6.86394e-23)
(0.710159 0.249342 3.58046e-22)
(0.724859 0.414621 0)
(0.717731 0.520302 -5.91695e-22)
(0.691215 0.501353 1.78166e-21)
(0.686827 0.348467 -2.18568e-21)
(0.702822 0.113829 -6.522e-22)
(0.753167 -0.115648 0)
(0.760261 -0.268388 2.67019e-22)
(0.726071 -0.394771 -6.80362e-22)
(0.677769 -0.393562 -1.16141e-23)
(0.668677 -0.27669 1.7008e-23)
(0.660083 -0.0353094 -1.63405e-22)
(0.668031 0.257049 9.03066e-23)
(0.663079 0.357329 0)
(0.692778 0.388202 2.84729e-22)
(0.66475 0.194351 0)
(0.59265 -0.176285 0)
(0.571816 -0.143912 7.77672e-23)
(1.00959 0.00257089 -5.40066e-20)
(1.07628 -0.0756369 5.30719e-20)
(1.15261 -0.163525 -4.02046e-22)
(1.22595 -0.263473 4.54027e-22)
(1.28906 -0.376312 0)
(1.32282 -0.482331 0)
(1.30882 -0.556894 -7.07779e-22)