/*--------------------------------*- C++ -*----------------------------------*\
| =========                 |                                                 |
| \\      /  F ield         | OpenFOAM: The Open Source CFD Toolbox           |
|  \\    /   O peration     | Version:  2312                                  |
|   \\  /    A nd           | Website:  www.openfoam.com                      |
|    \\/     M anipulation  |                                                 |
\*---------------------------------------------------------------------------*/
FoamFile
{
    version     2.0;
    format      ascii;
    arch        "LSB;label=32;scalar=64";
    class       volScalarField;
    location    "83.75";
    object      p;
}
// * * * * * * * * * * * * * * * * * * * * * * * * * * * * * * * * * * * * * //

dimensions      [0 2 -2 0 0 0 0];

internalField   nonuniform List<scalar> 
5478
(
-0.553087
-0.548862
-0.541309
-0.534057
-0.529037
-0.52608
-0.522517
-0.514879
-0.500272
-0.477536
-0.447662
-0.412327
-0.374239
-0.331391
-0.28655
-0.566253
-0.561384
-0.554269
-0.545935
-0.536503
-0.524782
-0.509679
-0.490325
-0.466448
-0.438599
-0.407571
-0.374438
-0.339582
-0.30358
-0.26915
-0.585167
-0.578707
-0.570022
-0.558513
-0.54192
-0.52026
-0.495014
-0.467452
-0.438361
-0.408121
-0.377096
-0.345484
-0.313751
-0.28205
-0.250466
-0.609499
-0.599815
-0.588179
-0.57036
-0.544287
-0.513067
-0.480115
-0.447189
-0.414846
-0.383218
-0.35222
-0.32196
-0.292437
-0.263824
-0.236856
-0.63972
-0.624452
-0.608069
-0.580474
-0.543638
-0.504001
-0.465265
-0.428628
-0.39422
-0.361762
-0.331021
-0.301735
-0.273755
-0.24724
-0.221506
-0.674724
-0.652525
-0.626716
-0.586534
-0.539225
-0.492593
-0.449442
-0.410137
-0.374246
-0.341283
-0.310765
-0.282359
-0.255846
-0.230969
-0.207211
-0.707783
-0.680413
-0.64008
-0.585898
-0.529355
-0.477091
-0.430534
-0.389258
-0.352449
-0.319339
-0.289323
-0.26193
-0.236812
-0.213684
-0.19161
-0.732656
-0.700776
-0.643537
-0.576115
-0.511909
-0.45527
-0.406334
-0.363894
-0.326764
-0.294018
-0.264878
-0.238792
-0.215375
-0.194106
-0.174507
-0.498212
-0.49831
-0.502558
-0.513697
-0.531626
-0.55567
-0.584585
-0.616071
-0.646753
-0.672267
-0.687767
-0.687351
-0.667485
-0.62873
-0.566563
-0.525229
-0.523765
-0.528659
-0.541576
-0.562302
-0.590095
-0.623615
-0.660409
-0.696921
-0.728564
-0.748969
-0.75188
-0.730747
-0.684916
-0.609834
-0.543221
-0.539485
-0.543195
-0.555041
-0.57489
-0.601994
-0.63497
-0.671358
-0.707699
-0.739056
-0.759966
-0.762342
-0.737521
-0.685039
-0.600358
-0.551651
-0.545632
-0.546437
-0.55447
-0.570133
-0.592951
-0.621573
-0.653828
-0.686652
-0.715431
-0.733338
-0.732497
-0.702975
-0.646579
-0.560048
-0.552566
-0.545149
-0.542297
-0.544816
-0.554292
-0.571064
-0.59412
-0.621468
-0.649965
-0.673991
-0.684903
-0.676182
-0.639528
-0.579919
-0.499368
-0.549608
-0.542207
-0.536225
-0.533366
-0.536708
-0.547738
-0.565985
-0.588978
-0.61132
-0.626227
-0.626113
-0.606134
-0.562876
-0.50443
-0.433605
-0.546515
-0.540222
-0.532377
-0.525932
-0.525129
-0.532054
-0.545796
-0.561855
-0.574126
-0.575838
-0.562397
-0.532181
-0.486932
-0.435296
-0.377294
-0.546684
-0.541842
-0.533531
-0.525958
-0.523099
-0.526204
-0.532953
-0.538406
-0.537144
-0.52479
-0.500383
-0.464513
-0.421951
-0.375969
-0.32858
-0.463571
-0.34985
-0.316153
-0.319772
-0.293862
-0.213282
-0.154379
-0.136543
-0.138283
-0.162685
-0.172122
-0.150428
-0.137186
-0.128974
-0.104633
-0.0820924
-0.0920117
-0.114956
-0.118538
-0.105735
-0.110122
-0.140023
-0.125467
-0.10671
-0.11333
-0.126679
-0.0950616
-0.0826355
-0.0497722
-0.00517989
0.000281946
-0.0081343
-0.0156883
0.00314107
0.0204968
0.0246504
0.00851549
-0.00446535
-0.480085
-0.330627
-0.243271
-0.213013
-0.190782
-0.150192
-0.133198
-0.138009
-0.156315
-0.197879
-0.217314
-0.173915
-0.143354
-0.131089
-0.109056
-0.0876829
-0.0979164
-0.119631
-0.120656
-0.100852
-0.0951313
-0.125994
-0.115821
-0.109027
-0.129198
-0.141112
-0.0938633
-0.0740732
-0.0495305
-0.00953732
-0.00361835
-0.0100266
-0.0171416
0.00233816
0.0204463
0.0247313
0.00732155
-0.00548882
-0.459562
-0.296561
-0.182217
-0.130662
-0.0816097
-0.077657
-0.105742
-0.134782
-0.168322
-0.224736
-0.254379
-0.195662
-0.147591
-0.131029
-0.112512
-0.0934622
-0.103927
-0.123683
-0.12118
-0.0946611
-0.0799932
-0.112277
-0.104897
-0.107856
-0.141914
-0.152031
-0.0915519
-0.0647217
-0.0483056
-0.0137669
-0.00751779
-0.0118492
-0.018549
0.0013718
0.0201721
0.0247785
0.00622345
-0.00638869
-0.422376
-0.274784
-0.155922
-0.0897588
-0.0281436
-0.0236976
-0.0780637
-0.121912
-0.16246
-0.232396
-0.269966
-0.211507
-0.149997
-0.128389
-0.112753
-0.0981021
-0.109174
-0.127067
-0.121528
-0.0882977
-0.0658168
-0.0783916
-0.0927682
-0.103077
-0.150795
-0.15929
-0.0892626
-0.0555753
-0.046039
-0.0176308
-0.0111504
-0.0136011
-0.0201211
0.000294402
0.0196936
0.0248016
0.00523277
-0.00716274
-0.374953
-0.261109
-0.151962
-0.079861
-0.0249285
0.0051586
-0.0640002
-0.111343
-0.142032
-0.215538
-0.263739
-0.220207
-0.150969
-0.124614
-0.109547
-0.100901
-0.113366
-0.12962
-0.12116
-0.0821925
-0.0544259
-0.067163
-0.0809329
-0.0951955
-0.155654
-0.162391
-0.0870519
-0.0470598
-0.042839
-0.0210235
-0.0142676
-0.0152835
-0.0209748
-0.000873668
0.0190312
0.0247941
0.00433886
-0.00781725
-0.330455
-0.247192
-0.156911
-0.0887633
-0.0349197
0.00107186
-0.0427532
-0.0961765
-0.112518
-0.178969
-0.238546
-0.209219
-0.14663
-0.118429
-0.102821
-0.100619
-0.115152
-0.131171
-0.121943
-0.0780257
-0.0457896
-0.0565625
-0.069077
-0.0844421
-0.156236
-0.161469
-0.0856488
-0.0401433
-0.038935
-0.0239384
-0.0167227
-0.0169019
-0.0216272
-0.0020735
0.0182024
0.0247373
0.00353901
-0.00836342
-0.300148
-0.23435
-0.1564
-0.0907903
-0.0405038
-0.0029359
0.00436661
-0.0638235
-0.0795986
-0.146724
-0.21224
-0.200235
-0.14453
-0.114046
-0.0942291
-0.0959458
-0.115373
-0.129638
-0.120349
-0.0732901
-0.0392933
-0.0481561
-0.0573363
-0.070172
-0.153134
-0.156444
-0.0837133
-0.0357042
-0.0339896
-0.0264529
-0.0183473
-0.0184345
-0.0221942
-0.00338498
0.0172331
0.024652
0.00281451
-0.00882556
-0.282337
-0.23468
-0.167687
-0.107331
-0.0574566
-0.0127649
-0.00292769
-0.023124
-0.0447707
-0.106983
-0.172242
-0.169861
-0.133379
-0.108767
-0.0842989
-0.08652
-0.113171
-0.137012
-0.122682
-0.0716546
-0.0348673
-0.0401952
-0.0462301
-0.0547028
-0.146092
-0.15071
-0.0828145
-0.0334057
-0.0290598
-0.028208
-0.0191726
-0.0198841
-0.0225686
-0.00466999
0.0160662
0.024484
0.00219411
-0.00921164
-0.2466
-0.21573
-0.150552
-0.0889892
-0.037692
0.00894765
0.0634081
0.0677571
0.00893631
-0.0782523
-0.14601
-0.140428
-0.110273
-0.0893872
-0.069544
-0.0768067
-0.105171
-0.118173
-0.115858
-0.0663416
-0.0309942
-0.0361635
-0.0383399
-0.0454337
-0.131464
-0.13707
-0.0801838
-0.0343597
-0.0275582
-0.029104
-0.0189718
-0.0213919
-0.0235671
-0.00601981
0.0149916
0.0243281
0.0014978
-0.00964773
-0.183515
-0.1614
-0.110436
-0.0606377
-0.0179306
0.0263992
0.0745372
0.0842773
0.0349966
-0.0385139
-0.0871561
-0.0867603
-0.0740911
-0.0626862
-0.0469885
-0.0578297
-0.0998833
-0.14084
-0.107632
-0.0521674
-0.0183008
-0.0252343
-0.0249188
-0.0270844
-0.110175
-0.127405
-0.0711643
-0.029776
-0.0287846
-0.0288045
-0.0204857
-0.0233623
-0.02464
-0.00746806
0.013717
0.0235186
0.000533723
-0.0100484
-0.141458
-0.129887
-0.0940513
-0.0524175
-0.0139916
0.0260648
0.0714809
0.0815863
0.0466351
-0.00365647
-0.0393023
-0.047465
-0.0472639
-0.0417755
-0.0268395
-0.0313539
-0.0680241
-0.0940741
-0.0821607
-0.0322783
-0.00665263
-0.0171631
-0.0127479
-0.00709847
-0.0793944
-0.0979203
-0.0518882
-0.0268402
-0.0318553
-0.0286351
-0.0209918
-0.0247489
-0.0254898
-0.00912147
0.012115
0.0222783
-0.000403059
-0.0102009
-0.106916
-0.0998389
-0.0731203
-0.0397176
-0.00790664
0.0225379
0.0525887
0.0663401
0.0465005
0.0133099
-0.00859037
-0.0169742
-0.0205923
-0.0171524
-0.00322804
-0.00486778
-0.0281904
-0.045748
-0.0501456
-0.0200988
-0.0017544
-0.00504476
0.00190275
0.0129314
-0.0447589
-0.0575458
-0.0269517
-0.0244099
-0.0330231
-0.0275217
-0.0208121
-0.0259098
-0.0262586
-0.010755
0.0102611
0.0205579
-0.00109042
-0.00996536
-0.0796353
-0.0757324
-0.0577521
-0.0334878
-0.00942674
0.0129565
0.0341213
0.0464959
0.0376513
0.0192101
0.00323592
-0.00151032
-0.00532088
-0.00477081
0.0103349
0.0181161
0.016428
0.00806894
-0.0186343
-0.0134894
0.000508376
-0.00230593
0.0100773
0.0271562
-0.0100341
-0.014806
0.00134131
-0.0175893
-0.0298542
-0.0251322
-0.0195511
-0.0263894
-0.0269694
-0.0124291
0.00823058
0.0184027
-0.00138488
-0.00924686
-0.0589558
-0.0569625
-0.0450546
-0.027774
-0.00981647
0.00652393
0.0210672
0.0305191
0.0286074
0.0195773
0.0107608
0.00863197
0.00772914
0.00982226
0.0226765
0.0291902
0.0352966
0.0337044
0.00290723
-0.00597608
0.00469841
0.00686049
0.0170468
0.0304057
0.00709566
0.00680533
0.022529
-0.0064337
-0.0197448
-0.0204437
-0.01825
-0.0258629
-0.0266389
-0.0134757
0.00623404
0.0158381
-0.00120126
-0.00792479
-0.0423255
-0.0415874
-0.0341487
-0.0224784
-0.00975408
0.00182491
0.0120438
0.019494
0.0209677
0.0183179
0.014037
0.0135944
0.0138338
0.0145879
0.0254274
0.0329658
0.0383188
0.0386644
0.0171417
0.00562285
0.0104773
0.0110392
0.0199528
0.0301564
0.0122308
0.0135088
0.0305859
0.00459416
-0.00513353
-0.011523
-0.0141744
-0.022727
-0.0250546
-0.0135209
0.00469196
0.0130481
-0.000461334
-0.00595813
-0.0290933
-0.0294132
-0.0250085
-0.0172684
-0.00840927
-0.000122631
0.00727801
0.012983
0.0157135
0.0160947
0.0146544
0.0156888
0.0176241
0.0196026
0.0273945
0.0331535
0.0351272
0.0356334
0.0243134
0.0147356
0.0151493
0.0167572
0.0230509
0.0276518
0.0139161
0.0156685
0.0280083
0.0133717
0.00720236
0.00126959
-0.00227899
-0.0144044
-0.0223464
-0.0117436
0.00412188
0.0105737
0.0010114
-0.00352972
-0.0191014
-0.0197942
-0.0171265
-0.0120912
-0.00609884
-0.00027637
0.00506458
0.00955144
0.012489
0.0143214
0.015039
0.0165917
0.0186638
0.0202782
0.0252656
0.030176
0.0315028
0.0312565
0.0260356
0.0203568
0.0184013
0.0169616
0.0236823
0.0283643
0.0180121
0.0179231
0.0246914
0.0185096
0.0150871
0.0136527
0.0124917
-0.00112694
-0.015592
-0.00669883
0.00503547
0.00859465
0.00298661
-0.000804338
-0.010981
-0.0118607
-0.0104299
-0.00722877
-0.00319505
0.000914669
0.00478571
0.00822255
0.0109255
0.0130887
0.0145434
0.0162626
0.0183633
0.0204595
0.024027
0.0278601
0.0284279
0.0278567
0.0252709
0.0224193
0.0207046
0.0191472
0.0237478
0.0264286
0.0203269
0.0187939
0.0225397
0.0206622
0.019337
0.020967
0.0206721
0.0111559
-0.00432917
0.00101638
0.00724154
0.00769965
0.00507126
0.00146461
-0.00447075
-0.00544978
-0.00476737
-0.00272594
2.32496e-06
0.00285787
0.00564844
0.00822765
0.0105179
0.0125291
0.0141879
0.0159061
0.017823
0.0196077
0.0216866
0.0231633
0.0249499
0.0251273
0.0238425
0.0225833
0.0215164
0.0199892
0.0225402
0.0245378
0.0213355
0.0195061
0.0213246
0.0210298
0.0207999
0.0229782
0.0227999
0.0178666
0.00518125
0.00705148
0.00961141
0.00888029
0.00703694
0.00255561
0.000660549
-0.000236986
4.25487e-05
0.00130451
0.00310112
0.00505776
0.00703577
0.00897564
0.0108069
0.0124744
0.0139905
0.0155062
0.0171024
0.0186819
0.0203436
0.0219128
0.0229239
0.0232223
0.0225806
0.0219622
0.0216778
0.0207122
0.0216881
0.0231441
0.0215791
0.0199402
0.0205568
0.0207373
0.0210589
0.0226761
0.0225791
0.0194363
0.0106324
0.0102603
0.0108208
0.00977195
0.00814247
0.00281894
0.00481662
0.00402386
0.00405476
0.00480894
0.00598571
0.00731699
0.00869478
0.0100785
0.0114559
0.0127915
0.0140321
0.015275
0.0165806
0.0178829
0.0191555
0.0202534
0.0210869
0.0215644
0.0214324
0.0211702
0.0211226
0.0206625
0.0208403
0.0216597
0.0211346
0.0200287
0.0199034
0.0200195
0.0203715
0.0213457
0.0211917
0.0187056
0.0126463
0.0112982
0.010767
0.00948736
0.00792527
0.00276417
0.00814048
0.00746749
0.00738305
0.00782363
0.00857597
0.00944833
0.0103676
0.0113306
0.0123325
0.0133331
0.014291
0.0152508
0.0162578
0.0172727
0.0182451
0.0190865
0.0197811
0.0202637
0.0204013
0.0203774
0.0204336
0.0203435
0.0202918
0.0205634
0.0204277
0.019788
0.0193645
0.0192511
0.019526
0.0199384
0.0195227
0.0173839
0.0132087
0.0113963
0.0103071
0.00872206
0.00687491
0.00252263
0.010813
0.0102692
0.0101291
0.0103574
0.0108112
0.0113617
0.0119562
0.0125987
0.0132901
0.0139974
0.0146925
0.0153899
0.0161352
0.0168884
0.0176236
0.0182583
0.0188151
0.0192628
0.0194991
0.019614
0.0196807
0.0197038
0.019619
0.0196553
0.0195957
0.0192328
0.0187888
0.0184487
0.0184372
0.0184761
0.0178834
0.0159845
0.0129551
0.0109723
0.00964727
0.00785027
0.00575069
0.00217401
0.0129645
0.0125251
0.0123603
0.0124537
0.0127076
0.0130321
0.013391
0.0137912
0.0142413
0.0147112
0.0151856
0.015663
0.0161856
0.0167219
0.0172509
0.0177191
0.0181415
0.0185128
0.0187467
0.0189046
0.0189807
0.0190372
0.0189902
0.0189203
0.0188091
0.0185447
0.018153
0.0176815
0.0174565
0.0172097
0.0164352
0.0147502
0.0124758
0.0105573
0.00907036
0.00711905
0.00484567
0.00185203
0.0146699
0.0143241
0.0141594
0.0141672
0.014282
0.0144449
0.0146349
0.0148596
0.0151288
0.0154155
0.0157114
0.0160103
0.0163502
0.0167068
0.0170635
0.0173856
0.0176824
0.017959
0.0181469
0.0182865
0.0183512
0.0183929
0.0183351
0.0182321
0.0180757
0.0178173
0.0174603
0.0169397
0.0165026
0.0160487
0.0151883
0.0137126
0.0119191
0.01014
0.00852509
0.00653992
0.00420357
0.00156994
0.0160161
0.015745
0.0155869
0.0155386
0.0155591
0.0156102
0.0156827
0.015781
0.0159166
0.0160646
0.0162233
0.0163849
0.0165796
0.0167918
0.0170054
0.0172037
0.0173853
0.0175637
0.0176823
0.0177719
0.0177983
0.0178033
0.0177237
0.0175941
0.0174072
0.0171171
0.0167599
0.0162321
0.0156805
0.0150843
0.0141906
0.0128338
0.011348
0.00973376
0.00806179
0.00608472
0.00380982
0.00140225
0.0170617
0.0168457
0.0166977
0.0166147
0.0165734
0.0165481
0.016539
0.0165472
0.0165864
0.0166332
0.0166902
0.016748
0.0168297
0.0169288
0.0170267
0.0171247
0.0172035
0.0172905
0.0173338
0.0173606
0.0173405
0.0172932
0.017185
0.0170207
0.0168107
0.0164956
0.0161184
0.0155922
0.0149736
0.0142821
0.0134116
0.0122116
0.0109377
0.00942374
0.00770371
0.00578599
0.00355765
0.00126616
0.0178519
0.0176737
0.0175354
0.0174305
0.0173505
0.0172745
0.0172111
0.0171574
0.0171275
0.0171036
0.0170853
0.0170704
0.0170654
0.0170809
0.0170877
0.0171066
0.017101
0.0171114
0.0170836
0.0170466
0.0169785
0.01687
0.0167368
0.0165204
0.0162882
0.0159455
0.0155481
0.0150525
0.0144309
0.0137999
0.0128818
0.0117635
0.0105625
0.00909221
0.00738854
0.0055506
0.00337305
0.0011675
0.0184255
0.0182729
0.0181394
0.0180217
0.0179159
0.0178112
0.0177123
0.01762
0.0175402
0.0174676
0.0173968
0.0173306
0.0172671
0.0172156
0.0171591
0.0171094
0.0170466
0.0169888
0.0169064
0.016812
0.0166955
0.0165416
0.0163679
0.0161214
0.0158468
0.0154901
0.015057
0.0145469
0.0139139
0.0132008
0.012334
0.0112531
0.0100745
0.00864181
0.00701416
0.00524485
0.00319855
0.00109367
0.0188031
0.0186661
0.0185352
0.0184105
0.0182897
0.0181689
0.0180497
0.0179334
0.0178232
0.017718
0.0176149
0.0175153
0.017415
0.0173204
0.017221
0.0171261
0.0170221
0.0169168
0.0167955
0.0166569
0.0165017
0.0163128
0.0161004
0.0158321
0.0155239
0.0151471
0.0146986
0.014173
0.0135371
0.0127948
0.011933
0.0108852
0.00970906
0.00833298
0.00676101
0.00503716
0.00310168
0.00106017
0.018997
0.0188672
0.0187373
0.0186088
0.0184811
0.0183534
0.0182251
0.018098
0.0179722
0.0178506
0.0177304
0.0176142
0.0174955
0.0173789
0.0172569
0.0171367
0.0170101
0.0168793
0.016736
0.0165739
0.0163966
0.0161874
0.0159549
0.015672
0.0153454
0.0149563
0.0144967
0.0139575
0.0133175
0.0125657
0.0116997
0.0106707
0.00950009
0.00814584
0.00660487
0.00491851
0.00304621
0.0010397
-0.149855
-0.161694
-0.174336
-0.184768
-0.198022
-0.204844
-0.217175
-0.224116
-0.122338
-0.129289
-0.136815
-0.14317
-0.149359
-0.153009
-0.1584
-0.167897
-0.0969857
-0.100959
-0.104441
-0.108304
-0.112357
-0.117641
-0.122378
-0.130363
-0.0766922
-0.0786352
-0.0804317
-0.0838444
-0.0870829
-0.0908937
-0.0934737
-0.098615
-0.0590561
-0.0601424
-0.0611412
-0.0633202
-0.0649045
-0.0668355
-0.068591
-0.072901
-0.0446462
-0.0449471
-0.0451714
-0.0462123
-0.047081
-0.0485586
-0.0502354
-0.0538058
-0.0324939
-0.0323398
-0.0322168
-0.0327934
-0.0334718
-0.0346024
-0.0358542
-0.0384785
-0.0225543
-0.0222036
-0.0219285
-0.0221937
-0.0226173
-0.0233075
-0.0241298
-0.0259958
-0.0143525
-0.013919
-0.0135385
-0.0135226
-0.0136785
-0.014065
-0.0147723
-0.0164477
-0.00753436
-0.00709433
-0.00668896
-0.00655479
-0.00664702
-0.00699926
-0.0076649
-0.0089724
-0.00194374
-0.00158307
-0.00124569
-0.00110456
-0.00115452
-0.00139117
-0.00185439
-0.00284797
0.00264022
0.00291079
0.00318536
0.00333948
0.00334671
0.00319029
0.00280896
0.00198014
0.00640896
0.00659262
0.00679314
0.00691589
0.00692133
0.00679378
0.00648857
0.00584483
0.0094866
0.00958841
0.00971275
0.0097937
0.00979513
0.00969842
0.00945772
0.00895127
0.0119981
0.0120303
0.0120874
0.0121237
0.0121061
0.0120158
0.0118183
0.0114302
0.0140147
0.0139918
0.0139935
0.0139903
0.0139567
0.0138779
0.0137238
0.0134328
0.0156256
0.0155668
0.0155314
0.0155005
0.0154533
0.0153761
0.0152457
0.015023
0.016902
0.0168191
0.0167568
0.0167028
0.0166408
0.0165613
0.0164487
0.0162796
0.0178941
0.0177961
0.0177167
0.0176477
0.0175764
0.0174956
0.0173954
0.0172624
0.0186482
0.0185411
0.0184512
0.0183726
0.0182952
0.018213
0.0181203
0.0180101
0.0191907
0.0190801
0.0189849
0.0189011
0.0188206
0.0187387
0.0186515
0.0185562
0.0195471
0.0194369
0.0193397
0.0192531
0.0191709
0.0190895
0.0190055
0.0189184
0.0197269
0.019619
0.0195213
0.0194333
0.0193506
0.0192699
0.019188
0.0191048
0.023144
0.0253929
0.0266122
0.0260758
0.0232871
0.0182492
0.0108429
0.000442579
-0.0140861
-0.0343589
-0.062601
-0.101928
-0.157398
-0.232551
-0.302713
-0.00364601
-0.00421253
-0.007606
-0.0130756
-0.0204418
-0.0300307
-0.0424701
-0.0586935
-0.0799774
-0.108039
-0.14523
-0.194652
-0.26147
-0.350081
-0.426158
-0.0289286
-0.0330474
-0.0411126
-0.051161
-0.0627916
-0.0767022
-0.0938934
-0.115477
-0.142815
-0.177723
-0.222753
-0.281088
-0.356717
-0.457306
-0.531358
-0.0550403
-0.0626973
-0.0743739
-0.0878538
-0.103014
-0.12081
-0.14232
-0.168656
-0.201227
-0.241909
-0.293319
-0.359186
-0.441914
-0.546142
-0.616537
-0.0820484
-0.092887
-0.107091
-0.122952
-0.140865
-0.161931
-0.187112
-0.217395
-0.254165
-0.299404
-0.355462
-0.42646
-0.513628
-0.615593
-0.680158
-0.107925
-0.121794
-0.137999
-0.15581
-0.176088
-0.19987
-0.227961
-0.261223
-0.301022
-0.349367
-0.408695
-0.481994
-0.569528
-0.665652
-0.721773
-0.132147
-0.148527
-0.166309
-0.185894
-0.20832
-0.234312
-0.264567
-0.299985
-0.34181
-0.391789
-0.45216
-0.524914
-0.609346
-0.695969
-0.742618
-0.154512
-0.172319
-0.19173
-0.213316
-0.237712
-0.265482
-0.297273
-0.333945
-0.376626
-0.426766
-0.486165
-0.555915
-0.633778
-0.707241
-0.745393
0.196851
0.211313
0.22759
0.246067
0.266748
0.289495
0.314209
0.340846
0.369326
0.39938
0.430405
0.461203
0.489745
0.511994
0.530151
0.18931
0.20243
0.217567
0.235117
0.254859
0.276476
0.299816
0.32484
0.351455
0.37934
0.407799
0.435515
0.460289
0.478118
0.491924
0.177575
0.188617
0.202038
0.218114
0.236295
0.256017
0.277032
0.299267
0.322586
0.346581
0.37042
0.392618
0.410696
0.420759
0.427285
0.161648
0.170077
0.181322
0.195348
0.21124
0.228246
0.246044
0.264504
0.283382
0.302104
0.319623
0.334209
0.343006
0.342031
0.338886
0.141661
0.14726
0.156266
0.168045
0.181122
0.194584
0.208147
0.221708
0.23495
0.247112
0.256879
0.262215
0.259848
0.245529
0.229883
0.117892
0.120049
0.126623
0.136055
0.146132
0.155752
0.164636
0.172667
0.179424
0.183975
0.184768
0.179474
0.164384
0.134991
0.104761
0.0910763
0.0904368
0.0946889
0.101007
0.107104
0.112126
0.115876
0.118074
0.118011
0.114493
0.105715
0.0890519
0.0604086
0.0152505
-0.0300512
0.0595463
0.0580195
0.061522
0.064825
0.0664221
0.0661972
0.0642278
0.0600953
0.0528128
0.0409089
0.0223209
-0.00589258
-0.048291
-0.109087
-0.168411
0.0381027
0.0425946
0.0388584
0.0428483
0.0404005
0.0447125
0.0429862
0.0473929
0.0467767
0.0512965
0.0520672
0.0569126
0.0594747
0.0651012
0.0697786
0.0770666
0.0844259
0.0943825
0.105336
0.119279
0.135054
0.154487
0.176719
0.0380471
0.0425038
0.0388018
0.0427322
0.0403322
0.0445681
0.0428939
0.0471999
0.0466223
0.0510652
0.0518021
0.0565492
0.0590948
0.0645972
0.0691576
0.0763475
0.0833423
0.0931102
0.10347
0.116973
0.131741
0.150318
0.17097
0.0380001
0.0423872
0.0387632
0.042587
0.0402896
0.0443945
0.0428136
0.0469714
0.0465041
0.0507932
0.051589
0.0561486
0.0587135
0.0640129
0.0684855
0.0754973
0.0820829
0.0916031
0.101132
0.114002
0.127323
0.144469
0.162345
0.0379623
0.042247
0.0387412
0.042417
0.040268
0.044194
0.0427663
0.0467179
0.0464102
0.0505057
0.0513928
0.0558107
0.0583841
0.0635268
0.0678465
0.0747387
0.0807599
0.0899954
0.0983937
0.110389
0.121619
0.136675
0.150644
0.0379329
0.0420867
0.0387294
0.0422263
0.0402639
0.0439714
0.042748
0.0464431
0.0463347
0.0501812
0.0511985
0.0553317
0.0579981
0.062803
0.0670733
0.0735914
0.0790846
0.0877156
0.0949959
0.105765
0.114661
0.126884
0.135661
0.0379099
0.0419095
0.0387329
0.0420208
0.0402716
0.0437349
0.0427509
0.0461783
0.0462833
0.0498942
0.0510706
0.0551114
0.0577589
0.0624624
0.066499
0.0727936
0.0776103
0.0857484
0.0914264
0.100753
0.106316
0.115319
0.118016
0.0378922
0.0417177
0.0387383
0.0418074
0.0402868
0.0434872
0.0427479
0.0458871
0.0462153
0.0495344
0.0508586
0.0544979
0.0573061
0.0615574
0.0655381
0.071113
0.0755186
0.0825009
0.0870695
0.0943228
0.0971666
0.101223
0.0974281
0.0378736
0.0415182
0.0387469
0.041598
0.040306
0.0432619
0.042785
0.045685
0.0462103
0.0493567
0.0508637
0.0546203
0.0571802
0.0614575
0.0651323
0.0704951
0.074078
0.0804112
0.0826936
0.08788
0.0857645
0.0862059
0.0733429
0.0378502
0.0412533
0.0387638
0.041294
0.0403139
0.0428892
0.0427445
0.0452192
0.046032
0.0487492
0.0504363
0.0535652
0.0561679
0.0596707
0.0631812
0.0669971
0.0701331
0.0737411
0.0748901
0.07575
0.0708246
0.0622225
0.0421992
0.0378286
0.0408904
0.0387901
0.0408877
0.0402968
0.0423345
0.04262
0.0445339
0.0456457
0.0477235
0.0495345
0.0520334
0.0544616
0.0570351
0.0599459
0.0622095
0.0642461
0.0652169
0.0647436
0.0612327
0.0548322
0.0431408
0.0273163
0.0378245
0.0404493
0.0388322
0.0404011
0.0402897
0.0416881
0.0424749
0.0437675
0.0451563
0.0466737
0.0485416
0.0503699
0.0524928
0.0542264
0.0563135
0.0572754
0.0579829
0.056988
0.0547584
0.0492594
0.0417237
0.0300807
0.0152024
0.0378389
0.0399197
0.038891
0.0398426
0.0402576
0.041069
0.0421875
0.0430398
0.0445239
0.0455575
0.0473537
0.0485648
0.0502207
0.0512607
0.0523035
0.052239
0.0516143
0.0491773
0.0455775
0.0391889
0.0310891
0.0200566
0.00643286
0.0378743
0.0392945
0.0389384
0.0393139
0.0401055
0.0404987
0.0417703
0.0422913
0.0437121
0.0444025
0.0459188
0.0466339
0.0476633
0.0481474
0.0481251
0.0471637
0.0454715
0.042029
0.0375806
0.030977
0.0229985
0.0128878
0.000681077
0.0379268
0.0386254
0.038875
0.038838
0.0398597
0.0399363
0.0412131
0.0415194
0.0427238
0.0431511
0.0442819
0.0445679
0.0449386
0.0448903
0.0439689
0.042214
0.0397862
0.0358282
0.0310084
0.0246113
0.0171638
0.00814236
-0.00249778
0.0379573
0.0379808
0.0386782
0.0384004
0.0395011
0.0393767
0.0405162
0.0407146
0.0415737
0.0417968
0.0424902
0.0423659
0.0421411
0.0415667
0.0399884
0.0376581
0.0347869
0.0307006
0.0258594
0.0199228
0.0132607
0.00546634
-0.00353475
0.037936
0.0373713
0.0383756
0.037982
0.0390168
0.0388064
0.0396908
0.0398327
0.0403104
0.0403321
0.0405914
0.0400762
0.0393637
0.03832
0.0363134
0.0336636
0.0305789
0.0266257
0.0220518
0.0167403
0.0109944
0.00447498
-0.00294619
0.0378316
0.0368205
0.037954
0.0375669
0.0384137
0.038203
0.0387694
0.0388555
0.0389745
0.0387699
0.0386354
0.0377793
0.0366921
0.0352847
0.0330578
0.0303102
0.027211
0.0235559
0.0194501
0.0148609
0.0100379
0.0047153
-0.00128692
0.0376274
0.0363405
0.0374136
0.037137
0.0377134
0.0375378
0.0377914
0.0377745
0.037591
0.0371488
0.0366771
0.0355562
0.0342091
0.0325737
0.0302871
0.0276117
0.0246679
0.0214015
0.0178535
0.0140078
0.0100458
0.00577473
0.000990824
0.0373114
0.0359281
0.0367739
0.0366643
0.0369571
0.0367915
0.0367809
0.0366088
0.0361826
0.0355198
0.0347772
0.0334811
0.0319913
0.0302561
0.0280274
0.0255391
0.0228707
0.0200352
0.0170503
0.0139051
0.0107099
0.00732403
0.00354735
0.0368796
0.0355696
0.0360706
0.0360897
0.0361736
0.0359687
0.0357516
0.0353961
0.0347752
0.0339396
0.0329992
0.0316193
0.0300848
0.0283563
0.0262686
0.0240321
0.0217011
0.019303
0.0168418
0.0143113
0.0117698
0.00910807
0.00614468
0.0363396
0.0352348
0.0353619
0.0353921
0.0353608
0.0350947
0.0347176
0.0341839
0.0334076
0.0324553
0.0313967
0.0300068
0.0285035
0.0268594
0.0249661
0.0230108
0.0210322
0.019048
0.0170478
0.0150285
0.0130214
0.0109394
0.00862539
0.0357119
0.0348678
0.0346968
0.0345994
0.0344981
0.0341767
0.0336895
0.0330166
0.0321228
0.0311061
0.0300045
0.0286642
0.0272426
0.0257267
0.0240538
0.0223852
0.0207453
0.0191328
0.0175224
0.0159121
0.0143248
0.012696
0.0108962
0.0350249
0.0344121
0.0340728
0.0338304
0.0336129
0.0332213
0.0326696
0.0319171
0.0309576
0.0299178
0.0288313
0.0275853
0.0262765
0.0249046
0.0234497
0.0220521
0.0207228
0.0194367
0.0181514
0.0168636
0.0155987
0.0143193
0.0129241
0.0343117
0.0338693
0.033473
0.0330974
0.0327395
0.0322723
0.0316755
0.0308923
0.0299238
0.0289015
0.0278736
0.0267532
0.0255749
0.0243441
0.0230823
0.0219201
0.0208598
0.0198525
0.0188377
0.0178051
0.0167848
0.0157676
0.0146837
0.0336002
0.0332606
0.0328547
0.0323941
0.0319176
0.031378
0.0307444
0.0299622
0.0290248
0.0280521
0.0271097
0.0261263
0.0250877
0.0239953
0.0229006
0.0219292
0.0210825
0.0202986
0.0195046
0.0186796
0.0178524
0.0170346
0.0161885
0.0329122
0.0326286
0.0322199
0.0317173
0.0311702
0.0305707
0.0299061
0.0291437
0.0282622
0.0273576
0.0265093
0.0256574
0.0247566
0.0238026
0.0228566
0.0220341
0.0213423
0.0207223
0.0201007
0.0194476
0.0187808
0.01812
0.0174531
0.0322614
0.0320028
0.0315966
0.0310829
0.030504
0.0298671
0.0291859
0.0284533
0.0276352
0.026803
0.0260443
0.0253118
0.024539
0.0237152
0.0229003
0.0221938
0.0216093
0.0210999
0.0206037
0.0200872
0.0195554
0.019023
0.018493
0.0316707
0.0314259
0.0310188
0.030505
0.0299263
0.0292795
0.0285913
0.0278901
0.0271375
0.0263738
0.0256891
0.025058
0.0244009
0.0236949
0.022994
0.0223791
0.0218693
0.0214333
0.0210254
0.0206128
0.020189
0.0197588
0.0193311
0.0311662
0.0309326
0.0305282
0.0300143
0.029445
0.0288116
0.0281317
0.0274517
0.0267528
0.0260521
0.0254231
0.0248611
0.0242964
0.023695
0.0230935
0.0225531
0.0220977
0.0217137
0.0213694
0.0210335
0.0206894
0.0203364
0.0199876
0.0307825
0.030556
0.0301596
0.0296448
0.0290805
0.0284734
0.0278164
0.0271475
0.0264881
0.0258487
0.0252627
0.0247384
0.0242369
0.0237202
0.0231961
0.022704
0.022274
0.0219106
0.0215959
0.0213026
0.0210094
0.0207109
0.0204179
0.0305721
0.0303506
0.0299555
0.0294367
0.0288712
0.0282746
0.0276303
0.0269711
0.0263366
0.0257326
0.0251712
0.0246645
0.0241937
0.0237245
0.0232488
0.0227923
0.022386
0.0220411
0.0217456
0.0214771
0.021216
0.0209555
0.0207035
0.0192671
-0.00581619
-0.0302961
-0.0525238
-0.0750831
-0.0969363
-0.117494
-0.134982
0.00991571
-0.0126299
-0.0379656
-0.0574499
-0.0732677
-0.0881755
-0.101955
-0.11323
0.000608268
-0.0174049
-0.0380321
-0.052931
-0.0631669
-0.0731398
-0.0826567
-0.090901
-0.00667375
-0.0210939
-0.0360535
-0.0473048
-0.054806
-0.0618322
-0.0680571
-0.073356
-0.0111217
-0.0224767
-0.0324386
-0.0399892
-0.0452291
-0.0499294
-0.0537687
-0.0570892
-0.0128127
-0.0215055
-0.0277314
-0.0324007
-0.036031
-0.0393062
-0.0418044
-0.0437546
-0.0122643
-0.0187838
-0.0224171
-0.025029
-0.0274028
-0.0296285
-0.0312132
-0.0322579
-0.0101538
-0.0149973
-0.0169258
-0.0181484
-0.019573
-0.0210615
-0.0220879
-0.0226264
-0.00711837
-0.0106975
-0.0115663
-0.0119062
-0.0126494
-0.013614
-0.0142946
-0.014558
-0.00365045
-0.00628665
-0.00653789
-0.00635605
-0.00663029
-0.00721493
-0.00766259
-0.0077803
-0.000102002
-0.00204013
-0.00195904
-0.00150325
-0.00147542
-0.00179275
-0.00208805
-0.00215077
0.00330103
0.0018777
0.00211437
0.00268009
0.00288153
0.00274253
0.00254712
0.00249623
0.00642839
0.00538469
0.00567087
0.0062477
0.00653448
0.00650779
0.00637913
0.00632655
0.00921604
0.008457
0.00873833
0.00927038
0.00958195
0.0096175
0.00952716
0.00946239
0.0116513
0.0111044
0.0113538
0.0118082
0.0121004
0.0121641
0.0120984
0.0120226
0.0137336
0.013349
0.0135573
0.0139206
0.0141635
0.0142246
0.0141661
0.0140779
0.0154837
0.0152166
0.0153816
0.0156557
0.0158374
0.0158764
0.0158129
0.015714
0.0169278
0.0167402
0.0168628
0.0170583
0.0171805
0.0171907
0.0171161
0.0170074
0.0180944
0.0179543
0.0180342
0.0181625
0.0182328
0.0182151
0.0181281
0.0180108
0.019018
0.018901
0.0189376
0.0190076
0.0190337
0.0189921
0.0188947
0.0187715
0.0197336
0.019621
0.0196091
0.0196216
0.0196059
0.0195429
0.0194389
0.0193148
0.0202054
0.0200971
0.0200521
0.0200225
0.0199747
0.0198959
0.019789
0.0196679
0.0205114
0.0203884
0.020301
0.0202288
0.0201529
0.0200629
0.0199571
0.0198422
-0.35503
-0.362892
-0.37206
-0.383857
-0.400011
-0.42127
-0.445352
-0.466617
-0.356421
-0.362089
-0.368575
-0.377532
-0.390114
-0.406161
-0.424582
-0.44145
-0.356148
-0.360221
-0.364246
-0.370209
-0.379344
-0.390747
-0.401149
-0.406492
-0.35411
-0.356462
-0.357872
-0.360143
-0.363809
-0.367515
-0.368245
-0.362869
-0.348176
-0.348725
-0.347068
-0.344694
-0.342
-0.338193
-0.33138
-0.319207
-0.336786
-0.335198
-0.330341
-0.323688
-0.316043
-0.307234
-0.295824
-0.279781
-0.319049
-0.315537
-0.308305
-0.298947
-0.288607
-0.277193
-0.263336
-0.245268
-0.295807
-0.291296
-0.28305
-0.272728
-0.26151
-0.249059
-0.234114
-0.215179
-0.269241
-0.264896
-0.256819
-0.246817
-0.235747
-0.223128
-0.207913
-0.188845
-0.242001
-0.238529
-0.231344
-0.222277
-0.211747
-0.199439
-0.184417
-0.165708
-0.216256
-0.213651
-0.207623
-0.19952
-0.189655
-0.177882
-0.163342
-0.145322
-0.193038
-0.191073
-0.186031
-0.178671
-0.169429
-0.158282
-0.144443
-0.127346
-0.173154
-0.171032
-0.166542
-0.159539
-0.150919
-0.140435
-0.127516
-0.111499
-0.155614
-0.153095
-0.148771
-0.142052
-0.134139
-0.124208
-0.112326
-0.097463
-0.14036
-0.137298
-0.132534
-0.12634
-0.118593
-0.10915
-0.0982212
-0.0848507
-0.465486
-0.432506
-0.403219
-0.379635
-0.362281
-0.351276
-0.346825
-0.348887
-0.466627
-0.433893
-0.404772