/*--------------------------------*- C++ -*----------------------------------*\
| =========                 |                                                 |
| \\      /  F ield         | OpenFOAM: The Open Source CFD Toolbox           |
|  \\    /   O peration     | Version:  2312                                  |
|   \\  /    A nd           | Website:  www.openfoam.com                      |
|    \\/     M anipulation  |                                                 |
\*---------------------------------------------------------------------------*/
FoamFile
{
    version     2.0;
    format      ascii;
    arch        "LSB;label=32;scalar=64";
    class       volVectorField;
    location    "44";
    object      U;
}
// * * * * * * * * * * * * * * * * * * * * * * * * * * * * * * * * * * * * * //

dimensions      [0 1 -1 0 0 0 0];

internalField   nonuniform List<vector> 
940
(
(-0.140301 0.0467041 1.29598e-19)
(0.168108 0.0533684 0)
(0.618709 0.119653 7.65439e-20)
(0.936209 0.119569 -5.56449e-20)
(1.1634 0.16149 -7.32416e-20)
(1.31611 0.121994 5.39736e-20)
(-0.0780615 0.0418278 -1.73054e-19)
(0.782472 0.13794 5.96805e-21)
(1.12697 0.234223 -4.74393e-20)
(1.26449 0.252611 5.07269e-20)
(1.28509 0.228482 0)
(1.21732 0.20435 -3.69449e-20)
(0.443125 0.24496 -2.03599e-20)
(1.14028 0.291517 -1.03817e-20)
(1.19692 0.355709 5.02928e-20)
(1.13216 0.251914 -2.88634e-20)
(1.09207 0.232536 1.31823e-20)
(1.10729 0.197317 0)
(-0.0913735 0.138889 1.6831e-20)
(-0.176262 0.10592 -1.2037e-20)
(-0.249783 0.0647904 1.32378e-21)
(-0.257445 -0.00403639 4.49534e-20)
(-0.293058 -0.0375072 -2.22684e-20)
(-0.198955 -0.142306 0)
(-0.0913792 0.198963 3.90725e-20)
(-0.0538369 0.210589 2.60939e-21)
(-0.107672 0.180774 2.58584e-20)
(0.080069 0.123231 2.43366e-21)
(0.0528626 0.0141804 -4.95498e-20)
(0.399621 -0.0323456 6.04716e-20)
(-0.123802 0.137437 -4.00426e-20)
(-0.0631908 0.187246 0)
(0.0869415 0.126386 -8.54379e-20)
(0.497137 0.126943 6.21091e-20)
(0.573529 0.0524785 9.21572e-20)
(1.02689 0.0755332 -6.78576e-20)
(-0.23113 -0.137083 0)
(-0.205482 -0.111175 1.62744e-20)
(-0.246447 -0.136174 -9.80115e-22)
(-0.221555 -0.0576382 -2.37418e-20)
(-0.223323 0.0491773 1.5063e-20)
(-0.132763 0.259725 -4.27771e-21)
(-0.00439288 0.0516651 0)
(0.0339332 -0.360712 -2.31781e-21)
(0.0935517 -0.26122 2.06738e-21)
(0.405273 0.129519 1.57795e-22)
(0.440452 0.290188 2.58232e-23)
(0.586934 0.180415 0)
(0.826753 -0.0393291 0)
(0.900212 -0.120037 0)
(0.949619 -0.137497 0)
(0.996118 -0.0896289 6.85916e-24)
(0.253859 -0.0681805 -4.57552e-20)
(0.253107 -0.0948382 3.24857e-20)
(0.166069 -0.114048 -2.88144e-20)
(0.117004 -0.0915284 1.66121e-20)
(0.121973 0.00753764 -1.45774e-20)
(0.0781255 0.177433 0)
(0.337836 0.0519359 0)
(0.447202 -0.258151 4.13231e-22)
(0.170543 -0.276514 0)
(0.174431 0.0447599 -1.1969e-22)
(0.371761 0.204018 -6.63461e-23)
(0.723353 0.102159 -6.23044e-24)
(0.924651 -0.0586054 0)
(0.934963 -0.113036 4.67076e-23)
(0.90016 -0.136182 0)
(0.948099 -0.0919982 -6.84495e-24)
(0.947102 0.0321438 -3.93384e-22)
(0.927722 -0.0120314 0)
(0.825187 -0.0176589 5.55637e-20)
(0.791327 -0.0686841 -4.88935e-20)
(0.705564 -0.0178085 -2.846e-20)
(0.501557 0.140587 2.49465e-20)
(0.777531 -0.0488867 0)
(1.01276 -0.27237 -4.58604e-22)
(0.755818 -0.218119 3.45339e-23)
(0.451766 -0.011431 -3.03929e-23)
(0.64429 0.0884542 0)
(0.916112 0.0232685 6.62773e-24)
(1.01472 -0.086105 -2.63917e-22)
(1.00334 -0.113681 1.82891e-22)
(0.961066 -0.137981 0)
(0.954749 -0.0990958 0)
(1.25179 0.0846398 0)
(1.26774 0.0412817 0)
(1.19413 0.0509673 0)
(1.1769 0.0234442 0)
(1.12293 0.0532163 0)
(1.04194 0.13054 0)
(1.18908 -0.0604461 0)
(1.11826 -0.203361 0)
(0.972458 -0.116814 0)
(0.840806 0.0287413 0)
(0.95327 0.0482091 0)
(1.06552 0.00301651 0)
(1.06045 -0.0752719 0)
(1.01465 -0.100852 0)
(0.989972 -0.127912 0)
(0.985702 -0.0943906 0)
(1.20634 0.0968217 0)
(1.22531 0.0445589 0)
(1.18636 0.0479455 0)
(1.19145 0.0140962 0)
(1.17094 0.0325001 0)
(1.18503 0.0966954 0)
(1.27132 -0.0451775 0)
(1.16259 -0.161262 0)
(1.00239 -0.109976 0)
(0.981731 0.00758462 0)
(1.05432 0.0248875 0)
(1.09191 -0.00597314 0)
(1.06198 -0.0716353 0)
(1.00943 -0.0977766 0)
(0.967114 -0.131431 0)
(0.973821 -0.0984907 0)
(1.16754 0.0884805 0)
(1.18786 0.0550564 0)
(1.17498 0.054208 0)
(1.18063 0.0398727 0)
(1.16261 0.0354559 0)
(1.18003 0.0593473 0)
(1.22573 -0.0353923 0)
(1.16942 -0.0919329 0)
(1.05522 -0.0569831 0)
(1.03055 0.00965044 0)
(1.07262 0.0161828 0)
(1.08585 -0.00223634 0)
(1.06299 -0.0556595 0)
(1.03097 -0.0782782 0)
(0.99583 -0.115979 0)
(0.984277 -0.0939204 0)
(1.1355 0.0809785 0)
(1.15019 0.0617941 0)
(1.1494 0.0477589 0)
(1.15399 0.0416184 0)
(1.1489 0.0250802 0)
(1.15798 0.0383505 0)
(1.17712 -0.00505887 0)
(1.13903 -0.0490372 0)
(1.07359 -0.0403999 0)
(1.05851 0.0025928 0)
(1.08114 0.00573284 0)
(1.0876 -0.000555044 0)
(1.06698 -0.0494191 0)
(1.03273 -0.0772762 0)
(1.01054 -0.121028 0)
(1.00246 -0.0980345 0)
(1.11923 0.0617051 0)
(1.13117 0.050433 0)
(1.13499 0.0365137 0)
(1.1376 0.0304152 0)
(1.13861 0.0165912 0)
(1.1383 0.0171036 0)
(1.14774 -0.00611948 0)
(1.13758 -0.0236999 0)
(1.10271 -0.0213352 0)
(1.08853 0.00473723 0)
(1.09663 0.00356607 0)
(1.09576 0.00129616 0)
(1.08011 -0.0360163 0)
(1.05079 -0.0593862 0)
(1.02441 -0.105149 0)
(1.00879 -0.0920325 0)
(1.11418 0.0634375 0)
(1.12229 0.0581554 0)
(1.12578 0.0452939 0)
(1.12745 0.0407469 0)
(1.12613 0.0275718 0)
(1.12571 0.0243642 0)
(1.12471 0.0126573 0)
(1.12054 0.00133926 0)
(1.10533 -0.00501068 0)
(1.098 0.00832944 0)
(1.10457 0.00462988 0)
(1.10183 0.0109859 0)
(1.08904 -0.0219544 0)
(1.06502 -0.047613 0)
(1.04556 -0.100332 0)
(1.02874 -0.090879 0)
(1.11712 0.0365795 0)
(1.12429 0.0328443 0)
(1.12855 0.0245188 0)
(1.13169 0.0197478 0)
(1.13288 0.0107017 0)
(1.13319 0.00737194 0)
(1.13338 -0.0007103 0)
(1.13249 -0.00325097 0)
(1.12751 -0.008493 0)
(1.12132 0.00132245 0)
(1.12249 -0.000955077 0)
(1.11977 0.00743956 0)
(1.11564 -0.0167148 0)
(1.09008 -0.0386299 0)
(1.07209 -0.0904175 0)
(1.04327 -0.0883199 0)
(1.13207 0.0486293 0)
(1.13755 0.0468262 0)
(1.14079 0.0410872 0)
(1.14482 0.0380589 0)
(1.14555 0.0308847 0)
(1.14735 0.0279807 0)
(1.14685 0.0205988 0)
(1.14705 0.0180595 0)
(1.1465 0.0108778 0)
(1.14416 0.0148177 0)
(1.14738 0.00970608 0)
(1.1459 0.0205502 0)
(1.14418 0.00490872 0)
(1.12195 -0.0103006 0)
(1.10812 -0.0638977 0)
(1.07742 -0.0697686 0)
(1.14904 0.00282929 0)
(1.1536 0.00212748 0)
(1.15665 -0.000446144 0)
(1.16102 -0.0015651 0)
(1.16328 -0.00491688 0)
(1.16591 -0.00612051 0)
(1.16806 -0.00869152 0)
(1.16871 -0.00852911 0)
(1.17146 -0.0105325 0)
(1.16984 -0.00494334 0)
(1.173 -0.00788413 0)
(1.17012 0.0052887 0)
(1.17982 0.000791919 0)
(1.15967 -0.0118094 0)
(1.15144 -0.0632992 0)
(1.10108 -0.0735941 0)
(1.26057 0.0306634 0)
(1.26365 0.0294546 0)
(1.26578 0.0277646 0)
(1.26916 0.025813 0)
(1.27132 0.0246654 0)
(1.27377 0.0225848 0)
(1.27508 0.0199523 0)
(1.27556 0.0193779 0)
(1.27791 0.0138447 0)
(1.27571 0.0184668 0)
(1.28355 0.0137779 0)
(1.27581 0.0153332 0)
(1.29621 0.0192106 0)
(1.28576 0.0284574 0)
(1.30824 0.000251839 0)
(1.21822 -0.0173545 0)
(1.14724 0.163057 -9.15577e-21)
(1.12623 0.165883 5.63499e-20)
(1.26238 0.130756 0)
(1.15734 0.152666 7.40218e-21)
(1.10952 0.140481 -4.96389e-21)
(1.18672 0.119265 -4.30308e-20)
(1.12505 0.117892 0)
(1.112 0.104785 -1.23105e-20)
(1.1429 0.0977039 8.62505e-21)
(1.1091 0.109366 1.76376e-22)
(1.1111 0.0947492 -1.858e-22)
(1.11875 0.090103 2.06589e-20)
(1.1052 0.0872048 6.0042e-22)
(1.10978 0.0746959 0)
(1.10922 0.0718047 0)
(1.10304 0.0804714 -5.84005e-22)
(1.10929 0.0707467 1.50286e-21)
(1.10688 0.0720115 0)
(1.10849 0.0496576 -8.25937e-23)
(1.11373 0.0414994 -1.24662e-21)
(1.11132 0.0429908 0)
(1.12828 0.058583 1.40857e-23)
(1.1315 0.0529025 7.05993e-23)
(1.12918 0.0534594 0)
(1.14384 0.00749211 6.87842e-23)
(1.1477 0.00360085 3.00349e-23)
(1.14635 0.00519842 -1.79226e-22)
(1.25609 0.0359458 0)
(1.25946 0.0341758 0)
(1.25897 0.0324333 1.10055e-22)
(0.993947 0.2794 -8.48278e-21)
(1.01671 0.315277 1.15317e-20)
(0.922418 0.337367 3.90123e-21)
(0.876895 0.435531 -3.86389e-21)
(0.962287 0.516006 0)
(0.786977 0.668374 -9.2219e-20)
(0.974819 0.231595 3.39756e-21)
(0.981018 0.293071 0)
(1.00591 0.325437 1.66728e-20)
(1.03583 0.465646 5.14004e-21)
(1.10389 0.459796 2.49101e-20)
(0.860036 0.541243 -3.37062e-20)
(1.1391 0.257906 0)
(1.16471 0.295039 9.07648e-21)
(1.1129 0.288356 -2.07836e-20)
(1.09408 0.366776 1.58509e-20)
(1.19604 0.3419 -6.05372e-21)
(0.874647 0.391855 -2.07323e-20)
(0.784735 0.111138 0)
(0.735982 0.122977 1.91642e-20)
(0.660073 0.138726 -4.19357e-20)
(0.529786 0.151923 4.2261e-20)
(0.372428 0.192135 1.93843e-20)
(0.151067 0.216906 -2.70941e-20)
(0.819796 0.171349 3.33086e-20)
(0.774178 0.193729 3.00937e-20)
(0.774765 0.259596 2.43941e-20)
(0.711537 0.310517 -4.84342e-20)
(0.566551 0.376283 3.0153e-21)
(0.334477 0.465045 -6.07966e-20)
(0.897193 0.22845 2.45415e-20)
(0.786496 0.2384 -3.33639e-20)
(0.727413 0.297871 -4.34816e-20)
(0.77668 0.431577 3.58418e-20)
(0.757002 0.526081 0)
(0.523065 0.639645 1.36767e-20)
(1.01662 0.168574 3.22814e-22)
(0.977332 0.118012 -1.78343e-22)
(0.974381 0.10223 -6.54321e-23)
(0.97674 0.08054 0)
(0.932279 0.0812362 -1.00394e-21)
(0.936803 0.0855992 1.38426e-21)
(0.902055 0.0837118 0)
(0.889029 0.0958812 1.81255e-22)
(0.855694 0.0952777 0)
(0.827779 0.107976 0)
(0.972812 0.159372 -3.21826e-22)
(1.05118 0.133806 0)
(0.972778 0.095461 -7.6296e-22)
(0.986939 0.0975228 1.2951e-21)
(0.939795 0.0800681 2.71372e-22)
(0.943786 0.1046 -1.6184e-22)
(0.916022 0.0840032 0)
(0.902693 0.119823 -1.91592e-22)
(0.871982 0.110921 -1.97108e-20)
(0.850479 0.153141 -3.26123e-21)
(0.975777 0.152444 6.4532e-22)
(1.00348 0.129485 -8.18924e-22)
(1.02067 0.104347 0)
(0.982794 0.108343 0)
(0.958132 0.0856306 -2.96204e-22)
(0.944184 0.120295 0)
(0.93522 0.100172 -1.9703e-20)
(0.904946 0.150886 5.21902e-20)
(0.908813 0.15233 -6.9585e-20)
(0.883898 0.211178 4.40432e-20)
(1.01856 0.154241 0)
(0.94768 0.126402 0)
(1.01565 0.0956452 0)
(0.985986 0.12206 0)
(0.974464 0.0837841 0)
(0.938533 0.129303 0)
(0.950008 0.0959032 0)
(0.92847 0.162525 0)
(0.930818 0.141756 0)
(0.950327 0.223973 0)
(1.02859 0.153307 0)
(0.987363 0.132491 0)
(0.972039 0.0876559 0)
(0.989052 0.128276 0)
(0.959815 0.0911173 0)
(0.947259 0.13553 0)
(0.946895 0.101546 0)
(0.944741 0.164572 0)
(0.948797 0.138544 0)
(0.970332 0.196223 0)
(0.990746 0.144508 0)
(1.03622 0.142813 0)
(0.972716 0.0894747 0)
(0.990159 0.135187 0)
(0.966278 0.0943428 0)
(0.969617 0.138403 0)
(0.966687 0.105556 0)
(0.967066 0.153544 0)
(0.988144 0.12521 0)
(0.989138 0.166188 0)
(0.975816 0.136383 0)
(1.01506 0.146982 0)
(0.999602 0.0915031 0)
(0.994667 0.14462 0)
(1.00219 0.0963348 0)
(0.995054 0.140631 0)
(1.00948 0.103236 0)
(1.00779 0.140622 0)
(1.03005 0.115281 0)
(1.02883 0.142291 0)
(0.991114 0.134397 0)
(0.983704 0.144931 0)
(1.01156 0.0865493 0)
(0.997861 0.136285 0)
(1.02699 0.0927542 0)
(1.0198 0.125505 0)
(1.04122 0.0946875 0)
(1.03961 0.118347 0)
(1.05754 0.0980457 0)
(1.05873 0.113 0)
(1.00084 0.13361 0)
(0.976548 0.144253 0)
(1.01726 0.0887795 0)
(1.00409 0.129708 0)
(1.03707 0.0949696 0)
(1.0349 0.119204 0)
(1.05538 0.0942324 0)
(1.05563 0.109579 0)
(1.07022 0.0949862 0)
(1.07142 0.103595 0)
(1.00482 0.126343 0)
(0.980689 0.126465 0)
(1.03033 0.0739173 0)
(1.01609 0.0987975 0)
(1.04875 0.0706412 0)
(1.04728 0.0851087 0)
(1.0688 0.0667742 0)
(1.0674 0.0752402 0)
(1.08229 0.063982 0)
(1.0821 0.0690448 0)
(1.00132 0.13223 0)
(0.997537 0.127659 0)
(1.04528 0.0881921 0)
(1.04316 0.100716 0)
(1.06944 0.080493 0)
(1.07213 0.0877778 0)
(1.09022 0.075078 0)
(1.09188 0.0787933 0)
(1.10359 0.0706809 0)
(1.10476 0.0729456 0)
(1.00098 0.0869419 0)
(1.01392 0.0725024 0)
(1.06242 0.0341504 0)
(1.06397 0.0425811 0)
(1.08842 0.0226878 0)
(1.09119 0.0288005 0)
(1.10814 0.0177479 0)
(1.10974 0.0216746 0)
(1.12042 0.0148229 0)
(1.121 0.0172922 0)
(0.985597 0.106688 0)
(1.12381 0.0824421 0)
(1.15732 0.0620893 0)
(1.17621 0.0566468 0)
(1.1964 0.0497159 0)
(1.20633 0.0466907 0)
(1.22036 0.0436912 0)
(1.22571 0.0417866 0)
(1.23469 0.0405606 0)
(1.23662 0.0396154 0)
(0.951885 0.208944 -1.24916e-20)
(1.02447 0.183922 -6.41642e-21)
(1.0757 0.200911 5.85819e-21)
(0.978389 0.180379 4.38839e-21)
(1.07035 0.180099 -4.69509e-22)
(1.06471 0.170506 -4.73607e-21)
(1.01938 0.144237 2.55141e-21)
(1.06583 0.147337 2.68485e-21)
(1.07964 0.122006 0)
(1.05432 0.121515 1.78581e-21)
(1.07571 0.128985 -8.70268e-23)
(1.09476 0.108715 8.26538e-23)
(1.07531 0.0968268 -1.785e-22)
(1.08765 0.102787 0)
(1.1009 0.0851587 -4.40548e-22)
(1.0843 0.0919713 0)
(1.09168 0.0930771 4.60399e-23)
(1.10282 0.0803809 3.13525e-22)
(1.09472 0.059627 0)
(1.10023 0.0595873 -1.08942e-22)
(1.10968 0.0500174 -2.4198e-23)
(1.11479 0.0665105 -9.65127e-22)
(1.12065 0.0655644 3.82114e-22)
(1.128 0.0591009 5.29349e-23)
(1.13001 0.0119713 1.0959e-21)
(1.13545 0.0116264 -2.19184e-22)
(1.14251 0.00694062 1.39941e-22)
(1.24331 0.0388008 -4.13949e-22)
(1.24828 0.0381997 0)
(1.25388 0.0371706 0)
(-0.132164 -0.0262144 -1.16479e-19)
(-0.0177129 -0.0587582 1.12628e-19)
(0.552809 -0.250055 1.75706e-20)
(0.264768 -0.0243687 0)
(0.844569 -0.127075 -5.80221e-21)
(1.14895 -0.247456 -1.25538e-20)
(0.678382 -0.0775343 -6.28344e-20)
(1.1285 -0.209048 3.79385e-20)
(1.1702 -0.296274 -2.63716e-20)
(0.952591 -0.0945475 6.62122e-20)
(1.25305 -0.215785 -2.62376e-20)
(1.12247 -0.206277 2.26329e-20)
(1.15566 -0.145504 5.66703e-20)
(1.25904 -0.202172 -2.64288e-20)
(1.01911 -0.180327 -1.01977e-20)
(1.29076 -0.135769 -4.17608e-20)
(1.11654 -0.164647 3.01322e-20)
(1.0084 -0.141991 0)
(-0.0754987 -0.0449391 -1.56989e-20)
(-0.0736042 -0.0942098 -6.72569e-20)
(-0.128114 -0.0908745 3.43259e-20)
(-0.149796 -0.0192578 -1.24162e-20)
(-0.0445454 -0.107792 -1.48229e-21)
(-0.0513684 -0.11893 0)
(-0.232271 -0.0187065 1.60963e-20)
(-0.132534 -0.0890657 -1.66573e-20)
(0.116807 -0.0558256 6.76317e-20)
(-0.217747 0.00399551 -3.82137e-20)
(0.098923 -0.0538284 2.81085e-20)
(0.520134 -0.0521464 -2.57862e-20)
(-0.254652 -0.0796108 1.86776e-20)
(0.0241541 -0.0658462 0)
(0.550184 -0.0385879 -6.53259e-20)
(-0.177084 -0.0769715 0)
(0.41454 -0.0689096 -5.01359e-20)
(0.978277 -0.0751862 4.8099e-20)
(-0.138298 -0.0713582 0)
(0.327254 -0.0730203 3.82191e-20)
(0.951772 -0.0608343 0)
(-0.130165 -0.117171 -1.81126e-20)
(0.375524 -0.0831813 -3.97898e-20)
(0.925563 -0.0608866 0)
(-0.114794 -0.110603 -8.98641e-22)
(0.409264 -0.0525379 3.56091e-20)
(0.931912 -0.0269783 -3.14155e-22)
(-0.0288247 -0.0442523 3.07588e-20)
(0.501901 -0.00289272 -3.7306e-20)
(0.998621 0.0165206 0)
(-0.0445541 0.0977894 -1.96906e-20)
(0.529772 0.134009 3.26362e-20)
(1.01138 0.130249 5.99116e-20)
(0.127846 0.32809 5.15278e-21)
(0.725569 0.30927 0)
(1.14901 0.30544 -5.23815e-20)
(-0.0177038 0.12856 0)
(0.438793 0.0719209 0)
(0.935504 0.150039 0)
(0.0953722 -0.241664 2.10935e-21)
(0.523895 -0.131537 0)
(0.904979 -0.0206731 0)
(0.412454 -0.0965977 -1.88125e-21)
(0.864776 0.0994001 0)
(1.24651 0.0596056 7.79307e-21)
(0.885483 0.182998 -4.06616e-22)
(1.0139 0.355742 -4.06487e-21)
(1.1379 0.273598 -6.85627e-21)
(0.902598 0.262059 -6.71215e-23)
(1.13146 0.244924 4.05896e-21)
(0.984116 0.270116 0)
(0.667565 0.223154 0)
(0.918227 0.124605 -1.36161e-23)
(0.97456 0.1152 1.44846e-23)
(0.741807 0.0300316 0)
(0.716939 0.0117995 0)
(0.780924 -0.0115346 4.76506e-23)
(0.852889 -0.0786208 0)
(0.74462 -0.0700216 -2.29311e-23)
(0.724114 -0.0613476 -1.80474e-23)
(0.928879 -0.11507 0)
(0.784266 -0.111772 0)
(0.740115 -0.0902051 0)
(0.953111 -0.0824097 3.69145e-25)
(0.862338 -0.0817593 -3.68405e-25)
(0.855804 -0.0658899 0)
(1.2287 -0.0963621 0)
(1.16978 -0.0885686 0)
(1.12813 -0.0671647 0)
(1.08985 -0.0437055 0)
(1.05971 -0.0283573 0)
(1.02722 -0.00580528 0)
(0.991308 -0.00615422 0)
(0.947802 0.0211088 0)
(0.907449 -0.00274441 0)
(0.74572 0.0342411 0)
(1.23328 -0.0914958 0)
(1.18438 -0.0578076 0)
(1.1466 -0.044661 0)
(1.10661 -0.0200388 0)
(1.06893 -0.012617 0)
(1.03243 0.00509786 0)
(0.99326 0.00106154 0)
(0.946859 0.0255741 0)
(0.905429 0.00168666 0)
(0.737328 0.037769 0)
(1.23687 -0.0375574 0)
(1.21401 -0.0315295 0)
(1.17021 -0.0165328 0)
(1.11993 -0.00440338 0)
(1.0793 0.00118219 0)
(1.03841 0.0116865 0)
(0.998519 0.0043139 0)
(0.950583 0.0252361 0)
(0.90902 0.00122021 0)
(0.740135 0.0359811 0)
(1.23462 0.00817297 0)
(1.19508 0.0396745 0)
(1.17461 0.019418 0)
(1.12021 0.0327938 0)
(1.08081 0.0188248 0)
(1.03784 0.0263342 0)
(0.998361 0.0137387 0)
(0.947821 0.031034 0)
(0.905973 0.00701404 0)
(0.729329 0.0397423 0)
(1.25916 0.0818302 0)
(1.21221 0.0774033 0)
(1.15972 0.0495698 0)
(1.11765 0.0442864 0)
(1.07605 0.0304021 0)
(1.03797 0.0328111 0)
(1.00048 0.0176527 0)
(0.951197 0.031379 0)
(0.909997 0.00657954 0)
(0.731655 0.0345987 0)
(1.1775 0.205285 0)
(1.14821 0.166237 0)
(1.13672 0.102126 0)
(1.09456 0.0805396 0)
(1.0682 0.0493 0)
(1.03005 0.0469148 0)
(0.996244 0.0284227 0)
(0.945728 0.0381051 0)
(0.904924 0.0122971 0)
(0.718945 0.0362738 0)
(1.06443 0.0805553 0)
(1.05069 0.11627 0)
(1.07287 0.0699315 0)
(1.06761 0.0823015 0)
(1.05057 0.052279 0)
(1.02497 0.0540672 0)
(0.993671 0.0319893 0)
(0.946506 0.0376529 0)
(0.9075 0.0114185 0)
(0.719798 0.0252875 0)
(1.06944 0.0349121 0)
(1.09993 0.0399179 0)
(1.06116 0.0601131 0)
(1.05878 0.0642229 0)
(1.03805 0.0600097 0)
(1.01344 0.0604872 0)
(0.984338 0.0417232 0)
(0.936965 0.0429577 0)
(0.898851 0.0140931 0)
(0.70751 0.0198322 0)
(1.19133 0.125741 0)
(1.1117 0.0911573 0)
(1.10096 0.0952339 0)
(1.06366 0.0882875 0)
(1.04133 0.0699458 0)
(1.00714 0.0659654 0)
(0.978764 0.0424147 0)
(0.932815 0.0401052 0)
(0.895513 0.00915844 0)
(0.708152 0.00460428 0)
(1.15945 0.205692 0)
(1.06287 0.199893 0)
(1.07803 0.144747 0)
(1.0382 0.140039 0)
(1.02061 0.0943274 0)
(0.989918 0.0860339 0)
(0.963918 0.0520462 0)
(0.916969 0.0436834 0)
(0.880048 0.00342678 0)
(0.701894 -0.00478372 0)
(0.941707 0.201098 0)
(0.956434 0.196568 0)
(0.97849 0.140909 0)
(0.970269 0.129705 0)
(0.97299 0.084443 0)
(0.95859 0.0756392 0)
(0.942567 0.0385881 0)
(0.89942 0.0302988 0)
(0.86576 -0.014649 0)
(0.708981 -0.0160267 0)
(0.890645 0.0910142 0)
(0.892166 0.0910377 0)
(0.911667 0.0641389 0)
(0.92002 0.0700098 0)
(0.93457 0.0422914 0)
(0.92785 0.0446904 0)
(0.917526 0.0106485 0)
(0.875846 0.0115447 0)
(0.848565 -0.0340213 0)
(0.718341 -0.0214948 0)
(0.818659 -0.0420741 0)
(0.878123 -0.032234 0)
(0.917126 -0.0408352 0)
(0.926462 -0.0180176 0)
(0.926942 -0.0319631 0)
(0.916454 -0.0154428 0)
(0.901135 -0.0427537 0)
(0.862155 -0.0270021 0)
(0.837917 -0.0599682 0)
(0.741798 -0.0280883 0)
(0.806823 -0.073737 0)
(0.90662 -0.0617743 0)
(0.952651 -0.0666796 0)
(0.952597 -0.0481308 0)
(0.938339 -0.0608767 0)
(0.918892 -0.0427237 0)
(0.900003 -0.0643161 0)
(0.863354 -0.0409911 0)
(0.842715 -0.0634704 0)
(0.777397 -0.0209803 0)
(0.826765 -0.083724 0)
(0.922741 -0.0712108 0)
(0.957789 -0.0786461 0)
(0.952474 -0.067359 0)
(0.935641 -0.083971 0)
(0.91642 -0.0656676 0)
(0.898743 -0.0858828 0)
(0.867491 -0.056436 0)
(0.850341 -0.0695045 0)
(0.805975 -0.0179183 0)
(0.904738 -0.0592598 0)
(0.944784 -0.0515619 0)
(0.953187 -0.0570174 0)
(0.946335 -0.0497784 0)
(0.934665 -0.0615527 0)
(0.922755 -0.0459169 0)
(0.909238 -0.0619337 0)
(0.890407 -0.0342771 0)
(0.877602 -0.0490156 0)
(0.85551 -0.00258912 0)
(1.1095 -0.127081 7.89827e-21)
(1.10544 -0.122767 -6.38538e-21)
(1.07111 -0.0900925 0)
(1.04834 -0.0685692 -2.09379e-22)
(1.02596 -0.0423374 -1.08584e-21)
(1.00103 -0.0128427 1.1066e-21)
(0.974268 -0.00852027 3.36604e-22)
(0.935667 0.0198844 2.82812e-22)
(0.898824 -0.00567886 4.37059e-22)
(0.743121 0.033693 0)
(1.03962 -0.126833 -4.74904e-20)
(1.04206 -0.0910027 3.11698e-21)
(1.05973 -0.0583642 1.17886e-20)
(1.05263 -0.0434284 2.20565e-22)
(1.03286 -0.0312019 0)
(1.00603 -0.00907382 -2.34384e-22)
(0.976237 -0.00817767 1.09517e-21)
(0.937327 0.0195748 -2.00343e-21)
(0.899624 -0.00683921 9.28133e-22)
(0.745316 0.0332332 0)
(1.21598 -0.141646 6.45541e-20)
(1.13137 -0.117062 -1.12792e-20)
(1.08923 -0.081878 -5.96999e-21)
(1.07022 -0.0536076 -3.88872e-20)
(1.04642 -0.0346194 1.41771e-20)
(1.01941 -0.0090414 0)
(0.986889 -0.00666422 0)
(0.944239 0.0217384 1.81607e-21)
(0.904373 -0.00229648 -3.32905e-21)
(0.743058 0.0355767 7.41944e-22)
(0.86397 -0.164325 1.44135e-20)
(0.893887 -0.146082 3.59599e-22)
(1.04231 -0.184996 0)
(0.979524 -0.222824 -1.95956e-20)
(0.900504 -0.208553 -1.26025e-21)
(1.10315 -0.236294 -6.15184e-21)
(0.941065 -0.27115 -1.29914e-20)
(0.994988 -0.261417 -6.36157e-21)
(1.09918 -0.24317 1.45528e-20)
(0.850236 -0.349983 1.78609e-20)
(1.01095 -0.391328 -6.65858e-21)
(1.07255 -0.319122 -1.18619e-21)
(0.899252 -0.437123 0)
(1.0678 -0.404393 -2.31938e-20)
(1.1598 -0.28627 -1.25252e-20)
(0.755786 -0.613908 5.44287e-20)
(0.863004 -0.517676 -1.18674e-20)
(0.893089 -0.36302 1.75233e-20)
(0.78563 0.0233636 0)
(0.814566 -0.0399162 -3.59445e-20)
(0.883629 -0.113839 -2.90312e-20)
(0.734044 0.0104343 -1.96918e-20)
(0.757359 -0.0682339 0)
(0.844159 -0.149414 3.94722e-20)
(0.665028 -0.0123091 4.3133e-20)
(0.710326 -0.123843 -5.51778e-20)
(0.738583 -0.200972 3.58827e-20)
(0.559602 -0.0333522 -7.12271e-20)
(0.649536 -0.184595 5.38308e-20)
(0.718632 -0.308037 -4.93345e-20)
(0.413837 -0.0755823 1.57044e-20)
(0.529487 -0.271097 -6.20716e-21)
(0.705625 -0.434693 0)
(0.180508 -0.0666638 2.95611e-20)
(0.323672 -0.363815 1.27477e-19)
(0.50002 -0.563667 2.00587e-21)
(0.990773 0.165543 -2.33194e-22)
(0.967802 0.166739 2.32477e-22)
(0.91863 0.154734 -2.80395e-22)
(0.95778 0.119114 -3.49409e-23)
(0.942214 0.104703 1.94569e-22)
(1.00746 0.115625 3.55846e-22)
(0.975434 0.104961 3.66888e-23)
(0.977834 0.115589 1.35553e-22)
(0.976439 0.109649 4.24856e-22)
(0.963589 0.067176 0)
(0.96111 0.0523751 -9.51946e-22)
(0.962948 0.0561161 0)
(0.949763 0.0778976 9.60032e-22)
(0.980221 0.0909487 -2.13204e-22)
(1.00516 0.0729277 2.32705e-22)
(0.937769 0.0640803 -1.31912e-21)
(0.946556 0.0412259 -1.38891e-22)
(0.937886 0.0327241 3.19682e-22)
(0.913784 0.0682217 0)
(0.949036 0.0733392 0)
(0.973843 0.0358052 1.92024e-20)
(0.889535 0.0526193 -1.79459e-22)
(0.901788 0.0289602 1.89692e-22)
(0.879481 -0.0151549 -5.2345e-20)
(0.859457 0.0500712 0)
(0.881361 0.0372914 2.05529e-20)
(0.90769 -0.0230566 3.50369e-20)
(0.826906 0.0346575 0)
(0.837935 -0.0130975 4.38597e-21)
(0.848847 -0.0921533 0)
(0.911975 0.161058 0)
(0.956228 0.165045 0)
(0.962341 0.166386 0)
(0.962935 0.163807 0)
(0.962282 0.161701 0)
(0.965805 0.156017 0)
(0.968536 0.145866 0)
(0.974931 0.144172 0)
(0.979574 0.0970119 0)
(0.983321 0.112925 0)
(1.09152 0.110543 0)
(1.04209 0.101314 0)
(0.999354 0.0960115 0)
(0.992821 0.0968145 0)
(0.990062 0.097689 0)
(0.983771 0.100955 0)
(0.975169 0.0949535 0)
(0.959366 0.10594 0)
(0.943778 0.0677089 0)
(0.830599 0.0854404 0)
(0.897836 0.108015 0)
(0.914536 0.111117 0)
(0.952059 0.11215 0)
(0.957589 0.109284 0)
(0.956073 0.100312 0)
(0.95435 0.0963034 0)
(0.946129 0.0757011 0)
(0.935646 0.0839915 0)
(0.919069 0.0391301 0)
(0.809437 0.0646261 0)
(1.03413 0.0527915 0)
(1.0242 0.0530987 0)
(0.99267 0.0473871 0)
(0.977156 0.0470905 0)
(0.97183 0.0444357 0)
(0.970791 0.0559177 0)
(0.96088 0.0456029 0)
(0.945232 0.0624454 0)
(0.925423 0.0234047 0)
(0.790547 0.046418 0)
(0.934661 0.0838967 0)
(0.932214 0.0776306 0)
(0.940116 0.0674455 0)
(0.947171 0.0579142 0)
(0.950089 0.0471788 0)
(0.95208 0.0477273 0)
(0.940153 0.030488 0)
(0.927843 0.0462944 0)
(0.906984 0.0093681 0)
(0.772907 0.0395873 0)
(0.997636 0.0180029 0)
(0.971278 0.00521314 0)
(0.951254 0.00837221 0)
(0.959658 0.0144973 0)
(0.964855 0.0139328 0)
(0.967389 0.0246486 0)
(0.954505 0.0156319 0)
(0.934784 0.0363146 0)
(0.911013 0.0056785 0)
(0.765209 0.0329299 0)
(0.905404 0.0288395 0)
(0.925052 0.0158407 0)
(0.94687 0.0153947 0)
(0.949794 0.0167419 0)
(0.949592 0.0114382 0)
(0.953634 0.0184962 0)
(0.943541 0.00786672 0)
(0.925464 0.0292696 0)
(0.901462 -0.00201587 0)
(0.760545 0.0309968 0)
(0.944221 -0.0412212 0)
(0.954087 -0.0356825 0)
(0.958044 -0.0283493 0)
(0.963523 -0.024739 0)
(0.966342 -0.0199052 0)
(0.968489 -0.000143418 0)
(0.956626 -0.000997341 0)
(0.932669 0.0248714 0)
(0.906193 -0.00230086 0)
(0.758015 0.0288877 0)
(0.884452 -0.0301495 0)
(0.927021 -0.0458582 0)
(0.950922 -0.0452001 0)
(0.956045 -0.0333902 0)
(0.96169 -0.021683 0)
(0.963555 -0.00295468 0)
(0.951645 -0.00452434 0)
(0.927856 0.0209317 0)
(0.901277 -0.0065143 0)
(0.756204 0.0282119 0)
(0.924364 -0.113276 0)
(0.946468 -0.0869928 0)
(0.966484 -0.0793391 0)
(0.975993 -0.0599555 0)
(0.979373 -0.0401178 0)
(0.976271 -0.0130917 0)
(0.962101 -0.00937864 0)
(0.933799 0.0194373 0)
(0.905405 -0.0048655 0)
(0.754945 0.0282924 0)
(0.883929 -0.113993 0)
(0.933327 -0.102048 7.35189e-21)
(0.964524 -0.0839529 -5.14776e-21)
(0.975228 -0.0560147 -5.89036e-22)
(0.977751 -0.0362943 0)
(0.973488 -0.0123121 0)
(0.958456 -0.0107106 0)
(0.929778 0.0180659 -5.34023e-22)
(0.901016 -0.00811837 5.05633e-22)
(0.753431 0.0281123 -7.44467e-22)
(1.01747 -0.117093 1.41394e-21)
(1.02618 -0.118537 1.58881e-21)
(1.01122 -0.0926495 -2.39851e-21)
(1.0044 -0.066994 1.19588e-22)
(0.996401 -0.0427372 0)
(0.982896 -0.0144597 -1.74618e-22)
(0.963317 -0.0103913 -1.46823e-21)
(0.93067 0.01899 2.24308e-21)
(0.899044 -0.00654558 -8.49845e-22)
(0.746712 0.030883 0)
(1.00836 -0.14246 -4.64848e-21)
(0.996051 -0.110622 3.75801e-21)
(1.01633 -0.0709997 0)
(1.01705 -0.0485361 -1.13577e-22)
(1.00522 -0.0309109 9.07847e-22)
(0.987512 -0.0101469 -5.69532e-22)
(0.964793 -0.00975013 2.81571e-22)
(0.930729 0.0178747 2.58855e-22)
(0.896799 -0.0090095 4.284e-22)
(0.747516 0.0308891 0)
)
;

boundaryField
{
    outlet
    {
        type            zeroGradient;
    }
    upperWall
    {
        type            symmetryPlane;
    }
    lowerWall
    {
        type            symmetryPlane;
    }
    inlet
    {
        type            fixedValue;
        value           uniform (0.9848 0.1736 0);
    }
    cylinder
    {
        type            fixedValue;
        value           uniform (0 0 0);
    }
    frontAndBack
    {
        type            empty;
    }
}


// ************************************************************************* //
