/*--------------------------------*- C++ -*----------------------------------*\
| =========                 |                                                 |
| \\      /  F ield         | OpenFOAM: The Open Source CFD Toolbox           |
|  \\    /   O peration     | Version:  2512                                  |
|   \\  /    A nd           | Website:  www.openfoam.com                      |
|    \\/     M anipulation  |                                                 |
\*---------------------------------------------------------------------------*/
FoamFile
{
    version     2.0;
    format      ascii;
    arch        "LSB;label=32;scalar=64";
    class       surfaceScalarField;
    location    "88.15";
    object      phi;
}
// * * * * * * * * * * * * * * * * * * * * * * * * * * * * * * * * * * * * * //

dimensions      [0 3 -1 0 0 0 0];

oriented        oriented;

internalField   nonuniform List<scalar> 
26232
(
-0.00046085
0.00105146
-0.000590605
-0.0012694
0.00203078
-0.00122223
-0.00192615
0.00223538
-0.00157863
-0.00198211
0.00164229
-0.00158633
-0.00101365
9.03467e-05
-0.00105881
0.0013622
-0.00261064
0.00023479
0.00555418
-0.00663582
0.00244383
0.0118546
-0.0120694
0.00576896
0.0204253
-0.0188409
0.0102701
0.0312222
-0.0267096
0.0159127
0.0439703
-0.0352949
0.0225467
0.0581878
-0.0441436
0.0299262
0.0732484
-0.0528073
0.0377467
0.0884649
-0.060907
0.0456905
0.103175
-0.0681736
0.0534633
0.116814
-0.0744684
0.0608292
0.128986
-0.0797752
0.0676038
0.139449
-0.0841949
0.0737316
0.148286
-0.0878998
0.079063
0.155546
-0.0911804
0.08392
0.161856
-0.0941318
0.0878219
0.167346
-0.0974514
0.0919619
0.17242
-0.100206
0.0951313
-0.104393
0.0994462
0.177367
-0.000224658
0.00127611
-0.000490386
0.00229651
-0.000334191
0.00207919
0.0007187
0.000589398
0.00313614
-0.00232709
0.00736214
-0.00683664
0.0137482
-0.0130219
0.0224516
-0.0207727
0.0333521
-0.0297414
0.046029
-0.0393865
0.0598197
-0.0490855
0.0739355
-0.0582594
0.087597
-0.0664688
0.100155
-0.0734649
0.111177
-0.0791962
0.120495
-0.0837855
0.128194
-0.0874746
0.134583
-0.0905838
0.140085
-0.0934021
0.145129
-0.0962236
0.150126
-0.0991293
0.155017
-0.102342
0.160245
-0.105434
-0.109311
0.165162
-3.41206e-05
0.00131023
0.000213211
0.00204918
0.00120442
0.00108799
0.00344892
-0.00165511
0.00745317
-0.00633133
0.0136346
-0.013018
0.0221784
-0.0215657
0.0329101
-0.0315045
0.0452711
-0.0421024
0.0584255
-0.052541
0.0714487
-0.0621088
0.0835223
-0.0703329
0.0940814
-0.0770279
0.102889
-0.082273
0.110034
-0.0863412
0.115851
-0.089602
0.120804
-0.0924275
0.125337
-0.0951172
0.129783
-0.0978485
0.134296
-0.100736
0.138863
-0.103696
0.143431
-0.106911
0.147936
-0.109938
-0.113589
0.152214
0.000105771
0.00120446
0.00082678
0.00132817
0.00267279
-0.000758021
0.00619946
-0.00518178
0.0118991
-0.012031
0.02002
-0.0211389
0.0303701
-0.0319158
0.0422741
-0.0434085
0.0547374
-0.0545657
0.0667238
-0.0645273
0.0774149
-0.0727998
0.0863679
-0.0792859
0.0935469
-0.084207
0.0992425
-0.0879686
0.103918
-0.0910169
0.108044
-0.0937278
0.111971
-0.0963542
0.115877
-0.0990236
0.119818
-0.10179
0.123736
-0.104654
0.127657
-0.107617
0.131496
-0.11075
0.135392
-0.113834
-0.117484
0.139287
0.000229409
0.000975054
0.00143667
0.00012091
0.00421327
-0.00353462
0.00912862
-0.0100971
0.0165325
-0.0194348
0.0262753
-0.0308817
0.0376074
-0.0432479
0.0493912
-0.0551923
0.0604859
-0.0656604
0.070078
-0.0741194
0.077835
-0.0805568
0.083874
-0.0853249
0.088601
-0.0889339
0.0925065
-0.0918741
0.0960012
-0.0945116
0.0993421
-0.0970687
0.102642
-0.0996543
0.105939
-0.10232
0.109234
-0.105085
0.112552
-0.107972
0.115914
-0.110979
0.119299
-0.114135
0.12279
-0.117324
-0.120889
0.126195
0.000379033
0.000596021
0.00214796
-0.00164802
0.00595929
-0.00734595
0.0123003
-0.0164381
0.0211532
-0.0282877
0.0317736
-0.0415022
0.0429062
-0.0543805
0.0532903
-0.0655764
0.0620831
-0.0744532
0.0690125
-0.0810488
0.0742812
-0.0858255
0.0783418
-0.0893855
0.0816706
-0.0922627
0.0846289
-0.0948324
0.0874321
-0.0973147
0.0901855
-0.099822
0.0929406
-0.102409
0.0957219
-0.105101
0.0985465
-0.10791
0.101408
-0.110834
0.104299
-0.113871
0.10719
-0.117026
0.110109
-0.120244
-0.123733
0.112953
0.000579711
1.63094e-05
0.00300463
-0.00407293
0.00791497
-0.0122563
0.0155227
-0.0240458
0.0252233
-0.0379883
0.0357006
-0.0519795
0.0455438
-0.0642237
0.0538113
-0.0738439
0.0602143
-0.0808562
0.0649757
-0.0858101
0.0685567
-0.0894065
0.07142
-0.0922488
0.0739089
-0.0947516
0.0762323
-0.0971558
0.0785013
-0.0995838
0.0807705
-0.102091
0.0830604
-0.104699
0.0853746
-0.107415
0.0877048
-0.11024
0.0900468
-0.113176
0.0924025
-0.116226
0.0947661
-0.119389
0.0971735
-0.122651
-0.126104
0.0995449
0.000831145
-0.000814836
0.00398095
-0.00722274
0.00993051
-0.0182059
0.0183905
-0.0325059
0.0281153
-0.0477131
0.0375278
-0.0613921
0.0454935
-0.0721894
0.0516112
-0.0799616
0.0560619
-0.0853069
0.059297
-0.0890453
0.0617809
-0.0918903
0.0638637
-0.0943316
0.0657631
-0.096651
0.0675948
-0.0989875
0.0694111
-0.1014
0.0712296
-0.10391
0.0730543
-0.106524
0.0748858
-0.109247
0.0767282
-0.112082
0.0785861
-0.115034
0.0804582
-0.118098
0.0823392
-0.12127
0.0842327
-0.124544
-0.127942
0.086071
0.00112104
-0.00193587
0.00499615
-0.0110979
0.0117581
-0.0249678
0.0204668
-0.0412145
0.0294418
-0.0566881
0.0372601
-0.0692104
0.0432904
-0.0782196
0.0475994
-0.0842706
0.0506085
-0.088316
0.0527935
-0.0912303
0.0545277
-0.0936246
0.056046
-0.09585
0.0574721
-0.098077
0.0588607
-0.100376
0.0602328
-0.102772
0.0615968
-0.105274
0.0629578
-0.107885
0.0643196
-0.110609
0.0656836
-0.113446
0.067048
-0.116398
0.068411
-0.119461
0.0697716
-0.122631
0.071132
-0.125905
-0.129281
0.0724706
0.00142517
-0.00336105
0.00593838
-0.0156111
0.0131363
-0.0321657
0.0214686
-0.0495468
0.029186
-0.0644055
0.0352857
-0.0753101
0.0396147
-0.0825487
0.042521
-0.0871769
0.0444893
-0.0902843
0.0459272
-0.0926682
0.0470991
-0.0947964
0.0481459
-0.0968968
0.0491321
-0.0990633
0.0500843
-0.101328
0.051014
-0.103702
0.0519267
-0.106187
0.0528256
-0.108784
0.0537126
-0.111496
0.0545901
-0.114324
0.0554602
-0.117268
0.0563232
-0.120324
0.0571783
-0.123486
0.0580218
-0.126748
-0.130097
0.0588376
0.00171528
-0.00507632
0.00669022
-0.020586
0.0138769
-0.0393524
0.0213477
-0.0570176
0.0276001
-0.0706579
0.032104
-0.0798139
0.0350451
-0.0854898
0.036891
-0.0890228
0.0380898
-0.0914831
0.038951
-0.0935294
0.0396457
-0.0954911
0.0402543
-0.0975054
0.0408104
-0.0996194
0.0413279
-0.101846
0.0418127
-0.104187
0.0422688
-0.106643
0.0426998
-0.109215
0.0431098
-0.111906
0.0435019
-0.114716
0.0438772
-0.117643
0.0442349
-0.120682
0.0445723
-0.123823
0.0448836
-0.12706
-0.130386
0.0451728
0.00196481
-0.00704113
0.00715881
-0.02578
0.0139171
-0.0461107
0.020246
-0.0633466
0.0250418
-0.0754537
0.0281703
-0.0829424
0.030011
-0.0873305
0.0310428
-0.0900546
0.0316343
-0.0920746
0.0320033
-0.0938983
0.0322553
-0.0957431
0.0324346
-0.0976847
0.0325588
-0.0997436
0.0326356
-0.101923
0.0326699
-0.104221
0.0326654
-0.106638
0.032626
-0.109175
0.0325546
-0.111834
0.0324537
-0.114615
0.0323258
-0.117516
0.0321727
-0.120529
0.031994
-0.123645
0.0317855
-0.126851
0.0315504
-0.130151
-0.000232043
-0.00834691
0.00857896
-0.00118763
-0.0171794
0.018135
-0.00282466
-0.0210879
0.022725
-0.00499158
-0.0221946
0.0243615
-0.00753731
-0.0220073
0.0245531
-0.0103417
-0.0213331
0.0241375
-0.0133084
-0.0204182
0.0233849
-0.0163543
-0.0192002
0.0222461
-0.0194013
-0.0175141
0.020561
-0.0223727
-0.0151923
0.0181637
-0.0251967
-0.0120913
0.0149153
-0.0278127
-0.00809472
0.0107106
-0.0301789
-0.00310126
0.00546752
-0.032151
0.00272588
-0.00075383
-0.0337855
0.00950634
-0.00787181
-0.035002
0.0172159
-0.0159994
-0.0357394
0.0257378
-0.0250004
-0.0359329
0.0349202
-0.0347267
-0.0355264
0.0445571
-0.0449636
-0.0344961
0.0543872
-0.0554175
-0.0328576
0.0641031
-0.0657416
-0.0306514
0.0733618
-0.075568
-0.0278215
0.0818243
-0.0846542
0.089236
-0.0243188
-0.0927386
-0.000542575
-0.00780434
-0.00198992
-0.0157321
-0.00412812
-0.0189497
-0.00678681
-0.0195359
-0.00985469
-0.0189395
-0.0132537
-0.0179341
-0.0169118
-0.0167601
-0.0207514
-0.0153606
-0.0246869
-0.0135786
-0.0286251
-0.0112541
-0.0324684
-0.00824795
-0.0361267
-0.00443645
-0.0394311
0.000203193
-0.0422944
0.00558913
-0.0446711
0.0118831
-0.0464335
0.0189782
-0.0474625
0.0267668
-0.0476328
0.0350906
-0.0468098
0.0437341
-0.0448451
0.0524226
-0.041576
0.060834
-0.0368391
0.0686249
-0.0303688
0.0753539
0.0806423
-0.021775
-0.00075056
-0.00705378
-0.00248604
-0.0139966
-0.0048743
-0.0165615
-0.00773458
-0.0166756
-0.010988
-0.015686
-0.0145901
-0.014332
-0.0184859
-0.0128643
-0.0225986
-0.011248
-0.0268321
-0.00934502
-0.0310767
-0.00700948
-0.0352047
-0.00412
-0.0390956
-0.000545505
-0.0424871
0.00359467
-0.0453818
0.0084838
-0.0475575
0.0140589
-0.0488341
0.0202547
-0.0490232
0.0269559
-0.047924
0.0339914
-0.0453219
0.0411321
-0.0409972
0.0480978
-0.0346913
0.0545281
-0.026143
0.0600766
-0.0152461
0.0644571
0.0669734
-0.00157731
-0.000853093
-0.00620069
-0.002692
-0.0121577
-0.00510949
-0.014144
-0.00791237
-0.0138727
-0.0110367
-0.0125618
-0.0144573
-0.0109113
-0.0181299
-0.00919174
-0.0219743
-0.00740346
-0.025882
-0.00543739
-0.0297247
-0.00316679
-0.0333546
-0.000490101
-0.0365503
0.00265023
-0.0392277
0.00627211
-0.0411431
0.0103991
-0.0420812
0.014997
-0.0418143
0.0199878
-0.0401046
0.0252462
-0.0367091
0.0305959
-0.0313795
0.0358024
-0.0238739
0.0405922
-0.0140125
0.0446667
-0.00148819
0.0475522
0.0135803
0.0493886
0.0482508
0.0323029
-0.000875927
-0.00532476
-0.00269217
-0.0103415
-0.00499521
-0.011841
-0.00756884
-0.0112991
-0.0103419
-0.0097887
-0.0132926
-0.0079606
-0.0163806
-0.00610379
-0.0195234
-0.00426066
-0.0225959
-0.00236483
-0.0254531
-0.000309621
-0.0279425
0.00199926
-0.0298618
0.00456954
-0.0310215
0.00743188
-0.0311977
0.0105753
-0.0301535
0.0139527
-0.027643
0.0174774
-0.0234202
0.0210234
-0.017242
0.0244177
-0.00890961
0.0274701
0.00183469
0.0298479
0.0149159
0.0315855
0.030925
0.0315431
0.0488241
0.0314895
0.0268426
0.0702323
-0.000860254
-0.00446451
-0.00260446
-0.00859726
-0.00474698
-0.00969844
-0.00703752
-0.00900855
-0.00937754
-0.00744868
-0.0117317
-0.0056064
-0.0140583
-0.00377727
-0.0162737
-0.00204522
-0.0182524
-0.000386102
-0.0198641
0.00130209
-0.0208989
0.00303405
-0.0211802
0.0048508
-0.0205042
0.00675584
-0.0186537
0.00872489
-0.0154058
0.0107048
-0.0105421
0.0126137
-0.00385644
0.0143377
0.00483943
0.0157219
0.0156328
0.0166767
0.0288275
0.0166532
0.043943
0.01647
0.0618621
0.013624
0.0809872
0.0123645
0.00480303
0.103027
-0.000847115
-0.00361739
-0.00254037
-0.006904
-0.00456576
-0.00767306
-0.006634
-0.0069403
-0.00860806
-0.00547462
-0.0104268
-0.00378771
-0.0120396
-0.0021644
-0.0133678
-0.000717073
-0.0143151
0.000561201
-0.0147027
0.00168971
-0.014371
0.00270238
-0.013137
0.00361675
-0.0108102
0.00442911
-0.00719801
0.00511266
-0.00211845
0.00562523
0.00460146
0.00589379
0.0131185
0.00582067
0.023554
0.0052863
0.0359393
0.0042914
0.0504786
0.00211392
0.0667267
0.000221933
0.0854819
-0.00513124
0.105233
-0.00738702
-0.0176856
0.127722
-0.000860854
-0.00275654
-0.00256155
-0.00520331
-0.00456002
-0.00567458
-0.00653251
-0.00496781
-0.00830459
-0.00370254
-0.00978507
-0.00230723
-0.0109109
-0.00103853
-0.0116089
-1.91356e-05
-0.0117626
0.000714896
-0.0112348
0.00116196
-0.00986343
0.001331
-0.0074708
0.00122412
-0.00387194
0.000830259
0.00111242
0.000128289
0.00766227
-0.000924618
0.0159445
-0.00238842
0.0260981
-0.00433299
0.0382145
-0.00683007
0.0524439
-0.00993796
0.0686839
-0.0141261
0.0870811
-0.0181752
0.107477
-0.0255276
0.129619
-0.0295285
-0.0417956
0.153729
-0.000895279
-0.00186126
-0.00264358
-0.003455
-0.00467923
-0.00363893
-0.00665393
-0.00299311
-0.0083622
-0.00199427
-0.00968123
-0.000988196
-0.0105185
-0.000201302
-0.0107717
0.000234079
-0.0103145
0.000257726
-0.00898346
-0.000169088
-0.00658583
-0.00106663
-0.0029051
-0.00245661
0.00227259
-0.00434743
0.00916288
-0.006762
0.0179496
-0.00971132
0.028787
-0.0132258
0.0417526
-0.0172986
0.0568934
-0.0219708
0.0742431
-0.0272877
0.093376
-0.0332591
0.114833
-0.0396318
0.13691
-0.0476051
0.161208
-0.0538258
-0.0653393
0.184751
-0.000910394
-0.000950864
-0.00266801
-0.00169739
-0.00469677
-0.00161018
-0.0066291
-0.00106078
-0.00822429
-0.000399087
-0.00930901
9.65299e-05
-0.00973025
0.000219938
-0.00930843
-0.000187742
-0.00785699
-0.00119371
-0.00513551
-0.00289057
-0.000889886
-0.00531225
0.00511488
-0.00846138
0.013092
-0.0123245
0.0231814
-0.0168514
0.0354377
-0.0219677
0.0498384
-0.0276265
0.066217
-0.0336772
0.084422
-0.0401758
0.104029
-0.0468949
0.124653
-0.0538824
0.146097
-0.0610764
0.166735
-0.0682431
0.188099
-0.0751896
-0.0830173
0.205777
-0.000851471
-9.93931e-05
-0.0024754
-7.34606e-05
-0.00430659
0.000221017
-0.00595182
0.000584459
-0.00711858
0.000767666
-0.00755505
0.000533005
-0.00700164
-0.000333476
-0.00523336
-0.00195602
-0.0019412
-0.00448587
0.00314044
-0.00797222
0.0102342
-0.0124061
0.0194823
-0.0177095
0.0309045
-0.0237467
0.0443958
-0.0303427
0.0597263
-0.0372982
0.0765465
-0.0444467
0.0944247
-0.0515554
0.112876
-0.0586274
0.131257
-0.0652762
0.149222
-0.0718473
0.16588
-0.0777345
0.181038
-0.0834002
0.194452
-0.0886039
-0.0928366
0.204271
-0.000689998
-0.00198569
-0.0033433
-0.00434518
-0.00463632
-0.00386852
-0.00175817
0.00205478
0.00783905
0.0157796
0.0259202
0.0381369
0.0521369
0.0674847
0.0836498
0.100032
0.116081
0.131185
0.144972
0.157044
0.167132
0.175694
0.182221
0.188831
-0.0169613
0.128269
-0.135627
-0.00702873
0.133571
-0.143503
0.00715212
0.131628
-0.145809
0.0258334
0.12114
-0.139821
0.0481403
0.100867
-0.123174
0.0715918
0.0722316
-0.0956831
0.0928839
0.0384271
-0.0597192
0.110375
3.10613e-05
-0.0175219
0.124786
-0.045418
0.031007
0.136874
-0.0951132
0.0830245
0.145884
-0.138508
0.129499
0.151115
-0.166598
0.161367
0.152817
-0.178108
0.176407
0.15165
-0.17906
0.180227
0.149046
-0.176724
0.179327
0.146313
-0.173452
0.176185
0.142589
-0.171944
0.175668
0.136115
-0.179494
0.185967
0.127424
-0.19568
0.204371
0.119979
-0.201187
0.208632
0.117095
-0.17034
0.173224
0.119972
-0.0961596
0.0932817
0.127752
0.00184432
-0.0096241
0.1377
0.0950422
-0.10499
0.146703
0.162843
-0.171846
0.153498
0.20175
-0.208544
0.158655
0.213492
-0.218649
0.161144
0.21611
-0.218599
0.159312
0.231443
-0.229611
0.152942
0.260788
-0.254418
0.143379
0.274329
-0.264765
0.133491
0.24367
-0.233782
0.126957
0.158094
-0.15156
0.126123
0.0351015
-0.0342672
0.130025
-0.0881971
0.0842954
0.13676
-0.18321
0.176475
0.142332
-0.232676
0.227104
0.141181
-0.255799
0.25695
0.132205
-0.268047
0.277023
0.120606
-0.273612
0.285212
0.112362
-0.231834
0.240078
0.112306
-0.142054
0.14211
0.119587
-0.0156414
0.0083606
0.127678
0.0988603
-0.106951
0.129864
0.192321
-0.194508
0.126726
0.274335
-0.271197
0.123048
0.303001
-0.299322
0.121307
0.276364
-0.274624
0.122087
0.153103
-0.153883
0.123523
0.00706091
-0.00849648
0.122152
-0.158936
0.160307
0.119608
-0.299727
0.302271
0.117408
-0.297639
0.29984
0.116488
-0.260975
0.261895
0.116171
-0.0759326
0.0762495
0.117313
0.0948376
-0.0959796
0.116401
0.21821
-0.217297
0.115503
0.47691
-0.476012
0.111405
0.230888
-0.226791
-0.0896097
0.09349
-0.00720042
0.113695
0.0104823
0.115888
0.0308397
0.111271
0.0534938
0.0984857
0.0771645
0.077196
0.0996096
0.0497865
0.118299
0.0197378
0.132657
-0.0143268
0.14391
-0.0566711
0.152441
-0.103645
0.157269
-0.143335
0.158001
-0.167331
0.155663
-0.17577
0.151305
-0.174702
0.146047
-0.171466
0.141134
-0.168539
0.135628
-0.166437
0.127186
-0.171051
0.116186
-0.18468
0.106824
-0.191825
0.103611
-0.167127
0.107793
-0.100342
0.118502
-0.00886466
0.131608
0.081936
0.143563
0.150888
0.153231
0.192082
0.160931
0.205792
0.165814
0.211227
0.166747
0.23051
0.16315
0.264385
0.155357
0.282122
0.145706
0.253321
0.137801
0.165998
0.134247
0.0386561
0.134704
-0.088654
0.137982
-0.186489
0.141447
-0.236141
0.1394
-0.253752
0.129724
-0.25837
0.117803
-0.261692
0.110474
-0.224505
0.111819
-0.143399
0.12012
-0.0239427
0.128421
0.0905597
0.131093
0.189649
0.128547
0.276881
0.124972
0.306575
0.122909
0.278427
0.123218
0.152795
0.124449
0.00583004
0.12205
-0.156537
0.118784
-0.296461
0.116566
-0.295421
0.116112
-0.26052
0.116471
-0.0762917
0.117351
0.0939574
0.117674
0.217887
0.117528
0.477056
0.112506
0.23591
-0.0851376
0.0179439
0.0941734
0.0391469
0.0946849
0.0614833
0.0889342
0.0841063
0.0758628
0.105857
0.0554452
0.125059
0.0305845
0.140261
0.0045363
0.151678
-0.0257439
0.160285
-0.065278
0.165746
-0.109106
0.166789
-0.144379
0.163401
-0.163943
0.157498
-0.169867
0.150625
-0.167829
0.143311
-0.164151
0.136606
-0.161835
0.130025
-0.159856
0.12059
-0.161617
0.107765
-0.171855
0.096312
-0.180372
0.0922445
-0.16306
0.0974929
-0.10559
0.110108
-0.0214798
0.12571
0.0663342
0.14037
0.136228
0.152807
0.179645
0.163032
0.195568
0.170519
0.20374
0.17455
0.226479
0.174136
0.264799
0.168489
0.287768
0.159201
0.262609
0.149772
0.175428
0.143279
0.045149
0.140258
-0.0856338
0.139917
-0.186147
0.141074
-0.237299
0.138456
-0.251135
0.128459
-0.248373
0.11608
-0.249312
0.109225
-0.21765
0.111687
-0.145861
0.120874
-0.0331302
0.129599
0.0818351
0.132975
0.186273
0.131048
0.278808
0.127376
0.310247
0.124864
0.280938
0.124708
0.152952
0.125826
0.00471195
0.122577
-0.153289
0.118463
-0.292347
0.116165
-0.293123
0.11615
-0.260505
0.117261
-0.0774027
0.117819
0.0933986
0.119358
0.216349
0.119974
0.47644
0.114133
0.241751
-0.0800911
0.052092
0.0743843
0.0731172
0.0736597
0.0942687
0.0677827
0.114382
0.055749
0.132431
0.0373964
0.147274
0.0157416
0.158949
-0.00713825
0.168137
-0.0349322
0.17493
-0.0720711
0.177385
-0.111561
0.174461
-0.141454
0.167264
-0.156746
0.158261
-0.160864
0.149405
-0.158974
0.140825
-0.155571
0.132738
-0.153748
0.125327
-0.152444
0.115917
-0.152207
0.102512
-0.15845
0.0892033
-0.167063
0.0834401
-0.157297
0.088559
-0.110709
0.102181
-0.0351022
0.11965
0.0488653
0.136677
0.119201
0.151701
0.164621
0.164372
0.182897
0.174547
0.193564
0.181985
0.219041
0.185176
0.261608
0.182088
0.290856
0.173331
0.271366
0.162361
0.186398
0.152964
0.0545459
0.146643
-0.0793133
0.142685
-0.182189
0.141158
-0.235772
0.13805
-0.248026
0.128205
-0.238529
0.115394
-0.236501
0.108499
-0.210755
0.111673
-0.149035
0.121728
-0.0431851
0.131143
0.0724203
0.135401
0.182015
0.134103
0.280107
0.130243
0.314107
0.127139
0.284042
0.126479
0.153612
0.127644
0.00354714
0.123717
-0.149361
0.118668
-0.287299
0.116176
-0.290631
0.116569
-0.260898
0.11836
-0.0791939
0.118723
0.0930355
0.121405
0.213667
0.122799
0.475046
0.11626
0.248289
-0.0745087
0.0883814
0.0562352
0.107
0.0550407
0.125099
0.049684
0.141475
0.0393729
0.155222
0.0236493
0.165868
0.00509627
0.174478
-0.0157487
0.181976
-0.04243
0.186846
-0.0769415
0.186137
-0.110851
0.179482
-0.134799
0.169215
-0.146479
0.158015
-0.149664
0.147771
-0.14873
0.13855
-0.14635
0.129826
-0.145023
0.121839
-0.144458
0.112837
-0.143205
0.0998708
-0.145483
0.0853063
-0.152499
0.077236
-0.149226
0.081065
-0.114538
0.0947373
-0.0487746
0.113403
0.0301998
0.132303
0.100301
0.14947
0.147454
0.164304
0.168062
0.177132
0.180736
0.188037
0.208136
0.195145
0.2545
0.195438
0.290564
0.188068
0.278736
0.175524
0.198942
0.1631
0.0669695
0.153561
-0.0697739
0.146139
-0.174767
0.141667
-0.231299
0.138
-0.244359
0.128756
-0.229285
0.115653
-0.223398
0.108214
-0.203316
0.111598
-0.152419
0.122495
-0.0540821
0.132894
0.0620213
0.138334
0.176575
0.13779
0.280651
0.133662
0.318235
0.129777
0.287926
0.128526
0.154863
0.129832
0.00224188
0.125435
-0.144965
0.119398
-0.281262
0.116561
-0.287793
0.117322
-0.26166
0.119784
-0.0816557
0.120019
0.0927998
0.12376
0.209927
0.125951
0.472855
0.118853
0.255387
-0.0684477
0.118731
0.0405311
0.134263
0.0395082
0.148943
0.0350043
0.161811
0.0265051
0.172117
0.0133432
0.180541
-0.00332761
0.187593
-0.0228006
0.193736
-0.0485731
0.195966
-0.0791721
0.191667
-0.106552
0.181714
-0.124847
0.169269
-0.134034
0.156846
-0.137242
0.145831
-0.137715
0.136335
-0.136854
0.127388
-0.136077
0.119099
-0.136169
0.110864
-0.13497
0.0993778
-0.133997
0.0845881
-0.137709
0.073878
-0.138516
0.0750792
-0.115739
0.0877574
-0.0614528
0.106874
0.0110829
0.12707
0.0801051
0.145898
0.128626
0.162543
0.151417
0.177706
0.165574
0.191948
0.193893
0.203128
0.24332
0.206972
0.28672
0.201619
0.284089
0.188691
0.211869
0.173352
0.0823087
0.160732
-0.0571538
0.150086
-0.164121
0.142506
-0.223719
0.13801
-0.239863
0.129755
-0.22103
0.116692
-0.210335
0.108298
-0.194922
0.111311
-0.155432
0.122989
-0.0657605
0.134681
0.0503298
0.141544
0.169713
0.141886
0.280308
0.137555
0.322566
0.132801
0.29268
0.130823
0.156841
0.132348
0.000716882
0.127681
-0.140297
0.120635
-0.274216
0.117276
-0.284434
0.118345
-0.262729
0.121517
-0.0848276
0.121662
0.0926553
0.126354
0.205234
0.129367
0.469842
0.12187
0.262885
-0.0619849
0.140697
0.0275561
0.15355
0.0266552
0.165756
0.0227985
0.17665
0.0156106
0.185574
0.00441972
0.193069
-0.0108224
0.199432
-0.0291643
0.203443
-0.0525833
0.2019
-0.0776289
0.193712
-0.0983643
0.181086
-0.112221
0.167347
-0.120295
0.154535
-0.124429
0.143333
-0.126513
0.133894
-0.127415
0.125224
-0.127407
0.116777
-0.127721
0.109024
-0.127218
0.0997125
-0.124685
0.0863341
-0.124331
0.0736617
-0.125844
0.0711075
-0.113185
0.0814385
-0.0717837
0.100156
-0.00763417
0.121033
0.0592274
0.140956
0.108704
0.158896
0.133476
0.175965
0.148506
0.193189
0.176669
0.208299
0.228211
0.216296
0.278722
0.213863
0.286523
0.201422
0.22431
0.18381
0.0999203
0.167879
-0.0412228
0.154235
-0.150477
0.143618
-0.213101
0.137904
-0.23415
0.130837
-0.213963
0.118298
-0.197796
0.108739
-0.185362
0.110751
-0.157445
0.123006
-0.0780154
0.136266
0.0370695
0.144951
0.161028
0.146528
0.278731
0.142086
0.327009
0.136329
0.298437
0.133409
0.159761
0.135122
-0.000996392
0.130388
-0.135563
0.122352
-0.26618
0.118276
-0.280358
0.119575
-0.264028
0.123525
-0.0887779
0.123609
0.0925717
0.129123
0.19972
0.132985
0.46598
0.125264
0.270606
-0.0552154
0.16329
0.0179949
0.173372
0.0165733
0.183237
0.0129336
0.192122
0.00672505
0.199978
-0.00343628
0.205775
-0.0166195
0.209635
-0.0330239
0.209407
-0.0523555
0.203102
-0.0713235
0.191582
-0.0868445
0.177643
-0.0982814
0.163789
-0.106441
0.151321
-0.111961
0.140394
-0.115586
0.131056
-0.118077
0.122841
-0.119192
0.114728
-0.119608
0.107166
-0.119656
0.099715
-0.117234
0.0891601
-0.113776
0.0763771
-0.113061
0.0699415
-0.106749
0.0765279
-0.0783702
0.0933094
-0.0244157
0.114276
0.0382604
0.134659
0.0883212
0.153337
0.114798
0.171805
0.130038
0.191436
0.157038
0.210053
0.209594
0.221898
0.266877
0.222305
0.286115
0.210945
0.235671
0.192391
0.118474
0.17412
-0.0229511
0.158158
-0.134515
0.144848
-0.199791
0.137548
-0.22685
0.131647
-0.208062
0.120186
-0.186334
0.109527
-0.174704
0.109917
-0.157835
0.122391
-0.0904892
0.137393
0.0220677
0.148167
0.150254
0.151299
0.275599
0.14712
0.331187
0.140421
0.305136
0.136333
0.163849
0.138105
-0.002769
0.133476
-0.130934
0.124513
-0.257217
0.119522
-0.275368
0.120932
-0.265438
0.125766
-0.0936114
0.125817
0.0925202
0.131986
0.193552
0.13672
0.461246
0.128982
0.278344
-0.0482563
0.190337
0.0124093
0.196791
0.0101193
0.203108
0.00661636
0.208546
0.00128713
0.212828
-0.00771819
0.214886
-0.0186781
0.214025
-0.0321622
0.208684
-0.0470144
0.198648
-0.0612879
0.185728
-0.0739243
0.172095
-0.0846483
0.159056
-0.0934022
0.147322
-0.100228
0.136982
-0.105245
0.127888
-0.108984
0.119995
-0.111299
0.112477
-0.11209
0.105139
-0.112319
0.0987367
-0.110831
0.0912871
-0.106327
0.0806414
-0.102415
0.0718452
-0.0979531
0.0736125
-0.0801375
0.0871977
-0.0380009
0.107204
0.0182537
0.127509
0.0680167
0.14633
0.0959771
0.165255
0.111112
0.186498
0.135795
0.208531
0.187561
0.224844
0.250565
0.229278
0.281681
0.219759
0.24519
0.200226
0.138007
0.179387
-0.00211224
0.1616
-0.116728
0.14608
-0.184271
0.136898
-0.217668
0.131918
-0.203082
0.122024
-0.17644
0.110602
-0.163282
0.108865
-0.156098
0.120975
-0.1026
0.137797
0.00524569
0.151147
0.136905
0.156364
0.270381
0.152785
0.334767
0.145136
0.312784
0.139635
0.16935
0.141206
-0.00434022
0.136849
-0.126576
0.12706
-0.247428
0.120968
-0.269276
0.122347
-0.266817
0.128191
-0.0994558
0.12825
0.0924609
0.134891
0.18691
0.140517
0.45562
0.132972
0.28589
-0.0412413
0.208331
0.00985517
0.211309
0.00714144
0.213769
0.00415616
0.215664
-0.000607847
0.215611
-0.00766473
0.213516
-0.0165835
0.208521
-0.0271669
0.200218
-0.0387112
0.18936
-0.0504299
0.177292
-0.0618568
0.165088
-0.0724439
0.153359
-0.081673
0.142554
-0.0894227
0.132899
-0.0955908
0.12423
-0.100314
0.11658
-0.103649
0.109685
-0.105195
0.102887
-0.105521
0.0968591
-0.104803
0.0915437
-0.101011
0.0842766
-0.0951479
0.0758091
-0.0894856
0.0735032
-0.0778316
0.0826125
-0.0471102
0.100145
0.000721385
0.119562
0.0485997
0.137923
0.0776161
0.156785
0.0922501
0.178768
0.113812
0.202607
0.163722
0.222227
0.230944
0.230628
0.27328
0.223878
0.251939
0.20492
0.156965
0.183374
0.0194338
0.164312
-0.0976665
0.147092
-0.16705
0.135844
-0.20642
0.131407
-0.198645
0.123469
-0.168503
0.111809
-0.151622
0.107673
-0.151962
0.118738
-0.113665
0.137108
-0.0131244
0.153153
0.12086
0.160957
0.262577
0.158824
0.336901
0.150584
0.321023
0.143397
0.176538
0.144419
-0.00536269
0.140408
-0.122565
0.129909
-0.236929
0.122559
-0.261926
0.123746
-0.268003
0.130738
-0.106448
0.130872
0.0923266
0.137745
0.180038
0.144261
0.449103
0.137172
0.292979
-0.0343299
0.205882
0.00824453
0.207011
0.00601244
0.207451
0.00371566
0.206958
-0.000115031
0.204988
-0.00569417
0.201178
-0.0127735
0.195242
-0.0212313
0.187326
-0.0307954
0.177995
-0.041099
0.167798
-0.0516597
0.157222
-0.0618672
0.146779
-0.0712303
0.136901
-0.0795452
0.12788
-0.0865691
0.119711
-0.0921458
0.112344
-0.0962824
0.105875
-0.0987253
0.0998552
-0.0995014
0.0942287
-0.0991761
0.0897993
-0.0965817
0.085412
-0.0907606
0.079406
-0.0834796
0.0754985
-0.0739242
0.0804012
-0.0520129
0.094644
-0.0135214
0.112296
0.0309478
0.129379
0.060533
0.147007
0.0746226
0.168716
0.0921029
0.194901
0.137537
0.218774
0.207071
0.231137
0.260918
0.227137
0.255939
0.209075
0.175027
0.185282
0.0432267
0.16556
-0.0779445
0.147562
-0.149052
0.134412
-0.193271
0.13002
-0.194252
0.124297
-0.16278
0.113037
-0.140362
0.106435
-0.14536
0.115565
-0.122795
0.1353
-0.0328595
0.154552
0.101609
0.16535
0.251779
0.164993
0.337257
0.156396
0.32962
0.14746
0.185475
0.147579
-0.00548262
0.144045
-0.11903
0.133011
-0.225895
0.124291
-0.253206
0.125065
-0.268777
0.133328
-0.114711
0.133636
0.0920181
0.140525
0.173149
0.147946
0.441682
0.141552
0.299373
-0.0276811
0.190187
0.00688832
0.190714
0.00548495
0.19094
0.00348959
0.190625
0.000200251
0.188864
-0.00393331
0.185684
-0.00959325
0.181
-0.0165473
0.174858
-0.024653
0.1674
-0.0336411
0.158885
-0.0431446
0.14974
-0.0527226
0.140478
-0.0619685
0.131526
-0.0705928
0.123134
-0.0781777
0.115448
-0.0844597
0.10848
-0.0893139
0.102295
-0.0925402
0.0968435
-0.0940503
0.0918123
-0.094145
0.0876256
-0.092395
0.0845724
-0.0877074
0.0812011
-0.0801083
0.0780882
-0.0708113
0.08018
-0.0541047
0.0899902
-0.0233316
0.105049
0.015889
0.12038
0.0452024
0.136112
0.05889
0.155663
0.0725526
0.180723
0.112477
0.206662
0.181131
0.224691
0.242889
0.226313
0.254317
0.210605
0.190735
0.187509
0.0663226
0.167113
-0.0575483
0.148465
-0.130403
0.133463
-0.178269
0.128323
-0.189112
0.124704
-0.15916
0.114368
-0.130026
0.10564
-0.136633
0.112165
-0.12932
0.131735
-0.0524294
0.153709
0.0796346
0.168311
0.237177
0.171141
0.334427
0.163186
0.337576
0.152212
0.196449
0.151021
-0.00429171
0.147865
-0.115875
0.136404
-0.214433
0.126246
-0.243048
0.126394
-0.268926
0.135876
-0.124193
0.136494
0.0914007
0.143136
0.166506
0.151438
0.43338
0.14603
0.304781
-0.0215073
0.203375
0.00588942
-0.202376
0.204823
0.00403701
0.206454
0.0018591
0.207846
-0.00119258
0.209078
-0.00516468
0.209768
-0.010283
0.209727
-0.0165068
0.208772
-0.0236982
0.206767
-0.031636
0.203688
-0.0400658
0.199626
-0.0486599
0.194684
-0.0570272
0.189004
-0.0649124
0.182662
-0.0718354
0.175785
-0.077583
0.168549
-0.0820783
0.161023
-0.0850134
0.153409
-0.0864363
0.145756
-0.086492
0.13776
-0.0843996
0.129974
-0.0799207
0.122263
-0.0723973
0.113359
-0.0619073
0.104833
-0.0455791
0.101145
-0.0196437
0.103811
0.0132226
0.111855
0.0371584
0.122984
0.0477613
0.1349
0.060636
0.147068
0.10031
0.159902
0.168297
0.172953
0.229838
0.18362
0.24365
0.190542
0.183814
0.192111
0.0647531
0.190476
-0.0559134
0.181988
-0.121915
0.168942
-0.165223
0.159218
-0.179388
0.150457
-0.150399
0.137427
-0.116997
0.124401
-0.123606
0.122136
-0.127055
0.129346
-0.0596396
0.138799
0.0701821
0.14475
0.231226
0.146911
0.332266
0.147146
0.337341
0.147946
0.195649
0.153992
-0.0103377
0.154898
-0.116781
0.144689
-0.204223
0.132274
-0.230634
0.127608
-0.26426
0.130779
-0.127365
0.127614
0.0945661
0.130384
0.163736
0.138511
0.425253
0.136486
0.306807
-0.0159081
0.213376
0.00527627
-0.212763
0.214204
0.00320868
0.215343
0.00072022
0.216472
-0.00232172
0.217368
-0.00606056
0.217767
-0.0106818
0.217474
-0.0162135
0.216345
-0.0225694
0.214278
-0.0295694
0.211211
-0.0369988
0.207162
-0.0446105
0.202166
-0.0520313
0.196325
-0.0590713
0.189817
-0.0653272
0.182801
-0.0705676
0.175541
-0.0748179
0.16818
-0.0776522
0.160708
-0.0789647
0.153366
-0.0791495
0.145897
-0.0769312
0.138338
-0.0723613
0.131401
-0.0654607
0.124701
-0.0552069
0.117936
-0.0388141
0.113476
-0.0151843
0.114645
0.0120538
0.121088
0.0307161
0.130913
0.0379357
0.141975
0.0495742
0.154386
0.0878992
0.168549
0.154134
0.183301
0.215086
0.195567
0.231384
0.203739
0.175641
0.206252
0.0622397
0.203909
-0.0535702
0.19459
-0.112596
0.180259
-0.150893
0.169342
-0.168471
0.160896
-0.141953
0.148572
-0.104672
0.134743
-0.109777
0.13102
-0.123332
0.138114
-0.0667341
0.149629
0.0586667
0.158098
0.222758
0.162519
0.327844
0.163955
0.335905
0.164164
0.19544
0.16928
-0.0154532
0.169499
-0.117001
0.157876
-0.1926
0.143378
-0.216136
0.137845
-0.258727
0.141982
-0.131501
0.138576
0.0979722
0.140649
0.161663
0.149779
0.416123
0.14876
0.307826
-0.010329
0.223116
0.00467542
-0.222516
0.223862
0.00246363
0.224684
-0.000102115
0.225458
-0.00309538
0.226
-0.00660276
0.226115
-0.0107972
0.225629
-0.0157277
0.224411
-0.021351
0.222373
-0.0275312
0.219451
-0.0340773