/*--------------------------------*- C++ -*----------------------------------*\
| =========                 |                                                 |
| \\      /  F ield         | OpenFOAM: The Open Source CFD Toolbox           |
|  \\    /   O peration     | Version:  2312                                  |
|   \\  /    A nd           | Website:  www.openfoam.com                      |
|    \\/     M anipulation  |                                                 |
\*---------------------------------------------------------------------------*/
FoamFile
{
    version     2.0;
    format      ascii;
    arch        "LSB;label=32;scalar=64";
    class       volScalarField;
    location    "6.5";
    object      p;
}
// * * * * * * * * * * * * * * * * * * * * * * * * * * * * * * * * * * * * * //

dimensions      [0 2 -2 0 0 0 0];

internalField   nonuniform List<scalar> 
2300
(
-0.415893
-0.40105
-0.38933
-0.385757
-0.390316
-0.392945
-0.378664
-0.341082
-0.282069
-0.219259
-0.440249
-0.421855
-0.405725
-0.386208
-0.367186
-0.346034
-0.318183
-0.281378
-0.238658
-0.198659
-0.481002
-0.450263
-0.418044
-0.380377
-0.342995
-0.308034
-0.274912
-0.241207
-0.206401
-0.170475
-0.504504
-0.474074
-0.418823
-0.364572
-0.317162
-0.276093
-0.239405
-0.206044
-0.175128
-0.145872
-0.516313
-0.477403
-0.40446
-0.337895
-0.28319
-0.238432
-0.201047
-0.169426
-0.141943
-0.116571
-0.287866
-0.33534
-0.39947
-0.46619
-0.512645
-0.521176
-0.482153
-0.39835
-0.28206
-0.147044
-0.361099
-0.397191
-0.457866
-0.524575
-0.579112
-0.607916
-0.595468
-0.525911
-0.411388
-0.252844
-0.418319
-0.436522
-0.48367
-0.54073
-0.595426
-0.636903
-0.643734
-0.590069
-0.482797
-0.33456
-0.428564
-0.424835
-0.441886
-0.472804
-0.509416
-0.547199
-0.562558
-0.525285
-0.43877
-0.319888
-0.415004
-0.398259
-0.389447
-0.401784
-0.430133
-0.455456
-0.456679
-0.420505
-0.352295
-0.267631
-0.0238911
0.0534313
0.0895725
0.0955829
0.0862081
0.0715291
0.0571654
0.0453629
0.0363354
0.0291317
0.0245317
0.0207401
0.0178534
0.0156472
0.0139291
0.0125619
0.0114395
0.0104767
0.00958811
0.00872895
0.00777202
0.00673251
0.00533579
0.00363941
0.00147088
-0.108345
-0.00035303
0.0573783
0.0759074
0.0743097
0.065454
0.0550107
0.0453928
0.0374207
0.031454
0.0259448
0.0218024
0.0187651
0.0164352
0.014608
0.0131463
0.0119427
0.0109082
0.00995606
0.00903146
0.00802502
0.0069163
0.00547933
0.00371772
0.00143646
-0.198684
-0.0838965
-0.00529747
0.0344577
0.048765
0.0499018
0.0457661
0.0400676
0.0345792
0.0298658
0.0255289
0.0219667
0.0191989
0.0169548
0.0151405
0.013653
0.0124053
0.0113189
0.0103166
0.00933578
0.00828769
0.00711819
0.0056439
0.00382146
0.00143002
-0.211921
-0.127652
-0.0590978
-0.00521836
0.0227064
0.0361022
0.0396362
0.0378589
0.0341784
0.0301771
0.0261208
0.0227856
0.0198233
0.0175644
0.015715
0.0141826
0.0128865
0.0117455
0.0106925
0.00965734
0.00856264
0.00733341
0.00582143
0.00393604
0.00145177
-0.204384
-0.156327
-0.105337
-0.0547565
-0.0175043
0.00677209
0.0209898
0.0271746
0.0285745
0.0275357
0.0253578
0.0227552
0.0203103
0.0180792
0.0162703
0.0147161
0.0133707
0.0121773
0.0110697
0.0099789
0.00884361
0.00755815
0.00601251
0.00406224
0.00151325
-0.183193
-0.158089
-0.105923
-0.0594444
-0.0248915
-0.00146193
0.0133694
0.0213169
0.0246357
0.0252432
0.024203
0.0222857
0.0201819
0.0183573
0.016622
0.0151085
0.0137639
0.0125515
0.0114106
0.0102874
0.00910645
0.00779029
0.00619023
0.00418907
0.00161479
-0.1348
-0.122523
-0.0864699
-0.0514701
-0.0244321
-0.00523341
0.00790802
0.0158666
0.0200925
0.0219682
0.022037
0.0209902
0.0195368
0.0180079
0.0166262
0.0152701
0.0140033
0.0128173
0.0116729
0.0105308
0.00931305
0.00796791
0.00631701
0.00428275
0.0016782
-0.103286
-0.10039
-0.0782892
-0.0514488
-0.0283243
-0.0104068
0.00244815
0.0106682
0.0158281
0.0190355
0.0202856
0.0200212
0.0191083
0.0180528
0.016729
0.0154827
0.0142744
0.0131081
0.0119584
0.0107938
0.00953169
0.00814838
0.00644229
0.00436323
0.00171959
-0.0734015
-0.0741143
-0.0613323
-0.0420193
-0.0243184
-0.00995609
0.000887019
0.00796253
0.0128091
0.016525
0.0184997
0.0188042
0.018357
0.0174861
0.0167047
0.015659
0.0145439
0.0134153
0.0122657
0.011078
0.0097732
0.00835093
0.00658987
0.00445925
0.00177024
-0.0469731
-0.0506932
-0.0450916
-0.0328001
-0.0202628
-0.00915021
9.02365e-05
0.00618415
0.0104598
0.0143203
0.0169674
0.0179254
0.017961
0.0179125
0.0168871
0.0159075
0.0148531
0.0137497
0.0125959
0.0113857
0.0100416
0.00857787
0.00676098
0.00457287
0.00182957
-0.0268095
-0.0312847
-0.0296421
-0.0224496
-0.0141032
-0.00602901
0.00136275
0.00619503
0.00951318
0.0129683
0.0157032
0.0168741
0.017067
0.0162662
0.0164532
0.0158577
0.0149931
0.0140017
0.0128955
0.0116909
0.0103206
0.00881718
0.00694531
0.00469528
0.00188662
-0.00979696
-0.0141747
-0.014807
-0.0111055
-0.006195
-0.000913176
0.00460263
0.00815704
0.0103865
0.0131663
0.0157985
0.017184
0.0177611
0.0185952
0.0175543
0.0167197
0.0157806
0.0146962
0.0134867
0.0121825
0.0107147
0.00913238
0.00717811
0.00485079
0.00196527
0.00308041
-0.00122005
-0.00306448
-0.0015276
0.000972944
0.00404655
0.00785463
0.0101435
0.011236
0.0130952
0.0151899
0.0163101
0.0165641
0.0159957
0.016264
0.0158939
0.0151789
0.0142847
0.013232
0.0120408
0.0106592
0.00911711
0.00721898
0.00484036
0.00195104
0.0167263
0.0131742
0.0106784
0.0105454
0.0109872
0.0121344
0.0144758
0.0156624
0.0156804
0.016554
0.0179955
0.0187998
0.0190321
0.0193973
0.0188632
0.0181716
0.0172875
0.0162057
0.0149467
0.0135485
0.0119478
0.0102245
0.00806926
0.00560895
0.0022939
0.0214217
0.0178613
0.0155432
0.0153988
0.0155322
0.0159532
0.0173481
0.0176812
0.0169276
0.0170284
0.0178129
0.0181412
0.0179599
0.0173124
0.0168866
0.0162482
0.0154184
0.0144462
0.0133346
0.0120743
0.010634
0.0089893
0.00703339
0.00456953
0.00177743
0.03547
0.0329076
0.0301924
0.0286213
0.0269172
0.0257562
0.0261788
0.0258601
0.0242386
0.0233122
0.0232409
0.0229077
0.0222155
0.0218269
0.0212086
0.0203837
0.0193578
0.0181441
0.0167769
0.0152383
0.0135379
0.0116557
0.00934758
0.00666436
0.00280031
0.0348077
0.031861
0.0294936
0.0287059
0.0278487
0.0270341
0.0271261
0.0263135
0.0244182
0.0232358
0.0228097
0.0221304
0.0210104
0.0197855
0.0186662
0.0175119
0.0163112
0.0150359
0.0137118
0.0122266
0.0106905
0.00885168
0.00686298
0.00449984
0.00163908
0.0479645
0.0456974
0.0430304
0.0409381
0.0386194
0.0366856
0.0360983
0.0349991
0.0326072
0.0305677
0.0293536
0.0281475
0.0268704
0.0255063
0.024187
0.0228091
0.0213895
0.0198141
0.0183003
0.0164007
0.014839
0.0124227
0.0103125
0.00735069
0.00271715
0.0455617
0.043382
0.0411604
0.0396799
0.0379092
0.0361887
0.0354398
0.0341474
0.0317591
0.0297115
0.0283218
0.0267955
0.0250036
0.0232768
0.0216336
0.0199855
0.01838
0.0166723
0.015136
0.0131948
0.0118155
0.00934474
0.00778697
0.00482506
0.0015542
0.0524578
0.0502741
0.0479078
0.0457704
0.0434173
0.0414595
0.0404124
0.0389126
0.0364171
0.0340712
0.032288
0.0305641
0.0286841
0.026797
0.0250125
0.0231461
0.0214889
0.019372
0.0181686
0.0152568
0.0152473
0.0107092
0.0107038
0.00647547
0.00184852
-0.0935397
-0.116842
-0.132045
-0.155931
-0.162103
-0.0717533
-0.0860146
-0.0961485
-0.108691
-0.118811
-0.0503406
-0.0584955
-0.0661565
-0.0750542
-0.0891923
-0.0328482
-0.0378258
-0.0449743
-0.0528377
-0.0636456
-0.0175378
-0.0215957
-0.0267463
-0.0315925
-0.0383633
-0.00457291
-0.00746008
-0.0100627
-0.0136067
-0.0193978
0.00717204
0.00489482
0.00335469
0.000186693
-0.00443778
0.0169239
0.0150608
0.0139243
0.0113395
0.00756555
0.0262097
0.0245911
0.0239254
0.0220549
0.0194404
0.033075
0.0317992
0.0312586
0.0288591
0.0251363
0.0421049
0.0407363
0.0401842
0.0387102
0.0369053
0.0453122
0.0438456
0.0431764
0.0409594
0.0376812
0.0548453
0.0536199
0.0529025
0.0513958
0.0494986
0.0550573
0.0532169
0.0521398
0.0502045
0.0475987
0.0608562
0.059461
0.0584009
0.0566305
0.054409
0.0728643
0.0751872
0.0758919
0.0742837
0.0684357
0.0564793
0.0338692
-0.00443259
-0.0660288
-0.185359
0.0348142
0.0309457
0.0225771
0.0104744
-0.00691365
-0.032083
-0.0698538
-0.127704
-0.206344
-0.347341
-0.00608127
-0.0160831
-0.0315199
-0.0511346
-0.0769931
-0.11228
-0.161491
-0.233388
-0.32615
-0.457481
-0.0454483
-0.0622694
-0.0829472
-0.107808
-0.139593
-0.181424
-0.237521
-0.315029
-0.410428
-0.515116
-0.0835937
-0.104612
-0.128877
-0.157576
-0.193197
-0.23805
-0.295902
-0.371133
-0.458326
-0.52662
0.208188
0.2318
0.259351
0.291516
0.328417
0.36986
0.414618
0.461313
0.502752
0.535494
0.200949
0.221751
0.24671
0.276239
0.309786
0.346707
0.385586
0.424884
0.456729
0.477827
0.182764
0.198025
0.21807
0.242515
0.269667
0.298131
0.325861
0.350766
0.362947
0.360956
0.155037
0.164533
0.178929
0.195979
0.213216
0.229211
0.241528
0.247291
0.234484
0.196618
0.115534
0.12014
0.130118
0.139297
0.145361
0.147118
0.141666
0.125279
0.0859464
0.00491199
0.0449317
0.045983
0.0477158
0.0510829
0.0541873
0.0607195
0.06487
0.074901
0.0821504
0.0946803
0.107529
0.123533
0.141375
0.162155
0.184912
0.0486107
0.0496072
0.0510522
0.054222
0.057049
0.0633782
0.0673457
0.0770011
0.0838924
0.0958819
0.108141
0.123733
0.140986
0.160702
0.180903
0.0522152
0.0531404
0.0543083
0.0572457
0.0598655
0.0659412
0.0698448
0.079416
0.0863353
0.0985538
0.109479
0.124044
0.138148
0.154787
0.169259
0.0557568
0.0565782
0.0574584
0.0603058
0.0625712
0.068157
0.0719097
0.0802669
0.0866067
0.0973713
0.1076
0.119993
0.130728
0.143013
0.149944
0.0592536
0.0598684
0.0603941
0.0628378
0.0651117
0.0705641
0.0744812
0.0827293
0.0895291
0.0999943
0.10771
0.117612
0.121492
0.126804
0.12122
0.0625995
0.0630245
0.0633548
0.066864
0.06737
0.072096
0.0758531
0.0824708
0.0884696
0.0956703
0.100752
0.105476
0.106194
0.0996919
0.0881883
0.0660833
0.0662572
0.0661421
0.0668168
0.069191
0.0733566
0.0765779
0.0812477
0.0866885
0.0902974
0.093854
0.0942413
0.0920935
0.0827261
0.0728878
0.0700902
0.0699129
0.0693351
0.0701589
0.0713214
0.0747243
0.0772305
0.0800832
0.0844977
0.0852931
0.0864137
0.0844446
0.0794876
0.069498
0.0594972
0.0746888
0.0741257
0.073021
0.0729799
0.0736156
0.0761449
0.0777135
0.0786541
0.0817297
0.0803124
0.0787017
0.0757462
0.0691387
0.0586622
0.0495026
0.0800215
0.079002
0.0772182
0.0767167
0.0762146
0.0777718
0.0781563
0.0773852
0.0790555
0.0758509
0.0721195
0.0687584
0.0617951
0.0513453
0.0432725
0.0862554
0.0846737
0.0820455
0.0802618
0.078926
0.0794379
0.0784608
0.0762236
0.0762414
0.0717424
0.0666509
0.0630929
0.056364
0.0464127
0.0393979
0.0935622
0.091239
0.0877179
0.0853184
0.0825971
0.0818325
0.0795415
0.0760282
0.0749361
0.0694822
0.0635814
0.0601373
0.0540767
0.0449836
0.0391316
0.102366
0.0990389
0.0939828
0.0890972
0.0858792
0.0840423
0.080373
0.0757798
0.0736306
0.0677698
0.061485
0.0582052
0.0527983
0.0446153
0.0398153
0.11296
0.108512
0.102706
0.0997036
0.0922
0.0883445
0.0835059
0.0779913
0.0750741
0.0690437
0.0628316
0.0598429
0.0550643
0.0477765
0.0438659
0.126442
0.119069
0.10994
0.102105
0.095908
0.0913952
0.0855521
0.0793963
0.0759263
0.0698716
0.0639458
0.0613245
0.0572105
0.0508764
0.047731
0.143904
0.134836
0.123894
0.115332
0.105673
0.0989857
0.0920919
0.0851542
0.080912
0.0748611
0.0688644
0.0661753
0.0624666
0.0566991
0.0538927
0.16581
0.147367
0.131274
0.119593
0.110318
0.102946
0.0953482
0.088041
0.08354
0.0776175
0.0719935
0.0694588
0.0659744
0.0608177
0.058427
0.208188
0.178553
0.155291
0.13929
0.125674
0.115377
0.10607
0.0976829
0.0918773
0.085613
0.0798706
0.0767118
0.073169
0.0685414
0.0660949
0.23819
0.187826
0.15998
0.143441
0.130151
0.118908
0.109088
0.100445
0.0942546
0.0882536
0.0826031
0.0791541
0.075805
0.0715832
0.069067
0.393786
0.238481
0.194259
0.168962
0.148761
0.132875
0.120128
0.109802
0.10211
0.0952534
0.089257
0.0850774
0.0812178
0.0771863
0.0745122
0.0679412
0.0335084
-0.00536086
-0.0379199
-0.0693493
0.0569874
0.0250168
-0.00945806
-0.0351922
-0.0562996
0.0470039
0.0224319
-0.00537517
-0.0254132
-0.0393734
0.0389032
0.019191
-0.0018565
-0.0172518
-0.0259211
0.0340331
0.0182726
0.00387495
-0.00676464
-0.0123747
0.0315399
0.0191823
0.00956976
0.00272463
-0.0010545
0.0327658
0.0231135
0.0165051
0.0122908
0.00974928
0.0347844
0.0272339
0.0227043
0.020322
0.0187823
0.0398809
0.0336894
0.030193
0.0287161
0.0277408
0.0446901
0.0396355
0.0367346
0.0354529
0.0344755
0.0514829
0.0470425
0.0442905
0.043569
0.0432253
0.0564074
0.0525655
0.0497277
0.0482456
0.0470284
0.0641269
0.0607092
0.0580798
0.0568689
0.0560479
0.0672307
0.0642231
0.0612884
0.0591783
0.0572785
0.0722921
0.0693368
0.0665592
0.0644318
0.0626153
-0.423076
-0.447019
-0.489112
-0.516915
-0.531885
-0.407906
-0.429202
-0.459263
-0.486985
-0.495557
-0.395172
-0.413907
-0.42975
-0.43463
-0.424762
-0.392259
-0.396031
-0.394196
-0.3821
-0.359447
-0.398716
-0.379044
-0.358358
-0.335758
-0.305435
-0.404238
-0.360046
-0.324708
-0.295682
-0.261305
-0.392834
-0.334014
-0.292794
-0.259949
-0.224573
-0.357145
-0.298558
-0.260268
-0.227593
-0.193773
-0.299139
-0.257125
-0.226643
-0.197755
-0.167438
-0.23666
-0.218447
-0.192202
-0.169851
-0.143336
-0.290933
-0.36743
-0.425171
-0.43596
-0.42319
-0.337958
-0.402326
-0.442052
-0.431229
-0.405717
-0.402182
-0.463244
-0.488933
-0.447432
-0.395356
-0.469578
-0.531471
-0.546944
-0.478308
-0.406945
-0.517478
-0.588964
-0.603767
-0.51638
-0.436457
-0.527568
-0.622051
-0.649341
-0.556588
-0.465253
-0.488358
-0.613997
-0.659852
-0.576438
-0.470289
-0.405393
-0.544576
-0.60733
-0.541284
-0.436271
-0.288975
-0.427317
-0.4979
-0.453359
-0.368392
-0.153337
-0.267736
-0.348434
-0.333032
-0.283383
-0.0295551
-0.122298
-0.212379
-0.224905
-0.219895
0.0498281
-0.0120731
-0.0980986
-0.141224
-0.170992
0.0861399
0.0468944
-0.0196785
-0.0735331
-0.12034
0.0922935
0.0665122
0.0209696
-0.0198748
-0.0700413
0.0833115
0.0658272
0.0366765
0.00874204
-0.0325499
0.0689099
0.058001
0.03918
0.0230532
-0.00798379
0.0550087
0.0486378
0.036447
0.0278164
0.00687985
0.0437395
0.0399992
0.0320969
0.0274583
0.0144459
0.0350451
0.0327058
0.0275885
0.0249336
0.017109
0.0283753
0.0267998
0.0234105
0.0217804
0.016943
0.0235574
0.0222943
0.0198973
0.0186109
0.0157603
0.0198587
0.0188173
0.0171046
0.0159881
0.0142322
0.0170562
0.0161641
0.0148968
0.0139323
0.0127399
0.0149221
0.0141441
0.0131524
0.0123285
0.0114359
0.0132756
0.0125943
0.0117867
0.0110862
0.0103668
0.011981
0.0113865
0.0107153
0.0101202
0.00951935
0.0109291
0.0104132
0.00985268
0.0093475
0.00883625
0.0100362
0.00959389
0.009126
0.0087002
0.00827061
0.00921387
0.00884005
0.00845173
0.00809863
0.00774111
0.00842097
0.00811704
0.00780684
0.00752489
0.0072311
0.00751503
0.0072646
0.00701891
0.00679784
0.00656204
0.00654655
0.00636634
0.00619331
0.00603847
0.00586107
0.00519242
0.00505343
0.00492509
0.00481401
0.00469404
0.00356527
0.00349489
0.00342902
0.00336712
0.00329934
0.00151072
0.00154815
0.00157067
0.00156428
0.00152056
-0.199309
-0.152821
-0.123562
-0.096663
-0.0744994
-0.0583335
-0.0461449
-0.0367434
-0.0332438
-0.02611
-0.0296722
-0.0221846
-0.02943
-0.0237566
-0.0283723
-0.173631
-0.139165
-0.11903
-0.0956134
-0.0759678
-0.060258
-0.0478123
-0.037815
-0.0339259
-0.0253607
-0.0294659
-0.0207679
-0.0283622
-0.02247
-0.027105
-0.122315
-0.104144
-0.0977936
-0.0827452
-0.0693587
-0.0570059
-0.0463183
-0.0369648
-0.0329996
-0.0245614
-0.0284264
-0.0197197
-0.0269775
-0.0213187
-0.0258253
-0.0762918
-0.0696789
-0.0716348
-0.0642326
-0.0576421
-0.0501045
-0.0427289
-0.0351987
-0.031844
-0.0242321
-0.0275463
-0.0195
-0.0259297
-0.0206323
-0.0246493
-0.0411802
-0.0418005
-0.0476299
-0.0455746
-0.0439789
-0.0404928
-0.036467
-0.0312532
-0.0291275
-0.0227725
-0.0256261
-0.0186602
-0.0243335
-0.0194348
-0.0231825
-0.0175755
-0.0226693
-0.0296152
-0.0307592
-0.0321483
-0.0314499
-0.0300102
-0.0269158
-0.0262142
-0.0212076
-0.0239306
-0.0180091
-0.0232387
-0.0185643
-0.0222719
-0.00258378
-0.00981353
-0.0172599
-0.0208369
-0.0240953
-0.0252715
-0.0255935
-0.0240799
-0.0245425
-0.0205048
-0.0235092
-0.0179808
-0.0231556
-0.0183965
-0.0219817
0.00656387
-0.00049437
-0.00754792
-0.0125014
-0.0167929
-0.0192999
-0.0208474
-0.0204976
-0.0218655
-0.0185515
-0.022072
-0.016694
-0.0221763
-0.0173448
-0.0209993
0.0113136
0.00559427
-0.000234954
-0.00516102
-0.00958527
-0.0128435
-0.0152437
-0.0158531
-0.0180243
-0.0154661
-0.0193793
-0.0144778
-0.0200864
-0.0155078
-0.0191914
0.0128844
0.00837084
0.0037563
-0.00054913
-0.00458365
-0.00800097
-0.0108338
-0.0121032
-0.0148963
-0.0130279
-0.0171879
-0.0128598
-0.0183299
-0.0140402
-0.0175926
0.0127886
0.00926807
0.00563645
0.00200107
-0.00154132
-0.00479759
-0.0077319
-0.00932983
-0.0125038
-0.0111543
-0.0155372
-0.0116306
-0.0170299
-0.0129113
-0.0163066
0.0120575
0.0094332
0.00664804
0.00370379
0.000709687
-0.00220475
-0.00502019
-0.00669765
-0.0100441
-0.00905209
-0.0136365
-0.0100577
-0.0155222
-0.0115469
-0.0148882
0.0111429
0.00922081
0.00711532
0.00480926
0.00236548
-0.000118307
-0.00267498
-0.00426856
-0.00762243
-0.00684778
-0.0115464
-0.00824719
-0.0137728
-0.00995245
-0.0132846
0.0102295
0.00879699
0.0071874
0.00538839
0.00341947
0.0013538
-0.000886951
-0.00230701
-0.00554297
-0.0048655
-0.00957518
-0.00648169
-0.0120119
-0.00832067
-0.0116215
0.00942737
0.0083337
0.00708465
0.00567237
0.00409029
0.00239014
0.000471596
-0.00074193
-0.00377966
-0.00311277
-0.00775258
-0.00478507
-0.0102888
-0.0066855
-0.0099572
0.00876867
0.00791968
0.00693823
0.00582211
0.00455273
0.00316315
0.00155217
0.000546481
-0.0022456
-0.00153219
-0.00603866
-0.00312681
-0.00857091
-0.0050106
-0.00821895
0.00822813
0.00755934
0.00677926
0.00589101
0.00487275
0.00374231
0.00241321
0.00159859
-0.000923184
-0.000130879
-0.00445788
-0.0015475
-0.0069158
-0.00336738
-0.00657315
0.00777395
0.00723874
0.00661238
0.0059023
0.00508512
0.00416925
0.00309146
0.00244271
0.00020345
0.00109157
-0.00301438
-4.97046e-05
-0.00527628
-0.00167889
-0.00470483
0.00733705
0.00690751
0.00640769
0.00584194
0.00518904
0.00445315
0.00359482
0.00308116
0.0011263
0.00210215
-0.00177121
0.00126005
-0.00387797
-0.000245028
-0.00343824
0.0068983
0.00655482
0.00615821
0.00570959
0.0051934
0.00461181
0.00394389
0.00354162
0.00187892
0.00294412
-0.000651986
0.00250941
-0.00234773
0.00142377
-0.00122801
0.0063071
0.00604463
0.00574093
0.00539658
0.00500074
0.00455425
0.00404868
0.00372219
0.00235132
0.00344349
9.76098e-05
0.00328809
-0.001586
0.00216685
-0.00131903
0.00565672
0.00545188
0.00521699
0.00495577
0.00465996
0.00433115
0.00396742
0.00372154
0.00265086
0.00381157
0.000799886
0.00416984
-6.32309e-05
0.00381909
0.00194585
0.0045668
0.00443368
0.00427575
0.00409807
0.00389376
0.00366621
0.0034171
0.00320252
0.00245645
0.00347804
0.000827564
0.00395172
-0.000337105
0.00342158
0.000142222
0.00322448
0.00313141
0.00302698
0.00291702
0.00279403
0.00266251
0.00252763
0.00241059
0.00188244
0.00297919
0.000691076
0.0036917
0.000658408
0.0034815
0.00286436
0.00146229
0.0014055
0.00134527
0.00129368
0.00123876
0.00118923
0.00114581
0.0011161
0.000970148
0.0014588
0.000485469
0.00213108
0.000690878
0.00273388
0.00172992
-0.121193
-0.101212
-0.0822687
-0.0673885
-0.0552021
-0.0457098
-0.0383723
-0.0330473
-0.029843
-0.0272037
-0.0279619
-0.0257373
-0.0300083
-0.0279774
-0.0314601
-0.142229
-0.113655
-0.0885579
-0.0705902
-0.0573534
-0.0467385
-0.038995
-0.0336483
-0.03023
-0.0277014
-0.0282483
-0.0257629
-0.0301819
-0.0274692
-0.0312942
-0.155447
-0.121565
-0.0947854
-0.0767359
-0.0617867
-0.0492306
-0.041051
-0.0352519
-0.0316237
-0.0288462
-0.0292824
-0.0262116
-0.0306562
-0.0273251
-0.031199
-0.17702
-0.132011
-0.102295
-0.0820395
-0.064038
-0.0505559
-0.0417809
-0.035081
-0.0314441
-0.0280521
-0.0290203
-0.0249939
-0.0301679
-0.0261545
-0.030342
-0.17982
-0.139798
-0.113017
-0.088998
-0.067802
-0.0531463
-0.0428385
-0.0348944
-0.0313774
-0.0265284
-0.0288059
-0.0232952
-0.0296329
-0.0247291
-0.0293004
0.0438514
0.00473866
-0.036506
-0.0753688
-0.112585
0.0464876
0.000623528
-0.0467786
-0.0918653
-0.132314
0.046646
-0.00807918
-0.0621616
-0.112129
-0.155672
0.0440734
-0.0205622
-0.0817689
-0.136823
-0.184024
0.0366722
-0.0388747
-0.107999
-0.168593
-0.21948
0.0224934
-0.0656275
-0.144305
-0.210937
-0.264194
-0.00307216
-0.105545
-0.194723
-0.267622
-0.321897
-0.0456075
-0.166742
-0.268272
-0.345393
-0.396441
-0.111652
-0.249655
-0.36361
-0.440822
-0.482059
-0.237261
-0.391705
-0.493326
-0.541826
-0.545882
0.204326
0.189705
0.164715
0.131325
0.0886055
0.227588
0.209945
0.179408
0.140515
0.0930915
0.254971
0.234549
0.199079
0.15454
0.102485
0.287084
0.263699
0.222882
0.170678
0.11049
0.323815
0.296501
0.248803
0.186349
0.114779
0.364893
0.332209
0.275443
0.20014
0.114155
0.409082
0.369385
0.300708
0.209543
0.10558
0.454987
0.406385
0.3223
0.211442
0.0850081
0.495309
0.435015
0.329748
0.193423
0.0408214
0.526579
0.452008
0.321338
0.147039
-0.0489223
0.0411866
0.0373961
0.0335754
0.0297262
0.0258573
0.042281
0.038532
0.0347863
0.0311106
0.027459
0.0442873
0.0408269
0.0373815
0.0339907
0.0308228
0.0478542
0.0444817
0.0411257
0.037592
0.035176
0.0512396
0.0482445
0.0454489
0.0424979
0.0402169
0.0579174
0.0547614
0.0517489
0.0483157
0.045845
0.0620965
0.0591136
0.0564942
0.0536154
0.0518926
0.0723827
0.0692406
0.0668014
0.0627355
0.0608078
0.0794621
0.0758206
0.0727521
0.0684393
0.0661032
0.0920039
0.0882434
0.0856996
0.08017
0.0775814
0.104586
0.099813
0.095415
0.0885054
0.0837842
0.120905
0.115568
0.110561
0.100837
0.0939465
0.138275
0.131384
0.122631
0.110248
0.0962362
0.159115
0.150953
0.139102
0.122279
0.101294
0.181558
0.170429
0.152364
0.12718
0.0940398
0.0221687
0.0183726
0.0139763
0.00884338
0.0028136
-0.00427826
-0.0126847
-0.0227909
-0.0348328
-0.0498558
-0.0682974
-0.0908558
-0.130077
-0.152667
-0.291701
0.0238851
0.0202374
0.0159667
0.0109705
0.00512256
-0.00178219
-0.00983469
-0.0194443
-0.0309274
-0.0438699
-0.0615816
-0.0768465
-0.107266
-0.118045
-0.160895
0.0273709
0.0239381
0.0198674
0.015064
0.00943881
0.00278595
-0.00501335
-0.0139754
-0.0250775
-0.0363198
-0.0526167
-0.0652221
-0.0899917
-0.0975224
-0.132053
0.0316411
0.028184
0.0239708
0.0190949
0.0133745
0.00689354
-0.000980948
-0.00919363
-0.0200925
-0.0299115
-0.0447921
-0.0555401
-0.0753561
-0.0833539
-0.105974
0.0370716
0.0337618
0.0297841
0.0250402
0.0193866
0.0128031
0.00499104
-0.00350126
-0.0138036
-0.0237479
-0.0368892
-0.0471891
-0.0633743
-0.0708849
-0.0859945
0.0423201
0.0383281
0.0334694
0.0279518
0.0216727
0.0146939
0.0067839
-0.00161709
-0.0113886
-0.0207472
-0.0325236
-0.0416678
-0.0552856
-0.0615405
-0.0724435
0.0487966
0.044759
0.0399464
0.0342614
0.0274945
0.0198104
0.0111372
0.00212165
-0.00790942
-0.0171501
-0.0283127
-0.0367079
-0.0486925
-0.0543188
-0.0628821
0.0562034
0.0506682
0.0444162
0.0374014
0.0296791
0.0213648
0.0124108
0.00336524
-0.0063601
-0.0151585
-0.0254706
-0.0331005
-0.0438001
-0.0487887
-0.05604
0.0606066
0.0546184
0.0473572
0.039043
0.029776
0.0201107
0.0103752
0.00116639
-0.0081456
-0.0162882
-0.0253947
-0.0321746
-0.0412197
-0.045436
-0.0514182
0.0699204
0.0603418
0.0507705
0.0410485
0.0307873
0.0206144
0.0106428
0.00149017
-0.00751129
-0.0151319
-0.0235753
-0.0297664
-0.037998
-0.0420173
-0.0473282
0.0746259
0.0638422
0.0524636
0.0405618
0.0290607
0.0186381
0.00879154
0.000180171
-0.00813486
-0.0150457
-0.0226501
-0.0281881
-0.0357792
-0.0392207
-0.0441811
0.0782402
0.0629779
0.0486778
0.0350076
0.0227323
0.0121139
0.00264041
-0.00503757
-0.0122502
-0.0180708
-0.0244142
-0.0290961
-0.0354317
-0.0381067
-0.0423045
0.0778528
0.0609732
0.0448665
0.0305746
0.0181733
0.00790935
-0.000798099
-0.00753596
-0.0137776
-0.0186503
-0.0241203
-0.0282231
-0.0338528
-0.0364068
-0.0401743
0.0728926
0.0528945
0.0374584
0.0245704
0.0133994
0.00466679
-0.00277194
-0.00832661
-0.0136515
-0.0177194
-0.0226222
-0.0262673
-0.031873
-0.0342027
-0.0381038
0.0585838
0.0409488
0.0257788
0.013165
0.00342025
-0.00346295
-0.00922148
-0.0130957
-0.0171132
-0.0200579
-0.0240249
-0.0269391
-0.0319095
-0.0335919
-0.0371713
0.0371149
0.0251505
0.0131493
0.00208318
-0.00607406
-0.0114825
-0.0156119
-0.0178033
-0.0204217
-0.0220939
-0.0251431
-0.0273187
-0.0316468
-0.0330718
-0.0362041
0.00280508
-0.00625466
-0.0101129
-0.0142264
-0.0171854
-0.0189558
-0.0204538
-0.0205721
-0.021666
-0.0220894
-0.0244682
-0.0259065
-0.0301688
-0.0315054
-0.0346551
-0.0360074
-0.0406532
-0.0381441
-0.0358113
-0.0327264
-0.0295016
-0.0272863
-0.0248418
-0.0241553
-0.0233643
-0.0251572
-0.025416
-0.0296805
-0.0302855
-0.0334928
-0.0684537
-0.0665776
-0.0588993
-0.0531967
-0.0459934
-0.0394837
-0.0342567
-0.0297585
-0.0274201
-0.0255417
-0.0267834
-0.0258932
-0.0299702
-0.0296553
-0.0327378
-0.0987855
-0.0869729
-0.0726403
-0.0617527
-0.0516383
-0.0438837
-0.0375667
-0.0325199
-0.029568
-0.0269909
-0.0279106
-0.0261675
-0.0301754
-0.02897
-0.0320628
)
;

boundaryField
{
    outlet
    {
        type            fixedValue;
        value           uniform 0;
    }
    upperWall
    {
        type            symmetryPlane;
    }
    lowerWall
    {
        type            symmetryPlane;
    }
    inlet
    {
        type            zeroGradient;
    }
    cylinder
    {
        type            zeroGradient;
    }
    frontAndBack
    {
        type            empty;
    }
}


// ************************************************************************* //
