/*--------------------------------*- C++ -*----------------------------------*\
| =========                 |                                                 |
| \\      /  F ield         | OpenFOAM: The Open Source CFD Toolbox           |
|  \\    /   O peration     | Version:  2312                                  |
|   \\  /    A nd           | Website:  www.openfoam.com                      |
|    \\/     M anipulation  |                                                 |
\*---------------------------------------------------------------------------*/
FoamFile
{
    version     2.0;
    format      ascii;
    arch        "LSB;label=32;scalar=64";
    class       volScalarField;
    location    "46.5";
    object      p;
}
// * * * * * * * * * * * * * * * * * * * * * * * * * * * * * * * * * * * * * //

dimensions      [0 2 -2 0 0 0 0];

internalField   nonuniform List<scalar> 
5478
(
-0.464486
-0.460753
-0.456027
-0.45195
-0.450421
-0.451955
-0.455366
-0.458272
-0.457886
-0.451561
-0.437962
-0.415937
-0.38846
-0.353276
-0.314216
-0.470669
-0.466734
-0.461375
-0.456225
-0.452486
-0.449771
-0.446563
-0.441014
-0.431442
-0.416941
-0.397374
-0.373833
-0.347218
-0.317712
-0.288642
-0.481604
-0.476664
-0.470522
-0.463732
-0.456275
-0.447295
-0.436126
-0.422261
-0.405506
-0.386045
-0.3645
-0.34118
-0.316564
-0.290753
-0.264379
-0.497423
-0.490747
-0.482706
-0.47278
-0.459493
-0.442937
-0.424083
-0.403744
-0.3824
-0.360393
-0.33776
-0.314704
-0.291353
-0.26777
-0.245146
-0.518253
-0.508489
-0.49757
-0.482169
-0.461083
-0.436724
-0.411466
-0.386439
-0.362012
-0.338166
-0.31488
-0.292091
-0.269649
-0.24782
-0.226453
-0.544588
-0.52955
-0.514168
-0.490437
-0.460236
-0.428555
-0.398032
-0.369421
-0.342687
-0.317604
-0.293884
-0.271277
-0.249664
-0.228997
-0.208935
-0.574199
-0.553198
-0.529398
-0.494733
-0.455293
-0.417162
-0.382343
-0.350934
-0.322487
-0.296497
-0.272545
-0.250309
-0.22952
-0.210025
-0.191143
-0.601574
-0.575733
-0.539186
-0.4921
-0.444235
-0.400746
-0.362526
-0.329012
-0.299391
-0.27296
-0.249133
-0.227475
-0.207749
-0.189661
-0.172607
-0.39108
-0.392341
-0.393329
-0.395602
-0.399339
-0.404366
-0.41048
-0.417349
-0.42442
-0.430849
-0.434584
-0.435623
-0.432153
-0.423489
-0.408755
-0.409923
-0.410826
-0.412502
-0.416427
-0.422734
-0.431382
-0.442318
-0.455291
-0.469669
-0.484173
-0.496641
-0.505713
-0.507666
-0.501003
-0.48187
-0.427277
-0.427531
-0.429459
-0.434616
-0.442866
-0.454325
-0.469062
-0.486903
-0.507162
-0.528354
-0.547784
-0.563157
-0.566027
-0.559882
-0.531389
-0.441351
-0.440521
-0.442487
-0.447827
-0.45675
-0.469413
-0.485907
-0.506035
-0.528976
-0.553032
-0.574348
-0.590254
-0.591763
-0.581961
-0.546658
-0.451253
-0.449314
-0.45044
-0.454855
-0.462949
-0.474949
-0.490918
-0.510594
-0.532886
-0.555748
-0.575122
-0.587859
-0.584718
-0.567681
-0.527827
-0.457096
-0.454216
-0.453862
-0.456284
-0.462186
-0.471944
-0.485601
-0.502675
-0.522029
-0.54136
-0.555786
-0.561393
-0.551489
-0.527694
-0.484604
-0.459939
-0.456495
-0.454381
-0.454201
-0.457177
-0.463984
-0.474673
-0.488729
-0.504012
-0.516664
-0.522801
-0.518641
-0.500633
-0.471934
-0.428771
-0.461614
-0.457981
-0.454262
-0.451657
-0.451967
-0.456175
-0.464066
-0.473689
-0.482232
-0.485743
-0.481605
-0.466723
-0.441738
-0.408938
-0.369106
-0.38747
-0.361158
-0.342576
-0.337464
-0.352061
-0.388559
-0.437759
-0.477629
-0.473558
-0.407506
-0.314411
-0.241724
-0.215163
-0.219932
-0.258669
-0.33584
-0.397383
-0.380106
-0.299544
-0.218929
-0.169877
-0.145055
-0.144403
-0.150579
-0.138756
-0.113262
-0.0869671
-0.0685801
-0.0563184
-0.049753
-0.0471166
-0.0449349
-0.0393982
-0.0308287
-0.0219234
-0.0138941
-0.00744396
-0.00192422
-0.451361
-0.407056
-0.367195
-0.336775
-0.32401
-0.336325
-0.370328
-0.407519
-0.411528
-0.361958
-0.287105
-0.233996
-0.223052
-0.237019
-0.282992
-0.365664
-0.429391
-0.408788
-0.319913
-0.226955
-0.164794
-0.130288
-0.121309
-0.123455
-0.116187
-0.0980831
-0.0790825
-0.0661446
-0.0571497
-0.0527447
-0.0509634
-0.0481476
-0.0414545
-0.0319469
-0.0225597
-0.0142759
-0.00768138
-0.00204054
-0.493183
-0.436905
-0.376374
-0.323036
-0.284522
-0.269065
-0.280786
-0.311359
-0.322979
-0.293391
-0.243537
-0.216835
-0.221892
-0.242131
-0.292887
-0.382032
-0.448027
-0.428905
-0.333393
-0.230734
-0.158283
-0.116238
-0.0998867
-0.0970413
-0.093423
-0.0824753
-0.0711168
-0.0637038
-0.0581255
-0.0558445
-0.054782
-0.0510918
-0.043267
-0.0329018
-0.0231143
-0.014628
-0.00791082
-0.00215653
-0.497356
-0.436396
-0.365587
-0.296609
-0.236991
-0.196891
-0.186281
-0.20754
-0.219028
-0.213319
-0.192476
-0.191064
-0.208666
-0.231293
-0.282628
-0.37756
-0.44895
-0.434258
-0.339179
-0.230896
-0.151752
-0.104003
-0.0806326
-0.0722481
-0.0711604
-0.0664875
-0.0632455
-0.0612006
-0.059069
-0.0589076
-0.05848
-0.0536764
-0.0447951
-0.03368
-0.0235782
-0.0149428
-0.00812683
-0.00226766
-0.469486
-0.41157
-0.341721
-0.263937
-0.19281
-0.137696
-0.101632
-0.1157
-0.12083
-0.12883
-0.134926
-0.155194
-0.182472
-0.204963
-0.252874
-0.35203
-0.4332
-0.429494
-0.339621
-0.228397
-0.145041
-0.0939212
-0.0648897
-0.0508839
-0.0480775
-0.0505394
-0.0552937
-0.058409
-0.0599897
-0.0619431
-0.0619928
-0.0563058
-0.0460535
-0.0342825
-0.0239492
-0.0152166
-0.00832772
-0.00237082
-0.424047
-0.37526
-0.318597
-0.248828
-0.176942
-0.109482
-0.0592435
-0.0453113
-0.0422361
-0.0489073
-0.0697379
-0.105021
-0.139128
-0.162292
-0.20795
-0.306151
-0.396402
-0.403074
-0.326774
-0.221789
-0.138558
-0.0855374
-0.0531138
-0.0344188
-0.0285234
-0.0358572
-0.0476095
-0.0555595
-0.0607281
-0.0647392
-0.0651161
-0.0583574
-0.047012
-0.0347022
-0.0242296
-0.015453
-0.00851957
-0.00246696
-0.374807
-0.338875
-0.294017
-0.235894
-0.174456
-0.114017
-0.0539539
-0.00663142
0.0144048
0.0209039
0.00712992
-0.0384078
-0.0800634
-0.108608
-0.159811
-0.263831
-0.359727
-0.382455
-0.31743
-0.217796
-0.135466
-0.0803483
-0.046047
-0.0240193
-0.0143763
-0.0226328
-0.0394822
-0.0518946
-0.0611854
-0.0674283
-0.0679251
-0.0602225
-0.0477171
-0.0349837
-0.0244483
-0.0156646
-0.00870708
-0.00255717
-0.335204
-0.313964
-0.280223
-0.235914
-0.186484
-0.136679
-0.0833568
-0.0316318
0.00869878
0.039744
0.0540932
0.0228541
-0.0198372
-0.0540245
-0.107858
-0.208318
-0.305259
-0.33436
-0.291894
-0.209455
-0.133063
-0.077328
-0.041286
-0.0170627
-0.00514403
-0.0133764
-0.0324759
-0.0482143
-0.0612032
-0.0695124
-0.0699741
-0.0613927
-0.0481219
-0.0350929
-0.0245325
-0.0157875
-0.00884007
-0.00262225
-0.294195
-0.28955
-0.255675
-0.212835
-0.167236
-0.121594
-0.0751228
-0.0263283
0.0142075
0.0513346
0.0845593
0.0770212
0.0368558
-0.00136654
-0.0611701
-0.17338
-0.275211
-0.306568
-0.258011
-0.18153
-0.113013
-0.0633766
-0.0308182
-0.00845467
0.00323031
-0.00225236
-0.0240921
-0.0430484
-0.0603755
-0.0716399
-0.0724628
-0.0621048
-0.047723
-0.0345994
-0.0242404
-0.0157042
-0.00885605
-0.00264346
-0.24573
-0.245911
-0.216998
-0.178575
-0.138683
-0.0995306
-0.0613677
-0.0200621
0.0195281
0.053488
0.085205
0.0836597
0.0506252
0.0161087
-0.0435709
-0.153501
-0.246903
-0.264065
-0.216238
-0.151015
-0.093142
-0.0507096
-0.0214151
-0.00122843
0.00873121
-0.000618431
-0.0190028
-0.0391602
-0.0598458
-0.0735228
-0.0738213
-0.0615258
-0.0466955
-0.0337968
-0.0237988
-0.0155514
-0.00883085
-0.00265806
-0.208271
-0.21015
-0.188263
-0.156531
-0.122641
-0.0887148
-0.0554093
-0.0201354
0.0149701
0.0438003
0.0736965
0.0758856
0.0468381
0.0144438
-0.0391853
-0.132027
-0.205289
-0.213944
-0.174602
-0.123142
-0.0750263
-0.0389145
-0.0129945
0.00606406
0.0142858
0.00400762
-0.0151352
-0.0365997
-0.0594661
-0.0747731
-0.0740773
-0.0602024
-0.0452419
-0.0327861
-0.0232459
-0.0153432
-0.00878123
-0.00267292
-0.175196
-0.176734
-0.160628
-0.134354
-0.105114
-0.0755254
-0.0467474
-0.0143139
0.0122144
0.0351351
0.0581572
0.0621379
0.0395514
0.0111756
-0.0305065
-0.0977008
-0.153217
-0.161863
-0.132997
-0.094096
-0.0565602
-0.026994
-0.00480841
0.0132565
0.0202875
0.00741674
-0.0109155
-0.0340005
-0.0583943
-0.0751651
-0.0725409
-0.0578604
-0.0432252
-0.0314837
-0.022529
-0.0150499
-0.00869016
-0.00267959
-0.143753
-0.146645
-0.135447
-0.11462
-0.0907948
-0.0664022
-0.0424603
-0.017605
0.00585448
0.0248499
0.0420369
0.0477664
0.0332447
0.0109782
-0.0188865
-0.0644906
-0.103263
-0.114066
-0.0974131
-0.0709623
-0.0422386
-0.0167825
0.00292257
0.0210483
0.0302767
0.0216039
-0.000193045
-0.0283262
-0.0566523
-0.0739525
-0.0693582
-0.0544311
-0.0406907
-0.0299256
-0.0216675
-0.0146752
-0.00855839
-0.00267791
-0.11784
-0.121594
-0.113438
-0.0971468
-0.078061
-0.0582811
-0.0387225
-0.0191773
-0.000270002
0.0154095
0.0283707
0.034404
0.0263764
0.0104288
-0.01048
-0.0399032
-0.066578
-0.0783139
-0.0693688
-0.0496946
-0.0273629
-0.00663237
0.0103452
0.0274505
0.040887
0.0409236
0.0170843
-0.0194309
-0.0541074
-0.0698895
-0.0638058
-0.0499117
-0.0376726
-0.0281179
-0.0206561
-0.0142085
-0.00837794
-0.00266265
-0.0960443
-0.0993406
-0.0937664
-0.0815495
-0.0666571
-0.0510912
-0.0356437
-0.0204558
-0.00561004
0.00707826
0.0169248
0.022235
0.0186159
0.00825557
-0.00589256
-0.0246767
-0.042616
-0.0509099
-0.0462406
-0.0329556
-0.0165227
0.000522477
0.0164891
0.0329974
0.0494786
0.0543739
0.0307563
-0.0104517
-0.0483124
-0.061624
-0.0559173
-0.0445203
-0.0342956
-0.0261127
-0.0195142
-0.013653
-0.00814926
-0.00263311
-0.0764162
-0.079674
-0.0763883
-0.0676243
-0.0563316
-0.0443893
-0.0324794
-0.0208088
-0.00948946
0.000405863
0.00803316
0.0125294
0.0115464
0.0054869
-0.00372907
-0.0153627
-0.0256855
-0.0322101
-0.029929
-0.0201344
-0.00684394
0.00730983
0.0215043
0.0367665
0.0530065
0.0582527
0.0369632
-0.00160046
-0.0365778
-0.0494022
-0.0466435
-0.0386871
-0.0307112
-0.0239531
-0.0182529
-0.0130065
-0.00786898
-0.00258767
-0.0591053
-0.0627608
-0.0612279
-0.055152
-0.0468316
-0.0378855
-0.0289052
-0.0201172
-0.0116614
-0.00410238
0.00182473
0.00552356
0.00589637
0.00278982
-0.00277124
-0.0100727
-0.0184569
-0.0197108
-0.017205
-0.00984597
0.000403701
0.0116987
0.0238584
0.0376109
0.0516232
0.0555236
0.0382716
0.00655353
-0.0232293
-0.0366381
-0.0374695
-0.032891
-0.027091
-0.0217089
-0.0168999
-0.0122737
-0.00753265
-0.0025201
-0.0448047
-0.048389
-0.0479248
-0.0438747
-0.0379321
-0.0313896
-0.0247971
-0.0183448
-0.0121467
-0.00653882
-0.00202275
0.00101078
0.00204314
0.000903603
-0.0019258
-0.00579067
-0.00947892
-0.0103223
-0.00823285
-0.00271006
0.00541243
0.0146733
0.0247111
0.0359094
0.0464503
0.0490867
0.0361932
0.011641
-0.0125912
-0.0258872
-0.0292472
-0.0273998
-0.023519
-0.0194021
-0.0154611
-0.0114635
-0.00714834
-0.00243862
-0.0324012
-0.0356903
-0.0360103
-0.0335549
-0.0295081
-0.0248908
-0.020196
-0.0155881
-0.011158
-0.00710418
-0.00371711
-0.00125244
2.21897e-05
3.37028e-05
-0.000962026
-0.00251261
-0.00384393
-0.00384743
-0.0018631
0.00249095
0.00883044
0.0161401
0.0240054
0.0324489
0.0397379
0.0412016
0.0317147
0.0134476
-0.00543432
-0.0174998
-0.0222005
-0.0222757
-0.0199976
-0.0170561
-0.0139646
-0.0105929
-0.00672338
-0.00233641
-0.0214194
-0.0245782
-0.0254966
-0.0242171
-0.0216048
-0.0184817
-0.015262
-0.0120843
-0.00901271
-0.00615053
-0.00367616
-0.00173776
-0.000449752
0.00013694
0.000163221
-7.14795e-05
-0.000113439
0.000499073
0.0024183
0.00586242
0.0106938
0.0162499
0.0221527
0.0281846
0.0328347
0.0334016
0.0265059
0.0132699
-0.00105411
-0.0113162
-0.0164287
-0.0177191
-0.016734
-0.0148019
-0.0124706
-0.00967973
-0.00626042
-0.00222461
-0.0118186
-0.0147924
-0.0160721
-0.0156366
-0.0141058
-0.012112
-0.0100064
-0.00791382
-0.00587829
-0.00395625
-0.00223997
-0.00080542
0.000309466
0.00110769
0.00170171
0.00221639
0.00278299
0.00371056
0.00549587
0.0081933
0.0117971
0.0159601
0.0202528
0.0242466
0.0269038
0.0267095
0.0217291
0.0124055
0.00185559
-0.00658925
-0.0115992
-0.0135735
-0.0135258
-0.0124024
-0.0108796
-0.00869772
-0.00575124
-0.00209596
-0.00355637
-0.00627521
-0.00774165
-0.00788457
-0.00713606
-0.00598423
-0.00472405
-0.00346585
-0.00223556
-0.00105814
3.11507e-05
0.000994917
0.00182437
0.00253669
0.00316775
0.00378219
0.0045273
0.00562483
0.00713849
0.00916786
0.0117644
0.0146464
0.0175463
0.0200185
0.0216657
0.021132
0.0174592
0.0108551
0.00312315
-0.00351429
-0.00793986
-0.0101722
-0.0108328
-0.0104919
-0.00951669
-0.00781797
-0.0052841
-0.00197614
0.00407975
0.00157646
2.71801e-06
-0.000543486
-0.000363145
0.000168202
0.000806348
0.00145395
0.00209174
0.00271626
0.00331907
0.00389399
0.0044548
0.00502421
0.00563757
0.00631864
0.00710611
0.00803693
0.00911746
0.0105387
0.0122794
0.014186
0.0159605
0.0173239
0.017896
0.017094
0.0143702
0.0097818
0.00427266
-0.000935984
-0.00477346
-0.00689631
-0.00792472
-0.00836022
-0.00789044
-0.00672178
-0.00467514
-0.0017983
0.0103169
0.00803156
0.00642025
0.0055908
0.00533944
0.00538282
0.00552318
0.00567317
0.00581627
0.00595621
0.00609773
0.00624944
0.00642865
0.00665692
0.00695977
0.00733977
0.0078171
0.00842734
0.00921141
0.0102105
0.0113846
0.0125771
0.0136211
0.0143316
0.0144634
0.0136132
0.011509
0.00821779
0.0040767
0.000253722
-0.0028099
-0.00528201
-0.00641911
-0.00669764
-0.00685215
-0.00606556
-0.00438774
-0.00180756
0.0169046
0.0148623
0.0132837
0.0122851
0.011738
0.011437
0.0112263
0.0110316
0.01084
0.0106552
0.0104917
0.0103597
0.0102817
0.0102813
0.0103689
0.0105471
0.0108034
0.0111227
0.0115165
0.0119597
0.0124371
0.0129006
0.0132637
0.0133197
0.0129421
0.0119515
0.0102206
0.00800733
0.00491297
0.00198005
-0.000461371
-0.00190855
-0.00336
-0.00442802
-0.00492244
-0.00466784
-0.00347265
-0.00145779
0.021018
0.0191167
0.0175525
0.016422
0.0156376
0.0150468
0.0145289
0.014022
0.0135121
0.0130059
0.0125164
0.0120578
0.011652
0.0113149
0.0110662
0.0109046
0.0108216
0.0108187
0.0108843
0.0110067
0.0111736
0.0112901
0.0112755
0.0110371
0.0104945
0.00951425
0.0080883
0.00581792
0.00401956
0.00198972
0.000115494
-0.00156407
-0.0028417
-0.00336888
-0.00397373
-0.00447211
-0.00344106
-0.00167438
0.0272329
0.0256276
0.0241505
0.022925
0.0219353
0.0210995
0.0203379
0.019601
0.0188751
0.0181588
0.0174612
0.0167907
0.0161641
0.0155994
0.0151063
0.0146824
0.0143176
0.0139875
0.0136906
0.0133982
0.0130934
0.012723
0.0122787
0.0116595
0.010851
0.00976542
0.00835848
0.00705962
0.00524495
0.00358729
0.00211772
0.0008255
-5.30876e-05
-0.000938764
-0.00182818
-0.00207202
-0.0021089
-0.00119653
0.0289759
0.0273867
0.0259736
0.0247766
0.0237463
0.022804
0.02189
0.0209738
0.0200526
0.0191341
0.0182297
0.0173488
0.0165053
0.0157114
0.0149835
0.0143239
0.0137277
0.0131802
0.0126727
0.0121833
0.0117115
0.011189
0.0105977
0.00987946
0.00900965
0.00797006
0.00683702
0.00541792
0.00414893
0.00290643
0.00185778
0.00107248
0.000384301
-0.000333673
-0.0011512
-0.00160011
-0.00183928
-0.00137817
0.034498
0.0332091
0.0318776
0.0305879
0.029369
0.0282117
0.0270954
0.026
0.024919
0.0238497
0.022796
0.0217591
0.0207462
0.0197664
0.018833
0.0179497
0.0171156
0.0163092
0.0155327
0.0147567
0.0140005
0.0131937
0.0123359
0.0113749
0.0103332
0.00915275
0.00788411
0.00654292
0.00539597
0.0043008
0.00344565
0.00278061
0.00209194
0.00164196
0.000814954
0.000138779
-0.000815164
-0.000973931
0.0345782
0.0332917
0.0320511
0.030857
0.0296948
0.028545
0.0273933
0.0262346
0.0250671
0.0238991
0.0227389
0.0215928
0.0204765
0.0193814
0.0183285
0.01731
0.016336
0.0154136
0.0145204
0.0136485
0.0128136
0.0119361
0.0110947
0.0101861
0.00917908
0.0081602
0.00705779
0.00582432
0.00478304
0.00373181
0.0027356
0.00217941
0.00160455
0.00134692
0.000606957
0.000733224
0.000573208
-0.000396546
0.0374455
0.036274
0.0350513
0.0337997
0.0325375
0.0312741
0.0300161
0.0287643
0.0275208
0.0262832
0.0250555
0.0238362
0.0226373
0.0214578
0.0203132
0.0191986
0.0181263
0.0170861
0.0160884
0.0151055
0.014155
0.0131845
0.0122243
0.0111997
0.0101359
0.00898133
0.00781248
0.00655931
0.00545706
0.00432665
0.00356742
0.00311671
0.00257815
0.00237265
0.00188721
0.00174129
0.000984106
-0.00022837
-0.155958
-0.171582
-0.187753
-0.202978
-0.220904
-0.235474
-0.254876
-0.270915
-0.138831
-0.151041
-0.164011
-0.175742
-0.189706
-0.19992
-0.211006
-0.222997
-0.121466
-0.130557
-0.140007
-0.148863
-0.158127
-0.165153
-0.173626
-0.187841
-0.10504
-0.111816
-0.118443
-0.125289
-0.131924
-0.13985
-0.1491
-0.161163
-0.0894602
-0.0945848
-0.0994809
-0.105513
-0.111743
-0.119678
-0.125945
-0.132931
-0.0751552
-0.0791067
-0.0829302
-0.0881447
-0.0929332
-0.0979369
-0.101193
-0.107228
-0.0618552
-0.064783
-0.0675199
-0.0711801
-0.074149
-0.0774534
-0.0809402
-0.0875525
-0.0494398
-0.0514299
-0.0532177
-0.0557592
-0.0582199
-0.0616716
-0.0655502
-0.0702601
-0.0379168
-0.0392818
-0.0406299
-0.042822
-0.0452563
-0.048133
-0.0505021
-0.0536836
-0.0273803
-0.0284142
-0.0295156
-0.0312248
-0.032969
-0.034853
-0.0367244
-0.0398852
-0.0177146
-0.0184774
-0.0192625
-0.0204815
-0.0218676
-0.0236128
-0.0255892
-0.0283914
-0.00879578
-0.0094036
-0.0100584
-0.0111216
-0.0124361
-0.0140264
-0.0156934
-0.0179792
-0.000627483
-0.00120678
-0.0018251
-0.00275262
-0.00388076
-0.00521614
-0.0066875
-0.00875772
0.00680666
0.00620667
0.00557851
0.00472122
0.00367609
0.00241922
0.00100254
-0.000886192
0.013782
0.013111
0.012464
0.0116546
0.010672
0.0094986
0.00817455
0.00645747
0.0197529
0.0190507
0.0183119
0.0174308
0.016423
0.0152773
0.014009
0.0124311
0.0260789
0.0251656
0.0242968
0.0234
0.0224412
0.0213701
0.0201878
0.0187575
0.0305059
0.029636
0.028726
0.027718
0.0266248
0.0254477
0.0241963
0.0227679
0.0362507
0.0350772
0.0339443
0.0328527
0.0318038
0.0307687
0.0297354
0.0286074
0.0391351
0.0380657
0.0369612
0.0358004
0.0345879
0.03331
0.0319706
0.0305358
0.0437937
0.0424595
0.0411572
0.0399129
0.0387493
0.0376581
0.0366333
0.0356147
0.045108
0.0438221
0.0425285
0.0412165
0.0398942
0.03856
0.0372266
0.0358932
0.0472369
0.0458764
0.0445604
0.0432851
0.042053
0.0408595
0.0397049
0.0385729
0.02259
0.0245235
0.0250159
0.0235506
0.0199551
0.0143357
0.00652889
-0.00413504
-0.0187678
-0.0388918
-0.0665643
-0.104618
-0.157626
-0.228938
-0.29091
-0.00242703
-0.00347821
-0.00756364
-0.0135206
-0.0210932
-0.0306573
-0.0428623
-0.0585978
-0.0790474
-0.105803
-0.141033
-0.187545
-0.249534
-0.331653
-0.395015
-0.0265409
-0.0313099
-0.0397287
-0.0495828
-0.0606811
-0.0738566
-0.0900501
-0.110248
-0.135674
-0.168004
-0.209535
-0.26301
-0.331913
-0.420156
-0.481133
-0.0522483
-0.0604243
-0.0717668
-0.0842542
-0.0981248
-0.114436
-0.134112
-0.158078
-0.187526
-0.224167
-0.270587
-0.329065
-0.4028
-0.490653
-0.547451
-0.0789403
-0.0898811
-0.103016
-0.117229
-0.133246
-0.152104
-0.174541
-0.201409
-0.233827
-0.273416
-0.322871
-0.384642
-0.459357
-0.542829
-0.593211
-0.10492
-0.11814
-0.132506
-0.148109
-0.16589
-0.18672
-0.211131
-0.239937
-0.27429
-0.315705
-0.366364
-0.428228
-0.500804
-0.576547
-0.619193
-0.129635
-0.144073
-0.159505
-0.176559
-0.195952
-0.218218
-0.2439
-0.273778
-0.308904
-0.350592
-0.400531
-0.459947
-0.527197
-0.592005
-0.627479
-0.152288
-0.16768
-0.184343
-0.202796
-0.223477
-0.246748
-0.273095
-0.303215
-0.338009
-0.378569
-0.426086
-0.480854
-0.539518
-0.590769
-0.620759
0.188312
0.202562
0.218606
0.236568
0.256418
0.278099
0.301579
0.326826
0.35374
0.382036
0.411112
0.439812
0.46616
0.48639
0.50293
0.181172
0.193793
0.208444
0.225235
0.243886
0.264156
0.285957
0.309256
0.333932
0.359632
0.385652
0.41071
0.432651
0.447793
0.459421
0.169957
0.180243
0.192995
0.208144
0.225037
0.24319
0.262428
0.282693
0.303819
0.325362
0.346476
0.3657
0.380586
0.387562
0.391713
0.154676
0.162188
0.172675
0.185695
0.200205
0.215536
0.231445
0.247815
0.264373
0.280521
0.295209
0.306744
0.312313
0.308236
0.302832
0.135539
0.14017
0.148381
0.159068
0.170684
0.182454
0.194175
0.205732
0.216756
0.226459
0.233539
0.236029
0.230735
0.213759
0.196359
0.112779
0.114182
0.120049
0.128354
0.136921
0.144859
0.151993
0.158199
0.163003
0.16544
0.163985
0.156393
0.139086
0.10802
0.077279
0.0873621
0.0859453
0.0895101
0.0948053
0.0995979
0.103182
0.105452
0.106137
0.104518
0.099405
0.0890558
0.070971
0.0412319
-0.00413134
-0.0479323
0.0572535
0.0552584
0.0579588
0.0602236
0.0607422
0.0595037
0.0565715
0.0514888
0.0432804
0.0305405
0.0113225
-0.0171227
-0.0590563
-0.118121
-0.173059
0.0450352
0.0469964
0.0462401
0.0475345
0.0475928
0.0495441
0.0505474
0.0530451
0.0551135
0.0584234
0.0618093
0.066262
0.0711892
0.0771475
0.0837909
0.0915174
0.100044
0.109727
0.120316
0.132129
0.144904
0.158891
0.173777
0.0472013
0.0492565
0.0482724
0.0495696
0.0494204
0.0513457
0.0521388
0.0545465
0.0564172
0.0595804
0.0627575
0.0670219
0.0717174
0.0774367
0.0837925
0.0911866
0.0992715
0.108474
0.118405
0.129545
0.141443
0.154551
0.168242
0.0493706
0.0514765
0.0503078
0.051557
0.0512354
0.0530964
0.0537001
0.0560031
0.0576693
0.0606908
0.0636368
0.0677137
0.0721537
0.0776218
0.0836433
0.0906495
0.098131
0.106682
0.11567
0.125821
0.13637
0.148028
0.159657
0.0515431
0.0536532
0.0523458
0.0534932
0.0530306
0.0547877
0.0552264
0.0573998
0.0588724
0.0617332
0.0644396
0.068302
0.0724732
0.0776766
0.0833058
0.0898658
0.0965519
0.104289
0.112039
0.120859
0.1295
0.139075
0.147784
0.0537162
0.0557885
0.0543782
0.0553761
0.0548
0.0564114
0.0567085
0.0587245
0.060009
0.0626909
0.0651554
0.0687831
0.0726844
0.0775399
0.082642
0.0885608
0.0942769
0.100958
0.107219
0.114415
0.120705
0.127678
0.132598
0.0558848
0.0578871
0.0563923
0.05721
0.0565398
0.0579615
0.0581308
0.0599645
0.0610645
0.0635558
0.0657778
0.0691653
0.0728349
0.0773972
0.0818626
0.0871365
0.0917411
0.0972936
0.101654
0.106831
0.110037
0.11387
0.114346
0.0580432
0.0599525
0.0583801
0.0590003
0.0582447
0.0594404
0.0594827
0.0611089
0.0620424
0.0643207
0.0663025
0.0694073
0.0727177
0.0767345
0.0804714
0.0847907
0.0882593
0.0923186
0.094901
0.0977249
0.0978592
0.0977646
0.0933289
0.0601855
0.0619884
0.0603322
0.0607367
0.0598864
0.0608356
0.0607507
0.0621426
0.0629254
0.0650201
0.0668141
0.0697321
0.0727539
0.0763505
0.0792989
0.0828054
0.0848558
0.0874168
0.0872885
0.0873793
0.0832809
0.0798069
0.0687309
0.0622577
0.0639725
0.0622508
0.0624416
0.0614941
0.0621728
0.0619769
0.0630972
0.0637326
0.0655171
0.0670579
0.0695539
0.0719006
0.0746939
0.0767173
0.0789444
0.0797756
0.0803517
0.0786854
0.0759711
0.0693917
0.0595539
0.0424289
0.0643711
0.0660208
0.0642251
0.0642299
0.0631519
0.0635782
0.0632414
0.0640705
0.0644862
0.0658827
0.0670605
0.0689425
0.0705649
0.0724357
0.073568
0.0744652
0.0741708
0.0728775
0.0698036
0.0645429
0.056571
0.0451106
0.0313093
0.0666931
0.0682653
0.0663954
0.0661927
0.0649691
0.0651054
0.0646015
0.0650653
0.0652186
0.0661228
0.0668905
0.0680335
0.0689785
0.0698321
0.0701014
0.0696704
0.0682923
0.0654055
0.0610747
0.0543928
0.0459492
0.0351063
0.0226204
0.0692577
0.0707118
0.0687891
0.068328
0.0669692
0.0667449
0.0660759
0.0660894
0.0659758
0.0663206
0.0666464
0.0670418
0.0672801
0.0671625
0.066531
0.0649373
0.0624783
0.0584217
0.0531111
0.0459259
0.037374
0.0271031
0.0154255
0.0721004
0.0733727
0.0714313
0.0706453
0.0691664
0.0685048
0.0676679
0.0671822
0.0667638
0.0665395
0.0663499
0.0660319
0.0655209
0.0645098
0.0629689
0.0604034
0.0569796
0.0521496
0.0462207
0.0389002
0.0304485
0.0207335
0.00982849
0.0752605
0.0762669
0.074349
0.0731702
0.0715688
0.0704268
0.0693723
0.0683891
0.0675857
0.0668067
0.0660345
0.0650293
0.0637638
0.0619317
0.0595467
0.0561886
0.0520097
0.0466992
0.0404668
0.0331999
0.0250393
0.0159408
0.00581835
0.0787839
0.079422
0.0775661
0.075951
0.0741805
0.0725626
0.0711967
0.0697324
0.0684651
0.0671426
0.0657507
0.0640706
0.0620927
0.0595208
0.0564133
0.0524417
0.0477529
0.0421849
0.0358872
0.0288393
0.0211193
0.0126978
0.00341162
0.082721
0.0828854
0.0810974
0.079047
0.0770186
0.0749412
0.0731735
0.0712323
0.0694406
0.0675747
0.0655633
0.0632312
0.0606072
0.0574076
0.0537199
0.0493231
0.0443445
0.0387073
0.0325299
0.0258311
0.0186625
0.0109723
0.00257066
0.087124
0.0867378
0.0849607
0.0825008
0.0801241
0.0775894
0.0753468
0.0729136
0.0705621
0.0681471
0.0655483
0.0626148
0.0594189
0.0557232
0.0516139
0.0469639
0.0418756
0.0363224
0.0304064
0.0241531
0.0176047
0.0106858
0.00319201
0.0920465
0.091081
0.089184
0.0863587
0.0835524
0.0805393
0.0777651
0.074814
0.0718884
0.0689259
0.0657875
0.0623288
0.0586458
0.0545897
0.0502138
0.0454543
0.0403976
0.035046
0.0294897
0.0237467
0.0178493
0.011707
0.00510408
0.0975514
0.0960139
0.0938555
0.0906732
0.0873669
0.0838313
0.0804799
0.0769876
0.0734916
0.0699958
0.066366
0.0624694
0.0584029
0.0541074
0.0495998
0.0448477
0.0399268
0.0348579
0.0297175
0.0245147
0.0192629
0.0138652
0.00809942
0.103722
0.101657
0.0990925
0.0955085
0.0916367
0.0875175
0.0835484
0.0795009
0.0754545
0.071451
0.0673754
0.0631267
0.0587814
0.0543462
0.049814
0.0451614
0.040446
0.0357026
0.0309934
0.0263219
0.0216793
0.0169675
0.0119648
0.110682
0.108153
0.105039
0.100944
0.096435
0.0916608
0.0870366
0.0824216
0.0778553
0.0733827
0.0689127
0.0643817
0.059845
0.0553441
0.0508625
0.0463705
0.0419011
0.0374929
0.0331983
0.0290156
0.0249176
0.0208059
0.016478
0.118612
0.11567
0.111864
0.107088
0.101837
0.0963364
0.0910185
0.0858198
0.0807613
0.0758735
0.0710678
0.066309
0.0616378
0.0571149
0.0527166
0.0484046
0.0441823
0.0400866
0.0361646
0.0324166
0.0287952
0.0251891
0.0213827
0.127777
0.124408
0.11977
0.114087
0.10794
0.101627
0.0955747
0.089765
0.0842291
0.078977
0.0739038
0.0689767
0.0642315
0.0597316
0.0554492
0.0513295
0.0473463
0.0435266
0.03992
0.0365394
0.0333388
0.0302121
0.0269646
0.138565
0.134628
0.128949
0.1221
0.114903
0.107678
0.100814
0.0943102
0.0882159
0.0825402
0.0771576
0.0720199
0.0671619
0.0626478
0.0584442
0.0544723
0.0506701
0.0470435
0.0436391
0.0404801
0.0375219
0.0346593
0.0317103
0.151589
0.146717
0.139524
0.131238
0.12292
0.11487
0.107307
0.100201
0.0936095
0.0875599
0.0819081
0.0765745
0.0715888
0.0670315
0.0628782
0.059033
0.0554011
0.0519647
0.0487635
0.0458346
0.0431467
0.0406029
0.0380253
0.167827
0.161366
0.15165
0.140964
0.130803
0.121398
0.112809
0.104923
0.0977457
0.0912808
0.0853633
0.0798503
0.0747347
0.070098
0.0659381
0.0621547
0.0586277
0.0553084
0.0522206
0.049405
0.0468469
0.0444685
0.0421209
0.188357
0.179765
0.167708
0.155042
0.143199
0.132415
0.122686
0.11386
0.105888
0.0987833
0.0923923
0.0865338
0.0811528
0.0763098
0.0720179
0.0681854
0.0646793
0.0614215
0.0584085
0.0556682
0.0531883
0.0509053
0.0486893
0.21453
0.197951
0.179904
0.163842
0.14989
0.137711
0.127063
0.117606
0.10914
0.101629
0.0949478
0.0889026
0.0834026
0.0784718
0.0741273
0.0702949
0.0668479
0.0636938
0.0608046
0.0581904
0.0558402
0.0537082
0.0516999
0.260387
0.23294
0.207048
0.185771
0.168284
0.153395
0.140513
0.129288
0.119424
0.110768
0.103188
0.096496
0.0905474
0.0852915
0.0806993
0.0766904
0.0731365
0.0699254
0.0669912
0.0643142
0.0618804
0.0596647
0.0576065
0.295141
0.246964
0.213534
0.190954
0.172701
0.156821
0.143014
0.131107
0.12079
0.111781
0.103949
0.0971744
0.0912837
0.0861135
0.0815668
0.0775807
0.0740768
0.0709598
0.068143
0.0655747
0.063234
0.0611154
0.0591995
0.453166
0.299522
0.248413
0.217595
0.192034
0.170764
0.153167
0.138736
0.12693
0.117113
0.108816
0.101734
0.0956378
0.0903215
0.0856262
0.0814538
0.0777452
0.0744465
0.0714943
0.0688275
0.0664021
0.0641969
0.062201
0.0203767
-0.00495409
-0.0279454
-0.0503727
-0.0740138
-0.0970351
-0.118727
-0.138388
0.014868
-0.00913277
-0.033629
-0.0536934
-0.0731316
-0.0918956
-0.109541
-0.124762
0.0085387
-0.0122409
-0.0348833
-0.0522694
-0.0675506
-0.0824254
-0.0971687
-0.110309
0.00265695
-0.0154033
-0.0351699
-0.0506436
-0.0631495
-0.0751597
-0.0868507
-0.0967486
-0.0020473
-0.0178754
-0.0340238
-0.046855
-0.0567484
-0.0661735
-0.0750732
-0.083094
-0.005279
-0.0190479
-0.0317917
-0.0419528
-0.049851
-0.0574121
-0.0642039
-0.0703778
-0.00686273
-0.0187008
-0.0284939
-0.0361784
-0.0423467
-0.0483391
-0.0535327
-0.0582692
-0.0068028
-0.0168703
-0.0242444
-0.0298252
-0.0345581
-0.0392672
-0.0432979
-0.0468558
-0.00523163
-0.013729
-0.0192058
-0.0231027
-0.0266405
-0.0302868
-0.033424
-0.0360766
-0.00236467
-0.00951529
-0.013563
-0.0161809
-0.0187473
-0.0215428
-0.0240026
-0.0260145
0.00154319
-0.00448551
-0.00750361
-0.00919988
-0.0110046
-0.0131356
-0.0150899
-0.016664
0.00625335
0.00113888
-0.00118064
-0.00225991
-0.00349647
-0.00511624
-0.00668547
-0.00795178
0.0115544
0.00719759
0.00531467
0.00459996
0.0037617
0.00252778
0.00123544
0.000143934
0.0170103
0.0131924
0.0116069
0.0111172
0.0105362
0.0095704
0.00848789
0.00753503
0.0232638
0.0199211
0.018361
0.0178343
0.0173512
0.0165432
0.0155515
0.0145859
0.0283871
0.0254249
0.0240051
0.0234999
0.0230521
0.0223188
0.0214082
0.0205212
0.0351346
0.0324049
0.0308155
0.0300611
0.0295237
0.0288432
0.0279882
0.027034
0.0395635
0.037144
0.0356025
0.034723
0.0340145
0.0332068
0.0323008
0.0313839
0.0463182
0.0439784
0.0422449
0.0410911
0.0402412
0.0394123
0.0384747
0.0374043
0.0496354
0.047568
0.0458523
0.0445021
0.0433658
0.0422969
0.0412393
0.0401841
0.0555483
0.0534797
0.0516415
0.0500941
0.0487764
0.0475641
0.0463606
0.0451051
0.057372
0.0555419
0.0537816
0.0521237
0.0505742
0.0491155
0.0477312
0.0464006
0.0603033
0.0584169
0.0565932
0.054848
0.0531872
0.0516049
0.0500938
0.0486407
-0.327322
-0.335179
-0.345133
-0.358291
-0.375825
-0.398021
-0.421971
-0.442048
-0.327271
-0.333327
-0.340964
-0.35143
-0.365337
-0.382379
-0.401145
-0.417237
-0.325705
-0.330392
-0.335979
-0.343783
-0.354496
-0.366878
-0.377555
-0.382525
-0.322644
-0.325955
-0.329323
-0.333771
-0.339319
-0.344318
-0.345718
-0.34053
-0.317163
-0.318869
-0.319428
-0.319528
-0.319057
-0.316951
-0.31121
-0.299591
-0.308414
-0.308068
-0.305517
-0.301438
-0.296117
-0.28907
-0.278788
-0.263359
-0.296009
-0.293539
-0.28831
-0.281183
-0.272797
-0.262798
-0.249834
-0.232252
-0.280553
-0.276364
-0.269303
-0.260401
-0.250393
-0.238768
-0.224319
-0.205626
-0.263271
-0.258012
-0.249904
-0.240245
-0.229485
-0.217031
-0.201847
-0.18272
-0.245604
-0.239704
-0.231173
-0.221343
-0.21026
-0.197475
-0.182023
-0.162944
-0.228729
-0.222266
-0.213708
-0.203877
-0.19273
-0.179901
-0.164512
-0.145813
-0.21309
-0.206156
-0.197679
-0.187876
-0.176792
-0.164097
-0.149031
-0.130956
-0.199328
-0.19158
-0.183042
-0.173197
-0.162267
-0.149879
-0.135337
-0.118096
-0.186525
-0.17815
-0.169547
-0.159746
-0.149192
-0.137118
-0.12324
-0.106936
-0.17484
-0.166338