/*--------------------------------*- C++ -*----------------------------------*\
| =========                 |                                                 |
| \\      /  F ield         | OpenFOAM: The Open Source CFD Toolbox           |
|  \\    /   O peration     | Version:  2312                                  |
|   \\  /    A nd           | Website:  www.openfoam.com                      |
|    \\/     M anipulation  |                                                 |
\*---------------------------------------------------------------------------*/
FoamFile
{
    version     2.0;
    format      ascii;
    arch        "LSB;label=32;scalar=64";
    class       surfaceScalarField;
    location    "46.5";
    object      phi;
}
// * * * * * * * * * * * * * * * * * * * * * * * * * * * * * * * * * * * * * //

dimensions      [0 3 -1 0 0 0 0];

oriented        oriented;

internalField   nonuniform List<scalar> 
10785
(
2.83925e-05
0.0037969
-0.00382529
0.00181934
0.00628569
-0.00807663
0.006684
0.00343619
-0.00830085
0.0165174
-0.00561199
-0.00422137
0.0333225
-0.0213126
0.00450747
0.0577913
-0.0426194
0.0181506
0.0884383
-0.0671496
0.0365025
0.122191
-0.0921913
0.0584383
0.155039
-0.115285
0.082437
0.183734
-0.134833
0.106138
0.205296
-0.150037
0.128475
0.219558
-0.16067
0.146408
0.227039
-0.168934
0.161453
0.229052
-0.172844
0.170831
-0.179039
0.17885
0.229241
-0.000149819
0.00394672
0.00229485
0.00384101
0.00998046
-0.00424942
0.0256557
-0.0212872
0.0499343
-0.0455912
0.0802679
-0.072953
0.112276
-0.0991581
0.141494
-0.121409
0.164751
-0.138541
0.180792
-0.150874
0.190298
-0.159543
0.196156
-0.166528
0.200232
-0.17301
0.206855
-0.179468
-0.188265
0.216081
0.000273706
0.00367301
0.00477241
-0.000657686
0.0174426
-0.0169196
0.039812
-0.0436567
0.0685148
-0.074294
0.0978549
-0.102293
0.122979
-0.124282
0.141411
-0.139842
0.15334
-0.150471
0.160791
-0.158324
0.166624
-0.165375
0.172615
-0.172519
0.179503
-0.179898
0.187181
-0.187147
-0.194332
0.193248
0.00116805
0.00250497
0.00909746
-0.0085871
0.0276233
-0.0354454
0.0537861
-0.0698195
0.0805193
-0.101027
0.10243
-0.124204
0.117699
-0.13955
0.127519
-0.149662
0.134365
-0.157317
0.140394
-0.164353
0.146375
-0.171356
0.152248
-0.178392
0.15769
-0.18534
0.162973
-0.192429
-0.200054
0.168696
0.00243316
7.18088e-05
0.0147216
-0.0208756
0.0372391
-0.0579629
0.0618325
-0.0944129
0.0818599
-0.121055
0.0955086
-0.137853
0.104285
-0.148326
0.110511
-0.155889
0.115735
-0.162541
0.120404
-0.169021
0.124634
-0.175587
0.128632
-0.18239
0.132823
-0.189532
0.137577
-0.197183
-0.205079
0.142603
0.00407958
-0.00400777
0.0203279
-0.0371239
0.042746
-0.0803809
0.0620547
-0.113722
0.0752073
-0.134207
0.0833883
-0.146034
0.088742
-0.15368
0.0927371
-0.159884
0.0960597
-0.165863
0.0991303
-0.172092
0.102257
-0.178713
0.105595
-0.185729
0.109156
-0.193092
0.112813
-0.20084
-0.208777
0.116511
0.00613384
-0.0101416
0.0242127
-0.0552027
0.0431088
-0.099277
0.0566082
-0.127221
0.0646639
-0.142263
0.0692807
-0.15065
0.0721952
-0.156595
0.0744166
-0.162105
0.0764412
-0.167888
0.0784225
-0.174073
0.0803444
-0.180635
0.0821862
-0.18757
0.084015
-0.194921
0.0859163
-0.202742
-0.210796
0.0879347
0.00802518
-0.0181668
0.0251465
-0.072324
0.0394862
-0.113617
0.0480838
-0.135819
0.0524037
-0.146583
0.0544903
-0.152737
0.05566
-0.157764
0.0564798
-0.162925
0.0570861
-0.168494
0.0575145
-0.174502
0.0578433
-0.180964
0.0581925
-0.18792
0.0586758
-0.195404
0.0592936
-0.20336
0.0601744
-0.211677
-0.00108592
0.00969975
-0.00861383
-0.00363323
0.0171899
-0.0146426
-0.00717683
0.0191533
-0.0156097
-0.0114494
0.019146
-0.0148734
-0.0163003
0.0187177
-0.0138669
-0.0216539
0.0180508
-0.0126971
-0.0274477
0.0167972
-0.0110035
-0.0335782
0.0144962
-0.0083657
-0.0398747
0.010632
-0.00433549
-0.045895
0.00462332
0.00139695
-0.0512935
-0.00374546
0.00914405
-0.0557442
-0.0148177
0.0192684
-0.0586644
-0.0288293
0.0317495
-0.0598405
-0.0449317
0.0461077
-0.0629618
-0.0587255
0.0618467
-0.00047015
0.0101699
-0.00212495
0.0188447
-0.00471754
0.0217459
-0.00793583
0.0223643
-0.0115559
0.0223378
-0.0154685
0.0219634
-0.0196003
0.0209291
-0.0238435
0.0187393
-0.0280213
0.0148099
-0.0318966
0.00849865
-0.0348674
-0.000774642
-0.0370233
-0.0126619
-0.0376233
-0.0282292
-0.0370307
-0.0455243
-0.0650403
-0.0349521
0.000310857
0.00985904
-4.57491e-05
0.0192013
-0.0011561
0.0228562
-0.00263766
0.0238459
-0.00415901
0.0238591
-0.00550446
0.0233088
-0.00651626
0.0219409
-0.00701396
0.019237
-0.00674894
0.0145448
-0.00542075
0.00717046
-0.00281814
-0.00337725
0.00192833
-0.0174083
0.0079493
-0.0342502
0.0169702
-0.0545451
-0.0748662
0.026796
0.00104197
0.00881707
0.00208005
0.0181633
0.00276678
0.0221695
0.00341134
0.0232013
0.00446439
0.0228061
0.00629194
0.0214813
0.00919748
0.0190354
0.0134894
0.0149451
0.0195416
0.00849262
0.0277163
-0.00100424
0.038421
-0.014082
0.0524021
-0.0313895
0.069361
-0.0512091
0.088825
-0.0740091
-0.0972843
0.111243
0.00152149
0.00729558
0.00374986
0.0159349
0.00610813
0.0198112
0.00882659
0.0204828
0.0124062
0.0192265
0.0173524
0.0165351
0.0241347
0.0122531
0.0332481
0.00583172
0.0452763
-0.00353559
0.0610634
-0.0167913
0.0806965
-0.0337151
0.104535
-0.0552282
0.131515
-0.0781888
0.160339
-0.102833
-0.126922
0.189977
0.00159827
0.00569731
0.00446156
0.0130716
0.0079844
0.0162884
0.012311
0.0161562
0.0179553
0.0135822
0.0255906
0.00889972
0.0359626
0.00188108
0.0501963
-0.00840201
0.0691298
-0.022469
0.0929181
-0.0405796
0.121464
-0.0622607
0.15317
-0.0869347
0.185969
-0.110988
0.218474
-0.135338
-0.153959
0.245511
0.00125095
0.00444636
0.00403649
0.0102861
0.00799872
0.0123261
0.013349
0.0108059
0.0208113
0.00611989
0.0315415
-0.00183046
0.0470653
-0.0136428
0.068112
-0.0294487
0.0950205
-0.0493775
0.12642
-0.0719795
0.160785
-0.0966249
0.194364
-0.120514
0.225445
-0.142068
0.250787
-0.16068
-0.170915
0.267743
0.000621071
0.00283049
0.00685578
0.0134403
0.0240677
0.0403878
0.0632476
0.0922372
0.125297
0.159455
0.191305
0.217199
0.236584
0.246735
0.25467
-0.0527774
-0.109473
0.103525
-0.0439888
-0.137443
0.128654
-0.0312953
-0.162829
0.150136
-0.0128638
-0.18168
0.163248
0.0134097
-0.186321
0.160048
0.0477847
-0.167925
0.13355
0.0849659
-0.117715
0.0805343
0.121765
-0.0300456
-0.00675359
0.159674
0.090213
-0.128122
0.18686
0.215702
-0.242888
0.197853
0.309948
-0.320941
0.203942
0.336451
-0.34254
0.196742
0.320404
-0.313205
0.168753
0.358027
-0.330039
0.147133
0.404278
-0.382657
0.149542
0.313144
-0.315553
0.164215
0.0919289
-0.106602
0.177684
-0.151524
0.138055
0.188224
-0.334838
0.324298
0.19497
-0.401637
0.394891
0.179877
-0.414676
0.429769
0.153078
-0.450531
0.477329
0.145963
-0.410241
0.417356
0.163315
-0.201397
0.184045
0.187095
0.0481497
-0.0719296
0.204145
0.233564
-0.250614
0.215976
0.312874
-0.324705
0.216531
0.335852
-0.336408
0.204835
0.339978
-0.328283
0.197998
0.312932
-0.306095
0.206393
0.194406
-0.202801
0.221202
0.0486015
-0.0634098
0.232459
-0.0824881
0.0712311
0.237191
-0.153286
0.148554
0.238435
-0.201777
0.200533
0.238189
-0.202456
0.202702
0.238877
-0.21646
0.215772
-0.179058
0.177212
-0.0367457
-0.107679
-0.0387958
-0.135393
-0.039857
-0.161768
-0.0372414
-0.184295
-0.0261372
-0.197425
-0.00422205
-0.189841
0.0303751
-0.152313
0.0741694
-0.07384
0.120815
0.0435678
0.160591
0.175926
0.190154
0.280385
0.21032
0.316286
0.20826
0.322464
0.186818
0.379469
0.172379
0.418717
0.17306
0.312462
0.182859
0.0821308
0.189542
-0.158207
0.190442
-0.335738
0.193785
-0.40498
0.180756
-0.401647
0.150521
-0.420296
0.139707
-0.399427
0.157371
-0.219061
0.182105
0.0234158
0.202413
0.213256
0.21622
0.299067
0.215096
0.336976
0.20288
0.352194
0.198618
0.317194
0.209478
0.183547
0.22484
0.0332398
0.235523
-0.0931712
0.239494
-0.157257
0.240133
-0.202416
0.239643
-0.201966
0.240217
-0.217034
-0.180892
0.0181273
-0.0990108
0.00717013
-0.124436
-0.00723339
-0.147365
-0.0226569
-0.168872
-0.0332915
-0.186791
-0.0313629
-0.191769
-0.0117109
-0.171965
0.0284072
-0.113958
0.0820897
-0.0101146
0.136659
0.121356
0.184836
0.232207
0.217264
0.283858
0.221039
0.318688
0.20869
0.391818
0.20122
0.426188
0.198706
0.314976
0.199979
0.080858
0.201997
-0.160225
0.195882
-0.329623
0.190174
-0.399272
0.177476
-0.388949
0.147844
-0.390665
0.132473
-0.384056
0.148658
-0.235246
0.175844
-0.0037695
0.200517
0.188583
0.215915
0.283669
0.213363
0.339529
0.201287
0.36427
0.199623
0.318857
0.212466
0.170704
0.228053
0.0176529
0.238041
-0.103159
0.241271
-0.160488
0.241416
-0.202561
0.240782
-0.201332
0.24136
-0.217613
-0.182876
0.099886
-0.0876537
0.0849339
-0.109484
0.0635245
-0.125955
0.0349204
-0.140268
0.00255411
-0.154424
-0.0213719
-0.167843
-0.0261416
-0.167195
-0.00524463
-0.134855
0.0464751
-0.0618343
0.111644
0.0561871
0.172536
0.171316
0.212478
0.243915
0.224143
0.307023
0.223053
0.392908
0.225299
0.423942
0.224202
0.316074
0.217265
0.087795
0.21206
-0.15502
0.201356
-0.31892
0.190349
-0.388264
0.178345
-0.376945
0.149957
-0.362276
0.128605
-0.362703
0.140251
-0.246893
0.170031
-0.0335491
0.19909
0.159524
0.214965
0.267794
0.210919
0.343575
0.199666
0.375523
0.200693
0.317831
0.215192
0.156205
0.230764
0.00208051
0.239988
-0.112383
0.242503
-0.163002
0.242255
-0.202313
0.241602
-0.20068
0.242325
-0.218336
-0.185169
0.17824
-0.0759174
0.163392
-0.0946356
0.144431
-0.106994
0.117708
-0.113545
0.0801754
-0.116892
0.0349706
-0.122638
-0.00179361
-0.130431
-0.00970019
-0.126949
0.0201263
-0.0916609
0.0814974
-0.0051839
0.146157
0.106656
0.192285
0.197787
0.215954
0.283354
0.232242
0.376621
0.24776
0.408423
0.248685
0.315149
0.234658
0.101822
0.220976
-0.141339
0.204648
-0.302591
0.187338
-0.370955
0.174966
-0.364573
0.151361
-0.338672
0.128486
-0.339828
0.134869
-0.253276
0.165238
-0.063918
0.196961
0.127801
0.212969
0.251786
0.208405
0.348138
0.198433
0.385495
0.201814
0.31445
0.217558
0.140461
0.232867
-0.013229
0.241309
-0.120825
0.243178
-0.164871
0.242648
-0.201783
0.242106
-0.200137
0.243117
-0.219347
-0.187931
0.231213
-0.0616193
0.213662
-0.0770847
0.195
-0.0883323
0.176585
-0.0951295
0.153062
-0.0933691
0.115472
-0.0850486
0.0655266
-0.0804847
0.0243317
-0.0857536
0.0183564
-0.0856856
0.0540309
-0.0408584
0.108707
0.0519799
0.156345
0.15015
0.192376
0.247324
0.225251
0.343745
0.252837
0.380838
0.260734
0.307251
0.247852
0.114704
0.228677
-0.122163
0.207797
-0.281711
0.186457
-0.349615
0.172751
-0.350867
0.152639
-0.31856
0.130583
-0.317772
0.133512
-0.256205
0.162174
-0.0925795
0.194812
0.0951625
0.210405
0.236193
0.205189
0.353354
0.196774
0.39391
0.202597
0.308626
0.219367
0.123692
0.23432
-0.0281828
0.241949
-0.128454
0.243278
-0.1662
0.242604
-0.201109
0.242307
-0.199839
0.243746
-0.220787
-0.19132
0.252116
-0.0459926
0.232606
-0.0575745
0.2115
-0.0672269
0.191986
-0.0756152
0.177233
-0.0786166
0.164127
-0.0719426
0.140932
-0.0572892
0.099323
-0.0441447
0.0609109
-0.0472735
0.0589272
-0.0388747
0.0905865
0.0203206
0.130387
0.110349
0.172468
0.205243
0.21913
0.297084
0.257401
0.342566
0.268011
0.296642
0.253533
0.129181
0.229893
-0.0985232
0.206255
-0.258073
0.182161
-0.325521
0.167544
-0.336251
0.15165
-0.302666
0.131422
-0.297544
0.133867
-0.25865
0.161125
-0.119837
0.192543
0.0637443
0.20698
0.221756
0.202126
0.358209
0.195699
0.400338
0.203283
0.301041
0.220584
0.106392
0.235015
-0.0426136
0.241857
-0.135297
0.242788
-0.167131
0.242127
-0.200448
0.24222
-0.199933
0.244223
-0.22279
-0.195484
0.240556
-0.031879
0.223626
-0.0406445
0.205679
-0.0492801
0.187089
-0.0570249
0.170361
-0.0618881
0.159004
-0.0605864
0.15477
-0.0530551
0.143212
-0.0325869
0.113063
-0.0171241
0.0889391
-0.0147507
0.0944464
0.0148133
0.118012
0.0867834
0.154415
0.16884
0.205659
0.24584
0.248762
0.299462
0.265019
0.280386
0.258694
0.135506
0.23501
-0.0748384
0.206989
-0.230052
0.179863
-0.298394
0.162564
-0.318952
0.150029
-0.29013
0.131066
-0.278582
0.132222
-0.259805
0.158481
-0.146096
0.188437
0.0337876
0.203475
0.206718
0.199239
0.362445
0.193714
0.405863
0.203173
0.291583
0.221316
0.0882484
0.235064
-0.056362
0.241116
-0.141349
0.241765
-0.16778
0.241262
-0.199944
0.241871
-0.200543
0.244563
-0.225482
-0.200556
0.296559
-0.0210606
-0.307377
0.286169
-0.030255
0.274333
-0.0374441
0.26087
-0.0435619
0.245896
-0.0469142
0.229266
-0.043956
0.21579
-0.0395794
0.204447
-0.0212438
0.181806
0.00551707
0.145369
0.021686
0.112146
0.0480367
0.0942022
0.104727
0.102944
0.160098
0.139042
0.209742
0.182908
0.255596
0.234839
0.228455
0.285758
0.0845867
0.305867
-0.0949479
0.29864
-0.222825
0.275895
-0.275649
0.247717
-0.290774
0.224768
-0.267181
0.196023
-0.249837
0.17788
-0.241662
0.179593
-0.147808
0.183332
0.0300485
0.177401
0.212649
0.165715
0.37413
0.171043
0.400535
0.199148
0.263478
0.228418
0.0589778
0.2445
-0.0724438
0.248148
-0.144997
0.244979
-0.164611
0.240269
-0.195234
0.23658
-0.196854
0.23475
-0.223652
-0.201095
0.317616
-0.012145
-0.326532
0.307754
-0.0203929
0.296624
-0.026314
0.283878
-0.0308155
0.270286
-0.0333229
0.256116
-0.029786
0.242476
-0.0259391
0.23223
-0.0109982
0.222902
0.0148457
0.205962
0.0386254
0.180904
0.0730949
0.162474
0.123157
0.166744
0.155827
0.196011
0.180475
0.23984
0.211768
0.294307
0.173988
0.34125
0.0376438
0.352407
-0.106105
0.332975
-0.203393
0.30279
-0.245464
0.269636
-0.25762
0.24525
-0.242795
0.219696
-0.224283
0.200612
-0.222578
0.202456
-0.149652
0.203925
0.0285796
0.192257
0.224317
0.179902
0.386485
0.192848
0.387589
0.22845
0.227876
0.259917
0.0275114
0.274634
-0.0871606
0.275978
-0.146341
0.270879
-0.159513
0.264843
-0.189197
0.260337
-0.192347
0.257947
-0.221261
-0.201422
0.341461
-0.00535237
-0.348254
0.333025
-0.0119563
0.323316
-0.0166057
0.312214
-0.019713
0.300155
-0.0212635
0.287437
-0.0170687
0.274824
-0.0133254
0.264248
-0.000422925
0.258517
0.0205772
0.254648
0.0424941
0.249588
0.0781552
0.24827
0.124475
0.256408
0.14769
0.27888
0.158003
0.319267
0.171381
0.368421
0.124834
0.399989
0.00607612
0.395438
-0.101555
0.36774
-0.175695
0.3378
-0.215524
0.304161
-0.223981
0.277214
-0.215848
0.253402
-0.200471
0.228342
-0.197518
0.224925
-0.146236
0.225695
0.0278102
0.209764
0.240247
0.198508
0.397741
0.22173
0.364367
0.264965
0.184641
0.296736
-0.00426037
0.308563
-0.0989873
0.306824
-0.144602
0.299532
-0.15222
0.292039
-0.181705
0.286602
-0.18691
0.283549
-0.218209
-0.201471
0.367595
0.000217879
-0.373165
0.36004
-0.004401
0.351357
-0.00792316
0.3415
-0.00985599
0.331006
-0.0107691
0.320834
-0.00689671
0.310663
-0.00315515
0.302559
0.00768139
0.298238
0.0248979
0.298548
0.0421841
0.304929
0.0717744
0.320011
0.109393
0.338731
0.12897
0.36186
0.134874
0.399901
0.13334
0.436463
0.0882723
0.447588
-0.00504938
0.431898
-0.0858644
0.399277
-0.143073
0.366139
-0.182386
0.331649
-0.189492
0.300864
-0.185063
0.28164
-0.181247
0.257572
-0.17345
0.242875
-0.131538
0.238113
0.0325715
0.222115
0.256245
0.220569
0.399287
0.259832
0.325105
0.309887
0.134586
0.339298
-0.0336717
0.346302
-0.105992
0.340703
-0.139002
0.33099
-0.142507
0.321986
-0.172701
0.315578
-0.180502
0.3118
-0.214432
-0.201182
0.396011
0.00500202
-0.400795
0.389721
0.00188933
0.382557
-0.000759404
0.374597
-0.00189624
0.366034
-0.00220635
0.357991
0.0011464
0.349737
0.00509888
0.343864
0.0135542
0.341716
0.0270466
0.343064
0.040836
0.352313
0.0625254
0.372569
0.0891368
0.396452
0.105087
0.422326
0.108999
0.455933
0.0997323
0.480029
0.0641771
0.479393
-0.00441402
0.46109
-0.0675615
0.430787
-0.11277
0.399829
-0.151428
0.372162
-0.161825
0.340686
-0.153587
0.318199
-0.158759
0.294058
-0.149309
0.262284
-0.0997638
0.238711
0.0561442
0.22644
0.268516
0.250766
0.374961
0.311638
0.264232
0.364295
0.0819287
0.38713
-0.0565069
0.387404
-0.106266
0.377547
-0.129145
0.365467
-0.130426
0.354997
-0.162231
0.347584
-0.173089
0.343
-0.209848
-0.200483
0.428025
0.00881177
-0.431834
0.42311
0.00680384
0.417331
0.00501935
0.410995
0.00443974
0.404187
0.00460178
0.398059
0.00727502
0.392183
0.0109748
0.38828
0.017457
0.387796
0.0275309
0.390091
0.0385402
0.399219
0.0533978
0.417447
0.0709084
0.440269
0.0822649
0.46495
0.0843184
0.490982
0.0737005
0.508013
0.0471467
0.505557
-0.00195882
0.48898
-0.050984
0.463625
-0.0874149
0.432901
-0.120704
0.405581
-0.134505
0.376354
-0.12436
0.351024
-0.13343
0.329458
-0.127743
0.292419
-0.0627251
0.254593
0.0939701
0.253983
0.269127
0.309105
0.319839
0.382385
0.190952
0.427255
0.0370585
0.438614
-0.067866
0.431052
-0.0987034
0.417196
-0.11529
0.403102
-0.116332
0.391324
-0.150454
0.382914
-0.164678
0.377456
-0.20439
-0.1993
0.464361
0.0116209
-0.46717
0.460674
0.0104907
0.456244
0.00944994
0.45143
0.00925307
0.446337
0.00969534
0.441836
0.0117756
0.437923
0.014888
0.435568
0.0198125
0.43616
0.0269386
0.439453
0.0352473
0.447773
0.0450772
0.462556
0.0561262
0.481489
0.0633311
0.501874
0.0639342
0.521383
0.0541915
0.534037
0.034492
0.532257
-0.000178363
0.518447
-0.0371739
0.498264
-0.0672317
0.471766
-0.0942072
0.446447
-0.109185
0.421763
-0.0996764
0.393386
-0.105053
0.368061
-0.102418
0.338762
-0.0334261
0.313264
0.119467
0.334318
0.248073
0.403524
0.250634
0.466494
0.127982
0.492659
0.0108938
0.490435
-0.0656421
0.476171
-0.0844394
0.459599
-0.0987172
0.44418
-0.100913
0.431323
-0.137597
0.42192
-0.155275
0.41551
-0.197979
-0.197555
0.505247
0.0137067
-0.507333
0.502542
0.0131957
0.499318
0.0126747
0.495874
0.0126964
0.49236
0.0132098
0.489328
0.014808
0.48701
0.0172057
0.485977
0.0208453
0.487264
0.0256517
0.490969
0.0315419
0.498221
0.0378259
0.509872
0.0444755
0.524694
0.048509
0.54062
0.0480082
0.554915
0.0398964
0.56408
0.0253264
0.563446
0.00045584
0.552776
-0.0265034
0.536079
-0.0505352
0.512883
-0.0710113
0.48838
-0.0846812
0.467285
-0.0785821
0.441632
-0.0793999
0.41369
-0.0744757
0.394467
-0.014203
0.397865
0.116069
0.441617
0.204321
0.504913
0.187338
0.54439
0.0885046
0.551581
0.00370358
0.539975
-0.0540368
0.522524
-0.0669886
0.505047
-0.0812398
0.489027
-0.0848928
0.475321
-0.123892
0.464959
-0.144912
0.457538
-0.190559
-0.195171
0.55054
0.0150979
-0.551931
0.54882
0.0149162
0.546785
0.0147092
0.544618
0.0148632
0.542471
0.0153569
0.540694
0.0165849
0.539598
0.0183019
0.539566
0.0208778
0.541231
0.0239866
0.544899
0.0278733
0.551071
0.031654
0.560135
0.0354115
0.57145
0.0371941
0.583345
0.0361129
0.593709
0.029533
0.600301
0.0187345
0.599642
0.00111445
0.591187
-0.018048
0.577347
-0.0366954
0.558374
-0.0520384
0.536796
-0.0631036
0.517707
-0.0594928
0.495805
-0.0574977
0.46984
-0.048511
0.458089
-0.00245143
0.480434
0.0937243
0.532207
0.152547
0.581677
0.137868
0.603772
0.0664095
0.602001
0.00547448
0.588285
-0.0403203
0.571169
-0.0498732
0.554229
-0.0643
0.538173
-0.0688369
0.523822
-0.10954
0.51253
-0.13362
0.504021
-0.18205
-0.19206
0.600962
0.0157038
-0.601568
0.600112
0.0157662
0.599041
0.0157803
0.597876
0.0160282
0.596785
0.0164482
0.596017
0.0173524
0.595825
0.0184944
0.596483
0.0202198
0.598371
0.0220978
0.601764
0.0244808
0.606886
0.0265318
0.613837
0.0284604
0.622212
0.0288194
0.630885
0.0274398
0.638222
0.0221957
0.642588
0.0143683
0.641853
0.0018494
0.635298
-0.0114924
0.624019
-0.0254167
0.608337
-0.0363564
0.589967
-0.0447333
0.572997
-0.0425228
0.555144
-0.0396447
0.535254
-0.0286215
0.528626
0.00417707
0.553561
0.0687887
0.598992
0.107116
0.636847
0.100013
0.65246
0.0507969
0.650094
0.0078399
0.638507
-0.0287327
0.623434
-0.0348003
0.607742
-0.0486084
0.592026
-0.0531207
0.577212
-0.0947259
0.56503
-0.121439
0.555376
-0.172395
-0.188131
0.656799
0.0157755
-0.656871
0.656571
0.0159943
0.656232
0.0161185
0.655872
0.0163883
0.65561
0.0167103
0.655621
0.0173417
0.656074
0.0180411
0.657174
0.0191201
0.659132
0.02014
0.662135
0.0214779
0.666285
0.0223821
0.671548
0.0231972
0.677632
0.0227349
0.683762
0.0213101
0.688772
0.0171862
0.691544
0.0115959
0.69066
0.00273381
0.685455
-0.00628834
0.676339
-0.0162999
0.663716
-0.0237335
0.648824
-0.0298412
0.634429
-0.0281282
0.620145
-0.0253604
0.606316
-0.0147927
0.603352
0.00714078
0.623565
0.0485765
0.658315
0.0723661
0.687775
0.0705533
0.701542
0.0370301
0.701315
0.00806715
0.692795
-0.0202132
0.680312
-0.0223176
0.666292
-0.0345879
0.651253
-0.0380821
0.636151
-0.0796237
0.623108
-0.108397
0.612217
-0.161504
-0.183286
0.718439
0.0154399
-0.718103
0.718722
0.0157115
0.718963
0.0158776
0.719216
0.0161352
0.719564
0.0163619
0.720112
0.0167942
0.720979
0.0171739
0.722301
0.0177978
0.724196
0.0182451
0.726776
0.0188977
0.730073
0.0190856
0.734022
0.0192478
0.738387
0.0183697
0.742669
0.0170279
0.746075
0.0137802
0.747749
0.00992222
0.746669
0.00381422
0.742498
-0.0021181
0.735324
-0.0091259
0.725423
-0.0138325
0.71372
-0.018138
0.702173
-0.0165809
0.691269
-0.0144568
0.68199
-0.00551374
0.681073
0.00805784
0.695895
0.0337545
0.721151
0.0471099
0.744074
0.0476301
0.756513
0.0245914
0.757995
0.00658568
0.752431
-0.0146491
0.742546
-0.0124329
0.730427
-0.0224695
0.716298
-0.0239523
0.701108
-0.0644343
0.687287
-0.0945751
0.675108
-0.149326
-0.177428
0.786461
0.0147441
-0.785766
0.787134
0.0150385
0.787793
0.0152188
0.788474
0.0154544
0.789225
0.0156105
0.790122
0.0158974
0.791237
0.0160589
0.792655
0.0163799
0.794437
0.0164628
0.796642
0.0166933
0.799255
0.0164722
0.802204
0.0162994
0.805294
0.0152795
0.808162
0.0141592
0.810302
0.0116405
0.81118
0.00904404
0.810215
0.00477981
0.807073
0.00102358
0.80161
-0.00366292
0.794089
-0.00631096
0.78517
-0.00921923
0.776279
-0.00769012
0.768198
-0.00637594
0.762372
0.00031267
0.76256
0.00786989
0.773016
0.0232979
0.790839
0.0292875
0.808013
0.0304556
0.818718
0.0138867
0.82157
0.0037332
0.81837
-0.0114488
0.81122
-0.00528268
0.801182
-0.012432
0.788314
-0.0110841
0.77315
-0.0492704
0.758541
-0.0799661
0.744906
-0.135691
-0.170369
0.861762
0.0138287
-0.860847
0.862681
0.0141195
0.863604
0.0142965
0.864556
0.0145025
0.865565
0.0146007
0.866679
0.0147834
0.867932
0.0148064
0.869374
0.0149377
0.871029
0.0148077
0.872923
0.0147998
0.875032
0.0143627
0.877293
0.0140382
0.879562
0.0130111
0.881621
0.0121003
0.883114
0.0101477
0.883692
0.00846596
0.882878
0.00559313
0.880418
0.00348394
0.876334
0.000421054
0.870844
-0.000820499
0.864423
-0.00279829
0.857959
-0.00122654
0.852238
-0.000655444
0.848414
0.00413691
0.848866
0.00741765
0.856029
0.0161356
0.868304
0.0170126
0.881019
0.0177401
0.88974
0.00516589
0.892885
0.000588451
0.891717
-0.0102811
0.886792
-0.000357424
0.878978
-0.00461836
0.867368
0.000526438
0.852669
-0.0345717
0.837453
-0.0647505
0.822334
-0.120572
-0.161994
0.944743
0.012725
-0.943639
0.945858
0.0130047
0.946983
0.0131712
0.948129
0.0133567
0.949309
0.0134205
0.950549
0.0135437
0.951863
0.013492
0.953276
0.0135246
0.954791
0.0132922
0.956415
0.0131761
0.958116
0.0126624
0.959842
0.0123121
0.961483
0.0113701
0.962896
0.0106865
0.963857
0.00918669
0.964165
0.00815877
0.963593
0.00616439
0.961983
0.00509391
0.959318
0.00308696
0.955655
0.00284242
0.951301
0.00155488
0.946946
0.00312865
0.943211
0.00308005
0.940916
0.00643209
0.941494
0.00683934
0.946188
0.011441
0.954257
0.00894457
0.963012
0.00898492
0.969831
-0.00165358
0.973283
-0.00286334
0.973473
-0.0104708
0.971
0.00211527
0.965625
0.000756881
0.956238
0.00991308
0.942026
-0.0203591
0.926096
-0.0488212
0.908956
-0.103431
-0.151966
1.03749
0.0115197
-1.03628
1.03872
0.011771
1.03997
0.0119221
1.04124
0.0120864
1.04253
0.0121274
1.04386
0.0122129
1.04523
0.0121238
1.04665
0.0121045
1.04811
0.0118312
1.04962
0.0116687
1.05114
0.0111467
1.05264
0.0108093
1.05404
0.00997441
1.05526
0.00946011
1.05615
0.00830253
1.0566
0.00770721
1.0564
0.0063643
1.05551
0.00598424
1.05382
0.00477051
1.05155
0.00511846
1.04875
0.0043542
1.04602
0.0058605
1.04358
0.00551629
1.04221
0.00780511
1.04249
0.00655782
1.04532
0.00861449
1.05011
0.00414932
1.05573
0.00336468
1.06053
-0.00644846
1.0634
-0.00574194
1.06478
-0.0118432
1.0644
0.00249471
1.06149
0.00365941
1.05408
0.0173232
1.04075
-0.00701947
1.02438
-0.0324587
1.00541
-0.0844616
-0.139778
1.13977
0.0101892
-1.13844
1.14111
0.010432
1.14246
0.0105761
1.14382
0.010729
1.14518
0.0107632
1.14656
0.010835
1.14794
0.0107409
1.14933
0.0107112
1.15072
0.010443
1.1521
0.0102865
1.15345
0.00979798
1.15475
0.00950962
1.15595
0.00877863
1.15701
0.00840055
1.15784
0.00747372
1.1584
0.00714469
1.15859
0.00617307
1.1584
0.00617794
1.15778
0.00539015
1.15678
0.00611447
1.15547
0.00566128
1.15412
0.00721366
1.15293
0.00670713
1.15224
0.00849112
1.15247
0.00633583
1.15398
0.00709622
1.15677
0.00136683
1.16018
-5.12671e-05
1.16318
-0.00944889
1.16571
-0.00826569
1.16772
-0.0138577
1.16921
0.0010092
1.16904
0.0038231
1.16435
0.0220129
1.15314
0.00418954
1.13688
-0.0161932
1.11536
-0.0629419
-0.125353
1.25691
0.00878048
-1.2555
1.25835
0.00898891
1.25981
0.00912032
1.26127
0.00926441
1.26273
0.00930279
1.26419
0.00937294
1.26564
0.00929251
1.26709
0.00926848
1.2685
0.00902925
1.26989
0.00889267
1.27123
0.00846103
1.27252
0.00821641
1.27371
0.00759176
1.27482
0.007294
1.27575
0.00654478
1.27655
0.00634548
1.27709
0.00562451
1.27748
0.00579111
1.27758
0.00529281
1.27758
0.00611052
1.27733
0.00591213
1.27715
0.00739501
1.27688
0.00697699
1.27681
0.00855697
1.27679
0.00636166
1.27727
0.00661256
1.27766
0.000975973
1.27827
-0.000663175
1.27934
-0.0105185
1.28061
-0.00953053
1.28271
-0.015954
1.28547
-0.00175388
1.28844
0.000849113
1.28843
0.022025
1.27978
0.0128419
1.2641
-0.000513044
1.23977
-0.0386122
-0.106536
1.38808
0.00724449
-1.38654
1.38961
0.00745089
1.39115
0.00758271
1.39269
0.00772354
1.39423
0.00776854
1.39576
0.00784501
1.39726
0.0077873
1.39874
0.00778523
1.40018
0.00758864
1.40159
0.00748742
1.40293
0.00711756
1.40424
0.00691457
1.40546
0.00636728
1.40664
0.0061115
1.40774
0.00544713
1.4088
0.00528304
1.40978
0.00464646
1.41074
0.00482637
1.41162
0.00441954
1.4125
0.00523253
1.41326
0.00514438
1.41399
0.00666496
1.41456
0.00641169
1.415
0.00811357
1.41512
0.00624453
1.41507
0.00666394
1.41494
0.00110168
1.41461
-0.000333844
1.41383
-0.00974001
1.41391
-0.00960779
1.41554
-0.0175803
1.4195
-0.00571933
1.42506
-0.00470954
1.42806
0.0190298
1.42338
0.0175158
1.41053
0.012341
1.38451
-0.0125914
-0.0849536
1.54049
0.00559853
-1.53884
1.54218
0.00576023
1.54389
0.00587304
1.54561
0.006004
1.54731
0.00606055
1.54901
0.00614912
1.55067
0.00612656
1.5523
0.00615351
1.55387
0.00602108
1.55539
0.00596447
1.55682
0.00569196
1.55819
0.00554418
1.55944
0.00511489
1.56065
0.00490722
1.56174
0.0043531
1.56284
0.00418011
1.56386
0.00362914
1.56502
0.00366425
1.56614
0.0032986
1.56754
0.00383641
1.56899
0.00369421
1.57065
0.00500654
1.57224
0.00482207
1.57388
0.00647443
1.57468
0.00544391
1.575
0.00634136
1.5739
0.00220534
1.57163
0.00192942
1.56858
-0.00668669
1.56618
-0.00720674
1.56552
-0.0169223
1.56736
-0.00755643
1.57283
-0.0101834
1.58229
0.00957423
1.58666
0.0131445
1.58276
0.016239
1.55737
0.0127947
-0.0560944
1.73209
0.00380575
-1.7303
1.7339
0.00394553
1.73573
0.00404554
1.73757
0.00416294
1.73941
0.0042252
1.74124
0.00432001
1.74303
0.00433538
1.74479
0.00439605
1.74647
0.00433941
1.74809
0.00434479
1.7496
0.00417923
1.75103
0.00411271
1.75234
0.00380179
1.75359
0.00365905
1.75474
0.00320732
1.75591
0.00300646
1.75703
0.00250578
1.75835
0.00235251
1.75973
0.00191505
1.76143
0.00214084
1.76333
0.00178627
1.76556
0.00277907
1.7678
0.00258505
1.7702
0.00407657
1.77192
0.00372086
1.77287
0.00538557
1.77245
0.00263424
1.77044
0.00393899
1.766
-0.00224629
1.76159
-0.002796
1.75814
-0.0134744
1.75729
-0.00670532
1.76112
-0.0140137
1.77301
-0.00231795
1.78405
0.00209985
1.78784
0.0124565
1.7656
0.0350292
-0.0248977
1.93955
0.00178638
-1.93754
1.94165
0.00185193
1.9438
0.00189615
1.946
0.00196309
1.94823
0.00199186
1.95049
0.002057
1.95276
0.00206807
1.95504
0.00211791
1.95727
0.00211
1.95949
0.00212257
1.96159
0.00208375
1.96365
0.00205244
1.96551
0.00193736
1.96728
0.00189356
1.96885
0.00163652
1.97025
0.00160878
1.97151
0.00124225
1.9727
0.00116246
1.97373
0.000885263
1.97514
0.000727076
1.97637
0.000562336
1.97834
0.000808813
1.9806
0.000318173
1.98316
0.00152026
1.98612
0.00075664
1.9895
0.00201202
1.99057
0.00156348
1.99206
0.00244399
1.99089
-0.00107202
1.98614
0.00195458
1.97872
-0.00605933
1.97541
-0.00338933
1.971
-0.00960196
1.97317
-0.00449612
1.98056
-0.00528552
2.00089
-0.00787561
2.00928
0.0266373
-0.00052062
2.31454
-2.31276
2.3164
2.31829
2.32025
2.32225
2.3243
2.32637
2.32849
2.3306
2.33272
2.33481
2.33686
2.3388
2.34069
2.34233
2.34393
2.34518
2.34634
2.34722
2.34795
2.34851
2.34932
2.34964
2.35116
2.35192
2.35393
2.35549
2.35794
2.35687
2.35882
2.35276
2.34937
2.33977
2.33527
2.32999
2.32211
2.34875
0.274055
0.0555514
-0.269432
0.278687
0.083303
0.283592
0.111606
0.288477
0.137718
0.293144
0.164028
0.300313
0.186079
0.30421
0.212184
0.226074
0.295517
0.0514608
-0.291426
0.299999
0.0788207
0.304149
0.107456
0.309779
0.132088
0.313335
0.160472
0.319053
0.180361
0.322902
0.208334
0.222445
0.319383
0.0482605
-0.316183
0.323675
0.0745287
0.326811
0.10432
0.331714
0.127184
0.334671
0.157516
0.338616
0.176416
0.343584
0.203366
0.217775
0.345325
0.0456025
-0.342667
0.349046
0.0708074
0.352017
0.10135
0.355581
0.123621
0.35948
0.153616
0.363437
0.172459
0.368936
0.197868
0.213546
0.374152
0.0430271
-0.371576
0.377077
0.0678823
0.380456
0.0979703
0.383651
0.120426
0.38849
0.148777
0.39243
0.168519
0.396975
0.193323
0.209725
0.405965
0.040348
-0.403286
0.40841
0.0654365
0.412175
0.0942059
0.41538
0.117221
0.419862
0.144295
0.423232
0.165148
0.427528
0.189027
0.205419
0.44097
0.0377809
-0.438403
0.443267
0.0631394
0.446846
0.0906266
0.449862
0.114205
0.453851
0.140306
0.457481
0.161518
0.462638
0.183871
0.200886
0.479434
0.0354923
-0.477146
0.48165
0.060924
0.484982
0.0872947
0.488121
0.111065
0.492555
0.135873
0.497206
0.156868
0.502552
0.178525
0.196105
0.521895
0.0334468
-0.51985
0.52422
0.0585992
0.527684
0.0838308
0.531405
0.107344
0.536271
0.131006
0.541059
0.15208
0.546479
0.173105
0.190653
0.569024
0.0314838
-0.567061
0.571564
0.0560592
0.575156
0.0802386
0.57913
0.10337
0.584017
0.126119
0.589155
0.146942
0.595257
0.167002
0.184342
0.621203
0.0295917
-0.619311
0.623868
0.0533946
0.627528
0.0765781
0.631816
0.0990828
0.637131
0.120804
0.643051
0.141023
0.649833
0.16022
0.177305
0.678978
0.0277157
-0.677102
0.681822
0.0505507
0.685737
0.0726631
0.690521
0.0942982
0.696346
0.114979
0.70286
0.134509
0.710229
0.152851
0.16943
0.742971