/*--------------------------------*- C++ -*----------------------------------*\
| =========                 |                                                 |
| \\      /  F ield         | OpenFOAM: The Open Source CFD Toolbox           |
|  \\    /   O peration     | Version:  2512                                  |
|   \\  /    A nd           | Website:  www.openfoam.com                      |
|    \\/     M anipulation  |                                                 |
\*---------------------------------------------------------------------------*/
FoamFile
{
    version     2.0;
    format      ascii;
    arch        "LSB;label=32;scalar=64";
    class       surfaceScalarField;
    location    "39.85";
    object      phi;
}
// * * * * * * * * * * * * * * * * * * * * * * * * * * * * * * * * * * * * * //

dimensions      [0 3 -1 0 0 0 0];

oriented        oriented;

internalField   nonuniform List<scalar> 
26232
(
0.000143525
0.00125383
-0.00139735
0.000551548
0.00238924
-0.00279726
0.00132285
0.0023393
-0.0031106
0.00263785
0.00119592
-0.00251093
0.00473793
-0.00101045
-0.00108963
0.00790433
-0.00431661
0.00115021
0.0124207
-0.00878351
0.00426713
0.0185261
-0.0144437
0.0083383
0.0263493
-0.0212355
0.0134123
0.0358514
-0.0289689
0.0194668
0.0467999
-0.0373305
0.026382
0.0587857
-0.045925
0.0339392
0.0712786
-0.0543347
0.0418419
0.0837049
-0.06218
0.0497537
0.0955323
-0.0691674
0.05734
0.106336
-0.0751187
0.0643146
0.11586
-0.0799766
0.070453
0.124015
-0.083807
0.0756523
0.130897
-0.0867312
0.0798488
0.136741
-0.0889958
0.0831517
0.141819
-0.090709
0.0856313
0.146544
-0.0922242
0.0874992
0.150864
-0.093387
0.089067
-0.0946052
0.0904933
0.154976
0.000143492
0.00111033
0.00068054
0.00185219
0.00178644
0.0012334
0.00370774
-0.000725375
0.0067531
-0.0040558
0.0112487
-0.00881221
0.017473
-0.0150078
0.0255569
-0.0225277
0.0354045
-0.0310831
0.046667
-0.0402313
0.0587865
-0.0494499
0.071092
-0.0582305
0.0829167
-0.0661595
0.0937061
-0.0729694
0.103096
-0.0785571
0.110949
-0.0829722
0.117354
-0.0863815
0.122568
-0.0890209
0.126973
-0.0911364
0.130945
-0.0929678
0.134879
-0.094643
0.139024
-0.0963693
0.14368
-0.0980422
-0.100003
0.149077
0.00014518
0.000965153
0.000836977
0.00116039
0.00235577
-0.00028539
0.00504061
-0.00341022
0.00925972
-0.00827491
0.0153342
-0.0148866
0.0234033
-0.0230769
0.0333127
-0.0324371
0.0445888
-0.0423592
0.056521
-0.0521636
0.0683132
-0.0612421
0.0792454
-0.0691627
0.0888022
-0.0757163
0.0967423
-0.0809095
0.103103
-0.0849177
0.108147
-0.0880163
0.11227
-0.0905048
0.1159
-0.0926505
0.119408
-0.0946443
0.12306
-0.0966198
0.127018
-0.0986014
0.131343
-0.100694
0.136024
-0.102723
-0.105012
0.141033
0.000178702
0.000786451
0.00111059
0.00022851
0.00319619
-0.002371
0.00685694
-0.00707097
0.012473
-0.013891
0.0202185
-0.0226321
0.029904
-0.0327624
0.0409426
-0.0434757
0.0524794
-0.053896
0.0636121
-0.0632962
0.0736026
-0.0712326
0.0820151
-0.0775752
0.0887558
-0.082457
0.094024
-0.0861776
0.0982026
-0.0890963
0.101728
-0.0915413
0.104981
-0.0937586
0.10823
-0.0958991
0.111623
-0.0980375
0.115211
-0.100208
0.119017
-0.102407
0.123015
-0.104692
0.127253
-0.106962
-0.109504
0.131746
0.000264922
0.000521529
0.00156366
-0.00107023
0.0043982
-0.00520554
0.00923026
-0.011903
0.016316
-0.0209768
0.025487
-0.0318031
0.036079
-0.0433543
0.0471052
-0.054502
0.0575635
-0.0643543
0.0667059
-0.0724386
0.0741773
-0.0787041
0.0800105
-0.0834085
0.0845153
-0.0869617
0.0881211
-0.0897834
0.0912355
-0.0922107
0.0941602
-0.094466
0.0970729
-0.0966713
0.100057
-0.098883
0.103146
-0.101127
0.106361
-0.103422
0.109732
-0.105778
0.113279
-0.108239
0.117065
-0.110748
-0.113497
0.121058
0.000409719
0.000111811
0.00220594
-0.00286645
0.00594912
-0.00894872
0.0120268
-0.0179807
0.020379
-0.029329
0.0303354
-0.0417595
0.0407996
-0.0538186
0.0506576
-0.0643599
0.0591265
-0.0728231
0.0658981
-0.0792102
0.0710852
-0.0838911
0.0750529
-0.0873763
0.0782327
-0.0901415
0.0809886
-0.0925394
0.0835652
-0.0947873
0.0860997
-0.0970006
0.0886632
-0.0992348
0.0912981
-0.101518
0.0940388
-0.103868
0.0969148
-0.106298
0.0999555
-0.108819
0.103163
-0.111447
0.10656
-0.114145
-0.117056
0.110119
0.000607472
-0.000495661
0.00300842
-0.0052674
0.00773658
-0.0136769
0.0149338
-0.025178
0.0240416
-0.0384368
0.033903
-0.0516209
0.0432673
-0.0631828
0.0512599
-0.0723526
0.0575584
-0.0791216
0.0623005
-0.0839523
0.0658694
-0.08746
0.0686879
-0.0901948
0.0710949
-0.0925486
0.0733127
-0.0947572
0.0754697
-0.0969442
0.0776378
-0.0991686
0.0798601
-0.101457
0.0821646
-0.103822
0.084569
-0.106272
0.0870835
-0.108812
0.089715
-0.11145
0.0924557
-0.114188
0.0953351
-0.117024
-0.120014
0.0982924
0.000847749
-0.00134341
0.00391402
-0.00833366
0.00957687
-0.0193397
0.0175405
-0.0331416
0.0266974
-0.0475937
0.0356472
-0.0605706
0.0433437
-0.0708794
0.0493668
-0.0783757
0.0538228
-0.0835776
0.0570908
-0.0872203
0.0595931
-0.0899624
0.0616682
-0.0922698
0.0635388
-0.0944192
0.0653346
-0.0965529
0.067125
-0.0987347
0.0689463
-0.10099
0.0708169
-0.103328
0.0727481
-0.105754
0.0747489
-0.108273
0.0768305
-0.110894
0.0790019
-0.113622
0.0812731
-0.116459
0.0836545
-0.119406
-0.122475
0.0861155
0.00111689
-0.0024603
0.00484467
-0.0120614
0.0112432
-0.0257383
0.0194519
-0.0413503
0.0279732
-0.056115
0.0355061
-0.0681035
0.0414267
-0.0768
0.0457414
-0.0826903
0.0488024
-0.0866386
0.0510403
-0.0894582
0.0528109
-0.091733
0.0543508
-0.0938097
0.0557948
-0.0958632
0.0572111
-0.0979692
0.0586318
-0.100155
0.0600734
-0.102431
0.0615477
-0.104802
0.0630661
-0.107272
0.064641
-0.109848
0.066282
-0.112535
0.0679955
-0.115335
0.0697815
-0.118245
0.0716412
-0.121265
-0.124384
0.0735507
0.00139589
-0.00385619
0.00570423
-0.0163698
0.0125083
-0.0325423
0.0204087
-0.0492508
0.0278167
-0.0635229
0.0337768
-0.0740636
0.0380955
-0.0811187
0.0410558
-0.0856507
0.0430934
-0.0886762
0.0445934
-0.0909582
0.0458184
-0.0929579
0.0469171
-0.0949084
0.0479632
-0.0969094
0.048991
-0.098997
0.0500182
-0.101183
0.051057
-0.10347
0.0521175
-0.105863
0.0532091
-0.108364
0.0543387
-0.110978
0.0555115
-0.113708
0.0567295
-0.116553
0.0579952
-0.119511
0.059308
-0.122578
-0.125734
0.0606577
0.00166086
-0.00551705
0.00639128
-0.0211002
0.0132037
-0.0393548
0.0203478
-0.0563949
0.0264218
-0.0695969
0.030887
-0.0785287
0.0338725
-0.0841043
0.0357931
-0.0875712
0.0370683
-0.0899515
0.0380008
-0.0918908
0.0387666
-0.0937238
0.0394534
-0.0955951
0.040101
-0.097557
0.0407288
-0.0996248
0.041348
-0.101802
0.0419666
-0.104089
0.0425919
-0.106488
0.0432311
-0.109003
0.043891
-0.111638
0.0445772
-0.114394
0.0452931
-0.117269
0.0460389
-0.120256
0.0468073
-0.123347
-0.126525
0.0475981
0.0018888
-0.00740585
0.00682411
-0.0260355
0.0132659
-0.0457965
0.019377
-0.062506
0.0240953
-0.0743152
0.0272484
-0.0816819
0.0291613
-0.0860171
0.0302767
-0.0886866
0.0309502
-0.090625
0.0314011
-0.0923417
0.0317412
-0.0940638
0.0320206
-0.0958745
0.0322612
-0.0977976
0.0324741
-0.0998377
0.0326668
-0.101995
0.0328459
-0.104268
0.033018
-0.10666
0.0331899
-0.109175
0.0333672
-0.111815
0.0335543
-0.114581
0.0337536
-0.117468
0.0339644
-0.120467
0.0341814
-0.123564
0.0344093
-0.126753
-0.000220495
-0.00146498
0.00168548
-0.000800947
-0.00444319
0.00502364
-0.00171216
-0.00705089
0.0079621
-0.00291663
-0.00908263
0.0102871
-0.00436117
-0.0105946
0.0120391
-0.00598616
-0.0117825
0.0134075
-0.00773748
-0.012859
0.0146103
-0.00957355
-0.0139832
0.0158193
-0.0114653
-0.0152451
0.0171368
-0.0133916
-0.0166819
0.0186083
-0.0153348
-0.0183004
0.0202435
-0.0172763
-0.0200927
0.0220342
-0.0191955
-0.0220432
0.0239624
-0.0210689
-0.0241289
0.0260024
-0.0228704
-0.026319
0.0281204
-0.0245708
-0.0285724
0.0302728
-0.0261387
-0.0308368
0.0324048
-0.0275406
-0.0330467
0.0344485
-0.0287413
-0.0351221
0.0363228
-0.0297038
-0.0369714
0.0379339
-0.0303885
-0.0384928
0.0391775
-0.0307614
-0.0395602
0.0399331
-0.0308225
-0.0399869
0.040048
-0.0395857
-0.0306201
0.0393834
-0.000336182
-0.0011288
-0.00116116
-0.00361821
-0.00237748
-0.00583458
-0.00390571
-0.00755439
-0.00567488
-0.00882543
-0.00762566
-0.00983175
-0.00971403
-0.0107706
-0.011911
-0.0117862
-0.0141984
-0.0129577
-0.0165635
-0.0143168
-0.0189943
-0.0158695
-0.0214777
-0.0176093
-0.0239983
-0.0195225
-0.0265393
-0.021588
-0.0290828
-0.0237755
-0.031611
-0.0260442
-0.0341065
-0.0283413
-0.0365526
-0.0306005
-0.0389326
-0.0327421
-0.0412294
-0.0346745
-0.0434245
-0.0362977
-0.0454903
-0.0374944
-0.0473806
-0.0380966
-0.0379023
-0.049064
-0.000426014
-0.000702785
-0.00143649
-0.00260773
-0.00287641
-0.00439467
-0.00463226
-0.00579854
-0.00662022
-0.00683747
-0.00878274
-0.00766923
-0.0110842
-0.00846916
-0.0135045
-0.00936597
-0.0160314
-0.0104308
-0.0186549
-0.0116933
-0.0213634
-0.0131611
-0.0241422
-0.0148305
-0.026974
-0.0166907
-0.0298394
-0.0187226
-0.0327187
-0.0208962
-0.0355937
-0.0231692
-0.0384493
-0.0254858
-0.0412744
-0.0277755
-0.0440626
-0.0299539
-0.0468148
-0.0319223
-0.0495407
-0.0335719
-0.0522391
-0.034796
-0.0548549
-0.0354809
-0.0354319
-0.0573252
-0.000479938
-0.000222847
-0.00160197
-0.0014857
-0.00317098
-0.00282565
-0.00504902
-0.0039205
-0.00714318
-0.00474332
-0.00939727
-0.00541514
-0.011781
-0.00608538
-0.0142787
-0.00686829
-0.0168794
-0.00783015
-0.0195706
-0.00900207
-0.0223357
-0.010396
-0.0251522
-0.012014
-0.027993
-0.0138499
-0.0308277
-0.0158879
-0.033624
-0.0180998
-0.0363512
-0.0204421
-0.0389816
-0.0228553
-0.0414936
-0.0252634
-0.0438727
-0.0275748
-0.0461143
-0.0296807
-0.0482336
-0.0314526
-0.0502644
-0.0327652
-0.0522026
-0.0335426
-0.0337201
-0.0539144
-0.000491793
0.000268946
-0.00164218
-0.000335311
-0.00323767
-0.00123017
-0.00512606
-0.00203211
-0.00720738
-0.00266199
-0.00942446
-0.00319806
-0.0117481
-0.00376174
-0.0141625
-0.00445394
-0.0166534
-0.00533916
-0.0192022
-0.00645329
-0.0217825
-0.00781575
-0.0243601
-0.00943641
-0.0268937
-0.0113162
-0.0293371
-0.0134445
-0.0316416
-0.0157952
-0.0337593
-0.0183244
-0.0356458
-0.0209688
-0.0372633
-0.023646
-0.0385807
-0.0262574
-0.039572
-0.0286893
-0.0402168
-0.0308078
-0.0405406
-0.0324414
-0.0405902
-0.033493
-0.034129
-0.0401813
-0.00045989
0.000728836
-0.00155203
0.000756832
-0.00306655
0.000284354
-0.00484791
-0.000250749
-0.00678805
-0.000721859
-0.00882399
-0.00116212
-0.0109212
-0.00166455
-0.0130575
-0.00231758
-0.0152088
-0.00318795
-0.017343
-0.00431902
-0.0194186
-0.00574022
-0.0213839
-0.0074711
-0.0231796
-0.00952046
-0.0247424
-0.0118818
-0.0260091
-0.0145286
-0.0269214
-0.0174121
-0.0274307
-0.0204596
-0.027501
-0.0235757
-0.0271085
-0.0266499
-0.0262378
-0.02956
-0.0248877
-0.0321579
-0.0227815
-0.0345476
-0.0204523
-0.0358222
-0.0373215
-0.0172598
-0.000385717
0.00111455
-0.00133553
0.00170664
-0.00266655
0.00161537
-0.00421925
0.00130195
-0.00588038
0.000939272
-0.00757305
0.000530549
-0.00924668
9.08288e-06
-0.0108658
-0.000698444
-0.0123832
-0.0016706
-0.0137429
-0.00295926
-0.0148776
-0.00460556
-0.0157098
-0.0066389
-0.016156
-0.00907423
-0.0161336
-0.0119041
-0.0155685
-0.0150938
-0.0144021
-0.0185784
-0.012596
-0.0222656
-0.0101371
-0.0260347
-0.00704219
-0.0297448
-0.00331265
-0.0332895
0.000955913
-0.0364265
0.00555359
-0.0391453
0.0109763
-0.0412449
-0.0428484
0.0165032
-0.00027931
0.00139386
-0.00101528
0.00244261
-0.0020624
0.0026625
-0.00327027
0.00250982
-0.00451371
0.00218271
-0.00569889
0.00171573
-0.0067497
0.00105989
-0.00757826
0.000130116
-0.00813355
-0.00111531
-0.0083139
-0.0027789
-0.00801778
-0.00490168
-0.00713934
-0.00751734
-0.0055705
-0.0106431
-0.00321683
-0.0142578
-6.52487e-06
-0.0183041
0.00410185
-0.0226868
0.00911075
-0.0272745
0.0149866
-0.0319105
0.0216622
-0.0364205
0.0290637
-0.040691
0.0369964
-0.0443592
0.0456866
-0.0478354
0.0542992
-0.0498575
-0.0526358
0.0640865
-0.000155915
0.00154978
-0.00063041
0.00291711
-0.00132165
0.00335374
-0.00208888
0.00327705
-0.00279399
0.00288782
-0.00331492
0.00223666
-0.00354072
0.00128569
-0.00336925
-4.13521e-05
-0.00266998
-0.00181458
-0.00132416
-0.00412472
0.000800083
-0.00702593
0.00383491
-0.0105522
0.00788415
-0.0146923
0.0130214
-0.019395
0.0192757
-0.0245584
0.0266236
-0.0300347
0.0349927
-0.0356436
0.0442617
-0.0411795
0.0542955
-0.0464542
0.0649153
-0.0513109
0.0760162
-0.0554601
0.0875049
-0.0593241
0.0991798
-0.0615324
-0.0650401
0.111584
-3.52621e-05
0.00158504
-0.000233728
0.00311557
-0.00053191
0.00365192
-0.000797978
0.00354312
-0.000880743
0.00297059
-0.000629294
0.00198521
0.000104877
0.000551516
0.00147125
-0.00140773
0.00363567
-0.003979
0.00675114
-0.00724019
0.0109636
-0.0112384
0.0163853
-0.0159739
0.0230808
-0.0213878
0.0310453
-0.0273595
0.0401977
-0.0337108
0.0503868
-0.0402238
0.0614061
-0.0466629
0.073011
-0.0527844
0.0849764
-0.0584196
0.0970271
-0.0633616
0.109115
-0.0675485
0.120852
-0.0710606
0.132713
-0.073393
-0.07627
0.143942
6.30363e-05
0.001522
0.000119374
0.00305923
0.000210823
0.00356047
0.000466887
0.00328706
0.00105448
0.002383
0.00215601
0.000883678
0.00396283
-0.00125531
0.00667107
-0.00411596
0.0104731
-0.00778103
0.0155378
-0.0123049
0.0219834
-0.017684
0.0298495
-0.02384
0.0390765
-0.0306149
0.0495001
-0.0377831
0.0608617
-0.0450724
0.0728406
-0.0522027
0.0850789
-0.0589012
0.0972522
-0.0649578
0.109054
-0.0702214
0.120279
-0.074587
0.130871
-0.0781404
0.140578
-0.0807671
0.149921
-0.082736
-0.0839734
0.157624
0.000124654
0.000386626
0.000836502
0.00161263
0.00290599
0.00493988
0.00795171
0.012174
0.0178054
0.0249672
0.0336652
0.0437644
0.0549914
0.066962
0.0792296
0.0913416
0.102893
0.113588
0.123215
0.13178
0.139271
0.146003
0.152334
0.158854
-0.0274837
-0.0539062
0.0507698
-0.0237807
-0.0489365
0.0452335
-0.019617
-0.0412382
0.0370745
-0.0151595
-0.0298815
0.025424
-0.0105695
-0.0148736
0.0102836
-0.0059958
0.00403952
-0.00861321
-0.00122073
0.0264831
-0.0312582
0.00374924
0.0527427
-0.0577127
0.00906371
0.0817891
-0.0871036
0.0147229
0.111865
-0.117524
0.0201737
0.140481
-0.145932
0.0238107
0.165502
-0.169139
0.0235961
0.186335
-0.18612
0.0188674
0.204529
-0.1998
0.0128058
0.219926
-0.213864
0.0115768
0.227378
-0.226149
0.0194902
0.218032
-0.225945
0.0353186
0.187791
-0.20362
0.0547876
0.141003
-0.160472
0.0731304
0.086566
-0.104909
0.086434
0.0303586
-0.0436622
0.0951598
-0.0331847
0.0244588
0.102019
-0.107912
0.101053
0.107564
-0.179881
0.174336
0.111393
-0.230357
0.226528
0.113429
-0.250939
0.248903
0.111762
-0.250036
0.251703
0.108545
-0.241098
0.244314
0.104659
-0.224378
0.228264
0.0940151
-0.20884
0.219484
0.0782107
-0.206739
0.222543
0.0686971
-0.195452
0.204965
0.0718291
-0.145062
0.14193
0.0847342
-0.0618753
0.0489701
0.101197
0.0231116
-0.0395743
0.116703
0.0896279
-0.105134
0.128765
0.13037
-0.142433
0.136106
0.151081
-0.158421
0.139586
0.157509
-0.16099
0.141181
0.153687
-0.155283
0.140189
0.143923
-0.142931
0.135251
0.135472
-0.130533
0.129954
0.122006
-0.116709
0.130257
0.0933799
-0.0936826
0.137399
0.0488165
-0.0559582
0.147505
0.00382646
-0.0139332
0.156657
-0.0315137
0.0223622
0.163113
-0.0519373
0.045481
0.166809
-0.0613049
0.0576087
0.167909
-0.0618246
0.0607253
0.16687
-0.0591824
0.060221
0.164636
-0.0537158
0.0559503
0.162884
-0.046286
0.0480375
0.162657
-0.0342049
0.0344319
0.163959
-0.0188505
0.0175482
0.165957
-0.00296648
0.000969069
0.167708
0.0114196
-0.0131708
0.168941
0.0196476
-0.0208802
0.169478
0.0267126
-0.0272497
0.0261223
-0.0261703
-0.0477018
-0.0552685
-0.0455186
-0.0511197
-0.0426475
-0.0441093
-0.0388493
-0.0336796
-0.0342699
-0.0194531
-0.0293124
-0.000917914
-0.0234094
0.0205801
-0.0169588
0.0462921
-0.0100744
0.0749048
-0.00304759
0.104838
0.00337077
0.134062
0.00806573
0.160807
0.00986072
0.18454
0.00973905
0.204651
0.0116375
0.218027
0.0194609
0.219554
0.0340875
0.203405
0.0529631
0.168916
0.0729373
0.121029
0.0901074
0.0693959
0.101539
0.0189266
0.108136
-0.0397811
0.112696
-0.112472
0.116049
-0.183233
0.117197
-0.231505
0.116839
-0.250581
0.11399
-0.247187
0.10906
-0.236167
0.1048
-0.220118
0.0962018
-0.200242
0.0808705
-0.191407
0.0689818
-0.183563
0.0697735
-0.145854
0.0815251
-0.0736269
0.0980608
0.00657591
0.114232
0.0734565
0.126833
0.11777
0.134528
0.143385
0.138785
0.153252
0.140693
0.15178
0.138445
0.14617
0.132282
0.141635
0.128168
0.12612
0.131502
0.0900463
0.141098
0.0392204
0.151974
-0.00704991
0.160666
-0.0402051
0.166164
-0.0574358
0.16903
-0.0641708
0.169804
-0.0625989
0.168868
-0.0582462
0.166635
-0.0514828
0.164353
-0.0440041
0.163105
-0.0329569
0.163355
-0.0190998
0.164624
-0.00423635
0.1661
0.00994365
0.167364
0.0183836
0.168142
0.0259349
0.0258282
-0.0580353
-0.0545584
-0.0578996
-0.0512554
-0.0569804
-0.0450285
-0.054818
-0.0358421
-0.0514777
-0.0227934
-0.0467775
-0.00561804
-0.0410428
0.0148454
-0.034142
0.0393913
-0.0263838
0.0671466
-0.0181945
0.0966491
-0.0103058
0.126174
-0.00341987
0.153921
0.00232761
0.178793
0.00899181
0.197986
0.0186737
0.208346
0.0331682
0.20506
0.0513623
0.185211
0.0707356
0.149543
0.0893724
0.102392
0.104646
0.0541226
0.114318
0.00925395
0.119454
-0.0449172
0.122359
-0.115377
0.123751
-0.184625
0.122777
-0.230531
0.120046
-0.247851
0.116141
-0.243281
0.110128
-0.230155
0.105069
-0.215059
0.0986742
-0.193847
0.0851936
-0.177927
0.0713891
-0.169758
0.0689522
-0.143417
0.0789512
-0.0836259
0.0952321
-0.00970498
0.111688
0.0570007
0.12455
0.104907
0.132872
0.135063
0.138096
0.148028
0.139825
0.150051
0.136094
0.1499
0.129563
0.148167
0.127666
0.128016
0.134055
0.0836574
0.145331
0.0279447
0.156248
-0.0179675
0.164121
-0.0480779
0.168584
-0.0618991
0.17058
-0.0661663
0.170933
-0.0629526
0.170095
-0.0574077
0.168139
-0.0495265
0.16582
-0.0416857
0.164009
-0.0311462
0.163421
-0.0185115
0.163945
-0.00476001
0.165024
0.00886409
0.1662
0.0172081
0.167152
0.0249828
0.0253024
-0.056469
-0.0520038
-0.0583246
-0.0493997
-0.0595053
-0.0438478
-0.0594376
-0.0359098
-0.057926
-0.024305
-0.0545928
-0.00895122
-0.0498124
0.010065
-0.0433511
0.03293
-0.0353814
0.0591768
-0.0262543
0.087522
-0.0164801
0.116399
-0.00637013
0.143811
0.00419565
0.168227
0.0169374
0.185245
0.0324247
0.192858
0.0506627
0.186822
0.0696883
0.166185
0.087711
0.13152
0.104001
0.0861013
0.116983
0.0411408
0.12514
0.00109739
0.129283
-0.0490608
0.131081
-0.117174
0.130747
-0.184291
0.12794
-0.227724
0.123041
-0.242952
0.117961
-0.238201
0.111542
-0.223736
0.105349
-0.208867
0.100499
-0.188997
0.0902815
-0.167709
0.0759968
-0.155474
0.0698898
-0.13731
0.0771785
-0.0909146
0.0923689
-0.0248954
0.108722
0.0406472
0.121947
0.0916826
0.131333
0.125677
0.137414
0.141947
0.138434
0.149031
0.133424
0.15491
0.127567
0.154024
0.128528
0.127056
0.137561
0.0746239
0.149689
0.0158165
0.160052
-0.02833
0.166867
-0.0548928
0.170318
-0.0653501
0.171529
-0.0673772
0.171452
-0.0628761
0.170642
-0.0565979
0.169042
-0.0479265
0.16701
-0.0396533
0.165084
-0.0292206
0.164004
-0.0174309
0.163928
-0.00468461
0.164604
0.00818878
0.16562
0.0161918
0.166675
0.0239274
0.0245848
-0.0436774
-0.0485078
-0.0467374
-0.0463397
-0.0493999
-0.0411853
-0.0511804
-0.0341293
-0.0515751
-0.0239103
-0.0500329
-0.0104934
-0.0467203
0.00675235
-0.0412222
0.027432
-0.0335148
0.0514694
-0.023877
0.0778842
-0.0124387
0.104961
-0.000197923
0.13157
0.0151729
0.152856
0.0318551
0.168562
0.0505027
0.174211
0.0701119
0.167212
0.0883491
0.147948
0.104001
0.115868
0.117476
0.0726265
0.127987
0.0306294
0.134809
-0.00572496
0.1385
-0.0527518
0.139391
-0.118065
0.137316
-0.182216
0.132507
-0.222914
0.125798
-0.236244
0.119322
-0.231725
0.112948
-0.217361
0.106032
-0.201951
0.101493
-0.184459
0.0949738
-0.161189
0.0823034
-0.142803
0.07293
-0.127936
0.0762612
-0.0942458
0.089464
-0.0380983
0.105383
0.0247281
0.119314
0.0777518
0.130019
0.114973
0.136542
0.135424
0.136509
0.149065
0.130799
0.16062
0.126586
0.158237
0.130598
0.123044
0.141628
0.063594
0.153853
0.0035915
0.163228
-0.0377052
0.168841
-0.0605057
0.171339
-0.0678484
0.171904
-0.0679426
0.171471
-0.0624431
0.170642
-0.0557686
0.169366
-0.0466504
0.167762
-0.0380493
0.166058
-0.0275167
0.164854
-0.0162269
0.16444
-0.00427078
0.164814
0.00781453
0.165672
0.0153347
0.166778
0.0228206
0.0237237
-0.0219181
-0.0438495
-0.0260064
-0.0422513
-0.0294377
-0.0377541
-0.0322007
-0.0313663
-0.0338335
-0.0222776
-0.0338661
-0.0104608
-0.0318936
0.00477984
-0.0275701
0.0231085
-0.0203863
0.0442856
-0.0110738
0.0685718
0.000758852
0.0931285
0.0161662
0.116163
0.0327505
0.136272
0.0509445
0.150368
0.0702505
0.154905
0.0893913
0.148072
0.106161
0.131179
0.11956
0.102469
0.130236
0.061951
0.13822
0.0226453
0.143412
-0.0109165
0.146462
-0.0558027
0.146763
-0.118365
0.143001
-0.178454
0.136161
-0.216075
0.128045
-0.228128
0.120274
-0.223953
0.113828
-0.210915
0.106981
-0.195104
0.101857
-0.179334
0.0981666
-0.157499
0.0891356
-0.133772
0.0782142
-0.117015
0.0768967
-0.0929283
0.0871156
-0.0483172
0.102389
0.00945437
0.11717
0.0629713
0.128953
0.10319
0.13532
0.129057
0.134189
0.150195
0.128568
0.166241
0.126722
0.160082
0.133595
0.116171
0.145893
0.0512958
0.157562
-0.00807747
0.165676
-0.0458185
0.170034
-0.0648643
0.171662
-0.0694764
0.171727
-0.0680069
0.171053
-0.0617696
0.170207
-0.0549224
0.169192
-0.0456357
0.168029
-0.0368859
0.166735
-0.0262233
0.165709
-0.0152009
0.165245
-0.00380662
0.165494
0.00756546
0.166259
0.0145699
0.167401
0.0216783
0.0227566
0.00867688
-0.0360231
0.00171702
-0.0352915
-0.00309186
-0.0329452
-0.00656553
-0.0278926
-0.00869111
-0.020152
-0.00949652
-0.00965538
-0.00856341
0.00384672
-0.00563834
0.0201835
0.000155263
0.038492
0.010201
0.058526
0.0229081
0.0804213
0.0376388
0.101432
0.0542273
0.119683
0.0719859
0.13261
0.0901757
0.136715
0.107639
0.130609
0.122503
0.116314
0.133912
0.0910599
0.142151
0.0537115
0.147474
0.0173231
0.150995
-0.0144379
0.153231
-0.0580384
0.152573
-0.117708
0.147351
-0.173233
0.138751
-0.207474
0.129437
-0.218814
0.120776
-0.215292
0.113986
-0.204125
0.107813
-0.18893
0.102127
-0.173648
0.0994901
-0.154863
0.0948743
-0.129156
0.0851782
-0.107319
0.0797691
-0.0875193
0.0859695
-0.0545176
0.100159
-0.004735
0.115642
0.0474883
0.127967
0.0908652
0.133669
0.123355
0.131683
0.152181
0.126966
0.170958
0.127906
0.159142
0.137196
0.106881
0.149998
0.0384936
0.160671
-0.0187497
0.167331
-0.0524787
0.170465
-0.0679986
0.171331
-0.070342
0.171026
-0.0677024
0.170232
-0.0609752
0.169411
-0.0541019
0.168614
-0.0448385
0.167842
-0.0361137
0.167021
-0.0254021
0.166361
-0.0145414
0.166088
-0.00353364
0.166403
0.0072507
0.167182
0.0137904
0.168383
0.0204781
0.0216963
0.0528468
-0.0247835
0.0423239
-0.0247686
0.0332267
-0.0238481
0.02647
-0.0211359
0.0222786
-0.0159606
0.0205446
-0.00792136
0.0210602
0.00333109
0.0238177
0.017426
0.0291425
0.0331672
0.0368767
0.0507918
0.0476378
0.0696602
0.0609557
0.0881142
0.0762933
0.104346
0.0925965
0.116307
0.108884
0.120427
0.124206
0.115287
0.137144
0.103376
0.146853
0.0813504
0.152989
0.0475758
0.156003
0.0143088
0.157796
-0.0162309
0.159067
-0.0593087
0.157152
-0.115793
0.150382
-0.166463
0.14032
-0.197413
0.129947
-0.208441
0.120765
-0.20611
0.113493
-0.196854
0.107941
-0.183379
0.102491
-0.168198
0.0994796
-0.151851
0.0981535
-0.12783
0.0922608
-0.101426
0.0850098
-0.0802683
0.0864609
-0.0559686
0.0983019
-0.0165759
0.113895
0.0318955
0.126376
0.0783833
0.131403
0.118328
0.129173
0.15441
0.126135
0.173996
0.12998
0.155298
0.141087
0.0957742
0.153714
0.0258665
0.163022
-0.0280575
0.168162
-0.0576192
0.170167
-0.070003
0.170401
-0.0705765
0.169848
-0.0671487
0.169035
-0.0601623
0.168299
-0.053366
0.167705
-0.0442451
0.167266
-0.0356747
0.166901
-0.0250363
0.166688
-0.0143291
0.166762
-0.00360737
0.1673
0.00671301
0.168206
0.0128837
0.169514
0.0191709
0.0205275
0.100995
-0.0141942
0.0898495
-0.0136232
0.0782272
-0.0122257
0.0673233
-0.010232
0.0585511
-0.00718839
0.053055
-0.00242525
0.0508504
0.00553575
0.0522531
0.0160232
0.0566476
0.0287727
0.0636359
0.0438035
0.0730312
0.0602648
0.0845815
0.0765639
0.0979438
0.0909835
0.112119
0.102131
0.126035
0.106511
0.138846
0.102477
0.14966
0.0925627
0.157651
0.0733594
0.161703
0.0435232
0.162327
0.0136849
0.162968
-0.0168713
0.163438
-0.0597787
0.16025
-0.112605
0.151971
-0.158183
0.140768
-0.18621
0.129586
-0.197259
0.120101
-0.196625
0.112548
-0.1893
0.107162
-0.177993
0.102572
-0.163608
0.0990472
-0.148327
0.098809
-0.127592
0.097402
-0.100019
0.0916513
-0.0745176
0.0891228
-0.0534401
0.0967849
-0.024238
0.11104
0.0176404
0.123437
0.065986
0.128338
0.113427
0.126737
0.156012
0.126024
0.174709
0.132687
0.148635
0.144976
0.0834852
0.15683
0.0140129
0.164527
-0.0357549
0.168169
-0.0612612
0.169186
-0.0710192
0.168936
-0.0703265
0.168242
-0.0664556
0.167492
-0.059412
0.166897
-0.0527708
0.166516
-0.0438643
0.16637
-0.0355284
0.166412
-0.0250786
0.166653
-0.0145696
0.167143
-0.00409773
0.168004
0.00585207
0.169129
0.0117584
0.170602
0.0176982
0.0192136
0.135983
-0.00623459
0.127674
-0.00531462
0.118852
-0.00340312
0.109571
-0.000951041
0.0996114
0.00277087
0.0899457
0.00724042
0.0828402
0.0126413
0.0796773
0.0191862
0.0805446
0.0279054
0.0854375
0.0389105
0.093625
0.0520774
0.104208
0.0659814
0.11644
0.0787507
0.129225
0.089346
0.141378
0.0943584
0.152069
0.0917855
0.160876
0.083756
0.16696
0.0672754
0.168908
0.0415747
0.1683
0.0142931
0.168062
-0.0166335
0.167315
-0.0590313
0.162234
-0.107525
0.152206
-0.148154
0.139944
-0.173948
0.128192
-0.185506
0.118444
-0.186877
0.110862
-0.181719
0.105413
-0.172543
0.101622
-0.159817
0.0983917
-0.145097
0.097777
-0.126977
0.0993197
-0.101562
0.0975721
-0.0727701
0.0939109
-0.0497789
0.0965964
-0.0269236
0.107357
0.00687944
0.118887
0.0544567
0.124255
0.108058
0.124396
0.155871
0.126636
0.172469
0.135826
0.139445
0.148614
0.0706974
0.159204
0.00342293
0.165139
-0.0416908
0.167373
-0.0634952
0.167573
-0.0712183
0.166989
-0.0697429
0.166258
-0.0657247
0.165635
-0.0587889
0.165227
-0.0523626
0.165077
-0.0437149
0.165205
-0.0356561
0.165609
-0.0254827
0.166272
-0.0152321
0.167187
-0.00501311
0.168417
0.00462188
0.169821
0.0103546
0.171513
0.0160063
0.0177075
0.152435
-0.00104541
0.147473
-0.000352169
0.142049
0.00202065
0.136172
0.00492612
0.130252
0.0086911
0.123991
0.0135008
0.117526
0.0191063
0.111516
0.0251957
0.107859
0.0315634
0.107827
0.0389419
0.111651
0.0482538
0.1189
0.0587323
0.128673
0.0689772
0.139674
0.0783452
0.150287
0.0837458
0.159257
0.0828149
0.166343
0.0766708
0.170829
0.062789
0.171614
0.0407901
0.17051
0.0153971
0.170454
-0.016578
0.168621
-0.0571983
0.161762
-0.100666
0.150416
-0.136808
0.137535
-0.161067
0.125579
-0.17355
0.115706
-0.177004
0.108177
-0.17419
0.102706
-0.167072
0.0992471
-0.156358
0.0968836
-0.142733
0.095943
-0.126037
0.098218
-0.103837
0.100522
-0.0750743
0.099214
-0.0484707
0.0987769
-0.0264865
0.104704
0.000951939
0.114049
0.0451125
0.120141
0.101966
0.122682
0.15333
0.127947
0.167203
0.139165
0.128227
0.151854
0.0580082
0.160682
-0.00540496
0.164833
-0.0458421
0.165813
-0.0644747
0.165387
-0.0707924
0.164617
-0.0689727
0.163939
-0.0650472
0.163495
-0.0583449
0.163311
-0.0521778
0.163413
-0.0438169
0.163811
-0.0360544
0.164543
-0.0262147
0.165588
-0.0162775
0.166907
-0.0063321
0.168515
0.00301451
0.170229
0.00864062
0.172181
0.0140537
0.0159618
0.155566
0.00224194
0.151756
0.00345783
0.148383
0.00539401
0.145472
0.00783763
0.142916
0.0112462
0.140604
0.0158135
0.138355
0.0213556
0.13615
0.0273999
0.134043
0.033671
0.132733
0.0402516
0.133553
0.047434
0.136985
0.0552999
0.142859
0.0631036
0.150635
0.0705693
0.158947
0.0754333
0.166336
0.0754264
0.172386
0.0706207
0.17624
0.0589344
0.177069
0.0399615
0.176837
0.0156292
0.175637
-0.0153784
0.171104
-0.0526647
0.161582
-0.0911437
0.148848
-0.124075
0.13558
-0.1478
0.123679
-0.161649
0.113944
-0.167269
0.106574
-0.16682
0.101237
-0.161735
0.0976854
-0.152807
0.0956999
-0.140748
0.0946913
-0.125028
0.0961615
-0.105307
0.100245
-0.0791581
0.102583
-0.0508083
0.102308
-0.0262114
0.104271
-0.0010117
0.110217
0.0391669
0.115912
0.0962708
0.120644
0.148599
0.129368
0.15848
0.142644
0.11495
0.154688
0.0459651
0.161462
-0.0121793
0.16374
-0.0481197
0.163634
-0.0643695
0.162758
-0.0699162
0.161915
-0.06813
0.161355
-0.0644865
0.161122
-0.0581121
0.161183
-0.0522386
0.16155
-0.0441841
0.162221
-0.0367259
0.16326
-0.027253
0.164654
-0.0176715
0.166343
-0.00802134
0.168317
0.00104072
0.170354
0.00660344
0.172597
0.0118109
0.013935
0.174688
0.0056577
-0.178104
0.171643
0.00650344
0.168752
0.00828527
0.165833
0.0107562
0.162911
0.0141682
0.16003
0.0186946
0.157145
0.0242403
0.153995
0.0305502
0.150336
0.0373302
0.146441
0.0441459
0.143009
0.0508664
0.141028
0.0572806
0.141316
0.0628161
0.144533
0.0673517
0.150642
0.0693248
0.158819
0.0672496
0.168739
0.0607004
0.179558
0.0481153
0.19021
0.0293093
0.200611
0.00522861
0.209859
-0.0246264
0.215167
-0.0579726
0.214914
-0.0908913
0.209429
-0.118589
0.200006
-0.138377
0.188447
-0.150089
0.176416
-0.155238
0.164995
-0.1554
0.154649
-0.151389
0.145352
-0.14351
0.137343
-0.132738
0.130181
-0.117867
0.12397
-0.0990956
0.120492
-0.0756798
0.118367
-0.0486838
0.113981
-0.021825
0.107725
0.00524414
0.102157
0.0447352
0.0995193
0.0989082
0.104482
0.143636
0.120936
0.142026
0.142622
0.0932644
0.159311
0.0292766
0.167619
-0.0204874
0.169583
-0.0500844
0.168259
-0.0630456
0.165764
-0.0674204
0.163169
-0.0655349
0.160848
-0.0621662
0.158903
-0.0561672
0.157305
-0.0506401
0.156061
-0.0429405
0.155173
-0.0358378
0.154698
-0.0267781
0.154668
-0.0176412
0.15501
-0.00836321
0.155708
0.000342542
0.156488
0.00582305
0.15745
0.0108498
0.0131922
0.184701
0.00826518
-0.187309
0.182251
0.00895352
0.179994
0.0105425
0.17789
0.0128604
0.176083
0.0159756
0.174707
0.0200702
0.1738
0.0251471
0.173318
0.0310324
0.173121
0.0375267
0.173066
0.0442016
0.173236
0.0506959
0.173991
0.0565259
0.17582
0.0609872
0.179423
0.0637486
0.185014
0.0637333
0.192302
0.0599616
0.201086
0.0519165
0.210466
0.0387361
0.219434
0.0203406
0.227501
-0.00283799
0.233108
-0.0302335
0.234473
-0.0593373
0.230621
-0.0870393
0.221903
-0.109871
0.210008
-0.126483
0.197148
-0.137228
0.18485
-0.14294
0.173634
-0.144184
0.163645
-0.141399
0.154693
-0.134558
0.146834
-0.124879
0.140169
-0.111203
0.134298
-0.0932243
0.130458
-0.0718399
0.129241
-0.0474664
0.126948
-0.019532
0.120856
0.0113354
0.1137
0.0518915
0.111599
0.101009
0.120777
0.134457
0.140856
0.121947
0.162076
0.0720443
0.175934
0.0154192