/*--------------------------------*- C++ -*----------------------------------*\
| =========                 |                                                 |
| \\      /  F ield         | OpenFOAM: The Open Source CFD Toolbox           |
|  \\    /   O peration     | Version:  2312                                  |
|   \\  /    A nd           | Website:  www.openfoam.com                      |
|    \\/     M anipulation  |                                                 |
\*---------------------------------------------------------------------------*/
FoamFile
{
    version     2.0;
    format      ascii;
    arch        "LSB;label=32;scalar=64";
    class       surfaceScalarField;
    location    "52.5";
    object      phi;
}
// * * * * * * * * * * * * * * * * * * * * * * * * * * * * * * * * * * * * * //

dimensions      [0 3 -1 0 0 0 0];

oriented        oriented;

internalField   nonuniform List<scalar> 
4490
(
-0.000897214
0.00907772
-0.00818051
0.00518504
0.00487314
-0.0109554
0.0287584
-0.0203271
-0.00324626
0.073117
-0.0607208
0.0163622
0.13147
-0.105393
0.0470403
0.19802
-0.146766
0.0802154
0.267833
-0.182848
0.113035
0.327573
-0.211015
0.151275
0.389321
-0.234295
0.172547
-0.254838
0.214702
0.429457
0.00119186
0.00788586
0.0212009
-0.0151359
0.0667794
-0.0659056
0.12638
-0.120321
0.186835
-0.165848
0.239938
-0.199869
0.280307
-0.223217
0.30904
-0.239748
0.329366
-0.25462
-0.267818
0.342345
0.00683622
0.00104964
0.0452317
-0.0535314
0.100534
-0.121208
0.151421
-0.171209
0.188144
-0.202571
0.209866
-0.221591
0.222546
-0.235896
0.233644
-0.250846
0.247979
-0.268955
-0.290589
0.270749
0.0173984
-0.0163488
0.0653434
-0.101476
0.107767
-0.163632
0.13379
-0.197231
0.147145
-0.215926
0.156328
-0.230774
0.167243
-0.246812
0.18141
-0.265013
0.1973
-0.284846
-0.303922
0.210634
0.0276469
-0.0439957
0.0661738
-0.140003
0.0884851
-0.185944
0.0986114
-0.207358
0.105012
-0.222326
0.110977
-0.23674
0.115924
-0.251758
0.119373
-0.268462
0.121693
-0.287166
0.124262
-0.30649
-0.00640325
-0.00833802
0.0147413
-0.0178351
-0.0134458
0.0248776
-0.0316839
-0.0149305
0.0287793
-0.0469189
-0.0166184
0.0318534
-0.0628476
-0.0187779
0.0347066
-0.0786139
-0.0202951
0.0360614
-0.0941384
-0.0187513
0.0342757
-0.104238
-0.0175071
0.0276071
-0.115295
-0.00339735
0.0144543
0.00711224
-0.115579
-0.00682857
-0.00610155
-0.00223648
-0.0165112
-0.00303609
-0.0287976
-0.0026441
-0.0421067
-0.00330934
-0.0558159
-0.00506862
-0.0674507
-0.00866036
-0.0790483
-0.00715363
-0.0804
-0.0161554
-0.0790508
-0.00474652
-0.0100809
-0.0618577
-0.00460085
0.00236437
-0.012238
0.00460111
-0.0206293
0.00574719
-0.0282394
0.00430069
-0.0329495
-0.000358435
-0.0323207
-0.00928919
-0.0262729
-0.0132015
-0.00692072
-0.0355076
0.0202517
-0.031919
-0.0563239
0.0664948
-0.00346567
0.00583004
-0.00853502
0.00967046
-0.01209
0.00930218
-0.010745
0.00295564
0.000873694
-0.0119771
0.0219156
-0.0303311
0.0588351
-0.050121
0.1074
-0.0840727
0.165292
-0.0898111
-0.133393
0.242362
-0.00235047
-0.00363542
0.0024205
0.0217384
0.0568016
0.106686
0.1696
0.236802
0.319538
0.400847
-0.101503
0.0282879
-0.0423635
-0.0839033
0.0718781
-0.0894782
-0.0639831
0.129122
-0.149042
-0.0390169
0.185548
-0.210515
-0.00522812
0.2261
-0.259889
0.0401109
0.212656
-0.257995
0.107873
0.132634
-0.200397
0.223663
-0.0876863
-0.0281041
0.352086
-0.327956
0.199533
0.365487
-0.387871
0.37447
0.30421
-0.467458
0.528734
0.353509
-0.493746
0.444447
0.428399
-0.12514
0.0502497
0.449433
0.461254
-0.482287
0.446744
0.822399
-0.819711
0.423048
0.562908
-0.539212
0.375375
-0.0652882
0.112961
0.331889
-0.607383
0.650868
0.333183
-0.592796
0.591503
0.350332
-0.128721
0.111571
0.347503
0.352573
-0.349743
0.340243
0.50657
-0.49931
0.349465
0.373567
-0.382788
0.364188
0.0273612
-0.0420846
-0.216262
0.209489
-0.0456872
0.0121175
-0.0224312
0.048622
0.0129522
0.0937383
0.0586373
0.139863
0.110863
0.173875
0.1702
0.153319
0.239792
0.0630424
0.294519
-0.142413
0.352918
-0.386355
0.379901
-0.414853
0.328234
-0.415791
0.334176
-0.499688
0.393728
-0.184692
0.439291
0.41569
0.456764
0.804926
0.429709
0.589963
0.371201
-0.00677958
0.321101
-0.557283
0.322024
-0.593719
0.341057
-0.147754
0.340246
0.353383
0.33837
0.508447
0.353772
0.358164
0.370536
0.0105977
-0.223255
0.0727254
0.00588684
0.0935716
0.0277758
0.126884
0.060426
0.177208
0.089539
0.231791
0.119292
0.279441
0.105668
0.343676
-0.0011924
0.372213
-0.170949
0.345874
-0.360017
0.329208
-0.398188
0.287853
-0.374435
0.29551
-0.507345
0.366603
-0.255785
0.41563
0.366663
0.434562
0.785994
0.422206
0.602319
0.377978
0.0374486
0.318724
-0.498029
0.306459
-0.581454
0.322452
-0.163747
0.325676
0.35016
0.333635
0.500488
0.358116
0.333683
0.378044
-0.00932942
-0.230951
0.230714
0.0175348
0.230327
0.028162
0.243837
0.0469159
0.276413
0.0569636
0.32474
0.0709648
0.360685
0.0697236
0.389634
-0.0301413
0.401358
-0.182674
0.354154
-0.312812
0.307927
-0.35196
0.256942
-0.323451
0.237344
-0.487748
0.323268
-0.341709
0.389761
0.30017
0.415311
0.760444
0.403541
0.614089
0.363322
0.0776678
0.301648
-0.436355
0.282239
-0.562046
0.30284
-0.184348
0.312674
0.340326
0.33045
0.482712
0.363013
0.301119
0.385792
-0.0321077
-0.239793
0.38445
0.0339318
0.37457
0.0380421
0.373835
0.0476505
0.379452
0.0513469
0.399086
0.0513304
0.427473
0.0413373
0.424389
-0.0270579
0.392602
-0.150887
0.335992
-0.256202
0.287317
-0.303286
0.244699
-0.280833
0.195927
-0.438975
0.26021
-0.405992
0.359709
0.200671
0.388895
0.731258
0.374463
0.628521
0.355832
0.0962991
0.300253
-0.380776
0.261858
-0.52365
0.279037
-0.201528
0.297294
0.322069
0.32558
0.454426
0.366727
0.259972
0.392367
-0.0577477
-0.250429
0.461679
0.0411684
-0.468916
0.457193
0.0425285
0.457562
0.0472808
0.465191
0.0437187
0.471224
0.0452969
0.499273
0.0132883
0.512612
-0.0403968
0.491731
-0.130006
0.452304
-0.216775
0.399399
-0.250381
0.378425
-0.259858
0.327594
-0.388144
0.280978
-0.359376
0.267303
0.214346
0.254583
0.743979
0.30707
0.576034
0.371692
0.0316776
0.354313
-0.363397
0.285013
-0.45435
0.249665
-0.16618
0.254584
0.31715
0.295939
0.413071
0.345907
0.210004
0.366625
-0.0784655
-0.250586
0.521638
0.0408074
-0.521277
0.525426
0.0387413
0.530762
0.0419442
0.543908
0.0305725
0.55498
0.0342256
0.568251
1.69884e-05
0.566266
-0.0384119
0.537752
-0.101492
0.498237
-0.17726
0.436648
-0.188792
0.403779
-0.226989
0.356917
-0.341283
0.282551
-0.28501
0.24358
0.253318
0.266289
0.721269
0.370728
0.471594
0.443012
-0.0406065
0.422478
-0.342863
0.329191
-0.361063
0.270223
-0.107211
0.287446
0.299927
0.352947
0.347569
0.414939
0.148012
0.433696
-0.0972224
-0.246782
0.590613
0.039488
-0.589294
0.594594
0.0347602
0.60068
0.0358588
0.608698
0.0225545
0.619617
0.0233057
0.626333
-0.00669849
0.622106
-0.0341846
0.596797
-0.0761835
0.566736
-0.147199
0.523296
-0.145352
0.476967
-0.18066
0.403625
-0.267941
0.277939
-0.159324
0.229141
0.302115
0.336968
0.613442
0.479604
0.328958
0.533198
-0.0941998
0.511552
-0.321217
0.409747
-0.259258
0.326208
-0.0236718
0.350927
0.275207
0.438641
0.259855
0.504281
0.0823715
0.514591
-0.107533
-0.236622
0.673051
0.0359739
-0.669537
0.676426
0.0313851
0.681797
0.0304879
0.68652
0.0178313
0.693224
0.0166013
0.694403
-0.00787715
0.687798
-0.0275801
0.666808
-0.0551927
0.629361
-0.109753
0.588247
-0.104237
0.541652
-0.134065
0.469338
-0.195627
0.351009
-0.0409941
0.339904
0.31322
0.506722
0.446624
0.640039
0.195642
0.642334
-0.0964953
0.584276
-0.263159
0.499199
-0.174182
0.43795
0.0375779
0.479291
0.233866
0.566178
0.172968
0.615603
0.0329466
0.609113
-0.101042
-0.218288
0.76467
0.0319671
-0.760663
0.768263
0.0277923
0.77279
0.025961
0.774488
0.0161327
0.778999
0.0120904
0.775709
-0.00458683
0.768658
-0.0205298
0.751998
-0.0385324
0.718107
-0.0758619
0.68848
-0.07461
0.638962
-0.0845461
0.56085
-0.117515
0.499694
0.0201618
0.554897
0.258017
0.705058
0.296463
0.78481
0.115889
0.759429
-0.071114
0.688325
-0.192055
0.625798
-0.111655
0.607723
0.0556527
0.659314
0.182276
0.719399
0.112883
0.739474
0.0128709
0.715024
-0.0765924
-0.192817
0.867612
0.027622
-0.863267
0.87101
0.0243946
0.874597
0.0223734
0.8759
0.0148299
0.876931
0.01106
0.873141
-0.000797538
0.864059
-0.0114473
0.84861
-0.0230835
0.817666
-0.0449182
0.788202
-0.0451459
0.750605
-0.046949
0.692269
-0.0591799
0.675098
0.0373332
0.759073
0.174041
0.86675
0.188787
0.900447
0.0821923
0.86473
-0.0353972
0.800025
-0.12735
0.757447
-0.0690769
0.770105
0.042995
0.824934
0.127447
0.860832
0.0769844
0.86231
0.0113935
0.829891
-0.0441736
-0.163565
0.983562
0.0236723
-0.979612
0.986556
0.0214002
0.989175
0.0197546
0.989219
0.0147861
0.988994
0.0112852
0.984383
0.00381352
0.97649
-0.00355446
0.964142
-0.0107353
0.941219
-0.0219955
0.920036
-0.023963
0.89225
-0.0191627
0.853226
-0.0201558
0.853774
0.0367851
0.919324
0.108491
0.987281
0.12083
1.01095
0.0585251
0.985189
-0.00963836
0.932637
-0.074798
0.904226
-0.0406653
0.92334
0.0238801
0.968626
0.0821613
0.992739
0.0528716
0.991201
0.0129307
0.959618
-0.0125903
-0.133494
1.1183
0.0203837
-1.11501
1.12074
0.0189661
1.12263
0.0178646
1.12278
0.0146331
1.12175
0.0123143
1.11789
0.00767824
1.11074
0.00359484
1.10093
-0.000929384
1.08486
-0.00592228
1.06845
-0.00756037
1.05122
-0.00193301
1.03147
-0.000402585
1.03664
0.0316162
1.0795
0.0656268
1.12342
0.0769145
1.13848
0.0434642
1.12245
0.0063911
1.08867
-0.0410138
1.06818
-0.0201818
1.08161
0.0104587
1.11644
0.0473254
1.13606
0.0332533
1.13612
0.0128694
1.10817
0.0153625
-0.103644
1.2764
0.0178388
-1.27385
1.27829
0.0170723
1.27963
0.0165282
1.27964
0.0146159
1.27869
0.0132717
1.27593
0.0104339
1.27114
0.00838409
1.26487
0.00534571
1.25493
0.00401898
1.24512
0.00224851
1.23565
0.00753059
1.22614
0.0091127
1.23124
0.0265096
1.25543
0.0414446
1.28127
0.0510752
1.2941
0.0306318
1.28655
0.0139437
1.26455
-0.0190213
1.2524
-0.00802598
1.26205
0.000808396
1.28642
0.0229551
1.30163
0.0180449
1.30557
0.00892736
1.28348
0.0374535
-0.0750092
1.46797
0.0154973
-1.46563
1.46991
0.0151329
1.47138
0.0150602
1.47203
0.0139714
1.47178
0.0135208
1.47037
0.0118454
1.4675
0.0112541
1.46344
0.00939644
1.45786
0.00959935
1.45183
0.0082782
1.4473
0.0120615
1.44397
0.0124451
1.44826
0.0222209
1.46296
0.0267448
1.47936
0.0346725
1.48764
0.022352
1.48431
0.0172747
1.47244
-0.00715049
1.46456
-0.000144591
1.46891
-0.00354419
1.48553
0.00633708
1.49721
0.00636351
1.50514
0.00099921
1.48948
0.0531076
-0.0461298
1.69278
0.013112
-1.6904
1.6949
0.0130207
1.69671
0.0132439
1.69803
0.0126527
1.69883
0.0127182
1.69898
0.0116945
1.69837
0.0118687
1.69719
0.0105734
1.69529
0.0115049
1.6933
0.0102677
1.69203
0.0133303
1.69178
0.0126983
1.69502
0.0189763
1.70295
0.0188192
1.71205
0.0255731
1.71826
0.0161382
1.71811
0.0174239
1.71222
-0.00126484
1.70903
0.00304803
1.71172
-0.00623619
1.72258
-0.00451849
1.73139
-0.00244896
1.74304
-0.0106497
1.73342
0.0627296
-0.0202455
1.96593
0.0104966
-1.96332
1.96845
0.0105052
1.97084
0.0108459
1.97295
0.0105465
1.9748
0.0108719
1.9762
0.0102908
1.97728
0.0107917
1.97789
0.00996131
1.97838
0.0110144
1.97867
0.00997393
1.97968
0.0123244
1.98133
0.011045
1.98489
0.0154183
1.99052
0.0131942
1.99717
0.018919
2.00165
0.0116569
2.00327
0.0158023
1.99975
0.00225855
1.99776
0.00503791
1.99694
-0.00541642
2.00201
-0.00959308
2.00395
-0.00438703
2.01772
-0.024414
2.02445
0.0559929
0.00185797
2.31505
0.00739199
-2.31194
2.31813
0.00742537
2.32121
0.00776493
2.3242
0.00755258
2.32714
0.00793007
2.32995
0.00748359
2.33267
0.0080727
2.33522
0.0074146
2.33781
0.00842388
2.34024
0.00754
2.34312
0.00944492
2.34612
0.00804842
2.34991
0.0116299
2.35454
0.00856143
2.35916
0.0142932
2.36318
0.00764104
2.36586
0.0131238
2.36451
0.00360522
2.36379
0.00575986
2.36249
-0.00411562
2.36328
-0.0103831
2.36101
-0.00212004
2.37809
-0.0414961
2.39494
0.0391441
0.0186023
2.71393
0.00381864
-2.71035
2.71751
0.00384257
2.72127
0.00400518
2.7249
0.00391619
2.72873
0.00410755
2.73236
0.00385039
2.73619
0.00424433
2.73992
0.00367977
2.74381
0.0045371
2.74788
0.00347265
2.75227
0.00505596
2.75683
0.00348129
2.76255
0.0059173
2.76722
0.00388762
2.77452
0.00699523
2.77843
0.0037313
2.78363
0.00791712
2.78541
0.00183436
2.78569
0.00547056
2.78036
0.00122114
2.78096
-0.0109822
2.77137
0.00746456
2.76432
-0.0344452
2.79809
0.00537146
0.0149267
3.42745
-3.42363
3.43129
3.4353
3.43922
3.44332
3.44717
3.45142
3.4551
3.45964
3.46311
3.46816
3.47165
3.47756
3.48145
3.48845
3.49218
3.50009
3.50193
3.5074
3.50862
3.49764
3.5051
3.47066
3.47603
0.40947
0.115039
-0.400247
0.426136
0.193968
0.427311
0.269574
0.444988
0.324668
0.405529
0.466435
0.108905
-0.460301
0.482651
0.177752
0.491835
0.26039
0.501257
0.315246
0.385509
0.53375
0.101132
-0.525977
0.546039
0.165463
0.56081
0.245619
0.571738
0.304318
0.367953
0.60983
0.0913191
-0.600017
0.620637
0.154656
0.636252
0.230004
0.651191
0.289378
0.349608
0.696938
0.0812642
-0.686884
0.707934
0.143661
0.723764
0.214174
0.740644
0.272498
0.329589
0.796658
0.0714934
-0.786887
0.807746
0.132573
0.823767
0.198152
0.841901
0.254365
0.308223
0.911319
0.0629067
-0.902733
0.922117
0.121775
0.938156
0.182113
0.956886
0.235634
0.285497
1.04581
0.0550871
-1.03799
1.05655
0.111037
1.07242
0.166238
1.09166
0.216396
0.262144
1.20227
0.0482177
-1.19541
1.21314
0.10017
1.22932
0.150058
1.24946
0.196254
0.237756
1.3873
0.0414989
-1.38058
1.39946
0.0880125
1.41684
0.13267
1.43896
0.174134
0.211089
1.60448
0.0345436
-1.59753
1.6175
0.0749935
1.63639
0.113783
1.66087
0.149654
0.181557
1.86387
0.0274525
-1.85678
1.87859
0.0602763
1.9006
0.0917685
1.92908
0.121171
0.147325
2.19855
0.0192648
-2.19037
2.21533
0.0434992
2.24026
0.0668344
2.27278
0.088653
0.108165
2.57388
0.0103815
-2.56499
2.59339
0.0239827
2.62317
0.0370616
2.66249
0.0493325
0.0603003
3.25296
-3.24258
3.27694
3.314
3.36333
0.188209
0.255955
-0.230265
-0.213899
0.158346
0.242464
-0.212601
0.129622
0.226072
-0.197348
0.104741
0.211644
-0.186763
0.0824853
0.200452
-0.178196
0.0609801
0.190896
-0.169391
0.040231
0.182369
-0.16162
0.0205266
0.176901
-0.157196
0.00450476
0.16803
-0.152008
0.115013
-0.110508
0.12755
0.279797
-0.151392
0.10745
0.262564
0.0873657
0.246156
0.0680825
0.230927
0.0500423
0.218492
0.0332039
0.207734
0.0178553
0.197718
0.00432846
0.190428
-0.00430193
0.17666
0.110711
0.0693831
0.297251
-0.0868372
0.0526438
0.279303
0.0380052
0.260795
0.0247439
0.244188
0.0130471
0.230189
0.00260625
0.218175
-0.00740424
0.207728
-0.0146538
0.197677
-0.0135305
0.175537
0.0971808
0.00130491
0.307989
-0.0120426
-0.00668436
0.287293
-0.0141438
0.268254
-0.0207236
0.250768
-0.0267141
0.236179
-0.032102
0.223563
-0.0357161
0.211342
-0.034716
0.196677
-0.0231875
0.164009
0.0739933
-0.0683274
0.0698261
-0.0682004
-0.0684079
-0.0693977
-0.0699583
-0.0687211
-0.0647364
-0.0540029
-0.0299976
0.335733
0.0619752
-0.383777
-0.0139309
0.290711
0.0574492
-0.0124271
0.248214
0.0535519
-0.011055
0.207896
0.050147
-0.00982945
0.16947
0.0471692
-0.00874323
0.132572
0.0447011
-0.00780245
0.0968413
0.0427163
-0.00698595
0.0618854
0.0412439
-0.00628797
0.0270709
0.040643
-0.00582853
0.0315174
-0.00444649
0.323963
0.10874
-0.370728
0.279948
0.101464
0.238684
0.0948162
0.200026
0.088805
0.163404
0.0837912
0.128137
0.079968
0.0937704
0.0770827
0.0598229
0.0751914
0.0258924
0.0745735
0.0574098
0.301607
0.152242
-0.345109
0.260134
0.142937
0.220371
0.134579
0.182969
0.126207
0.14843
0.11833
0.115902
0.112496
0.0845072
0.108478
0.0536497
0.106049
0.0231942
0.105029
0.080604
0.267949
0.192396
-0.308103
0.231659
0.179228
0.197618
0.16862
0.163618
0.160207
0.130799
0.151149
0.100523
0.142772
0.0721376
0.136863
0.0444609
0.133726
0.0182623
0.131228
0.0988663
0.222973
-0.260843
0.1896
0.160872
0.134315
0.107269
0.0806505
0.0558935
0.0324227
0.0116421
0.41981
0.378667
-0.380662
0.429608
0.316423
-0.326221
0.427959
0.225821
-0.224173
0.437286
0.182486
-0.191813
0.435891
0.136774
-0.135379
0.442798
0.113196
-0.120103
0.438978
0.0900209
-0.0862014
0.441189
0.074574
-0.0767843
0.435119
0.0643629
-0.0582933
0.432652
0.0532114
-0.0507445
0.424436
0.0486266
-0.0404108
0.418103
0.0407214
-0.0343879
0.407485
0.0386572
-0.0280391
0.397347
0.0336058
-0.0234684
0.0330533
-0.0194829
0.41557
0.380913
0.423413
0.30858
0.420197
0.229038
0.427789
0.174894
0.425187
0.139376
0.430691
0.107692
0.426423
0.0942883
0.42779
0.0732072
0.421748
0.0704049
0.419195
0.0557644
0.411464
0.0563581
0.405132
0.0470532
0.394603
0.0491855
0.384479
0.0437305
0.0468042
0.409973
0.388755
0.414018
0.304535
0.408348
0.234708
0.412501
0.170742
0.407882
0.143995
0.410626
0.104949
0.405098
0.0998157
0.404756
0.0735493
0.397654
0.0775066
0.394252
0.0591665
0.385869
0.064741
0.379087
0.0538355
0.368416
0.0598564
0.358502
0.0536448
0.0601971
0.403715
0.402856
0.401539
0.30671
0.392728
0.243519
0.392233
0.171236
0.384735
0.151493
0.38365
0.106034
0.376385
0.107081
0.373411
0.0765231
0.366065
0.0848522
0.360819
0.0644124
0.352038
0.0735219
0.344035
0.0618392
0.332567
0.0713236
0.322232
0.0639803
0.0743258
0.396162
0.424509
0.387212
0.31566
0.372982
0.257748
0.367614
0.176605
0.356223
0.162884
0.350477
0.11178
0.340652
0.116906
0.334058
0.0831172
0.3247
0.0942098
0.316409
0.0727034
0.305552
0.0843794
0.295903
0.0714879
0.283982
0.0832446
0.27361
0.074352
0.0870934
0.36876
0.428486
0.373016
0.311404
0.369494
0.261271
0.372043
0.174055
0.368627
0.166301
0.368996
0.11141
0.365587
0.120315
0.364442
0.084262
0.360315
0.0983375
0.359167
0.0738509
0.355083
0.0884633
0.354415
0.0721565
0.352768
0.0848914
0.355749
0.0713712
0.0800207
0.362821
0.424571
0.432232
0.428616
0.30736
0.426049
0.263838
0.42824
0.171864
0.424105
0.170436
0.424933
0.110582
0.42102
0.124228
0.419775
0.0855071
0.417147
0.100966
0.415515
0.0754831
0.414363
0.0896152
0.413878
0.0726414
0.417045
0.0817246
0.418816
0.0696008
0.0732546
0.425582
0.488931
0.435488
0.493398
0.302893
0.490391
0.266844
0.494876
0.167378
0.489082
0.17623
0.489952
0.109713
0.486605
0.127575
0.484116
0.087996
0.484182
0.1009
0.482497
0.0771673
0.484019
0.0880936
0.484262
0.072398
0.488529
0.0774584
0.491796
0.0663338
0.0668983
0.498152
0.561736
0.439331
0.567861
0.296768
0.563141
0.271565
0.569201
0.161318
0.565762
0.179668
0.564325
0.111151
0.563777
0.128123
0.560094
0.091679
0.561987
0.0990061
0.560942
0.0782125
0.564027
0.0850082
0.565913
0.0705128
0.570875
0.072496
0.57555
0.061659
0.0603056
0.582142
0.646438
0.442811
0.652589
0.290617
0.648318
0.275836
0.651773
0.157863
0.653643
0.177798
0.650582
0.114212
0.652311
0.126394
0.649784
0.0942058
0.651916
0.0968744
0.652394
0.0777347
0.656481
0.0809206
0.659693
0.0673011
0.665317
0.066872
0.670394
0.0565818
0.0540153
0.676684
0.745427
0.444215
0.750644
0.2854
0.749755
0.276726
0.748503
0.159114
0.753438
0.172863
0.751356
0.116294
0.75475
0.123001
0.754517
0.094438
0.757173
0.0942189
0.758763
0.0761449
0.763462
0.0762216
0.767461
0.0633016
0.773432
0.0609014
0.778819
0.0511945
0.0477933
0.785041
0.858529
0.443882
0.863596
0.280334
0.868757
0.271564
0.865095
0.162776
0.870633
0.167325
0.869885
0.117042
0.874963
0.117923
0.876707
0.0926935
0.880651
0.0902756
0.883241
0.073555
0.888703
0.0707588
0.893309
0.0586964
0.899482
0.054728
0.904793
0.0458837
0.0420854
0.910501
0.988962
0.441088
0.991106
0.27819
1.00224
0.260427
1.0001
0.164924
1.00758
0.159836
1.00859
0.11604
1.01519
0.11132
1.01882
0.0890646
1.02467
0.0844246
1.02898
0.0692458
1.03535
0.0643845
1.04058
0.0534654
1.04672
0.0485878
1.05218
0.0404278
0.0363146
1.05795
1.13953
0.434781
1.14107
0.276643
1.1554
0.246098
1.15607
0.164261
1.16568
0.150223
1.16943
0.112285
1.17716
0.10359
1.18292
0.0833047
1.19046
0.0768865
1.19654
0.0631668
1.20359
0.0573331
1.20955
0.047507
1.21563
0.0425059
1.22076
0.0352975
0.0313592
1.22572
1.31323
0.423755
1.31741
0.272469
1.33513
0.228377
1.34003
0.159353
1.35223
0.138026
1.35915
0.105365
1.36888
0.0938597
1.37645
0.0757406
1.38545
0.0678836
1.3928
0.0558167
1.40058
0.0495484
1.40706
0.0410273
1.41345
0.0361224
1.41876
0.0299878
0.0263105
1.42381
1.51265
0.407487
1.52156
0.263564
1.54153
0.208407
1.55276
0.148122
1.56718
0.123606
1.57828
0.0942628
1.59019
0.0819513
1.6003
0.0656273
1.61045
0.0577392
1.6191
0.0471627
1.62725
0.0414023
1.63414
0.0341313
1.64041
0.0298573
1.64568
0.0247195
0.0215741
1.65041
1.74863
0.378377
1.76774
0.244449
1.7931
0.183055
1.81037
0.13085
1.82881
0.105167
1.84304
0.0800344
1.85752
0.0674661
1.86928
0.0538652
1.8807
0.0463252
1.89003
0.0378345
1.89872
0.032707
1.90584
0.0270127
1.91233
0.0233723
1.91764
0.0194103
0.0168198
1.92239
2.02431
0.33
2.06192
0.206837
2.09783
0.147143
2.12724
0.101445
2.15348
0.0789208
2.17481
0.0587056
2.19356
0.0487171
2.20901
0.0384188
2.22253
0.0327968
2.23376
0.0266123
2.24351
0.0229499
2.25166
0.0188647
2.25872
0.0163143
2.26465
0.01348
0.0116696
2.2698
2.35266
0.24791
2.40811
0.151387
2.45686
0.0983961
2.49452
0.0637837
2.52722
0.0462264
2.55261
0.0333138
2.57471
0.0266175
2.59228
0.0208476
2.60771
0.0173701
2.62022
0.0141005
2.63113
0.0120372
2.6401
0.00989401
2.64791
0.00850137
2.65436
0.00703615
0.00606681
2.65996
2.85706
3.00845
3.10685
3.17063
3.21686
3.25017
3.27679
3.29764
3.31501
3.32911
3.34114
3.35104
3.35954
3.36658
3.37264
0.363946
-0.215024
0.37311
-0.160556
0.379985
-0.0937116
0.390018
-0.0220754
0.0595962
0.4306
-0.220042
0.437376
-0.167333
0.441623
-0.097958
0.448179
-0.0286316
0.0474747
0.502701
-0.224591
0.504688
-0.16932
0.509786
-0.103056
0.515422
-0.0342678
0.0369203
0.583948
-0.226397
0.584229
-0.1696
0.587865
-0.106692
0.592079
-0.0384814
0.0289817
0.674624
-0.224336
0.673877
-0.168854
0.676067
-0.108882
0.680192
-0.0426063
0.02229
0.780018
-0.219313
0.777709
-0.166546
0.778128
-0.1093
0.781339
-0.0458174
0.0167419
0.902778
-0.21159
0.898052
-0.16182
0.896306
-0.107554
0.898152
-0.047664
0.0121618
1.0468
-0.200443
1.03908
-0.154098
1.03485
-0.103324
1.03471
-0.0475172
0.00887739
1.21112
-0.185841
1.20044
-0.143423
1.194
-0.0968773
1.19246
-0.0459806
0.00593071
1.40518
-0.167215
1.3912
-0.129439
1.38224
-0.0879247
1.37898
-0.0427183
0.00433144
1.62804
-0.144845
1.61109
-0.112492
1.59999
-0.0768164
1.59522
-0.0379526
0.00202609
1.89605
-0.118511
1.87579
-0.0922277
1.86245
-0.0634754
1.85621
-0.0317136
0.00145802
2.238
-0.0867068
2.21347
-0.0676963
2.19667
-0.0466776
2.18874
-0.0237835
-0.00017023
2.62294
-0.0496873
2.59426
-0.039013
2.57462
-0.0270435
2.56487
-0.0140252
-0.000298235
3.32295
3.28394
3.2569
3.24287
0.0104177
-0.00140726
-0.00901049
0.00785041
0.00256734
-0.00467089
0.0125213
-0.0300343
0.0253634
0.0317368
-0.061771
-0.000893036
0.0119942
-0.0125084
-0.0329157
0.03459
-0.0819716
0.0615772
-0.129019
0.0724104
0.0623411
-0.159623
-0.0408472
0.0513546
0.00148677
-0.0986109
0.0923536
-0.151967
0.114934
-0.184091
0.104534
0.0770062
-0.198756
-0.0922249
0.11211
0.03147
-0.155318
0.155447
-0.194574
0.15419
-0.210266
0.120225
0.0829351
-0.216195
-0.142196
0.183173
0.0711326
-0.195879
0.20913
-0.217563
0.175874
-0.226226
0.128888
0.085577
-0.228868
-0.185407
0.252635
0.115945
-0.221696
0.245419
-0.232986
0.187164
-0.241164
0.137066
0.0862425
-0.241829
-0.219082
0.311421
0.160297
-0.239526
0.265863
-0.248709
0.196347
-0.257267
0.145624
0.0852595
-0.256284
-0.245353
0.353977
0.202796
-0.253929
0.274439
-0.266675
0.209092
-0.27327
0.152219
0.0835383
-0.271549
-0.260893
0.374256
0.240614
-0.270113
0.28366
-0.286329
0.225308
-0.289751
0.155641
0.0832777
-0.289491
-0.275382
0.272287
0.37735
-0.292244
0.300522
-0.305202
0.238267
-0.309438
0.159876
0.0839806
-0.31014
0.0179043
-0.003163
0.0161339
0.00177038
0.0116419
0.004492
0.00857628
0.00306562
-0.000434213
0.0320575
-0.0103429
0.0315728
0.00225512
0.0251072
0.0109576
0.0182077
0.00996505
0.00526513
0.0376823
-0.0192459
0.0373801
0.00255725
0.0290063
0.0193315
0.0175141
0.0214572
0.024266
0.0407681
-0.0281605
0.0383201
0.00500521
0.026349
0.0313026
0.00654416
0.041262
0.0622801
0.0428538
-0.0363078
0.0368696
0.0109894
0.0185389
0.0496333
-0.0146323
0.0744333
0.11878
0.0426841
-0.0429305
0.0322255
0.021448
0.00521141
0.0766474
-0.0443552
0.124
0.190371
0.0400998
-0.0487546
0.0240856
0.0374622
-0.0157177
0.116451
-0.0819998
0.190282
0.268667
0.0289657
-0.0501132
0.00538174
0.0610462
-0.0495083
0.171341
-0.126982
0.267756
0.344481
0.0136814
-0.0493403
-0.0170167
0.0917443
-0.0824124
0.236737
-0.171274
0.356617
0.413822
-0.0128082
-0.0433607
-0.0558466
0.134783
-0.139262
0.320152
-0.223073
0.440429
0.463036
-0.0511479
-0.0345763
-0.0546572
0.138292
-0.0586106
0.324105
-0.0530609
0.434879
0.447432
-0.0374567
-0.101109
-0.0229451
-0.104566
0.141749
-0.101509
0.321047
-0.0843728
0.417743
0.420729
-0.0576697
-0.154116
-0.0178706
-0.150667
0.1383
-0.143515
0.313895
-0.122301
0.39653
0.387225
-0.088797
-0.209279
-0.0191065
-0.191246
0.120267
-0.172673
0.295321
-0.144531
0.368388
0.349331
-0.106637
-0.254183
-0.0248125
-0.219344
0.0854285
-0.195103
0.27108
-0.175176
0.348461
0.307888
-0.133733
-0.262385
-0.0204228
-0.218793
0.0418372
-0.15876
0.211046
-0.147093
0.336794
0.295151
-0.134356
-0.247464
0.0266442
-0.23626
0.0306335
-0.158119
0.132905
-0.102719
0.281394
0.290897
-0.098465
-0.148677
0.147217
-0.213527
0.0954834
-0.194686
0.114064
-0.131281
0.21799
0.276177
-0.116561
0.0970388
0.249711
0.0240154
0.168507
-0.0164404
0.15452
-0.0184332
0.219983
0.275715
-0.0179709
0.391531
0.232651
0.3967
0.163338
0.352975
0.198245
0.293011
0.279947
0.330625
0.238101
0.533268
0.228118
0.478508
0.218097
0.395884
0.280869
0.31662
0.359211
0.401276
0.245968
0.317958
0.354607
0.167536
0.368519
0.0609967
0.387409
0.00925397
0.410954
0.419111
-0.00858052
-0.0421018
0.446958
-0.122537
0.448954
-0.181716
0.446587
-0.194573
0.423812
0.399186
-0.174648
-0.487201
0.451872
-0.459328
0.421081
-0.429065
0.416324
-0.36873
0.363476
0.332764
-0.302309
-0.813639
0.445801
-0.789667
0.397109
-0.745657
0.372314
-0.687647
0.305466
0.260503
-0.615385
-0.509178
0.415767
-0.500176
0.388107
-0.492689
0.364828
-0.502405
0.315181
0.266114
-0.508015
0.165981
0.362747
0.200881
0.353207
0.228141
0.337567
0.226407
0.316915
0.285298
0.207222
0.688363
0.325252
0.718116
0.323455
0.743906
0.311776
0.752183
0.308638
0.294431
0.74305
0.583767
0.332988
0.57578
0.331442
0.562685
0.324871
0.548607
0.322717
0.318137
0.524901
0.0871594
0.357399
0.060408
0.358194
0.0299335
0.355345
0.003378
0.349273
0.342365
-0.0208497
-0.350379
0.358035
-0.354127
0.361942
-0.362207
0.363425
-0.372904
0.35997
0.353318
-0.383858
-0.486296
0.345021
-0.470766
0.346411
-0.453712
0.346371
-0.438012
0.344271
0.342596
-0.42729
-0.382954
0.345186
-0.37543
0.338887
-0.362668
0.33361
-0.347708
0.32931
0.325141
-0.330253
-0.0531222
0.356224
-0.0603574
0.346122
-0.0656633
0.338916
-0.0709726
0.33462
0.327097
-0.0729287
0.202148
0.193361
0.183106
0.171515
0.158659
-0.0271141
0.468805
-0.479148
-0.0192848
0.51926
-0.527089
-0.0141135
0.578746
-0.583917
-0.0106497
0.644452
-0.647916
-0.00801775
0.718572
-0.721204
-0.0066073
0.805612
-0.807022
-0.00571886
0.905607
-0.906496
-0.00549901
1.0195
-1.01972
-0.0053592
1.14917
-1.14931
-0.00543511
1.29261
-1.29253
-0.00507498
1.45272
-1.45308
-0.00474506
1.61755
-1.61788
-0.0037443
1.78118
-1.78218
-0.00137836
1.94924
-1.9516
1.7975
-1.79888
-0.0457039
0.45684
-0.0351168
0.508673
-0.0267157
0.570344
-0.0193492
0.637086
-0.0141587
0.713381
-0.0105199
0.801973
-0.00825183
0.903339
-0.00700269
1.01825
-0.00629001
1.14846
-0.00595708
1.29227
-0.00542363
1.45219
-0.00491061
1.61704
-0.00379415
1.78007
-0.00115356
1.94659
1.79635
-0.069774
0.437817
-0.0530491
0.491948
-0.0393336
0.556629
-0.0282729
0.626025
-0.0202483
0.705357
-0.0148645
0.796589
-0.0112513
0.899726
-0.00911504
1.01612
-0.00782378
1.14717
-0.00701859
1.29147
-0.00620074
1.45137
-0.00538428
1.61622
-0.00400923
1.77869
-0.000987435
1.94357
1.79536
-0.0854532
0.416633
-0.0679577
0.474452
-0.053051
0.541722
-0.0389323
0.611906
-0.0281487
0.694573
-0.0201306
0.788571
-0.0146624
0.894258
-0.0112378
1.01269
-0.00907893
1.14501
-0.00774291
1.29013
-0.00660776
1.45024
-0.00555198
1.61516
-0.00397062
1.77711
-0.000693969
1.9403
1.79467
-0.101893
0.384793
-0.0771551
0.449714
-0.0563102
0.520877
-0.0410416
0.596638
-0.0306243
0.684156
-0.0225689
0.780516
-0.017152
0.888841
-0.0133453
1.00888
-0.0108659
1.14253
-0.00912629
1.28839
-0.00763915
1.44875
-0.00619052
1.61371
-0.00420976
1.77513
-0.000531951
1.93662
1.79414
-0.10939
0.359827
-0.0880249
0.428349
-0.0671511
0.500004
-0.0501263
0.579613
-0.0360209
0.67005
-0.026272
0.770767
-0.0193952
0.881964
-0.0149065
1.0044
-0.0117887
1.13941
-0.00969087
1.2863
-0.00787677
1.44694
-0.00621095
1.61205
-0.00402111
1.77294
-0.000275804
1.93287
1.79386
-0.0811931
0.342555
-0.0631258
0.410281
-0.0491811
0.486059
-0.038626
0.569058
-0.0317281
0.663153
-0.0250449
0.764084
-0.0204553
0.877374
-0.0164676
1.00041
-0.0135348
1.13648
-0.0112028
1.28396
-0.00907746
1.44481
-0.007035
1.61001
-0.00434435
1.77025
-0.000313703
1.92884
1.79355
-0.0952557
0.32125
-0.0686321
0.383658
-0.045724
0.463151
-0.0324994
0.555833
-0.0245029
0.655156
-0.0212122
0.760793
-0.0182733
0.874435
-0.0158455
0.99798
-0.0133827
1.13402
-0.0111687
1.28175
-0.00890211
1.44254
-0.00672781
1.60783
-0.00390023
1.76742
-0.000332587
1.92527
1.79322
0.00192005
0.301359
-0.00263962
0.388218
-0.0124655
0.472977
-0.0200089
0.563377
-0.0222975
0.657445
-0.0219146
0.76041
-0.0202109
0.872732
-0.0179376
0.995707
-0.0152763
1.13136
-0.0127392
1.27921
-0.010114
1.43992
-0.00771187
1.60543
-0.00446823
1.76418
-0.00115369
1.92196
1.79206
0.201488
0.337972
0.140348
0.449357
0.0835553
0.52977
0.0425507
0.604381
0.012272
0.687723
-0.00429743
0.776979
-0.0126247
0.881059
-0.014521
0.997603
-0.0138766
1.13071
-0.0118308
1.27717
-0.00931145
1.4374
-0.00694697
1.60307
-0.00370124
1.76093
-0.00192814
1.92019
1.79013
0.156921
0.427019
0.090905
0.515373
0.0417318
0.578943
0.00903363
0.637079
-0.00673195
0.703489
-0.0173689
0.787616
-0.0191706
0.88286
-0.0189267
0.997359
-0.0162307
1.12802
-0.0133218
1.27426
-0.0102386
1.43432
-0.00791875
1.60075
-0.00481058
1.75782
-0.00481875
1.9202
1.78532
-0.0420268
0.460465
-0.0475725
0.520919
-0.0442037
0.575574
-0.0429684
0.635844
-0.0413299
0.70185
-0.0336112
0.779898
-0.0278062
0.877056
-0.0213259
0.990879
-0.0161417
1.12283
-0.0119252
1.27004
-0.0084627
1.43085
-0.0065327
1.59882
-0.0039859
1.75528
-0.00708874