/*--------------------------------*- C++ -*----------------------------------*\
| =========                 |                                                 |
| \\      /  F ield         | OpenFOAM: The Open Source CFD Toolbox           |
|  \\    /   O peration     | Version:  2512                                  |
|   \\  /    A nd           | Website:  www.openfoam.com                      |
|    \\/     M anipulation  |                                                 |
\*---------------------------------------------------------------------------*/
FoamFile
{
    version     2.0;
    format      ascii;
    arch        "LSB;label=32;scalar=64";
    class       surfaceScalarField;
    location    "112";
    object      phi;
}
// * * * * * * * * * * * * * * * * * * * * * * * * * * * * * * * * * * * * * //

dimensions      [0 3 -1 0 0 0 0];

oriented        oriented;

internalField   nonuniform List<scalar> 
26232
(
0.000141964
0.00104115
-0.00118311
0.00096264
0.00152536
-0.00234603
0.00270536
0.000337773
-0.00208049
0.00563656
-0.00267432
-0.000256883
0.0101003
-0.00765957
0.00319586
0.0164677
-0.0147222
0.00835481
0.0249766
-0.0237958
0.0152869
0.0355398
-0.0345179
0.0239547
0.0476441
-0.0462125
0.0341082
0.0604118
-0.0580113
0.0452436
0.0728013
-0.0690496
0.0566601
0.0838609
-0.078649
0.0675894
0.0929411
-0.0864292
0.077349
0.0998092
-0.092335
0.0854669
0.104641
-0.0965801
0.0917485
0.107902
-0.0995338
0.0962728
0.110179
-0.101596
0.0993185
0.112016
-0.103102
0.101266
0.11383
-0.104273
0.102458
0.115871
-0.105262
0.10322
0.118264
-0.106056
0.103663
0.121061
-0.106833
0.104036
0.123835
-0.107183
0.104409
-0.1075
0.104926
0.126409
9.88956e-05
0.000942251
0.000964178
0.000660073
0.00302683
-0.00172487
0.0067209
-0.0063684
0.0124857
-0.0134244
0.0206019
-0.0228385
0.0309621
-0.0341559
0.0429493
-0.0465051
0.0555412
-0.0588044
0.0675866
-0.0700567
0.0781135
-0.0795765
0.086548
-0.0870835
0.0927892
-0.0926703
0.0971375
-0.0966833
0.100125
-0.0995672
0.102323
-0.101732
0.104202
-0.103475
0.106076
-0.104976
0.108126
-0.106323
0.110424
-0.107559
0.113063
-0.108696
0.116049
-0.109818
0.119669
-0.110803
-0.112167
0.124336
0.000159402
0.00078285
0.00130052
-0.000481046
0.00400467
-0.00442902
0.00882037
-0.0111841
0.0161326
-0.0207366
0.0258882
-0.0325941
0.0374209
-0.0456886
0.0495843
-0.0586685
0.0611218
-0.0703419
0.0710456
-0.0799806
0.0788596
-0.0873905
0.0845808
-0.0928047
0.0885992
-0.0966888
0.0914633
-0.0995474
0.0936882
-0.101792
0.0956505
-0.103694
0.0975774
-0.105402
0.0995932
-0.106992
0.101768
-0.108498
0.104165
-0.109956
0.106844
-0.111375
0.109846
-0.112821
0.113247
-0.114204
-0.115767
0.116847
0.000307287
0.000475562
0.00192674
-0.0021005
0.00553454
-0.00803682
0.0116734
-0.0173229
0.0204512
-0.0295144
0.0312558
-0.0433987
0.0428606
-0.0572935
0.0538954
-0.0697032
0.0633252
-0.0797716
0.0706884
-0.0873438
0.0760671
-0.0927692
0.079885
-0.0966226
0.0826666
-0.0994704
0.0848624
-0.101743
0.0867828
-0.103712
0.0886138
-0.105525
0.0904681
-0.107257
0.0924225
-0.108946
0.0945442
-0.11062
0.0968855
-0.112297
0.0994975
-0.113987
0.102418
-0.115742
0.105693
-0.117478
-0.119469
0.109394
0.000514448
-3.88858e-05
0.00275665
-0.0043427
0.00742039
-0.0127006
0.0148606
-0.0247631
0.0246655
-0.0393193
0.0356103
-0.0543435
0.0461951
-0.0678782
0.0552722
-0.0787803
0.0623414
-0.0868409
0.0674892
-0.0924916
0.0711395
-0.0964194
0.0737946
-0.0992778
0.0758743
-0.10155
0.0776668
-0.103536
0.0793516
-0.105397
0.0810402
-0.107214
0.0828052
-0.109022
0.084698
-0.110839
0.0867554
-0.112677
0.0890018
-0.114544
0.0914682
-0.116453
0.0941476
-0.118421
0.0970784
-0.120409
-0.122587
0.100196
0.000760844
-0.00079973
0.00371411
-0.00729596
0.00945442
-0.0184409
0.0179213
-0.03323
0.0280467
-0.0494448
0.0382146
-0.0645113
0.0470822
-0.0767458
0.0540171
-0.0857153
0.059048
-0.0918717
0.0625788
-0.0960224
0.065105
-0.0989457
0.0670446
-0.101217
0.0686871
-0.103192
0.07021
-0.105059
0.0717162
-0.106903
0.0732636
-0.108761
0.0748876
-0.110646
0.0766135
-0.112565
0.0784637
-0.114527
0.0804637
-0.116544
0.082635
-0.118625
0.0849946
-0.120781
0.0875871
-0.123002
-0.125388
0.0903879
0.00103924
-0.00183897
0.00473393
-0.0109907
0.0114184
-0.0251253
0.0204142
-0.0422258
0.0300965
-0.0591271
0.0388563
-0.0732711
0.045811
-0.0837005
0.05085
-0.0907543
0.0543293
-0.095351
0.0567453
-0.0984384
0.0585334
-0.100734
0.0599977
-0.102682
0.0613203
-0.104515
0.0625996
-0.106338
0.0638872
-0.108191
0.0652139
-0.110088
0.0666045
-0.112036
0.0680824
-0.114043
0.0696709
-0.116116
0.0713888
-0.118262
0.0732511
-0.120487
0.0752636
-0.122793
0.0774421
-0.12518
-0.127697
0.0797513
0.00133892
-0.00317789
0.00573796
-0.0153897
0.0130776
-0.0324649
0.0220024
-0.0511507
0.0306488
-0.0677735
0.037749
-0.0803713
0.042935
-0.0888864
0.046459
-0.0942783
0.0488104
-0.0977025
0.0504547
-0.100083
0.051726
-0.102005
0.0528234
-0.103779
0.0538516
-0.105543
0.0548637
-0.10735
0.0558904
-0.109218
0.0569543
-0.111152
0.0580746
-0.113156
0.0592684
-0.115237
0.0605497
-0.117397
0.0619298
-0.119642
0.0634163
-0.121974
0.0650154
-0.124392
0.0667416
-0.126906
-0.129525
0.0685698
0.00164244
-0.00482034
0.00662822
-0.0203755
0.0142216
-0.0400583
0.0225369
-0.0594659
0.0298267
-0.0750633
0.0352982
-0.0858429
0.0389943
-0.0925824
0.0413601
-0.0966441
0.0428936
-0.0992361
0.0439752
-0.101164
0.0448372
-0.102867
0.0456015
-0.104543
0.0463277
-0.106269
0.0470468
-0.108069
0.0477785
-0.109949
0.0485379
-0.111911
0.0493389
-0.113957
0.0501941
-0.116092
0.0511158
-0.118319
0.052114
-0.12064
0.053196
-0.123055
0.0543689
-0.125565
0.055634
-0.128171
-0.130865
0.0569738
0.00192452
-0.00674486
0.00730096
-0.0257519
0.0147203
-0.0474776
0.0220554
-0.066801
0.027903
-0.080911
0.0319187
-0.0898585
0.0344142
-0.095078
0.0359002
-0.0981301
0.0368154
-0.100151
0.0374439
-0.101793
0.0379378
-0.103361
0.0383696
-0.104975
0.0387734
-0.106673
0.039168
-0.108464
0.0395673
-0.110348
0.0399838
-0.112328
0.0404297
-0.114403
0.0409169
-0.116579
0.0414551
-0.118857
0.0420516
-0.121236
0.0427118
-0.123716
0.0434397
-0.126293
0.0442366
-0.128968
-0.131731
0.0451028
0.00215812
-0.00890298
0.00767614
-0.0312699
0.0145551
-0.0543566
0.0207186
-0.0729645
0.0251856
-0.085378
0.027962
-0.0926349
0.0295034
-0.0966194
0.0303039
-0.0989306
0.0307177
-0.100565
0.0309448
-0.10202
0.0310808
-0.103497
0.0311683
-0.105063
0.0312278
-0.106733
0.0312727
-0.108509
0.0313143
-0.11039
0.0313629
-0.112376
0.031428
-0.114468
0.0315186
-0.11667
0.0316425
-0.118981
0.0318063
-0.1214
0.0320163
-0.123926
0.032277
-0.126554
0.0325883
-0.129279
-0.132096
0.0329537
0.00232359
-0.0112266
0.00772377
-0.0366701
0.0138052
-0.060438
0.0187445
-0.0779037
0.021963
-0.0885965
0.0237064
-0.0943783
0.0244795
-0.0973924
0.0247168
-0.0991679
0.024689
-0.100537
0.0245313
-0.101862
0.0243027
-0.103268
0.0240286
-0.104789
0.0237226
-0.106427
0.0233948
-0.108181
0.0230539
-0.110049
0.0227082
-0.11203
0.0223656
-0.114126
0.0220337
-0.116338
0.0217193
-0.118666
0.0214293
-0.12111
0.0211709
-0.123667
0.0209502
-0.126333
0.0207692
-0.129099
0.0206377
-0.131965
-0.000804869
0.004682
-0.00387713
-0.00259494
0.00753224
-0.00574217
-0.0050446
0.00726903
-0.00481937
-0.00797834
0.00575869
-0.00282495
-0.0112949
0.00382274
-0.000506181
-0.0149015
0.00159772
0.00200885
-0.0187802
-0.00101872
0.00489741
-0.0228833
-0.00419294
0.00829603
-0.0271617
-0.0080058
0.0122843
-0.031545
-0.0125098
0.0168931
-0.0359416
-0.017722
0.0221185
-0.040238
-0.0236231
0.0279195
-0.0442972
-0.0301498
0.0342089
-0.0479568
-0.0371864
0.0408461
-0.0510272
-0.0445604
0.0476308
-0.0532906
-0.0520388
0.0543022
-0.0545011
-0.0593298
0.0605403
-0.0543899
-0.0660873
0.0659762
-0.0526813
-0.0719198
0.0702113
-0.0491149
-0.0764096
0.0728432
-0.0434687
-0.0791534
0.0735072
-0.0355991
-0.0798067
0.0719371
-0.0254925
-0.0780658
0.0679591
-0.0737184
-0.0132719
0.0614978
-0.000651563
0.00533356
-0.00224609
0.00912677
-0.00450589
0.00952883
-0.00723315
0.00848595
-0.0103067
0.00689624
-0.0136674
0.00495843
-0.017255
0.00256889
-0.0210686
-0.000379346
-0.0250929
-0.00398149
-0.0292728
-0.00832988
-0.0335509
-0.0134439
-0.0378589
-0.0193151
-0.0421177
-0.025891
-0.0462361
-0.033068
-0.0501091
-0.0406873
-0.053612
-0.0485359
-0.0565905
-0.0563513
-0.0588476
-0.0638303
-0.0601345
-0.0706329
-0.0601542
-0.0763899
-0.058601
-0.0807066
-0.0552053
-0.0832024
-0.0497501
-0.083521
-0.081424
-0.0420445
-0.000385674
0.00571923
-0.00156212
0.0103032
-0.00335695
0.0113237
-0.00557209
0.0107011
-0.00806525
0.0093894
-0.0107655
0.00765868
-0.0136518
0.00545521
-0.0166775
0.00264637
-0.0198328
-0.000826213
-0.0231105
-0.00505216
-0.0264637
-0.0100907
-0.0298493
-0.0159295
-0.033223
-0.0225173
-0.0365428
-0.0297483
-0.0397759
-0.0374543
-0.0429021
-0.0454097
-0.0459079
-0.0533455
-0.0487672
-0.0609711
-0.0514051
-0.0679949
-0.0536595
-0.0741356
-0.0552764
-0.0790896
-0.0559292
-0.0825497
-0.0551574
-0.0842928
-0.08423
-0.0523513
-5.344e-05
0.00577268
-0.000652305
0.0109021
-0.00177584
0.0124472
-0.00325384
0.0121791
-0.00492764
0.0110632
-0.00670603
0.00943707
-0.00855199
0.00730117
-0.0104557
0.00455012
-0.0123526
0.00107064
-0.0142594
-0.00314535
-0.0161282
-0.00822193
-0.0179164
-0.0141413
-0.0195747
-0.0208589
-0.0210563
-0.0282667
-0.0223349
-0.0361757
-0.0234261
-0.0443185
-0.0244109
-0.0523607
-0.0254139
-0.059968
-0.0266316
-0.0667772
-0.0282275
-0.0725397
-0.030285
-0.077032
-0.0326093
-0.0802254
-0.0350349
-0.0818671
-0.0829789
-0.0362861
0.000283067
0.00548961
0.00033203
0.0108531
-1.11006e-05
0.0127903
-0.000626508
0.0127945
-0.0013547
0.0117914
-0.00208463
0.010167
-0.00276108
0.00797762
-0.00335842
0.00514745
-0.00386919
0.00158142
-0.00423093
-0.00278361
-0.00442978
-0.00802309
-0.00441518
-0.0141559
-0.00412384
-0.0211503
-0.00347879
-0.0289117
-0.00241054
-0.037244
-0.000880502
-0.0458486
0.0010757
-0.0543169
0.00325803
-0.0621503
0.00541258
-0.0689318
0.00714824
-0.0742754
0.00813934
-0.0780231
0.00796971
-0.0800558
0.0069645
-0.0808619
-0.0792173
0.00320287
0.000564943
0.00492467
0.00122519
0.0101929
0.00167365
0.0123419
0.00194497
0.0125232
0.00218215
0.0115542
0.00250954
0.00983961
0.00300231
0.00748485
0.00369975
0.00445
0.00461648
0.000664688
0.00581927
-0.0039864
0.00733395
-0.00953777
0.00921511
-0.016037
0.0115396
-0.0234747
0.0143724
-0.0317445
0.0177614
-0.0406329
0.0216942
-0.0497814
0.0260951
-0.0587178
0.0308475
-0.0669027
0.0357772
-0.0738615
0.0406721
-0.0791703
0.0452857
-0.0826368
0.0493435
-0.0841136
0.0523673
-0.0838858
-0.0816021
0.0547522
0.000750324
0.00417434
0.00190461
0.0090386
0.00304605
0.0112004
0.00412846
0.0114408
0.00525754
0.0104251
0.00655819
0.00853896
0.00812279
0.00592025
0.010007
0.00256575
0.0122777
-0.00160592
0.0149773
-0.00668609
0.0181791
-0.0127396
0.0219678
-0.0198257
0.0264206
-0.0279275
0.0315839
-0.0369079
0.0374227
-0.0464717
0.043806
-0.0561647
0.0505117
-0.0654235
0.0572743
-0.0736653
0.0638451
-0.0804323
0.0700517
-0.0853768
0.0758756
-0.0884607
0.0814423
-0.0896802
0.0867965
-0.08924
-0.0875034
0.0926978
0.000819667
0.00335467
0.00228181
0.00757645
0.00393423
0.009548
0.00566304
0.00971196
0.00752822
0.00855995
0.00964343
0.00642374
0.0121153
0.00344839
0.0150292
-0.000348116
0.0185153
-0.0050921
0.0226478
-0.0108185
0.0275503
-0.0176422
0.0333277
-0.025603
0.0400248
-0.0346246
0.0475767
-0.0444598
0.0557788
-0.0546738
0.0643027
-0.0646887
0.0727546
-0.0738754
0.0807589
-0.0816696
0.0880369
-0.0877103
0.094435
-0.0917749
0.100019
-0.0940448
0.104885
-0.0945461
0.109547
-0.0939025
-0.0920963
0.11414
0.000777651
0.00257702
0.00233583
0.00601828
0.00426458
0.00761925
0.0064179
0.00755865
0.0088192
0.00615865
0.0115736
0.00366936
0.0147909
0.000231072
0.0186924
-0.00424963
0.0233781
-0.00977781
0.0290415
-0.0164819
0.035824
-0.0244247
0.0437724
-0.0335514
0.0527717
-0.043624
0.0625129
-0.0542009
0.0725204
-0.0646813
0.0822394
-0.0744077
0.0911491
-0.0827851
0.0988853
-0.0894058
0.105285
-0.0941099
0.110437
-0.0969266
0.114606
-0.0982141
0.118103
-0.0980427
0.121455
-0.097255
-0.0952518
0.12461
0.000647589
0.00192943
0.00210827
0.0045576
0.00408001
0.0056475
0.00643454
0.00520412
0.00919202
0.00340117
0.0124636
0.000397778
0.0164924
-0.00379775
0.0214507
-0.00920793
0.0275999
-0.015927
0.0351235
-0.0240055
0.0440619
-0.0333631
0.0542311
-0.0437206
0.0651968
-0.0545896
0.0763269
-0.0653311
0.086913
-0.0752674
0.0963201
-0.0838148
0.104119
-0.0905839
0.110169
-0.0954562
0.114595
-0.0985352
0.117776
-0.100108
0.120132
-0.100571
0.122218
-0.100128
0.124434
-0.0994714
-0.098015
0.127197
0.000465897
0.00146354
0.00169872
0.00332477
0.00355159
0.00379463
0.00597194
0.00278377
0.00902735
0.000345757
0.012939
-0.00351384
0.017957
-0.00881579
0.0243812
-0.0156321
0.032426
-0.0239718
0.0421042
-0.0336837
0.0531384
-0.0443972
0.0649534
-0.0555356
0.0767667
-0.0664029
0.0877501
-0.0763145
0.0972089
-0.0847262
0.104726
-0.0913317
0.110229
-0.0960867
0.113967
-0.0991942
0.116402
-0.10097
0.118117
-0.101823
0.119605
-0.102059
0.121386
-0.101909
0.123607
-0.101692
-0.100754
0.126346
0.000280427
0.00125917
0.0029733
0.00550019
0.00904181
0.0138828
0.0203539
0.0286765
0.0388128
0.0503727
0.0626356
0.0746894
0.0856355
0.0947879
0.10181
0.106751
0.109983
0.112054
0.113543
0.11494
0.116544
0.118671
0.121388
0.12556
0.00671845
-0.0898324
0.0698421
0.0275852
-0.0676216
0.0467548
0.0475416
-0.0405246
0.0205682
0.0651264
-0.00758125
-0.0100035
0.0805643
0.0298841
-0.045322
0.0945268
0.0708275
-0.08479
0.10711
0.110468
-0.123051
0.117639
0.141667
-0.152196
0.125168
0.160364
-0.167893
0.129315
0.168733
-0.17288
0.131199
0.170755
-0.172639
0.13211
0.168537
-0.169448
0.131432
0.167322
-0.166644
0.128179
0.174649
-0.171396
0.123828
0.188312
-0.183961
0.122072
0.190477
-0.188722
0.124867
0.160699
-0.163494
0.131174
0.0937569
-0.100064
0.13939
0.00209819
-0.0103143
0.148217
-0.0892694
0.080442
0.156048
-0.157172
0.149341
0.160801
-0.193269
0.188516
0.162227
-0.207522
0.206095
0.162301
-0.209154
0.20908
0.161163
-0.204731
0.205869
0.156872
-0.208315
0.212606
0.148868
-0.22799
0.235994
0.138789
-0.243882
0.253961
0.12883
-0.223277
0.233236
0.121778
-0.151954
0.159006
0.120932
-0.0447284
0.0455745
0.126147
0.0660527
-0.0712676
0.134984
0.153413
-0.16225
0.143658
0.207152
-0.215827
0.147888
0.240629
-0.244859
0.144899
0.266143
-0.263153
0.135813
0.290327
-0.281241
0.124716
0.283721
-0.272623
0.116628
0.223951
-0.215863
0.114952
0.103436
-0.101759
0.120924
-0.0385631
0.0325914
0.129329
-0.14735
0.138945
0.132172
-0.219424
0.216581
0.127701
-0.259675
0.264146
0.121196
-0.295297
0.301803
0.117731
-0.260128
0.263593
0.118995
-0.177912
0.176648
0.121805
-0.042341
0.0395312
0.123158
0.118564
-0.119917
0.121826
0.229296
-0.227964
0.119973
0.336223
-0.33437
0.118598
0.291326
-0.289951
0.118448
0.171094
-0.170944
0.115826
0.000414368
0.00220831
0.112268
-0.248027
0.251584
0.109933
-0.312018
0.314354
0.107846
-0.324274
0.32636
0.103133
-0.121464
0.126176
0.0990603
0.228378
-0.224305
0.164334
-0.161228
-0.0262447
-0.105632
-0.00709703
-0.0867692
0.0132722
-0.0608938
0.0341007
-0.0284097
0.054109
0.00987572
0.0730533
0.0518832
0.0910709
0.0924502
0.107029
0.125709
0.119516
0.147877
0.128033
0.160216
0.133739
0.165049
0.137676
0.1646
0.139476
0.165522
0.139043
0.175082
0.138306
0.189049
0.139812
0.188972
0.143715
0.156795
0.148713
0.0887594
0.153871
-0.00306059
0.158719
-0.0941172
0.162445
-0.160898
0.163724
-0.194547
0.162145
-0.205943
0.159581
-0.20659
0.15643
-0.20158
0.150257
-0.202141
0.140132
-0.217865
0.128551
-0.232301
0.11865
-0.213376
0.112973
-0.146277
0.114312
-0.0460674
0.122455
0.0579099
0.134135
0.141733
0.145299
0.195988
0.151537
0.234392
0.150355
0.267325
0.142859
0.297822
0.132509
0.29407
0.123916
0.232544
0.119923
0.107429
0.122965
-0.0416052
0.129801
-0.154186
0.132219
-0.221842
0.12718
-0.254636
0.120085
-0.288203
0.117117
-0.257159
0.118625
-0.17942
0.122083
-0.0457988
0.123855
0.116791
0.123317
0.229835
0.122177
0.337363
0.120421
0.293083
0.120043
0.171472
0.116569
0.00388786
0.111939
-0.243396
0.109093
-0.309173
0.106806
-0.321987
0.104086
-0.118744
0.100371
0.232092
0.168287
-0.0451855
-0.112798
-0.031679
-0.100276
-0.0148089
-0.077764
0.00536151
-0.0485801
0.0279179
-0.0126807
0.0508212
0.0289799
0.0737746
0.0694969
0.0948556
0.104628
0.112297
0.130436
0.12556
0.146952
0.135531
0.155078
0.142858
0.157274
0.147441
0.16094
0.149995
0.172528
0.152716
0.186328
0.157127
0.184561
0.161875
0.152047
0.165054
0.0855801
0.167155
-0.00516127
0.1684
-0.0953626
0.168265
-0.160763
0.166204
-0.192486
0.161945
-0.201684
0.15699
-0.201635
0.152117
-0.196707
0.144748
-0.194772
0.133114
-0.206232
0.120094
-0.21928
0.110006
-0.203289
0.105691
-0.141962
0.108936
-0.0493122
0.119432
0.0474139
0.133653
0.127512
0.147253
0.182388
0.15571
0.225935
0.156772
0.266262
0.15129
0.303304
0.142
0.303361
0.132998
0.241546
0.126586
0.113841
0.126175
-0.0411948
0.130877
-0.158888
0.132855
-0.22382
0.12735
-0.249131
0.119407
-0.280259
0.11658
-0.254332
0.118412
-0.181253
0.122677
-0.0500642
0.125055
0.114413
0.125312
0.229577
0.124794
0.337881
0.122659
0.295218
0.122068
0.172062
0.117905
0.00805104
0.112226
-0.237717
0.108857
-0.305804
0.106352
-0.319482
0.105511
-0.117902
0.10229
0.235313
0.173007
-0.0418859
-0.107198
-0.0396624
-0.102499
-0.0294085
-0.0880179
-0.0132275
-0.0647611
0.00762941
-0.0335376
0.0320599
0.00454938
0.0576271
0.0439297
0.0820507
0.0802042
0.103535
0.108951
0.121293
0.129194
0.135495
0.140876
0.146157
0.146612
0.153444
0.153652
0.158862
0.16711
0.164857
0.180333
0.171888
0.17753
0.17736
0.146575
0.179583
0.0833572
0.179314
-0.00489271
0.1774
-0.0934483
0.173584
-0.156947
0.168301
-0.187203
0.161645
-0.195028
0.154611
-0.194601
0.148157
-0.190253
0.140019
-0.186634
0.127682
-0.193896
0.113672
-0.205269
0.103212
-0.192829
0.0996641
-0.138414
0.104313
-0.0539608
0.116691
0.035036
0.133091
0.111112
0.149083
0.166396
0.160182
0.214835
0.163917
0.262527
0.160659
0.306563
0.152585
0.311434
0.143375
0.250756
0.134737
0.122479
0.130622
-0.03708
0.132589
-0.160855
0.133968
-0.225199
0.128143
-0.243307
0.119206
-0.271322
0.11619
-0.251316
0.118326
-0.183388
0.123487
-0.0552254
0.12669
0.11121
0.127731
0.228536
0.127756
0.337857
0.125233
0.29774
0.12447
0.172826
0.119795
0.0127262
0.113142
-0.231065
0.109227
-0.301888
0.106482
-0.316737
0.107433
-0.118853
0.104788
0.237958
0.178417
-0.0128857
-0.0911096
-0.024244
-0.0911408
-0.0261509
-0.0861111
-0.0189919
-0.0719201
-0.0037305
-0.048799
0.0188626
-0.0180438
0.0448338
0.0179585
0.0712113
0.0538267
0.0957785
0.0843839
0.1172
0.107772
0.134748
0.123329
0.147884
0.133475
0.15713
0.144406
0.16482
0.15942
0.173544
0.171609
0.182641
0.168433
0.188749
0.140467
0.190598
0.0815084
0.189175
-0.00347007
0.184858
-0.0891316
0.1779
-0.149988
0.169723
-0.179026
0.161031
-0.186336
0.152358
-0.185927
0.144685
-0.182581
0.13621
-0.178159
0.123824
-0.181509
0.109278
-0.190724
0.0983572
-0.181908
0.095122
-0.135179
0.100517
-0.0593563
0.114029
0.021524
0.132052
0.0930896
0.150271
0.148177
0.16424
0.200867
0.171132
0.255635
0.17077
0.306925
0.164257
0.317947
0.154839
0.260174
0.144095
0.133223
0.136209
-0.0291944
0.134905
-0.15955
0.135428
-0.225722
0.129459
-0.237338
0.119459
-0.261321
0.115928
-0.247785
0.118302
-0.185763
0.124462
-0.0613851
0.128692
0.106979
0.130517
0.226711
0.131001
0.337373
0.128068
0.300674
0.127195
0.173699
0.122184
0.0177371
0.114672
-0.223553
0.11019
-0.297406
0.107158
-0.313706
0.109827
-0.121522
0.107828
0.239957
0.184428
0.0370621
-0.0734195
0.0169006
-0.0709793
-9.44932e-05
-0.069116
-0.0066138
-0.0654008
-0.00255984
-0.0528529
0.0123709
-0.0329745
0.0349546
-0.00462521
0.0611028
0.0276785
0.0873544
0.0581323
0.111279
0.0838475
0.131238
0.10337
0.146246
0.118468
0.157088
0.133563
0.166716
0.149792
0.177676
0.160649
0.188479
0.157631
0.195556
0.13339
0.197928
0.0791372
0.19623
-0.00177286
0.190428
-0.0833294
0.181092
-0.140652
0.17048
-0.168414
0.160111
-0.175967
0.150197
-0.176013
0.141477
-0.173862
0.132956
-0.169637
0.121217
-0.169771
0.106768
-0.176275
0.095376
-0.170516
0.0919833
-0.131786
0.0974416
-0.0648146
0.111216
0.00774924
0.130189
0.0741172
0.150356
0.12801
0.167364
0.183858
0.177735
0.245264
0.180412
0.304248
0.175745
0.322613
0.166412
0.269507
0.154053
0.145583
0.142691
-0.0178326
0.137748
-0.154607
0.137071
-0.225046
0.131161
-0.231428
0.120131
-0.250291
0.115756
-0.24341
0.118269
-0.188276
0.125505
-0.0686214
0.130939
0.101546
0.133565
0.224086
0.134446
0.336492
0.131087
0.304032
0.13017
0.174616
0.125028
0.0228793
0.116783
-0.215308
0.111722
-0.292345
0.108334
-0.310318
0.11262
-0.125808
0.111356
0.241221
0.190926
0.082206
-0.0629277
0.0685132
-0.0572866
0.050908
-0.0515108
0.0326303
-0.047123
0.0212834
-0.0415061
0.020879
-0.0325701
0.0322127
-0.0159589
0.0522251
0.0076661
0.0761654
0.034192
0.100286
0.0597272
0.121543
0.082113
0.138226
0.101784
0.151074
0.120715
0.163182
0.137685
0.176653
0.147178
0.189412
0.144872
0.19818
0.124621
0.202105
0.0752123
0.20091
-0.00057807
0.194155
-0.0765737
0.183002
-0.129499
0.170434
-0.155846
0.1587
-0.164234
0.148
-0.165312
0.138545
-0.164407
0.129993
-0.161084
0.119339
-0.159116
0.105708
-0.162644
0.0940663
-0.158874
0.0901267
-0.127847
0.0950186
-0.0697065
0.108186
-0.00541843
0.12729
0.0550131
0.148896
0.106404
0.168903
0.163851
0.18314
0.231027
0.189526
0.297862
0.187376
0.324762
0.17849
0.278394
0.1644
0.159673
0.149823
-0.00325587
0.141045
-0.145829
0.138747
-0.222747
0.133089
-0.22577
0.121185
-0.238387
0.115645
-0.23787
0.118127
-0.190758
0.126496
-0.0769899
0.133336
0.0947053
0.13682
0.220601
0.138024
0.335288
0.134216
0.30784
0.133339
0.175492
0.128263
0.0279555
0.119426
-0.206471
0.113792
-0.286711
0.109959
-0.306485
0.115731
-0.13158
0.115313
0.241639
0.197778
0.105879
-0.0546658
0.0988884
-0.0502964
0.0907706
-0.0433931
0.0790139
-0.0353663
0.0649245
-0.0274166
0.052558
-0.0202036
0.0480212
-0.0114221
0.053968
0.00171937
0.0686431
0.019517
0.0882624
0.0401078
0.108459
0.061916
0.126165
0.0840783
0.141274
0.105606
0.156258
0.122701
0.1723
0.131136
0.187026
0.130146
0.197887
0.11376
0.203903
0.0691963
0.203585
-0.000260171
0.19608
-0.0690687
0.183509
-0.116928
0.169517
-0.141854
0.156744
-0.15146
0.145551
-0.15412
0.135702
-0.154559
0.127137
-0.152519
0.117674
-0.149653
0.105539
-0.15051
0.0941427
-0.147478
0.0894388
-0.123143
0.0933146
-0.0735822
0.104851
-0.0169544
0.123239
0.0366244
0.145719
0.083924
0.168543
0.141027
0.186547
0.213023
0.196453
0.287956
0.196807
0.324409
0.189183
0.286018
0.174398
0.174459
0.157328
0.0138139
0.14469
-0.133191
0.140314
-0.218371
0.135056
-0.220512
0.122577
-0.225908
0.11559
-0.230883
0.117775
-0.192942
0.127307
-0.0865223
0.135729
0.0862833
0.140157
0.216173
0.141669
0.333776
0.137405
0.312104
0.136656
0.176242
0.131829
0.0327821
0.122542
-0.197184
0.116364
-0.280532
0.111989
-0.30211
0.119071
-0.138662
0.119625
0.241085
0.204826
0.116566
-0.0466217
0.110268
-0.0439979
0.105948
-0.0390733
0.102479
-0.0318968
0.0978907
-0.0228288
0.0910001
-0.013313
0.0834316
-0.00385368
0.0779491
0.0072019
0.0786077
0.0188584
0.0872914
0.0314242
0.101341
0.0478666
0.117334
0.0680851
0.133595
0.089345
0.150658
0.105638
0.168222
0.113572
0.184084
0.114284
0.196647
0.101197
0.204367
0.061476
0.204487
-0.000380027
0.196215
-0.0607974
0.182544
-0.103257
0.167641
-0.126951
0.154201
-0.13802
0.142757
-0.142676
0.13282
-0.144622
0.12427
-0.143969
0.115798
-0.141181
0.105492
-0.140204
0.0950247
-0.137011
0.0896968
-0.117815
0.0921693
-0.0760548
0.1017
-0.0264851
0.118343
0.0199813
0.140578
0.0616894
0.165646
0.115959
0.18794
0.190729
0.20225
0.273646
0.205424
0.321235
0.198845
0.292596
0.184517
0.188787
0.164892
0.0334389
0.148556
-0.116855
0.141654
-0.21147
0.136853
-0.215711
0.12423
-0.213286
0.115623
-0.222276
0.117122
-0.194442
0.127781
-0.0971813
0.138021
0.0760431
0.14354
0.210654
0.145313
0.332004
0.14057
0.316847
0.140067
0.176745
0.135667
0.0371817
0.126062
-0.187579
0.119388
-0.273858
0.114381
-0.297103
0.122561
-0.146842
0.124224
0.239422
0.2119
0.120576
-0.0400002
0.115219
-0.0386416
0.111404
-0.0352578
0.109588
-0.0300813
0.109577
-0.0228172
0.10989
-0.0136262
0.108943
-0.00290713
0.106546
0.00959895
0.104396
0.0210086
0.104405
0.0314152
0.109192
0.0430795
0.118978
0.0582988
0.132577
0.0757465
0.148807
0.0894078
0.16587
0.0965095
0.181863
0.0982904
0.195608
0.0874525
0.204377
0.0527065
0.204278
-0.000280453
0.194899
-0.0514188
0.18023
-0.088588
0.164765
-0.111485
0.150965
-0.12422
0.139389
-0.1311
0.129577
-0.13481
0.121184
-0.135575
0.11343
-0.133427
0.104868
-0.131642
0.0959356
-0.128078
0.0905513
-0.11243
0.0916419
-0.0771453
0.098918
-0.0337612
0.112906
0.00599295
0.133877
0.0407187
0.160251
0.0895857
0.185841
0.165138
0.204092
0.255396
0.210629
0.314698
0.205917
0.297308
0.192207
0.202497
0.172051
0.0535949
0.152433
-0.0972374
0.142639
-0.201676
0.138224
-0.211295
0.125998
-0.20106
0.11577
-0.212048
0.11612
-0.194792
0.127733
-0.108795
0.13997
0.0638066
0.146817
0.203808
0.14895
0.32987
0.143741
0.322057
0.143531
0.176955
0.139759
0.0409537
0.129915
-0.177736
0.122803
-0.266745
0.117089
-0.291389
0.126115
-0.155869
0.12902
0.236517
0.218812
0.120584
-0.0342375
0.115762
-0.0338195
0.112276
-0.0317727
0.110599
-0.0284038
0.111041
-0.0232587
0.113571
-0.0161563
0.117822
-0.00715807
0.122733
0.00468763
0.125787
0.0179545
0.127456
0.0297464
0.130204
0.0403317
0.135531
0.0529713
0.14448
0.0667972
0.156541
0.0773474
0.169964
0.0830858
0.183663
0.084592
0.19623
0.0748853
0.203644
0.0452931
0.201143
0.00221972
0.190749
-0.0410243
0.175713
-0.0735524
0.160398
-0.0961702
0.14681
-0.110632
0.135346
-0.119636
0.125789
-0.125252
0.117733
-0.12752
0.110516
-0.12621
0.103314
-0.12444
0.0961383
-0.120902
0.0914355
-0.107728
0.0916815
-0.0773914
0.0969929
-0.0390727
0.107889
-0.00490262
0.125975
0.0226324
0.152412
0.063149
0.181983
0.135567
0.205288
0.23209
0.214911
0.305076
0.211257
0.300961
0.198306
0.215449
0.177753
0.0741476
0.155918
-0.075402
0.143191
-0.188949
0.138949
-0.207053
0.127757
-0.189869
0.116133
-0.200424
0.114724
-0.193383
0.127083
-0.121153
0.14158
0.0493096
0.149954
0.195434
0.152458
0.327366
0.146762
0.327753
0.146982
0.176735
0.144021
0.043915
0.13404
-0.167755
0.126534
-0.259239
0.120071
-0.284925
0.129673
-0.165471
0.133944
0.232246
0.225372
0.12114
-0.0298174
0.116456
-0.0291357
0.112443
-0.0277598
0.109841
-0.0258022
0.109022
-0.0224398
0.110221
-0.0173544
0.113451
-0.0103885
0.119153
-0.00101385
0.126228
0.0108788
0.133357
0.0226173
0.139905
0.0337839
0.147187
0.0456893
0.156065
0.0579194
0.166104
0.0673086
0.176691
0.072498
0.187795
0.0734882
0.198022
0.0646586
0.202787
0.0405275
0.199339
0.0056677
0.187404
-0.029089
0.171957
-0.0581053
0.156619
-0.0808318
0.143141
-0.0971544
0.131699
-0.108195
0.122256
-0.115809
0.114562
-0.119825
0.107755
-0.119404
0.101372
-0.118056
0.0956755
-0.115206
0.0921396
-0.104192
0.0922288
-0.0774805
0.0961281
-0.042972
0.103856
-0.0126307
0.118219
0.00827012
0.141856
0.0395118
0.172222
0.1052
0.199953
0.204359
0.215004
0.290025
0.214877
0.301089
0.203199
0.227126
0.183312
0.0940345
0.159759
-0.051849
0.144061
-0.17325
0.139373
-0.202365
0.129607
-0.180103
0.116935
-0.187751
0.1136
-0.190048
0.125691
-0.133244
0.142317
0.0326835
0.152756
0.184994
0.156027
0.324095
0.149876
0.333904
0.150477
0.176133
0.148494
0.0458983
0.138433
-0.157694
0.13049
-0.251297
0.123324
-0.277759
0.133189
-0.175336
0.138903
0.226532
0.231396
0.16934
-0.0238193
-0.175338
0.1642
-0.0239955
0.159276
-0.0228358
0.154363
-0.0208895
0.149713
-0.0177897
0.145649
-0.0132909
0.142509
-0.00724762
0.14085
0.000645252
0.141239
0.0104895
0.142878
0.020978
0.14506
0.0316024
0.14809
0.0426586
0.153139
0.052871
0.160535
0.0599125
0.170185
0.0628473
0.183101
0.0605729
0.198536
0.0492232
0.211521
0.0275427
0.217422
-0.000233683
0.216412
-0.0280788
0.210452
-0.0521453
0.201969
-0.0723488
0.192394
-0.0875791
0.182381
-0.0981823
0.172459
-0.105887
0.16301
-0.110377
0.153502
-0.109895
0.144149
-0.108703
0.134758
-0.105815
0.124945
-0.0943793
0.115772
-0.0683073
0.110159
-0.0373586
0.110472
-0.0129438
0.117139
0.00160278
0.130162
0.0264889
0.146614
0.0887485
0.161793
0.18918
0.172225
0.279593
0.179798
0.293515
0.185252
0.221672
0.185404
0.0938828
0.17807
-0.0445152
0.168317
-0.163497
0.161905
-0.195953
0.149916
-0.168114
0.135176
-0.173011
0.12528
-0.180151
0.127033
-0.134998
0.133426
0.0262908
0.136423
0.181997
0.137154
0.323365
0.13591
0.335148
0.143041
0.169001
0.146819
0.0421204
0.13988
-0.150755
0.131037
-0.242454
0.120871
-0.267593
0.12532
-0.179785
0.129722
0.222129
0.23617
0.179229
-0.0190622
-0.183986
0.174558
-0.0193248
0.170109
-0.0183863
0.165834
-0.0166147
0.161903
-0.0138591
0.15857
-0.0099577
0.156141
-0.00481837
0.154937
0.0018492
0.155497
0.00992916
0.157716
0.0187588
0.161444
0.027875
0.166856
0.0372468
0.174175
0.0455519
0.183075
0.0510127
0.193399
0.0525231
0.205169
0.0488027
0.216641
0.0377511
0.224509
0.0196746
0.226794
-0.00251851
0.224049
-0.0253336
0.217721
-0.0458177
0.209204
-0.0638319
0.199731
-0.0781057
0.189935
-0.088386
0.180155
-0.0961071
0.170962
-0.101184
0.161729
-0.100662
0.152345
-0.0993186
0.143437
-0.0969071
0.135186
-0.0861286
0.127302
-0.0604234
0.121789
-0.031846
0.121174
-0.0123289
0.126311
-0.00353402
0.138385
0.0144147
0.155823
0.0713109
0.173366
0.171637
0.186004
0.266955
0.19503
0.284488
0.200948
0.215755
0.201571
0.0932598
0.193535
-0.0364791
0.181726
-0.151688
0.173793
-0.188021
0.161528
-0.155849
0.146111
-0.157595
0.134742
-0.168782
0.136376
-0.136633
0.144421
0.0182458
0.14873
0.177688
0.149791
0.322304
0.148419
0.33652
0.156415
0.161006
0.161305
0.0372298
0.153376
-0.142826
0.143358
-0.232436
0.131765
-0.256
0.136141
-0.184161
0.141688
0.216582
0.240673
0.190244
-0.014983
-0.194323
0.185972
-0.0150524
0.181947
-0.0143618
0.17819
-0.0128572
0.174814
-0.0104831
0.172013
-0.00715678
0.169974
-0.00277942
0.169118
0.00270506
0.169787
0.00926005
0.172089
0.0164569
0.176095
0.0238693
0.181991
0.03135
0.189738
0.0378056
0.198816
0.0419346
0.208751
0.0425881
0.218846
0.0387069
0.227465
0.0291323
0.232732
0.0144081
0.233713
-0.00349978
0.230923
-0.0225431
0.225318
-0.040213
0.217802
-0.0563157
0.209327
-0.0696314
0.200415