/*--------------------------------*- C++ -*----------------------------------*\
| =========                 |                                                 |
| \\      /  F ield         | OpenFOAM: The Open Source CFD Toolbox           |
|  \\    /   O peration     | Version:  2512                                  |
|   \\  /    A nd           | Website:  www.openfoam.com                      |
|    \\/     M anipulation  |                                                 |
\*---------------------------------------------------------------------------*/
FoamFile
{
    version     2.0;
    format      ascii;
    arch        "LSB;label=32;scalar=64";
    class       volVectorField;
    location    "34.5";
    object      U;
}
// * * * * * * * * * * * * * * * * * * * * * * * * * * * * * * * * * * * * * //

dimensions      [0 1 -1 0 0 0 0];

internalField   nonuniform List<vector> 
9200
(
(-0.0283595 0.0192798 5.8605e-20)
(-0.0611566 0.0358377 -1.07012e-19)
(-0.0725746 0.0395185 4.83929e-20)
(-0.0551287 0.0391605 8.62938e-20)
(-0.00186362 0.0377226 -7.86253e-20)
(0.093174 0.0362319 0)
(0.231501 0.0355932 0)
(0.406527 0.0371792 1.09383e-19)
(0.603493 0.0411824 -1.53595e-21)
(0.803732 0.0466654 -9.00893e-20)
(0.98896 0.0517808 -4.06537e-20)
(1.14447 0.0544942 7.40916e-20)
(1.26068 0.052695 -4.28925e-22)
(1.33491 0.0459331 -6.19573e-20)
(1.36969 0.0338658 0)
(1.37506 0.0171781 1.23226e-19)
(1.36364 0.00264222 -1.79416e-19)
(1.34695 -0.0252247 4.11807e-20)
(1.33391 -0.0267865 3.86342e-20)
(1.32229 -0.0805729 2.85932e-20)
(-0.0357616 0.0239072 1.55142e-21)
(-0.0638764 0.0413982 5.46343e-20)
(-0.0541781 0.0429349 9.86691e-20)
(-0.000985654 0.0389093 0)
(0.102223 0.0345137 0)
(0.25724 0.0328578 0)
(0.453941 0.035968 0)
(0.670651 0.0437369 -8.33874e-20)
(0.881271 0.0541819 1.02376e-19)
(1.06335 0.0642751 4.42958e-20)
(1.20265 0.0711055 -4.14282e-20)
(1.29434 0.0725433 3.58416e-20)
(1.34266 0.0682376 -3.18826e-20)
(1.35805 0.0587695 -2.90248e-20)
(1.35468 0.0458077 1.79837e-19)
(1.34507 0.0318366 -1.17834e-19)
(1.33515 0.0150332 -1.95434e-20)
(1.32757 0.00107014 -2.40594e-21)
(1.31451 -0.01445 -3.10745e-20)
(1.30039 -0.0325185 -2.85245e-20)
(-0.03921 0.0240202 -5.99564e-20)
(-0.0553645 0.0394326 -5.67797e-20)
(-0.0146938 0.0398046 5.03355e-20)
(0.0868631 0.0356719 -9.1111e-20)
(0.251775 0.0343432 0)
(0.467777 0.0398242 0)
(0.704679 0.0520154 0)
(0.926927 0.0674892 -2.8549e-20)
(1.10741 0.0817214 0)
(1.23352 0.0910832 4.51941e-20)
(1.30664 0.093825 -3.95271e-20)
(1.33839 0.0903371 -1.39881e-19)
(1.3447 0.0822657 1.25986e-19)
(1.34012 0.0713704 2.57019e-20)
(1.33328 0.0599125 -5.11182e-20)
(1.32569 0.0461924 -1.04084e-19)
(1.3168 0.0359017 2.32897e-20)
(1.30358 0.0196822 1.64728e-19)
(1.28897 0.0137718 -8.55703e-20)
(1.27512 -0.00570475 0)
(-0.0383139 0.0206295 6.30019e-20)
(-0.0331065 0.0306927 1.15448e-19)
(0.0505158 0.0307647 1.04021e-19)
(0.213337 0.0314923 -1.38912e-19)
(0.443321 0.0407293 1.52033e-21)
(0.701893 0.0591317 1.48498e-19)
(0.94086 0.081232 -6.69435e-20)
(1.12636 0.100397 2.91305e-20)
(1.24728 0.112324 0)
(1.31131 0.116002 -2.2158e-20)
(1.33612 0.112995 1.159e-19)
(1.34009 0.105824 -1.35684e-19)
(1.33588 0.096464 -5.69131e-20)
(1.32888 0.0864537 5.35889e-20)
(1.31961 0.0751687 -6.80876e-20)
(1.30856 0.0649077 6.15531e-20)
(1.29574 0.0525233 0)
(1.28408 0.0417356 0)
(1.2722 0.0323619 1.46365e-20)
(1.26141 0.0158639 0)
(-0.0324024 0.0153152 6.52176e-20)
(0.00675805 0.0188589 -9.0222e-20)
(0.147692 0.0219086 -1.06563e-19)
(0.379658 0.0347934 0)
(0.659339 0.0606662 -4.34497e-20)
(0.922108 0.0916362 -3.62417e-20)
(1.1224 0.117805 9.98829e-20)
(1.2481 0.133765 -8.88112e-20)
(1.31172 0.139292 4.93643e-20)
(1.3353 0.137222 -2.30294e-20)
(1.33836 0.130859 0)
(1.33263 0.122401 4.97865e-20)
(1.32313 0.113052 2.92518e-20)
(1.31174 0.102789 4.83435e-20)
(1.3001 0.0926736 -4.43936e-20)
(1.28877 0.0815202 -3.62889e-20)
(1.27838 0.0714234 3.33591e-20)
(1.26729 0.0608865 -1.34652e-20)
(1.25527 0.0517011 1.25174e-20)
(1.24336 0.0399111 3.99934e-20)
(-0.0199061 0.00936322 1.37542e-19)
(0.0684582 0.0082783 -4.98294e-22)
(0.279561 0.0211152 0)
(0.573137 0.0533157 7.45561e-20)
(0.867113 0.0951559 -2.3697e-20)
(1.09489 0.131377 -3.83256e-20)
(1.2372 0.15405 1.72023e-21)
(1.30868 0.163262 3.08999e-20)
(1.33507 0.163014 2.48002e-20)
(1.33806 0.157494 -2.12366e-20)
(1.33076 0.149407 -3.58806e-20)
(1.31967 0.140138 -4.50825e-20)
(1.30781 0.130152 7.00439e-20)
(1.29653 0.120098 5.73299e-20)
(1.28562 0.10961 -6.17806e-20)
(1.27471 0.0996852 3.6266e-20)
(1.26306 0.0893849 0)
(1.25149 0.0795949 8.75323e-22)
(1.24025 0.0701914 -3.06722e-20)
(1.22988 0.0592166 3.95964e-20)
(0.00109051 0.00388215 -3.7786e-20)
(0.154614 0.00349475 1.85073e-21)
(0.439565 0.0350453 -3.0157e-20)
(0.767441 0.0881686 -7.64174e-20)
(1.03779 0.138486 6.88385e-20)
(1.21144 0.171907 3.82128e-20)
(1.30033 0.187546 -6.86037e-20)
(1.33394 0.190451 -2.68459e-20)
(1.33842 0.186086 5.05666e-20)
(1.33035 0.178184 6.18283e-20)
(1.31824 0.168754 -8.93938e-20)
(1.3056 0.15868 3.17548e-20)
(1.29334 0.148462 -3.87326e-20)
(1.2812 0.138024 1.17335e-20)
(1.26922 0.127784 -1.97825e-20)
(1.25751 0.117332 3.17868e-20)
(1.24657 0.107286 -2.02472e-21)
(1.23597 0.0976414 -3.75218e-20)
(1.22532 0.0878141 1.07148e-20)
(1.21464 0.0791364 0)
(0.0321508 0.000217911 3.78135e-20)
(0.263953 0.00929902 -8.66693e-20)
(0.610578 0.0663609 6.16026e-20)
(0.937451 0.134904 1.26035e-20)
(1.16196 0.185113 -6.93398e-20)
(1.28209 0.211372 4.12922e-20)
(1.33012 0.21954 0)
(1.33914 0.217084 0)
(1.33138 0.209457 -2.43643e-20)
(1.31827 0.199699 0)
(1.30425 0.189141 5.08823e-20)
(1.29056 0.178311 -5.87524e-20)
(1.27746 0.167319 4.99043e-20)
(1.26519 0.156419 -2.20246e-20)
(1.25367 0.145535 0)
(1.24273 0.13506 0)
(1.23192 0.124857 0)
(1.22128 0.114869 -2.14098e-20)
(1.21101 0.105197 2.4204e-20)
(1.20109 0.0970549 0)
(0.073659 0.000328863 2.04594e-20)
(0.389475 0.0299923 -8.41452e-22)
(0.772005 0.113208 0)
(1.07109 0.18866 -6.24746e-21)
(1.24414 0.232847 1.28147e-20)
(1.31937 0.250237 1.9196e-20)
(1.33862 0.25128 -1.75262e-20)
(1.33289 0.244281 -6.53165e-21)
(1.31877 0.233978 6.53685e-21)
(1.30303 0.222485 0)
(1.28782 0.210597 1.58372e-20)
(1.27367 0.198611 -1.78671e-20)
(1.26058 0.186759 -1.12493e-20)
(1.24825 0.175062 1.26909e-20)
(1.23652 0.163702 4.04619e-21)
(1.22535 0.152608 -7.3808e-21)
(1.21493 0.141916 0)
(1.20511 0.131667 0)
(1.19557 0.121898 -1.2742e-20)
(1.18594 0.114013 7.57445e-21)
(0.124431 0.00642062 0)
(0.519214 0.0675095 0)
(0.909424 0.171786 0)
(1.16703 0.246464 -2.16106e-22)
(1.2921 0.281182 -5.61666e-23)
(1.33285 0.289198 4.99841e-22)
(1.33317 0.283704 4.32298e-21)
(1.31891 0.272652 -6.88923e-21)
(1.30142 0.259688 1.10947e-20)
(1.28448 0.246219 -4.90405e-21)
(1.26888 0.232722 0)
(1.25458 0.219405 3.35692e-21)
(1.24137 0.206341 0)
(1.22921 0.193641 -2.37121e-21)
(1.21803 0.181327 3.99449e-21)
(1.20768 0.169551 0)
(1.1979 0.158262 0)
(1.18859 0.147409 0)
(1.17968 0.137447 0)
(1.17106 0.129096 -1.5384e-21)
(-0.0045636 0.0109554 -4.49908e-21)
(-0.0210924 0.0742276 0)
(-0.0482885 0.137158 0)
(-0.0803933 0.187111 -1.3721e-20)
(-0.113955 0.229081 2.50615e-20)
(-0.14663 0.271164 4.54585e-23)
(-0.17682 0.317033 -5.33761e-21)
(-0.203275 0.366243 -9.64759e-21)
(-0.224675 0.416623 -3.58254e-22)
(-0.2395 0.465396 8.5365e-21)
(-0.246121 0.509371 0)
(-0.242956 0.545041 7.4905e-21)
(-0.228664 0.568789 0)
(-0.202366 0.577215 -6.86168e-21)
(-0.163821 0.567374 1.32266e-20)
(-0.113425 0.537543 0)
(-0.0521247 0.486962 0)
(0.0172793 0.415972 0)
(0.0912678 0.327259 0)
(0.174378 0.221578 1.06752e-20)
(-0.00416842 0.0198871 -1.73527e-20)
(-0.018766 0.0935051 3.18188e-20)
(-0.039468 0.165303 0)
(-0.0638668 0.221512 4.61875e-20)
(-0.0893586 0.265694 -3.64598e-20)
(-0.113277 0.306299 -2.21078e-20)
(-0.133416 0.348052 -1.66616e-22)
(-0.14807 0.391102 4.7071e-20)
(-0.155781 0.433348 -2.61851e-20)
(-0.1551 0.471852 0)
(-0.144617 0.503461 0)
(-0.123127 0.524981 -7.47516e-21)
(-0.0898064 0.533359 2.87828e-20)
(-0.0445697 0.526025 -1.95637e-20)
(0.0124219 0.501111 -4.02385e-20)
(0.079645 0.457376 2.48392e-20)
(0.154357 0.395667 0)
(0.239353 0.316125 0)
(0.315226 0.224374 2.39439e-20)
(0.410447 0.116508 -4.28648e-20)
(-0.00401702 0.0216554 3.31382e-20)
(-0.0169543 0.0984259 -1.53469e-20)
(-0.0307294 0.176943 -5.31728e-22)
(-0.0459037 0.240082 -3.82925e-20)
(-0.0610881 0.287636 6.91654e-20)
(-0.0738804 0.326865 -4.20257e-20)
(-0.0818847 0.363572 0)
(-0.0828796 0.399338 0)
(-0.0752662 0.432713 -3.19135e-20)
(-0.0579251 0.460989 0)
(-0.0298558 0.481249 -3.11693e-20)
(0.0095787 0.490701 1.11334e-19)
(0.0605705 0.486958 -1.0732e-19)
(0.122542 0.467882 5.05578e-20)
(0.193573 0.432764 0)
(0.275805 0.381083 0)
(0.354263 0.314072 0)
(0.452699 0.231491 9.52679e-20)
(0.520661 0.143155 -6.49842e-20)
(0.625162 0.0413861 0)
(-0.00333683 0.0175328 -3.31134e-20)
(-0.0152687 0.0896206 9.13571e-22)
(-0.0238966 0.170303 -2.75412e-20)
(-0.0306262 0.239344 2.46857e-20)
(-0.0352688 0.291413 -2.27048e-20)
(-0.0362807 0.330591 0)
(-0.0315766 0.362648 -3.56516e-20)
(-0.0190586 0.390692 3.25684e-20)
(0.00291084 0.41467 1.88812e-21)
(0.0353528 0.432835 -3.07201e-20)
(0.0788076 0.442851 8.11317e-20)
(0.133314 0.442392 -5.09492e-20)
(0.198026 0.429423 2.75162e-20)
(0.273183 0.403401 -7.06615e-20)
(0.351584 0.361859 -4.55471e-20)
(0.445139 0.308362 -9.5531e-20)
(0.519389 0.241005 -4.87153e-21)
(0.627147 0.163373 4.33445e-20)
(0.682988 0.083455 4.01631e-20)
(0.798755 -0.0108419 0)
(-0.00192012 0.0103227 -1.26639e-19)
(-0.0135189 0.071305 1.16689e-19)
(-0.0202282 0.147651 0)
(-0.0218085 0.218394 -2.29511e-20)
(-0.0181602 0.274007 6.29218e-20)
(-0.00865247 0.314442 -3.75554e-20)
(0.00782589 0.34364 1.38797e-19)
(0.0326573 0.365127 -1.5921e-19)
(0.0670653 0.380342 8.78761e-20)
(0.111777 0.388947 -2.78779e-20)
(0.166915 0.389566 5.13546e-20)
(0.232021 0.381173 2.80872e-20)
(0.305334 0.360866 -6.59065e-20)
(0.387237 0.332119 -6.86184e-20)
(0.468794 0.28696 2.19571e-19)
(0.564225 0.238384 -8.23439e-20)
(0.637806 0.173517 0)
(0.755389 0.106904 1.61818e-19)
(0.808059 0.030149 4.00306e-20)
(0.955447 -0.0604836 -1.42579e-19)
(-0.000319271 0.00317284 -6.14896e-20)
(-0.0124695 0.0498988 -2.78383e-20)
(-0.0207856 0.115389 -5.04185e-20)
(-0.0217617 0.180952 0)
(-0.0142182 0.235525 -4.17974e-20)
(0.00216748 0.27573 1.10421e-19)
(0.0275266 0.30292 -1.65881e-19)
(0.062135 0.319765 3.09668e-20)
(0.106274 0.328228 -5.4219e-20)
(0.159954 0.329159 7.35938e-20)
(0.222734 0.322228 0)
(0.293668 0.308051 6.50046e-20)
(0.371928 0.283402 4.02897e-20)
(0.456174 0.254483 -8.36564e-20)
(0.546688 0.20967 7.68065e-20)
(0.646998 0.168751 7.97014e-20)
(0.744746 0.10307 -7.32538e-20)
(0.878482 0.0469497 -3.82384e-20)
(0.964896 -0.034659 3.2956e-20)
(1.14592 -0.113875 -1.28339e-19)
(0.000198129 -0.00137308 -6.00701e-20)
(-0.0141541 0.031692 1.10712e-19)
(-0.0269904 0.0820118 9.94975e-22)
(-0.0313755 0.135463 1.33341e-19)
(-0.0246417 0.182121 -1.9147e-21)
(-0.00620526 0.217225 -1.41459e-19)
(0.0235014 0.240182 1.54948e-21)
(0.0638156 0.25243 8.57106e-20)
(0.114204 0.255758 0)
(0.174413 0.251633 -2.39867e-20)
(0.244553 0.24071 -4.51178e-20)
(0.32532 0.22383 1.59227e-19)
(0.41836 0.199541 -7.41484e-20)
(0.523675 0.170891 -7.28539e-20)
(0.645577 0.13004 3.98857e-20)
(0.7759 0.091403 -3.48375e-20)
(0.921768 0.0291329 0)
(1.06876 -0.0151722 0)
(1.19505 -0.0948435 1.49501e-19)
(1.34423 -0.145391 -1.13934e-19)
(-0.00210875 -0.0014272 -5.81741e-20)
(-0.0210577 0.0211659 -5.47701e-20)
(-0.0401062 0.0550056 -1.45401e-19)
(-0.0497914 0.0920473 8.82034e-20)
(-0.0463787 0.125176 0)
(-0.0286071 0.150106 6.75473e-20)
(0.00345074 0.165687 -6.16629e-20)
(0.0497886 0.172568 -2.66556e-20)
(0.111179 0.172217 0)
(0.189338 0.166018 4.34935e-20)
(0.2861 0.154814 -4.17302e-20)
(0.402666 0.138458 9.88279e-22)
(0.537876 0.11796 2.05144e-21)
(0.689161 0.0912318 -1.07325e-19)
(0.850099 0.0603471 -7.145e-20)
(1.01102 0.0254047 2.29154e-19)
(1.16657 -0.0191516 3.36324e-20)
(1.29192 -0.0532685 -1.80133e-19)
(1.39535 -0.115071 5.06075e-20)
(1.44578 -0.137718 0)
(-0.00865876 0.0033675 7.21477e-22)
(-0.0341825 0.0199371 -5.34095e-20)
(-0.0580925 0.039125 9.66629e-20)
(-0.0703023 0.0595157 0)
(-0.0661674 0.07759 0)
(-0.042462 0.090773 0)
(0.00304551 0.0984239 0)
(0.0729915 0.100683 1.31516e-19)
(0.169643 0.098551 -9.58484e-20)
(0.293285 0.0930104 -4.35416e-20)
(0.441153 0.0849456 4.00999e-20)
(0.607393 0.0738585 3.79366e-20)
(0.782732 0.0613233 -3.61519e-20)
(0.957016 0.0431404 1.03698e-19)
(1.11747 0.0254905 -1.60676e-19)
(1.25498 -0.00194546 9.09562e-20)
(1.35611 -0.0267735 8.31382e-20)
(1.41845 -0.0577559 -3.11153e-19)
(1.44055 -0.0950447 1.38525e-19)
(1.41468 -0.107369 -3.87087e-20)
(-0.0183897 0.0113429 9.94514e-23)
(-0.0497195 0.0264618 1.59368e-19)
(-0.0723457 0.0353512 -1.4471e-19)
(-0.0770575 0.0427176 -8.51983e-20)
(-0.0579219 0.0486096 7.76314e-20)
(-0.0090251 0.0526648 0)
(0.0740692 0.0544296 0)
(0.192667 0.0542479 -1.06335e-19)
(0.343907 0.0533027 1.18331e-21)
(0.519594 0.0522814 8.78695e-20)
(0.707339 0.0510333 -4.01494e-20)
(0.893206 0.0486059 -7.54322e-20)
(1.0633 0.0440878 -1.14766e-21)
(1.20566 0.0349079 6.4517e-20)
(1.31223 0.0236802 0)
(1.37724 0.00231296 -8.09537e-20)
(1.40396 -0.0128647 2.00487e-19)
(1.39965 -0.044826 4.62781e-20)
(1.3745 -0.0601089 -1.25743e-19)
(1.35227 -0.0826339 3.88246e-20)
(0.257467 0.0970896 -7.2891e-21)
(0.349577 -0.0782891 2.35671e-22)
(0.431771 -0.272228 -2.21483e-22)
(0.509846 -0.484118 1.97987e-22)
(0.578035 -0.67995 0)
(0.627719 -0.802748 -3.57693e-21)
(0.649955 -0.841243 3.45243e-21)
(0.638535 -0.826518 -2.03069e-21)
(0.625629 -0.766416 2.02977e-21)
(0.616982 -0.699915 -1.01157e-22)
(0.573588 -0.690074 0)
(0.498647 -0.700739 1.92726e-21)
(0.456085 -0.601827 -4.04048e-21)
(0.490816 -0.330619 4.51731e-21)
(0.576575 0.0220359 -4.31891e-21)
(0.673655 0.319637 2.0402e-21)
(0.751414 0.504316 0)
(0.797711 0.584695 -1.02729e-21)
(0.835718 0.575334 9.3068e-22)
(0.878416 0.546117 7.03886e-22)
(0.900163 0.592962 -6.79697e-22)
(0.883173 0.693413 8.15814e-22)
(0.853804 0.694627 -7.53813e-22)
(0.841018 0.490924 0)
(0.839931 0.135009 0)
(0.833109 -0.221254 0)
(0.829237 -0.449538 0)
(0.820757 -0.539126 2.98673e-22)
(0.772101 -0.574014 -1.70627e-22)
(0.686251 -0.577781 0)
(0.601538 -0.496756 -8.78215e-23)
(0.543577 -0.30305 0)
(0.522753 -0.0493071 -1.32481e-22)
(0.531687 0.182909 3.28086e-22)
(0.540084 0.343362 2.13758e-22)
(0.528789 0.421616 -3.05823e-22)
(0.508819 0.40616 -1.87983e-22)
(0.504119 0.298473 -6.11994e-24)
(0.531313 0.134013 -9.62586e-23)
(0.591586 -0.026159 9.59605e-24)
(0.65897 -0.144513 1.16918e-23)
(0.716215 -0.213216 1.14298e-22)
(0.757039 -0.235215 0)
(0.789399 -0.212434 0)
(0.806701 -0.175216 0)
(0.822635 -0.125779 -1.59212e-23)
(0.835182 -0.115296 1.20355e-24)
(0.865154 -0.0803245 -5.09437e-24)
(0.883582 -0.100992 -1.58134e-24)
(0.922065 -0.0494698 -1.724e-26)
(0.484663 -0.00187474 3.14417e-20)
(0.561264 -0.161079 -3.08789e-20)
(0.635456 -0.345306 2.85261e-20)
(0.708812 -0.550048 -2.57327e-21)
(0.761238 -0.735768 -4.27288e-20)
(0.775596 -0.84285 1.8521e-20)
(0.764876 -0.850751 0)
(0.728093 -0.810665 -7.24676e-23)
(0.678657 -0.750175 0)
(0.643708 -0.674798 -8.89255e-23)
(0.596751 -0.638036 -6.06576e-21)
(0.514886 -0.644037 5.68361e-21)
(0.439896 -0.586673 0)
(0.433168 -0.371858 -3.33755e-22)
(0.497739 -0.0544366 -2.0789e-22)
(0.593415 0.241238 0)
(0.679511 0.447077 4.4163e-21)
(0.742925 0.546178 -7.74348e-21)
(0.803577 0.544868 3.28363e-21)
(0.866982 0.523937 0)
(0.907928 0.585527 0)
(0.911671 0.700692 9.70581e-23)
(0.90306 0.709296 -5.15814e-21)
(0.905953 0.506301 -1.07118e-21)
(0.912222 0.146796 5.49352e-21)
(0.900789 -0.215379 0)
(0.880316 -0.447089 1.70076e-21)
(0.85602 -0.529589 -1.4778e-21)
(0.800186 -0.550223 -1.18287e-22)
(0.709245 -0.54593 1.55521e-22)
(0.620852 -0.47066 -4.66362e-23)
(0.561306 -0.290467 -1.37393e-22)
(0.538788 -0.0498051 -9.72762e-22)
(0.542462 0.177814 4.36015e-22)
(0.543256 0.34419 0)
(0.526797 0.428793 1.08685e-21)
(0.504329 0.412352 -1.67087e-22)
(0.497516 0.29692 -5.93794e-22)
(0.525221 0.122012 -2.18214e-22)
(0.589668 -0.0446229 1.75391e-22)
(0.662148 -0.162063 0)
(0.722434 -0.226508 -2.07778e-22)
(0.764047 -0.244895 1.29392e-22)
(0.797119 -0.218959 -5.74888e-23)
(0.816129 -0.179408 1.16581e-23)
(0.832355 -0.128986 1.32848e-23)
(0.843495 -0.119519 1.5694e-23)
(0.870692 -0.0850993 -7.40741e-24)
(0.887938 -0.106212 1.69692e-24)
(0.923988 -0.0529895 -9.45531e-26)
(0.68152 -0.0692896 0)
(0.743346 -0.216262 -5.95547e-20)
(0.813633 -0.387924 5.74488e-20)
(0.883893 -0.578715 -4.75989e-20)
(0.926227 -0.740213 4.5916e-20)
(0.912981 -0.826699 2.61287e-22)
(0.863957 -0.823323 0)
(0.803702 -0.771998 -1.70432e-20)
(0.734529 -0.717078 1.61771e-20)
(0.679511 -0.648602 3.69615e-22)
(0.629336 -0.592625 0)
(0.548013 -0.584244 3.15805e-22)
(0.454244 -0.558631 1.14154e-20)
(0.411435 -0.405222 -1.06709e-20)
(0.446114 -0.129957 1.13756e-20)
(0.52763 0.15819 -2.06468e-20)
(0.614323 0.379569 1.72832e-20)
(0.690755 0.494757 -7.53301e-21)
(0.770516 0.502318 0)
(0.852029 0.4889 1.25225e-22)
(0.911399 0.562538 -1.39854e-22)
(0.936002 0.693774 1.72613e-22)
(0.947501 0.717093 2.51029e-22)
(0.964384 0.525582 0)
(0.978776 0.173246 -5.53207e-21)
(0.96677 -0.191251 5.34158e-21)
(0.933897 -0.431595 0)
(0.89599 -0.510989 1.49419e-22)
(0.832178 -0.518442 -1.96879e-22)
(0.735775 -0.510826 -2.8554e-22)
(0.64513 -0.446198 1.35576e-22)
(0.58562 -0.281267 -8.29367e-22)
(0.561069 -0.0515453 1.26092e-23)
(0.558718 0.17562 1.19624e-21)
(0.553091 0.346904 2.93949e-22)
(0.532541 0.435201 -1.89457e-22)
(0.506854 0.418894 -1.11911e-21)
(0.497146 0.297211 1.22559e-21)
(0.524581 0.111529 -5.54049e-23)
(0.591994 -0.0626753 -3.09867e-22)
(0.668484 -0.179773 -2.60874e-22)
(0.731051 -0.239871 1.81553e-22)
(0.772733 -0.254663 4.31778e-22)
(0.805503 -0.225851 -6.5942e-23)
(0.82552 -0.183965 -7.17278e-23)
(0.841695 -0.132161 0)
(0.851482 -0.12334 -4.80666e-23)
(0.875772 -0.0895015 1.14459e-23)
(0.892022 -0.111152 2.29328e-24)
(0.926401 -0.0563455 -6.76922e-26)
(0.844236 -0.117179 -4.35625e-22)
(0.905857 -0.257546 4.21237e-22)
(0.984996 -0.419819 -4.36237e-22)
(1.05155 -0.596047 -3.90763e-22)
(1.07445 -0.728632 0)
(1.03886 -0.782332 4.70589e-22)
(0.961078 -0.769086 0)
(0.879157 -0.716773 2.86573e-22)
(0.796295 -0.667621 -1.25856e-20)
(0.722535 -0.616123 2.2275e-20)
(0.669047 -0.553151 -9.8139e-21)
(0.597425 -0.522438 9.11948e-23)
(0.495965 -0.512231 -1.47853e-22)
(0.420094 -0.420585 -2.27824e-22)
(0.418751 -0.200234 9.11104e-21)
(0.477231 0.0716089 -1.26666e-21)
(0.557746 0.301639 -7.46518e-21)
(0.643061 0.430339 -4.26097e-21)
(0.738409 0.447833 4.28394e-21)
(0.83466 0.440581 -1.26965e-22)
(0.910524 0.521918 1.41759e-22)
(0.953588 0.667464 -1.74918e-22)
(0.979688 0.710693 -4.03433e-22)
(1.00772 0.540774 -9.4939e-21)
(1.03312 0.203894 9.67399e-21)
(1.02753 -0.157101 8.87828e-21)
(0.987207 -0.404535 -8.57021e-21)
(0.93706 -0.488492 -2.23282e-23)
(0.868681 -0.48871 -2.28348e-21)
(0.768983 -0.478078 4.27375e-21)
(0.674655 -0.424657 -1.5849e-21)
(0.614163 -0.275971 -1.26086e-21)
(0.58834 -0.0574314 1.2176e-21)
(0.581071 0.169014 0)
(0.569219 0.348764 9.71013e-22)
(0.544531 0.447253 -1.22412e-21)
(0.51595 0.432106 -8.78335e-22)
(0.503526 0.301924 4.69583e-22)
(0.530215 0.103565 4.45147e-22)
(0.59932 -0.0800657 0)
(0.678428 -0.197648 1.21509e-21)
(0.742252 -0.253342 -1.10305e-21)
(0.783196 -0.264419 -2.40739e-22)
(0.814662 -0.232937 0)
(0.834938 -0.188767 7.49691e-23)
(0.850746 -0.135271 -7.24637e-23)
(0.859281 -0.126744 2.00914e-23)
(0.880557 -0.0935085 1.18942e-23)
(0.895667 -0.115872 0)
(0.92896 -0.0595958 6.75885e-26)
(1.00332 -0.1624 1.08634e-19)
(1.07174 -0.297346 -1.0515e-19)
(1.15301 -0.441895 -7.22714e-22)
(1.20307 -0.584537 0)
(1.19016 -0.681778 0)
(1.12485 -0.709945 -4.81407e-22)
(1.03095 -0.693709 0)
(0.940018 -0.652029 3.06551e-20)
(0.859189 -0.608006 -2.98277e-20)
(0.776155 -0.573035 0)
(0.710325 -0.521424 -1.38092e-22)
(0.650537 -0.471505 1.29636e-20)
(0.559644 -0.454354 -1.29301e-20)
(0.460443 -0.409212 7.37928e-23)
(0.416433 -0.253097 6.28165e-21)
(0.443067 -0.0103355 -1.15099e-20)
(0.510984 0.218662 5.47785e-21)
(0.599198 0.357542 0)
(0.705586 0.385286 -2.71768e-21)
(0.815467 0.38285 2.4823e-21)
(0.903896 0.468592 0)
(0.958606 0.630405 -5.35725e-21)
(1.00025 0.700677 5.24106e-21)
(1.04213 0.558324 -9.46238e-23)
(1.0775 0.242419 0)
(1.07992 -0.110753 0)
(1.03797 -0.366664 6.39208e-21)
(0.978452 -0.459176 -6.06312e-21)
(0.90541 -0.454545 0)
(0.80351 -0.442284 -1.06619e-22)
(0.70621 -0.403037 0)
(0.644746 -0.273541 0)
(0.618062 -0.0653371 8.91303e-22)
(0.606893 0.1636 -9.5927e-22)
(0.591201 0.351875 0)
(0.564406 0.454641 3.56967e-21)
(0.532691 0.441367 -2.67997e-21)
(0.517174 0.307372 -5.7085e-22)
(0.542639 0.0973507 -1.97816e-21)
(0.612038 -0.0963644 1.90943e-21)
(0.692143 -0.215206 0)
(0.756004 -0.266596 0)
(0.79537 -0.27391 0)
(0.824629 -0.240018 9.58153e-23)
(0.844416 -0.193709 -3.49814e-22)
(0.859566 -0.138306 5.76153e-23)
(0.86697 -0.129735 8.91757e-24)
(0.885255 -0.0970831 3.07073e-23)
(0.898915 -0.120384 -5.56511e-24)
(0.931462 -0.0627783 0)
(1.18823 -0.208635 1.89667e-21)
(1.24679 -0.32625 1.87014e-19)
(1.30339 -0.442303 -8.8694e-20)
(1.31447 -0.542707 -7.50238e-20)
(1.26365 -0.604318 7.18094e-20)
(1.17553 -0.621306 0)
(1.07873 -0.613077 3.88962e-20)
(0.98639 -0.590813 -3.72471e-20)
(0.909708 -0.554684 -2.31918e-20)
(0.833837 -0.523566 2.21793e-20)
(0.758397 -0.488331 0)
(0.699091 -0.434811 2.03282e-22)
(0.629602 -0.398096 0)
(0.530996 -0.372358 8.40643e-21)
(0.449392 -0.278036 -1.58392e-20)
(0.433146 -0.082363 7.60858e-21)
(0.478167 0.133751 0)
(0.562551 0.278517 5.17533e-23)
(0.672471 0.315185 0)
(0.7872 0.316439 5.70242e-23)
(0.886846 0.403803 0)
(0.958455 0.575947 0)
(1.00842 0.671648 -1.09989e-20)
(1.05434 0.563249 1.80669e-20)
(1.10185 0.276432 -1.51707e-20)
(1.11959 -0.0609454 7.8233e-21)
(1.08223 -0.321418 -4.29594e-22)
(1.01745 -0.427074 3.63573e-21)
(0.942731 -0.422228 -3.26333e-21)
(0.840009 -0.407133 -9.05171e-22)
(0.738718 -0.38098 4.33955e-22)
(0.675243 -0.272264 4.23307e-22)
(0.648591 -0.0766349 -3.85299e-22)
(0.63636 0.150922 4.72138e-22)
(0.618979 0.347794 0)
(0.589834 0.466621 2.9213e-21)
(0.555741 0.461928 7.89781e-22)
(0.538024 0.320391 -4.29949e-21)
(0.562139 0.0955439 0)
(0.630619 -0.110532 -1.03004e-21)
(0.709852 -0.231998 1.17303e-21)
(0.772333 -0.279401 -1.1312e-21)
(0.809229 -0.282916 0)
(0.835439 -0.246876 1.67052e-22)
(0.853995 -0.198659 2.57569e-22)
(0.868196 -0.141249 -1.64537e-22)
(0.87457 -0.132331 -8.09337e-23)
(0.890023 -0.100194 0)
(0.901897 -0.124662 0)
(0.93381 -0.0659078 -1.91601e-24)
(1.3583 -0.230652 -8.5543e-20)
(1.38157 -0.319618 8.27541e-20)
(1.39294 -0.399237 0)
(1.35817 -0.465436 8.75312e-23)
(1.28494 -0.506183 -4.42822e-22)
(1.19691 -0.524935 0)
(1.11235 -0.528992 0)
(1.0299 -0.524838 2.48682e-22)
(0.95334 -0.506194 7.96986e-24)
(0.885074 -0.478011 1.71622e-20)
(0.812518 -0.451723 -1.63238e-20)
(0.745667 -0.410603 0)
(0.689557 -0.360668 0)
(0.614283 -0.326523 7.89743e-23)
(0.51989 -0.271271 -5.15322e-23)
(0.459728 -0.132125 0)
(0.471248 0.0589711 2.75922e-21)
(0.542869 0.203453 -2.71284e-21)
(0.652296 0.248286 -1.65675e-21)
(0.768159 0.248615 1.69388e-21)
(0.865264 0.328472 0)
(0.936088 0.514483 -7.01478e-21)
(0.996758 0.647191 6.69162e-21)
(1.06095 0.576019 -1.13538e-20)
(1.1201 0.31594 -2.77186e-21)
(1.15017 -0.0078862 1.35116e-20)
(1.1204 -0.270855 9.87818e-21)
(1.05303 -0.390752 -9.77546e-21)
(0.978328 -0.389046 0)
(0.876553 -0.37073 0)
(0.770828 -0.357173 0)
(0.70435 -0.272325 -1.87786e-23)
(0.678944 -0.0909985 0)
(0.667782 0.138903 -5.24462e-22)
(0.650253 0.347511 2.08603e-21)
(0.621559 0.473182 -1.88918e-21)
(0.58626 0.470263 9.92815e-22)
(0.565851 0.329428 6.33971e-22)
(0.588294 0.0945863 5.68398e-21)
(0.654803 -0.122848 -3.75438e-21)
(0.731493 -0.247569 0)
(0.791151 -0.291348 5.1677e-22)
(0.824679 -0.291145 3.17142e-22)
(0.847087 -0.253269 0)
(0.863693 -0.203462 0)
(0.876658 -0.144055 0)
(0.882058 -0.134558 2.84671e-23)
(0.894939 -0.102834 -3.33669e-23)
(0.904758 -0.128668 -1.32455e-23)
(0.935974 -0.0689812 1.91016e-24)
(1.42666 -0.210874 7.47789e-20)
(1.41325 -0.271925 -7.22773e-20)
(1.38978 -0.323664 6.66849e-20)
(1.3373 -0.372884 -6.3973e-20)
(1.27229 -0.412768 4.62904e-22)
(1.20569 -0.443126 0)
(1.13825 -0.460359 -3.02186e-22)
(1.06879 -0.464076 -5.07292e-22)
(0.996296 -0.45754 -2.25569e-20)
(0.929613 -0.43891 2.21207e-20)
(0.866258 -0.414399 -1.29851e-20)
(0.799024 -0.384614 3.37423e-21)
(0.740244 -0.341577 8.56105e-21)
(0.685979 -0.295971 -8.21703e-23)
(0.610554 -0.247546 5.35845e-23)
(0.527554 -0.153752 1.09391e-21)
(0.496398 -0.00552486 -1.73878e-21)
(0.5398 0.125837 5.41565e-22)
(0.638175 0.177218 1.0976e-22)
(0.751765 0.183481 -1.60276e-21)
(0.847078 0.257045 1.54376e-21)
(0.919781 0.435767 0)
(0.98184 0.586754 6.56767e-21)
(1.03713 0.563405 -1.53475e-20)
(1.10243 0.345761 8.75905e-21)
(1.15908 0.0492146 -1.12631e-20)
(1.14907 -0.212955 1.04542e-20)
(1.08348 -0.350487 -5.37923e-21)
(1.01131 -0.357294 5.07134e-21)
(0.913364 -0.334989 7.38753e-22)
(0.802536 -0.33125 -7.1384e-22)
(0.730491 -0.271158 -3.33647e-22)
(0.706612 -0.108801 2.90478e-22)
(0.69874 0.116452 0)
(0.68515 0.333603 9.44852e-23)
(0.658443 0.480858 2.82717e-22)
(0.621515 0.49792 -5.46375e-21)
(0.599656 0.353357 5.49056e-21)
(0.620885 0.101342 4.78438e-21)
(0.684904 -0.131139 -5.91843e-21)
(0.757152 -0.261069 0)
(0.812357 -0.302258 -2.29486e-21)
(0.841589 -0.298665 1.91358e-21)
(0.859532 -0.259252 -2.05801e-22)
(0.873518 -0.208145 -2.91566e-22)
(0.884956 -0.146757 0)
(0.889387 -0.136481 2.9858e-23)
(0.900007 -0.105035 -2.99456e-23)
(0.907617 -0.132387 -9.4707e-24)
(0.937962 -0.0719951 0)
(1.38693 -0.167525 6.82882e-20)
(1.36679 -0.209517 -6.57957e-20)
(1.34282 -0.25115 -6.12904e-20)
(1.30653 -0.297378 1.15767e-19)
(1.26432 -0.340029 -1.04381e-19)
(1.21592 -0.374423 4.8515e-20)
(1.15835 -0.397713 3.18175e-22)
(1.09592 -0.408587 2.60651e-22)
(1.0323 -0.408646 -2.07157e-22)
(0.96947 -0.400749 8.05148e-23)
(0.911267 -0.383663 1.18459e-22)
(0.852825 -0.356864 -8.40126e-23)
(0.792883 -0.322263 5.56677e-21)
(0.740543 -0.28072 -5.38092e-21)
(0.688143 -0.229069 0)
(0.616187 -0.148559 -9.52403e-24)
(0.557487 -0.0294933 1.06148e-23)
(0.560625 0.0777338 0)
(0.626881 0.119248 8.77293e-22)
(0.723735 0.117762 -8.44395e-22)
(0.817293 0.180138 1.49039e-23)
(0.888705 0.366297 3.96189e-21)
(0.947121 0.554749 -3.81156e-21)
(1.01922 0.563158 -1.34036e-22)
(1.10369 0.364365 -8.31502e-21)
(1.17202 0.0828977 7.90859e-21)
(1.17303 -0.167171 0)
(1.1082 -0.31372 0)
(1.0394 -0.330255 -2.06369e-21)
(0.949265 -0.301709 2.10248e-21)
(0.834481 -0.303153 -1.22364e-23)
(0.753164 -0.270101 -2.23517e-23)
(0.729544 -0.12851 -1.21904e-21)
(0.729203 0.0967514 1.33029e-21)
(0.721609 0.325756 -1.02461e-21)
(0.696737 0.483337 9.84338e-22)
(0.661877 0.502315 0)
(0.638574 0.360944 5.65216e-21)
(0.65854 0.105347 -6.13564e-21)
(0.719718 -0.137585 -4.71026e-23)
(0.786248 -0.273464 3.07269e-21)
(0.835618 -0.312965 -2.64892e-21)
(0.859757 -0.305985 0)
(0.87274 -0.26507 0)
(0.883519 -0.212856 -1.80315e-22)
(0.893117 -0.149472 1.72975e-22)
(0.896523 -0.1382 3.13053e-23)
(0.90519 -0.106832 -9.03564e-24)
(0.910561 -0.135792 4.20868e-24)
(0.939808 -0.0749362 0)
(1.33973 -0.131095 -1.35179e-22)
(1.33186 -0.161662 0)
(1.3177 -0.198187 5.83245e-20)
(1.29399 -0.239737 -1.10201e-19)
(1.26208 -0.279724 5.18022e-20)
(1.22127 -0.314968 -1.83848e-22)
(1.17305 -0.342174 0)
(1.1201 -0.36192 0)
(1.06596 -0.372008 0)
(1.0107 -0.371862 -8.53826e-23)
(0.954736 -0.364863 -1.48115e-20)
(0.900188 -0.346183 1.42483e-20)
(0.846499 -0.314568 6.65043e-21)
(0.791545 -0.279526 -6.37296e-21)
(0.74294 -0.237167 0)
(0.692429 -0.164886 4.4286e-24)
(0.6347 -0.0599084 2.02468e-21)
(0.607717 0.0396984 -3.97541e-21)
(0.638303 0.0798593 2.29462e-22)
(0.703728 0.0702488 2.15329e-21)
(0.775661 0.105394 -5.05881e-22)
(0.839623 0.262029 2.73302e-21)
(0.907873 0.462954 -2.62553e-21)
(0.978223 0.539441 -6.54763e-23)
(1.04782 0.407977 9.25363e-23)
(1.14647 0.152293 -6.53931e-21)
(1.18718 -0.0946894 6.2796e-21)
(1.12971 -0.262174 0)
(1.06299 -0.301609 -1.76909e-21)
(0.984604 -0.271124 1.67746e-21)
(0.868099 -0.269919 2.26905e-23)
(0.774736 -0.260287 0)
(0.749462 -0.153715 -4.69545e-23)
(0.755897 0.056369 -4.7254e-23)
(0.75716 0.296488 1.38767e-21)
(0.741224 0.482339 -1.33075e-21)
(0.706901 0.53512 0)
(0.680307 0.400073 -6.77145e-21)
(0.701962 0.124634 6.48911e-21)
(0.759715 -0.139162 5.69629e-21)
(0.818531 -0.283396 -4.78563e-21)
(0.860806 -0.321257 -3.04583e-22)
(0.879145 -0.310903 0)
(0.886727 -0.269055 0)
(0.893767 -0.216529 -1.86501e-22)
(0.901194 -0.151695 1.78504e-22)
(0.903461 -0.139492 0)
(0.910427 -0.108126 0)
(0.913653 -0.138756 8.49071e-24)
(0.941544 -0.0777267 -3.10147e-24)
(1.31539 -0.0961378 0)
(1.31649 -0.124819 0)
(1.30275 -0.153628 0)
(1.27943 -0.183506 0)
(1.25053 -0.213378 0)
(1.21663 -0.242707 0)
(1.17937 -0.267524 0)
(1.13833 -0.286791 0)
(1.09294 -0.300445 0)
(1.04513 -0.304415 0)
(0.995307 -0.301578 0)
(0.941392 -0.293032 0)
(0.89149 -0.269993 0)
(0.842323 -0.238411 0)
(0.790539 -0.206857 0)
(0.744446 -0.150989 0)
(0.706279 -0.0570776 0)
(0.687028 0.0344429 0)
(0.697453 0.0612685 0)
(0.719398 0.0349268 0)
(0.753845 0.0577472 0)
(0.818896 0.211967 0)
(0.894879 0.418295 0)
(0.951454 0.503919 0)
(1.03586 0.372627 0)
(1.15818 0.137132 0)
(1.20466 -0.0680742 0)
(1.14374 -0.21695 0)
(1.07607 -0.265979 0)
(1.0155 -0.233756 0)
(0.904839 -0.230116 0)
(0.793876 -0.240905 0)
(0.760182 -0.16102 0)
(0.77696 0.0365071 0)
(0.790791 0.276783 0)
(0.782455 0.469821 0)
(0.749613 0.527619 0)
(0.728184 0.395027 0)
(0.750124 0.127064 0)
(0.802073 -0.133808 0)
(0.852979 -0.280307 0)
(0.887408 -0.318976 0)
(0.899044 -0.308796 0)
(0.900792 -0.268542 0)
(0.903732 -0.217474 0)
(0.908807 -0.152465 0)
(0.909885 -0.139876 0)
(0.915403 -0.10878 0)
(0.916795 -0.141046 0)
(0.943082 -0.0802455 0)
(1.28209 -0.0839921 0)
(1.28546 -0.115934 0)
(1.27333 -0.147011 0)
(1.25027 -0.177485 0)
(1.22235 -0.207198 0)
(1.19109 -0.235299 0)
(1.15644 -0.259086 0)
(1.11787 -0.277516 0)
(1.07481 -0.288513 0)
(1.02729 -0.290845 0)
(0.980284 -0.285453 0)
(0.93153 -0.272176 0)