/*--------------------------------*- C++ -*----------------------------------*\
| =========                 |                                                 |
| \\      /  F ield         | OpenFOAM: The Open Source CFD Toolbox           |
|  \\    /   O peration     | Version:  2312                                  |
|   \\  /    A nd           | Website:  www.openfoam.com                      |
|    \\/     M anipulation  |                                                 |
\*---------------------------------------------------------------------------*/
FoamFile
{
    version     2.0;
    format      ascii;
    arch        "LSB;label=32;scalar=64";
    class       volVectorField;
    location    "56.5";
    object      U;
}
// * * * * * * * * * * * * * * * * * * * * * * * * * * * * * * * * * * * * * //

dimensions      [0 1 -1 0 0 0 0];

internalField   nonuniform List<vector> 
5478
(
(-0.0342173 0.0211993 -7.27758e-20)
(-0.0624122 0.0332744 0)
(-0.0516803 0.0312229 1.09807e-19)
(0.0139113 0.0260824 -1.91421e-19)
(0.146228 0.0226065 1.23226e-19)
(0.339411 0.0241725 -3.79337e-20)
(0.566049 0.0327079 -6.15905e-20)
(0.793935 0.0456658 0)
(0.994663 0.0610096 0)
(1.1526 0.0708314 7.55182e-20)
(1.2606 0.0755927 -3.43095e-20)
(1.3117 0.0729336 -5.80767e-20)
(1.33094 0.0505213 -2.35408e-20)
(1.305 0.0482915 0)
(1.27218 -0.00655184 6.81111e-20)
(-0.0425967 0.0256979 1.46156e-19)
(-0.055127 0.0356216 0)
(0.00250333 0.0296352 0)
(0.146679 0.0243728 -9.63165e-20)
(0.37259 0.0290814 1.26522e-19)
(0.636002 0.0445845 3.55636e-20)
(0.884559 0.0654232 -5.96198e-20)
(1.08225 0.0853328 5.28613e-20)
(1.21442 0.0976288 1.28465e-19)
(1.28363 0.100562 -1.12171e-19)
(1.3004 0.0949025 1.68182e-21)
(1.2918 0.0783696 0)
(1.26998 0.0660394 2.35009e-20)
(1.25382 0.0460269 0)
(1.26216 0.0283535 0)
(-0.044587 0.0239134 -4.06445e-22)
(-0.0255877 0.0281684 -6.8534e-20)
(0.105618 0.0237159 3.90359e-22)
(0.352293 0.0322161 0)
(0.653491 0.0570127 -4.27847e-20)
(0.926542 0.087124 3.60487e-20)
(1.12367 0.111703 3.01181e-20)
(1.2357 0.124281 0)
(1.27906 0.124831 -4.30173e-20)
(1.28032 0.116948 3.61984e-20)
(1.26957 0.103311 3.04816e-20)
(1.25975 0.0930879 0)
(1.25685 0.0770573 0)
(1.25782 0.0692092 -6.68743e-20)
(1.24364 0.0499815 5.95441e-20)
(-0.0381221 0.0174481 -8.01798e-20)
(0.0367916 0.0141127 6.76124e-20)
(0.273355 0.0238832 -5.83437e-20)
(0.61103 0.0603586 5.13996e-20)
(0.920357 0.103895 8.59464e-20)
(1.13044 0.136084 -7.18979e-20)
(1.23773 0.150577 -3.0099e-20)
(1.27343 0.150466 2.34555e-20)
(1.27492 0.142513 -2.2431e-20)
(1.26922 0.13122 0)
(1.26327 0.121822 0)
(1.25614 0.107963 -4.47927e-20)
(1.24513 0.0981247 5.8507e-20)
(1.22555 0.0834072 -3.30793e-20)
(1.21252 0.0679841 0)
(-0.0200926 0.00873645 4.06262e-20)
(0.144694 0.00390802 3.40406e-20)
(0.497996 0.0473233 -1.2269e-19)
(0.860836 0.110152 1.73634e-21)
(1.107 0.156168 -1.22415e-21)
(1.22933 0.176893 -1.22614e-21)
(1.27118 0.179084 2.88781e-20)
(1.27664 0.172269 2.4339e-20)
(1.27049 0.162038 1.7698e-20)
(1.25921 0.151451 -2.62899e-21)
(1.24488 0.138055 -4.02693e-20)
(1.23007 0.126412 0)
(1.21672 0.11333 1.85032e-20)
(1.21026 0.099841 -1.40813e-20)
(1.20433 0.0905462 2.50013e-20)
(0.0152806 1.82954e-05 -8.82118e-20)
(0.303788 0.0129909 9.51697e-20)
(0.729948 0.0972444 -3.27717e-20)
(1.04625 0.168115 2.45661e-20)
(1.20899 0.202682 -4.54208e-20)
(1.2685 0.210811 -3.37845e-20)
(1.27843 0.205828 1.01727e-21)
(1.26933 0.195453 0)
(1.25396 0.183282 3.57608e-20)
(1.23874 0.169595 -3.18012e-20)
(1.22656 0.157307 1.27603e-20)
(1.21674 0.144006 0)
(1.20788 0.132068 7.79687e-21)
(1.19493 0.119303 -1.39869e-20)
(1.17968 0.108546 0)
(0.0735356 -0.00301203 -1.10199e-20)
(0.493651 0.0535416 1.09261e-21)
(0.919605 0.162203 1.58604e-20)
(1.16206 0.225327 2.69417e-20)
(1.25782 0.24586 -2.06112e-20)
(1.27758 0.243999 3.46043e-20)
(1.268 0.233118 -7.85448e-21)
(1.25142 0.219427 0)
(1.23606 0.204937 -2.0917e-20)
(1.22258 0.191192 1.42364e-21)
(1.20927 0.176752 1.73476e-20)
(1.19582 0.163281 0)
(1.18249 0.149799 -1.12964e-20)
(1.17285 0.135825 0)
(1.16643 0.127779 6.98911e-21)
(0.154165 0.00717701 -1.23081e-20)
(0.673104 0.12119 0)
(1.05441 0.233662 1.69838e-20)
(1.22535 0.281821 0)
(1.27139 0.288107 0)
(1.26689 0.277202 0)
(1.24941 0.261548 -6.66735e-21)
(1.23132 0.244936 0)
(1.21431 0.228538 4.20899e-21)
(1.19871 0.211957 0)
(1.18565 0.196457 -5.39178e-21)
(1.17521 0.181285 0)
(1.16677 0.167041 3.49527e-21)
(1.15718 0.154125 0)
(1.14522 0.143704 2.2771e-21)
(-0.00559286 -0.0471414 -1.06092e-20)
(-0.0301265 -0.0371851 0)
(-0.0679942 -0.00315262 1.66067e-20)
(-0.107816 0.0300103 0)
(-0.146803 0.0631811 0)
(-0.18376 0.101383 0)
(-0.217473 0.146305 -1.01738e-20)
(-0.246311 0.197564 0)
(-0.268116 0.253841 8.04019e-21)
(-0.28044 0.312592 0)
(-0.280998 0.3697 -1.28175e-20)
(-0.268016 0.419898 0)
(-0.239395 0.458058 1.04707e-20)
(-0.194383 0.47821 0)
(-0.125762 0.474641 8.92881e-21)
(-0.00224608 -0.0278624 5.19226e-20)
(-0.0241792 -0.003024 -3.62778e-20)
(-0.0575752 0.0379711 1.48929e-20)
(-0.0920578 0.0736683 5.5868e-20)
(-0.124225 0.105797 -6.60732e-23)
(-0.152035 0.140281 -4.39579e-20)
(-0.173704 0.179135 2.95872e-20)
(-0.187353 0.221578 0)
(-0.190806 0.265811 2.23799e-20)
(-0.181871 0.309151 9.51651e-23)
(-0.15849 0.348437 -1.13588e-20)
(-0.118106 0.379264 0)
(-0.0612055 0.394502 -2.98423e-20)
(0.0100556 0.395446 0)
(0.115311 0.372109 -4.54927e-20)
(-0.000377651 -0.0146926 7.91706e-20)
(-0.0191154 0.0197012 1.73047e-20)
(-0.04505 0.0664965 -3.14247e-20)
(-0.0697856 0.104931 -8.09676e-20)
(-0.090027 0.135402 4.71479e-20)
(-0.103375 0.164222 4.08207e-20)
(-0.10769 0.194642 -7.09479e-20)
(-0.101 0.226456 0)
(-0.0815218 0.257868 -5.54593e-20)
(-0.0469506 0.286699 4.93084e-20)
(0.00345096 0.308217 2.12001e-20)
(0.065578 0.322225 0)
(0.159776 0.321027 1.93621e-20)
(0.232945 0.30811 -3.40925e-20)
(0.377236 0.257963 0)
(0.000594695 -0.00826003 3.76748e-20)
(-0.0161374 0.0288601 -1.01763e-19)
(-0.0354923 0.0780155 1.17823e-19)
(-0.0499192 0.118405 -1.02055e-19)
(-0.0566348 0.147425 -4.36795e-20)
(-0.0537972 0.170193 3.77817e-20)
(-0.0396863 0.190902 3.4768e-20)
(-0.0127832 0.210705 2.8357e-20)
(0.0286226 0.228547 -7.58801e-20)
(0.08091 0.241912 1.10342e-23)
(0.1614 0.250541 1.92756e-20)
(0.222394 0.24978 0)
(0.361879 0.230493 3.31323e-20)
(0.412336 0.221705 1.01394e-19)
(0.605606 0.152543 -5.98934e-20)
(0.000446161 -0.00587693 -5.49651e-22)
(-0.0168468 0.0275172 6.4848e-20)
(-0.0334827 0.0727135 -5.64134e-20)
(-0.0407197 0.110916 5.04082e-20)
(-0.0362051 0.137007 8.56891e-20)
(-0.0192164 0.153778 -7.3858e-20)
(0.010765 0.16519 -3.09914e-20)
(0.0540083 0.173105 -8.26665e-20)
(0.113045 0.17989 7.29707e-20)
(0.180813 0.178225 0)
(0.28559 0.179273 0)
(0.355835 0.167806 7.02404e-20)
(0.541238 0.143443 -1.61473e-19)
(0.585034 0.127251 5.86527e-20)
(0.842679 0.0659544 0)
(-0.0023271 -0.00344376 6.4497e-23)
(-0.0234217 0.0225073 -6.44858e-20)
(-0.0417592 0.0568011 1.67737e-19)
(-0.0465383 0.0862168 -4.86359e-20)
(-0.035018 0.105049 -4.2041e-20)
(-0.00707353 0.114644 3.61039e-20)
(0.0381743 0.118275 3.10103e-20)
(0.102807 0.118104 5.14945e-20)
(0.188997 0.116567 -9.04351e-20)
(0.299252 0.109437 3.94182e-20)
(0.432815 0.104665 3.53037e-20)
(0.571002 0.0871095 0)
(0.766329 0.0726498 0)
(0.87283 0.0445374 1.15929e-19)
(1.12939 0.0081759 -1.02942e-19)
(-0.00987627 0.00249633 -1.70576e-22)
(-0.0373528 0.0209368 0)
(-0.0581135 0.040587 0)
(-0.0599561 0.0564164 9.32583e-20)
(-0.0374348 0.0649452 -4.18149e-20)
(0.0136725 0.0673447 3.46155e-20)
(0.0972986 0.0655986 5.83039e-20)
(0.214431 0.0628969 -5.16964e-20)
(0.362484 0.057688 4.47579e-20)
(0.534143 0.0581117 -3.94555e-20)
(0.708894 0.0496117 -7.61926e-22)
(0.902331 0.0471856 0)
(1.05936 0.0357115 2.78384e-20)
(1.2113 0.0145832 0)
(1.3457 -0.00145558 0)
(-0.0219203 0.0119578 -7.12993e-20)
(-0.053953 0.0256844 0)
(-0.0683632 0.0320058 -1.08523e-19)
(-0.0509469 0.0348698 1.88878e-19)
(0.00899955 0.0346812 -2.02762e-19)
(0.118695 0.0325759 -3.24316e-20)
(0.275117 0.0312801 6.05232e-20)
(0.464068 0.0335329 0)
(0.669957 0.0377206 0)
(0.865762 0.0470139 -7.73654e-20)
(1.04782 0.0463324 -3.41196e-20)
(1.19293 0.0557039 6.09029e-20)
(1.29115 0.0368328 -2.78872e-20)
(1.36797 0.0313667 0)
(1.35879 0.00332799 -8.18967e-20)
(-0.0399115 0.448944 0)
(0.168543 0.235226 5.12744e-21)
(0.390236 -0.0950154 -4.74088e-21)
(0.60038 -0.50503 0)
(0.636652 -0.769968 0)
(0.715453 -0.741108 -1.0655e-22)
(0.639139 -0.716704 0)
(0.461269 -0.670185 0)
(0.548229 -0.240526 7.73028e-23)
(0.668306 0.245832 0)
(0.785962 0.441814 0)
(0.849096 0.447813 -8.33008e-23)
(0.78885 0.512629 0)
(0.713958 0.516194 -5.01949e-23)
(0.709315 0.306654 -3.74791e-23)
(0.844196 0.0834341 0)
(0.93452 -0.0448938 -3.44806e-22)
(0.893135 -0.267347 4.15994e-22)
(0.814564 -0.463591 0)
(0.863748 -0.36087 5.9653e-23)
(0.915884 0.00810665 -7.80702e-23)
(0.903549 0.325541 8.52794e-24)
(0.812763 0.426138 -9.44616e-23)
(0.715617 0.314269 9.02614e-23)
(0.67932 0.0434628 -1.67055e-22)
(0.642673 -0.137193 0)
(0.661037 -0.235006 -9.7927e-23)
(0.693866 -0.231457 9.36331e-23)
(0.740896 -0.162758 -3.78394e-23)
(0.797143 -0.127786 0)
(0.825121 -0.0897399 -4.80826e-24)
(0.842164 -0.0536285 0)
(0.849911 -0.0468476 5.75856e-24)
(0.868407 -0.0269717 4.85552e-24)
(0.895604 -0.00377259 -4.78142e-25)
(0.926145 0.00937951 3.16049e-24)
(0.947043 0.0232394 0)
(0.969343 0.038551 -5.78331e-25)
(0.2324 0.331447 1.68877e-20)
(0.426388 0.111054 -1.57535e-22)
(0.623319 -0.221935 -1.90397e-20)
(0.843412 -0.565026 1.81571e-20)
(0.837184 -0.784026 0)
(0.787458 -0.747006 1.0737e-22)
(0.712403 -0.654681 -1.43205e-22)
(0.49772 -0.626068 0)
(0.478211 -0.287774 -7.78821e-23)
(0.600114 0.166923 0)
(0.734134 0.380856 0)
(0.793529 0.445747 8.39022e-23)
(0.724602 0.547676 0)
(0.641499 0.536617 1.61319e-21)
(0.649816 0.283338 -1.35521e-21)
(0.815707 0.039001 1.29464e-21)
(0.944826 -0.0558155 -1.23575e-21)
(0.925547 -0.246654 -8.73088e-23)
(0.837658 -0.46048 0)
(0.882822 -0.382178 0)
(0.931022 -0.00481634 -9.82487e-24)
(0.911477 0.333651 2.74138e-22)
(0.820985 0.45266 -6.84716e-22)
(0.734484 0.337642 4.23179e-22)
(0.699605 0.0555481 5.43469e-22)
(0.66859 -0.135514 0)
(0.683556 -0.239131 2.59972e-22)
(0.708526 -0.241414 0)
(0.757408 -0.174211 3.79716e-23)
(0.828179 -0.136907 -3.9522e-23)
(0.870919 -0.0946559 4.77357e-23)
(0.88894 -0.054754 4.45212e-24)
(0.886134 -0.0474371 -8.72705e-24)
(0.886554 -0.0292227 -2.06756e-25)
(0.898112 -0.00698511 -5.65132e-24)
(0.921864 0.00636099 3.05537e-24)
(0.93966 0.0206374 1.92879e-25)
(0.964178 0.0371825 -2.55186e-25)
(0.491622 0.216029 3.93499e-20)
(0.661454 0.0319608 -7.95954e-20)
(0.833312 -0.3009 3.04889e-21)
(1.00955 -0.60722 3.58432e-20)
(0.983082 -0.756115 3.32707e-22)
(0.854452 -0.704394 -2.03286e-22)
(0.765021 -0.589549 1.45662e-22)
(0.573988 -0.574783 -2.11462e-22)
(0.463141 -0.328714 0)
(0.550998 0.0900852 5.76918e-21)
(0.69616 0.335808 -5.50308e-21)
(0.783787 0.449861 -1.60585e-22)
(0.71886 0.571655 0)
(0.614427 0.554667 -3.95438e-21)
(0.634522 0.260819 3.67252e-21)
(0.80856 -0.0139772 -1.45871e-21)
(0.958655 -0.0706307 1.39183e-21)
(0.960801 -0.217856 1.50677e-21)
(0.86405 -0.449198 -1.26467e-21)
(0.896251 -0.409165 0)
(0.943902 -0.0169667 0)
(0.919731 0.34897 5.64724e-22)
(0.834793 0.471738 -5.39156e-22)
(0.757113 0.354069 -1.45416e-21)
(0.721394 0.0677703 -1.10409e-22)
(0.694104 -0.132694 1.46595e-21)
(0.709082 -0.241521 1.41926e-23)
(0.727593 -0.250035 -3.22361e-22)
(0.769566 -0.186349 3.94417e-22)
(0.842476 -0.148386 -2.95028e-22)
(0.899935 -0.10184 -3.3407e-24)
(0.929583 -0.0562484 -1.72651e-24)
(0.926575 -0.0464886 -1.15228e-23)
(0.914097 -0.0291464 1.10174e-23)
(0.908107 -0.00845677 4.31895e-24)
(0.921401 0.00419025 2.26295e-24)
(0.932636 0.0182169 -5.49381e-24)
(0.958077 0.0357122 -8.43591e-25)
(0.691866 0.110701 0)
(0.861806 -0.0292168 3.76913e-20)
(1.05388 -0.33472 -3.70595e-20)
(1.15276 -0.604621 0)
(1.08421 -0.704861 -3.41946e-22)
(0.903876 -0.657328 2.08866e-22)
(0.799177 -0.531086 0)
(0.646732 -0.518098 2.31832e-23)
(0.526934 -0.359772 -1.35725e-22)
(0.573829 -4.08711e-07 0)
(0.702938 0.25682 -5.02608e-21)
(0.771498 0.421876 4.9571e-21)
(0.664917 0.608473 -3.25445e-22)
(0.576692 0.596373 -5.00558e-21)
(0.646643 0.256186 4.77225e-21)
(0.818332 -0.0626123 2.51387e-22)
(0.975658 -0.0929642 0)
(0.99853 -0.191058 -1.8545e-22)
(0.896417 -0.4288 1.76526e-21)
(0.905607 -0.433667 -9.74695e-22)
(0.954312 -0.043991 -7.01383e-23)
(0.93103 0.342813 -4.76013e-22)
(0.85398 0.493563 -2.03456e-21)
(0.782214 0.384453 2.49667e-21)
(0.746983 0.0882342 -4.22478e-22)
(0.721157 -0.1269 0)
(0.734873 -0.242802 -2.80461e-22)
(0.749769 -0.257457 3.26598e-22)
(0.783374 -0.197586 -4.08891e-22)
(0.84849 -0.160533 3.07517e-22)
(0.911582 -0.111358 -1.6066e-23)
(0.95516 -0.0595477 0)
(0.960857 -0.0454778 1.13463e-23)
(0.944826 -0.0273917 -2.38464e-23)
(0.924418 -0.00806246 -1.181e-23)
(0.925972 0.00325652 -1.21919e-23)
(0.927663 0.0162939 5.49767e-24)
(0.951885 0.0342433 -2.42658e-25)
(0.903041 0.0225286 4.54444e-22)
(1.05537 -0.101356 1.05308e-21)
(1.25561 -0.351411 0)
(1.28018 -0.551217 0)
(1.16111 -0.607123 0)
(0.958687 -0.585179 0)
(0.8413 -0.481682 7.13716e-21)
(0.713406 -0.468263 -1.21224e-20)
(0.601837 -0.388134 5.3025e-21)
(0.646612 -0.0826196 0)
(0.723756 0.211245 -4.5211e-21)
(0.744493 0.445841 4.42354e-21)
(0.651429 0.64593 6.10336e-21)
(0.60898 0.607932 -5.1179e-21)
(0.69788 0.246532 5.45471e-21)
(0.847379 -0.107393 -5.45538e-21)
(0.991198 -0.122479 -2.11884e-22)
(1.03007 -0.164364 -2.90342e-21)
(0.931014 -0.400038 2.76614e-21)
(0.913078 -0.45962 1.78922e-22)
(0.963173 -0.0735691 5.86131e-23)
(0.945451 0.346254 1.20955e-21)
(0.876274 0.506749 -1.24407e-21)
(0.808243 0.399158 -7.57791e-22)
(0.774893 0.103922 -4.92342e-22)
(0.750507 -0.120524 -4.25375e-22)
(0.761163 -0.242918 0)
(0.772203 -0.263708 0)
(0.799232 -0.207411 0)
(0.854432 -0.171788 0)
(0.913709 -0.122017 3.05463e-23)
(0.965777 -0.0649061 -1.3598e-23)
(0.983183 -0.0455763 -2.1376e-23)
(0.972095 -0.0250551 8.18759e-23)
(0.94376 -0.00621511 -1.14813e-23)
(0.935307 0.00367853 -2.44865e-24)
(0.926208 0.0151477 8.22733e-24)
(0.94676 0.032914 2.22187e-24)
(1.1666 -0.0371395 -4.78232e-22)
(1.27372 -0.152095 6.18567e-20)
(1.3906 -0.339557 -5.93906e-20)
(1.33596 -0.474734 -4.53223e-20)
(1.18767 -0.510111 4.31617e-20)
(1.02017 -0.513164 2.17266e-20)
(0.889647 -0.437175 -2.02395e-20)
(0.796045 -0.412653 1.86462e-22)
(0.659974 -0.412203 -1.34602e-22)
(0.715283 -0.169105 0)
(0.786925 0.132215 -1.26309e-22)
(0.778522 0.381067 1.11531e-20)
(0.651141 0.637785 -1.06198e-20)
(0.600445 0.654454 -3.93209e-22)
(0.735225 0.2812 0)
(0.885956 -0.121464 -5.0052e-21)
(1.00907 -0.149154 8.15684e-21)
(1.05737 -0.141594 -3.14715e-21)
(0.968562 -0.362585 0)
(0.920864 -0.475122 9.13329e-22)
(0.969094 -0.119647 -3.89556e-22)
(0.960549 0.319808 -6.82249e-22)
(0.899727 0.521602 -2.8489e-21)
(0.836006 0.439105 2.89642e-21)
(0.805396 0.134839 -3.98044e-21)
(0.782814 -0.107991 5.56742e-22)
(0.789199 -0.240374 3.3676e-21)
(0.794695 -0.268304 -1.17203e-21)
(0.815403 -0.215934 1.11463e-21)
(0.862643 -0.181636 -1.12626e-22)
(0.913925 -0.132523 1.07089e-22)
(0.967088 -0.0716471 0)
(0.993793 -0.0471831 -1.93004e-23)
(0.991962 -0.0230897 -5.76498e-24)
(0.962457 -0.00363625 0)
(0.947798 0.00524843 1.30665e-23)
(0.928957 0.0149146 -5.29616e-24)
(0.943834 0.0318574 1.1798e-24)
(1.35292 -0.0593884 0)
(1.40659 -0.145396 0)
(1.41624 -0.274943 -1.89961e-22)
(1.32131 -0.376664 0)
(1.17795 -0.419354 0)
(1.06203 -0.450578 2.23921e-20)
(0.936638 -0.403462 -2.13096e-20)
(0.864486 -0.354577 1.09625e-20)
(0.730647 -0.410246 -1.04509e-20)
(0.728288 -0.270978 0)
(0.817412 0.0816398 -1.28118e-22)
(0.75361 0.405273 1.61205e-22)
(0.610888 0.668722 -1.3132e-20)
(0.648459 0.644215 -3.15922e-21)
(0.7992 0.274942 1.47099e-20)
(0.933121 -0.141721 1.76947e-22)
(1.02808 -0.182497 -1.34033e-22)
(1.07481 -0.122635 6.18014e-21)
(1.0012 -0.319231 -6.07362e-21)
(0.932578 -0.491772 0)
(0.971744 -0.16639 0)
(0.978058 0.307433 -5.38842e-23)
(0.926051 0.527255 0)
(0.864224 0.448764 4.31915e-21)
(0.834757 0.150752 6.51942e-22)
(0.814844 -0.0971776 -4.07554e-21)
(0.817786 -0.237076 -3.01432e-21)
(0.81781 -0.272107 1.97428e-21)
(0.831293 -0.224067 -1.05981e-22)
(0.871863 -0.190753 0)
(0.915423 -0.142578 -2.94238e-23)
(0.964875 -0.0790869 2.78976e-23)
(0.996294 -0.0501771 -5.05168e-24)
(1.00375 -0.0220563 -1.13567e-23)
(0.977884 -0.000977939 1.13384e-23)
(0.961224 0.00755319 -5.05466e-24)
(0.935576 0.0155466 0)
(0.943845 0.0311599 -2.23893e-24)
(1.35464 -0.0488098 5.02167e-20)
(1.37024 -0.100394 4.97418e-20)
(1.34109 -0.188063 -5.5412e-22)
(1.27932 -0.278662 -8.49115e-20)
(1.1863 -0.340086 3.86389e-20)
(1.09487 -0.399756 -2.19673e-22)
(0.99184 -0.387166 0)
(0.909324 -0.326802 -1.06003e-22)
(0.80985 -0.37296 -7.6275e-23)
(0.71959 -0.342631 0)
(0.786046 -0.04894 -1.0289e-20)
(0.758085 0.296779 9.70735e-21)
(0.651902 0.611827 1.82414e-22)
(0.645702 0.687862 1.61241e-20)
(0.796402 0.363498 -1.53266e-20)
(0.969697 -0.107594 2.20046e-22)
(1.05333 -0.205559 1.42354e-22)
(1.09161 -0.118009 0)
(1.02675 -0.271988 5.34567e-21)
(0.948749 -0.48063 -5.07385e-21)
(0.973994 -0.235403 -9.78098e-22)
(0.991824 0.252696 -4.7663e-22)
(0.950925 0.530992 1.37917e-21)
(0.892651 0.497229 -4.55256e-21)
(0.866349 0.195545 -1.58144e-22)
(0.848701 -0.0775013 8.52194e-21)
(0.846875 -0.23178 -3.12785e-21)
(0.841618 -0.275259 1.61152e-21)
(0.84738 -0.231759 -1.20636e-21)
(0.881051 -0.199011 0)
(0.918362 -0.151854 0)
(0.962585 -0.0865648 0)
(0.994684 -0.0541097 -8.57589e-24)
(1.0089 -0.0221609 3.21235e-24)
(0.988951 0.00118319 -1.61093e-23)
(0.973531 0.0100995 1.00946e-23)
(0.944895 0.0168363 4.81673e-24)
(0.9469 0.03084 0)
(1.28783 -0.031907 0)
(1.30166 -0.0732413 0)
(1.28479 -0.132506 0)
(1.25034 -0.203159 0)
(1.19685 -0.234957 0)
(1.11937 -0.289596 0)
(1.04292 -0.309571 0)
(0.973941 -0.240991 0)
(0.906184 -0.270533 0)
(0.756938 -0.332972 0)
(0.702801 -0.106732 0)
(0.678244 0.298934 0)
(0.595979 0.609802 0)
(0.659502 0.637362 0)
(0.906385 0.3307 0)
(1.04627 -0.107561 0)
(1.07933 -0.219174 0)
(1.11419 -0.0932252 0)
(1.05787 -0.208677 0)
(0.971116 -0.454446 0)
(0.972075 -0.272405 0)
(1.00964 0.213823 0)
(0.98715 0.517646 0)
(0.930381 0.496141 0)
(0.905559 0.209326 0)
(0.888979 -0.0557207 0)
(0.883245 -0.211496 0)
(0.872569 -0.265116 0)
(0.868841 -0.230788 0)
(0.892828 -0.202768 0)
(0.923136 -0.159301 0)
(0.961007 -0.0939624 0)
(0.991012 -0.0588298 0)
(1.00975 -0.0228558 0)
(0.997616 0.00327706 0)
(0.985849 0.0131335 0)
(0.957952 0.0189416 0)
(0.953799 0.0308537 0)
(1.23762 -0.0318185 0)
(1.24706 -0.0790499 0)
(1.23906 -0.135512 0)
(1.19263 -0.19216 0)
(1.14819 -0.229203 0)
(1.07986 -0.284727 0)
(0.995937 -0.278821 0)
(0.910816 -0.241732 0)
(0.861626 -0.279912 0)
(0.804514 -0.248079 0)
(0.648488 0.00580713 0)
(0.541015 0.355917 0)
(0.541377 0.582966 0)
(0.762509 0.529836 0)
(1.05106 0.211561 0)
(1.15173 -0.176946 0)
(1.12989 -0.231824 0)
(1.11294 -0.0986944 0)
(1.04929 -0.221123 0)
(0.991566 -0.453879 0)
(0.996727 -0.257005 0)
(1.02713 0.228477 0)
(1.01436 0.532149 0)
(0.967267 0.513367 0)
(0.958577 0.209945 0)
(0.948712 -0.0725589 0)
(0.934433 -0.223488 0)
(0.912942 -0.270976 0)
(0.899071 -0.235116 0)
(0.912101 -0.208443 0)
(0.934171 -0.166039 0)
(0.964469 -0.0998504 0)
(0.988266 -0.063237 0)
(1.00608 -0.023891 0)
(1.00072 0.00519399 0)
(0.994043 0.0164139 0)
(0.972152 0.0219107 0)
(0.964673 0.0314485 0)
(1.19747 -0.0283027 0)
(1.2049 -0.0701615 0)
(1.19786 -0.100783 0)
(1.16112 -0.148414 0)
(1.12979 -0.162443 0)
(1.07914 -0.183864 0)
(1.00869 -0.200104 0)
(0.971358 -0.1367 0)
(0.882182 -0.17516 0)
(0.800636 -0.190557 0)
(0.687579 0.0805588 0)
(0.594536 0.387856 0)
(0.686371 0.465081 0)
(0.972898 0.351306 0)
(1.20335 0.140116 0)
(1.20768 -0.158001 0)
(1.14635 -0.219025 0)
(1.1381 -0.0599439 0)
(1.08548 -0.152751 0)
(1.0052 -0.426931 0)
(1.01054 -0.287188 0)
(1.05136 0.213523 0)
(1.04949 0.539915 0)
(1.01787 0.522953 0)
(1.02059 0.221086 0)
(1.01102 -0.056503 0)
(0.98598 -0.203066 0)
(0.952487 -0.25689 0)
(0.927453 -0.230876 0)
(0.92912 -0.210505 0)
(0.943226 -0.172151 0)
(0.968065 -0.106002 0)
(0.986851 -0.0676646 0)
(1.00138 -0.0256472 0)
(0.999695 0.00592958 0)
(0.996473 0.0186139 0)
(0.982145 0.0244714 0)
(0.975088 0.0322076 0)
(1.16224 -0.0240741 0)
(1.16538 -0.0575153 0)
(1.15719 -0.0854279 0)
(1.13232 -0.117578 0)
(1.09185 -0.137288 0)
(1.06161 -0.155419 0)
(0.996227 -0.172634 0)
(0.958854 -0.126621 0)
(0.92451 -0.134272 0)
(0.832568 -0.133147 0)
(0.755899 0.121964 0)
(0.773732 0.359937 0)
(0.927803 0.325302 0)
(1.13486 0.214165 0)
(1.25754 0.0904505 0)
(1.22424 -0.14592 0)
(1.14726 -0.195597 0)
(1.12294 -0.0573578 0)
(1.08433 -0.156544 0)
(1.01728 -0.417718 0)
(1.01895 -0.289931 0)
(1.06675 0.20446 0)
(1.07682 0.543675 0)
(1.05729 0.534676 0)
(1.07958 0.221815 0)
(1.07635 -0.0621935 0)
(1.03808 -0.202317 0)
(0.990926 -0.252309 0)
(0.955863 -0.228412 0)
(0.947943 -0.211383 0)
(0.953938 -0.176654 0)
(0.972671 -0.110983 0)
(0.986875 -0.0711814 0)
(0.997816 -0.0271237 0)
(0.997416 0.00629684 0)
(0.995642 0.0199817 0)
(0.98736 0.0262486 0)
(0.982586 0.0328068 0)
(1.12896 -0.0216587 0)
(1.13303 -0.0483039 0)
(1.12454 -0.0670075 0)
(1.10715 -0.0900898 0)
(1.07771 -0.104857 0)
(1.05368 -0.105218 0)
(1.01187 -0.115092 0)
(0.973004 -0.0824281 0)
(0.955819 -0.0622724 0)
(0.880587 -0.0657094 0)
(0.827729 0.109762 0)
(0.918779 0.275834 0)
(1.05962 0.210802 0)
(1.16673 0.125831 0)
(1.23988 0.0833308 0)
(1.1998 -0.101394 0)
(1.1166 -0.168354 0)
(1.11602 -0.0313477 0)
(1.10955 -0.104896 0)
(1.02198 -0.38905 0)
(1.00986 -0.309311 0)
(1.06088 0.193613 0)
(1.07332 0.545011 0)
(1.08767 0.527511 0)
(1.1388 0.218535 0)
(1.13657 -0.0474618 0)
(1.08509 -0.174541 0)
(1.02521 -0.229002 0)
(0.980474 -0.217069 0)
(0.964324 -0.20851 0)
(0.96367 -0.17931 0)
(0.976912 -0.114972 0)
(0.987106 -0.0740081 0)
(0.995366 -0.0283341 0)
(0.995295 0.00661218 0)
(0.993985 0.0209194 0)
(0.98931 0.0274452 0)
(0.986764 0.033255 0)
(1.10324 -0.0185841 0)
(1.10699 -0.0373246 0)
(1.10001 -0.0509287 0)
(1.08781 -0.0664472 0)
(1.06506 -0.0765567 0)
(1.04363 -0.0771614 0)
(1.01726 -0.0815894 0)
(0.982921 -0.0620644 0)
(0.973626 -0.0356336 0)
(0.937274 -0.0278852 0)
(0.90158 0.0772837 0)
(0.985379 0.18137 0)
(1.08879 0.139679 0)
(1.13233 0.0828672 0)
(1.18267 0.0652343 0)
(1.17304 -0.0648515 0)
(1.08788 -0.132987 0)
(1.07897 -0.0483384 0)
(1.11265 -0.108281 0)
(1.02166 -0.354203 0)
(0.963623 -0.311761 0)
(1.03149 0.161664 0)
(1.06912 0.517147 0)
(1.11479 0.510906 0)
(1.18348 0.213995 0)
(1.1847 -0.0422703 0)
(1.12587 -0.16023 0)
(1.05807 -0.213444 0)
(1.00622 -0.207504 0)
(0.982345 -0.204811 0)
(0.974586 -0.180667 0)
(0.981717 -0.11812 0)
(0.987576 -0.0763986 0)
(0.993556 -0.0295027 0)
(0.993402 0.00665258 0)
(0.99245 0.0213411 0)
(0.989658 0.0279533 0)
(0.988587 0.0333619 0)
(1.08363 -0.0149287 0)
(1.08585 -0.028526 0)
(1.08081 -0.0380504 0)
(1.07153 -0.0485432 0)
(1.05573 -0.0549488 0)
(1.03993 -0.0537869 0)
(1.02319 -0.0526664 0)
(1.0013 -0.0385495 0)
(0.992481 -0.0137638 0)
(0.977127 -0.00137985 0)
(0.958517 0.0563336 0)
(1.00975 0.115071 0)
(1.07701 0.0961438 0)
(1.09949 0.0574358 0)
(1.12961 0.0485425 0)
(1.13515 -0.0415962 0)
(1.0746 -0.0988204 0)
(1.05914 -0.0465039 0)
(1.09532 -0.0875846 0)
(1.00851 -0.296004 0)
(0.884073 -0.291711 0)
(0.91754 0.142017 0)
(0.978065 0.487478 0)
(1.08295 0.47215 0)
(1.19429 0.193502 0)
(1.21155 -0.0284222 0)
(1.15542 -0.124186 0)
(1.08555 -0.179094 0)
(1.03048 -0.186642 0)
(1.00073 -0.194956 0)
(0.986663 -0.178349 0)
(0.98786 -0.118924 0)
(0.988965 -0.0773767 0)
(0.992555 -0.0299556 0)
(0.991893 0.00710729 0)
(0.991245 0.0219615 0)
(0.989324 0.0285717 0)
(0.9891 0.0335862 0)
(1.06776 -0.0117991 0)
(1.06937 -0.0213 0)
(1.06635 -0.0275199 0)
(1.06009 -0.0342675 0)
(1.04941 -0.0373986 0)
(1.0383 -0.0360475 0)
(1.02714 -0.0330469 0)
(1.01343 -0.023016 0)
(1.00646 -0.00524324 0)
(1.00164 0.0065477 0)
(0.995303 0.0402099 0)
(1.02213 0.0707558 0)
(1.06153 0.065647 0)
(1.07664 0.0413019 0)
(1.0937 0.0337248 0)
(1.10188 -0.0246652 0)
(1.05761 -0.0659235 0)
(1.03481 -0.0553459 0)
(1.06312 -0.0873465 0)
(0.99685 -0.221558 0)
(0.830201 -0.223114 0)
(0.786584 0.132049 0)
(0.874741 0.414469 0)
(1.05811 0.389091 0)
(1.20163 0.15558 0)
(1.21972 -0.0242946 0)
(1.15978 -0.103407 0)
(1.08983 -0.158815 0)
(1.03816 -0.173355 0)
(1.00949 -0.187821 0)
(0.993919 -0.176237 0)
(0.992092 -0.119223 0)
(0.989784 -0.0779747 0)
(0.991532 -0.0304925 0)
(0.990349 0.00706269 0)
(0.990045 0.0219453 0)
(0.988639 0.0285197 0)
(0.989057 0.0333703 0)
(1.05562 -0.00917027 0)
(1.05726 -0.0155605 0)
(1.05571 -0.019494 0)
(1.05136 -0.0238627 0)
(1.04437 -0.025178 0)
(1.03707 -0.023967 0)
(1.02995 -0.0200969 0)
(1.02226 -0.0128375 0)
(1.01801 0.000333052 0)
(1.01615 0.0103759 0)
(1.01475 0.0300338 0)
(1.02893 0.0452679 0)
(1.04959 0.0465324 0)
(1.05982 0.0311088 0)
(1.06817 0.0249522 0)
(1.0717 -0.0158885 0)
(1.04754 -0.0396296 0)
(1.02654 -0.0463577 0)
(1.02848 -0.0740093 0)
(0.980214 -0.1458 0)
(0.842349 -0.134801 0)
(0.774368 0.116555 0)
(0.881639 0.297984 0)
(1.08188 0.274367 0)
(1.20465 0.109729 0)
(1.21102 -0.0107805 0)
(1.15641 -0.0638749 0)
(1.09574 -0.121104 0)
(1.04996 -0.148544 0)
(1.02169 -0.173929 0)
(1.00327 -0.170078 0)
(0.997603 -0.11685 0)
(0.991404 -0.0767607 0)
(0.991092 -0.029927 0)
(0.989051 0.00780494 0)
(0.988912 0.0225308 0)
(0.987703 0.0290055 0)
(0.988689 0.0335763 0)
(1.04686 -0.00716236 0)
(1.04815 -0.0116682 0)
(1.04739 -0.0140337 0)
(1.04462 -0.0168965 0)
(1.04045 -0.0168944 0)
(1.03593 -0.0157004 0)
(1.03146 -0.011827 0)
(1.02727 -0.00635386 0)
(1.02454 0.0029798 0)
(1.02401 0.0104648 0)
(1.02435 0.0233038 0)
(1.03138 0.0306019 0)
(1.04138 0.0349828 0)
(1.04727 0.0241273 0)
(1.05174 0.0214849 0)
(1.05115 -0.00659022 0)
(1.03466 -0.0212066 0)
(1.01984 -0.0351758 0)
(1.01137 -0.0554915 0)
(0.974852 -0.0863119 0)
(0.888575 -0.0686525 0)
(0.853118 0.0945907 0)
(0.950148 0.189968 0)
(1.10264 0.180963 0)
(1.1796 0.0812655 0)
(1.17653 0.00368327 0)
(1.13465 -0.0390331 0)
(1.08893 -0.101703 0)
(1.05349 -0.13611 0)
(1.02892 -0.165678 0)
(1.00989 -0.165256 0)
(1.00191 -0.114154 0)
(0.992676 -0.0751134 0)
(0.990586 -0.0295325 0)
(0.987688 0.00783099 0)
(0.987608 0.0222304 0)
(0.986542 0.0284723 0)
(0.98818 0.0328743 0)
(1.04001 -0.00596911 0)
(1.04108 -0.00930103 0)
(1.041 -0.0104871 0)
(1.03954 -0.0122957 0)
(1.03708 -0.0115492 0)
(1.03437 -0.0104056 0)
(1.03163 -0.00678329 0)
(1.02939 -0.00251595 0)
(1.02778 0.00461963 0)
(1.02758 0.0103099 0)
(1.02792 0.0196237 0)
(1.03123 0.0231172 0)
(1.03559 0.028974 0)
(1.03838 0.0209114 0)
(1.03942 0.0210665 0)
(1.03744 0.000538933 0)
(1.02709 -0.00749247 0)
(1.01633 -0.021789 0)
(1.0052 -0.0363099 0)
(0.980783 -0.0454075 0)
(0.934343 -0.0330979 0)
(0.92859 0.0678646 0)
(0.995317 0.11259 0)
(1.09182 0.117808 0)
(1.13881 0.0621145 0)
(1.139 0.0157606 0)
(1.11245 -0.0142723 0)
(1.0806 -0.0769691 0)
(1.05413 -0.116792 0)
(1.03346 -0.151822 0)
(1.0147 -0.156678 0)
(1.00527 -0.108769 0)
(0.993493 -0.0713439 0)
(0.99009 -0.0274724 0)
(0.986351 0.0093123 0)
(0.986346 0.023168 0)
(0.985235 0.0290894 0)
(0.987547 0.0332454 0)
(1.03466 -0.00545492 0)
(1.03573 -0.00796529 0)
(1.03602 -0.00835583 0)
(1.03529 -0.00953584 0)
(1.03389 -0.00840126 0)
(1.03237 -0.00719607 0)
(1.03071 -0.00383004 0)
(1.02955 -0.00022701 0)
(1.02852 0.00569678 0)
(1.02841 0.0101395 0)
(1.02839 0.0178676 0)
(1.02978 0.0197922 0)
(1.03115 0.0263223 0)
(1.03213 0.0199931 0)
(1.0316 0.0225223 0)
(1.02929 0.00701918 0)
(1.02217 0.0027165 0)
(1.01478 -0.010819 0)
(1.00525 -0.0217273 0)
(0.991609 -0.0223365 0)
(0.96902 -0.0190464 0)
(0.974668 0.0432965 0)
(1.01375 0.060746 0)
(1.07247 0.0760665 0)
(1.10185 0.0480915 0)
(1.10514 0.0219101 0)
(1.09057 -0.000146135 0)
(1.07045 -0.063836 0)
(1.05263 -0.106372 0)
(1.03631 -0.142566 0)
(1.01814 -0.149138 0)
(1.00789 -0.103157 0)
(0.994183 -0.0674767 0)
(0.989405 -0.0261462 0)
(0.984891 0.00922263 0)
(0.984876 0.0222985 0)
(0.983841 0.0276479 0)
(0.986844 0.0315462 0)
(1.03051 -0.00548869 0)
(1.03142 -0.00747901 0)
(1.03182 -0.00736843 0)
(1.03157 -0.00810189 0)
(1.03084 -0.00666558 0)
(1.03002 -0.00533841 0)
(1.02901 -0.0020749 0)
(1.02843 0.00121872 0)
(1.02769 0.00658045 0)
(1.02763 0.0103956 0)
(1.02726 0.0175119 0)
(1.02778 0.0188418 0)
(1.02773 0.0259051 0)
(1.02786 0.0206643 0)
(1.02655 0.0248912 0)
(1.02469 0.0120343 0)
(1.01987 0.00999395 0)
(1.01546 -0.00224074 0)
(1.00843 -0.0118267 0)
(1.00227 -0.0103592 0)
(0.991966 -0.0150599 0)
(1.00029 0.0255695 0)
(1.02146 0.0277883 0)
(1.05705 0.0481698 0)
(1.07494 0.0367054 0)
(1.0798 0.0240946 0)
(1.07273 0.00951687 0)
(1.06121 -0.0527393 0)
(1.04988 -0.095432 0)
(1.03693 -0.131657 0)
(1.01926 -0.13982 0)
(1.00839 -0.0951968 0)
(0.993117 -0.0609838 0)
(0.988001 -0.0221695 0)
(0.983077 0.0119907 0)
(0.983383 0.0241166 0)
(0.982231 0.0288251 0)
(0.986077 0.0324271 0)
(1.02708 -0.00586398 0)
(1.02784 -0.00748988 0)
(1.02832 -0.00706411 0)
(1.02832 -0.00744704 0)
(1.02798 -0.00582911 0)
(1.02756 -0.00435355 0)
(1.02691 -0.00112767 0)
(1.02665 0.00208541 0)
(1.02606 0.0071991 0)
(1.02608 0.0108062 0)
(1.02552 0.0176638 0)
(1.02571 0.0189529 0)
(1.0251 0.0262662 0)
(1.02498 0.0218461 0)
(1.0236 0.0269589 0)
(1.02243 0.0158198 0)
(1.01917 0.0147602 0)
(1.017 0.00334244 0)
(1.0122 -0.00633591 0)
(1.01078 -0.00539582 0)
(1.00594 -0.0157098 0)
(1.01417 0.0126503 0)
(1.02481 0.00700837 0)
(1.04678 0.0298203 0)
(1.0568 0.0285789 0)
(1.06108 0.0242494 0)
(1.05853 0.0141425 0)
(1.05222 -0.0463496 0)
(1.04545 -0.0879524 0)
(1.03557 -0.122025 0)
(1.01866 -0.130194 0)
(1.00813 -0.0875174 0)
(0.992145 -0.0557475 0)
(0.986242 -0.0205695 0)
(0.98109 0.0111031 0)
(0.981634 0.0219837 0)
(0.980723 0.0257743 0)
(0.985296 0.0290202 0)
(1.0241 -0.00652307 0)
(1.0247 -0.00788282 0)
(1.02513 -0.00719022 0)
(1.02523 -0.00730588 0)
(1.02506 -0.00548825 0)
(1.02488 -0.00383678 0)
(1.02442 -0.000514059 0)
(1.02439 0.00274339 0)
(1.02388 0.0078839 0)
(1.02406 0.011433 0)
(1.02342 0.0183733 0)
(1.0237 0.0196341 0)
(1.02292 0.0273218 0)
(1.02312 0.0232033 0)
(1.02184 0.0289814 0)
(1.02163 0.0185041 0)
(1.01936 0.0178947 0)
(1.01903 0.00673435 0)
(1.0158 -0.00373213 0)