/*--------------------------------*- C++ -*----------------------------------*\
| =========                 |                                                 |
| \\      /  F ield         | OpenFOAM: The Open Source CFD Toolbox           |
|  \\    /   O peration     | Version:  2312                                  |
|   \\  /    A nd           | Website:  www.openfoam.com                      |
|    \\/     M anipulation  |                                                 |
\*---------------------------------------------------------------------------*/
FoamFile
{
    version     2.0;
    format      ascii;
    arch        "LSB;label=32;scalar=64";
    class       surfaceScalarField;
    location    "124.35";
    object      phi;
}
// * * * * * * * * * * * * * * * * * * * * * * * * * * * * * * * * * * * * * //

dimensions      [0 3 -1 0 0 0 0];

oriented        oriented;

internalField   nonuniform List<scalar> 
10785
(
-0.000695736
0.00489508
-0.00419934
0.00151509
0.00526139
-0.00747221
0.0099651
-0.00359013
-0.00485988
0.0279069
-0.0233363
0.00539456
0.0555985
-0.0517479
0.0240563
0.0891132
-0.0832057
0.0496909
0.122541
-0.112334
0.0789064
0.150475
-0.135783
0.107848
0.169924
-0.152572
0.133123
0.181019
-0.163719
0.152623
0.186503
-0.171491
0.166007
0.190162
-0.177886
0.174227
0.193917
-0.184378
0.180623
0.197563
-0.188933
0.185287
-0.194428
0.19263
0.19936
1.47278e-05
0.00488035
0.00456394
0.000712175
0.0185709
-0.0175971
0.0436124
-0.0483778
0.0749193
-0.0830549
0.105362
-0.113648
0.129567
-0.136538
0.145648
-0.151864
0.154996
-0.16192
0.160764
-0.169487
0.165506
-0.176233
0.170483
-0.182864
0.175032
-0.188927
0.180621
-0.194521
-0.201074
0.187267
0.00110813
0.00377221
0.00954783
-0.00772752
0.0299762
-0.0380255
0.0583256
-0.0767272
0.0860893
-0.110818
0.107565
-0.135124
0.121584
-0.150558
0.130178
-0.160458
0.136182
-0.167924
0.141258
-0.174563
0.145938
-0.180913
0.150052
-0.186977
0.154069
-0.192944
0.158523
-0.198975
-0.204817
0.162266
0.00246078
0.00131143
0.0157859
-0.0210526
0.0402693
-0.0625089
0.0661156
-0.102574
0.0862824
-0.130985
0.099472
-0.148313
0.107698
-0.158784
0.113352
-0.166112
0.11774
-0.172312
0.12141
-0.178233
0.12467
-0.184173
0.128047
-0.190354
0.131861
-0.196759
0.136219
-0.203333
-0.210389
0.141792
0.00424693
-0.00293549
0.021912
-0.0387176
0.0459024
-0.0864993
0.0659135
-0.122585
0.0791176
-0.144189
0.0870484
-0.156244
0.0919741
-0.163709
0.0954038
-0.169542
0.098203
-0.175111
0.100851
-0.180881
0.103626
-0.186948
0.106502
-0.19323
0.109361
-0.199617
0.112361
-0.206333
-0.212979
0.11495
0.00648931
-0.0094248
0.0261541
-0.0583825
0.0462145
-0.10656
0.0601997
-0.13657
0.0682853
-0.152275
0.0726974
-0.160656
0.0753439
-0.166356
0.0773355
-0.171533
0.079121
-0.176897
0.0808023
-0.182562
0.0823555
-0.188502
0.0838449
-0.19472
0.0855291
-0.201301
0.0873907
-0.208195
-0.215471
0.0898828
0.00862571
-0.0180505
0.0272022
-0.0769589
0.0424773
-0.121835
0.0514284
-0.145521
0.0557806
-0.156627
0.0578017
-0.162677
0.0588776
-0.167431
0.0595645
-0.17222
0.0600288
-0.177361
0.0603587
-0.182892
0.0606744
-0.188817
0.0610929
-0.195138
0.0615744
-0.201783
0.0621763
-0.208797
-0.215998
0.0627034
0.00994805
-0.0279986
0.0255643
-0.0925752
0.0362193
-0.13249
0.0412216
-0.150523
0.0428838
-0.158289
0.043063
-0.162856
0.0426546
-0.167023
0.0419713
-0.171537
0.0411292
-0.176519
0.0401884
-0.181951
0.0391667
-0.187796
0.0380566
-0.194028
0.0369841
-0.20071
0.0360153
-0.207828
0.0355465
-0.215529
3.292e-05
0.0191386
-0.0191715
-0.00206686
0.0362952
-0.0341954
-0.00574401
0.0423129
-0.0386357
-0.0100184
0.0437697
-0.0394953
-0.0141112
0.043411
-0.0393182
-0.0175264
0.0412946
-0.0378794
-0.0199276
0.0366997
-0.0342984
-0.0210798
0.0289519
-0.0277998
-0.0208782
0.0175767
-0.0177782
-0.0196223
0.00235593
-0.00361191
-0.0163579
-0.0166265
0.0133621
-0.0106294
-0.0398634
0.0341349
-0.00265152
-0.0657159
0.057738
0.00884281
-0.09438
0.0828857
-0.120542
0.0218562
0.107529
0.00200263
0.017136
0.00316698
0.0351309
0.0031202
0.0423596
0.00291103
0.0439788
0.00351954
0.0428025
0.00547992
0.0393342
0.00902178
0.0331579
0.0141354
0.0238384
0.0205805
0.0111316
0.0284778
-0.00554137
0.0380254
-0.0261741
0.0504061
-0.0522441
0.0650093
-0.0803191
0.0825356
-0.111906
-0.138705
0.100698
0.00350947
0.0136265
0.00779615
0.0308442
0.011534
0.0386217
0.0154192
0.0400937
0.0204366
0.0377851
0.027139
0.0326317
0.0356076
0.0246893
0.0456449
0.0138011
0.0568252
-4.8813e-05
0.0700995
-0.0188156
0.0851212
-0.0411958
0.103246
-0.0703691
0.122959
-0.100032
0.144394
-0.133341
-0.157864
0.163554
0.00396628
0.00966022
0.0102961
0.0245144
0.0169918
0.031926
0.0241498
0.0329358
0.0324608
0.029474
0.0423916
0.0227009
0.0540338
0.0130471
0.067186
0.000648916
0.0831241
-0.0159869
0.101785
-0.0374764
0.123852
-0.0632629
0.149194
-0.0957109
0.174724
-0.125562
0.199041
-0.157659
-0.174895
0.216072
0.00333776
0.00632246
0.00997595
0.0178762
0.0179973
0.0239046
0.0269458
0.0239873
0.037069
0.0193509
0.0487446
0.0110252
0.062441
-0.000649171
0.0796622
-0.0165723
0.100962
-0.0372867
0.126889
-0.063403
0.157011
-0.0933849
0.187163
-0.125864
0.214678
-0.153077
0.234657
-0.177638
-0.186764
0.246526
0.00203598
0.00428648
0.00736791
0.0125443
0.0148412
0.0164313
0.0238803
0.0149482
0.0347075
0.00852368
0.0483741
-0.0026414
0.0665652
-0.0188403
0.0903731
-0.0403802
0.120142
-0.0670555
0.153451
-0.0967123
0.187014
-0.126948
0.214419
-0.153268
0.234233
-0.172891
0.242482
-0.185888
-0.188407
0.244125
0.000583854
0.00370263
0.00383396
0.00929417
0.00978557
0.0104797
0.0186603
0.00607348
0.0318013
-0.00461739
0.0510645
-0.0219046
0.0774975
-0.0452732
0.110099
-0.0729816
0.145443
-0.1024
0.178741
-0.130011
0.205034
-0.15324
0.221298
-0.169533
0.228537
-0.180129
0.228278
-0.185629
-0.18798
0.227851
-0.00049671
0.00132525
0.00694511
0.0184131
0.0378521
0.0656384
0.0992716
0.134138
0.164862
0.187474
0.200241
0.204936
0.20543
0.205089
0.209739
0.0231506
-0.290365
0.28907
0.00595556
-0.338719
0.355914
0.0324295
-0.343933
0.317459
0.108172
-0.19001
0.114267
0.177836
0.0481225
-0.117787
0.219005
0.250243
-0.291412
0.23642
0.30534
-0.322754
0.218707
0.355143
-0.33743
0.182354
0.433322
-0.396969
0.180997
0.311814
-0.310457
0.228914
0.0623528
-0.110269
0.262237
-0.171337
0.138014
0.269215
-0.231498
0.22452
0.267406
-0.360771
0.36258
0.273029
-0.472712
0.46709
0.273415
-0.322609
0.322223
0.282872
-0.207189
0.197732
0.292835
0.184523
-0.194485
0.298876
0.465445
-0.471486
0.305524
0.461098
-0.467746
0.310782
0.489149
-0.494406
0.299199
-0.0823109
0.0938937
0.303492
-0.528584
0.52429
0.304577
-0.486431
0.485346
0.320138
-0.503326
0.487765
0.326745
0.475604
-0.482211
0.316941
1.03241
-1.02261
0.290083
0.0499375
-0.0230795
0.283572
-0.726663
0.733174
0.282487
-0.200968
0.202053
0.276313
0.331845
-0.325672
0.265956
0.137321
-0.126964
0.261147
-0.108267
0.113076
0.262671
-0.0387918
0.0372674
0.25911
0.0411221
-0.0375606
0.257627
0.0145908
-0.0131085
0.256445
-0.0105526
0.0117348
0.0040899
-0.000181865
0.0924924
-0.282159
0.0477019
-0.293928
0.014635
-0.310866
0.0629083
-0.238283
0.143408
-0.0323771
0.206297
0.187353
0.234446
0.277191
0.222847
0.366742
0.196887
0.459282
0.197382
0.311318
0.23394
0.0257949
0.264809
-0.202207
0.272247
-0.238936
0.261997
-0.350522
0.266014
-0.476729
0.269796
-0.326391
0.277127
-0.21452
0.293261
0.168389
0.300519
0.458187
0.305985
0.455632
0.313478
0.481655
0.294909
-0.0637413
0.295836
-0.529511
0.296315
-0.48691
0.31079
-0.517801
0.329733
0.456662
0.326084
1.03606
0.292108
0.0839132
0.279271
-0.713826
0.28033
-0.202026
0.278522
0.333653
0.268164
0.147679
0.261465
-0.101567
0.263416
-0.0407426
0.260648
0.0438894
0.258474
0.0167647
0.257047
-0.00912466
0.00768051
0.154292
-0.272897
0.122262
-0.261898
0.0568535
-0.245458
0.0503517
-0.231781
0.127203
-0.109228
0.204894
0.109662
0.239281
0.242805
0.236548
0.369474
0.223173
0.472657
0.222421
0.31207
0.241968
0.00624849
0.264289
-0.224528
0.269393
-0.244039
0.249352
-0.330481
0.250608
-0.477986
0.261732
-0.337515
0.268455
-0.221244
0.290319
0.146526
0.299947
0.448559
0.304515
0.451064
0.313113
0.473057
0.288759
-0.0393872
0.285109
-0.525861
0.284347
-0.486148
0.296489
-0.529944
0.32976
0.423391
0.332117
1.03371
0.292612
0.123417
0.272814
-0.694028
0.275944
-0.205156
0.278631
0.330966
0.268791
0.157519
0.260317
-0.0930938
0.262756
-0.0431813
0.261038
0.0456072
0.25834
0.0194625
0.256823
-0.00760771
0.0107306
0.187057
-0.243882
0.170022
-0.244863
0.124282
-0.199718
0.0779235
-0.185423
0.122593
-0.153897
0.211402
0.0208519
0.247667
0.20654
0.249367
0.367774
0.248766
0.473258
0.247335
0.313501
0.250798
0.00278539
0.26089
-0.234621
0.265467
-0.248615
0.239355
-0.304369
0.233416
-0.472047
0.250831
-0.354931
0.258726
-0.229139
0.283902
0.12135
0.294022
0.438439
0.298224
0.446862
0.308091
0.46319
0.280284
-0.01158
0.27188
-0.517457
0.269527
-0.483795
0.27835
-0.538767
0.324769
0.376972
0.332799
1.02568
0.290982
0.165234
0.264916
-0.667961
0.269586
-0.209826
0.276521
0.324031
0.26772
0.16632
0.257778
-0.0831517
0.260763
-0.0461662
0.260301
0.0460692
0.257268
0.0224953
0.255826
-0.00616551
0.0130282
0.204731
-0.202087
0.175616
-0.215748
0.160316
-0.184417
0.119305
-0.144412
0.119249
-0.153841
0.199592
-0.059491
0.252762
0.15337
0.268799
0.351737
0.275035
0.467022
0.271174
0.317363
0.258593
0.0153667
0.254737
-0.230765
0.255505
-0.249384
0.22759
-0.276453
0.213442
-0.457899
0.234596
-0.376085
0.245094
-0.239636
0.27423
0.092214
0.287808
0.424861
0.291992
0.442679
0.301019
0.454163
0.26941
0.0200286
0.25647
-0.504517
0.251132
-0.478457
0.256706
-0.54434
0.316511
0.317167
0.33114
1.01105
0.286598
0.209776
0.25622
-0.637583
0.261728
-0.215334
0.272462
0.313297
0.265037
0.173745
0.254053
-0.0721678
0.257596
-0.0497096
0.258518
0.0451478
0.255345
0.0256685
0.254144
-0.00496442
0.0143803
0.206576
-0.164538
0.167648
-0.17682
0.153464
-0.170234
0.143244
-0.134192
0.125596
-0.136193
0.169973
-0.103869
0.227119
0.0962243
0.253276
0.325581
0.272409
0.447888
0.277716
0.312057
0.263912
0.0291706
0.248074
-0.214928
0.244525
-0.245834
0.216755
-0.248683
0.194389
-0.435532
0.214069
-0.395765
0.228721
-0.254289
0.260239
0.0606963
0.275732
0.409367
0.280954
0.437457
0.290123
0.444993
0.257373
0.0527783
0.239851
-0.486994
0.230073
-0.46868
0.233839
-0.548106
0.303181
0.247826
0.323262
0.990964
0.278787
0.254252
0.246732
-0.605529
0.252461
-0.221063
0.266389
0.299368
0.260793
0.179341
0.249336
-0.0607108
0.253445
-0.0538181
0.255805
0.0427877
0.252692
0.0287811
0.251901
-0.00417277
0.0146184
0.194723
-0.131409
0.162841
-0.144938
0.140333
-0.147727
0.137478
-0.131337
0.130631
-0.129346
0.15231
-0.125548
0.20665
0.0418841
0.249334
0.282897
0.276085
0.421138
0.280422
0.30772
0.259451
0.0501413
0.23511
-0.190587
0.228017
-0.238741
0.202016
-0.222682
0.175039
-0.408556
0.188937
-0.409663
0.207724
-0.273075
0.244855
0.0235647
0.264928
0.389295
0.270886
0.431499
0.279436
0.436444
0.244896
0.0873188
0.223164
-0.465263
0.208391
-0.453907
0.21043
-0.550144
0.288721
0.169534
0.315292
0.964393
0.270284
0.29926
0.237292
-0.572537
0.242651
-0.226421
0.259056
0.282963
0.255398
0.182999
0.24394
-0.0492535
0.248564
-0.0584423
0.252325
0.0390269
0.249473
0.0316329
0.249254
-0.00395369
0.0136068
0.184116
-0.105786
0.159762
-0.120584
0.139227
-0.127192
0.12713
-0.119239
0.11662
-0.118837
0.125103
-0.13403
0.16517
0.00181638
0.21246
0.235607
0.251798
0.381799
0.272158
0.28736
0.257568
0.0647314
0.226589
-0.159608
0.21435
-0.226502
0.187886
-0.196218
0.155695
-0.376365
0.162168
-0.416136
0.182594
-0.293501
0.221047
-0.0148885
0.246938
0.363405
0.256102
0.422335
0.265121
0.427424
0.233028
0.119411
0.2053
-0.437535
0.188487
-0.437093
0.187663
-0.549321
0.268231
0.0889659
0.299477
0.933148
0.259529
0.339207
0.227323
-0.540331
0.231942
-0.231039
0.249932
0.264972
0.248866
0.184066
0.238114
-0.0385013
0.243188
-0.0635165
0.248259
0.033956
0.245875
0.0340168
0.246377
-0.00445558
0.0112425
0.439415
-0.0766562
-0.468546
0.412573
-0.0937418
0.383005
-0.0976237
0.350831
-0.0870652
0.309234
-0.0772391
0.258317
-0.0831138
0.216016
0.044117
0.218325
0.233299
0.315894
0.284231
0.436747
0.166507
0.492911
0.00856641
0.484306
-0.151002
0.459213
-0.20141
0.438437
-0.175442
0.403193
-0.341121
0.377864
-0.390807
0.340531
-0.256168
0.316519
0.00912279
0.297651
0.382273
0.319809
0.400177
0.385396
0.361837
0.419225
0.085583
0.408866
-0.427176
0.374121
-0.402348
0.320366
-0.495566
0.356968
0.0523641
0.396322
0.893794
0.419072
0.316458
0.390643
-0.511902
0.358447
-0.198843
0.371115
0.252304
0.379443
0.175737
0.365968
-0.0250259
0.368054
-0.0656024
0.371308
0.0307018
0.363959
0.0413658
0.36088
-0.0013766
0.0110105
0.465447
-0.0525689
-0.489534
0.439027
-0.0673217
0.410698
-0.0692951
0.387433
-0.0637998
0.360401
-0.0502076
0.326306
-0.0490188
0.308536
0.0618876
0.35801
0.183824
0.458475
0.183766
0.530007
0.0949753
0.548537
-0.00996424
0.518166
-0.12063
0.482948
-0.166192
0.457204
-0.149699
0.425576
-0.309492
0.388051
-0.353283
0.341327
-0.209444
0.310202
0.0402486
0.289976
0.402498
0.334714
0.355439
0.424426
0.272126
0.46179
0.0482183
0.441163
-0.406549
0.382495
-0.34368
0.320597
-0.433667
0.360355
0.0126053
0.412126
0.842023
0.454073
0.27451
0.42597
-0.483798
0.38315
-0.156024
0.397092
0.238363
0.411016
0.161814
0.39741
-0.01142
0.398449
-0.0666411
0.402051
0.0270995
0.393797
0.0496197
0.390416
0.00200454
0.0100974
0.5025
-0.0357704
-0.519299
0.481478
-0.0462993
0.45893
-0.0467473
0.440445
-0.0453145
0.416164
-0.0259267
0.392025
-0.0248803
0.402608
0.0513046
0.466739
0.119693
0.53762
0.112885
0.577189
0.0554064
0.580008
-0.0127831
0.548559
-0.0891813
0.52159
-0.139223
0.505666
-0.133774
0.462182
-0.266008
0.392966
-0.284066
0.325953
-0.142431
0.292311
0.0738902
0.291572
0.403237
0.364155
0.282856
0.469404
0.166877
0.510695
0.00692672
0.480037
-0.37589
0.393352
-0.256995
0.311417
-0.351732
0.354394
-0.0303717
0.435064
0.761353
0.498094
0.21148
0.464251
-0.449955
0.410456
-0.102229
0.426179
0.22264
0.446159
0.141834
0.432177
0.00256157
0.431617
-0.0660807
0.435338
0.0233785
0.426756
0.0582016
0.423446
0.0053148
0.00849525
0.540991
-0.0226674
-0.554094
0.52491
-0.0302186
0.506875
-0.0287118
0.491751
-0.0301911
0.478392
-0.0125673
0.465606
-0.0120943
0.480532
0.0363788
0.532531
0.0676941
0.578917
0.0664984
0.59935
0.0349741
0.601876
-0.0153096
0.580196
-0.0675011
0.546369
-0.105396
0.52055
-0.107955
0.474652
-0.22011
0.393192
-0.202606
0.314194
-0.0634326
0.293363
0.0947213
0.339153
0.357447
0.428214
0.193796
0.52067
0.0744204
0.558033
-0.0304363
0.515342
-0.333199
0.407204
-0.148857
0.307567
-0.252096
0.351169
-0.0739729
0.47013
0.642391
0.549552
0.132058
0.503054
-0.403456
0.434918
-0.0340935
0.456211
0.201347
0.484484
0.113561
0.470769
0.0162761
0.468533
-0.0638441
0.472107
0.0198038
0.463893
0.0664164
0.461236
0.00797109
0.00623313
0.584945
-0.0132555
-0.594357
0.573304
-0.018578
0.560901
-0.0163084
0.550768
-0.0200578
0.542172
-0.00397183
0.537021
-0.00694328
0.549808
0.0235917
0.581472
0.0360308
0.612558
0.0354117
0.628393
0.0191397
0.627957
-0.0148738
0.615276
-0.0548201
0.59377
-0.0838901
0.566401
-0.0805866
0.513282
-0.166991
0.436487
-0.125811
0.372886
0.000168051
0.371544
0.0960639
0.450247
0.278743
0.529405
0.114638
0.587088
0.0167377
0.606253
-0.0496011
0.558242
-0.285189
0.457895
-0.0485103
0.34658
-0.140781
0.367082
-0.0944747
0.51605
0.493423
0.604272
0.0438359
0.538368
-0.337552
0.457002
0.0472727
0.491228
0.16712
0.529374
0.0754149
0.514175
0.0314755
0.509761
-0.0594298
0.513331
0.0162334
0.506573
0.0731746
0.505412
0.00913225
0.00334254
0.634499
-0.00655292
-0.641202
0.626707
-0.0107856
0.618417
-0.00801859
0.610851
-0.0124916
0.607146
-0.000266611
0.605014
-0.00481199
0.614401
0.0142053
0.634053
0.0163791
0.651889
0.0175749
0.664044
0.00698469
0.665246
-0.0160753
0.6489
-0.0384746
0.626863
-0.0618526
0.608458
-0.0621823
0.564359
-0.122892
0.509364
-0.0708161
0.476996
0.0325361
0.500474
0.0725851
0.58594
0.193277
0.635119
0.0654593
0.65297
-0.00111394
0.648565
-0.0451956
0.594539
-0.231163
0.530329
0.0157003
0.443099
-0.0535512
0.425287
-0.0766624
0.571002
0.347708
0.654083
-0.039245
0.567745
-0.251215
0.48697
0.128048
0.541957
0.112134
0.583438
0.0339339
0.563155
0.0517588
0.557521
-0.0537958
0.561519
0.0122354
0.557099
0.0775942
0.558087
0.00814427
4.34505e-05
0.689874
-0.00216196
-0.694265
0.684675
-0.00558648
0.679621
-0.00296427
0.674611
-0.00748186
0.673248
0.00109622
0.672156
-0.00371935
0.67859
0.00777093
0.689267
0.00570172
0.699919
0.00692359
0.707383
-0.000479907
0.706125
-0.0148165
0.696962
-0.0293117
0.682521
-0.0474117
0.662447
-0.0421084
0.619894
-0.0803387
0.589096
-0.0400177
0.58942
0.0322119
0.616583
0.0454217
0.684113
0.125747
0.714193
0.0353794
0.715371
-0.00229139
0.700465
-0.0302901
0.63971
-0.170408
0.612587
0.0428233
0.57929
-0.0202543
0.547103
-0.0444753
0.650571
0.244239
0.704896
-0.0935701
0.612208
-0.158526
0.551265
0.188991
0.617106
0.0462929
0.647727
0.0033122
0.623561
0.0759248
0.619007
-0.0492409
0.621969
0.00927314
0.619741
0.0798219
0.622142
0.00574353
-0.00245396
0.75072
0.000486576
-0.753368
0.747439
-0.00230553
0.744674
-0.00019973
0.741325
-0.00413302
0.74098
0.00144105
0.740351
-0.00308987
0.744275
0.00384688
0.749831
0.000146007
0.755535
0.00121946
0.759293
-0.00423769
0.757908
-0.0134323
0.749134
-0.0205375
0.735481
-0.0337581
0.722757
-0.0293849
0.693102
-0.0506837
0.676001
-0.0229168
0.685532
0.0226812
0.706491
0.0244625
0.752689
0.0795494
0.766175
0.0218936
0.764435
-0.000551634
0.750981
-0.0168363
0.702507
-0.121934
0.697421
0.0479092
0.690842
-0.0136753
0.671225
-0.0248587
0.735056
0.180408
0.751026
-0.10954
0.672818
-0.0803183
0.649988
0.211821
0.7063
-0.0100192
0.716362
-0.00674964
0.696636
0.0956511
0.694659
-0.0472637
0.694552
0.00937998
0.695333
0.079041
0.697779
0.00329747
-0.00264823
0.817207
0.00196388
-0.818685
0.815336
-0.00043441
0.81386
0.00127638
0.811815
-0.00208806
0.811802
0.00145448
0.811158
-0.00244551
0.8134
0.00160461
0.815656
-0.00210978
0.818384
-0.00150877
0.819426
-0.00527997
0.817188
-0.0111937
0.811143
-0.0144934
0.801665
-0.0242796
0.791653
-0.0193726
0.771241
-0.0302717
0.76265
-0.0143259
0.770785
0.0145463
0.783014
0.0122337
0.81396
0.0486026
0.823365
0.012489
0.825036
-0.00222309
0.810932
-0.00273149
0.772988
-0.08399
0.779805
0.0410923
0.77647
-0.0103409
0.771408
-0.0197959
0.815403
0.136413
0.801565
-0.095702
0.750249
-0.0290023
0.766273
0.195796
0.797666
-0.0414115
0.789955
0.000960626
0.783475
0.102131
0.781007
-0.0447954
0.777694
0.0126928
0.782955
0.0737803
0.783812
0.0024397
0.000104216
0.889845
0.00266223
-0.890543
0.888756
0.00065396
0.888052
0.0019802
0.8868
-0.000835405
0.886802
0.00145224
0.886177
-0.00182095
0.887178
0.000603659
0.887683
-0.00261471
0.888551
-0.00237688
0.888191
-0.00491905
0.885926
-0.00892946
0.881336
-0.00990365
0.873587
-0.0165302
0.86679
-0.0125758
0.854452
-0.0179333
0.849268
-0.00914219
0.855407
0.00840788
0.86197
0.00567
0.882534
0.0280385
0.886411
0.00861266
0.887955
-0.00376734
0.880992
0.00423134
0.852716
-0.0557134
0.864438
0.0293704
0.85761
-0.00351355
0.853927
-0.0161127
0.890042
0.100298
0.865235
-0.0708948
0.839829
-0.00359688
0.877315
0.158311
0.879673
-0.0437701
0.867584
0.0130496
0.877886
0.0918303
0.869478
-0.0363882
0.865561
0.0166099
0.876268
0.0630738
0.874346
0.00436123
0.0051659
0.968929
0.00290157
-0.969168
0.96836
0.00122277
0.968054
0.00228612
0.967274
-5.57754e-05
0.967213
0.00151382
0.966577
-0.00118475
0.966842
0.000338385
0.966502
-0.00227503
0.966307
-0.00218221
0.965319
-0.00393061
0.962917
-0.00652787
0.959536
-0.00652272
0.954123
-0.0111168
0.949437
-0.00788927
0.942237
-0.0107341
0.938735
-0.00563943
0.943084
0.00405886
0.945747
0.00300625
0.959071
0.0147146
0.961599
0.00608544
0.962091
-0.00426022
0.959548
0.00677479
0.93745
-0.0336153
0.948061
0.0187595
0.942294
0.00225343
0.938452
-0.0122712
0.969446
0.0693048
0.941013
-0.0424616
0.930602
0.00681341
0.973716
0.115197
0.958896
-0.0289507
0.952174
0.0197724
0.97177
0.0722336
0.956548
-0.0211654
0.955159
0.0179988
0.969399
0.0488335
0.964902
0.00885793
0.0110261
1.05518
0.00287672
-1.05516
1.05489
0.00151657
1.05479
0.00238206
1.05427
0.000468851
1.05415
0.00163479
1.05356
-0.000598142
1.05339
0.000512162
1.05275
-0.0016396
1.05201
-0.00144279
1.05089
-0.0028035
1.04875
-0.00439095
1.04637
-0.00414614
1.04248
-0.00722125
1.03918
-0.00459384
1.03523
-0.00678644
1.03248
-0.00288148
1.03554
0.000996739
1.03648
0.00206241
1.04421
0.00698265
1.04593
0.00437226
1.04434
-0.00266845
1.04561
0.00549716
1.02959
-0.0175929
1.03741
0.0109409
1.03468
0.00498289
1.02814
-0.00573136
1.05271
0.0447331
1.02972
-0.0194671
1.02646
0.0100749
1.06352
0.0781312
1.04456
-0.00998749
1.04414
0.0201921
1.0637
0.0526773
1.04683
-0.00430413
1.04867
0.0161616
1.06233
0.0351767
1.05666
0.0145269
0.016155
1.14926
0.00273468
-1.14912
1.14913
0.00164967
1.14914
0.0023666
1.14879
0.000819607
1.14866
0.00176679
1.14815
-8.38415e-05
1.1478
0.000859004
1.14713
-0.000968169
1.14626
-0.000573348
1.14524
-0.00178427
1.14346
-0.0026088
1.1417
-0.00238597
1.13905
-0.00457426
1.1367
-0.00224721
1.13457
-0.00465296
1.13248
-0.000795433
1.13432
-0.000840845
1.13441
0.00197824
1.13849
0.00290114
1.13992
0.00293854
1.13782
-0.000562994
1.14004
0.00327033
1.1291
-0.0066463
1.13387
0.00617111
1.13304
0.00580507
1.12712
0.000196638
1.14536
0.0264937
1.12875
-0.00286084
1.12808
0.0107407
1.15608
0.0501322
1.14049
0.00560587
1.14343
0.0172525
1.15828
0.0378305
1.14439
0.00958188
1.1482
0.0123484
1.15878
0.0245978
1.1536
0.0197038
0.0197228
1.25201
0.00252188
-1.2518
1.25198
0.00168222
1.25206
0.0022844
1.25183
0.00105055
1.25173
0.00186337
1.25132
0.000322455
1.25096
0.00122042
1.25038
-0.000389297
1.24959
0.000217629
1.24875
-0.000946317
1.24736
-0.00121571
1.24611
-0.0011341
1.2443
-0.00276274
1.24266
-0.000608935
1.24139
-0.00338234
1.23986
0.000736419
1.24081
-0.00179499
1.24052
0.00227115
1.24247
0.000945693
1.24336
0.00205588
1.24135
0.00143933
1.2435
0.00112399
1.2365
0.000356907
1.23962
0.00304429
1.2395
0.0059245
1.23496
0.00474158
1.24722
0.0142362
1.23684
0.00751398
1.23795
0.00962868
1.25691
0.0311809
1.24621
0.0163011
1.25066
0.0128015
1.26068
0.0278161
1.25107
0.0191879
1.25552
0.00789389
1.26279
0.017337
1.25889
0.0235949
0.0216409
1.36433
0.00228609
-1.3641
1.36437
0.00164996
1.36449
0.00215583
1.36436
0.00118269
1.36433
0.0018966
1.36403
0.00061965
1.36376
0.00149213
1.36331
6.06184e-05
1.3627
0.000825602
1.36208
-0.000322471
1.36106
-0.000192989
1.3602
-0.000278357
1.35893
-0.00148818
1.35787
0.000448147
1.35694
-0.00245513
1.35593
0.00174585
1.3562
-0.00206328
1.35578
0.00269019
1.35662
0.00010806
1.35698
0.0016908
1.35566
0.0027597
1.35716
-0.000367971
1.35296
0.00455382
1.35504
0.000966829
1.35495
0.00600874
1.35246
0.0072333
1.36035
0.00634227
1.35436
0.013508
1.35597
0.00802001
1.36804
0.0191109
1.36218
0.0221611
1.36686
0.0081173
1.37326
0.0214203
1.36757
0.0248795
1.37165
0.00381398
1.37632
0.0126646
1.37403
0.0258876
0.022155
1.48717
0.00203205
-1.48691
1.48726
0.00156011
1.48744
0.00197858
1.48739
0.00122391
1.48744
0.00184583
1.48727
0.000797595
1.48713
0.00162586
1.48683
0.000364466
1.48643
0.00122285
1.48601
9.57849e-05
1.48531
0.000512376
1.48478
0.000249288
1.48384
-0.000547057
1.48324
0.00105107
1.48243
-0.0016445
1.48183
0.00234172
1.48165
-0.00188159
1.48127
0.00307301
1.48154
-0.000166085
1.48154
0.00169543
1.48088
0.00341766
1.48166
-0.00115287
1.47958
0.00663411
1.48095
-0.000399117
1.48099
0.00596802
1.48006
0.00816391
1.48451
0.00189296
1.48175
0.0162684
1.48362
0.00614809
1.4907
0.0120335
1.48857
0.0242829
1.49292
0.00377134
1.49707
0.0172737
1.49453
0.027414
1.49782
0.000521902
1.5007
0.0097886
1.4999
0.0266851
0.021524
1.62157
0.0017595
-1.6213
1.62171
0.00142127
1.62194
0.00174864
1.62198
0.00118679
1.62213
0.00169252
1.62205
0.000874233
1.62208
0.00159453
1.6219
0.000548699
1.62174
0.00138319
1.62148
0.000357187
1.62106
0.000934452
1.62077
0.000541046
1.62008
0.000140783
1.61981
0.00131913
1.61902
-0.000854251
1.61881
0.00255301
1.61827
-0.00134634
1.61811
0.00323951
1.61802
-7.89197e-05
1.61787
0.00184653
1.61782
0.00346696
1.61796
-0.00129668
1.61755
0.00704345
1.61825
-0.00109639
1.61856
0.00565952
1.61878
0.00793937
1.62084
-0.000164526
1.62031
0.0168036
1.62178
0.00467254
1.62584
0.00797577
1.62674
0.0233823
1.62998
0.000533954
1.63288
0.0143699
1.63317
0.0271281
1.63506
-0.00137112
1.63672
0.0081248
1.63762
0.0257862
0.0199713
1.7686
0.00146462
-1.76831
1.76879
0.00122696
1.76909
0.00145664
1.76921
0.00106547
1.76948
0.00142224
1.7695
0.000848516
1.76972
0.00137659
1.76965
0.000624578
1.76974
0.00128497
1.76959
0.000508461
1.76946
0.00106838
1.76931
0.000693063
1.76884
0.000610669
1.76879
0.00136834
1.76798
-4.36485e-05
1.76809
0.00244356
1.76722
-0.000478862
1.76736
0.00309704
1.76698
0.00030398
1.76687
0.00195971
1.76734
0.00299543
1.76698
-0.00093971
1.768
0.00602405
1.7681
-0.00119222
1.76883
0.00492857
1.76983
0.0069396
1.76997
-0.000309257
1.77112
0.0156498
1.77197
0.00382864
1.77414
0.00580439
1.7775
0.020022
1.77941
-0.00137833
1.78174
0.0120412
1.78443
0.0244363
1.78466
-0.00160163
1.78549
0.00729414
1.78819
0.0230877
0.0175755
1.92968
0.00117222
-1.92939
1.92991
0.000995474
1.93022
0.00115148
1.93039
0.000894946
1.93071
0.00110383
1.93078
0.000775138
1.93111
0.00104858
1.93106
0.0006738
1.93135
0.000988794
1.9312
0.000661002
1.93135
0.000918127
1.93121
0.00083993
1.93101
0.000802748
1.93108
0.00129662
1.93039
0.000648231
1.93087
0.00197033
1.92982
0.000572143
1.93053
0.00238101
1.92988
0.000952123
1.93011
0.00173176
1.93091
0.00219783
1.93001
-3.86682e-05
1.93222
0.00380937
1.93126
-0.000229009
1.93248
0.00370596
1.93415
0.00527426
1.93241
0.00142809
1.93619
0.0118714
1.93591
0.00410636
1.93661
0.00510631
1.94303
0.0135962
1.94173
-7.27241e-05
1.94417
0.00960347
1.95053
0.01807
1.94722
0.00171557
1.94703
0.00747533
1.95299
0.0171368
0.0140024
2.10625
0.000915817
-2.106
2.10646
0.000789214
2.1067
0.000913011
2.10685
0.000744002
2.10707
0.000885664
2.10714
0.000698181
2.10735
0.000843925
2.10735
0.000676672
2.10754
0.000796163
2.10749
0.000713884
2.10764
0.000761545
2.10764
0.000846097
2.10768
0.000755775
2.10789
0.00108801
2.10774
0.000794922
2.10832
0.0013955
2.10801
0.000886291
2.10881
0.0015794
2.10868
0.00108378
2.10905
0.00136207
2.10972
0.00152716
2.10895
0.000728642
2.1105
0.00225763
2.10947
0.00079649
2.11036
0.00281989
2.11215
0.00348059
2.11087
0.00271278
2.11563
0.00711365
2.11587
0.00386246
2.11609
0.00488909
2.12205
0.00763393
2.11945
0.00252332
2.12179
0.00726365
2.12912
0.010746
2.12602
0.00481183
2.12618
0.00732132
2.13258
0.0107324
0.0101033
2.29917
0.000646037
-2.2989
2.29938
0.00057558
2.29963
0.00066526
2.29981
0.000563182
2.30003
0.000672459
2.30018
0.000547093
2.30035
0.000670377
2.30049
0.000539368
2.30063
0.000657496
2.30078
0.000559441
2.30091
0.000634984
2.30112
0.000630272
2.30128
0.000601034
2.3016
0.000766095
2.30183
0.000566004
2.30227
0.000951702
2.3026
0.000561971
2.30308
0.00109511
2.30349
0.000680477
2.3038
0.0010485
2.30428
0.00104998
2.30421
0.000792421
2.30479
0.00168167
2.30474
0.000841226
2.30535
0.00221508
2.30671
0.0021198
2.30721
0.0022163
2.31027
0.00405121
2.31156
0.00256845
2.31263
0.00382133
2.31574
0.00451867
2.31546
0.0028114
2.31761
0.00511379
2.32222
0.00612877
2.32283
0.00420794
2.32454
0.00561287
2.32852
0.00674431
0.0068045
2.51013
0.000335419
-2.50981
2.5104
0.000305471
2.51071
0.000348824
2.51097
0.000305618
2.51129
0.000356532
2.51153
0.000304678
2.51184
0.00035941
2.51207
0.000307362
2.51237
0.000356658
2.51261
0.000320765
2.5129
0.000349299
2.51317
0.000352235
2.51344
0.000337594
2.5138
0.000405974
2.51404
0.000327845
2.51451
0.000478027
2.51474
0.000330995
2.51529
0.000543119
2.51559
0.000382714
2.51608
0.000561589
2.51659
0.000536324
2.51686
0.000520661
2.51771
0.00083084
2.51799
0.000566322
2.51903
0.00117192
2.52013
0.0010178
2.52102
0.00133252
2.52325
0.00182123
2.5244
0.00141858
2.52613
0.00208624
2.52865
0.00200184
2.52963
0.0018331
2.53211
0.00262864
2.53547
0.00276631
2.53709
0.00259208
2.53963
0.00307298
2.54316
0.00321457
0.00347673
2.74138
-2.74104
2.74168
2.74203
2.74234
2.74269
2.743
2.74336
2.74366
2.74402
2.74434
2.74469
2.74504
2.74538
2.74579
2.74611
2.74659
2.74692
2.74747
2.74785
2.74841
2.74895
2.74947
2.7503
2.75087
2.75204
2.75306
2.75439
2.75621
2.75763
2.75971
2.76172
2.76355
2.76618
2.76894
2.77154
2.77461
2.77782
0.438114
0.0299877
-0.432555
0.445281
0.0555367
0.449612
0.085552
0.4564
0.108162
0.459546
0.138646
0.465161
0.156651
0.46661
0.185818
0.197424
0.465904
0.025628
-0.461544
0.47107
0.0503706
0.474897
0.0817249
0.478887
0.104171
0.481903
0.135631
0.484815
0.153738
0.488061
0.182572
0.195951
0.498421
0.0222544
-0.495048
0.501382
0.04741
0.504494
0.0786135
0.507268
0.101397
0.510986
0.131913
0.513589
0.151135
0.517602
0.178559
0.194254
0.534499
0.0194879
-0.531733
0.536503
0.0454062
0.539752
0.0753649
0.542199
0.0989494
0.546069
0.128042
0.548288
0.148916
0.551983
0.174865
0.192142
0.57528
0.0173506
-0.573143
0.576917
0.0437686
0.579887
0.0723956
0.58187
0.0969663
0.585293
0.12462
0.587647
0.146562
0.59143
0.171083
0.189215
0.621
0.0157196
-0.619369
0.622393
0.042376
0.62494
0.0698479
0.627005
0.0949015
0.630434
0.121191
0.633424
0.143572
0.637577
0.16693
0.18559
0.671876
0.0145096
-0.670666
0.67328
0.0409715
0.675705
0.0674231
0.678222
0.0923846
0.681817
0.117596
0.685461
0.139927
0.689982
0.162409
0.181307
0.728527
0.0135445
-0.727562
0.730086
0.039412
0.732521
0.0649879
0.735461
0.0894454
0.73928
0.113778
0.743431
0.135776
0.748309
0.15753
0.176248
0.791264
0.0127085
-0.790428
0.792941
0.0377349
0.795435
0.0624944
0.798639
0.0862409
0.802669
0.109748
0.80731
0.131135
0.812843
0.151997
0.170407
0.860365
0.0119303
-0.859587
0.862121
0.0359791
0.864766
0.0598494
0.868286
0.0827216
0.872753
0.105281
0.877994
0.125893
0.884052
0.145938
0.163916
0.936298
0.0111454
-0.935514
0.938161
0.0341161
0.941037
0.0569739
0.944883
0.0788759
0.949744
0.10042
0.955408
0.120229
0.961964
0.139382
0.156712
1.01951
0.0103525
-1.01872
1.02146
0.032166
1.02454
0.0538931
1.02868
0.0747328
1.03393
0.0951685
1.0401