/*--------------------------------*- C++ -*----------------------------------*\
| =========                 |                                                 |
| \\      /  F ield         | OpenFOAM: The Open Source CFD Toolbox           |
|  \\    /   O peration     | Version:  2512                                  |
|   \\  /    A nd           | Website:  www.openfoam.com                      |
|    \\/     M anipulation  |                                                 |
\*---------------------------------------------------------------------------*/
FoamFile
{
    version     2.0;
    format      ascii;
    arch        "LSB;label=32;scalar=64";
    class       volVectorField;
    location    "5.5";
    object      U;
}
// * * * * * * * * * * * * * * * * * * * * * * * * * * * * * * * * * * * * * //

dimensions      [0 1 -1 0 0 0 0];

internalField   nonuniform List<vector> 
9200
(
(-0.0258936 0.0171435 8.8964e-20)
(-0.0408462 0.0284817 -1.61275e-19)
(-0.0130213 0.0278785 7.30004e-20)
(0.0679506 0.0184231 1.30233e-19)
(0.209016 0.000817885 -1.18642e-19)
(0.406412 -0.0215106 0)
(0.63901 -0.0451528 0)
(0.874009 -0.0679319 1.77171e-19)
(1.07897 -0.0892111 -1.48069e-21)
(1.2314 -0.109323 -1.46876e-19)
(1.32345 -0.128688 -6.30202e-20)
(1.36218 -0.14714 1.11151e-19)
(1.36469 -0.163979 -6.10461e-21)
(1.34898 -0.178477 -8.79673e-20)
(1.32636 -0.190271 0)
(1.30108 -0.199251 1.44888e-19)
(1.27414 -0.20368 -2.02212e-19)
(1.24538 -0.210922 5.0092e-20)
(1.21971 -0.203122 3.91306e-20)
(1.18665 -0.220791 2.72365e-20)
(-0.0297848 0.0195259 2.42117e-21)
(-0.027188 0.0236271 8.27177e-20)
(0.039097 0.0122324 1.48652e-19)
(0.177413 -0.00681503 0)
(0.385425 -0.0276717 0)
(0.636613 -0.0460139 0)
(0.887292 -0.0603204 0)
(1.09792 -0.0716895 -1.29613e-19)
(1.24662 -0.0822693 1.58211e-19)
(1.33154 -0.0936992 6.81244e-20)
(1.36595 -0.106318 -6.16631e-20)
(1.36914 -0.119392 5.16069e-20)
(1.35694 -0.131847 -4.45118e-20)
(1.33778 -0.142912 -3.77313e-20)
(1.31503 -0.152149 2.30775e-19)
(1.29048 -0.15928 -1.47449e-19)
(1.2653 -0.164898 -2.31152e-20)
(1.24151 -0.168258 -4.03433e-21)
(1.21784 -0.167821 -3.58883e-20)
(1.19533 -0.174823 -2.71754e-20)
(-0.0280174 0.0176812 -9.08966e-20)
(0.00329493 0.0139209 -8.57493e-20)
(0.123215 -0.00378392 7.58911e-20)
(0.331073 -0.0245232 -1.37348e-19)
(0.599355 -0.0402272 0)
(0.871435 -0.0489046 0)
(1.09582 -0.05322 0)
(1.24854 -0.0569364 -4.33571e-20)
(1.33251 -0.062519 0)
(1.36618 -0.0704752 6.78239e-20)
(1.3705 -0.0800071 -5.64552e-20)
(1.36031 -0.0899995 -1.97367e-19)
(1.34322 -0.0996484 1.75406e-19)
(1.32293 -0.108549 3.3091e-20)
(1.30161 -0.116367 -6.72344e-20)
(1.28016 -0.123269 -1.28231e-19)
(1.25923 -0.127819 3.10494e-20)
(1.23785 -0.132762 1.89864e-19)
(1.21785 -0.132736 -9.71874e-20)
(1.19674 -0.140689 0)
(-0.0193581 0.0121367 9.52566e-20)
(0.0542085 -0.000932486 1.74223e-19)
(0.24123 -0.0201176 1.56783e-19)
(0.518642 -0.0335048 -2.08795e-19)
(0.818939 -0.0368507 3.20794e-21)
(1.07045 -0.0345652 2.20179e-19)
(1.24019 -0.0323057 -9.87838e-20)
(1.33264 -0.0331801 4.19198e-20)
(1.37032 -0.0375604 0)
(1.37653 -0.0444082 -3.13215e-20)
(1.36716 -0.0525353 1.63379e-19)
(1.35079 -0.0611141 -1.87618e-19)
(1.33171 -0.0696404 -7.60447e-20)
(1.31193 -0.0777033 7.22857e-20)
(1.292 -0.0851318 -8.77339e-20)
(1.27213 -0.0912831 7.84584e-20)
(1.25198 -0.0967124 0)
(1.23265 -0.1009 0)
(1.21409 -0.102742 1.60801e-20)
(1.19587 -0.11082 0)
(-0.00271845 0.00471726 9.82512e-20)
(0.128859 -0.0165453 -1.3589e-19)
(0.391678 -0.0295864 -1.60539e-19)
(0.719557 -0.0276159 0)
(1.01251 -0.0173953 -6.38873e-20)
(1.21522 -0.00806708 -5.26981e-20)
(1.32715 -0.00383183 1.44514e-19)
(1.37385 -0.00480914 -1.27447e-19)
(1.38281 -0.00943679 6.94168e-20)
(1.37348 -0.016148 -3.22231e-20)
(1.35683 -0.0238817 0)
(1.33798 -0.0319618 6.84669e-20)
(1.31874 -0.039928 3.97156e-20)
(1.29956 -0.0475706 6.37492e-20)
(1.28069 -0.0546082 -5.85399e-20)
(1.26209 -0.0611125 -4.59833e-20)
(1.24402 -0.0666324 4.22703e-20)
(1.22627 -0.0712901 -1.66728e-20)
(1.20926 -0.0755561 1.47727e-20)
(1.19307 -0.0819343 4.6207e-20)
(0.0233374 -0.00288451 2.05843e-19)
(0.228393 -0.0271688 -8.42625e-22)
(0.563227 -0.0248161 0)
(0.907797 -0.00519138 1.09641e-19)
(1.16314 0.0141548 -3.43168e-20)
(1.31018 0.0255181 -5.54905e-20)
(1.37466 0.0287659 2.90161e-21)
(1.39028 0.0263083 4.4052e-20)
(1.38245 0.0205828 3.42615e-20)
(1.36574 0.0132295 -2.91589e-20)
(1.34662 0.00518297 -4.89752e-20)
(1.3272 -0.00303936 -6.07347e-20)
(1.30797 -0.0111864 9.45596e-20)
(1.28921 -0.0190601 7.5768e-20)
(1.27102 -0.0265793 -8.09696e-20)
(1.25336 -0.0334197 4.72027e-20)
(1.2359 -0.0395197 0)
(1.21891 -0.0449555 1.28244e-21)
(1.20279 -0.0497817 -3.72102e-20)
(1.18767 -0.0555728 4.83625e-20)
(0.0599369 -0.00886908 -5.5368e-20)
(0.349499 -0.0270015 2.03351e-21)
(0.73667 -0.0026765 -4.403e-20)
(1.06571 0.031083 -1.1101e-19)
(1.27053 0.053929 9.94579e-20)
(1.36737 0.063764 5.3527e-20)
(1.39668 0.0642989 -9.6207e-20)
(1.39269 0.05954 -3.65504e-20)
(1.37581 0.0522507 6.91931e-20)
(1.35533 0.0438687 8.44237e-20)
(1.3346 0.0350616 -1.21253e-19)
(1.31451 0.0261889 4.29757e-20)
(1.29523 0.0174881 -5.17594e-20)
(1.27679 0.00906721 1.57099e-20)
(1.25925 0.00106755 -2.59667e-20)
(1.24241 -0.00644356 4.11418e-20)
(1.22612 -0.0132616 -3.01656e-21)
(1.21026 -0.0193647 -4.77845e-20)
(1.19506 -0.0254057 1.33219e-20)
(1.1808 -0.0307232 0)
(0.10702 -0.0110678 5.54082e-20)
(0.483092 -0.011519 -1.26083e-19)
(0.894311 0.0357692 8.96504e-20)
(1.18763 0.0777852 1.79048e-20)
(1.3413 0.099485 -9.69119e-20)
(1.39753 0.105318 5.74115e-20)
(1.40264 0.102079 0)
(1.38692 0.0945752 0)
(1.3651 0.0853391 -3.32307e-20)
(1.3428 0.0754323 0)
(1.32159 0.0653373 6.84838e-20)
(1.30159 0.0553576 -7.87348e-20)
(1.28261 0.0456437 6.65626e-20)
(1.2646 0.036285 -2.92991e-20)
(1.24758 0.0273282 0)
(1.23144 0.0189227 0)
(1.21585 0.0112276 0)
(1.20069 0.00415486 -2.75163e-20)
(1.18619 -0.00211939 3.11287e-20)
(1.17257 -0.00708474 0)
(0.162952 -0.00719552 2.90528e-20)
(0.61644 0.0210862 -8.68159e-22)
(1.02598 0.0877565 0)
(1.27468 0.132114 -8.27976e-21)
(1.38262 0.149183 1.79526e-20)
(1.40822 0.149489 2.58891e-20)
(1.39745 0.141929 -2.36378e-20)
(1.37495 0.131318 -8.81007e-21)
(1.35062 0.119728 8.81185e-21)
(1.32743 0.107899 0)
(1.30589 0.0961516 2.11133e-20)
(1.28583 0.0847153 -2.3804e-20)
(1.26702 0.0737223 -1.49375e-20)
(1.24938 0.0632219 1.68483e-20)
(1.23294 0.0532541 5.32294e-21)
(1.21762 0.0438433 -9.74324e-21)
(1.20317 0.0350534 0)
(1.1893 0.0270342 0)
(1.17589 0.0200125 -1.65086e-20)
(1.16305 0.0145971 9.84062e-21)
(0.224498 0.00461737 0)
(0.737673 0.0696092 0)
(1.12764 0.150164 0)
(1.33033 0.191855 -4.77308e-22)
(1.40025 0.201841 1.04773e-22)
(1.40393 0.195695 6.86625e-22)
(1.38328 0.183396 5.71407e-21)
(1.35715 0.16928 -9.16521e-21)
(1.33168 0.154905 1.47057e-20)
(1.30824 0.140715 -6.47915e-21)
(1.28693 0.126898 0)
(1.26741 0.113646 4.45988e-21)
(1.2493 0.101044 0)
(1.23238 0.0891114 -3.14539e-21)
(1.21668 0.0778628 5.29149e-21)
(1.20216 0.0672567 0)
(1.18868 0.0572909 0)
(1.17597 0.0480957 0)
(1.16378 0.0402987 0)
(1.1521 0.0341463 -2.03571e-21)
(-0.0273165 0.110509 -3.81225e-21)
(-0.102099 0.168877 0)
(-0.203453 0.168047 0)
(-0.296262 0.149976 -1.4454e-20)
(-0.379302 0.125962 2.80426e-20)
(-0.453646 0.0975123 5.55904e-22)
(-0.517914 0.0649628 -6.45915e-21)
(-0.570819 0.0289073 -1.36667e-20)
(-0.610051 -0.00975619 3.66819e-22)
(-0.63395 -0.0498774 1.16646e-20)
(-0.642833 -0.0904021 0)
(-0.635222 -0.129583 1.01018e-20)
(-0.610229 -0.166609 0)
(-0.566927 -0.199898 -7.26515e-21)
(-0.5052 -0.227612 1.15067e-20)
(-0.426094 -0.247705 0)
(-0.331859 -0.258564 0)
(-0.225346 -0.259662 0)
(-0.115123 -0.249673 0)
(0.00652119 -0.238418 -2.63419e-22)
(-0.0306535 0.164426 -1.74085e-20)
(-0.0920399 0.267517 3.33066e-20)
(-0.171144 0.276712 0)
(-0.242837 0.255695 5.45638e-20)
(-0.304962 0.22473 -4.30245e-20)
(-0.357722 0.187128 -3.06772e-20)
(-0.399698 0.143293 -2.02725e-21)
(-0.429939 0.0939332 7.01256e-20)
(-0.447546 0.0400291 -3.964e-20)
(-0.451803 -0.0178342 0)
(-0.442193 -0.0788322 0)
(-0.417962 -0.141615 -1.00801e-20)
(-0.379583 -0.205051 3.50788e-20)
(-0.326231 -0.267174 -2.49373e-20)
(-0.257631 -0.32473 -3.38225e-20)
(-0.174573 -0.37287 2.05207e-20)
(-0.0811048 -0.40676 0)
(0.0221901 -0.423691 0)
(0.119809 -0.421244 6.20072e-22)
(0.231643 -0.413596 -5.55064e-21)
(-0.0346711 0.188753 4.00282e-20)
(-0.0804611 0.331552 -1.7846e-20)
(-0.130109 0.358743 1.73524e-21)
(-0.172827 0.340676 -4.98849e-20)
(-0.206385 0.306064 9.79515e-20)
(-0.229846 0.261983 -6.10092e-20)
(-0.241794 0.209771 0)
(-0.241703 0.150426 0)
(-0.22937 0.0849913 -5.86188e-20)
(-0.205363 0.0148933 0)
(-0.171325 -0.05908 -4.91917e-20)
(-0.12715 -0.13624 1.81479e-19)
(-0.0722803 -0.21629 -1.59614e-19)
(-0.00691757 -0.298296 7.11412e-20)
(0.0690689 -0.378291 0)
(0.156137 -0.448135 0)
(0.247775 -0.501611 0)
(0.341491 -0.530735 3.55904e-20)
(0.418772 -0.535623 -2.73364e-20)
(0.510031 -0.523714 0)
(-0.0365433 0.180451 -3.99965e-20)
(-0.0685154 0.351215 -2.08188e-21)
(-0.0873714 0.404274 -3.5124e-20)
(-0.0980983 0.397334 3.65489e-20)
(-0.10026 0.363707 -3.14308e-20)
(-0.0925007 0.316197 0)
(-0.0730921 0.258847 -6.35855e-20)
(-0.0421545 0.193322 6.13297e-20)
(-0.000535171 0.12123 -1.48156e-23)
(0.0499322 0.0440376 -5.71553e-20)
(0.107294 -0.0359953 1.5477e-19)
(0.171323 -0.118357 -9.44064e-20)
(0.242574 -0.204781 3.95924e-20)
(0.322294 -0.295788 -1.10149e-19)
(0.409631 -0.387963 -5.98207e-20)
(0.500557 -0.469717 -8.6294e-20)
(0.585769 -0.534684 1.61175e-20)
(0.662737 -0.568372 3.19907e-20)
(0.714354 -0.577782 1.78906e-20)
(0.770842 -0.55738 0)
(-0.0340765 0.146083 -1.74716e-19)
(-0.0569065 0.323846 1.60502e-19)
(-0.0505569 0.404461 0)
(-0.0321759 0.417331 -3.72881e-20)
(-0.00475459 0.391927 9.8617e-20)
(0.0321323 0.345625 -6.38641e-20)
(0.0792556 0.286386 2.54372e-19)
(0.135967 0.217712 -3.03347e-19)
(0.199947 0.141949 1.71724e-19)
(0.269755 0.0622377 -5.5084e-20)
(0.343549 -0.0188928 1.0061e-19)
(0.421268 -0.102664 4.46801e-20)
(0.506538 -0.191645 -1.25097e-19)
(0.601456 -0.286102 -1.00852e-19)
(0.701347 -0.382168 2.97618e-19)
(0.796413 -0.465536 -1.03247e-19)
(0.872341 -0.529301 0)
(0.925594 -0.556865 1.01e-19)
(0.946951 -0.562572 4.24626e-21)
(0.963465 -0.532557 -6.07404e-20)
(-0.0276065 0.0999061 -8.85653e-20)
(-0.046431 0.258389 -3.97113e-20)
(-0.0260993 0.355551 -7.3856e-20)
(0.0123954 0.390051 0)
(0.0626737 0.379819 -6.64953e-20)
(0.122615 0.341369 1.91642e-19)
(0.190861 0.28512 -3.0019e-19)
(0.265384 0.217114 5.68502e-20)
(0.343961 0.142233 -1.09749e-19)
(0.426171 0.0644368 1.49288e-19)
(0.512603 -0.0163239 0)
(0.607468 -0.101717 1.27822e-19)
(0.71514 -0.193252 7.4583e-20)
(0.832281 -0.288426 -1.29907e-19)
(0.944587 -0.379764 1.19273e-19)
(1.03498 -0.452282 8.56271e-20)
(1.08877 -0.5013 -7.87075e-20)
(1.10898 -0.514487 -2.70626e-20)
(1.09602 -0.512448 1.98643e-20)
(1.07774 -0.476627 -5.05427e-20)
(-0.0196135 0.0575249 -8.90661e-20)
(-0.0376902 0.177652 1.61893e-19)
(-0.0159827 0.270765 2.86963e-22)
(0.0292848 0.316486 2.02582e-19)
(0.090526 0.319916 2.86015e-21)
(0.163193 0.292463 -2.34238e-19)
(0.243716 0.244219 -3.97771e-21)
(0.329831 0.183099 1.57594e-19)
(0.421839 0.114787 0)
(0.522654 0.0409195 -4.88605e-20)
(0.636996 -0.038817 -9.06012e-20)
(0.767597 -0.124285 3.11304e-19)
(0.908664 -0.212497 -1.48284e-19)
(1.04306 -0.297473 -1.28283e-19)
(1.14884 -0.369727 4.93643e-20)
(1.21114 -0.419741 -5.04321e-20)
(1.22661 -0.44744 0)
(1.21034 -0.446892 0)
(1.17078 -0.441366 9.19336e-20)
(1.13545 -0.408224 -6.65163e-20)
(-0.0138539 0.0286065 -8.77864e-20)
(-0.0329691 0.106678 -8.07792e-20)
(-0.0185239 0.177745 -2.1632e-19)
(0.0222472 0.21841 1.31286e-19)
(0.0833358 0.225899 0)
(0.160266 0.206196 1.11431e-19)
(0.250973 0.167181 -1.0172e-19)
(0.35672 0.115328 -4.73237e-20)
(0.481434 0.0541097 0)
(0.627647 -0.0145692 8.36917e-20)
(0.791684 -0.0881441 -8.38262e-20)
(0.960719 -0.162941 -2.19948e-21)
(1.11411 -0.233419 -1.84715e-21)
(1.22941 -0.294393 -1.62912e-19)
(1.2932 -0.33923 -7.64141e-20)
(1.30624 -0.36662 2.72743e-19)
(1.28285 -0.378008 1.24398e-20)
(1.24373 -0.373756 -1.52192e-19)
(1.19783 -0.371678 4.57214e-20)
(1.16379 -0.345718 0)
(-0.0136075 0.0150945 1.91967e-22)
(-0.0351702 0.0594911 -8.04641e-20)
(-0.0291357 0.101502 1.44058e-19)
(0.00584731 0.125764 0)
(0.0686571 0.127887 0)
(0.159797 0.109857 0)
(0.281863 0.0763642 0)
(0.436514 0.0318235 2.34517e-19)
(0.619222 -0.0200777 -1.71096e-19)
(0.81656 -0.0756903 -8.37758e-20)
(1.00789 -0.131276 7.20469e-20)
(1.16999 -0.183281 7.04581e-20)
(1.28355 -0.228297 -6.2503e-20)
(1.34034 -0.264089 1.52363e-19)
(1.34765 -0.288081 -2.09106e-19)
(1.32249 -0.303595 1.16772e-19)
(1.28508 -0.309195 7.94301e-20)
(1.24647 -0.310102 -2.8376e-19)
(1.21013 -0.311094 1.18423e-19)
(1.18275 -0.292085 -2.95985e-20)
(-0.0189521 0.0135004 3.78736e-22)
(-0.0411118 0.0363606 2.40003e-19)
(-0.033654 0.0528431 -2.17051e-19)
(0.0113676 0.0587522 -1.28417e-19)
(0.0994779 0.050734 1.16997e-19)
(0.234619 0.0298325 0)
(0.414923 -6.19995e-05 0)
(0.627083 -0.0350668 -1.81295e-19)
(0.847689 -0.0719474 -1.56365e-21)
(1.04965 -0.108268 1.53091e-19)
(1.20932 -0.142381 -7.21507e-20)
(1.31259 -0.173078 -1.20919e-19)
(1.35899 -0.199291 6.22149e-21)
(1.36159 -0.220271 9.60756e-20)
(1.33988 -0.235637 0)
(1.3093 -0.247593 -9.02549e-20)
(1.27857 -0.252142 2.16925e-19)
(1.24689 -0.258468 3.52028e-20)
(1.21833 -0.255416 -1.14005e-19)
(1.19184 -0.24735 2.96738e-20)
(0.132044 -0.206879 1.73476e-22)
(0.25831 -0.168328 -2.75954e-23)
(0.370062 -0.135777 3.47893e-23)
(0.467419 -0.109168 -3.64757e-23)
(0.551401 -0.0873047 0)
(0.623596 -0.0680998 1.02197e-21)
(0.685476 -0.0492488 -9.86379e-22)
(0.738214 -0.0295457 7.4287e-22)
(0.782522 -0.0091791 -7.41086e-22)
(0.818905 0.0105817 3.6671e-23)
(0.848433 0.0285005 0)
(0.872399 0.0433102 -3.93234e-22)
(0.891778 0.0551068 7.10096e-22)
(0.907402 0.0641101 -6.15954e-22)
(0.920063 0.070765 5.03894e-22)
(0.930487 0.0756264 -2.27059e-22)
(0.939229 0.0791783 0)
(0.946668 0.081784 1.54876e-22)
(0.953064 0.0836981 -1.40246e-22)
(0.958601 0.0850882 -1.07838e-22)
(0.963416 0.0860685 1.04132e-22)
(0.967616 0.0867282 -7.11051e-23)
(0.971293 0.0871398 6.96283e-23)
(0.974525 0.0873628 0)
(0.977376 0.0874458 0)
(0.979899 0.0874294 0)
(0.982141 0.0873484 0)
(0.984139 0.0872333 -2.0775e-23)
(0.985925 0.0871125 1.03296e-23)
(0.987524 0.0870117 0)
(0.988961 0.086955 8.20314e-24)
(0.990256 0.0869652 0)
(0.991426 0.0870649 6.76878e-24)
(0.992486 0.0872799 -1.98825e-23)
(0.993448 0.0876362 -1.19929e-23)
(0.994323 0.0881606 1.72889e-23)
(0.995122 0.0888822 1.04489e-23)
(0.995853 0.0898316 -1.83866e-25)
(0.996525 0.0910391 4.70981e-24)
(0.997141 0.092547 -4.22612e-27)
(0.997717 0.0943623 -2.05351e-25)
(0.99824 0.0966252 -1.09247e-23)
(0.998752 0.0990602 0)
(0.999195 0.102608 0)
(0.999669 0.105012 0)
(1.00006 0.111563 5.22732e-24)
(1.00048 0.111853 -1.8928e-25)
(1.00086 0.123701 4.30004e-24)
(1.0012 0.121901 2.98355e-24)
(1.0016 0.136161 6.30708e-26)
(0.327998 -0.365136 -1.91879e-21)
(0.421294 -0.30229 1.89379e-21)
(0.500693 -0.246705 -4.35569e-21)
(0.569737 -0.200053 -2.84026e-22)
(0.629077 -0.161792 8.40543e-21)
(0.681055 -0.129954 -3.97311e-21)
(0.727965 -0.101109 0)
(0.770361 -0.072639 2.50336e-23)
(0.807663 -0.0443727 0)
(0.839142 -0.0175993 3.44752e-23)
(0.864311 0.00637392 1.87175e-21)
(0.884236 0.0265788 -1.75478e-21)
(0.900462 0.0424061 0)
(0.913619 0.0543586 5.58088e-23)
(0.924418 0.0631736 3.14303e-23)
(0.933484 0.0696051 0)
(0.941249 0.0743022 -6.62271e-22)
(0.948001 0.0777691 1.23739e-21)
(0.953922 0.0803582 -5.65564e-22)
(0.959133 0.0822931 0)
(0.963722 0.0837203 0)
(0.967768 0.0847492 -1.07767e-23)
(0.971341 0.0854664 3.18189e-22)
(0.974503 0.0859427 -2.35948e-23)
(0.977308 0.0862367 -2.47509e-22)
(0.979806 0.086397 0)
(0.982038 0.0864644 -9.20982e-23)
(0.984038 0.0864737 7.82069e-23)
(0.985836 0.0864565 9.77141e-24)
(0.987457 0.0864417 -1.79109e-23)
(0.988923 0.086458 8.24648e-24)
(0.990253 0.0865323 1.52192e-23)
(0.991463 0.0866889 7.65627e-23)
(0.992568 0.0869529 -3.38467e-23)
(0.99358 0.0873505 0)
(0.994511 0.0879101 -6.20346e-23)
(0.99537 0.0886624 1.21765e-23)
(0.996165 0.0896387 3.05623e-23)
(0.996905 0.0908695 9.25524e-24)
(0.997594 0.0923974 -8.57821e-24)
(0.998245 0.0942297 0)
(0.998849 0.0965083 2.12015e-23)
(0.999442 0.0989534 -1.35239e-23)
(0.999972 0.102518 1.10485e-23)
(1.00053 0.10492 -5.62044e-25)
(1.001 0.111493 -4.25473e-24)
(1.00153 0.111773 -6.83879e-24)
(1.00198 0.123633 5.01594e-24)
(1.0024 0.12184 -3.30908e-24)
(1.00292 0.136105 2.51426e-25)
(0.565457 -0.469469 0)
(0.612923 -0.395995 3.41953e-21)
(0.65178 -0.32624 -3.27217e-21)
(0.689107 -0.264813 6.72424e-21)
(0.722432 -0.214832 -6.46862e-21)
(0.751752 -0.175418 -5.71383e-23)
(0.780349 -0.141829 0)
(0.809674 -0.109015 5.61412e-21)
(0.838107 -0.0753379 -5.33839e-21)
(0.863318 -0.0426236 -1.39084e-22)
(0.883956 -0.013407 0)
(0.899735 0.011469 -1.03062e-22)
(0.911824 0.0309014 -2.69275e-21)
(0.921701 0.045451 2.51979e-21)
(0.930031 0.0561591 -1.87325e-21)
(0.937289 0.0639647 3.40312e-21)
(0.943776 0.0696707 -2.96527e-21)
(0.949649 0.0739104 1.37116e-21)
(0.954977 0.0771177 0)
(0.959789 0.0795614 -2.88261e-23)
(0.96411 0.0814132 2.49914e-23)
(0.967974 0.0827964 -2.17813e-23)
(0.971424 0.083808 -1.90902e-23)
(0.974503 0.0845287 0)
(0.977256 0.0850263 2.30187e-22)
(0.979723 0.0853571 -2.22275e-22)
(0.98194 0.0855688 0)
(0.983939 0.0857006 -1.0849e-23)
(0.985746 0.0857874 1.97265e-23)
(0.987387 0.0858597 3.60796e-23)
(0.98888 0.085947 -1.65803e-23)
(0.990245 0.0860792 1.04831e-22)
(0.991495 0.0862862 -1.87188e-23)
(0.992646 0.0865957 -1.2097e-22)
(0.993708 0.0870328 -2.46318e-23)
(0.994694 0.0876258 1.14809e-23)
(0.995613 0.0884065 5.20852e-23)
(0.996473 0.0894074 -6.14247e-23)
(0.997281 0.0906597 1.94563e-26)
(0.998042 0.0922067 1.72129e-23)
(0.998768 0.0940553 1.58781e-23)
(0.999454 0.0963497 -1.45097e-23)
(1.00013 0.0988056 -5.13983e-23)
(1.00074 0.102387 2.17765e-24)
(1.0014 0.104791 1.12888e-23)
(1.00194 0.111388 0)
(1.00258 0.111664 2.05531e-23)
(1.0031 0.123542 -7.99225e-24)
(1.0036 0.121754 -1.98913e-24)
(1.00423 0.13604 -2.04657e-24)
(0.780726 -0.508796 -8.48347e-23)
(0.782281 -0.440735 4.06615e-23)
(0.780582 -0.371602 2.36898e-23)
(0.786425 -0.305581 3.85937e-23)
(0.797061 -0.24925 0)
(0.808693 -0.206077 -6.24076e-23)
(0.822145 -0.171858 0)
(0.839757 -0.139192 -8.39868e-23)
(0.860764 -0.1038 4.45735e-21)
(0.881731 -0.0667329 -8.21905e-21)
(0.899761 -0.0319564 3.79175e-21)
(0.913317 -0.00264126 -4.51622e-23)
(0.922846 0.0205608 4.3885e-23)
(0.930124 0.0376344 7.22711e-23)
(0.936211 0.0499423 -1.96379e-21)
(0.941646 0.0588089 3.19052e-22)
(0.946747 0.0652809 1.56523e-21)
(0.951625 0.070132 1.15091e-21)
(0.956262 0.0738657 -1.14882e-21)
(0.960601 0.0767786 2.92258e-23)
(0.964601 0.0790476 -2.53311e-23)
(0.968249 0.0807933 2.20712e-23)
(0.971552 0.0821122 3.85961e-23)
(0.974533 0.0830884 4.89629e-22)
(0.977223 0.0837962 -5.05487e-22)
(0.979652 0.0843 -4.1726e-22)
(0.981851 0.0846547 4.02802e-22)
(0.983845 0.0849066 5.69738e-27)
(0.98566 0.0850953 2.9096e-22)
(0.987316 0.0852549 -6.21687e-22)
(0.988834 0.0854166 2.75209e-22)
(0.990231 0.0856085 2.42844e-22)
(0.991521 0.085862 -2.34498e-22)
(0.992717 0.08621 0)
(0.99383 0.0866816 -7.28901e-23)
(0.99487 0.0873058 9.43872e-23)
(0.995849 0.0881132 4.32396e-23)
(0.996773 0.0891364 -2.01312e-23)
(0.997649 0.0904077 -1.87152e-23)
(0.998483 0.0919718 0)
(0.999284 0.0938352 -7.81338e-23)
(1.00005 0.0961449 7.46495e-23)
(1.0008 0.0986117 2.63317e-23)
(1.00151 0.102211 0)
(1.00225 0.10462 -1.90814e-23)
(1.00288 0.111242 1.84436e-23)
(1.00362 0.111519 -7.67106e-24)
(1.00421 0.123421 -5.85129e-24)
(1.0048 0.121641 0)
(1.00556 0.135963 2.04344e-24)
(0.938008 -0.494924 2.11155e-20)
(0.908665 -0.440299 -2.03878e-20)
(0.879514 -0.382717 -7.24571e-23)
(0.861244 -0.32453 0)
(0.853877 -0.270066 0)
(0.8529 -0.22634 6.38462e-23)
(0.855961 -0.193711 0)
(0.863671 -0.164321 -7.89015e-21)
(0.876831 -0.130732 7.66093e-21)
(0.893372 -0.0921231 0)
(0.909519 -0.0528745 5.58398e-23)
(0.922557 -0.0182783 -5.60031e-21)
(0.931499 0.00957483 5.58475e-21)
(0.937445 0.0300409 -3.70559e-24)
(0.942069 0.0444152 -1.88929e-21)
(0.946112 0.0544741 3.39159e-21)
(0.949997 0.0616481 -1.5659e-21)
(0.953903 0.0669603 0)
(0.957812 0.071058 1.03653e-21)
(0.961625 0.0743026 -9.41393e-22)
(0.965253 0.0768849 0)
(0.96864 0.0789203 6.83658e-22)
(0.971761 0.0804979 -6.59787e-22)
(0.974617 0.0816983 1.23943e-25)
(0.977224 0.0825963 0)
(0.979601 0.0832595 0)
(0.981772 0.083747 -4.06302e-22)
(0.983756 0.0841096 3.90584e-22)
(0.985575 0.084392 0)
(0.987246 0.0846317 1.85078e-23)
(0.988786 0.0848636 0)
(0.990212 0.0851171 0)
(0.991539 0.085421 -2.28443e-22)
(0.992779 0.0858064 2.47505e-22)
(0.993942 0.0863066 0)
(0.995037 0.0869561 -2.07987e-22)
(0.996075 0.0877871 1.56238e-22)
(0.997062 0.0888312 2.03857e-23)
(0.998006 0.0901202 7.41704e-23)
(0.998913 0.0916997 -7.15978e-23)
(0.999789 0.0935761 0)
(1.00064 0.0958997 0)
(1.00147 0.0983762 0)
(1.00227 0.101994 -2.1237e-23)
(1.0031 0.104407 6.3908e-23)
(1.00381 0.111055 -1.73021e-23)
(1.00466 0.111337 -1.68607e-24)
(1.00532 0.12327 -1.59034e-23)
(1.006 0.121497 4.00917e-24)
(1.00688 0.135871 0)
(1.03246 -0.453065 1.10438e-20)
(0.989713 -0.416 4.50856e-20)
(0.950265 -0.373457 -1.72408e-20)
(0.919652 -0.328308 -3.54912e-21)
(0.900717 -0.281615 3.35776e-21)
(0.890748 -0.239839 0)
(0.886729 -0.208646 -4.91724e-21)
(0.887525 -0.183568 4.68999e-21)
(0.893206 -0.154767 6.35301e-21)
(0.903584 -0.11773 -6.089e-21)
(0.916437 -0.0759464 0)
(0.928624 -0.0361838 -9.24986e-23)
(0.937704 -0.0036455 0)
(0.943427 0.0207845 -4.33508e-21)
(0.94732 0.037766 7.82595e-21)
(0.950424 0.0493422 -3.58237e-21)
(0.953307 0.0574123 0)
(0.956304 0.0633145 -3.91989e-23)
(0.959478 0.067878 0)
(0.962739 0.0715419 -8.60317e-25)
(0.965968 0.0745135 0)
(0.969073 0.0769011 0)
(0.971998 0.078786 1.14345e-21)
(0.97472 0.0802458 -1.68551e-21)
(0.977236 0.0813587 1.00379e-21)
(0.979557 0.0821973 -4.64628e-22)
(0.981694 0.0828276 2.50977e-23)
(0.983665 0.0833059 -3.74984e-22)
(0.985485 0.0836822 3.39778e-22)
(0.987169 0.0839991 2.94321e-22)
(0.988731 0.0842958 -1.28353e-23)
(0.990186 0.0846057 -2.61309e-22)
(0.991548 0.0849604 2.32313e-22)
(0.992829 0.0853877 -2.51479e-22)
(0.994039 0.0859185 0)
(0.99519 0.0865901 -1.63539e-22)
(0.996287 0.0874386 2.84155e-23)
(0.997338 0.0884984 1.68265e-22)
(0.998349 0.0898017 0)
(0.999329 0.091395 3.5527e-23)
(1.00028 0.0932834 -6.35168e-23)
(1.00121 0.0956206 6.12531e-23)
(1.00213 0.0981066 0)
(1.00301 0.101742 -2.37906e-23)
(1.00393 0.104163 -5.94208e-23)
(1.00473 0.110838 3.88078e-23)
(1.00569 0.111129 2.92538e-23)
(1.00643 0.123096 0)
(1.00718 0.12133 0)
(1.00821 0.135768 4.02159e-24)
(1.08637 -0.40021 -3.35325e-20)
(1.04308 -0.380931 3.24172e-20)
(1.00407 -0.353466 0)
(0.969213 -0.322221 -4.09406e-23)
(0.943224 -0.286039 -6.48648e-23)
(0.926305 -0.248599 0)
(0.916008 -0.21844 0)
(0.910969 -0.196617 -1.13525e-23)
(0.910859 -0.17403 -1.72782e-23)
(0.915401 -0.142039 -5.11846e-21)
(0.923642 -0.100849 4.86373e-21)
(0.933234 -0.0575341 0)
(0.941741 -0.0194327 0)
(0.947791 0.010634 -6.35889e-23)
(0.951662 0.0316733 5.70526e-23)
(0.954451 0.0455452 0)
(0.956773 0.0546923 -2.79915e-21)
(0.959061 0.0610013 2.73825e-21)
(0.961535 0.0657112 2.08518e-21)
(0.964195 0.0694825 -2.1035e-21)
(0.966947 0.0725986 0)
(0.969695 0.0751692 1.41713e-21)
(0.972363 0.0772524 -1.36525e-21)
(0.974905 0.0789042 1.0703e-21)
(0.977299 0.0801905 -4.9039e-23)
(0.97954 0.081179 -9.77557e-22)
(0.981631 0.0819357 -7.94796e-22)
(0.983578 0.0825185 7.88994e-22)
(0.985393 0.0829802 0)
(0.987085 0.083366 0)
(0.988667 0.0837187 0)
(0.99015 0.0840753 -3.25619e-23)
(0.991547 0.0844712 0)
(0.992867 0.0849357 2.20244e-22)
(0.994123 0.0854988 -3.91059e-22)
(0.995326 0.0861957 2.21698e-22)
(0.996482 0.0870628 -4.51498e-23)
(0.997596 0.0881365 -2.09703e-23)
(0.998676 0.089451 -1.7225e-22)
(0.999728 0.0910545 1.11162e-22)
(1.00076 0.0929516 0)
(1.00177 0.0953002 -3.02281e-23)
(1.00277 0.0977937 -2.72323e-23)
(1.00374 0.101448 0)
(1.00475 0.103875 0)
(1.00564 0.110578 0)
(1.0067 0.110879 -1.2371e-23)
(1.00754 0.122887 1.37577e-23)
(1.00836 0.121128 8.13301e-24)
(1.00954 0.135641 -4.00934e-24)
(1.11952 -0.351309 3.80549e-20)
(1.08134 -0.344651 -3.67602e-20)
(1.04671 -0.328267 2.1492e-20)
(1.01168 -0.309076 -2.06742e-20)
(0.981903 -0.284023 6.78021e-23)
(0.959751 -0.252917 0)
(0.944057 -0.224321 -3.21719e-23)
(0.933719 -0.2043 2.05676e-24)
(0.928462 -0.187425 2.6591e-21)
(0.928238 -0.16244 -2.59221e-21)
(0.932341 -0.124918 4.36212e-21)
(0.939137 -0.0806126 2.24322e-22)
(0.946607 -0.0384569 -4.20137e-21)
(0.952336 -0.00474675 6.61662e-23)
(0.95569 0.0203055 -5.93288e-23)
(0.957912 0.0375301 -3.16882e-21)
(0.959672 0.048955 5.80766e-21)
(0.961376 0.0566906 -2.28576e-22)
(0.963298 0.0622857 -2.30363e-21)
(0.965478 0.0666479 1.84129e-21)
(0.967838 0.0702069 -1.8022e-21)
(0.970278 0.07314 0)
(0.972712 0.0755295 -1.23621e-21)
(0.975084 0.0774397 2.36438e-21)
(0.977359 0.0789412 -1.12413e-21)
(0.97952 0.0801072 9.34457e-22)
(0.981561 0.0810089 -8.71331e-22)
(0.983482 0.0817099 7.38862e-22)
(0.985289 0.082267 -6.89643e-22)
(0.986987 0.0827298 -6.16273e-22)
(0.988588 0.0831426 5.75035e-22)
(0.990098 0.0835468 -2.11749e-22)
(0.991529 0.0839808 2.21057e-22)
(0.99289 0.0844768 0)
(0.994192 0.0850675 -2.66109e-23)
(0.995446 0.0857878 -2.47488e-23)
(0.996659 0.086673 2.04228e-22)
(0.997836 0.0877606 -1.95745e-22)
(0.998983 0.0890861 -1.3581e-22)
(1.00011 0.0906998 1.68026e-22)
(1.00121 0.0926049 0)
(1.00231 0.094965 1.4921e-22)
(1.00339 0.0974652 -1.39615e-22)
(1.00446 0.101138 4.48234e-24)
(1.00556 0.103572 4.4695e-23)
(1.00654 0.110305 0)
(1.00771 0.11062 -1.25068e-23)
(1.00865 0.122671 1.21279e-23)
(1.00953 0.120922 6.44887e-24)
(1.01087 0.135514 0)
(1.14424 -0.308365 4.21221e-20)
(1.11098 -0.307335 -4.05626e-20)
(1.0796 -0.298348 -2.63168e-20)
(1.04582 -0.288611 4.48568e-20)
(1.01517 -0.273834 -3.17611e-20)
(0.990224 -0.250237 1.2728e-20)
(0.970644 -0.223418 3.38735e-23)
(0.956213 -0.203436 1.03059e-23)
(0.947142 -0.190721 7.05706e-24)
(0.943229 -0.174532 -9.39404e-25)
(0.943388 -0.145142 -2.72401e-23)
(0.946216 -0.103259 3.11581e-23)
(0.950508 -0.0578914 -3.77871e-21)
(0.955507 -0.01789 3.63582e-21)
(0.959643 0.0129634 0)
(0.962021 0.0336729 2.83132e-23)
(0.963462 0.0467399 -2.46679e-23)
(0.964605 0.0549923 0)
(0.965858 0.0606217 2.16548e-21)
(0.967387 0.0649249 -2.05207e-21)
(0.969185 0.0684883 -2.69831e-23)
(0.971175 0.0715115 -1.48354e-21)
(0.97327 0.0740461 1.42704e-21)
(0.975396 0.0761214 1.92353e-23)
(0.9775 0.0777842 1.05698e-21)
(0.979547 0.0790965 -1.00033e-21)
(0.981517 0.0801237 0)
(0.983397 0.0809305 0)
(0.985186 0.081572 6.70841e-22)
(0.986885 0.0821035 -6.76357e-22)
(0.988498 0.0825683 3.99617e-26)
(0.990033 0.0830121 -1.71458e-23)
(0.991496 0.0834757 -4.50773e-22)
(0.992896 0.0839939 4.93478e-22)
(0.994243 0.084603 2.14902e-22)
(0.995547 0.0853388 -2.06436e-22)
(0.996817 0.0862363 0)
(0.998056 0.0873338 -1.50151e-22)
(0.999269 0.0886673 1.65167e-22)
(1.00047 0.0902885 7.10702e-26)
(1.00165 0.0921995 -1.33553e-22)
(1.00283 0.0945695 1.12564e-22)
(1.004 0.0970751 0)
(1.00515 0.100767 0)
(1.00635 0.103207 4.02746e-23)
(1.00743 0.109973 -3.86342e-23)
(1.00869 0.110299 -1.26672e-23)
(1.00975 0.122402 1.73499e-24)
(1.01069 0.120663 -3.17583e-24)
(1.01221 0.135341 0)
(1.16059 -0.271736 -9.54246e-23)
(1.13425 -0.275021 0)
(1.10438 -0.274561 3.19613e-20)
(1.07259 -0.273045 -5.59156e-20)
(1.04355 -0.26899 2.40847e-20)
(1.01862 -0.256802 -5.18324e-23)
(0.997335 -0.235836 0)
(0.979577 -0.216254 0)
(0.966141 -0.205024 0)
(0.958247 -0.195121 9.95868e-25)
(0.95595 -0.173429 1.47975e-21)
(0.95717 -0.135729 -1.42341e-21)
(0.95948 -0.0891212 -2.97558e-21)
(0.961761 -0.0439866 2.86355e-21)
(0.963409 -0.00786186 0)
(0.964471 0.0192886 2.45829e-23)
(0.965437 0.0376371 2.64129e-21)
(0.966445 0.0492424 -4.98067e-21)
(0.96761 0.0567791 1.54615e-22)
(0.968963 0.0621026 4.02162e-21)
(0.970496 0.0662367 -1.83087e-21)
(0.972185 0.0696329 -1.52388e-21)
(0.973992 0.0724525 1.46409e-21)
(0.975873 0.0747626 1.96294e-23)
(0.977784 0.0766202 -1.74742e-23)
(0.979688 0.0780931 9.64867e-22)
(0.981558 0.0792501 -9.26518e-22)
(0.983375 0.0801617 0)
(0.985127 0.0808866 7.16682e-22)
(0.98681 0.0814843 -1.33283e-21)
(0.988426 0.0820013 6.48216e-22)
(0.989976 0.0824856 0)
(0.991467 0.08298 -1.633e-23)
(0.992902 0.0835213 -1.51236e-23)
(0.994292 0.0841485 -4.42093e-22)
(0.995645 0.0848982 4.23934e-22)
(0.996969 0.0858056 0)
(0.998269 0.0869097 1.76339e-22)
(0.999549 0.0882467 -1.69006e-22)
(1.00082 0.0898715 -1.6858e-22)
(1.00207 0.0917837 1.4324e-22)
(1.00333 0.0941625 1.58482e-23)
(1.00459 0.0966667 0)
(1.00584 0.100384 0)
(1.00713 0.102818 4.09111e-23)
(1.00832 0.109633 -3.91557e-23)
(1.00965 0.109963 0)
(1.01086 0.122126 0)
(1.01184 0.120414 -5.47827e-24)
(1.01355 0.135177 2.11612e-24)
(1.15909 -0.218585 0)
(1.14538 -0.222575 0)
(1.1207 -0.221272 0)
(1.092 -0.218225 0)
(1.06543 -0.218193 0)
(1.04276 -0.215321 0)
(1.02318 -0.202143 0)
(1.00593 -0.185338 0)
(0.990723 -0.177189 0)
(0.978871 -0.176371 0)
(0.972201 -0.167821 0)
(0.97015 -0.140886 0)
(0.970222 -0.0992807 0)
(0.970613 -0.0543257 0)
(0.971298 -0.0153406 0)
(0.971436 0.0135606 0)
(0.970667 0.0330775 0)
(0.970248 0.0454897 0)
(0.970476 0.0534697 0)
(0.971197 0.0590654 0)
(0.97228 0.0634299 0)
(0.973628 0.0670612 0)
(0.97516 0.0701268 0)
(0.976812 0.0726851 0)
(0.978532 0.0747827 0)
(0.980279 0.0764791 0)
(0.982022 0.0778397 0)
(0.983739 0.0789316 0)
(0.985416 0.0798146 0)
(0.987048 0.0805465 0)
(0.98863 0.0811766 0)
(0.990164 0.0817538 0)
(0.991652 0.082322 0)
(0.993096 0.0829196 0)
(0.994505 0.0835872 0)
(0.995887 0.0843654 0)
(0.997247 0.0852934 0)
(0.99859 0.0864127 0)
(0.999921 0.0877608 0)
(1.00125 0.0893942 0)
(1.00257 0.0913133 0)
(1.0039 0.0936989 0)
(1.00523 0.0962119 0)
(1.00656 0.0999382 0)
(1.00792 0.102392 0)
(1.00921 0.109222 0)
(1.01061 0.109587 0)
(1.01196 0.121796 0)
(1.01295 0.12011 0)
(1.01485 0.134989 0)
(1.14887 -0.195174 0)
(1.13857 -0.205083 0)
(1.11507 -0.209069 0)
(1.08778 -0.211162 0)
(1.06421 -0.214291 0)
(1.04409 -0.210978 0)