/*--------------------------------*- C++ -*----------------------------------*\
| =========                 |                                                 |
| \\      /  F ield         | OpenFOAM: The Open Source CFD Toolbox           |
|  \\    /   O peration     | Version:  2512                                  |
|   \\  /    A nd           | Website:  www.openfoam.com                      |
|    \\/     M anipulation  |                                                 |
\*---------------------------------------------------------------------------*/
FoamFile
{
    version     2.0;
    format      ascii;
    arch        "LSB;label=32;scalar=64";
    class       volVectorField;
    location    "100";
    object      U;
}
// * * * * * * * * * * * * * * * * * * * * * * * * * * * * * * * * * * * * * //

dimensions      [0 1 -1 0 0 0 0];

internalField   nonuniform List<vector> 
13248
(
(-0.0158236 0.0164108 5.89017e-20)
(-0.0236815 0.0285105 0)
(-0.0132148 0.0280153 -1.02977e-19)
(0.0137194 0.0198954 9.53507e-20)
(0.0579626 0.00751512 8.88336e-20)
(0.121338 -0.00724049 0)
(0.205238 -0.0231887 0)
(0.309298 -0.0392382 2.12072e-19)
(0.430362 -0.0541981 -1.69887e-21)
(0.562225 -0.0669209 -1.79448e-19)
(0.696416 -0.0765246 1.58731e-19)
(0.823791 -0.082541 -9.81849e-20)
(0.936277 -0.0849362 0)
(1.02818 -0.0840378 -1.40962e-19)
(1.09683 -0.0803633 2.51366e-19)
(1.14239 -0.0745636 -5.93771e-20)
(1.16763 -0.0671068 -8.44853e-20)
(1.17634 -0.0586635 7.87687e-20)
(1.17362 -0.0492503 0)
(1.1639 -0.0396773 0)
(1.15045 -0.0294536 0)
(1.13823 -0.0191463 0)
(1.12565 -0.0103049 1.37461e-20)
(1.11726 0.00205996 3.81587e-20)
(-0.0140309 0.0129022 -1.77195e-19)
(-0.0171686 0.0223386 1.11907e-19)
(0.00288442 0.0216023 -7.90245e-23)
(0.0450729 0.0140232 -1.438e-19)
(0.110571 0.00267688 -8.87077e-20)
(0.200797 -0.0101585 -8.21234e-20)
(0.315477 -0.0226742 -1.51677e-19)
(0.450774 -0.0334089 1.39907e-19)
(0.598606 -0.04135 0)
(0.74781 -0.0461037 1.84722e-21)
(0.886612 -0.0478976 2.67539e-21)
(1.00518 -0.0473775 9.51421e-20)
(1.09737 -0.0453296 0)
(1.16127 -0.0424261 0)
(1.19874 -0.0391042 8.64956e-20)
(1.21449 -0.0355143 -1.60829e-19)
(1.2144 -0.0316012 8.32733e-20)
(1.20462 -0.0272861 -7.7641e-20)
(1.19031 -0.0221853 -3.07267e-20)
(1.17493 -0.0168084 -4.83185e-20)
(1.16149 -0.00986281 -1.62721e-20)
(1.14986 -0.00415543 -2.84178e-20)
(1.14157 0.00455985 4.76208e-20)
(1.13363 0.00817454 1.20929e-20)
(-0.0117278 0.00926051 0)
(-0.00730983 0.0140906 0)
(0.0260118 0.0114655 5.16699e-20)
(0.0883226 0.00388119 4.76329e-20)
(0.180917 -0.00566896 -3.30565e-22)
(0.303557 -0.014462 -8.18586e-20)
(0.45158 -0.0205286 0)
(0.614591 -0.0229135 -6.95775e-20)
(0.778086 -0.0218079 6.22484e-20)
(0.927205 -0.0183165 -1.5094e-21)
(1.05041 -0.0139118 -1.01268e-19)
(1.14161 -0.00987639 -8.69272e-20)
(1.20041 -0.00695075 5.10355e-21)
(1.23095 -0.0052574 -6.05473e-20)
(1.24011 -0.00443703 1.51897e-19)
(1.23537 -0.00388933 0)
(1.22333 -0.00304753 -8.18339e-20)
(1.20879 -0.00145844 4.02805e-20)
(1.1944 0.00102782 3.06946e-20)
(1.18179 0.00436789 0)
(1.17051 0.00855335 2.14145e-20)
(1.1613 0.0127036 -6.87349e-20)
(1.15237 0.0176282 6.41869e-20)
(1.14483 0.0199453 3.45331e-20)
(-0.00880898 0.00597291 -6.04666e-20)
(0.00720611 0.00558029 -5.73871e-20)
(0.0594652 0.000666542 5.22312e-20)
(0.148749 -0.00631561 0)
(0.27504 -0.0120512 0)
(0.433266 -0.0138671 9.9242e-23)
(0.610672 -0.0107227 0)
(0.788771 -0.00346013 -2.02019e-19)
(0.948929 0.00576606 1.83529e-19)
(1.07768 0.0145323 -2.22586e-19)
(1.16923 0.02106 4.97719e-20)
(1.2251 0.0246409 0)
(1.25182 0.0255648 7.29177e-20)
(1.25812 0.024734 -1.31075e-19)
(1.25229 0.0232081 3.10123e-20)
(1.24067 0.0218402 6.96382e-20)
(1.22719 0.0211618 -7.13464e-21)
(1.21367 0.021323 -7.40631e-20)
(1.20093 0.0223375 0)
(1.18883 0.0238552 0)
(1.17776 0.026178 -2.18477e-20)
(1.16743 0.0277925 1.85283e-20)
(1.15827 0.0312318 5.91454e-20)
(1.14961 0.0306592 -5.5218e-20)
(-0.00453502 0.00298995 -6.19092e-20)
(0.0284925 -0.00233957 -5.76759e-20)
(0.106921 -0.00848189 1.59819e-19)
(0.23052 -0.0126688 -9.68112e-20)
(0.394673 -0.0115638 8.96783e-20)
(0.585038 -0.00366947 1.62381e-19)
(0.778711 0.00960067 -1.11928e-19)
(0.952135 0.0248452 -1.30973e-19)
(1.08905 0.0384826 4.63509e-21)
(1.18367 0.0481568 1.63831e-19)
(1.23935 0.0532045 0)
(1.26484 0.054332 4.08449e-20)
(1.27033 0.0529182 0)
(1.26452 0.0503531 -6.10069e-20)
(1.25337 0.0476447 8.4646e-20)
(1.24022 0.0453506 7.2857e-22)
(1.22663 0.0436604 -2.00615e-20)
(1.21332 0.0425965 3.53159e-20)
(1.20057 0.0420605 2.96151e-20)
(1.18881 0.0420194 -2.53581e-20)
(1.17809 0.0423695 2.18374e-20)
(1.16878 0.0427185 -1.85195e-20)
(1.16036 0.0442105 0)
(1.15312 0.0423547 -1.33233e-20)
(0.00218338 0.000114981 6.18937e-20)
(0.0589104 -0.009134 5.92502e-20)
(0.17109 -0.0141166 -5.33697e-20)
(0.334476 -0.0121694 9.76803e-20)
(0.534839 -0.00110354 -9.04796e-20)
(0.745311 0.0175579 8.05638e-20)
(0.935883 0.0390246 -3.77444e-20)
(1.08565 0.0581749 9.85363e-20)
(1.18773 0.0718027 -6.01362e-20)
(1.24683 0.0791639 1.01393e-19)
(1.27367 0.0813142 -2.28357e-19)
(1.27981 0.080046 8.14038e-20)
(1.27448 0.0770355 -6.78157e-20)
(1.26369 0.073446 6.31314e-20)
(1.25072 0.0699254 5.10619e-20)
(1.23719 0.0667667 4.23422e-20)
(1.22395 0.0640858 -1.16679e-19)
(1.21137 0.0619101 7.09907e-20)
(1.19974 0.0602284 -2.961e-20)
(1.18906 0.0589814 7.359e-20)
(1.17937 0.0581098 -2.37343e-20)
(1.17048 0.0573248 -5.34563e-20)
(1.16224 0.057266 4.8468e-20)
(1.15466 0.0546724 1.33188e-20)
(0.0124745 -0.00267341 0)
(0.100455 -0.0140903 2.33351e-22)
(0.252976 -0.0144951 1.08811e-19)
(0.457206 -0.00262982 -1.00528e-19)
(0.684432 0.020264 -8.94083e-20)
(0.896985 0.0481484 1.63229e-19)
(1.06623 0.0737882 -7.45314e-20)
(1.18183 0.0925493 9.63809e-20)
(1.24874 0.103287 -2.97894e-21)
(1.27948 0.107288 -5.20924e-20)
(1.28732 0.106755 1.09402e-19)
(1.28258 0.103717 -1.57737e-19)
(1.27189 0.0995851 0)
(1.25889 0.0951819 -2.88928e-20)
(1.24538 0.090929 -7.44229e-20)
(1.2322 0.0870244 2.34554e-20)
(1.21964 0.0835437 1.35796e-21)
(1.20783 0.0804873 -4.54891e-20)
(1.19673 0.0778187 4.56548e-21)
(1.18638 0.0754857 5.11308e-20)
(1.17675 0.0733899 -2.12858e-20)
(1.16791 0.071531 -7.49579e-21)
(1.15972 0.0699762 2.4366e-20)
(1.15228 0.0668909 0)
(0.0272784 -0.00506927 0)
(0.154261 -0.0159599 2.97895e-20)
(0.351156 -0.00765576 -1.39705e-19)
(0.591069 0.0172393 5.00473e-20)
(0.829644 0.0514542 -4.63572e-20)
(1.02656 0.0848981 -4.09094e-20)
(1.16376 0.110474 -7.09082e-20)
(1.24438 0.126003 3.51854e-20)
(1.28242 0.132797 3.01325e-20)
(1.29343 0.133531 0)
(1.28971 0.130751 6.35694e-20)
(1.27914 0.12627 -9.17188e-20)
(1.26604 0.121167 6.76042e-20)
(1.25243 0.116006 2.89051e-20)
(1.23913 0.111047 -2.24821e-20)
(1.2264 0.106395 -1.77875e-20)
(1.21433 0.102078 -1.60353e-20)
(1.20293 0.0980972 4.94545e-20)
(1.1923 0.0944428 0)
(1.18245 0.0910958 2.2817e-20)
(1.17341 0.0880372 1.79211e-20)
(1.16506 0.0852652 -4.55034e-20)
(1.15725 0.0825549 -2.90498e-20)
(1.15003 0.0793907 2.68824e-20)
(0.0472086 -0.0064569 -3.36682e-20)
(0.220174 -0.0129894 -7.93165e-22)
(0.461398 0.0082758 2.82268e-20)
(0.725769 0.0474297 7.66952e-20)
(0.958786 0.0901059 2.13457e-20)
(1.12812 0.124866 -4.08372e-20)
(1.23086 0.147279 3.70054e-20)
(1.28135 0.158254 -3.1798e-20)
(1.29808 0.160997 5.49942e-20)
(1.29632 0.15881 2.28218e-20)
(1.28602 0.154126 -6.36452e-20)
(1.27261 0.148403 1.84443e-20)
(1.25854 0.142389 3.04302e-20)
(1.24479 0.136426 -1.49597e-20)
(1.23164 0.130664 0)
(1.21919 0.125169 2.09315e-20)
(1.20749 0.119981 3.42102e-20)
(1.19657 0.115116 5.12933e-21)
(1.18642 0.110577 -2.7551e-20)
(1.177 0.106345 1.11318e-20)
(1.16821 0.102399 0)
(1.15995 0.0986924 -8.2332e-21)
(1.15215 0.0950033 -7.3765e-21)
(1.14478 0.0916268 0)
(0.0724341 -0.00601796 0)
(0.29643 -0.00328093 1.62428e-20)
(0.577025 0.0344074 2.95118e-20)
(0.851296 0.0866391 -7.73116e-20)
(1.06529 0.13371 2.43649e-20)
(1.20212 0.166218 0)
(1.27325 0.183646 3.44853e-20)
(1.30013 0.189651 -4.72864e-20)
(1.3022 0.188585 -2.7183e-20)
(1.29267 0.183828 1.2196e-20)
(1.27882 0.177443 -1.84482e-20)
(1.26402 0.170487 4.47792e-20)
(1.24955 0.16344 2.18256e-20)
(1.23581 0.156517 -1.52949e-20)
(1.22291 0.149823 -1.67744e-21)
(1.21082 0.143413 -3.92754e-20)
(1.19954 0.137317 1.76169e-20)
(1.18903 0.131546 -3.8647e-22)
(1.17927 0.126098 0)
(1.17021 0.120969 -1.11427e-20)
(1.16178 0.116153 0)
(1.15389 0.111573 2.36821e-20)
(1.14645 0.107128 -2.76494e-20)
(1.1394 0.103511 1.23526e-20)
(0.102579 -0.00285651 -9.00845e-21)
(0.379641 0.0147485 -4.06289e-20)
(0.690297 0.0706732 4.52166e-20)
(0.960402 0.13292 2.58586e-20)
(1.14732 0.180344 -1.2339e-20)
(1.25186 0.208067 1.95827e-20)
(1.29655 0.219619 -9.51727e-21)
(1.30608 0.220707 1.52963e-20)
(1.29858 0.216158 0)
(1.28449 0.20905 3.31207e-20)
(1.26877 0.200982 -1.45118e-21)
(1.25333 0.192681 -2.59523e-20)
(1.23877 0.184456 1.09077e-20)
(1.22518 0.176443 -1.20252e-20)
(1.21252 0.168709 -4.39214e-21)
(1.20073 0.161292 5.17448e-21)
(1.1898 0.154217 -3.87062e-21)
(1.17969 0.147499 -2.04154e-20)
(1.17036 0.141147 1.2405e-20)
(1.16175 0.135161 2.46603e-21)
(1.15371 0.129515 2.11848e-21)
(1.1461 0.124114 1.81806e-21)
(1.13886 0.119024 0)
(1.13188 0.114904 0)
(0.136754 0.003887 9.01938e-21)
(0.465286 0.0420232 -8.36415e-21)
(0.794232 0.116024 -1.50324e-20)
(1.04919 0.184365 0)
(1.20583 0.228768 -6.03669e-21)
(1.28122 0.250094 -5.18796e-21)
(1.30508 0.255448 -8.66173e-21)
(1.30245 0.251832 0)
(1.28895 0.244021 0)
(1.27233 0.234607 0)
(1.25571 0.22476 0)
(1.24007 0.214954 0)
(1.22559 0.205379 -6.80432e-21)
(1.21222 0.196115 3.06111e-21)
(1.19988 0.187208 5.2226e-21)
(1.1885 0.178688 2.40788e-21)
(1.17802 0.170572 5.82682e-21)
(1.16839 0.16287 0)
(1.15955 0.155581 -1.32873e-21)
(1.15139 0.148702 -1.23023e-21)
(1.14379 0.142194 -2.1218e-21)
(1.13666 0.135987 -1.82091e-21)
(1.12991 0.130273 0)
(1.1235 0.125486 1.22733e-21)
(0.00439805 -0.110824 6.85639e-21)
(0.00808457 -0.266236 -6.50906e-21)
(0.00022693 -0.361898 -1.20366e-20)
(-0.017162 -0.413037 0)
(-0.0397807 -0.439731 -1.56685e-20)
(-0.063943 -0.457665 4.88464e-21)
(-0.0873498 -0.474709 -9.17934e-21)
(-0.108751 -0.492429 0)
(-0.127355 -0.509135 0)
(-0.142444 -0.52211 0)
(-0.153242 -0.528609 0)
(-0.158954 -0.526185 0)
(-0.158879 -0.512849 3.31843e-22)
(-0.152557 -0.487235 -6.89934e-21)
(-0.139844 -0.448716 1.31918e-20)
(-0.12098 -0.397292 1.93842e-20)
(-0.0966504 -0.333895 5.90397e-21)
(-0.0678745 -0.259885 0)
(-0.0360112 -0.176758 5.78503e-21)
(-0.00225998 -0.0858307 -1.56421e-20)
(0.0318927 0.0119415 -9.51949e-21)
(0.0668765 0.115961 -8.75697e-21)
(0.100391 0.226325 0)
(0.137938 0.341671 0)
(0.00895789 -0.107296 -2.04219e-20)
(0.0141463 -0.251852 3.23715e-20)
(0.000899528 -0.337017 -1.18326e-20)
(-0.0236066 -0.380876 -2.21836e-20)
(-0.0532165 -0.403994 3.09445e-20)
(-0.0840989 -0.421236 -1.94451e-20)
(-0.114306 -0.439448 2.7209e-20)
(-0.143004 -0.459597 1.70155e-20)
(-0.169715 -0.479895 0)
(-0.193896 -0.497787 -1.62888e-20)
(-0.214832 -0.510716 -9.18089e-22)
(-0.231692 -0.516306 1.42232e-20)
(-0.243632 -0.512468 2.04402e-20)
(-0.249912 -0.497523 2.68963e-20)
(-0.250015 -0.470327 -1.24506e-20)
(-0.24373 -0.430365 -3.66839e-20)
(-0.231219 -0.377752 1.12368e-20)
(-0.21302 -0.313178 -4.23406e-20)
(-0.189965 -0.237688 0)
(-0.163067 -0.152481 1.02346e-20)
(-0.133199 -0.0589507 9.50924e-21)
(-0.101462 0.0418225 8.74733e-21)
(-0.0682671 0.148337 0)
(-0.0320958 0.258769 0)
(0.0122133 -0.0972254 0)
(0.0178618 -0.22632 6.32253e-20)
(8.5201e-05 -0.301205 -2.34378e-20)
(-0.0296963 -0.339347 2.20142e-20)
(-0.0640542 -0.360063 -6.06427e-20)
(-0.0991903 -0.376879 0)
(-0.133508 -0.395759 -3.59615e-20)
(-0.166547 -0.417434 1.63826e-20)
(-0.198139 -0.44031 -3.15174e-20)
(-0.227975 -0.462173 1.44566e-20)
(-0.25552 -0.480761 8.61103e-20)
(-0.280057 -0.493872 -3.99193e-20)
(-0.300767 -0.499426 -6.56131e-20)
(-0.316822 -0.49557 -2.4503e-20)
(-0.327481 -0.480805 -6.37184e-22)
(-0.332183 -0.4541 8.74616e-20)
(-0.330606 -0.414962 -4.09341e-20)
(-0.322703 -0.363429 2.88779e-21)
(-0.3087 -0.300013 0)
(-0.28901 -0.225634 -2.91554e-20)
(-0.264057 -0.141579 0)
(-0.234831 -0.0495313 -2.84648e-20)
(-0.201918 0.0495808 9.3607e-20)
(-0.167563 0.153709 -2.89179e-21)
(0.0134805 -0.0820422 0)
(0.0185116 -0.192748 -2.72286e-22)
(-0.00252519 -0.257976 2.30775e-20)
(-0.0354663 -0.291794 -2.15212e-20)
(-0.0721895 -0.310989 1.9861e-20)
(-0.108958 -0.327434 1.12574e-19)
(-0.144384 -0.346341 -3.50169e-20)
(-0.178235 -0.368387 -3.30108e-20)
(-0.210563 -0.392288 6.25204e-20)
(-0.241296 -0.416249 -8.88795e-20)
(-0.270154 -0.438411 2.68077e-20)
(-0.29669 -0.456906 2.55467e-20)
(-0.320337 -0.469871 0)
(-0.340451 -0.475515 2.36302e-20)
(-0.356374 -0.472226 0)
(-0.367481 -0.458678 3.68072e-20)
(-0.373219 -0.433931 -7.02853e-20)
(-0.373137 -0.397481 1.96551e-20)
(-0.366946 -0.349275 5.92233e-20)
(-0.354599 -0.289707 2.91357e-20)
(-0.336072 -0.219611 0)
(-0.310728 -0.140087 -6.08412e-20)
(-0.279585 -0.0518941 2.15742e-20)
(-0.24889 0.0443112 0)
(0.0124115 -0.0635413 0)
(0.0157742 -0.154233 -7.44085e-20)
(-0.0071152 -0.210457 -2.32165e-20)
(-0.0410944 -0.241089 -4.29507e-20)
(-0.077913 -0.259577 3.98008e-20)
(-0.113904 -0.275977 -3.74487e-20)
(-0.14773 -0.294837 7.04656e-20)
(-0.179194 -0.316864 3.36811e-20)
(-0.208392 -0.341069 -9.23985e-20)
(-0.235334 -0.36599 5.79278e-20)
(-0.259888 -0.390075 -8.09586e-20)
(-0.281838 -0.411736 1.74401e-19)
(-0.300922 -0.429356 -9.30656e-20)
(-0.316862 -0.441332 4.15477e-20)
(-0.329373 -0.446156 1.1327e-19)
(-0.338165 -0.44251 -3.96813e-20)
(-0.342914 -0.429354 -3.2402e-20)
(-0.343238 -0.405988 -3.07913e-20)
(-0.338716 -0.372077 0)
(-0.329037 -0.327666 -3.75002e-20)
(-0.314054 -0.273074 -2.68049e-20)
(-0.29282 -0.208496 4.67361e-20)
(-0.26279 -0.133606 4.41826e-20)
(-0.226779 -0.0499344 -3.61762e-20)
(0.00906513 -0.0436993 0)
(0.00984464 -0.113883 -9.93039e-20)
(-0.0134533 -0.161589 -4.71106e-22)
(-0.0464048 -0.189743 8.55824e-20)
(-0.0811756 -0.208062 0)
(-0.114203 -0.22471 0)
(-0.144087 -0.243632 0)
(-0.170514 -0.265614 -3.30284e-20)
(-0.193481 -0.289953 -3.52143e-22)
(-0.212931 -0.315442 5.7482e-20)
(-0.22873 -0.340721 -7.97097e-20)
(-0.240741 -0.364335 8.92825e-23)
(-0.248884 -0.384765 0)
(-0.253173 -0.40049 -4.15304e-20)
(-0.253712 -0.410074 3.27821e-20)
(-0.250678 -0.412269 -9.603e-20)
(-0.244241 -0.406106 1.06986e-19)
(-0.234471 -0.39093 1.31115e-20)
(-0.221308 -0.366429 -1.05017e-20)
(-0.204607 -0.332721 -6.54235e-20)
(-0.184229 -0.290364 -2.00497e-20)
(-0.158344 -0.239617 5.41706e-20)
(-0.133825 -0.177468 -2.80095e-20)
(-0.0771506 -0.10746 0)
(0.00392683 -0.0244386 5.24481e-20)
(0.00151733 -0.0745956 4.96843e-20)
(-0.0207113 -0.114007 -4.68854e-20)
(-0.0505574 -0.139885 -8.72009e-20)
(-0.0810669 -0.158211 8.08043e-20)
(-0.108825 -0.175227 -7.64668e-20)
(-0.132282 -0.19429 1.06939e-19)
(-0.150903 -0.216272 -3.2767e-20)
(-0.164484 -0.240732 6.22348e-20)
(-0.172841 -0.266676 0)
(-0.175804 -0.292859 5.28996e-20)
(-0.17331 -0.317852 -9.91173e-20)
(-0.165481 -0.340109 8.69344e-20)
(-0.152651 -0.358062 -8.09215e-20)
(-0.13533 -0.370237 0)
(-0.114183 -0.375365 5.98958e-20)
(-0.0898605 -0.372562 9.15674e-20)
(-0.0628417 -0.361286 -8.70474e-20)
(-0.0333972 -0.341315 -3.02734e-20)
(-0.0015934 -0.312899 -1.9828e-20)
(0.0295989 -0.277067 5.94048e-20)
(0.0763515 -0.232506 3.26442e-21)
(0.0984112 -0.184099 -7.22798e-21)
(0.180387 -0.126299 3.90888e-22)
(-0.00219965 -0.00740136 -5.24608e-20)
(-0.00789676 -0.0389782 1.52933e-19)
(-0.0274975 -0.0701125 -4.72687e-20)
(-0.0520429 -0.0934383 8.87406e-20)
(-0.0757748 -0.111535 -8.22297e-20)
(-0.0954436 -0.128736 3.85873e-22)
(-0.109272 -0.147761 3.62776e-20)
(-0.116402 -0.169505 1.37836e-19)
(-0.116361 -0.193729 2.90337e-22)
(-0.108832 -0.219595 -5.85386e-20)
(-0.0936871 -0.245908 0)
(-0.0710854 -0.271215 -4.80087e-20)
(-0.0415878 -0.293889 9.05267e-20)
(-0.00611503 -0.312321 7.57825e-20)
(0.0341874 -0.324946 -3.67389e-20)
(0.0779306 -0.330447 -7.32275e-22)
(0.123785 -0.328078 -2.42447e-20)
(0.170767 -0.317499 3.69973e-20)
(0.217916 -0.298874 3.02677e-20)
(0.267672 -0.272111 -2.23507e-20)
(0.308789 -0.23958 1.38911e-20)
(0.373777 -0.199081 -8.32651e-21)
(0.392786 -0.158208 0)
(0.501656 -0.109392 -3.90441e-22)
(-0.00824629 0.00582629 5.40383e-20)
(-0.0169 -0.00941299 -5.12075e-20)
(-0.0323189 -0.0321498 4.87065e-20)
(-0.0493124 -0.052393 0)
(-0.0635139 -0.0698263 0)
(-0.0718662 -0.086908 8.10988e-20)
(-0.072326 -0.105666 -7.38059e-20)
(-0.063695 -0.126878 7.04761e-20)
(-0.0452679 -0.150404 -3.24089e-19)
(-0.0167287 -0.175459 3.11655e-22)
(0.0217618 -0.200834 5.54038e-20)
(0.0695006 -0.225023 0)
(0.125075 -0.246339 -8.69113e-20)
(0.186534 -0.263125 1.56372e-19)
(0.251768 -0.27378 -1.04111e-19)
(0.318603 -0.277215 -1.34618e-19)
(0.384796 -0.272863 1.35568e-20)
(0.44898 -0.260694 7.8987e-20)
(0.50938 -0.24125 0)
(0.569692 -0.214745 0)
(0.616358 -0.183768 -1.38916e-20)
(0.685281 -0.147108 8.32697e-21)
(0.704112 -0.109875 -1.19782e-20)
(0.806277 -0.0678484 1.1176e-20)
(-0.0129244 0.0144652 0)
(-0.0235475 0.0123536 0)
(-0.0337142 -0.00243363 -1.47611e-19)
(-0.041467 -0.0191231 4.55125e-20)
(-0.0436879 -0.0353476 -8.97616e-22)
(-0.0376626 -0.0521141 8.14953e-20)
(-0.0213224 -0.0705558 0)
(0.00677218 -0.0911563 -7.09882e-20)
(0.0473892 -0.113763 6.53212e-20)
(0.100553 -0.137523 -1.21183e-19)
(0.165362 -0.161185 1.16661e-21)
(0.239991 -0.183157 9.84667e-20)
(0.321757 -0.201732 -4.7884e-21)
(0.407295 -0.215321 6.93835e-20)
(0.492995 -0.222618 -1.06609e-19)
(0.575743 -0.222934 0)
(0.65282 -0.215958 8.49736e-20)
(0.722502 -0.202255 -1.15652e-19)
(0.784452 -0.182208 2.86784e-20)
(0.837805 -0.157432 0)
(0.883089 -0.128644 1.6261e-20)
(0.927674 -0.0978999 3.56443e-20)
(0.95087 -0.0653758 -3.32827e-20)
(1.00959 -0.0332565 -1.84675e-20)
(-0.0157802 0.0185217 1.69443e-19)
(-0.0270504 0.0253836 -2.15601e-19)
(-0.0309822 0.0174893 -6.57086e-22)
(-0.0281482 0.00450397 4.6808e-20)
(-0.0166745 -0.0103548 -8.78876e-20)
(0.00594336 -0.0267054 -8.12837e-20)
(0.0418558 -0.0447557 1.53394e-19)
(0.0923253 -0.0647072 -2.04076e-24)
(0.157762 -0.0861295 -1.32507e-19)
(0.237438 -0.10799 2.4265e-19)
(0.32909 -0.12894 -2.485e-21)
(0.428998 -0.147399 -1.01847e-19)
(0.532437 -0.161866 0)
(0.634292 -0.171109 0)
(0.729806 -0.174372 -3.32588e-20)
(0.815296 -0.171449 -5.49514e-20)
(0.888165 -0.162588 -8.52778e-20)
(0.947678 -0.148658 7.9499e-20)
(0.994108 -0.13037 -2.87014e-20)
(1.02764 -0.109387 4.13193e-20)
(1.05348 -0.0861464 -2.36575e-20)
(1.06732 -0.0629631 1.68606e-20)
(1.07966 -0.0385667 -5.33813e-20)
(1.08902 -0.0181789 5.33945e-21)
(-0.0166292 0.0187397 5.71689e-20)
(-0.0270868 0.0302542 0)
(-0.0242711 0.0273567 1.02076e-19)
(-0.00999989 0.0174148 -9.45194e-20)
(0.0168178 0.00391985 8.79938e-20)
(0.0582483 -0.0117773 0)
(0.116282 -0.0292348 0)
(0.191904 -0.0480211 -7.11963e-20)
(0.284478 -0.0672701 1.0993e-21)
(0.391363 -0.0857925 6.11839e-20)
(0.507751 -0.102236 -5.27184e-20)
(0.627226 -0.115328 1.00501e-19)
(0.742795 -0.1241 0)
(0.848056 -0.128032 1.45281e-19)
(0.938148 -0.127079 -2.58669e-19)
(1.01025 -0.121629 1.69956e-19)
(1.06354 -0.112364 8.52537e-20)
(1.09954 -0.100115 -7.94811e-20)
(1.1197 -0.0858286 0)
(1.12894 -0.0701492 0)
(1.12846 -0.0544101 0)
(1.12292 -0.0376461 0)
(1.11672 -0.023521 1.04736e-20)
(1.10573 -0.00687287 -3.26892e-20)
(0.180328 0.476775 -4.70554e-21)
(0.233512 0.627311 4.71863e-21)
(0.28849 0.747456 -1.08121e-22)
(0.33953 0.822828 0)
(0.384857 0.851302 -2.31501e-21)
(0.424831 0.840325 4.23894e-21)
(0.449247 0.81521 -1.18591e-22)
(0.444639 0.807267 -1.76232e-21)
(0.420181 0.814299 0)
(0.409942 0.786842 0)
(0.445126 0.669895 -1.28207e-22)
(0.521571 0.457087 -1.43498e-22)
(0.60951 0.180303 -2.61978e-21)
(0.69252 -0.123199 2.39468e-21)
(0.763949 -0.401829 0)
(0.81317 -0.600051 0)
(0.839301 -0.693737 1.23361e-21)
(0.848689 -0.708935 -2.47289e-22)
(0.842473 -0.691703 -8.71958e-22)
(0.831533 -0.662215 -4.26929e-23)
(0.82317 -0.633501 0)
(0.804065 -0.640055 0)
(0.762997 -0.686411 0)
(0.709032 -0.705047 0)
(0.662817 -0.609775 0)
(0.640607 -0.376885 0)
(0.646803 -0.0635505 4.35281e-22)
(0.671651 0.237002 -6.8468e-22)
(0.706468 0.442864 0)
(0.749148 0.537078 0)
(0.791617 0.565239 -2.25506e-22)
(0.812189 0.588514 2.19118e-22)
(0.799966 0.622345 9.31905e-23)
(0.75265 0.636195 0)
(0.695607 0.57593 0)
(0.651325 0.403558 3.10754e-22)
(0.63776 0.144763 -3.02028e-22)
(0.649158 -0.130494 0)
(0.686983 -0.327423 2.00257e-22)
(0.730822 -0.431636 -2.82444e-22)
(0.739033 -0.478931 6.50254e-23)
(0.695176 -0.508774 0)
(0.643663 -0.480929 -1.11468e-22)
(0.612661 -0.347997 1.08387e-22)
(0.623866 -0.159561 0)
(0.657986 0.0705056 0)
(0.683355 0.237868 -4.11652e-23)
(0.678723 0.393602 1.11644e-22)
(0.667306 0.451857 0)
(0.65331 0.388218 0)
(0.661757 0.253921 -3.39419e-23)
(0.668479 -0.0301319 -7.31635e-24)
(0.663034 -0.20265 -3.92131e-24)
(0.641583 -0.415609 2.36849e-23)
(0.63956 -0.433838 0)
(0.623316 -0.166912 0)
(0.618174 -0.0423872 0)
(0.592227 0.28495 0)
(0.593974 0.365663 0)
(0.56485 0.0721861 0)
(0.0113975 0.384604 -3.87335e-22)
(0.0814 0.538049 -1.41974e-20)
(0.15204 0.658544 2.03835e-21)
(0.223767 0.742767 1.13633e-20)
(0.291373 0.787084 1.26321e-22)
(0.346397 0.801372 0)
(0.377112 0.80775 -6.84997e-21)
(0.383067 0.821052 1.36415e-20)
(0.386523 0.82245 -6.79406e-21)
(0.421392 0.764323 7.96831e-21)
(0.502521 0.616468 -7.60899e-21)
(0.607372 0.393362 9.63717e-21)
(0.707862 0.119761 -9.34255e-21)
(0.796803 -0.17844 -3.06227e-22)
(0.867291 -0.448176 -8.23852e-21)
(0.905853 -0.631548 8.00071e-21)
(0.91306 -0.70934 -5.02424e-21)
(0.902779 -0.710268 4.74736e-21)
(0.879878 -0.683499 -3.10624e-21)
(0.853023 -0.651904 5.60174e-21)
(0.832126 -0.620717 -2.51773e-21)
(0.804505 -0.617397 -1.36759e-22)
(0.75417 -0.653105 -2.628e-21)
(0.689862 -0.670409 5.67637e-21)
(0.632999 -0.58592 -3.0343e-21)
(0.599828 -0.370586 2.28566e-22)
(0.599464 -0.0754332 4.17994e-21)
(0.624037 0.212134 -3.28398e-22)
(0.666021 0.413111 -6.09283e-21)
(0.72091 0.509867 4.73707e-21)
(0.776411 0.547439 -2.03331e-21)
(0.809044 0.585289 1.87601e-22)
(0.808344 0.634296 -9.33899e-23)
(0.771854 0.658411 2.16413e-22)
(0.726179 0.599913 0)
(0.691096 0.420429 0)
(0.681326 0.149548 -1.38139e-21)
(0.688321 -0.138143 1.00353e-21)
(0.713764 -0.343919 6.20622e-22)
(0.749002 -0.442914 -1.32204e-22)
(0.754816 -0.474349 -6.87827e-22)
(0.70684 -0.492828 1.03086e-22)
(0.650228 -0.467635 0)
(0.617735 -0.345161 0)
(0.62784 -0.167547 0)
(0.656739 0.0607765 0)
(0.680106 0.233613 1.34714e-22)
(0.675073 0.39536 -7.16807e-23)
(0.667967 0.455125 0)
(0.65596 0.389382 0)
(0.666335 0.253306 0)
(0.677431 -0.0297301 -6.74943e-23)
(0.670756 -0.200698 6.29676e-24)
(0.646069 -0.411063 -4.81826e-23)
(0.636729 -0.433657 0)
(0.622759 -0.164092 0)
(0.619455 -0.0404074 1.27859e-23)
(0.594709 0.286924 8.73037e-24)
(0.602702 0.367997 0)
(0.566119 0.0765063 0)
(-0.128426 0.274539 -2.31355e-21)
(-0.040073 0.428406 -2.51793e-20)
(0.0335047 0.551379 1.93843e-20)
(0.117605 0.64918 -1.81778e-20)
(0.193763 0.714547 -1.2725e-22)
(0.254608 0.756661 0)
(0.295024 0.787537 -1.25391e-20)
(0.324608 0.80767 1.22493e-20)
(0.367872 0.791897 1.03778e-22)
(0.449862 0.704749 2.0992e-22)
(0.567565 0.541415 2.42412e-22)
(0.689824 0.326132 2.88683e-22)
(0.798348 0.0690024 -1.98535e-20)
(0.893268 -0.216073 1.95857e-20)
(0.963353 -0.472104 0)
(0.992236 -0.638838 4.43175e-22)
(0.982402 -0.703694 -9.96297e-21)
(0.954201 -0.697305 9.80862e-21)
(0.917861 -0.666686 0)
(0.877646 -0.635837 0)
(0.844419 -0.603666 -4.53545e-21)
(0.810522 -0.590009 8.79674e-21)
(0.75465 -0.615072 -8.68772e-21)
(0.680505 -0.634873 -7.4598e-22)
(0.613521 -0.565661 1.12871e-20)
(0.570939 -0.369712 -1.33721e-20)
(0.562642 -0.0926553 1.33363e-20)
(0.585337 0.181784 -1.09917e-21)
(0.633202 0.377284 -5.82564e-21)
(0.697787 0.476623 0)
(0.764994 0.523484 0)
(0.809713 0.575096 1.13411e-21)
(0.821417 0.640291 -1.45363e-21)
(0.797518 0.677964 4.44515e-24)
(0.763648 0.62425 2.61671e-21)
(0.737801 0.439896 -2.54255e-21)
(0.732349 0.160567 0)
(0.735689 -0.136517 3.4046e-22)
(0.74782 -0.352453 2.19084e-21)
(0.771811 -0.450745 -3.6261e-21)
(0.775629 -0.468629 1.31319e-21)
(0.724638 -0.47601 9.46414e-23)
(0.662013 -0.454961 -8.32413e-22)
(0.626587 -0.343813 6.53221e-22)
(0.635228 -0.176418 1.32194e-22)
(0.659194 0.050953 1.16938e-22)
(0.681269 0.229179 -1.35075e-22)
(0.675797 0.396041 0)
(0.672169 0.458384 0)
(0.661398 0.390544 -6.68043e-22)
(0.673337 0.25313 3.31263e-22)
(0.689241 -0.0284888 -3.62931e-22)
(0.682266 -0.197683 4.10796e-22)
(0.654324 -0.404532 3.83469e-22)
(0.637361 -0.433991 -1.02708e-22)
(0.625724 -0.161995 6.78285e-23)
(0.624332 -0.0390567 -3.10233e-23)
(0.60069 0.287456 -2.6371e-23)
(0.614703 0.371111 0)
(0.570996 0.0817385 0)
(-0.230612 0.15923 -3.60363e-20)
(-0.135474 0.307968 3.5686e-21)
(-0.0659298 0.436135 3.04205e-20)
(0.0176263 0.547331 -2.34242e-22)
(0.0956077 0.631407 0)
(0.165406 0.694599 0)
(0.226036 0.739138 -2.04147e-20)
(0.289004 0.757001 -2.14428e-21)
(0.374434 0.723309 3.34091e-20)
(0.496074 0.617679 2.11915e-21)
(0.637286 0.455073 -1.40223e-20)
(0.766971 0.259582 -1.77203e-20)
(0.880397 0.0242805 1.77039e-20)
(0.982746 -0.2451 0)
(1.05394 -0.485625 -1.57041e-20)
(1.0736 -0.634377 1.43792e-20)
(1.0478 -0.68643 0)
(1.00221 -0.675278 0)
(0.954007 -0.642975 5.72511e-21)
(0.904168 -0.614278 -9.07906e-22)
(0.859612 -0.584395 -4.38102e-21)
(0.819283 -0.562345 -3.84566e-21)
(0.761795 -0.573621 3.82062e-21)
(0.681759 -0.592979 -4.47587e-21)
(0.604748 -0.541963 -7.58865e-22)
(0.552809 -0.370771 4.98834e-21)
(0.536518 -0.114297 7.37319e-22)
(0.55589 0.146787 6.89992e-23)
(0.607392 0.336249 0)
(0.679126 0.437228 3.23675e-21)
(0.75605 0.492529 -3.30836e-21)
(0.812589 0.557809 1.74924e-22)
(0.838547 0.639041 0)
(0.827815 0.690085 -2.23601e-22)
(0.804965 0.643611 5.49755e-21)
(0.788506 0.459338 -1.10258e-20)
(0.788101 0.175595 -1.06404e-21)
(0.78973 -0.127937 7.71176e-22)
(0.789325 -0.354111 4.7576e-21)
(0.799185 -0.455944 4.06755e-22)
(0.800187 -0.462866 -1.91424e-21)
(0.747535 -0.45811 1.66093e-21)
(0.678621 -0.441309 1.93049e-23)
(0.638359 -0.343022 5.04312e-22)
(0.645367 -0.186223 -6.22972e-22)
(0.665167 0.0401731 -6.87107e-22)
(0.686601 0.223731 2.21992e-22)
(0.680531 0.395639 4.83041e-22)
(0.679485 0.462071 -1.08416e-21)
(0.669463 0.392305 9.25969e-22)
(0.682517 0.253429 -3.76813e-22)
(0.703691 -0.0267755 4.39272e-22)
(0.697385 -0.193996 3.86879e-22)
(0.666427 -0.396097 -6.15021e-22)
(0.641503 -0.4345 5.68571e-23)
(0.631944 -0.16074 -2.25974e-23)
(0.632636 -0.0383373 0)
(0.609934 0.286723 9.85534e-24)
(0.629716 0.37481 3.47342e-23)
(0.579485 0.0878058 0)
(-0.231248 0.0553152 1.96479e-20)
(-0.160843 0.193124 -3.62065e-20)
(-0.107079 0.320136 1.64465e-20)
(-0.0338394 0.435904 1.36272e-20)
(0.041098 0.531516 -2.61743e-20)
(0.121196 0.6074 -6.90645e-22)
(0.203862 0.659011 1.30071e-20)
(0.297686 0.673818 1.74001e-20)
(0.416647 0.629062 -1.70528e-20)
(0.563749 0.517922 0)
(0.713596 0.367938 -3.02262e-20)
(0.842797 0.195826 6.31976e-20)
(0.960976 -0.0184225 -3.29137e-20)
(1.0702 -0.267532 0)
(1.13825 -0.484663 0)
(1.14516 -0.612045 4.27035e-22)
(1.10462 -0.653047 -1.8275e-20)
(1.04511 -0.642116 1.7743e-20)
(0.987325 -0.612532 0)
(0.931383 -0.587247 8.92727e-21)
(0.878959 -0.562279 -1.56233e-20)
(0.832911 -0.53579 1.34404e-20)
(0.775602 -0.533585 -1.27001e-20)
(0.693254 -0.549763 -7.72788e-22)
(0.607256 -0.516369 1.48716e-20)
(0.545135 -0.372652 -8.02793e-21)
(0.520581 -0.139267 -3.32886e-22)
(0.535491 0.107359 -3.80416e-21)
(0.58822 0.2907 6.52118e-22)
(0.663812 0.393081 3.24686e-21)
(0.748351 0.455074 1.66438e-22)
(0.816672 0.530759 -2.52527e-21)
(0.856724 0.627723 5.56755e-21)
(0.860347 0.696653 -3.44564e-21)
(0.85023 0.663089 0)
(0.842395 0.482691 -7.44168e-21)
(0.846424 0.196384 7.33203e-21)
(0.847811 -0.111415 -5.01549e-21)
(0.83685 -0.347279 6.27614e-21)
(0.830772 -0.456675 -4.42886e-22)
(0.827622 -0.456629 0)
(0.774586 -0.439446 -1.80826e-22)
(0.699789 -0.426361 3.93394e-22)
(0.652516 -0.342224 0)
(0.657617 -0.197067 7.77725e-22)
(0.674145 0.0279631 -3.32925e-22)
(0.695807 0.21737 1.67256e-22)
(0.689494 0.393852 1.56753e-22)
(0.690144 0.465312 0)
(0.680158 0.394309 0)
(0.693725 0.254045 -1.27387e-21)
(0.720588 -0.0247204 2.02989e-21)
(0.715897 -0.189667 -1.06351e-21)
(0.682357 -0.38573 3.92797e-22)
(0.649104 -0.434932 3.15088e-22)
(0.641075 -0.160447 2.26216e-23)
(0.64415 -0.0381809 1.17694e-22)
(0.622176 0.284695 0)
(0.647471 0.378897 -3.94173e-23)
(0.591534 0.0946109 -8.57985e-23)
(-0.0895473 -0.0118278 5.4848e-21)
(-0.0627272 0.100035 -5.41238e-21)
(-0.0357825 0.214165 7.53109e-23)
(0.014854 0.321672 4.95775e-24)
(0.0805009 0.419401 6.46137e-23)
(0.161597 0.499768 -6.92872e-23)
(0.255345 0.555393 7.20319e-23)
(0.36611 0.570338 0)
(0.50226 0.523271 -2.07071e-22)
(0.656786 0.417895 2.86038e-22)
(0.800314 0.287501 3.61377e-22)
(0.922602 0.138334 -4.81716e-22)
(1.04347 -0.0565676 0)
(1.15484 -0.282677 0)
(1.21448 -0.472891 4.27498e-22)
(1.20666 -0.579417 0)
(1.15337 -0.611618 -2.81589e-22)
(1.0838 -0.603195 0)
(1.01877 -0.578555 -9.7581e-21)
(0.958744 -0.556108 1.74547e-20)
(0.900487 -0.536814 -1.3964e-20)
(0.849314 -0.511062 6.26826e-21)
(0.79423 -0.496542 5.04775e-21)
(0.714067 -0.504752 -4.89981e-21)
(0.621582 -0.486326 -6.18227e-21)
(0.548265 -0.372483 6.04397e-21)
(0.514516 -0.165392 0)
(0.523538 0.0653265 1.84882e-22)
(0.574776 0.242242 0)
(0.651276 0.344564 0)
(0.741058 0.41069 3.73343e-21)
(0.81963 0.495609 -3.82926e-21)
(0.874641 0.607302 2.69042e-22)
(0.893806 0.692568 4.25939e-22)
(0.894123 0.674897 -5.70444e-22)
(0.894144 0.504328 -6.73505e-21)
(0.903697 0.219907 6.53783e-21)
(0.906992 -0.0891564 -6.84975e-21)
(0.888701 -0.332796 5.85295e-21)
(0.866109 -0.452772 9.03531e-22)
(0.856904 -0.450331 -1.8643e-21)
(0.804463 -0.420396 4.4998e-22)
(0.725099 -0.40946 9.10753e-22)
(0.668664 -0.340502 0)
(0.671412 -0.208659 -2.43004e-22)
(0.685761 0.0138056 2.40919e-22)
(0.708577 0.208711 -3.42032e-22)
(0.702136 0.390392 -1.57806e-22)
(0.703556 0.469577 0)
(0.693253 0.397672 4.68552e-22)
(0.706894 0.255215 -8.2847e-22)
(0.7398 -0.0225097 3.28543e-23)
(0.737568 -0.18496 -3.71573e-22)
(0.70196 -0.373502 3.39359e-22)
(0.660103 -0.43495 -3.13981e-22)
(0.65273 -0.161124 0)