/*--------------------------------*- C++ -*----------------------------------*\
| =========                 |                                                 |
| \\      /  F ield         | OpenFOAM: The Open Source CFD Toolbox           |
|  \\    /   O peration     | Version:  2312                                  |
|   \\  /    A nd           | Website:  www.openfoam.com                      |
|    \\/     M anipulation  |                                                 |
\*---------------------------------------------------------------------------*/
FoamFile
{
    version     2.0;
    format      ascii;
    arch        "LSB;label=32;scalar=64";
    class       volVectorField;
    location    "93.15";
    object      U;
}
// * * * * * * * * * * * * * * * * * * * * * * * * * * * * * * * * * * * * * //

dimensions      [0 1 -1 0 0 0 0];

internalField   nonuniform List<vector> 
5478
(
(-0.0349346 0.0247836 -1.34883e-19)
(-0.0380442 0.0390988 0)
(0.0352036 0.0312175 2.0305e-19)
(0.196973 0.00691931 -3.56331e-19)
(0.444636 -0.0219051 2.34239e-19)
(0.733437 -0.048015 -6.91998e-20)
(1.00333 -0.0697107 -1.21195e-19)
(1.20874 -0.0895666 0)
(1.32941 -0.109388 0)
(1.37045 -0.13131 1.43854e-19)
(1.35502 -0.151243 -6.96227e-20)
(1.31417 -0.166533 -1.0452e-19)
(1.26542 -0.185177 -3.8006e-20)
(1.22838 -0.175318 0)
(1.17827 -0.208837 8.54277e-20)
(-0.0379167 0.0223964 2.70593e-19)
(-0.00923242 0.018711 0)
(0.136237 -0.00305788 0)
(0.404084 -0.0251581 -1.78941e-19)
(0.731255 -0.037395 2.35962e-19)
(1.02688 -0.0422924 6.81625e-20)
(1.23572 -0.0467934 -1.13823e-19)
(1.34581 -0.0557938 1.00941e-19)
(1.37673 -0.0706693 2.4014e-19)
(1.3613 -0.0877301 -2.08481e-19)
(1.33038 -0.103137 4.5449e-21)
(1.29733 -0.117278 0)
(1.26766 -0.122351 3.79373e-20)
(1.23411 -0.126522 0)
(1.19891 -0.13291 0)
(-0.0334205 0.0178344 -7.12058e-22)
(0.0528083 -0.00129362 -1.25907e-19)
(0.30949 -0.0225318 6.20072e-22)
(0.676326 -0.024661 0)
(1.0115 -0.0158929 -7.82692e-20)
(1.2363 -0.00895054 6.58173e-20)
(1.34633 -0.010253 5.49601e-20)
(1.37618 -0.0196184 0)
(1.36641 -0.0327073 -8.00617e-20)
(1.3448 -0.0457003 6.61257e-20)
(1.31952 -0.0575842 5.41002e-20)
(1.29209 -0.0654113 0)
(1.25944 -0.0741287 0)
(1.22772 -0.0762177 -1.02556e-19)
(1.1937 -0.0850383 9.13967e-20)
(-0.0173808 0.00910799 -1.46287e-19)
(0.161165 -0.0203855 1.24285e-19)
(0.545963 -0.0183665 -1.07357e-19)
(0.943634 0.0056421 9.33618e-20)
(1.21192 0.0250255 1.56083e-19)
(1.34251 0.0313443 -1.3017e-19)
(1.38283 0.0270195 -5.4934e-20)
(1.38039 0.0175197 4.23095e-20)
(1.36227 0.00660484 -4.05681e-20)
(1.33689 -0.00462211 0)
(1.30777 -0.0145229 0)
(1.27667 -0.0249052 -7.57777e-20)
(1.24831 -0.0312506 9.74395e-20)
(1.22167 -0.0368776 -5.44743e-20)
(1.19599 -0.0443888 0)
(0.0160689 -0.00299905 7.39353e-20)
(0.324878 -0.0258892 6.243e-20)
(0.796029 0.0145442 -2.22687e-19)
(1.14771 0.054213 2.89578e-21)
(1.32737 0.0724809 -2.95167e-21)
(1.38978 0.0742025 -1.84258e-21)
(1.39391 0.0674847 5.11553e-20)
(1.37446 0.0573874 4.35627e-20)
(1.34653 0.0459018 3.10846e-20)
(1.31748 0.0346412 -5.01454e-21)
(1.29011 0.0237368 -7.08296e-20)
(1.2657 0.0149787 0)
(1.24188 0.00783881 3.11752e-20)
(1.21806 -0.000322514 -2.26564e-20)
(1.19561 -0.00347218 4.13486e-20)
(0.0732452 -0.0126806 -1.57103e-19)
(0.528228 -0.00100414 1.70244e-19)
(1.0072 0.0696146 -5.76986e-20)
(1.28158 0.11159 4.37375e-20)
(1.38826 0.12373 -8.0133e-20)
(1.40575 0.119819 -5.95026e-20)
(1.38737 0.109477 1.49831e-21)
(1.35922 0.097087 0)
(1.33143 0.0846329 6.33451e-20)
(1.30556 0.0726408 -5.6331e-20)
(1.28073 0.061779 2.24367e-20)
(1.25558 0.0516804 0)
(1.23093 0.042269 1.37933e-20)
(1.20798 0.0342402 -2.37325e-20)
(1.18457 0.028845 0)
(0.155587 -0.0115707 -1.9608e-20)
(0.728739 0.0554042 1.29877e-21)
(1.16422 0.138656 2.86757e-20)
(1.36097 0.174479 4.7128e-20)
(1.41158 0.17765 -3.58273e-20)
(1.40074 0.16716 6.03341e-20)
(1.3726 0.153069 -1.36833e-20)
(1.3428 0.138569 0)
(1.31411 0.124198 -3.73712e-20)
(1.28667 0.110461 2.43498e-21)
(1.26086 0.0975133 3.12473e-20)
(1.23761 0.0856963 0)
(1.21669 0.0757077 -2.02051e-20)
(1.19683 0.0656861 0)
(1.17963 0.0617655 1.22981e-20)
(0.25741 0.00721624 -2.09625e-20)
(0.894967 0.13257 0)
(1.26787 0.216406 2.91556e-20)
(1.39718 0.240855 0)
(1.40946 0.233447 0)
(1.38353 0.216413 0)
(1.35055 0.198082 -1.17211e-20)
(1.31892 0.179926 0)
(1.29054 0.16254 7.54594e-21)
(1.26544 0.146392 0)
(1.24293 0.131643 -9.81099e-21)
(1.22187 0.11829 0)
(1.20173 0.105591 6.40498e-21)
(1.18314 0.0951534 0)
(1.16462 0.0885852 4.16973e-21)
(-0.0112819 0.184933 -1.43059e-20)
(-0.0365808 0.284186 0)
(-0.0745167 0.280825 2.26577e-20)
(-0.111908 0.249598 0)
(-0.146088 0.208921 0)
(-0.176162 0.156642 0)
(-0.201233 0.0891044 -1.59953e-20)
(-0.220443 0.00457691 0)
(-0.232931 -0.097148 1.35666e-20)
(-0.237695 -0.212432 0)
(-0.234582 -0.335666 -2.1687e-20)
(-0.225519 -0.459038 0)
(-0.207401 -0.572326 1.5551e-20)
(-0.19323 -0.662716 0)
(-0.15124 -0.729098 9.97399e-21)
(-0.0216984 0.189586 7.34918e-20)
(-0.041281 0.309166 -5.31952e-20)
(-0.0599137 0.317197 2.54072e-20)
(-0.0747908 0.288823 8.6685e-20)
(-0.0844439 0.24697 1.63336e-21)
(-0.0878997 0.192385 -7.2044e-20)
(-0.0847298 0.122378 4.86116e-20)
(-0.0755461 0.0354821 0)
(-0.0600729 -0.0683191 4.43269e-20)
(-0.0363498 -0.185569 4.4541e-22)
(-0.00518422 -0.310812 -2.456e-20)
(0.0258633 -0.437132 0)
(0.0698697 -0.548426 -4.89884e-20)
(0.0828053 -0.644266 0)
(0.134423 -0.699191 -4.80649e-20)
(-0.0296759 0.174203 1.24596e-19)
(-0.0442023 0.307382 2.76862e-20)
(-0.0421012 0.32943 -4.79486e-20)
(-0.0320843 0.306581 -1.33965e-19)
(-0.014864 0.265517 7.99306e-20)
(0.0101224 0.210982 7.73219e-20)
(0.0429089 0.14161 -1.38959e-19)
(0.0821318 0.055401 0)
(0.128685 -0.0465056 -1.21661e-19)
(0.185121 -0.16262 1.08173e-19)
(0.252529 -0.286144 4.82548e-20)
(0.319047 -0.413789 0)
(0.400673 -0.513176 3.34118e-20)
(0.436829 -0.604308 -5.25862e-20)
(0.513022 -0.629517 0)
(-0.0334189 0.142777 6.48587e-20)
(-0.0461242 0.277505 -1.6982e-19)
(-0.0273423 0.313333 2.01804e-19)
(0.00473729 0.298646 -1.80102e-19)
(0.0462113 0.260568 -8.23155e-20)
(0.0963619 0.207694 7.56114e-20)
(0.154551 0.140188 7.04177e-20)
(0.222008 0.0573616 6.45758e-20)
(0.300758 -0.0414208 -1.80777e-19)
(0.394565 -0.156819 -4.61197e-22)
(0.500224 -0.278446 4.83806e-20)
(0.604551 -0.404662 0)
(0.7068 -0.498752 6.40226e-20)
(0.759372 -0.580074 1.46772e-19)
(0.831353 -0.599639 -8.39002e-20)
(-0.032731 0.104231 5.1456e-22)
(-0.046832 0.225668 1.14968e-19)
(-0.0187224 0.269744 -1.01032e-19)
(0.0290019 0.263177 9.05254e-20)
(0.0895254 0.229535 1.63314e-19)
(0.160688 0.179243 -1.49424e-19)
(0.243561 0.115205 -6.77714e-20)
(0.343074 0.037119 -1.9374e-19)
(0.462643 -0.058228 1.73949e-19)
(0.604561 -0.166862 0)
(0.750297 -0.278205 0)
(0.885962 -0.385864 1.46501e-19)
(0.985928 -0.45668 -3.10205e-19)
(1.03198 -0.523291 1.03153e-19)
(1.06476 -0.513266 0)
(-0.0296275 0.0687033 6.74357e-22)
(-0.0463947 0.164636 -1.14217e-19)
(-0.0160647 0.206827 3.03388e-19)
(0.0404101 0.204091 -8.91287e-20)
(0.115761 0.173954 -8.10604e-20)
(0.209892 0.126895 7.38691e-20)
(0.328748 0.0660008 6.78053e-20)
(0.477791 -0.00953527 1.23077e-19)
(0.653951 -0.098791 -2.16267e-19)
(0.841273 -0.192701 9.41039e-20)
(1.00892 -0.280943 8.02574e-20)
(1.13665 -0.360059 0)
(1.20145 -0.399966 0)
(1.21247 -0.446777 1.58281e-19)
(1.18727 -0.410588 -1.40803e-19)
(-0.0277603 0.0432753 1.63335e-22)
(-0.0463072 0.108675 0)
(-0.0161657 0.138576 0)
(0.0489016 0.132722 1.77485e-19)
(0.147858 0.103141 -7.83795e-20)
(0.286976 0.0578968 7.01374e-20)
(0.469558 -9.05238e-05 1.29663e-19)
(0.684218 -0.0669064 -1.14962e-19)
(0.90548 -0.137365 1.07091e-19)
(1.09823 -0.2021 -9.4196e-20)
(1.23533 -0.262384 -8.17735e-21)
(1.30227 -0.3024 0)
(1.30265 -0.332242 4.65231e-20)
(1.2596 -0.348049 0)
(1.19376 -0.328413 0)
(-0.0299284 0.0297212 -1.32092e-19)
(-0.0462335 0.0667873 0)
(-0.00741319 0.0781953 -2.01151e-19)
(0.0856365 0.06327 3.53817e-19)
(0.241656 0.0311718 -3.90969e-19)
(0.459202 -0.0103063 -7.16411e-20)
(0.71241 -0.055404 1.2384e-19)
(0.960909 -0.0996178 0)
(1.16458 -0.140998 0)
(1.29791 -0.177481 -1.59014e-19)
(1.35292 -0.210789 -6.11656e-20)
(1.34424 -0.23117 1.16249e-19)
(1.29526 -0.251967 -4.66201e-20)
(1.23363 -0.255457 0)
(1.18116 -0.244972 -9.73281e-20)
(-0.156832 -0.792947 0)
(-0.0633782 -0.716669 3.5824e-21)
(0.146679 -0.324033 -3.32551e-21)
(0.447135 0.201855 0)
(0.592995 0.574607 0)
(0.696961 0.667264 -8.1656e-23)
(0.734505 0.669037 0)
(0.593314 0.716668 0)
(0.512772 0.570683 8.61022e-23)
(0.657532 0.112666 0)
(0.83568 -0.263896 0)
(0.927991 -0.367453 -1.09885e-22)
(0.905646 -0.4661 0)
(0.896277 -0.56782 -7.83947e-23)
(0.904659 -0.472947 -5.97332e-23)
(0.916171 -0.253586 0)
(0.961704 0.0894669 -5.79018e-22)
(0.986796 0.416796 6.956e-22)
(1.02565 0.524668 0)
(1.02714 0.481775 4.11461e-22)
(1.04137 0.164815 -5.20779e-22)
(1.0632 -0.276584 1.04357e-22)
(1.08695 -0.509528 -2.04735e-22)
(1.08914 -0.469634 1.95629e-22)
(1.14278 -0.00230462 -2.3114e-22)
(1.09951 0.631668 0)
(1.10712 0.483369 -2.10679e-22)
(1.0196 -0.228277 2.01439e-22)
(0.959563 -0.425961 -8.75527e-23)
(1.04431 0.0582466 0)
(0.982733 0.223411 -6.92701e-23)
(0.914567 -0.00344355 0)
(0.920913 -0.0936526 -2.98664e-23)
(1.00648 0.0122465 -3.22539e-24)
(0.950284 0.11363 2.58914e-24)
(0.829483 -0.0448255 -3.11069e-23)
(0.830633 -0.0414378 0)
(0.838396 0.03948 -4.3099e-24)
(0.0834112 -0.784355 1.75678e-20)
(-0.0300195 -0.779601 -9.62473e-23)
(-0.0118889 -0.48486 -9.26125e-21)
(0.246226 0.0454431 8.83287e-21)
(0.440073 0.460421 0)
(0.630707 0.605773 8.23036e-23)
(0.679947 0.688384 -1.44566e-22)
(0.555695 0.767108 0)
(0.559775 0.55869 -8.67536e-23)
(0.739763 0.0482247 0)
(0.887758 -0.331188 0)
(0.984245 -0.386679 1.10664e-22)
(0.963631 -0.456076 0)
(0.930486 -0.575034 2.39851e-21)
(0.951558 -0.482219 -2.02819e-21)
(0.934501 -0.263443 2.18732e-21)
(0.94429 0.0727689 -2.08803e-21)
(0.968966 0.397284 -1.43639e-22)
(0.993841 0.512902 0)
(0.998408 0.48001 0)
(1.04302 0.165754 -1.00056e-22)
(1.07114 -0.277506 9.65563e-22)
(1.09923 -0.512944 -1.66936e-21)
(1.08393 -0.473584 8.1715e-22)
(1.11639 -0.0102014 7.52877e-22)
(1.09154 0.627933 0)
(1.12919 0.490055 3.81593e-22)
(1.04203 -0.208519 0)
(0.962493 -0.433039 8.78572e-23)
(1.04486 0.0545544 -1.8032e-22)
(0.985853 0.233276 3.14505e-22)
(0.914373 0.00227383 -3.79515e-23)
(0.919152 -0.100606 6.22769e-23)
(1.0111 0.00871646 -3.90395e-24)
(0.960769 0.125142 1.04596e-23)
(0.840217 -0.0360901 -2.84807e-23)
(0.842142 -0.0428445 -2.24946e-25)
(0.84908 0.0391367 1.87708e-25)
(0.449405 -0.681776 2.2322e-20)
(0.255513 -0.705984 -3.6453e-20)
(0.0437263 -0.593692 3.57786e-21)
(0.170101 -0.172205 1.05071e-20)
(0.416979 0.280547 6.74909e-23)
(0.642761 0.531807 -1.11031e-22)
(0.668829 0.716185 1.47073e-22)
(0.558313 0.808621 -3.21873e-22)
(0.634682 0.548948 0)
(0.845671 0.015612 1.27572e-20)
(0.958294 -0.373634 -1.21665e-20)
(1.03303 -0.401548 -2.39858e-22)
(1.00775 -0.429642 0)
(0.9388 -0.571972 -4.88483e-21)
(0.978887 -0.495611 4.53321e-21)
(0.95622 -0.270165 -2.2763e-21)
(0.929724 0.0600605 2.17226e-21)
(0.952509 0.385058 2.37371e-21)
(0.965623 0.505794 -1.98912e-21)
(0.972448 0.475852 0)
(1.04266 0.168943 0)
(1.07424 -0.26918 1.61931e-21)
(1.1045 -0.509891 -1.54584e-21)
(1.07074 -0.475432 -2.08933e-21)
(1.07827 -0.025255 -1.65465e-22)
(1.0791 0.618912 2.10547e-21)
(1.14541 0.50148 -3.69356e-23)
(1.05917 -0.177577 -5.9065e-22)
(0.960819 -0.435716 1.01677e-21)
(1.04165 0.049056 -8.48717e-22)
(0.9872 0.24323 5.09793e-23)
(0.912554 0.00991028 -1.18525e-22)
(0.914783 -0.107392 4.01219e-23)
(1.01219 0.003824 -3.83622e-23)
(0.970063 0.136055 -2.22668e-23)
(0.850479 -0.0272214 -3.57586e-23)
(0.852357 -0.0442722 1.70638e-23)
(0.859762 0.0387657 -4.08364e-24)
(0.76162 -0.593522 0)
(0.62948 -0.536511 1.12313e-20)
(0.337503 -0.53939 -1.1084e-20)
(0.219151 -0.351253 0)
(0.426443 0.0658756 -6.93702e-23)
(0.64826 0.422942 1.14095e-22)
(0.637599 0.702898 0)
(0.548768 0.816514 3.31108e-23)
(0.696763 0.536628 -4.0486e-22)
(0.950542 0.00679704 0)
(1.03747 -0.394901 -1.01602e-20)
(1.07656 -0.418148 9.93301e-21)
(1.0648 -0.396926 -3.88595e-22)
(0.958622 -0.556971 -5.07947e-21)
(0.9943 -0.516447 4.84367e-21)
(0.982471 -0.281217 2.85103e-22)
(0.927143 0.0373834 0)
(0.937955 0.354914 -2.95766e-22)
(0.928547 0.491421 3.04846e-21)
(0.938123 0.471149 -3.95052e-22)
(1.03519 0.174883 3.62385e-22)
(1.07346 -0.257951 -2.28208e-21)
(1.10429 -0.505101 -3.18203e-21)
(1.05391 -0.474657 3.86971e-21)
(1.03392 -0.0470256 -5.78881e-22)
(1.0563 0.589844 0)
(1.14861 0.504173 -3.53135e-22)
(1.06976 -0.145383 5.98424e-22)
(0.956215 -0.436452 -1.05432e-21)
(1.03502 0.0395648 8.82133e-22)
(0.986329 0.251682 -1.59812e-22)
(0.909314 0.0186703 0)
(0.908593 -0.114111 -4.46073e-23)
(1.01012 -0.0026258 6.43163e-23)
(0.977949 0.146083 2.79413e-23)
(0.860067 -0.0182595 1.14547e-22)
(0.861427 -0.0457337 -1.70758e-23)
(0.870377 0.0382905 4.70687e-25)
(0.952024 -0.563919 3.79805e-22)
(0.864376 -0.445267 4.5027e-22)
(0.686755 -0.370345 0)
(0.426937 -0.364966 0)
(0.415175 -0.124095 0)
(0.571513 0.321901 0)
(0.563927 0.698225 8.47821e-21)
(0.530953 0.800857 -1.92879e-20)
(0.741818 0.500979 1.15787e-20)
(1.0348 0.00268941 0)
(1.11894 -0.387798 -1.03189e-20)
(1.1062 -0.42762 1.01923e-20)
(1.09789 -0.364353 6.44337e-21)
(0.980387 -0.5257 -5.42656e-21)
(0.991036 -0.538179 4.87274e-21)
(1.00022 -0.298943 -4.93775e-21)
(0.921703 0.022717 -3.31887e-22)
(0.917248 0.346513 -4.26933e-21)
(0.899702 0.488955 4.06829e-21)
(0.912602 0.463694 2.79119e-22)
(1.02751 0.180123 2.62877e-22)
(1.07124 -0.241202 2.49058e-21)
(1.09794 -0.495775 -2.7438e-21)
(1.03448 -0.472204 -9.88941e-22)
(0.98099 -0.0712531 -6.38214e-22)
(1.03004 0.564717 -5.38133e-22)
(1.14809 0.514913 0)
(1.07545 -0.105439 0)
(0.949742 -0.432596 0)
(1.02578 0.0284082 0)
(0.984461 0.260159 4.27726e-22)
(0.905555 0.0290186 -2.53278e-22)
(0.901657 -0.12027 9.81726e-23)
(1.00557 -0.010415 -2.35304e-22)
(0.984365 0.155087 3.12475e-23)
(0.868803 -0.00924346 1.72727e-23)
(0.869482 -0.0472346 -3.67422e-23)
(0.880883 0.0376574 7.18666e-24)
(1.0691 -0.460739 -3.99896e-22)
(0.929601 -0.422972 2.41584e-20)
(0.846004 -0.291825 -2.32376e-20)
(0.708071 -0.263089 -1.60417e-21)
(0.514955 -0.208158 1.5278e-21)
(0.488797 0.164553 6.99832e-21)
(0.449227 0.624448 -6.46743e-21)
(0.466885 0.767817 1.92317e-22)
(0.755096 0.477651 -3.91277e-22)
(1.09668 0.0282218 0)
(1.19717 -0.346292 -3.95438e-22)
(1.14413 -0.419413 1.50992e-20)
(1.12472 -0.333148 -1.43754e-20)
(1.01497 -0.481975 -3.43803e-22)
(0.983252 -0.553649 0)
(1.00462 -0.323217 -5.81769e-21)
(0.921645 -0.00912588 1.1097e-20)
(0.900525 0.30562 -4.93195e-21)
(0.861647 0.470466 0)
(0.87386 0.460197 1.90393e-21)
(1.01335 0.193056 -4.2419e-23)
(1.06894 -0.219226 -2.20298e-21)
(1.0877 -0.482956 -3.75048e-21)
(1.01546 -0.467279 3.73738e-21)
(0.93009 -0.101365 -4.94832e-21)
(0.995162 0.517131 1.31701e-21)
(1.13048 0.515719 3.51559e-21)
(1.07276 -0.0677421 -1.59829e-21)
(0.943386 -0.426881 1.51974e-21)
(1.01431 0.0127086 -4.7042e-22)
(0.980658 0.266558 4.47331e-22)
(0.901241 0.040627 0)
(0.894937 -0.125898 1.07217e-22)
(0.99934 -0.0197384 -4.37831e-23)
(0.989371 0.162892 0)
(0.876643 -9.06774e-05 -1.16503e-22)
(0.876591 -0.0487892 1.91148e-23)
(0.891214 0.0368194 8.48339e-24)
(1.09644 -0.373537 0)
(0.973133 -0.351404 0)
(0.845059 -0.276938 -8.12644e-23)
(0.822815 -0.210039 0)
(0.720281 -0.171085 0)
(0.533092 0.10948 -2.02763e-21)
(0.43598 0.56951 1.91654e-21)
(0.50725 0.68922 1.60264e-20)
(0.834166 0.39385 -1.52358e-20)
(1.16656 0.00133288 0)
(1.25159 -0.322981 -3.45919e-22)
(1.17508 -0.413787 2.58582e-22)
(1.13789 -0.312619 -1.21544e-20)
(1.04466 -0.433056 9.48168e-22)
(0.979736 -0.556434 9.90219e-21)
(0.994378 -0.357507 1.70279e-22)
(0.911731 -0.0271181 -1.87878e-22)
(0.874014 0.303916 8.83886e-21)
(0.829059 0.473099 -8.71739e-21)
(0.853807 0.447823 0)
(1.00679 0.1952 0)
(1.07001 -0.195351 -1.31634e-22)
(1.07483 -0.463205 0)
(0.998527 -0.461024 4.97037e-21)
(0.876247 -0.127818 8.43386e-22)
(0.961293 0.48254 -4.72531e-21)
(1.11617 0.524977 -2.36586e-21)
(1.06811 -0.0260114 1.5886e-21)
(0.938785 -0.41764 -1.79313e-22)
(1.00246 -0.00186239 0)
(0.976919 0.273134 -2.93559e-22)
(0.897493 0.0525701 2.78297e-22)
(0.889498 -0.131097 8.25925e-23)
(0.992312 -0.0297121 4.32571e-23)
(0.993067 0.169567 -2.2029e-23)
(0.883729 0.00874131 6.78058e-23)
(0.882748 -0.0504688 0)
(0.90125 0.035753 -6.60237e-24)
(1.10457 -0.302332 5.9693e-20)
(1.02018 -0.299404 3.28118e-20)
(0.899203 -0.270538 -1.23115e-20)
(0.845459 -0.237451 -2.51677e-20)
(0.813505 -0.221718 6.94534e-21)
(0.64488 -0.0124553 3.4415e-23)
(0.444547 0.448944 0)
(0.486052 0.65768 -6.2818e-23)
(0.856521 0.418445 -1.49409e-22)
(1.20799 0.066871 0)
(1.29554 -0.236272 -1.935e-20)
(1.20621 -0.374855 1.8463e-20)
(1.15625 -0.28951 2.11524e-22)
(1.06986 -0.382388 1.01347e-20)
(0.985357 -0.539654 -9.62752e-21)
(0.974603 -0.386358 1.7445e-22)
(0.892952 -0.0817199 1.99395e-22)
(0.846862 0.24536 0)
(0.797236 0.44613 6.15047e-21)
(0.810068 0.449523 -5.83146e-21)
(0.990165 0.220698 -2.02774e-21)
(1.07537 -0.160517 -1.02785e-22)
(1.06344 -0.440611 2.05497e-21)
(0.984141 -0.447509 -4.91688e-21)
(0.831534 -0.165911 -2.5261e-22)
(0.916156 0.419055 8.57552e-21)
(1.08068 0.520706 -2.82931e-21)
(1.05484 0.0231893 1.28817e-21)
(0.936326 -0.404174 -9.03917e-22)
(0.989457 -0.0241385 0)
(0.971575 0.276303 0)
(0.893679 0.0674029 0)
(0.886241 -0.134373 4.23685e-23)
(0.985297 -0.041922 -8.39851e-23)
(0.995973 0.174933 1.07294e-22)
(0.890396 0.0180043 -6.31996e-23)
(0.887961 -0.0522396 -3.59592e-23)
(0.910832 0.0343969 0)
(1.12858 -0.194774 0)
(1.06939 -0.194921 0)
(0.978589 -0.165598 0)
(0.892105 -0.129445 0)
(0.819133 -0.118886 0)
(0.707403 0.0273199 0)
(0.620194 0.378651 0)
(0.8155 0.481833 0)
(1.14 0.230199 0)
(1.3275 0.00715165 0)
(1.33241 -0.178496 0)
(1.21481 -0.322599 0)
(1.17092 -0.23715 0)
(1.09879 -0.303387 0)
(1.00081 -0.522762 0)
(0.950358 -0.42475 0)
(0.863731 -0.0954884 0)
(0.807445 0.252998 0)
(0.744113 0.455658 0)
(0.784663 0.423799 0)
(1.01408 0.20318 0)
(1.09393 -0.136198 0)
(1.05658 -0.426697 0)
(0.957923 -0.451825 0)
(0.805871 -0.179502 0)
(0.885478 0.374633 0)
(1.05103 0.529086 0)
(1.04899 0.055369 0)
(0.933638 -0.392397 0)
(0.974917 -0.0420847 0)
(0.965873 0.283519 0)
(0.888809 0.0797659 0)
(0.885141 -0.138074 0)
(0.976823 -0.0539473 0)
(0.997565 0.180093 0)
(0.898029 0.0279852 0)
(0.893093 -0.0539358 0)
(0.92168 0.0326748 0)
(1.10249 -0.138386 0)
(1.05039 -0.154448 0)
(0.985368 -0.131706 0)
(0.929922 -0.105377 0)
(0.888706 -0.0804204 0)
(0.822148 0.0758476 0)
(0.83605 0.307423 0)
(1.07292 0.311515 0)
(1.25837 0.139378 0)
(1.3174 -0.0224782 0)
(1.28463 -0.174929 0)
(1.17437 -0.274345 0)
(1.11724 -0.227817 0)
(1.04892 -0.323023 0)
(0.970185 -0.486111 0)
(0.90798 -0.336676 0)
(0.798271 -0.023962 0)
(0.726996 0.297346 0)
(0.661988 0.469087 0)
(0.776633 0.364865 0)
(1.03938 0.122567 0)
(1.10472 -0.174588 0)
(1.03284 -0.403831 0)
(0.898723 -0.379739 0)
(0.746126 -0.138443 0)
(0.825213 0.357985 0)
(1.00409 0.495041 0)
(1.04338 0.0464059 0)
(0.93453 -0.380786 0)
(0.960664 -0.0348416 0)
(0.948938 0.297644 0)
(0.885919 0.0845378 0)
(0.894672 -0.147691 0)
(0.973388 -0.0661002 0)
(0.999414 0.187873 0)
(0.908007 0.0384402 0)
(0.898901 -0.0579097 0)
(0.93389 0.0297855 0)
(1.08569 -0.0868753 0)
(1.05279 -0.0922187 0)
(1.0109 -0.0839693 0)
(0.973671 -0.0471823 0)
(0.939938 -0.0237237 0)
(0.906436 0.0604795 0)
(0.956451 0.196363 0)
(1.12387 0.188207 0)
(1.21663 0.0690704 0)
(1.25412 -0.0213847 0)
(1.23668 -0.113927 0)
(1.13962 -0.2255 0)
(1.10966 -0.171755 0)
(1.08545 -0.228423 0)
(0.967824 -0.42697 0)
(0.830094 -0.310682 0)
(0.700254 0.0111452 0)
(0.631306 0.328068 0)
(0.623617 0.429941 0)
(0.809803 0.255 0)
(1.05062 0.0681831 0)
(1.12002 -0.141555 0)
(1.03301 -0.360415 0)
(0.842516 -0.342699 0)
(0.656272 -0.132035 0)
(0.740264 0.305267 0)
(0.974441 0.450321 0)
(1.06261 0.0643263 0)
(0.937896 -0.36298 0)
(0.94369 -0.0441222 0)
(0.933028 0.301573 0)
(0.890206 0.0902017 0)
(0.910584 -0.15597 0)
(0.973737 -0.0790707 0)
(0.999834 0.19444 0)
(0.919115 0.049994 0)
(0.903861 -0.0614606 0)
(0.945098 0.0264902 0)
(1.06961 -0.0519724 0)
(1.05458 -0.0529585 0)
(1.02429 -0.0526326 0)
(0.997346 -0.0261001 0)
(0.982974 -0.00984481 0)
(0.9718 0.0441669 0)
(1.00643 0.109515 0)
(1.10905 0.104296 0)
(1.16587 0.0505809 0)
(1.182 -0.0320593 0)
(1.17686 -0.0958946 0)
(1.11613 -0.170851 0)
(1.05527 -0.176733 0)
(1.02014 -0.249153 0)
(0.92668 -0.345289 0)
(0.743069 -0.183117 0)
(0.605399 0.0882549 0)
(0.584265 0.329547 0)
(0.689605 0.372839 0)
(0.901149 0.166293 0)
(1.06911 -0.0103234 0)
(1.1138 -0.164227 0)
(1.02455 -0.299077 0)
(0.784955 -0.239346 0)
(0.559185 -0.0861775 0)
(0.650528 0.245109 0)
(0.953248 0.380969 0)
(1.08319 0.0565923 0)
(0.94474 -0.333848 0)
(0.918778 -0.0392517 0)
(0.916549 0.308637 0)
(0.902076 0.091074 0)
(0.935329 -0.16612 0)
(0.98098 -0.0917022 0)
(1.00465 0.200896 0)
(0.934281 0.0622527 0)
(0.908795 -0.0655909 0)
(0.955603 0.021778 0)
(1.06002 -0.0286439 0)
(1.05368 -0.0250617 0)
(1.0357 -0.0312441 0)
(1.02064 -0.00912344 0)
(1.0114 0.00062874 0)
(1.01016 0.0278104 0)
(1.03333 0.0634988 0)
(1.08251 0.0524378 0)
(1.12219 0.0222793 0)
(1.13696 -0.0285912 0)
(1.12521 -0.0776267 0)
(1.09508 -0.14247 0)
(1.05746 -0.111332 0)
(1.0131 -0.157309 0)
(0.91801 -0.25982 0)
(0.739423 -0.0992538 0)
(0.648043 0.116995 0)
(0.68586 0.275459 0)
(0.84822 0.26954 0)
(1.01518 0.0727613 0)
(1.09606 -0.0370754 0)
(1.09993 -0.127896 0)
(1.02982 -0.22901 0)
(0.78667 -0.14846 0)
(0.548305 -0.0560283 0)
(0.601491 0.152158 0)
(0.932656 0.290757 0)
(1.10376 0.0604585 0)
(0.967665 -0.296769 0)
(0.878896 -0.0378027 0)
(0.888257 0.307877 0)
(0.921299 0.0847291 0)
(0.966832 -0.175742 0)
(0.989757 -0.101814 0)
(1.00742 0.206365 0)
(0.951071 0.0751553 0)
(0.914049 -0.0689982 0)
(0.965003 0.0163368 0)
(1.05322 -0.012856 0)
(1.05275 -0.00710428 0)
(1.04251 -0.0163386 0)
(1.03272 -0.000995873 0)
(1.02992 0.00173873 0)
(1.02957 0.0146891 0)
(1.04392 0.0327771 0)
(1.0697 0.0196829 0)
(1.09093 0.00908732 0)
(1.09875 -0.0328808 0)
(1.09792 -0.0585007 0)
(1.0587 -0.105853 0)
(1.0218 -0.102366 0)
(1.00351 -0.141519 0)
(0.929495 -0.183791 0)
(0.796133 -0.01021 0)
(0.768289 0.116766 0)
(0.851628 0.187288 0)
(1.00338 0.189791 0)
(1.09034 0.0387721 0)
(1.10487 -0.0516206 0)
(1.06677 -0.124933 0)
(1.00426 -0.17421 0)
(0.837669 -0.0347008 0)
(0.665195 0.00886989 0)
(0.644747 0.0704025 0)
(0.926042 0.175828 0)
(1.10942 0.0410643 0)
(0.993298 -0.245295 0)
(0.831277 -0.0161122 0)
(0.864604 0.300187 0)
(0.959907 0.0654497 0)
(1.00337 -0.186609 0)
(0.998612 -0.107388 0)
(1.00637 0.213038 0)
(0.973258 0.0884515 0)
(0.923562 -0.0718341 0)
(0.974746 0.00948254 0)
(1.04777 -0.00290465 0)
(1.05012 0.0025765 0)
(1.04564 -0.0070428 0)
(1.03937 0.00263864 0)
(1.03996 0.00216815 0)
(1.03707 0.00614013 0)
(1.04866 0.0158762 0)
(1.05659 0.0014461 0)
(1.07103 0.000322651 0)
(1.07099 -0.0340913 0)
(1.06926 -0.0444526 0)
(1.04736 -0.0800704 0)
(1.02014 -0.0717114 0)
(1.00553 -0.077954 0)
(0.928888 -0.12006 0)
(0.86066 0.0177681 0)
(0.88837 0.093594 0)
(0.95199 0.113438 0)
(1.06073 0.123632 0)
(1.1013 0.0123766 0)
(1.09653 -0.0314701 0)
(1.06571 -0.0672367 0)
(0.980798 -0.12456 0)
(0.887103 0.0168739 0)
(0.85952 0.0511433 0)
(0.808642 0.0270869 0)
(0.957244 0.0883437 0)
(1.1142 0.0335782 0)
(1.02474 -0.187618 0)
(0.827164 0.00499132 0)
(0.902051 0.271074 0)
(1.03015 0.0395346 0)
(1.03875 -0.189464 0)
(0.999184 -0.109346 0)
(1.01059 0.2157 0)
(1.00292 0.101658 0)
(0.939319 -0.0714265 0)
(0.98518 0.00257301 0)
(1.0436 0.00291445 0)
(1.04646 0.00735896 0)
(1.04612 -0.00118069 0)
(1.0405 0.00398006 0)
(1.044 0.00196021 0)
(1.03828 0.000717304 0)
(1.04848 0.00721108 0)
(1.04694 -0.00826098 0)
(1.0566 -0.00344857 0)
(1.05445 -0.0303211 0)
(1.0491 -0.0333449 0)
(1.03926 -0.0537231 0)
(1.00506 -0.0592155 0)
(1.00689 -0.0511134 0)
(0.954224 -0.0779013 0)
(0.914072 0.019144 0)
(0.957756 0.0624967 0)
(0.987232 0.0614247 0)
(1.06122 0.0879868 0)
(1.0811 0.0129991 0)
(1.05789 -0.0283091 0)
(1.05569 -0.0436171 0)
(0.984041 -0.0896189 0)
(0.923261 0.0274064 0)
(0.978812 0.0650445 0)
(0.953699 0.018848 0)
(0.997379 0.0340987 0)
(1.09423 0.0184161 0)
(1.03168 -0.131511 0)
(0.861812 0.0243778 0)
(0.975628 0.229028 0)
(1.09898 0.0188214 0)
(1.06466 -0.174882 0)
(0.970107 -0.10313 0)
(0.985656 0.214258 0)
(1.02384 0.111733 0)
(0.960637 -0.0691486 0)
(0.995887 -0.0045319 0)
(1.04025 0.00645646 0)
(1.04221 0.00865854 0)
(1.04422 0.00251959 0)
(1.03905 0.00389196 0)
(1.04364 0.00225945 0)
(1.03708 -0.00162606 0)
(1.04461 0.00254991 0)
(1.04106 -0.0104856 0)
(1.04419 -0.00566284 0)
(1.04458 -0.0243397 0)
(1.0336 -0.025947 0)
(1.03387 -0.035804 0)
(1.00653 -0.0434744 0)
(1.00775 -0.0257073 0)
(0.977548 -0.045009 0)
(0.950576 0.0119759 0)
(0.989483 0.0421983 0)
(0.996726 0.0340662 0)
(1.04125 0.0573305 0)
(1.06488 0.0101291 0)
(1.03984 -0.0177841 0)
(1.04406 -0.0122079 0)
(0.994708 -0.0555068 0)
(0.948251 0.0204239 0)
(1.01348 0.0494379 0)
(1.01451 0.0114357 0)
(1.01787 0.0151444 0)
(1.06614 0.0235197 0)
(1.02644 -0.0851959 0)
(0.903856 0.0252285 0)
(1.02754 0.177344 0)
(1.12689 0.00549204 0)
(1.06818 -0.139025 0)
(0.923956 -0.0812732 0)
(0.944795 0.202923 0)
(1.05099 0.110529 0)
(0.994632 -0.0649151 0)
(1.01012 -0.00992144 0)
(1.03655 0.00818158 0)
(1.03792 0.00868776 0)
(1.04053 0.00446273 0)
(1.03679 0.00395 0)
(1.04005 0.00236932 0)
(1.03524 -0.00177272 0)
(1.03901 0.00037783 0)
(1.0366 -0.0092474 0)
(1.03554 -0.00614977 0)
(1.0373 -0.0177045 0)
(1.02634 -0.0192151 0)
(1.02893 -0.0221789 0)
(1.0095 -0.0301772 0)
(1.00705 -0.0152552 0)
(0.995755 -0.0261507 0)
(0.975259 0.00614878 0)
(1.00218 0.0256372 0)
(1.00545 0.0187242 0)
(1.02684 0.0369219 0)
(1.04931 0.0100712 0)
(1.02536 -0.0129911 0)
(1.03014 -0.00142288 0)
(1.009 -0.0356037 0)
(0.971454 0.013362 0)
(1.01829 0.0351224 0)
(1.02551 0.0112232 0)
(1.01518 0.00400108 0)
(1.04528 0.0199123 0)
(1.02889 -0.0538059 0)
(0.938486 0.0208032 0)
(1.04165 0.13138 0)
(1.11481 0.000225105 0)
(1.05242 -0.093151 0)
(0.902663 -0.056923 0)
(0.942674 0.170512 0)
(1.09641 0.0969978 0)
(1.03907 -0.0560415 0)
(1.02303 -0.0119282 0)
(1.03269 0.00865985 0)
(1.03403 0.00823843 0)
(1.03606 0.00535618 0)
(1.03386 0.00408201 0)
(1.03555 0.00254175 0)
(1.03265 -0.000819994 0)
(1.03389 -0.000248641 0)
(1.03252 -0.00659454 0)
(1.03007 -0.00516908 0)
(1.03137 -0.0120709 0)
(1.02324 -0.013211 0)
(1.02425 -0.0140587 0)
(1.01337 -0.0197471 0)
(1.00933 -0.00834751 0)
(1.00585 -0.0145837 0)
(0.992975 0.00372315 0)
(1.00791 0.0150498 0)
(1.01064 0.0114784 0)
(1.01925 0.022501 0)
(1.03688 0.00837075 0)
(1.02164 -0.00647911 0)
(1.02214 0.00687227 0)
(1.01587 -0.0193067 0)
(0.987313 0.0126454 0)
(1.01602 0.0213431 0)
(1.0256 0.0103053 0)
(1.01563 0.00190978 0)
(1.03166 0.0186742 0)
(1.0296 -0.0294025 0)
(0.961662 0.0166968 0)
(1.03749 0.093522 0)
(1.08957 -0.000887949 0)
(1.03563 -0.0460837 0)
(0.919563 -0.0368018 0)
(0.969916 0.121563 0)
(1.12461 0.0758616 0)
(1.06551 -0.0385563 0)
(1.02562 -0.00610106 0)
(1.02903 0.00850803 0)
(1.0303 0.00769786 0)
(1.03168 0.00569741 0)
(1.03057 0.00429662 0)
(1.03128 0.00294314 0)
(1.02956 0.000358276 0)
(1.02968 0.000188546 0)
(1.02867 -0.00395244 0)
(1.02654 -0.0034846 0)
(1.02689 -0.00754319 0)
(1.02167 -0.00843639 0)
(1.02183 -0.00837056 0)
(1.01554 -0.0119456 0)
(1.01226 -0.00446233 0)
(1.01104 -0.00820809 0)
(1.00382 0.0027195 0)
(1.01141 0.00800662 0)
(1.01329 0.00752909 0)
(1.01694 0.0138854 0)
(1.02749 0.00712348 0)
(1.01875 -0.00208542 0)
(1.01787 0.00818068 0)
(1.0178 -0.0108745 0)
(0.99905 0.0121937 0)
(1.01721 0.0116347 0)
(1.02146 0.0104226 0)
(1.0156 0.00050244 0)
(1.02341 0.0131545 0)
(1.02995 -0.0151618 0)
(0.981349 0.0148176 0)
(1.03239 0.0664184 0)
(1.06471 0.000227347 0)
(1.0253 -0.0107272 0)
(0.952311 -0.0257671 0)
(0.99423 0.075 0)
(1.1168 0.0577033 0)
(1.06379 -0.0184831 0)
(1.02553 0.00178066 0)
(1.02567 0.00806028 0)
(1.02682 0.00713544 0)
(1.02776 0.00578805 0)
(1.02725 0.00448568 0)
(1.02744 0.00337554 0)
(1.02645 0.00147701 0)
(1.02618 0.000971139 0)
(1.02547 -0.00162419 0)
(1.02384 -0.00170808 0)
(1.0238 -0.00407441 0)
(1.02054 -0.00474991 0)
(1.02035 -0.00454645 0)
(1.01663 -0.00679442 0)
(1.01457 -0.00197618 0)
(1.01384 -0.00453784 0)
(1.01006 0.00251658 0)
(1.01379 0.00421879 0)
(1.01439 0.00570436 0)
(1.01612 0.00866674 0)
(1.02209 0.00615165 0)
(1.01725 0.00131507 0)
(1.01691 0.00891239 0)
(1.01807 -0.00449597 0)
(1.00582 0.0131172 0)
(1.0183 0.00515408 0)
(1.01866 0.0102938 0)
(1.01736 0.00123777 0)
(1.01979 0.0102679 0)
(1.02813 -0.00462848 0)
(0.994624 0.0139846 0)
(1.02971 0.0473067 0)
(1.04717 0.00247545 0)
(1.02143 0.0136184 0)
(0.980582 -0.0188234 0)
(1.00948 0.0398112 0)
(1.09339 0.0450863 0)
(1.05237 -0.000196998 0)
(1.02913 0.0087874 0)
(1.02273 0.00746917 0)
(1.02371 0.00659177 0)
(1.02434 0.00568509 0)
(1.02415 0.00458877 0)
(1.02415 0.00371516 0)
(1.02361 0.00238631 0)
(1.02328 0.0017688 0)
(1.02281 0.000182487 0)
(1.02166 -0.000194629 0)
(1.02148 -0.00153105 0)
(1.01949 -0.00214702 0)
(1.01928 -0.00193539 0)
(1.01702 -0.00339376 0)
(1.01585 -0.000334678 0)
(1.01524 -0.00228339 0)
(1.01333 0.00258471 0)
(1.01495 0.00229224 0)
(1.01511 0.00475446 0)
(1.01583 0.00586361 0)
(1.01904 0.00552565 0)
(1.01634 0.00321841 0)
(1.01627 0.0084113 0)
(1.0178 -0.00125323 0)
(1.01001 0.0127833 0)
(1.01912 0.00136144 0)
(1.01669 0.0103262 0)
(1.01817 0.000665431 0)
(1.01775 0.00690617 0)
(1.02628 0.000803808 0)
(1.00414 0.0125573 0)
(1.02826 0.0343958 0)
(1.03515 0.0051181 0)
(1.0197 0.0272191 0)
(1.00119 -0.0174207 0)
(1.01952 0.0149772 0)
(1.07098 0.0372358 0)
(1.04313 0.0114705 0)
(1.03288 0.0114431 0)
(1.02016 0.00681067 0)
(1.02098 0.0060456 0)
(1.02142 0.005444 0)
(1.02143 0.004593 0)
(1.02137 0.00391205 0)
(1.02113 0.00303265 0)
(1.02083 0.00239877 0)
(1.02058 0.0014791 0)
(1.01979 0.000968507 0)
(1.01968 0.000238982 0)
(1.01841 -0.000313465 0)
(1.01834 -0.000166339 0)
(1.01687 -0.00116858 0)
(1.01634 0.000775884 0)
(1.01572 -0.000786436 0)
(1.01487 0.00273731 0)
(1.01541 0.00155586 0)
(1.01546 0.00437597 0)
(1.01557 0.00435603 0)
(1.01744 0.00516952 0)
(1.01587 0.00427242 0)