/*--------------------------------*- C++ -*----------------------------------*\
| =========                 |                                                 |
| \\      /  F ield         | OpenFOAM: The Open Source CFD Toolbox           |
|  \\    /   O peration     | Version:  2312                                  |
|   \\  /    A nd           | Website:  www.openfoam.com                      |
|    \\/     M anipulation  |                                                 |
\*---------------------------------------------------------------------------*/
FoamFile
{
    version     2.0;
    format      ascii;
    arch        "LSB;label=32;scalar=64";
    class       surfaceScalarField;
    location    "15";
    object      phi;
}
// * * * * * * * * * * * * * * * * * * * * * * * * * * * * * * * * * * * * * //

dimensions      [0 3 -1 0 0 0 0];

oriented        oriented;

internalField   nonuniform List<scalar> 
64047
(
-5.55141e-05
0.000407679
-0.000352165
-0.000113028
0.000999572
-0.000942058
-9.67703e-05
0.00138214
-0.00139839
5.25949e-05
0.00154809
-0.00169746
0.000385491
0.00148544
-0.00181834
0.000948998
0.00117651
-0.00174002
0.00179032
0.000599246
-0.00144057
0.00295943
-0.000271001
-0.00089811
0.00450956
-0.00145919
-9.09451e-05
0.00649759
-0.00298782
0.000999787
0.0089788
-0.00487456
0.00239336
0.0120028
-0.00712848
0.00410449
0.0156062
-0.00974677
0.00614336
0.0198052
-0.0127119
0.00851293
0.0245887
-0.0159899
0.0112064
0.0299136
-0.0195301
0.0142052
0.0357031
-0.0232669
0.0174773
0.041849
-0.0271236
0.0209776
0.0482175
-0.0310176
0.0246491
0.0546576
-0.0348657
0.0284256
0.0610129
-0.0385908
0.0322355
0.0671332
-0.0421269
0.0360065
0.072887
-0.0454237
0.0396699
0.0781715
-0.04845
0.0431656
0.0829201
-0.0511947
0.046446
0.0871069
-0.0536662
0.0494794
0.090745
-0.0558897
0.0522516
0.0938819
-0.0579031
0.0547661
0.0965894
-0.0597515
0.0570441
0.0989528
-0.0614801
0.0591166
0.101054
-0.0631336
0.0610325
0.102973
-0.0647395
0.0628203
0.104749
-0.0663435
0.0645672
0.106441
-0.0679039
0.0662127
0.107977
-0.069571
0.068035
0.109251
-0.0709212
0.0696465
-0.0727922
0.0720116
0.110032
-5.73986e-05
0.000465078
-0.000115001
0.00105717
-8.79263e-05
0.00135506
9.48957e-05
0.00136527
0.000498125
0.00108221
0.00118457
0.000490066
0.00221769
-0.000433873
0.00366219
-0.0017155
0.00558232
-0.00337932
0.00803781
-0.00544331
0.0110771
-0.00791388
0.0147297
-0.0107811
0.0189979
-0.014015
0.0238507
-0.0175647
0.0292201
-0.0213593
0.0350022
-0.0253122
0.0410628
-0.0293274
0.0472464
-0.0333072
0.0533894
-0.0371606
0.0593334
-0.0408097
0.0649388
-0.0441963
0.0700968
-0.0472848
0.0747368
-0.0500637
0.0788305
-0.0525438
0.0823905
-0.0547547
0.0854635
-0.0567391
0.0881203
-0.0585465
0.0904436
-0.0602264
0.0925156
-0.0618235
0.0944083
-0.0633728
0.0961761
-0.0649014
0.0978574
-0.0664208
0.0994621
-0.0679482
0.101016
-0.0694575
0.102453
-0.0710087
0.103955
-0.0724224
-0.0741501
0.105313
-4.59633e-05
0.000511041
-7.0995e-05
0.00108221
1.61165e-05
0.00126795
0.000296386
0.001085
0.000847527
0.00053107
0.00174578
-0.00040819
0.00306669
-0.00175478
0.00488292
-0.00353173
0.00725919
-0.00575559
0.0102448
-0.00842889
0.0138644
-0.0115336
0.0181098
-0.0150264
0.0229329
-0.0188381
0.0282445
-0.0228763
0.0339173
-0.0270322
0.0397956
-0.0311905
0.0457084
-0.0352402
0.0514855
-0.0390844
0.0569738
-0.0426488
0.0620508
-0.0458867
0.0666347
-0.0487802
0.0706888
-0.0513388
0.0742195
-0.0535945
0.0772701
-0.0555944
0.0799091
-0.0573937
0.0822174
-0.0590475
0.0842761
-0.0606052
0.0861563
-0.0621066
0.0879137
-0.0635809
0.089587
-0.0650462
0.0911998
-0.0665141
0.0927641
-0.0679851
0.0942862
-0.0694704
0.0957664
-0.0709377
0.0972155
-0.0724578
0.0986361
-0.073843
-0.0755111
0.0999972
-2.47553e-05
0.000535796
8.77296e-06
0.00104868
0.00019542
0.0010813
0.000625479
0.000654943
0.00138655
-0.000230005
0.00256457
-0.0015862
0.00424113
-0.00343134
0.00648779
-0.00577839
0.00935743
-0.00862523
0.0128739
-0.0119454
0.0170222
-0.0156819
0.0217419
-0.019746
0.0269261
-0.0240224
0.0324286
-0.0283787
0.038076
-0.0326796
0.0436862
-0.0368007
0.0490873
-0.0406413
0.0541356
-0.0441327
0.0587283
-0.0472416
0.0628107
-0.049969
0.0663753
-0.0523449
0.0694558
-0.0544193
0.0721146
-0.0562533
0.0744298
-0.0579096
0.0764816
-0.0594455
0.0783422
-0.060908
0.0800694
-0.0623324
0.0817052
-0.0637424
0.0832769
-0.0651526
0.0848016
-0.0665708
0.0862877
-0.0680003
0.0877435
-0.0694409
0.0891679
-0.0708947
0.0905773
-0.0723471
0.0919561
-0.0738365
0.0933521
-0.075239
-0.0768901
0.094731
2.2417e-06
0.000533554
0.000111484
0.000939436
0.000426792
0.000765994
0.00104475
3.69816e-05
0.00206049
-0.00124574
0.00356471
-0.00309043
0.00563747
-0.0055041
0.00833833
-0.00847925
0.0116944
-0.0119813
0.0156886
-0.0159396
0.0202523
-0.0202456
0.0252655
-0.0247592
0.0305655
-0.0293224
0.0359644
-0.0337776
0.0412713
-0.0379865
0.0463147
-0.0418441
0.0509612
-0.0452878
0.0551269
-0.0482984
0.0587806
-0.0508952
0.0619382
-0.0531267
0.0646521
-0.0550588
0.0669959
-0.056763
0.0690499
-0.0583073
0.0708897
-0.0597494
0.0725783
-0.0611341
0.0741635
-0.0624932
0.0756783
-0.0638472
0.0771442
-0.0652082
0.0785742
-0.0665826
0.0799761
-0.0679727
0.0813553
-0.0693795
0.0827153
-0.0708009
0.0840592
-0.0722386
0.085393
-0.073681
0.0867124
-0.075156
0.0880458
-0.0765724
-0.0781862
0.089342
3.16606e-05
0.000501894
0.000227925
0.000743171
0.000691357
0.000302562
0.00152412
-0.00079578
0.0028253
-0.00254692
0.00468431
-0.00494944
0.00717002
-0.0079898
0.0103168
-0.011626
0.0141105
-0.015775
0.0184794
-0.0203084
0.0232937
-0.02506
0.0283776
-0.0298431
0.0335304
-0.0344751
0.038553
-0.0388003
0.0432744
-0.0427078
0.0475701
-0.0461399
0.0513725
-0.0490902
0.0546691
-0.051595
0.0574937
-0.0537198
0.0599108
-0.0555438
0.0619997
-0.0571477
0.06384
-0.0586033
0.0655018
-0.0599691
0.0670406
-0.0612882
0.0684968
-0.0625903
0.0698973
-0.0638937
0.0712592
-0.0652091
0.0725926
-0.0665416
0.0739035
-0.0678935
0.0751956
-0.0692649
0.0764712
-0.0706551
0.0777332
-0.0720629
0.0789824
-0.0734878
0.0802251
-0.0749237
0.0814563
-0.0763872
0.0826982
-0.0778142
-0.0794054
0.0839173
6.24602e-05
0.000439434
0.000353122
0.00045251
0.00097906
-0.000323376
0.00204618
-0.0018629
0.00365309
-0.00415383
0.00587968
-0.00717604
0.00877133
-0.0108814
0.012322
-0.0151767
0.0164622
-0.0199151
0.0210573
-0.0249036
0.025921
-0.0299237
0.0308408
-0.0347629
0.035609
-0.0392434
0.0400529
-0.0432442
0.044054
-0.046709
0.0475563
-0.0496421
0.0505612
-0.0520951
0.0531146
-0.0541484
0.055289
-0.0558942
0.0571663
-0.0574211
0.0588243
-0.0588056
0.0603284
-0.0601074
0.0617285
-0.0613692
0.0630597
-0.0626194
0.0643449
-0.0638755
0.0655981
-0.0651469
0.0668274
-0.0664385
0.0680376
-0.0677519
0.0692316
-0.0690874
0.0704113
-0.0704446
0.0715788
-0.0718226
0.0727361
-0.0732202
0.073885
-0.0746367
0.0750295
-0.0760682
0.0761659
-0.0775236
0.0773124
-0.0789607
-0.080528
0.078435
9.48137e-05
0.00034462
0.000486754
6.0569e-05
0.00128731
-0.00112393
0.0026033
-0.00317889
0.00452634
-0.00607686
0.00711581
-0.00976551
0.0103791
-0.0141447
0.0142551
-0.0190527
0.0186102
-0.0242703
0.0232514
-0.0295447
0.0279546
-0.034627
0.0325023
-0.0393105
0.036716
-0.043457
0.0404784
-0.0470066
0.0437398
-0.0499704
0.0465107
-0.0524129
0.0488446
-0.054429
0.0508192
-0.056123
0.0525177
-0.0575927
0.0540165
-0.0589199
0.0553778
-0.0601669
0.0566478
-0.0613774
0.0578583
-0.0625797
0.0590294
-0.0637905
0.060173
-0.0650192
0.0612961
-0.06627
0.0624024
-0.0675447
0.0634942
-0.0688437
0.0645733
-0.0701665
0.0656411
-0.0715124
0.0666991
-0.0728807
0.067749
-0.0742701
0.0687919
-0.0756795
0.0698302
-0.0771065
0.0708616
-0.078555
0.0718994
-0.0799985
-0.0815438
0.0729152
0.000129818
0.000214801
0.000630626
-0.000440239
0.00161656
-0.00210987
0.00319049
-0.00475283
0.0054278
-0.00831416
0.00835404
-0.0126917
0.0119239
-0.0177146
0.0160119
-0.0231407
0.020423
-0.0286813
0.0249233
-0.034045
0.0292823
-0.038986
0.0333112
-0.0433395
0.036888
-0.0470338
0.0399632
-0.0500818
0.042551
-0.0525582
0.0447095
-0.0545714
0.0465195
-0.056239
0.0480656
-0.0576691
0.0494236
-0.0589507
0.050654
-0.0601503
0.051801
-0.0613139
0.0528942
-0.0624706
0.0539519
-0.0636374
0.054985
-0.0648236
0.0559993
-0.0660335
0.0569981
-0.0672688
0.0579834
-0.06853
0.0589564
-0.0698167
0.0599185
-0.0711286
0.0608709
-0.0724648
0.0618147
-0.0738245
0.0627513
-0.0752066
0.0636814
-0.0766097
0.0646068
-0.0780319
0.0655262
-0.0794744
0.0664495
-0.0809218
-0.0824475
0.0673531
0.000168503
4.62982e-05
0.000786161
-0.0010579
0.00196577
-0.00328947
0.00379881
-0.00658587
0.00633277
-0.0108481
0.00954535
-0.0159043
0.013328
-0.0214972
0.0174907
-0.0273034
0.0217925
-0.0329832
0.025988
-0.0382405
0.0298726
-0.0428706
0.033312
-0.0467789
0.0362508
-0.0499725
0.0387013
-0.0525324
0.0407232
-0.05458
0.0423991
-0.0562473
0.0438152
-0.0576551
0.0450479
-0.0589019
0.0461577
-0.0600604
0.0471878
-0.0611805
0.048167
-0.0622931
0.0491129
-0.0634165
0.0500355
-0.06456
0.0509403
-0.0657284
0.0518302
-0.0669234
0.0527069
-0.0681455
0.0535716
-0.0693947
0.0544254
-0.0706705
0.0552694
-0.0719725
0.0561044
-0.0732998
0.0569315
-0.0746516
0.0577515
-0.0760266
0.058565
-0.0774232
0.059373
-0.0788399
0.060175
-0.0802764
0.0609781
-0.0817249
-0.083233
0.0617636
0.000211284
-0.000164986
0.000952809
-0.00179942
0.00232967
-0.00466634
0.00441216
-0.00866836
0.00720691
-0.0136429
0.0106321
-0.0193295
0.0145127
-0.0253778
0.0186064
-0.0313971
0.0226522
-0.0370291
0.0264244
-0.0420126
0.0297687
-0.0462149
0.0326159
-0.0496261
0.0349712
-0.0523277
0.0368918
-0.054453
0.0384615
-0.0561497
0.0397681
-0.057554
0.04089
-0.058777
0.0418886
-0.0599005
0.042808
-0.0609798
0.0436769
-0.0620495
0.0445131
-0.0631293
0.0453262
-0.0642296
0.0461217
-0.0653555
0.0469023
-0.066509
0.0476696
-0.0676907
0.0484246
-0.0689006
0.0491683
-0.0701384
0.0499016
-0.0714038
0.0506253
-0.0726962
0.0513402
-0.0740148
0.0520471
-0.0753585
0.0527464
-0.0767259
0.0534387
-0.0781154
0.0541245
-0.0795257
0.0548041
-0.080956
0.0554826
-0.0824034
-0.0838965
0.0561461
0.000257836
-0.000422822
0.00112761
-0.00266919
0.00269833
-0.00623706
0.00500765
-0.0109777
0.00800925
-0.0166445
0.0115554
-0.0228757
0.0154119
-0.0292343
0.0193056
-0.0352908
0.0229851
-0.0407086
0.0262687
-0.0452963
0.0290645
-0.0490107
0.0313635
-0.0519251
0.0332167
-0.054181
0.0347068
-0.0559431
0.0359238
-0.0573666
0.0369486
-0.0585788
0.0378455
-0.0596739
0.0386604
-0.0607154
0.0394233
-0.0617427
0.0401524
-0.0627786
0.0408578
-0.0638347
0.0415451
-0.0649169
0.0422169
-0.0660274
0.0428749
-0.067167
0.04352
-0.0683358
0.0441531
-0.0695336
0.0447749
-0.0707602
0.0453863
-0.0720152
0.0459881
-0.073298
0.0465808
-0.0746075
0.047165
-0.0759427
0.0477409
-0.0773018
0.0483088
-0.0786834
0.0488694
-0.0800863
0.0494233
-0.0815099
0.0499742
-0.0829543
-0.0844347
0.0505123
0.000307173
-0.000729995
0.0013055
-0.00366752
0.0030581
-0.00798966
0.00555831
-0.0134779
0.00869792
-0.0197841
0.0122649
-0.0264426
0.015982
-0.0329515
0.0195722
-0.0388809
0.0228186
-0.043955
0.0255972
-0.0480749
0.0278765
-0.0512899
0.0296953
-0.0537439
0.0311326
-0.0556183
0.03228
-0.0570905
0.0332221
-0.0583088
0.0340272
-0.0593839
0.0347443
-0.060391
0.0354058
-0.0613768
0.0360311
-0.062368
0.0366312
-0.0633787
0.037212
-0.0644155
0.0377764
-0.0654813
0.038326
-0.066577
0.0388619
-0.0677028
0.0393847
-0.0688586
0.0398953
-0.0700442
0.0403944
-0.0712593
0.0408827
-0.0725035
0.0413609
-0.0737761
0.0418293
-0.075076
0.0422883
-0.0764016
0.042738
-0.0777515
0.0431788
-0.0791242
0.0436112
-0.0805187
0.0440363
-0.081935
0.0444567
-0.0833747
-0.0848442
0.0448662
0.000357826
-0.00108782
0.00148001
-0.0047897
0.00339335
-0.009903
0.00603666
-0.0161212
0.00923627
-0.0229837
0.0127256
-0.029932
0.0162072
-0.036433
0.0194246
-0.0420984
0.0222119
-0.0467423
0.0245046
-0.0503675
0.0263217
-0.053107
0.0277341
-0.0551563
0.0288333
-0.0567176
0.0297083
-0.0579654
0.0304322
-0.0590327
0.0310589
-0.0600106
0.031624
-0.0609561
0.0321492
-0.061902
0.0326469
-0.0628657
0.0331235
-0.0638553
0.0335824
-0.0648744
0.0340253
-0.0659242
0.0344533
-0.0670049
0.034867
-0.0681165
0.0352672
-0.0692589
0.0356547
-0.0704317
0.0360301
-0.0716347
0.0363941
-0.0728675
0.0367471
-0.0741291
0.0370894
-0.0754183
0.0374213
-0.0767335
0.0377428
-0.078073
0.0380543
-0.0794357
0.0383564
-0.0808208
0.0386505
-0.0822291
0.0389384
-0.0836626
-0.0851224
0.0392167
0.000408016
-0.00149584
0.00164394
-0.00602562
0.00368829
-0.0119474
0.00641822
-0.0188511
0.0095976
-0.0261631
0.0129221
-0.0332565
0.0160971
-0.0396081
0.0189063
-0.0449075
0.0212401
-0.0490762
0.0230874
-0.0522148
0.0245042
-0.0545238
0.025579
-0.056231
0.026404
-0.0575426
0.0270589
-0.0586203
0.0276034
-0.0595772
0.0280778
-0.060485
0.0285072
-0.0613854
0.0289057
-0.0623005
0.0292808
-0.0632408
0.0296365
-0.064211
0.0299748
-0.0652126
0.0302966
-0.0662461
0.030603
-0.0673113
0.0308944
-0.068408
0.0311717
-0.0695361
0.0314354
-0.0706954
0.0316863
-0.0718856
0.0319248
-0.073106
0.0321514
-0.0743557
0.0323662
-0.0756331
0.0325693
-0.0769366
0.0327608
-0.0782646
0.0329412
-0.079616
0.0331111
-0.0809908
0.033272
-0.08239
0.0334253
-0.083816
-0.0852668
0.0335697
0.000455758
-0.00195159
0.00178996
-0.00735982
0.00392848
-0.0140859
0.00668412
-0.0216068
0.00976776
-0.0292467
0.0128573
-0.036346
0.0156817
-0.0424326
0.0180748
-0.0473006
0.0199816
-0.050983
0.0214334
-0.0536666
0.0225098
-0.0556003
0.023305
-0.0570262
0.0239049
-0.0581426
0.0243768
-0.0590922
0.0247671
-0.0599675
0.0251052
-0.0608232
0.0254081
-0.0616883
0.0256848
-0.0625772
0.0259399
-0.063496
0.0261758
-0.064447
0.0263939
-0.0654307
0.0265949
-0.0664471
0.0267795
-0.0674959
0.0269485
-0.0685769
0.0271023
-0.06969
0.0272418
-0.0708349
0.0273673
-0.0720112
0.0274795
-0.0732182
0.0275785
-0.0744547
0.0276646
-0.0757191
0.0277377
-0.0770097
0.0277979
-0.0783248
0.0278457
-0.0796638
0.0278818
-0.0810269
0.0279076
-0.0824158
0.0279244
-0.0838328
-0.0852747
0.0279323
0.000498948
-0.00245054
0.00191125
-0.00877212
0.00410231
-0.0162769
0.00682291
-0.0243274
0.00974517
-0.032169
0.0125493
-0.0391501
0.0150026
-0.0448859
0.0169916
-0.0492896
0.0185089
-0.0525003
0.0196161
-0.0547739
0.0204049
-0.056389
0.0209668
-0.0575881
0.0213776
-0.0585533
0.0216915
-0.0594061
0.0219437
-0.0602197
0.0221549
-0.0610343
0.0223362
-0.0618697
0.0224936
-0.0627345
0.0226299
-0.0636322
0.0227466
-0.0645637
0.0228447
-0.0655288
0.0229248
-0.0665273
0.0229877
-0.0675588
0.0230339
-0.0686231
0.023064
-0.0697201
0.0230787
-0.0708495
0.0230784
-0.0720109
0.0230635
-0.0732033
0.0230342
-0.0744255
0.0229907
-0.0756756
0.022933
-0.0769519
0.022861
-0.0782529
0.0227753
-0.079578
0.0226765
-0.080928
0.0225657
-0.0823051
0.022444
-0.0837111
-0.0851434
0.0223127
0.000535823
-0.00298637
0.00200263
-0.0102389
0.00420248
-0.0184768
0.00683114
-0.026956
0.00953905
-0.0348769
0.0120262
-0.0416373
0.0141062
-0.0469658
0.0157157
-0.050899
0.0168849
-0.0536695
0.0176947
-0.0555837
0.0182396
-0.0569339
0.0186038
-0.0579523
0.0188508
-0.0588003
0.0190233
-0.0595786
0.0191472
-0.0603436
0.0192367
-0.0611238
0.0192992
-0.0619322
0.0193385
-0.0627738
0.0193565
-0.0636502
0.0193542
-0.0645614
0.0193325
-0.065507
0.0192918
-0.0664866
0.0192329
-0.0674998
0.0191562
-0.0685465
0.0190624
-0.0696263
0.018952
-0.0707391
0.0188254
-0.0718843
0.0186829
-0.0730609
0.0185248
-0.0742674
0.0183512
-0.075502
0.018162
-0.0767627
0.0179573
-0.0780483
0.0177377
-0.0793583
0.0175036
-0.080694
0.0172559
-0.0820574
0.0169951
-0.0834502
-0.0848712
0.0167228
0.000565971
-0.00355234
0.00206174
-0.0117347
0.00422658
-0.0206416
0.00671271
-0.0294422
0.00916682
-0.037331
0.0113218
-0.0437922
0.0130399
-0.0486839
0.0143013
-0.0521604
0.0151634
-0.0545316
0.0157168
-0.0561371
0.0160525
-0.0572697
0.0162446
-0.0581444
0.0163452
-0.0589009
0.0163868
-0.0596202
0.016388
-0.0603449
0.0163587
-0.0610945
0.0163038
-0.0618772
0.0162256
-0.0626957
0.0161257
-0.0635502
0.0160046
-0.0644404
0.0158632
-0.0653656
0.0157019
-0.0663253
0.0155212
-0.0673192
0.0153217
-0.068347
0.0151039
-0.0694085
0.0148683
-0.0705034
0.0146152
-0.0716312
0.0143449
-0.0727906
0.0140576
-0.0739801
0.0137535
-0.0751978
0.0134324
-0.0764416
0.0130945
-0.0777104
0.0127404
-0.0790042
0.0123706
-0.0803243
0.0119862
-0.081673
0.0115876
-0.0830516
0.0111768
-0.0844604
-0.000352455
0.0013116
-0.000959141
-0.0012033
0.00308634
-0.00223549
-0.00240859
0.00427779
-0.0030725
-0.00386085
0.00505432
-0.00360206
-0.00548445
0.0055555
-0.00393191
-0.00723099
0.00589076
-0.00414422
-0.00907287
0.00613571
-0.00429383
-0.0109961
0.00633533
-0.00441208
-0.0129944
0.00651187
-0.0045136
-0.0150647
0.00667349
-0.00460315
-0.0172051
0.00682104
-0.00468068
-0.0194131
0.00695228
-0.00474423
-0.0216858
0.00706405
-0.00479141
-0.024019
0.0071531
-0.00481989
-0.0264079
0.00721634
-0.00482747
-0.0288466
0.00725098
-0.0048122
-0.0313288
0.00725452
-0.00477237
-0.0338471
0.00722478
-0.00470651
-0.0363935
0.0071599
-0.00461344
-0.0389596
0.00705836
-0.00449225
-0.0415363
0.00691899
-0.00434228
-0.0441141
0.00674096
-0.00416318
-0.046683
0.0065238
-0.0039549
-0.0492328
0.00626739
-0.00371766
-0.0517527
0.00597196
-0.00345198
-0.0542322
0.00563802
-0.00315854
-0.0566608
0.00526649
-0.00283794
-0.0590276
0.00485863
-0.00249184
-0.0613218
0.00441594
-0.00212166
-0.0635332
0.00394021
-0.00172887
-0.0656513
0.00343338
-0.00131522
-0.0676667
0.00289727
-0.00088188
-0.069573
0.00233365
-0.000427394
-0.0713665
0.00174496
4.8591e-05
-0.0730163
0.00113698
0.000512808
-0.0745255
0.000507866
0.00100129
-0.000137069
-0.0758878
0.00149937
-0.000291307
0.0016029
-0.00101875
0.00381379
-0.00207381
0.00533284
-0.00336749
0.00634801
-0.004831
0.00701901
-0.00641586
0.00747562
-0.00809112
0.00781098
-0.0098388
0.008083
-0.0116489
0.00832202
-0.0135158
0.00854031
-0.0154349
0.00874022
-0.0174022
0.00891956
-0.0194128
0.00907458
-0.0214609
0.0092012
-0.02354
0.00929549
-0.0256429
0.00935386
-0.0277614
0.00937307
-0.0298869
0.00935027
-0.03201
0.00928297
-0.0341208
0.00916911
-0.0362088
0.00900705
-0.0382634
0.00879552
-0.0402733
0.00853371
-0.0422271
0.00822117
-0.044113
0.00785789
-0.0459192
0.00744425
-0.0476338
0.00698106
-0.0492447
0.00646955
-0.0507401
0.00591129
-0.0521081
0.00530824
-0.0533375
0.00466277
-0.0544181
0.00397783
-0.0553414
0.00325696
-0.0560995
0.0025031
-0.056681
0.00171844
-0.057083
0.000909932
8.00116e-05
-0.0573001
-0.00021573
0.00181863
-0.000786798
0.00438486
-0.00164772
0.00619377
-0.00273366
0.00743394
-0.0039861
0.00827145
-0.00535791
0.00884743
-0.00681494
0.00926801
-0.00833448
0.00960254
-0.00990214
0.00988969
-0.0115086
0.0101467
-0.0131467
0.0103784
-0.0148102
0.0105831
-0.0164924
0.0107568
-0.0181862
0.0108949
-0.0198835
0.0109928
-0.0215757
0.0110461
-0.0232538
0.0110511
-0.0249078
0.0110043
-0.0265276
0.0109028
-0.0281026
0.0107441
-0.0296218
0.0105262
-0.0310738
0.0102475
-0.0324471
0.00990699
-0.0337298
0.00950396
-0.0349102
0.0090382
-0.0359758
0.00850994
-0.0369146
0.0079198
-0.0377139
0.00726886
-0.0383612
0.00655863
-0.0388441
0.00579106
-0.0391499
0.00496858
-0.0392663
0.00409428
-0.039182
0.00317263
-0.038888
0.0022091
-0.0383773
0.00120777
-0.0376362
0.000168833
-0.000860136
-0.0366961
-0.000132005
0.00195064
-0.000524093
0.00477694
-0.00115733
0.00682701
-0.00199531
0.00827193
-0.00299357
0.0092697
-0.00410872
0.00996259
-0.00530439
0.0104637
-0.00655314
0.0108513
-0.00783567
0.0111722
-0.00913849
0.0114496
-0.0104515
0.0116914
-0.011766
0.0118976
-0.0130739
0.0120647
-0.0143665
0.0121876
-0.0156351
0.0122613
-0.0168702
0.0122813
-0.0180622
0.0122431
-0.0192009
0.012143
-0.0202759
0.0119778
-0.0212767
0.0117449
-0.0221925
0.011442
-0.0230124
0.0110674
-0.0237254
0.01062
-0.0243204
0.0100989
-0.024786
0.00950382
-0.0251109
0.00883485
-0.0252836
0.00809252
-0.0252924
0.00727767
-0.0251254
0.00639166
-0.0247707
0.00543627
-0.0242157
0.00441362
-0.0234475
0.00332609
-0.0224518
0.0021769
-0.0212151
0.00097237
-0.0197288
-0.000278462
-0.0180004
-0.0015596
-0.00290938
-0.0159511
-4.67707e-05
0.00199741
-0.000249285
0.00497946
-0.000633859
0.00721158
-0.00119485
0.00883292
-0.00190531
0.00998017
-0.00272884
0.0107861
-0.00362887
0.0113637
-0.00457414
0.0117966
-0.00554041
0.0121385
-0.00650969
0.0124188
-0.00746844
0.0126501
-0.00840564
0.0128348
-0.00931145
0.0129705
-0.0101764
0.0130525
-0.010991
0.0130759
-0.0117455
0.0130358
-0.0124303
0.0129278
-0.0130353
0.012748
-0.0135507
0.0124932
-0.0139663
0.0121605
-0.0142721
0.0117478
-0.0144581
0.0112534
-0.0145141
0.010676
-0.01443
0.0100149
-0.0141959
0.00926966
-0.0138015
0.00844045
-0.0132367
0.00752778
-0.0124916
0.00653254
-0.0115557
0.00545572
-0.0104191
0.00429974
-0.00907182
0.00306629
-0.00750352
0.00175779
-0.0056986
0.000371988
-0.0036539
-0.00107233
-0.00134344
-0.00258892
0.00125379
-0.00415683
-0.00572478
0.00406919
3.35692e-05
0.00196384
1.88779e-05
0.00499415
-0.000110682
0.00734114
-0.000379069
0.0091013
-0.0007795
0.0103806
-0.00128615
0.0112928
-0.00186537
0.0119429
-0.0024839
0.0124151
-0.0031133
0.0127679
-0.00373111
0.0130366
-0.00432001
0.013239
-0.00486628
0.0133811
-0.00535837
0.0134625
-0.00578584
0.01348
-0.00613878
0.0134289
-0.00640749
0.0133045
-0.00658241
0.0131027
-0.00665403
0.0128197
-0.00661297
0.0124521
-0.00644993
0.0119975
-0.00615565
0.0114535
-0.00572103
0.0108188
-0.00513702
0.010092
-0.00439466
0.00927251
-0.00348512
0.00836012
-0.00239969
0.00735502
-0.0011298
0.00625789
0.000332892
0.00506985
0.00199557
0.00379304
0.00386624
0.00242907
0.00595215
0.000980382
0.00825854
-0.000548603
0.0107872
-0.00215665
0.0135519
-0.00383707
0.016563
-0.00560001
0.0198033
-0.00739718
-0.00933321
0.0234118
0.000103284
0.00186055
0.000261207
0.00483623
0.000378242
0.00722411
0.000403118
0.00907643
0.000321531
0.0104622
0.000145699
0.0114686
-9.71691e-05
0.0121858
-0.000374685
0.0126926
-0.000655939
0.0130491
-0.000914587
0.0132953
-0.00112949
0.0134539
-0.00128391
0.0135355
-0.00136424
0.0135429
-0.00135886
0.0134746
-0.00125734
0.0133273
-0.00104997
0.0130972
-0.000727454
0.0127802
-0.00028084
0.0123731
0.00029859
0.0118727
0.00101934
0.0112767
0.00188965
0.0105832
0.00291754
0.00979087
0.00411081
0.0088987
0.00547697
0.00790635
0.00702316
0.00681393
0.00875609
0.00562208
0.0106819
0.0043321
0.0128057
0.00294608
0.0151333
0.00146535
0.017668
-0.000105631
0.0204131
-0.00176466
0.0233707
-0.00350618
0.0265466
-0.00533254
0.0299365
-0.00722704
0.0335661
-0.00922955
0.0374035
-0.0112346
-0.0135213
0.0415916
0.000158325
0.00170223
0.000463768
0.00453078
0.000802841
0.00688503
0.00110431
0.00877496
0.00133438
0.0102321
0.00148971
0.0113133
0.00158758
0.0120879
0.00165593
0.0126243
0.00172553
0.0129795
0.00182504
0.0131958
0.00197882
0.0133001
0.0022067
0.0133076
0.00252468
0.0132249
0.00294588
0.0130534
0.00348153
0.0127917
0.00414151
0.0124372
0.00493484
0.0119869
0.00586989
0.011438
0.00695451
0.0107881
0.00819609
0.0100351
0.00960159
0.00917775
0.0111774
0.00821501
0.0129296
0.00714656
0.0148633
0.00597264
0.0169831
0.00469413
0.0192925
0.00331264
0.0217951
0.00182951
0.0244895
0.00025175
0.0273816
-0.00142677
0.0304693
-0.00319339
0.0337541
-0.00504948
0.0372349
-0.00698692
0.0409223
-0.00901994
0.044805
-0.0111097
0.0489336
-0.0133582
0.0532429
-0.0155438
-0.0182163
0.0579379
0.000196174
0.00150605
0.000614958
0.004112
0.00113791
0.00636208
0.00168218
0.00823069
0.00219867
0.00971563
0.00266884
0.0108431
0.00309777
0.011659
0.00350559
0.0122164
0.00391954
0.0125656
0.00436806
0.0127473
0.00487722
0.012791
0.00546926
0.0127156
0.00616246
0.0125317
0.0069717
0.0122442
0.00790918
0.0118542
0.00898513
0.0113612
0.0102083
0.0107637
0.0115863
0.01006
0.0131258
0.00924858
0.0148326
0.00832834
0.0167117
0.0072987
0.018767
0.00615963
0.0210018
0.00491179
0.0234179
0.00355653
0.0260167
0.00209533
0.0287958
0.000533601
0.0317573
-0.00113203
0.0349022
-0.00289315
0.038224
-0.00474852
0.0417248
-0.00669424
0.0454087
-0.00873337
0.0492771
-0.0108553
0.0533545
-0.0130974
0.0576289
-0.0153841
0.062193
-0.0179223
0.0669451
-0.020296
-0.0234468
0.0721756
0.000216217
0.00128984
0.000709109
0.00361911
0.00136673
0.00570446
0.00210396
0.00749346
0.00286272
0.00895687
0.00361206
0.0100938
0.00434462
0.0109264
0.00507042
0.0114906
0.00581003
0.011826
0.00658853
0.0119688
0.00743125
0.0119483
0.00836119
0.0117856
0.00939802
0.0114949
0.0105579
0.0110842
0.011854
0.0105582
0.0132966
0.0099186
0.0148941
0.00916619
0.0166531
0.00830104
0.0185784
0.00732323
0.0206737
0.00623303
0.0229412
0.0050312
0.0253818
0.00371908
0.0279952
0.00229838
0.0307787
0.000773053
0.0337315
-0.000857514
0.036855
-0.00258991
0.040143
-0.00442002
0.0435971
-0.00634719
0.0472204
-0.00837187
0.0510214
-0.0104952
0.0550165
-0.0127284
0.0592228
-0.0150616
0.0636855
-0.0175601
0.0684042
-0.0201027
0.0735072
-0.0230253
0.0788648
-0.0256536
-0.0294116
0.0848296
0.000219497
0.00107034
0.000745895
0.00309271
0.00148245
0.0049679
0.00235036
0.00662555
0.00328981
0.00801741
0.00426232
0.00912125
0.00525015
0.0099386
0.00625284
0.0104879
0.00728223
0.0107966
0.00835726
0.0108937
0.00949964
0.0108059
0.0107307
0.0105546
0.0120697
0.0101559
0.0135328
0.00962118
0.015133
0.00895795
0.0168804
0.00817116
0.0187824
0.00726418
0.020844
0.00623949
0.023068
0.00509926
0.0254554
0.00384559
0.0280057
0.00248093
0.0307172
0.00100754
0.0335867
-0.000571158
0.036618
-0.00225822
0.0398067
-0.0040462
0.0431544
-0.00593763
0.0466684
-0.00793404
0.0503616
-0.0100403
0.0542537
-0.012264
0.058374
-0.0146155
0.0627579
-0.0171124
0.0674488
-0.0197524
0.0724983
-0.0226097
0.0779295
-0.0255339
0.0838397
-0.0289355
0.0901102
-0.031924
-0.0363147
0.0970133
0.000208231
0.000862109
0.000729663
0.00257128
0.00148813
0.00420943
0.00241766
0.00569603
0.00346348
0.0069716
0.00458531
0.00799941
0.00575892
0.00876499
0.00697507
0.0092718
0.00823661
0.00953505
0.00955469
0.00957566
0.010945
0.00941556
0.0124247
0.00907487
0.0140102
0.00857041
0.0157158
0.00791558
0.0175531
0.00712063
0.0195308
0.00619343
0.0216549
0.00514011
0.0239287
0.00396573
0.0263533
0.00267465
0.0289303
0.00126857
0.0316546
-0.000243367
0.0345364
-0.00187434
0.0375748
-0.00360947
0.0407728
-0.00545631
0.0441446
-0.007418
0.0477087
-0.00950169
0.0514921
-0.0117175
0.0555306
-0.0140788
0.0598657
-0.0165991
0.0645471
-0.0192969
0.0696169
-0.0221822
0.0751278
-0.0252633
0.0810905
-0.0285724
0.0875412
-0.0319847
0.0944319
-0.0358262
0.101729
-0.0392213
-0.0439742
0.109389
0.000185189
0.00067692
0.000667982
0.00208849
0.0013951
0.00348231
0.0023173
0.00477383
0.00338988
0.00589902
0.00457611
0.00681318
0.0058498
0.0074913
0.00719604
0.00792556
0.00861019
0.00812091
0.0100956
0.00809025
0.0116609
0.0078503
0.0133172
0.00741847
0.0150766
0.00681109
0.0169497
0.00604242
0.0189459
0.00512445
0.0210723
0.00406699
0.0233346
0.00287789
0.0257375
0.00156285
0.0282789
0.000133193
0.0309756
-0.00142814
0.0338348
-0.00310252
0.0368615
-0.00490104
0.0400797
-0.00682768
0.0435151
-0.00889175
0.0472026
-0.0111055
0.0511842
-0.0134832
0.0555065
-0.0160398
0.0602178
-0.01879
0.0653609
-0.0217422
0.070971
-0.0249071
0.0770565
-0.0282677
0.0836255
-0.0318323
0.0906009
-0.0355477
0.0979904
-0.0393742
0.105549
-0.0433852
0.11338
-0.0470518
-0.0515871
0.120993
0.000153153
0.000523767
0.000570075
0.00167156
0.00122051
0.00283188
0.00207336
0.00392098
0.0030969
0.00487548
0.00426175
0.00564833
0.00554386
0.00620919
0.00692631
0.00654311
0.00839965
0.00664756
0.00996111
0.00652879
0.011613
0.00619844
0.0133608
0.00567062
0.015212
0.00495986
0.0171748
0.0040797
0.0192573
0.00304186
0.0214685
0.0018558
0.0238171
0.000529313
0.0263165
-0.000936546
0.0289889
-0.00253922
0.0318448
-0.00428405
0.0349182
-0.0061759
0.0382424
-0.00822523
0.0418597
-0.010445
0.0458171
-0.0128491
0.0501626
-0.015451
0.0549406
-0.0182613
0.0601863
-0.0212855
0.0659181
-0.0245218
0.0721326
-0.0279567
0.0787983
-0.0315727
0.0858516
-0.035321
0.0932085
-0.0391893
0.100719
-0.0430579
0.108314
-0.0469698
0.115666
-0.0507369
0.122951
-0.0543365
-0.0580495
0.129413
0.000114719
0.000409047
0.000445959
0.00134032
0.00098544
0.0022924
0.0017199
0.00318652
0.00263147
0.00396391
0.00370029
0.00457951
0.00490755
0.00500193
0.00623784
0.00521283
0.00768048
0.00520492
0.00922987
0.0049794
0.0108851
0.00454318
0.0126495
0.00390629
0.0145296
0.00307973
0.0165355
0.0020738
0.0186811
0.000896272
0.020984
-0.000447112
0.0234695
-0.00195615
0.0261654
-0.0036325
0.029109
-0.00548278
0.0323415
-0.00751656
0.035911
-0.00974541
0.0398667
-0.0121809
0.0442545
-0.0148328
0.0491119
-0.0177065
0.0544613
-0.0208004
0.0603043
-0.0241043
0.0666168
-0.0275981
0.0733448
-0.0312497
0.0804067
-0.0350186
0.0876874
-0.0388534
0.0950584
-0.042692
0.102359
-0.04649
0.109437
-0.0501354
0.116153
-0.0536865
0.122291
-0.0568743
0.127979
-0.0600249
-0.0626764
0.132606
7.25883e-05
0.000336459
0.000306769
0.00110614
0.000714772
0.00188439
0.00129991
0.00260138
0.00205785
0.00320597
0.00297931
0.00365805
0.0040531
0.00392814
0.00526887
0.00399705
0.00661919
0.0038546
0.00810091
0.00349768
0.00971602
0.00292807
0.0114722
0.00215009
0.0133835
0.00116844
0.0154694
-1.21128e-05
0.0177598
-0.00139406
0.0202891
-0.00297643
0.0230992
-0.00476626
0.026238
-0.00677129
0.0297557
-0.00900048
0.0337009
-0.0114618
0.0381149
-0.0141595
0.0430261
-0.0170921
0.0484432
-0.0202499
0.0543506
-0.0236138
0.0607045
-0.0271544
0.0674321
-0.0308319
0.0744324
-0.0345984
0.0815797
-0.038397
0.0887323
-0.0421712
0.0957345
-0.0458556
0.102444
-0.0494015
0.108705
-0.0527508
0.114432
-0.0558631
0.119502
-0.0587556
0.123909
-0.0612813
0.12769
-0.0638059
-0.0656595
0.130673
3.01461e-05
0.000306313
0.000165843
0.000970446
0.000438218
0.00161202
0.000865694
0.00217391
0.00145695
0.00261472
0.0022141
0.00290089
0.00313607
0.00300617
0.00422171
0.00291142
0.0054725
0.00260381
0.00689479
0.00207539
0.00850149
0.00132137
0.0103133
0.000338286
0.0123592
-0.000877483
0.0146778
-0.00233073
0.0173121
-0.00402833
0.0203127
-0.00597699
0.0237297
-0.00818334
0.0276096
-0.0106512
0.0319881
-0.013379
0.0368844
-0.016358
0.0422947
-0.0195699
0.0481889
-0.0229863
0.0545075
-0.0265685
0.0611621
-0.0302684
0.0680386
-0.0340309
0.0750023
-0.0377957
0.0819061
-0.0415021
0.0885996
-0.0450905
0.0949405
-0.0485121
0.100804
-0.0517193