/*--------------------------------*- C++ -*----------------------------------*\
| =========                 |                                                 |
| \\      /  F ield         | OpenFOAM: The Open Source CFD Toolbox           |
|  \\    /   O peration     | Version:  2312                                  |
|   \\  /    A nd           | Website:  www.openfoam.com                      |
|    \\/     M anipulation  |                                                 |
\*---------------------------------------------------------------------------*/
FoamFile
{
    version     2.0;
    format      ascii;
    arch        "LSB;label=32;scalar=64";
    class       surfaceScalarField;
    location    "90.05";
    object      phi;
}
// * * * * * * * * * * * * * * * * * * * * * * * * * * * * * * * * * * * * * //

dimensions      [0 3 -1 0 0 0 0];

oriented        oriented;

internalField   nonuniform List<scalar> 
10785
(
0.000223538
0.00319598
-0.00341951
0.00150203
0.00308577
-0.00436426
0.00583749
-0.00259455
-0.0017409
0.0156551
-0.0146861
0.00486845
0.0325037
-0.0332675
0.0164189
0.0558859
-0.0562339
0.0328518
0.0834489
-0.0802036
0.0526406
0.112121
-0.102155
0.0734827
0.139053
-0.120115
0.093183
0.162779
-0.133679
0.109954
0.182168
-0.143175
0.123786
0.197758
-0.149415
0.133825
0.210838
-0.154559
0.141479
0.221337
-0.15808
0.147581
-0.162747
0.151435
0.232649
0.000626012
0.00256996
0.00377108
-5.9297e-05
0.0122481
-0.0110716
0.0284408
-0.0308788
0.0519435
-0.0567703
0.0793748
-0.0836653
0.106511
-0.10734
0.130007
-0.125651
0.148386
-0.138494
0.161727
-0.147019
0.171346
-0.152794
0.179663
-0.157732
0.18778
-0.162676
0.197775
-0.168076
-0.175624
0.210652
0.000957966
0.001612
0.00654623
-0.00564756
0.0202026
-0.0247279
0.0423875
-0.0530637
0.0687855
-0.0831683
0.0939429
-0.108823
0.114169
-0.127567
0.128482
-0.139964
0.138042
-0.148054
0.145056
-0.154033
0.151885
-0.159623
0.159656
-0.165503
0.168842
-0.171862
0.179552
-0.178786
-0.18596
0.189888
0.0016613
-4.93034e-05
0.0106332
-0.0146195
0.0296146
-0.0437093
0.0542707
-0.0777197
0.0776695
-0.106567
0.0956128
-0.126766
0.107578
-0.139532
0.1154
-0.147786
0.121472
-0.154126
0.127532
-0.160094
0.13404
-0.166131
0.140928
-0.172391
0.147948
-0.178882
0.154853
-0.185691
-0.193176
0.162069
0.00286499
-0.00291429
0.0159261
-0.0276806
0.0377311
-0.0655143
0.0597611
-0.0997497
0.0765621
-0.123368
0.0874744
-0.137678
0.094451
-0.146508
0.0996733
-0.153008
0.10441
-0.158863
0.108972
-0.164656
0.113506
-0.170664
0.118178
-0.177064
0.123237
-0.183941
0.129105
-0.191559
-0.199535
0.135464
0.00458614
-0.00750044
0.0208798
-0.0439743
0.0414463
-0.0860807
0.0580438
-0.116347
0.0687778
-0.134102
0.075249
-0.144149
0.0795064
-0.150765
0.0828271
-0.156329
0.0857903
-0.161826
0.0887845
-0.16765
0.0920502
-0.17393
0.0956691
-0.180682
0.0996419
-0.187914
0.103594
-0.195511
-0.203343
0.107403
0.00655939
-0.0140598
0.0237562
-0.0611711
0.0403896
-0.102714
0.0516008
-0.127558
0.0579344
-0.140436
0.0613989
-0.147614
0.0635635
-0.15293
0.065286
-0.158052
0.0669738
-0.163514
0.068723
-0.169399
0.0705069
-0.175714
0.0723267
-0.182502
0.074178
-0.189765
0.0761815
-0.197514
-0.205567
0.0784046
0.00815239
-0.0222122
0.0237015
-0.0767202
0.0359124
-0.114925
0.0426994
-0.134345
0.045762
-0.143498
0.0470139
-0.148866
0.0475877
-0.153504
0.0479279
-0.158392
0.0481251
-0.163711
0.0482248
-0.169499
0.0483119
-0.175801
0.0484527
-0.182643
0.0487061
-0.190018
0.0489964
-0.197805
0.0493543
-0.205924
-0.00124918
-0.0137065
0.0149557
-0.00499769
-0.027379
0.0311275
-0.0106408
-0.0331767
0.0388198
-0.0174514
-0.036391
0.0432016
-0.0248747
-0.0398294
0.0472527
-0.0324282
-0.0438053
0.0513588
-0.0395423
-0.0476009
0.0547149
-0.0455219
-0.0503629
0.0563425
-0.0496071
-0.0512176
0.0553028
-0.0510735
-0.0492847
0.0507511
-0.0493591
-0.0437825
0.042068
-0.0440024
-0.034046
0.0286893
-0.0348255
-0.0193736
0.0101967
-0.0220732
0.000892581
-0.0136449
0.0243055
-0.00358798
-0.0427907
-0.00253616
-0.0111704
-0.0080078
-0.0219074
-0.0152601
-0.0259244
-0.0237839
-0.0278672
-0.0333466
-0.0302667
-0.0437016
-0.0334503
-0.0544341
-0.0368684
-0.0649293
-0.0398677
-0.0744012
-0.0417457
-0.0819525
-0.0417334
-0.0866049
-0.03913
-0.087185
-0.0334659
-0.0824891
-0.0240695
-0.0725962
-0.00900023
0.00795495
-0.0562456
-0.00323037
-0.00793999
-0.00943204
-0.0157057
-0.0171194
-0.0182371
-0.0258244
-0.0191622
-0.035424
-0.0206671
-0.0457357
-0.0231385
-0.056409
-0.0261951
-0.0669392
-0.0293375
-0.07666
-0.0320249
-0.0847608
-0.0336325
-0.0905038
-0.033387
-0.0926031
-0.0313667
-0.0884436
-0.028229
-0.0800508
-0.0173931
-0.0105392
-0.0615566
-0.00341618
-0.00452381
-0.00964072
-0.00948117
-0.0169861
-0.0108917
-0.024908
-0.0112402
-0.0332224
-0.0123527
-0.0416344
-0.0147265
-0.0496372
-0.0181923
-0.0565881
-0.0223866
-0.0618275
-0.0267855
-0.0646987
-0.0307614
-0.064378
-0.0337077
-0.0611276
-0.0346171
-0.0514477
-0.0379089
-0.0392979
-0.0295428
-0.0321835
-0.0176536
-0.0032031
-0.00132071
-0.00891738
-0.00376689
-0.0153547
-0.00445442
-0.0218056
-0.00478927
-0.0278829
-0.00627546
-0.033043
-0.00956641
-0.0365252
-0.0147101
-0.037483
-0.0214289
-0.0351034
-0.0291651
-0.0288837
-0.036981
-0.0186653
-0.0439261
-0.0034781
-0.0498043
0.01567
-0.0570569
0.0406385
-0.0545113
-0.064443
0.072898
-0.0025997
0.00127899
-0.00719639
0.000829796
-0.0119617
0.000310865
-0.0159138
-0.000837179
-0.0182584
-0.00393087
-0.0180618
-0.009763
-0.0143425
-0.0184294
-0.00633932
-0.0294321
0.00638918
-0.0418936
0.0238274
-0.0544193
0.0456967
-0.0657954
0.0719647
-0.0760722
0.101027
-0.0861189
0.136158
-0.0896426
-0.101574
0.173288
-0.0015969
0.00287588
-0.00441763
0.00365053
-0.00668896
0.0025822
-0.00693057
-0.000595568
-0.0039012
-0.00696024
0.00363306
-0.0172973
0.016471
-0.0312673
0.034661
-0.0476221
0.0576346
-0.0648672
0.0842633
-0.0810479
0.113945
-0.0954774
0.145674
-0.107801
0.176947
-0.117392
0.212551
-0.125247
-0.132867
0.243844
-0.00054363
-0.00125737
-0.000416066
0.00385681
0.0133155
0.0288701
0.0502433
0.0761039
0.10442
0.133325
0.161634
0.187658
0.211745
0.234079
0.252648
0.0454289
0.139744
-0.188761
0.0763824
0.256252
-0.287206
0.0713246
0.34315
-0.338092
0.0711536
0.388891
-0.38872
0.128945
0.247519
-0.30531
0.192298
-0.0140981
-0.0492558
0.228614
-0.225533
0.189217
0.247558
-0.314305
0.295361
0.242516
-0.31154
0.316583
0.211146
-0.336305
0.367675
0.191567
-0.357809
0.377388
0.217242
-0.249258
0.223583
0.251915
-0.0469459
0.0122726
0.265414
0.162641
-0.17614
0.272957
0.333634
-0.341178
0.279001
0.447212
-0.453255
0.279123
0.430036
-0.430159
0.281015
0.211455
-0.213347
0.290116
-0.0941993
0.085099
0.297034
-0.415517
0.408598
0.303855
-0.596257
0.589436
0.306182
-0.37433
0.372003
0.307085
0.0693119
-0.0702149
0.314898
0.585449
-0.593262
0.321826
0.756174
-0.763103
0.30013
0.142394
-0.120698
0.280978
-0.728696
0.747848
0.293881
-0.506327
0.493423
0.287914
0.361085
-0.355118
0.264487
0.500676
-0.477248
0.254528
-0.0999599
0.109918
0.267667
-0.252909
0.23977
0.266948
0.0663306
-0.0656118
0.243349
0.222544
-0.198945
0.217671
0.0629452
-0.0372675
0.22265
-0.230986
0.226006
0.228467
0.101507
-0.107324
0.187747
-0.181953
-0.00392478
0.0874228
0.0380439
0.214284
0.0593772
0.321816
0.102139
0.34613
0.171951
0.177707
0.223334
-0.0654806
0.244373
-0.246572
0.252245
-0.322177
0.243373
-0.302669
0.213897
-0.306829
0.196316
-0.340228
0.217272
-0.270214
0.249154
-0.0788274
0.265277
0.146517
0.273879
0.325032
0.279169
0.441922
0.280199
0.429006
0.281118
0.210535
0.287369
-0.10045
0.289632
-0.417779
0.293695
-0.600321
0.299206
-0.379841
0.305266
0.0632527
0.320635
0.570079
0.331215
0.745594
0.302847
0.170763
0.27428
-0.70013
0.289216
-0.521262
0.289788
0.360512
0.266284
0.52418
0.253028
-0.0867039
0.267177
-0.267057
0.269102
0.0644053
0.246691
0.244955
0.220572
0.0890646
0.225343
-0.235757
0.231386
0.0954639
0.193682
-0.0138224
0.0396885
0.0421692
0.158292
0.0909773
0.273008
0.15397
0.283137
0.215117
0.116559
0.251281
-0.101645
0.255506
-0.250797
0.250114
-0.316785
0.238906
-0.291461
0.210423
-0.278346
0.197573
-0.327378
0.218632
-0.291274
0.246504
-0.106699
0.263735
0.129286
0.273133
0.315634
0.277959
0.437096
0.279828
0.427137
0.279185
0.211178
0.281443
-0.102707
0.278186
-0.414523
0.278431
-0.600567
0.287544
-0.388953
0.299424
0.0513726
0.321875
0.547628
0.335512
0.731957
0.303341
0.202934
0.26521
-0.661999
0.281609
-0.537661
0.289797
0.352325
0.266687
0.54729
0.249874
-0.0698917
0.264751
-0.281933
0.269845
0.0593109
0.249322
0.265478
0.223008
0.115378
0.227466
-0.240214
0.234143
0.0887861
0.199361
0.020179
0.00185584
0.0843317
0.0941395
0.149549
0.207791
0.210987
0.221699
0.255502
0.072045
0.27447
-0.120613
0.261849
-0.238176
0.242777
-0.297713
0.232503
-0.281187
0.203947
-0.249791
0.189657
-0.313088
0.216292
-0.317909
0.246831
-0.137238
0.262524
0.113594
0.266967
0.311191
0.27027
0.433793
0.274844
0.422564
0.274343
0.211678
0.272887
-0.101251
0.264534
-0.40617
0.260343
-0.596376
0.272454
-0.401063
0.289327
0.0344993
0.317076
0.51988
0.333596
0.715436
0.2988
0.23773
0.254478
-0.617677
0.271337
-0.55452
0.287402
0.33626
0.265347
0.569345
0.245219
-0.049764
0.260525
-0.297239
0.269183
0.0506524
0.251124
0.283537
0.224931
0.141572
0.229074
-0.244357
0.236731
0.0811289
0.204438
0.0848017
-0.0100479
0.133
0.0459414
0.197326
0.143465
0.254582
0.164443
0.28657
0.0400563
0.290332
-0.124374
0.26683
-0.214674
0.235375
-0.266258
0.225036
-0.270848
0.201043
-0.225797
0.176522
-0.288567
0.202835
-0.344222
0.242338
-0.176741
0.261896
0.0940362
0.264441
0.308645
0.265226
0.433008
0.269799
0.417991
0.268037
0.21344
0.262376
-0.0955891
0.248274
-0.392069
0.239599
-0.587701
0.253868
-0.415332
0.276138
0.0122289
0.308968
0.48705
0.328129
0.696275
0.291477
0.274382
0.242231
-0.56843
0.258832
-0.571121
0.283336
0.311756
0.262938
0.589744
0.239565
-0.0263911
0.254804
-0.312477
0.267207
0.0382491
0.252032
0.298712
0.226284
0.167319
0.230207
-0.24828
0.239138
0.0721983
0.20862
0.167343
-0.00410226
0.189358
0.0239265
0.23483
0.0979934
0.284423
0.11485
0.305914
0.0185646
0.29378
-0.11224
0.263554
-0.184447
0.225119
-0.227824
0.211675
-0.257404
0.198308
-0.21243
0.164246
-0.254504
0.17636
-0.356335
0.22735
-0.227731
0.254811
0.0665745
0.256126
0.307331
0.254395
0.434739
0.260525
0.411861
0.259718
0.214247
0.250237
-0.0861081
0.230723
-0.372555
0.217892
-0.57487
0.233397
-0.430836
0.259697
-0.0140718
0.295287
0.45146
0.316867
0.674694
0.281143
0.310107
0.228838
-0.516126
0.244427
-0.58671
0.276864
0.279318
0.258932
0.607676
0.232992
-0.000450547
0.24784
-0.327326
0.264036
0.0220533
0.252023
0.310725
0.227037
0.192306
0.230883
-0.252126
0.241342
0.0617393
0.211654
0.235923
0.00381924
0.24308
0.0167691
0.274013
0.0670607
0.309813
0.0790494
0.314676
0.0137013
0.286632
-0.0841962
0.250837
-0.148652
0.211803
-0.188789
0.192803
-0.238404
0.188617
-0.208244
0.155755
-0.221642
0.146946
-0.347526
0.202132
-0.282918
0.246735
0.021971
0.252561
0.301505
0.248162
0.439139
0.252651
0.407371
0.249875
0.217023
0.236824
-0.0730567
0.212305
-0.348036
0.19527
-0.557835
0.211325
-0.446891
0.242275
-0.0450213
0.281819
0.411916
0.305869
0.650644
0.27001
0.345967
0.214948
-0.461064
0.229124
-0.600886
0.269344
0.239098
0.254286
0.622733
0.226035
0.0278009
0.240031
-0.341322
0.259833
0.00225165
0.251122
0.319435
0.227181
0.216247
0.231096
-0.256041
0.243292
0.0495437
0.213309
0.249582
0.00688538
0.253756
0.0125943
0.277314
0.0435033
0.301642
0.0547214
0.30045
0.0148932
0.269171
-0.0529174
0.235909
-0.11539
0.200332
-0.153213
0.176159
-0.214231
0.172857
-0.204942
0.14619
-0.194975
0.122752
-0.324089
0.164501
-0.324667
0.221426
-0.0349532
0.24103
0.281901
0.238494
0.441674
0.241455
0.40441
0.23955
0.218929
0.224322
-0.0578288
0.193979
-0.317694
0.172528
-0.536383
0.188763
-0.463126
0.220737
-0.0769951
0.261681
0.370972
0.288546
0.623778
0.256851
0.377662
0.201302
-0.405516
0.213124
-0.612707
0.259517
0.192705
0.248001
0.634249
0.218842
0.0569601
0.231733
-0.354213
0.254742
-0.0207576
0.249445
0.324732
0.226761
0.238931
0.230877
-0.260157
0.244949
0.0354712
0.213361
0.441568
0.0121977
-0.44688
0.443467
0.0106952
0.462219
0.0247516
0.491696
0.0252446
0.508389
-0.00180052
0.499786
-0.0443144
0.483317
-0.0989207
0.46199
-0.131886
0.427654
-0.179895
0.406972
-0.18426
0.388091
-0.176095
0.34676
-0.282757
0.326469
-0.304376
0.321507
-0.029992
0.280142
0.323266
0.270252
0.451564
0.325371
0.349291
0.387888
0.156412
0.427559
-0.0975002
0.4228
-0.312935
0.381331
-0.494914
0.348091
-0.429887
0.325742
-0.0546456
0.335502
0.361212
0.388855
0.570425
0.415392
0.351125
0.376247
-0.366371
0.352887
-0.589347
0.371791
0.173801
0.362988
0.643053
0.348841
0.0711064
0.366547
-0.371919
0.384615
-0.0388255
0.372889
0.336459
0.345574
0.266245
0.349802
-0.264385
0.365675
0.0195982
0.215395
0.485272
0.0148132
-0.487888
0.487929
0.0080387
0.499462
0.0132186
0.516405
0.00830175
0.526708
-0.0121035
0.523133
-0.0407393
0.504556
-0.0803442
0.482658
-0.109988
0.451122
-0.148359
0.417851
-0.150988
0.399079
-0.157323
0.365736
-0.249414
0.337205
-0.275845
0.313735
-0.00652215
0.282896
0.354105
0.300096
0.434364
0.375716
0.273671
0.44278
0.0893484
0.475425
-0.130145
0.450174
-0.287684
0.390904
-0.435644
0.355513
-0.394496
0.327544
-0.0266767
0.339527
0.349229
0.414139
0.495813
0.452357
0.312907
0.404436
-0.31845
0.375612
-0.560523
0.395293
0.15412
0.391367
0.646979
0.382528
0.0799451
0.40141
-0.390801
0.419774
-0.0571887
0.409134
0.347098
0.382211
0.293168
0.386335
-0.268509
0.404912
0.0010212
0.216069
0.529168
0.0147599
-0.529114
0.530803
0.00640302
0.537844
0.00617786
0.548599
-0.00245298
0.552492
-0.0159968
0.551393
-0.0396398
0.539336
-0.068287
0.517539
-0.0881911
0.495574
-0.126394
0.471776
-0.127191
0.448829
-0.134376
0.394592
-0.195177
0.329415
-0.210668
0.297868
0.025025
0.292341
0.359633
0.358654
0.36805
0.448441
0.183884
0.503126
0.034664
0.523394
-0.150414
0.487037
-0.251327
0.407758
-0.356365
0.353233
-0.339971
0.318041
0.0085153
0.338287
0.328983
0.445309
0.388791
0.499472
0.258745
0.441811
-0.260788
0.400249
-0.518962
0.422
0.132369
0.425552
0.643427
0.422406
0.0830909
0.44125
-0.409645
0.458799
-0.0747372
0.448717
0.35718
0.422882
0.319003
0.426258
-0.271885
0.44758
-0.0203008
0.214676
0.572338
0.0135024
-0.571081
0.574947
0.00379367
0.577727
0.00339839
0.58328
-0.00800664
0.585476
-0.0181925
0.579248
-0.0334122
0.568883
-0.0579219
0.550238
-0.0695455
0.524117
-0.100273
0.496644
-0.0997177
0.475801
-0.113533
0.427328
-0.146704
0.345014
-0.128353
0.311221
0.0588182
0.356049
0.314804
0.46048
0.26362
0.540915
0.103449
0.569521
0.0060578
0.565761
-0.146654
0.519132
-0.204698
0.42548
-0.262713
0.341501
-0.255992
0.296621
0.0533953
0.339297
0.286308
0.474945
0.253143
0.544404
0.189286
0.481063
-0.197448
0.420649
-0.458548
0.442945
0.110072
0.462091
0.624282
0.471858
0.073324
0.489678
-0.427466
0.504152
-0.0892104
0.493835
0.367496
0.468748
0.344091
0.470001
-0.273138
0.494217
-0.0445173
0.210218
0.617412
0.0117671
-0.615677
0.618999
0.00220671
0.620938
0.00145938
0.622469
-0.009537
0.622065
-0.0177893
0.617018
-0.0283646
0.608244
-0.0491483
0.592118
-0.0534195
0.572986
-0.0811405
0.548643
-0.0753749
0.517442
-0.0823321
0.469312
-0.098574
0.40756
-0.0666009
0.401764
0.0646138
0.479517
0.237052
0.575373
0.167763
0.623818
0.0550039
0.627404
0.00247125
0.612329
-0.131579
0.566543
-0.158912
0.47416
-0.170329
0.374912
-0.156743
0.321338
0.106969
0.372962
0.234683
0.51476
0.111345
0.595554
0.108492
0.533034
-0.134928
0.445714
-0.371228
0.458872
0.0969152
0.505432
0.577722
0.533099
0.0456572
0.545641
-0.440009
0.551846
-0.0954151
0.541335
0.378007
0.519773
0.365653
0.518018
-0.271383
0.54456
-0.0710601
0.201613
0.665198
0.0097302
-0.663161
0.666225
0.00118044
0.667188
0.000495912
0.666783
-0.00913184
0.665145
-0.0161514
0.659306
-0.0225259
0.650139
-0.0399806
0.635689
-0.03897
0.615942
-0.0613933
0.595832
-0.0552645
0.572802
-0.0593028
0.539244
-0.0650155
0.49942
-0.0267772
0.515447
0.0485869
0.595776
0.156722
0.661238
0.102301
0.683617
0.0326247
0.671715
0.014374
0.645256
-0.10512
0.604836
-0.118493
0.531583
-0.0970765
0.459315
-0.0844755
0.433205
0.13308
0.47498
0.192908
0.576556
0.00976817
0.649353
0.0356957
0.590897
-0.0764727
0.483957
-0.264287
0.494633
0.0862386
0.573526
0.498829
0.609482
0.00970113
0.608184
-0.43871
0.604183
-0.0914138
0.595871
0.386318
0.580318
0.381207
0.572534
-0.263599
0.599463
-0.0979888
0.187842
0.716798
0.00773365
-0.714802
0.717001
0.000977361
0.717698
-0.000200601
0.715868
-0.00730168
0.713278
-0.0135613
0.707668
-0.0169158
0.698961
-0.031274
0.688203
-0.0282114
0.672196
-0.0453871
0.656301
-0.0393692
0.636523
-0.0395246
0.612661
-0.0411534
0.592332
-0.00644868
0.614889
0.0260307
0.67509
0.096521
0.710658
0.0667333
0.727656
0.0156264
0.72373
0.0183
0.693907
-0.0752967
0.65643
-0.0810154
0.602632
-0.0432788
0.565341
-0.0471846
0.586804
0.111617
0.625949
0.153764
0.664732
-0.0290156
0.706251
-0.00582352
0.666026
-0.0362473
0.561833
-0.160094
0.574659
0.0734122
0.673173
0.400316
0.697702
-0.0148276
0.671353
-0.412362
0.657094
-0.0771546
0.657401
0.386011
0.651146
0.387461
0.634687
-0.24714
0.658973
-0.122275
0.168381
0.773134
0.0060514
-0.771452
0.772931
0.00118022
0.773041
-0.000310136
0.770933
-0.00519433
0.767882
-0.0105098
0.76326
-0.0122944
0.755058
-0.023072
0.74675
-0.0199033
0.732886
-0.0315232
0.720776
-0.0272592
0.706235
-0.0249838
0.692409
-0.0273267
0.684116
0.00184398
0.697504
0.0126426
0.739281
0.0547435
0.761962
0.0440524
0.77006
0.00752869
0.770108
0.0182525
0.74387
-0.049059
0.718928
-0.0560736
0.688885
-0.0132357
0.668688
-0.0269874
0.708257
0.0720474
0.744482
0.117539
0.744669
-0.0292027
0.757265
-0.018419
0.73586
-0.0148428
0.66094
-0.0851737
0.678963
0.0553891
0.775322
0.303956
0.782599
-0.0221039
0.722322
-0.352084
0.689064
-0.0438969
0.71036
0.364715
0.730092
0.36773
0.707104
-0.224152
0.723266
-0.138437
0.144431
0.835052
0.00484512
-0.833846
0.834642
0.00159027
0.834352
-2.00818e-05
0.832406
-0.00324851
0.829255
-0.00735887
0.825482
-0.00852121
0.81815
-0.0157403
0.812117
-0.0138697
0.801323
-0.0207296
0.792725
-0.0186612
0.783121
-0.0153795
0.773373
-0.0175786
0.771851
0.00336579
0.778712
0.00578216
0.803966
0.0294885
0.818918
0.0291011
0.82442
0.0020263
0.828493
0.0141798
0.807361
-0.0279274
0.787064
-0.0357764
0.772773
0.00105547
0.759641
-0.0138551
0.792825
0.0388628
0.826804
0.0835603
0.818749
-0.0211478
0.812759
-0.0124287
0.801207
-0.00329148
0.757908
-0.041874
0.776921
0.0363762
0.85876
0.222117
0.85322
-0.016564
0.766518
-0.265383
0.722225
0.000395606
0.778059
0.308882
0.829151
0.316638
0.793628
-0.18863
0.794919
-0.139729
0.118195
0.903331
0.00406685
-0.902553
0.903007
0.00191431
0.902434
0.00055267
0.90086
-0.00167408
0.897985
-0.00448438
0.895008
-0.00554431
0.889236
-0.00996806
0.884598
-0.00923133
0.87688
-0.0130115
0.870348
-0.0121301
0.864264
-0.00929508
0.857577
-0.0108917
0.858552
0.00239051
0.861499
0.00283511
0.875921
0.0150666
0.886907
0.0181156
0.888074
0.000858699
0.891695
0.010559
0.877965
-0.014197
0.86265
-0.0204619
0.858884
0.00482175
0.84976
-0.00473134
0.868233
0.0203898
0.895389
0.056405
0.887809
-0.0135676
0.87961
-0.00423036
0.876752
-0.000433157
0.850259
-0.0153816
0.861741
0.0248944
0.925719
0.158138
0.914958
-0.00580224
0.825538
-0.175963
0.793956
0.0319777
0.880795
0.222043
0.945363
0.252069
0.890923
-0.13419
0.869796
-0.118602
0.0949214
0.979004
0.00359765
-0.978534
0.978735
0.00218315
0.978112
0.00117574
0.976844
-0.000406202
0.974559
-0.00219952
0.97219
-0.00317558
0.967957
-0.0057346
0.964409
-0.005683
0.959063
-0.00766572
0.954339
-0.00740663
0.950559
-0.00551506
0.946038
-0.00637063
0.947052
0.00137705
0.94853
0.00135727
0.955803
0.0077929
0.963002
0.0109171
0.963121
0.00073983
0.965728
0.00795142
0.958077
-0.00654614
0.946508
-0.00889256
0.946029
0.0053008
0.940692
0.000605366
0.949
0.0120819
0.969791
0.0356141
0.965977
-0.00975396
0.957117
0.00462994
0.957146
-0.000461823
0.940885
0.000878789
0.945739
0.0200412
0.993491
0.110386
0.982449
0.00524014
0.908238
-0.101753
0.896959
0.0432568
0.988693
0.130309
1.04774
0.19302
0.984793
-0.071241
0.944667
-0.0784759
0.0779919
1.0626
0.00331352
-1.06232
1.06241
0.00237336
1.06189
0.00169935
1.06093
0.000554092
1.05925
-0.000519494
1.05745
-0.00138193
1.0545
-0.00277887
1.05188
-0.00307218
1.04829
-0.00407515
1.04502
-0.0041301
1.04246
-0.00296203
1.03953
-0.00343775
1.04003
0.000874926
1.04055
0.000843866
1.04408
0.00426148
1.04836
0.00663114
1.0479
0.00120286
1.04931
0.00654779
1.04497
-0.00220841
1.03749
-0.00141125
1.038
0.00479188
1.03564
0.00295678
1.0392
0.00852492
1.05255
0.0222675
1.04991
-0.00711698
1.04454
0.0100039
1.04615
-0.00207727
1.03617
0.0108566
1.03734
0.0188746
1.06967
0.0780586
1.06075
0.0141567
1.00815
-0.0491476
1.00979
0.0416138
1.08339
0.0567081
1.12815
0.148257
1.07325
-0.0163404
1.03315
-0.03837
0.0640461
1.15481
0.00308688
-1.15458
1.15473
0.00245932
1.15436
0.00205963
1.15369
0.00122606
1.15253
0.000644842
1.15126
-0.00011768
1.14928
-0.00079878
1.14746
-0.00124431
1.14508
-0.00169383
1.14284
-0.00189402
1.14112
-0.00124246
1.13915
-0.00146437
1.13922
0.000803778
1.13918
0.000882476
1.14069
0.00275463
1.14284
0.00447238
1.14238
0.00166663
1.14314
0.0057849
1.14076
0.000178731
1.13648
0.00286287
1.13687
0.00440891
1.13562
0.0042039
1.13753
0.00661697
1.14594
0.0138516
1.14413
-0.00530103
1.14167
0.0124571
1.14287
-0.00327595
1.13651
0.0172216
1.13703
0.0183497
1.1588
0.0562913
1.1518
0.0211593
1.11726
-0.014616
1.12502
0.0338547
1.17661
0.00511637
1.20734
0.117527
1.16683
0.024172
1.13936
-0.0108991
0.0501746
1.25637
0.00288461
-1.25617
1.25638
0.00245306
1.25617
0.00226504
1.25576
0.00163613
1.25501
0.0013946
1.25415
0.000738045
1.25288
0.000472885
1.25165
-1.06088e-05
1.25012
-0.000168879
1.24862
-0.000393395
1.24746
-7.45821e-05
1.24611
-0.00011638
1.24593
0.000978908
1.2456
0.00121218
1.24613
0.002232
1.24709
0.00350893
1.24662
0.00213877
1.24703
0.00537323
1.24557
0.00163958
1.24342
0.0050142
1.24372
0.00410773
1.24311
0.00480899
1.24436
0.00537178
1.24934
0.00887318
1.2476
-0.00356225
1.24739
0.0126643
1.24861
-0.00449112
1.24478
0.0210509
1.24539
0.0177382
1.25909
0.0425883
1.25403
0.0262169
1.23352
0.00589421
1.24485
0.0225269
1.27772
-0.0277577
1.29676
0.0984914
1.27065
0.0502809
1.25574
0.00401411
0.03741
1.36799
0.0026723
-1.36777
1.36807
0.00236649
1.36801
0.00233141
1.3678
0.00184366
1.36737
0.00182385
1.36685
0.00126227
1.36607
0.00124891
1.36526
0.000795728
1.36431
0.000779793
1.36333
0.00059013
1.36257
0.000689184
1.36165
0.00079561
1.36139
0.00123987
1.361
0.00160749
1.36107
0.00216388
1.36142
0.00315371
1.36097
0.00258661
1.36128
0.00506767
1.36039
0.00253078
1.35947
0.00593017
1.35978
0.00380263
1.35943
0.00515904
1.36027
0.00453332
1.36347
0.00567008
1.36192
-0.00201176
1.36297
0.0116169
1.3637
-0.00522898
1.36171
0.0230421
1.36265
0.0167981
1.37164
0.0336019
1.36847
0.0293832
1.35778
0.0165854
1.36961
0.0106953
1.38778
-0.0459196
1.40045
0.0858206
1.38698
0.0637453
1.37945
0.011547
0.0276046
1.49053
0.00244333
-1.4903
1.49067
0.00222562
1.4907
0.00229926
1.49063
0.00191111
1.49042
0.00203816
1.49013
0.00155129
1.48968
0.00169453
1.4892
0.00127665
1.48863
0.0013489
1.48803
0.00119742
1.48755
0.00116886
1.48696
0.00138748
1.48675
0.00144626
1.48642
0.00193933
1.48638
0.00220577
1.48649
0.00303649
1.48618
0.00289946
1.48646
0.00479114
1.48593
0.00305696
1.48568
0.00618002
1.48597
0.00351058
1.48587
0.00526517
1.48649
0.00391197
1.48853
0.00362421
1.48724
-0.000720121
1.48887
0.00998461
1.48926
-0.0056128
1.48878
0.0235161
1.49027
0.0153128
1.4959
0.0279681
1.49439
0.0309011
1.49061
0.0203633
1.5019
-0.000600329
1.50928
-0.0532934
1.51823
0.0768657
1.5144
0.0675798
1.51127
0.0146721
0.0207051
1.62491
0.00220946
-1.62468
1.62507
0.00206378
1.62517
0.00220683
1.62517
0.00190418
1.62509
0.00211835
1.62494
0.00169982
1.6247
0.00193471
1.62444
0.00154311
1.62411
0.00167251
1.62378
0.00152806
1.62352
0.00143631
1.6232
0.00170349
1.62313
0.00151638
1.62294
0.00213269
1.62302
0.00212296
1.62309
0.00296547
1.62303
0.00296138
1.62337
0.00444742
1.62309
0.00333396
1.62336
0.00591033
1.62356
0.00332014
1.62368
0.00514157
1.62423
0.00335673
1.6253
0.00255551
1.62432
0.000259443
1.62622
0.00808394
1.62564
-0.00503224
1.6269
0.0222555
1.62902
0.0131974
1.63315
0.0238361
1.63349
0.0305601
1.63474
0.0191142
1.64248
-0.00834179
1.64068
-0.0514856
1.65027
0.0672693
1.65402
0.0638348
1.65273
0.0159569
0.0161653
1.77227
0.0019927
-1.77206
1.77241
0.00192335
1.77252
0.00210427
1.77252
0.00189907
1.7725
0.00214219
1.77239
0.0018073
1.77226
0.00206576
1.77211
0.00169562
1.77193
0.00185031
1.77181
0.00164649
1.77169
0.00155365
1.77165
0.00175003
1.77174
0.00142382
1.77176
0.00211317
1.77209
0.0017906
1.77223
0.00282941
1.77255
0.00263805
1.77299
0.00400772
1.77299
0.00333809
1.7737
0.0051994
1.77374
0.00327223
1.77413
0.00476025
1.77466
0.00282232
1.77475
0.00246597
1.77408
0.000924476
1.77588
0.00628733
1.77423
-0.00337689
1.77733
0.0191546
1.78036
0.0101679
1.78327
0.0209219
1.78574
0.0280904
1.79112
0.0137353
1.7941
-0.0113252
1.78459
-0.041974
1.797
0.0548594
1.80618
0.0546515
1.80526
0.0168808
0.0133783
1.93309
0.00173673
-1.93283
1.93325
0.00175942
1.93345
0.00190805
1.9335
0.0018524
1.93362
0.00201877
1.93357
0.00185738
1.93361
0.00202883
1.93354
0.00176415
1.93349
0.00190346
1.93351
0.00162497
1.93342
0.00164263
1.93358
0.00158624
1.93365
0.00135846
1.93392
0.00184172
1.9344
0.00131212
1.93476
0.00246567
1.93564
0.00176185
1.93632
0.00332766
1.93704
0.00261577
1.93825
0.00399047
1.93833
0.0031878
1.93916
0.00393499
1.93911
0.00287303
1.9378
0.00377495
1.93737
0.00135154
1.93777
0.00589306
1.93443
-4.01446e-05
1.94079
0.0127964
1.94457
0.0063825
1.94866
0.0168325
1.95722
0.0195298
1.96496
0.00600265
1.95517
-0.00154081
1.93455
-0.021351
1.95378
0.0356256
1.97226
0.0361708
1.9733
0.0158474
0.0118551
2.10805
0.0013194
-2.10764
2.10844
0.0013779
2.1089
0.00144861
2.10927
0.00148317
2.10973
0.00154934
2.11006
0.00153385
2.11048
0.0016061
2.11074
0.00150761
2.11104
0.00159995
2.11124
0.00142372
2.11138
0.00150394
2.11159
0.0013809
2.11163
0.0013174
2.11194
0.00152395
2.11212
0.00113392
2.11268
0.00191251
2.11325
0.00118749
2.11413
0.00244991
2.11506
0.00168322
2.1162
0.00285375
2.11695
0.00243856
2.11777
0.00311044
2.11798
0.00266554
2.11753
0.00422049
2.11729
0.00159401
2.11749
0.00569196
2.11557
0.0018852
2.12075
0.00761176
2.12325
0.00387989
2.12904
0.0110421
2.13843
0.0101464
2.14149
0.00294394
2.13174
0.00820974
2.11503
-0.00464872
2.12945
0.0212104
2.14875
0.0168674
2.15472
0.00987984
0.00998273
2.30083
0.000860723
-2.30037
2.30131
0.000895207
2.30183
0.000929991
2.30236
0.000951279
2.30292
0.000991387
2.30346
0.000993582
2.30403
0.00104036
2.30451
0.00102157
2.30504
0.00106968
2.30543
0.00104218
2.30586
0.00106844
2.30617
0.00107716
2.30644
0.00104032
2.3068
0.0011643
2.30693
0.00101053
2.3075
0.00133945
2.30765
0.00103678
2.30846
0.00164446
2.30896
0.00117517
2.30979
0.00202217
2.31078
0.00145699
2.31154
0.00234655
2.31244
0.00176243
2.31383
0.00283276
2.31387
0.00155426
2.3156
0.00395907
2.31604
0.00144758
2.31825
0.00540161
2.31927
0.00286257
2.32417
0.00614333
2.32827
0.00604234
2.328
0.00321709
2.32975
0.00646023
2.32596
-0.000861978
2.33219
0.0149767
2.34133
0.00773107
2.34688
0.00432806
0.00701454
2.51281
0.000445019
-2.51239
2.51324
0.000467177
2.51369
0.000481326
2.51414
0.000500327
2.51461
0.000514445
2.51508
0.000527907
2.51558
0.000542645
2.51605
0.000548538
2.51656
0.00056261
2.51704
0.000563901
2.51754
0.000568247
2.51803
0.000583942
2.51851
0.000558027
2.51905
0.000628825
2.51952
0.000540078
2.52014
0.000714248
2.52063
0.00054486
2.52142
0.000854089
2.52198
0.000616794
2.52297
0.0010368
2.52367
0.000759469
2.52474
0.0012712
2.52561
0.000896059
2.52681
0.0016291
2.52746
0.000907715
2.52933
0.00209068
2.52976
0.00101008
2.53262
0.00254351
2.53405
0.00143319
2.53739
0.0028037
2.54062
0.00281265
2.5423
0.00154234
2.54442
0.00433961
2.54247
0.00108441
2.55075
0.00669277
2.55581
0.00266975
2.55825
0.00189306
0.00359225
2.74441
-2.74397
2.74488
2.74536
2.74586
2.74637
2.7469
2.74744
2.74799
2.74856
2.74912
2.74969
2.75027
2.75083
2.75146
2.752
2.75271
2.75326
2.75411
2.75473
2.75577
2.75652
2.7578
2.75869
2.76032
2.76123
2.76332
2.76433
2.76687
2.76831
2.77111
2.77392
2.77546
2.7798
2.78089
2.78758
2.79025
2.79214
0.421567
0.0430225
-0.415236
0.427436
0.0725355
0.433537
0.101302
0.438465
0.130536
0.442844
0.15769
0.447405
0.185327
0.445931
0.212126
0.2317
0.453511
0.0373084
-0.447796
0.458443
0.067603
0.46392
0.0958247
0.4691
0.125357
0.473391
0.153398
0.478965
0.179753
0.483962
0.207129
0.227774
0.48979
0.0326428
-0.485125
0.494253
0.0631403
0.49922
0.0908577
0.5045
0.120077
0.510198
0.147701
0.516614
0.173336
0.523971
0.199772
0.222631
0.529457
0.0286821
-0.525497
0.533773
0.0588245
0.538636
0.0859951
0.544074
0.114638
0.550285
0.141489
0.5565
0.167121
0.563878
0.192394
0.215428
0.57355
0.0254151
-0.570283
0.577673
0.0547017
0.582224
0.0814442
0.587549
0.109314
0.593552
0.135487
0.600116
0.160556
0.607555
0.184956
0.207307
0.621871
0.0225392
-0.618995
0.625742
0.0508308
0.629987
0.0771992
0.635217
0.104083
0.640988
0.129716
0.647624
0.15392
0.65496
0.177619
0.199105
0.674792
0.0200637
-0.672317
0.678353
0.0472703
0.682247
0.0733047
0.687248
0.0990819
0.692786
0.124178
0.699347
0.147359
0.70669
0.170276
0.190994
0.732568
0.0179328
-0.730438
0.735765
0.0440739
0.739454
0.0696156
0.744237
0.0942991
0.749823
0.118592
0.756205
0.140977
0.763521
0.16296
0.183064
0.795678
0.016086
-0.793832
0.798588
0.0411642
0.802301
0.0659028
0.80695
0.0896501
0.812497
0.113046
0.818698
0.134775
0.825951
0.155708
0.175168
0.864816
0.0144161
-0.863146
0.867522
0.0384577
0.87116
0.0622654
0.875597
0.0852132
0.881037
0.107605
0.887266
0.128547
0.894541
0.148432
0.167157
0.940391
0.0129722
-0.938947
0.942867
0.0359818
0.946393
0.0587391
0.950858
0.0807488
0.956449
0.102014
0.96291
0.122086
0.970309
0.141033
0.158931
1.02313
0.0117065
-1.02186
1.02553
0.0335786
1.02911
0.0551569
1.03376
0.0760998
1.03949
0.0962891
1.04614
0.115433
1.05376
0.133412
0.150375
1.11381
0.0105636
-1.11267
1.11619