/*--------------------------------*- C++ -*----------------------------------*\
| =========                 |                                                 |
| \\      /  F ield         | OpenFOAM: The Open Source CFD Toolbox           |
|  \\    /   O peration     | Version:  2512                                  |
|   \\  /    A nd           | Website:  www.openfoam.com                      |
|    \\/     M anipulation  |                                                 |
\*---------------------------------------------------------------------------*/
FoamFile
{
    version     2.0;
    format      ascii;
    arch        "LSB;label=32;scalar=64";
    class       volScalarField;
    location    "36.5";
    object      p;
}
// * * * * * * * * * * * * * * * * * * * * * * * * * * * * * * * * * * * * * //

dimensions      [0 2 -2 0 0 0 0];

internalField   nonuniform List<scalar> 
13248
(
-0.236435
-0.237298
-0.237138
-0.236311
-0.234885
-0.232776
-0.229909
-0.226198
-0.221628
-0.216219
-0.210048
-0.203272
-0.196127
-0.188913
-0.181963
-0.175603
-0.170109
-0.165692
-0.162457
-0.160491
-0.159715
-0.160223
-0.161794
-0.16471
-0.239595
-0.240024
-0.239598
-0.238596
-0.237059
-0.234875
-0.231932
-0.228139
-0.223443
-0.217859
-0.211491
-0.204541
-0.197289
-0.190055
-0.18315
-0.17684
-0.171305
-0.16666
-0.162927
-0.160089
-0.158093
-0.156818
-0.156319
-0.156614
-0.243873
-0.243694
-0.242821
-0.241463
-0.239615
-0.237168
-0.233981
-0.229928
-0.224937
-0.219033
-0.212359
-0.205158
-0.197732
-0.190383
-0.183372
-0.176894
-0.171064
-0.165957
-0.161554
-0.157879
-0.154794
-0.152349
-0.15042
-0.14939
-0.249128
-0.248185
-0.246699
-0.244773
-0.242419
-0.239519
-0.235897
-0.231388
-0.22591
-0.219513
-0.212381
-0.20479
-0.197042
-0.189414
-0.182127
-0.175337
-0.169144
-0.163583
-0.158649
-0.154305
-0.150469
-0.147137
-0.144243
-0.142138
-0.25543
-0.253605
-0.251351
-0.248713
-0.245691
-0.242157
-0.237887
-0.232675
-0.22645
-0.219315
-0.211512
-0.203348
-0.195131
-0.187119
-0.179504
-0.172409
-0.165887
-0.159947
-0.154557
-0.149687
-0.145259
-0.141298
-0.137717
-0.134867
-0.263052
-0.260222
-0.257107
-0.253661
-0.249834
-0.245449
-0.24022
-0.233943
-0.226618
-0.218449
-0.209754
-0.200877
-0.192115
-0.183691
-0.175742
-0.168334
-0.161489
-0.155194
-0.149426
-0.144144
-0.139303
-0.134899
-0.130851
-0.127496
-0.272332
-0.268366
-0.264332
-0.259993
-0.255168
-0.249589
-0.242955
-0.235158
-0.226359
-0.2169
-0.20717
-0.197511
-0.188172
-0.179306
-0.170991
-0.163256
-0.156097
-0.149492
-0.143409
-0.137808
-0.132655
-0.127917
-0.123564
-0.119817
-0.283517
-0.278295
-0.27328
-0.267906
-0.261755
-0.25448
-0.245891
-0.236119
-0.225551
-0.214648
-0.203814
-0.193336
-0.183385
-0.174045
-0.165342
-0.15727
-0.149804
-0.142913
-0.136559
-0.130703
-0.125309
-0.120339
-0.115787
-0.111778
-0.296659
-0.290086
-0.283994
-0.277319
-0.269331
-0.259728
-0.248637
-0.236542
-0.224035
-0.211628
-0.19967
-0.188356
-0.177771
-0.167932
-0.158821
-0.150407
-0.142648
-0.135501
-0.128922
-0.122867
-0.117294
-0.112159
-0.107477
-0.103251
-0.311512
-0.303553
-0.296215
-0.287791
-0.277281
-0.264686
-0.25066
-0.236049
-0.221562
-0.207661
-0.194589
-0.182433
-0.171198
-0.160847
-0.151328
-0.142585
-0.13456
-0.127197
-0.120443
-0.114245
-0.108551
-0.103321
-0.0985493
-0.0941493
-0.327505
-0.318173
-0.309298
-0.298465
-0.284638
-0.268471
-0.251249
-0.234077
-0.217647
-0.2023
-0.188143
-0.175163
-0.163294
-0.152454
-0.142557
-0.133526
-0.125286
-0.117768
-0.110908
-0.104642
-0.0989142
-0.0936783
-0.0888867
-0.0844188
-0.343722
-0.333075
-0.322228
-0.308139
-0.2902
-0.270041
-0.249523
-0.229848
-0.211576
-0.194874
-0.179711
-0.165977
-0.153545
-0.142288
-0.132092
-0.122854
-0.114484
-0.1069
-0.100025
-0.0937913
-0.0881367
-0.0830134
-0.0783413
-0.0740188
-0.299156
-0.30026
-0.300676
-0.301093
-0.301851
-0.303029
-0.304627
-0.306627
-0.309003
-0.31173
-0.314785
-0.318133
-0.321661
-0.325405
-0.329311
-0.333343
-0.337539
-0.341817
-0.346129
-0.350424
-0.354664
-0.358884
-0.363254
-0.367899
-0.287956
-0.289234
-0.289609
-0.2898
-0.290157
-0.290756
-0.291598
-0.292664
-0.293927
-0.295364
-0.296985
-0.298867
-0.300331
-0.301996
-0.303762
-0.305577
-0.307461
-0.309437
-0.311548
-0.313858
-0.316432
-0.319378
-0.323105
-0.32852
-0.277529
-0.278871
-0.27917
-0.279133
-0.279094
-0.279124
-0.279222
-0.279363
-0.279508
-0.279611
-0.2796
-0.279346
-0.279491
-0.279396
-0.279182
-0.27892
-0.278689
-0.27859
-0.278754
-0.279355
-0.280584
-0.282582
-0.285686
-0.291359
-0.268128
-0.269443
-0.269652
-0.269409
-0.269015
-0.268528
-0.267945
-0.267238
-0.266368
-0.265295
-0.263987
-0.262444
-0.260751
-0.258856
-0.256804
-0.254682
-0.252614
-0.250762
-0.249329
-0.248573
-0.248809
-0.250328
-0.253285
-0.258602
-0.25987
-0.261104
-0.261228
-0.260818
-0.260128
-0.259198
-0.258019
-0.256565
-0.2548
-0.252693
-0.250224
-0.2474
-0.244258
-0.24084
-0.237231
-0.233559
-0.229996
-0.226759
-0.224119
-0.222389
-0.221943
-0.223227
-0.226529
-0.23132
-0.252772
-0.253912
-0.25397
-0.253438
-0.252516
-0.25122
-0.249535
-0.247438
-0.244897
-0.241892
-0.238413
-0.23448
-0.23014
-0.225474
-0.220604
-0.215702
-0.210987
-0.206718
-0.203219
-0.200849
-0.200008
-0.201099
-0.20485
-0.210032
-0.246795
-0.247871
-0.247889
-0.247276
-0.246177
-0.244585
-0.242476
-0.239827
-0.236619
-0.232843
-0.228506
-0.223642
-0.21832
-0.21265
-0.206788
-0.200942
-0.195369
-0.190374
-0.186314
-0.183542
-0.182598
-0.183489
-0.187819
-0.19311
-0.241908
-0.242972
-0.242979
-0.242312
-0.241079
-0.239247
-0.23678
-0.233664
-0.22989
-0.225462
-0.220406
-0.214777
-0.208665
-0.202211
-0.195603
-0.189082
-0.182939
-0.177477
-0.173157
-0.170144
-0.169428
-0.170067
-0.175012
-0.180157
-0.238129
-0.239236
-0.23925
-0.238544
-0.237204
-0.235179
-0.232427
-0.228936
-0.224707
-0.219761
-0.214142
-0.207927
-0.201227
-0.194217
-0.187112
-0.180187
-0.173772
-0.168189
-0.164024
-0.161001
-0.160933
-0.161429
-0.167022
-0.171796
-0.235557
-0.236728
-0.23675
-0.236011
-0.234595
-0.232438
-0.229495
-0.225752
-0.221225
-0.215942
-0.209969
-0.203401
-0.196388
-0.189119
-0.181845
-0.174865
-0.168552
-0.163149
-0.159416
-0.156772
-0.157289
-0.15826
-0.163967
-0.169081
-0.234344
-0.23554
-0.235555
-0.234794
-0.233345
-0.23114
-0.228128
-0.224286
-0.219668
-0.214272
-0.208177
-0.201499
-0.194403
-0.18711
-0.1799
-0.173094
-0.167072
-0.162106
-0.158744
-0.156822
-0.157356
-0.159256
-0.164471
-0.170586
-0.234634
-0.235745
-0.235711
-0.23493
-0.23349
-0.231318
-0.228357
-0.224599
-0.219988
-0.214591
-0.208478
-0.201775
-0.194674
-0.187432
-0.180364
-0.173815
-0.168113
-0.16359
-0.160435
-0.158902
-0.158993
-0.160921
-0.164812
-0.170858
-0.373218
-0.379197
-0.38602
-0.394275
-0.404906
-0.418775
-0.436617
-0.458698
-0.484694
-0.513279
-0.542301
-0.569793
-0.592144
-0.608937
-0.616767
-0.613123
-0.593716
-0.550926
-0.479037
-0.386452
-0.294426
-0.218494
-0.164266
-0.130227
-0.112165
-0.109527
-0.116442
-0.119601
-0.108846
-0.0857109
-0.0587881
-0.0356432
-0.0192517
-0.00902445
-0.00319164
-6.35417e-05
0.00135765
0.00122921
0.000288833
-3.82681e-05
0.00128132
0.00379297
0.00658313
0.00873759
0.00993678
0.0103452
0.0101181
0.00938664
0.0081949
0.0068243
0.00552392
0.00455159
0.00386084
0.00339829
0.0029961
0.00257908
0.00207076
0.00153146
0.000919626
0.000335995
-0.336652
-0.347413
-0.360599
-0.376588
-0.39602
-0.419313
-0.446484
-0.476762
-0.509415
-0.542584
-0.573167
-0.600573
-0.622149
-0.637009
-0.642372
-0.636766
-0.615853
-0.571203
-0.495461
-0.397078
-0.298678
-0.216395
-0.156041
-0.115483
-0.0904774
-0.0796517
-0.0804132
-0.0826446
-0.0766718
-0.0605222
-0.0411853
-0.0243305
-0.012557
-0.00571339
-0.00244055
-0.00120563
-0.00140299
-0.00305598
-0.00471168
-0.00462524
-0.00215108
0.00157131
0.00516673
0.00782644
0.00934842
0.00997582
0.00992546
0.00937049
0.00836863
0.00713762
0.00588688
0.00488
0.0040999
0.00355669
0.00308823
0.0026293
0.00209306
0.00153848
0.000917526
0.000335958
-0.302621
-0.317737
-0.336778
-0.359672
-0.386394
-0.416972
-0.451222
-0.486753
-0.523676
-0.559233
-0.591195
-0.61806
-0.638264
-0.650539
-0.654558
-0.647414
-0.625753
-0.5808
-0.503608
-0.402242
-0.299718
-0.213177
-0.149112
-0.103619
-0.0730107
-0.0550044
-0.0492524
-0.0489636
-0.0462407
-0.0364409
-0.0240094
-0.0129384
-0.00568953
-0.002415
-0.00193118
-0.00276368
-0.00483975
-0.00801698
-0.0100459
-0.00909345
-0.00528875
-0.000402292
0.00388831
0.00695802
0.00874872
0.00956801
0.0096738
0.0092719
0.0084437
0.00736105
0.00619666
0.00519056
0.00434815
0.00372882
0.00318791
0.00268044
0.00211181
0.00154096
0.000911598
0.000333113
-0.272735
-0.290873
-0.313829
-0.342697
-0.374674
-0.41015
-0.448624
-0.48849
-0.527948
-0.564848
-0.597288
-0.623815
-0.643243
-0.653966
-0.655977
-0.647561
-0.625531
-0.580212
-0.503553
-0.402238
-0.298278
-0.209829
-0.14351
-0.0951003
-0.0601837
-0.036484
-0.0241444
-0.0202174
-0.0186151
-0.0137879
-0.00722932
-0.00136309
0.00135831
0.00088266
-0.00152517
-0.00460247
-0.00878631
-0.0133481
-0.0153955
-0.0131744
-0.00802224
-0.00213516
0.00272595
0.00612494
0.00814038
0.00912966
0.00937661
0.00910814
0.00843024
0.00748842
0.0064281
0.00545112
0.00457886
0.00389705
0.00328713
0.00273004
0.00212754
0.00154052
0.000903551
0.000328168
-0.247404
-0.267816
-0.293559
-0.324305
-0.359506
-0.398273
-0.439526
-0.481526
-0.522382
-0.560004
-0.5926
-0.619009
-0.639158
-0.64831
-0.649062
-0.639948
-0.617569
-0.57213
-0.495944
-0.396764
-0.295009
-0.207502
-0.139906
-0.0897204
-0.051831
-0.0240422
-0.00586568
0.00265144
0.00518235
0.00628046
0.00893489
0.0101958
0.00852204
0.00434694
-0.000913623
-0.00647717
-0.0129389
-0.0187008
-0.0204119
-0.0167227
-0.0103246
-0.00363416
0.0016668
0.00532361
0.00752714
0.00866842
0.00904607
0.00889677
0.00834661
0.00752953
0.00657359
0.00564403
0.00476946
0.00404367
0.00337645
0.00277446
0.00214061
0.0015387
0.000895356
0.000322228
-0.225525
-0.247325
-0.274156
-0.305711
-0.341783
-0.381507
-0.4236
-0.466334
-0.507741
-0.54572
-0.578465
-0.604589
-0.622638
-0.63409
-0.635087
-0.625864
-0.603165
-0.557698
-0.48299
-0.387667
-0.290594
-0.206337
-0.138889
-0.0873423
-0.0476586
-0.0169463
0.005495
0.0190543
0.0243769
0.0250612
0.0241954
0.0215073
0.015865
0.00827813
0.000278509
-0.00805901
-0.0169259
-0.0237117
-0.024734
-0.0197702
-0.0122087
-0.00490883
0.000706119
0.00455478
0.0069142
0.00819155
0.00869149
0.00865162
0.00821161
0.00750224
0.00664106
0.00576612
0.00490786
0.00415705
0.00344869
0.00281053
0.00215121
0.00153667
0.000888736
0.000316487
-0.207669
-0.229563
-0.255929
-0.286699
-0.321995
-0.361042
-0.402534
-0.444838
-0.486054
-0.524142
-0.55716
-0.583828
-0.602794
-0.614107
-0.615782
-0.606817
-0.583748
-0.538422
-0.466386
-0.376687
-0.285943
-0.206125
-0.14029
-0.0878781
-0.0468976
-0.0142671
0.0109907
0.0287863
0.0381235
0.0404377
0.0382201
0.0328496
0.0239489
0.013272
0.00246245
-0.00903883
-0.0204237
-0.0280433
-0.0280373
-0.0220532
-0.0136515
-0.00596319
-0.00015871
0.00382159
0.00630743
0.00770574
0.00831973
0.00838224
0.00804016
0.00742441
0.00664573
0.00582445
0.00499352
0.00423388
0.00350067
0.00283658
0.00215943
0.001535
0.000884702
0.000311862
-0.194126
-0.215069
-0.239604
-0.268236
-0.30142
-0.338372
-0.37787
-0.418521
-0.458631
-0.496107
-0.529221
-0.556513
-0.576301
-0.588873
-0.591385
-0.582773
-0.559444
-0.514862
-0.446995
-0.364663
-0.281514
-0.206823
-0.143417
-0.0910714
-0.0489914
-0.0152842
0.0118841
0.0326053
0.0460077
0.051537
0.0507035
0.0445098
0.0335448
0.0200665
0.00604483
-0.00903438
-0.023061
-0.0313355
-0.0300708
-0.0234883
-0.0146402
-0.00680279
-0.000926979
0.00312993
0.00571459
0.00721876
0.00793684
0.00809539
0.00784265
0.00731029
0.00660324
0.0058313
0.00503384
0.00427709
0.00353274
0.00285248
0.00216514
0.00153366
0.00088337
0.000308777
-0.185078
-0.204188
-0.22575
-0.251517
-0.282118
-0.316364
-0.353241
-0.391721
-0.430247
-0.46706
-0.50008
-0.527775
-0.548583
-0.561108
-0.564365
-0.55583
-0.532282
-0.489282
-0.42687
-0.352866
-0.277708
-0.208476
-0.147737
-0.0962681
-0.0534765
-0.0187375
0.00947216
0.0318601
0.0483176
0.0578688
0.0603913
0.0557703
0.0446628
0.0288646
0.0109045
-0.00812753
-0.0246646
-0.0332984
-0.0319657
-0.0242069
-0.0152129
-0.00743573
-0.00159561
0.00248705
0.00514395
0.00673906
0.00755007
0.00779759
0.00762687
0.00717048
0.00652657
0.00579953
0.00503943
0.00429243
0.00354715
0.00285896
0.00216797
0.00153222
0.000884124
0.000307159
-0.181578
-0.197535
-0.214376
-0.236175
-0.263491
-0.294361
-0.327842
-0.36306
-0.398825
-0.433403
-0.465159
-0.492866
-0.514091
-0.527039
-0.530555
-0.522406
-0.499802
-0.460282
-0.405146
-0.340377
-0.273478
-0.209898
-0.152198
-0.102312
-0.0595873
-0.0239724
0.00520637
0.0287224
0.0465876
0.0587176
0.0650345
0.063807
0.0549394
0.0383786
0.0168574
-0.00591459
-0.0246
-0.0335
-0.0317178
-0.0240611
-0.0153663
-0.00786952
-0.00217064
0.00188759
0.00459144
0.00626513
0.0071615
0.00749334
0.00739898
0.00701293
0.00642639
0.00574104
0.00501992
0.0042855
0.00354661
0.00285715
0.00216755
0.00153016
0.000886065
0.000306634
-0.182032
-0.194091
-0.206332
-0.224012
-0.247427
-0.274874
-0.305544
-0.338493
-0.372267
-0.405361
-0.436083
-0.462089
-0.482325
-0.495007
-0.499029
-0.491486
-0.470665
-0.435637
-0.387995
-0.331823
-0.272198
-0.213358
-0.158946
-0.110688
-0.0682089
-0.031711
-0.00120469
0.0237739
0.0433231
0.0572224
0.0661765
0.0679786
0.0627163
0.0468268
0.022581
-0.00336043
-0.0234218
-0.032
-0.0306707
-0.023397
-0.0152707
-0.00819703
-0.00270494
0.00130081
0.00404007
0.00578745
0.00676332
0.00717775
0.00715768
0.00683967
0.00630793
0.00566404
0.00499085
0.00426158
0.00353441
0.00284869
0.00216395
0.00152735
0.000888528
0.000306926
-0.180005
-0.188557
-0.197607
-0.210734
-0.228258
-0.249701
-0.274749
-0.302552
-0.332
-0.361617
-0.389789
-0.415607
-0.436001
-0.448697
-0.45337
-0.448894
-0.433372
-0.40633
-0.368687
-0.322677
-0.271507
-0.218685
-0.167709
-0.120877
-0.0787532
-0.041966
-0.0108337
0.0151515
0.0359845
0.0515541
0.0615079
0.0674397
0.0653662
0.0525712
0.0288526
0.00196455
-0.0189095
-0.0278916
-0.0274388
-0.0217002
-0.0146733
-0.00824686
-0.00306656
0.000827787
0.00356385
0.00535538
0.00638855
0.00686607
0.00690974
0.00665344
0.00617271
0.00557119
0.0049132
0.0042171
0.00350916
0.00283243
0.00215534
0.00152237
0.000889868
0.000307367
-0.177945
-0.185084
-0.193313
-0.204476
-0.219205
-0.237648
-0.259569
-0.284239
-0.310671
-0.337408
-0.362923
-0.385668
-0.403393
-0.414466
-0.417946
-0.412429
-0.396728
-0.370914
-0.336149
-0.294442
-0.248466
-0.201124
-0.155205
-0.112502
-0.0737307
-0.0395185
-0.0101387
0.0146729
0.0348504
0.0501269
0.0612608
0.0667787
0.0665983
0.055489
0.0321157
0.00470662
-0.0161382
-0.0248907
-0.0247065
-0.019655
-0.0134442
-0.00766875
-0.00292054
0.000716218
0.00332288
0.00506794
0.00610847
0.00661975
0.00670754
0.00649821
0.00605996
0.00549693
0.00484476
0.00417225
0.00347413
0.00280634
0.00213736
0.00151138
0.000886162
0.00030561
-0.173178
-0.182229
-0.191299
-0.201602
-0.21442
-0.230375
-0.249353
-0.270713
-0.293423
-0.316191
-0.337705
-0.356149
-0.370063
-0.378216
-0.379287
-0.37256
-0.357384
-0.3339
-0.303148
-0.266738
-0.226677
-0.185131
-0.14424
-0.105635
-0.0701154
-0.0383461
-0.0107301
0.0127531
0.0319513
0.0465561
0.0562667
0.0631213
0.0635237
0.0535616
0.0321831
0.00698406
-0.0120387
-0.0201465
-0.020624
-0.0168231
-0.0117613
-0.00684089
-0.00264373
0.000667716
0.00310413
0.00477551
0.0058012
0.00632779
0.00644881
0.00627887
0.00588174
0.00535628
0.00473455
0.00409065
0.00341566
0.00276389
0.00210943
0.00149351
0.000877805
0.000302149
-0.167856
-0.178918
-0.18849
-0.197914
-0.208852
-0.222219
-0.238116
-0.255896
-0.274568
-0.293013
-0.309933
-0.324541
-0.335821
-0.34192
-0.341758
-0.335229
-0.322063
-0.302034
-0.275661
-0.244146
-0.209038
-0.172134
-0.135301
-0.100081
-0.0673693
-0.037817
-0.0118693
0.0103516
0.0286413
0.0427012
0.0524941
0.058687
0.0590242
0.0501258
0.0315329
0.00974979
-0.00707011
-0.0153925
-0.0166072
-0.0140843
-0.0101456
-0.0060379
-0.00236754
0.000625822
0.00288832
0.0044786
0.00548216
0.00601901
0.00617025
0.00603855
0.00568332
0.0051975
0.00461467
0.00399822
0.00334567
0.0027116
0.00207439
0.00147044
0.00086654
0.000298103
-0.162478
-0.17399
-0.183505
-0.192039
-0.201257
-0.212247
-0.225251
-0.239772
-0.254981
-0.269896
-0.283578
-0.295368
-0.304179
-0.308637
-0.308036
-0.30214
-0.290589
-0.273134
-0.250103
-0.222427
-0.191524
-0.158945
-0.126184
-0.0945076
-0.0647591
-0.0375664
-0.0134154
0.00745177
0.0247846
0.0382493
0.0477576
0.0535471
0.053981
0.0465397
0.0310626
0.0125506
-0.0024434
-0.0106105
-0.0128045
-0.0114875
-0.00857463
-0.00522643
-0.00206839
0.000604118
0.00268418
0.00418483
0.00515931
0.00570209
0.00588103
0.0057869
0.00547449
0.00502971
0.00448303
0.00389394
0.00326717
0.00265301
0.00203462
0.00144417
0.000853593
0.00029384
-0.155665
-0.167251
-0.176583
-0.184363
-0.192207
-0.201281
-0.211917
-0.223815
-0.236275
-0.248484
-0.259683
-0.268972
-0.27552
-0.278672
-0.277726
-0.272231
-0.261901
-0.246597
-0.226599
-0.202677
-0.175892
-0.14738
-0.118317
-0.0898104
-0.0627171
-0.0376911
-0.0152529
0.00426003
0.020557
0.0333426
0.0424923
0.0479861
0.048653
0.0426965
0.0300155
0.0144586
0.00129267
-0.00655239
-0.00945192
-0.00911476
-0.0070932
-0.00443666
-0.00176395
0.000594104
0.00248856
0.00389333
0.00483241
0.00537636
0.00557976
0.00552146
0.0052508
0.00484599
0.00433602
0.00377813
0.00317973
0.00258749
0.00198953
0.00141435
0.000838488
0.000288917
-0.147624
-0.159343
-0.168448
-0.175586
-0.182343
-0.189899
-0.198668
-0.208464
-0.218686
-0.228614
-0.23752
-0.244685
-0.24955
-0.25163
-0.250318
-0.245174
-0.235987
-0.222683
-0.205445
-0.184785
-0.161469
-0.136416
-0.110635
-0.085117
-0.0606569
-0.0378595
-0.0172281
0.000855461
0.0160766
0.0281467
0.0368779
0.042115
0.04302
0.0383516
0.0281282
0.0153091
0.00399117
-0.00333403
-0.00662001
-0.00701961
-0.00573836
-0.0036905
-0.0014656
0.000590318
0.00229914
0.00360332
0.00450124
0.00504156
0.00526574
0.00524091
0.00501099
0.00464669
0.00417543
0.00365076
0.0030825
0.00251424
0.00193844
0.00138044
0.000820715
0.000283062
-0.139295
-0.150731
-0.159494
-0.166078
-0.171957
-0.178297
-0.18555
-0.193589
-0.201907
-0.209868
-0.216881
-0.222414
-0.225989
-0.227204
-0.225613
-0.220853
-0.212729
-0.201167
-0.186265
-0.168378
-0.148113
-0.126233
-0.10356
-0.0808979
-0.0589446
-0.0382754
-0.0193912
-0.00270305
0.0114503
0.0227729
0.0310469
0.0360563
0.0372093
0.0336985
0.0256468
0.0152783
0.00573062
-0.00091617
-0.00432027
-0.00522677
-0.0045328
-0.00300566
-0.00118518
0.000585904
0.00211263
0.00331363
0.00416578
0.0046981
0.00493965
0.00494626
0.00475626
0.00443264
0.00400104
0.00351064
0.00297503
0.00243285
0.00188101
0.00134214
0.000800072
0.000276213
-0.130717
-0.141618
-0.149972
-0.156064
-0.161216
-0.166552
-0.172543
-0.179119
-0.185861
-0.192243
-0.197781
-0.202029
-0.20458
-0.205136
-0.203376
-0.198997
-0.191811
-0.181744
-0.168859
-0.153419
-0.135889
-0.11686
-0.0969814
-0.0769227
-0.0573099
-0.0386865
-0.0215271
-0.00624117
0.00682544
0.0173769
0.025174
0.0299895
0.0314155
0.0289479
0.0227667
0.0145381
0.00664655
0.000789157
-0.00253027
-0.0037449
-0.00349466
-0.00239932
-0.000934971
0.000573495
0.00192533
0.00302291
0.00382602
0.00434665
0.0046024
0.00463831
0.00448694
0.00420376
0.00381262
0.00335874
0.00285719
0.00234306
0.00181697
0.00129921
0.000776442
0.00026833
-0.121908
-0.132263
-0.140157
-0.145767
-0.150291
-0.154792
-0.159748
-0.165137
-0.17062
-0.175752
-0.180115
-0.183334
-0.185099
-0.185183
-0.18334
-0.179326
-0.172978
-0.164226
-0.153112
-0.139822
-0.124696
-0.10819
-0.0908309
-0.0731777
-0.0557731
-0.0391075
-0.0236198
-0.00970588
0.00228898
0.0120751
0.0194037
0.0240612
0.0257621
0.024218
0.0196344
0.0132564
0.00689437
0.0018733
-0.00121517
-0.00257404
-0.00263693
-0.00188614
-0.000726606
0.000545456
0.00173306
0.00272942
0.00348167
0.0039876
0.00425459
0.00431759
0.00420349
0.00396046
0.00361039
0.0031945
0.00272882
0.0022446
0.00174607
0.00125141
0.000749709
0.000259359
-0.113198
-0.122892
-0.130254
-0.13539
-0.139367
-0.143177
-0.147294
-0.15173
-0.156204
-0.16033
-0.163739
-0.166171
-0.167356
-0.167118
-0.165264
-0.16161
-0.156022
-0.148434
-0.138868
-0.127451
-0.114434
-0.100171
-0.0850867
-0.069637
-0.054283
-0.0394606
-0.025572
-0.012988
-0.00204148
0.00698822
0.0138597
0.0183771
0.0203412
0.0196066
0.0163793
0.0115857
0.00661258
0.00241775
-0.000335949
-0.00170655
-0.0019674
-0.0014782
-0.000570816
0.000494216
0.00153133
0.00243104
0.00313217
0.00362122
0.00389691
0.00398498
0.00390673
0.00370336
0.00339474
0.00301794
0.00258975
0.00213722
0.00166807
0.00119854
0.000719768
0.000249254
-0.10469
-0.11362
-0.120414
-0.125095
-0.128599
-0.131838
-0.135272
-0.138936
-0.142597
-0.145917
-0.148553
-0.150421
-0.15119
-0.150743
-0.14894
-0.145644
-0.140747
-0.134188
-0.125972
-0.116191
-0.105028
-0.0927562
-0.0797094
-0.0662597
-0.0527945
-0.0396946
-0.0273211
-0.0160119
-0.00607846
0.00221423
0.00864164
0.0130269
0.0152278
0.0151867
0.0130995
0.00964796
0.00579019
0.00249281
0.000150284
-0.00112772
-0.00148812
-0.00118401
-0.000476754
0.000412529
0.00131545
0.00212533
0.00277678
0.00324783
0.00353013
0.00364133
0.00359744
0.00343313
0.00316612
0.0028292
0.00243664
0.00202076
0.00158283
0.00114044
0.000686541
0.00023799
-0.096369
-0.10455
-0.110779
-0.115026
-0.118114
-0.120877
-0.123751
-0.126792
-0.129812
-0.132529
-0.134689
-0.136026
-0.136469
-0.135894
-0.134186
-0.131242
-0.126972
-0.121323
-0.114292
-0.10594
-0.0964038
-0.0858887
-0.0746579
-0.0630122
-0.0512735
-0.0397681
-0.0288138
-0.0187127
-0.00974829
-0.00216645
0.00382786
0.00807915
0.0104782
0.0110168
0.00987469
0.00755251
0.00474555
0.00219777
0.000294984
-0.000816303
-0.00119587
-0.00100881
-0.000452023
0.000293726
0.00108091
0.00180982
0.00241454
0.00286752
0.003155
0.00328757
0.00327655
0.00315058
0.00292512
0.00262889
0.00227631
0.0018955
0.00149031
0.00107701
0.000649978
0.000225559
-0.0883502
-0.0957968
-0.101466
-0.105298
-0.108016
-0.110377
-0.112791
-0.115325
-0.117827
-0.120053
-0.121776
-0.122799
-0.123039
-0.122413
-0.120838
-0.118236
-0.114537
-0.109696
-0.103703
-0.0966
-0.0884855
-0.0795157
-0.0698958
-0.0598667
-0.0496931
-0.0396496
-0.0300111
-0.0210429
-0.0129972
-0.00609625
-0.000525299
0.00358052
0.00613445
0.00714645
0.00676714
0.00536924
0.00346593
0.00160917
0.000150539
-0.000746741
-0.00108271
-0.000954079
-0.000501653
0.000132534
0.000823634
0.00148207
0.00204442
0.00248021
0.00277207
0.00292471
0.00294519
0.00285667
0.00267243
0.00241744
0.00210558
0.00176148
0.00139051
0.00100819
0.000610066
0.000211962
-0.0807208
-0.0874306
-0.0925483
-0.0959884
-0.0983799
-0.100402
-0.102436
-0.104558
-0.106642
-0.10848
-0.109873
-0.110669
-0.110788
-0.110169
-0.108752
-0.10648
-0.103301
-0.0991755
-0.0940926
-0.0880782
-0.0812045
-0.0735889
-0.0653904
-0.0568003
-0.0480338
-0.0393188
-0.0308889
-0.0229729
-0.0157906
-0.00953881
-0.00438276
-0.000440361
0.00221758
0.0036026
0.00383287
0.00318382
0.0020356
0.000797643
-0.000232529
-0.000889444
-0.00113558
-0.00101704
-0.000627949
-7.48867e-05
0.000540118
0.00113971
0.00166544
0.002086
0.0023819
0.00255352
0.00260437
0.00255252
0.00240898
0.00219546
0.00192486
0.00161888
0.00128355
0.00093403
0.000566829
0.000197218
-0.0734786
-0.0794852
-0.0840789
-0.0871557
-0.089259
-0.0909952
-0.0927169
-0.0945025
-0.0962511
-0.0977838
-0.0989289
-0.0995663
-0.0996214
-0.0990469
-0.0978017
-0.0958447
-0.0931364
-0.0896448
-0.0853579
-0.0802915
-0.0744976
-0.0680639
-0.061113
-0.0537957
-0.0462849
-0.0387671
-0.0314374
-0.0244897
-0.0181129
-0.0124775
-0.00772897
-0.00397055
-0.00126317
0.000399965
0.00110646
0.00105679
0.000529085
-0.000171994
-0.000804061
-0.00121193
-0.00133751
-0.0011913
-0.000830561
-0.000330801
0.000227861
0.000780934
0.0012766
0.0016849
0.00198539
0.00217507
0.00225495
0.00223898
0.00213578
0.00196384
0.00173482
0.00146794
0.00116954
0.000854617
0.000520325
0.000181351
-0.0666467
-0.0719985
-0.0761015
-0.0788429
-0.0806921
-0.0821873
-0.0836513
-0.0851638
-0.0866434
-0.0879366
-0.0888914
-0.0894247
-0.0894537
-0.0889477
-0.0878786
-0.0862165
-0.0839321
-0.0810001
-0.0774081
-0.073165
-0.0683078
-0.0629016
-0.0570404
-0.0508417
-0.0444433
-0.0379957
-0.0316592
-0.0255958
-0.0199651
-0.0149123
-0.0105636
-0.0070098
-0.00430613
-0.00245197
-0.00138659
-0.00096769
-0.000994778
-0.0012416
-0.00151611
-0.00168049
-0.00166838
-0.00146707
-0.0011061
-0.000635255
-0.000114559
0.00040452
0.000877354
0.00127669
0.00158297
0.00179078
0.0018986
0.00191719
0.00185357
0.00172325
0.00153612
0.00130911
0.00104877
0.000770169
0.000470686
0.000164397
-0.060257
-0.0649952
-0.0686395
-0.0710732
-0.0726989
-0.0739914
-0.0752433
-0.0765347
-0.0778024
-0.0789201
-0.0797688
-0.0801937
-0.0802095
-0.0797812
-0.078884
-0.0774943
-0.0755897
-0.0731496
-0.0701624
-0.0666321
-0.0625848
-0.0580682
-0.0531538
-0.0479326
-0.042513
-0.0370149
-0.0315685
-0.0263066
-0.0213621
-0.0168571
-0.0128996
-0.00956966
-0.00691812
-0.00495071
-0.00362901
-0.00285473
-0.00248751
-0.0023602
-0.00232381
-0.00226102
-0.00210557
-0.00183139
-0.00144847
-0.000986023
-0.000486912
9.7786e-06
0.000467386
0.000861895
0.00117508
0.00140096
0.00153661
0.00158929
0.00156402
0.0014744
0.00132935
0.0011428
0.000921558
0.000680954
0.000418081
0.000146463
-0.0543081
-0.0584785
-0.0616996
-0.0638539
-0.0652837
-0.0664049
-0.0674803
-0.0685875
-0.0696766
-0.0706372
-0.0713567
-0.0717545
-0.0717963
-0.0714604
-0.0707299
-0.0695897
-0.0680232
-0.0660134
-0.0635503
-0.0606349
-0.0572851
-0.0535356
-0.0494398
-0.0450676
-0.0405038
-0.0358426
-0.0311881
-0.0266476
-0.0223304
-0.0183376
-0.0147611
-0.0116704
-0.00911251
-0.00709929
-0.00560982
-0.00457881
-0.00391041
-0.00348393
-0.00318597
-0.00292006
-0.00262525
-0.00226914
-0.00184904
-0.00137897
-0.000887309
-0.000402342
4.68473e-05
0.000440843
0.000763226
0.00100699
0.00116904
0.00125536
0.00126881
0.00121959
0.00111568
0.00097013
0.000788326
0.000587445
0.00036265
0.000127569
-0.0487941
-0.0524475
-0.0552829
-0.057185
-0.0584437
-0.0594204
-0.0603495
-0.0613051
-0.062248
-0.0630854
-0.0637211
-0.0640911
-0.0641626
-0.0639175
-0.0633427
-0.0624269
-0.0611576
-0.059522
-0.0575112
-0.055124
-0.0523723
-0.0492808
-0.0458894
-0.0422507
-0.0384305
-0.0345021
-0.0305476
-0.0266523
-0.022905
-0.0193886
-0.01618
-0.0133389
-0.0109091
-0.00890698
-0.00732468
-0.00612118
-0.00523311
-0.00457592
-0.00406596
-0.00362596
-0.00320306
-0.00276362
-0.00229743
-0.00180799
-0.00131264
-0.000830038
-0.000382523
1.45085e-05
0.000347931
0.000611009
0.000799109
0.000916629
0.000966885
0.00095847
0.000897253
0.000794008
0.000648059
0.000490054
0.000304759
0.00010745
-0.0437119
-0.0468966
-0.0493824
-0.051058
-0.0521673
-0.0530226
-0.0538308
-0.0546618
-0.0554856
-0.056225
-0.0567992
-0.0571517
-0.0572538
-0.057092
-0.0566569
-0.0559387
-0.0549283
-0.0536156
-0.0519927
-0.0500566
-0.0478152
-0.0452857
-0.0424972
-0.0394889
-0.0363113
-0.0330207
-0.0296811
-0.0263595
-0.0231269
-0.0200505
-0.0171939
-0.0146081
-0.0123333
-0.0103883
-0.00877484
-0.00746946
-0.00643256
-0.00560659
-0.00493213
-0.00434955
-0.00381503
-0.00329685
-0.00278159
-0.00226571
-0.00175826
-0.00127081
-0.000819327
-0.000414977
-6.90262e-05
0.000213057
0.000428049
0.000577868
0.000663116
0.000692299
0.000671705
0.000611213
0.00051965
0.00039197
0.000245923
8.82063e-05
-0.0390502
-0.0418124
-0.043983
-0.0454564
-0.0464361
-0.0471894
-0.0478981
-0.0486266
-0.0493528
-0.0500129
-0.0505389
-0.0508808
-0.0510141
-0.050927
-0.0506132
-0.0500662
-0.0492791
-0.0482426
-0.0469495
-0.0453966
-0.0435885
-0.0415366
-0.0392616
-0.0367924
-0.034167
-0.0314284
-0.0286258
-0.0258111
-0.0230405
-0.0203676
-0.0178448
-0.0155149
-0.0134139
-0.0115619
-0.00996688
-0.00861797
-0.00749235
-0.0065526
-0.00575829
-0.00506495
-0.00443845
-0.00385086
-0.00328789
-0.00274271
-0.00221848
-0.00172059
-0.0012609
-0.000846739
-0.000485656
-0.000183856
5.54588e-05
0.000236562
0.000359528
0.000427465
0.000444907
0.000423638
0.000371513
0.000287832
0.000182162
6.4515e-05
-0.0347924
-0.0371771
-0.0390657
-0.0403596
-0.0412269
-0.0418948
-0.0425214
-0.0431654
-0.0438112
-0.0444059
-0.0448935
-0.0452325
-0.0453894
-0.0453659
-0.0451571
-0.0447575
-0.0441605
-0.0433578
-0.0423438
-0.0411145
-0.039672
-0.0380232
-0.0361833
-0.0341726
-0.0320194
-0.0297559
-0.0274198
-0.0250506
-0.0226922
-0.0203868
-0.018177
-0.0160985
-0.0141829
-0.0124502
-0.0109123
-0.00956658
-0.00840219
-0.00739625
-0.0065228
-0.00575023
-0.00505308
-0.00440836
-0.00380323
-0.00322899
-0.00268557
-0.00217485
-0.00170368
-0.00127699
-0.00090089
-0.000578709
-0.000312992
-0.000104056
4.94028e-05
0.000155732
0.000220262
0.000243252
0.000228304
0.000187819
0.000125056
4.80729e-05
-0.0309213
-0.0329704
-0.034608
-0.0357429
-0.0365128
-0.0371091
-0.0376676
-0.0382412
-0.0388193
-0.0393585
-0.0398107
-0.0401377
-0.0403219
-0.0403567
-0.0402394
-0.0399647
-0.0395276
-0.038922
-0.0381423
-0.0371842
-0.0360481
-0.0347384
-0.0332652
-0.0316424
-0.0298907
-0.0280339
-0.0261007
-0.0241207
-0.0221279
-0.0201548
-0.0182357
-0.0163999
-0.0146748
-0.0130792
-0.0116267
-0.0103205
-0.00915745
-0.00812514
-0.00720862
-0.00638607
-0.00564017
-0.00495291
-0.00431328
-0.00371351
-0.00315165
-0.00262602
-0.00214238
-0.00170284
-0.00130929
-0.000966937
-0.000678538
-0.000439248
-0.000250648
-0.000112406
-2.37938e-05
3.56691e-05
7.03988e-05
6.85856e-05
4.88611e-05
1.78733e-05
-0.0274177
-0.0291703
-0.0305854
-0.0315801
-0.0322657
-0.0328016
-0.0333035
-0.0338183
-0.034339
-0.0348302
-0.0352522
-0.0355736
-0.0357778
-0.0358598
-0.0358175
-0.0356468
-0.0353435
-0.0349018
-0.0343168
-0.0335842
-0.0327037
-0.0316771
-0.030511
-0.0292146
-0.0278028
-0.0262925
-0.0247053
-0.0230632
-0.0213923
-0.0197172
-0.0180653
-0.0164602
-0.0149251
-0.0134771
-0.0121301
-0.0108904
-0.0097603
-0.00873431
-0.00780523
-0.00695955
-0.00618626
-0.00547187
-0.00480854
-0.00418903
-0.00361087
-0.00307216
-0.00257539
-0.00212115
-0.00171149
-0.00134979
-0.00103572
-0.000768668
-0.000547608
-0.000366682
-0.000219859
-0.000120347
-6.14625e-05
-1.43066e-05
5.84925e-06
8.66309e-06
-0.0242614
-0.0257532
-0.0269722
-0.0278436
-0.0284563
-0.0289414
-0.0293964
-0.029862