/*--------------------------------*- C++ -*----------------------------------*\
| =========                 |                                                 |
| \\      /  F ield         | OpenFOAM: The Open Source CFD Toolbox           |
|  \\    /   O peration     | Version:  2312                                  |
|   \\  /    A nd           | Website:  www.openfoam.com                      |
|    \\/     M anipulation  |                                                 |
\*---------------------------------------------------------------------------*/
FoamFile
{
    version     2.0;
    format      ascii;
    arch        "LSB;label=32;scalar=64";
    class       volVectorField;
    location    "22";
    object      U;
}
// * * * * * * * * * * * * * * * * * * * * * * * * * * * * * * * * * * * * * //

dimensions      [0 1 -1 0 0 0 0];

internalField   nonuniform List<vector> 
940
(
(-0.145596 0.0394311 1.35611e-19)
(0.340089 0.0234239 0)
(0.751442 0.0654045 7.60375e-20)
(1.04027 0.0707291 -5.52807e-20)
(1.25734 0.0994288 -6.97184e-20)
(1.32057 0.0560179 5.13775e-20)
(0.0125709 0.0838651 -1.74518e-19)
(0.885818 0.121974 5.57525e-21)
(1.15691 0.191793 -4.71473e-20)
(1.28594 0.184708 5.07718e-20)
(1.23386 0.154221 0)
(1.09178 0.106409 -3.55383e-20)
(0.604967 0.248657 -2.0901e-20)
(1.16688 0.219559 -1.00332e-20)
(1.18092 0.267287 5.04579e-20)
(1.13523 0.182516 -2.85312e-20)
(1.06797 0.166609 1.29469e-20)
(1.12919 0.140499 0)
(-0.090595 0.180376 1.83323e-20)
(-0.160512 0.1247 -1.31101e-20)
(-0.216529 0.0805667 8.53297e-22)
(-0.20111 0.0415165 4.68633e-20)
(-0.220216 0.0777027 -2.30823e-20)
(-0.108088 0.0912366 0)
(-0.0783977 0.185899 3.93661e-20)
(-0.0253692 0.189816 1.83651e-21)
(-0.0564232 0.156159 2.33264e-20)
(0.181661 0.113832 -3.26843e-22)
(0.150712 0.0678772 -4.64526e-20)
(0.577461 0.0400653 6.80757e-20)
(-0.135875 0.134664 -4.03903e-20)
(-0.0387749 0.138078 0)
(0.205603 0.0927575 -8.17064e-20)
(0.586166 0.0531517 5.93952e-20)
(0.732198 0.0325078 8.39456e-20)
(1.11846 0.00892795 -6.1815e-20)
(-0.0607768 0.032812 0)
(-0.0128171 0.0163105 1.99413e-20)
(0.0296576 -0.0139396 -1.39433e-21)
(0.164689 -0.0877996 -2.70761e-20)
(0.278164 -0.161556 1.44615e-20)
(0.428984 -0.239329 -3.15451e-21)
(0.552701 -0.239583 0)
(0.6609 -0.182846 7.76363e-22)
(0.771873 -0.133863 -6.92506e-22)
(0.840232 -0.0903098 -1.04444e-22)
(0.891945 -0.0867891 -6.34413e-23)
(0.915545 -0.054411 0)
(0.941562 -0.0543753 0)
(0.96011 -0.0127745 0)
(0.973088 -0.0130416 0)
(0.983091 0.0233967 -7.80348e-24)
(0.548136 0.015676 -5.15284e-20)
(0.617176 -0.0284546 4.60556e-20)
(0.694578 -0.0993592 -4.08734e-20)
(0.786114 -0.182127 2.85593e-20)
(0.899238 -0.258935 -2.5028e-20)
(1.00434 -0.307925 0)
(1.05147 -0.281755 0)
(1.06071 -0.204159 -4.86088e-25)
(1.07057 -0.138264 0)
(1.07484 -0.0783052 -1.22662e-21)
(1.06526 -0.0654704 1.25267e-21)
(1.03175 -0.0359382 7.4579e-23)
(1.00416 -0.043652 0)
(0.989201 -0.00992918 -2.78446e-23)
(0.984779 -0.0132843 0)
(0.98855 0.0224815 7.78671e-24)
(1.10804 -0.0301714 -4.24648e-22)
(1.13799 -0.0631843 0)
(1.17534 -0.123648 7.72802e-20)
(1.20934 -0.198688 -6.79975e-20)
(1.23896 -0.287101 -4.13302e-20)
(1.2122 -0.339826 3.61452e-20)
(1.11343 -0.309436 0)
(1.02002 -0.228918 5.39591e-25)
(0.971662 -0.165391 7.38001e-22)
(0.97092 -0.101961 -6.49398e-22)
(0.981964 -0.0783669 0)
(0.992783 -0.0384753 -7.93383e-23)
(0.991698 -0.0431141 1.63398e-22)
(0.990661 -0.00903695 -1.14347e-22)
(0.988304 -0.0126174 0)
(0.992777 0.0224707 0)
(1.2711 0.00691284 0)
(1.28138 -0.0397883 0)
(1.27173 -0.0890641 0)
(1.25497 -0.145718 0)
(1.21172 -0.192484 0)
(1.12083 -0.205997 0)
(1.01958 -0.199909 0)
(0.94729 -0.164423 0)
(0.915723 -0.135865 0)
(0.913542 -0.093848 0)
(0.933215 -0.0794736 0)
(0.959643 -0.0427142 0)
(0.977735 -0.0456442 0)
(0.988656 -0.0114334 0)
(0.989883 -0.0144574 0)
(0.995737 0.0207792 0)
(1.188 -0.00774479 0)
(1.20185 -0.0529016 0)
(1.19825 -0.100104 0)
(1.17473 -0.144326 0)
(1.12995 -0.183422 0)
(1.0856 -0.217096 0)
(1.03898 -0.227642 0)
(0.99861 -0.191337 0)
(0.989969 -0.156295 0)
(0.993696 -0.109513 0)
(0.997013 -0.0924403 0)
(0.996346 -0.0508988 0)
(0.99391 -0.0490897 0)
(0.995854 -0.0113148 0)
(0.993784 -0.0131482 0)
(0.999483 0.021707 0)
(1.15745 -0.00942599 0)
(1.17123 -0.0435735 0)
(1.16782 -0.0800718 0)
(1.15043 -0.10932 0)
(1.12982 -0.141259 0)
(1.10116 -0.156833 0)
(1.05832 -0.157457 0)
(1.01743 -0.142279 0)
(0.99328 -0.133261 0)
(0.984714 -0.0965886 0)
(0.982936 -0.0799983 0)
(0.987478 -0.0417743 0)
(0.989927 -0.0460325 0)
(0.996561 -0.0125659 0)
(0.995428 -0.0163049 0)
(1.00225 0.0182902 0)
(1.12365 -0.0137828 0)
(1.13455 -0.0437544 0)
(1.13215 -0.0731489 0)
(1.12263 -0.103471 0)
(1.10641 -0.128401 0)
(1.08074 -0.148202 0)
(1.05801 -0.168224 0)
(1.0371 -0.152498 0)
(1.01582 -0.132313 0)
(1.00175 -0.098267 0)
(0.99702 -0.090361 0)
(1.00095 -0.0519085 0)
(1.0007 -0.0499081 0)
(1.0057 -0.0116789 0)
(1.00221 -0.0127266 0)
(1.00891 0.0213885 0)
(1.10796 -0.0291448 0)
(1.11532 -0.0476075 0)
(1.11798 -0.0720473 0)
(1.11376 -0.0921786 0)
(1.10321 -0.111377 0)
(1.09104 -0.120875 0)
(1.07144 -0.127997 0)
(1.0463 -0.12056 0)
(1.02833 -0.118636 0)
(1.02164 -0.0909522 0)
(1.01398 -0.0823334 0)
(1.01109 -0.045529 0)
(1.00525 -0.0497168 0)
(1.00967 -0.015351 0)
(1.00507 -0.0190065 0)
(1.01205 0.0136423 0)
(1.09356 -0.0227287 0)
(1.09969 -0.0381644 0)
(1.10196 -0.0579193 0)
(1.09899 -0.0753124 0)
(1.0925 -0.0910074 0)
(1.082 -0.100185 0)
(1.0702 -0.113269 0)
(1.05959 -0.107334 0)
(1.04408 -0.103705 0)
(1.03342 -0.0791963 0)
(1.02311 -0.0772124 0)
(1.02315 -0.0427986 0)
(1.0158 -0.0443361 0)
(1.02179 -0.009119 0)
(1.01467 -0.0103094 0)
(1.02271 0.021151 0)
(1.09483 -0.0459172 0)
(1.09898 -0.0579106 0)
(1.10035 -0.072921 0)
(1.0992 -0.0848179 0)
(1.09509 -0.0963946 0)
(1.08953 -0.10084 0)
(1.0804 -0.108087 0)
(1.07139 -0.101713 0)
(1.05828 -0.103103 0)
(1.05222 -0.0798967 0)
(1.04076 -0.0799501 0)
(1.03729 -0.0457298 0)
(1.02521 -0.0519136 0)
(1.02895 -0.0188089 0)
(1.01936 -0.0219446 0)
(1.02612 0.00554386 0)
(1.10838 -0.0218527 0)
(1.11086 -0.0311809 0)
(1.1104 -0.0425802 0)
(1.10982 -0.0529262 0)
(1.10546 -0.0624309 0)
(1.10223 -0.0654614 0)
(1.09275 -0.0730523 0)
(1.0887 -0.0671625 0)
(1.07427 -0.0689401 0)
(1.06987 -0.0498003 0)
(1.05336 -0.0533119 0)
(1.05416 -0.0238865 0)
(1.03583 -0.0295615 0)
(1.04384 -0.000893362 0)
(1.03054 -0.00309833 0)
(1.04022 0.0213322 0)
(1.12656 -0.0570874 0)
(1.12797 -0.0642894 0)
(1.12531 -0.0727456 0)
(1.12399 -0.0805898 0)
(1.11797 -0.0864371 0)
(1.11581 -0.0877271 0)
(1.1052 -0.0903824 0)
(1.10281 -0.0821589 0)
(1.08721 -0.0829457 0)
(1.08531 -0.0618023 0)
(1.06634 -0.0654196 0)
(1.06655 -0.0371356 0)
(1.04572 -0.0455373 0)
(1.05208 -0.0216374 0)
(1.03654 -0.0226846 0)
(1.04378 -0.00789734 0)
(1.24408 0.00320256 0)
(1.24509 -0.0023601 0)
(1.23116 -0.00853417 0)
(1.22968 -0.0129434 0)
(1.20561 -0.0178795 0)
(1.20463 -0.0217726 0)
(1.16795 -0.0236899 0)
(1.16963 -0.0189268 0)
(1.12294 -0.0198844 0)
(1.12933 -0.00513937 0)
(1.08348 -0.00819931 0)
(1.0939 0.00798263 0)
(1.0577 0.000396461 0)
(1.06475 0.0140058 0)
(1.04637 0.0135013 0)
(1.05549 0.0216793 0)
(1.21153 0.123375 -9.10665e-21)
(1.09503 0.0877218 5.45216e-20)
(1.23687 0.0554769 0)
(1.15336 0.10695 7.36239e-21)
(1.10212 0.0605209 -4.80497e-21)
(1.15651 0.0434102 -4.23393e-20)
(1.11555 0.0677927 0)
(1.11059 0.0341212 -1.2024e-20)
(1.12695 0.0186877 8.51143e-21)
(1.09462 0.0538991 1.73533e-22)
(1.10395 0.0260395 -1.82807e-22)
(1.10711 0.0146524 2.03056e-20)
(1.08666 0.0268774 5.86933e-22)
(1.09449 0.00365427 0)
(1.09517 -0.0104613 0)
(1.08426 0.0213585 -5.69875e-22)
(1.08957 0.0019313 1.4079e-21)
(1.08716 -0.0090399 0)
(1.09295 -0.00855925 -7.68741e-23)
(1.09591 -0.0237182 -1.15508e-21)
(1.09072 -0.0339379 0)
(1.11244 0.0106207 1.17046e-23)
(1.11322 -0.000853285 4.94535e-23)
(1.10731 -0.011461 0)
(1.13444 -0.0313843 6.61666e-23)
(1.13481 -0.0404254 4.70392e-23)
(1.12805 -0.0491309 -2.26702e-22)
(1.26421 0.0218195 0)
(1.25827 0.016377 0)
(1.25447 0.00869249 1.3878e-22)
(0.850133 0.210372 -8.8011e-21)
(0.973735 0.272193 1.19649e-20)
(1.00404 0.328779 5.4471e-21)
(0.886311 0.390125 -6.69577e-21)
(0.897578 0.450025 0)
(0.750841 0.620613 -7.89664e-20)
(1.00456 0.18913 3.97645e-21)
(0.939947 0.235563 0)
(1.01533 0.276436 1.58196e-20)
(1.03698 0.399007 4.9231e-21)
(1.09181 0.40744 2.42824e-20)
(0.880616 0.525566 -3.28937e-20)
(1.05639 0.192374 0)
(1.12534 0.24492 8.68187e-21)
(1.15735 0.261007 -2.01229e-20)
(1.10115 0.3271 1.59211e-20)
(1.16004 0.278506 -5.55529e-21)
(0.884939 0.352983 -2.1276e-20)
(0.802795 0.065642 0)
(0.746027 0.062555 1.84701e-20)
(0.673802 0.0727857 -4.05394e-20)
(0.571698 0.0799373 4.16889e-20)
(0.422696 0.11426 2.02823e-20)
(0.189653 0.119656 -2.83469e-20)
(0.836871 0.133848 3.2898e-20)
(0.768846 0.147251 3.10087e-20)
(0.68939 0.18366 2.60331e-20)
(0.634513 0.239793 -4.96404e-20)
(0.524154 0.318144 4.15084e-21)
(0.314901 0.402561 -6.69662e-20)
(0.91295 0.187094 2.45414e-20)
(0.922329 0.22392 -3.33682e-20)
(0.790476 0.249041 -4.81297e-20)
(0.713589 0.327985 4.07191e-20)
(0.712599 0.452512 0)
(0.513744 0.589022 4.77401e-21)
(0.98384 0.154942 2.39529e-22)
(1.00094 0.115149 -1.37442e-22)
(0.980283 0.114255 -3.70237e-23)
(0.951629 0.117112 0)
(0.943992 0.0986807 -8.2623e-22)
(0.949722 0.0900764 1.14274e-21)
(0.93356 0.0756108 0)
(0.919187 0.0727547 1.64021e-22)
(0.883758 0.0648882 0)
(0.849541 0.0671277 0)
(0.979669 0.150047 -2.38795e-22)
(1.00309 0.119353 0)
(0.992457 0.119848 -6.34556e-22)
(0.951291 0.128915 1.03852e-21)
(0.956822 0.0918349 2.21246e-22)
(0.945388 0.101653 -1.36871e-22)
(0.938003 0.0721636 0)
(0.914595 0.0976023 -1.73372e-22)
(0.895969 0.0843278 -1.89731e-20)
(0.858208 0.116468 -3.81634e-21)
(0.966671 0.148953 5.52227e-22)
(1.02367 0.118087 -7.00785e-22)
(0.987061 0.123808 0)
(0.948412 0.13393 0)
(0.982809 0.0896186 -2.41492e-22)
(0.92828 0.112903 0)
(0.952517 0.0821102 -1.79004e-20)
(0.905115 0.120283 4.80368e-20)
(0.926058 0.120838 -6.5337e-20)
(0.883114 0.170923 4.16951e-20)
(0.96868 0.145343 0)
(1.02101 0.117809 0)
(0.977644 0.135138 0)
(0.983186 0.129457 0)
(0.956273 0.0871817 0)
(0.970811 0.117894 0)
(0.938936 0.0724642 0)
(0.957046 0.131446 0)
(0.919936 0.114702 0)
(0.963473 0.182597 0)
(0.987213 0.143377 0)
(0.994941 0.121795 0)
(0.970671 0.128778 0)
(1.01764 0.138868 0)
(0.949162 0.0907615 0)
(0.99275 0.119203 0)
(0.95213 0.0834693 0)
(0.973208 0.138161 0)
(0.954529 0.116894 0)
(0.986051 0.157874 0)
(1.00611 0.142338 0)
(0.969405 0.124553 0)
(0.979695 0.124334 0)
(1.00996 0.141232 0)
(0.981225 0.0966967 0)
(0.992114 0.116914 0)
(0.982744 0.0919363 0)
(0.979914 0.124099 0)
(0.992204 0.107622 0)
(0.999569 0.132877 0)
(1.01277 0.141424 0)
(0.962381 0.129197 0)
(0.990308 0.11562 0)
(1.00087 0.138801 0)
(1.00526 0.102538 0)
(0.99448 0.123461 0)
(1.00447 0.0959181 0)
(0.997312 0.119881 0)
(1.01337 0.101098 0)
(1.0155 0.115779 0)
(1.01141 0.141517 0)
(0.967411 0.128146 0)
(1.0007 0.111376 0)
(1.00155 0.127515 0)
(1.01731 0.100885 0)
(1.00945 0.112476 0)
(1.02698 0.090755 0)
(1.02246 0.100108 0)
(1.03606 0.0832234 0)
(1.03686 0.0866592 0)
(1.00715 0.140057 0)
(0.976195 0.130309 0)
(1.01025 0.111059 0)
(1.01063 0.123901 0)
(1.02722 0.1078 0)
(1.02272 0.113622 0)
(1.04069 0.0966746 0)
(1.03895 0.096628 0)
(1.05122 0.0821082 0)
(1.05054 0.0799328 0)
(1.00382 0.132371 0)
(0.987046 0.114155 0)
(1.02415 0.0946913 0)
(1.0249 0.0980126 0)
(1.04382 0.0861866 0)
(1.04219 0.0843767 0)
(1.06257 0.0704256 0)
(1.06128 0.0646361 0)
(1.07307 0.051811 0)
(1.07036 0.0451418 0)
(0.999712 0.135396 0)
(1.00513 0.117904 0)
(1.04304 0.105208 0)
(1.04994 0.101512 0)
(1.06824 0.0972371 0)
(1.06982 0.0921425 0)
(1.08794 0.0831941 0)
(1.08862 0.0748703 0)
(1.09842 0.0651007 0)
(1.09643 0.0568732 0)
(0.994342 0.0874495 0)
(1.02408 0.0665346 0)
(1.06051 0.0496023 0)
(1.07201 0.0455271 0)
(1.09071 0.0400944 0)
(1.0944 0.0366639 0)
(1.11245 0.0284498 0)
(1.11403 0.0219781 0)
(1.12394 0.013144 0)
(1.12132 0.00730828 0)
(0.991459 0.104662 0)
(1.11722 0.077272 0)
(1.1556 0.069918 0)
(1.1788 0.060268 0)
(1.20463 0.0605428 0)
(1.21752 0.0546722 0)
(1.23599 0.0536389 0)
(1.24365 0.0476916 0)
(1.25192 0.0450032 0)
(1.25372 0.0406403 0)
(0.935463 0.167397 -1.24266e-20)
(1.11604 0.160518 -7.44133e-21)
(1.03995 0.147931 5.84191e-21)
(0.980938 0.150827 4.9208e-21)
(1.08009 0.150185 -2.98049e-22)
(1.03512 0.11964 -4.72285e-21)
(1.01468 0.122305 2.75551e-21)
(1.05937 0.11397 2.89508e-21)
(1.06808 0.0823347 0)
(1.03529 0.0994701 6.34453e-22)
(1.05757 0.0929311 -9.05912e-23)
(1.07815 0.0655804 8.60393e-23)
(1.05448 0.0707584 3.11638e-22)
(1.06861 0.0620889 0)
(1.08351 0.038535 -4.57265e-22)
(1.06455 0.0650494 0)
(1.07462 0.0529612 5.43862e-23)
(1.08466 0.0338598 3.19084e-22)
(1.08256 0.0327324 0)
(1.08929 0.0210151 -2.75533e-23)
(1.09602 0.00508134 -3.57076e-23)
(1.10475 0.0472666 -8.40645e-22)
(1.11048 0.0359179 2.78081e-22)
(1.11552 0.0232989 3.93057e-23)
(1.12778 -0.00100901 9.77396e-22)
(1.1332 -0.0109424 -1.71068e-22)
(1.13757 -0.0211922 1.18292e-22)
(1.25696 0.0384452 -3.78812e-22)
(1.26263 0.0329357 0)
(1.26395 0.0297223 0)
(-0.13217 -0.0548165 -1.30812e-19)
(-0.0790552 -0.0289857 1.29654e-19)
(0.407811 -0.240169 2.0207e-20)
(0.135515 -0.0637892 0)
(0.751241 -0.137642 -5.62005e-21)
(1.11667 -0.301384 -1.44358e-20)
(0.579383 -0.132168 -8.01507e-20)
(1.09522 -0.236948 4.91583e-20)
(1.18939 -0.374051 -3.28588e-20)
(0.888597 -0.125175 8.50418e-20)
(1.24519 -0.268089 -3.16563e-20)
(1.13826 -0.269965 2.96966e-20)
(1.10908 -0.181308 7.71151e-20)
(1.29621 -0.245225 -3.45387e-20)
(1.06595 -0.243284 -1.36529e-20)
(1.30263 -0.133965 -5.68264e-20)
(1.21274 -0.228241 3.99172e-20)
(1.0448 -0.192682 0)
(-0.137391 -0.0580674 -1.66283e-20)
(-0.115088 -0.21959 -8.37005e-20)
(-0.118585 -0.143552 4.09676e-20)
(-0.27325 -0.0148347 -1.54339e-20)
(-0.0793576 -0.202509 -4.40717e-21)
(-0.0460499 -0.189573 0)
(-0.361661 0.00668259 1.81498e-20)
(-0.152124 -0.147004 -2.7473e-20)
(0.0740033 -0.110474 9.01856e-20)
(-0.367438 0.0697444 -4.87528e-20)
(0.0586812 -0.0906345 3.72472e-20)
(0.490673 -0.118733 -3.23972e-20)
(-0.404394 0.0703807 2.41764e-20)
(-0.0167277 -0.0192018 0)
(0.497579 -0.0564102 -9.69752e-20)
(-0.318322 0.152787 0)
(0.332936 0.0211786 -6.45666e-20)
(0.971408 -0.0968788 7.14024e-20)
(-0.355183 0.120696 0)
(0.17938 0.0746737 4.92153e-20)
(0.913809 -0.0550242 0)
(-0.292453 0.0696172 -1.81256e-20)
(0.183024 0.0789445 -3.56118e-20)
(0.856334 -0.00683888 0)
(-0.31701 0.0735943 1.93095e-21)
(0.102612 0.0708099 3.18638e-20)
(0.803786 0.0153723 -2.72108e-22)
(-0.212079 0.0231071 2.25892e-20)
(0.108785 0.074769 -1.82704e-20)
(0.788652 0.0515376 0)
(-0.154425 -0.0551065 -1.1719e-20)
(0.108251 0.0327359 1.59985e-20)
(0.737898 0.054639 3.15827e-20)
(0.0139985 -0.106928 2.54178e-21)
(0.224379 0.00837855 0)
(0.779351 0.0857497 -2.76479e-20)
(0.194831 -0.101525 0)
(0.394778 0.00747616 0)
(0.872792 0.120787 0)
(0.406317 -0.0647322 -7.58458e-22)
(0.594689 0.0207529 0)
(0.946323 0.129361 0)
(0.579937 -0.0445289 6.76502e-22)
(0.742382 0.00282967 0)
(0.973971 0.0828186 -1.67531e-21)
(0.705029 -0.0251791 1.14557e-22)
(0.847671 -0.00484434 1.4564e-21)
(0.980182 0.0437683 1.47413e-21)
(0.793796 -0.0368688 6.74459e-23)
(0.90083 -0.027319 -1.47041e-21)
(0.974588 -0.00311524 0)
(0.863458 -0.0181084 0)
(0.934898 -0.0122761 -7.11794e-23)
(0.967253 -0.00239246 7.57217e-23)
(0.91593 -0.0309953 0)
(0.952775 -0.0273571 0)
(0.966087 -0.0232699 -1.33563e-22)
(0.95078 -0.000688584 0)
(0.964894 0.00140581 2.21056e-23)
(0.966731 0.00333266 9.4138e-23)
(0.969018 -0.00779475 0)
(0.972192 -0.00680337 0)
(0.971136 -0.00503447 0)
(0.979527 0.0252362 7.51301e-24)
(0.977407 0.0256289 -7.49694e-24)
(0.974102 0.0264756 0)
(1.25182 -0.0912889 0)
(1.19438 -0.0965175 0)
(1.13461 -0.0920074 0)
(1.0894 -0.0834194 0)
(1.04753 -0.0838796 0)
(1.01021 -0.0711383 0)
(0.974596 -0.0858302 0)
(0.931809 -0.0570056 0)
(0.903254 -0.0810559 0)
(0.817896 -0.0243021 0)
(1.24217 -0.0613065 0)
(1.19772 -0.0622733 0)
(1.14629 -0.0653452 0)
(1.09843 -0.0617632 0)
(1.05251 -0.0745306 0)
(1.0139 -0.0676658 0)
(0.97714 -0.085197 0)
(0.93456 -0.0576808 0)
(0.905901 -0.0821463 0)
(0.825219 -0.0248667 0)
(1.20481 -0.0381706 0)
(1.1889 -0.0314909 0)
(1.14785 -0.0401444 0)
(1.09422 -0.0456541 0)
(1.0513 -0.0647659 0)
(1.01418 -0.0617104 0)
(0.979315 -0.0822047 0)
(0.938047 -0.0561761 0)
(0.910509 -0.0791705 0)
(0.84025 -0.0222657 0)
(1.18365 0.000231964 0)
(1.17195 0.0035023 0)
(1.13395 -0.030343 0)
(1.07894 -0.0342504 0)
(1.04471 -0.0573698 0)
(1.01074 -0.0536254 0)
(0.978308 -0.0761015 0)
(0.938453 -0.0519126 0)
(0.911677 -0.0755024 0)
(0.844877 -0.0206123 0)
(1.13272 0.00774498 0)
(1.1405 0.00762219 0)
(1.11038 -0.0275748 0)
(1.06307 -0.0289095 0)
(1.03789 -0.0521194 0)
(1.00577 -0.0458245 0)
(0.977623 -0.0696091 0)
(0.941202 -0.0467641 0)
(0.916393 -0.0702444 0)
(0.864601 -0.0171178 0)
(1.11317 0.048682 0)
(1.12382 0.0465277 0)
(1.08867 -0.000672665 0)
(1.0484 -0.00654199 0)
(1.03133 -0.0389613 0)
(0.998459 -0.033611 0)
(0.974594 -0.0615813 0)
(0.940306 -0.0408801 0)
(0.917405 -0.0658839 0)
(0.865984 -0.0129609 0)
(1.09782 0.0856561 0)
(1.06635 0.0839185 0)
(1.04657 0.0197366 0)
(1.02777 0.0195269 0)
(1.01533 -0.02591 0)
(0.990231 -0.0214615 0)
(0.971345 -0.0542839 0)
(0.942916 -0.034611 0)
(0.924267 -0.0579724 0)
(0.89208 -0.00683426 0)
(1.04727 0.0844945 0)
(0.986952 0.0795659 0)
(0.991753 0.0314026 0)
(0.995063 0.0305821 0)
(0.988041 -0.0105506 0)
(0.975784 -0.00752495 0)
(0.962423 -0.0417771 0)
(0.93845 -0.0229955 0)
(0.922314 -0.0504499 0)
(0.883964 -0.00403792 0)
(0.985235 0.0418748 0)
(0.945911 0.0419053 0)
(0.95981 0.0191592 0)
(0.966445 0.0166941 0)
(0.969601 -0.012004 0)
(0.964458 -0.00689981 0)
(0.959101 -0.0375411 0)
(0.942883 -0.0177077 0)
(0.931988 -0.0435357 0)
(0.9197 0.00243005 0)
(0.942097 0.0147201 0)
(0.935719 0.024276 0)
(0.946191 0.00909531 0)
(0.948161 0.015463 0)
(0.955278 -0.00718031 0)
(0.951566 0.00308029 0)
(0.949135 -0.0245824 0)
(0.935382 -0.00455748 0)
(0.92632 -0.0321479 0)
(0.89663 0.0107008 0)
(0.933412 -0.0193173 0)
(0.94012 -0.00428484 0)
(0.943915 -0.0185401 0)
(0.945588 -0.00269737 0)
(0.950544 -0.0228424 0)
(0.949724 -0.00582689 0)
(0.948994 -0.0314298 0)
(0.942669 -0.00719776 0)
(0.937933 -0.0344097 0)
(0.937901 0.00807976 0)
(0.940202 -0.0101622 0)
(0.947038 0.00235091 0)
(0.944454 -0.00830458 0)
(0.946703 0.00745329 0)
(0.945212 -0.00824212 0)
(0.945025 0.00965996 0)
(0.941157 -0.0123592 0)
(0.933824 0.0111986 0)
(0.928042 -0.0175481 0)
(0.904932 0.0198801 0)
(0.953725 -0.0256918 0)
(0.956846 -0.0179415 0)
(0.952832 -0.0238975 0)
(0.955267 -0.0119419 0)
(0.951155 -0.0235155 0)
(0.952687 -0.00622418 0)
(0.947941 -0.0264988 0)
(0.947051 -0.000643356 0)
(0.941625 -0.0304055 0)
(0.946303 0.00795051 0)
(0.960563 0.00225178 0)
(0.960073 0.00647971 0)
(0.955304 0.00362918 0)
(0.954872 0.0112243 0)
(0.948712 0.00382477 0)
(0.946499 0.0165003 0)
(0.939958 0.00105148 0)
(0.933235 0.0216941 0)
(0.927158 -0.00717028 0)
(0.915983 0.0279697 0)
(0.968005 -0.00567345 0)
(0.96659 -0.00274835 0)
(0.963361 -0.00527142 0)
(0.96187 0.000939085 0)
(0.957328 -0.00609559 0)
(0.955247 0.00599986 0)
(0.949566 -0.00958896 0)
(0.946747 0.0115188 0)
(0.940555 -0.0166185 0)
(0.938013 0.0167853 0)
(0.970881 0.0262269 0)
(0.967825 0.0275546 0)
(0.964259 0.0258862 0)
(0.959396 0.0295816 0)
(0.954909 0.0234574 0)
(0.946863 0.0319371 0)
(0.94195 0.0160957 0)
(0.930245 0.0330303 0)
(0.925866 -0.00202605 0)
(0.91638 0.0289552 0)
(1.08823 -0.160528 1.06459e-20)
(1.1209 -0.160887 -8.60682e-21)
(1.09212 -0.135506 0)
(1.05805 -0.109193 -2.50119e-22)
(1.02443 -0.0927442 -1.28912e-21)
(0.994958 -0.0685835 1.29767e-21)
(0.964383 -0.0751276 3.72181e-22)
(0.923391 -0.0459974 2.98242e-22)
(0.894384 -0.0741607 4.668e-22)
(0.783951 -0.0230311 0)
(1.10498 -0.177357 -6.16633e-20)
(1.07763 -0.13805 4.59328e-21)
(1.07196 -0.113023 1.44292e-20)
(1.05613 -0.099271 2.63479e-22)
(1.02523 -0.091881 0)
(0.995044 -0.0700287 -2.61478e-22)
(0.964224 -0.0790776 1.14764e-21)
(0.923885 -0.0498959 -2.13113e-21)
(0.89648 -0.0776468 9.48554e-22)
(0.796141 -0.0238095 0)
(1.24224 -0.157471 8.0722e-20)
(1.15439 -0.137646 -1.60958e-20)
(1.1032 -0.115343 -8.45792e-21)
(1.07337 -0.10062 -4.40413e-20)
(1.03943 -0.0929664 1.57213e-20)
(1.00672 -0.0720513 0)
(0.973795 -0.0840949 0)
(0.93101 -0.0551814 1.80328e-21)
(0.901791 -0.0803098 -3.31505e-21)
(0.806628 -0.0261774 7.24097e-22)
(0.982167 -0.249624 6.76771e-21)
(0.915871 -0.204475 -6.09952e-21)
(1.11122 -0.254027 0)
(1.00066 -0.284728 -9.20034e-21)
(0.956285 -0.28109 -7.13814e-21)
(1.13629 -0.287175 -9.42464e-21)
(0.895332 -0.309943 -3.37052e-21)
(1.00288 -0.321555 -7.75302e-21)
(1.08256 -0.282511 2.12999e-20)
(0.861991 -0.415667 4.63392e-21)
(1.02025 -0.461929 -4.53251e-21)
(1.07942 -0.36534 -9.82235e-22)
(0.959153 -0.505885 0)
(1.08249 -0.45087 -2.37912e-20)
(1.19331 -0.349696 -1.43835e-20)
(0.78581 -0.668682 8.51964e-20)
(0.852948 -0.539265 -1.35304e-20)
(0.871422 -0.402641 2.01248e-20)
(0.795198 -0.032126 0)
(0.82748 -0.0992445 -3.12325e-20)
(0.886487 -0.175326 -2.2777e-20)
(0.74642 -0.0567376 -1.87856e-20)
(0.782021 -0.134143 0)
(0.769518 -0.193756 3.09659e-20)
(0.663183 -0.0795186 4.12403e-20)
(0.784756 -0.208067 -4.84871e-20)
(0.733659 -0.273347 2.65922e-20)
(0.535514 -0.103419 -6.7347e-20)
(0.700084 -0.256112 4.78887e-20)
(0.778054 -0.407273 -3.65635e-20)
(0.387661 -0.153519 1.5475e-20)
(0.564661 -0.338922 -4.51351e-21)
(0.742715 -0.500102 0)
(0.160371 -0.180813 2.73496e-20)
(0.340299 -0.444518 1.06594e-19)
(0.519289 -0.62784 -1.13034e-20)
(0.990844 0.155011 -1.49569e-22)
(0.987574 0.158526 1.4911e-22)
(0.97086 0.154145 -1.5747e-22)
(0.987712 0.113205 -4.05502e-23)
(0.977 0.104245 1.58188e-22)
(0.980516 0.105865 1.99844e-22)
(0.973662 0.111645 1.20044e-23)
(0.974804 0.10798 1.68998e-22)
(0.981704 0.0994718 2.68975e-22)
(0.945747 0.105439 0)
(0.933571 0.0961834 -7.15686e-22)
(0.933312 0.10772 0)
(0.949881 0.105269 7.7772e-22)
(0.982744 0.119086 -1.5546e-22)
(1.03135 0.109383 1.69679e-22)
(0.956872 0.0738282 -1.07078e-21)
(0.964171 0.0661494 -1.07605e-22)
(0.91326 0.0376642 2.56036e-22)
(0.937639 0.0688494 0)
(0.948201 0.0679976 0)
(0.950704 0.0283692 1.56069e-20)
(0.921406 0.0279117 -1.55365e-22)
(0.924264 0.000332365 1.64222e-22)
(0.898962 -0.0483885 -4.28305e-20)
(0.877954 0.0168725 0)
(0.893204 -0.00832566 1.78118e-20)
(0.915286 -0.0721808 2.88204e-20)
(0.845772 -0.0165492 0)
(0.857258 -0.0702158 3.86379e-21)
(0.873489 -0.154763 0)
(0.955168 0.155105 0)
(0.953463 0.152761 0)
(0.954705 0.153291 0)
(0.957448 0.151004 0)
(0.959763 0.149834 0)
(0.964863 0.146082 0)
(0.968443 0.138133 0)
(0.973992 0.138453 0)
(0.981638 0.0935075 0)
(0.985067 0.109051 0)
(0.995069 0.104573 0)
(1.00246 0.106267 0)
(1.0033 0.106188 0)
(0.99955 0.10828 0)
(0.997097 0.109383 0)
(0.989486 0.111636 0)
(0.980117 0.103958 0)
(0.963915 0.113458 0)
(0.943813 0.0758463 0)
(0.835349 0.0925007 0)
(0.972073 0.0985672 0)
(0.969091 0.109785 0)
(0.968779 0.109401 0)
(0.966883 0.109245 0)
(0.963425 0.104541 0)
(0.959404 0.101876 0)
(0.951251 0.0883276 0)
(0.939144 0.0970911 0)
(0.922996 0.0537823 0)
(0.801591 0.0788341 0)
(1.01244 0.116726 0)
(1.02681 0.0945961 0)
(1.00252 0.0833785 0)
(0.986974 0.0747891 0)
(0.977581 0.0699476 0)
(0.972496 0.0729049 0)
(0.9604 0.0614511 0)
(0.942773 0.0712056 0)
(0.920866 0.0354161 0)
(0.77463 0.0557155 0)
(0.942041 0.0965113 0)
(0.890047 0.0888474 0)
(0.917646 0.0853661 0)
(0.946628 0.0753699 0)
(0.953701 0.0662578 0)
(0.957092 0.0636399 0)
(0.94743 0.0478816 0)
(0.930958 0.0588732 0)
(0.911086 0.0193814 0)
(0.753361 0.041813 0)
(0.952648 0.0150199 0)
(0.982503 0.0226322 0)
(0.979694 0.023636 0)
(0.966547 0.0237174 0)
(0.96437 0.0202358 0)
(0.966236 0.0295259 0)
(0.95521 0.0213254 0)
(0.932732 0.0362778 0)
(0.909051 0.00238308 0)
(0.746701 0.0228063 0)
(0.919183 0.0324849 0)
(0.912348 0.022036 0)
(0.923808 0.00643466 0)
(0.940329 0.00496214 0)
(0.949283 0.00374415 0)
(0.952959 0.0136306 0)
(0.942333 0.00438349 0)
(0.919577 0.0219207 0)
(0.897879 -0.0140348 0)
(0.742094 0.0114513 0)
(0.931057 -0.0724708 0)
(0.944217 -0.0693676 0)
(0.952155 -0.067025 0)
(0.963094 -0.0496235 0)
(0.970702 -0.0375175 0)
(0.969084 -0.0135004 0)
(0.955328 -0.0170455 0)
(0.925651 0.00392564 0)
(0.900537 -0.0277818 0)
(0.748507 -0.00102725 0)
(0.906869 -0.0812431 0)
(0.911195 -0.0851083 0)
(0.942349 -0.0807348 0)
(0.965817 -0.0571697 0)
(0.96961 -0.044927 0)
(0.965831 -0.0230984 0)
(0.950603 -0.0290721 0)
(0.920303 -0.00631872 0)
(0.89637 -0.0388596 0)
(0.751035 -0.00702967 0)
(0.925225 -0.183418 0)
(0.946626 -0.147139 0)
(0.973028 -0.119484 0)
(0.989763 -0.0884078 0)
(0.988765 -0.0687403 0)
(0.980264 -0.0422804 0)
(0.961206 -0.0424769 0)
(0.926473 -0.0168326 0)
(0.900006 -0.0469267 0)
(0.757931 -0.0133629 0)
(0.911514 -0.181151 0)
(0.942298 -0.153442 -8.6917e-22)
(0.975821 -0.120347 -4.16656e-21)
(0.989154 -0.0879695 3.88607e-21)
(0.984602 -0.0689253 0)
(0.973973 -0.0461562 0)
(0.953962 -0.0500417 0)
(0.9192 -0.0238181 -6.26098e-22)
(0.89348 -0.0548115 5.64912e-22)
(0.760122 -0.0154951 -8.49665e-22)
(0.967732 -0.160656 1.1817e-20)
(1.0442 -0.149113 1.14632e-21)
(1.03747 -0.122759 -5.2583e-21)
(1.0206 -0.100405 1.76059e-22)
(1.00045 -0.0859818 0)
(0.981328 -0.0577878 -2.21943e-22)
(0.956697 -0.061586 -1.76497e-21)
(0.919479 -0.0341911 2.6465e-21)
(0.892619 -0.0629999 -9.67908e-22)
(0.766368 -0.0195798 0)
(1.06289 -0.198945 -7.23519e-21)
(1.05024 -0.164899 5.84928e-21)
(1.02772 -0.124256 0)
(1.01821 -0.0966804 -1.67206e-22)
(1.00385 -0.0841209 1.14899e-21)
(0.984514 -0.0609909 -7.19918e-22)
(0.95673 -0.0681221 3.41035e-22)
(0.91876 -0.0393476 2.93882e-22)
(0.89183 -0.0687398 4.8797e-22)
(0.774485 -0.0207979 0)
)
;

boundaryField
{
    outlet
    {
        type            zeroGradient;
    }
    upperWall
    {
        type            symmetryPlane;
    }
    lowerWall
    {
        type            symmetryPlane;
    }
    inlet
    {
        type            fixedValue;
        value           uniform (0.9848 0.1736 0);
    }
    cylinder
    {
        type            fixedValue;
        value           uniform (0 0 0);
    }
    frontAndBack
    {
        type            empty;
    }
}


// ************************************************************************* //
