/*--------------------------------*- C++ -*----------------------------------*\
| =========                 |                                                 |
| \\      /  F ield         | OpenFOAM: The Open Source CFD Toolbox           |
|  \\    /   O peration     | Version:  2512                                  |
|   \\  /    A nd           | Website:  www.openfoam.com                      |
|    \\/     M anipulation  |                                                 |
\*---------------------------------------------------------------------------*/
FoamFile
{
    version     2.0;
    format      ascii;
    arch        "LSB;label=32;scalar=64";
    class       surfaceScalarField;
    location    "31.1";
    object      phi;
}
// * * * * * * * * * * * * * * * * * * * * * * * * * * * * * * * * * * * * * //

dimensions      [0 3 -1 0 0 0 0];

oriented        oriented;

internalField   nonuniform List<scalar> 
26232
(
-0.000129534
0.00108983
-0.000960296
-0.000149595
0.00260698
-0.00258692
0.000171228
0.00347002
-0.00379084
0.00100935
0.00363132
-0.00446944
0.00253471
0.00302965
-0.00455501
0.00493953
0.00158464
-0.00398946
0.00845464
-0.000792291
-0.00272282
0.0133417
-0.00418059
-0.000706485
0.0198616
-0.00862652
0.00210666
0.0282211
-0.0141168
0.00575728
0.0385115
-0.020563
0.0102726
0.0506767
-0.0277998
0.0156345
0.0644928
-0.035601
0.0217849
0.0795801
-0.0437068
0.0286194
0.0954449
-0.0518475
0.0359827
0.111503
-0.0597759
0.0437182
0.127189
-0.0672665
0.0515804
0.14189
-0.0741855
0.0594841
0.155228
-0.0803633
0.0670258
0.166729
-0.0859395
0.074438
0.176401
-0.0906085
0.0809368
0.183989
-0.0951746
0.0875867
0.189582
-0.0983357
0.0927424
-0.102609
0.0994447
0.192746
-0.000167842
0.00125767
-0.000218894
0.00265803
0.000162426
0.0030887
0.00124803
0.00254571
0.00332292
0.000954766
0.00669613
-0.00178858
0.0116865
-0.00578263
0.0185715
-0.0110656
0.0275133
-0.0175683
0.0384922
-0.0250958
0.0512753
-0.0333461
0.0654306
-0.041955
0.0803778
-0.0505482
0.0954605
-0.0587895
0.110025
-0.0664117
0.123492
-0.0732432
0.13543
-0.0792047
0.145576
-0.0843316
0.153932
-0.0887188
0.160582
-0.0925891
0.166024
-0.096051
0.170379
-0.09953
0.174734
-0.10269
-0.106712
0.178837
-0.000133371
0.00139104
-3.82859e-05
0.00256295
0.000673182
0.00237723
0.00238335
0.000835547
0.00548178
-0.00214367
0.0103514
-0.00665822
0.0172962
-0.0127274
0.0264402
-0.0202096
0.0376479
-0.028776
0.0505086
-0.0379564
0.0643918
-0.0472293
0.07855
-0.0561132
0.0922368
-0.0642349
0.104813
-0.0713661
0.115834
-0.0774319
0.125091
-0.0825006
0.132632
-0.0867454
0.138723
-0.0904231
0.143768
-0.093764
0.148237
-0.0970576
0.152499
-0.100313
0.15686
-0.103891
0.161391
-0.107221
-0.111301
0.16598
-4.16862e-05
0.00143273
0.000352094
0.00216917
0.00164825
0.00108108
0.00431568
-0.00183188
0.00881191
-0.00663991
0.0154916
-0.0133379
0.0244699
-0.0217057
0.0355169
-0.0312566
0.0480585
-0.0413176
0.0612879
-0.0511858
0.0743346
-0.060276
0.0864313
-0.06821
0.0970397
-0.0748433
0.105916
-0.0802425
0.113115
-0.0846312
0.118928
-0.0883133
0.123787
-0.0916041
0.128117
-0.0947529
0.132284
-0.0979315
0.136434
-0.101207
0.140684
-0.104563
0.144865
-0.108072
0.14905
-0.111406
-0.115315
0.153064
9.12985e-05
0.00134143
0.000904747
0.00135572
0.00298305
-0.000997224
0.00685855
-0.00570738
0.0129645
-0.0127459
0.0214547
-0.0218281
0.0320476
-0.0322987
0.0440325
-0.0432414
0.0564478
-0.0537329
0.0683331
-0.0630712
0.0789459
-0.0708888
0.0878863
-0.0771503
0.0951174
-0.0820744
0.100895
-0.0860206
0.105637
-0.0893724
0.109775
-0.0924519
0.113641
-0.09547
0.117425
-0.0985369
0.121174
-0.10168
0.124873
-0.104907
0.128503
-0.108193
0.132027
-0.111596
0.135601
-0.11498
-0.118771
0.139057
0.000249282
0.00109215
0.00158147
2.35278e-05
0.0046001
-0.00401585
0.00983437
-0.0109416
0.0175347
-0.0204462
0.0274371
-0.0317305
0.0387362
-0.0435977
0.0503322
-0.0548375
0.061184
-0.0645846
0.0705795
-0.0724667
0.0782452
-0.0785545
0.0843017
-0.0832068
0.089118
-0.0868907
0.0931335
-0.0900361
0.0967177
-0.0929566
0.100101
-0.0958354
0.10339
-0.0987593
0.106612
-0.101758
0.109779
-0.104847
0.112905
-0.108033
0.116034
-0.111322
0.119177
-0.114739
0.122386
-0.118189
-0.121955
0.12557
0.000438128
0.000654021
0.00237808
-0.00191642
0.00644495
-0.00808273
0.0130378
-0.0175345
0.0220073
-0.0294157
0.0325255
-0.0422488
0.0433695
-0.0544417
0.0533964
-0.0648643
0.0618883
-0.0730765
0.0686464
-0.0792248
0.0738811
-0.0837892
0.0780061
-0.0873318
0.0814436
-0.0903282
0.0845091
-0.0931016
0.0873869
-0.0958344
0.0901669
-0.0986153
0.0928903
-0.101483
0.0955857
-0.104454
0.0982721
-0.107534
0.100961
-0.110722
0.103656
-0.114017
0.106326
-0.117409
0.10902
-0.120883
-0.124552
0.111617
0.000664912
-1.08904e-05
0.00328556
-0.00453707
0.00842468
-0.0132219
0.0161558
-0.0252656
0.0257519
-0.0390118
0.0359013
-0.0523982
0.0453161
-0.0638565
0.0531994
-0.0727476
0.0593523
-0.0792294
0.0640135
-0.083886
0.0676089
-0.0873846
0.0705487
-0.0902715
0.0731294
-0.0929089
0.0755276
-0.0954999
0.0778365
-0.0981432
0.0801015
-0.10088
0.0823441
-0.103725
0.0845697
-0.106679
0.086776
-0.10974
0.0889622
-0.112908
0.0911279
-0.116183
0.0932848
-0.119566
0.0954579
-0.123056
-0.126684
0.0975898
0.000925711
-0.000936601
0.00426526
-0.00787662
0.0103658
-0.0193223
0.0187765
-0.0336764
0.0281982
-0.0484335
0.0371582
-0.0613582
0.0446808
-0.0713791
0.0504752
-0.0785421
0.054754
-0.0835082
0.0579426
-0.0870746
0.0604566
-0.0898986
0.0626003
-0.0924152
0.0645578
-0.0948664
0.0664248
-0.0973669
0.0682436
-0.099962
0.0700284
-0.102665
0.0717817
-0.105479
0.0735048
-0.108402
0.0752032
-0.111438
0.0768845
-0.114589
0.0785569
-0.117855
0.0802212
-0.12123
0.0818812
-0.124716
-0.128299
0.0834956
0.00121527
-0.00215187
0.00524015
-0.0119015
0.0120314
-0.0261136
0.0205162
-0.0421611
0.0290624
-0.0569797
0.0364064
-0.0687023
0.0420513
-0.077024
0.0461181
-0.0826088
0.0490164
-0.0864065
0.0511796
-0.0892378
0.0529355
-0.0916545
0.0544844
-0.0939641
0.0559283
-0.0963103
0.0573106
-0.0987493
0.0586471
-0.101298
0.0599439
-0.103962
0.0612057
-0.10674
0.0624376
-0.109634
0.0636435
-0.112644
0.0648256
-0.115771
0.0659821
-0.119012
0.0671153
-0.122364
0.0682248
-0.125825
-0.129366
0.069292
0.00150832
-0.00366019
0.00610312
-0.0164963
0.0131896
-0.0332001
0.0211646
-0.050136
0.028409
-0.0642242
0.0340767
-0.07437
0.0380986
-0.0810459
0.0408308
-0.085341
0.042724
-0.0882997
0.0441419
-0.0906556
0.0453128
-0.0928254
0.0463548
-0.0950061
0.0473197
-0.0972752
0.0482278
-0.0996574
0.0490877
-0.102158
0.0499036
-0.104778
0.0506781
-0.107515
0.0514134
-0.11037
0.0521126
-0.113344
0.0527789
-0.116437
0.0534162
-0.119649
0.054026
-0.122973
0.0545989
-0.126398
-0.129897
0.0551303
0.00178032
-0.00544051
0.00675004
-0.021466
0.0136956
-0.0401457
0.0207359
-0.0571764
0.0265312
-0.0700195
0.0306708
-0.0785095
0.0333758
-0.083751
0.0350926
-0.0870578
0.0362286
-0.0894357
0.0370558
-0.0914829
0.0377206
-0.0934903
0.0382894
-0.0955749
0.0387887
-0.0977744
0.0392282
-0.100097
0.0396121
-0.102542
0.0399427
-0.105108
0.040223
-0.107795
0.0404566
-0.110603
0.040648
-0.113535
0.0408008
-0.11659
0.0409172
-0.119766
0.0409961
-0.123052
0.0410315
-0.126434
0.0410271
-0.129893
-0.000353366
0.00319233
-0.00283896
-0.00126607
0.007457
-0.00654429
-0.00263315
0.0102359
-0.00886881
-0.00435391
0.0119427
-0.010222
-0.00634361
0.0129763
-0.0109866
-0.00854284
0.0136576
-0.0114584
-0.0109171
0.0141932
-0.011819
-0.0134499
0.0146857
-0.0121529
-0.0161353
0.0151679
-0.0124826
-0.0189715
0.0156366
-0.0128003
-0.0219582
0.0160736
-0.0130869
-0.0250948
0.0164558
-0.0133193
-0.0283803
0.0167581
-0.0134726
-0.0318142
0.0169544
-0.0135205
-0.0353967
0.0170175
-0.0134351
-0.0391291
0.01692
-0.0131875
-0.0430156
0.0166341
-0.0127477
-0.0470634
0.0161333
-0.0120855
-0.0512838
0.0153924
-0.011172
-0.0556914
0.0143879
-0.00998035
-0.0603078
0.0130962
-0.00847983
-0.0651697
0.0114933
-0.00663142
-0.0703327
0.00957301
-0.00440997
0.0073764
-0.0759303
-0.00177886
-0.000191861
0.00338419
-0.000789007
0.00805414
-0.00177854
0.0112254
-0.00310138
0.0132656
-0.00467965
0.0145546
-0.00644186
0.0154198
-0.00833478
0.0160862
-0.0103239
0.0166749
-0.0123881
0.0172321
-0.0145132
0.0177617
-0.0166878
0.0182482
-0.0189012
0.0186691
-0.0211427
0.0189996
-0.0234022
0.0192139
-0.0256706
0.019286
-0.0279408
0.0191901
-0.030208
0.0189013
-0.0324707
0.018396
-0.0347309
0.0176526
-0.0369951
0.0166522
-0.0392774
0.0153784
-0.0416049
0.0138209
-0.0440149
0.011983
0.00992344
-0.0465619
-9.06857e-06
0.00339326
-0.000226353
0.00827143
-0.000739888
0.011739
-0.0015425
0.0140682
-0.00257369
0.0155858
-0.00375567
0.0166018
-0.00501701
0.0173475
-0.0063029
0.0179608
-0.00757438
0.0185036
-0.00880301
0.0189903
-0.00996585
0.019411
-0.0110424
0.0197457
-0.0120136
0.0199708
-0.0128615
0.0200618
-0.0135702
0.0199947
-0.014126
0.0197459
-0.0145186
0.0192939
-0.014741
0.0186184
-0.0147896
0.0177012
-0.0146642
0.0165268
-0.0143685
0.0150828
-0.0139152
0.0133676
-0.013319
0.0113868
0.0090709
-0.0124665
0.000167387
0.00322587
0.000344275
0.00809454
0.000357877
0.0117254
0.000152865
0.0142732
-0.000240076
0.0159787
-0.000746537
0.0171083
-0.0012835
0.0178844
-0.00177808
0.0184553
-0.00217338
0.0188989
-0.00242638
0.0192433
-0.00250337
0.019488
-0.00237622
0.0196186
-0.00202042
0.019615
-0.00141446
0.0194559
-0.000540074
0.0191203
0.00061723
0.0185886
0.00206835
0.0178428
0.00381906
0.0168677
0.00586996
0.0156503
0.00821896
0.0141778
0.010855
0.0124468
0.0137969
0.0104257
0.0169988
0.00818487
0.00553642
0.0205333
0.000312167
0.00291371
0.000848243
0.00755846
0.0013749
0.0111987
0.00178384
0.0138643
0.0020666
0.015696
0.00227876
0.0168961
0.00250331
0.0176599
0.00282397
0.0181347
0.00331212
0.0184108
0.00402398
0.0185315
0.00500301
0.018509
0.00628331
0.0183383
0.00789228
0.018006
0.00985187
0.0174963
0.0121791
0.016793
0.0148861
0.0158816
0.0179792
0.0147497
0.0214617
0.0133852
0.0253254
0.0117866
0.0295827
0.00992046
0.0341835
0.00784594
0.0392244
0.00538472
0.0445288
0.0028805
-0.000387652
0.0504529
0.000406837
0.00250687
0.00121817
0.00674714
0.00218084
0.010236
0.00315019
0.0128949
0.00407878
0.0147674
0.00499333
0.0159815
0.00596258
0.0166907
0.00706888
0.0170284
0.00838993
0.0170897
0.00999068
0.0169307
0.011922
0.0165777
0.0142226
0.0160377
0.0169211
0.0153075
0.0200385
0.0143789
0.0235892
0.0132424
0.0275824
0.0118884
0.0320207
0.0103115
0.0369156
0.00849028
0.0422437
0.00645846
0.0480854
0.0040788
0.0542958
0.00163547
0.0612193
-0.00153875
0.0684233
-0.00432346
-0.00883158
0.0768672
0.000442978
0.00206389
0.00141181
0.0057783
0.00267489
0.00897294
0.00407846
0.0114913
0.00554775
0.0132981
0.00707834
0.014451
0.00871436
0.0150546
0.0105239
0.0152189
0.0125793
0.0150342
0.014946
0.014564
0.0176771
0.0138466
0.0208131
0.0129017
0.0243837
0.0117369
0.0284099
0.0103526
0.0329078
0.00874449
0.0378941
0.00690208
0.0433823
0.00482335
0.0494166
0.00245597
0.0559489
-7.38217e-05
0.06326
-0.00323229
0.0710871
-0.00619169
0.0801547
-0.0106063
0.0895268
-0.0136956
-0.0202843
0.10098
0.000421974
0.00164192
0.00141679
0.00478349
0.00280696
0.00758277
0.00445854
0.00983976
0.00628914
0.0114675
0.00827133
0.0124688
0.0104227
0.0129033
0.0127887
0.0128528
0.0154265
0.0123964
0.0183928
0.0115978
0.0217374
0.0105019
0.0255023
0.00913683
0.0297232
0.00751594
0.0344345
0.00564138
0.0396801
0.00349884
0.0454998
0.00108233
0.05198
-0.0016568
0.0592556
-0.00481966
0.067385
-0.00820318
0.0766644
-0.0125117
0.0868686
-0.0163959
0.0989096
-0.0226473
0.11164
-0.0264256
-0.0356759
0.127031
0.000351611
0.00129031
0.00124723
0.00388787
0.00258311
0.00624688
0.00426733
0.00815554
0.00623052
0.00950428
0.00843704
0.0102622
0.0108853
0.010455
0.0136001
0.0101381
0.0166221
0.00937443
0.0200005
0.00821942
0.0237893
0.00671307
0.0280484
0.00487781
0.0328525
0.00271177
0.0382655
0.000228384
0.0444512
-0.00268687
0.0515444
-0.00601086
0.0596819
-0.00979429
0.0690634
-0.0142011
0.0798416
-0.0189814
0.0921983
-0.0248684
0.106143
-0.0303406
0.121872
-0.0383762
0.138918
-0.0434714
-0.0546657
0.157907
0.000242776
0.00104753
0.000937657
0.00319299
0.0020628
0.00512174
0.00358061
0.00663772
0.00545115
0.00763375
0.00764844
0.00806495
0.0101694
0.00793407
0.0130357
0.00727176
0.0162932
0.00611687
0.0200117
0.00450099
0.0242905
0.0024342
0.0292374
-6.90472e-05
0.0350433
-0.00309416
0.0418974
-0.00662574
0.049947
-0.0107365
0.0594107
-0.0154745
0.0704336
-0.0208172
0.0831117
-0.0268792
0.097518
-0.0333877
0.113436
-0.0407864
0.131044
-0.0479485
0.149389
-0.0567209
0.169146
-0.063229
-0.0740003
0.188481
0.000110166
0.000937364
0.000543416
0.00275974
0.00136135
0.00430381
0.00258652
0.00541255
0.00422297
0.0059973
0.00627858
0.00600934
0.00878229
0.00543037
0.0117962
0.00425781
0.0154236
0.00248952
0.0197998
0.000124823
0.0251305
-0.00289657
0.0316345
-0.006573
0.0394941
-0.0109537
0.0489137
-0.0160454
0.0600023
-0.0218251
0.0728015
-0.0282737
0.087226
-0.0352417
0.1031
-0.0427528
0.120138
-0.0504262
0.137876
-0.0585247
0.156152
-0.0662245
0.173885
-0.0744536
0.191846
-0.0811896
-0.0891987
0.207044
-2.29317e-05
0.000149889
0.000662857
0.00160597
0.00304826
0.00506813
0.00777568
0.011327
0.0159232
0.0218053
0.0291814
0.0382429
0.0490741
0.0616481
0.0758057
0.0912503
0.107589
0.12432
0.14092
0.156833
0.171545
0.184679
0.196231
0.206477
-0.0803836
0.00242667
0.0020267
-0.084503
-0.00383551
0.00795485
-0.0886925
-0.0105016
0.0146911
-0.0928467
-0.0182095
0.0223637
-0.0970823
-0.0263729
0.0306084
-0.101373
-0.0352646
0.0395551
-0.105604
-0.0446486
0.0488795
-0.109638
-0.054485
0.0585192
-0.113191
-0.0645645
0.0681174
-0.11589
-0.0746207
0.0773202
-0.11719
-0.0842086
0.0855081
-0.116456
-0.0926521
0.0919184
-0.113019
-0.0990329
0.0955958
-0.106326
-0.102204
0.0955104
-0.0961015
-0.100867
0.0906427
-0.0825211
-0.0937441
0.0801637
-0.0663042
-0.0799281
0.0637112
-0.0484509
-0.0590672
0.0412139
-0.0298075
-0.0315438
0.0129004
-0.0106077
0.0015489
-0.0207487
0.00935049
0.0378536
-0.0578119
0.029248
0.0723752
-0.0922727
0.0477172
0.0986456
-0.117115
0.063079
0.113733
-0.129095
0.0745446
0.11729
-0.128756
0.0808477
0.113403
-0.119706
0.0815283
0.105511
-0.106192
0.0793613
0.0947185
-0.0925515
0.0797029
0.0776804
-0.078022
0.086165
0.0534169
-0.059879
0.0982279
0.0242171
-0.03628
0.112753
-0.00351669
-0.0110081
0.126647
-0.0261808
0.0122862
0.138109
-0.0410392
0.0295773
0.146571
-0.0496435
0.0411813
0.15225
-0.0523616
0.0466827
0.155567
-0.0519417
0.0486253
0.156948
-0.0484915
0.0471103
0.156857
-0.044463
0.0445534
0.156066
-0.0388834
0.039675
0.155546
-0.0333415
0.0338617
0.156107
-0.0254536
0.0248919
0.157971
-0.0171562
0.015292
0.160767
-0.00672323
0.00392812
0.163828
0.00212012
-0.00518194
0.166597
0.0109401
-0.0137087
0.168751
0.0163003
-0.0184544
0.170228
0.0210429
-0.0225196
0.171165
0.0220418
-0.0229791
0.17174
0.0231622
-0.0237371
0.172118
0.021215
-0.021593
0.172373
0.0207434
-0.0209986
0.172582
0.017994
-0.0182028
0.172781
0.0177077
-0.0179067
0.173068
0.0155138
-0.015801
0.173404
0.0164079
-0.016744
0.173844
0.0153765
-0.015816
0.174183
0.0175217
-0.0178613
0.174534
0.0174359
-0.0177866
0.0203222
-0.0203752
-0.0501907
0.0060554
-0.0539268
-9.93196e-05
-0.0575915
-0.00683696
-0.0615158
-0.0142851
-0.0657621
-0.0221267
-0.0704323
-0.0305943
-0.0754538
-0.0396271
-0.0808213
-0.0491175
-0.0864263
-0.0589595
-0.0920841
-0.0689628
-0.0974734
-0.0788194
-0.102087
-0.0880389
-0.105186
-0.0959335
-0.105855
-0.101535
-0.103123
-0.103598
-0.0962724
-0.100595
-0.0850921
-0.0911083
-0.0700135
-0.0741458
-0.0519436
-0.0496138
-0.0317728
-0.0186219
-0.010192
0.0162728
0.0115459
0.0506373
0.0313878
0.0788037
0.0472523
0.0978682
0.0579671
0.106575
0.0629063
0.108463
0.0644329
0.103985
0.0674529
0.0916985
0.0759925
0.0691408
0.0902471
0.0391623
0.107265
0.00719946
0.123659
-0.0199114
0.13727
-0.0397912
0.147388
-0.0511568
0.154234
-0.0564896
0.158504
-0.0566316
0.160894
-0.0543323
0.161893
-0.0494902
0.161728
-0.0442977
0.160683
-0.0378384
0.159325
-0.031984
0.158434
-0.0245621
0.158579
-0.0173009
0.159844
-0.00798847
0.161851
0.00011321
0.164107
0.00868361
0.166179
0.0142284
0.167852
0.0193707
0.169125
0.020768
0.17008
0.0222076
0.170816
0.0204784
0.17137
0.0201897
0.171807
0.0175575
0.172169
0.0173452
0.17258
0.0151033
0.173015
0.0159724
0.17355
0.0148421
0.173973
0.0170987
0.174408
0.017001
0.0202076
-0.0149809
0.00856979
-0.018116
0.00303576
-0.0214895
-0.00346339
-0.0250783
-0.0106963
-0.0289772
-0.0182278
-0.033364
-0.0262075
-0.0381263
-0.0348648
-0.0433138
-0.0439301
-0.0489375
-0.0533358
-0.055011
-0.0628893
-0.0615802
-0.0722501
-0.0685653
-0.0810538
-0.0756487
-0.0888501
-0.0821781
-0.0950055
-0.0870501
-0.0987263
-0.0888934
-0.0987519
-0.0863706
-0.0936311
-0.078647
-0.0818694
-0.0657514
-0.0625094
-0.0486182
-0.0357551
-0.0283135
-0.0040319
-0.00729223
0.029616
0.0125317
0.0589798
0.0284966
0.0819033
0.0397804
0.0952915
0.0473987
0.100845
0.0549136
0.0964697
0.0661308
0.0804813
0.0822336
0.053038
0.101203
0.0201929
0.119658
-0.0112559
0.135219
-0.0354721
0.146866
-0.0514383
0.154794
-0.0590842
0.159716
-0.0614122
0.16251
-0.0594256
0.163934
-0.0557561
0.164523
-0.0500791
0.164483
-0.0442583
0.163831
-0.0371861
0.162684
-0.0308375
0.161458
-0.0233357
0.160702
-0.0165447
0.160787
-0.00807321
0.161697
-0.000796938
0.163177
0.00720299
0.164858
0.0125476
0.166462
0.0177664
0.167879
0.0193512
0.169078
0.0210089
0.170075
0.0194813
0.170851
0.0194138
0.17145
0.0169587
0.171914
0.0168807
0.172385
0.0146327
0.172858
0.0154992
0.173428
0.0142726
0.17389
0.0166368
0.174372
0.0165181
0.020039
0.0187474
0.0103557
0.0163598
0.00542331
0.0133331
-0.000436626
0.0099936
-0.00735683
0.00632114
-0.0145553
0.00228421
-0.0221706
-0.00219812
-0.0303824
-0.00691434
-0.0392139
-0.0117964
-0.0484537
-0.0169197
-0.057766
-0.0223887
-0.0667811
-0.0283772
-0.0750653
-0.0350915
-0.0821358
-0.0426704
-0.0874266
-0.0507887
-0.090608
-0.0584576
-0.0910829
-0.0640332
-0.0880555
-0.0655502
-0.0803523
-0.0615241
-0.0665354
-0.0515377
-0.0457415
-0.0367212
-0.0188484
-0.0187407
0.0116355
-0.000889461
0.0411286
0.0160353
0.0649786
0.0301655
0.0811613
0.0430808
0.0879299
0.057544
0.0820064
0.0752402
0.0627851
0.0953874
0.0328908
0.115361
0.000219272
0.132527
-0.0284217
0.14559
-0.0485353
0.154485
-0.0603337
0.159995
-0.0645933
0.163078
-0.064496
0.164609
-0.060956
0.165231
-0.0563785
0.165407
-0.0502548
0.165372
-0.0442231
0.165122
-0.0369364
0.16457
-0.0302858
0.163772
-0.0225372
0.163013
-0.0157857
0.162647
-0.00770727
0.162881
-0.00103077
0.163698
0.00638549
0.164911
0.0113349
0.166283
0.016394
0.167659
0.0179754
0.168927
0.0197403
0.170033
0.0183755
0.170906
0.0185407
0.171567
0.0162981
0.172051
0.0163963
0.172509
0.0141747
0.172954
0.015054
0.173497
0.0137304
0.173951
0.0161829
0.174441
0.0160273
0.0198272
0.049084
0.0117246
0.0473902
0.00711706
0.0450534
0.00190017
0.0420657
-0.00436907
0.0386749
-0.0111646
0.0349495
-0.0184451
0.0309936
-0.0264265
0.0268161
-0.0350364
0.022468
-0.0441057
0.0180224
-0.0533205
0.0134992
-0.0622579
0.00880892
-0.070375
0.00371903
-0.0770459
-0.0018789
-0.0818286
-0.0083468
-0.0841401
-0.0159351
-0.0834946
-0.0240787
-0.0799119
-0.0311302
-0.0733009
-0.0348424
-0.0628232
-0.0332769
-0.047307
-0.0258805
-0.0262448
-0.0132669
-0.000978205
0.00192522
0.0259365
0.0187337
0.04817
0.0351837
0.0647113
0.0521748
0.0709388
0.0708766
0.0633046
0.0913018
0.0423599
0.111809
0.0123837
0.129945
-0.0179167
0.14412
-0.0425967
0.153872
-0.0582879
0.159817
-0.0662779
0.163051
-0.0678273
0.164575
-0.0660207
0.165145
-0.0615258
0.165227
-0.0564608
0.165124
-0.050152
0.16503
-0.0441284
0.164989
-0.0368959
0.164924
-0.030221
0.164737
-0.0223501
0.16447
-0.0155182
0.164292
-0.00752919
0.164413
-0.00115241
0.164938
0.00586085
0.165843
0.01043
0.166986
0.0152506
0.168231
0.0167308
0.16944
0.0185314
0.170523
0.0172924
0.171382
0.0176815
0.17202
0.0156601
0.172464
0.0159529
0.172861
0.0137775
0.173238
0.014677
0.173714
0.0132547
0.17413
0.0157662
0.174602
0.0155556
0.0195775
0.0761932
0.0123986
0.0751902
0.00812004
0.0736593
0.00343103
0.0714147
-0.00212442
0.0687758
-0.00852565
0.0658438
-0.0155132
0.0626749
-0.0232576
0.0593213
-0.0316828
0.0558417
-0.0406261
0.0522854
-0.0497641
0.0486633
-0.0586358
0.0449493
-0.066661
0.0410772
-0.0731738
0.0368423
-0.0775937
0.0320825
-0.0793803
0.0265147
-0.0779268
0.0198724
-0.0732696
0.0125701
-0.0659986
0.0060053
-0.0562584
0.00229891
-0.0436006
0.00363345
-0.0275793
0.0105549
-0.00789964
0.022428
0.0140634
0.036916
0.033682
0.053293
0.0483344
0.0713062
0.0529256
0.0906592
0.0439516
0.110395
0.0226237
0.128506
-0.00572705
0.143144
-0.0325549
0.153413
-0.052865
0.159633
-0.0645087
0.162826
-0.0694707
0.164159
-0.0691597
0.164505
-0.0663672
0.164424
-0.0614444
0.164201
-0.0562384
0.163987
-0.0499371
0.163882
-0.0440242
0.163943
-0.0369562
0.164154
-0.0304321
0.164428
-0.0226247
0.164708
-0.015798
0.164998
-0.00781901
0.165402
-0.00155596
0.166005
0.0052574
0.166863
0.00957212
0.167907
0.0142063
0.169046
0.0155922
0.170159
0.0174181
0.171163
0.0162885
0.17196
0.0168848
0.172546
0.0150742
0.172937
0.0155613
0.173273
0.0134422
0.173584
0.0143652
0.173992
0.0128466
0.174373
0.0153858
0.174822
0.0151062
0.0192824
0.100971
0.0124072
0.100672
0.00841907
0.0999223
0.00418056
0.0985824
-0.000784514
0.0968906
-0.0068338
0.0949373
-0.0135599
0.0927373
-0.0210576
0.0903386
-0.0292842
0.0877803
-0.0380677
0.0850853
-0.0470692
0.082252
-0.0558024
0.0792598
-0.0636689
0.0760627
-0.0699767
0.0725478
-0.0740788
0.0687303
-0.0755628
0.0645218
-0.0737184
0.0597548
-0.0685026
0.0544887
-0.0607324
0.0492055
-0.0509753
0.0449694
-0.0393644
0.0433292
-0.0259392
0.0457447
-0.0103152
0.0530517
0.0067564
0.0643003
0.0224335
0.0787483
0.0338864
0.095156
0.0365178
0.112488
0.02662
0.129253
0.00585839
0.143428
-0.0199019
0.153668
-0.0427948
0.159817
-0.0590145
0.162755
-0.0674469
0.16367
-0.0703847
0.163586
-0.0690761
0.163145
-0.0659267
0.162682
-0.0609814
0.162329
-0.0558846
0.162122
-0.0497307
0.162088
-0.0439904
0.16225
-0.0371178
0.162624
-0.0308061
0.163177
-0.0231775
0.163857
-0.0164785
0.1646
-0.00856135
0.165411
-0.00236686
0.166297
0.00437101
0.167312
0.00855669
0.168412
0.0131067
0.169537
0.0144673
0.170601
0.0163543
0.171549
0.01534
0.172305
0.0161285
0.172869
0.0145103
0.173249
0.0151813
0.173567
0.0131246
0.173857
0.0140748
0.174234
0.0124696
0.174609
0.0150108
0.17506
0.0146556
0.0189199
0.127089
0.0123498
0.127079
0.00842915
0.126728
0.00453093
0.125874
6.97162e-05
0.124818
-0.00577765
0.123515
-0.0122572
0.121946
-0.0194889
0.12012
-0.0274574
0.118026
-0.0359742
0.11565
-0.0446931
0.112977
-0.0531296
0.110015
-0.0607068
0.106793
-0.066755
0.103351
-0.0706365
0.0997469
-0.0719585
0.0959171
-0.0698886
0.0918727
-0.0644581
0.0878908
-0.0567506
0.0842043
-0.0472887
0.081179
-0.0363391
0.079536
-0.0242962
0.0805281
-0.0113072
0.0853867
0.0018978
0.0938652
0.013955
0.105432
0.0223194
0.118899
0.0230508
0.132767
0.0127524
0.145529
-0.00690381
0.155027
-0.0293999
0.160724
-0.0484921
0.163112
-0.061402
0.163372
-0.0677075
0.162626
-0.0696381
0.161622
-0.0680729
0.160731
-0.0650358
0.16009
-0.0603403
0.159719
-0.055513
0.159589
-0.0496004
0.159679
-0.0440808
0.159979
-0.0374182
0.160501
-0.0313276
0.16124
-0.0239165
0.16218
-0.0174188
0.163254
-0.00963545
0.164425
-0.00353794
0.16563
0.00316638
0.16689
0.00729629
0.168148
0.0118493
0.169354
0.0132611
0.170448
0.0152597
0.171411
0.0143777
0.172193
0.0153467
0.172802
0.0139011
0.173241
0.014742
0.173613
0.0127531
0.173951
0.0137367
0.174358
0.0120621
0.174781
0.0145884
0.175277
0.0141596
0.0184555
0.157077
0.0131801
0.156515
0.00899088
0.155597
0.0054498
0.154515
0.00115151
0.153154
-0.00441703
0.151589
-0.0106919
0.149738
-0.0176383
0.147566
-0.0252851
0.145024
-0.0334321
0.142072
-0.041741
0.138695
-0.0497528
0.134931
-0.0569425
0.130854
-0.0626786
0.126635
-0.0664175
0.122411
-0.067734
0.118393
-0.0658705
0.115113
-0.0611786
0.112459
-0.0540965
0.110393
-0.0452226
0.109058
-0.0350045
0.108724
-0.023962
0.110033
-0.0126159
0.113743
-0.00181199
0.1201
0.00759802
0.128904
0.0135149
0.139167
0.0127884
0.149214
0.00270456
0.157445
-0.0151347
0.162333
-0.0342873
0.163992
-0.0501509
0.163419
-0.0608297
0.161811
-0.066099
0.160033
-0.0678599
0.158531
-0.0665717
0.157447
-0.0639513
0.15677
-0.0596638
0.156453
-0.0551953
0.156433
-0.0495805
0.15667
-0.0443179
0.157135
-0.0378831
0.157822
-0.0320152
0.158731
-0.0248252
0.159865
-0.0185527
0.161175
-0.010946
0.162618
-0.00498013
0.164096
0.00168839
0.165603
0.00578936
0.167057
0.0103943
0.168408
0.0119105
0.169607
0.0140605
0.170659
0.0133258
0.171542
0.0144642
0.172271
0.013172
0.172845
0.0141677
0.173346
0.0122518
0.173807
0.0132763
0.174315
0.0115541
0.174847
0.0140566
0.175443
0.013563
0.0178466
0.186789
0.0148715
0.185205
0.0105756
0.183237
0.00741752
0.181018
0.00337081
0.178673
-0.00207266
0.176048
-0.0080663
0.173089
-0.014679
0.169749
-0.0219452
0.165959
-0.0296424
0.161677
-0.037459
0.156916
-0.0449918
0.151765
-0.051792
0.14638
-0.0572933
0.141037
-0.0610744
0.135903
-0.0625998
0.131412
-0.0613801
0.128286
-0.0580522
0.126428
-0.0522388
0.125678
-0.0444728
0.125939
-0.0352653
0.127154
-0.0251772
0.1295
-0.0149616
0.133379
-0.00569114
0.138711
0.00226618
0.145557
0.00666935
0.152959
0.00538607
0.159702
-0.00403864
0.16382
-0.019253
0.164895
-0.0353624
0.163598
-0.0488539
0.16113
-0.0583615
0.158485
-0.063454
0.156211
-0.0655859
0.154511
-0.0648714
0.153398
-0.0628381
0.152789
-0.0590553
0.152584
-0.0549903
0.152704
-0.0497
0.1531
-0.0447143
0.153739
-0.038522
0.154606
-0.0328824
0.155693
-0.0259117
0.157005
-0.0198651
0.15851
-0.0124505
0.160163
-0.0066335
0.161865
-1.37575e-05
0.163592
0.00406232
0.165249
0.00873715
0.166778
0.0103824
0.168134
0.0127042
0.169336
0.0121233
0.170382
0.0134185
0.171293
0.0122609
0.172066
0.013395
0.172762
0.0115555
0.173411
0.0126273
0.174086
0.0108793
0.174788
0.0133545
0.175543
0.0128077
0.0170477
0.205794
0.0161217
0.203646
0.0127235
0.200975
0.0100885
0.198091
0.00625442
0.194663
0.00135543
0.190873
-0.00427573
0.18655
-0.0103562
0.181759
-0.0171547
0.176484
-0.0243674
0.170739
-0.0317133
0.164589
-0.038842
0.158167
-0.0453699
0.151662
-0.0507884
0.145342
-0.0547541
0.139483
-0.0567413
0.134943
-0.0568401
0.13194
-0.0550494
0.130497
-0.0507959
0.130595
-0.0445702
0.132076
-0.0367467
0.134742
-0.0278424
0.138349
-0.0185694
0.142717
-0.0100585
0.148018
-0.00303525
0.153807
0.000880615
0.15934
-0.000147083
0.163333
-0.00803144
0.16449
-0.0204107
0.163107
-0.0339786
0.160172
-0.0459189
0.156824
-0.0550142
0.153799
-0.0604281
0.151407
-0.0631945
0.149713
-0.0631775
0.148669
-0.0617934
0.148181
-0.0585678
0.148132
-0.0549414
0.148423
-0.0499909
0.148999
-0.0452901
0.149823
-0.0393466
0.15088
-0.0339389
0.152155
-0.0271865
0.153651
-0.021361
0.155341
-0.0141413
0.157176
-0.00846799
0.159091
-0.00192844
0.161012
0.00214094
0.16287
0.0068792
0.164593
0.00865929
0.166141
0.0111566
0.167536
0.0107279
0.16879
0.0121647
0.169928
0.0111232
0.170944
0.0123781
0.171885
0.0106153
0.172775
0.0117369
0.173673
0.00998165
0.174599
0.0124279
0.175568
0.0118392
0.0160135
0.20618
0.0164192
0.204449
0.014454
0.202393
0.012145
0.199751
0.00889601
0.196513
0.0045939
0.192805
-0.000568337
0.18834
-0.00589103
0.183188
-0.0120026
0.177381
-0.0185603
0.171011
-0.0253433
0.164229
-0.0320594
0.15725
-0.0383917
0.150377
-0.0439154
0.143924
-0.0483009
0.138243
-0.0510601
0.133538
-0.0521349
0.129811
-0.0513227
0.127814
-0.0487988
0.12771
-0.0444663
0.129288
-0.0383247
0.13234
-0.0308944
0.136528
-0.0227575
0.141544
-0.0150747
0.147092
-0.00858278
0.152652
-0.00468014
0.157436
-0.00493072
0.160078
-0.0106732
0.160032
-0.0203654
0.157929
-0.0318747
0.154679
-0.0426695
0.151268
-0.0516032
0.14829
-0.0574496
0.145993
-0.0608977
0.144411
-0.0615956
0.143489
-0.0608711
0.14312
-0.0581996
0.14321
-0.0550313
0.143663
-0.0504435
0.144416
-0.0460432
0.145428
-0.0403585
0.146677
-0.0351884
0.148146
-0.0286554
0.149833
-0.0230476
0.151715
-0.0160235
0.153739
-0.0104917
0.155851
-0.00404061
0.157964
2.83767e-05
0.160027
0.0048157
0.161961
0.00672496
0.163726
0.0093924
0.165345
0.00910831
0.166839
0.0106708
0.168235
0.00972747
0.169528
0.0110848
0.170749
0.0093949
0.171921
0.0105647
0.173087
0.00881511
0.174285
0.0112303
0.175515
0.0106088
0.0147013
0.210731
0.0162414
-0.210553
0.211581
0.0136038
0.21235
0.011376
0.213007
0.0082392
0.213227
0.00437386
0.212587
7.12111e-05
0.211832
-0.00513545
0.210465
-0.0106356
0.208387
-0.0164833
0.205573
-0.022529
0.20204
-0.0285264
0.197833
-0.034184
0.193087
-0.0391699
0.187966
-0.0431803
0.1828
-0.0458938
0.177773
-0.0471083
0.173125
-0.046674
0.168988
-0.0446617
0.165655
-0.0411335
0.163379
-0.0360488
0.162325
-0.0298404
0.162583
-0.0230149
0.164083
-0.0165754
0.166697
-0.0111969
0.170206
-0.00818886
0.173946
-0.00867027
0.17689
-0.0136172
0.178318
-0.0217939
0.178094
-0.0316508
0.176439
-0.0410146
0.173824
-0.0489877
0.170722
-0.054348
0.167516
-0.0576914
0.164464
-0.0585438
0.161709
-0.058116
0.159329
-0.0558192
0.157336
-0.0530384
0.15572
-0.0488271
0.154445
-0.0447684
0.153495
-0.0394088
0.15285
-0.0345436
0.152511
-0.0283166
0.152473
-0.0230088
0.152733
-0.0162837
0.153255
-0.0110137
0.153996
-0.0047814
0.154878
-0.000853675
0.155795
0.00389877
0.156684
0.00583523
0.15747
0.00860673
0.158131
0.00844689
0.158664
0.0101382
0.159085
0.00930624
0.159394
0.010776
0.1596
0.0091889
0.159718
0.0104466
0.159772
0.00876137
0.15981
0.0111925
0.159835
0.0105831
0.0146213
0.220124
0.0158499
-0.219732
0.220482
0.0132455
0.221241
0.0106169
0.221795
0.00768511
0.221888
0.00428104
0.221734
0.000225883
0.220897
-0.00429924
0.219512
-0.00924992
0.217501
-0.014473
0.214806
-0.0198332
0.211439
-0.0251593
0.207462
-0.0302077
0.203007
-0.0347148
0.198234
-0.0384067
0.193371
-0.0410315
0.188625
-0.0423624
0.184267
-0.042316
0.180457
-0.0408516
0.177391
-0.0380671
0.175309
-0.033967
0.174377
-0.0289084
0.174664
-0.0233017
0.176097
-0.0180091
0.178542
-0.0136418
0.181672
-0.0113182
0.18484
-0.0118383
0.187205
-0.0159828
0.188209
-0.0227973
0.187734
-0.0311759
0.185963
-0.0392436
0.183302
-0.0463268
0.180198
-0.0512442
0.177014
-0.0545073
0.173989
-0.0555189
0.171254
-0.0553809
0.168872
-0.0534371