/*--------------------------------*- C++ -*----------------------------------*\
| =========                 |                                                 |
| \\      /  F ield         | OpenFOAM: The Open Source CFD Toolbox           |
|  \\    /   O peration     | Version:  2512                                  |
|   \\  /    A nd           | Website:  www.openfoam.com                      |
|    \\/     M anipulation  |                                                 |
\*---------------------------------------------------------------------------*/
FoamFile
{
    version     2.0;
    format      ascii;
    arch        "LSB;label=32;scalar=64";
    class       volScalarField;
    location    "2.2";
    object      p;
}
// * * * * * * * * * * * * * * * * * * * * * * * * * * * * * * * * * * * * * //

dimensions      [0 2 -2 0 0 0 0];

internalField   nonuniform List<scalar> 
13248
(
-0.597196
-0.594806
-0.59301
-0.591889
-0.591726
-0.592514
-0.593743
-0.594373
-0.592901
-0.587611
-0.57698
-0.560063
-0.53674
-0.507714
-0.474276
-0.437961
-0.400237
-0.362309
-0.325034
-0.289046
-0.254556
-0.22194
-0.190506
-0.15996
-0.601625
-0.599047
-0.596496
-0.594194
-0.592434
-0.59116
-0.589718
-0.586907
-0.581226
-0.571279
-0.556155
-0.535647
-0.510261
-0.48101
-0.44912
-0.415771
-0.381935
-0.348346
-0.315526
-0.283842
-0.253512
-0.224782
-0.197362
-0.171673
-0.607519
-0.6046
-0.601391
-0.598051
-0.594755
-0.591248
-0.586682
-0.579832
-0.569495
-0.554881
-0.535804
-0.512673
-0.486304
-0.457674
-0.427705
-0.397165
-0.36664
-0.336576
-0.307304
-0.27909
-0.2521
-0.2265
-0.202139
-0.178784
-0.615461
-0.611931
-0.608003
-0.603599
-0.598579
-0.592402
-0.584116
-0.572741
-0.557667
-0.538826
-0.516639
-0.49183
-0.465205
-0.437502
-0.409318
-0.381111
-0.353232
-0.325955
-0.299499
-0.274045
-0.249706
-0.22665
-0.204671
-0.183782
-0.625645
-0.621185
-0.616365
-0.610667
-0.603494
-0.594047
-0.581498
-0.56542
-0.545937
-0.523603
-0.499168
-0.473376
-0.446849
-0.42006
-0.393353
-0.366987
-0.341161
-0.316042
-0.291774
-0.268471
-0.246231
-0.225121
-0.205003
-0.185866
-0.63804
-0.63236
-0.626401
-0.619004
-0.609052
-0.595655
-0.578447
-0.557765
-0.534413
-0.509313
-0.483267
-0.456869
-0.430517
-0.40447
-0.378899
-0.353936
-0.329688
-0.30625
-0.283701
-0.262113
-0.241534
-0.221999
-0.203425
-0.185824
-0.652469
-0.645374
-0.637971
-0.628303
-0.614777
-0.596757
-0.574683
-0.549701
-0.52307
-0.495804
-0.46857
-0.441753
-0.415551
-0.390068
-0.365364
-0.341483
-0.318466
-0.296346
-0.275158
-0.254926
-0.235671
-0.217391
-0.200058
-0.183656
-0.66861
-0.659983
-0.650753
-0.638063
-0.620073
-0.596878
-0.569957
-0.541104
-0.51174
-0.482751
-0.454583
-0.427417
-0.401301
-0.376228
-0.35218
-0.329139
-0.307093
-0.286031
-0.265946
-0.246831
-0.228671
-0.211448
-0.195154
-0.179692
-0.685866
-0.675645
-0.6641
-0.647481
-0.624184
-0.595526
-0.56401
-0.531774
-0.50014
-0.469743
-0.440801
-0.413324
-0.387247
-0.362485
-0.338959
-0.316603
-0.295362
-0.275188
-0.256037
-0.23787
-0.220648
-0.20434
-0.188921
-0.174234
-0.703277
-0.691423
-0.676947
-0.655441
-0.626215
-0.592116
-0.556413
-0.521268
-0.487733
-0.45616
-0.426558
-0.398807
-0.372752
-0.348247
-0.325166
-0.303402
-0.282861
-0.263466
-0.245144
-0.22783
-0.211468
-0.196014
-0.181405
-0.167462
-0.719522
-0.705988
-0.687825
-0.660541
-0.625053
-0.585756
-0.546323
-0.50869
-0.473558
-0.441006
-0.410869
-0.382914
-0.356917
-0.332679
-0.310033
-0.288833
-0.268959
-0.250302
-0.23277
-0.21628
-0.200761
-0.186156
-0.172362
-0.159231
-0.733016
-0.717738
-0.695047
-0.661235
-0.619413
-0.57529
-0.532595
-0.492871
-0.456447
-0.423145
-0.392645
-0.364622
-0.338787
-0.314895
-0.292738
-0.272143
-0.252959
-0.235059
-0.21833
-0.202679
-0.188028
-0.174317
-0.161426
-0.14927
-0.413339
-0.415987
-0.41728
-0.418619
-0.420722
-0.423786
-0.427849
-0.432888
-0.438858
-0.445695
-0.453321
-0.461657
-0.470629
-0.480188
-0.490313
-0.501014
-0.512305
-0.524155
-0.536451
-0.548936
-0.561139
-0.572401
-0.581706
-0.587262
-0.430444
-0.434031
-0.436371
-0.439041
-0.442722
-0.447528
-0.453388
-0.460132
-0.467507
-0.475191
-0.482807
-0.489952
-0.496243
-0.50138
-0.505198
-0.507712
-0.50911
-0.50971
-0.509905
-0.510063
-0.510357
-0.510506
-0.509771
-0.508021
-0.450545
-0.454693
-0.45799
-0.462061
-0.467436
-0.474162
-0.482059
-0.490809
-0.499947
-0.508878
-0.516893
-0.523217
-0.52709
-0.527865
-0.52512
-0.518744
-0.508972
-0.496374
-0.481812
-0.466295
-0.450616
-0.434841
-0.418802
-0.404918
-0.472999
-0.477293
-0.481427
-0.486703
-0.493642
-0.502244
-0.512159
-0.522954
-0.533971
-0.544349
-0.553053
-0.558929
-0.56081
-0.557659
-0.548738
-0.533737
-0.512854
-0.486799
-0.456773
-0.424305
-0.390798
-0.356982
-0.323663
-0.295047
-0.496538
-0.500489
-0.505082
-0.51139
-0.5197
-0.52976
-0.541303
-0.553796
-0.566374
-0.577941
-0.587168
-0.592554
-0.592564
-0.585812
-0.571282
-0.548496
-0.51762
-0.479508
-0.435616
-0.387802
-0.338112
-0.288223
-0.240095
-0.194815
-0.519555
-0.522757
-0.52742
-0.534246
-0.543311
-0.554364
-0.566979
-0.580455
-0.59389
-0.605974
-0.615133
-0.61958
-0.617482
-0.607205
-0.587587
-0.558115
-0.519076
-0.471581
-0.417427
-0.358731
-0.298075
-0.237203
-0.180911
-0.116697
-0.540475
-0.542622
-0.546951
-0.553754
-0.56291
-0.574114
-0.586887
-0.60048
-0.613816
-0.625489
-0.633754
-0.636634
-0.632097
-0.618384
-0.594272
-0.559422
-0.514439
-0.460883
-0.401048
-0.3374
-0.272888
-0.208869
-0.148899
-0.0893884
-0.558074
-0.559047
-0.562664
-0.568872
-0.577424
-0.587962
-0.599975
-0.612654
-0.624894
-0.635199
-0.641726
-0.642397
-0.635131
-0.618188
-0.590501
-0.552005
-0.503751
-0.447776
-0.386731
-0.323337
-0.260481
-0.199813
-0.14415
-0.0925234
-0.571792
-0.571617
-0.574213
-0.579316
-0.586629
-0.595792
-0.606251
-0.617201
-0.627523
-0.635684
-0.639794
-0.637749
-0.627525
-0.607567
-0.577152
-0.536681
-0.487679
-0.432534
-0.37399
-0.314766
-0.257155
-0.202781
-0.153133
-0.108056
-0.581712
-0.580577
-0.58198
-0.585596
-0.591188
-0.598453
-0.606779
-0.615491
-0.623383
-0.628888
-0.630088
-0.624922
-0.611553
-0.588796
-0.556452
-0.515453
-0.467703
-0.415663
-0.361887
-0.308594
-0.257564
-0.209796
-0.166331
-0.126957
-0.588499
-0.586692
-0.586883
-0.588828
-0.59243
-0.59741
-0.603465
-0.60967
-0.61481
-0.617255
-0.615071
-0.606345
-0.58962
-0.564284
-0.530757
-0.490437
-0.44536
-0.397761
-0.349676
-0.302694
-0.257995
-0.216064
-0.177749
-0.142141
-0.593233
-0.591038
-0.59013
-0.590421
-0.591979
-0.594832
-0.598469
-0.601997
-0.604074
-0.602964
-0.596814
-0.584066
-0.563873
-0.536311
-0.502363
-0.463657
-0.422057
-0.379342
-0.336891
-0.295755
-0.256502
-0.219524
-0.185402
-0.153481
-0.591134
-0.589378
-0.569301
-0.529683
-0.467554
-0.392062
-0.319128
-0.261168
-0.223173
-0.204705
-0.202798
-0.213991
-0.238659
-0.280521
-0.336306
-0.388078
-0.410875
-0.388912
-0.330554
-0.261604
-0.202481
-0.160371
-0.135029
-0.124153
-0.125298
-0.140875
-0.175277
-0.222833
-0.261159
-0.264469
-0.231547
-0.182708
-0.140199
-0.11333
-0.102217
-0.108096
-0.133398
-0.167175
-0.184955
-0.170619
-0.13739
-0.105795
-0.0845912
-0.076011
-0.077135
-0.0809512
-0.0792678
-0.0724594
-0.062531
-0.0566159
-0.0562801
-0.0598147
-0.0568054
-0.049962
-0.0376974
-0.0328167
-0.0254694
-0.0200852
-0.0102367
-0.00676188
-0.506212
-0.506617
-0.485061
-0.452755
-0.398992
-0.335421
-0.275346
-0.228992
-0.200768
-0.190592
-0.19517
-0.211612
-0.241268
-0.287596
-0.346286
-0.39945
-0.423204
-0.400608
-0.340382
-0.268374
-0.206155
-0.16127
-0.132677
-0.118261
-0.115471
-0.125654
-0.152881
-0.192998
-0.226481
-0.229684
-0.20211
-0.161225
-0.126732
-0.106791
-0.102088
-0.115113
-0.148329
-0.189167
-0.21091
-0.194688
-0.154842
-0.115417
-0.0873424
-0.0726701
-0.0680884
-0.067489
-0.0646451
-0.0594662
-0.0540787
-0.05407
-0.0601855
-0.0688561
-0.0673066
-0.0592477
-0.0409152
-0.028866
-0.0158435
-0.00786212
-0.00483413
-0.00726124
-0.396146
-0.39452
-0.373767
-0.351316
-0.309688
-0.262001
-0.217436
-0.184478
-0.167424
-0.165957
-0.176732
-0.197329
-0.229744
-0.277595
-0.337393
-0.39212
-0.418581
-0.398662
-0.339757
-0.267361
-0.204386
-0.158413
-0.127749
-0.110129
-0.103553
-0.108461
-0.128411
-0.160801
-0.189971
-0.194362
-0.171814
-0.138563
-0.111412
-0.0979114
-0.0994363
-0.11966
-0.160414
-0.20775
-0.233685
-0.216757
-0.170985
-0.123863
-0.0892212
-0.0691419
-0.0596341
-0.0549352
-0.0507132
-0.0466718
-0.0455139
-0.0512735
-0.0638143
-0.077521
-0.0773114
-0.0680959
-0.0440799
-0.0249032
-0.00648375
0.00417662
0.000276897
-0.00769444
-0.278381
-0.270124
-0.255491
-0.234269
-0.210069
-0.178058
-0.149713
-0.130831
-0.125059
-0.131788
-0.147734
-0.170872
-0.203993
-0.251696
-0.311733
-0.368483
-0.398083
-0.382763
-0.328069
-0.258677
-0.197424
-0.151983
-0.120633
-0.100829
-0.0906873
-0.0905457
-0.103584
-0.128545
-0.153421
-0.160119
-0.141886
-0.115459
-0.0946777
-0.0867743
-0.0937698
-0.120403
-0.167973
-0.221484
-0.251796
-0.235465
-0.185197
-0.130956
-0.0901745
-0.0654162
-0.0518524
-0.0434299
-0.0376385
-0.0342184
-0.0368946
-0.0481567
-0.0670241
-0.0856705
-0.0866501
-0.0763399
-0.0471447
-0.0210284
0.00240877
0.015886
0.00513792
-0.00800923
-0.169805
-0.152047
-0.141025
-0.126414
-0.111209
-0.0938987
-0.0809602
-0.0745335
-0.0783401
-0.091573
-0.111114
-0.13554
-0.168596
-0.215648
-0.27503
-0.332932
-0.366216
-0.356312
-0.307711
-0.243987
-0.186511
-0.14279
-0.111766
-0.0908653
-0.0782496
-0.0735182
-0.0799143
-0.0977829
-0.118205
-0.125979
-0.112777
-0.0925132
-0.0770039
-0.0735486
-0.0850014
-0.116757
-0.170106
-0.229138
-0.263899
-0.249746
-0.196984
-0.136709
-0.090323
-0.0615487
-0.0447624
-0.0330721
-0.0255849
-0.0222277
-0.0281884
-0.0446275
-0.0697033
-0.0931834
-0.0951705
-0.0838507
-0.0500824
-0.0173347
0.0106532
0.027117
0.00981165
-0.00816653
-0.0884385
-0.0570745
-0.0406343
-0.0278153
-0.0194216
-0.0159022
-0.0144836
-0.0184663
-0.0296054
-0.0475219
-0.0695756
-0.0951882
-0.128807
-0.175661
-0.23397
-0.291757
-0.327436
-0.322559
-0.280978
-0.22463
-0.172618
-0.131755
-0.101738
-0.0805545
-0.066446
-0.0585698
-0.0590945
-0.0701325
-0.0857987
-0.0939125
-0.0855488
-0.0705327
-0.0590785
-0.0588408
-0.0734716
-0.108974
-0.166679
-0.230379
-0.269405
-0.258897
-0.205812
-0.14106
-0.0897753
-0.0576178
-0.0383821
-0.0239544
-0.0146987
-0.0108506
-0.0194417
-0.0406246
-0.0717097
-0.0999458
-0.102758
-0.0905051
-0.0528534
-0.0139062
0.0180952
0.0377395
0.0143367
-0.00813732
-0.0448819
0.000757076
0.030075
0.0468658
0.0530356
0.0529856
0.0472263
0.0370092
0.0212913
0.000162058
-0.024551
-0.0528008
-0.0886303
-0.135937
-0.192677
-0.248884
-0.285196
-0.284481
-0.25038
-0.202437
-0.156936
-0.119839
-0.0914035
-0.0704172
-0.0554812
-0.0455557
-0.0417586
-0.0465725
-0.0573383
-0.0654196
-0.0611043
-0.0503681
-0.0418172
-0.04349
-0.0600923
-0.0974413
-0.157508
-0.225204
-0.268054
-0.262667
-0.211252
-0.143982
-0.0887
-0.0537079
-0.0326702
-0.0161252
-0.00511514
-0.000280589
-0.0106609
-0.0360952
-0.0730374
-0.105917
-0.109344
-0.0962057
-0.055398
-0.0108027
0.0246131
0.0476426
0.0187275
-0.00790111
-0.0472562
0.00419005
0.049406
0.0804139
0.0964577
0.10073
0.0960267
0.0848362
0.0682894
0.0461497
0.0189173
-0.0130421
-0.0517698
-0.0992175
-0.153457
-0.206379
-0.241474
-0.243994
-0.217579
-0.178669
-0.140323
-0.107623
-0.0813327
-0.060919
-0.0456185
-0.0344237
-0.0275322
-0.0272786
-0.0334614
-0.0408904
-0.0399653
-0.0326699
-0.0261063
-0.0285148
-0.0455161
-0.0832491
-0.143797
-0.213319
-0.260211
-0.259674
-0.212589
-0.145275
-0.0872088
-0.0498959
-0.0275443
-0.00956421
0.00307964
0.00929103
-0.00203442
-0.0310806
-0.0735352
-0.111004
-0.11484
-0.100863
-0.0576329
-0.00804635
0.0301324
0.0567175
0.022982
-0.00744509
-0.067198
-0.019897
0.0280381
0.0681813
0.0977011
0.115738
0.120037
0.115104
0.102787
0.0831832
0.0555837
0.021331
-0.0190454
-0.0655793
-0.116482
-0.165493
-0.198293
-0.203378
-0.18447
-0.154547
-0.123448
-0.0954378
-0.0717187
-0.0523029
-0.0369914
-0.0251179
-0.0163018
-0.0121927
-0.0142906
-0.02044
-0.0219492
-0.0176857
-0.012522
-0.0146644
-0.030867
-0.0671592
-0.125891
-0.196259
-0.246644
-0.256475
-0.209998
-0.14472
-0.0853155
-0.0462051
-0.0229161
-0.00416004
0.00983578
0.0176795
0.00647824
-0.0254883
-0.0733693
-0.115274
-0.11924
-0.104442
-0.0595109
-0.00566031
0.0346368
0.0648544
0.0270858
-0.00676918
-0.0918099
-0.049895
-0.00516095
0.0364373
0.0753211
0.097139
0.111374
0.115996
0.112754
0.101393
0.0782264
0.045539
0.00677229
-0.0361212
-0.0818319
-0.124836
-0.154344
-0.162098
-0.151084
-0.13032
-0.106638
-0.0835938
-0.0628215
-0.044843
-0.0299223
-0.0177999
-0.0080076
-0.00129455
0.000163879
-0.00404891
-0.00980513
-0.0056148
-0.00132798
-0.00279314
-0.0171581
-0.0507523
-0.106672
-0.174534
-0.226949
-0.24
-0.202007
-0.142008
-0.0831885
-0.0427992
-0.0188767
8.22349e-05
0.015162
0.0247159
0.0145032
-0.0195479
-0.0721797
-0.118503
-0.122453
-0.106859
-0.0610603
-0.00376125
0.0381018
0.0719209
0.031011
-0.0058814
-0.110268
-0.0745075
-0.0352413
0.00446883
0.0373442
0.0707127
0.0912748
0.103009
0.10785
0.104225
0.0899453
0.0640868
0.0292498
-0.01035
-0.0511706
-0.0887213
-0.115537
-0.126651
-0.12289
-0.109848
-0.0924418
-0.0738001
-0.0558439
-0.0394155
-0.0250776
-0.0128977
-0.00261372
0.00569176
0.0100928
0.00855677
0.00378119
0.00463238
0.00757187
0.0068287
-0.00465183
-0.0341451
-0.0855977
-0.151376
-0.204757
-0.221844
-0.192965
-0.138413
-0.0816906
-0.040245
-0.0155944
0.00321619
0.0188636
0.0303039
0.022364
-0.0129617
-0.0703979
-0.121093
-0.124608
-0.108223
-0.0621875
-0.00235055
0.0404773
0.0777858
0.034737
-0.00480909
-0.126841
-0.0991232
-0.0695963
-0.0350628
-0.000480469
0.0311366
0.0573819
0.0761742
0.08746
0.0912469
0.0864238
0.0719312
0.0483014
0.018335
-0.0144525
-0.0470265
-0.071725
-0.0849767
-0.0886152
-0.0843644
-0.0744809
-0.0613776
-0.0470911
-0.0328616
-0.0196648
-0.00795236
0.00226194
0.0113767
0.0178485
0.0184889
0.0142462
0.0117897
0.0142531
0.0135761
0.00419753
-0.0203138
-0.0655092
-0.126592
-0.177972
-0.197395
-0.177009
-0.130509
-0.0783288
-0.0372178
-0.0120609
0.00666426
0.0218212
0.0336582
0.0289776
-0.00624238
-0.0672581
-0.122128
-0.125289
-0.108321
-0.061997
-0.00061909
0.0422666
0.0822352
0.0382174
-0.00357423
-0.1182
-0.100203
-0.0723624
-0.0402927
-0.00882033
0.018975
0.0434203
0.0614951
0.0737531
0.0806247
0.080105
0.0700571
0.0512025
0.0261799
-0.00192359
-0.029108
-0.0505066
-0.0628697
-0.0673459
-0.0649352
-0.0574316
-0.0468302
-0.0348461
-0.0225958
-0.010866
-0.00018913
0.00917339
0.0177891
0.0248141
0.0272854
0.0238798
0.0200769
0.0199288
0.0204061
0.0148793
-0.00437014
-0.0449918
-0.103265
-0.154833
-0.178491
-0.163931
-0.118855
-0.0698399
-0.0306387
-0.00691299
0.0109741
0.0258436
0.0435757
0.0363618
0.00150573
-0.0630593
-0.123094
-0.12592
-0.106914
-0.0601325
0.00187522
0.0441281
0.0856006
0.0413704
-0.00231977
-0.112385
-0.0963111
-0.0699479
-0.0407906
-0.0135512
0.0108565
0.0316453
0.04829
0.0604716
0.0674611
0.0679135
0.0608576
0.0468295
0.0277114
0.00599589
-0.0151222
-0.0321789
-0.0429683
-0.0474259
-0.0463949
-0.0411699
-0.0331597
-0.0235718
-0.0133444
-0.00323397
0.00630843
0.0149274
0.0228545
0.0294121
0.0319251
0.0286062
0.0230471
0.0233924
0.0238003
0.0199317
0.00444535
-0.0305991
-0.0842823
-0.134353
-0.157995
-0.144715
-0.10475
-0.0606519
-0.0243159
-0.00214047
0.0148223
0.0289547
0.0455272
0.0410486
0.00718161
-0.0597164
-0.123781
-0.12532
-0.103485
-0.0574485
0.00423758
0.0455018
0.0873161
0.0438315
-0.00107404
-0.105307
-0.0909724
-0.0681646
-0.0427888
-0.018867
0.0025411
0.0209274
0.035925
0.0470746
0.0537859
0.0553031
0.0511041
0.0415235
0.0278865
0.0120273
-0.00392201
-0.017467
-0.0267731
-0.0314196
-0.031685
-0.0282914
-0.0222054
-0.0143874
-0.00566745
0.00319085
0.011761
0.0195755
0.0267822
0.0330333
0.0358608
0.0329534
0.0282752
0.0261956
0.0259129
0.0222174
0.00851114
-0.0222567
-0.0696107
-0.112729
-0.133998
-0.124428
-0.0902226
-0.0514716
-0.0182398
0.00213091
0.0181947
0.0314573
0.0475817
0.0441841
0.0108903
-0.0575786
-0.123595
-0.123295
-0.098658
-0.0539407
0.0065019
0.0463572
0.0876724
0.0456577
0.000270684
-0.0959248
-0.0851261
-0.0663375
-0.0443771
-0.0231683
-0.00439303
0.0116424
0.0247924
0.0349256
0.0416583
0.0443527
0.0425781
0.0365388
0.0271024
0.0156105
0.00377104
-0.00686475
-0.014579
-0.0188283
-0.0195132
-0.0170843
-0.0123113
-0.00595042
0.00139041
0.00899242
0.0165227
0.0235332
0.0299287
0.0354768
0.0383136
0.0357608
0.030692
0.0281468
0.0275291
0.0239639
0.0112907
-0.0154222
-0.0537859
-0.0886749
-0.108963
-0.102995
-0.0744473
-0.0415522
-0.0121559
0.00609639
0.0212178
0.0333831
0.0486435
0.0463074
0.0138755
-0.0548446
-0.121707
-0.119809
-0.0922865
-0.0492705
0.00882674
0.0466921
0.0866196
0.0469479
0.00175371
-0.0872061
-0.0794348
-0.0639438
-0.0450581
-0.0265879
-0.0101714
0.00380826
0.0153859
0.024667
0.0313599
0.0348667
0.0348124
0.031343
0.0251106
0.0171302
0.0086793
0.000804845
-0.00517673
-0.00866242
-0.00944526
-0.00776889
-0.00408575
0.00105056
0.00723024
0.0138072
0.0204125
0.0266617
0.0323618
0.0371742
0.0397852
0.0376028
0.0324986
0.0295619
0.0286303
0.0250929
0.0136847
-0.00747979
-0.0359825
-0.0640331
-0.083423
-0.0811443
-0.0584501
-0.0315221
-0.00629591
0.00963912
0.0237488
0.0348126
0.048529
0.0474748
0.0169485
-0.050503
-0.117471
-0.114391
-0.0842813
-0.0434755
0.0111555
0.0464992
0.0840518
0.0477513
0.00334321
-0.079232
-0.0733472
-0.0606582
-0.0447014
-0.0288652
-0.014603
-0.00240284
0.00777658
0.0161607
0.0225967
0.0265745
0.0277631
0.0262799
0.022605
0.0174543
0.0116515
0.00614502
0.00176799
-0.000906446
-0.00155999
-0.000253238
0.00276227
0.00703843
0.0122791
0.0179465
0.0236492
0.0290936
0.0341068
0.0382253
0.0404706
0.038686
0.0338091
0.0307034
0.0294387
0.0259116
0.0161081
0.000931715
-0.0186051
-0.0401949
-0.0585333
-0.0598116
-0.0427057
-0.0214309
-0.000621445
0.0128329
0.0257735
0.0357993
0.047259
0.0476682
0.0201061
-0.0444154
-0.110165
-0.106551
-0.0747308
-0.0366102
0.0135235
0.045809
0.0799891
0.0479684
0.00495041
-0.0702376
-0.066462
-0.0566373
-0.043476
-0.0300104
-0.0177027
-0.00709984
0.00179756
0.00928549
0.0153558
0.0195972
0.0216916
0.0216985
0.0199649
0.0170168
0.013329
0.00970982
0.00676471
0.00497809
0.00466829
0.00583383
0.0083598
0.0119268
0.0163347
0.0212051
0.0261504
0.0308641
0.0352422
0.0388025
0.0406745
0.0393044
0.0349401
0.0318761
0.0305718
0.0266919
0.0180507
0.00807828
-0.0029673
-0.0180113
-0.0353098
-0.0398745
-0.0279442
-0.0117435
0.00473103
0.0156932
0.0273185
0.0364097
0.0450879
0.0467567
0.0229175
-0.0364851
-0.0989994
-0.0958692
-0.0638616
-0.0289438
0.0159098
0.0446548
0.0745543
0.0474235
0.00648234
-0.0622462
-0.0599479
-0.0522805
-0.0414522
-0.0300827
-0.0195366
-0.0103806
-0.00264706
0.00399633
0.00964239
0.0139635
0.0166494
0.0177106
0.0173989
0.0160852
0.0141153
0.0120291
0.0103137
0.00933844
0.00939105
0.0105285
0.0127385
0.0158149
0.0195934
0.0237904
0.0280727
0.0321205
0.035884
0.0389623
0.0405488
0.0396
0.035961
0.0331506
0.0319254
0.0282137
0.0204994
0.0149521
0.0110796
0.00112278
-0.0154115
-0.022374
-0.0147329
-0.00272295
0.00973915
0.0183007
0.0284768
0.0366739
0.0425382
0.044812
0.025314
-0.0264739
-0.083415
-0.0819375
-0.0520937
-0.0208964
0.0183034
0.0430995
0.0679827
0.0459876
0.00786559
-0.0546297
-0.0534226
-0.0475263
-0.0387083
-0.0291931
-0.0202263
-0.0123745
-0.00569104
0.00016277
0.00533992
0.00958389
0.0126049
0.0143815
0.0150912
0.0149702
0.0143082
0.0134304
0.0127118
0.0124431
0.0128823
0.0141074
0.0161371
0.0188432
0.0220963
0.0256993
0.0294063
0.0328999
0.0361301
0.0387922
0.0401837
0.0396426
0.0368792
0.0345334
0.0335119
0.0312139
0.0255936
0.0237829
0.0235766
0.0155865
9.62045e-05
-0.00774807
-0.00332555
0.00532336
0.0142966
0.0207133
0.0293671
0.0366428
0.0403517
0.0423127
0.0275575
-0.0145531
-0.0636272
-0.0647436
-0.039966
-0.013
0.0206375
0.0412475
0.0606283
0.0436288
0.0090453
-0.0473556
-0.0469133
-0.0424696
-0.0353799
-0.0274939
-0.0199279
-0.0132405
-0.00750339
-0.00238609
0.00229854
0.0063522
0.00951061
0.0117333
0.0131429
0.013884
0.0141593
0.0141997
0.0142781
0.0146125
0.0154057
0.0167381
0.0186466
0.0210729
0.0239223
0.0270488
0.0302707
0.0333027
0.036083
0.0383945
0.0396558
0.0394796
0.0375843
0.0358722
0.0354725
0.0347551
0.0323623
0.0332207
0.0335241
0.0255318
0.0118044
0.00424637
0.00621446
0.0122013
0.0183281
0.0229719
0.0301167
0.0364183
0.0390227
0.0399996
0.0297577
-0.00179401
-0.0412557
-0.0452129
-0.0280888
-0.00573693
0.0228256
0.0392688
0.053001
0.040464
0.00998898
-0.0403022
-0.0404896
-0.0372692
-0.031646
-0.0251564
-0.018809
-0.013152
-0.00826513
-0.00382797
0.000361389
0.0041466
0.00729515
0.00975047
0.0115883
0.0129161
0.0138591
0.0145771
0.015257
0.0160588
0.0171398
0.0185826
0.0204284
0.0226539
0.0251886
0.0279221
0.0307304
0.0333813
0.0357987
0.0378305
0.0390225
0.0391539
0.0380626
0.0370258
0.0372163
0.0378625
0.0378612
0.0398696
0.0398184
0.0321239
0.0205913
0.0139049
0.0139026
0.017774
0.021778
0.0250556
0.0307852
0.0361037
0.0384959
0.0385293
0.0316856
0.0100032
-0.0192116
-0.0250789
-0.0170254
0.000564709
0.0247577
0.0373926
0.0458082
0.036874
0.0107079
-0.0336426
-0.0343374
-0.0320862
-0.027652
-0.0223316
-0.0170358
-0.0122853
-0.00815562
-0.00433989
-0.000635605
0.00283257
0.00585674
0.00838316
0.0104553
0.0121481
0.0135344
0.0147174
0.0158235
0.0169726
0.0182816
0.0198214
0.0216269
0.0236933
0.0259773
0.0283946
0.0308647
0.033205
0.0353369
0.0371478
0.0383207
0.0387097
0.0383037
0.0378787
0.0384511
0.0397653
0.0407321
0.0427275
0.0426101
0.0361382
0.0267866
0.0213481
0.0197958
0.0220487
0.0246478
0.026923
0.03138
0.0357471
0.0383375
0.0379031
0.0327963
0.0189623
-0.000668892
-0.00651516
-0.00723015
0.00576115
0.0262836
0.0358483
0.0399453
0.0335632
0.0112645
-0.027571
-0.0285194
-0.0269666
-0.0234904
-0.0191589
-0.0147715
-0.0108116
-0.00734819
-0.00409377
-0.00085414
0.00226902
0.00508999
0.00757152
0.00973356
0.0116195
0.0132664
0.0147438
0.0161342
0.0175226
0.0189899
0.0205923
0.0223618
0.0243002
0.0263856
0.0285502
0.0307455
0.0328305
0.0347405
0.0363778
0.0375594
0.0381584
0.0382819
0.0383413
0.0390881
0.0405668
0.0417346
0.0432217
0.0430551
0.0380962
0.0305679
0.0244747
0.0239919
0.0251914
0.0269498
0.0285003
0.0318756
0.0353431
0.0379864
0.0374059
0.0325691
0.0242088
0.0124405
0.00743345
0.00100733
0.00993577
0.0272652
0.0346791
0.0361124
0.0313305
0.0117398
-0.0219026
-0.0229781
-0.0219716
-0.019284
-0.0157817
-0.012167
-0.00888683
-0.00600347
-0.00325051
-0.000448636
0.00231766
0.00490504
0.00725797
0.00939553
0.0113416
0.013112
0.0147498
0.0163036
0.0178323
0.0193912
0.0210208
0.0227503
0.024579
0.026501
0.0284604
0.0304316
0.0323052
0.0340421
0.0355433
0.0367367
0.0374972
0.037989
0.0383845
0.0391671
0.0405343
0.0416017
0.0425452
0.042269
0.0386602
0.0329192
0.0283893
0.0271512
0.0274804
0.0287086
0.0297332
0.0322256
0.0348767
0.0372657
0.0367559
0.0321848
0.0269637
0.0201596
0.0162454
0.00768734
0.0133468
0.0276546
0.0337387
0.034196
0.0303867
0.0120703
-0.0166104
-0.0177868
-0.0172004
-0.015136
-0.0123121
-0.00934722
-0.00664682
-0.00426384
-0.00195395
0.000445538
0.00286636
0.00518637
0.00736164
0.00939858
0.0113112
0.0131005
0.014792
0.0164131
0.0180012
0.0195931
0.021215
0.0228923
0.0246185
0.0263998
0.0281878
0.0299753
0.0316722
0.0332674
0.0346578
0.035846
0.0367184
0.0374648
0.0380294
0.0387846
0.0399332
0.040809
0.0413432
0.0409666
0.0384014
0.0341915
0.0307744
0.0293613
0.0291246
0.0299604
0.0306077
0.0324035
0.0343384
0.0363077
0.0360803
0.0322517
0.028857
0.0245938
0.0210321
0.0129154
0.0160961
0.027414
0.0325442
0.0328435
0.0294109
0.0119223
-0.011791
-0.0129787
-0.0126804
-0.0111025
-0.00883613
-0.00641813
-0.00421048
-0.00225571
-0.000333155
0.00170245
0.0038002
0.00584443
0.00780944
0.00969463
0.0115075
0.0132413
0.0149088
0.0165225
0.018105
0.0196803
0.0212613
0.0228701
0.0244951
0.0261494
0.027789
0.029421
0.0309674
0.0324388
0.033734
0.0348893
0.0358017
0.0365561
0.0373208
0.03805
0.0389761
0.039657
0.0399354
0.0395122
0.0377011
0.0346952
0.0320999
0.0307843
0.0302544
0.0307608
0.0311448
0.0324025
0.033739
0.0352553
0.0351466
0.0323172
0.0299758
0.0271085
0.0234745
0.0167667
0.0181796
0.026657
0.0308085
0.0307768
0.0272023
0.0110615
-0.00738353
-0.00852493
-0.0084313
-0.00723867
-0.00542885
-0.00346772
-0.00167554
-8.43311e-05
0.00150321
0.0032138
0.00500562
0.00678506
0.00852824
0.0102334
0.0119049
0.0135322
0.0151197
0.0166716
0.0181985
0.0197164
0.0212278
0.0227514
0.0242722
0.0258065
0.0273125
0.0288066
0.0302211
0.0315782
0.0327891
0.0338945
0.0348193
0.0356056
0.0363942
0.0370779
0.037817
0.0383346
0.0384747
0.0380639
0.0367809
0.0346704
0.0327099
0.0315822
0.0309517
0.0311834
0.0313766
0.0322238
0.0330894
0.0341712
0.0341155
0.0319923
0.0302015
0.0281955
0.0246672
0.0193586
0.0195915
0.0254778
0.0285406
0.027885
0.0237774
0.00971464
-0.00335482
-0.00443049
-0.00447805
-0.00358425
-0.00214472
-0.00056278
0.000882053
0.0021679
0.00346825
0.00489178
0.00640419
0.00793145
0.00945253
0.0109653
0.0124718
0.0139609
0.0154309
0.0168824
0.0183177
0.0197466
0.0211657
0.0225902
0.0240015
0.0254169
0.0267984
0.0281656
0.0294611
0.0307087
0.0318397
0.032882
0.0337931
0.0345795
0.0353346
0.0359638
0.0365609
0.0369579
0.0370345
0.0366774
0.0357641
0.0342964
0.0328318
0.0318995
0.0312793
0.0312982
0.0313436
0.0318804
0.0323864
0.0330656
0.0329994
0.0313277
0.0298009
0.0282616
0.0251038
0.0209338
0.020391
0.0241091
0.0260447
0.0247521
0.0202004
0.00826584
0.000303077
-0.00068564
-0.000822461
-0.000160005
0.000978236
0.00224646
0.00340265
0.00443269
0.00548854
0.0066622
0.00792509
0.00921841
0.0105254
0.0118445
0.0131753
0.0145085
0.0158394
0.0171657
0.0184852
0.0198029
0.0211121
0.0224251
0.0237221
0.0250177
0.0262798
0.0275257
0.0287105
0.0298518
0.0309024
0.0318735
0.0327452
0.0335039
0.0342065
0.0347815
0.0352769
0.0355934
0.0356495
0.0353671
0.0347169
0.0336975
0.0326157
0.031851
0.0313028
0.0311676
0.0310971
0.0313943
0.031626
0.0319284
0.0318212
0.0304637
0.0290676
0.0277185
0.0250394
0.0217274
0.0206826
0.0227172
0.0235905
0.0217414
0.0169708
0.00691198
0.00361878
0.00272616
0.0025353
0.0030191
0.00391336
0.00492299
0.00584027
0.00665757
0.00750758
0.00846681
0.00950936
0.0105898
0.0116968
0.0128287
0.0139837
0.0151545
0.0163353
0.0175222
0.0187104
0.0199035
0.0210922
0.0222846
0.0234626
0.0246374
0.0257829
0.0269113
0.0279891
0.0290263
0.0299925
0.0308868
0.0317024
0.0324171
0.0330609
0.0335857
0.0340109
0.0342772
0.0343357
0.0341315
0.0336717
0.0329632
0.0321661
0.031551
0.0310206
0.0308398
0.0306852
0.0307872
0.0308187
0.0308351
0.0306206
0.0294912
0.02817
0.0268717
0.024636
0.021943
0.0205748
0.0213196
0.0212865
0.0190045
0.0142336
0.00572733
0.00661444
0.00582075
0.00560203
0.00594865
0.00664503
0.00744114
0.00816176
0.00880396
0.00948096
0.0102573
0.0111097
0.0120015
0.0129239
0.0138794
0.0148651
0.0158749
0.0169031
0.0179459
0.018997
0.0200579
0.0211195
0.0221865
0.0232433
0.0242968
0.0253266
0.0263399
0.0273125
0.0282472
0.0291253
0.0299403
0.0306886
0.0313503
0.031937
0.0324161
0.0327916
0.0330284
0.0330987
0.0329652
0.0326443
0.032151
0.0315632
0.0310723
0.0306237
0.0303706
0.0301465
0.0300861
0.0299698
0.029774
0.0294293
0.0284573
0.027197
0.0258983
0.0240015
0.0217412
0.020163
0.0199479
0.0191952
0.0166111
0.0119889
0.00473509
0.00931242
0.00861645
0.00838813
0.0086293
0.00916523
0.00978576
0.0103447
0.0108428
0.011375
0.011996
0.0126884
0.0134244
0.0141719
0.0149623
0.0157896
0.0166464
0.0175261
0.018426
0.0193402
0.0202675
0.0211999
0.0221405
0.023076
0.0240093
0.0249246
0.0258251
0.0266934
0.0275284
0.0283171
0.0290494
0.0297218
0.0303291
0.0308621
0.0312991
0.0316369
0.0318549
0.0319374
0.0318623
0.0316423
0.0312969
0.0308603
0.0304602
0.0300703
0.0297808
0.0295064
0.0293169
0.0290829
0.0287432
0.0282735
0.0273907
0.0261916
0.024887
0.0232119
0.021243
0.0195331
0.0186278
0.0173399
0.0145728
0.0101766
0.00393124
0.0117366
0.0111328
0.0109067
0.0110668
0.0114723
0.0119481
0.0123733
0.0127514
0.0131605
0.0136428
0.0141836
0.0147562
0.0153823
0.0160379
0.0167261
0.0174438
0.0181861
0.01895
0.0197308
0.020528
0.0213344
0.0221503
0.0229659
0.0237815
0.0245846
0.025376
0.0261432
0.0268816
0.0275805
0.0282278
0.0288026
0.0293733
0.0298554
0.0302512
0.0305566
0.0307597
0.0308506
0.0308192
0.0306702
0.0304229
0.030093
0.0297584
0.0294101
0.0291007
0.0287909
0.0285066
0.0281736
0.0277367
0.0271645
0.0263151
0.025175
0.023875
0.0223243
0.0205447
0.0187612
0.0173764
0.0157129
0.0128652
0.00872672
0.00329464
0.0139079
0.0133891
0.0131725
0.0132707
0.0135705
0.013928
0.0142449
0.0145264
0.0148367
0.0152091
0.015633
0.0160928
0.0165848
0.0171091
0.017666
0.0182538
0.0188672
0.019504
0.0201596
0.0208325
0.0215178
0.0222143
0.0229135
0.0236156
0.0243105
0.0249968
0.0256655
0.0263125
0.0269313
0.0275189
0.0280783
0.0285276
0.0289369
0.0292838
0.0295548
0.029742
0.0298362
0.029832
0.0297307
0.0295474
0.0292885
0.0289989
0.0286804
0.0283596
0.0280193
0.0276673
0.0272559
0.0267487
0.0261032
0.0252527
0.0241572
0.0228754
0.0213858
0.0197195
0.0179076
0.0162069
0.0142934
0.0114464
0.00757369
0.00279681
0.0158458
0.0154039
0.0152011
0.0152518
0.0154662
0.0157271
0.015956
0.0161589
0.0163872
0.0166679
0.0169919
0.0173463
0.0177299
0.0181441
0.018587
0.0190574
0.0195537
0.0200737
0.0206132
0.0211708
0.0217416
0.0223253
0.0229152
0.0235091
0.0241
0.0246856
0.0252585
0.025815
0.0263478
0.0268515
0.0273169
0.0277286
0.0280887
0.028393
0.028632
0.0288003
0.0288906
0.0289004
0.0288278
0.0286822
0.0284678
0.0282082
0.0279077
0.0275788
0.0272132
0.0268129
0.0263426
0.0257798
0.0250839
0.0242195
0.0231488
0.0218925
0.020433
0.0188264
0.0170172
0.0151265
0.0130588
0.0102698
0.00665891
0.00240995
0.0175686
0.0171947
0.0170077
0.017022
0.0171671
0.0173493
0.0175063
0.0176448
0.0178059
0.0180097
0.0182491
0.0185146
0.0188056
0.019124
0.0194688
0.0198386
0.020231
0.0206452
0.0210793
0.0215315
0.0219974
0.0224764
0.0229638
0.0234567
0.023949
0.0244387
0.0249192
0.0253887
0.0258389
0.0262629
0.0266552
0.0270102
0.0273202
0.0275818
0.0277874
0.0279336
0.0280131
0.0280239
0.027964
0.027839
0.0276495
0.0274068
0.0271145
0.0267787
0.0263925
0.0259553
0.0254421
0.0248352
0.0241042
0.0232244
0.0221611
0.020931
0.0194924
0.0179115
0.016123
0.0141391