/*--------------------------------*- C++ -*----------------------------------*\
| =========                 |                                                 |
| \\      /  F ield         | OpenFOAM: The Open Source CFD Toolbox           |
|  \\    /   O peration     | Version:  2312                                  |
|   \\  /    A nd           | Website:  www.openfoam.com                      |
|    \\/     M anipulation  |                                                 |
\*---------------------------------------------------------------------------*/
FoamFile
{
    version     2.0;
    format      ascii;
    arch        "LSB;label=32;scalar=64";
    class       surfaceScalarField;
    location    "138.95";
    object      phi;
}
// * * * * * * * * * * * * * * * * * * * * * * * * * * * * * * * * * * * * * //

dimensions      [0 3 -1 0 0 0 0];

oriented        oriented;

internalField   nonuniform List<scalar> 
10785
(
-0.00142562
0.00344973
-0.00202412
-0.00260309
0.00514024
-0.00396276
-0.000828213
0.00240402
-0.0041789
0.00661996
-0.00607698
-0.00137119
0.0219762
-0.0211406
0.00578433
0.0456319
-0.0415266
0.017871
0.0759119
-0.0644257
0.0341456
0.109903
-0.0870228
0.0530321
0.144241
-0.107237
0.0728993
0.176489
-0.124247
0.0919984
0.203488
-0.137607
0.110607
0.225221
-0.14775
0.126017
0.240647
-0.156546
0.141121
0.250084
-0.162101
0.152664
-0.171701
0.163049
0.258736
-0.000400868
0.0038506
0.000968742
0.00377063
0.00734643
-0.00397366
0.0218659
-0.0205964
0.0451507
-0.0444255
0.0745642
-0.0709401
0.105889
-0.0957506
0.1351
-0.116234
0.159545
-0.131682
0.17798
-0.142681
0.191005
-0.150631
0.200832
-0.157577
0.208785
-0.164499
0.219323
-0.172639
-0.183131
0.230753
0.000439071
0.00341153
0.00467111
-0.000461417
0.0167403
-0.0160428
0.0382897
-0.0421458
0.0660071
-0.0721429
0.094359
-0.099292
0.118818
-0.120209
0.137285
-0.134701
0.150057
-0.144454
0.159148
-0.151773
0.167216
-0.1587
0.175708
-0.166068
0.185475
-0.174267
0.195398
-0.182561
-0.191135
0.203402
0.00126443
0.0021471
0.00908687
-0.00828386
0.0271989
-0.0341548
0.0526889
-0.0676359
0.0785727
-0.0980266
0.0996928
-0.120412
0.114534
-0.135051
0.124451
-0.144618
0.131938
-0.151941
0.139027
-0.158862
0.146243
-0.165915
0.153468
-0.173294
0.160019
-0.180818
0.166242
-0.188785
-0.197862
0.172969
0.00241728
-0.000270178
0.0145771
-0.0204437
0.0367205
-0.0562982
0.0606728
-0.0915881
0.0799534
-0.117307
0.0929868
-0.133445
0.101446
-0.14351
0.107694
-0.150866
0.113206
-0.157453
0.118324
-0.16398
0.123209
-0.1708
0.127992
-0.178077
0.133076
-0.185902
0.138722
-0.194431
-0.203125
0.143985
0.00405607
-0.00432625
0.0200918
-0.0364794
0.0419898
-0.0781962
0.0605883
-0.110187
0.0730576
-0.129777
0.0807378
-0.141126
0.0858243
-0.148596
0.0897603
-0.154802
0.0931944
-0.160888
0.0965498
-0.167335
0.100014
-0.174264
0.103607
-0.181669
0.107234
-0.189529
0.110567
-0.197764
-0.206363
0.113806
0.00610852
-0.0104348
0.0237989
-0.0541698
0.0419916
-0.0963889
0.0547563
-0.122951
0.0622215
-0.137242
0.0664383
-0.145342
0.0691173
-0.151275
0.0712147
-0.1569
0.0731766
-0.162849
0.0750704
-0.169229
0.0768731
-0.176067
0.0786082
-0.183404
0.0802755
-0.191197
0.0820008
-0.199489
-0.208056
0.0836934
0.00794271
-0.0183775
0.0244642
-0.0706913
0.0380064
-0.109931
0.0459038
-0.130849
0.0497106
-0.141049
0.0514401
-0.147072
0.0523398
-0.152175
0.0529203
-0.15748
0.0532862
-0.163215
0.0534925
-0.169435
0.0535914
-0.176166
0.0536074
-0.18342
0.0536437
-0.191233
0.0535912
-0.199437
0.0534803
-0.207945
-0.00228604
-0.0154682
0.0177542
-0.00726704
-0.0242528
0.0292338
-0.013945
-0.0243119
0.0309899
-0.0217519
-0.0219561
0.0297629
-0.0302909
-0.0188384
0.0273775
-0.0392205
-0.0144538
0.0233834
-0.0482104
-0.00800639
0.0169962
-0.0566851
0.000978979
0.00749575
-0.0640788
0.0123998
-0.00500611
-0.0702058
0.0266624
-0.0205355
-0.0742118
0.0433128
-0.0393068
-0.0751227
0.0614343
-0.0605233
-0.0721108
0.0799056
-0.0829174
-0.065267
0.0974643
-0.104308
0.110539
-0.0522892
-0.123517
-0.00292872
-0.0125395
-0.00845737
-0.0187241
-0.0155098
-0.0172595
-0.0237149
-0.0137509
-0.0326932
-0.00986011
-0.0419612
-0.00518581
-0.0508642
0.000896587
-0.0586392
0.008754
-0.0647179
0.0184785
-0.06804
0.0299846
-0.0676122
0.042885
-0.0624414
0.0562635
-0.0501349
0.067599
-0.032555
0.0798844
0.0824026
-0.00441842
-0.00283753
-0.00970194
-0.00781528
-0.0137464
-0.0138512
-0.0112236
-0.0206547
-0.00694744
-0.0278169
-0.00269789
-0.0347349
0.00173222
-0.0406154
0.00677706
-0.0445486
0.0126872
-0.0455674
0.0194972
-0.0425729
0.0269901
-0.0340613
0.0343734
-0.0200056
0.0422078
0.00227492
0.0453185
0.029904
0.0522553
0.0397529
0.0725537
-0.00243167
-0.00727027
-0.00645237
-0.00972569
-0.0108945
-0.00678148
-0.0154061
-0.00243585
-0.0196925
0.00158855
-0.0230034
0.00504313
-0.0244606
0.00823423
-0.0231268
0.0113535
-0.0179766
0.014347
-0.00792431
0.0169378
0.00772547
0.0187236
0.02935
0.0205833
0.0612545
0.013414
0.0943418
0.019168
-0.00737135
0.141466
-0.00217333
-0.00509694
-0.00557774
-0.00632128
-0.00885775
-0.00350147
-0.0115474
0.000253754
-0.0132349
0.0032761
-0.0133062
0.00511446
-0.0109314
0.00585942
-0.00516659
0.00558861
0.0048806
0.0042998
0.0203768
0.00144165
0.0419572
-0.00285684
0.070104
-0.0075635
0.106405
-0.0228869
0.148868
-0.0232953
-0.0569502
0.198447
-0.00228582
-0.00281112
-0.00574716
-0.00285994
-0.00882058
-0.000428057
-0.0107298
0.00216301
-0.0109664
0.00351264
-0.00877497
0.00292306
-0.00308432
0.000168774
0.00727289
-0.0047686
0.0236284
-0.0120557
0.046411
-0.0213409
0.0762845
-0.0327303
0.114579
-0.0458579
0.155687
-0.0639946
0.208561
-0.0761697
-0.106949
0.25856
-0.00253295
-0.000278174
-0.00626376
0.000870875
-0.00928658
0.00259477
-0.0104298
0.00330622
-0.00847732
0.00156016
-0.00201144
-0.00354282
0.0102966
-0.0121393
0.0294668
-0.0239387
0.0559669
-0.0385558
0.0888559
-0.05423
0.127995
-0.0718697
0.17168
-0.0895427
0.215367
-0.107682
0.265023
-0.125825
-0.144633
0.302707
-0.00230229
-0.00539418
-0.00697831
-0.00504328
0.0023012
0.0166294
0.0386357
0.0677291
0.102073
0.139841
0.178578
0.215053
0.248491
0.27533
0.293745
-0.014802
0.26668
-0.304167
0.0542457
0.245007
-0.314055
0.134515
0.0917599
-0.172029
0.193792
-0.126869
0.0675922
0.224634
-0.275628
0.244786
0.230474
-0.347367
0.341527
0.218549
-0.314758
0.326683
0.183198
-0.336928
0.37228
0.1628
-0.359548
0.379946
0.193128
-0.15974
0.129412
0.246311
0.0147093
-0.067893
0.264048
0.225995
-0.243732
0.263584
0.3002
-0.299736
0.267871
0.427277
-0.431564
0.26927
0.427593
-0.428991
0.27494
0.193688
-0.199359
0.288308
0.0282113
-0.0415787
0.291145
-0.367032
0.364195
0.297046
-0.506917
0.501016
0.294635
-0.439363
0.441774
0.306944
-0.293035
0.280725
0.306984
0.359386
-0.359427
0.309858
0.586151
-0.589025
0.320574
0.450044
-0.46076
0.322735
0.276996
-0.279157
0.301971
-0.624501
0.645264
0.31513
-0.918836
0.905678
0.311423
0.324433
-0.320725
0.296334
0.803424
-0.788336
0.278111
0.00997588
0.0082474
0.274999
-0.355779
0.35889
0.271962
-0.0229036
0.0259413
0.265831
0.101777
-0.0956458
0.261071
0.0141091
-0.00934914
0.259096
-0.0103957
0.01237
0.256941
-0.00161414
0.00376931
0.253863
0.000836381
0.0022418
0.00329071
-0.000878278
0.0557056
0.206556
0.124706
0.176008
0.187805
0.0286608
0.224699
-0.163764
0.235446
-0.286375
0.227743
-0.339664
0.216093
-0.303108
0.183861
-0.304696
0.160506
-0.336193
0.188174
-0.187409
0.241709
-0.0388256
0.265984
0.20172
0.263472
0.302713
0.265826
0.424922
0.267414
0.426005
0.27521
0.185893
0.288405
0.0150165
0.28355
-0.362177
0.28894
-0.512307
0.287255
-0.437678
0.301262
-0.307041
0.309768
0.35088
0.312702
0.583217
0.322176
0.44057
0.323758
0.275414
0.295269
-0.596012
0.304867
-0.928434
0.312182
0.317117
0.302679
0.812927
0.281016
0.0316386
0.275212
-0.349975
0.272786
-0.0204769
0.267146
0.107416
0.262694
0.0185609
0.260811
-0.0085127
0.258413
0.000784466
0.255359
0.00389001
0.00558611
0.137103
0.142007
0.195788
0.117322
0.238149
-0.0136998
0.256199
-0.181814
0.250834
-0.281011
0.230824
-0.319654
0.216416
-0.2887
0.18656
-0.27484
0.165134
-0.314766
0.188475
-0.210749
0.236427
-0.0867781
0.263639
0.174509
0.261321
0.30503
0.262779
0.423465
0.264559
0.424224
0.273466
0.176987
0.285727
0.00275516
0.272912
-0.349362
0.276762
-0.516157
0.276148
-0.437065
0.291484
-0.322377
0.309434
0.33293
0.312783
0.579868
0.320448
0.432906
0.320618
0.275244
0.286274
-0.561668
0.290759
-0.932919
0.310265
0.297611
0.306367
0.816825
0.28202
0.0559861
0.27357
-0.341525
0.271944
-0.0188508
0.267032
0.112329
0.263082
0.0225103
0.261484
-0.00691499
0.258995
0.00327382
0.256112
0.00677262
0.00759564
0.196554
0.0869189
0.245711
0.0681655
0.277329
-0.0453179
0.280561
-0.185046
0.259587
-0.260037
0.230228
-0.290294
0.214327
-0.2728
0.185051
-0.245563
0.165335
-0.295051
0.190673
-0.236087
0.23741
-0.133516
0.267352
0.144567
0.26032
0.312062
0.255487
0.428298
0.257815
0.421897
0.267878
0.166924
0.279022
-0.00838876
0.260933
-0.331273
0.261945
-0.517169
0.262007
-0.437127
0.278445
-0.338815
0.304303
0.307071
0.307912
0.576259
0.314459
0.426359
0.313114
0.276589
0.273142
-0.521696
0.273673
-0.93345
0.304354
0.26693
0.306129
0.815049
0.280813
0.0813022
0.270107
-0.330819
0.26945
-0.0181939
0.26546
0.116319
0.262242
0.0257285
0.26111
-0.00578367
0.258688
0.00569593
0.256133
0.00932782
0.00914863
0.24016
0.0452058
0.281015
0.0273103
0.302253
-0.0665561
0.288964
-0.171756
0.255737
-0.22681
0.220703
-0.25526
0.206338
-0.258435
0.182503
-0.221729
0.157446
-0.269994
0.184082
-0.262723
0.235535
-0.184968
0.268007
0.112095
0.260448
0.319621
0.252664
0.436082
0.253791
0.420769
0.261813
0.158903
0.269585
-0.0161611
0.247655
-0.309343
0.244147
-0.513661
0.243768
-0.436748
0.261058
-0.356105
0.296313
0.271816
0.302159
0.570413
0.307102
0.421416
0.302791
0.2809
0.25718
-0.476085
0.254572
-0.930841
0.296134
0.225368
0.303747
0.807436
0.277959
0.10709
0.265113
-0.317973
0.265514
-0.0185954
0.262552
0.119281
0.26025
0.0280306
0.259733
-0.0052671
0.257535
0.00789378
0.255474
0.0113895
0.010077
0.285122
0.0186441
0.311988
0.000444225
0.314873
-0.0694414
0.286563
-0.143446
0.247841
-0.188088
0.210055
-0.217474
0.193374
-0.241754
0.179679
-0.208034
0.148837
-0.239152
0.159727
-0.273613
0.216744
-0.241985
0.261316
0.0675223
0.258175
0.322762
0.248439
0.445818
0.247766
0.421442
0.254601
0.152067
0.2582
-0.0197597
0.232198
-0.283342
0.223971
-0.505433
0.222276
-0.435053
0.240517
-0.374346
0.282164
0.230169
0.290996
0.561581
0.296467
0.415945
0.289878
0.287488
0.240501
-0.426708
0.234797
-0.925137
0.28397
0.176195
0.297123
0.794283
0.272293
0.131921
0.258597
-0.304277
0.260186
-0.0201842
0.258374
0.121093
0.257179
0.0292258
0.257415
-0.00550273
0.255612
0.0096967
0.254223
0.0127785
0.0102179
0.313705
0.00764625
0.321601
-0.00745237
0.30492
-0.0527599
0.268815
-0.107341
0.232357
-0.15163
0.198092
-0.183209
0.177128
-0.22079
0.170907
-0.201813
0.144646
-0.212891
0.131576
-0.260543
0.182041
-0.292449
0.253138
-0.00357495
0.264342
0.311559
0.255003
0.455156
0.246907
0.429538
0.245854
0.153121
0.244627
-0.0185336
0.215372
-0.254086
0.202489
-0.492551
0.198014
-0.430579
0.217232
-0.393563
0.267083
0.180318
0.280193
0.548472
0.285927
0.410211
0.27627
0.297145
0.224444
-0.374882
0.215214
-0.915906
0.27103
0.120378
0.289676
0.775638
0.265139
0.156457
0.251159
-0.290297
0.253855
-0.0228809
0.253173
0.121775
0.253166
0.0292333
0.254259
-0.00659594
0.253029
0.0109268
0.252497
0.0133103
0.00942078
0.295896
0.00549558
0.29353
-0.00508652
0.275013
-0.0342428
0.245211
-0.0775388
0.215285
-0.121704
0.185716
-0.15364
0.162107
-0.197181
0.155411
-0.195118
0.14046
-0.197939
0.112607
-0.23269
0.137248
-0.31709
0.215405
-0.0817321
0.252508
0.274456
0.254314
0.45335
0.241171
0.442681
0.237432
0.156861
0.23272
-0.0138212
0.199681
-0.221047
0.180158
-0.473028
0.17441
-0.424831
0.192431
-0.411584
0.244208
0.128541
0.263376
0.529304
0.272672
0.400915
0.26193
0.307887
0.209884
-0.322836
0.19597
-0.901992
0.254485
0.0618631
0.277694
0.752428
0.255911
0.17824
0.24274
-0.277125
0.246484
-0.0266252
0.247005
0.121254
0.24831
0.0279287
0.25037
-0.00865624
0.249918
0.0113789
0.250424
0.0128043
0.00755092
0.495276
0.0019563
-0.491737
0.499908
-0.00971861
0.502213
-0.0365478
0.491462
-0.0667878
0.472578
-0.10282
0.452212
-0.133274
0.419589
-0.164557
0.393008
-0.168537
0.379218
-0.184149
0.339723
-0.193195
0.294222
-0.271589
0.303196
-0.0907062
0.28074
0.296912
0.277497
0.456593
0.325559
0.394619
0.391992
0.0904284
0.433745
-0.0555749
0.43561
-0.222911
0.408654
-0.446073
0.374975
-0.391151
0.333955
-0.370564
0.326282
0.136214
0.335223
0.520363
0.385501
0.350637
0.429467
0.26392
0.413494
-0.306863
0.348291
-0.836789
0.3535
0.0566549
0.390629
0.715298
0.401156
0.167713
0.385193
-0.261162
0.376077
-0.0175085
0.373085
0.124246
0.375345
0.0256686
0.3754
-0.00871136
0.37071
0.0160686
0.368017
0.015498
0.00853592
0.525131
-0.000205281
-0.522969
0.526138
-0.0107263
0.524146
-0.0345552
0.514105
-0.0567472
0.494472
-0.0831871
0.47059
-0.109392
0.441542
-0.135509
0.403144
-0.13014
0.382437
-0.163442
0.351558
-0.162316
0.300748
-0.22078
0.278349
-0.068307
0.26493
0.31033
0.308484
0.413039
0.391154
0.311949
0.456123
0.0254589
0.485417
-0.0848688
0.472832
-0.210326
0.431177
-0.404418
0.375906
-0.33588
0.334662
-0.32932
0.323519
0.147357
0.339414
0.504467
0.411777
0.278274
0.467396
0.208302
0.439899
-0.279366
0.36444
-0.761331
0.366637
0.0544573
0.414042
0.667894
0.431787
0.149968
0.414505
-0.24388
0.403814
-0.00681814
0.401979
0.126081
0.405972
0.021675
0.40627
-0.00900911
0.401322
0.0210169
0.398945
0.0178752
0.00938493
0.556229
-0.0015132
-0.554921
0.557124
-0.0116213
0.553072
-0.0305039
0.544588
-0.0482626
0.532069
-0.0706684
0.507868
-0.0851904
0.487516
-0.115158
0.461625
-0.104248
0.428878
-0.130695
0.385385
-0.118823
0.315464
-0.150859
0.275186
-0.0280294
0.284534
0.300983
0.383265
0.314308
0.4828
0.212414
0.526862
-0.0186026
0.535512
-0.0935195
0.518049
-0.192862
0.460729
-0.347098
0.37671
-0.251861
0.324439
-0.27705
0.313103
0.158694
0.348481
0.469089
0.443466
0.18329
0.510474
0.141294
0.477146
-0.246038
0.378878
-0.663062
0.374029
0.059306
0.437273
0.60465
0.464343
0.122897
0.444263
-0.2238
0.432742
0.00470361
0.43288
0.125942
0.438303
0.0162523
0.438656
-0.00936245
0.433907
0.0257659
0.432239
0.0195432
0.00994316
0.591092
-0.00250336
-0.590102
0.589644
-0.0101736
0.585991
-0.0268506
0.575432
-0.037704
0.561839
-0.0570751
0.543026
-0.0663773
0.517674
-0.089806
0.492793
-0.0793677
0.468402
-0.106303
0.433554
-0.083975
0.372731
-0.0900364
0.334425
0.0102775
0.38371
0.251698
0.495635
0.202382
0.576944
0.131105
0.593909
-0.0355683
0.575599
-0.0752093
0.546412
-0.163675
0.478668
-0.279354
0.381143
-0.154336
0.31034
-0.206247
0.303237
0.165797
0.376416
0.395909
0.478773
0.0809324
0.549137
0.0709296
0.512577
-0.209477
0.384712
-0.535197
0.368538
0.07548
0.461786
0.511402
0.500098
0.0845852
0.472812
-0.196514
0.46016
0.0173559
0.46439
0.121712
0.471761
0.00888132
0.472279
-0.00987991
0.468517
0.0295274
0.468239
0.019821
0.00987329
0.628991
-0.00265885
-0.628836
0.627275
-0.00845755
0.622147
-0.0217221
0.613881
-0.0294381
0.602382
-0.045576
0.586628
-0.0506235
0.566802
-0.0699802
0.545216
-0.057782
0.518745
-0.079832
0.485462
-0.050692
0.445569
-0.0501429
0.438442
0.017404
0.512278
0.177862
0.59583
0.11883
0.639114
0.0878211
0.639295
-0.0357496
0.618455
-0.0543696
0.591693
-0.136912
0.523207
-0.210868
0.43553
-0.0666584
0.352548
-0.123266
0.348121
0.170224
0.449931
0.2941
0.530425
0.000438597
0.592474
0.00888091
0.557856
-0.174859
0.398678
-0.376019
0.375657
0.0985009
0.504085
0.382974
0.544048
0.0446225
0.502238
-0.154704
0.488344
0.0312496
0.499803
0.110253
0.509238
-0.000553269
0.508936
-0.00957766
0.506593
0.0318696
0.508325
0.0180893
0.00887472
0.671164
-0.00225976
-0.671563
0.669365
-0.00665835
0.664839
-0.0171965
0.6574
-0.0219992
0.646815
-0.0349903
0.632503
-0.0363114
0.614521
-0.0519987
0.596998
-0.0402586
0.575599
-0.0584337
0.555347
-0.0304396
0.532986
-0.0277818
0.536513
0.0138766
0.602161
0.112215
0.65797
0.0630204
0.682604
0.0631869
0.674115
-0.0272602
0.65065
-0.030905
0.624086
-0.110348
0.565351
-0.152132
0.510912
-0.0122203
0.452075
-0.0644281
0.46423
0.158069
0.567123
0.191206
0.602225
-0.0346626
0.634352
-0.0232469
0.604937
-0.145444
0.43755
-0.208632
0.420402
0.11565
0.566561
0.236815
0.595061
0.0161219
0.540032
-0.0996745
0.52826
0.0430209
0.547721
0.0907926
0.556965
-0.00979744
0.553813
-0.00642573
0.552845
0.0328379
0.556416
0.0145176
0.00727436
0.718863
-0.00171677
-0.719406
0.717145
-0.00494051
0.712704
-0.012755
0.706267
-0.015562
0.697203
-0.0259268
0.685922
-0.0250303
0.672017
-0.0380938
0.65854
-0.0267813
0.641455
-0.0413489
0.628688
-0.0176721
0.616449
-0.0155435
0.622564
0.00776226
0.669496
0.0652823
0.700872
0.0316452
0.71732
0.0467384
0.718915
-0.0288553
0.702392
-0.0143821
0.671978
-0.0799341
0.619209
-0.0993628
0.595157
0.0118316
0.573402
-0.0426736
0.599507
0.131964
0.684903
0.10581
0.684979
-0.0347388
0.678962
-0.0172296
0.66149
-0.127972
0.530671
-0.0778126
0.523413
0.122907
0.646957
0.113271
0.657898
0.00518179
0.602992
-0.0447686
0.595808
0.0502042
0.617315
0.0692859
0.622221
-0.0147038
0.615388
0.000407835
0.615016
0.0332101
0.61858
0.010953
0.00637866
0.772704
-0.0010088
-0.773411
0.770849
-0.00308614
0.767137
-0.00904318
0.761861
-0.0102858
0.754532
-0.0185976
0.745882
-0.0163801
0.734575
-0.0267872
0.725051
-0.0172573
0.711569
-0.027867
0.704826
-0.0109286
0.699006
-0.0097242
0.703524
0.00324442
0.731796
0.0370107
0.752721
0.0107204
0.764888
0.0345712
0.761064
-0.0250313
0.75195
-0.00526868
0.728084
-0.0560675
0.692455
-0.0637346
0.684804
0.0194834
0.67986
-0.0377298
0.708144
0.103679
0.76124
0.0527152
0.74865
-0.0221497
0.73134
8.10424e-05
0.718093
-0.114726
0.641327
-0.00104644
0.651899
0.112335
0.730004
0.0351662
0.723935
0.0112511
0.683872
-0.00470575
0.68461
0.0494661
0.701543
0.0523524
0.700469
-0.0136295
0.692353
0.00852385
0.692734
0.0328297
0.694761
0.00892604
0.00697807
0.832945
-0.000346873
-0.833607
0.831351
-0.00149168
0.828343
-0.00603497
0.824292
-0.00623498
0.818417
-0.0127222
0.812148
-0.0101117
0.803485
-0.0181238
0.797064
-0.0108368
0.78746
-0.0182624
0.78396
-0.00742892
0.780098
-0.00586264
0.784128
-0.000785246
0.800142
0.0209969
0.811131
-0.00026829
0.821371
0.024331
0.81878
-0.0224409
0.814396
-0.000884075
0.793682
-0.0353542
0.771298
-0.0413505
0.77003
0.0207521
0.766073
-0.0337734
0.792776
0.0769761
0.824497
0.0209951
0.814856
-0.0125095
0.798159
0.0167783
0.777526
-0.0940929
0.74561
0.0308692
0.772424
0.0855211
0.807776
-0.000186344
0.792792
0.0262353
0.773075
0.0150115
0.780769
0.0417722
0.79137
0.0417514
0.785744
-0.0080037
0.779378
0.0148904
0.780928
0.0312796
0.780989
0.00886492
0.00886774
0.900497
0.000283749
-0.901127
0.899265
-0.000259919
0.896856
-0.00362598
0.893972
-0.00335147
0.889398
-0.008148
0.88521
-0.00592337
0.878703
-0.0116167
0.874633
-0.00676744
0.867736
-0.0113653
0.865755
-0.00544775
0.863403
-0.00351104
0.865772
-0.00315367
0.874833
0.0119362
0.879935
-0.00537109
0.888384
0.0158823
0.88302
-0.0170772
0.882232
-9.56968e-05
0.867638
-0.0207607
0.853549
-0.0272614
0.85625
0.0180519
0.850433
-0.0279565
0.872354
0.0550551
0.886843
0.00650603
0.880602
-0.00626827
0.874949
0.0224306
0.851624
-0.0707679
0.84399
0.0385034
0.869764
0.0597473
0.87799
-0.00841257
0.869487
0.0347387
0.864728
0.0197707
0.872774
0.0337256
0.878695
0.0358301
0.87171
-0.00101843
0.868982
0.0176181
0.87194
0.0283218
0.870541
0.0102638
0.0111705
0.975923
0.000872
-0.976512
0.975035
0.00062873
0.973154
-0.00174488
0.971232
-0.0014301
0.967802
-0.00471825
0.965102
-0.00322317
0.960393
-0.0069075
0.957769
-0.00414337
0.953083
-0.00667938
0.951744
-0.00410829
0.950207
-0.0019746
0.950985
-0.00393177
0.956412
0.00650893
0.957176
-0.0061349
0.963823
0.00923531
0.958816
-0.0120704
0.959223
-0.000502215
0.949699
-0.0112372
0.94015
-0.0177118
0.944183
0.0140187
0.936309
-0.0200824
0.955014
0.0363496
0.960275
0.00124575
0.956864
-0.0028573
0.957753
0.0215412
0.932326
-0.0453411
0.937497
0.0333333
0.958083
0.0391608
0.954265
-0.00459469
0.953909
0.0350946
0.953854
0.0198261
0.960051
0.0275289
0.965291
0.0305899
0.958717
0.00555582
0.958605
0.0177296
0.962457
0.0244694
0.960527
0.012194
0.0131715
1.05956
0.00135195
-1.06004
1.05901
0.0011873
1.05761
-0.000351007
1.05641
-0.000228346
1.05394
-0.00225118
1.05224
-0.00151833
1.04899
-0.00365949
1.04725
-0.00239953
1.04421
-0.00364796
1.04294
-0.00283736
1.04218
-0.00120743
1.04155
-0.00330655
1.04497
0.00309046
1.04377
-0.00493197
1.0485
0.00450593
1.04397
-0.00754841
1.04447
-0.000994352
1.03892
-0.00569186
1.03196
-0.0107468
1.03657
0.00940189
1.02894
-0.0124468
1.04301
0.0222789
1.04328
0.000976364
1.04095
-0.000532037
1.04553
0.0169677
1.02468
-0.0244963
1.03366
0.0243544
1.04604
0.026782
1.03988
0.00156645
1.04541
0.0295613
1.04548
0.0197588
1.05003
0.022977
1.0553
0.0253204
1.04976
0.0110933
1.05098
0.0165119
1.05484
0.0206134
1.05296
0.0140733
0.0146493
1.15199
0.00168263
-1.15233
1.1517
0.00147938
1.15073
0.000626334
1.14999
0.000502398
1.14833
-0.000584646
1.14726
-0.000448223
1.14512
-0.00152165
1.14389
-0.00117405
1.14198
-0.00173385
1.14081
-0.00166627
1.14036
-0.00075343
1.13918
-0.00212637
1.1412
0.00106155
1.13929
-0.00302122
1.14223
0.00157377
1.13879
-0.00411298
1.139
-0.00120611
1.13601
-0.00269833
1.1311
-0.00583746
1.13502
0.00548239
1.12853
-0.00596043
1.13847
0.0123448
1.13733
0.00211575
1.13574
0.00105966
1.14063
0.0120777
1.12555
-0.00942505
1.1337
0.0162082
1.14099
0.0194956
1.13657
0.00598127
1.14331
0.0228265
1.14277
0.020292
1.14668
0.0190718
1.15136
0.020634
1.14724
0.0152144
1.14908
0.0146756
1.15234
0.0173548
1.15083
0.0155783
0.0155376
1.25376
0.0018656
-1.25394
1.25364
0.00159483
1.25302
0.00124384
1.25261
0.000911713
1.25154
0.000489524
1.25087
0.000216503
1.24952
-0.000166467
1.24867
-0.000322177
1.24745
-0.000520228
1.24646
-0.000669654
1.24611
-0.000409774
1.24488
-0.000891863
1.2459
4.01571e-05
1.24412
-0.0012376
1.24568
1.42106e-05
1.24324
-0.00167797
1.24317
-0.00113008
1.24151
-0.00103972
1.23819
-0.00252463
1.24101
0.00266918
1.23638
-0.00133226
1.24272
0.00600901
1.24126
0.00356935
1.24029
0.00203439
1.24411
0.0082522
1.23485
-0.000157881
1.24121
0.00984771
1.24471
0.0159891
1.24255
0.00814244
1.24874
0.0166333
1.24858
0.0204602
1.25201
0.0156375
1.25562
0.0170262
1.25308
0.0177569
1.25518
0.0125709
1.2577
0.0148361
1.25674
0.0165334
0.0158071
1.36551
0.00190701
-1.36555
1.36551
0.00159294
1.36519
0.00156878
1.36499
0.00111064
1.36436
0.00112399
1.36396
0.000610395
1.36312
0.000671873
1.36257
0.000235623
1.36178
0.000267315
1.36104
6.45605e-05
1.36069
-5.32421e-05
1.35969
0.000101149
1.36006
-0.000322769
1.35866
0.000162235
1.35933
-0.000661541
1.35761
4.25701e-05
1.35743
-0.000946242
1.35639
-4.77356e-06
1.35435
-0.000479088
1.35609
0.00093099
1.35303
0.00172284
1.35681
0.00222857
1.35565
0.00472773
1.35535
0.0023391
1.35801
0.00558852
1.35268
0.00517651
1.3572
0.00532565
1.35906
0.0141274
1.35859
0.00861027
1.36336
0.0118715
1.36367
0.0201496
1.36695
0.0123545
1.36975
0.0142249
1.36858
0.0189226
1.37055
0.0106097
1.37245
0.0129374
1.3722
0.0167817
0.0155142
1.48806
0.00183515
-1.48799
1.48814
0.00151647
1.48803
0.00167701
1.48797
0.0011741
1.48766
0.00143642
1.48745
0.000816376
1.48698
0.0011414
1.48664
0.000574874
1.48614
0.000771084
1.48565
0.000549293
1.48532
0.000279536
1.48464
0.000780932
1.48461
-0.000294667
1.48366
0.00111321
1.48379
-0.000793673
1.48266
0.00117573
1.48241
-0.000690344
1.4817
0.000703317
1.48051
0.000707727
1.48137
7.19893e-05
1.47965
0.0034426
1.48173
0.000147702
1.48106
0.00540291
1.48115
0.00224517
1.48279
0.00394445
1.48031
0.00766306
1.48336
0.00226932
1.48442
0.0130698
1.48485
0.0081858
1.48828
0.00843315
1.48926
0.019171
1.49236
0.00925593
1.49467
0.0119145
1.49458
0.0190173
1.49624
0.00894324
1.49773
0.0114517
1.49818
0.0163257
0.0146656
1.62233
0.00167443
-1.62217
1.62246
0.00138867
1.62251
0.00162144
1.62254
0.00114738
1.62246
0.00151133
1.62239
0.000895345
1.62219
0.00133669
1.62201
0.000749726
1.62174
0.00104351
1.62147
0.00082181
1.6212
0.00055209
1.62081
0.00116956
1.62061
-9.08837e-05
1.62006
0.00166167
1.61989
-0.000630862
1.61922
0.00185069
1.61892
-0.000390973
1.61842
0.00120607
1.6178
0.00132156
1.61806
-0.000181064
1.61734
0.00415723
1.61831
-0.000820417
1.6182
0.00550913
1.61854
0.00190919
1.61958
0.00289961
1.61894
0.00831103
1.62064
0.000563
1.6217
0.0120145
1.62256
0.00732471
1.62475
0.00624183
1.62647
0.0174503
1.62921
0.00652008
1.63128
0.00984165
1.6322
0.0180938
1.63338
0.00776581
1.63461
0.0102211
1.63584
0.0150921
0.0133606
1.76933
0.00144304
-1.7691
1.7695
0.00122435
1.76968
0.00143753
1.76977
0.00105934
1.76988
0.0013964
1.76989
0.000887144
1.76992
0.00130543
1.76987
0.000805577
1.7698
0.00110957
1.7697
0.000919614
1.76953
0.000729509
1.7694
0.00129626
1.76912
0.000185311
1.76895
0.00183736
1.76859
-0.000268668
1.76832
0.0021178
1.76794
-1.61785e-05
1.76762
0.00153002
1.76738
0.00156512
1.76722
-2.83997e-05
1.76732
0.00406261
1.76754
-0.00104592
1.76805
0.00500016
1.76853
0.00143366
1.76918
0.00224392
1.76988
0.00761716
1.77044
4.8854e-07
1.77174
0.0107193
1.77264
0.00642394
1.77375
0.0051293
1.77636
0.0148424
1.7787
0.00417596
1.78066
0.00788746
1.78249
0.0162638
1.78305
0.00719725
1.78415
0.009122
1.78621
0.0130342
0.0115923
1.93033
0.00117197
-1.93006
1.9305
0.00105178
1.93077
0.00117164
1.93087
0.000958291
1.93111
0.0011498
1.93114
0.000858708
1.93134
0.00110373
1.93133
0.000816307
1.93144
0.00100589
1.93146
0.000901702
1.93138
0.000808736
1.9315
0.00117059
1.93117
0.000517386
1.93143
0.0015732
1.93088
0.000280748
1.93116
0.00184652
1.93067
0.000472828
1.93065
0.00154406
1.93073
0.00148474
1.93022
0.000482644
1.93122
0.00306882
1.93052
-0.000346398
1.93186
0.00365327
1.93207
0.00122679
1.93235
0.00196804
1.9343
0.00566477
1.93336
0.000943178
1.93574
0.0083356
1.93653
0.00563238
1.93671
0.00494882
1.94087
0.0106836
1.94173
0.00332078
1.94337
0.00624456
1.94681
0.0128241
1.94658
0.00742058
1.94759
0.00811464
1.9507
0.00992775
0.00944571
2.10663
0.000908327
-2.10637
2.10682
0.000865582
2.10708
0.000914307
2.1072
0.000830291
2.10745
0.000906441
2.10752
0.000786391
2.10773
0.000889562
2.10779
0.000763825
2.10793
0.000858004
2.10804
0.000794705
2.10806
0.000792852
2.10832
0.000911474
2.10814
0.000695109
2.1086
0.00110909
2.10827
0.000612302
2.10883
0.00129283
2.1086
0.000698597
2.10888
0.00126775
2.10923
0.00112904
2.10881
0.00090125
2.11002
0.00186425
2.1091
0.000574452
2.11044
0.00230572
2.11038
0.00128682
2.1104
0.00194963
2.11254
0.00352599
2.1115
0.00198183
2.11443
0.00540685
2.11568
0.00438617
2.11614
0.00448179
2.12023
0.00659544
2.11992
0.0036332
2.12102
0.00514027
2.12528
0.00856807
2.12598
0.00671748
2.1273
0.00679777
2.13018
0.00704507
0.00729719
2.29947
0.000637206
-2.2992
2.29971
0.00062328
2.29997
0.000654721
2.30019
0.000615183
2.30043
0.000664776
2.30062
0.000598209
2.30083
0.000669735
2.30101
0.00058648
2.3012
0.000666214
2.3014
0.000595343
2.30155
0.000642325
2.30182
0.000643991
2.30192
0.000595263
2.30229
0.000739537
2.30236
0.000540892
2.3028
0.000851029
2.30295
0.000555725
2.30331
0.00090539
2.3037
0.00074034
2.30376
0.000834781
2.3045
0.00112893
2.30431
0.000764245
2.3051
0.00151232
2.30529
0.00110039
2.30561
0.00162596
2.307
0.00214376
2.3072
0.00177831
2.30937
0.00323476
2.31094
0.00281606
2.31223
0.00319585
2.31481
0.00401506
2.3153
0.00314285
2.31655
0.0038893
2.31986
0.00525253
2.32197
0.0046159
2.32386
0.00490089
2.32602
0.00488811
0.00515326
2.51052
0.000330912
-2.51021
2.51081
0.000330177
2.51112
0.000342893
2.5114
0.000331895
2.51172
0.000351639
2.51199
0.000328478
2.5123
0.000358739
2.51256
0.000324703
2.51286
0.00036367
2.51313
0.000325633
2.51341
0.000361958
2.51372
0.00033968
2.51396
0.000351547
2.51433
0.000374484
2.51453
0.000334318
2.51496
0.000426439
2.51518
0.000332166
2.51561
0.000479396
2.51596
0.000385376
2.51629
0.000505075
2.51689
0.000529603
2.51713
0.000521243
2.51791
0.000732757
2.51837
0.000644737
2.51908
0.000912524
2.52021
0.00101398
2.52091
0.0010835
2.52263
0.0015076
2.52401
0.00143912
2.52549
0.00171746
2.52762
0.00188013
2.52896
0.00180973
2.53077
0.00208082
2.53348
0.0025422
2.53563
0.00246575
2.53792
0.00260454
2.5403
0.00251022
0.00270462
2.74179
-2.74146
2.74212
2.74247
2.7428
2.74315
2.74348
2.74384
2.74416
2.74452
2.74485
2.74521
2.74555
2.7459
2.74628
2.74661
2.74704
2.74737
2.74785
2.74824
2.74874
2.74927
2.74979
2.75052
2.75117
2.75208
2.7531
2.75418
2.75569
2.75713
2.75884
2.76072
2.76253
2.76461
2.76716
2.76962
2.77223
2.77474
0.427467
0.0462984
-0.420285
0.435632
0.075528
0.443227
0.10621
0.45193
0.135282
0.46023
0.16467
0.47047
0.193161
0.481377
0.219847
0.248376
0.460467
0.0399612
-0.45413
0.46789
0.0681054
0.47528
0.0988203
0.483533
0.127029
0.492757
0.155446
0.501903
0.184016
0.512836
0.208914
0.238243
0.497269
0.0344833
-0.491791
0.503485
0.0618891
0.510247
0.092058
0.517181
0.120095
0.525332
0.147295
0.533505
0.175842
0.543278
0.199142
0.2266
0.536752
0.0295368
-0.531806
0.542
0.056641
0.547965
0.0860934
0.554451
0.113609
0.561636
0.14011
0.570282
0.167195
0.579382
0.190042
0.21588
0.579954
0.0254284
-0.575846
0.584497
0.0520988
0.589914
0.0806759
0.596168
0.107355
0.603067
0.133211
0.611039
0.159224
0.61931
0.18177
0.206355
0.627138
0.0219051
-0.623615
0.631197
0.0480398
0.636097
0.0757761
0.641758
0.101694
0.64788
0.127088
0.654916
0.152188
0.662532
0.174155
0.197323
0.678842
0.0189374
-0.675875
0.682266
0.0446163
0.686469
0.0715734
0.691324
0.096839
0.696793
0.121619
0.703538
0.145444
0.710914
0.166779
0.188831
0.735236
0.0165965
-0.732895
0.738066
0.0417868
0.741822
0.067817
0.746437
0.0922238
0.752021
0.116035
0.758524
0.138941
0.765465
0.159837
0.180885
0.797313
0.0146838
-0.7954
0.799897
0.0392028
0.803579
0.0641345
0.808018
0.0877845
0.813206
0.110848
0.819151
0.132995
0.825863
0.153126
0.17314
0.865623
0.0131031
-0.864042
0.867962
0.0368636
0.871358
0.0607391
0.875464
0.0836779
0.880501
0.105811
0.886541
0.126956
0.893379
0.146288
0.165392
0.940511
0.0118285
-0.939236
0.942678
0.034697
0.945982
0.0574352
0.950211
0.0794488
0.955484
0.100538
0.961682
0.120757