/*--------------------------------*- C++ -*----------------------------------*\
| =========                 |                                                 |
| \\      /  F ield         | OpenFOAM: The Open Source CFD Toolbox           |
|  \\    /   O peration     | Version:  2512                                  |
|   \\  /    A nd           | Website:  www.openfoam.com                      |
|    \\/     M anipulation  |                                                 |
\*---------------------------------------------------------------------------*/
FoamFile
{
    version     2.0;
    format      ascii;
    arch        "LSB;label=32;scalar=64";
    class       volVectorField;
    location    "30";
    object      U;
}
// * * * * * * * * * * * * * * * * * * * * * * * * * * * * * * * * * * * * * //

dimensions      [0 1 -1 0 0 0 0];

internalField   nonuniform List<vector> 
9200
(
(-0.0193939 0.0172739 1.1045e-19)
(-0.0246395 0.0330832 -2.01424e-19)
(0.00842667 0.0352569 9.13815e-20)
(0.0799342 0.0247535 1.65169e-19)
(0.192681 0.00547288 -1.50479e-19)
(0.347242 -0.0185608 0)
(0.535514 -0.0438572 0)
(0.739026 -0.0679269 2.2687e-19)
(0.933953 -0.0895827 -3.25521e-21)
(1.09855 -0.10876 -1.8683e-19)
(1.21859 -0.125891 -7.93322e-20)
(1.2899 -0.141105 1.37935e-19)
(1.31733 -0.154206 -8.64729e-21)
(1.31216 -0.164514 -1.08172e-19)
(1.28744 -0.171486 0)
(1.2542 -0.175516 1.73248e-19)
(1.22069 -0.173707 -2.39915e-19)
(1.18692 -0.174683 6.04026e-20)
(1.1608 -0.160579 4.54028e-20)
(1.12552 -0.167572 3.1316e-20)
(-0.0192225 0.0134897 1.84513e-21)
(-0.0114487 0.017659 1.02246e-19)
(0.0460632 0.0101363 1.84336e-19)
(0.156236 -0.00562697 0)
(0.320617 -0.0244982 0)
(0.528567 -0.0419086 0)
(0.754087 -0.0555389 0)
(0.965275 -0.0656084 -1.6512e-19)
(1.1363 -0.0739166 2.01292e-19)
(1.25389 -0.0823919 8.6044e-20)
(1.31806 -0.0919288 -7.83221e-20)
(1.33875 -0.102221 6.47243e-20)
(1.33067 -0.112145 -5.54884e-20)
(1.30788 -0.120462 -4.60467e-20)
(1.28003 -0.126427 2.82526e-19)
(1.25232 -0.129227 -1.79472e-19)
(1.22535 -0.129505 -2.80463e-20)
(1.20006 -0.127157 -5.18344e-21)
(1.17565 -0.119455 -4.32969e-20)
(1.14829 -0.119601 -3.12445e-20)
(-0.0172443 0.0103917 -1.117e-19)
(0.0124565 0.00494175 -1.04444e-19)
(0.109044 -0.00921651 9.31494e-20)
(0.274106 -0.0257395 -1.69052e-19)
(0.497193 -0.0381079 0)
(0.744832 -0.0436262 0)
(0.974204 -0.044093 0)
(1.15351 -0.04336 -5.49545e-20)
(1.27046 -0.0447108 0)
(1.33006 -0.0494355 8.58447e-20)
(1.34746 -0.0568977 -7.11389e-20)
(1.34002 -0.0654671 -2.47533e-19)
(1.32135 -0.0735089 2.19468e-19)
(1.29896 -0.0800778 4.11101e-20)
(1.27581 -0.0845088 -8.29972e-20)
(1.25204 -0.0873213 -1.57574e-19)
(1.22832 -0.0874099 3.84126e-20)
(1.20425 -0.0873892 2.30331e-19)
(1.1813 -0.0827467 -1.17969e-19)
(1.15827 -0.084647 0)
(-0.0110163 0.00649758 1.1499e-19)
(0.0522074 -0.00706081 2.11017e-19)
(0.202846 -0.0231255 1.90279e-19)
(0.432207 -0.0332661 -2.55181e-19)
(0.702638 -0.0329159 2.99312e-21)
(0.956887 -0.0252829 2.72142e-19)
(1.15262 -0.016698 -1.22533e-19)
(1.27653 -0.0118922 5.23472e-20)
(1.33809 -0.0123712 0)
(1.35696 -0.0170831 -3.93978e-20)
(1.35226 -0.023984 2.05727e-19)
(1.33685 -0.0312942 -2.36097e-19)
(1.317 -0.0380395 -9.5232e-20)
(1.29513 -0.043697 9.06418e-20)
(1.2721 -0.0483001 -1.09284e-19)
(1.24901 -0.0513876 9.76002e-20)
(1.22652 -0.0532273 0)
(1.20536 -0.0540105 0)
(1.18644 -0.0510976 1.92295e-20)
(1.16678 -0.0546484 0)
(0.0015956 0.00146378 1.17368e-19)
(0.112085 -0.0181695 -1.62526e-19)
(0.329063 -0.0293243 -1.93362e-19)
(0.617756 -0.0252361 0)
(0.905351 -0.00983242 -7.73408e-20)
(1.1301 0.0069771 -6.53532e-20)
(1.27191 0.0183253 1.78642e-19)
(1.34257 0.0223767 -1.58408e-19)
(1.36584 0.020612 8.70238e-20)
(1.36323 0.015491 -4.02647e-20)
(1.34851 0.00898581 0)
(1.32863 0.00221058 8.62866e-20)
(1.30686 -0.00421581 4.99722e-20)
(1.2848 -0.00999912 8.04085e-20)
(1.26348 -0.0147666 -7.38379e-20)
(1.24327 -0.0184534 -5.79554e-20)
(1.22421 -0.0210608 5.32755e-20)
(1.20635 -0.0223054 -2.11737e-20)
(1.18871 -0.0226683 1.83868e-20)
(1.17201 -0.0257713 5.7954e-20)
(0.0223589 -0.00397674 2.4234e-19)
(0.194765 -0.0255306 -7.02169e-22)
(0.482555 -0.023071 0)
(0.807762 -0.000262926 1.3117e-19)
(1.07749 0.0267365 -4.05467e-20)
(1.25246 0.046496 -6.77842e-20)
(1.34201 0.0561529 3.1809e-21)
(1.37397 0.0576386 5.41955e-20)
(1.37428 0.0541072 4.27153e-20)
(1.35999 0.0480847 -3.6588e-20)
(1.34017 0.041106 -6.18147e-20)
(1.31904 0.0340398 -7.70187e-20)
(1.29824 0.0273528 1.19866e-19)
(1.27823 0.021349 9.65176e-20)
(1.25889 0.0161107 -1.02978e-19)
(1.24008 0.0116649 6.02109e-20)
(1.2219 0.00810264 0)
(1.2042 0.00524926 1.60529e-21)
(1.18769 0.00320744 -4.79943e-20)
(1.1717 9.10903e-05 6.2092e-20)
(0.0525533 -0.00840688 -6.38687e-20)
(0.299727 -0.0245295 1.68406e-21)
(0.649378 -0.000486334 -5.14345e-20)
(0.979006 0.0394038 -1.32096e-19)
(1.20772 0.071627 1.18733e-19)
(1.33088 0.0895603 6.51514e-20)
(1.37903 0.0954613 -1.17539e-19)
(1.38507 0.0937518 -4.54662e-20)
(1.37187 0.0881211 8.58276e-20)
(1.35186 0.0808566 1.06167e-19)
(1.33045 0.0731625 -1.53208e-19)
(1.30936 0.065588 5.44442e-20)
(1.2889 0.0583871 -6.61363e-20)
(1.26908 0.0516685 2.0159e-20)
(1.25001 0.045531 -3.32808e-20)
(1.23194 0.0401005 5.33662e-20)
(1.21492 0.0353572 -3.73679e-21)
(1.19915 0.0315107 -6.20753e-20)
(1.1841 0.0277964 1.72667e-20)
(1.16992 0.0248863 0)
(0.0926689 -0.0099555 6.39151e-20)
(0.421671 -0.0104449 -1.45903e-19)
(0.81118 0.0386624 1.04269e-19)
(1.11842 0.0897866 2.13713e-20)
(1.29817 0.121519 -1.15676e-19)
(1.37627 0.134731 6.88406e-20)
(1.39426 0.13585 0)
(1.38416 0.13068 0)
(1.36397 0.122839 -4.14316e-20)
(1.34149 0.114101 0)
(1.31933 0.105219 8.71046e-20)
(1.29812 0.0965183 -1.00737e-19)
(1.27805 0.0881912 8.58022e-20)
(1.25919 0.0803975 -3.79098e-20)
(1.24154 0.0732602 0)
(1.22495 0.0668078 0)
(1.20929 0.0611116 0)
(1.19423 0.0559689 -3.67405e-20)
(1.17982 0.0512327 4.16878e-20)
(1.16603 0.0482365 0)
(0.14196 -0.00646088 3.31447e-20)
(0.550476 0.0197551 -7.76245e-22)
(0.95337 0.091856 0)
(1.22283 0.14755 -9.97486e-21)
(1.35508 0.174641 2.10181e-20)
(1.39743 0.181432 3.14467e-20)
(1.39502 0.177389 -2.87118e-20)
(1.3755 0.168729 -1.09972e-20)
(1.3516 0.158467 1.08745e-20)
(1.32787 0.147825 0)
(1.30552 0.137325 2.71714e-20)
(1.2847 0.127203 -3.0708e-20)
(1.26528 0.117599 -1.95974e-20)
(1.24708 0.108589 2.21649e-20)
(1.22997 0.100214 7.06062e-21)
(1.2139 0.0925307 -1.30119e-20)
(1.1988 0.0855058 0)
(1.1847 0.0791699 0)
(1.17142 0.0734535 -2.26518e-20)
(1.15887 0.069758 1.35829e-20)
(0.198229 0.00409211 0)
(0.674087 0.06628 0)
(1.06833 0.15597 0)
(1.29398 0.210336 -4.73222e-22)
(1.38468 0.229923 1.2864e-22)
(1.40049 0.229414 7.07655e-22)
(1.38491 0.220056 6.96953e-21)
(1.36011 0.207704 -1.13914e-20)
(1.33453 0.194658 1.86067e-20)
(1.31058 0.181736 -8.24323e-21)
(1.2885 0.169265 0)
(1.26813 0.157346 5.81349e-21)
(1.24927 0.146054 0)
(1.23184 0.13546 -4.18726e-21)
(1.21579 0.125639 7.11477e-21)
(1.20099 0.116606 0)
(1.1873 0.108364 0)
(1.17448 0.100852 0)
(1.16239 0.0941504 0)
(1.15104 0.0896051 -2.9343e-21)
(-0.00921413 0.0737241 -4.98099e-21)
(-0.0322933 0.0954559 0)
(-0.0674259 0.0710486 0)
(-0.10591 0.0363703 -1.59481e-20)
(-0.144854 0.000239769 2.93865e-20)
(-0.182965 -0.0394502 1.06621e-22)
(-0.219712 -0.0856657 -6.12802e-21)
(-0.254531 -0.139133 -1.21381e-20)
(-0.28642 -0.199885 5.48765e-22)
(-0.314377 -0.26714 9.87209e-21)
(-0.337327 -0.339286 0)
(-0.354171 -0.413834 9.00593e-21)
(-0.363834 -0.487413 0)
(-0.365301 -0.55587 -7.41621e-21)
(-0.357673 -0.61449 1.32603e-20)
(-0.340229 -0.658362 0)
(-0.312351 -0.682874 0)
(-0.273188 -0.68406 0)
(-0.221953 -0.658707 0)
(-0.159234 -0.605855 7.62508e-21)
(-0.0152609 0.0909634 -2.13741e-20)
(-0.039106 0.131395 4.02563e-20)
(-0.0703689 0.116178 0)
(-0.103332 0.0857908 5.93555e-20)
(-0.136079 0.0516818 -4.58531e-20)
(-0.167798 0.0127924 -2.94394e-20)
(-0.197283 -0.0334839 -6.53649e-22)
(-0.224097 -0.0883338 6.30649e-20)
(-0.248175 -0.151565 -3.48985e-20)
(-0.268697 -0.22268 0)
(-0.285071 -0.300197 0)
(-0.2969 -0.381722 -8.99068e-21)
(-0.303986 -0.463987 3.44236e-20)
(-0.306388 -0.54303 -2.41862e-20)
(-0.304338 -0.614429 -4.03487e-20)
(-0.297989 -0.673453 2.4906e-20)
(-0.287043 -0.715227 0)
(-0.269567 -0.735082 0)
(-0.244951 -0.729043 1.51466e-20)
(-0.211899 -0.696323 -2.77406e-20)
(-0.021709 0.102198 4.67198e-20)
(-0.0452513 0.159947 -2.14448e-20)
(-0.0689796 0.154824 1.28678e-21)
(-0.0920183 0.129401 -5.36404e-20)
(-0.11361 0.0977102 1.00823e-19)
(-0.13304 0.0604778 -6.18098e-20)
(-0.149649 0.0156855 0)
(-0.162369 -0.0381904 0)
(-0.170872 -0.101327 -5.40327e-20)
(-0.175329 -0.173034 0)
(-0.175335 -0.251802 -4.43725e-20)
(-0.170933 -0.335156 1.67786e-19)
(-0.16268 -0.419728 -1.52354e-19)
(-0.151827 -0.501611 6.92721e-20)
(-0.140102 -0.576616 0)
(-0.129239 -0.64063 0)
(-0.121145 -0.689991 0)
(-0.113563 -0.721502 6.65962e-20)
(-0.110971 -0.732741 -4.63628e-20)
(-0.093646 -0.722437 0)
(-0.0273016 0.104827 -4.66845e-20)
(-0.050037 0.176166 -2.1497e-21)
(-0.0642308 0.181688 -3.98525e-20)
(-0.074674 0.162062 3.7997e-20)
(-0.0820941 0.133309 -3.38093e-20)
(-0.0858943 0.0981216 0)
(-0.0853001 0.0552646 -6.37394e-20)
(-0.0798642 0.00354788 6.01626e-20)
(-0.068929 -0.057753 -2.75332e-21)
(-0.0521284 -0.127747 -5.22877e-20)
(-0.0295932 -0.205073 1.47135e-19)
(-0.00147601 -0.287032 -8.95194e-20)
(0.0312547 -0.369862 3.87769e-20)
(0.0665505 -0.449004 -1.09561e-19)
(0.101549 -0.519524 -6.24962e-20)
(0.133446 -0.576784 -9.93806e-20)
(0.15596 -0.619219 1.14018e-20)
(0.17459 -0.643143 4.03716e-20)
(0.165466 -0.656444 2.53391e-20)
(0.188947 -0.641603 0)
(-0.0308311 0.0984615 -2.00917e-19)
(-0.0527377 0.177595 1.85612e-19)
(-0.0573868 0.193421 0)
(-0.054668 0.180407 -4.10886e-20)
(-0.0470038 0.155181 1.10966e-19)
(-0.0341896 0.122339 -6.96002e-20)
(-0.0154646 0.0816669 2.60982e-19)
(0.00961148 0.0320726 -3.0486e-19)
(0.0416147 -0.0267623 1.70324e-19)
(0.0809948 -0.0945809 -5.31986e-20)
(0.127643 -0.170136 1.0061e-19)
(0.181257 -0.25068 4.45327e-20)
(0.240257 -0.33211 -1.26631e-19)
(0.301597 -0.409075 -1.05161e-19)
(0.361405 -0.475756 3.11686e-19)
(0.416297 -0.525488 -1.09693e-19)
(0.45751 -0.558185 0)
(0.496361 -0.564762 1.23657e-19)
(0.496102 -0.564161 5.93614e-21)
(0.533116 -0.521886 -7.85818e-20)
(-0.0315815 0.0849052 -1.03697e-19)
(-0.0527157 0.1647 -4.80495e-20)
(-0.0493565 0.188878 -8.83668e-20)
(-0.0346891 0.182602 0)
(-0.0126719 0.161321 -7.43288e-20)
(0.0162346 0.131001 2.12051e-19)
(0.0525909 0.092548 -3.29298e-19)
(0.0971203 0.0454187 6.03918e-20)
(0.150584 -0.0105464 -1.17781e-19)
(0.213665 -0.0753934 1.61886e-19)
(0.286424 -0.147834 0)
(0.367703 -0.22499 1.37015e-19)
(0.454177 -0.302371 8.11318e-20)
(0.540025 -0.37436 -1.38843e-19)
(0.619347 -0.435435 1.27478e-19)
(0.686675 -0.478954 9.42876e-20)
(0.734581 -0.506288 -8.66649e-20)
(0.775358 -0.507251 -3.16571e-20)
(0.777678 -0.500104 2.26476e-20)
(0.815605 -0.456609 -5.72169e-20)
(-0.0296699 0.0673915 -1.06037e-19)
(-0.0498451 0.140614 1.94968e-19)
(-0.0408658 0.169291 -1.13277e-21)
(-0.0166153 0.168443 2.46526e-19)
(0.0179439 0.15077 2.70336e-21)
(0.0616917 0.122592 -2.82321e-19)
(0.115127 0.0857848 -3.15691e-21)
(0.17957 0.0407741 1.83805e-19)
(0.256479 -0.0126904 0)
(0.346623 -0.0744317 -5.41028e-20)
(0.449164 -0.142631 -9.97276e-20)
(0.560233 -0.213757 3.54321e-19)
(0.672659 -0.282731 -1.65752e-19)
(0.776911 -0.344183 -1.42574e-19)
(0.865482 -0.392887 5.41596e-20)
(0.930679 -0.424681 -5.53547e-20)
(0.971807 -0.44075 0)
(0.992278 -0.435542 0)
(0.984359 -0.425662 1.0157e-19)
(0.98746 -0.385556 -7.3707e-20)
(-0.0260922 0.0495736 -1.07831e-19)
(-0.0447476 0.110467 -9.82921e-20)
(-0.0323088 0.138505 -2.70292e-19)
(-0.000861014 0.140203 1.6405e-19)
(0.0446608 0.124775 0)
(0.103117 0.0979765 1.41457e-19)
(0.175724 0.062556 -1.29133e-19)
(0.264651 0.0192465 -6.00568e-20)
(0.371348 -0.0318341 0)
(0.494887 -0.089358 1.02591e-19)
(0.630041 -0.150464 -9.72899e-20)
(0.767251 -0.211124 -2.7947e-21)
(0.894319 -0.266569 -3.56145e-21)
(0.999827 -0.312859 -1.87895e-19)
(1.0764 -0.346332 -8.88466e-20)
(1.12009 -0.365313 3.12507e-19)
(1.13587 -0.371915 1.37365e-20)
(1.12662 -0.361189 -1.7181e-19)
(1.1002 -0.350731 5.16231e-20)
(1.07257 -0.313297 0)
(-0.0224124 0.0344825 -9.61841e-22)
(-0.0386681 0.0799442 -9.98805e-20)
(-0.0234089 0.102212 1.80636e-19)
(0.0148103 0.102628 0)
(0.0725785 0.0873456 0)
(0.150211 0.0613245 0)
(0.249968 0.0271536 0)
(0.373498 -0.0139958 2.99184e-19)
(0.518722 -0.0603993 -2.18588e-19)
(0.677725 -0.10954 -1.02687e-19)
(0.837398 -0.158168 8.88678e-20)
(0.98247 -0.20305 8.36781e-20)
(1.09934 -0.24109 -7.34039e-20)
(1.17972 -0.270589 1.79038e-19)
(1.22137 -0.289357 -2.46444e-19)
(1.22912 -0.298962 1.36777e-19)
(1.2111 -0.298648 9.12908e-20)
(1.17728 -0.289801 -3.23557e-19)
(1.13544 -0.281481 1.33579e-19)
(1.09743 -0.251947 -3.24166e-20)
(-0.0200637 0.0237462 8.28549e-24)
(-0.0324304 0.0535137 3.00686e-19)
(-0.0119081 0.0663835 -2.72565e-19)
(0.0373584 0.0621843 -1.64873e-19)
(0.115153 0.0452385 1.50218e-19)
(0.223628 0.0194661 0)
(0.363827 -0.012422 0)
(0.531113 -0.0478374 -2.33083e-19)
(0.71314 -0.0842402 7.35363e-22)
(0.892056 -0.119338 1.94329e-19)
(1.04935 -0.15134 -8.8989e-20)
(1.17049 -0.179027 -1.48205e-19)
(1.24836 -0.20136 8.77397e-21)
(1.28337 -0.218064 1.16686e-19)
(1.28358 -0.227961 0)
(1.25914 -0.233456 -1.06382e-19)
(1.22294 -0.23098 2.53896e-19)
(1.1817 -0.227513 3.86099e-20)
(1.14328 -0.218834 -1.29644e-19)
(1.11366 -0.19786 3.24965e-20)
(-0.0948815 -0.519039 -5.21961e-21)
(0.0260975 -0.359204 1.51511e-22)
(0.131348 -0.172897 -1.46179e-22)
(0.248352 0.0559465 1.4062e-22)
(0.361149 0.297256 0)
(0.467746 0.515459 -3.33869e-21)
(0.560515 0.660191 3.22233e-21)
(0.630187 0.726461 -1.88085e-21)
(0.670545 0.739766 1.8734e-21)
(0.698917 0.707266 -8.20651e-23)
(0.727614 0.658146 0)
(0.740078 0.663406 1.54751e-21)
(0.729594 0.725488 -3.2908e-21)
(0.727388 0.715759 4.02461e-21)
(0.764252 0.504085 -4.61339e-21)
(0.824477 0.121226 2.42893e-21)
(0.876957 -0.274314 0)
(0.898413 -0.550303 -1.93359e-21)
(0.885101 -0.679017 1.7462e-21)
(0.858986 -0.697406 1.01176e-21)
(0.828262 -0.684118 -9.7701e-22)
(0.763115 -0.699799 7.09481e-22)
(0.661324 -0.714131 -6.8151e-22)
(0.563662 -0.629008 0)
(0.498766 -0.406777 0)
(0.470211 -0.100552 0)
(0.476446 0.191753 0)
(0.517554 0.393802 4.40466e-22)
(0.566034 0.495814 -2.41982e-22)
(0.574566 0.543515 0)
(0.537625 0.543198 -1.48482e-22)
(0.497672 0.463555 0)
(0.489081 0.289826 -1.11829e-22)
(0.521869 0.0775669 3.76635e-22)
(0.587318 -0.102656 1.68018e-22)
(0.662481 -0.206891 -2.38524e-22)
(0.726023 -0.250147 -9.18578e-23)
(0.765814 -0.258638 8.89448e-24)
(0.787648 -0.249444 -3.31799e-23)
(0.802586 -0.218736 -3.08747e-25)
(0.812609 -0.173699 4.85583e-24)
(0.820983 -0.127599 2.768e-23)
(0.833226 -0.0952979 0)
(0.855218 -0.0802166 0)
(0.881082 -0.0738086 0)
(0.908202 -0.0641735 -2.25055e-24)
(0.927507 -0.0445111 5.47277e-26)
(0.945777 -0.0121466 -2.00772e-24)
(0.954123 0.0151313 -1.63391e-24)
(0.967696 0.0551472 -3.91228e-26)
(-0.199751 -0.627473 1.79683e-20)
(-0.115255 -0.491232 -1.76332e-20)
(-0.0354565 -0.309578 1.68747e-20)
(0.0723889 -0.0860193 -5.78722e-22)
(0.180335 0.156251 -2.7812e-20)
(0.301577 0.381129 1.24517e-20)
(0.418421 0.551074 0)
(0.515416 0.655159 -6.03446e-23)
(0.58911 0.69652 0)
(0.65358 0.676588 -4.81e-23)
(0.70906 0.639358 -5.15478e-21)
(0.737389 0.658878 4.82401e-21)
(0.744869 0.724954 0)
(0.767704 0.706587 -3.32124e-22)
(0.82602 0.486331 -2.64599e-22)
(0.899888 0.0991773 0)
(0.957313 -0.293118 8.61634e-21)
(0.973225 -0.555112 -1.54495e-20)
(0.944513 -0.670249 6.73733e-21)
(0.895315 -0.680365 0)
(0.846039 -0.65302 0)
(0.771849 -0.652372 8.90011e-23)
(0.662142 -0.661713 -3.04082e-21)
(0.551056 -0.587925 -6.53189e-22)
(0.475309 -0.385888 3.25404e-21)
(0.444973 -0.101518 0)
(0.459042 0.171411 1.74891e-21)
(0.51053 0.365996 -1.50877e-21)
(0.560544 0.478553 -1.84123e-22)
(0.563357 0.548445 3.06021e-22)
(0.527237 0.560978 -1.59826e-22)
(0.492865 0.476218 -3.25546e-22)
(0.488885 0.288442 -1.68241e-21)
(0.526266 0.0617516 7.29263e-22)
(0.595254 -0.127233 0)
(0.671856 -0.231043 8.20522e-22)
(0.736431 -0.267467 -2.66785e-22)
(0.776847 -0.268667 -3.13179e-22)
(0.797889 -0.255437 -6.37671e-23)
(0.812431 -0.223006 4.19603e-23)
(0.8236 -0.176826 0)
(0.832873 -0.130479 -4.60674e-23)
(0.843577 -0.0993539 2.79567e-23)
(0.862551 -0.0856142 -1.05728e-23)
(0.885649 -0.0795963 2.85061e-24)
(0.911025 -0.069075 1.83457e-24)
(0.92896 -0.0483081 2.39667e-24)
(0.94611 -0.0147784 -1.40812e-24)
(0.953722 0.0130294 1.80191e-24)
(0.967287 0.0538399 -1.23228e-25)
(-0.136388 -0.685431 0)
(-0.131431 -0.591224 -2.49381e-20)
(-0.106229 -0.432066 2.39894e-20)
(-0.0292309 -0.236026 -2.07034e-20)
(0.0613152 -0.00219851 1.99003e-20)
(0.176325 0.225689 1.52658e-22)
(0.301735 0.417835 0)
(0.418095 0.552958 -8.74049e-21)
(0.523401 0.619116 8.32893e-21)
(0.6211 0.617871 2.2205e-22)
(0.695981 0.60093 0)
(0.732921 0.635627 2.76117e-22)
(0.754301 0.70315 1.20514e-20)
(0.797965 0.682001 -1.12739e-20)
(0.873085 0.469322 1.73315e-20)
(0.96205 0.0945197 -3.4825e-20)
(1.02872 -0.288561 3.47257e-20)
(1.04118 -0.537775 -1.64903e-20)
(1.00165 -0.640753 0)
(0.934302 -0.650801 2.23832e-22)
(0.870381 -0.619478 -1.58834e-22)
(0.791728 -0.600991 1.19062e-22)
(0.676899 -0.601754 1.3999e-22)
(0.554222 -0.543254 0)
(0.469321 -0.368572 -2.88489e-21)
(0.437558 -0.110273 2.78589e-21)
(0.458352 0.143183 0)
(0.514645 0.338024 1.07637e-22)
(0.561443 0.471087 -2.82084e-22)
(0.563036 0.558827 -5.99522e-22)
(0.530641 0.575272 3.10759e-22)
(0.498411 0.486839 -2.5343e-21)
(0.496915 0.288526 2.97505e-22)
(0.537789 0.0484676 3.01428e-21)
(0.608911 -0.149486 5.57951e-22)
(0.685335 -0.25417 -1.75627e-22)
(0.749342 -0.284621 -5.00457e-22)
(0.789517 -0.278619 6.79385e-22)
(0.809307 -0.26137 -6.98341e-24)
(0.82264 -0.227622 -8.13389e-23)
(0.834021 -0.180544 -5.41402e-23)
(0.84388 -0.13356 3.50624e-23)
(0.853274 -0.103006 8.3993e-23)
(0.869483 -0.0904007 -1.43071e-23)
(0.890064 -0.084958 -1.40214e-23)
(0.914171 -0.0737666 0)
(0.931389 -0.0519622 -6.7456e-24)
(0.94767 -0.017281 3.04579e-24)
(0.954511 0.0110085 6.85493e-25)
(0.967507 0.0525502 6.67584e-25)
(0.106859 -0.639287 -1.57678e-22)
(0.0199489 -0.601214 1.10673e-22)
(-0.0318923 -0.501621 -1.46588e-22)
(-0.0269495 -0.350285 -1.30634e-22)
(0.0173253 -0.153052 0)
(0.103891 0.0620597 7.54538e-23)
(0.220328 0.25948 0)
(0.346525 0.413506 1.11596e-22)
(0.473748 0.504263 -4.36644e-21)
(0.588887 0.533868 9.23231e-21)
(0.668318 0.548869 -4.86413e-21)
(0.70833 0.5994 5.20542e-23)
(0.743967 0.664831 -1.48622e-22)
(0.805989 0.645531 -2.83909e-22)
(0.897938 0.448573 1.55388e-20)
(1.0098 0.0923771 8.2107e-22)
(1.09264 -0.275441 -1.5791e-20)
(1.1036 -0.511414 -1.13816e-20)
(1.05534 -0.603337 1.14127e-20)
(0.974417 -0.612509 -2.26919e-22)
(0.896361 -0.584059 1.60983e-22)
(0.8162 -0.555002 -1.20639e-22)
(0.70466 -0.54539 -1.45132e-22)
(0.575493 -0.500278 -3.26398e-21)
(0.481593 -0.356529 3.29525e-21)
(0.447344 -0.126918 4.28865e-21)
(0.47093 0.111883 -4.14028e-21)
(0.52766 0.308517 -7.12735e-23)
(0.572356 0.454195 -4.17884e-21)
(0.571097 0.562057 9.8789e-21)
(0.538042 0.597365 -4.82816e-21)
(0.509332 0.507894 -6.42943e-21)
(0.512372 0.295236 6.20809e-21)
(0.556842 0.0394753 0)
(0.629094 -0.169301 1.52212e-21)
(0.703563 -0.276246 -2.01338e-21)
(0.765141 -0.301668 -5.77761e-22)
(0.803899 -0.288575 1.89264e-22)
(0.821879 -0.26717 1.29159e-22)
(0.833316 -0.232342 0)
(0.844031 -0.184645 2.38965e-22)
(0.854072 -0.136789 -2.13536e-22)
(0.862318 -0.106279 -4.64831e-23)
(0.875973 -0.0945949 0)
(0.894091 -0.0899317 1.22686e-23)
(0.917101 -0.0783456 -1.18585e-23)
(0.934124 -0.0555738 2.62122e-24)
(0.949945 -0.0197058 1.67296e-24)
(0.956235 0.00910028 0)
(0.968298 0.0513226 -6.66566e-25)
(0.447651 -0.511595 3.01603e-20)
(0.330399 -0.495833 -2.91002e-20)
(0.211145 -0.462606 -7.89132e-23)
(0.121895 -0.383878 0)
(0.0836968 -0.254233 0)
(0.103257 -0.0805003 -7.71944e-23)
(0.177134 0.104287 0)
(0.286238 0.266243 1.46737e-21)
(0.406497 0.379743 -1.39541e-21)
(0.512963 0.445457 0)
(0.586807 0.493748 -6.88517e-23)
(0.639097 0.555024 1.03882e-20)
(0.702037 0.616123 -1.0292e-20)
(0.788336 0.602215 8.55401e-23)
(0.904227 0.423045 1.24292e-20)
(1.04627 0.0899071 -2.55817e-20)
(1.14785 -0.25312 1.35633e-20)
(1.15822 -0.471631 0)
(1.10302 -0.555111 -7.45597e-21)
(1.01419 -0.565215 6.85208e-21)
(0.926022 -0.543717 0)
(0.845144 -0.511219 -2.33927e-21)
(0.741183 -0.491229 2.30809e-21)
(0.611239 -0.455617 -6.56711e-23)
(0.508923 -0.344301 0)
(0.470253 -0.147376 0)
(0.494289 0.0736624 3.14785e-21)
(0.549655 0.273155 -3.12605e-21)
(0.58946 0.44315 0)
(0.58699 0.573705 -2.77844e-22)
(0.55972 0.610424 0)
(0.53326 0.518588 0)
(0.537265 0.30029 7.30554e-21)
(0.583359 0.0319477 -7.96679e-21)
(0.655225 -0.18633 0)
(0.726309 -0.296402 3.74995e-21)
(0.783694 -0.318016 -2.82818e-21)
(0.819814 -0.298278 -2.19581e-22)
(0.835426 -0.272688 -4.73706e-22)
(0.844454 -0.236992 4.57279e-22)
(0.853772 -0.188991 0)
(0.863564 -0.140154 0)
(0.870779 -0.109227 0)
(0.88213 -0.098213 1.75955e-23)
(0.897793 -0.0945045 -6.58349e-23)
(0.919639 -0.0828481 8.65591e-24)
(0.936739 -0.0592273 9.05372e-25)
(0.952479 -0.0221179 3.85496e-24)
(0.958576 0.00729953 -8.08697e-25)
(0.969546 0.0501819 0)
(0.74937 -0.426745 1.53557e-20)
(0.661003 -0.374302 4.2202e-20)
(0.547307 -0.33039 -1.36901e-20)
(0.418514 -0.29856 4.01072e-21)
(0.302205 -0.250142 -3.8655e-21)
(0.229575 -0.156277 0)
(0.219209 -0.0192484 -7.27489e-21)
(0.265204 0.131538 6.99485e-21)
(0.342491 0.261059 3.26317e-21)
(0.4213 0.354854 -3.08929e-21)
(0.490664 0.42104 0)
(0.565459 0.481224 1.02377e-22)
(0.658295 0.539775 0)
(0.765297 0.539287 1.41405e-20)
(0.906231 0.38403 -3.32588e-20)
(1.07912 0.0804466 1.91155e-20)
(1.1972 -0.230145 0)
(1.20538 -0.427521 2.90456e-22)
(1.14387 -0.503672 0)
(1.05112 -0.515016 5.85719e-23)
(0.955239 -0.501955 0)
(0.873561 -0.47195 0)
(0.781693 -0.444014 -2.05744e-21)
(0.658724 -0.412676 3.16343e-21)
(0.550152 -0.331256 -2.49171e-21)
(0.504163 -0.170165 1.36512e-21)
(0.525076 0.0314119 -1.44393e-22)
(0.575626 0.233816 2.53663e-21)
(0.612282 0.417295 -2.3513e-21)
(0.612095 0.565518 -4.74398e-21)
(0.584431 0.63064 -1.82975e-21)
(0.559324 0.552302 6.17568e-21)
(0.567917 0.320284 -8.15838e-21)
(0.616908 0.0339485 8.79743e-21)
(0.687847 -0.198413 0)
(0.753702 -0.313908 3.09912e-21)
(0.805055 -0.333322 -1.48109e-21)
(0.83723 -0.307589 -2.29479e-21)
(0.84985 -0.277812 0)
(0.856035 -0.241389 -1.97202e-22)
(0.863372 -0.193413 1.99666e-22)
(0.872499 -0.143614 -1.92553e-22)
(0.878744 -0.111899 0)
(0.888057 -0.101279 3.20179e-23)
(0.901308 -0.0986397 4.64665e-23)
(0.921806 -0.0872565 -2.93295e-23)
(0.939016 -0.0629648 -1.04373e-23)
(0.954928 -0.0245982 0)
(0.961206 0.00557102 0)
(0.971102 0.0491345 -4.22561e-25)
(0.926089 -0.371907 -3.23231e-20)
(0.864684 -0.328465 3.12398e-20)
(0.795203 -0.262732 0)
(0.707301 -0.198237 -3.39514e-23)
(0.602068 -0.147709 3.60566e-23)
(0.491156 -0.103513 0)
(0.402072 -0.0373078 0)
(0.359483 0.062225 -1.12071e-22)
(0.361905 0.177172 3.87567e-23)
(0.395788 0.277681 -6.16002e-21)
(0.454409 0.344844 5.83808e-21)
(0.539481 0.396768 0)
(0.640665 0.456066 0)
(0.755863 0.470513 6.43823e-23)
(0.921339 0.335295 -1.55063e-22)
(1.11824 0.0633849 0)
(1.2422 -0.205232 1.88749e-20)
(1.2436 -0.376183 -1.84892e-20)
(1.17572 -0.447366 -1.0816e-20)
(1.0846 -0.461346 1.08985e-20)
(0.986291 -0.457296 0)
(0.901545 -0.435234 -2.26185e-21)
(0.820317 -0.402679 2.14885e-21)
(0.710759 -0.370467 -6.89454e-22)
(0.600708 -0.313173 -3.79712e-22)
(0.54404 -0.189763 1.02045e-21)
(0.557255 -0.0127316 1.93251e-21)
(0.604284 0.189604 -1.96308e-21)
(0.642357 0.394405 0)
(0.643004 0.571184 0)
(0.620328 0.642572 0)
(0.600766 0.558262 9.50014e-22)
(0.608739 0.328214 0)
(0.656496 0.0338508 -7.93316e-21)
(0.724753 -0.207914 1.26733e-20)
(0.784991 -0.328532 -6.32575e-21)
(0.828982 -0.346953 7.69594e-22)
(0.856003 -0.316077 2.40062e-22)
(0.865025 -0.282285 1.23286e-21)
(0.867998 -0.245304 -8.29695e-22)
(0.872896 -0.197712 0)
(0.881006 -0.147083 8.06105e-23)
(0.886305 -0.114319 5.34059e-23)
(0.893837 -0.103832 0)
(0.904765 -0.102312 0)
(0.923713 -0.0915192 0)
(0.940894 -0.066781 2.96274e-24)
(0.957077 -0.0271906 -3.30926e-24)
(0.963843 0.0038735 -1.07478e-24)
(0.972806 0.0481723 4.21273e-25)
(1.01557 -0.307125 3.72829e-20)
(0.959328 -0.283398 -3.60117e-20)
(0.904088 -0.242022 1.2846e-20)
(0.851431 -0.186507 -1.23892e-20)
(0.798215 -0.118254 -3.76871e-23)
(0.737067 -0.0519083 0)
(0.663401 -0.00131323 9.04773e-23)
(0.58449 0.053598 2.31565e-22)
(0.522432 0.134834 1.37015e-20)
(0.5011 0.215124 -1.34175e-20)
(0.530427 0.265093 7.39018e-21)
(0.594489 0.303767 -3.04267e-21)
(0.671385 0.362112 -3.81112e-21)
(0.781426 0.38733 -6.69924e-23)
(0.965161 0.276235 1.61247e-22)
(1.16773 0.0482728 1.50694e-20)
(1.28124 -0.174234 -2.95817e-20)
(1.2727 -0.318402 1.94796e-21)
(1.19915 -0.388772 1.18785e-20)
(1.11189 -0.408487 -5.82382e-21)
(1.01629 -0.411836 5.70717e-21)
(0.92917 -0.400992 0)
(0.855487 -0.369306 2.67836e-23)
(0.761335 -0.332971 3.63676e-22)
(0.655654 -0.291202 -4.21887e-22)
(0.588526 -0.203122 -1.61456e-23)
(0.591912 -0.0560459 -1.90213e-24)
(0.635627 0.138182 -1.68941e-21)
(0.672461 0.3513 1.57244e-21)
(0.677061 0.546735 8.19936e-21)
(0.65958 0.655173 -7.58263e-21)
(0.638867 0.605854 7.4379e-21)
(0.64982 0.369001 -7.33337e-21)
(0.700796 0.0513397 0)
(0.767545 -0.208705 9.12084e-22)
(0.820356 -0.338319 6.30473e-22)
(0.855435 -0.358229 -3.20213e-21)
(0.876017 -0.323593 2.96397e-21)
(0.880816 -0.286147 9.6956e-22)
(0.88027 -0.248775 -1.20362e-21)
(0.882365 -0.201884 0)
(0.889155 -0.150567 -3.62219e-22)
(0.893522 -0.116534 3.09022e-22)
(0.899513 -0.105921 -3.01008e-23)
(0.908255 -0.105538 -5.70274e-23)
(0.925491 -0.0956245 0)
(0.942411 -0.0706578 3.09698e-24)
(0.958831 -0.0299098 -2.9868e-24)
(0.966272 0.00217152 -4.51394e-25)
(0.974506 0.0472793 0)
(1.04784 -0.255696 4.22835e-20)
(1.00226 -0.240032 -4.07126e-20)
(0.956264 -0.210763 -1.90999e-20)
(0.90893 -0.171698 2.69255e-20)
(0.868653 -0.119078 -7.28176e-21)
(0.835195 -0.0509178 -7.62756e-22)
(0.811364 0.0175226 -9.52595e-23)
(0.786479 0.080319 -1.2057e-22)
(0.742147 0.149508 1.24086e-22)
(0.703612 0.212953 -5.26602e-23)
(0.709623 0.244676 -8.18724e-23)
(0.744305 0.261195 5.72231e-23)
(0.785066 0.29621 -3.10562e-21)
(0.879185 0.307679 3.01862e-21)
(1.05732 0.211042 0)
(1.22881 0.0242544 -1.31145e-22)
(1.30817 -0.149772 1.46023e-22)
(1.28817 -0.265846 0)
(1.21268 -0.334744 -7.6921e-21)
(1.13254 -0.361095 7.29433e-21)
(1.04464 -0.369036 4.89146e-23)
(0.955789 -0.369541 8.37294e-22)
(0.886584 -0.344614 -8.05453e-22)
(0.807001 -0.303708 3.44662e-24)
(0.709852 -0.268114 1.25049e-21)
(0.635442 -0.210163 -1.17725e-21)
(0.624664 -0.0952744 0)
(0.66184 0.0892469 0)
(0.704301 0.316761 -2.66311e-21)
(0.71768 0.537375 2.67002e-21)
(0.70236 0.660349 -3.69756e-23)
(0.689797 0.604451 5.00713e-22)
(0.701168 0.372019 1.90448e-20)
(0.749107 0.0571339 -2.07723e-20)
(0.812077 -0.209048 -7.14898e-21)
(0.857971 -0.346157 6.86676e-21)
(0.883682 -0.369187 0)
(0.897002 -0.331646 1.64143e-21)
(0.897071 -0.290386 -1.8448e-21)
(0.892797 -0.25239 -4.82223e-24)
(0.891828 -0.206314 4.66086e-22)
(0.897016 -0.154369 -4.02997e-22)
(0.900435 -0.118776 0)
(0.905093 -0.10767 0)
(0.911821 -0.108331 -3.58544e-23)
(0.92725 -0.0995562 3.43943e-23)
(0.943655 -0.074624 3.37146e-24)
(0.960188 -0.0327836 -1.64819e-24)
(0.968364 0.000433638 1.8785e-25)
(0.976084 0.0464395 0)
(1.07429 -0.216757 -1.0073e-22)
(1.03772 -0.211487 0)
(1.00062 -0.197092 2.79154e-20)
(0.961302 -0.17578 -4.49131e-20)
(0.923252 -0.143685 1.72571e-20)
(0.891713 -0.0968546 1.23371e-24)
(0.871281 -0.0409864 0)
(0.861911 0.0163817 0)
(0.855281 0.0869033 0)
(0.851895 0.15867 5.57816e-23)
(0.869865 0.20107 1.13634e-20)
(0.897775 0.22365 -1.09307e-20)
(0.922829 0.251492 -6.00514e-21)
(0.996532 0.255925 5.74449e-21)
(1.13955 0.185033 0)
(1.26471 0.0502738 -6.0325e-23)
(1.313 -0.0868248 -7.75503e-21)
(1.29106 -0.191073 1.48086e-20)
(1.221 -0.268356 -1.2357e-21)
(1.14784 -0.310227 -9.37935e-21)
(1.07188 -0.324244 3.64236e-21)
(0.982393 -0.334783 2.6998e-22)
(0.913968 -0.322717 -2.59392e-22)
(0.848112 -0.280107 2.1743e-23)
(0.75886 -0.242334 -2.75367e-23)
(0.679851 -0.204388 1.79579e-21)
(0.657992 -0.128244 -1.7244e-21)
(0.686552 0.0213557 0)
(0.730385 0.244749 -1.52768e-21)
(0.751948 0.48826 7.35885e-21)
(0.748634 0.659472 -6.00186e-21)
(0.736824 0.662466 0)
(0.743396 0.441898 6.62081e-22)
(0.799736 0.0961683 6.68347e-22)
(0.8616 -0.1984 1.54937e-20)
(0.89803 -0.349623 -1.48563e-20)
(0.913675 -0.376917 0)
(0.919202 -0.337577 -2.05329e-21)
(0.913967 -0.29295 1.96789e-21)
(0.905688 -0.254499 9.19209e-22)
(0.901417 -0.20976 -7.66219e-22)
(0.904712 -0.157808 -4.50139e-23)
(0.907107 -0.1208 0)
(0.910586 -0.108984 0)
(0.915488 -0.110528 -3.84995e-23)
(0.929053 -0.103048 3.6847e-23)
(0.944715 -0.0784785 0)
(0.961205 -0.0358053 0)
(0.970067 -0.00142543 4.37969e-25)
(0.977459 0.045611 -1.67353e-25)
(1.0916 -0.156976 0)
(1.06984 -0.147731 0)
(1.03454 -0.133812 0)
(0.996411 -0.117602 0)
(0.961613 -0.0948113 0)
(0.932485 -0.0639856 0)
(0.913758 -0.0248045 0)
(0.90635 0.0234652 0)
(0.911491 0.0802178 0)
(0.931871 0.134124 0)
(0.966843 0.165895 0)
(1.00578 0.185745 0)
(1.04755 0.200603 0)
(1.11984 0.18536 0)
(1.22237 0.125726 0)
(1.28803 0.030419 0)
(1.29659 -0.0723387 0)
(1.27543 -0.147853 0)
(1.21758 -0.212281 0)
(1.15136 -0.25868 0)
(1.09265 -0.273126 0)
(1.00868 -0.287474 0)
(0.935535 -0.2916 0)
(0.884361 -0.2546 0)
(0.806328 -0.214671 0)
(0.715519 -0.190438 0)
(0.677992 -0.141232 0)
(0.708016 -0.0106024 0)
(0.75972 0.205424 0)
(0.788507 0.45428 0)
(0.795486 0.635298 0)
(0.785698 0.642655 0)
(0.802795 0.427055 0)
(0.857453 0.10128 0)
(0.909689 -0.178965 0)
(0.938488 -0.331253 0)
(0.944876 -0.365067 0)
(0.942052 -0.330163 0)
(0.930953 -0.287006 0)
(0.918459 -0.250835 0)
(0.910755 -0.20919 0)
(0.911941 -0.158667 0)
(0.913281 -0.121234 0)
(0.915778 -0.109201 0)
(0.919144 -0.111795 0)
(0.930893 -0.105776 0)
(0.945598 -0.0817263 0)
(0.961866 -0.0384456 0)
(0.971318 -0.0029989 0)
(0.978541 0.0449088 0)
(1.09019 -0.124584 0)
(1.07289 -0.122969 0)
(1.04246 -0.115504 0)