/*--------------------------------*- C++ -*----------------------------------*\
| =========                 |                                                 |
| \\      /  F ield         | OpenFOAM: The Open Source CFD Toolbox           |
|  \\    /   O peration     | Version:  2312                                  |
|   \\  /    A nd           | Website:  www.openfoam.com                      |
|    \\/     M anipulation  |                                                 |
\*---------------------------------------------------------------------------*/
FoamFile
{
    version     2.0;
    format      ascii;
    arch        "LSB;label=32;scalar=64";
    class       surfaceScalarField;
    location    "177.3";
    object      phi;
}
// * * * * * * * * * * * * * * * * * * * * * * * * * * * * * * * * * * * * * //

dimensions      [0 3 -1 0 0 0 0];

oriented        oriented;

internalField   nonuniform List<scalar> 
10785
(
-0.00154556
0.00516272
-0.00361716
-0.00203716
0.00824803
-0.00775643
0.00174013
0.00505092
-0.00882821
0.0131488
-0.00606383
-0.00534486
0.0344401
-0.0257422
0.00445084
0.0649409
-0.0513964
0.0208957
0.101161
-0.0789392
0.0427188
0.13838
-0.104861
0.0676419
0.171844
-0.126812
0.0933488
0.198165
-0.143861
0.117539
0.215549
-0.156218
0.138835
0.225784
-0.165264
0.155029
0.231195
-0.173708
0.168297
0.236534
-0.18105
0.17571
-0.192297
0.187934
0.240897
-0.00059529
0.00575801
0.00139971
0.00625303
0.0101982
-0.00374756
0.0293845
-0.0252502
0.058164
-0.0545216
0.0916987
-0.0849312
0.124169
-0.111409
0.151015
-0.131707
0.170185
-0.145981
0.182342
-0.156018
0.190267
-0.164143
0.197354
-0.172351
0.204628
-0.180981
0.213049
-0.189471
-0.198808
0.21956
0.000465226
0.00529278
0.00584668
0.000871573
0.0212279
-0.0191288
0.0471233
-0.0511456
0.0776492
-0.0850475
0.105916
-0.113198
0.127714
-0.133208
0.142395
-0.146388
0.152029
-0.155615
0.159479
-0.163469
0.166668
-0.171332
0.173563
-0.179247
0.179663
-0.187081
0.185003
-0.19481
-0.203078
0.189272
0.00154218
0.00375061
0.0112672
-0.00885343
0.0328859
-0.0407475
0.0606222
-0.078882
0.0861033
-0.110529
0.104984
-0.132079
0.117378
-0.145602
0.125739
-0.154749
0.132379
-0.162255
0.13832
-0.16941
0.143518
-0.17653
0.148151
-0.183879
0.152648
-0.191579
0.157563
-0.199726
-0.208538
0.163023
0.00293184
0.000818769
0.0175345
-0.0234561
0.0419743
-0.0651872
0.0658688
-0.102777
0.0835319
-0.128192
0.0948651
-0.143412
0.102183
-0.15292
0.107518
-0.160084
0.111883
-0.166621
0.115711
-0.173237
0.119433
-0.180252
0.123232
-0.187678
0.127011
-0.195358
0.130677
-0.203392
-0.211452
0.13359
0.00486392
-0.00404515
0.0231229
-0.041715
0.0456451
-0.0877095
0.0632913
-0.120423
0.074463
-0.139363
0.0810813
-0.15003
0.0852824
-0.157121
0.0884053
-0.163207
0.0911328
-0.169348
0.0937635
-0.175868
0.0962603
-0.182749
0.0985229
-0.189941
0.100677
-0.197512
0.102756
-0.205471
-0.213904
0.105209
0.00712876
-0.0111739
0.0262338
-0.06082
0.0441484
-0.105624
0.0559372
-0.132211
0.062426
-0.145852
0.0658627
-0.153467
0.0679388
-0.159197
0.0694953
-0.164763
0.0708002
-0.170653
0.0718716
-0.176939
0.0727675
-0.183644
0.0736233
-0.190797
0.0744594
-0.198348
0.0753191
-0.206331
-0.214446
0.0758615
0.00895792
-0.0201318
0.0260012
-0.0778633
0.0390741
-0.118697
0.0461616
-0.139299
0.0492645
-0.148955
0.0504562
-0.154659
0.0508656
-0.159606
0.0508958
-0.164793
0.0506652
-0.170422
0.0502545
-0.176528
0.049708
-0.183098
0.0490081
-0.190097
0.0482166
-0.197557
0.0473332
-0.205447
0.0467257
-0.213839
-0.00151739
0.00453678
-0.00301939
-0.00507088
0.0152762
-0.0117227
-0.0102763
0.0238828
-0.0186774
-0.0164479
0.0306514
-0.0244797
-0.0228902
0.0373651
-0.0309228
-0.0289855
0.0447966
-0.0387013
-0.0340376
0.0526514
-0.0475994
-0.0371578
0.06022
-0.0570998
-0.037325
0.0666135
-0.0664463
-0.0334668
0.0707486
-0.0746068
-0.0246271
0.0714759
-0.0803157
-0.0101255
0.0676
-0.0821016
0.0100663
0.0583247
-0.0785165
0.0362011
0.0419184
-0.0680531
0.0225278
0.0648356
-0.0511623
-0.000135723
0.0046725
-0.00114772
0.0162882
-0.0033955
0.0261306
-0.00623012
0.033486
-0.00862743
0.0397624
-0.00967519
0.0458443
-0.00856774
0.051544
-0.00447424
0.0561265
0.00347443
0.0586649
0.0160315
0.0581916
0.0335115
0.0539958
0.0565724
0.0445392
0.0834574
0.0314396
0.115057
0.0103192
-0.0102977
0.147882
0.00101037
0.00366213
0.00256247
0.0147361
0.00371765
0.0249754
0.00470562
0.032498
0.00658071
0.0378873
0.010476
0.041949
0.0172881
0.0447319
0.027737
0.0456776
0.0421284
0.0442735
0.0612544
0.0390656
0.083989
0.0312612
0.111417
0.0171108
0.141084
0.00177308
0.174435
-0.0230319
-0.0474917
0.211629
0.00147633
0.0021858
0.00469797
0.0115145
0.00863224
0.0210411
0.0130685
0.0280617
0.0186902
0.0322656
0.0265142
0.0341251
0.0373764
0.0338697
0.051904
0.0311501
0.0699356
0.0262418
0.0920976
0.0169037
0.116921
0.00643795
0.146259
-0.0122278
0.179073
-0.0310403
0.215187
-0.0591463
-0.0904705
0.258166
0.00114097
0.00104483
0.00445719
0.00819825
0.00946748
0.0160308
0.015818
0.0217113
0.0237298
0.0243538
0.0338021
0.0240527
0.0466125
0.0210592
0.0625957
0.0151668
0.0822869
0.00655061
0.105959
-0.00676804
0.134871
-0.0224746
0.168968
-0.0463249
0.208342
-0.0704144
0.25322
-0.104024
-0.136061
0.298811
0.000201998
0.00084283
0.0021248
0.00627544
0.0061308
0.0120248
0.0120945
0.0157476
0.0200611
0.0163872
0.0305616
0.0135522
0.044511
0.00710988
0.0630596
-0.0033818
0.087912
-0.0183018
0.118656
-0.0375122
0.157313
-0.0611314
0.199743
-0.0887552
0.245787
-0.116458
0.289487
-0.147724
-0.169182
0.322608
-0.000995251
0.00183808
-0.00112956
0.00640975
0.000798477
0.0100968
0.00533259
0.0112135
0.0133761
0.00834364
0.0266487
0.000279588
0.0465668
-0.0128082
0.0741411
-0.0309562
0.109231
-0.0533921
0.14984
-0.0781207
0.193723
-0.105014
0.234711
-0.129744
0.271806
-0.153553
0.295568
-0.171486
-0.181574
0.307959
-0.00177908
-0.00312576
-0.00185718
0.00401145
0.0168059
0.0379812
0.0678918
0.104577
0.144534
0.183952
0.217773
0.243058
0.257802
0.262027
0.268387
0.117312
-0.0340625
-0.0184142
0.154339
-0.190093
0.153066
0.173887
-0.324872
0.305325
0.192963
-0.359423
0.340347
0.169242
-0.326978
0.350699
0.130944
-0.3553
0.393597
0.147229
-0.240523
0.224238
0.201722
-0.0308814
-0.0236119
0.246154
0.20227
-0.246702
0.263761
0.270419
-0.288026
0.249191
0.349732
-0.335162
0.230499
0.443581
-0.424889
0.236497
0.291155
-0.297153
0.266017
0.160444
-0.189964
0.276379
-0.109791
0.0994299
0.28347
-0.308616
0.301525
0.290233
-0.443152
0.436389
0.292551
-0.537899
0.535582
0.28967
-0.188223
0.191104
0.303116
0.0517035
-0.0651495
0.315266
0.459234
-0.471384
0.31406
0.700334
-0.699128
0.307078
0.227764
-0.220782
0.313623
-0.0933418
0.0867968
0.312338
-0.573269
0.574554
0.323575
-0.852188
0.840951
0.316854
0.305527
-0.298806
0.307967
0.987695
-0.978808
0.289303
0.0780413
-0.0593774
0.280603
-0.53916
0.54786
0.277318
-0.0934006
0.0966856
0.271704
0.192358
-0.186744
0.26721
0.0464752
-0.0419808
0.264665
-0.0359074
0.0384525
0.262747
-0.00307703
0.00499473
0.260587
0.0122617
-0.0101018
0.258591
0.00777563
-0.00577907
0.00771386
-0.00578886
0.183931
-0.0701112
0.210149
-0.216311
0.203872
-0.318596
0.197623
-0.353174
0.174811
-0.304166
0.128281
-0.308769
0.128895
-0.241137
0.185393
-0.0873792
0.241888
0.145774
0.259204
0.253104
0.242879
0.366057
0.223566
0.462894
0.230727
0.283994
0.267508
0.123663
0.275358
-0.117641
0.278338
-0.311596
0.281916
-0.44673
0.283717
-0.5397
0.285033
-0.189539
0.2997
0.0370361
0.318081
0.440853
0.318571
0.699844
0.30704
0.239295
0.311042
-0.0973438
0.302225
-0.564451
0.310567
-0.86053
0.317279
0.298815
0.314803
0.990171
0.291139
0.101705
0.277956
-0.525976
0.275933
-0.0913781
0.272242
0.196049
0.267818
0.0508997
0.265112
-0.0332015
0.263318
-0.00128325
0.261345
0.0142349
0.259542
0.0095789
0.00940233
0.234631
-0.0931132
0.245105
-0.226785
0.226286
-0.299777
0.198831
-0.325718
0.175335
-0.28067
0.135569
-0.269003
0.126258
-0.231826
0.174916
-0.136037
0.237409
0.0832813
0.263944
0.226569
0.254914
0.375086
0.232474
0.485334
0.231417
0.285051
0.266524
0.0885558
0.273132
-0.124249
0.271436
-0.3099
0.269628
-0.444922
0.27069
-0.540763
0.27754
-0.196389
0.292572
0.0220035
0.316817
0.416609
0.320114
0.696546
0.304873
0.254537
0.304654
-0.0971249
0.287961
-0.547759
0.293105
-0.865674
0.314498
0.277422
0.318512
0.986157
0.291102
0.129115
0.273153
-0.508027
0.272587
-0.0908118
0.270942
0.197693
0.266816
0.055026
0.264132
-0.0305177
0.262614
0.000235006
0.260993
0.0158563
0.25955
0.011022
0.010679
0.275003
-0.10995
0.265272
-0.217054
0.233154
-0.267659
0.194945
-0.287509
0.172121
-0.257847
0.143124
-0.240006
0.135819
-0.224521
0.176957
-0.177174
0.239532
0.020706
0.264827
0.201274
0.252241
0.387672
0.232559
0.505016
0.231666
0.285945
0.262239
0.0579829
0.267967
-0.129977
0.261141
-0.303074
0.253022
-0.436803
0.253682
-0.541422
0.267542
-0.210249
0.282117
0.00742839
0.309589
0.389137
0.316355
0.689781
0.299581
0.27131
0.294685
-0.0922289
0.271165
-0.524239
0.272792
-0.867301
0.307134
0.24308
0.317452
0.97584
0.288702
0.157864
0.26645
-0.485775
0.267444
-0.091806
0.267842
0.197295
0.264236
0.0586322
0.261779
-0.0280606
0.260688
0.00132524
0.259574
0.0169704
0.25865
0.011946
0.0113792
0.304468
-0.115607
0.276747
-0.189334
0.233833
-0.224745
0.192135
-0.245811
0.168688
-0.234399
0.147374
-0.218692
0.139317
-0.216465
0.174914
-0.212771
0.237332
-0.0417119
0.268208
0.170398
0.270051
0.385829
0.2556
0.519468
0.242834
0.29871
0.258576
0.0422414
0.26031
-0.131712
0.248571
-0.291335
0.233338
-0.42157
0.232559
-0.540644
0.253076
-0.230766
0.2684
-0.00789549
0.299885
0.357652
0.31115
0.678516
0.292524
0.289935
0.282367
-0.0820714
0.25252
-0.494392
0.250524
-0.865304
0.297216
0.196387
0.314285
0.958771
0.283699
0.188451
0.258504
-0.46058
0.260896
-0.0941987
0.263196
0.194996
0.260254
0.0615744
0.258198
-0.0260054
0.257659
0.00186504
0.257186
0.0174431
0.256925
0.0122072
0.0113545
0.307831
-0.10083
0.269326
-0.150828
0.225714
-0.181133
0.189221
-0.209318
0.166283
-0.211462
0.148447
-0.200855
0.133229
-0.201246
0.154622
-0.234165
0.223976
-0.111065
0.2661
0.128274
0.275466
0.376463
0.26316
0.531774
0.245402
0.316468
0.25263
0.0350129
0.250135
-0.129217
0.235227
-0.276427
0.213189
-0.399533
0.210006
-0.53746
0.235255
-0.256016
0.251492
-0.0241321
0.284372
0.324773
0.299317
0.663571
0.282097
0.307155
0.268125
-0.0680988
0.233213
-0.45948
0.227941
-0.860033
0.282846
0.141482
0.30587
0.935747
0.275441
0.218879
0.249474
-0.434613
0.253017
-0.0977418
0.257064
0.190949
0.25499
0.063649
0.253542
-0.0245574
0.253668
0.00173856
0.253957
0.0171542
0.254488
0.011676
0.0104766
0.2832
-0.0760711
0.247984
-0.115612
0.211022
-0.144171
0.179763
-0.178059
0.160181
-0.191881
0.144721
-0.185395
0.125997
-0.182522
0.123169
-0.231337
0.189542
-0.177438
0.254008
0.0638072
0.281065
0.349406
0.278335
0.534504
0.256465
0.338338
0.245107
0.0463707
0.236282
-0.120392
0.218789
-0.258933
0.192462
-0.373206
0.186208
-0.531206
0.213981
-0.283789
0.233071
-0.0432218
0.27034
0.287503
0.289144
0.644767
0.271664
0.324635
0.253771
-0.0502061
0.213989
-0.419698
0.205457
-0.8515
0.268366
0.0785722
0.297651
0.906463
0.266327
0.250202
0.24009
-0.408376
0.24442
-0.102072
0.249911
0.185458
0.248734
0.064826
0.24803
-0.0238533
0.248908
0.000860488
0.250054
0.0160082
0.251487
0.0102432
0.00864037
0.24934
-0.0570232
0.225537
-0.0918093
0.198016
-0.11665
0.168683
-0.148726
0.149554
-0.172752
0.13715
-0.172991
0.119507
-0.164878
0.0990908
-0.210921
0.134821
-0.213168
0.209008
-0.0103797
0.270816
0.287597
0.281495
0.523826
0.255358
0.364475
0.239838
0.0618912
0.225065
-0.10562
0.203963
-0.237831
0.172761
-0.342004
0.162212
-0.520657
0.189512
-0.311089
0.209243
-0.0629528
0.248846
0.2479
0.271146
0.622468
0.258775
0.337005
0.23886
-0.0302905
0.195907
-0.376745
0.183
-0.838594
0.249173
0.0123993
0.283444
0.872192
0.255091
0.278555
0.229857
-0.383142
0.234964
-0.107178
0.241659
0.178763
0.241628
0.0648577
0.241856
-0.0240811
0.243569
-0.000853252
0.245656
0.013922
0.248077
0.00782141
0.00576311
0.495685
-0.0444037
-0.508304
0.48216
-0.0782844
0.461494
-0.0959844
0.435152
-0.122384
0.407305
-0.144904
0.377746
-0.143433
0.353389
-0.140521
0.30484
-0.162372
0.252422
-0.160751
0.23985
0.00219312
0.249861
0.277586
0.289282
0.484405
0.373856
0.279901
0.433607
0.00214022
0.449363
-0.121375
0.443101
-0.231569
0.42105
-0.319953
0.373419
-0.473025
0.346684
-0.284354
0.314485
-0.0307536
0.309742
0.252643
0.342388
0.589822
0.395316
0.284077
0.423799
-0.058774
0.394651
-0.347597
0.327562
-0.771504
0.339392
0.000568928
0.383972
0.827612
0.402033
0.260494
0.374404
-0.355513
0.359264
-0.0920385
0.36265
0.175377
0.365246
0.0622619
0.363963
-0.0227979
0.362505
0.000604249
0.36203
0.0143971
0.362056
0.0077962
0.0053585
0.517539
-0.0337432
-0.5282
0.500725
-0.0614696
0.480456
-0.0757158
0.4559
-0.0978275
0.424368
-0.113373
0.389641
-0.108706
0.367043
-0.117922
0.334989
-0.130319
0.270395
-0.096156
0.225036
0.0475523
0.254138
0.248484
0.355717
0.382825
0.460853
0.174765
0.501969
-0.0389754
0.497485
-0.116891
0.476263
-0.210347
0.43671
-0.2804
0.38472
-0.421035
0.344767
-0.244402
0.306149
0.00786489
0.308995
0.249796
0.362263
0.536554
0.432527
0.213813
0.458759
-0.085006
0.408384
-0.297221
0.333166
-0.696287
0.344594
-0.0108593
0.402198
0.770009
0.43045
0.232242
0.401545
-0.326608
0.382981
-0.0734745
0.3878
0.170558
0.392136
0.0579253
0.391101
-0.0217631
0.389368
0.00233712
0.38893
0.0148356
0.389044
0.00768254
0.00495082
0.545434
-0.0264942
-0.552683
0.533125
-0.0491615
0.517842
-0.0604319
0.495763
-0.0757486
0.470532
-0.0881417
0.445959
-0.0841333
0.412391
-0.0843542
0.369519
-0.087447
0.325451
-0.0520884
0.297813
0.0751908
0.351314
0.194983
0.474219
0.25992
0.554696
0.0942881
0.559543
-0.0438225
0.541329
-0.098677
0.519253
-0.188271
0.470466
-0.231614
0.39693
-0.347498
0.330031
-0.177504
0.282278
0.0556182
0.301749
0.230326
0.389758
0.448545
0.475241
0.12833
0.500111
-0.109876
0.435296
-0.232406
0.332702
-0.593693
0.339403
-0.0175602
0.421552
0.68786
0.4651
0.188694
0.431019
-0.292527
0.408953
-0.0514079
0.415777
0.163734
0.42146
0.052242
0.420176
-0.0204792
0.418079
0.00443415
0.417754
0.0151602
0.417887
0.00754975
0.00464679
0.578425
-0.020656
-0.584263
0.566303
-0.0370397
0.550261
-0.0443901
0.531639
-0.0571273
0.508029
-0.0645315
0.485739
-0.0618433
0.462892
-0.0615067
0.43061
-0.0551651
0.402487
-0.0239658
0.409545
0.0681336
0.475505
0.129023
0.5681
0.167325
0.612178
0.0502093
0.602268
-0.0339125
0.573719
-0.0701275
0.539632
-0.154184
0.48866
-0.180642
0.403121
-0.261959
0.318445
-0.092828
0.276627
0.0974359
0.316716
0.190237
0.433389
0.331872
0.520622
0.0410966
0.53778
-0.127034
0.46609
-0.160716
0.33407
-0.461674
0.331497
-0.0149864
0.451512
0.567844
0.507368
0.132838
0.46043
-0.245589
0.432928
-0.0239061
0.445509
0.151153
0.454
0.0437512
0.452017
-0.0184961
0.449624
0.00682704
0.449744
0.0150404
0.449997
0.00729681
0.0044597
0.613939
-0.0148207
-0.619775
0.604044
-0.0271448
0.592139
-0.0324852
0.576567
-0.0415547
0.558533
-0.0464979
0.540384
-0.0436936
0.520605
-0.0417286
0.498325
-0.0328847
0.48308
-0.00872103
0.504378
0.0468359
0.559812
0.0735887
0.621158
0.105979
0.642527
0.0288395
0.632454
-0.0238387
0.615596
-0.0532701
0.585718
-0.124306
0.536284
-0.131208
0.449888
-0.175564
0.376401
-0.0193405
0.354336
0.1195
0.399638
0.144935
0.512666
0.218845
0.574578
-0.0208154
0.582908
-0.135364
0.521823
-0.0996317
0.363555
-0.303405
0.349255
-0.000686782
0.502368
0.414732
0.559112
0.0760942
0.494508
-0.180986
0.463354
0.00724838
0.484999
0.129509
0.496409
0.0323405
0.491916
-0.0140032
0.488883
0.00986075
0.489599
0.0143238
0.489852
0.00704376
0.00456808
0.656448
-0.0105456
-0.660723
0.648536
-0.0192331
0.638626
-0.0225752
0.62622
-0.0291487
0.611163
-0.0314405
0.59746
-0.029991
0.582973
-0.0272416
0.569702
-0.0196133
0.564453
-0.0034719
0.583131
0.0281583
0.616226
0.0404937
0.65883
0.0633742
0.675959
0.0117103
0.664242
-0.0121215
0.647795
-0.0368228
0.619153
-0.0956641
0.582652
-0.0947069
0.517243
-0.110154
0.476235
0.0216682
0.490521
0.105214
0.532551
0.102906
0.616624
0.134771
0.636515
-0.0407056
0.621346
-0.120195
0.584379
-0.0626643
0.436536
-0.155562
0.408406
0.0274429
0.566529
0.256609
0.614973
0.0276499
0.540474
-0.106487
0.511915
0.0358068
0.54261
0.0988138
0.554321
0.0206302
0.546294
-0.00597672
0.542804
0.0133511
0.544033
0.0130951
0.544012
0.00706432
0.00525029
0.705327
-0.00696518
-0.708907
0.698807
-0.0127137
0.691162
-0.0149297
0.68155
-0.0195368
0.670516
-0.0204068
0.660874
-0.0203485
0.650703
-0.0170711
0.643403
-0.0123126
0.641478
-0.00154745
0.654097
0.0155396
0.674593
0.0199978
0.70176
0.0362066
0.710358
0.00311272
0.707767
-0.00952991
0.701137
-0.0301935
0.669489
-0.0640155
0.635666
-0.0608842
0.593014
-0.0675029
0.585734
0.0289488
0.619534
0.0714135
0.651345
0.0710945
0.707188
0.0789283
0.703444
-0.0369619
0.663895
-0.0806464
0.649128
-0.0478973
0.559142
-0.0655755
0.52833
0.0582544
0.647183
0.137757
0.679219
-0.00438702
0.611881
-0.0391487
0.590956
0.0567323
0.6224
0.0673699
0.630676
0.0123542
0.620411
0.00428758
0.616842
0.0169209
0.617746
0.0121912
0.616938
0.00787151
0.00678315
0.760677
-0.00411011
-0.763532
0.755815
-0.00785146
0.750104
-0.00921922
0.743132
-0.012564
0.735337
-0.0126127
0.728344
-0.0133556
0.721699
-0.0104259
0.717354
-0.00796773
0.717245
-0.00143851
0.72541
0.00737496
0.736391
0.00901744
0.754181
0.0184166
0.75989
-0.00259657
0.755835
-0.0054752
0.748872
-0.0232302
0.726834
-0.0419774
0.704903
-0.038953
0.677835
-0.0404351
0.683837
0.0229466
0.715471
0.0397791
0.734794
0.0517722
0.765423
0.0482986
0.756591
-0.0281299
0.721027
-0.0450818
0.713256
-0.0401266
0.672351
-0.0246708
0.662905
0.0677004
0.731696
0.0689664
0.740683
-0.0133743
0.693972
0.00756253
0.687972
0.0627319
0.712316
0.0430264
0.714806
0.00986355
0.705743
0.0133515
0.703594
0.0190692
0.703916
0.0118694
0.702492
0.00929543
0.00874521
0.823053
-0.00198855
-0.825175
0.819539
-0.00433713
0.815573
-0.00525293
0.810567
-0.00755884
0.805356
-0.00740109
0.800414
-0.008414
0.796316
-0.00632741
0.79368
-0.00533178
0.793898
-0.00165664
0.798425
0.00284785
0.804762
0.00268014
0.814702
0.00847677
0.81669
-0.00458432
0.815918
-0.00470345
0.810422
-0.0177338
0.79453
-0.0260858
0.779011
-0.0234335
0.76283
-0.024254
0.7701
0.0156762
0.789133
0.0207457
0.80587
0.0350359
0.825473
0.028695
0.815632
-0.0182886
0.790685
-0.0201347
0.779278
-0.0287199
0.763722
-0.00911519
0.776125
0.0552973
0.809061
0.0360304
0.799983
-0.00429551
0.778457
0.0290885
0.787109
0.05408
0.801154
0.0289805
0.79833
0.0126878
0.79291
0.0187714
0.792906
0.0190737
0.792718
0.0120575
0.79116
0.0108529
0.0104796
0.892812
-0.000456551
-0.894344
0.890395
-0.00192053
0.887704
-0.00256167
0.884261
-0.00411577
0.880927
-0.00406792
0.877479
-0.0049659
0.874963
-0.00381089
0.873115
-0.00348372
0.873232
-0.0017742
0.875605
0.00047518
0.87858
-0.00029504
0.884123
0.00293417
0.884525
-0.00498675
0.88377
-0.00394804
0.878303
-0.0122669
0.868246
-0.0160287
0.858831
-0.0140189
0.848818
-0.0142406
0.854816
0.00967843
0.865281
0.0102802
0.877339
0.0229785
0.888574
0.0174597
0.880809
-0.0105237
0.868668
-0.00799337
0.858301
-0.0183529
0.850034
-0.000848799
0.86464
0.0406912
0.879055
0.0216158
0.869954
0.00480596
0.86637
0.0326723
0.877694
0.0427558
0.882757
0.0239172
0.879352
0.0160928
0.878228
0.0198959
0.879333
0.0179689
0.878699
0.0126912
0.877519
0.0120332
0.0115846
0.970175
0.000586685
-0.971218
0.96858
-0.00032523
0.966845
-0.000826783
0.964549
-0.00182029
0.962438
-0.00195679
0.960078
-0.0026056
0.958457
-0.00218997
0.957113
-0.00213978
0.956931
-0.00159227
0.957906
-0.000499271
0.959046
-0.00143527
0.961696
0.000283683
0.960818
-0.00410867
0.96041
-0.00353931
0.956284
-0.00814148
0.950004
-0.009749
0.944232
-0.00824619
0.93803
-0.00803833
0.942036
0.00567233
0.946889
0.00542726
0.956065
0.0138025
0.963049
0.0104757
0.957316
-0.0047916
0.951001
-0.00167836
0.941559
-0.00891075
0.937389
0.00332113
0.950471
0.0276094
0.9564
0.0156866
0.950193
0.0110135
0.953315
0.0295504
0.962713
0.033358
0.964468
0.022162
0.962692
0.0178685
0.963552
0.0190363
0.964694
0.0168269
0.964112
0.0132732
0.9635
0.0126452
0.0120986
1.05546
0.00123032
-1.0561
1.05446
0.000676261
1.05336
0.000269482
1.05191
-0.000369074
1.05056
-0.000604856
1.04901
-0.00105924
1.04787
-0.00105233
1.04688
-0.00114717
1.04641
-0.00112082
1.04663
-0.000723627
1.04663
-0.00143652
1.04766
-0.000744953
1.04663
-0.00307459
1.04591
-0.00281727
1.04293
-0.00516693
1.03888
-0.0057021
1.03538
-0.00474543
1.03167
-0.00432659
1.03419
0.00315125
1.0366
0.0030164
1.04214
0.00827045
1.04592
0.00669433
1.04226
-0.00112962
1.0394
0.00117627
1.03331
-0.00281738
1.03112
0.00550912
1.03918
0.0195537
1.04161
0.0132503
1.03985
0.0127714
1.04469
0.0247128
1.05107
0.0269789
1.0521
0.0211314
1.05187
0.0180967
1.05326
0.0176519
1.05421
0.0158746
1.05394
0.0135378
1.05375
0.012844
0.0123011
1.14912
0.00157847
-1.14947
1.14855
0.00124899
1.14788
0.000937754
1.14699
0.000523488
1.14611
0.000269183
1.14513
-7.56053e-05
1.14428
-0.00020614
1.14354
-0.000400445
1.14295
-0.000530133
1.14274
-0.000522299
1.1423
-0.000988935
1.1424
-0.000848235
1.14132
-0.00199748
1.14046
-0.00195502
1.13841
-0.00312087
1.13588
-0.0031642
1.13379
-0.00265499
1.13156
-0.00210138
1.13293
0.00178504
1.13389
0.00205361
1.13723
0.00493378
1.13938
0.00454397
1.1372
0.00105161
1.13563
0.00274679
1.13159
0.00121603
1.13077
0.00632767
1.13621
0.0141215
1.13758
0.0118766
1.1375
0.0128539
1.14173
0.0204815
1.14653
0.0221778
1.14813
0.0195275
1.14865
0.0175782
1.14989
0.0164093
1.1508
0.0149706
1.15095
0.01339
1.15103
0.0127606
0.0123059
1.25173
0.00172696
-1.25188
1.25144
0.00153316
1.25107
0.00131018
1.25056
0.00103217
1.25
0.000828209
1.24938
0.000547087
1.24876
0.000412773
1.2482
0.000158791
1.24762
5.07758e-05
1.24725
-0.000148911
1.24665
-0.000393172
1.24632
-0.000517461
1.2454
-0.00107085
1.24455
-0.0011093
1.24313
-0.00170501
1.2415
-0.00153149
1.24017
-0.00132501
1.23881
-0.000736079
1.23946
0.00113354
1.23983
0.00168194
1.24153
0.00323658
1.24257
0.00349704
1.24137
0.00225081
1.24072
0.00340184
1.23862
0.00331134
1.23852
0.00643246
1.24159
0.0110532
1.24266
0.0108039
1.24368
0.0118344
1.24736
0.0168055
1.25104
0.0184887
1.25296
0.0176135
1.25396
0.0165758
1.25514
0.0152339
1.25607
0.0140391
1.25652
0.0129358
1.25686
0.0124181
0.0120891
1.36407
0.0017367
-1.36408
1.36397
0.00163164
1.3638
0.00148318
1.36354
0.00129602
1.36321
0.00115825
1.36283
0.000925181
1.36239
0.000846378
1.36198
0.00057398
1.3615
0.000530901
1.36111
0.00024369
1.36054
0.000170039
1.3601
-7.52078e-05
1.35933
-0.000296018
1.35862
-0.000398622
1.3576
-0.00068933
1.35655
-0.000479743
1.35569
-0.00046608
1.35481
0.000139426
1.35505
0.000894479
1.3551
0.00163641
1.35593
0.00240268
1.3565
0.00293112
1.35589
0.002856
1.3557
0.00359266
1.35464
0.00437728
1.35489
0.00618008
1.35702
0.00891831
1.35816
0.00966711
1.35935
0.0106435
1.36227
0.01389
1.36535
0.0154044
1.36745
0.0155161
1.36884
0.0151878
1.36999
0.0140779
1.37096
0.0130744
1.37167
0.012223
1.37227
0.011819
0.011671
1.48702
0.0016587
-1.48694
1.48704
0.0016112
1.48701
0.00151967
1.48691
0.00139638
1.48674
0.00132044
1.48654
0.00113187
1.48627
0.00111459
1.48599
0.000854215
1.48563
0.000888893
1.4853
0.000569985
1.48486
0.000617441
1.48446
0.000323385
1.48387
0.000293249
1.48332
0.000152923
1.48261
1.96454e-05
1.48191
0.000214403
1.48134
0.000106896
1.48077
0.000705501
1.4808
0.000866406
1.48076
0.0016753
1.48115
0.00201994
1.48144
0.00263842
1.48121
0.00308051
1.48126
0.0035493
1.48098
0.00466003
1.48144
0.00571882
1.48287
0.00748346
1.48399
0.00854642
1.48544
0.00919963
1.48782
0.0115035
1.49038
0.0128453
1.49249
0.0134083
1.49418
0.0134978
1.49539
0.0128672
1.49644
0.0120211
1.49739
0.0112768
1.4982
0.0110037
0.0110017
1.62156
0.00151758
-1.62142
1.62167
0.00150928
1.62173
0.00145806
1.62174
0.00138427
1.62171
0.00135429
1.62163
0.00120952
1.6215
0.0012397
1.62135
0.00101007
1.62113
0.00110412
1.6209
0.000797311
1.6206
0.000922725
1.6203
0.000618194
1.6199
0.00069704
1.61952
0.000535698
1.61906
0.000479937
1.61862
0.000656509
1.61825
0.000471643
1.6179
0.00105781
1.61786
0.000906665
1.61781
0.00171986
1.618
0.00183382
1.61821
0.00242358
1.61824
0.00305311
1.61846
0.00333001
1.61859
0.00453054
1.61914
0.00517218
1.62035
0.00627179
1.6215
0.00740017
1.6229
0.00779404
1.62495
0.00945859
1.62712
0.0106748
1.62921
0.0113115
1.63101
0.0117015
1.6323
0.0115783
1.63354
0.0107765
1.63475
0.0100668
1.63573
0.0100261
0.0101608
1.76877
0.00133473
-1.76859
1.76893
0.00135063
1.76906
0.00132499
1.76916
0.00128822
1.76923
0.00128546
1.76925
0.00118389
1.76925
0.00123791
1.76921
0.00105386
1.76914
0.00117251
1.76903
0.000909022
1.76888
0.00106868
1.76871
0.000791588
1.76849
0.000915701
1.76826
0.000764058
1.768
0.000745114
1.76775
0.000900981
1.76754
0.000689672
1.76737
0.00122351
1.76733
0.00095201
1.76736
0.00168365
1.76749
0.00170477
1.76772
0.0021905
1.76791
0.00286721
1.76824
0.00299573
1.76867
0.00410967
1.7693
0.00453907
1.77039
0.00518135
1.77148
0.00631107
1.77288
0.00639632
1.77475
0.00758397
1.77657
0.0088569
1.77864
0.00924217
1.78051
0.00982666
1.78179
0.0102984
1.78329
0.00927683
1.78483
0.00853228
1.78593
0.00891917
0.00915213
1.92981
0.00112238
-1.92959
1.93001
0.00114466
1.9302
0.00113539
1.93037
0.00112247
1.93052
0.0011279
1.93064
0.00107049
1.93076
0.00111419
1.93082
0.000999284
1.9309
0.00108811
1.93089
0.000917193
1.93092
0.00103697
1.93086
0.000856535
1.93082
0.000949797
1.93073
0.000856326
1.93063
0.000845588
1.93056
0.000972229
1.93044
0.000812421
1.93045
0.00120764
1.9304
0.00100266
1.93056
0.00152447
1.93068
0.00158384
1.93098
0.00189828
1.93133
0.00250894
1.93176
0.00256861
1.93244
0.00343106
1.93314
0.00384016
1.9342
0.00412391
1.9353
0.00520932
1.93656
0.00513691
1.93825
0.00589327
1.93993
0.00717969
1.94192
0.00724238
1.94385
0.00789879
1.9453
0.00885599
1.94698
0.00759608
1.94867
0.00684276
1.94992
0.00766694
0.007935
2.10605
0.000882435
-2.10581
2.1063
0.000901011
2.10653
0.00090144
2.10675
0.000901346
2.10697
0.000905096
2.10716
0.00088391
2.10737
0.000902951
2.10752
0.000855757
2.10771
0.000893138
2.10781
0.000821548
2.10797
0.000872255
2.10803
0.000800411
2.10814
0.000839724
2.10818
0.000811759
2.10822
0.000806062
2.1083
0.000891142
2.10829
0.000827488
2.10845
0.00104508
2.10847
0.000984876
2.10873
0.0012656
2.10894
0.00137418
2.10928
0.00155748
2.10981
0.0019736
2.1103
0.00207673
2.11114
0.0025996
2.11198
0.00299449
2.11294
0.0031617
2.11417
0.00398383
2.11532
0.00398989
2.11675
0.00446185
2.11851
0.00542134
2.12031
0.00544231
2.12225
0.0059576
2.1243
0.00679972
2.12599
0.00590825
2.12739
0.00543989
2.12892
0.00614523
0.0063192
2.29899
0.000613546
-2.29872
2.29927
0.000628022
2.29953
0.000632116
2.2998
0.00063784
2.30006
0.000640662
2.30031
0.000637992
2.30057
0.00064483
2.30079
0.000632434
2.30104
0.000644428
2.30124
0.000623193
2.30147
0.000640152
2.30165
0.000620434
2.30185
0.000635504
2.30203
0.000634031
2.3022
0.000637407
2.30241
0.00068313
2.30256
0.000677151
2.30282
0.000779578
2.30302
0.000789175
2.30336
0.000929588
2.30371
0.00101681
2.30413
0.00114278
2.30474
0.0013622
2.30532
0.00149149
2.30615
0.00176954
2.3071
0.0020476
2.30806
0.00220718
2.30937
0.00267203
2.31057
0.00278257
2.31193
0.0031059
2.31375
0.00360524
2.31546
0.0037338
2.31737
0.00403872
2.31971
0.00445978
2.32148
0.00414523
2.32291
0.00400909
2.32473
0.00432009
0.0043996
2.51018
0.000319061
-2.50989
2.51048
0.000327351
2.51079
0.000330964
2.51109
0.000336064
2.51139
0.000337985
2.51169
0.000340662
2.51199
0.000342707
2.51228
0.000342829
2.51258
0.00034527
2.51286
0.000343111
2.51315
0.000346718
2.51343
0.000345571
2.51371
0.0003496
2.51399
0.000354115
2.51427
0.000357928
2.51458
0.000376784
2.51487
0.000384191
2.51523
0.000422676
2.51557
0.000443367
2.516
0.000499801
2.51647
0.000552082
2.517
0.000615791
2.51764
0.000714188
2.51834
0.000796988
2.51919
0.000915274
2.52018
0.00106266
2.52124
0.00114913
2.52254
0.00136349
2.52388
0.00144829
2.52537
0.00161427
2.52714
0.00183608
2.52894
0.00192979
2.53091
0.00207623
2.53311
0.00225211
2.53509
0.00216765
2.53695
0.00214904
2.539
0.00227071
0.0023052
2.74151
-2.74119
2.74183
2.74216
2.7425
2.74284
2.74318
2.74352
2.74386
2.74421
2.74455
2.7449
2.74525
2.74559
2.74595
2.74631
2.74668
2.74707
2.74749
2.74793
2.74843
2.74899
2.7496
2.75032
2.75111
2.75203
2.75309
2.75424
2.7556
2.75705
2.75867
2.7605
2.76243
2.76451
2.76676
2.76893
2.77108
2.77335
0.437983
0.0397351
-0.430992
0.447171
0.0666736
0.454445
0.097934
0.464463
0.123573
0.473027
0.154459
0.484381
0.177919
0.496978
0.206963
0.229571
0.468872
0.0336408
-0.462778
0.476458
0.0590877
0.48342
0.0909728
0.491639
0.115354
0.500266
0.145832
0.508916
0.169269
0.518496
0.197382
0.219867
0.503589
0.0284447
-0.498393
0.509111
0.0535655
0.515134
0.0849502
0.521235
0.109253
0.527732
0.139335
0.534336
0.162665
0.542568
0.18915
0.209753
0.541111
0.024046
-0.536713
0.545124
0.0495529
0.549963
0.0801116
0.554755
0.10446
0.56086
0.13323
0.567843
0.155682
0.57623
0.180763
0.20172
0.582424
0.0206325
-0.57901
0.585658
0.046319
0.590153
0.0756169
0.594964
0.0996479
0.600847
0.127348
0.60668
0.149849
0.612909
0.174534
0.194855
0.628192
0.017798
-0.625358
0.63105
0.043461
0.63502
0.0716475
0.638848
0.0958195
0.643385
0.122811
0.648048
0.145186
0.654087
0.168494
0.188219
0.6785
0.0156529
-0.676354
0.680734
0.0412268
0.68396
0.0684211
0.68725
0.0925296
0.691825
0.118236
0.696834
0.140177
0.702881
0.162448
0.182193
0.734072
0.0140394
-0.732458
0.736012
0.0392859
0.739133
0.0653008
0.742547
0.0891149
0.74717
0.113614
0.751948
0.135399
0.757534
0.156861
0.176195
0.79572
0.012761
-0.794442
0.797565
0.0374411
0.800528
0.0623374
0.803885
0.0857582
0.808285
0.109214
0.8131
0.130584
0.818884
0.151076
0.169904
0.86373
0.0117477
-0.862716
0.865504
0.0356663
0.868353
0.059489
0.871836
0.0822749
0.876399
0.104651
0.881646
0.125337
0.887725
0.144997
0.163286
0.938686
0.0108867
-0.937825
0.940505
0.033848
0.943423
0.0565707
0.947196
0.0785015
0.95204
0.0998079
0.957642
0.119735
0.964085
0.138554
0.156152
1.02116
0.0100905
-1.02036
1.02306
0.0319465
1.02611
0.0535184
1.03017
0.0744465
1.03531
0.0946655
1.04134
0.113704
1.04832