/*--------------------------------*- C++ -*----------------------------------*\
| =========                 |                                                 |
| \\      /  F ield         | OpenFOAM: The Open Source CFD Toolbox           |
|  \\    /   O peration     | Version:  2312                                  |
|   \\  /    A nd           | Website:  www.openfoam.com                      |
|    \\/     M anipulation  |                                                 |
\*---------------------------------------------------------------------------*/
FoamFile
{
    version     2.0;
    format      ascii;
    arch        "LSB;label=32;scalar=64";
    class       volVectorField;
    location    "10.25";
    object      U;
}
// * * * * * * * * * * * * * * * * * * * * * * * * * * * * * * * * * * * * * //

dimensions      [0 1 -1 0 0 0 0];

internalField   nonuniform List<vector> 
5478
(
(-0.0215178 0.0136493 -7.95924e-20)
(-0.0513795 0.0521938 0)
(-0.0423214 0.0877769 1.18722e-19)
(0.00804912 0.108799 -2.07826e-19)
(0.102654 0.116613 1.37285e-19)
(0.244195 0.118011 -3.85063e-20)
(0.42788 0.119348 -7.35546e-20)
(0.638549 0.121465 0)
(0.854964 0.125031 0)
(1.0523 0.125172 1.16633e-19)
(1.218 0.119156 -5.00139e-20)
(1.32578 0.111336 -9.17379e-20)
(1.38507 0.0747478 -3.61008e-20)
(1.38678 0.0717218 0)
(1.33617 -0.00397067 9.69157e-20)
(-0.0314309 0.0133381 1.58969e-19)
(-0.0550864 0.028285 0)
(-0.0260975 0.0398708 0)
(0.0692642 0.0510672 -1.03363e-19)
(0.237021 0.065374 1.36551e-19)
(0.461653 0.0868004 4.05225e-20)
(0.709014 0.113568 -7.34e-20)
(0.943471 0.139894 6.50745e-20)
(1.13585 0.159103 1.76e-19)
(1.27253 0.164852 -1.55983e-19)
(1.34391 0.159247 5.29931e-21)
(1.36139 0.133833 0)
(1.34037 0.110839 3.60383e-20)
(1.29632 0.0790302 0)
(1.27234 0.050052 0)
(-0.0403448 0.0164859 -3.66849e-22)
(-0.0406263 0.0211088 -7.31665e-20)
(0.0439327 0.0242628 3.39863e-22)
(0.22772 0.0405573 0)
(0.487201 0.0742924 -4.64219e-20)
(0.763616 0.117833 4.03082e-20)
(1.00454 0.158948 3.51454e-20)
(1.17956 0.187452 0)
(1.28208 0.19721 -5.7193e-20)
(1.3197 0.190842 5.03611e-20)
(1.31581 0.168619 4.3702e-20)
(1.29556 0.147803 0)
(1.27615 0.121121 0)
(1.27185 0.108355 -9.49796e-20)
(1.26764 0.0854776 8.45452e-20)
(-0.0414086 0.0159512 -8.48408e-20)
(0.00222633 0.0157563 7.21599e-20)
(0.177084 0.0270191 -6.22504e-20)
(0.465013 0.0672786 5.51433e-20)
(0.77568 0.123828 9.3494e-20)
(1.02865 0.175417 -8.04667e-20)
(1.19188 0.208636 -3.51183e-20)
(1.27152 0.21956 2.96669e-20)
(1.29297 0.2138 -2.73909e-20)
(1.2887 0.196973 0)
(1.2814 0.181659 0)
(1.27711 0.162867 -6.1543e-20)
(1.27452 0.149627 8.09907e-20)
(1.26076 0.13262 -4.58938e-20)
(1.23823 0.11148 0)
(-0.0305443 0.0107698 4.29102e-20)
(0.0851516 0.00979933 3.63386e-20)
(0.375867 0.0496698 -1.30669e-19)
(0.730493 0.121464 1.63881e-21)
(1.01476 0.186985 -6.63121e-22)
(1.1849 0.227057 -8.62321e-22)
(1.25993 0.240911 3.33927e-20)
(1.28003 0.237876 2.92911e-20)
(1.28033 0.226426 2.22424e-20)
(1.2767 0.214272 -2.21952e-21)
(1.26949 0.198694 -5.19053e-20)
(1.25719 0.183537 0)
(1.23799 0.166766 2.53153e-20)
(1.22091 0.148542 -1.95096e-20)
(1.21102 0.136653 3.4345e-20)
(-0.0045439 0.00367879 -9.22219e-20)
(0.218285 0.0152326 1.00064e-19)
(0.611375 0.100146 -3.47655e-20)
(0.955311 0.189361 2.68975e-20)
(1.16034 0.244124 -4.93484e-20)
(1.25009 0.265091 -3.84925e-20)
(1.27633 0.265798 6.67985e-22)
(1.2773 0.257157 0)
(1.2689 0.245284 4.4195e-20)
(1.25548 0.230021 -3.9302e-20)
(1.24079 0.214901 1.65139e-20)
(1.22758 0.199029 0)
(1.21943 0.184853 1.04025e-20)
(1.21229 0.170815 -1.90617e-20)
(1.19961 0.159113 0)
(0.0419559 -0.000803429 -1.15176e-20)
(0.396091 0.0484915 1.00225e-21)
(0.826405 0.170871 1.67655e-20)
(1.10571 0.255734 2.90667e-20)
(1.23361 0.291948 -2.30198e-20)
(1.27311 0.298383 3.90806e-20)
(1.27392 0.291048 -8.85322e-21)
(1.26111 0.278421 0)
(1.24584 0.263159 -2.57187e-20)
(1.23301 0.248295 1.34729e-21)
(1.22241 0.23312 2.1998e-20)
(1.21225 0.218515 0)
(1.19889 0.203934 -1.5085e-20)
(1.18371 0.187849 0)
(1.1712 0.178426 9.70506e-21)
(0.111852 0.00529551 -1.28102e-20)
(0.584506 0.114098 0)
(0.988177 0.249034 1.80739e-20)
(1.19339 0.317735 0)
(1.26316 0.336258 0)
(1.27 0.330853 0)
(1.25626 0.317046 -7.74977e-21)
(1.23994 0.300858 0)
(1.22544 0.284618 5.13913e-21)
(1.21148 0.267891 0)
(1.19744 0.251487 -6.91058e-21)
(1.18402 0.235267 0)
(1.17405 0.219691 4.67681e-21)
(1.16716 0.205988 0)
(1.15833 0.195785 3.16019e-21)
(-0.0398553 0.0095463 -7.13578e-21)
(-0.142107 0.0101899 0)
(-0.265311 0.00454951 1.28085e-20)
(-0.368611 -0.00168909 0)
(-0.459797 -0.00838771 0)
(-0.538441 -0.0153765 0)
(-0.604494 -0.0223097 -1.16939e-20)
(-0.65773 -0.0287708 0)
(-0.698163 -0.0343819 1.0505e-20)
(-0.725848 -0.038888 0)
(-0.740818 -0.0421621 -1.75909e-20)
(-0.742805 -0.0440881 0)
(-0.731449 -0.0446333 1.35966e-20)
(-0.706723 -0.0441148 0)
(-0.669491 -0.0429516 9.6066e-21)
(-0.0462863 0.0990995 3.68456e-20)
(-0.14246 0.140678 -2.77894e-20)
(-0.253753 0.13233 1.44621e-20)
(-0.345592 0.116129 5.32252e-20)
(-0.424553 0.09807 2.60545e-21)
(-0.490046 0.0783512 -4.88377e-20)
(-0.541986 0.057549 3.43309e-20)
(-0.580273 0.0363282 0)
(-0.605098 0.0153072 3.28787e-20)
(-0.616764 -0.00508777 1.09758e-21)
(-0.615547 -0.0245798 -1.77441e-20)
(-0.601451 -0.0429406 0)
(-0.574541 -0.0605775 -4.19333e-20)
(-0.535856 -0.0782005 0)
(-0.48239 -0.0982741 -4.66051e-20)
(-0.0529988 0.162342 6.62137e-20)
(-0.130554 0.247528 1.63959e-20)
(-0.210831 0.245656 -2.72019e-20)
(-0.273017 0.224687 -8.36348e-20)
(-0.321355 0.199218 5.05668e-20)
(-0.355277 0.170825 5.38902e-20)
(-0.374622 0.140316 -9.83133e-20)
(-0.379514 0.108559 0)
(-0.370507 0.0762645 -9.06436e-20)
(-0.348405 0.0438378 8.05923e-20)
(-0.313864 0.011803 3.76488e-20)
(-0.267987 -0.0186558 0)
(-0.210257 -0.0513693 2.83091e-20)
(-0.15639 -0.0807985 -5.10918e-20)
(-0.0536088 -0.113031 0)
(-0.056257 0.18311 3.78262e-20)
(-0.112637 0.310898 -9.90677e-20)
(-0.155021 0.328533 1.22511e-19)
(-0.181036 0.309594 -1.14105e-19)
(-0.193447 0.280109 -5.58225e-20)
(-0.191192 0.245928 5.34643e-20)
(-0.174328 0.208503 5.0521e-20)
(-0.143532 0.169084 4.8173e-20)
(-0.100299 0.128694 -1.37465e-19)
(-0.0461507 0.0880413 -2.29075e-21)
(0.0198145 0.0484511 3.76319e-20)
(0.0830875 0.00656972 0)
(0.187366 -0.0262218 5.91105e-20)
(0.229533 -0.0769467 1.51971e-19)
(0.395244 -0.0986971 -9.00258e-20)
(-0.052367 0.161296 1.32752e-21)
(-0.0925191 0.319143 7.00929e-20)
(-0.100876 0.36949 -6.31718e-20)
(-0.0913308 0.364677 5.84286e-20)
(-0.0684171 0.337493 1.10742e-19)
(-0.0319242 0.301401 -1.05433e-19)
(0.0176688 0.260869 -4.91784e-20)
(0.0790904 0.21779 -1.45911e-19)
(0.150166 0.173173 1.31774e-19)
(0.22623 0.125128 0)
(0.31723 0.0870994 0)
(0.384131 0.0319134 1.32598e-19)
(0.52543 0.00406658 -2.9333e-19)
(0.556341 -0.0587124 1.03548e-19)
(0.767777 -0.0883197 0)
(-0.0413673 0.112537 4.5923e-22)
(-0.072977 0.269806 -7.02468e-20)
(-0.0597477 0.351212 1.90273e-19)
(-0.0231008 0.371636 -5.67287e-20)
(0.0292642 0.357568 -5.49635e-20)
(0.0943526 0.326168 5.20111e-20)
(0.16949 0.286245 4.91867e-20)
(0.252095 0.241068 9.15321e-20)
(0.339239 0.195712 -1.60628e-19)
(0.431538 0.147445 7.33274e-20)
(0.53522 0.108491 6.68743e-20)
(0.630754 0.0533243 0)
(0.7832 0.0225177 0)
(0.851034 -0.0465695 1.88166e-19)
(1.07325 -0.0708464 -1.67231e-19)
(-0.0279119 0.061859 -4.37642e-22)
(-0.0564487 0.1856 0)
(-0.0375987 0.273892 0)
(0.0104841 0.311775 1.12077e-19)
(0.0784469 0.312652 -5.03425e-20)
(0.160047 0.291272 4.4475e-20)
(0.250258 0.257351 8.87695e-20)
(0.348014 0.220027 -7.87198e-20)
(0.455675 0.179801 7.94322e-20)
(0.579065 0.143384 -7.34042e-20)
(0.711233 0.100312 -6.0039e-21)
(0.86499 0.0609534 0)
(1.01776 0.0238082 4.76634e-20)
(1.14463 -0.0304715 0)
(1.30922 -0.0484788 0)
(-0.0194253 0.0276158 -8.08435e-20)
(-0.0478623 0.104958 0)
(-0.034682 0.17258 -1.20672e-19)
(0.0111604 0.207802 2.12437e-19)
(0.0821995 0.214656 -2.37546e-19)
(0.174922 0.203696 -4.75707e-20)
(0.290661 0.184316 7.71829e-20)
(0.429687 0.163657 0)
(0.594037 0.138663 0)
(0.771291 0.12004 -1.28949e-19)
(0.953781 0.0891522 -6.2122e-20)
(1.12676 0.0765022 1.0323e-19)
(1.25659 0.0358657 -4.77447e-20)
(1.36628 0.0154752 0)
(1.40189 -0.0156316 -1.20199e-19)
(-0.593518 -0.0397229 0)
(-0.443243 -0.022573 1.45414e-21)
(-0.212583 0.0178836 -1.32278e-21)
(0.0165628 0.0360187 0)
(0.243802 0.0513455 0)
(0.427826 0.0567041 5.33341e-23)
(0.570198 0.058433 0)
(0.675738 0.058758 0)
(0.753184 0.0577044 -2.83334e-23)
(0.811226 0.0561953 0)
(0.855871 0.0547586 0)
(0.890233 0.0531577 2.5992e-23)
(0.916171 0.0513659 0)
(0.935281 0.0497176 1.58785e-23)
(0.949101 0.048522 1.25809e-23)
(0.95918 0.0478495 0)
(0.966535 0.047652 6.04081e-23)
(0.972252 0.0477219 -7.09958e-23)
(0.976373 0.048267 0)
(0.980154 0.0483181 -3.44046e-23)
(0.982334 0.0503526 3.97133e-23)
(0.985531 0.0481514 -7.33139e-24)
(0.986115 0.0562413 1.05727e-23)
(0.989465 0.0436224 -1.01025e-23)
(0.988885 0.0705839 8.1603e-24)
(0.992028 0.0333015 0)
(0.991517 0.0849954 5.58091e-24)
(0.994024 0.0451373 -5.33623e-24)
(0.992651 0.0576974 4.53439e-24)
(0.996706 0.0977889 0)
(0.995718 0.0565485 4.35166e-24)
(0.993675 0.0503296 0)
(0.99901 0.109108 2.08799e-24)
(1.00197 0.137249 -1.64733e-24)
(0.999544 0.088832 5.48834e-25)
(0.996548 0.0305964 -5.09933e-24)
(0.994876 -0.0233595 0)
(0.994759 -0.0324799 2.33683e-24)
(-0.395688 -0.121907 1.70151e-20)
(-0.30063 -0.165912 -6.76468e-23)
(-0.106822 -0.151488 -9.07123e-22)
(0.0919822 -0.119887 8.65081e-22)
(0.291383 -0.0774547 0)
(0.455232 -0.0376966 -5.37505e-23)
(0.583946 -0.00909813 9.00672e-23)
(0.680225 0.00963657 0)
(0.751681 0.0216286 2.85463e-23)
(0.806958 0.0296426 0)
(0.851168 0.0348939 0)
(0.886271 0.0385789 -2.61779e-23)
(0.91332 0.0410568 0)
(0.933434 0.0426697 -4.86903e-22)
(0.947967 0.0437933 4.11258e-22)
(0.958492 0.0446756 -3.01212e-22)
(0.966139 0.0454827 2.87522e-22)
(0.972038 0.0462042 1.34006e-23)
(0.97632 0.0471685 0)
(0.980171 0.047499 0)
(0.982494 0.0497382 7.72776e-24)
(0.98569 0.0476305 -5.64548e-23)
(0.98641 0.0559197 9.0273e-23)
(0.989806 0.0431877 -4.07375e-23)
(0.989158 0.0704815 -2.46755e-23)
(0.992704 0.0329453 0)
(0.991759 0.0847821 -1.22383e-23)
(0.994655 0.045251 0)
(0.993645 0.057174 -4.55033e-24)
(0.996815 0.0977213 1.13382e-23)
(0.996604 0.0568908 -1.97426e-23)
(0.995153 0.0499302 3.17766e-24)
(0.999712 0.108459 -5.0727e-24)
(1.00229 0.137286 -1.20419e-24)
(1.00035 0.0892919 2.67725e-24)
(0.997795 0.0309579 -4.45301e-24)
(0.996324 -0.0232256 -5.97059e-25)
(0.99605 -0.0324892 6.02596e-25)
(0.0118979 -0.186618 2.92478e-20)
(0.0831101 -0.242833 -4.399e-20)
(0.217579 -0.274005 1.0986e-20)
(0.358336 -0.246527 4.33388e-21)
(0.492821 -0.185078 -6.08383e-23)
(0.603702 -0.117094 8.51533e-23)
(0.689807 -0.0642277 -9.16148e-23)
(0.754702 -0.029495 1.37019e-22)
(0.803229 -0.00720974 0)
(0.840847 0.007861 -2.56256e-21)
(0.8719 0.0188457 2.44428e-21)
(0.898126 0.0267853 5.27238e-23)
(0.919556 0.0325726 0)
(0.936389 0.0367267 9.62595e-22)
(0.94918 0.0396812 -8.92487e-22)
(0.958874 0.041805 3.07697e-22)
(0.966203 0.0434318 -2.93603e-22)
(0.97201 0.0447016 -2.32155e-22)
(0.976338 0.046042 1.95324e-22)
(0.980206 0.0466234 0)
(0.982655 0.0490785 0)
(0.985837 0.0470342 -1.01384e-22)
(0.986692 0.055565 9.67897e-23)
(0.990141 0.0426684 7.42096e-23)
(0.989403 0.0703429 -7.50618e-24)
(0.993391 0.0325488 -6.05951e-23)
(0.99196 0.0844599 3.07016e-26)
(0.995282 0.0454019 2.03832e-23)
(0.994645 0.0565206 -5.00082e-23)
(0.996871 0.0975908 4.41616e-23)
(0.997483 0.0572786 -4.47893e-24)
(0.996654 0.0494231 8.64236e-24)
(1.00037 0.107694 -4.0685e-25)
(1.00254 0.13733 3.89003e-25)
(1.0011 0.0898235 -4.24843e-24)
(0.999007 0.0313902 -4.72789e-24)
(0.997743 -0.0230475 1.38417e-23)
(0.99733 -0.0324824 2.42777e-24)
(0.425353 -0.201777 0)
(0.500997 -0.296258 2.02297e-20)
(0.581125 -0.340631 -1.98756e-20)
(0.654675 -0.322414 0)
(0.716652 -0.252683 6.25259e-23)
(0.765681 -0.17112 -8.74901e-23)
(0.804631 -0.10176 0)
(0.836067 -0.0543292 -1.82383e-23)
(0.861137 -0.0251132 1.0284e-22)
(0.881617 -0.00717279 0)
(0.89924 0.00575953 1.97708e-21)
(0.91496 0.0160741 -1.93912e-21)
(0.929104 0.0242114 8.38415e-23)
(0.941323 0.0304714 9.8132e-22)
(0.951452 0.0351441 -9.35745e-22)
(0.959762 0.0385492 -4.26564e-23)
(0.966481 0.041088 0)
(0.97206 0.0429912 2.80814e-23)
(0.976377 0.044782 -3.47904e-22)
(0.980238 0.0456476 4.12891e-23)
(0.982807 0.0483667 3.24203e-23)
(0.985971 0.0463664 2.05932e-22)
(0.986959 0.0551934 1.53646e-22)
(0.990465 0.0420744 -1.88832e-22)
(0.989625 0.0701796 1.70144e-23)
(0.994071 0.0321171 0)
(0.992135 0.0840329 1.24949e-23)
(0.995895 0.0456063 -2.06517e-23)
(0.995629 0.0557416 5.05253e-23)
(0.996902 0.0973912 -4.45604e-23)
(0.998342 0.0577237 9.86488e-24)
(0.99814 0.0488154 0)
(1.001 0.106803 4.23797e-25)
(1.00275 0.137378 9.27101e-26)
(1.0018 0.0904285 5.12362e-24)
(1.00018 0.0318862 1.78782e-23)
(0.999113 -0.02283 -1.38514e-23)
(0.998592 -0.0324619 5.7228e-26)
(0.769181 -0.193468 5.86258e-22)
(0.828256 -0.305843 9.0692e-22)
(0.882352 -0.375596 0)
(0.892714 -0.362072 0)
(0.88319 -0.28811 0)
(0.874429 -0.199716 0)
(0.873696 -0.125646 -3.76368e-21)
(0.879851 -0.0717809 7.11862e-21)
(0.890371 -0.0362097 -3.59787e-21)
(0.902409 -0.0141384 0)
(0.914707 0.000476118 1.9419e-21)
(0.926238 0.0119381 -1.91225e-21)
(0.936646 0.0206316 -1.35723e-21)
(0.945968 0.027331 1.14258e-21)
(0.95407 0.0324414 -8.10177e-22)
(0.961087 0.0362661 8.15973e-22)
(0.967094 0.0392064 3.57067e-23)
(0.972313 0.0414674 4.34984e-22)
(0.976521 0.0435832 -4.14469e-22)
(0.980317 0.044665 -3.99902e-23)
(0.982969 0.0476434 -3.352e-23)
(0.986103 0.0456471 -1.85898e-22)
(0.98721 0.0548115 2.0382e-22)
(0.990774 0.0414109 4.09213e-23)
(0.989828 0.0699936 1.76152e-23)
(0.994728 0.0316489 1.50144e-23)
(0.992294 0.0834988 0)
(0.996486 0.045855 0)
(0.996572 0.0548406 0)
(0.996936 0.0971296 0)
(0.999176 0.0582191 -2.89905e-23)
(0.999569 0.0481155 1.81013e-23)
(1.0016 0.1058 -9.7183e-25)
(1.00296 0.137421 -1.59209e-23)
(1.00248 0.0910951 5.02167e-24)
(1.0013 0.0324352 4.00912e-24)
(1.00042 -0.0225782 -1.6345e-23)
(0.999827 -0.0324304 -5.97235e-24)
(1.06392 -0.178814 -6.16812e-22)
(1.10049 -0.278567 5.18211e-20)
(1.11191 -0.356709 -4.98095e-20)
(1.06788 -0.355838 -1.36379e-20)
(0.995684 -0.291084 1.29882e-20)
(0.937469 -0.211582 -3.51865e-21)
(0.906334 -0.141226 3.2506e-21)
(0.897694 -0.0881331 -8.13601e-23)
(0.900912 -0.0514444 9.72463e-23)
(0.909327 -0.027023 0)
(0.919794 -0.0107231 6.79805e-23)
(0.930022 0.0020514 -3.1565e-21)
(0.939323 0.0131266 3.00488e-21)
(0.947822 0.0218701 7.09723e-23)
(0.955276 0.0285116 0)
(0.961787 0.0333966 7.25683e-22)
(0.967465 0.0370711 -1.23815e-21)
(0.972485 0.0398328 4.96659e-22)
(0.976636 0.0423422 0)
(0.98038 0.0436395 -2.71467e-22)
(0.98311 0.0469144 6.96655e-23)
(0.986219 0.0448718 2.5001e-22)
(0.987433 0.0544437 2.13809e-22)
(0.991063 0.040684 -2.00853e-22)
(0.990014 0.0698041 1.37993e-22)
(0.995343 0.0311836 -1.39412e-23)
(0.992447 0.0828547 -1.24576e-22)
(0.997049 0.0461882 8.40256e-23)
(0.997453 0.0538455 -7.99082e-23)
(0.996999 0.096788 2.56575e-23)
(0.999974 0.0587982 -2.43954e-23)
(1.00091 0.0473747 0)
(1.00218 0.104659 -1.1899e-24)
(1.0032 0.137461 6.85431e-24)
(1.00314 0.0918388 0)
(1.00236 0.0330614 -1.73547e-23)
(1.00165 -0.0222872 1.13464e-23)
(1.00103 -0.03239 -2.66401e-24)
(1.28538 -0.148382 0)
(1.28908 -0.240686 0)
(1.24542 -0.304548 -1.70375e-22)
(1.15266 -0.314269 0)
(1.04691 -0.26587 0)
(0.967519 -0.198263 -1.39062e-22)
(0.924746 -0.135989 1.68428e-22)
(0.90793 -0.0880377 -5.06161e-21)
(0.907415 -0.0534718 4.83812e-21)
(0.914185 -0.0299978 0)
(0.923776 -0.013298 6.17021e-23)
(0.933867 -0.000931106 -5.27902e-23)
(0.942728 0.0101843 2.7117e-21)
(0.950367 0.018908 -3.69048e-22)
(0.957092 0.0257644 -2.0608e-21)
(0.962992 0.0309505 -2.40749e-23)
(0.968209 0.0349825 1.95124e-23)
(0.972904 0.0380952 -9.2137e-22)
(0.976888 0.0409619 9.05714e-22)
(0.980518 0.0424911 0)
(0.983271 0.0460859 0)
(0.986347 0.0440252 1.53806e-23)
(0.987642 0.0540187 0)
(0.991337 0.0399101 -1.79029e-22)
(0.990197 0.0695739 6.61139e-24)
(0.995905 0.030679 1.36307e-22)
(0.992607 0.0821521 1.31228e-22)
(0.997593 0.0465186 -8.6863e-23)
(0.998238 0.0527535 9.49607e-24)
(0.997119 0.0964328 0)
(1.00075 0.0593433 2.01138e-23)
(1.0021 0.0465572 -1.90699e-23)
(1.00274 0.103521 -4.32408e-24)
(1.00353 0.137474 7.64597e-24)
(1.00382 0.0925894 -1.5038e-24)
(1.00336 0.0337008 9.66902e-24)
(1.00278 -0.0219884 0)
(1.00219 -0.0323503 4.91627e-24)
(1.36969 -0.0961265 7.37136e-20)
(1.34569 -0.162727 5.51273e-20)
(1.27384 -0.223951 -1.20431e-20)
(1.16977 -0.254042 -6.39038e-20)
(1.07022 -0.245016 2.44108e-20)
(0.99173 -0.211113 -4.34133e-23)
(0.944544 -0.168671 0)
(0.923943 -0.122616 2.8002e-23)
(0.91979 -0.0819846 3.64818e-23)
(0.923957 -0.0509623 0)
(0.930935 -0.0279323 3.71577e-21)
(0.938439 -0.0110708 -3.53403e-21)
(0.94575 0.00187809 -4.62491e-23)
(0.952508 0.0132558 -2.26391e-21)
(0.958797 0.0221079 2.14834e-21)
(0.964371 0.0285113 -2.54063e-23)
(0.969282 0.033285 -2.06935e-23)
(0.973677 0.0368136 0)
(0.97744 0.0400151 -8.39135e-22)
(0.980887 0.0416216 7.95538e-22)
(0.983585 0.0455569 2.91905e-22)
(0.986591 0.0432183 -4.65919e-23)
(0.987912 0.0538508 -2.33208e-22)
(0.991659 0.0390028 1.8803e-22)
(0.990417 0.0695035 -2.64711e-23)
(0.996452 0.0301948 -2.86751e-22)
(0.992794 0.0811662 1.06444e-22)
(0.998135 0.0472826 -1.02812e-22)
(0.998949 0.0512983 7.59479e-23)
(0.997309 0.0958762 0)
(1.00149 0.060342 0)
(1.00317 0.0455936 0)
(1.00331 0.101859 2.41091e-24)
(1.0039 0.137545 4.50563e-24)
(1.00449 0.0937061 1.64089e-23)
(1.00428 0.0346322 -7.51131e-24)
(1.00381 -0.0215885 -7.52588e-24)
(1.00331 -0.0322897 0)
(1.30632 -0.0324194 0)
(1.28561 -0.0821152 0)
(1.22408 -0.122149 0)
(1.15293 -0.139518 0)
(1.08524 -0.143222 0)
(1.03075 -0.133461 0)
(0.993314 -0.113722 0)
(0.970337 -0.0893694 0)
(0.957879 -0.0655976 0)
(0.952912 -0.0452765 0)
(0.95231 -0.0291523 0)
(0.953413 -0.0151038 0)
(0.956122 -0.00302487 0)
(0.95996 0.00761903 0)
(0.963773 0.0164328 0)
(0.967721 0.023469 0)
(0.971607 0.0290346 0)
(0.975329 0.0333081 0)
(0.978646 0.0372005 0)
(0.981803 0.0393107 0)
(0.984317 0.0437491 0)
(0.987211 0.041645 0)
(0.988501 0.0526633 0)
(0.992182 0.037901 0)
(0.991009 0.0685936 0)
(0.99704 0.0295628 0)
(0.993286 0.0801987 0)
(0.999028 0.0469293 0)
(0.999488 0.05053 0)
(0.997951 0.0950941 0)
(1.00263 0.0601187 0)
(1.00411 0.0449934 0)
(1.00389 0.100838 0)
(1.00467 0.137037 0)
(1.00552 0.0938703 0)
(1.00539 0.0350612 0)
(1.00499 -0.0212142 0)
(1.00466 -0.0322082 0)
(1.23444 -0.0163698 0)
(1.22829 -0.0706059 0)
(1.18783 -0.112153 0)
(1.13525 -0.140956 0)
(1.08613 -0.153571 0)
(1.04406 -0.148524 0)
(1.01102 -0.130498 0)
(0.987116 -0.105295 0)
(0.97162 -0.0787259 0)
(0.964145 -0.0539616 0)
(0.961854 -0.0322556 0)
(0.96184 -0.0146718 0)
(0.962405 -0.000874502 0)
(0.963816 0.00962654 0)
(0.966487 0.0179487 0)
(0.96966 0.0243369 0)
(0.972977 0.0293198 0)
(0.976368 0.0331618 0)
(0.979497 0.0367593 0)
(0.982565 0.0387559 0)
(0.985 0.043061 0)
(0.9879 0.041131 0)
(0.989143 0.0519037 0)
(0.992845 0.0376003 0)
(0.991751 0.0678738 0)
(0.997687 0.029187 0)
(0.994126 0.0799764 0)
(0.999973 0.0460815 0)
(1.00012 0.0504304 0)
(0.999162 0.0949932 0)
(1.00387 0.0593277 0)
(1.00494 0.0444545 0)
(1.00491 0.100842 0)
(1.00608 0.137146 0)
(1.00695 0.0937423 0)
(1.00681 0.0348714 0)
(1.00654 -0.0213305 0)
(1.00635 -0.0322585 0)
(1.19545 0.00309962 0)
(1.19455 -0.0334313 0)
(1.16733 -0.0628099 0)
(1.13022 -0.080621 0)
(1.0923 -0.0871548 0)
(1.0556 -0.0848631 0)
(1.0243 -0.0763578 0)
(1.00064 -0.0634952 0)
(0.983667 -0.048801 0)
(0.973419 -0.0351811 0)
(0.968172 -0.0230445 0)
(0.965485 -0.0123711 0)
(0.965516 -0.00286475 0)
(0.967625 0.00638813 0)
(0.970065 0.0145831 0)
(0.972627 0.0212777 0)
(0.975359 0.0267646 0)
(0.978243 0.0311069 0)
(0.980944 0.035134 0)
(0.983743 0.0374614 0)
(0.985944 0.041995 0)
(0.988791 0.0403073 0)
(0.989913 0.0510834 0)
(0.993629 0.0371213 0)
(0.992604 0.0671444 0)
(0.998369 0.0288032 0)
(0.995158 0.0796446 0)
(1.00092 0.0453192 0)
(1.00087 0.0505098 0)
(1.00064 0.094678 0)
(1.00511 0.0585914 0)
(1.00581 0.0443571 0)
(1.00631 0.10105 0)
(1.00794 0.137025 0)
(1.00874 0.0935974 0)
(1.00848 0.0350035 0)
(1.00826 -0.0212162 0)
(1.00821 -0.0322489 0)
(1.1569 0.0147769 0)
(1.1564 -0.0161941 0)
(1.13861 -0.042247 0)
(1.11052 -0.0611501 0)
(1.08066 -0.0731484 0)
(1.05234 -0.0774522 0)
(1.02867 -0.0744326 0)
(1.01049 -0.0655411 0)
(0.996431 -0.0532735 0)
(0.986744 -0.0400131 0)
(0.980549 -0.0267361 0)
(0.97649 -0.0140475 0)
(0.974316 -0.00256011 0)
(0.973846 0.00678885 0)
(0.974557 0.014473 0)
(0.97597 0.0207072 0)
(0.977909 0.0258273 0)
(0.980279 0.0299531 0)
(0.982592 0.0339178 0)
(0.985138 0.0362997 0)
(0.987087 0.0409046 0)
(0.989858 0.039376 0)
(0.990831 0.050166 0)
(0.994534 0.036434 0)
(0.993587 0.0663701 0)
(0.999141 0.0282291 0)
(0.996352 0.0791896 0)
(1.00195 0.0446071 0)
(1.00173 0.0502531 0)
(1.00232 0.094198 0)
(1.00646 0.0579819 0)
(1.00675 0.0440181 0)
(1.00799 0.100777 0)
(1.01019 0.136771 0)
(1.01086 0.0934884 0)
(1.0104 0.0350252 0)
(1.01019 -0.0212097 0)
(1.01025 -0.0322925 0)
(1.12459 0.0224604 0)
(1.12686 0.000726722 0)
(1.11665 -0.018723 0)
(1.0975 -0.0333437 0)
(1.07621 -0.0424516 0)
(1.05467 -0.0457329 0)
(1.03516 -0.0443698 0)
(1.01885 -0.0395113 0)
(1.00476 -0.0325351 0)
(0.994351 -0.0248665 0)
(0.987372 -0.0165039 0)
(0.981983 -0.00795421 0)
(0.978778 -0.000210333 0)
(0.97808 0.00705117 0)
(0.978536 0.0137277 0)
(0.979441 0.0195404 0)
(0.980803 0.0245491 0)
(0.982663 0.0286839 0)
(0.984526 0.0326952 0)
(0.986752 0.035153 0)
(0.988417 0.0398172 0)
(0.991073 0.0384168 0)
(0.991898 0.0492269 0)
(0.995563 0.0356672 0)
(0.994696 0.0655997 0)
(1.00005 0.0275457 0)
(0.997637 0.0786463 0)
(1.00309 0.0438464 0)
(1.00275 0.0497416 0)
(1.0041 0.0936889 0)
(1.00794 0.0573209 0)
(1.00786 0.0434348 0)
(1.00991 0.100296 0)
(1.0127 0.136472 0)
(1.01321 0.0934008 0)
(1.01255 0.035113 0)
(1.01236 -0.0211695 0)
(1.01251 -0.0323381 0)
(1.09997 0.028299 0)
(1.10312 0.0124179 0)
(1.09644 -0.00297691 0)
(1.08264 -0.0157155 0)
(1.0669 -0.0249697 0)
(1.05033 -0.0303639 0)
(1.03489 -0.0321674 0)
(1.02193 -0.0307207 0)
(1.01032 -0.026711 0)
(1.00138 -0.0211768 0)
(0.994963 -0.0143804 0)
(0.989331 -0.00669988 0)
(0.985387 0.000761555 0)
(0.983731 0.00756127 0)
(0.983218 0.0136977 0)
(0.983257 0.0190777 0)
(0.983891 0.0237792 0)
(0.9852 0.0277156 0)
(0.986623 0.0316273 0)
(0.988534 0.0340745 0)
(0.989921 0.0387635 0)
(0.992436 0.0374376 0)
(0.99312 0.0482941 0)
(0.996726 0.0348191 0)
(0.995917 0.0648168 0)
(1.00111 0.02674 0)
(0.998988 0.0779895 0)
(1.00438 0.0430862 0)
(1.00394 0.0490716 0)
(1.00593 0.0931022 0)
(1.00957 0.0566677 0)
(1.00921 0.0427738 0)
(1.01202 0.0996672 0)
(1.01538 0.136105 0)
(1.01577 0.0933515 0)
(1.01494 0.0352312 0)
(1.01478 -0.0211436 0)
(1.01499 -0.0324063 0)
(1.08021 0.0326625 0)
(1.08267 0.0204737 0)
(1.07862 0.00862241 0)
(1.06939 -0.00144613 0)
(1.05851 -0.00912587 0)
(1.04634 -0.0140756 0)
(1.03463 -0.0163364 0)
(1.0245 -0.0161236 0)
(1.0145 -0.0140423 0)
(1.00635 -0.0108856 0)
(1.0005 -0.00665192 0)
(0.994785 -0.00130021 0)
(0.990166 0.0042344 0)
(0.988068 0.0094152 0)
(0.987262 0.0143895 0)
(0.986858 0.0190283 0)
(0.986975 0.0232889 0)
(0.987829 0.0269624 0)
(0.988857 0.0307214 0)
(0.990462 0.0330963 0)
(0.991581 0.037764 0)
(0.993939 0.0364442 0)
(0.994488 0.0473541 0)
(0.998021 0.0338643 0)
(0.99725 0.0639948 0)
(1.00233 0.0258137 0)
(1.00043 0.0772272 0)
(1.00581 0.042333 0)
(1.0053 0.0481976 0)
(1.00782 0.0924124 0)
(1.01138 0.0560412 0)
(1.01082 0.0419678 0)
(1.0143 0.0987929 0)
(1.0182 0.135621 0)
(1.01855 0.0933081 0)
(1.01759 0.035374 0)
(1.01747 -0.0211213 0)
(1.01774 -0.0324901 0)
(1.06336 0.0354774 0)
(1.06588 0.026472 0)
(1.06394 0.0176787 0)
(1.05773 0.00975378 0)
(1.05005 0.00319387 0)
(1.041 -0.00159681 0)
(1.03214 -0.00454529 0)
(1.02442 -0.00570549 0)
(1.01621 -0.0053569 0)
(1.00932 -0.00388648 0)
(1.0045 -0.00130286 0)
(0.99946 0.00244388 0)
(0.994877 0.00681036 0)
(0.992424 0.0111213 0)
(0.991245 0.0153031 0)
(0.990418 0.0193013 0)
(0.990072 0.0230973 0)
(0.990515 0.0264411 0)
(0.991188 0.0299754 0)
(0.992509 0.032206 0)
(0.99338 0.03681 0)
(0.995579 0.035433 0)
(0.995999 0.0463992 0)
(0.999457 0.0328129 0)
(0.998705 0.0631318 0)
(1.00371 0.0247812 0)
(1.00196 0.0763354 0)
(1.0074 0.0415509 0)
(1.00686 0.0470955 0)
(1.00979 0.0916003 0)
(1.01338 0.0553961 0)
(1.0127 0.0409563 0)
(1.01675 0.0976366 0)
(1.02119 0.134998 0)
(1.02158 0.0932608 0)
(1.02054 0.0355396 0)
(1.02049 -0.021104 0)
(1.02078 -0.0325894 0)
(1.04987 0.0374295 0)
(1.05237 0.0308473 0)
(1.05138 0.0241527 0)
(1.0471 0.0178011 0)
(1.0419 0.0123255 0)
(1.03537 0.00809038 0)
(1.02891 0.00516561 0)
(1.02335 0.00352674 0)
(1.01683 0.00303864 0)
(1.01117 0.00347771 0)
(1.00737 0.00486503 0)
(1.00299 0.00727981 0)
(0.998536 0.0103013 0)
(0.995997 0.0134737 0)
(0.994706 0.0167179 0)
(0.993676 0.0199738 0)
(0.993028 0.0232196 0)
(0.993164 0.0261593 0)
(0.993554 0.0294045 0)
(0.994636 0.0314244 0)
(0.99529 0.0359207 0)
(0.997342 0.0344197 0)
(0.997643 0.0454382 0)
(1.00103 0.0316771 0)
(1.00029 0.062218 0)
(1.00526 0.0236351 0)
(1.00362 0.0752915 0)
(1.00913 0.0407183 0)
(1.00861 0.0457623 0)
(1.01187 0.0906394 0)
(1.01558 0.0546993 0)
(1.01485 0.0397198 0)
(1.0194 0.0961885 0)
(1.02437 0.13422 0)
(1.0249 0.093186 0)
(1.02381 0.0357149 0)
(1.02386 -0.0210921 0)
(1.02415 -0.0327003 0)
(1.03905 0.0386917 0)
(1.04104 0.0336917 0)
(1.04065 0.0285671 0)
(1.03787 0.0236262 0)
(1.03453 0.0192184 0)
(1.02989 0.01562 0)
(1.02527 0.0129065 0)
(1.02139 0.0110428 0)
(1.01627 0.00998214 0)
(1.01174 0.00965367 0)
(1.00897 0.0101155 0)
(1.00542 0.0114555 0)
(1.00139 0.0134558 0)
(0.99898 0.0157461 0)
(0.997713 0.0182137 0)
(0.996614 0.0207978 0)
(0.995792 0.0235048 0)
(0.99572 0.0260214 0)
(0.995901 0.0289461 0)
(0.996798 0.0307074 0)
(0.997279 0.0350601 0)
(0.999206 0.0333753 0)
(0.999406 0.0444366 0)
(1.00274 0.0304291 0)
(1.00199 0.0612066 0)
(1.00697 0.0223471 0)
(1.00541 0.0740523 0)
(1.01102 0.0397955 0)
(1.01055 0.0441688 0)
(1.01409 0.0894669 0)
(1.01798 0.0539101 0)
(1.01729 0.0382229 0)
(1.02228 0.0943818 0)
(1.02779 0.133239 0)
(1.02855 0.0930636 0)
(1.02747 0.0358522 0)
(1.02764 -0.0211073 0)
(1.02789 -0.0328238 0)
(1.02981 0.0394532 0)
(1.03156 0.0356607 0)
(1.0317 0.0317977 0)
(1.02998 0.0279558 0)
(1.02792 0.0244007 0)
(1.02464 0.0213681 0)
(1.02141 0.018925 0)
(1.01889 0.0170523 0)
(1.01496 0.0157477 0)
(1.01147 0.0150152 0)
(1.00964 0.0149212 0)
(1.00692 0.0155414 0)
(1.00343 0.0167492 0)
(1.0013 0.018288 0)
(1.00019 0.0200662 0)
(0.999166 0.0220269 0)
(0.998304 0.0242029 0)
(0.998129 0.026278 0)
(0.998182 0.0288521 0)
(0.998956 0.0303085 0)
(0.999311 0.034476 0)
(1.00115 0.0325426 0)
(1.00127 0.0436176 0)
(1.00458 0.0292841 0)
(1.00382 0.0602858 0)
(1.00882 0.0210993 0)
(1.00735 0.0727829 0)
(1.01307 0.0388994 0)
(1.01269 0.0424455 0)
(1.01646 0.0881785 0)
(1.02061 0.0530818 0)
(1.02 0.0365334 0)
(1.02543 0.092269 0)
(1.0315 0.132018 0)
(1.03257 0.0929049 0)
(1.03156 0.0361515 0)
(1.03191 -0.0210456 0)
(1.03206 -0.0329233 0)
(1.0222 0.0391487 0)
(1.02377 0.0363002 0)
(1.02416 0.0333493 0)
(1.02312 0.0303162 0)
(1.02196 0.0274373 0)
(1.01971 0.0248986 0)
(1.01758 0.0227491 0)
(1.01615 0.0209581 0)
(1.01322 0.0195417 0)
(1.01061 0.0185514 0)
(1.00963 0.0180592 0)
(1.00769 0.018135 0)
(1.00478 0.0187125 0)
(1.003 0.0196234 0)
(1.00215 0.0208047 0)
(1.00128 0.0222069 0)
(1.00048 0.0238868 0)
(1.0003 0.0255326 0)
(1.00031 0.0277628 0)
(1.00103 0.0289109 0)
(1.00131 0.0329025 0)
(1.0031 0.0307091 0)
(1.00318 0.0418303 0)
(1.00648 0.0271489 0)
(1.00575 0.0584317 0)
(1.01079 0.0189025 0)
(1.00937 0.0705712 0)
(1.01527 0.0371965 0)
(1.01499 0.0398066 0)
(1.01897 0.0860826 0)
(1.02346 0.0515618 0)
(1.02299 0.0340346 0)
(1.02878 0.0893516 0)
(1.03553 0.130185 0)
(1.03718 0.0921862 0)
(1.03622 0.0357786 0)
(1.03671 -0.0212764 0)
(1.0367 -0.0330791 0)
(1.01581 0.0399238 0)
(1.01713 0.0377657 0)
(1.01767 0.0355166 0)
(1.01711 0.0331644 0)
(1.0166 0.0309136 0)
(1.01506 0.028902 0)
(1.01374 0.0271425 0)
(1.01312 0.0255934 0)
(1.01096 0.0242841 0)
(1.0091 0.0232867 0)
(1.00886 0.0226693 0)
(1.00766 0.022491 0)
(1.00535 0.0227118 0)
(1.00403 0.0232147 0)
(1.00354 0.0239653 0)
(1.00295 0.0249283 0)
(1.00233 0.0261833 0)
(1.00226 0.0274269 0)
(1.00232 0.0293067 0)
(1.00307 0.0301085 0)
(1.00335 0.033875 0)
(1.00516 0.0313289 0)
(1.00521 0.0424446 0)
(1.00858 0.0272549 0)
(1.00783 0.0588101 0)
(1.01297 0.0187282 0)
(1.01171 0.0703526 0)
(1.01762 0.0373133 0)
(1.01764 0.038806 0)
(1.02178 0.0854823 0)
(1.0265 0.0515812 0)
(1.0264 0.0327092 0)
(1.03268 0.0871939 0)
(1.03991 0.129232 0)
(1.04204 0.0927136 0)
(1.04147 0.0367941 0)
(1.04241 -0.020801 0)
(1.04203 -0.0329949 0)
(1.01047 0.0366581 0)
(1.0117 0.0349271 0)
(1.01241 0.0331102 0)
(1.01228 0.0311794 0)
(1.01229 0.0293121 0)
(1.01132 0.0276212 0)
(1.01062 0.0261033 0)
(1.01064 0.0247013 0)
(1.00912 0.0234431 0)
(1.00786 0.0224051 0)
(1.00822 0.0216455 0)
(1.0076 0.0212248 0)
(1.00578 0.0211332 0)
(1.00481 0.021289 0)
(1.0046 0.0216732 0)
(1.00426 0.0222591 0)
(1.00382 0.0231425 0)
(1.00387 0.024025 0)
(1.00401 0.0255829 0)
(1.00481 0.0260653 0)
(1.00515 0.0296156 0)
(1.00697 0.0267646 0)
(1.0071 0.037841 0)
(1.01046 0.0222952 0)
(1.00984 0.0539458 0)
(1.01506 0.0136889 0)
(1.01376 0.064917 0)
(1.02009 0.0327 0)
(1.02002 0.033049 0)
(1.02445 0.0800423 0)
(1.02987 0.0470564 0)
(1.02964 0.0272188 0)
(1.03623 0.0807914 0)
(1.04475 0.123847 0)
(1.04809 0.0892972 0)
(1.04742 0.0346829 0)
(1.04842 -0.0218764 0)
(1.04775 -0.0332971 0)
(1.00529 0.0396781 0)
(1.00633 0.0384188 0)
(1.00712 0.0370789 0)
(1.00729 0.0356014 0)
(1.00767 0.0341481 0)
(1.00713 0.0328198 0)
(1.00693 0.0316149 0)
(1.00745 0.0304649 0)
(1.00641 0.0293964 0)
(1.00562 0.0285167 0)
(1.0065 0.0278823 0)
(1.00647 0.0275041 0)
(1.00522 0.0273444 0)
(1.00476 0.027335 0)
(1.00499 0.0274783 0)
(1.00504 0.0277684 0)
(1.00492 0.0283318 0)
(1.00522 0.0288834 0)
(1.00557 0.0301457 0)
(1.00656 0.0303003 0)
(1.00701 0.0336723 0)
(1.00901 0.0304039 0)
(1.00917 0.0416032 0)
(1.01276 0.0252922 0)
(1.01212 0.057571 0)
(1.01755 0.01625 0)