/*--------------------------------*- C++ -*----------------------------------*\
| =========                 |                                                 |
| \\      /  F ield         | OpenFOAM: The Open Source CFD Toolbox           |
|  \\    /   O peration     | Version:  2312                                  |
|   \\  /    A nd           | Website:  www.openfoam.com                      |
|    \\/     M anipulation  |                                                 |
\*---------------------------------------------------------------------------*/
FoamFile
{
    version     2.0;
    format      ascii;
    arch        "LSB;label=32;scalar=64";
    class       surfaceScalarField;
    location    "187.7";
    object      phi;
}
// * * * * * * * * * * * * * * * * * * * * * * * * * * * * * * * * * * * * * //

dimensions      [0 3 -1 0 0 0 0];

oriented        oriented;

internalField   nonuniform List<scalar> 
10785
(
-0.00157973
0.00494061
-0.00336088
-0.0022947
0.00802241
-0.00730745
0.000976936
0.00522888
-0.00850051
0.0114904
-0.00500666
-0.00550683
0.0315812
-0.0234767
0.00338586
0.0609624
-0.0479916
0.0186105
0.0965406
-0.074756
0.0391778
0.133937
-0.100374
0.0629771
0.168553
-0.122498
0.0878821
0.196884
-0.140077
0.111746
0.216569
-0.153069
0.133384
0.228817
-0.162562
0.150314
0.235024
-0.171028
0.164821
0.240347
-0.178191
0.172869
-0.189804
0.184937
0.245214
-0.00062512
0.00556573
0.00113099
0.0062663
0.00930449
-0.00294462
0.0274985
-0.0232007
0.0553627
-0.0513409
0.0885394
-0.0811683
0.121437
-0.107654
0.149423
-0.12836
0.170082
-0.143157
0.183553
-0.153547
0.192224
-0.161741
0.199506
-0.169844
0.206992
-0.178514
0.216148
-0.187347
-0.197044
0.223387
0.000410189
0.00515554
0.00546001
0.00121648
0.0200854
-0.01757
0.0452167
-0.048332
0.0755362
-0.0816604
0.104295
-0.109927
0.127036
-0.130395
0.14268
-0.144004
0.152953
-0.15343
0.160701
-0.161296
0.168133
-0.169173
0.175514
-0.177225
0.182274
-0.185274
0.188056
-0.193128
-0.201558
0.19257
0.00144911
0.00370643
0.0107053
-0.00803972
0.0316508
-0.0385154
0.0591939
-0.0758751
0.0850974
-0.107564
0.104691
-0.129521
0.117705
-0.143408
0.126439
-0.152738
0.133334
-0.160325
0.1396
-0.167562
0.145203
-0.174776
0.150179
-0.182201
0.154855
-0.189951
0.159938
-0.198211
-0.207232
0.165612
0.00278811
0.000918314
0.0168691
-0.0221207
0.0410116
-0.0626579
0.0651751
-0.100039
0.0833655
-0.125754
0.095158
-0.141314
0.102788
-0.151038
0.108379
-0.158329
0.113002
-0.164947
0.117049
-0.17161
0.120938
-0.178664
0.124899
-0.186162
0.12892
-0.193972
0.132874
-0.202165
-0.210374
0.136017
0.00466725
-0.00374894
0.022526
-0.0399795
0.0451233
-0.0852553
0.063144
-0.118059
0.0746964
-0.137307
0.0816059
-0.148223
0.0860302
-0.155463
0.0893272
-0.161626
0.0921949
-0.167815
0.0949726
-0.174388
0.0976538
-0.181346
0.100127
-0.188636
0.102456
-0.196301
0.104644
-0.204353
-0.212894
0.107164
0.00689917
-0.0106481
0.0258374
-0.0589178
0.0439722
-0.10339
0.0560836
-0.130171
0.062847
-0.14407
0.0664807
-0.151857
0.0686974
-0.157679
0.0703782
-0.163307
0.0718197
-0.169256
0.0730383
-0.175606
0.0740717
-0.182379
0.0750397
-0.189604
0.0759831
-0.197244
0.0769739
-0.205343
-0.213565
0.0776447
0.00875891
-0.019407
0.0258301
-0.075989
0.039125
-0.116685
0.0464603
-0.137506
0.0497514
-0.147361
0.0510783
-0.153184
0.0516033
-0.158204
0.0517478
-0.163451
0.051628
-0.169136
0.0513206
-0.175299
0.0508789
-0.181937
0.0502976
-0.189022
0.0496261
-0.196573
0.0488177
-0.204535
0.0482287
-0.212976
-0.00202001
0.0013497
0.000670318
-0.00621138
0.00939079
-0.00519942
-0.0120232
0.0171403
-0.0113285
-0.0188537
0.0237966
-0.0169661
-0.0261146
0.0306724
-0.0234115
-0.0332518
0.0385329
-0.0313958
-0.0395954
0.0472424
-0.0408988
-0.0442588
0.0562707
-0.0516073
-0.0461773
0.0648499
-0.0629314
-0.0441948
0.0719402
-0.0739227
-0.0372583
0.076322
-0.0832585
-0.0245223
0.0765739
-0.08931
-0.00557933
0.0714254
-0.0903684
0.0202133
0.0589716
-0.0847642
0.0424296
0.0502428
-0.0724592
-0.000850299
0.00219999
-0.00283594
0.0113764
-0.00604334
0.0203477
-0.00989499
0.0276483
-0.0134755
0.0342529
-0.0159246
0.0409821
-0.0164378
0.0477556
-0.0141325
0.0539654
-0.00803793
0.0587553
0.0027467
0.0611555
0.0189037
0.0601649
0.0411166
0.054361
0.0679475
0.0445946
0.100818
0.0261014
0.00761259
0.135635
0.000293725
0.00190627
0.000724753
0.0109454
0.000721863
0.0203506
0.000518749
0.0278514
0.00109149
0.0336802
0.00352991
0.0385437
0.00876503
0.0425205
0.01761
0.0451204
0.0306039
0.0457614
0.0485953
0.0431641
0.070826
0.0379343
0.0984509
0.0267361
0.129422
0.0136232
0.163557
-0.00803322
-0.0317819
0.202951
0.000878244
0.00102803
0.0030162
0.00880744
0.00575229
0.0176145
0.00896616
0.0246375
0.013326
0.0293203
0.0198504
0.0320193
0.0294363
0.0329346
0.0428211
0.0317356
0.0599835
0.028599
0.081783
0.0213646
0.106786
0.0129315
0.136352
-0.00283052
0.17003
-0.0200546
0.206431
-0.0444339
-0.0750637
0.249713
0.000723815
0.000304211
0.00314983
0.00638143
0.00708488
0.0136794
0.0123211
0.0194013
0.0191227
0.0225187
0.0281254
0.0230166
0.039969
0.021091
0.0551835
0.0165211
0.0742507
0.00953177
0.0975654
-0.0019501
0.125938
-0.0154408
0.159868
-0.0367611
0.198809
-0.0589955
0.243847
-0.0894716
-0.122429
0.291212
-6.66925e-05
0.000370903
0.00122058
0.00509416
0.00436626
0.0105337
0.00939991
0.0143677
0.0164297
0.015489
0.0259971
0.0134492
0.039018
0.00807005
0.0565957
-0.00105661
0.0803937
-0.0142662
0.110054
-0.0316101
0.147729
-0.0531159
0.19006
-0.0790927
0.236655
-0.10559
0.283716
-0.136533
-0.160684
0.321972
-0.00113639
0.00150729
-0.00171167
0.00566945
-0.00041557
0.00923763
0.00332939
0.0106227
0.0104849
0.00833345
0.0226274
0.00130673
0.0412914
-0.010594
0.0674892
-0.0272544
0.101393
-0.0481697
0.141218
-0.0714352
0.185476
-0.0973741
0.228188
-0.121804
0.26871
-0.146113
0.298111
-0.165934
-0.177705
0.315132
-0.00185359
-0.00349159
-0.00275447
0.0023614
0.0140807
0.0339979
0.0625818
0.0983045
0.138017
0.178328
0.214338
0.242848
0.261556
0.26849
0.275722
0.108503
0.0208036
-0.0790634
0.157078
-0.139687
0.0911114
0.178747
-0.286998
0.26533
0.196959
-0.36372
0.345508
0.189995
-0.335558
0.342523
0.147498
-0.347896
0.390393
0.13822
-0.297451
0.306729
0.184373
-0.134108
0.0879548
0.234064
0.133524
-0.183215
0.263545
0.243507
-0.272988
0.258519
0.313686
-0.308661
0.239758
0.434473
-0.415712
0.237167
0.342892
-0.340301
0.261543
0.242092
-0.266468
0.274921
-0.0244468
0.0110685
0.283101
-0.250735
0.242555
0.291037
-0.406549
0.398613
0.293538
-0.569032
0.566531
0.289629
-0.270174
0.274083
0.301248
-0.0419091
0.0302898
0.31382
0.368791
-0.381363
0.313709
0.721624
-0.721513
0.307868
0.318391
-0.312551
0.315019
0.00555923
-0.0127104
0.313853
-0.481079
0.482246
0.32069
-0.934189
0.927352
0.316818
0.112906
-0.109033
0.306663
0.980654
-0.9705
0.29042
0.217438
-0.201196
0.28034
-0.499297
0.509378
0.276927
-0.15734
0.160753
0.27149
0.172138
-0.166702
0.267157
0.0687914
-0.0644589
0.264674
-0.0311056
0.0335893
0.262432
-0.0118281
0.0140701
0.260009
0.0113385
-0.00891561
0.257622
0.00919407
-0.00680686
0.00615214
-0.00397045
0.176351
-0.0199124
0.212007
-0.175343
0.217043
-0.292034
0.2062
-0.352877
0.189953
-0.319312
0.147326
-0.305268
0.125288
-0.275413
0.16661
-0.17543
0.227978
0.0721558
0.259935
0.21155
0.253301
0.32032
0.232369
0.455406
0.229231
0.34603
0.261731
0.209593
0.274843
-0.0375595
0.279559
-0.25545
0.283225
-0.410215
0.284069
-0.569875
0.284352
-0.270457
0.296741
-0.0542984
0.315973
0.349559
0.318868
0.718729
0.308751
0.328509
0.313518
0.000792517
0.304647
-0.472209
0.306556
-0.936098
0.315224
0.104238
0.312891
0.982986
0.29302
0.23731
0.27799
-0.484267
0.27509
-0.154439
0.271713
0.175515
0.26774
0.0727652
0.26501
-0.0283762
0.262785
-0.00960237
0.260581
0.0135417
0.258397
0.0113782
0.00815633
0.230584
-0.0475452
0.244979
-0.189738
0.236999
-0.284054
0.209513
-0.325391
0.186726
-0.296525
0.152798
-0.27134
0.128816
-0.251431
0.158283
-0.204897
0.221445
0.00899452
0.259885
0.173109
0.262573
0.317632
0.241388
0.476591
0.229917
0.357501
0.260507
0.179003
0.27326
-0.0503127
0.274154
-0.256344
0.271465
-0.407527
0.269978
-0.568389
0.276069
-0.276548
0.288625
-0.0668536
0.313837
0.324347
0.320958
0.711608
0.307545
0.341921
0.308216
0.000120934
0.291461
-0.455453
0.288393
-0.93303
0.310371
0.0822596
0.316153
0.977204
0.293814
0.25965
0.273508
-0.463962
0.271301
-0.152232
0.27012
0.176696
0.266701
0.0761839
0.263909
-0.0255841
0.261873
-0.00756658
0.26007
0.0153445
0.258281
0.0131676
0.00979518
0.27519
-0.0730223
0.273389
-0.187938
0.246775
-0.257439
0.207941
-0.286557
0.182225
-0.270809
0.157088
-0.246204
0.139552
-0.233895
0.161452
-0.226797
0.223214
-0.0527674
0.262075
0.134247
0.261411
0.318296
0.239153
0.498849
0.228394
0.36826
0.256141
0.151256
0.268482
-0.0626539
0.265103
-0.252965
0.255517
-0.397941
0.251763
-0.564634
0.264963
-0.289749
0.277551
-0.0794412
0.305881
0.296017
0.317313
0.700176
0.302527
0.356708
0.299096
0.00355203
0.27574
-0.432098
0.267942
-0.925231
0.301136
0.0490661
0.314614
0.963726
0.291462
0.282802
0.267143
-0.439643
0.265752
-0.150841
0.266753
0.175694
0.26407
0.0788669
0.261424
-0.0229378
0.259757
-0.00589966
0.258526
0.0165758
0.25731
0.0143839
0.0108918
0.306991
-0.0888015
0.289909
-0.170856
0.250478
-0.218008
0.207523
-0.243602
0.179421
-0.242707
0.159154
-0.225937
0.142576
-0.217317
0.158603
-0.242825
0.221197
-0.115361
0.261755
0.0936886
0.270858
0.309194
0.257783
0.511923
0.241154
0.38489
0.254756
0.137654
0.261667
-0.069565
0.25407
-0.245369
0.237428
-0.381299
0.230398
-0.557604
0.249353
-0.308704
0.262858
-0.0929465
0.295038
0.263837
0.312218
0.682996
0.295817
0.373109
0.287537
0.0118318
0.258186
-0.402747
0.24581
-0.912856
0.289328
0.00554877
0.311063
0.941991
0.286525
0.307339
0.259571
-0.412688
0.258872
-0.150142
0.261869
0.172696
0.260024
0.0807124
0.257706
-0.0206201
0.256564
-0.00475784
0.25605
0.0170901
0.255562
0.0148725
0.0112872
0.316436
-0.083265
0.284101
-0.138522
0.240657
-0.174564
0.202034
-0.204979
0.176027
-0.2167
0.158879
-0.20879
0.139272
-0.197709
0.13994
-0.243493
0.203596
-0.179016
0.256223
0.041062
0.276086
0.28933
0.266705
0.521304
0.245513
0.406081
0.250401
0.132766
0.252287
-0.0714512
0.241775
-0.234856
0.218908
-0.358432
0.208311
-0.547007
0.230622
-0.331014
0.245339
-0.107663
0.278621
0.230555
0.29989
0.661727
0.28527
0.387729
0.273939
0.0231629
0.239769
-0.368577
0.223565
-0.896652
0.2734
-0.044286
0.302264
0.913127
0.278308
0.331295
0.250795
-0.385175
0.250752
-0.150099
0.255548
0.167901
0.254683
0.0815766
0.252912
-0.0188491
0.252445
-0.00429065
0.252774
0.0167609
0.253144
0.0145023
0.0108427
0.295317
-0.0634494
0.261388
-0.104593
0.224002
-0.137178
0.19004
-0.171017
0.167275
-0.193935
0.152927
-0.194441
0.135608
-0.18039
0.116379
-0.224264
0.164538
-0.227176
0.238909
-0.0333093
0.276283
0.251957
0.277904
0.519683
0.258184
0.425801
0.246681
0.14427
0.239619
-0.0643892
0.226094
-0.221331
0.199494
-0.331831
0.185281
-0.532794
0.208313
-0.354046
0.225461
-0.124812
0.263039
0.192977
0.289334
0.635432
0.27525
0.401813
0.260196
0.0382162
0.221355
-0.329735
0.201077
-0.876374
0.257499
-0.100709
0.293889
0.876738
0.269301
0.355882
0.241642
-0.357516
0.241979
-0.150436
0.248242
0.161638
0.248347
0.0814707
0.24727
-0.0177718
0.247601
-0.00462133
0.248863
0.0154984
0.250194
0.0131717
0.00944337
0.258762
-0.0464888
0.234916
-0.0807472
0.20846
-0.110722
0.178512
-0.14107
0.155482
-0.170905
0.14276
-0.181719
0.12928
-0.166911
0.103072
-0.198055
0.117736
-0.24184
0.187059
-0.102632
0.255359
0.183657
0.280263
0.494779
0.259909
0.446155
0.242829
0.161349
0.229612
-0.0511722
0.212239
-0.203958
0.180998
-0.300589
0.161851
-0.513648
0.183244
-0.375439
0.201208
-0.142776
0.240307
0.153878
0.270389
0.605349
0.261789
0.410414
0.246548
0.0534565
0.203961
-0.287147
0.178612
-0.851025
0.237313
-0.15941
0.27952
0.834531
0.257848
0.377554
0.231504
-0.331172
0.232482
-0.151414
0.239906
0.154214
0.241168
0.0802092
0.240991
-0.0175954
0.242225
-0.00585497
0.244493
0.0132305
0.246858
0.0108068
0.00699534
0.499311
-0.0367392
-0.50906
0.488371
-0.069807
0.470002
-0.0923529
0.445444
-0.116512
0.418078
-0.143539
0.38712
-0.150761
0.365834
-0.145625
0.328299
-0.16052
0.271229
-0.184771
0.25037
-0.0817726
0.255269
0.178758
0.272696
0.477351
0.340426
0.378425
0.413866
0.0879091
0.443386
-0.0806921
0.445014
-0.205587
0.429513
-0.285089
0.38303
-0.467165
0.354564
-0.346973
0.32067
-0.108882
0.307943
0.166606
0.333238
0.580053
0.385009
0.358643
0.423505
0.0149606
0.403726
-0.267368
0.332053
-0.779353
0.332201
-0.159558
0.374346
0.792386
0.399552
0.352348
0.376347
-0.307967
0.357553
-0.132621
0.360124
0.151643
0.364009
0.0763236
0.362431
-0.0160174
0.360527
-0.0039501
0.360365
0.013392
0.360385
0.0107871
0.00712922
0.522059
-0.0285303
-0.530268
0.507873
-0.0556209
0.488658
-0.0731381
0.465677
-0.093532
0.436661
-0.114523
0.40051
-0.114609
0.373955
-0.11907
0.350017
-0.136582
0.292928
-0.127682
0.233846
-0.0226906
0.238353
0.174251
0.311794
0.40391
0.422609
0.26761
0.487754
0.0227642
0.498299
-0.0912372
0.483384
-0.190671
0.449348
-0.251053
0.396814
-0.414631
0.35406
-0.304218
0.312631
-0.0674532
0.305402
0.173835
0.347207
0.538248
0.418392
0.287458
0.460434
-0.0270809
0.421515
-0.22845
0.339788
-0.697626
0.338597
-0.158366
0.391741
0.739242
0.427171
0.316918
0.403758
-0.284554
0.381388
-0.110251
0.385043
0.147989
0.390679
0.0706872
0.389329
-0.0146679
0.387332
-0.00195246
0.38729
0.0134336
0.387479
0.0105979
0.00718569
0.54958
-0.0229874
-0.555123
0.538777
-0.0448177
0.524846
-0.0592075
0.504927
-0.0736123
0.479621
-0.0892174
0.455969
-0.0909571
0.424745
-0.0878456
0.382854
-0.0946911
0.335894
-0.0807221
0.291702
0.0215019
0.310455
0.155498
0.421242
0.293123
0.528232
0.16062
0.557441
-0.00644535
0.545982
-0.0797775
0.526772
-0.171462
0.487257
-0.211537
0.415797
-0.343172
0.344058
-0.23248
0.288673
-0.0120682
0.292721
0.169787
0.368549
0.46242
0.459354
0.196653
0.502277
-0.0700045
0.453284
-0.179456
0.344896
-0.589238
0.333162
-0.146632
0.408496
0.663907
0.461022
0.264391
0.433994
-0.257525
0.407585
-0.0838415
0.412819
0.142755
0.419919
0.0635868
0.418377
-0.0131256
0.416141
0.0002833
0.416217
0.0133579
0.416568
0.0102468
0.00717083
0.582215
-0.0184398
-0.586762
0.571937
-0.03454
0.556625
-0.0438957
0.539115
-0.0561018
0.516301
-0.0664039
0.492475
-0.0671306
0.470451
-0.0658225
0.439744
-0.0639834
0.405192
-0.0461706
0.390478
0.0362163
0.434312
0.111664
0.534353
0.193082
0.601313
0.0936602
0.607751
-0.0128825
0.58372
-0.0557466
0.550495
-0.138236
0.506777
-0.167819
0.426411
-0.262806
0.336264
-0.142333
0.278592
0.0456034
0.298689
0.14969
0.407484
0.353625
0.504995
0.0991427
0.540587
-0.105596
0.487483
-0.126352
0.352175
-0.45393
0.323842
-0.1183
0.434435
0.553315
0.503548
0.195278
0.465316
-0.219292
0.432435
-0.0509605
0.442361
0.132829
0.45248
0.0534678
0.45061
-0.0112561
0.448094
0.00279974
0.448447
0.0130048
0.449119
0.00957446
0.00700282
0.617676
-0.0135668
-0.622549
0.608657
-0.025521
0.597333
-0.0325716
0.582713
-0.0414816
0.56478
-0.0484715
0.54598
-0.0483308
0.525922
-0.0457641
0.50282
-0.0408812
0.479974
-0.0233248
0.485663
0.0305276
0.531839
0.0654872
0.60431
0.120612
0.640903
0.0570666
0.637462
-0.00944069
0.622772
-0.0410569
0.595867
-0.111332
0.554164
-0.126117
0.473839
-0.18248
0.39152
-0.0600133
0.351208
0.0859153
0.376569
0.124329
0.488181
0.242013
0.562383
0.0249413
0.584797
-0.128011
0.54314
-0.084695
0.386334
-0.297124
0.340408
-0.0723731
0.482978
0.410744
0.557024
0.121232
0.502303
-0.164572
0.464245
-0.0129025
0.481697
0.115378
0.495125
0.0400397
0.491543
-0.00767398
0.488217
0.00612568
0.488767
0.0124549
0.489583
0.00875793
0.00684675
0.659491
-0.00986752
-0.66319
0.652454
-0.0184835
0.642802
-0.0229206
0.630953
-0.029632
0.615691
-0.0332099
0.600961
-0.0336004
0.585814
-0.0306169
0.57071
-0.0257772
0.559556
-0.012171
0.570188
0.0198956
0.599323
0.0363517
0.647824
0.0721108
0.675603
0.0292875
0.669896
-0.00373353
0.654901
-0.0260618
0.627912
-0.0843425
0.596017
-0.0942221
0.533931
-0.120394
0.483452
-0.00953493
0.481686
0.0876813
0.511568
0.0944473
0.600424
0.153157
0.633047
-0.00768112
0.623798
-0.118762
0.60005
-0.0609473
0.458276
-0.15535
0.399846
-0.0139432
0.548395
0.262195
0.614699
0.054928
0.549926
-0.0997983
0.513861
0.0231621
0.539452
0.0897867
0.55338
0.0261113
0.547067
-0.00136085
0.543043
0.0101497
0.543663
0.0118353
0.544173
0.00824799
0.00707458
0.707867
-0.00667358
-0.711061
0.701884
-0.0125003
0.69427
-0.0153065
0.68494
-0.0203027
0.673483
-0.0217524
0.662979
-0.0230963
0.651928
-0.019566
0.642735
-0.0165842
0.637136
-0.00657231
0.645507
0.0115247
0.663663
0.0181957
0.694895
0.0408794
0.710099
0.0140835
0.709702
-0.003337
0.706634
-0.0229939
0.679353
-0.0570609
0.646656
-0.0615256
0.601939
-0.0756768
0.58495
0.00745432
0.609694
0.0629366
0.636778
0.0673637
0.698492
0.0914425
0.70664
-0.0158283
0.668437
-0.0805599
0.656713
-0.0492226
0.573326
-0.0719635
0.521504
0.037879
0.633984
0.149716
0.680311
0.0086003
0.620434
-0.0399205
0.592912
0.0506834
0.619796
0.0629031
0.630132
0.0157758
0.621818
0.00695281
0.617552
0.014416
0.617673
0.011714
0.617221
0.0086995
0.00812949
0.762641
-0.00396695
-0.765347
0.758088
-0.00794744
0.752309
-0.00952793
0.745375
-0.0133687
0.737179
-0.0135564
0.729436
-0.015353
0.721957
-0.0120867
0.716138
-0.0107654
0.713653
-0.00408761
0.719869
0.00530888
0.729648
0.00841703
0.7492
0.021327
0.759802
0.00348137
0.757976
-0.00151039
0.753031
-0.0180492
0.733714
-0.0377438
0.712417
-0.0402288
0.682824
-0.0460843
0.680507
0.00977162
0.708076
0.0353675
0.726722
0.0487175
0.761349
0.056816
0.760576
-0.0150556
0.725242
-0.0452261
0.716393
-0.0403727
0.678156
-0.0337266
0.65748
0.0585551
0.724942
0.0822529
0.743008
-0.00946531
0.699551
0.00353657
0.688801
0.0614333
0.710537
0.0411669
0.714708
0.0116052
0.70711
0.0145502
0.704225
0.0173009
0.703966
0.0119735
0.702792
0.00987323
0.00969504
0.824515
-0.00191818
-0.826564
0.82113
-0.00456291
0.817055
-0.00545223
0.81197
-0.00828369
0.806397
-0.00798336
0.800862
-0.00981879
0.7961
-0.00732422
0.792444
-0.00710906
0.791344
-0.00298816
0.794842
0.00181149
0.800631
0.00262743
0.811845
0.0101134
0.816459
-0.00113286
0.816993
-0.00204417
0.813556
-0.0146123
0.799648
-0.0238359
0.784032
-0.0246133
0.765443
-0.0274955
0.767539
0.00767631
0.784363
0.0185435
0.800292
0.0327879
0.82314
0.0339681
0.818722
-0.0106374
0.794196
-0.0207002
0.781156
-0.0273325
0.764409
-0.0169796
0.771901
0.0510628
0.807523
0.0466309
0.802699
-0.00464086
0.780667
0.0255689
0.786802
0.0552976
0.800172
0.0277971
0.798546
0.013231
0.793833
0.0192635
0.793168
0.0179658
0.792745
0.0123965
0.791393
0.0112252
0.0111537
0.893876
-0.000409147
-0.895385
0.891469
-0.0021555
0.888686
-0.00266988
0.885084
-0.00468083
0.881493
-0.00439274
0.877593
-0.00591852
0.874623
-0.0043545
0.872105
-0.00459059
0.871497
-0.00238094
0.873377
-6.83119e-05
0.876161
-0.000156857
0.882384
0.00389106
0.884396
-0.00314536
0.884672
-0.00231986
0.880578
-0.010518
0.871465
-0.0147232
0.861898
-0.0150461
0.850333
-0.0159304
0.853063
0.00494585
0.862386
0.00922076
0.873846
0.0213278
0.887217
0.0205972
0.882532
-0.00595278
0.870533
-0.00870118
0.859802
-0.0166016
0.849532
-0.00670947
0.862052
0.0385425
0.879545
0.0291377
0.87152
0.00338488
0.866694
0.0303945
0.877438
0.0445541
0.882394
0.0228412
0.879576
0.0160487
0.878693
0.0201458
0.879315
0.0173438
0.878706
0.0130064
0.877675
0.0122562
0.0121149
0.970941
0.000624251
-0.971974
0.969291
-0.000506045
0.967494
-0.000872813
0.965025
-0.00221135
0.962753
-0.00212135
0.960047
-0.00321178
0.958151
-0.00245872
0.956359
-0.0027984
0.955822
-0.0018441
0.956562
-0.000808355
0.957679
-0.00127381
0.960782
0.00078793
0.960779
-0.00314245
0.961011
-0.00255186
0.957776
-0.00728302
0.95205
-0.00899745
0.946039
-0.00903513
0.938967
-0.00885856
0.940974
0.00293904
0.945204
0.00499111
0.953676
0.0128552
0.962198
0.0120759
0.958334
-0.00208862
0.952019
-0.00238645
0.942878
-0.00746095
0.936504
-0.000334795
0.948639
0.0264073
0.957447
0.0203295
0.951045
0.00978653
0.953108
0.0283323
0.962653
0.0350088
0.96429
0.0212036
0.962803
0.0175364
0.963745
0.0192031
0.964556
0.0165335
0.964105
0.0134568
0.96357
0.0127916
0.0125829
1.05599
0.00126187
-1.05662
1.05492
0.000560621
1.05379
0.000252858
1.05218
-0.000601422
1.05075
-0.000684674
1.04894
-0.00140843
1.04767
-0.00118336
1.04639
-0.00151641
1.04577
-0.00122642
1.04585
-0.000889106
1.04591
-0.00133185
1.04717
-0.000474117
1.04663
-0.00260748
1.04636
-0.00227322
1.04386
-0.00478563
1.04016
-0.00530132
1.03637
-0.00524838
1.03223
-0.00471678
1.03349
0.00167712
1.03566
0.00283107
1.04075
0.0077597
1.0453
0.00752388
1.04283
0.00038717
1.03975
0.000685828
1.0342
-0.00190702
1.03055
0.00331344
1.03813
0.0188297
1.04247
0.0159903
1.04019
0.0120701
1.04443
0.0240903
1.0512
0.0282375
1.05196
0.0204446
1.05183
0.0176644
1.0533
0.017734
1.05407
0.0157608
1.05393
0.0136031
1.05374
0.0129814
0.0127801
1.14947
0.00160421
-1.14982
1.14884
0.00119527
1.14816
0.000934938
1.14715
0.000405656
1.14624
0.000225455
1.14508
-0.000246532
1.14418
-0.000281761
1.14324
-0.000576243
1.14261
-0.000596193
1.14231
-0.000593581
1.14193
-0.000953981
1.14217
-0.000713466
1.14136
-0.00179802
1.14078
-0.0016892
1.13894
-0.00295171
1.13665
-0.00300569
1.1343
-0.00290007
1.13191
-0.00232993
1.13251
0.00108453
1.13336
0.00197559
1.1364
0.00472207
1.13896
0.00495812
1.13751
0.00183716
1.13572
0.00248055
1.13218
0.0016339
1.13038
0.00511594
1.13551
0.0137003
1.13823
0.0132624
1.1377
0.0126067
1.14155
0.0202361
1.14666
0.0231253
1.14798
0.0191253
1.14855
0.0171019
1.14988
0.0163978
1.15069
0.0149476
1.1509
0.0133948
1.15096
0.0129195
0.0127767
1.25195
0.00175137
-1.2521
1.25162
0.00152235
1.25125
0.00131142
1.25066
0.000995465
1.25009
0.000795954
1.24935
0.000489421
1.24872
0.000348304
1.24804
0.000106766
1.24746
-2.18774e-05
1.24702
-0.000154361
1.2465
-0.000425128
1.24623
-0.000447069
1.24544
-0.00100898
1.24477
-0.00101771
1.24343
-0.00160819
1.24196
-0.0015433
1.24042
-0.00135773
1.23902
-0.000926552
1.23919
0.000911532
1.23953
0.00163232
1.24107
0.00318684
1.24226
0.00376468
1.24153
0.00256654
1.24067
0.00334055
1.23896
0.00334818
1.23833
0.00574565
1.24123
0.0107986
1.24309
0.0114035
1.24375
0.0119453
1.24723
0.0167538
1.25117
0.0191904
1.25283
0.0174616
1.25383
0.0161032
1.25511
0.0151186
1.25602
0.0140391
1.25647
0.0129394
1.25677
0.0126241
0.0125387
1.3642
0.00176232
-1.36421
1.36408
0.00164679
1.3639
0.00148581
1.36359
0.00130774
1.36326
0.00112564
1.36281
0.000937239
1.36239
0.000773502
1.3619
0.000596301
1.36144
0.000432545
1.36101
0.000281411
1.3605
8.6321e-05
1.36008
-3.11338e-05
1.35938
-0.000308935
1.35876
-0.00040061
1.35777
-0.000612108
1.35681
-0.000589681
1.35581
-0.000356881
1.35494
-4.97979e-05
1.3549
0.000951889
1.35493
0.00159415
1.35567
0.0024534
1.35628
0.00315186
1.35597
0.00288029
1.35564
0.00366638
1.35483
0.00415924
1.35479
0.00578643
1.35681
0.00877588
1.35842
0.00979562
1.35942
0.0109489
1.36219
0.0139775
1.36542
0.0159662
1.36735
0.0155237
1.36871
0.0147493
1.36997
0.0138557
1.37096
0.0130456
1.37162
0.0122839
1.37215
0.0120914
0.0120791
1.48709
0.00168614
-1.48701
1.48709
0.00164073
1.48706
0.00152243
1.48693
0.00143435
1.48677
0.0012835
1.48653
0.00118137
1.48627
0.00102888
1.48595
0.000916448
1.48562
0.000764985
1.48527
0.000633297
1.48486
0.000493973
1.48447
0.000356142
1.48393
0.000238452
1.48342
0.000107875
1.48272
9.04404e-05
1.48206
6.22397e-05
1.48141
0.000299088
1.48084
0.000514664
1.48071
0.00108062
1.48066
0.00164395
1.48099
0.0021267
1.4813
0.00284778
1.48122
0.00295188
1.48121
0.00368127
1.48106
0.00430896
1.48141
0.00543513
1.4828
0.00739141
1.48414
0.00845153
1.48549
0.00960152
1.48775
0.011713
1.49041
0.0133107
1.49243
0.0134956
1.49404
0.0131397
1.4954
0.0125011
1.49653
0.0119111
1.49733
0.0114829
1.49806
0.0113673
0.0113449
1.62159
0.00154654
-1.62145
1.62168
0.00154493
1.62174
0.00146075
1.62175
0.00143268
1.62172
0.00131407
1.62162
0.00127322
1.62151
0.00114513
1.62134
0.00108596
1.62114
0.000963431
1.62091
0.000866993
1.62062
0.000775278
1.62034
0.000643343
1.61996
0.000617929
1.61959
0.000472073
1.61914
0.000548087
1.61871
0.000492623
1.6183
0.000705941
1.61793
0.000882087
1.61781
0.00119712
1.61775
0.00170863
1.61791
0.00196807
1.61812
0.00263145
1.61822
0.00285783
1.61844
0.00345513
1.61862
0.00413767
1.61915
0.00489999
1.62032
0.00622242
1.62156
0.00720796
1.62297
0.00819362
1.62486
0.00982197
1.62712
0.0110567
1.62918
0.0114288
1.63086
0.0114674
1.63236
0.0109923
1.63372
0.0105528
1.63467
0.0105382
1.63554
0.0104909
0.0104004
1.76878
0.00136177
-1.76859
1.76894
0.00138399
1.76907
0.00132718
1.76917
0.00133362
1.76924
0.00124673
1.76927
0.0012431
1.76927
0.00114686
1.76923
0.00112254
1.76916
0.00103599
1.76906
0.000968505
1.76891
0.000923554
1.76875
0.000806394
1.76853
0.000834838
1.7683
0.00069781
1.76804
0.000808853
1.76778
0.000754261
1.76757
0.000921947
1.76736
0.00108668
1.76732
0.00124153
1.76732
0.00170885
1.76746
0.00182182
1.7677
0.00239728
1.7679
0.0026551
1.76828
0.00307671
1.76864
0.00377379
1.76933
0.00420782
1.77036
0.00519184
1.77148
0.00609053
1.77296
0.00671379
1.77462
0.00816133
1.77659
0.00909242
1.77865
0.0093681
1.7803
0.00981229
1.78196
0.00933683
1.7836
0.00890898
1.78468
0.00945695
1.78568
0.00949328
0.00922806
1.92984
0.00113908
-1.92962
1.93006
0.00116585
1.93025
0.00113526
1.93044
0.00115155
1.93058
0.00110049
1.93072
0.00110824
1.93081
0.00105244
1.93089
0.001042
1.93093
0.000997779
1.93095
0.000951425
1.93093
0.000944243
1.93087
0.000858871
1.9308
0.000904641
1.9307
0.000805886
1.9306
0.000899833
1.93048
0.000878516
1.93043
0.000973845
1.93037
0.00114205
1.93043
0.00118218
1.93055
0.00158779
1.93075
0.00162158
1.93108
0.00207337
1.93139
0.00234251
1.93189
0.00258061
1.93239
0.00327211
1.93312
0.00347143
1.93409
0.00422325
1.93516
0.00502303
1.93659
0.0052845
1.93816
0.00659528
1.94004
0.007212
1.94205
0.00735205
1.94372
0.00813999
1.94543
0.00762839
1.94717
0.00717547
1.94851
0.00811468
1.94976
0.00823838
0.00784894
2.10611
0.00088774
-2.10585
2.10636
0.00090838
2.1066
0.00090015
2.10684
0.000912698
2.10704
0.000893466
2.10725
0.000899591
2.10743
0.000878883
2.10759
0.000874061
2.10773
0.000860428
2.10785
0.000836115
2.10795
0.000842784
2.10801
0.000800602
2.10808
0.000833948
2.10809
0.000789793
2.10815
0.000840946
2.10818
0.000854866
2.10825
0.000896198
2.10836
0.00103128
2.10851
0.00103928
2.10878
0.00131897
2.10904
0.0013531
2.10946
0.00165516
2.10991
0.00189102
2.11044
0.00205568
2.11112
0.00258957
2.11185
0.00274058
2.1128
0.00327614
2.11394
0.00388137
2.11521
0.00401826
2.11685
0.00495649
2.11869
0.00536441
2.12054
0.00551011
2.12245
0.00622825
2.12416
0.00591282
2.1257
0.0056425
2.12742
0.00638647
2.12914
0.00652081
0.00624505
2.299
0.00061522
-2.29873
2.29928
0.000629482
2.29955
0.000632011
2.29982
0.000640989
2.30008
0.000637789
2.30034
0.000643174
2.30058
0.000638682
2.30081
0.000639423
2.30103
0.000636568
2.30124
0.000629987
2.30145
0.000634435
2.30163
0.000623253
2.30182
0.000638194
2.30198
0.000629969
2.30217
0.000652369
2.30235
0.000674175
2.30255
0.0006994
2.3028
0.000778478
2.30304
0.000800698
2.30341
0.000951435
2.30376
0.00100086
2.30424
0.00117755
2.30479
0.00133348
2.30537
0.00147696
2.30618
0.00178142
2.30698
0.00194413
2.30798
0.00226919
2.30923
0.0026338
2.31045
0.00279979
2.3121
0.00330644
2.31388
0.00358516
2.31563
0.00376453
2.31769
0.0041647
2.3195
0.00410143
2.32108
0.0040651
2.32306
0.00439984
2.3251
0.00448938
0.00441079
2.51017
0.000320058
-2.50987
2.51047
0.000327649
2.51077
0.000331627
2.51108
0.000336508
2.51138
0.000338085
2.51168
0.000341224
2.51197
0.000342084
2.51227
0.000343503
2.51256
0.000344327
2.51285
0.000343607
2.51314
0.000346296
2.51342
0.000345457
2.5137
0.000351136
2.51398
0.000353557
2.51427
0.000361934
2.51457
0.000377234
2.51488
0.000388895
2.51523
0.000427835
2.51558
0.000443751
2.51602
0.000511781
2.51648
0.000544959
2.51703
0.000627318
2.51766
0.000706476
2.51835
0.000786287
2.5192
0.000925087
2.52013
0.00102176
2.52122
0.00117729
2.5225
0.00135144
2.52384
0.00145986
2.52546
0.00168676
2.52721
0.0018307
2.52904
0.00194162
2.53108
0.00212087
2.53305
0.00213038
2.53496
0.00215769
2.53707
0.00228749
2.53923
0.00233347
0.00232487
2.74149
-2.74117
2.74182
2.74215
2.74249
2.74282
2.74316
2.74351
2.74385
2.74419
2.74454
2.74488
2.74523
2.74558
2.74593
2.7463
2.74667
2.74706
2.74749
2.74793
2.74845
2.74899
2.74962
2.75032
2.75111
2.75204
2.75306
2.75424
2.75559
2.75705
2.75873
2.76056
2.76251
2.76463
2.76676
2.76891
2.7712
2.77354
0.436669
0.0411031
-0.429543
0.445895
0.0684187
0.4534
0.0996589
0.46361
0.125807
0.472408
0.156814
0.48427
0.180708
0.497482
0.210175
0.233636
0.468025
0.0348204
-0.461742
0.47572
0.0607235
0.482988
0.0923907
0.491459
0.117336
0.500463
0.14781
0.509527
0.171644
0.519971
0.199731
0.22334
0.503121
0.029472
-0.497773
0.508875
0.0549697
0.515124
0.0861417
0.521667
0.110793
0.528688
0.140789
0.535731
0.164601
0.544473
0.190988
0.21269
0.54103
0.0249051
-0.536463
0.545362
0.0506382
0.550426
0.0810778
0.555526
0.105692
0.561873
0.134442
0.569212
0.157263
0.578022
0.182178
0.203949
0.582618
0.0213551
-0.579068
0.586116
0.0471401
0.590764
0.0764298
0.595848
0.100608
0.602083
0.128207
0.608397
0.15095
0.615118
0.175457
0.196519
0.628593
0.0183918
-0.625629
0.631693
0.0440393
0.635896
0.0722276
0.640062
0.0964411
0.644909
0.12336
0.649817
0.146041
0.656091
0.169182
0.18942
0.679083
0.0160888
-0.67678
0.681503
0.0416194
0.684884
0.0688461
0.688314
0.0930107
0.693005
0.11867
0.698301
0.140746
0.704597
0.162886
0.182956
0.734673
0.0143593
-0.732943
0.736715
0.0395767
0.739943
0.0656186
0.743515
0.0894389
0.748307
0.113878
0.753333
0.135719
0.759056
0.157163
0.176665
0.796304
0.0129832
-0.794927
0.79824
0.0376401
0.801308
0.0625507
0.804793
0.0859544
0.809262
0.109408
0.814198
0.130784
0.820061
0.1513
0.170162
0.864246
0.0118968
-0.86316
0.866086
0.0358004
0.868995
0.0596412
0.872549
0.0824006
0.877155
0.104802
0.882498
0.125441
0.888641
0.145157
0.163418
0.939098
0.0109881
-0.938189
0.940958
0.0339394
0.943921
0.0566782
0.947745
0.0785775
0.952632
0.0999142
0.958288
0.119786
0.964776
0.138668
0.156219
1.02147
0.0101606