/*--------------------------------*- C++ -*----------------------------------*\
| =========                 |                                                 |
| \\      /  F ield         | OpenFOAM: The Open Source CFD Toolbox           |
|  \\    /   O peration     | Version:  2312                                  |
|   \\  /    A nd           | Website:  www.openfoam.com                      |
|    \\/     M anipulation  |                                                 |
\*---------------------------------------------------------------------------*/
FoamFile
{
    version     2.0;
    format      ascii;
    arch        "LSB;label=32;scalar=64";
    class       volVectorField;
    location    "52";
    object      U;
}
// * * * * * * * * * * * * * * * * * * * * * * * * * * * * * * * * * * * * * //

dimensions      [0 1 -1 0 0 0 0];

internalField   nonuniform List<vector> 
5478
(
(-0.0302227 0.0236022 -1.14554e-19)
(-0.0398581 0.0434422 0)
(0.00721161 0.0451554 1.73336e-19)
(0.117249 0.0338636 -3.04533e-19)
(0.296758 0.0192484 2.00967e-19)
(0.530232 0.00726246 -5.87004e-20)
(0.780949 -0.000666656 -1.04945e-19)
(1.01091 -0.00719338 0)
(1.19003 -0.0144271 0)
(1.30458 -0.0277642 1.3545e-19)
(1.35382 -0.044229 -6.32391e-20)
(1.34841 -0.0616896 -1.0093e-19)
(1.31152 -0.0887584 -3.7692e-20)
(1.26374 -0.0857026 0)
(1.20405 -0.132229 8.95492e-20)
(-0.0333482 0.0197921 2.29559e-19)
(-0.021651 0.0241467 0)
(0.0765035 0.0149066 0)
(0.271842 0.0046427 -1.52391e-19)
(0.541824 0.00363394 2.01249e-19)
(0.825846 0.0112505 5.8749e-20)
(1.06836 0.0208134 -1.00441e-19)
(1.23815 0.0257342 8.90626e-20)
(1.32961 0.0213146 2.19495e-19)
(1.35518 0.00838467 -1.91689e-19)
(1.33833 -0.00842317 4.84742e-21)
(1.30483 -0.0292227 0)
(1.27268 -0.0404457 3.76262e-20)
(1.24267 -0.0530269 0)
(1.22341 -0.0643383 0)
(-0.0319551 0.0159893 -6.14025e-22)
(0.0223477 0.00741616 -1.06079e-19)
(0.208222 -0.00302194 4.50925e-22)
(0.508474 0.0035346 0)
(0.8309 0.0245729 -6.68995e-20)
(1.09104 0.0469151 5.69468e-20)
(1.25509 0.0602629 4.82193e-20)
(1.32973 0.0606645 0)
(1.3427 0.0505022 -7.26386e-20)
(1.32649 0.0357765 6.11016e-20)
(1.30439 0.0194288 5.08953e-20)
(1.28578 0.00861807 0)
(1.26594 -0.00436989 0)
(1.24689 -0.00850614 -1.01253e-19)
(1.21851 -0.0210598 9.01963e-20)
(-0.021197 0.00967651 -1.23028e-19)
(0.105439 -0.00804309 1.04734e-19)
(0.409815 -0.000822893 -9.05465e-20)
(0.780531 0.0334925 7.91575e-20)
(1.0769 0.0689809 1.33533e-19)
(1.25219 0.0902544 -1.12694e-19)
(1.32573 0.0948517 -4.81934e-20)
(1.33948 0.0878659 3.81657e-20)
(1.32994 0.0763513 -3.61579e-20)
(1.31518 0.0634356 0)
(1.29863 0.0528631 0)
(1.27694 0.0398627 -7.15367e-20)
(1.25297 0.0314165 9.27261e-20)
(1.22603 0.0209029 -5.20929e-20)
(1.20065 0.00945624 0)
(0.00392661 0.000754496 6.21496e-20)
(0.239555 -0.0144309 5.25887e-20)
(0.653461 0.029693 -1.87816e-19)
(1.01599 0.0843273 2.21608e-21)
(1.23074 0.118012 -2.12378e-21)
(1.32178 0.129107 -1.28842e-21)
(1.34368 0.126043 4.47906e-20)
(1.33737 0.117049 3.86717e-20)
(1.32094 0.105573 2.8071e-20)
(1.29964 0.0938343 -3.96224e-21)
(1.27541 0.0805663 -6.45517e-20)
(1.25261 0.0693989 0)
(1.23179 0.058852 2.94385e-20)
(1.2139 0.0483732 -2.18517e-20)
(1.19834 0.0433867 3.9373e-20)
(0.0497379 -0.00771658 -1.32089e-19)
(0.422644 0.00368869 1.4318e-19)
(0.880704 0.0842394 -4.88546e-20)
(1.17734 0.142023 3.74973e-20)
(1.31094 0.165366 -6.85388e-20)
(1.34871 0.167282 -5.1802e-20)
(1.34418 0.159424 1.04792e-21)
(1.32446 0.147528 0)
(1.30103 0.13441 5.66681e-20)
(1.27881 0.12071 -5.03936e-20)
(1.25976 0.108635 2.0468e-20)
(1.24199 0.0969105 0)
(1.22428 0.0867473 1.26847e-20)
(1.20575 0.0765074 -2.23362e-20)
(1.185 0.0695741 0)
(0.120202 -0.00823444 -1.64813e-20)
(0.622064 0.0542647 1.17334e-21)
(1.05563 0.152087 2.41534e-20)
(1.27484 0.20169 4.02239e-20)
(1.34689 0.213217 -3.09452e-20)
(1.34983 0.206633 5.22771e-20)
(1.32945 0.193502 -1.18762e-20)
(1.30538 0.178926 0)
(1.28314 0.164195 -3.31522e-20)
(1.2626 0.150247 1.99814e-21)
(1.24204 0.136422 2.79653e-20)
(1.22181 0.123449 0)
(1.20275 0.111418 -1.85056e-20)
(1.18534 0.0994778 0)
(1.17065 0.0936853 1.15283e-20)
(0.212266 0.00688387 -1.7772e-20)
(0.797315 0.128607 0)
(1.17544 0.227161 2.48111e-20)
(1.32416 0.262815 0)
(1.35141 0.261531 0)
(1.33477 0.246982 0)
(1.30893 0.229547 -1.02127e-20)
(1.28351 0.211923 0)
(1.25973 0.194625 6.65792e-21)
(1.23786 0.177709 0)
(1.21873 0.162061 -8.77631e-21)
(1.20217 0.147628 0)
(1.18729 0.134419 5.81436e-21)
(1.17341 0.122595 0)
(1.15908 0.115138 3.84762e-21)
(-0.010824 0.107777 -1.18706e-20)
(-0.0351097 0.158299 0)
(-0.070349 0.149637 1.87559e-20)
(-0.106692 0.127224 0)
(-0.14257 0.101891 0)
(-0.177742 0.0717206 0)
(-0.211762 0.0336321 -1.25648e-20)
(-0.24289 -0.0147107 0)
(-0.269817 -0.0744383 1.05502e-20)
(-0.291916 -0.145143 0)
(-0.307509 -0.22546 -1.73667e-20)
(-0.314972 -0.311822 0)
(-0.31275 -0.399193 1.35108e-20)
(-0.303197 -0.480529 0)
(-0.277645 -0.553229 9.69922e-21)
(-0.0187113 0.120296 6.07445e-20)
(-0.0410844 0.188006 -4.39913e-20)
(-0.0662778 0.187989 2.08765e-20)
(-0.0906486 0.169367 7.05681e-20)
(-0.113544 0.145852 8.82751e-22)
(-0.134575 0.116936 -5.72058e-20)
(-0.153122 0.0796968 3.82995e-20)
(-0.16845 0.0317798 0)
(-0.178829 -0.0289826 3.47965e-20)
(-0.183248 -0.103083 1.01574e-21)
(-0.181301 -0.188668 -1.94527e-20)
(-0.172943 -0.281701 0)
(-0.155093 -0.378462 -4.37269e-20)
(-0.145774 -0.468475 0)
(-0.105124 -0.54931 -4.87182e-20)
(-0.0257948 0.120889 1.02871e-19)
(-0.0456148 0.202164 2.31799e-20)
(-0.0576572 0.212445 -3.95405e-20)
(-0.0657963 0.198813 -1.09354e-19)
(-0.0707008 0.177771 6.51932e-20)
(-0.0715961 0.150878 6.18735e-20)
(-0.0675137 0.115714 -1.11717e-19)
(-0.0574984 0.0696465 0)
(-0.0409152 0.0105309 -9.8103e-20)
(-0.0162158 -0.0625684 8.72296e-20)
(0.0188957 -0.147198 4.10984e-20)
(0.0560416 -0.241261 0)
(0.11495 -0.331674 3.01911e-20)
(0.138539 -0.424943 -5.31851e-20)
(0.22318 -0.484006 0)
(-0.0303598 0.109321 5.41172e-20)
(-0.0483073 0.197612 -1.41493e-19)
(-0.0475876 0.218349 1.68197e-19)
(-0.0389789 0.210589 -1.50481e-19)
(-0.0245925 0.192282 -6.87227e-20)
(-0.00383719 0.167307 6.2837e-20)
(0.0245622 0.134205 5.68686e-20)
(0.0618703 0.0901638 5.36133e-20)
(0.109451 0.0330701 -1.5092e-19)
(0.169081 -0.0376525 -2.61856e-21)
(0.243661 -0.117922 4.14403e-20)
(0.319108 -0.213058 0)
(0.425044 -0.288638 6.26718e-20)
(0.471997 -0.385498 1.53565e-19)
(0.605095 -0.418868 -8.95337e-20)
(-0.0314453 0.0891024 6.93117e-22)
(-0.0489857 0.175534 9.7325e-20)
(-0.0386294 0.204127 -8.58436e-20)
(-0.0154437 0.202106 7.58841e-20)
(0.0168602 0.186381 1.37616e-19)
(0.0583834 0.162594 -1.25491e-19)
(0.110746 0.130296 -5.74464e-20)
(0.176705 0.0877727 -1.62831e-19)
(0.258984 0.0333052 1.46615e-19)
(0.360367 -0.0351897 0)
(0.478253 -0.108347 0)
(0.598205 -0.19891 1.41306e-19)
(0.735783 -0.260895 -3.06971e-19)
(0.80686 -0.347905 1.05611e-19)
(0.948177 -0.367153 0)
(-0.0297117 0.0658436 3.21929e-22)
(-0.0478321 0.141279 -9.71353e-20)
(-0.0320672 0.17216 2.58604e-19)
(0.00212211 0.173397 -7.62468e-20)
(0.0502863 0.158913 -6.89426e-20)
(0.112754 0.134764 6.26995e-20)
(0.193342 0.102437 5.74726e-20)
(0.297352 0.0613621 1.06206e-19)
(0.425258 0.00910584 -1.87965e-19)
(0.577829 -0.0522944 8.44932e-20)
(0.73423 -0.116495 7.47607e-20)
(0.892978 -0.188378 0)
(1.02392 -0.232236 0)
(1.10577 -0.30215 1.73253e-19)
(1.19314 -0.294798 -1.5403e-19)
(-0.0274195 0.04527 2.42247e-22)
(-0.0461173 0.103176 0)
(-0.0275209 0.129072 0)
(0.0164538 0.129126 1.53109e-19)
(0.0836139 0.113843 -6.76405e-20)
(0.178078 0.089654 6.05059e-20)
(0.305595 0.0584177 1.12281e-19)
(0.465798 0.0207442 -9.95552e-20)
(0.650036 -0.0243378 9.37516e-20)
(0.841888 -0.0690864 -8.45697e-20)
(1.01552 -0.118539 -6.38799e-21)
(1.16173 -0.159435 0)
(1.24849 -0.195173 4.77036e-20)
(1.29333 -0.23203 0)
(1.29141 -0.224589 0)
(-0.0273367 0.0311135 -1.12568e-19)
(-0.0447684 0.0692398 0)
(-0.019856 0.084221 -1.72725e-19)
(0.0432211 0.0790927 3.04177e-19)
(0.149354 0.0624636 -3.36853e-19)
(0.303613 0.0403203 -6.21845e-20)
(0.500076 0.0153754 1.07102e-19)
(0.718418 -0.0102921 0)
(0.933703 -0.0366995 0)
(1.11669 -0.0609104 -1.49125e-19)
(1.25171 -0.0910021 -6.23911e-20)
(1.32755 -0.110034 1.12801e-19)
(1.34071 -0.141971 -4.77962e-20)
(1.32126 -0.154012 0)
(1.25802 -0.159917 -1.05094e-19)
(-0.262696 -0.627949 0)
(-0.176534 -0.632973 3.71856e-21)
(-0.0322164 -0.420024 -3.44664e-21)
(0.252531 -0.00457171 0)
(0.462907 0.431945 0)
(0.537277 0.696205 -9.81332e-23)
(0.652428 0.652093 0)
(0.588763 0.581197 0)
(0.408618 0.560334 5.52617e-23)
(0.467886 0.324295 0)
(0.653157 -0.0529956 0)
(0.822694 -0.282345 -6.48791e-23)
(0.914771 -0.299237 0)
(0.849111 -0.360863 -4.38082e-23)
(0.694227 -0.467146 -3.84788e-23)
(0.718546 -0.363034 0)
(0.852852 -0.0128151 -1.72285e-22)
(0.915768 0.343096 2.11021e-22)
(0.841206 0.554573 0)
(0.752306 0.518655 4.34546e-22)
(0.677843 0.277336 -5.5005e-22)
(0.655413 -0.0431585 1.11311e-22)
(0.624617 -0.230589 -1.97477e-22)
(0.647975 -0.309692 1.88693e-22)
(0.676691 -0.267781 -9.61101e-23)
(0.700077 -0.179904 0)
(0.73486 -0.15181 -1.56131e-23)
(0.748635 -0.0778768 1.49285e-23)
(0.78305 -0.0644288 -2.26064e-24)
(0.805258 -0.05398 0)
(0.833206 -0.0243777 7.57423e-24)
(0.856253 -0.0249399 0)
(0.887443 -0.00784541 4.19488e-24)
(0.923143 0.0193676 2.20611e-24)
(0.944191 0.0223839 -4.73769e-26)
(0.962948 0.0328408 -9.04759e-26)
(0.972531 0.044297 0)
(0.980983 0.046417 1.58061e-26)
(-0.131014 -0.644769 1.79682e-20)
(-0.166317 -0.689417 -1.05494e-22)
(-0.16398 -0.558272 -1.08125e-20)
(0.0577152 -0.177051 1.03121e-20)
(0.277132 0.305972 0)
(0.463605 0.588996 9.89116e-23)
(0.607922 0.619402 -1.23711e-22)
(0.486491 0.647047 0)
(0.379982 0.585807 -5.56813e-23)
(0.545338 0.266041 0)
(0.734868 -0.124396 0)
(0.856739 -0.340249 6.53391e-23)
(0.93955 -0.311257 0)
(0.904873 -0.321905 1.40357e-21)
(0.754767 -0.440965 -1.18099e-21)
(0.75017 -0.392307 5.95629e-22)
(0.861398 -0.0457848 -5.68579e-22)
(0.92412 0.33356 -4.68124e-23)
(0.85005 0.569597 0)
(0.772879 0.550299 0)
(0.704662 0.301254 -1.33944e-22)
(0.682325 -0.0324549 1.27315e-21)
(0.662667 -0.230416 -1.92806e-21)
(0.675339 -0.315232 8.13078e-22)
(0.695614 -0.277899 2.95613e-22)
(0.730767 -0.188885 0)
(0.7897 -0.159431 4.99778e-23)
(0.806824 -0.0835055 0)
(0.843666 -0.0681505 2.26855e-24)
(0.85733 -0.057524 1.31732e-23)
(0.864837 -0.0271352 -2.82739e-23)
(0.87057 -0.0277865 3.9279e-24)
(0.886835 -0.0123843 -7.21463e-24)
(0.916046 0.0154459 -7.55326e-25)
(0.935075 0.0197376 -2.07657e-24)
(0.955284 0.0309444 9.35723e-26)
(0.966018 0.0430885 -2.28836e-26)
(0.977353 0.0458511 -2.4308e-26)
(0.174736 -0.58724 2.85877e-20)
(0.0679096 -0.656401 -4.74057e-20)
(-0.0802136 -0.626752 4.74421e-21)
(-0.0299932 -0.367448 1.39849e-20)
(0.19181 0.110048 1.00276e-22)
(0.446109 0.468078 -1.07914e-22)
(0.547475 0.633655 1.25859e-22)
(0.399621 0.720339 -2.55003e-22)
(0.399377 0.578908 0)
(0.6453 0.205421 9.28891e-21)
(0.834598 -0.164976 -8.85867e-21)
(0.905768 -0.376716 -1.85445e-22)
(0.958608 -0.325878 0)
(0.943022 -0.284139 -2.8123e-21)
(0.808901 -0.407265 2.60419e-21)
(0.788007 -0.426299 -5.92103e-22)
(0.879378 -0.0966397 5.65028e-22)
(0.93499 0.331498 1.06385e-21)
(0.869816 0.60123 -9.27465e-22)
(0.806008 0.572944 0)
(0.737134 0.320318 0)
(0.711572 -0.0203644 2.48856e-21)
(0.699014 -0.228454 -2.37567e-21)
(0.709062 -0.317963 -1.16842e-21)
(0.717798 -0.287522 4.75634e-22)
(0.751396 -0.200984 6.19137e-22)
(0.821442 -0.170593 1.89426e-24)
(0.853755 -0.0912783 -2.12726e-23)
(0.900131 -0.0723904 2.16975e-24)
(0.915499 -0.0593665 1.46118e-23)
(0.90941 -0.026954 -4.55061e-24)
(0.899309 -0.0278534 1.21199e-23)
(0.896994 -0.0149796 -8.06813e-24)
(0.913831 0.0124445 7.71423e-24)
(0.926926 0.0173061 6.51898e-25)
(0.946706 0.0289309 -9.73589e-26)
(0.957774 0.0416341 2.20692e-25)
(0.972572 0.0450996 -1.27756e-25)
(0.549238 -0.497375 0)
(0.452465 -0.537249 1.59343e-20)
(0.229289 -0.562357 -1.56981e-20)
(0.0600872 -0.467316 0)
(0.143297 -0.0972958 -1.03068e-22)
(0.366704 0.33581 1.10893e-22)
(0.417023 0.625739 0)
(0.312449 0.751711 4.67001e-24)
(0.43967 0.54028 -3.26649e-22)
(0.74213 0.148352 0)
(0.935429 -0.185309 -8.10728e-21)
(0.966993 -0.393868 7.91915e-21)
(0.988 -0.343108 -2.50867e-22)
(0.985283 -0.255727 -2.92742e-21)
(0.862004 -0.368478 2.79139e-21)
(0.818472 -0.446685 1.2377e-22)
(0.895893 -0.1415 0)
(0.947979 0.302227 -9.40943e-23)
(0.894305 0.59296 3.29704e-21)
(0.831225 0.607071 1.69826e-21)
(0.767518 0.362996 1.24134e-21)
(0.746316 0.00553281 -4.82614e-21)
(0.734906 -0.22247 -3.36867e-21)
(0.743429 -0.31887 4.18166e-21)
(0.744867 -0.295787 -2.12721e-22)
(0.770291 -0.21311 0)
(0.834812 -0.183795 -5.3071e-23)
(0.879535 -0.102173 2.15525e-23)
(0.935745 -0.0786689 -2.94771e-24)
(0.960913 -0.0613507 -1.40531e-23)
(0.953217 -0.0252659 1.48264e-23)
(0.93524 -0.0255785 0)
(0.916991 -0.0151978 8.85837e-24)
(0.918513 0.0109969 -1.92775e-23)
(0.922304 0.0155116 -5.23011e-24)
(0.939062 0.0270269 -4.84894e-25)
(0.948886 0.0399913 -2.20847e-25)
(0.967104 0.0441432 -1.04554e-25)
(0.876273 -0.450611 4.57076e-22)
(0.804768 -0.434391 6.04833e-22)
(0.629547 -0.397728 0)
(0.359882 -0.409705 0)
(0.194161 -0.237016 0)
(0.279568 0.220693 0)
(0.297795 0.624083 6.63359e-21)
(0.287091 0.740842 -1.60689e-20)
(0.513079 0.471358 1.0153e-20)
(0.839401 0.0799516 0)
(1.02939 -0.196429 -8.58413e-21)
(1.03098 -0.391489 8.4779e-21)
(1.01393 -0.360411 4.12444e-21)
(1.01895 -0.233351 -3.47887e-21)
(0.908457 -0.321861 2.53745e-21)
(0.838782 -0.461882 -2.54526e-21)
(0.909531 -0.207018 -7.0182e-23)
(0.965805 0.275759 -2.15929e-21)
(0.920263 0.616724 2.05785e-21)
(0.864585 0.628607 5.28377e-22)
(0.807006 0.381097 7.5434e-22)
(0.785195 0.021469 5.07246e-21)
(0.771602 -0.216113 -5.54715e-21)
(0.776501 -0.318591 -8.43762e-22)
(0.773032 -0.302872 -2.39939e-22)
(0.79075 -0.223551 -1.26468e-22)
(0.842839 -0.196575 0)
(0.889815 -0.114917 0)
(0.949619 -0.0868906 0)
(0.985173 -0.0648341 0)
(0.984796 -0.023937 -3.82887e-23)
(0.968541 -0.0222639 2.2172e-23)
(0.941851 -0.0134397 -1.86831e-23)
(0.929638 0.011308 5.70242e-23)
(0.922962 0.0146857 -5.59522e-24)
(0.934398 0.0255125 -2.4489e-25)
(0.941099 0.0382999 8.20204e-25)
(0.96185 0.0430074 3.06135e-25)
(1.10191 -0.374036 -4.81024e-22)
(1.01824 -0.393876 2.92685e-20)
(0.889357 -0.305425 -2.81701e-20)
(0.727101 -0.264463 3.01045e-21)
(0.445897 -0.240619 -2.8672e-21)
(0.30398 0.0706041 -5.82173e-21)
(0.271931 0.527173 5.51125e-21)
(0.311635 0.711053 1.77556e-22)
(0.595654 0.439797 -3.6384e-22)
(0.934074 0.0498235 0)
(1.11404 -0.180702 -3.29053e-22)
(1.09582 -0.360995 1.25007e-20)
(1.0403 -0.370419 -1.19003e-20)
(1.04632 -0.221147 -2.13067e-22)
(0.957043 -0.271084 0)
(0.854095 -0.459616 -2.15981e-21)
(0.914588 -0.268262 3.58819e-21)
(0.979828 0.214311 -1.41945e-21)
(0.948495 0.581914 0)
(0.897451 0.661327 4.94741e-21)
(0.840021 0.445842 7.1613e-22)
(0.823866 0.0650254 -6.39667e-21)
(0.811837 -0.199089 -5.2782e-21)
(0.810128 -0.314405 4.83926e-21)
(0.800391 -0.308056 -1.59443e-21)
(0.811297 -0.23214 6.84016e-22)
(0.852347 -0.207666 8.41676e-22)
(0.894659 -0.127589 -9.61417e-23)
(0.951472 -0.0959344 9.14314e-23)
(0.992446 -0.0699075 1.806e-23)
(1.00131 -0.0240926 -1.71722e-23)
(0.992768 -0.0192685 0)
(0.965641 -0.0106445 -1.89594e-23)
(0.944618 0.0130623 9.32753e-25)
(0.929025 0.0149125 0)
(0.934078 0.0246084 2.55275e-24)
(0.936219 0.0367441 -4.6872e-25)
(0.95791 0.0417666 3.22938e-25)
(1.19479 -0.290987 0)
(1.11293 -0.311704 0)
(0.972453 -0.259395 -9.38008e-23)
(0.878839 -0.181513 0)
(0.755815 -0.131452 0)
(0.504867 0.0670884 -1.67494e-20)
(0.371663 0.46843 1.59496e-20)
(0.440048 0.641561 1.68523e-20)
(0.736509 0.364049 -1.60029e-20)
(1.04445 -0.0179158 0)
(1.18403 -0.190229 -3.28128e-22)
(1.14982 -0.328737 2.42236e-22)
(1.06648 -0.378008 -9.40045e-21)
(1.06056 -0.222369 1.77472e-21)
(0.998949 -0.216698 6.66031e-21)
(0.876644 -0.44158 8.74124e-23)
(0.903012 -0.344362 -6.52815e-23)
(0.99165 0.159965 4.74099e-21)
(0.973568 0.587881 -4.6246e-21)
(0.924356 0.677684 0)
(0.875913 0.455627 0)
(0.861037 0.0822377 -4.55858e-22)
(0.849457 -0.18625 0)
(0.843008 -0.30989 3.41533e-21)
(0.82714 -0.312745 -1.14457e-21)
(0.830739 -0.240273 -1.65271e-21)
(0.862974 -0.217923 -5.41545e-22)
(0.899257 -0.139721 3.49207e-22)
(0.950204 -0.105077 -7.77623e-24)
(0.991249 -0.0761045 0)
(1.00652 -0.0259087 1.78558e-23)
(1.00673 -0.0173453 -1.69293e-23)
(0.984342 -0.00773437 -9.20858e-24)
(0.960182 0.0156517 -4.01154e-24)
(0.939072 0.0160182 9.12768e-24)
(0.938236 0.0243865 -1.70698e-25)
(0.935422 0.035486 0)
(0.956191 0.0405272 -4.78527e-25)
(1.18918 -0.220637 6.44512e-20)
(1.12122 -0.2479 3.75907e-20)
(1.01708 -0.226285 -1.45488e-20)
(0.915069 -0.189923 -2.62426e-20)
(0.882513 -0.148878 5.89461e-21)
(0.731721 -0.0174161 1.34294e-22)
(0.538808 0.343016 0)
(0.538568 0.607123 -4.18758e-23)
(0.834603 0.410852 -1.73805e-22)
(1.13547 0.0288486 0)
(1.25091 -0.142173 -1.88943e-20)
(1.20108 -0.269531 1.8025e-20)
(1.09685 -0.365108 1.77899e-22)
(1.07377 -0.233712 7.74518e-21)
(1.03079 -0.17791 -7.34712e-21)
(0.911215 -0.392461 9.05331e-23)
(0.891272 -0.401492 6.94242e-23)
(0.991714 0.0371443 0)
(0.998488 0.518384 7.6501e-21)
(0.962282 0.701593 -7.2458e-21)
(0.909011 0.541877 -7.46927e-21)
(0.89789 0.149343 4.44417e-22)
(0.889852 -0.158637 6.76035e-21)
(0.876425 -0.302567 -3.74924e-21)
(0.854171 -0.317493 1.52098e-21)
(0.849595 -0.248773 2.98191e-21)
(0.873492 -0.227552 -8.67229e-22)
(0.90443 -0.151612 1.77982e-22)
(0.949492 -0.113997 -1.35885e-22)
(0.987728 -0.0827903 0)
(1.0058 -0.0291621 0)
(1.01258 -0.0167346 0)
(0.996606 -0.00552846 -8.28971e-24)
(0.973744 0.018373 8.27029e-24)
(0.950895 0.0176582 -5.43585e-24)
(0.945834 0.0247699 3.82576e-24)
(0.938857 0.0346154 1.2297e-24)
(0.957096 0.0393944 0)
(1.17403 -0.121816 0)
(1.11525 -0.151833 0)
(1.03982 -0.120865 0)
(0.944836 -0.0907289 0)
(0.895024 -0.0608371 0)
(0.822679 0.0500049 0)
(0.734942 0.275252 0)
(0.857787 0.437577 0)
(1.15186 0.269678 0)
(1.28765 -0.0269853 0)
(1.29398 -0.119686 0)
(1.23384 -0.181537 0)
(1.12515 -0.312749 0)
(1.08403 -0.228771 0)
(1.06864 -0.118778 0)
(0.959378 -0.330229 0)
(0.875944 -0.431518 0)
(0.972107 -0.033815 0)
(1.01409 0.484639 0)
(0.987598 0.692633 0)
(0.94434 0.537266 0)
(0.943384 0.16821 0)
(0.934557 -0.124177 0)
(0.917446 -0.270613 0)
(0.889313 -0.301477 0)
(0.874489 -0.244123 0)
(0.887239 -0.229322 0)
(0.91148 -0.160198 0)
(0.949729 -0.122071 0)
(0.983583 -0.0895659 0)
(1.00234 -0.0329868 0)
(1.01359 -0.0167978 0)
(1.00475 -0.00313282 0)
(0.986631 0.0215837 0)
(0.9653 0.0198884 0)
(0.957499 0.0257869 0)
(0.947415 0.03405 0)
(0.961192 0.0382147 0)
(1.14169 -0.0770381 0)
(1.10244 -0.109682 0)
(1.03619 -0.0944503 0)
(0.982707 -0.067146 0)
(0.946871 -0.0468981 0)
(0.910592 0.063489 0)
(0.902214 0.236839 0)
(1.0711 0.312683 0)
(1.26428 0.176572 0)
(1.29977 -0.033564 0)
(1.26429 -0.101758 0)
(1.19286 -0.185929 0)
(1.11151 -0.288698 0)
(1.05771 -0.201242 0)
(1.01826 -0.128569 0)
(0.973567 -0.32151 0)
(0.911104 -0.404099 0)
(0.968848 -0.0270312 0)
(1.0378 0.476039 0)
(1.03354 0.695859 0)
(0.995894 0.554784 0)
(1.0096 0.160057 0)
(1.00338 -0.150017 0)
(0.972028 -0.285475 0)
(0.930517 -0.304521 0)
(0.906478 -0.245389 0)
(0.909145 -0.233559 0)
(0.926479 -0.16719 0)
(0.956186 -0.12895 0)
(0.983262 -0.0949164 0)
(0.9992 -0.0356703 0)
(1.0097 -0.0171594 0)
(1.00543 -0.000954849 0)
(0.994185 0.0252862 0)
(0.978082 0.0227224 0)
(0.970881 0.0275385 0)
(0.960764 0.0341546 0)
(0.969077 0.0372742 0)
(1.11692 -0.0367569 0)
(1.09961 -0.056929 0)
(1.05388 -0.0405075 0)
(1.02232 -0.018605 0)
(0.990728 0.00576129 0)
(0.967717 0.0794383 0)
(0.987248 0.154268 0)
(1.10882 0.195032 0)
(1.23156 0.126872 0)
(1.23824 -0.0395787 0)
(1.22333 -0.0718625 0)
(1.18498 -0.106976 0)
(1.09372 -0.237838 0)
(1.06918 -0.174757 0)
(1.06287 -0.0729981 0)
(1.00251 -0.272832 0)
(0.933366 -0.419765 0)
(0.966075 -0.0842275 0)
(1.04233 0.455768 0)
(1.04611 0.706006 0)
(1.03556 0.557096 0)
(1.07333 0.1679 0)
(1.0676 -0.122977 0)
(1.02893 -0.250211 0)
(0.97663 -0.280953 0)
(0.93982 -0.235965 0)
(0.929567 -0.233197 0)
(0.938727 -0.174027 0)
(0.960928 -0.136098 0)
(0.983079 -0.100608 0)
(0.997033 -0.0389733 0)
(1.00523 -0.0180345 0)
(1.00233 8.27453e-05 0)
(0.996136 0.027725 0)
(0.98525 0.0248098 0)
(0.980562 0.0290554 0)
(0.973011 0.0345802 0)
(0.977317 0.0367276 0)
(1.09669 -0.0100173 0)
(1.08785 -0.0210477 0)
(1.05821 -0.0152081 0)
(1.03866 -0.003485 0)
(1.02023 0.0160278 0)
(1.01476 0.0577693 0)
(1.03718 0.0973682 0)
(1.09639 0.118253 0)
(1.1801 0.0829929 0)
(1.1907 -0.0215248 0)
(1.16243 -0.0561176 0)
(1.15676 -0.0975857 0)
(1.08837 -0.207676 0)
(1.03449 -0.175166 0)
(1.04805 -0.088854 0)
(1.00646 -0.255612 0)
(0.940575 -0.393837 0)
(0.972055 -0.0894541 0)
(1.02668 0.444971 0)
(1.03868 0.706363 0)
(1.07232 0.554563 0)
(1.14195 0.156494 0)
(1.1378 -0.133033 0)
(1.08264 -0.248981 0)
(1.01769 -0.272778 0)
(0.972289 -0.229024 0)
(0.952892 -0.231044 0)
(0.953958 -0.178077 0)
(0.967704 -0.141358 0)
(0.984244 -0.105435 0)
(0.995931 -0.0417166 0)
(1.00188 -0.018588 0)
(0.998928 0.000910832 0)
(0.995557 0.029329 0)
(0.98818 0.0261779 0)
(0.9859 0.0299815 0)
(0.981369 0.0349218 0)
(0.983564 0.036406 0)
(1.08273 0.00793015 0)
(1.07996 0.00131525 0)
(1.06585 0.00698163 0)
(1.05161 0.0133032 0)
(1.04234 0.0289105 0)
(1.04139 0.0509619 0)
(1.05589 0.0659997 0)
(1.08843 0.0738686 0)
(1.1339 0.0558436 0)
(1.14636 -0.0184251 0)
(1.12912 -0.0467105 0)
(1.12838 -0.0719059 0)
(1.08563 -0.15705 0)
(1.02797 -0.143569 0)
(1.04744 -0.0617076 0)
(1.02389 -0.212126 0)
(0.920538 -0.387973 0)
(0.942758 -0.133078 0)
(1.01545 0.401805 0)
(1.03902 0.679186 0)
(1.10971 0.522596 0)
(1.19868 0.145068 0)
(1.19128 -0.10802 0)
(1.12657 -0.205013 0)
(1.05196 -0.237381 0)
(0.999339 -0.209838 0)
(0.972191 -0.223929 0)
(0.967516 -0.179534 0)
(0.974643 -0.144851 0)
(0.986007 -0.109088 0)
(0.995065 -0.0438263 0)
(0.999376 -0.0187548 0)
(0.996339 0.00171267 0)
(0.994542 0.0306898 0)
(0.989017 0.0272724 0)
(0.988251 0.0305784 0)
(0.985764 0.0352411 0)
(0.987159 0.0362652 0)
(1.07368 0.0190076 0)
(1.07302 0.0153282 0)
(1.06685 0.0182354 0)
(1.0587 0.0201291 0)
(1.05323 0.0303426 0)
(1.05547 0.0395206 0)
(1.06351 0.0457228 0)
(1.07983 0.0465466 0)
(1.10505 0.0334973 0)
(1.1146 -0.0134958 0)
(1.10104 -0.0346992 0)
(1.09829 -0.0624599 0)
(1.06727 -0.12582 0)
(1.00916 -0.135612 0)
(1.02433 -0.085903 0)
(1.03312 -0.183443 0)
(0.909532 -0.328565 0)
(0.845577 -0.128506 0)
(0.894875 0.386016 0)
(0.959843 0.64184 0)
(1.11114 0.47472 0)
(1.23626 0.125397 0)
(1.22725 -0.101151 0)
(1.149 -0.186622 0)
(1.0673 -0.21907 0)
(1.01369 -0.197687 0)
(0.985085 -0.218329 0)
(0.977661 -0.180468 0)
(0.980271 -0.14777 0)
(0.987568 -0.112468 0)
(0.994035 -0.045978 0)
(0.997081 -0.0191786 0)
(0.994128 0.00203466 0)
(0.993522 0.0313968 0)
(0.989049 0.0277796 0)
(0.989147 0.030626 0)
(0.987652 0.0352136 0)
(0.988846 0.0360393 0)
(1.0652 0.0250887 0)
(1.06657 0.0227766 0)
(1.06502 0.0245957 0)
(1.06095 0.0248023 0)
(1.05793 0.0304564 0)
(1.05997 0.0331934 0)
(1.06355 0.0349918 0)
(1.07177 0.0305141 0)
(1.08463 0.0221356 0)
(1.08781 -0.00986689 0)
(1.07906 -0.0282008 0)
(1.07522 -0.0520845 0)
(1.05586 -0.0910508 0)
(1.01358 -0.101902 0)
(1.00603 -0.0790759 0)
(1.00373 -0.146657 0)
(0.886146 -0.244103 0)
(0.756186 -0.0900451 0)
(0.76523 0.347894 0)
(0.907699 0.538187 0)
(1.13418 0.370823 0)
(1.26195 0.0884312 0)
(1.24406 -0.0744042 0)
(1.16931 -0.133218 0)
(1.09276 -0.173349 0)
(1.03962 -0.170009 0)
(1.00612 -0.204859 0)
(0.992705 -0.176815 0)
(0.988829 -0.147501 0)
(0.990927 -0.113626 0)
(0.993993 -0.0467168 0)
(0.995412 -0.018749 0)
(0.992332 0.00285346 0)
(0.992608 0.0325074 0)
(0.988708 0.0286893 0)
(0.989335 0.0309524 0)
(0.988209 0.0354499 0)
(0.989488 0.0359855 0)
(1.05781 0.0272923 0)
(1.06067 0.026319 0)
(1.06111 0.0275585 0)
(1.05927 0.026676 0)
(1.05764 0.0299664 0)
(1.05852 0.0286327 0)
(1.0602 0.0293191 0)
(1.06342 0.0226404 0)
(1.0688 0.0160333 0)
(1.0691 -0.00581765 0)
(1.0633 -0.0193203 0)
(1.05724 -0.0401231 0)
(1.03916 -0.0676735 0)
(1.0083 -0.0815058 0)
(0.994297 -0.0750825 0)
(0.985874 -0.110081 0)
(0.900144 -0.146792 0)
(0.773437 -0.028648 0)
(0.775624 0.26917 0)
(0.96005 0.376141 0)
(1.17325 0.257168 0)
(1.2569 0.0668647 0)
(1.22445 -0.049186 0)
(1.15643 -0.103567 0)
(1.09036 -0.152631 0)
(1.04602 -0.156848 0)
(1.01515 -0.197277 0)
(1.00159 -0.174544 0)
(0.994639 -0.147234 0)
(0.993235 -0.114562 0)
(0.993716 -0.0475479 0)
(0.993716 -0.0187942 0)
(0.990473 0.00281699 0)
(0.991568 0.0326216 0)
(0.988095 0.0287623 0)
(0.989207 0.0306004 0)
(0.988318 0.0351609 0)
(0.989814 0.0356159 0)
(1.05167 0.0276141 0)
(1.05464 0.027278 0)
(1.05582 0.0285043 0)
(1.05512 0.0272196 0)
(1.05425 0.0294035 0)
(1.05435 0.0265499 0)
(1.05462 0.0268684 0)
(1.05516 0.0195577 0)
(1.0568 0.0147154 0)
(1.05504 -0.00102191 0)
(1.04967 -0.012038 0)
(1.04316 -0.0297123 0)
(1.02967 -0.0472076 0)
(1.0085 -0.0581775 0)
(0.993157 -0.0569977 0)
(0.978207 -0.0726525 0)
(0.923415 -0.0753854 0)
(0.84864 0.0083283 0)
(0.871587 0.187815 0)
(1.02386 0.240502 0)
(1.16737 0.174341 0)
(1.21506 0.0561523 0)
(1.19032 -0.0197886 0)
(1.14199 -0.0612411 0)
(1.09005 -0.114823 0)
(1.05363 -0.129816 0)
(1.02475 -0.180751 0)
(1.01065 -0.166711 0)
(1.00084 -0.143179 0)
(0.99618 -0.112927 0)
(0.994101 -0.0465655 0)
(0.992512 -0.0174868 0)
(0.988855 0.00372825 0)
(0.990538 0.0335322 0)
(0.987226 0.0296391 0)
(0.988803 0.0309012 0)
(0.988064 0.0354236 0)
(0.989919 0.0356333 0)
(1.04581 0.02673 0)
(1.04859 0.0268694 0)
(1.05 0.0284527 0)
(1.04984 0.0272485 0)
(1.04933 0.0291897 0)
(1.04886 0.0259892 0)
(1.04842 0.0263975 0)
(1.04764 0.0195822 0)
(1.04725 0.0162193 0)
(1.0446 0.00386627 0)
(1.04028 -0.00421843 0)
(1.03418 -0.0183547 0)
(1.02352 -0.0302573 0)
(1.00864 -0.0399691 0)
(0.995635 -0.0412559 0)
(0.982952 -0.0461785 0)
(0.952141 -0.0338025 0)
(0.919269 0.0178493 0)
(0.947931 0.121309 0)
(1.04461 0.147493 0)
(1.13188 0.121554 0)
(1.16302 0.0514038 0)
(1.14892 0.000157083 0)
(1.11856 -0.0374592 0)
(1.08164 -0.0968959 0)
(1.05596 -0.117547 0)
(1.03138 -0.172632 0)
(1.0181 -0.162084 0)
(1.00613 -0.139603 0)
(0.998561 -0.110905 0)
(0.994325 -0.0455793 0)
(0.991288 -0.0167376 0)
(0.987103 0.0036371 0)
(0.989285 0.0331641 0)
(0.986136 0.0293137 0)
(0.988186 0.0301024 0)
(0.987748 0.0346237 0)
(0.990032 0.0347868 0)
(1.04044 0.0253319 0)
(1.04287 0.0259678 0)
(1.04418 0.0280086 0)
(1.04419 0.0271738 0)
(1.04385 0.0292882 0)
(1.04306 0.0263451 0)
(1.04243 0.0272498 0)
(1.04108 0.0211502 0)
(1.03995 0.0190985 0)
(1.03725 0.00903675 0)
(1.03357 0.00307785 0)
(1.02842 -0.00874582 0)
(1.02067 -0.0174495 0)
(1.01101 -0.0256983 0)
(1.00158 -0.0273657 0)
(0.992672 -0.0285631 0)
(0.97739 -0.0144214 0)
(0.966972 0.0143305 0)
(0.989276 0.074989 0)
(1.04462 0.088247 0)
(1.09655 0.0848201 0)
(1.11977 0.0437706 0)
(1.11498 0.011398 0)
(1.09887 -0.0173615 0)
(1.07357 -0.076281 0)
(1.05596 -0.0995619 0)
(1.03482 -0.158764 0)
(1.02288 -0.153168 0)
(1.00978 -0.132863 0)
(1.00033 -0.106663 0)
(0.9943 -0.0425555 0)
(0.990122 -0.0140919 0)
(0.985488 0.00497111 0)
(0.988066 0.0341596 0)
(0.984871 0.0303812 0)
(0.987478 0.030513 0)
(0.98719 0.0350615 0)
(0.990029 0.0350779 0)
(1.03562 0.0238141 0)
(1.0376 0.0249039 0)
(1.03873 0.0274141 0)
(1.03876 0.0270703 0)
(1.03855 0.0295907 0)
(1.03772 0.0271539 0)
(1.03713 0.0286865 0)
(1.03566 0.0233052 0)
(1.03444 0.0223526 0)
(1.03207 0.0137483 0)
(1.02924 0.0092377 0)
(1.02535 -0.000852857 0)
(1.02005 -0.0078615 0)
(1.014 -0.0154743 0)
(1.00778 -0.0179351 0)
(1.00286 -0.0193582 0)
(0.996435 -0.00775956 0)
(0.995465 0.0067978 0)
(1.01044 0.0445816 0)
(1.04167 0.0503715 0)
(1.07246 0.0591483 0)
(1.08918 0.0364541 0)
(1.08835 0.0170774 0)
(1.0809 -0.0053002 0)
(1.0637 -0.0644749 0)
(1.05338 -0.0891873 0)
(1.03616 -0.149521 0)
(1.02604 -0.145755 0)
(1.01253 -0.125825 0)
(1.00146 -0.101695 0)
(0.994153 -0.0398735 0)
(0.988937 -0.0126419 0)
(0.983585 0.004642 0)
(0.986594 0.0329631 0)
(0.983573 0.0291795 0)
(0.986589 0.028741 0)
(0.986697 0.0331554 0)
(0.990034 0.0331879 0)
(1.03132 0.0224515 0)
(1.03288 0.0239477 0)
(1.03384 0.0269395 0)
(1.03387 0.0270612 0)
(1.03379 0.0300999 0)
(1.03303 0.0281478 0)
(1.03257 0.0303029 0)
(1.03131 0.0255434 0)
(1.03038 0.0254301 0)
(1.02855 0.0177792 0)
(1.02659 0.0141814 0)
(1.02392 0.00506506 0)
(1.02053 -0.00124114 0)
(1.01714 -0.00881199 0)
(1.01347 -0.0121922 0)
(1.01148 -0.0150856 0)
(1.00932 -0.00687767 0)
(1.01161 -0.00114666 0)
(1.0211 0.0250259 0)
(1.03893 0.026668 0)
(1.05641 0.0417095 0)
(1.06785 0.0296186 0)
(1.0682 0.0188693 0)
(1.06622 0.00213325 0)
(1.05515 -0.0559477 0)
(1.05045 -0.0797231 0)
(1.03605 -0.140002 0)
(1.02725 -0.137251 0)
(1.01295 -0.116926 0)
(1.00091 -0.0947923 0)
(0.992539 -0.0343319 0)
(0.987059 -0.00814341 0)
(0.981604 0.00700071 0)
(0.985076 0.0346663 0)
(0.981968 0.0309123 0)
(0.985678 0.0296384 0)
(0.985876 0.0341392 0)
(0.989967 0.0341325 0)
(1.02762 0.0211083 0)
(1.02883 0.0229405 0)
(1.02966 0.0263077 0)
(1.02967 0.0268442 0)
(1.02973 0.0302915 0)
(1.0291 0.0288123 0)
(1.02892 0.0314227 0)
(1.02795 0.0272537 0)
(1.02743 0.0276218 0)
(1.02612 0.0206724 0)
(1.02498 0.0175088 0)
(1.02336 0.00896558 0)
(1.02139 0.00279798 0)
(1.01977 -0.00495325 0)
(1.0178 -0.00940751 0)
(1.01757 -0.0138779 0)
(1.01717 -0.00868607 0)
(1.02018 -0.00788939 0)
(1.02598 0.0121517 0)
(1.03623 0.0119483 0)
(1.04586 0.0299692 0)
(1.05363 0.0246311 0)
(1.05369 0.0192182 0)
(1.0547 0.00639547 0)
(1.0468 -0.0503635 0)
(1.04598 -0.0731089 0)
(1.03381 -0.131122 0)
(1.02636 -0.128416 0)
(1.01265 -0.107697 0)
(0.99982 -0.0879252 0)
(0.991017 -0.0309063 0)
(0.98523 -0.00675622 0)
(0.979144 0.0057253 0)
(0.983277 0.0318587 0)
(0.980628 0.0280398 0)
(0.984655 0.0261198 0)
(0.985368 0.0303453 0)
(0.989922 0.0304566 0)
(1.02425 0.0200728 0)
(1.0252 0.0221561 0)
(1.02594 0.0258827 0)
(1.02602 0.0267025 0)
(1.02625 0.0305644 0)
(1.02587 0.0293778 0)
(1.02599 0.0324179 0)
(1.02538 0.0285584 0)
(1.0253 0.0293033 0)
(1.02456 0.0226893 0)
(1.0241 0.019763 0)
(1.02335 0.0113975 0)
(1.02237 0.00510107 0)
(1.02191 -0.00305314 0)
(1.02087 -0.00840033 0)
(1.02158 -0.0143305 0)
(1.02154 -0.0110032 0)
(1.02439 -0.0131808 0)
(1.02735 0.00415685 0)