/*--------------------------------*- C++ -*----------------------------------*\
| =========                 |                                                 |
| \\      /  F ield         | OpenFOAM: The Open Source CFD Toolbox           |
|  \\    /   O peration     | Version:  2312                                  |
|   \\  /    A nd           | Website:  www.openfoam.com                      |
|    \\/     M anipulation  |                                                 |
\*---------------------------------------------------------------------------*/
FoamFile
{
    version     2.0;
    format      ascii;
    arch        "LSB;label=32;scalar=64";
    class       surfaceScalarField;
    location    "145";
    object      phi;
}
// * * * * * * * * * * * * * * * * * * * * * * * * * * * * * * * * * * * * * //

dimensions      [0 3 -1 0 0 0 0];

oriented        oriented;

internalField   nonuniform List<scalar> 
10785
(
-0.000911622
0.00525201
-0.00434039
0.000776117
0.00634467
-0.00803241
0.00856023
-0.00150765
-0.00627647
0.0258242
-0.0200954
0.00283145
0.0532226
-0.0476682
0.0202698
0.0871573
-0.078855
0.0449203
0.121833
-0.10829
0.0736141
0.151694
-0.132489
0.102628
0.173192
-0.150171
0.128674
0.186002
-0.162144
0.149333
0.192445
-0.170499
0.164056
0.196612
-0.177448
0.173281
0.200736
-0.18467
0.180546
0.204583
-0.189944
0.186097
-0.196368
0.194643
0.206307
-0.000120944
0.00537295
0.00401443
0.0022093
0.017403
-0.0148962
0.0420614
-0.0447538
0.0736507
-0.0792575
0.105099
-0.110304
0.130751
-0.133941
0.148253
-0.149991
0.158677
-0.160595
0.165085
-0.168552
0.170284
-0.175697
0.175629
-0.182793
0.180295
-0.189336
0.185729
-0.195377
-0.202484
0.191845
0.001005
0.00436795
0.00904021
-0.0058259
0.029036
-0.0348921
0.0575361
-0.0732539
0.0860873
-0.107809
0.108645
-0.132862
0.123649
-0.148945
0.13294
-0.159282
0.1394
-0.167055
0.144836
-0.173988
0.1498
-0.180661
0.154069
-0.187062
0.158123
-0.19339
0.162566
-0.199821
-0.206115
0.166197
0.00232389
0.00204406
0.015274
-0.018776
0.0397473
-0.0593654
0.0661864
-0.099693
0.0871897
-0.128812
0.101107
-0.146779
0.109841
-0.157679
0.115857
-0.165298
0.120536
-0.171734
0.124434
-0.177886
0.127839
-0.184066
0.131284
-0.190507
0.135084
-0.19719
0.139288
-0.204025
-0.211365
0.144538
0.00407514
-0.00203109
0.0215414
-0.0362423
0.045911
-0.0837349
0.0665874
-0.120369
0.0803929
-0.142617
0.0887517
-0.155138
0.0939793
-0.162906
0.0976319
-0.168951
0.1006
-0.174702
0.10337
-0.180656
0.106228
-0.186925
0.109132
-0.19341
0.11193
-0.199988
0.114813
-0.206908
-0.213757
0.117205
0.00629931
-0.00833039
0.026037
-0.05598
0.0466089
-0.104307
0.0611362
-0.134897
0.0696292
-0.15111
0.0743152
-0.159824
0.0771442
-0.165735
0.0792692
-0.171076
0.0811566
-0.17659
0.0829124
-0.182412
0.0844976
-0.18851
0.0859737
-0.194886
0.0876245
-0.201639
0.0894167
-0.2087
-0.216165
0.0918245
0.00850076
-0.0168312
0.0273636
-0.0748428
0.0430877
-0.120031
0.0524363
-0.144245
0.0570612
-0.155735
0.0592537
-0.162017
0.0604486
-0.16693
0.0612277
-0.171855
0.0617648
-0.177127
0.0621434
-0.18279
0.0624845
-0.188851
0.0629001
-0.195302
0.0633277
-0.202067
0.06384
-0.209212
-0.216524
0.0641987
0.00991567
-0.0267468
0.0258616
-0.0907888
0.0369019
-0.131071
0.0421894
-0.149533
0.0440354
-0.157581
0.0443378
-0.162319
0.0440207
-0.166613
0.0434077
-0.171242
0.0426149
-0.176334
0.0417036
-0.181879
0.0406856
-0.187833
0.0395556
-0.194172
0.0384579
-0.200969
0.0374439
-0.208198
0.0369543
-0.216034
0.000413675
0.0180945
-0.0185081
-0.00109625
0.0364618
-0.0349519
-0.00429537
0.0442249
-0.0410258
-0.00813138
0.0472416
-0.0434056
-0.011706
0.0485413
-0.0449667
-0.0143873
0.0483889
-0.0457077
-0.0156962
0.0460268
-0.0447179
-0.0152563
0.0406852
-0.0411251
-0.0128351
0.0318019
-0.0342231
-0.00835442
0.0189882
-0.0234689
-0.00227912
0.002381
-0.00845629
0.00682752
-0.0193204
0.0102137
0.0185672
-0.0443118
0.0325722
0.034892
-0.0751181
0.0587934
-0.106442
0.05479
0.0865437
0.00231875
0.0157757
0.00408579
0.0346948
0.00462869
0.043682
0.00494371
0.0469266
0.00617319
0.0473118
0.00904669
0.0455154
0.0139446
0.0411289
0.0209924
0.0336374
0.0300334
0.0227609
0.0407736
0.00824802
0.0530576
-0.00990308
0.0679058
-0.0341685
0.0846931
-0.0610992
0.105116
-0.0955407
-0.12797
0.126644
0.00363376
0.0121419
0.00844843
0.0298801
0.0127807
0.0393498
0.0172081
0.0424992
0.0228358
0.0416841
0.0304139
0.0379373
0.0401897
0.0313531
0.0520705
0.0217566
0.0655704
0.00926101
0.0811268
-0.00730836
0.0981645
-0.0269407
0.118421
-0.0544255
0.140439
-0.0831163
0.16525
-0.120352
-0.150164
0.187444
0.00385179
0.00829015
0.0104637
0.0232682
0.0176618
0.0321517
0.0253536
0.0348074
0.0342458
0.0327919
0.0449371
0.027246
0.0576119
0.0186784
0.0721607
0.00720779
0.0889137
-0.00749189
0.10856
-0.0269543
0.13172
-0.0501014
0.158864
-0.0815693
0.188386
-0.112638
0.21735
-0.149317
-0.173511
0.240697
0.00302765
0.0052625
0.00958293
0.0167129
0.0178325
0.0239022
0.0271658
0.025474
0.0377437
0.022214
0.0499241
0.0150656
0.0640902
0.00451226
0.081249
-0.00995091
0.10255
-0.0287928
0.128532
-0.0529368
0.160151
-0.0817199
0.193223
-0.114642
0.2255
-0.144914
0.2501
-0.173917
-0.187871
0.26446
0.00162293
0.00363957
0.0065215
0.0118143
0.0138224
0.0166013
0.0228746
0.0164218
0.0337662
0.0113224
0.0473323
0.00149945
0.0651606
-0.013316
0.0885605
-0.0333509
0.1184
-0.0586327
0.153067
-0.0876039
0.189725
-0.118378
0.221905
-0.146822
0.246547
-0.169556
0.258498
-0.185868
-0.190372
0.260999
0.000153236
0.00348633
0.00275307
0.00921449
0.00816329
0.011191
0.0165884
0.00799671
0.0293065
-0.00139568
0.0481253
-0.0173194
0.0742904
-0.0394811
0.107237
-0.0662979
0.144077
-0.0954726
0.180246
-0.123772
0.210455
-0.148587
0.230522
-0.166888
0.240511
-0.179546
0.241002
-0.186359
-0.190267
0.240897
-0.000854054
0.000328033
0.0052426
0.0160708
0.0349449
0.0625458
0.0966788
0.133009
0.16621
0.191771
0.20724
0.213632
0.214632
0.21437
0.218747
0.0750474
-0.277052
0.256794
0.0591557
-0.317654
0.333546
0.0349221
-0.359832
0.384066
0.0737636
-0.301408
0.262566
0.150769
-0.11068
0.0336747
0.204942
0.152215
-0.206387
0.236048
0.276454
-0.30756
0.239369
0.313938
-0.317259
0.20704
0.408561
-0.376232
0.1809
0.390744
-0.364603
0.211017
0.229209
-0.259326
0.251436
-0.0587031
0.0182839
0.272074
-0.185551
0.164913
0.27123
-0.289552
0.290396
0.275851
-0.476385
0.471764
0.276886
-0.380287
0.379252
0.282749
-0.311008
0.305145
0.292094
0.0362217
-0.0455663
0.298024
0.396075
-0.402005
0.308796
0.458089
-0.468861
0.312348
0.563925
-0.567477
0.303312
0.104523
-0.0954872
0.303316
-0.440558
0.440554
0.305326
-0.494732
0.492722
0.317523
-0.595402
0.583205
0.330823
0.173835
-0.187134
0.325826
1.05821
-1.05322
0.304197
0.326718
-0.30509
0.28847
-0.687991
0.703719
0.288474
-0.309356
0.309352
0.279554
0.282061
-0.273141
0.271255
0.155699
-0.147401
0.268105
-0.054488
0.0576381
0.265499
-0.0388094
0.041415
0.26119
0.00953375
-0.00522467
0.257898
0.0144521
-0.0111599
0.25515
0.00348211
-0.000733902
0.000831369
0.00183395
0.134264
-0.284672
0.118426
-0.301816
0.0606393
-0.302045
0.0462767
-0.287045
0.113358
-0.177762
0.186623
0.0789498
0.232186
0.230891
0.241113
0.30501
0.214115
0.43556
0.193029
0.411829
0.217245
0.204993
0.253135
-0.0945932
0.275282
-0.207697
0.267538
-0.281808
0.266196
-0.475043
0.271631
-0.385722
0.276201
-0.315579
0.290326
0.0220962
0.299591
0.38681
0.309277
0.448403
0.315456
0.557746
0.301509
0.11847
0.296502
-0.435551
0.298047
-0.496278
0.306978
-0.604332
0.329423
0.151389
0.334924
1.05271
0.308821
0.352821
0.285686
-0.664857
0.28644
-0.31011
0.281385
0.287116
0.27393
0.163155
0.270118
-0.0506762
0.266923
-0.0356144
0.262707
0.0137502
0.259687
0.0174718
0.256951
0.00621769
0.0035074
0.17451
-0.271738
0.16439
-0.291695
0.119546
-0.257202
0.0671901
-0.234689
0.096113
-0.206685
0.177366
-0.00230277
0.23202
0.176237
0.249133
0.287897
0.233478
0.451215
0.217101
0.428206
0.230551
0.191542
0.254338
-0.11838
0.273662
-0.227021
0.259064
-0.267211
0.250112
-0.466091
0.261104
-0.396714
0.266408
-0.320882
0.285136
0.0033686
0.298346
0.3736
0.307609
0.439141
0.315697
0.549658
0.29815
0.136017
0.287011
-0.424412
0.286895
-0.496162
0.292096
-0.609533
0.32502
0.118465
0.340592
1.03714
0.31178
0.381633
0.280591
-0.633667
0.282056
-0.311576
0.281048
0.288125
0.27474
0.169462
0.270534
-0.0464701
0.266975
-0.0320548
0.263065
0.0176596
0.260555
0.0199821
0.258048
0.00872515
0.00601171
0.208283
-0.239323
0.181205
-0.264617
0.161498
-0.237495
0.112297
-0.185488
0.100628
-0.195016
0.17825
-0.0799248
0.237801
0.116686
0.254729
0.270969
0.248883
0.457061
0.241724
0.435365
0.245943
0.187324
0.254344
-0.126782
0.269479
-0.242156
0.253064
-0.250796
0.235168
-0.448194
0.247924
-0.409469
0.255229
-0.328188
0.277372
-0.018775
0.291945
0.359027
0.300828
0.430258
0.311018
0.539467
0.291761
0.155275
0.275191
-0.407842
0.272152
-0.493123
0.274137
-0.611518
0.315774
0.0768289
0.3404
1.01252
0.310101
0.411933
0.273563
-0.597129
0.275644
-0.313657
0.278412
0.285357
0.27352
0.174354
0.269295
-0.042245
0.265653
-0.0284123
0.262285
0.0210272
0.260509
0.0217584
0.258434
0.0108002
0.00816327
0.227647
-0.20251
0.183096
-0.220066
0.164041
-0.21844
0.144112
-0.165559
0.113817
-0.164722
0.167996
-0.134104
0.238985
0.0456975
0.270974
0.23898
0.278725
0.44931
0.273523
0.440567
0.262065
0.198782
0.253865
-0.118581
0.260172
-0.248463
0.242785
-0.23341
0.218196
-0.423605
0.229734
-0.421007
0.23971
-0.338164
0.26587
-0.0449354
0.284028
0.340869
0.293807
0.42048
0.304556
0.528717
0.282915
0.176916
0.261639
-0.386565
0.254135
-0.485619
0.2532
-0.610583
0.303212
0.0268173
0.337308
0.978419
0.305132
0.444109
0.265073
-0.557071
0.267696
-0.316279
0.273885
0.279167
0.27047
0.177769
0.266512
-0.0382872
0.263047
-0.0249479
0.26044
0.0236343
0.259591
0.0226078
0.258134
0.0122574
0.00978479
0.222007
-0.163518
0.180713
-0.178772
0.150442
-0.188169
0.146489
-0.161605
0.127688
-0.145921
0.151442
-0.157858
0.215059
-0.0179198
0.25426
0.199779
0.273218
0.430353
0.278696
0.435089
0.269853
0.207625
0.251743
-0.100471
0.249849
-0.246568
0.232154
-0.215715
0.202145
-0.393596
0.208145
-0.427007
0.220931
-0.35095
0.250431
-0.0744354
0.270891
0.320409
0.281786
0.409584
0.29357
0.516934
0.271808
0.198678
0.247168
-0.361925
0.234548
-0.472999
0.231545
-0.607581
0.286289
-0.0279262
0.327295
0.937412
0.295922
0.475483
0.255307
-0.516455
0.258191
-0.319164
0.267334
0.270025
0.265548
0.179554
0.26224
-0.0349792
0.259254
-0.0219622
0.257624
0.0252643
0.257863
0.0223686
0.257193
0.0129273
0.0107021
0.206435
-0.129056
0.174822
-0.147159
0.145345
-0.158692
0.135241
-0.151502
0.127541
-0.138221
0.134508
-0.164825
0.186093
-0.0695047
0.241714
0.144158
0.280181
0.391886
0.28776
0.427509
0.271616
0.223769
0.24339
-0.0722455
0.234173
-0.237351
0.216611
-0.198154
0.185029
-0.362013
0.183515
-0.425493
0.19718
-0.364616
0.232758
-0.110013
0.258301
0.294866
0.270865
0.39702
0.283061
0.504738
0.259819
0.221919
0.232575
-0.334681
0.21493
-0.455354
0.208893
-0.601544
0.268185
-0.0872176
0.31715
0.888447
0.285789
0.506843
0.245013
-0.475678
0.247902
-0.322054
0.25955
0.258377
0.25921
0.179894
0.256735
-0.0325045
0.254464
-0.0196907
0.253976
0.0257522
0.255414
0.0209303
0.255682
0.0126598
0.0107457
0.193612
-0.103922
0.167971
-0.121518
0.145152
-0.135873
0.129816
-0.136166
0.114987
-0.123391
0.110609
-0.160448
0.140128
-0.0990233
0.193665
0.0906206
0.2428
0.342751
0.267932
0.402378
0.265766
0.225935
0.23777
-0.0442496
0.222113
-0.221694
0.202472
-0.178512
0.168103
-0.327644
0.158892
-0.416282
0.170767
-0.376491
0.207431
-0.146677
0.238241
0.264055
0.253913
0.381349
0.267579
0.491072
0.247147
0.242351
0.216657
-0.304191
0.19592
-0.434617
0.18677
-0.592395
0.245345
-0.145792
0.299065
0.834727
0.272199
0.533709
0.233343
-0.436823
0.236647
-0.325357
0.250042
0.244982
0.251424
0.178513
0.250158
-0.0312388
0.248849
-0.0183814
0.249638
0.0249634
0.25234
0.0182284
0.253682
0.0113173
0.00974872
0.451291
-0.0765505
-0.478662
0.425587
-0.0958147
0.39661
-0.106896
0.367914
-0.107469
0.328927
-0.0844043
0.278856
-0.110377
0.227198
-0.0473658
0.18946
0.128359
0.22931
0.3029
0.350344
0.281344
0.457367
0.118911
0.485147
-0.0720288
0.469021
-0.205569
0.449166
-0.158657
0.419236
-0.297714
0.390623
-0.387668
0.352588
-0.338456
0.324215
-0.118304
0.30282
0.285451
0.312054
0.372115
0.36333
0.439795
0.416291
0.18939
0.417896
-0.305795
0.390759
-0.40748
0.339599
-0.541235
0.340093
-0.146286
0.388061
0.786759
0.420639
0.501131
0.396112
-0.412296
0.369847
-0.299093
0.370757
0.244073
0.380571
0.168699
0.381276
-0.0319442
0.375151
-0.0122564
0.373038
0.0270769
0.374164
0.0171021
0.372682
0.0127988
0.0120404
0.474941
-0.0536106
-0.497881
0.450297
-0.0711707
0.420352
-0.0769509
0.394225
-0.0813418
0.368639
-0.0588183
0.33622
-0.0779585
0.295771
-0.00691615
0.292907
0.131223
0.371588
0.224219
0.477904
0.175028
0.53959
0.0572248
0.534208
-0.0666466
0.49953
-0.170891
0.470337
-0.129464
0.44313
-0.270507
0.402353
-0.346891
0.356359
-0.292462
0.319968
-0.0819133
0.292104
0.313315
0.317965
0.346254
0.395776
0.361985
0.459662
0.125503
0.451996
-0.298129
0.404141
-0.359625
0.342172
-0.479266
0.337618
-0.141732
0.397602
0.726776
0.449797
0.448936
0.425246
-0.387744
0.39262
-0.266467
0.394143
0.24255
0.407944
0.154898
0.410008
-0.0340075
0.403801
-0.00604951
0.402491
0.0283863
0.404397
0.0151967
0.403275
0.0139207
0.0141639
0.510127
-0.037609
-0.526129
0.490554
-0.0515974
0.466244
-0.052641
0.445421
-0.0605188
0.421816
-0.0352132
0.390855
-0.0469978
0.374068
0.00987128
0.408821
0.09647
0.48743
0.14561
0.557086
0.105372
0.585475
0.0288356
0.566964
-0.0481356
0.533882
-0.137809
0.515675
-0.111257
0.486284
-0.241115
0.417159
-0.277767
0.34758
-0.222883
0.302207
-0.0365408
0.281071
0.334451
0.334919
0.292406
0.436163
0.260741
0.507548
0.0541182
0.49226
-0.282842
0.421511
-0.288875
0.335169
-0.392925
0.323506
-0.130069
0.412311
0.637971
0.488675
0.372571
0.456171
-0.355241
0.415773
-0.226069
0.419637
0.238686
0.437105
0.137429
0.439589
-0.0364915
0.433386
0.000153785
0.433175
0.0285979
0.435888
0.0124837
0.435378
0.0144305
0.0157993
0.546648
-0.0247581
-0.559499
0.530527
-0.0354756
0.511536
-0.0336505
0.493031
-0.0420139
0.478122
-0.0203038
0.459486
-0.0283623
0.454133
0.0152248
0.492942
0.0576605
0.552464
0.0860879
0.592671
0.0651651
0.606525
0.0149821
0.596369
-0.0379803
0.562707
-0.104147
0.533521
-0.0820714
0.498795
-0.206388
0.423603
-0.202575
0.341291
-0.140571
0.293324
0.011426
0.311002
0.316773
0.390456
0.212952
0.489963
0.161234
0.555948
-0.0118664
0.527719
-0.254613
0.440245
-0.201401
0.331201
-0.283881
0.309778
-0.108646
0.437951
0.509798
0.533338
0.277185
0.484959
-0.306861
0.432641
-0.173751
0.443784
0.227543
0.467234
0.113979
0.469655
-0.0389129
0.463481
0.00632842
0.464834
0.0272444
0.468525
0.00879245
0.469069
0.0138871
0.016444
0.588737
-0.0154499
-0.598046
0.576637
-0.0233755
0.563056
-0.020069
0.550062
-0.0290204
0.539429
-0.00967036
0.528747
-0.0176805
0.530439
0.0135325
0.55684
0.0312595
0.594682
0.0482461
0.624103
0.0357442
0.631425
0.00765969
0.625108
-0.0316631
0.605876
-0.0849147
0.582437
-0.058632
0.540064
-0.164015
0.467559
-0.13007
0.395009
-0.0680217
0.360074
0.0463609
0.415636
0.261212
0.49472
0.133868
0.565992
0.0899615
0.607761
-0.053635
0.568572
-0.215425
0.487093
-0.119922
0.365142
-0.161931
0.323042
-0.0665455
0.479713
0.353127
0.584149
0.172748
0.515111
-0.237823
0.449624
-0.108265
0.474122
0.203046
0.505305
0.0827961
0.504444
-0.0380518
0.496957
0.0138151
0.500238
0.0239635
0.504716
0.00431446
0.50623
0.0123724
0.0158367
0.636813
-0.0086851
-0.643578
0.628017
-0.0145788
0.61898
-0.0110321
0.608787
-0.0188277
0.603069
-0.00395167
0.597322
-0.0119335
0.600396
0.0104578
0.618298
0.0133575
0.639828
0.0267166
0.659458
0.0161144
0.667583
-0.000465593
0.659791
-0.0238715
0.63628
-0.0614038
0.620228
-0.04258
0.585389
-0.129176
0.530127
-0.074807
0.487845
-0.0257397
0.479103
0.0551021
0.555684
0.184631
0.612426
0.0771265
0.643772
0.058615
0.655126
-0.0649885
0.602249
-0.162548
0.547362
-0.0650349
0.45211
-0.0666785
0.39213
-0.00656593
0.539997
0.20526
0.636259
0.0764859
0.553289
-0.154853
0.484524
-0.0394995
0.524005
0.163565
0.558666
0.0481349
0.550666
-0.0300521
0.541646
0.0228353
0.546828
0.0187818
0.550779
0.000363217
0.552094
0.0110581
0.0144774
0.690969
-0.0040439
-0.695611
0.684759
-0.00836816
0.678935
-0.00520867
0.672017
-0.0119094
0.669016
-0.000950908
0.665794
-0.00871169
0.668866
0.00738642
0.679157
0.00306604
0.691692
0.0141822
0.704261
0.00354461
0.707522
-0.00372661
0.702959
-0.0193083
0.690102
-0.0485462
0.674535
-0.0270134
0.637033
-0.0916737
0.598187
-0.0359614
0.588174
-0.0157268
0.597193
0.0460834
0.663323
0.118501
0.701049
0.0394009
0.711085
0.0485789
0.70889
-0.062794
0.647668
-0.101326
0.6166
-0.0339675
0.578712
-0.0287906
0.528607
0.0435391
0.628515
0.105353
0.693997
0.0110038
0.617002
-0.0778575
0.56049
0.0170129
0.603574
0.12048
0.632003
0.019706
0.617549
-0.0155973
0.608401
0.0319828
0.613415
0.0137678
0.614677
-0.000899102
0.614118
0.0116178
0.0136998
0.751046
-0.00100796
-0.754082
0.746939
-0.0042617
0.743393
-0.00166234
0.738796
-0.00731225
0.737151
0.000694005
0.735308
-0.00686925
0.737563
0.0051314
0.743137
-0.00250743
0.750352
0.00696741
0.756742
-0.00284553
0.759216
-0.00620102
0.753999
-0.0140909
0.741229
-0.0357769
0.730429
-0.0162125
0.70433
-0.0655751
0.680875
-0.0125065
0.679885
-0.0147364
0.693289
0.0326787
0.739018
0.0727725
0.759757
0.0186616
0.761869
0.046467
0.756309
-0.0572344
0.709653
-0.054669
0.6935
-0.0178143
0.687178
-0.0224687
0.665269
0.0654478
0.720509
0.0501126
0.747842
-0.0163289
0.691286
-0.021302
0.66219
0.0461097
0.699178
0.083492
0.713965
0.00491809
0.698297
7.13988e-05
0.692661
0.0376182
0.695996
0.0104332
0.69414
0.000957218
0.691885
0.0138723
0.0140448
0.817099
0.00091653
-0.819024
0.814622
-0.00178416
0.812514
0.000445531
0.809569
-0.00436737
0.80879
0.00147298
0.807281
-0.00536051
0.809054
0.00335821
0.811065
-0.0045185
0.815241
0.00279152
0.817505
-0.00510975
0.818259
-0.0069542
0.813858
-0.00969011
0.805715
-0.0276346
0.797532
-0.00802854
0.777556
-0.0455993
0.765858
-0.000808815
0.7651
-0.0139782
0.775839
0.0219392
0.803993
0.0446189
0.818497
0.00415802
0.824267
0.0406963
0.813686
-0.0466533
0.781682
-0.0226647
0.772395
-0.00852755
0.772358
-0.0224316
0.774873
0.0629324
0.804243
0.020743
0.802524
-0.01461
0.769879
0.0113429
0.768848
0.0471402
0.795236
0.0571043
0.796811
0.00334272
0.784706
0.0121773
0.784326
0.0379978
0.785603
0.00915635
0.781995
0.00456462
0.779623
0.0162449
0.0149974
0.889553
0.00196867
-0.890605
0.888035
-0.00026591
0.886927
0.00155284
0.884949
-0.0023892
0.884682
0.00173953
0.883222
-0.00390053
0.884472
0.00210885
0.884425
-0.00447159
0.886751
0.000465424
0.886672
-0.00503077
0.886597
-0.00687937
0.883181
-0.00627412
0.875874
-0.0203277
0.871125
-0.00327876
0.856585
-0.0310601
0.852556
0.00322058
0.850145
-0.0115671
0.858483
0.0136008
0.87605
0.0270526
0.882488
-0.00228013
0.890188
0.0329959
0.878553
-0.0350182
0.862324
-0.0064361
0.858109
-0.00431215
0.853817
-0.0181399
0.864012
0.0527377
0.877612
0.0071425
0.86903
-0.00602741
0.857107
0.0232656
0.866049
0.0381987
0.880945
0.0422085
0.876865
0.00742268
0.871483
0.0175591
0.875155
0.0343259
0.874265
0.0100461
0.870622
0.00820715
0.869696
0.0171716
0.0156461
0.968604
0.00241559
-0.96905
0.96764
0.00069779
0.967202
0.00199105
0.965778
-0.000965486
0.965829
0.00168835
0.964362
-0.00243296
0.965231
0.00123896
0.964159
-0.00339896
0.965295
-0.000670834
0.964182
-0.00391783
0.963188
-0.00588528
0.960773
-0.00385894
0.954851
-0.0144054
0.952819
-0.00124756
0.941849
-0.02009
0.941774
0.00329579
0.938444
-0.00823673
0.944204
0.00784031
0.955126
0.0161306
0.956992
-0.00414551
0.966404
0.0235835
0.954671
-0.0232855
0.947267
0.00096802
0.944163
-0.00120769
0.937655
-0.0116319
0.95177
0.0386223
0.955955
0.00295775
0.947338
0.00258992
0.945822
0.0247816
0.954767
0.0292536
0.964162
0.0328138
0.959774
0.0118103
0.958486
0.0188468
0.963713
0.0290991
0.961837
0.0119224
0.959132
0.0109121
0.959698
0.0166057
0.0156903
1.05485
0.0024806
-1.05492
1.05423
0.00131442
1.05417
0.00205962
1.05312
8.50578e-05
1.05327
0.00153574
1.05196
-0.00112904
1.05243
0.000773279
1.05112
-0.00208788
1.05137
-0.000924964
1.05008
-0.00262231
1.0486
-0.0044042
1.04723
-0.00248973
1.0422
-0.00937494
1.04169
-0.000739095
1.03371
-0.0121121
1.0349
0.00210982
1.03182
-0.00515809
1.03555
0.00411068
1.04236
0.00932184
1.0414
-0.00319125
1.0497
0.0152814
1.03958
-0.0131656
1.0377
0.00285477
1.03565
0.000838949
1.02963
-0.00560699
1.04151
0.0267367
1.04039
0.00407504
1.03654
0.00644153
1.03948
0.0218481
1.04516
0.0235732
1.05185
0.0261154
1.04869
0.014975
1.0493
0.0182348
1.05463
0.0237673
1.05275
0.0138054
1.05101
0.0126533
1.05225
0.0153676
0.015391
1.14897
0.00237164
-1.14886
1.14859
0.00169153
1.14868
0.0019669
1.14793
0.000840599
1.14807
0.00139716
1.14702
-7.79987e-05
1.14718
0.000609818
1.146
-0.000910027
1.14576
-0.00068922
1.14464
-0.00150085
1.14307
-0.00283272
1.14219
-0.00160714
1.1383
-0.00548119
1.13834
-0.000778968
1.13282
-0.00659272
1.1341
0.000823372
1.13162
-0.00267596
1.13376
0.00197082
1.13777
0.00531498
1.13607
-0.00149382
1.14242
0.00892807
1.13504
-0.00577919
1.13519
0.00270339
1.13328
0.00274852
1.12882
-0.0011439
1.13818
0.0173731
1.13587
0.00638531
1.1347
0.00761474
1.1379
0.0186482
1.1417
0.0197681
1.14753
0.0202815
1.1455
0.0170095
1.14662
0.0171104
1.15121
0.0191812
1.14989
0.0151245
1.14906
0.0134884
1.15038
0.0140436
0.0149791
1.25175
0.0021842
-1.25157
1.25156
0.00188164
1.2517
0.00183062
1.25121
0.00133208
1.25129
0.00130954
1.25054
0.000681249
1.25051
0.000638341
1.24959
1.18483e-05
1.24916
-0.000262348
1.24825
-0.000597102
1.24688
-0.00145966
1.24626
-0.000983341
1.24347
-0.0026939
1.24353
-0.00084206
1.23991
-0.00296467
1.24078
-4.8903e-05
1.23893
-0.000825308
1.24007
0.000830235
1.24224
0.003139
1.24069
5.65954e-05
1.24486
0.00475732
1.23985
-0.00076939
1.24071
0.00185066
1.23938
0.00407442
1.23674
0.00150179
1.24284
0.011269
1.24073
0.0084943
1.24136
0.00698899
1.24421
0.0157933
1.24703
0.0169454
1.25183
0.0154838
1.2509
0.017941
1.25234
0.0156655
1.25596
0.0155635
1.25529
0.0157944
1.25526
0.013521
1.2565
0.0128056
0.0144883
1.36412
0.00198474
-1.36392
1.36407
0.00193276
1.36421
0.00169598
1.36393
0.00160902
1.36398
0.00126014
1.36348
0.00118527
1.36338
0.000737964
1.36271
0.00067597
1.3623
0.000148268
1.3616
0.000102115
1.36058
-0.00043722
1.36006
-0.00046169
1.35821
-0.000840927
1.35815
-0.000786408
1.35583
-0.000642503
1.35633
-0.000554949
1.35499
0.000522877
1.35552
0.000298233
1.35654
0.00211331
1.3554
0.00119714
1.35792
0.00223562
1.35483
0.00232426
1.35577
0.000911258
1.35483
0.0050117
1.35345
0.00288896
1.35736
0.00735579
1.35624
0.00961151
1.35749
0.0057454
1.35955
0.0137331
1.36198
0.0145123
1.36593
0.0115369
1.36599
0.0178786
1.36754
0.0141096
1.37027
0.0128348
1.37027
0.0157943
1.37084
0.012957
1.372
0.0116433
0.0138878
1.48703
0.00178695
-1.48683
1.48708
0.00187825
1.48721
0.00156453
1.4871
0.00171757
1.48714
0.00122257
1.48686
0.00147048
1.48676
0.000832525
1.48633
0.00111176
1.48601
0.000464796
1.48551
0.00060252
1.48483
0.000244185
1.4844
-2.93005e-05
1.48325
0.000301765
1.48308
-0.000618338
1.4817
0.000742282
1.48187
-0.000728523
1.48098
0.00141888
1.48117
0.000101592
1.48157
0.00172057
1.48088
0.00188196
1.48222
0.000897991
1.4805
0.00404354
1.48121
0.000204214
1.48068
0.00553852
1.48025
0.00331546
1.48255
0.00505658
1.48221
0.00995861
1.48377
0.00417849
1.48544
0.012063
1.4876
0.012357
1.49065
0.00848057
1.49139
0.0171393
1.49311
0.0123925
1.49528
0.010665
1.49591
0.0151669
1.49682
0.012042
1.49789
0.0105716
0.0130661
1.62151
0.00159
-1.62132
1.62165
0.00174673
1.62178
0.00143143
1.6218
0.00169642
1.62185
0.00117567
1.62174
0.00157688
1.62168
0.000891924
1.62145
0.0013429
1.62125
0.000668251
1.62093
0.000924137
1.62053
0.000640573
1.6202
0.000295794
1.61959
0.000916727
1.61936
-0.000393477
1.61864
0.00146452
1.6186
-0.000684948
1.6181
0.00191511
1.61812
8.3977e-05
1.61822
0.0016165
1.61791
0.00219863
1.61847
0.00033477
1.61776
0.00475492
1.61812
-0.000154987
1.61802
0.00563654
1.61805
0.00328084
1.61942
0.00369508
1.61993
0.00944319
1.62129
0.00282117
1.62284
0.0105123
1.62489
0.010302
1.62708
0.00629286
1.62832
0.0159029
1.63002
0.0106914
1.63196
0.0087269
1.6333
0.0138256
1.63436
0.010985
1.63529
0.00964174
0.0120249
1.7687
0.00139379
-1.7685
1.76889
0.00155674
1.76902
0.00129565
1.76915
0.00157131
1.7692
0.00112001
1.76925
0.0015335
1.76922
0.000920829
1.76917
0.00139214
1.76906
0.000778006
1.76891
0.0010687
1.76874
0.000818139
1.76852
0.000515681
1.7683
0.0011333
1.76806
-0.000149169
1.76786
0.00166496
1.76767
-0.000502481
1.76757
0.00201615
1.76751
0.000148334
1.76754
0.00158108
1.76755
0.00219141
1.76758
0.000307132
1.76762
0.00470971
1.76755
-7.64513e-05
1.76785
0.00533388
1.76814
0.00298669
1.76891
0.00293095
1.77019
0.00816281
1.77119
0.00181466
1.77295
0.00875601
1.77496
0.00829043
1.77623
0.00502494
1.77783
0.0143051
1.7794
0.00911954
1.7813
0.00682193
1.78348
0.0116481
1.78457
0.00989809
1.78528
0.00893324
0.0107261
1.92974
0.00118093
-1.92953
1.93001
0.00129431
1.93016
0.00114507
1.9304
0.00132811
1.93047
0.00105311
1.93068
0.00132408
1.93066
0.000934437
1.93081
0.00124557
1.93075
0.000836605
1.93078
0.00103748
1.93075
0.000845236
1.9306
0.000665367
1.93071
0.00103117
1.93036
0.000198553
1.93064
0.00137919
1.9302
-5.54435e-05
1.93057
0.00164419
1.93033
0.000388613
1.93048
0.00143471
1.93081
0.00186183
1.93038
0.00073378
1.93134
0.00374566
1.93063
0.00063519
1.93166
0.00430356
1.93197
0.00267724
1.93225
0.00265637
1.93447
0.00593466
1.93446
0.00182862
1.93671
0.00650285
1.93864
0.00636761
1.93885
0.00480896
1.94165
0.0115025
1.943
0.00777441
1.94434
0.00548071
1.9474
0.00858572
1.94857
0.00872961
1.94913
0.00837467
0.00913069
2.10595
0.000921881
-2.10569
2.10627
0.000973794
2.10649
0.00092568
2.10682
0.0010021
2.10698
0.000895606
2.10729
0.00100913
2.10738
0.00084271
2.10765
0.000979306
2.1077
0.000784293
2.10785
0.000889704
2.10793
0.000761401
2.10787
0.000726707
2.10809
0.000817656
2.10777
0.000518467
2.10817
0.000971788
2.10771
0.0004084
2.1082
0.00114972
2.10797
0.000624575
2.10821
0.00119326
2.10872
0.00135376
2.10838
0.00107375
2.10975
0.00237226
2.10918
0.0012024
2.11058
0.00290457
2.11104
0.00221544
2.11124
0.0024607
2.11339
0.00378484
2.11291
0.00231199
2.11496
0.00444526
2.11662
0.00470707
2.11694
0.00449224
2.12074
0.00770814
2.12242
0.00608672
2.12305
0.00485035
2.1256
0.00604353
2.12732
0.00700128
2.12865
0.00704848
0.00720513
2.29882
0.000630673
-2.29853
2.29914
0.000652171
2.29942
0.000642676
2.29975
0.000674283
2.30001
0.000636207
2.30033
0.000687961
2.30056
0.000616339
2.30085
0.000687971
2.30104
0.000590184
2.30127
0.00066574
2.30145
0.000577923
2.30156
0.000614665
2.30178
0.000602641
2.30175
0.000541354
2.30204
0.000682402
2.30195
0.000499408
2.3023
0.000800393
2.30234
0.000584996
2.30264
0.000893783
2.3031
0.000898287
2.30324
0.000927872
2.30422
0.00139873
2.30437
0.00104673
2.30546
0.0018114
2.30613
0.00154509
2.30671
0.00188297
2.30811
0.00239167
2.30838
0.00203379
2.30986
0.00296891
2.31138
0.00318561
2.31261
0.00326479
2.31572
0.0045964
2.31778
0.00402841
2.31879
0.00384194
2.32057
0.00426389
2.32279
0.00478196
2.32494
0.00489126
0.00504971
2.50999
0.000326765
-2.50968
2.51031
0.000333038
2.51061
0.000336687
2.51094
0.000344742
2.51124
0.000338497
2.51157
0.000353496
2.51186
0.000333803
2.51219
0.000358578
2.51245
0.00032434
2.51276
0.000358399
2.51302
0.000317449
2.51328
0.000351331
2.51356
0.000322864
2.51377
0.000337878
2.5141
0.000352946
2.51426
0.000331041
2.51465
0.000409949
2.51488
0.000359963
2.51529
0.000481664
2.51573
0.000464108
2.51611
0.000548625
2.51685
0.00065441
2.51726
0.000635335
2.5182
0.000873125
2.51892
0.000823858
2.51977
0.00103133
2.52101
0.00115082
2.52185
0.00119753
2.52333
0.00148589
2.52488
0.00163401
2.52639
0.00175969
2.5288
0.00218713
2.53076
0.00206769
2.5325
0.00210477
2.53456
0.00219545
2.53685
0.00249564
2.53916
0.00258633
0.00265239
2.74131
-2.74098
2.74164
2.74198
2.74232
2.74266
2.74302
2.74335
2.74371
2.74403
2.74439
2.74471
2.74506
2.74538
2.74572
2.74607
2.7464
2.74681
2.74717
2.74766
2.74812
2.74867
2.74932
2.74996
2.75083
2.75165
2.75269
2.75384
2.75503
2.75652
2.75815
2.75991
2.7621
2.76417
2.76627
2.76847
2.77096
2.77355
0.439561
0.0310904
-0.433697
0.447156
0.0566034
0.452023
0.0869574
0.4596
0.109628
0.463903
0.140235
0.470978
0.159122
0.474545
0.188279
0.202191
0.467733
0.0262338
-0.462876
0.473223
0.0511135
0.477712
0.0824677
0.482636
0.104704
0.486271
0.1366
0.490253
0.15514
0.494616
0.183916
0.198926
0.500328
0.0224848
-0.496579
0.503661
0.0477802
0.5071
0.0790287
0.510215
0.10159
0.514427
0.132388
0.51777
0.151797
0.522723
0.178962
0.19552
0.536323
0.0195267
-0.533365
0.538539
0.045564
0.542029
0.0755389
0.544763
0.0988565
0.549123
0.128028
0.552043
0.148877
0.556246
0.17476
0.192266
0.577017
0.0172699
-0.57476
0.578784
0.0437969
0.581994
0.0723283
0.584163
0.096688
0.587801
0.12439
0.590517
0.146161
0.594499
0.170777
0.18872
0.622614
0.0155312
-0.620875
0.62405
0.0423605
0.626721
0.0696576
0.628799
0.0946103
0.632298
0.12089
0.63542
0.14304
0.639693
0.166505
0.184835
0.67326
0.0142485
-0.671977
0.674656
0.0409641
0.677154
0.0671596
0.679613
0.0921513
0.683245
0.117258
0.686807
0.139477
0.69136
0.161952
0.180584
0.729594
0.0132361
-0.728582
0.731137
0.0394213
0.733617
0.0646796
0.736461
0.0893071
0.740277
0.113442
0.744305
0.135449
0.74916
0.157097
0.175663
0.791973
0.0123921
-0.791129
0.793649
0.0377451
0.796151
0.0621776
0.799312
0.0861462
0.803321
0.109433
0.807875
0.130895
0.813309
0.151663
0.169949
0.860769
0.0116476
-0.860024
0.862535
0.0359792
0.865142
0.0595707
0.868644
0.0826442
0.873049
0.105028
0.87824
0.125704
0.884209
0.145693
0.163553
0.936496
0.0109254
-0.935774
0.938366
0.0341085
0.941179
0.0567581
0.945017
0.0788066
0.949819
0.100226
0.955448
0.120075
0.96194
0.139201
0.156442
1.0196
0.010194
-1.01886
1.02155
0.0321585
1.02457
0.0537359
1.02869
0.0746889
1.03388
0.0950271
1.03999
0.113969
1.0471
0.13209
0.148627
1.11062
0.00944027
-1.10986
1.11266
0.0301121
1.11593
0.0504711