/*--------------------------------*- C++ -*----------------------------------*\
| =========                 |                                                 |
| \\      /  F ield         | OpenFOAM: The Open Source CFD Toolbox           |
|  \\    /   O peration     | Version:  2312                                  |
|   \\  /    A nd           | Website:  www.openfoam.com                      |
|    \\/     M anipulation  |                                                 |
\*---------------------------------------------------------------------------*/
FoamFile
{
    version     2.0;
    format      ascii;
    arch        "LSB;label=32;scalar=64";
    class       volScalarField;
    location    "22.5";
    object      p;
}
// * * * * * * * * * * * * * * * * * * * * * * * * * * * * * * * * * * * * * //

dimensions      [0 2 -2 0 0 0 0];

internalField   nonuniform List<scalar> 
13248
(
-0.279233
-0.278921
-0.277546
-0.275395
-0.272856
-0.270252
-0.267947
-0.266263
-0.265425
-0.265568
-0.266698
-0.268707
-0.2714
-0.274522
-0.277783
-0.280904
-0.283617
-0.285763
-0.287143
-0.28787
-0.287628
-0.286888
-0.284569
-0.281377
-0.282949
-0.282496
-0.28094
-0.278675
-0.276068
-0.273437
-0.271097
-0.269303
-0.268212
-0.267873
-0.268222
-0.269105
-0.270307
-0.271588
-0.272713
-0.273496
-0.2738
-0.273571
-0.27278
-0.271451
-0.269487
-0.26696
-0.263482
-0.260123
-0.28831
-0.287435
-0.285561
-0.283099
-0.280387
-0.277713
-0.275307
-0.273314
-0.271785
-0.270679
-0.269886
-0.269255
-0.268623
-0.26784
-0.266802
-0.265456
-0.263785
-0.261808
-0.259483
-0.256836
-0.25369
-0.250172
-0.246078
-0.242144
-0.295338
-0.29377
-0.291435
-0.288642
-0.285724
-0.282904
-0.280283
-0.277861
-0.275568
-0.273313
-0.271005
-0.268576
-0.265984
-0.263221
-0.260305
-0.257258
-0.254093
-0.250787
-0.247302
-0.243606
-0.239594
-0.235417
-0.230823
-0.226719
-0.304046
-0.301606
-0.298651
-0.295414
-0.292168
-0.289022
-0.285907
-0.282663
-0.279161
-0.275346
-0.271242
-0.266923
-0.262482
-0.258008
-0.253557
-0.24915
-0.244772
-0.240394
-0.235972
-0.231473
-0.226846
-0.222145
-0.217241
-0.212789
-0.314586
-0.311114
-0.307445
-0.303676
-0.299935
-0.296153
-0.292072
-0.287458
-0.282244
-0.27653
-0.270505
-0.26437
-0.258288
-0.252359
-0.246622
-0.241075
-0.235692
-0.23043
-0.225247
-0.220102
-0.214952
-0.209827
-0.204621
-0.199854
-0.327145
-0.322524
-0.318087
-0.313674
-0.309149
-0.304216
-0.298519
-0.291923
-0.284573
-0.276774
-0.268847
-0.261042
-0.253511
-0.246321
-0.23948
-0.232959
-0.226715
-0.220701
-0.21487
-0.209181
-0.203607
-0.198126
-0.1927
-0.187669
-0.34183
-0.335987
-0.330728
-0.325461
-0.319664
-0.312867
-0.304835
-0.295733
-0.285989
-0.27607
-0.266337
-0.257008
-0.248182
-0.239873
-0.232052
-0.224672
-0.217677
-0.211015
-0.204637
-0.198499
-0.192562
-0.186794
-0.18119
-0.175917
-0.3586
-0.351475
-0.345281
-0.33878
-0.331007
-0.321536
-0.310537
-0.298597
-0.286381
-0.274409
-0.262992
-0.252267
-0.242259
-0.232933
-0.224233
-0.216091
-0.208443
-0.201227
-0.194388
-0.187874
-0.18164
-0.175647
-0.169902
-0.164427
-0.377033
-0.368664
-0.361317
-0.352984
-0.342382
-0.329487
-0.315099
-0.300202
-0.285569
-0.271659
-0.258674
-0.246655
-0.235557
-0.225305
-0.215814
-0.207002
-0.19879
-0.191109
-0.183894
-0.177084
-0.170624
-0.16447
-0.158616
-0.152968
-0.396454
-0.386875
-0.378006
-0.367035
-0.352722
-0.335835
-0.317863
-0.300044
-0.283114
-0.267394
-0.252955
-0.239742
-0.227653
-0.216573
-0.206392
-0.197009
-0.188335
-0.180286
-0.172788
-0.165773
-0.159176
-0.15295
-0.147048
-0.141334
-0.415836
-0.4051
-0.394179
-0.379638
-0.360821
-0.339582
-0.318005
-0.297393
-0.278328
-0.260953
-0.245203
-0.230933
-0.217984
-0.206206
-0.195462
-0.185634
-0.176616
-0.168315
-0.160647
-0.153535
-0.146914
-0.140728
-0.134906
-0.129319
-0.241048
-0.244646
-0.247038
-0.249723
-0.253309
-0.257868
-0.263377
-0.269801
-0.277101
-0.285235
-0.294153
-0.303805
-0.314132
-0.325068
-0.336539
-0.348462
-0.360748
-0.373303
-0.386014
-0.398757
-0.411414
-0.423919
-0.436221
-0.448088
-0.243984
-0.247022
-0.2491
-0.251519
-0.254823
-0.25909
-0.264307
-0.270443
-0.277464
-0.285334
-0.294015
-0.303464
-0.313635
-0.324474
-0.335919
-0.347902
-0.360343
-0.37316
-0.386255
-0.39952
-0.412815
-0.42601
-0.439099
-0.452236
-0.248879
-0.251097
-0.25274
-0.254816
-0.257769
-0.26168
-0.266541
-0.272326
-0.279004
-0.286547
-0.294924
-0.304102
-0.314043
-0.324704
-0.336031
-0.347964
-0.360432
-0.373354
-0.386639
-0.400191
-0.41389
-0.427549
-0.440956
-0.454428
-0.254748
-0.256003
-0.257128
-0.258788
-0.261312
-0.264778
-0.269185
-0.27451
-0.280725
-0.287808
-0.295735
-0.304482
-0.31402
-0.324313
-0.335317
-0.346976
-0.359224
-0.371981
-0.385152
-0.398632
-0.412302
-0.426031
-0.439658
-0.452267
-0.260614
-0.260905
-0.261469
-0.262648
-0.264651
-0.267561
-0.271386
-0.276107
-0.281703
-0.288153
-0.295444
-0.303559
-0.312478
-0.322172
-0.332602
-0.343719
-0.355456
-0.367735
-0.380461
-0.393503
-0.4068
-0.419973
-0.433568
-0.445452
-0.265723
-0.265178
-0.265203
-0.265837
-0.267212
-0.269428
-0.272513
-0.276461
-0.281257
-0.286891
-0.293355
-0.30064
-0.308735
-0.317618
-0.327255
-0.337599
-0.348587
-0.360126
-0.37217
-0.384436
-0.397198
-0.40938
-0.422524
-0.433331
-0.269667
-0.268537
-0.26807
-0.268122
-0.268769
-0.270143
-0.272314
-0.275306
-0.279124
-0.283772
-0.289251
-0.295562
-0.302699
-0.310648
-0.31938
-0.328845
-0.338989
-0.349676
-0.36098
-0.372273
-0.384422
-0.395522
-0.408043
-0.417583
-0.272371
-0.270966
-0.270114
-0.269586
-0.269441
-0.269857
-0.270966
-0.272846
-0.275543
-0.279088
-0.283498
-0.288787
-0.294955
-0.301995
-0.309885
-0.318573
-0.327931
-0.337867
-0.348602
-0.359248
-0.370861
-0.38099
-0.392494
-0.400529
-0.274024
-0.27265
-0.27155
-0.270499
-0.269574
-0.269007
-0.269004
-0.269716
-0.271253
-0.273687
-0.277068
-0.281423
-0.28676
-0.293057
-0.300278
-0.308364
-0.317343
-0.326813
-0.336899
-0.346801
-0.357327
-0.366422
-0.376208
-0.382637
-0.274995
-0.273885
-0.272662
-0.271184
-0.269581
-0.268135
-0.267123
-0.266779
-0.267284
-0.26877
-0.271321
-0.274977
-0.279744
-0.285584
-0.292399
-0.300022
-0.308285
-0.316929
-0.325778
-0.33444
-0.343059
-0.350657
-0.358002
-0.362191
-0.275784
-0.27504
-0.273768
-0.271973
-0.26986
-0.267752
-0.265986
-0.264866
-0.264637
-0.265473
-0.267475
-0.270668
-0.274995
-0.280328
-0.286476
-0.293207
-0.300233
-0.307329
-0.314149
-0.320599
-0.326501
-0.331724
-0.336489
-0.338796
-0.276998
-0.276571
-0.275254
-0.273241
-0.270816
-0.268323
-0.266132
-0.264578
-0.263941
-0.264388
-0.265986
-0.268703
-0.272407
-0.276891
-0.281892
-0.287121
-0.292252
-0.297063
-0.301214
-0.304736
-0.307335
-0.309372
-0.311051
-0.312319
-0.460963
-0.473377
-0.483422
-0.490343
-0.493848
-0.49335
-0.488521
-0.478903
-0.46428
-0.44441
-0.419609
-0.389269
-0.353001
-0.310485
-0.262163
-0.20834
-0.150919
-0.0933499
-0.0398931
0.00488935
0.0383432
0.0602193
0.0723743
0.0773115
0.0773265
0.0743085
0.0696221
0.0641248
0.0583585
0.0526395
0.0471806
0.0420846
0.0374159
0.0331887
0.0293949
0.0260296
0.0230491
0.0204361
0.0181272
0.0161112
0.0143314
0.0127701
0.0113816
0.0101611
0.00908007
0.0081396
0.00729163
0.0065375
0.00583304
0.00519514
0.00459693
0.00405342
0.00354145
0.00307082
0.00261159
0.00216473
0.00170835
0.00125929
0.000774419
0.000277099
-0.467395
-0.481175
-0.492856
-0.50127
-0.50627
-0.507111
-0.503454
-0.494712
-0.480966
-0.462493
-0.437795
-0.407983
-0.372123
-0.329951
-0.281599
-0.227539
-0.169579
-0.11132
-0.0575028
-0.012487
0.0214248
0.0443435
0.0581045
0.0650491
0.0672178
0.0662066
0.0632323
0.0591653
0.054561
0.0497633
0.0450183
0.0404677
0.0362117
0.0322936
0.0287343
0.0255422
0.0226953
0.0201804
0.0179508
0.0159924
0.0142608
0.0127342
0.0113753
0.010174
0.00910897
0.00817828
0.00733929
0.00659049
0.00589003
0.00525219
0.0046532
0.00410554
0.00359011
0.0031127
0.00264983
0.00219444
0.00173412
0.00127551
0.000786482
0.000277549
-0.472265
-0.486864
-0.499694
-0.509197
-0.515186
-0.516894
-0.514069
-0.50632
-0.493669
-0.47563
-0.452039
-0.422765
-0.387374
-0.345583
-0.297481
-0.243674
-0.186038
-0.128276
-0.0751397
-0.0306596
0.00335111
0.0273047
0.0428653
0.0520135
0.0565036
0.057652
0.056498
0.0539198
0.0505159
0.0466723
0.0426702
0.0386953
0.0348793
0.0312969
0.0279935
0.0249923
0.0222918
0.0198842
0.0177404
0.015844
0.0141638
0.0126745
0.0113481
0.0101686
0.00912205
0.00820186
0.00737386
0.00663111
0.00593734
0.00530118
0.00470368
0.00415318
0.0036356
0.00315197
0.0026858
0.00222261
0.00175906
0.00129141
0.000798397
0.000278024
-0.471194
-0.487059
-0.500437
-0.511009
-0.517973
-0.520728
-0.518953
-0.512431
-0.500672
-0.4835
-0.460704
-0.432103
-0.397322
-0.35616
-0.308743
-0.255879
-0.199594
-0.143476
-0.0919273
-0.0485049
-0.0145913
0.0103725
0.0277579
0.0390733
0.0457859
0.0490675
0.0497593
0.048641
0.0463998
0.0434906
0.040226
0.0368305
0.0334628
0.0302279
0.0271915
0.0243931
0.0218477
0.0195557
0.0175027
0.0156732
0.0140466
0.0125974
0.0113047
0.0101493
0.00912253
0.00821385
0.00739775
0.00666159
0.00597617
0.00534298
0.00474872
0.00419662
0.00367802
0.00318878
0.00271951
0.00224943
0.00178323
0.00130713
0.000810217
0.000278645
-0.463132
-0.479628
-0.49413
-0.505838
-0.513846
-0.517672
-0.51718
-0.511832
-0.501241
-0.485159
-0.463337
-0.435514
-0.401374
-0.360883
-0.314559
-0.263601
-0.210047
-0.156858
-0.107617
-0.0654877
-0.0317204
-0.00581299
0.0132729
0.0265987
0.0353156
0.0405029
0.0429863
0.0433286
0.0422268
0.040233
0.0377017
0.0348889
0.0319764
0.0290981
0.0263376
0.0237515
0.0213686
0.0191997
0.0172418
0.0154838
0.013913
0.0125066
0.0112483
0.0101189
0.00911252
0.00821659
0.00741271
0.00668374
0.00600744
0.00537829
0.00478848
0.00423595
0.00371712
0.00322317
0.00275102
0.00227495
0.00180656
0.0013227
0.000821881
0.000279478
-0.448562
-0.465244
-0.480962
-0.493758
-0.503001
-0.50788
-0.508576
-0.504519
-0.495223
-0.480369
-0.459655
-0.432827
-0.399652
-0.360205
-0.31524
-0.266431
-0.216716
-0.167915
-0.12182
-0.0812009
-0.0476672
-0.0210014
-0.000487877
0.0145936
0.0250889
0.0319635
0.0360318
0.0378535
0.0379222
0.0368506
0.0350625
0.0328467
0.0304046
0.0278967
0.0254246
0.0230623
0.0208512
0.0188137
0.0169567
0.0152755
0.0137637
0.0124027
0.0111802
0.0100786
0.00909335
0.00821158
0.00742011
0.00669908
0.00603212
0.00540796
0.00482329
0.00427143
0.00375299
0.00325517
0.00278039
0.00229929
0.00182899
0.00133816
0.000833318
0.000280617
-0.430007
-0.445797
-0.462441
-0.476122
-0.485602
-0.491952
-0.493842
-0.491045
-0.482988
-0.469346
-0.449821
-0.424184
-0.392387
-0.35472
-0.312212
-0.266523
-0.220551
-0.176594
-0.134391
-0.0956189
-0.0624858
-0.0352981
-0.0136464
0.00291885
0.0150147
0.0234179
0.0289186
0.0321179
0.0334134
0.0333003
0.0322765
0.0306806
0.0287316
0.026613
0.0244451
0.0223195
0.020291
0.0183938
0.0166447
0.0150458
0.0135971
0.012285
0.0111004
0.0100285
0.00906552
0.00819941
0.00742075
0.00670853
0.00605095
0.00543266
0.00485349
0.00430334
0.0037858
0.0032848
0.0028074
0.00232247
0.00185045
0.00135353
0.000844461
0.0002822
-0.409838
-0.423097
-0.439922
-0.454513
-0.464402
-0.470783
-0.473519
-0.471744
-0.464772
-0.452342
-0.434211
-0.410229
-0.380559
-0.345663
-0.306655
-0.265108
-0.223312
-0.183508
-0.145261
-0.108705
-0.0762542
-0.0488184
-0.0263003
-0.00849637
0.00502885
0.0148675
0.0217045
0.0261537
0.0286731
0.029573
0.0293384
0.0283784
0.0269443
0.0252374
0.0233928
0.0215194
0.0196855
0.017938
0.0163041
0.0147936
0.0134124
0.0121526
0.0110083
0.00996829
0.00902915
0.00818031
0.00741505
0.0067126
0.00606442
0.00545285
0.00487936
0.00433194
0.00381557
0.00331233
0.00283208
0.0023446
0.00187091
0.00136886
0.000855229
0.000284394
-0.388503
-0.397779
-0.41387
-0.427947
-0.437753
-0.444148
-0.447619
-0.446768
-0.441023
-0.430182
-0.414046
-0.39258
-0.366042
-0.33499
-0.300371
-0.263473
-0.225885
-0.189486
-0.154644
-0.120492
-0.0890386
-0.0616118
-0.0384539
-0.0196051
-0.00481662
0.00636771
0.0144763
0.020108
0.0237396
0.0256961
0.0262963
0.0259794
0.0250595
0.0237716
0.0222638
0.0206567
0.0190302
0.0174431
0.0159326
0.014517
0.0132083
0.0120047
0.0109036
0.00989764
0.00898403
0.00815419
0.00740313
0.00671157
0.00607284
0.00546889
0.00490113
0.00435743
0.00384238
0.00333797
0.00285477
0.00236605
0.00189032
0.00138419
0.000865542
0.000287415
-0.363473
-0.369884
-0.38499
-0.397681
-0.406395
-0.412964
-0.416986
-0.417109
-0.412931
-0.404233
-0.390845
-0.37278
-0.350251
-0.323705
-0.293801
-0.261456
-0.227877
-0.194463
-0.16229
-0.130527
-0.100446
-0.0733607
-0.0498174
-0.0301445
-0.014292
-0.00193066
0.00734869
0.0140525
0.0186553
0.0216083
0.0231206
0.0235171
0.023133
0.0222633
0.02109
0.0197506
0.0183363
0.0169153
0.0155339
0.0142183
0.0129866
0.0118425
0.0107873
0.0098176
0.00893116
0.00812185
0.00738576
0.00670612
0.00607691
0.00548136
0.00491925
0.00438017
0.00386642
0.00336213
0.00287583
0.00238712
0.00190866
0.00139953
0.000875384
0.000291601
-0.337021
-0.343265
-0.356662
-0.366997
-0.374632
-0.381887
-0.386944
-0.388747
-0.386808
-0.380805
-0.370568
-0.356082
-0.337465
-0.315023
-0.28919
-0.260638
-0.230324
-0.199508
-0.169563
-0.139956
-0.111513
-0.0851019
-0.0613618
-0.0409542
-0.0240859
-0.0105775
-0.000117302
0.00770094
0.013307
0.0171326
0.0195106
0.0207383
0.0210211
0.0206539
0.0198596
0.0188108
0.0176203
0.016372
0.0151239
0.0139113
0.0127583
0.0116754
0.0106668
0.00973409
0.00887526
0.0080873
0.007366
0.0066987
0.00607825
0.0054916
0.00493457
0.00440096
0.00388808
0.00338535
0.00289559
0.00240853
0.00192602
0.00141489
0.000884691
0.000297532
-0.313691
-0.321168
-0.330055
-0.336535
-0.343831
-0.349872
-0.354827
-0.357874
-0.358097
-0.355022
-0.348368
-0.337976
-0.323797
-0.305955
-0.284692
-0.260473
-0.233928
-0.20592
-0.177679
-0.149559
-0.122173
-0.0966568
-0.0731174
-0.052194
-0.0343702
-0.0196903
-0.00797865
0.0010626
0.00779137
0.0126006
0.0158012
0.0176987
0.018602
0.0187674
0.0184024
0.017693
0.016767
0.0157246
0.0146335
0.013543
0.0124823
0.0114717
0.0105169
0.00962738
0.0088
0.00803815
0.00733413
0.00668275
0.00607167
0.00549608
0.00494402
0.00441769
0.00390555
0.00340677
0.00291345
0.00242988
0.00194121
0.00142949
0.000892545
0.000305537
-0.296847
-0.310668
-0.317648
-0.322273
-0.325906
-0.330286
-0.33455
-0.33728
-0.337471
-0.334628
-0.328492
-0.31893
-0.305909
-0.289535
-0.270048
-0.247847
-0.223537
-0.197843
-0.17173
-0.145757
-0.12039
-0.0964735
-0.0744119
-0.0546311
-0.0375447
-0.023273
-0.0116941
-0.00258457
0.0043496
0.00943672
0.0129863
0.0152788
0.0165646
0.0170744
0.0170137
0.016566
0.0158591
0.0150015
0.0140604
0.0130932
0.0121306
0.0112012
0.0103118
0.00947396
0.00868557
0.00795583
0.00727595
0.00664782
0.00605222
0.00549183
0.00494779
0.00442994
0.00391999
0.00342667
0.00293172
0.00246342
0.00195826
0.00144261
0.000898335
0.000313645
-0.278255
-0.294737
-0.30228
-0.305052
-0.307298
-0.310419
-0.313688
-0.31574
-0.315561
-0.312637
-0.306758
-0.297861
-0.285958
-0.271145
-0.253631
-0.233737
-0.211957
-0.188858
-0.165145
-0.141441
-0.118188
-0.0960497
-0.0755049
-0.0568942
-0.0405841
-0.0267561
-0.015354
-0.00621345
0.00089988
0.00626117
0.0101375
0.0127694
0.0143889
0.0152197
0.0154563
0.0152735
0.0147967
0.0141356
0.013359
0.0125293
0.0116798
0.0108434
0.0100295
0.009253
0.00851473
0.00782519
0.00717739
0.00657455
0.00599916
0.00545487
0.00492407
0.00441603
0.00391384
0.00342583
0.00293585
0.0024587
0.00196063
0.00144753
0.000900206
0.000317215
-0.260097
-0.27735
-0.285323
-0.287733
-0.289091
-0.291071
-0.293346
-0.294796
-0.294421
-0.291665
-0.286319
-0.278347
-0.267765
-0.254633
-0.239094
-0.221392
-0.2019
-0.181089
-0.15953
-0.137825
-0.116439
-0.0958857
-0.0766515
-0.0590835
-0.0434987
-0.0301004
-0.0188864
-0.00973938
-0.00247607
0.0031222
0.00728431
0.0102294
0.0121719
0.0133178
0.0138482
0.0139287
0.0136828
0.0132203
0.0126121
0.0119238
0.0111918
0.0104521
0.00971819
0.00900711
0.00832239
0.00767573
0.00706227
0.00648675
0.0059336
0.00540717
0.00489118
0.00439436
0.00390108
0.00341979
0.00293542
0.00245902
0.00196199
0.00144978
0.000900522
0.000319104
-0.243405
-0.259734
-0.267872
-0.270321
-0.271135
-0.272257
-0.273755
-0.274758
-0.274305
-0.271796
-0.266993
-0.259853
-0.250405
-0.238701
-0.224847
-0.209027
-0.191547
-0.17282
-0.153326
-0.133583
-0.114031
-0.0951013
-0.0772366
-0.0607789
-0.0460046
-0.0331196
-0.0221705
-0.0130899
-0.0057441
3.72526e-05
0.00444851
0.00768226
0.00992926
0.0113766
0.0121922
0.012533
0.0125186
0.0122579
0.0118225
0.0112805
0.010671
0.0100332
0.0093837
0.0087419
0.00811395
0.00751318
0.00693658
0.00639084
0.00586164
0.00535467
0.00485443
0.00436992
0.00388629
0.0034127
0.00293341
0.00245884
0.00196253
0.00145142
0.000900826
0.00032064
-0.226805
-0.242165
-0.250225
-0.25281
-0.253397
-0.254033
-0.255011
-0.255669
-0.255153
-0.252874
-0.248575
-0.2422
-0.233782
-0.223378
-0.211075
-0.197027
-0.181475
-0.164753
-0.147245
-0.129377
-0.111556
-0.094172
-0.0776137
-0.0622147
-0.048235
-0.0358785
-0.0252288
-0.0162621
-0.00888384
-0.00296271
0.00166072
0.0051511
0.0076769
0.00940751
0.010497
0.0110924
0.0113076
0.0112496
0.0109898
0.010598
0.0101154
0.00958393
0.00902305
0.00845447
0.00788689
0.00733528
0.00679836
0.00628479
0.00578138
0.00529551
0.00481223
0.00434121
0.00386805
0.00340258
0.00292846
0.00245684
0.00196183
0.00145227
0.000900955
0.000321644
-0.210574
-0.225094
-0.232911
-0.235518
-0.23605
-0.236435
-0.237059
-0.237449
-0.236885
-0.23483
-0.231014
-0.225368
-0.217915
-0.208712
-0.197839
-0.185414
-0.171623
-0.156724
-0.141028
-0.124894
-0.108696
-0.0927874
-0.0775113
-0.0631778
-0.050032
-0.0382672
-0.027987
-0.0192026
-0.0118543
-0.00584771
-0.00105782
0.00265246
0.00542926
0.00742319
0.00877295
0.00961455
0.0100554
0.0101992
0.0101163
0.00987734
0.00952526
0.00910394
0.00863554
0.00814393
0.00764015
0.00714082
0.00664628
0.00616723
0.00569157
0.00522845
0.00476342
0.00430703
0.00384521
0.00338861
0.00292046
0.00245271
0.0019596
0.00145188
0.000900532
0.000321954
-0.195176
-0.208642
-0.216053
-0.218636
-0.219172
-0.219423
-0.219825
-0.220041
-0.219479
-0.217654
-0.214303
-0.209343
-0.202787
-0.194688
-0.185113
-0.174159
-0.161965
-0.148733
-0.134721
-0.120231
-0.105588
-0.0911057
-0.0770846
-0.0638048
-0.0514975
-0.0403484
-0.0304736
-0.0219143
-0.0146434
-0.00859851
-0.00368468
0.000209324
0.00320738
0.0054412
0.00703398
0.00811017
0.00876974
0.00911222
0.00920567
0.00912098
0.00890189
0.0085939
0.00822133
0.00781009
0.00737329
0.00692923
0.00647974
0.00603755
0.00559162
0.00515293
0.00470751
0.00426696
0.00381752
0.00337067
0.00290929
0.00244608
0.00195556
0.00144998
0.000899409
0.000321656
-0.180352
-0.192738
-0.199739
-0.202295
-0.202851
-0.203037
-0.203315
-0.203444
-0.202927
-0.201333
-0.198418
-0.194094
-0.188364
-0.181273
-0.172877
-0.163253
-0.152511
-0.14081
-0.128358
-0.115406
-0.102226
-0.0890953
-0.0762775
-0.0640258
-0.052557
-0.0420489
-0.0326233
-0.0243424
-0.0172057
-0.011177
-0.00618768
-0.00215149
0.00103316
0.00347926
0.00529428
0.00659048
0.0074593
0.00799506
0.00826261
0.00833208
0.00824735
0.00805501
0.00778099
0.00745307
0.00708615
0.00670017
0.0062983
0.00589526
0.00548102
0.00506845
0.00464407
0.00422061
0.00378459
0.0033483
0.00289451
0.00243656
0.00194949
0.00144643
0.000897499
0.000320855
-0.166075
-0.177517
-0.184104
-0.186598
-0.187168
-0.187329
-0.187546
-0.187644
-0.187201
-0.185838
-0.183331
-0.179592
-0.174618
-0.168444
-0.161118
-0.1527
-0.143278
-0.132975
-0.121959
-0.110432
-0.0986228
-0.0867705
-0.0751092
-0.0638644
-0.0532347
-0.0433881
-0.0344473
-0.0264887
-0.0195334
-0.0135683
-0.00854848
-0.00441061
-0.0010745
0.0015548
0.00356919
0.00506837
0.0061345
0.00685584
0.00729315
0.00751497
0.00756464
0.0074892
0.00731571
0.00707347
0.00677893
0.00645353
0.00610165
0.00573992
0.00535932
0.0049745
0.0045726
0.00416743
0.00374594
0.00332107
0.00287581
0.00242386
0.00194114
0.00144106
0.000894676
0.000319597
-0.152536
-0.163018
-0.169158
-0.17157
-0.172164
-0.172327
-0.172523
-0.172627
-0.172279
-0.171144
-0.169016
-0.165814
-0.161529
-0.156187
-0.149829
-0.142503
-0.134276
-0.125245
-0.115541
-0.105329
-0.0947976
-0.0841515
-0.0735948
-0.0633266
-0.0535264
-0.0443512
-0.0359221
-0.028324
-0.0215946
-0.0157403
-0.0107366
-0.00654012
-0.0030905
-0.000310154
0.0018774
0.00355927
0.00480777
0.00570435
0.00630479
0.00667522
0.00685775
0.00689922
0.00682727
0.00667239
0.00645222
0.0061895
0.00588972
0.00557126
0.00522614
0.00487064
0.00449268
0.00410699
0.00370118
0.0032886
0.00285286
0.00240766
0.00193026
0.00143372
0.000890785
0.000317889
-0.139688
-0.149225
-0.154926
-0.157256
-0.157877
-0.158058
-0.158255
-0.158387
-0.158143
-0.157228
-0.155452
-0.152739
-0.149078
-0.144489
-0.139004
-0.132662
-0.125514
-0.117634
-0.109126
-0.100122
-0.0907754
-0.0812603
-0.0717518
-0.0624242
-0.053438
-0.0449382
-0.0370417
-0.029837
-0.0233741
-0.0176749
-0.0127318
-0.00851895
-0.00499406
-0.00209608
0.000236545
0.0020785
0.00349201
0.00455118
0.00530602
0.00581945
0.00613168
0.0062887
0.00631822
0.00625146
0.00610704
0.00590865
0.00566276
0.00538925
0.00508131
0.00475656
0.00440396
0.00403891
0.00364995
0.00325054
0.00282535
0.00238769
0.00191656
0.00142426
0.000885672
0.000315727
-0.127534
-0.136193
-0.141466
-0.143693
-0.144333
-0.144538
-0.14475
-0.144919
-0.144781
-0.144072
-0.142619
-0.140349
-0.13725
-0.133337
-0.128636
-0.123177
-0.116999
-0.110159
-0.102735
-0.0948345
-0.086582
-0.0781212
-0.0696011
-0.0611733
-0.0529798
-0.0451527
-0.0378021
-0.0310174
-0.024856
-0.0193519
-0.0145115
-0.0103237
-0.00676225
-0.00378135
-0.00133364
0.000643463
0.00220215
0.00340872
0.00430688
0.0049556
0.00539264
0.00566236
0.00579203
0.00581314
0.00574499
0.00561191
0.00542127
0.00519411
0.00492485
0.00463216
0.00430622
0.00396292
0.0035919
0.00320658
0.00279297
0.00236369
0.00189979
0.00141252
0.000879195
0.000313095
-0.116056
-0.12391
-0.128768
-0.130886
-0.13154
-0.131772
-0.132005
-0.132215
-0.132178
-0.131658
-0.130497
-0.128625
-0.126028
-0.12272
-0.118719
-0.114049
-0.10874
-0.102834
-0.0963907
-0.0894939
-0.0822444
-0.0747605
-0.0671671
-0.0595943
-0.0521667
-0.0450028
-0.0382048
-0.0318597
-0.0260293
-0.0207559
-0.0160571
-0.0119339
-0.00837417
-0.00534549
-0.00281383
-0.000728166
0.000953755
0.00229033
0.00331847
0.00409267
0.00464772
0.00502571
0.00525296
0.00536063
0.00536843
0.00530087
0.00516622
0.00498633
0.00475694
0.00449746
0.00419937
0.00387884
0.00352681
0.00315646
0.00275544
0.00233544
0.00187971
0.00139838
0.000871235
0.000309968
-0.10528
-0.112365
-0.116822
-0.118829
-0.119494
-0.119754
-0.120011
-0.120262
-0.120317
-0.119966
-0.119065
-0.117548
-0.115398
-0.112626
-0.109248
-0.105281
-0.100746
-0.095675
-0.0901134
-0.0841254
-0.0777912
-0.071207
-0.0644769
-0.0577111
-0.0510176
-0.0445012
-0.0382556
-0.0323633
-0.0268872
-0.0218749
-0.0173527
-0.0133313
-0.0098101
-0.0067685
-0.00418456
-0.00201822
-0.000236685
0.00121049
0.00235319
0.00324096
0.00390528
0.00438532
0.004706
0.00489769
0.0049802
0.00497773
0.00489922
0.00476701
0.00457817
0.00435268
0.00408342
0.00378656
0.00345453
0.00310009
0.00271254
0.00230271
0.00185612
0.0013817
0.000861684
0.000306317
-0.0951647
-0.101541
-0.105619
-0.107515
-0.108187
-0.108474
-0.108754
-0.109043
-0.10918
-0.108978
-0.108305
-0.1071
-0.105345
-0.103046
-0.100218
-0.0968724
-0.0930249
-0.0886979
-0.0839249
-0.0787551
-0.0732513
-0.0674912
-0.06156
-0.0555504
-0.0495548
-0.043665
-0.037965
-0.032532
-0.0274272
-0.0227012
-0.0183863
-0.0145003
-0.0110524
-0.0080318
-0.00542722
-0.00320877
-0.00135252
0.000184283
0.0014243
0.00241184
0.00317489
0.00374906
0.0041574
0.00442905
0.00458371
0.00464485
0.00462197
0.00453748
0.00438963
0.00419864
0.00395877
0.00368626
0.00337493
0.00303723
0.0026641
0.00226541
0.00182885
0.00136233
0.000850449
0.000302107
-0.0856954
-0.0914225
-0.0951439
-0.0969287
-0.0976026
-0.0979146
-0.0982173
-0.0985392
-0.0987453
-0.0986712
-0.0981973
-0.0972636
-0.095853
-0.0939699
-0.0916241
-0.0888256
-0.0855846
-0.0819166
-0.0778456
-0.0734086
-0.0686541
-0.0636439
-0.0584474
-0.0531413
-0.047804
-0.0425147
-0.037348
-0.0323741
-0.0276516
-0.0232313
-0.0191493
-0.0154286
-0.0120861
-0.00911863
-0.00652437
-0.00428254
-0.00237727
-0.000773077
0.000545469
0.0016173
0.00246683
0.00312566
0.00361452
0.00396079
0.0041838
0.00430589
0.00433688
0.00429916
0.00419207
0.00403589
0.00382597
0.00357853
0.00328851
0.00296805
0.00260994
0.00222322
0.00179773
0.00134019
0.00083749
0.000297329
-0.0768564
-0.0819859
-0.0853728
-0.0870479
-0.0877199
-0.0880538
-0.0883764
-0.088726
-0.0889902
-0.0890242
-0.0887196
-0.0880202
-0.0869082
-0.0853861
-0.0834613
-0.0811411
-0.0784322
-0.0753447
-0.0718952
-0.0681109
-0.0640285
-0.0596967
-0.0551712
-0.0505151
-0.0457937
-0.0410748
-0.0364233
-0.0319027
-0.0275672
-0.0234661
-0.0196375
-0.0161075
-0.0128988
-0.0100144
-0.00746002
-0.00522302
-0.00329475
-0.00164629
-0.000269302
0.000869669
0.0017917
0.00252408
0.00308481
0.00349912
0.00378569
0.00396539
0.00404791
0.00405531
0.0039877
0.00386553
0.00368522
0.00346306
0.00319509
0.00289294
0.0025508
0.00217667
0.00176271
0.00131507
0.00082264
0.000291875
-0.0686164
-0.0732001
-0.0762764
-0.0778454
-0.0785128
-0.078866
-0.0792059
-0.0795777
-0.0798888
-0.0800124
-0.0798506
-0.0793507
-0.0784951
-0.0772842
-0.075724
-0.0738194
-0.0715744
-0.0689952
-0.0660926
-0.062886
-0.0594027
-0.0556806
-0.0517637
-0.0477035
-0.0435539
-0.0393719
-0.0352135
-0.0311348
-0.0271851
-0.0234111
-0.0198509
-0.0165321
-0.0134818
-0.0107073
-0.0082203
-0.00601507
-0.00408935
-0.00241999
-0.00100538
0.000182409
0.00116132
0.00195437
0.00257649
0.00305055
0.00339437
0.00362701
0.00375778
0.00380836
0.00377925
0.00369051
0.00353918
0.00334162
0.00309518
0.00281107
0.00248521
0.00212481
0.00172418
0.00128773
0.000806308
0.000285992
-0.0609456
-0.0650346
-0.0678247
-0.0692924
-0.0699531
-0.0703232
-0.0706777
-0.0710667
-0.0714146
-0.0716108
-0.0715674
-0.0712356
-0.0705977
-0.0696531
-0.068406
-0.0668598
-0.0650167
-0.0628797
-0.0604553
-0.057757
-0.0548043
-0.0516264
-0.0482577
-0.0447394
-0.0411159
-0.0374347
-0.0337432
-0.0300904
-0.0265201
-0.0230756
-0.0197938
-0.0167021
-0.0138305
-0.0111892
-0.00879456
-0.0066463
-0.00474766
-0.00308032
-0.00164891
-0.00043097
0.00058853
0.00142835
0.0021001
0.00262409
0.0030172
0.00329661
0.00347069
0.00356051
0.00356701
0.00351027
0.00338772
0.00321533
0.00299106
0.00272551
0.00241626
0.0020694
0.00168117
0.00125643
0.000787418
0.000278901
-0.0538176
-0.0574589
-0.0599861
-0.061358
-0.0620107
-0.0623956
-0.0627626
-0.0631643
-0.0635398
-0.0637935
-0.0638469
-0.0636548
-0.0632001
-0.0624808
-0.0615003
-0.0602608
-0.058763
-0.057008
-0.0549989
-0.0527447
-0.050259
-0.0475635
-0.044685
-0.041656
-0.0385127
-0.035294
-0.03204
-0.0287926
-0.0255904
-0.0224723
-0.0194734
-0.0166199
-0.013943
-0.0114549
-0.00917476
-0.00710682
-0.00525876
-0.00361602
-0.00218878
-0.000959785
8.34421e-05
0.000955686
0.00166489
0.00222864
0.00266256
0.00298176
0.00319383
0.003319
0.00335765
0.00332936
0.00323239
0.00308275
0.00287953
0.00263263
0.00234082
0.00200946
0.00163611
0.00122436
0.000768369
0.000272686
-0.0472041
-0.0504415
-0.0527284
-0.0540107
-0.0546548
-0.0550531
-0.0554306
-0.0558412
-0.0562365
-0.0565345
-0.0566655
-0.0565882
-0.0562856
-0.0557554
-0.0549997
-0.0540203
-0.0528169
-0.0513891
-0.0497378
-0.0478685
-0.0457903
-0.0435193
-0.0410757
-0.038485
-0.0357763
-0.0329813
-0.0301331
-0.0272675
-0.0244177
-0.0216181
-0.0189014
-0.0162916
-0.0138204
-0.0115008
-0.00935368
-0.00738655
-0.00561066
-0.00401425
-0.00261218
-0.00139203
-0.000343419
0.000545055
0.00127776
0.00186936
0.00233446
0.00268597
0.00292965
0.00308511
0.00315303
0.00315225
0.00308056
0.00295293
0.00276895
0.00253797
0.00226166
0.00194407
0.00158598
0.00118663
0.000744033
0.000261932
-0.0410745
-0.0439491
-0.0460177
-0.0472171
-0.0478531
-0.0482642
-0.0486511
-0.0490676
-0.0494762
-0.0498074
-0.0499994
-0.0500147
-0.0498372
-0.0494637
-0.0488959
-0.0481351
-0.0471803
-0.0460306
-0.0446851
-0.0431468
-0.0414214
-0.0395205
-0.0374593
-0.0352575
-0.0329384
-0.0305276
-0.0280523
-0.0255426
-0.0230266
-0.0205342
-0.0180952
-0.0157307
-0.0134719
-0.0113317
-0.00933194
-0.00748218
-0.00579653
-0.0042651
-0.00290678
-0.00171364
-0.000676982
0.000211433
0.000952821
0.00155896
0.00204309
0.0024165
0.00268386
0.00286288
0.00295344
0.00297403
0.00292321
0.00281574
0.00265307
0.00244223
0.00218447
0.00188224
0.00153431
0.00115283
0.000728239
0.000260296
-0.0354099
-0.0379595
-0.0398299
-0.0409531
-0.0415813
-0.042004
-0.042399
-0.0428186
-0.0432349
-0.0435892
-0.0438277
-0.0439161
-0.0438392
-0.0435937
-0.0431805
-0.0426008
-0.0418536
-0.0409374
-0.0398504
-0.0385939
-0.0371711
-0.0355902
-0.0338622
-0.0320022
-0.0300287
-0.0279623
-0.0258253
-0.0236427
-0.0214384
-0.0192378
-0.017068
-0.0149468
-0.0129042
-0.0109519
-0.00911206
-0.00739492
-0.00581651
-0.00436798
-0.00307113
-0.00192208
-0.000913616
-3.97792e-05
0.000697181
0.00130593
0.00179925
0.00218589
0.00246832
0.00266431
0.00277299
0.00281205
0.00277835
0.00268658
0.00253554
0.00233486
0.00208839
0.00180152
0.00147816
0.00110065
0.000684198
0.000237265
-0.0301645
-0.0324249
-0.0341184
-0.0351739
-0.0357969
-0.0362324
-0.0366362
-0.0370585
-0.0374793
-0.0378497
-0.0381231
-0.0382688
-0.0382725
-0.0381303
-0.0378432
-0.0374121
-0.0368362
-0.036114
-0.0352431
-0.0342238
-0.0330578
-0.0317507
-0.0303106
-0.0287487
-0.0270797
-0.0253196
-0.0234869
-0.0216019
-0.0196848
-0.0177568
-0.0158425
-0.0139562
-0.012127
-0.010365
-0.0086921
-0.00711856
-0.00566178
-0.00431276
-0.00309538
-0.00200899
-0.00104696
-0.000205425
0.00051125
0.00110874
0.00159842
0.00198757
0.0022779
0.00248386
0.00260503
0.00265743
0.00263981
0.00256374
0.00243527
0.00225448
0.00203024
0.00175235
0.0014267
0.00108768
0.000696792
0.000252283
-0.025364
-0.0273656
-0.0288982
-0.0298904
-0.0305074
-0.0309539
-0.0313647
-0.0317868
-0.0322069
-0.032585
-0.0328813
-0.0330683
-0.0331327
-0.0330705
-0.0328823
-0.0325692
-0.0321307
-0.0315655
-0.030871
-0.0300471
-0.0290943
-0.0280166
-0.0268203
-0.0255139
-0.024109
-0.0226182
-0.0210565
-0.0194407
-0.0177875
-0.0161141
-0.0144425
-0.0127833
-0.011164
-0.00959253
-0.00808991
-0.0066659
-0.00533888
-0.0040996
-0.00297322
-0.00196227
-0.00106068
-0.000265523
0.000416368