/*--------------------------------*- C++ -*----------------------------------*\
| =========                 |                                                 |
| \\      /  F ield         | OpenFOAM: The Open Source CFD Toolbox           |
|  \\    /   O peration     | Version:  2312                                  |
|   \\  /    A nd           | Website:  www.openfoam.com                      |
|    \\/     M anipulation  |                                                 |
\*---------------------------------------------------------------------------*/
FoamFile
{
    version     2.0;
    format      ascii;
    arch        "LSB;label=32;scalar=64";
    class       volScalarField;
    location    "20.2";
    object      p;
}
// * * * * * * * * * * * * * * * * * * * * * * * * * * * * * * * * * * * * * //

dimensions      [0 2 -2 0 0 0 0];

internalField   nonuniform List<scalar> 
5478
(
-0.257705
-0.2556
-0.251882
-0.247818
-0.24515
-0.245172
-0.24834
-0.254243
-0.262069
-0.270293
-0.278606
-0.284451
-0.288861
-0.28769
-0.2822
-0.259596
-0.257633
-0.253425
-0.248709
-0.24493
-0.243159
-0.243726
-0.246328
-0.250016
-0.253842
-0.256481
-0.257127
-0.25522
-0.249959
-0.243498
-0.265467
-0.262761
-0.258176
-0.252733
-0.247572
-0.243405
-0.240612
-0.239028
-0.238043
-0.23671
-0.234413
-0.230786
-0.225875
-0.219875
-0.213471
-0.275348
-0.27088
-0.265108
-0.258341
-0.250978
-0.243614
-0.236864
-0.230869
-0.225263
-0.219771
-0.214103
-0.208197
-0.201858
-0.194927
-0.18792
-0.28912
-0.282049
-0.274247
-0.265105
-0.254257
-0.242766
-0.23174
-0.221583
-0.21235
-0.203836
-0.195782
-0.187987
-0.180129
-0.172417
-0.164879
-0.307198
-0.29641
-0.285941
-0.272657
-0.256608
-0.240148
-0.2248
-0.211039
-0.198777
-0.187785
-0.177805
-0.168583
-0.159914
-0.151832
-0.143853
-0.329657
-0.313692
-0.298956
-0.279045
-0.256325
-0.234498
-0.215036
-0.198075
-0.183344
-0.170482
-0.159141
-0.149005
-0.139822
-0.131473
-0.123408
-0.353384
-0.332392
-0.309775
-0.280944
-0.251077
-0.224162
-0.201075
-0.181508
-0.164874
-0.150649
-0.138389
-0.127748
-0.118505
-0.110449
-0.103094
-0.22766
-0.235016
-0.242831
-0.254133
-0.268681
-0.285585
-0.304152
-0.323749
-0.343795
-0.363726
-0.382974
-0.401048
-0.417681
-0.432757
-0.44569
-0.226861
-0.233747
-0.241214
-0.252072
-0.265928
-0.282024
-0.299745
-0.318532
-0.337893
-0.357375
-0.376507
-0.394762
-0.411745
-0.427497
-0.442304
-0.233826
-0.239071
-0.245619
-0.255543
-0.26845
-0.283586
-0.300379
-0.318332
-0.337021
-0.356075
-0.375168
-0.393948
-0.411751
-0.428667
-0.444161
-0.243989
-0.246905
-0.252102
-0.260678
-0.272167
-0.285866
-0.301251
-0.317887
-0.335423
-0.353528
-0.371628
-0.39093
-0.406985
-0.427323
-0.439123
-0.252796
-0.25322
-0.256653
-0.263268
-0.272666
-0.28427
-0.297627
-0.312357
-0.328056
-0.345072
-0.361021
-0.380498
-0.394558
-0.415032
-0.427174
-0.25792
-0.25637
-0.25767
-0.261581
-0.268023
-0.276762
-0.28747
-0.299954
-0.313337
-0.329136
-0.34253
-0.361691
-0.374664
-0.393476
-0.405353
-0.259341
-0.25676
-0.25585
-0.256515
-0.259276
-0.264465
-0.272011
-0.281863
-0.293164
-0.307383
-0.320861
-0.337182
-0.350495
-0.366129
-0.377891
-0.258518
-0.255912
-0.253236
-0.250911
-0.250209
-0.252129
-0.257164
-0.265315
-0.275803
-0.287422
-0.299711
-0.311009
-0.321399
-0.330715
-0.339101
-0.459619
-0.454707
-0.427538
-0.374232
-0.298931
-0.201344
-0.0875455
0.0186528
0.0840183
0.110184
0.107955
0.0937225
0.0772621
0.0627362
0.0510761
0.0417949
0.0342851
0.028589
0.0237613
0.0203851
0.0172629
0.0149122
0.0129838
0.0111486
0.00983139
0.00870247
0.00757181
0.00692866
0.0062321
0.00545175
0.00513967
0.00471521
0.00401225
0.00360216
0.0032945
0.0031133
0.0021314
0.000511689
-0.463011
-0.461646
-0.438017
-0.386459
-0.310963
-0.212859
-0.0945746
0.0168785
0.0848146
0.112033
0.109733
0.095282
0.0787884
0.0639925
0.0521126
0.0424938
0.0349401
0.0289624
0.0241818
0.0206314
0.0175026
0.0151158
0.013093
0.0112699
0.00993341
0.00873808
0.00764987
0.00698408
0.0062321
0.00550383
0.00518749
0.00469561
0.00402782
0.00364483
0.00332225
0.0030723
0.00210639
0.000569303
-0.471759
-0.474915
-0.45669
-0.408795
-0.336943
-0.242635
-0.121077
-0.000515551
0.0743844
0.106416
0.107473
0.0945492
0.0787077
0.0644564
0.0527557
0.0430484
0.0354869
0.029239
0.0245884
0.0207771
0.0177467
0.0152845
0.013187
0.0114008
0.0100274
0.0087795
0.00772999
0.00704014
0.00623639
0.00555619
0.00523517
0.00467912
0.00404514
0.00368687
0.00334942
0.00303228
0.00208583
0.000625328
-0.471252
-0.481313
-0.468456
-0.427008
-0.360965
-0.27112
-0.152393
-0.029879
0.0524887
0.091206
0.0980574
0.0896335
0.0762137
0.063278
0.0521054
0.0429131
0.0355703
0.0293199
0.0248101
0.0208473
0.0179329
0.0154134
0.0132701
0.0115269
0.0101152
0.00882833
0.00780879
0.00709634
0.0062482
0.00560683
0.00528096
0.00466926
0.00406484
0.00372589
0.00337445
0.00299566
0.00207304
0.000676909
-0.45346
-0.473924
-0.471152
-0.438468
-0.381289
-0.300214
-0.186831
-0.0646956
0.0230654
0.0690104
0.0831577
0.0813632
0.0723137
0.0614776
0.0514096
0.0428029
0.0355739
0.0294611
0.0249202
0.020933
0.0180423
0.0155119
0.0133407
0.0116323
0.0101973
0.00888069
0.00788241
0.00715184
0.00626774
0.0056537
0.00532391
0.00466759
0.00408629
0.00376015
0.0033963
0.00296442
0.00207076
0.000720797
-0.42204
-0.4513
-0.455828
-0.432559
-0.383616
-0.311315
-0.213452
-0.0992368
-0.00978103
0.042792
0.0657039
0.0697084
0.0652794
0.0572583
0.0489938
0.0417098
0.035144
0.0294108
0.0249263
0.0210623
0.0181244
0.0156231
0.0134322
0.0117274
0.0102873
0.0089429
0.00795084
0.00720782
0.00629754
0.00569583
0.00536223
0.00467581
0.00410992
0.003788
0.00341358
0.00294022
0.00208125
0.000753745
-0.389422
-0.420438
-0.436755
-0.423799
-0.384001
-0.318896
-0.228602
-0.127586
-0.0382352
0.020421
0.0493708
0.060329
0.0606291
0.0553548
0.0484375
0.0412889
0.0347998
0.0292937
0.0248713
0.0210759
0.0181395
0.0156705
0.0134836
0.0118
0.01035
0.00900552
0.00801246
0.00725436
0.00633663
0.00573493
0.00539288
0.00469265
0.00413777
0.00380995
0.00342359
0.00292343
0.00210772
0.000772659
-0.351889
-0.375075
-0.388414
-0.38467
-0.360419
-0.312152
-0.241503
-0.155883
-0.0766378
-0.0135097
0.0256084
0.0447738
0.0509615
0.0494804
0.0451785
0.0395815
0.0342376
0.0292138
0.0249448
0.0213051
0.0182609
0.0158425
0.0136176
0.0119002
0.0104787
0.00908055
0.00807571
0.00732537
0.00638307
0.00576545
0.00542873
0.00472087
0.0041639
0.00382393
0.00343152
0.00291525
0.00214954
0.000774731
-0.30846
-0.335875
-0.346938
-0.343954
-0.321147
-0.280218
-0.221457
-0.150135
-0.0796017
-0.0223758
0.0148395
0.0352793
0.0444566
0.045839
0.0431085
0.0379266
0.0331088
0.0284439
0.0244424
0.0208753
0.0181074
0.0156246
0.0135792
0.0118985
0.0103913
0.0091969
0.00808711
0.00728959
0.00651298
0.00578717
0.00538472
0.00481252
0.00422186
0.00380683
0.00339921
0.00295384
0.00222326
0.000757465
-0.251092
-0.279137
-0.283174
-0.27204
-0.252603
-0.221501
-0.177474
-0.124547
-0.072857
-0.028933
0.00282436
0.0218486
0.03126
0.0342094
0.0337221
0.0317704
0.028965
0.025636
0.022596
0.0196926
0.0172309
0.0150791
0.0131874
0.0116298
0.0102322
0.00909534
0.00801168
0.00726071
0.00651534
0.00575734
0.00537685
0.00484955
0.00421706
0.00378793
0.00338889
0.00300424
0.00224934
0.000724584
-0.204935
-0.230347
-0.236006
-0.228747
-0.212194
-0.187993
-0.156404
-0.118346
-0.0776905
-0.0398859
-0.0100159
0.00954971
0.0209007
0.0269281
0.0290239
0.0283041
0.0262969
0.0236816
0.0210931
0.0186373
0.0164868
0.0145181
0.0128168
0.0113616
0.0100357
0.00898709
0.00794229
0.00720234
0.00650063
0.00574701
0.00535914
0.00485845
0.00421685
0.00378771
0.00337452
0.00303153
0.00225653
0.000701227
-0.167599
-0.187867
-0.193184
-0.18604
-0.171884
-0.152935
-0.128818
-0.0995123
-0.0680409
-0.038605
-0.0143767
0.00274292
0.0135146
0.019658
0.0225065
0.0228818
0.0221275
0.0206278
0.0190388
0.0171508
0.0154495
0.013777
0.012306
0.0110091
0.00977327
0.00884814
0.00783703
0.00711794
0.00648972
0.00572497
0.00532516
0.004876
0.00422923
0.00377788
0.00335352
0.00306114
0.00228501
0.000690118
-0.13485
-0.151274
-0.156344
-0.151703
-0.141345
-0.12722
-0.109615
-0.088932
-0.0663317
-0.0437241
-0.0233241
-0.0071381
0.00401429
0.0113531
0.015695
0.0179274
0.0185708
0.0180554
0.0169791
0.0156446
0.0143594
0.0129637
0.0117235
0.010591
0.00946637
0.00866312
0.00769245
0.00702272
0.00645492
0.00568023
0.00529697
0.00488956
0.00422752
0.00376588
0.00334155
0.00309615
0.00232554
0.000682446
-0.108322
-0.121536
-0.126218
-0.123255
-0.11556
-0.104647
-0.091495
-0.0760067
-0.0586134
-0.0406479
-0.0239362
-0.0100995
4.48215e-05
0.00703147
0.0115851
0.0140016
0.0150235
0.0150608
0.0147351
0.0139572
0.0131161
0.0120257
0.0110343
0.0100977
0.00910056
0.00842287
0.00751609
0.00690023
0.00638956
0.00562817
0.00526366
0.00488319
0.00422096
0.00376254
0.00333107
0.00312228
0.00236449
0.000678855
-0.0866431
-0.0969776
-0.101034
-0.0992167
-0.0936724
-0.0858337
-0.0762481
-0.0650917
-0.0526506
-0.0396375
-0.0269907
-0.0156819
-0.00652625
0.000473492
0.00543259
0.0089954
0.0112042
0.0121099
0.0123968
0.0121374
0.0117449
0.0109731
0.0102398
0.00951957
0.00866524
0.00812891
0.00729904
0.00674589
0.00630291
0.0055595
0.0052152
0.00486567
0.0042134
0.00375666
0.00331406
0.00313754
0.00240484
0.000683498
-0.0688124
-0.0769303
-0.0804316
-0.0795133
-0.0756979
-0.0700969
-0.0632107
-0.0551095
-0.0459945
-0.0361122
-0.0260117
-0.0165225
-0.00838933
-0.00194276
0.00279303
0.00606678
0.00830004
0.00954287
0.0101733
0.0103556
0.0103633
0.00988812
0.00940348
0.00888888
0.00818302
0.00778819
0.00704103
0.00656332
0.00618788
0.00546487
0.00515729
0.00483829
0.00419249
0.0037448
0.00329581
0.00314449
0.00244608
0.000694422
-0.0543759
-0.0607001
-0.063631
-0.0632641
-0.0606739
-0.0567192
-0.0518484
-0.0460951
-0.0395639
-0.0324214
-0.0250043
-0.0178396
-0.0113439
-0.00567919
-0.00119988
0.00239872
0.00515321
0.0068095
0.00788946
0.00846398
0.00886362
0.00869739
0.00845957
0.00817112
0.00763393
0.00739257
0.00674075
0.00634649
0.00604358
0.00535125
0.00508867
0.00479696
0.00416072
0.00373156
0.00327924
0.00314326
0.00248378
0.000712572
-0.0427793
-0.0476567
-0.0500652
-0.0500493
-0.048355
-0.0456155
-0.0422167
-0.0381737
-0.0335382
-0.0284035
-0.0228535
-0.017239
-0.0118922
-0.0069969
-0.00298385
0.000292044
0.00298785
0.00478953
0.00597656
0.00679482
0.00748052
0.00756108
0.00752533
0.0074255
0.00703576
0.00694074
0.00639077
0.0060739
0.00585873
0.0052078
0.00498266
0.00473054
0.00411379
0.00370483
0.00324234
0.00312782
0.00251214
0.000718438
-0.0332829
-0.0370199
-0.0389667
-0.0391515
-0.0380871
-0.0362292
-0.033907
-0.0311272
-0.0279141
-0.0242849
-0.0202334
-0.0160373
-0.0119403
-0.00798305
-0.00459713
-0.00168799
0.000953039
0.00282237
0.00416701
0.00516958
0.00610409
0.00642487
0.00660601
0.00668215
0.00646318
0.00650578
0.00605653
0.00584649
0.00569043
0.00508356
0.00492848
0.00468425
0.00408032
0.00371137
0.00324432
0.00310817
0.0025501
0.000775041
-0.0258343
-0.0286853
-0.0302307
-0.0305027
-0.0298549
-0.0286084
-0.0270463
-0.0251602
-0.0229576
-0.0204574
-0.0175873
-0.0145362
-0.011436
-0.00825795
-0.00543229
-0.0028893
-0.000450049
0.0013762
0.00269598
0.00374476
0.00479825
0.00528385
0.00558198
0.00582924
0.00572944
0.00590934
0.00557301
0.00542439
0.00538496
0.00482544
0.00469832
0.00453324
0.00395023
0.00359373
0.00313155
0.00301577
0.00250327
0.000715344
-0.0195313
-0.0216964
-0.022906
-0.0232084
-0.0228371
-0.0220049
-0.0209562
-0.0196694
-0.018161
-0.0164534
-0.0144369
-0.0122464
-0.00996718
-0.00750948
-0.00528796
-0.00322488
-0.00112351
0.000534702
0.00175833
0.00278078
0.00390301
0.00449293
0.00494183
0.00526402
0.00529599
0.00557124
0.00532439
0.00528003
0.00527822
0.00478344
0.00472423
0.00455538
0.00399341
0.0036866
0.00321728
0.00308126
0.00260036
0.000861697
-0.0148796
-0.0164934
-0.0174188
-0.0177124
-0.0175229
-0.0169879
-0.0163249
-0.0154994
-0.0145208
-0.013409
-0.0120371
-0.0105297
-0.00892161
-0.00707947
-0.00537059
-0.00373778
-0.00193113
-0.00045841
0.000652439
0.00162326
0.0027315
0.00338969
0.0038621
0.00431569
0.00442993
0.00480586
0.00466389
0.00467058
0.00478358
0.0043402
0.00431243
0.00423112
0.00369939
0.00340283
0.00294198
0.00275183
0.00238945
0.00069308
-0.0103886
-0.011622
-0.0123284
-0.0125849
-0.0124902
-0.0121324
-0.01171
-0.0111728
-0.010527
-0.00979937
-0.00886567
-0.00783598
-0.00672235
-0.005362
-0.00411157
-0.00288178
-0.00142796
-0.000212217
0.000683883
0.00150371
0.00253719
0.00317345
0.00369571
0.00412756
0.00430031
0.00471243
0.00463563
0.00469921
0.00485093
0.00446736
0.00447454
0.00441644
0.00388569
0.00363774
0.00318234
0.00302385
0.0025758
0.000937782
-0.00754608
-0.00846449
-0.00899605
-0.00922888
-0.0092172
-0.00900339
-0.00876293
-0.00844575
-0.00806582
-0.00765101
-0.00706851
-0.00642619
-0.00570517
-0.00474767
-0.00388422
-0.00300739
-0.00182211
-0.000824757
-0.000102766
0.000608702
0.00154691
0.00216634
0.00263011
0.00314002
0.00335807
0.00380932
0.00382235
0.0039226
0.00414937
0.00383064
0.00387662
0.00387226
0.00340297
0.00316134
0.00268311
0.0023025
0.00217104
0.000692245
-0.00405395
-0.0047424
-0.00514821
-0.00536335
-0.00540506
-0.00528735
-0.00517759
-0.00501052
-0.00478728
-0.00455038
-0.0041618
-0.00375112
-0.00329204
-0.00261886
-0.00204649
-0.00147474
-0.000562981
0.00020516
0.000708042
0.00123447
0.00202384
0.00257264
0.00297457
0.0034261
0.00359239
0.00405277
0.00408182
0.0041596
0.00448008
0.00413574
0.00420113
0.00426576
0.00372112
0.00356554
0.0031012
0.00285646
0.00242791
0.000987984
-0.0021778
-0.00272834
-0.00305378
-0.00326317
-0.00334783
-0.0033133
-0.00330204
-0.00324622
-0.00316373
-0.00309158
-0.00290996
-0.00275424
-0.00252913
-0.00211634
-0.00177272
-0.00140009
-0.000705767
-0.000181942
0.00017608
0.000636328
0.00126586
0.00174753
0.00202345
0.00252937
0.00269867
0.00312249
0.00325293
0.00331363
0.00366442
0.00342271
0.00349552
0.00357542
0.00316994
0.00298172
0.00244227
0.00170462
0.00189817
0.00079132
0.000582001
0.000164671
-0.000111138
-0.000331638
-0.000468931
-0.000518719
-0.000587225
-0.000623531
-0.000619739
-0.000628436
-0.000513696
-0.000446522
-0.000324352
-0.000103304
8.17383e-05
0.000265105
0.000795296
0.0011317
0.00136603
0.00166469
0.00216284
0.00256403
0.00272296
0.00319892
0.00315106
0.00368878
0.00370779
0.00373175
0.00423663
0.00383361
0.00393976
0.00409777
0.00359206
0.00346781
0.00294761
0.00256353
0.00227356
0.00100506
0.00210762
0.00172682
0.00143615
0.00120465
0.00101119
0.000850442
0.000699462
0.000527487
0.000403574
0.000261012
0.000212131
0.000195947
0.000236653
0.000285418
0.000438035
0.000462255
0.000680522
0.000894782
0.00116338
0.00134858
0.00163188
0.00202227
0.0020959
0.00263629
0.00247569
0.00301056
0.00311548
0.0029929
0.00366471
0.00331973
0.00332073
0.00370255
0.00330834
0.0030566
0.00263356
0.00230275
0.00222214
0.000991464
0.0036115
0.00333153
0.00307224
0.00285615
0.00267226
0.00249944
0.00235942
0.00221451
0.00208811
0.00197612
0.00187474
0.00179888
0.00178368
0.00175681
0.00184522
0.00190818
0.00195081
0.00202519
0.00220815
0.00238739
0.00249709
0.00275633
0.0028504
0.00315197
0.00320132
0.00341
0.00361222
0.00356333
0.00387021
0.00378777
0.00376001
0.0038837
0.0035478
0.003405
0.00310281
0.00230632
0.00185657
0.000924332
0.00414239
0.00391507
0.00369883
0.00349133
0.00329021
0.00309332
0.00290999
0.0027325
0.00257011
0.00241693
0.00229047
0.00218026
0.00209788
0.00202287
0.00199386
0.00196361
0.00195951
0.00200516
0.00208115
0.00218678
0.00224879
0.00242824
0.0025064
0.00271496
0.00281026
0.00294139
0.0031561
0.00311617
0.00337706
0.00337785
0.00328764
0.00350988
0.00324155
0.00295103
0.00277693
0.00208449
0.00133712
0.000584615
0.00466881
0.00446331
0.0042592
0.00406343
0.00387746
0.00369602
0.00352444
0.00335835
0.0032002
0.00305173
0.00290795
0.00277878
0.00268357
0.00260258
0.00255684
0.00253908
0.00251254
0.0024994
0.00253422
0.00261907
0.00267754
0.00278083
0.00287004
0.00299785
0.00311999
0.0032026
0.00336601
0.0034022
0.00350983
0.003589
0.00349753
0.00354002
0.00338322
0.00302502
0.0027624
0.00215439
0.0013334
0.000555525
-0.0947714
-0.11351
-0.133192
-0.154667
-0.178155
-0.204598
-0.233302
-0.267185
-0.0864109
-0.102177
-0.117932
-0.135164
-0.152454
-0.171607
-0.19023
-0.213466
-0.0751901
-0.0869687
-0.0983847
-0.110819
-0.123579
-0.137483
-0.15322
-0.17278
-0.065718
-0.074781
-0.0838697
-0.0935331
-0.10425
-0.115716
-0.128952
-0.143995
-0.0568106
-0.0639229
-0.0712184
-0.0788313
-0.0872344
-0.0957709
-0.105312
-0.116598
-0.0491029
-0.0544866
-0.0599531
-0.0654912
-0.0715394
-0.0777869
-0.0850798
-0.0940729
-0.0418879
-0.045808
-0.0497783
-0.0538739
-0.0584558
-0.063334
-0.0689976
-0.0759064
-0.0354905
-0.0383271
-0.0412102
-0.0442463
-0.0476516
-0.0512656
-0.0554275
-0.0606455
-0.0298162
-0.0318167
-0.0338332
-0.0359724
-0.0383877
-0.0410047
-0.044109
-0.0481339
-0.0247469
-0.0261285
-0.0275077
-0.0289912
-0.0307067
-0.0326313
-0.0349686
-0.0380504
-0.0202304
-0.0211823
-0.022118
-0.0231287
-0.0243158
-0.025682
-0.0273886
-0.0297112
-0.0163065
-0.0169666
-0.017615
-0.0183075
-0.0191218
-0.0200884
-0.0213493
-0.0231225
-0.0127629
-0.0132244
-0.0136565
-0.0140914
-0.0145976
-0.0152346
-0.0161364
-0.0174724
-0.00986064
-0.0101412
-0.0104367
-0.010761
-0.0111499
-0.0116385
-0.0123259
-0.0133387
-0.00687763
-0.00712515
-0.00737282
-0.00759102
-0.00779848
-0.00805431
-0.0084824
-0.0092131
-0.00473309
-0.00485405
-0.00501138
-0.00517444
-0.00535497
-0.00560492
-0.00601069
-0.00662895
-0.00219134
-0.00233774
-0.00250496
-0.00263575
-0.00272491
-0.00282228
-0.0030217
-0.00340355
-0.000347977
-0.000433206
-0.000565247
-0.000688321
-0.000797071
-0.0009403
-0.00119722
-0.00159769
0.0019624
0.00182509
0.00165893
0.00152639
0.00144003
0.00135859
0.0012169
0.000974326
0.00395208
0.00374707
0.00353604
0.00333304
0.00314298
0.00294649
0.00272579
0.0024589
0.00478776
0.0046495
0.00451328
0.0043744
0.00423806
0.00410589
0.00397564
0.00382768
0.00543948
0.00527912
0.00511966
0.00495935
0.00480009
0.0046439
0.00449069
0.00433639
0.00577827
0.00563654
0.00550071
0.00536784
0.00523555
0.00510305
0.00497093
0.00483832
0.0882801
0.0931547
0.0979349
0.101869
0.104203
0.104808
0.103574
0.100003
0.0931915
0.0818577
0.0642369
0.0379348
-0.000878421
-0.0552166
-0.101567
0.0660976
0.0686493
0.0698892
0.0699515
0.0686641
0.0657091
0.0606182
0.0526697
0.0408527
0.0238142
-0.000310999
-0.033929
-0.0804084
-0.143646
-0.191669
0.0430937
0.0434595
0.0414005
0.0380882
0.033669
0.0275687
0.0190668
0.00733573
-0.00868305
-0.0304046
-0.0597594
-0.0992961
-0.151459
-0.219142
-0.265541
0.0184705
0.0166103
0.0121463
0.006578
-0.000138348
-0.00877119
-0.0200848
-0.034858
-0.0540876
-0.0793273
-0.112435
-0.155993
-0.211616
-0.278224
-0.321344
-0.00718941
-0.0111921
-0.0171229
-0.023965
-0.032251
-0.0427686
-0.0561448
-0.0731136
-0.0944023
-0.121864
-0.15715
-0.20246
-0.258191
-0.320329
-0.358481
-0.0327692
-0.0384956
-0.0452484
-0.0529223
-0.0623283
-0.0740786
-0.0886839
-0.106833
-0.129416
-0.157686
-0.193266
-0.237682
-0.290528
-0.345286
-0.377905
-0.0579045
-0.0642095
-0.0713862
-0.0798083
-0.0900219
-0.102463
-0.117596
-0.136048
-0.158622
-0.186324
-0.220427
-0.261773
-0.308838
-0.353692
-0.381726
-0.0814011
-0.0881026
-0.0957163
-0.104672
-0.115298
-0.127897
-0.142878
-0.160789
-0.182297
-0.208207
-0.239353
-0.275761
-0.314489
-0.347933
-0.372554
0.20844
0.223704
0.24045
0.259035
0.279526
0.30182
0.325803
0.351409
0.37855
0.406974
0.436126
0.464936
0.491551
0.51245
0.529879
0.207685
0.222217
0.23813
0.256024
0.275896
0.297473
0.320569
0.34511
0.371002
0.397965
0.425386
0.45212
0.476209
0.494193
0.508784
0.202539
0.215548
0.230244
0.247119
0.265874
0.28606
0.30742
0.329853
0.353226
0.377195
0.401052
0.423533
0.442485
0.45459
0.46366
0.193395
0.204241
0.21729
0.232653
0.24967
0.267731
0.286541
0.305961
0.325776
0.345509
0.364285
0.380651
0.392165
0.395606
0.397064
0.179748
0.188385
0.199691
0.213345
0.228206
0.243491
0.258926
0.274404
0.289658
0.304061
0.316524
0.325356
0.327772
0.320416
0.312574
0.162322
0.16828
0.177645
0.189416
0.201868
0.214056
0.225709
0.236712
0.246714
0.254948
0.260132
0.26035
0.252491
0.233058
0.214215
0.141188
0.145088
0.152802
0.162251
0.171591
0.180097
0.187589
0.193853
0.19833
0.20005
0.197541
0.188674
0.170058
0.138198
0.108116
0.115958
0.118954
0.125997
0.133141
0.139024
0.143451
0.146458
0.147725
0.146485
0.141569
0.131323
0.113416
0.0841945
0.0403857
0.000484573
0.0249765
0.0256824
0.0252652
0.0278579
0.0269049
0.0312021
0.0297515
0.0350099
0.0350741
0.0399564
0.0421869
0.0480925
0.0519985
0.0589435
0.0652301
0.0740408
0.0831747
0.094953
0.107891
0.123764
0.141555
0.162891
0.186964
0.0249794
0.0256731
0.0252703
0.0279038
0.0269567
0.0311316
0.0298046
0.0349757
0.0351394
0.0398911
0.0422703
0.0480738
0.052143
0.0590647
0.0655133
0.0743612
0.0836164
0.0954533
0.108397
0.124388
0.141999
0.163188
0.186859
0.0249811
0.0256559
0.0252805
0.0279243
0.0270309
0.0310292
0.0298715
0.0349165
0.0352369
0.039997
0.0424037
0.0480485
0.0522937
0.059159
0.0657481
0.074598
0.0839094
0.0957754
0.108417
0.124179
0.141091
0.162063
0.183626
0.0249816
0.0256334
0.0252958
0.0279209
0.0271211
0.0309039
0.0299455
0.0348404
0.0353519
0.0399798
0.0425414
0.0480111
0.0524366
0.0592286
0.0659101
0.0747374
0.0839601
0.0958728
0.108188
0.123901
0.139861
0.159515
0.178381
0.0249805
0.0256085
0.0253142
0.0278947
0.0272226
0.0307672
0.030076
0.0347396
0.0354896
0.039995
0.0427102
0.0479814
0.0525998
0.0593321
0.0660905
0.0748874
0.0839186
0.0954361
0.106795
0.121479
0.135831
0.153154
0.16838
0.024978
0.0255834
0.025335
0.0278476
0.0273231
0.030624
0.0303028
0.0346687
0.0356275
0.0399332
0.0428277
0.0479475
0.0527151
0.0594492
0.066179
0.0750326
0.0839658
0.0955569
0.106665
0.120814
0.131817
0.147041
0.155955
0.0249749
0.0255609
0.0253533
0.0277836
0.0274296
0.0304894
0.030463
0.0345314
0.0357819
0.0400119
0.0430754
0.0479909
0.0529363
0.0595858
0.0662546
0.074796
0.0832453
0.093751
0.103537
0.115997
0.125494
0.136499
0.139823
0.0249695
0.0255451
0.0253678
0.0276957
0.0275123
0.0303894
0.0307836
0.0345468
0.035955
0.039902
0.0431117
0.0480544
0.0531978
0.0601219
0.0668015
0.0757773
0.0840155
0.0948386
0.103818
0.114203
0.119336
0.125884
0.120478
0.0249429
0.0255153
0.025377
0.027617
0.0276405
0.0301196
0.030815
0.0341829
0.0360805
0.0401709
0.0436248
0.0478718
0.053068
0.0590382
0.0654875
0.0730281
0.0806958
0.0887869
0.0958145
0.101703
0.10391
0.101766
0.0930324
0.0248971
0.0254878
0.0253761
0.0274307
0.0276629
0.0297213
0.0309171
0.0336515
0.035887
0.0387813
0.0422646
0.0462178
0.051339
0.0564791
0.0624765
0.0685514
0.0750501
0.0806201
0.0854324
0.087496
0.0875471
0.0827701
0.0746147
0.0248497
0.0254317
0.0253434
0.0272072
0.0277163
0.0292655
0.0309839
0.032998
0.0355151
0.0381226
0.0415327
0.0448794
0.0496524
0.0539942
0.0591206
0.063827
0.0687055
0.0721231
0.0745358
0.0742019
0.0716323
0.0656125
0.0575103
0.0247917
0.0253487
0.0252942
0.0269567
0.02774
0.0287446
0.0309744
0.032345
0.0350221
0.0371033
0.04018
0.0432105
0.0473354
0.0509837
0.0550001
0.0584877
0.0617375
0.0633954
0.0636438
0.0615313
0.0574222
0.0510544
0.0432616
0.0247195
0.0252419
0.0252134
0.0266704
0.0277203
0.028214
0.0308324
0.0316507
0.0342708
0.0361762
0.0386433
0.0413117
0.0447666
0.04764
0.0505161
0.052799
0.0545251
0.0546356
0.0532688
0.0499288
0.0450588
0.0386043
0.031241
0.0246275
0.0251123
0.0250965
0.0263579
0.0276197
0.0276719
0.0305279
0.030947
0.0333012
0.0350679
0.0368345
0.0390641
0.0418989
0.0438991
0.0456563
0.0468378
0.0473176
0.0462043
0.0437449
0.0396922
0.0344719
0.0280897
0.021192
0.0245111
0.0249601
0.0249324
0.0260162
0.0274244
0.0271304
0.0300293
0.030193
0.0321178
0.0338085
0.0348713
0.0364921
0.0388061
0.0399499
0.0406185
0.0408783
0.0404133
0.0384145
0.0352313
0.0308866
0.0256665
0.0194854
0.0128607
0.0243636
0.0247817
0.024717
0.0256503
0.0271121
0.0265762
0.0293383
0.029371
0.0307696
0.0323089
0.0327706
0.0336833
0.0354956
0.0359255
0.0355766
0.0350743
0.0339797
0.0314255
0.0278154
0.0234999
0.0186745
0.0129038
0.00661085
0.0241801
0.0245755
0.0244458
0.0252497
0.0266799
0.0260018
0.0284784
0.028445
0.0292896
0.0306031
0.0305603
0.0307701
0.0320626
0.031943
0.03075
0.0296259
0.0281536
0.0253278
0.0215161
0.0173605
0.0129632
0.00784182
0.00207155
0.0239564
0.0243364
0.0241154
0.0248074
0.0261309
0.0253854
0.0274788
0.0273922
0.0277243
0.0287425
0.0282722
0.0278614
0.0286199
0.0280717
0.0262759
0.0246868
0.0230169
0.0201416
0.0163343
0.0124443
0.00859213
0.00415695
-0.00098148
0.0236903
0.0240592
0.0237243
0.0243116
0.0254834
0.0247093
0.0263779
0.0262048
0.0261055
0.0267884
0.0259617
0.0250594
0.0253365
0.0244473
0.0222569
0.0203569
0.0186121
0.0158463
0.0122259
0.00868407
0.00538684
0.00163364
-0.00277658
0.023379
0.0237426
0.0232735
0.0237486
0.0247518
0.0239685
0.0252118
0.0249093
0.0244579
0.0248103
0.0236608
0.0223935
0.0223073
0.0211938
0.0188037
0.0167522
0.0150081
0.0124125
0.00907221
0.005933
0.00317849
9.50597e-05
-0.00358974
0.023023
0.0233767
0.0227657
0.0231223
0.0239572
0.0231423
0.0240077
0.0235456
0.0228536
0.0229344
0.0215057
0.0199626
0.0195841
0.018303
0.0158414
0.0137834
0.0121447
0.00980079
0.00682432
0.00413094
0.00189093
-0.000625399
-0.00374159
0.0226336
0.0229717
0.0221806
0.0224181
0.023136
0.0222978
0.0227685
0.0221353
0.0212772
0.0211505
0.0195692
0.0178953
0.017373
0.0160185
0.0135606
0.0115462
0.0100086
0.00787389
0.00521691
0.00291999
0.00112016
-0.000884335
-0.00340264
0.0221986
0.0225246
0.0215616
0.0216706
0.0222992
0.0214183
0.0215504
0.0207794
0.0198387
0.0195535
0.0178042
0.0160565
0.0154751
0.0141424
0.0118142
0.00998096
0.00864035
0.00676808
0.00446743
0.00257528
0.00116334
-0.000470827
-0.00260549
0.0217696
0.0220129
0.0208416
0.020902
0.021509
0.0205323
0.0203364
0.0194934
0.0186403
0.0182712
0.0164322
0.0147148
0.0141461
0.0128339
0.0105922
0.00886037
0.00761502
0.00590134
0.00386901
0.00230782
0.0012297
-3.59522e-05
-0.00172146
0.0213143
0.0215036
0.0201407
0.0201478
0.0207923
0.0197319
0.0191064
0.0183049
0.0175925
0.0171247
0.0152755
0.0136971
0.0132608
0.0121352
0.0101663
0.00867338
0.00758887
0.00607288
0.00433093
0.00306625
0.00220465
0.00111013
-0.000370823
0.0208997
0.0208884
0.0194384
0.0194852
0.0201124
0.0189298
0.0181651
0.017439
0.0169131
0.0163504
0.0145051
0.0131476
0.0128205
0.0117511
0.00994844
0.00859914
0.00755487
0.00612498
0.00461318
0.00361811
0.00297557
0.00210803
0.000941635
0.0205496
0.0203439
0.0188185
0.0189807
0.0194957
0.0182906
0.0173193
0.0167702
0.0164479
0.0156813
0.0140179
0.0130869
0.01297
0.0121184
0.0106608
0.00953069
0.00854567
0.00726441
0.00602933
0.0052424
0.00466354
0.0038656
0.00288356
0.0201386
0.0198445
0.0184581
0.0184276
0.0190276
0.0179631
0.0167593
0.0163884
0.0162269
0.0155291
0.0143077
0.0133715
0.0130323
0.0125617
0.0116062
0.0105995
0.00977966
0.00899707
0.00818711
0.00747092
0.00684763
0.00619813
0.00545838
0.0195236
0.0194557
0.0184578
0.0177519
0.017977
0.0174599
0.0162556
0.0156095
0.0153272
0.0148207
0.0138352
0.012734
0.0120274
0.0115979
0.0109957
0.0102
0.00948695
0.00892633
0.00839985
0.00788246
0.00742675
0.00704462
0.00665221
0.0191602
0.0191286
0.0181455
0.0173221
0.0174958
0.01718
0.0160746
0.0152692
0.0150716
0.0147153
0.0138261
0.0128191
0.0120994
0.0116191
0.0111267
0.0105268
0.00989071
0.0093018
0.00877834
0.00831343
0.00788894
0.00748743
0.00709174
0.0188889
0.0188175
0.0182293
0.0172865
0.0169339
0.01666
0.0159649
0.0151473
0.0145968
0.0141552
0.0135368
0.012724
0.0119331
0.0113209
0.010819
0.0103069
0.00977208
0.00927433
0.00883342
0.00843813
0.00807716
0.00775626
0.00746929
0.0812633
0.0621997
0.0383961
0.0152138
-0.0079642
-0.0312843
-0.0538554
-0.0750902
0.065307
0.0456672
0.0209416
-0.000273028
-0.0190081
-0.0372251
-0.0544956
-0.0706869
0.0500675
0.0346002
0.0132319
-0.00593027
-0.0212723
-0.0351506
-0.0488521
-0.0625315
0.0366444
0.0238361
0.00505626
-0.0121746
-0.0254489
-0.0362471
-0.0463961
-0.0562595
0.0251816
0.0146978
-0.000909981
-0.0155352
-0.0262601
-0.0342767
-0.0418278
-0.0493818
0.0158524
0.007451
-0.00525619
-0.017416
-0.0261385
-0.0322785
-0.0379009
-0.0435068
0.00801395
0.00154823
-0.00819711
-0.0177777
-0.0246949
-0.0294375
-0.03363
-0.0377709
0.00174323
-0.00345215
-0.0103404
-0.0170772
-0.0222959
-0.0261048
-0.0293807
-0.0324815
-0.00258569
-0.00681868
-0.0114326
-0.0158842
-0.0196681
-0.0227019
-0.0253026
-0.027641
-0.00523061
-0.00861292
-0.0116175
-0.0144515
-0.0170987
-0.019428
-0.021453
-0.0231991
-0.00648599
-0.00912916
-0.0110252
-0.0127558
-0.014551
-0.016285
-0.0178306
-0.0191267
-0.00677908
-0.00884261
-0.0100148
-0.011027
-0.0122109
-0.0134638
-0.014607
-0.0155416
-0.00639227
-0.00793954
-0.00857297
-0.00907555
-0.00981304
-0.0106985
-0.011537
-0.0122137
-0.00555787
-0.00673268
-0.00708368
-0.00732552
-0.00780315
-0.00844416
-0.00905925
-0.00952759
-0.0043933
-0.00526596
-0.005364
-0.0053496
-0.00555975
-0.00594569
-0.00633279
-0.00662607
-0.00311934
-0.00374345
-0.00374187
-0.00368217
-0.00383446
-0.00414
-0.00443301
-0.00462012
-0.00153957
-0.00199652
-0.00187426
-0.00168335
-0.00168136
-0.00182658
-0.00198202
-0.00208508
5.13812e-05
-0.000260742
-0.000135666
1.05914e-05
-1.18327e-05
-0.000146178
-0.00026369
-0.000313344
0.00217806
0.00196106
0.00210624
0.00225892
0.00226624
0.00217741
0.00209308
0.00203982
0.00485537
0.00457456
0.00456196
0.00460857
0.00458329
0.00446884
0.00430946
0.00413752
0.00624959
0.00592479
0.00568129
0.00551939
0.00539243
0.00525583
0.00509902
0.00493718
0.00677537
0.00656271
0.00639534
0.00624559
0.00609543
0.00593696
0.005771
0.00560353
0.00723064
0.00702264
0.00680545
0.00659933
0.00641244
0.00624197
0.00608138
0.0059268
-0.30141
-0.307585
-0.318262
-0.333059
-0.35229
-0.376437
-0.403897
-0.429729
-0.299119
-0.30495
-0.314188
-0.326833
-0.343038
-0.362782
-0.385245
-0.407111
-0.294256
-0.300048
-0.308776
-0.319975
-0.334067
-0.350624
-0.36685
-0.37871
-0.289054
-0.294752
-0.302791
-0.312331
-0.323077
-0.333763
-0.341519
-0.343202
-0.285731
-0.290494
-0.296878
-0.303359
-0.309158
-0.313102
-0.313302
-0.307677
-0.285499
-0.288088
-0.291297
-0.293436
-0.293919
-0.292081
-0.286667
-0.276102
-0.288573
-0.287534
-0.286193
-0.283358
-0.278951
-0.272542
-0.263061
-0.249102