/*--------------------------------*- C++ -*----------------------------------*\
| =========                 |                                                 |
| \\      /  F ield         | OpenFOAM: The Open Source CFD Toolbox           |
|  \\    /   O peration     | Version:  2512                                  |
|   \\  /    A nd           | Website:  www.openfoam.com                      |
|    \\/     M anipulation  |                                                 |
\*---------------------------------------------------------------------------*/
FoamFile
{
    version     2.0;
    format      ascii;
    arch        "LSB;label=32;scalar=64";
    class       surfaceScalarField;
    location    "171.35";
    object      phi;
}
// * * * * * * * * * * * * * * * * * * * * * * * * * * * * * * * * * * * * * //

dimensions      [0 3 -1 0 0 0 0];

oriented        oriented;

internalField   nonuniform List<scalar> 
26232
(
0.000328762
0.00110234
-0.0014311
0.00116741
0.00174866
-0.00258731
0.00257682
0.000861884
-0.0022713
0.00477407
-0.00153236
-0.000664888
0.00806855
-0.0054556
0.00216112
0.0127989
-0.0109768
0.0062464
0.0192509
-0.0181278
0.0116758
0.0275367
-0.0267797
0.0184939
0.0374994
-0.0365702
0.0266075
0.0486889
-0.0469222
0.0357327
0.0604337
-0.0571512
0.0454065
0.071978
-0.0666041
0.0550597
0.0826399
-0.0747807
0.0641188
0.0919379
-0.0814055
0.0721074
0.0996602
-0.0864391
0.0787168
0.105866
-0.0900413
0.0838354
0.110829
-0.0924939
0.0875306
0.114952
-0.094132
0.0900092
0.118672
-0.0952536
0.0915335
0.122382
-0.0961311
0.0924215
0.126372
-0.0968836
0.0928937
0.130907
-0.0977118
0.0931765
0.135838
-0.0985574
0.0936266
-0.0993729
0.0939338
0.141277
0.000274065
0.000828276
0.0011972
0.000825528
0.00296355
-0.000904468
0.00587964
-0.00444845
0.0103229
-0.00989882
0.0166374
-0.0172913
0.0249673
-0.0264576
0.0351145
-0.0369269
0.0465086
-0.0479643
0.0583198
-0.0587335
0.0696595
-0.0684909
0.0797852
-0.0767298
0.0882457
-0.0832412
0.0949345
-0.0880942
0.100054
-0.0915582
0.10401
-0.0939976
0.107292
-0.095776
0.110352
-0.097192
0.113543
-0.0984449
0.117087
-0.0996753
0.121111
-0.100907
0.125672
-0.102273
0.130734
-0.10362
-0.105262
0.136623
0.000244873
0.000583404
0.00131449
-0.000244091
0.00356473
-0.0031547
0.0074095
-0.00829322
0.0132528
-0.0157421
0.0212872
-0.0253257
0.0312933
-0.0364638
0.0425912
-0.0482248
0.0542012
-0.0595744
0.0651221
-0.0696544
0.0745878
-0.0779565
0.082218
-0.0843599
0.0880355
-0.0890588
0.0923736
-0.0924323
0.0957218
-0.0949064
0.0985739
-0.0968497
0.101324
-0.0985259
0.104223
-0.100091
0.107408
-0.10163
0.110918
-0.103185
0.114781
-0.104771
0.118966
-0.106457
0.123508
-0.108161
-0.110113
0.128359
0.000283263
0.000300141
0.00164548
-0.00160631
0.00458688
-0.00609611
0.00959399
-0.0133003
0.0169521
-0.0231002
0.0264789
-0.0348526
0.0374251
-0.04741
0.0486772
-0.0594769
0.059129
-0.0700261
0.0679987
-0.0785241
0.0749762
-0.084934
0.0801893
-0.089573
0.0840492
-0.0929187
0.0870593
-0.0954424
0.0896624
-0.0975095
0.0921683
-0.0993557
0.0947528
-0.10111
0.0975022
-0.102841
0.100456
-0.104584
0.103644
-0.106373
0.107097
-0.108223
0.11084
-0.1102
0.114904
-0.112226
-0.114525
0.119316
0.000403293
-0.000103152
0.00222483
-0.00342785
0.00606271
-0.00993398
0.0123499
-0.0195875
0.0210389
-0.0317891
0.0313926
-0.0452063
0.0421887
-0.0582061
0.0522
-0.0694882
0.0605981
-0.0784242
0.0671032
-0.0850292
0.0718998
-0.0897306
0.0754282
-0.0931014
0.0781727
-0.0956632
0.080525
-0.0977947
0.082743
-0.0997275
0.0849738
-0.101586
0.0873006
-0.103437
0.0897761
-0.105316
0.0924429
-0.107251
0.0953305
-0.10926
0.098469
-0.111362
0.101849
-0.11358
0.105485
-0.115862
-0.118394
0.109354
0.000594457
-0.000697609
0.00301753
-0.00585092
0.00786738
-0.0147838
0.0153347
-0.0270548
0.0248319
-0.0412863
0.0350863
-0.0554608
0.0447223
-0.0678421
0.0528011
-0.0775671
0.0590089
-0.0846319
0.0635351
-0.0895554
0.0668212
-0.0930168
0.069334
-0.0956142
0.07144
-0.0977692
0.0733796
-0.0997343
0.0752955
-0.101643
0.0772716
-0.103563
0.079359
-0.105525
0.0815906
-0.107548
0.0839851
-0.109645
0.0865526
-0.111828
0.0892982
-0.114107
0.092211
-0.116493
0.095323
-0.118974
-0.121652
0.0985812
0.000838201
-0.00153581
0.00394771
-0.00896043
0.0097863
-0.0206224
0.0180857
-0.0353542
0.0276553
-0.0508559
0.0369605
-0.064766
0.0448663
-0.0757478
0.0509373
-0.0836381
0.0553137
-0.0890083
0.058422
-0.0926637
0.060725
-0.0953197
0.0625895
-0.0974787
0.0642581
-0.0994378
0.0658736
-0.10135
0.0675152
-0.103285
0.0692251
-0.105272
0.0710267
-0.107326
0.0729341
-0.109455
0.074959
-0.11167
0.0771126
-0.113982
0.0794036
-0.116398
0.0818357
-0.118925
0.0844215
-0.121559
-0.124355
0.0871243
0.00111631
-0.00265212
0.00492579
-0.0127699
0.0115688
-0.0272654
0.020166
-0.0439514
0.0290936
-0.0597834
0.0369328
-0.0726053
0.0430148
-0.0818298
0.0473602
-0.0879835
0.0503606
-0.0920087
0.0524859
-0.094789
0.0541218
-0.0969557
0.0555253
-0.0988822
0.0568442
-0.100757
0.0581553
-0.102661
0.0594968
-0.104627
0.0608907
-0.106666
0.062353
-0.108788
0.0638987
-0.111001
0.0655409
-0.113312
0.0672887
-0.115729
0.0691449
-0.118254
0.0711043
-0.120885
0.0731695
-0.123624
-0.126484
0.0752988
0.00140965
-0.00406177
0.00585169
-0.0172119
0.0129699
-0.0343837
0.0212876
-0.0522691
0.0290756
-0.0675715
0.0352947
-0.0788243
0.0397404
-0.0862756
0.0427252
-0.0909683
0.0447235
-0.094007
0.0461529
-0.0962184
0.0472979
-0.0981007
0.048321
-0.0999053
0.0493042
-0.10174
0.050288
-0.103645
0.0512947
-0.105633
0.0523407
-0.107712
0.0534387
-0.109886
0.0545993
-0.112162
0.0558295
-0.114543
0.0571331
-0.117033
0.0585101
-0.119631
0.0599616
-0.122336
0.0614876
-0.12515
-0.128065
0.0630687
0.00169447
-0.00575624
0.0066184
-0.0221359
0.0138023
-0.0415676
0.0213681
-0.0598349
0.0277859
-0.0739892
0.0324679
-0.0835064
0.0355562
-0.0893638
0.0375017
-0.0929138
0.0387601
-0.0952654
0.0396591
-0.0971175
0.0403904
-0.098832
0.0410506
-0.100565
0.0416854
-0.102375
0.0423185
-0.104278
0.0429644
-0.106279
0.0436341
-0.108382
0.0443367
-0.110589
0.0450806
-0.112905
0.045873
-0.115335
0.0467184
-0.117878
0.0476192
-0.120532
0.0485757
-0.123293
0.0495851
-0.12616
-0.129122
0.0506416
0.00194403
-0.00770027
0.00713109
-0.0273229
0.0139804
-0.0484169
0.0204988
-0.0663533
0.0255205
-0.0790109
0.0288546
-0.0868405
0.0308549
-0.091364
0.0320024
-0.0940614
0.0326833
-0.0959462
0.0331352
-0.0975695
0.0334805
-0.0991772
0.0337753
-0.10086
0.0340457
-0.102645
0.0343058
-0.104538
0.0345658
-0.106539
0.0348346
-0.108651
0.0351208
-0.110875
0.0354319
-0.113217
0.0357735
-0.115677
0.0361489
-0.118254
0.0365592
-0.120942
0.0370036
-0.123737
0.0374787
-0.126635
-0.129629
0.0379858
0.00213655
-0.00983682
0.00733545
-0.0325218
0.0135342
-0.0546156
0.0188745
-0.0716936
0.0225918
-0.0827283
0.0247891
-0.0890378
0.0259194
-0.0924944
0.0264293
-0.0945713
0.0266223
-0.0961392
0.0266622
-0.0976093
0.0266241
-0.0991391
0.0265404
-0.100776
0.0264267
-0.102531
0.026293
-0.104404
0.0261473
-0.106394
0.025997
-0.1085
0.0258485
-0.110727
0.0257073
-0.113075
0.0255782
-0.115548
0.0254649
-0.11814
0.0253709
-0.120848
0.0252982
-0.123665
0.025245
-0.126582
0.0252184
-0.129602
-0.000380759
-0.00333506
0.00371582
-0.00143999
-0.00949319
0.0105524
-0.00317823
-0.014319
0.0160572
-0.00549866
-0.0177649
0.0200853
-0.00823659
-0.0204067
0.0231446
-0.0112304
-0.0229006
0.0258944
-0.0143575
-0.0256465
0.0287736
-0.0175238
-0.0287583
0.0319246
-0.0206336
-0.0321794
0.0352892
-0.0235679
-0.0357816
0.0387159
-0.0261779
-0.0394026
0.0420126
-0.0282878
-0.042853
0.044963
-0.0297037
-0.0459182
0.0473342
-0.0302257
-0.0483659
0.0488879
-0.0296634
-0.0499591
0.0493968
-0.0278549
-0.0504723
0.0486638
-0.0246916
-0.0497055
0.0465422
-0.0201133
-0.0474998
0.0429214
-0.0141301
-0.043749
0.0377658
-0.00682235
-0.0383987
0.031091
0.00160789
-0.0314075
0.0229772
0.0109224
-0.0227758
0.0134613
0.0209071
-0.012494
0.00250929
-0.000411024
0.0311928
-0.00987462
-0.000700521
-0.00263454
-0.00237277
-0.00782094
-0.00480993
-0.0118818
-0.00782978
-0.014745
-0.0112749
-0.0169615
-0.015035
-0.0191405
-0.0190421
-0.0216394
-0.0232425
-0.0245579
-0.0275676
-0.0278544
-0.0319172
-0.031432
-0.0361551
-0.0351646
-0.0401108
-0.0388974
-0.0435842
-0.0424448
-0.0463554
-0.0455947
-0.0481979
-0.0481167
-0.0488966
-0.0497735
-0.0482671
-0.0503351
-0.0461746
-0.0495923
-0.0425571
-0.0473665
-0.0374384
-0.0435174
-0.0308942
-0.0379517
-0.0230587
-0.0306114
-0.0141445
-0.0214082
-0.0102568
-0.00429866
-0.000929972
-0.00170457
-0.00302124
-0.00572967
-0.00590401
-0.00899906
-0.00933765
-0.0113114
-0.0131795
-0.0131197
-0.0173628
-0.0149572
-0.0218612
-0.017141
-0.0266524
-0.0197667
-0.0316939
-0.0228128
-0.0369123
-0.0262136
-0.0421991
-0.0298778
-0.0474105
-0.0336859
-0.0523687
-0.0374866
-0.0568656
-0.0410978
-0.0606709
-0.0443113
-0.0635437
-0.0469008
-0.0652471
-0.0486316
-0.0655688
-0.0492706
-0.0643416
-0.0485937
-0.0614629
-0.0463961
-0.0569071
-0.0425075
-0.0507254
-0.036793
-0.0430287
-0.029105
-0.0192667
-0.0340188
-0.0010378
-0.000666769
-0.00332164
-0.00344582
-0.00637995
-0.00594076
-0.00993436
-0.00775697
-0.0138504
-0.00920367
-0.0180848
-0.0107228
-0.0226299
-0.0125959
-0.027475
-0.0149215
-0.0325894
-0.0176985
-0.0379176
-0.0208854
-0.0433798
-0.0244157
-0.0488715
-0.0281942
-0.0542646
-0.0320936
-0.0594068
-0.0359557
-0.0641212
-0.0395969
-0.068208
-0.042814
-0.0714471
-0.0453925
-0.0736037
-0.0471139
-0.0744381
-0.0477594
-0.0737284
-0.0471058
-0.0713088
-0.0449271
-0.0670863
-0.0410156
-0.06101
-0.0351813
-0.0273915
-0.0528852
-0.00101381
0.000347038
-0.00325887
-0.00120076
-0.00622995
-0.00296968
-0.00962673
-0.00436018
-0.0133117
-0.00551869
-0.0172461
-0.00678838
-0.0214214
-0.00842063
-0.0258196
-0.0105233
-0.0304007
-0.0131174
-0.0351029
-0.0161832
-0.0398474
-0.0196712
-0.044544
-0.0234975
-0.0490976
-0.0275399
-0.0534125
-0.0316408
-0.0573931
-0.0356163
-0.0609402
-0.0392669
-0.0639428
-0.04239
-0.0662622
-0.0447945
-0.0677155
-0.0463061
-0.0680671
-0.0467541
-0.0670473
-0.0459469
-0.0644066
-0.0436563
-0.0599328
-0.039655
-0.0345234
-0.052801
-0.000875038
0.00122208
-0.00286341
0.00078761
-0.0055066
-0.000326486
-0.00849111
-0.00137567
-0.0116635
-0.00234628
-0.0149754
-0.00347647
-0.0184006
-0.00499547
-0.021902
-0.00702182
-0.0254187
-0.00960069
-0.0288678
-0.0127341
-0.0321512
-0.0163879
-0.035165
-0.0204837
-0.0378111
-0.0248938
-0.040007
-0.0294449
-0.041693
-0.0339302
-0.0428398
-0.0381202
-0.0434411
-0.0417886
-0.0434992
-0.0447363
-0.0429968
-0.0468085
-0.0418598
-0.0478911
-0.039984
-0.0478227
-0.0366665
-0.0469738
-0.0323973
-0.0439241
-0.04126
-0.0256608
-0.000635438
0.00185751
-0.00220726
0.00235943
-0.00431987
0.00178613
-0.00667438
0.000978837
-0.00908353
6.28656e-05
-0.0114939
-0.00106613
-0.0138347
-0.00265467
-0.0160426
-0.00481386
-0.0180312
-0.0076121
-0.0196949
-0.0110705
-0.0209154
-0.0151673
-0.0215764
-0.0198227
-0.0215776
-0.0248927
-0.0208481
-0.0301744
-0.0193375
-0.0354409
-0.0170496
-0.0404081
-0.0140249
-0.0448134
-0.0103262
-0.048435
-0.00602717
-0.0511075
-0.0011336
-0.0527847
0.00433044
-0.0532867
0.0102564
-0.0528998
0.0173869
-0.0510547
-0.0494827
0.0256097
-0.000347341
0.00220485
-0.00137469
0.00338678
-0.00281196
0.0032234
-0.00437877
0.00254564
-0.00588699
0.00157109
-0.00717154
0.000218416
-0.00818382
-0.00164239
-0.0088113
-0.00418638
-0.00893862
-0.00748478
-0.00844618
-0.0115629
-0.00720073
-0.0164127
-0.00508722
-0.0219362
-0.00202381
-0.0279561
0.00203172
-0.0342299
0.00703252
-0.0404417
0.0129167
-0.0462922
0.0195911
-0.0514878
0.0269508
-0.0557948
0.0349138
-0.0590704
0.0434065
-0.0612774
0.0523622
-0.0622424
0.0621733
-0.0627108
0.0723728
-0.0612542
-0.0614723
0.0843624
-6.39716e-05
0.00226883
-0.000516923
0.00383973
-0.00121841
0.00392489
-0.00192257
0.0032498
-0.00241279
0.00206132
-0.00252763
0.000333249
-0.00211897
-0.00205105
-0.00106836
-0.00523699
0.000760657
-0.0093138
0.00352452
-0.0143268
0.00732998
-0.0202182
0.012245
-0.0268512
0.0182806
-0.0339916
0.0253685
-0.0413178
0.0333871
-0.0484603
0.0421564
-0.0550616
0.051483
-0.0608144
0.061195
-0.0655067
0.0711857
-0.0690611
0.0813501
-0.0714419
0.0918469
-0.0727392
0.102539
-0.0734032
0.113906
-0.0726206
-0.0731093
0.125543
0.000167766
0.00210106
0.000235842
0.00377165
0.000236613
0.00392412
0.000375103
0.00311131
0.000874276
0.00156214
0.00193536
-0.000727834
0.0037444
-0.00386009
0.00646577
-0.00795836
0.0102601
-0.0131081
0.015249
-0.0193157
0.0215036
-0.0264729
0.0289986
-0.0343462
0.0375952
-0.0425881
0.0470551
-0.0507778
0.0570785
-0.0584837
0.0673521
-0.0653351
0.0775979
-0.0710603
0.0876267
-0.0755355
0.0973272
-0.0787617
0.106689
-0.0808033
0.115915
-0.0819656
0.124793
-0.0822807
0.134275
-0.0821033
-0.0821332
0.143299
0.000311046
0.00179001
0.00077864
0.00330406
0.00137835
0.00332441
0.00227722
0.00221245
0.00369336
0.000146002
0.0058843
-0.00291878
0.00906667
-0.00704246
0.0134501
-0.0123418
0.0191964
-0.0188544
0.0263732
-0.0264924
0.0349111
-0.0350108
0.0445824
-0.0440175
0.0550207
-0.0530264
0.0657789
-0.061536
0.0764079
-0.0691127
0.0865278
-0.075455
0.0958858
-0.0804183
0.10438
-0.0840292
0.112029
-0.0864112
0.119028
-0.0878021
0.125551
-0.0884885
0.131828
-0.0885577
0.138329
-0.0886051
-0.0881278
0.144324
0.000358911
0.00107566
0.00212877
0.00367632
0.00598345
0.00931108
0.0139444
0.0200966
0.0278497
0.0370899
0.0474856
0.0585277
0.0696202
0.0801915
0.0897957
0.0981761
0.105288
0.111268
0.116391
0.12101
0.125415
0.130034
0.135056
0.140862
0.0448223
0.0207877
-0.0344172
0.0565879
0.051834
-0.0635995
0.0688622
0.0834416
-0.095716
0.0808588
0.11366
-0.125657
0.0913716
0.137882
-0.148395
0.0991377
0.153791
-0.161557
0.10455
0.161493
-0.166905
0.108507
0.162078
-0.166035
0.109812
0.16027
-0.161575
0.107248
0.163224
-0.16066
0.103163
0.171189
-0.167105
0.102795
0.17204
-0.171672
0.109065
0.150427
-0.156696
0.119794
0.101744
-0.112473
0.131879
0.0316362
-0.0437213
0.143596
-0.0478891
0.0361716
0.153369
-0.119701
0.109928
0.160157
-0.168206
0.161418
0.163277
-0.190335
0.187215
0.163076
-0.196407
0.196608
0.161649
-0.196256
0.197683
0.159883
-0.192511
0.194277
0.155908
-0.193251
0.197226
0.148423
-0.208278
0.215762
0.138852
-0.227809
0.237381
0.12996
-0.222826
0.231717
0.123969
-0.170243
0.176235
0.122869
-0.0739079
0.0750076
0.126723
0.038889
-0.0427429
0.134572
0.132876
-0.140725
0.143701
0.190459
-0.199588
0.150701
0.220647
-0.227647
0.152623
0.242485
-0.244407
0.148047
0.266811
-0.262235
0.138442
0.285308
-0.275703
0.127654
0.272966
-0.262178
0.119758
0.205581
-0.197686
0.117725
0.0850237
-0.0829904
0.122281
-0.0530174
0.0484614
0.130483
-0.16269
0.154488
0.134945
-0.223375
0.218913
0.131027
-0.25983
0.263748
0.12274
-0.282368
0.290656
0.116351
-0.269955
0.276344
0.115507
-0.198336
0.19918
0.119484
-0.0752512
0.0712744
0.123446
0.056659
-0.0606215
0.123595
0.191705
-0.191854
0.12147
0.284072
-0.281947
0.11951
0.317006
-0.315047
0.118668
0.258035
-0.257192
0.118098
0.0959183
-0.0953477
0.115877
-0.0743413
0.0765622
0.112022
-0.270738
0.274593
0.110522
-0.342687
0.344186
0.108324
-0.249895
0.252093
0.104462
-0.0979144
0.101777
0.0994803
0.225125
-0.220143
0.0968452
0.298804
-0.296169
0.0720013
-0.0676411
0.0119524
0.00453657
0.0283559
0.0354305
0.0454274
0.0663702
0.0618596
0.0972281
0.0772681
0.122473
0.0905813
0.140478
0.101682
0.150392
0.109822
0.153938
0.113556
0.156535
0.113497
0.163283
0.113603
0.171083
0.11842
0.167223
0.12814
0.140706
0.139147
0.0907377
0.149318
0.021465
0.157842
-0.056413
0.163676
-0.125535
0.166235
-0.170765
0.165728
-0.189828
0.162626
-0.193305
0.158678
-0.192308
0.154945
-0.188778
0.149239
-0.187545
0.139724
-0.198763
0.128377
-0.216462
0.118992
-0.213441
0.114004
-0.165255
0.114603
-0.0745068
0.121225
0.0322665
0.131986
0.122115
0.143804
0.178642
0.15328
0.21117
0.157478
0.238288
0.155015
0.269275
0.147087
0.293236
0.137073
0.282981
0.128695
0.213959
0.124299
0.0894196
0.125441
-0.0541589
0.131087
-0.168336
0.134721
-0.227009
0.130248
-0.255358
0.121423
-0.273543
0.115277
-0.263809
0.115293
-0.198352
0.119694
-0.0796522
0.123958
0.0523954
0.12485
0.190813
0.123293
0.285628
0.121634
0.318665
0.120394
0.259274
0.119334
0.0969787
0.116333
-0.0713402
0.111148
-0.265552
0.109621
-0.34116
0.107499
-0.247773
0.105006
-0.095421
0.101693
0.228438
0.0977264
0.30277
0.0775417
-0.0160606
-0.0134216
0.00365079
0.0157191
0.0248711
0.0451499
0.0456885
0.0764107
0.065988
0.102174
0.0842729
0.122193
0.0995589
0.135106
0.110321
0.143176
0.116061
0.150796
0.119045
0.160299
0.123827
0.166301
0.133466
0.157584
0.145868
0.128304
0.156769
0.0798366
0.164712
0.0135219
0.170336
-0.0620366
0.172691
-0.12789
0.171327
-0.169401
0.167455
-0.185956
0.161884
-0.187733
0.155728
-0.186153
0.150281
-0.18333
0.143537
-0.180801
0.13274
-0.187966
0.119718
-0.20344
0.109476
-0.203199
0.105271
-0.16105
0.107708
-0.076944
0.116574
0.0234007
0.129719
0.10897
0.144041
0.16432
0.156074
0.199137
0.162844
0.231517
0.162944
0.269175
0.157093
0.299087
0.14807
0.292004
0.139176
0.222852
0.132393
0.0962026
0.129834
-0.0515996
0.132382
-0.170884
0.135065
-0.229692
0.130284
-0.250577
0.120815
-0.264074
0.114468
-0.257462
0.115109
-0.198993
0.120092
-0.0846352
0.124907
0.0475801
0.12668
0.189041
0.125627
0.28668
0.124131
0.320161
0.122496
0.260909
0.12103
0.0984446
0.117411
-0.0677205
0.110939
-0.25908
0.109237
-0.339459
0.107265
-0.245801
0.106141
-0.0942971
0.10442
0.230158
0.0993242
0.307866
0.0841886
-0.0361889
-0.0301178
-0.0151157
-0.00535419
0.00729005
0.0227441
0.0313224
0.0523784
0.0549666
0.0785295
0.0765179
0.100642
0.0942809
0.117343
0.106999
0.130457
0.115317
0.142478
0.122324
0.153293
0.132149
0.156476
0.145974
0.143759
0.160209
0.114069
0.171094
0.0689515
0.178038
0.00657838
0.181398
-0.0653969
0.180516
-0.127008
0.175544
-0.164429
0.168561
-0.178973
0.16088
-0.180052
0.152965
-0.178239
0.145942
-0.176308
0.138513
-0.173372
0.127328
-0.176781
0.113237
-0.189348
0.101882
-0.191844
0.0977823
-0.156951
0.101532
-0.0806934
0.112238
0.0126941
0.127392
0.0938166
0.143912
0.1478
0.158541
0.184509
0.168356
0.221702
0.171525
0.266006
0.167981
0.302632
0.159967
0.300017
0.150606
0.232214
0.141661
0.105147
0.135453
-0.045391
0.134439
-0.169871
0.135845
-0.231098
0.130975
-0.245706
0.120904
-0.254003
0.113973
-0.250532
0.114961
-0.199981
0.120645
-0.0903194
0.126221
0.0420046
0.128984
0.186278
0.128403
0.287261
0.126949
0.321615
0.124895
0.262963
0.123135
0.100204
0.119098
-0.0636835
0.111413
-0.251395
0.109387
-0.337433
0.107589
-0.244003
0.10782
-0.0945275
0.107671
0.230307
0.10163
0.313907
0.0918574
-0.0424962
-0.0404226
-0.026254
-0.0215964
-0.0063643
0.00285447
0.0172554
0.0287587
0.0414096
0.0543753
0.0643468
0.0777047
0.0839209
0.0977692
0.0993629
0.115015
0.111641
0.1302
0.123644
0.141289
0.138408
0.141711
0.155432
0.126735
0.170738
0.0987629
0.181771
0.0579192
0.188381
-3.14828e-05
0.190148
-0.0671648
0.186468
-0.123327
0.178441
-0.156402
0.16885
-0.169382
0.159505
-0.170707
0.150381
-0.169115
0.142192
-0.168118
0.134351
-0.165531
0.123396
-0.165826
0.108867
-0.17482
0.0963703
-0.179347
0.0918132
-0.152393
0.0962744
-0.0851547
0.108227
0.000741226
0.124748
0.0772958
0.142957
0.129591
0.16007
0.167396
0.173152
0.208619
0.179874
0.259284
0.179379
0.303126
0.172766
0.30663
0.162775
0.242205
0.151756
0.116166
0.142089
-0.0357242
0.137219
-0.165
0.136946
-0.230825
0.13215
-0.24091
0.121612
-0.243465
0.113774
-0.242694
0.114798
-0.201004
0.121256
-0.0967776
0.127802
0.035459
0.131704
0.182375
0.131595
0.287371
0.130048
0.323162
0.127531
0.26548
0.125587
0.102149
0.121366
-0.0594625
0.112557
-0.242587
0.110077
-0.334952
0.108433
-0.242359
0.109958
-0.0960527
0.111405
0.22886
0.104621
0.320691
0.100447
-0.0256273
-0.0404561
-0.0190818
-0.028142
-0.00651712
-0.00971018
0.0113428
0.0108987
0.0321457
0.0335724
0.0538113
0.0560391
0.0742646
0.0773159
0.0925352
0.0967446
0.10905
0.113686
0.125796
0.124544
0.144416
0.123091
0.16325
0.107902
0.178845
0.0831676
0.189935
0.0468288
0.196315
-0.00641123
0.196604
-0.0674533
0.19048
-0.117203
0.179983
-0.145906
0.168324
-0.157723
0.157687
-0.160069
0.1478
-0.159229
0.138715
-0.159033
0.130651
-0.157468
0.120552
-0.155727
0.10647
-0.160738
0.0930409
-0.165919
0.0874545
-0.146807
0.0919656
-0.0896657
0.104391
-0.0116847
0.121581
0.0601061
0.140853
0.110319
0.160115
0.148134
0.176595
0.192139
0.187271
0.248609
0.190027
0.30037
0.185101
0.311556
0.174762
0.252544
0.162056
0.128871
0.149413
-0.0230814
0.14063
-0.156217
0.138219
-0.228414
0.133579
-0.236269
0.122822
-0.232708
0.11384
-0.233712
0.11455
-0.201714
0.121822
-0.10405
0.129522
0.0277592
0.134686
0.177212
0.135087
0.28697
0.133369
0.32488
0.13035
0.2685
0.128323
0.104176
0.124168
-0.0553074
0.114339
-0.232758
0.111283
-0.331896
0.109746
-0.240822
0.112453
-0.0987598
0.115551
0.225763
0.108258
0.327983
0.109836
0.0176517
-0.0324981
0.0136536
-0.0241438
0.0164167
-0.0124733
0.0251837
0.00213178
0.0387027
0.0200535
0.0557573
0.0389845
0.0746758
0.0583974
0.0939695
0.0774508
0.113054
0.0946015
0.132585
0.105012
0.152725
0.10295
0.171263
0.0893641
0.185952
0.0684787
0.196638
0.0361423
0.202459
-0.0122321
0.201054
-0.0660485
0.192556
-0.108705
0.18004
-0.133389
0.166898
-0.144582
0.155312
-0.148483
0.145107
-0.149024
0.135582
-0.149508
0.127253
-0.149138
0.118231
-0.146705
0.105474
-0.147981
0.0917736
-0.152218
0.0848093
-0.139843
0.0885926
-0.093449
0.100686
-0.023778
0.117883
0.042909
0.137474
0.0907282
0.158278
0.127329
0.177983
0.172435
0.192903
0.233689
0.199697
0.293576
0.1973
0.313954
0.187285
0.262558
0.172644
0.143513
0.157242
-0.00767945
0.144588
-0.143563
0.139569
-0.223395
0.135043
-0.231743
0.1244
-0.222065
0.114157
-0.22347
0.114144
-0.201702
0.122205
-0.11211
0.13125
0.0187137
0.13787
0.170592
0.138867
0.285973
0.136889
0.326857
0.133312
0.272076
0.131284
0.106204
0.127431
-0.0514549
0.116704
-0.222031
0.112965
-0.328157
0.111476
-0.239333
0.115214
-0.102499
0.120029
0.220949
0.112492
0.33552
0.11988
0.0744534
-0.0225892
0.0659063
-0.0155968
0.0609112
-0.00747822
0.0600365
0.0030065
0.0642404
0.0158496
0.0736103
0.0296146
0.0875158
0.0444919
0.104623
0.060344
0.123546
0.0756786
0.143347
0.0852106
0.162611
0.0836856
0.17918
0.0727951
0.192369
0.0552902
0.202307
0.0262048
0.20686
-0.0167855
0.203267
-0.062456
0.192525
-0.0979622
0.178532
-0.119396
0.164598
-0.130648
0.152451
-0.136335
0.142118
-0.138692
0.132569
-0.139959
0.12406
-0.140629
0.115959
-0.138604
0.105164
-0.137187
0.0921862
-0.13924
0.0839174
-0.131574
0.0861105
-0.0956421
0.0972139
-0.0348814
0.113648
0.0264745
0.132782
0.0715943
0.154446
0.105666
0.176977
0.149903
0.196006
0.21466
0.206725
0.282857
0.206769
0.31391
0.197585
0.271743
0.182615
0.158482
0.165226
0.00970983
0.148882
-0.12722
0.140883
-0.215396
0.136329
-0.227189
0.126185
-0.211921
0.114718
-0.212003
0.11353
-0.200514
0.122258
-0.120839
0.132811
0.00816084
0.141048
0.162355
0.142794
0.284227
0.140587
0.329064
0.136411
0.276253
0.134431
0.108184
0.131075
-0.0480988
0.119588
-0.210545
0.115071
-0.323639
0.113572
-0.237834
0.118136
-0.107063
0.124731
0.214353
0.117244
0.343007
0.130415
0.118517
-0.015563
0.112313
-0.00939348
0.107428
-0.00259307
0.103815
0.0066192
0.102698
0.0169667
0.105322
0.0269907
0.112307
0.0375066
0.123793
0.0488589
0.139068
0.0604029
0.156363
0.067916
0.173039
0.0670092
0.187154
0.0586805
0.198754
0.0436906
0.20716
0.017798
0.209313
-0.0189378
0.20302
-0.0561639
0.190373
-0.0853148
0.175511
-0.104534
0.161364
-0.116501
0.14907
-0.124041
0.138748
-0.128369
0.129463
-0.130674
0.120974
-0.13214
0.113457
-0.131086
0.104675
-0.128405
0.0934092
-0.127974
0.0845192
-0.122684
0.0846655
-0.0957884
0.0940895
-0.0443053
0.10919
0.0113739
0.127165
0.0536192
0.148563
0.0842681
0.173005
0.125462
0.196387
0.191278
0.212092
0.267151
0.215476
0.310526
0.207174
0.280045
0.19188
0.173776
0.172406
0.0291836
0.153216
-0.10803
0.14207
-0.204249
0.137251
-0.22237
0.128002
-0.202672
0.115524
-0.199525
0.112686
-0.197676
0.121813
-0.129965
0.134046
-0.00407217
0.144176
0.152224
0.14687
0.281533
0.144414
0.33152
0.139608
0.281059
0.13771
0.110082
0.135016
-0.045404
0.122911
-0.198441
0.117527
-0.318255
0.115972
-0.236279
0.121135
-0.112226
0.12957
0.205918
0.12244
0.350138
0.141255
0.139928
-0.0121922
0.137871
-0.00733645
0.136716
-0.00143756
0.136293
0.00704249
0.136982
0.0162773
0.138889
0.0250832
0.142822
0.0335741
0.149814
0.0418666
0.160056
0.0501612
0.172628
0.0553442
0.185108
0.0545288
0.195912
0.0478769
0.204918
0.0346844
0.210472
0.0122436
0.208969
-0.0174343
0.199847
-0.0470422
0.185969
-0.0714363
0.170975
-0.0895412
0.15712
-0.102645
0.145037
-0.111959
0.134809
-0.118141
0.125897
-0.121762
0.117724
-0.123967
0.110577
-0.123939
0.103393
-0.121221
0.094356
-0.118937
0.0859397
-0.114268
0.0843008
-0.0941496
0.0914972
-0.0515017
0.104599
-0.00172793
0.120807
0.0374114
0.141117
0.0639575
0.166399
0.10018
0.192752
0.164925
0.212683
0.24722
0.219961
0.303248
0.213602
0.286404
0.198465
0.188913
0.178774
0.0488754
0.157358
-0.0866154
0.143016
-0.189907
0.137584
-0.216938
0.129615
-0.194702
0.116536
-0.186446
0.111647
-0.192787
0.120734
-0.139053
0.134657
-0.017995
0.14691
0.139971
0.150924
0.277519
0.148457
0.333987
0.142988
0.286528
0.141121
0.111949
0.139191
-0.0434736
0.126593
-0.185842
0.120249
-0.311912
0.118629
-0.234659
0.124128
-0.117725
0.134416
0.19563
0.127963
0.356591
0.152193
0.142533
-0.0104008
0.142364
-0.00716786
0.143707
-0.00278095
0.147113
0.00363737
0.151662
0.011728
0.156577
0.0201677
0.162053
0.0280981
0.16888
0.0350404
0.17752
0.0415212
0.187021
0.0458428
0.195846
0.0457037
0.203117
0.0406059
0.208238
0.0295631
0.20894
0.0115415
0.203913
-0.0124064
0.193079
-0.0362084
0.179221
-0.0575784
0.164948
-0.0752685
0.151805
-0.0895017
0.140242
-0.100396
0.130261
-0.108161
0.121685
-0.113186
0.114018
-0.1163
0.107253
-0.117174
0.101117
-0.115085
0.0941878
-0.112008
0.0871598
-0.10724
0.0846738
-0.0916636
0.0898266
-0.0566544
0.100664
-0.0125658
0.114555
0.0235204
0.132595
0.0459184
0.157394
0.0753805
0.186968
0.135351
0.21235
0.221838
0.223625
0.291973
0.218613
0.291416
0.203701
0.203825
0.183417
0.0691592
0.160735
-0.0639338
0.143613
-0.172784
0.137191
-0.210516
0.130805
-0.188316
0.117758
-0.1734
0.11053
-0.185558
0.118878
-0.147401
0.134644
-0.033761
0.149356
0.12526
0.15491
0.271965
0.152489
0.336408
0.146389
0.292628
0.144565
0.113773
0.143502
-0.04241
0.130549
-0.17289
0.123194
-0.304557
0.121502
-0.232967
0.127083
-0.123306
0.139203
0.183511
0.133728
0.362066
0.163013
0.139597
-0.00913624
0.138961
-0.00653179
0.139424
-0.00324362
0.141837
0.00122441
0.146318
0.00724624
0.152546
0.0139404
0.159971
0.0206732
0.167869
0.0271417
0.176615
0.0327756
0.185724
0.0367334
0.193673
0.0377554
0.199655
0.0346239
0.202895
0.0263231
0.20221
0.0122261
0.195817
-0.00601356
0.185194
-0.0255846
0.1724
-0.044785
0.159235
-0.0621037
0.146824
-0.0770901
0.135755
-0.0893276
0.126081
-0.0984864
0.117728
-0.104833
0.110513
-0.109084
0.104187
-0.110849
0.0986332
-0.109531
0.0931912
-0.106566
0.0878686
-0.101917
0.0855626
-0.0893576
0.0890983
-0.0601902
0.0973544
-0.0208219
0.1088
0.0120744
0.123952
0.0307663
0.145907
0.053426
0.175022
0.106236
0.204106
0.192754
0.221747
0.274332
0.221397
0.291767
0.207658
0.217564
0.187905
0.0889116
0.164392
-0.0404205
0.144695
-0.153088
0.136677
-0.202498
0.131735
-0.183374
0.119321
-0.160986
0.109879
-0.176117
0.116702
-0.154224
0.133323
-0.050382
0.150708
0.107875
0.158688
0.263985
0.156902
0.338194
0.150144
0.299386
0.148225
0.115692
0.14794
-0.0421247
0.134776
-0.159726
0.126393
-0.296174
0.124635
-0.231209
0.129974
-0.128645
0.143782
0.169703
0.139589
0.366259
0.173478
0.170975
-0.00576537
-0.174346
0.168191
-0.00374737
0.166008
-0.00106064
0.164762
0.0024698
0.16492
0.00708893
0.166485
0.0123753
0.169327
0.017831
0.1734
0.0230686
0.178779
0.0273963
0.185386
0.0301265
0.192895
0.030247
0.20076
0.0267586
0.207932
0.0191506
0.212834
0.00732433
0.214506
-0.00768568
0.212977
-0.0240553
0.208904
-0.0407127
0.203006
-0.0562055
0.195826
-0.0699095
0.187859
-0.081361
0.179438
-0.0900653
0.170769
-0.0961639
0.162224
-0.10054
0.153646
-0.10227
0.144916
-0.100801
0.136277
-0.0979274
0.126905
-0.0925445
0.116895
-0.0793475
0.109007
-0.0523025
0.106483
-0.0182975
0.109975
0.00858251
0.118967
0.0217743
0.131784
0.0406083
0.147263
0.0907575
0.163038
0.176979
0.175315
0.262056
0.182819
0.284263
0.187811
0.212572
0.189213
0.0875093
0.183336
-0.0345435
0.172695
-0.142447
0.163418
-0.193221
0.154953
-0.174909
0.140462
-0.146495
0.126506
-0.162162
0.124146
-0.151863
0.129369
-0.0556054
0.136654
0.100591
0.138847
0.261791
0.138105
0.338936
0.138669
0.298822
0.14467
0.109692
0.149467
-0.0469218
0.139238
-0.149497
0.12899
-0.285925
0.123078
-0.225298
0.122866
-0.128433
0.133384
0.159185
0.131018
0.368624
0.182245
0.182074
-0.00324064
-0.184599
0.180015
-0.0016886
0.178463
0.000491787
0.177579
0.00335347
0.177767
0.00690135
0.179186
0.0109561
0.181889
0.0151273
0.185922
0.0190364
0.191174
0.022144
0.197411
0.0238895
0.204171
0.0234871
0.210781
0.0201485
0.216349
0.0135826
0.219998
0.00367488
0.221027
-0.00871428
0.219482
-0.0225104
0.215684
-0.0369149
0.210053
-0.0505742
0.203003
-0.0628592
0.195051
-0.0734089
0.186766
-0.081781
0.178261
-0.0876591
0.169822
-0.0921003
0.16156
-0.0940087
0.152976
-0.0922165
0.144379
-0.0893307
0.136077
-0.0842421
0.127935
-0.0712052
0.121005
-0.0453732
0.117875
-0.0151676
0.120355
0.00610234
0.128217
0.0139125
0.140185
0.0286406
0.155884
0.0750583
0.17339
0.159473
0.188021
0.247425
0.197134
0.27515
0.202403
0.207302
0.204316
0.0855969
0.198205
-0.028433
0.186112
-0.130354
0.174997
-0.182105
0.166119
-0.16603
0.151748
-0.132123
0.136598
-0.147012
0.133167
-0.148432
0.13899
-0.0614286
0.148415
0.0911656
0.152058
0.258148
0.151804
0.339189
0.152489
0.298137
0.158851
0.103329
0.164309
-0.052379
0.15273
-0.137918
0.140721
-0.273916
0.134183
-0.218759
0.133444
-0.127694
0.145244
0.147385
0.143935
0.369934
0.191056
0.194305
-0.000999009
-0.196547
0.192563
5.41212e-05
0.191286
0.00176831
0.190654
0.00398531
0.190906
0.00664968
0.192215
0.00964644
0.194658
0.0126845
0.19822
0.0154742
0.202789
0.0175753
0.208138
0.0185406
0.213857
0.0177684
0.219333
0.0146723
0.223896
0.00901974
0.22682
0.000750361