/*--------------------------------*- C++ -*----------------------------------*\
| =========                 |                                                 |
| \\      /  F ield         | OpenFOAM: The Open Source CFD Toolbox           |
|  \\    /   O peration     | Version:  2312                                  |
|   \\  /    A nd           | Website:  www.openfoam.com                      |
|    \\/     M anipulation  |                                                 |
\*---------------------------------------------------------------------------*/
FoamFile
{
    version     2.0;
    format      ascii;
    arch        "LSB;label=32;scalar=64";
    class       volVectorField;
    location    "97.3";
    object      U;
}
// * * * * * * * * * * * * * * * * * * * * * * * * * * * * * * * * * * * * * //

dimensions      [0 1 -1 0 0 0 0];

internalField   nonuniform List<vector> 
5478
(
(-0.0356842 0.0199297 -7.08269e-20)
(-0.0692917 0.0308093 0)
(-0.0644362 0.0285379 1.06647e-19)
(-0.000574816 0.0248079 -1.85413e-19)
(0.136416 0.0234887 1.1847e-19)
(0.340314 0.0266149 -3.68727e-20)
(0.580629 0.0360809 -5.85491e-20)
(0.820972 0.0493216 0)
(1.03132 0.0637603 0)
(1.19401 0.0714919 7.15253e-20)
(1.29767 0.0727679 -3.22825e-20)
(1.34508 0.0649288 -5.51737e-20)
(1.34944 0.0378061 -2.2245e-20)
(1.31388 0.0336951 0)
(1.29057 -0.0246077 6.35819e-20)
(-0.0458867 0.0271023 1.42257e-19)
(-0.0632421 0.0379035 0)
(-0.00808068 0.0317718 0)
(0.139684 0.026719 -9.33705e-20)
(0.376087 0.0318517 1.22458e-19)
(0.652336 0.0476882 3.4056e-20)
(0.911086 0.0684246 -5.67997e-20)
(1.11404 0.0873589 5.03606e-20)
(1.24634 0.0978404 1.21594e-19)
(1.30995 0.0981283 -1.06054e-19)
(1.32305 0.0893785 1.72702e-21)
(1.30886 0.0707085 0)
(1.28853 0.0572655 2.22073e-20)
(1.28189 0.0359575 0)
(1.28574 0.0148321 0)
(-0.0486753 0.0261176 -3.93773e-22)
(-0.0340288 0.0322335 -6.68483e-20)
(0.098011 0.0277787 3.84553e-22)
(0.353969 0.0362517 0)
(0.668094 0.0611507 -4.15441e-20)
(0.950654 0.0908412 3.48422e-20)
(1.1513 0.114126 2.89375e-20)
(1.26196 0.124842 0)
(1.30127 0.123327 -4.07694e-20)
(1.30139 0.113854 3.41915e-20)
(1.29013 0.0993542 2.87102e-20)
(1.28288 0.0883948 0)
(1.28108 0.0704846 0)
(1.27241 0.0608587 -6.15624e-20)
(1.25118 0.0410899 5.48163e-20)
(-0.0426334 0.0194451 -7.83215e-20)
(0.0288239 0.0176372 6.59363e-20)
(0.270956 0.0276794 -5.68622e-20)
(0.621544 0.0648911 5.01128e-20)
(0.941048 0.108533 8.35186e-20)
(1.15497 0.139655 -6.95478e-20)
(1.26161 0.152446 -2.89194e-20)
(1.29543 0.150679 2.22737e-20)
(1.29691 0.141642 -2.14397e-20)
(1.29064 0.129523 0)
(1.28399 0.118972 0)
(1.27353 0.103549 -4.15938e-20)
(1.25669 0.0928111 5.41845e-20)
(1.2385 0.0778214 -3.04985e-20)
(1.23016 0.0604513 0)
(-0.0248235 0.0101696 3.97082e-20)
(0.138802 0.00617589 3.31974e-20)
(0.502953 0.0511156 -1.19827e-19)
(0.877242 0.115217 1.76193e-21)
(1.12873 0.160929 -1.25266e-21)
(1.25191 0.180333 -1.29548e-21)
(1.29318 0.181074 2.78058e-20)
(1.29815 0.173106 2.32683e-20)
(1.29028 0.16178 1.66857e-20)
(1.27719 0.150042 -2.70062e-21)
(1.26079 0.135726 -3.77737e-20)
(1.24544 0.123687 0)
(1.23469 0.10987 1.70814e-20)
(1.2267 0.0953922 -1.27534e-20)
(1.21378 0.0862519 2.2693e-20)
(0.0105014 0.000907712 -8.65597e-20)
(0.302324 0.0148315 9.32931e-20)
(0.741087 0.101746 -3.215e-20)
(1.06498 0.173498 2.39091e-20)
(1.23019 0.207383 -4.43341e-20)
(1.28981 0.214304 -3.26444e-20)
(1.29884 0.208119 1.08081e-21)
(1.28812 0.196599 0)
(1.2718 0.183473 3.38149e-20)
(1.25602 0.169099 -3.00709e-20)
(1.24374 0.156175 1.19279e-20)
(1.2328 0.141963 0)
(1.21968 0.129408 7.1243e-21)
(1.20434 0.116383 -1.2723e-20)
(1.19244 0.104494 0)
(0.0694221 -0.00274794 -1.08187e-20)
(0.49785 0.0559902 1.13338e-21)
(0.934378 0.167316 1.5512e-20)
(1.18144 0.230841 2.63666e-20)
(1.27806 0.250578 -2.00409e-20)
(1.29712 0.24759 3.35461e-20)
(1.28653 0.235614 -7.61687e-21)
(1.2694 0.221019 0)
(1.25319 0.205742 -1.97468e-20)
(1.23844 0.191159 1.45866e-21)
(1.22326 0.175957 1.61801e-20)
(1.20843 0.162029 0)
(1.19638 0.148019 -1.02978e-20)
(1.18733 0.133622 0)
(1.17654 0.125752 6.15446e-21)
(0.151843 0.00723024 -1.21577e-20)
(0.681894 0.124948 0)
(1.07109 0.239371 1.67092e-20)
(1.24443 0.287475 0)
(1.29033 0.292837 0)
(1.28514 0.280894 0)
(1.26691 0.264319 -6.4138e-21)
(1.24769 0.246826 0)
(1.22965 0.229595 3.98145e-21)
(1.21337 0.21234 0)
(1.2002 0.196259 -5.00131e-21)
(1.18918 0.180484 0)
(1.17801 0.165857 3.16954e-21)
(1.16613 0.152515 0)
(1.15586 0.141376 2.00837e-21)
(-0.00738756 -0.0722322 -1.13989e-20)
(-0.0403021 -0.0605031 0)
(-0.0901357 -0.0133899 1.78469e-20)
(-0.141595 0.0349758 0)
(-0.190715 0.0868528 0)
(-0.235707 0.147247 0)
(-0.274143 0.216894 -1.10253e-20)
(-0.30304 0.293987 0)
(-0.319282 0.374616 8.70324e-21)
(-0.319926 0.452642 0)
(-0.302414 0.519727 -1.38169e-20)
(-0.266115 0.56635 0)
(-0.208858 0.585933 1.13573e-20)
(-0.132635 0.572333 0)
(-0.0229735 0.520554 9.77544e-21)
(-0.00198566 -0.0458747 5.52926e-20)
(-0.0304918 -0.0154155 -3.83493e-20)
(-0.0740578 0.0401012 1.52229e-20)
(-0.119168 0.0904308 5.89038e-20)
(-0.160586 0.138698 -5.93342e-23)
(-0.19516 0.191445 -4.66442e-20)
(-0.219979 0.249333 3.16275e-20)
(-0.231906 0.310097 0)
(-0.227571 0.370104 2.36132e-20)
(-0.204252 0.423716 1.95068e-22)
(-0.160344 0.464674 -1.19485e-20)
(-0.0918168 0.486896 0)
(-0.0049467 0.480108 -3.25324e-20)
(0.0974709 0.440934 0)
(0.242877 0.376694 -5.04142e-20)
(0.00176688 -0.0283135 8.25581e-20)
(-0.0208834 0.0137411 1.78866e-20)
(-0.0534338 0.0771512 -3.29887e-20)
(-0.0854909 0.130844 -8.40868e-20)
(-0.111968 0.175573 4.87337e-20)
(-0.128939 0.219044 4.19765e-20)
(-0.133111 0.263781 -7.24577e-20)
(-0.121536 0.308014 0)
(-0.0918276 0.348054 -5.72973e-20)
(-0.0412047 0.380409 5.09405e-20)
(0.030514 0.397946 2.20748e-20)
(0.118167 0.394524 0)
(0.240136 0.37874 2.11644e-20)
(0.33814 0.319111 -3.76967e-20)
(0.513905 0.234088 0)
(0.00450491 -0.0204093 3.84035e-20)
(-0.0138943 0.0236861 -1.0442e-19)
(-0.036822 0.0907379 1.20229e-19)
(-0.0549013 0.148264 -1.03402e-19)
(-0.064003 0.191281 -4.3715e-20)
(-0.0610253 0.226134 3.75469e-20)
(-0.0431533 0.25731 3.52515e-20)
(-0.00821111 0.285036 2.79233e-20)
(0.0456774 0.307423 -7.58735e-20)
(0.114931 0.317312 -6.33489e-22)
(0.213077 0.323573 1.92205e-20)
(0.301131 0.297432 0)
(0.451506 0.271993 3.51996e-20)
(0.532234 0.218319 1.12046e-19)
(0.739194 0.126857 -6.61026e-20)
(0.00584242 -0.0179348 -8.39425e-22)
(-0.0120255 0.0194118 6.51061e-20)
(-0.0312653 0.0808217 -5.6435e-20)
(-0.0402609 0.136652 5.08111e-20)
(-0.0353823 0.176978 8.50421e-20)
(-0.0151904 0.204564 -7.26496e-20)
(0.0211707 0.223835 -2.98547e-20)
(0.0741031 0.235748 -8.06617e-20)
(0.144239 0.245032 7.12569e-20)
(0.229734 0.236474 0)
(0.340103 0.236077 0)
(0.44529 0.199469 7.2456e-20)
(0.620671 0.173326 -1.69089e-19)
(0.711712 0.116159 6.18424e-20)
(0.965725 0.0398536 0)
(0.00362472 -0.0150782 7.58934e-23)
(-0.0184894 0.0111791 -6.46318e-20)
(-0.0408194 0.0570696 1.67024e-19)
(-0.0482562 0.101028 -4.81811e-20)
(-0.0366708 0.132136 -4.13602e-20)
(-0.00586803 0.150778 3.51318e-20)
(0.0445167 0.160259 2.98735e-20)
(0.116428 0.162404 4.85971e-20)
(0.212052 0.161255 -8.50804e-20)
(0.336144 0.149291 3.73949e-20)
(0.479236 0.13951 3.41269e-20)
(0.649943 0.104817 0)
(0.838448 0.0832626 0)
(0.997039 0.0245431 1.19615e-19)
(1.22851 -0.0213648 -1.06163e-19)
(-0.00517903 -0.0070719 -5.01543e-22)
(-0.0357281 0.00918988 0)
(-0.0634776 0.034773 0)
(-0.0710404 0.0597061 9.0429e-20)
(-0.050973 0.076501 -4.08988e-20)
(0.00121442 0.0853779 3.28172e-20)
(0.089778 0.0876337 5.44261e-20)
(0.216289 0.0864413 -4.82569e-20)
(0.378546 0.0803465 4.19757e-20)
(0.564501 0.0776113 -3.74316e-20)
(0.762177 0.0619355 -1.05967e-21)
(0.968273 0.0513081 0)
(1.13673 0.0285196 2.73358e-20)
(1.30387 -0.00832466 0)
(1.39943 -0.03318 0)
(-0.0202904 0.00638702 -6.99493e-20)
(-0.0575084 0.0174077 0)
(-0.0801781 0.025221 -1.0551e-19)
(-0.0688482 0.0320886 1.82868e-19)
(-0.00995443 0.0366093 -1.94472e-19)
(0.105126 0.0384619 -3.00144e-20)
(0.272214 0.0393473 5.70451e-20)
(0.475922 0.0423614 0)
(0.696568 0.0458704 0)
(0.908599 0.0527008 -7.33963e-20)
(1.10151 0.0477188 -3.34136e-20)
(1.24756 0.0516657 5.84417e-20)
(1.34877 0.0232126 -2.73854e-20)
(1.401 0.0113002 0)
(1.37133 -0.0233682 -7.8143e-20)
(0.0976734 0.411745 0)
(0.373652 0.0165405 5.00394e-21)
(0.619348 -0.384606 -4.61541e-21)
(0.715422 -0.706674 0)
(0.718406 -0.758455 0)
(0.728935 -0.665596 -8.60506e-23)
(0.560926 -0.692393 0)
(0.468233 -0.528735 0)
(0.596097 -0.058411 6.83855e-23)
(0.77116 0.289171 0)
(0.896374 0.424673 0)
(0.889507 0.516555 -9.79382e-23)
(0.840571 0.588445 0)
(0.824509 0.492348 -6.5536e-23)
(0.884106 0.210399 -6.80813e-23)
(0.954342 -0.0660494 0)
(0.996816 -0.377895 -5.95009e-22)
(1.02315 -0.555465 6.99094e-22)
(1.02163 -0.480361 0)
(1.00123 -0.237826 4.683e-22)
(1.05878 0.201095 -5.5867e-22)
(1.08362 0.517609 1.15651e-22)
(1.07685 0.467329 -2.0404e-22)
(1.12193 0.260214 1.94963e-22)
(1.14729 -0.273654 -2.08391e-22)
(1.06299 -0.686343 0)
(1.14058 -0.154881 -1.76507e-22)
(1.10858 0.536794 1.68773e-22)
(1.00054 0.310516 -1.15097e-22)
(0.932688 -0.220636 0)
(0.956308 -0.14035 -5.78263e-23)
(0.999742 0.0918242 0)
(0.914575 0.0767052 -2.84772e-23)
(0.894529 -0.093448 -1.13759e-23)
(0.992697 0.0262155 2.56856e-25)
(0.961618 0.0641561 -5.59149e-24)
(0.880685 -0.0285671 0)
(0.840138 -0.00507091 -5.69325e-25)
(0.374606 0.264181 1.87842e-20)
(0.612542 -0.127479 -1.65683e-22)
(0.832712 -0.497402 -1.58093e-20)
(0.906722 -0.729884 1.50773e-20)
(0.821252 -0.757918 0)
(0.781099 -0.631282 8.67157e-23)
(0.644128 -0.61824 -1.34403e-22)
(0.484093 -0.524702 0)
(0.545075 -0.141049 -6.88986e-23)
(0.729739 0.200504 0)
(0.866136 0.387963 0)
(0.845956 0.519727 9.86461e-23)
(0.765704 0.595036 0)
(0.771083 0.477994 2.28674e-21)
(0.873086 0.186089 -1.91083e-21)
(0.974339 -0.0855691 2.59754e-21)
(1.02947 -0.388351 -2.47933e-21)
(1.03864 -0.563158 -1.31788e-22)
(1.04272 -0.478719 0)
(1.00222 -0.244001 0)
(1.04124 0.183771 -1.26797e-22)
(1.07249 0.505437 9.2034e-22)
(1.05645 0.460817 -1.50383e-21)
(1.11593 0.254494 6.98815e-22)
(1.17183 -0.262005 5.6512e-22)
(1.05367 -0.682293 0)
(1.11659 -0.163791 4.15347e-22)
(1.10404 0.542189 0)
(1.0153 0.325754 1.15503e-22)
(0.946438 -0.215956 -2.33116e-22)
(0.963127 -0.148144 3.44893e-22)
(1.00624 0.0943757 -2.88362e-23)
(0.917756 0.0857519 5.11491e-23)
(0.888912 -0.0989223 7.43349e-24)
(0.994873 0.0205331 8.35106e-24)
(0.968116 0.0714653 -5.60566e-24)
(0.889901 -0.021363 -7.86198e-25)
(0.850593 -0.00307329 1.21039e-24)
(0.620087 0.150655 4.19339e-20)
(0.846585 -0.19774 -8.05402e-20)
(1.00859 -0.549627 7.40178e-21)
(1.03034 -0.719315 3.02371e-20)
(0.90207 -0.721237 2.45604e-22)
(0.81951 -0.591593 -1.63542e-22)
(0.720855 -0.554258 1.36708e-22)
(0.565811 -0.512869 -2.04998e-22)
(0.561637 -0.22207 0)
(0.71416 0.109167 5.9013e-21)
(0.837308 0.367983 -5.6292e-21)
(0.829317 0.556605 -1.93674e-22)
(0.731132 0.622623 0)
(0.743977 0.465584 -4.65532e-21)
(0.87032 0.161306 4.29891e-21)
(0.995011 -0.0962951 -2.58259e-21)
(1.06104 -0.381394 2.46406e-21)
(1.04821 -0.561968 2.3128e-21)
(1.05728 -0.479263 -1.95181e-21)
(1.00265 -0.251288 0)
(1.01805 0.166253 0)
(1.05809 0.497056 1.57268e-21)
(1.03335 0.45845 -1.50138e-21)
(1.10051 0.250402 -1.33365e-21)
(1.18739 -0.242901 -3.15599e-22)
(1.03991 -0.66826 1.45878e-21)
(1.08138 -0.179564 3.12525e-23)
(1.09682 0.5441 -8.45198e-22)
(1.02808 0.345554 1.21613e-21)
(0.95719 -0.205701 -1.06248e-21)
(0.967498 -0.155335 4.21802e-23)
(1.01013 0.0964984 -1.01823e-22)
(0.919939 0.0960592 4.37277e-23)
(0.881262 -0.103756 -4.18087e-23)
(0.99378 0.0138042 -3.47825e-24)
(0.97318 0.0781821 -8.27853e-24)
(0.897658 -0.0143499 2.49241e-23)
(0.860303 -0.00117402 9.06572e-25)
(0.819384 0.0498664 0)
(1.06535 -0.243147 3.72803e-20)
(1.18769 -0.540817 -3.66381e-20)
(1.14902 -0.662869 0)
(0.989886 -0.664974 -2.52427e-22)
(0.866297 -0.554961 1.68032e-22)
(0.784667 -0.4981 0)
(0.659991 -0.494695 1.38861e-23)
(0.642115 -0.291362 -1.4018e-22)
(0.748917 0.018763 0)
(0.862293 0.309341 -6.28182e-21)
(0.824941 0.537578 6.18881e-21)
(0.674351 0.631619 -3.47103e-22)
(0.71415 0.450285 -5.04661e-21)
(0.872557 0.133842 4.81131e-21)
(1.01204 -0.111564 3.17132e-22)
(1.08704 -0.374378 0)
(1.05694 -0.558971 -2.73457e-22)
(1.06552 -0.482604 4.21618e-21)
(1.00456 -0.260526 6.83034e-22)
(0.995922 0.137587 -1.07251e-22)
(1.03543 0.475353 -3.70881e-21)
(1.0021 0.452164 -2.03121e-21)
(1.07492 0.245947 2.45075e-21)
(1.19179 -0.222975 -3.02985e-22)
(1.02735 -0.650126 0)
(1.03919 -0.201209 -4.5679e-22)
(1.08037 0.532482 8.56374e-22)
(1.03332 0.360286 -1.1908e-21)
(0.963999 -0.194077 1.03583e-21)
(0.969644 -0.163106 -1.50217e-22)
(1.01146 0.0973871 0)
(0.921158 0.107231 -4.69886e-23)
(0.872651 -0.107864 1.08336e-22)
(0.989935 0.00595478 2.23683e-23)
(0.97684 0.0841538 2.26316e-23)
(0.903975 -0.00758041 -2.49416e-23)
(0.869248 0.000593173 1.06751e-24)
(1.0391 -0.0438218 4.62929e-22)
(1.26069 -0.28867 1.09144e-21)
(1.3246 -0.507411 0)
(1.22168 -0.577916 0)
(1.06679 -0.582373 0)
(0.921117 -0.514387 0)
(0.854788 -0.449092 7.20853e-21)
(0.733321 -0.475865 -1.25682e-20)
(0.72262 -0.358189 5.69454e-21)
(0.820553 -0.0803417 0)
(0.8765 0.284326 -6.29139e-21)
(0.785458 0.604992 6.18435e-21)
(0.660926 0.67796 6.16537e-21)
(0.73193 0.441148 -5.17864e-21)
(0.896789 0.102825 5.43229e-21)
(1.03092 -0.124281 -5.50234e-21)
(1.10727 -0.356227 -2.94512e-22)
(1.06598 -0.546262 -4.24742e-21)
(1.06647 -0.486857 4.04729e-21)
(1.00182 -0.27021 5.9026e-22)
(0.965597 0.115323 6.51444e-22)
(1.00996 0.466497 2.56925e-21)
(0.975819 0.452775 -2.93268e-21)
(1.04813 0.243589 -4.85376e-22)
(1.18572 -0.198372 -2.0382e-22)
(1.01705 -0.627035 -3.44476e-22)
(0.98897 -0.22678 0)
(1.06348 0.521649 0)
(1.03786 0.37989 0)
(0.968303 -0.177203 0)
(0.970185 -0.169892 4.04399e-22)
(1.01084 0.0977245 -2.40353e-22)
(0.921755 0.119308 1.02638e-22)
(0.864296 -0.110973 -3.07314e-22)
(0.984132 -0.00284492 2.5022e-23)
(0.979263 0.0893323 6.2846e-24)
(0.908913 -0.00108328 -2.9945e-23)
(0.877436 0.00220659 -3.55184e-24)
(1.28875 -0.108399 -4.87232e-22)
(1.40514 -0.282772 5.827e-20)
(1.38241 -0.427834 -5.59865e-20)
(1.23821 -0.484839 -3.73693e-20)
(1.10931 -0.506944 3.55881e-20)
(0.970814 -0.476994 1.96104e-20)
(0.907679 -0.403582 -1.82549e-20)
(0.807834 -0.439334 2.0047e-22)
(0.745136 -0.414213 -1.57566e-22)
(0.852318 -0.161152 0)
(0.903251 0.212203 -2.06688e-22)
(0.817478 0.55558 1.35144e-20)
(0.660942 0.687993 -1.28667e-20)
(0.733002 0.457308 -3.68271e-22)
(0.916532 0.1038 0)
(1.05115 -0.122641 -5.46228e-21)
(1.12365 -0.335232 9.79085e-21)
(1.07594 -0.529611 -4.1234e-21)
(1.06187 -0.491624 0)
(0.995928 -0.281223 4.72118e-21)
(0.938095 0.0786905 -8.7547e-22)
(0.975936 0.434815 -4.63902e-21)
(0.939293 0.448901 -2.1452e-21)
(1.01812 0.244773 2.02376e-21)
(1.17031 -0.173486 -2.0816e-21)
(1.01053 -0.600661 -1.38051e-21)
(0.938249 -0.254773 3.79427e-21)
(1.03707 0.492444 -2.72229e-21)
(1.03243 0.393929 2.5887e-21)
(0.96826 -0.160659 -4.46404e-22)
(0.96931 -0.177206 4.24455e-22)
(1.00826 0.0963059 0)
(0.921607 0.131847 1.13761e-22)
(0.857247 -0.113129 -1.1522e-23)
(0.97726 -0.0125709 0)
(0.980733 0.0936634 -2.44287e-23)
(0.912604 0.00510723 2.19768e-23)
(0.884888 0.00363429 -3.89358e-25)
(1.41822 -0.11482 0)
(1.42439 -0.225001 0)
(1.35723 -0.330561 -1.73232e-22)
(1.23674 -0.389951 0)
(1.12739 -0.435456 0)
(1.01684 -0.443099 2.01282e-20)
(0.93284 -0.37435 -1.91544e-20)
(0.879899 -0.384914 1.24695e-20)
(0.758144 -0.439188 -1.18799e-20)
(0.815195 -0.277568 0)
(0.915654 0.152419 -2.58627e-22)
(0.799796 0.593707 2.33734e-22)
(0.662844 0.725443 -1.33912e-20)
(0.775622 0.443174 -4.13621e-22)
(0.952733 0.0757007 1.2307e-20)
(1.073 -0.133921 1.78472e-22)
(1.1348 -0.31498 -1.43638e-22)
(1.08201 -0.5061 8.06192e-21)
(1.05248 -0.493192 -7.91292e-21)
(0.98142 -0.294423 0)
(0.903482 0.0569625 0)
(0.941107 0.426138 -2.60303e-22)
(0.914819 0.450416 0)
(0.997721 0.243162 1.52127e-21)
(1.15477 -0.146249 5.48747e-22)
(1.00299 -0.569367 -1.64867e-21)
(0.888032 -0.283176 -5.09229e-21)
(1.01488 0.469597 3.39305e-21)
(1.02959 0.410559 -2.00416e-22)
(0.967476 -0.139986 0)
(0.968301 -0.183557 -2.84745e-22)
(1.00464 0.0946917 2.70002e-22)
(0.921233 0.144665 7.29699e-23)
(0.852528 -0.114422 5.71862e-24)
(0.970195 -0.0227942 -5.05516e-23)
(0.981601 0.0972536 1.54337e-23)
(0.915264 0.0109121 0)
(0.891625 0.00482927 3.97405e-24)
(1.36513 -0.0810972 4.79209e-20)
(1.34695 -0.14649 4.65982e-20)
(1.30321 -0.242658 -1.94993e-21)
(1.23888 -0.309987 -7.58043e-20)
(1.15007 -0.371207 3.39306e-20)
(1.05874 -0.409117 -1.87469e-22)
(0.960981 -0.365129 0)
(0.924375 -0.347918 -1.12895e-22)
(0.818152 -0.405246 -8.94069e-23)
(0.737268 -0.359957 0)
(0.828825 -0.0149906 -1.75494e-20)
(0.772215 0.479587 1.66287e-20)
(0.677334 0.724287 2.10567e-22)
(0.747881 0.512463 1.30424e-20)
(0.95681 0.126636 -1.24026e-20)
(1.09339 -0.107536 1.77918e-22)
(1.1504 -0.280304 1.52615e-22)
(1.08948 -0.476868 0)
(1.04062 -0.489305 9.42681e-21)
(0.966538 -0.306769 -8.92897e-21)
(0.864502 0.00747759 -5.49348e-21)
(0.898697 0.379506 2.22217e-21)
(0.877397 0.446212 3.07472e-21)
(0.97472 0.254942 -1.35914e-21)
(1.14586 -0.114991 -1.99501e-22)
(0.990351 -0.530896 4.81957e-21)
(0.849126 -0.317095 -2.44862e-21)
(0.983224 0.424195 3.13987e-21)
(1.01699 0.4249 -2.32867e-21)
(0.963144 -0.115874 0)
(0.967043 -0.189264 0)
(1.00014 0.0903426 0)
(0.920446 0.157662 6.90841e-23)
(0.850694 -0.11397 -7.68296e-23)
(0.963643 -0.0340545 1.93573e-23)
(0.982382 0.100046 -4.51405e-24)
(0.917219 0.0165353 -1.29675e-23)
(0.897679 0.00582333 0)
(1.30084 -0.052496 0)
(1.30847 -0.100807 0)
(1.28007 -0.177738 0)
(1.23144 -0.221653 0)
(1.16857 -0.258085 0)
(1.09414 -0.314498 0)
(1.00382 -0.298207 0)
(0.973992 -0.266343 0)
(0.905828 -0.341582 0)
(0.698065 -0.387462 0)
(0.70245 -0.0828473 0)
(0.737893 0.454585 0)
(0.657333 0.722511 0)
(0.819836 0.462757 0)
(1.03549 0.0789793 0)
(1.12073 -0.111806 0)
(1.16627 -0.23327 0)
(1.09606 -0.433513 0)
(1.02472 -0.499707 0)
(0.941724 -0.324715 0)
(0.835582 -0.00299539 0)
(0.853594 0.372819 0)
(0.832178 0.443103 0)
(0.976701 0.24775 0)
(1.1602 -0.095755 0)
(0.967119 -0.505322 0)
(0.821674 -0.337686 0)
(0.957145 0.38823 0)
(1.00204 0.441257 0)
(0.960073 -0.100426 0)
(0.966012 -0.192832 0)
(0.993722 0.0887433 0)
(0.917594 0.172505 0)
(0.852161 -0.113533 0)
(0.955833 -0.0461667 0)
(0.982586 0.102758 0)
(0.919009 0.0227119 0)
(0.904278 0.0068215 0)
(1.24058 -0.0482092 0)
(1.25238 -0.107478 0)
(1.22184 -0.166857 0)
(1.17121 -0.207624 0)
(1.11709 -0.268083 0)
(1.04576 -0.28747 0)
(0.960626 -0.26821 0)
(0.890116 -0.302255 0)
(0.867486 -0.292107 0)
(0.708838 -0.247552 0)
(0.584999 -0.0177033 0)
(0.590288 0.495894 0)
(0.63553 0.68196 0)
(0.94804 0.338245 0)
(1.1243 -0.00130737 0)
(1.16315 -0.154819 0)
(1.17049 -0.272581 0)
(1.0652 -0.426233 0)
(0.971157 -0.438521 0)
(0.868833 -0.245864 0)
(0.76548 0.0439669 0)
(0.777299 0.391363 0)
(0.782499 0.417495 0)
(0.990585 0.174581 0)
(1.15922 -0.120652 0)
(0.916114 -0.445189 0)
(0.773581 -0.308838 0)
(0.929326 0.38222 0)
(0.977127 0.432311 0)
(0.963093 -0.103037 0)
(0.969991 -0.19413 0)
(0.984513 0.0974204 0)
(0.913066 0.187806 0)
(0.862 -0.118012 0)
(0.95265 -0.0599713 0)
(0.985383 0.106941 0)
(0.922153 0.0293933 0)
(0.911738 0.00728015 0)
(1.1966 -0.0439888 0)
(1.2068 -0.0799927 0)
(1.18173 -0.12802 0)
(1.14919 -0.157099 0)
(1.11092 -0.175304 0)
(1.03985 -0.210844 0)
(1.00356 -0.177586 0)
(0.940682 -0.187611 0)
(0.852092 -0.214481 0)
(0.734785 -0.157941 0)
(0.607335 0.0139357 0)
(0.579941 0.429229 0)
(0.786382 0.528858 0)
(1.11234 0.210949 0)
(1.19967 -0.0456403 0)
(1.17735 -0.147104 0)
(1.16835 -0.199712 0)
(1.0667 -0.34329 0)
(0.927122 -0.401138 0)
(0.774411 -0.217931 0)
(0.656676 0.0562436 0)
(0.68527 0.371991 0)
(0.760001 0.357233 0)
(0.999299 0.124037 0)
(1.16592 -0.0929927 0)
(0.904324 -0.384626 0)
(0.714776 -0.320099 0)
(0.88312 0.340894 0)
(0.954085 0.418045 0)
(0.973175 -0.0971372 0)
(0.972326 -0.195935 0)
(0.970551 0.100855 0)
(0.908915 0.200569 0)
(0.877935 -0.120968 0)
(0.953433 -0.0744355 0)
(0.989691 0.110701 0)
(0.926252 0.0365378 0)
(0.918908 0.00761753 0)
(1.15913 -0.0329254 0)
(1.16311 -0.0686704 0)
(1.14877 -0.0999907 0)
(1.11242 -0.127666 0)
(1.08207 -0.15091 0)
(1.02746 -0.176327 0)
(0.979413 -0.160641 0)
(0.945486 -0.166492 0)
(0.882493 -0.163821 0)
(0.793957 -0.0711665 0)
(0.723794 0.0669001 0)
(0.743837 0.333162 0)
(0.980258 0.338277 0)
(1.19259 0.0984522 0)
(1.21945 -0.0370396 0)
(1.16665 -0.127105 0)
(1.11723 -0.211461 0)
(1.02411 -0.30613 0)
(0.870259 -0.302656 0)
(0.670911 -0.119805 0)
(0.550356 0.0926816 0)
(0.610447 0.34037 0)
(0.770177 0.276705 0)
(1.0003 0.0352787 0)
(1.14977 -0.0962716 0)
(0.897627 -0.291557 0)
(0.648878 -0.285883 0)
(0.805239 0.301685 0)
(0.937061 0.391061 0)
(0.994442 -0.103456 0)
(0.976349 -0.193481 0)
(0.956026 0.109422 0)
(0.909035 0.212348 0)
(0.900586 -0.125765 0)
(0.959612 -0.089663 0)
(0.998782 0.114828 0)
(0.933968 0.044339 0)
(0.926826 0.00755847 0)
(1.12595 -0.0274706 0)
(1.12778 -0.0533197 0)
(1.11612 -0.0763107 0)
(1.09227 -0.0990086 0)
(1.06675 -0.108312 0)
(1.02916 -0.125669 0)
(0.992275 -0.107156 0)
(0.962306 -0.103963 0)
(0.913405 -0.0995463 0)
(0.850012 -0.0149044 0)
(0.832181 0.0553847 0)
(0.89533 0.216039 0)
(1.07022 0.219649 0)
(1.17806 0.0600182 0)
(1.17254 -0.0393319 0)
(1.13731 -0.0986244 0)
(1.10222 -0.133939 0)
(1.02553 -0.216342 0)
(0.877908 -0.215052 0)
(0.674676 -0.0413997 0)
(0.58826 0.096548 0)
(0.655281 0.25991 0)
(0.847546 0.178468 0)
(1.00548 -0.0225474 0)
(1.13183 -0.0725646 0)
(0.932303 -0.204366 0)
(0.627914 -0.25988 0)
(0.72915 0.244867 0)
(0.945092 0.352338 0)
(1.03088 -0.101922 0)
(0.97889 -0.185642 0)
(0.938567 0.116008 0)
(0.912659 0.218885 0)
(0.928679 -0.130654 0)
(0.96882 -0.10429 0)
(1.01128 0.118538 0)
(0.944387 0.0531909 0)
(0.935449 0.00781419 0)
(1.09955 -0.0202083 0)
(1.10031 -0.0410589 0)
(1.09339 -0.0546906 0)
(1.07367 -0.0726175 0)
(1.05476 -0.0789254 0)
(1.02562 -0.0909253 0)
(0.995957 -0.080616 0)
(0.976874 -0.0746855 0)
(0.94093 -0.0666332 0)
(0.911569 0.00205705 0)
(0.91339 0.0330206 0)
(0.959072 0.135542 0)
(1.06739 0.128093 0)
(1.1314 0.0293961 0)
(1.13097 -0.00220312 0)
(1.09411 -0.0786932 0)
(1.05819 -0.133475 0)
(0.998194 -0.173988 0)
(0.895607 -0.126342 0)
(0.755468 0.0387665 0)
(0.735031 0.0983344 0)
(0.810763 0.197315 0)
(0.978368 0.115992 0)
(1.02497 -0.0818211 0)
(1.09201 -0.0764338 0)
(0.97678 -0.100289 0)
(0.685781 -0.191018 0)
(0.685145 0.176425 0)
(0.962782 0.281535 0)
(1.06872 -0.108761 0)
(0.973593 -0.163259 0)
(0.899901 0.128847 0)
(0.915391 0.216913 0)
(0.963928 -0.139813 0)
(0.978298 -0.117784 0)
(1.02034 0.123635 0)
(0.95721 0.0631092 0)
(0.946485 0.00793652 0)
(1.07973 -0.0133818 0)
(1.07878 -0.0301816 0)
(1.07371 -0.0376818 0)
(1.06017 -0.0524939 0)
(1.04474 -0.0551022 0)
(1.02651 -0.0619971 0)
(1.00332 -0.0565969 0)
(0.993444 -0.0438316 0)
(0.966302 -0.042863 0)
(0.957493 0.0110633 0)
(0.959124 0.0182034 0)
(0.984654 0.0761374 0)
(1.05806 0.0808485 0)
(1.07695 0.0128875 0)
(1.09078 -0.00363271 0)
(1.081 -0.0575837 0)
(1.04552 -0.076777 0)
(0.988635 -0.103714 0)
(0.907706 -0.0776519 0)
(0.855906 0.0660959 0)
(0.887002 0.0751927 0)
(0.940712 0.119026 0)
(1.08053 0.0775518 0)
(1.06018 -0.070654 0)
(1.03997 -0.0624327 0)
(1.01483 -0.0271428 0)
(0.828366 -0.118703 0)
(0.733037 0.113414 0)
(0.999372 0.203912 0)
(1.09666 -0.106678 0)
(0.97258 -0.127858 0)
(0.877527 0.137339 0)
(0.954834 0.200747 0)
(1.01127 -0.147642 0)
(0.985275 -0.129207 0)
(1.03336 0.127477 0)
(0.978464 0.0738927 0)
(0.962577 0.00895597 0)
(1.06305 -0.00775572 0)
(1.06282 -0.0205826 0)
(1.05868 -0.0247564 0)
(1.05122 -0.0348083 0)
(1.03714 -0.0374782 0)
(1.02878 -0.0389376 0)
(1.00841 -0.0394224 0)
(1.00591 -0.025353 0)
(0.986298 -0.0285322 0)
(0.983697 0.00799424 0)
(0.990887 0.00952518 0)
(0.995187 0.0406971 0)
(1.0472 0.0454323 0)
(1.05174 0.0011358 0)
(1.0627 0.00479836 0)
(1.05509 -0.0431107 0)
(1.023 -0.0624928 0)
(0.998432 -0.063253 0)
(0.934447 -0.0519036 0)
(0.926967 0.0559782 0)
(0.979152 0.0542266 0)
(0.996241 0.0738821 0)
(1.08901 0.0536697 0)
(1.06506 -0.0549844 0)
(1.00753 -0.0614339 0)
(1.01372 0.00393014 0)
(0.939518 -0.0537182 0)
(0.846599 0.0839141 0)
(1.04516 0.13814 0)
(1.09563 -0.100228 0)
(0.968265 -0.0862592 0)
(0.894921 0.135714 0)
(1.03082 0.174927 0)
(1.06822 -0.142851 0)
(0.98034 -0.133152 0)
(1.02928 0.128351 0)
(0.991178 0.0842053 0)
(0.978446 0.0107842 0)
(1.05041 -0.00355743 0)
(1.05167 -0.0123323 0)
(1.04718 -0.0152089 0)
(1.04436 -0.0215159 0)
(1.03233 -0.024495 0)
(1.029 -0.0233345 0)
(1.01418 -0.0265948 0)
(1.01288 -0.0141162 0)
(1.00256 -0.0185809 0)
(0.999066 0.00456024 0)
(1.00778 0.00511562 0)
(1.00422 0.0183437 0)
(1.03808 0.0261426 0)
(1.03495 -0.00399349 0)
(1.0415 0.00089131 0)
(1.04544 -0.0278931 0)
(1.01448 -0.0396391 0)
(1.00398 -0.0276172 0)
(0.963119 -0.0337535 0)
(0.963026 0.0397026 0)
(1.00667 0.0370066 0)
(1.00841 0.0421338 0)
(1.07022 0.0367526 0)
(1.05952 -0.0263301 0)
(0.99968 -0.0403291 0)
(1.0024 0.016158 0)
(0.987375 -0.0285678 0)
(0.931543 0.052841 0)
(1.06787 0.099766 0)
(1.07916 -0.0759313 0)
(0.967652 -0.0487946 0)
(0.93314 0.113897 0)
(1.09061 0.13885 0)
(1.10753 -0.123093 0)
(0.956926 -0.119506 0)
(0.992182 0.128752 0)
(0.997402 0.0886874 0)
(0.998666 0.0109667 0)
(1.0412 -0.000338749 0)
(1.04294 -0.00605863 0)
(1.03918 -0.00838247 0)
(1.03844 -0.0120119 0)
(1.02968 -0.0149293 0)
(1.02807 -0.0131048 0)
(1.01883 -0.0166838 0)
(1.01681 -0.00784418 0)
(1.01287 -0.0115326 0)
(1.00792 0.00157624 0)
(1.01636 0.00200581 0)
(1.01068 0.00720957 0)
(1.02962 0.0129593 0)
(1.02915 -0.00519097 0)
(1.02822 -4.22734e-05 0)
(1.03478 -0.0170123 0)
(1.00991 -0.0281153 0)
(1.00681 -0.0126639 0)
(0.986267 -0.0226848 0)
(0.981319 0.0246812 0)
(1.01559 0.0234182 0)
(1.01153 0.0273 0)
(1.04508 0.0239857 0)
(1.04601 -0.0121012 0)
(1.00229 -0.0296475 0)
(1.00291 0.0171467 0)
(1.01057 -0.0118238 0)
(0.965308 0.0327088 0)
(1.05808 0.0731504 0)
(1.06139 -0.0557793 0)
(0.976686 -0.0227465 0)
(0.966435 0.0821252 0)
(1.10504 0.104157 0)
(1.11089 -0.091026 0)
(0.932369 -0.0926903 0)
(0.962122 0.120103 0)
(1.02684 0.0815312 0)
(1.03019 0.00879879 0)
(1.03441 0.00202068 0)
(1.03604 -0.00162373 0)
(1.03362 -0.00337532 0)
(1.03339 -0.00564953 0)
(1.02794 -0.00794919 0)
(1.02649 -0.00666174 0)
(1.02144 -0.00965037 0)
(1.01908 -0.00401536 0)
(1.01804 -0.00710528 0)
(1.01383 0.000476936 0)
(1.01918 5.62942e-05 0)
(1.01531 0.00213857 0)
(1.02414 0.00580738 0)
(1.02473 -0.00459762 0)
(1.02112 -0.00177982 0)
(1.02722 -0.0100532 0)
(1.01143 -0.0173912 0)
(1.00881 -0.00382107 0)
(1.00105 -0.0138939 0)
(0.993234 0.0177724 0)
(1.01665 0.0132204 0)
(1.01295 0.0181573 0)
(1.03091 0.0154547 0)
(1.03621 -0.00133977 0)
(1.00795 -0.0150492 0)
(1.00252 0.0175978 0)
(1.01907 -0.00338024 0)
(0.982065 0.0180044 0)
(1.04436 0.0542247 0)
(1.04799 -0.0368594 0)
(0.986629 -0.00212071 0)
(0.986426 0.0529151 0)
(1.08816 0.0746803 0)
(1.09464 -0.0533289 0)
(0.93043 -0.0614769 0)
(0.966006 0.0951888 0)
(1.06378 0.0634438 0)
(1.05491 0.00844569 0)
(1.02944 0.00364888 0)
(1.03071 0.00133024 0)
(1.0294 -1.84275e-06 0)
(1.02924 -0.00149374 0)
(1.02601 -0.0032745 0)
(1.02492 -0.0025561 0)
(1.02207 -0.00487176 0)
(1.02032 -0.00154729 0)
(1.01992 -0.00403003 0)
(1.01707 0.000294797 0)
(1.01995 -0.000749559 0)
(1.01746 0.000468807 0)
(1.02112 0.00192925 0)
(1.02176 -0.00330253 0)
(1.01858 -0.00173615 0)
(1.0219 -0.00540496 0)
(1.01288 -0.010342 0)
(1.01058 -0.000299826 0)
(1.00848 -0.00884697 0)
(1.0016 0.0127718 0)
(1.01737 0.00615713 0)
(1.01331 0.0139094 0)
(1.02316 0.00968577 0)
(1.02658 0.00308659 0)
(1.01208 -0.00727261 0)
(1.00536 0.0143382 0)
(1.0228 0.00241495 0)
(0.99329 0.0113893 0)
(1.0331 0.0386379 0)
(1.03772 -0.0260027 0)
(0.997513 0.0104561 0)
(1.00143 0.0307053 0)
(1.06548 0.0535912 0)
(1.07315 -0.0202583 0)
(0.947856 -0.037372 0)
(0.987602 0.0631397 0)
(1.07587 0.0449899 0)
(1.05931 0.0106844 0)
(1.02557 0.00465651 0)
(1.02654 0.00316043 0)
(1.02591 0.00212303 0)
(1.02588 0.00109601 0)
(1.024 -0.000243001 0)
(1.02326 4.97825e-05 0)
(1.02156 -0.00171856 0)
(1.02044 0.000163077 0)
(1.02015 -0.00189424 0)
(1.01843 0.000709439 0)
(1.01969 -0.000744656 0)
(1.01811 0.000307524 0)
(1.01955 0.000314347 0)
(1.01961 -0.00179005 0)
(1.0174 -0.00148362 0)
(1.0189 -0.00269584 0)
(1.01401 -0.00572082 0)
(1.0126 0.00132069 0)
(1.01219 -0.0052312 0)
(1.00715 0.0100476 0)
(1.01732 0.00223856 0)
(1.01302 0.0116806 0)
(1.02025 0.00583554 0)
(1.02099 0.00639854 0)
(1.01494 -0.000170616 0)
(1.00816 0.0121909 0)
(1.0227 0.00607701 0)
(1.00135 0.00809541 0)
(1.0281 0.0277535 0)
(1.03034 -0.0173088 0)
(1.00556 0.0190855 0)
(1.01137 0.0159149 0)
(1.04868 0.0387839 0)
(1.0553 0.0049867 0)
(0.971389 -0.020034 0)
(1.0068 0.0357036 0)
(1.0672 0.0318124 0)
(1.05338 0.0142036 0)
(1.02241 0.00516397 0)
(1.02315 0.00420073 0)
(1.02294 0.00337342 0)
(1.02301 0.00265549 0)
(1.02194 0.00161287 0)
(1.02148 0.00165932 0)
(1.02044 0.000301878 0)
(1.01982 0.00134165 0)
(1.01953 -0.000353374 0)
(1.01856 0.0012906 0)
(1.01897 -0.000318757 0)
(1.018 0.000786979 0)
(1.01841 -9.35636e-05 0)
(1.01825 -0.000506915 0)
(1.0168 -0.000859668 0)
(1.01736 -0.000935546 0)
(1.0147 -0.0027169 0)
(1.01381 0.00190614 0)
(1.01396 -0.00299979 0)
(1.0104 0.00811662 0)
(1.01721 5.90531e-05 0)
(1.01293 0.0107149 0)
(1.01874 0.00323824 0)
(1.01722 0.00777775 0)
(1.0162 0.0031671 0)
(1.01082 0.00942624 0)
(1.0221 0.00791718 0)
(1.00668 0.00658234 0)
(1.02494 0.0195188 0)
(1.02519 -0.0125487 0)
(1.01124 0.0221406 0)
(1.01826 0.00560657 0)
(1.03755 0.0298021 0)
(1.04168 0.0216611 0)
(0.992097 -0.0114515 0)
(1.01919 0.0148872 0)
(1.05452 0.023332 0)
(1.04655 0.0161915 0)
(1.01977 0.00528568 0)
(1.02038 0.00466298 0)
(1.02035 0.0039972 0)
(1.02051 0.00347932 0)
(1.0199 0.00266641 0)
(1.01971 0.00258699 0)
(1.01903 0.00154493 0)
(1.01878 0.00211325 0)
(1.01849 0.000723125 0)
(1.01803 0.00184243 0)
(1.01803 0.000274219 0)
(1.0175 0.00139434 0)
(1.01747 0.000116205 0)
(1.01731 0.000553452 0)
(1.01631 -0.0001645 0)
(1.01653 0.000213706 0)
(1.01496 -0.000865605 0)
(1.01451 0.0021226 0)
(1.01476 -0.00145034 0)
(1.01223 0.00686091 0)