/*--------------------------------*- C++ -*----------------------------------*\
| =========                 |                                                 |
| \\      /  F ield         | OpenFOAM: The Open Source CFD Toolbox           |
|  \\    /   O peration     | Version:  2512                                  |
|   \\  /    A nd           | Website:  www.openfoam.com                      |
|    \\/     M anipulation  |                                                 |
\*---------------------------------------------------------------------------*/
FoamFile
{
    version     2.0;
    format      ascii;
    arch        "LSB;label=32;scalar=64";
    class       volScalarField;
    location    "8.8";
    object      p;
}
// * * * * * * * * * * * * * * * * * * * * * * * * * * * * * * * * * * * * * //

dimensions      [0 2 -2 0 0 0 0];

internalField   nonuniform List<scalar> 
13248
(
-0.276982
-0.278547
-0.278387
-0.277075
-0.274593
-0.270662
-0.265066
-0.257732
-0.248819
-0.238643
-0.227662
-0.216438
-0.205541
-0.19545
-0.186469
-0.178698
-0.172054
-0.166365
-0.161325
-0.156871
-0.152504
-0.148425
-0.143618
-0.137924
-0.2809
-0.281586
-0.281015
-0.279556
-0.277135
-0.273436
-0.268215
-0.261343
-0.252863
-0.24301
-0.232196
-0.220938
-0.209752
-0.199049
-0.189084
-0.179966
-0.171689
-0.164175
-0.157314
-0.150919
-0.144756
-0.138623
-0.132043
-0.125578
-0.286397
-0.286009
-0.284717
-0.282746
-0.28
-0.276199
-0.271029
-0.264252
-0.255797
-0.245834
-0.234754
-0.223063
-0.211269
-0.199781
-0.188881
-0.178726
-0.169346
-0.160704
-0.152636
-0.145041
-0.137663
-0.130472
-0.123293
-0.116333
-0.293094
-0.291531
-0.289312
-0.286546
-0.283217
-0.279027
-0.273551
-0.266407
-0.257448
-0.246852
-0.235067
-0.222658
-0.210166
-0.198017
-0.186481
-0.175674
-0.165605
-0.156197
-0.147363
-0.138995
-0.130953
-0.123269
-0.115653
-0.108583
-0.301186
-0.298396
-0.295132
-0.291496
-0.287414
-0.282521
-0.276233
-0.268085
-0.257985
-0.246259
-0.233484
-0.220291
-0.20721
-0.194598
-0.182639
-0.171399
-0.160859
-0.150972
-0.141659
-0.132838
-0.124432
-0.116404
-0.108638
-0.101453
-0.311175
-0.307099
-0.302809
-0.298234
-0.293173
-0.287081
-0.279273
-0.269384
-0.257574
-0.244395
-0.230532
-0.216592
-0.203002
-0.190007
-0.177718
-0.166156
-0.155296
-0.145085
-0.13546
-0.126362
-0.117726
-0.109531
-0.101671
-0.0944024
-0.32351
-0.318062
-0.312733
-0.307104
-0.300653
-0.292651
-0.282519
-0.270252
-0.256369
-0.241607
-0.226647
-0.21198
-0.197898
-0.184541
-0.171954
-0.160125
-0.149015
-0.138578
-0.128759
-0.1195
-0.110758
-0.102475
-0.0946127
-0.0873203
-0.338384
-0.331482
-0.325043
-0.318068
-0.309571
-0.298804
-0.285624
-0.270561
-0.254453
-0.23809
-0.22204
-0.20664
-0.192046
-0.178309
-0.165421
-0.153347
-0.142041
-0.131448
-0.121511
-0.112178
-0.103392
-0.0951054
-0.0873013
-0.0799987
-0.355655
-0.347254
-0.339529
-0.330678
-0.319263
-0.304886
-0.288148
-0.270115
-0.251786
-0.233861
-0.216736
-0.200583
-0.185447
-0.171309
-0.158123
-0.145831
-0.134369
-0.123674
-0.113685
-0.10434
-0.095582
-0.0873629
-0.079663
-0.072411
-0.374769
-0.364886
-0.355556
-0.344033
-0.328732
-0.310081
-0.28955
-0.268571
-0.248113
-0.228687
-0.2105
-0.193583
-0.177893
-0.163355
-0.149887
-0.137406
-0.125833
-0.115093
-0.105113
-0.0958224
-0.0871572
-0.0790682
-0.0715083
-0.0643519
-0.394768
-0.383442
-0.371996
-0.356796
-0.336708
-0.313387
-0.289057
-0.265268
-0.242806
-0.221957
-0.202751
-0.185102
-0.16889
-0.153992
-0.140291
-0.127681
-0.116064
-0.105349
-0.0954528
-0.0862972
-0.0778135
-0.0699434
-0.0626026
-0.0556705
-0.414308
-0.401592
-0.387308
-0.367362
-0.341792
-0.313655
-0.28567
-0.259276
-0.234985
-0.212849
-0.192734
-0.174451
-0.157816
-0.142658
-0.128827
-0.11619
-0.104629
-0.0940386
-0.0843237
-0.0753994
-0.0671976
-0.059657
-0.0526772
-0.0461713
-0.473153
-0.475048
-0.476108
-0.478548
-0.483115
-0.489764
-0.498245
-0.508184
-0.519055
-0.530096
-0.540292
-0.548843
-0.554959
-0.557521
-0.555704
-0.548965
-0.537135
-0.520524
-0.500014
-0.477092
-0.453683
-0.431694
-0.412971
-0.399862
-0.440449
-0.442556
-0.442874
-0.443663
-0.445769
-0.4492
-0.453741
-0.459055
-0.464634
-0.469842
-0.473955
-0.476429
-0.476621
-0.473961
-0.468076
-0.458901
-0.446737
-0.432294
-0.416689
-0.401397
-0.388164
-0.378605
-0.373652
-0.374564
-0.409793
-0.411817
-0.411406
-0.410691
-0.410533
-0.410977
-0.411844
-0.412833
-0.413425
-0.413249
-0.411872
-0.408861
-0.403897
-0.39682
-0.387696
-0.376886
-0.365071
-0.353245
-0.342656
-0.334661
-0.330569
-0.331656
-0.338376
-0.349886
-0.382231
-0.384005
-0.383036
-0.381192
-0.379255
-0.377277
-0.375097
-0.372453
-0.369109
-0.36465
-0.358842
-0.351532
-0.342698
-0.332516
-0.321396
-0.310006
-0.299261
-0.290277
-0.284228
-0.282225
-0.285264
-0.293697
-0.308351
-0.325977
-0.358139
-0.359638
-0.358372
-0.355868
-0.352755
-0.349066
-0.344708
-0.339455
-0.333122
-0.325512
-0.31654
-0.306255
-0.294876
-0.282823
-0.270737
-0.259454
-0.249935
-0.2433
-0.240525
-0.242394
-0.249813
-0.261831
-0.280025
-0.299841
-0.337409
-0.338736
-0.33745
-0.334734
-0.331022
-0.326301
-0.32046
-0.313395
-0.305004
-0.295237
-0.284152
-0.271959
-0.259045
-0.245976
-0.233493
-0.222526
-0.214005
-0.208857
-0.208042
-0.211696
-0.221034
-0.234095
-0.252837
-0.272121
-0.319708
-0.321052
-0.319971
-0.317371
-0.313482
-0.3082
-0.30142
-0.29312
-0.283311
-0.27207
-0.259568
-0.246163
-0.232347
-0.218779
-0.206253
-0.195659
-0.187906
-0.183715
-0.184017
-0.188478
-0.198466
-0.211447
-0.229308
-0.247765
-0.30475
-0.306314
-0.305559
-0.30323
-0.299396
-0.293848
-0.286484
-0.277342
-0.266547
-0.25431
-0.240789
-0.226688
-0.212452
-0.198813
-0.186598
-0.176665
-0.169866
-0.166818
-0.168249
-0.173716
-0.18416
-0.196994
-0.213662
-0.22938
-0.292502
-0.29441
-0.29398
-0.291918
-0.28821
-0.282574
-0.274903
-0.265271
-0.253886
-0.241055
-0.227187
-0.212885
-0.198802
-0.185717
-0.17446
-0.16583
-0.160528
-0.158988
-0.161467
-0.167573
-0.177175
-0.188499
-0.201285
-0.211856
-0.283261
-0.285487
-0.28529
-0.283422
-0.279865
-0.274327
-0.26669
-0.257049
-0.245675
-0.232932
-0.219423
-0.205729
-0.192567
-0.1807
-0.170875
-0.163722
-0.159689
-0.158938
-0.161333
-0.1664
-0.17345
-0.181434
-0.189027
-0.194138
-0.277515
-0.279863
-0.279796
-0.27811
-0.274825
-0.269658
-0.262486
-0.25339
-0.242742
-0.230882
-0.218272
-0.205624
-0.193635
-0.182992
-0.17429
-0.167952
-0.16413
-0.162741
-0.16339
-0.165527
-0.168593
-0.171804
-0.174562
-0.175526
-0.275551
-0.277687
-0.277651
-0.276182
-0.273305
-0.268744
-0.262379
-0.254289
-0.244544
-0.233607
-0.221981
-0.210282
-0.199151
-0.189171
-0.180769
-0.174168
-0.169299
-0.165991
-0.163718
-0.162213
-0.160923
-0.159679
-0.158635
-0.157381
-0.394155
-0.401104
-0.419112
-0.443657
-0.468142
-0.486115
-0.488791
-0.46655
-0.415302
-0.345603
-0.27577
-0.219832
-0.182628
-0.162577
-0.157011
-0.163262
-0.181155
-0.215269
-0.2674
-0.322443
-0.353262
-0.339415
-0.290668
-0.230759
-0.178074
-0.141823
-0.123165
-0.11862
-0.128747
-0.158772
-0.205806
-0.249358
-0.261883
-0.233037
-0.183753
-0.137282
-0.105737
-0.0903474
-0.0920583
-0.108452
-0.124065
-0.122735
-0.106392
-0.0876311
-0.0746078
-0.0701112
-0.0734258
-0.0788251
-0.0781755
-0.0694761
-0.057602
-0.046869
-0.0428185
-0.0386157
-0.0324561
-0.0249263
-0.0251405
-0.0236073
-0.0226393
-0.00608726
-0.386776
-0.408371
-0.435526
-0.463587
-0.487403
-0.502861
-0.504081
-0.480611
-0.427815
-0.356425
-0.284717
-0.22633
-0.185771
-0.161208
-0.150634
-0.151914
-0.163996
-0.190233
-0.232965
-0.280776
-0.308863
-0.299142
-0.259459
-0.208927
-0.163847
-0.133377
-0.119423
-0.119283
-0.134508
-0.170899
-0.224412
-0.273147
-0.287735
-0.255846
-0.200691
-0.147027
-0.10834
-0.086412
-0.0814534
-0.0912022
-0.101862
-0.100032
-0.0877322
-0.0750558
-0.068411
-0.070765
-0.0804979
-0.0907563
-0.0912113
-0.0801998
-0.0640251
-0.0467942
-0.0369246
-0.0278316
-0.0215001
-0.018605
-0.0245531
-0.0320514
-0.0319194
-0.00816033
-0.373356
-0.405173
-0.437905
-0.467097
-0.489018
-0.501661
-0.5007
-0.476303
-0.423933
-0.353471
-0.282834
-0.22502
-0.183581
-0.156531
-0.141538
-0.137486
-0.143458
-0.161367
-0.193861
-0.233165
-0.259156
-0.254589
-0.224539
-0.183495
-0.145931
-0.121283
-0.111958
-0.11597
-0.135894
-0.177662
-0.236338
-0.289431
-0.307057
-0.273919
-0.214314
-0.154515
-0.109491
-0.0818227
-0.070967
-0.0749343
-0.0813267
-0.0788168
-0.0697004
-0.0622422
-0.0616454
-0.0710469
-0.0874805
-0.102663
-0.104108
-0.0904242
-0.0700055
-0.0466445
-0.0311332
-0.0172142
-0.010737
-0.0123428
-0.023727
-0.0401295
-0.0410728
-0.0102591
-0.354293
-0.390314
-0.425919
-0.455563
-0.474768
-0.485387
-0.482084
-0.456047
-0.404584
-0.337924
-0.272021
-0.217417
-0.176903
-0.148996
-0.131384
-0.122563
-0.122343
-0.132143
-0.154662
-0.185124
-0.208359
-0.208948
-0.187727
-0.155579
-0.125178
-0.105959
-0.100763
-0.108257
-0.131576
-0.17695
-0.23983
-0.297015
-0.318279
-0.286018
-0.223904
-0.159383
-0.109183
-0.0766729
-0.0609164
-0.0600629
-0.0628469
-0.0594402
-0.0525133
-0.0492895
-0.0542686
-0.0707161
-0.0941166
-0.114369
-0.116738
-0.0999847
-0.0754122
-0.0463991
-0.0255789
-0.00698804
-0.000282943
-0.00618444
-0.02261
-0.047645
-0.0499172
-0.0124087
-0.327614
-0.363272
-0.399958
-0.432415
-0.449073
-0.457125
-0.451496
-0.424401
-0.375347
-0.314759
-0.255702
-0.205947
-0.167463
-0.139494
-0.120373
-0.10859
-0.103317
-0.105578
-0.118569
-0.140353
-0.159888
-0.165657
-0.150157
-0.126274
-0.102537
-0.0880487
-0.0862881
-0.0964783
-0.121799
-0.16881
-0.234288
-0.294872
-0.320207
-0.291524
-0.22923
-0.161673
-0.107657
-0.0712302
-0.0514819
-0.0467182
-0.0466059
-0.0421384
-0.0363984
-0.0362847
-0.046108
-0.0695193
-0.100173
-0.12567
-0.128958
-0.10877
-0.0801653
-0.0460582
-0.0203744
0.0026422
0.00978255
-0.000170667
-0.0211507
-0.0544208
-0.0582737
-0.0146237
-0.297165
-0.329436
-0.363548
-0.389834
-0.411472
-0.419058
-0.411607
-0.384435
-0.339797
-0.287334
-0.23649
-0.192514
-0.156926
-0.129415
-0.109223
-0.0952871
-0.0866634
-0.0835429
-0.0881622
-0.101321
-0.115579
-0.122168
-0.112717
-0.0969381
-0.0792073
-0.0686796
-0.0696098
-0.0816978
-0.107736
-0.154256
-0.219889
-0.283243
-0.312675
-0.289803
-0.229858
-0.161399
-0.10513
-0.0657553
-0.0428719
-0.0349906
-0.0326603
-0.0270578
-0.0215482
-0.0234078
-0.0372653
-0.0673246
-0.105262
-0.136268
-0.140567
-0.116654
-0.0841694
-0.0456168
-0.015623
0.0114926
0.0193664
0.0056394
-0.0193045
-0.0602825
-0.0659718
-0.016902
-0.26946
-0.29706
-0.329141
-0.353605
-0.369895
-0.374633
-0.365553
-0.340246
-0.302347
-0.259232
-0.216958
-0.178914
-0.146571
-0.120075
-0.0991639
-0.0834605
-0.0722051
-0.0651351
-0.0635376
-0.0689102
-0.0775446
-0.0831404
-0.076826
-0.0689601
-0.0564664
-0.0491327
-0.0518997
-0.0651529
-0.09089
-0.134786
-0.197705
-0.261632
-0.29583
-0.279853
-0.225543
-0.158657
-0.101855
-0.0605387
-0.0352484
-0.0248647
-0.0209319
-0.0142741
-0.0082402
-0.0110373
-0.0277357
-0.063907
-0.109183
-0.145884
-0.151379
-0.123573
-0.0873563
-0.0450485
-0.0113913
0.0194027
0.0283761
0.0111824
-0.0170628
-0.0650924
-0.0728592
-0.0192218
-0.245901
-0.268124
-0.289121
-0.311571
-0.323139
-0.325276
-0.316289
-0.295405
-0.265892
-0.232302
-0.198203
-0.165941
-0.136988
-0.111946
-0.0909216
-0.07397
-0.0607299
-0.0507319
-0.0445447
-0.0436226
-0.0469105
-0.050395
-0.0423342
-0.0436748
-0.0354507
-0.0305776
-0.0344179
-0.0480234
-0.072483
-0.1127
-0.170667
-0.232746
-0.271247
-0.263003
-0.216853
-0.153635
-0.0979097
-0.0557361
-0.0286909
-0.016272
-0.0112331
-0.00382319
0.00328822
0.000542076
-0.0178774
-0.0592882
-0.111315
-0.154001
-0.16104
-0.129411
-0.0896699
-0.0443015
-0.00768926
0.026249
0.0367163
0.0163856
-0.0144359
-0.0687404
-0.0787985
-0.0215417
-0.218999
-0.224813
-0.24732
-0.265152
-0.273338
-0.274944
-0.268706
-0.254219
-0.233288
-0.20821
-0.181178
-0.154103
-0.128439
-0.10508
-0.0844012
-0.0667413
-0.0521454
-0.0401954
-0.0309634
-0.0254287
-0.0240781
-0.0265431
-0.0366817
-0.0229925
-0.0168233
-0.0138066
-0.0180203
-0.0313841
-0.0542344
-0.0894743
-0.140796
-0.199845
-0.240848
-0.241601
-0.204701
-0.14656
-0.0932148
-0.0513039
-0.0231217
-0.00908472
-0.00327873
0.00441063
0.0128414
0.0109726
-0.00765783
-0.0529701
-0.11182
-0.160454
-0.16938
-0.134162
-0.0910822
-0.0433601
-0.00451334
0.0319461
0.0443331
0.0212045
-0.0114953
-0.0711879
-0.0837061
-0.023809
-0.19384
-0.196734
-0.210937
-0.222089
-0.228166
-0.230636
-0.22797
-0.219335
-0.20528
-0.186897
-0.165677
-0.143181
-0.120689
-0.0992024
-0.0793341
-0.0615293
-0.0461148
-0.0329507
-0.021858
-0.0133549
-0.00803575
-0.00652494
-0.0091551
-0.00314357
-0.000774494
0.000586488
-0.0036434
-0.0162569
-0.0370299
-0.0675207
-0.111902
-0.164523
-0.207096
-0.20829
-0.18722
-0.137176
-0.087855
-0.0474508
-0.0186393
-0.00328481
0.00312614
0.0106136
0.020226
0.0198747
0.00219025
-0.045415
-0.109746
-0.16423
-0.175541
-0.137493
-0.0915874
-0.0423378
-0.00200619
0.0363964
0.0511371
0.0255645
-0.00829137
-0.0723724
-0.0875154
-0.0259656
-0.170967
-0.172833
-0.182709
-0.189756
-0.194421
-0.19753
-0.197351
-0.192757
-0.183559
-0.17018
-0.153567
-0.134906
-0.115297
-0.0956993
-0.0768687
-0.059338
-0.0434969
-0.0294895
-0.0171686
-0.00675815
0.0014968
0.00686022
0.00912635
0.0160291
0.0133996
0.0127885
0.00855503
-0.00302331
-0.0215276
-0.0468496
-0.0833106
-0.131163
-0.175477
-0.202721
-0.172643
-0.128585
-0.0831869
-0.044887
-0.0157127
0.00102513
0.00818845
0.0149047
0.025574
0.0274697
0.0121029
-0.0359519
-0.105783
-0.16616
-0.17983
-0.139927
-0.0915407
-0.0412738
-0.000202719
0.0393858
0.0571219
0.029491
-0.00493291
-0.0723954
-0.0906165
-0.0279433
-0.155312
-0.158127
-0.163188
-0.165569
-0.167703
-0.169691
-0.170076
-0.167776
-0.162135
-0.153005
-0.140738
-0.125988
-0.109551
-0.092253
-0.0748336
-0.0579726
-0.0421751
-0.027716
-0.0146727
-0.00331979
0.00643645
0.0143807
0.0190336
0.0170571
0.0226085
0.0217246
0.0180073
0.00781432
-0.00926246
-0.0302284
-0.0593939
-0.0998011
-0.139344
-0.160223
-0.146982
-0.11478
-0.0755504
-0.0406304
-0.0125428
0.00491231
0.0129523
0.0186495
0.0290009
0.0324891
0.020244
-0.0256161
-0.0984048
-0.16384
-0.180467
-0.140378
-0.0903628
-0.0390942
0.00206412
0.0415059
0.0620041
0.032881
-0.00147188
-0.0711217
-0.0918184
-0.0295642
-0.144326
-0.153729
-0.155709
-0.155023
-0.154182
-0.15365
-0.152608
-0.14978
-0.144213
-0.135582
-0.124142
-0.110495
-0.0953709
-0.0795184
-0.0635345
-0.0479265
-0.0331274
-0.0193493
-0.0066786
0.00454253
0.0144618
0.0233477
0.0299846
0.0322924
0.0335052
0.0300478
0.0254722
0.0175189
0.00464726
-0.0120939
-0.0366651
-0.0726022
-0.11162
-0.136019
-0.129552
-0.0992884
-0.063089
-0.0315953
-0.00610928
0.0100495
0.0176947
0.0227278
0.0332549
0.0392914
0.029761
-0.0134455
-0.0885403
-0.160347
-0.181075
-0.138252
-0.085961
-0.0349483
0.00541139
0.0441545
0.0665625
0.0359559
0.00206103
-0.0687849
-0.092156
-0.0307176
-0.12921
-0.140211
-0.14319
-0.141004
-0.137879
-0.135433
-0.133279
-0.130097
-0.124779
-0.116888
-0.106599
-0.0944636
-0.0811049
-0.0670849
-0.0528438
-0.0387664
-0.0251794
-0.0122702
-0.000214545
0.0105417
0.020078
0.0287436
0.0355495
0.038408
0.0382552
0.0346657
0.0299635
0.0231823
0.0128898
-0.00043534
-0.0200006
-0.0511715
-0.0882533
-0.11185
-0.107422
-0.0815895
-0.0499117
-0.0226609
-0.000506341
0.0141801
0.0215493
0.0260571
0.0363934
0.0425763
0.0355495
-0.00462643
-0.079949
-0.155282
-0.178399
-0.133441
-0.0800334
-0.0303321
0.00851922
0.0460997
0.0692638
0.0378526
0.00483279
-0.0658885
-0.0915764
-0.0315039
-0.114074
-0.126347
-0.129664
-0.126985
-0.122843
-0.119394
-0.116604
-0.113333
-0.108461
-0.101459
-0.0923749
-0.0816312
-0.0697406
-0.0571571
-0.0442306
-0.0312889
-0.0186377
-0.00651636
0.00497608
0.0154379
0.024699
0.033048
0.0399408
0.0435104
0.0425979
0.0381657
0.0331649
0.0273513
0.0186765
0.00707116
-0.00911646
-0.033851
-0.0639569
-0.0857558
-0.0853287
-0.0648569
-0.0380086
-0.0145214
0.00469629
0.0178809
0.0247434
0.0287903
0.0389242
0.0451906
0.0390424
0.000913714
-0.0729581
-0.147461
-0.171746
-0.126599
-0.07316
-0.0254314
0.0114033
0.0472268
0.0710488
0.0387714
0.00681721
-0.0623231
-0.0898714
-0.0319631
-0.102474
-0.112552
-0.115661
-0.113208
-0.108907
-0.104963
-0.101668
-0.098223
-0.0936106
-0.087239
-0.0790544
-0.0693881
-0.0586974
-0.0473834
-0.0357323
-0.024018
-0.012446
-0.00124512
0.0094311
0.0192672
0.0280628
0.0359515
0.0425281
0.0460962
0.0454066
0.0409262
0.0361655
0.0315876
0.0240454
0.0133674
0.00104377
-0.0152914
-0.039426
-0.0612653
-0.06381
-0.0481126
-0.026012
-0.00629086
0.00968362
0.0210779
0.0272684
0.0309645
0.0406618
0.0470321
0.0414784
0.00536327
-0.0643821
-0.135584
-0.160808
-0.117304
-0.0651073
-0.0199908
0.0142543
0.0474785
0.071926
0.0389872
0.00851201
-0.0577809
-0.0869575
-0.0319988
-0.0887638
-0.0985201
-0.101808
-0.0997904
-0.0956484
-0.0915169
-0.0879121
-0.0843391
-0.079962
-0.0742174
-0.066975
-0.0584471
-0.0489837
-0.038921
-0.0284834
-0.0178885
-0.00730923
0.00304632
0.0130022
0.0222457
0.0305391
0.0379071
0.0440018
0.0475897
0.0471947
0.0431836
0.0389957
0.0356484
0.029353
0.020619
0.0132497
0.00325287
-0.0177268
-0.0389606
-0.0432915
-0.0321897
-0.0150005
0.00127703
0.0143524
0.0239136
0.0292474
0.0325926
0.041635
0.0478438
0.0429859
0.010216
-0.0528346
-0.119369
-0.145056
-0.105351
-0.056141
-0.0143463
0.0169436
0.0468547
0.0717341
0.0386798
0.0102349
-0.052197
-0.0827623
-0.0315244
-0.0757984
-0.0851444
-0.0884772
-0.0868165
-0.0829652
-0.0789104
-0.0752666
-0.0717472
-0.0676898
-0.0625686
-0.0561807
-0.0486318
-0.0401969
-0.0311754
-0.0217742
-0.012196
-0.00259447
0.00686125
0.0159928
0.0245075
0.0321881
0.0390205
0.0446625
0.048014
0.0481839
0.0450895
0.041729
0.0398669
0.0361761
0.0309455
0.0268966
0.0189773
-0.000306438
-0.019665
-0.0246324
-0.017415
-0.00474569
0.00834858
0.0187633
0.0264065
0.0307911
0.0337297
0.0419054
0.0476354
0.0437306
0.0155195
-0.0392374
-0.0994129
-0.124831
-0.0907709
-0.0464734
-0.008676
0.019454
0.0454185
0.0703381
0.0378843
0.0119678
-0.045676
-0.0772701
-0.0304624
-0.0640271
-0.0725383
-0.0757191
-0.0743828
-0.0709352
-0.0671649
-0.0636934
-0.0603543
-0.0566222
-0.0520304
-0.0463614
-0.0396702
-0.0321811
-0.0241607
-0.015794
-0.00723463
0.00139548
0.00995306
0.0182764
0.0260886
0.0331698
0.0394596
0.044703
0.0479536
0.0486483
0.0467237
0.0444405
0.0439779
0.0434026
0.0420092
0.039342
0.0310195
0.0134848
-0.00292767
-0.00796317
-0.00409395
0.00438107
0.0145407
0.0228123
0.0286579
0.0320947
0.034511
0.0416885
0.0465297
0.0434699
0.0201755
-0.0249754
-0.0768923
-0.101053
-0.0738366
-0.0363919
-0.00329643
0.0216791
0.0433113
0.0676591
0.0365159
0.0136494
-0.0383426
-0.07049
-0.0287495
-0.0529974
-0.0606034
-0.0636387
-0.0626543
-0.0596722
-0.0562744
-0.0530634
-0.0499584
-0.0465511
-0.0424481
-0.0374489
-0.0315728
-0.0249872
-0.017904
-0.0104786
-0.00284369
0.0048883
0.0125861
0.0201058
0.0272018
0.0336778
0.039429
0.0442992
0.047508
0.0486684
0.047931
0.0468393
0.0475278
0.0491316
0.0500977
0.0480343
0.0396821
0.0247608
0.0113488
0.00613869
0.00734943
0.0123608
0.0199041
0.0264509
0.030718
0.0333151
0.0351024
0.0412302
0.0448797
0.0421954
0.0236932
-0.0110418
-0.0534491
-0.075448
-0.0552631
-0.0262109
0.00158641
0.0235613
0.0407308
0.0635696
0.0345622
0.0153628
-0.030317
-0.0624698
-0.0263457
-0.0425827
-0.0494936
-0.0524234
-0.0517514
-0.0492006
-0.0461784
-0.0432668
-0.0404454
-0.0373925
-0.0337738
-0.0294043
-0.0242747
-0.0185059
-0.0122701
-0.00571055
0.00105107
0.00792003
0.0147835
0.0215194
0.0279141
0.0338028
0.039047
0.0435622
0.0468732
0.0483215
0.0485825
0.0485509
0.0499096
0.0523006
0.0540587
0.0526033
0.0454426
0.0335669
0.0226571
0.0173114
0.0167388
0.0191275
0.0243972
0.0295591
0.0325761
0.0345082
0.0357042
0.0407873
0.0430978
0.0403279
0.0263815
0.00174102
-0.0311358
-0.0502576
-0.036172
-0.0162514
0.00587249
0.0250724
0.037996
0.0583734
0.0322437
0.0172642
-0.0217616
-0.0533098
-0.0232425
-0.0330716
-0.0393216
-0.0420816
-0.0416415
-0.0394798
-0.0368396
-0.0342634
-0.0317613
-0.0290743
-0.0259167
-0.0221219
-0.0176664
-0.0126423
-0.00719409
-0.0014462
0.00449756
0.0105591
0.0166372
0.0226299
0.0283517
0.0336708
0.0384322
0.042554
0.0456152
0.0476078
0.0486635
0.0494475
0.0510923
0.0534616
0.0552102
0.0541889
0.048625
0.0395609
0.0307904
0.0255905
0.0240664
0.02471
0.0281191
0.0321144
0.0342161
0.0356028
0.0363602
0.0405428
0.0417618
0.0386266
0.0286643
0.0125629
-0.0117541
-0.0276039
-0.018019
-0.00685009
0.00963758
0.0262825
0.0356971
0.0525851
0.0299981
0.0194828
-0.0129276
-0.0431866
-0.0194721
-0.0244974
-0.0300011
-0.0325323
-0.0322937
-0.0305127
-0.0282591
-0.0260238
-0.0238403
-0.0215068
-0.0187821
-0.015517
-0.0116804
-0.00734243
-0.00262038
0.0023812
0.00757133
0.0128824
0.0182266
0.0235213
0.0286069
0.0333776
0.0376893
0.0414602
0.0443967
0.0466639
0.0482322
0.0495425
0.0512376
0.0532884
0.054744
0.0539394
0.0497894
0.043051
0.0361912
0.0314634
0.0295587
0.0291838
0.0311544
0.0341211
0.0356043
0.0365647
0.0370462
0.0404426
0.0411601
0.0374199
0.030586
0.0208321
0.00360402
-0.00908626
-0.00249364
0.00160812
0.0130208
0.0272692
0.0345441
0.047062
0.0285674
0.0220803
-0.00420426
-0.0324143
-0.0151449
-0.0166221
-0.0214579
-0.0237983
-0.0237512
-0.0223197
-0.0204195
-0.018501
-0.0166217
-0.0146263
-0.0123074
-0.00953002
-0.00625819
-0.00254366
0.00151826
0.00583788
0.010335
0.0149533
0.019619
0.0242643
0.0287567
0.033008
0.0368985
0.0403624
0.0432264
0.0455573
0.04738
0.0489576
0.0505876
0.0522662
0.0533782
0.0527109
0.0496763
0.0447595
0.0395264
0.0354617
0.0335066
0.0326333
0.0335793
0.0356529
0.0367072
0.0373526
0.0376862
0.040379
0.0409766
0.0367735
0.0323475
0.0265846
0.0145758
0.00448562
0.00915649
0.0088438
0.0161444
0.028152
0.0347395
0.042917
0.0289278
0.0249686
0.00376509
-0.0216115
-0.0105209
-0.00943297
-0.0137282
-0.0159065
-0.0160057
-0.0148615
-0.0132713
-0.0116482
-0.0100598
-0.00838144
-0.00643478
-0.00409934
-0.00133688
0.00181521
0.00527886
0.00897734
0.0128426
0.0168274
0.0208711
0.0249172
0.0288585
0.0326252
0.0361188
0.0392829
0.0420029
0.0443102
0.0462146
0.0478737
0.0493911
0.0507458
0.0515714
0.0510409
0.0488499
0.045311
0.0414011
0.0380591
0.0362276
0.0351743
0.0354556
0.0367917
0.0375198
0.0379444
0.0381742
0.0402842
0.0408679
0.0375749
0.0345249
0.0306648
0.0219516
0.0138005
0.0167769
0.0148451
0.0190886
0.0290504
0.035933
0.040782
0.0316972
0.0278643
0.0102133
-0.0117413
-0.00604894
-0.00303835
-0.0068154
-0.00878821
-0.00897543
-0.00807783
-0.00677522
-0.00542998
-0.00411025
-0.0027194
-0.00110802
0.000830582
0.0031365
0.0057834
0.00870822
0.0118461
0.0151402
0.0185498
0.0220269
0.0255249
0.0289574
0.0322703
0.0353833
0.0382479
0.040773
0.0429816
0.0448533
0.0464772
0.0478669
0.0489785
0.049604
0.04922
0.0476633
0.0451461
0.0422743
0.0396199
0.0380024
0.0369427
0.0368337
0.0376035
0.0380699
0.0383527
0.0384746
0.0401171
0.0406931
0.0386364
0.0366063
0.033531
0.0268106
0.0202214
0.0218714
0.0197098
0.0218009
0.0298514
0.0370958
0.0400732
0.0355377
0.0300611
0.0145143
-0.00377986
-0.00223309
0.00265292
-0.000597668
-0.00235754
-0.002622
-0.0019515
-0.000908907
0.000189742
0.00127112
0.00240554
0.00371807
0.00530424
0.0072048
0.00940203
0.0118462
0.0144827
0.0172644
0.0201562
0.0231203
0.0261197
0.0290842
0.0319715
0.0347178
0.0372854
0.0395905
0.041641
0.0434066
0.0449325
0.0461929
0.0471349
0.0476381
0.0473995
0.0463252
0.0445498
0.0424812
0.0404195
0.039062
0.038084
0.0377688
0.0381384
0.0383911
0.0385821
0.0386123
0.0398474
0.0404053
0.039316
0.037827
0.0352131
0.0298634
0.0246126
0.0252449
0.0234327
0.024196
0.0304562
0.0373089
0.0396106
0.0380725
0.0307245
0.0165226
0.00171723
0.000323953
0.00781957
0.00499471
0.00339426
0.00306098
0.00354549
0.00437142
0.00525703
0.00612707
0.00703417
0.0080839
0.00936097
0.0109055
0.0127069
0.0147263
0.016918
0.0192432
0.021672
0.0241752
0.0267231
0.029259
0.0317508
0.0341461
0.0364154
0.0384824
0.0403462
0.0419669
0.0433652
0.0445002
0.045326
0.0457668
0.0456579
0.0449499
0.0437142
0.0422521
0.04069
0.0395856
0.0387326
0.0383238
0.0384306
0.0385161
0.0386316
0.0385936
0.0394616
0.0398808
0.0391809
0.0380266
0.0359123
0.0316919
0.0274771
0.0273834
0.0260304
0.0261035
0.0307169
0.0364556
0.0385419
0.0379863
0.0298166
0.0170498
0.00497805
0.00175961
0.0123986
0.00993788
0.00849985
0.00813715
0.00847696
0.00911673
0.00981306
0.010496
0.0112048
0.012027
0.0130365
0.0142719
0.015728
0.017375
0.0191752
0.0210966
0.0231145
0.0252062
0.0273477
0.029494
0.0316213
0.0336853
0.0356603
0.0374794
0.0391423
0.0406019
0.0418626
0.0428809
0.0436228
0.0440369
0.0440334
0.0436028
0.0427607
0.0417496
0.0405905
0.0397136
0.0390011
0.0385649
0.0385098
0.0384716
0.0385129
0.0384308
0.0389759
0.0392519
0.0386993
0.0376143
0.0359362
0.032689
0.0292297
0.0286559
0.0276552
0.0274004
0.0300936
0.0348318
0.0367739
0.0360012
0.0281506
0.0169583
0.00677882
0.00242793
0.0164309
0.0143247
0.0130555
0.0126738
0.0128853
0.0133604
0.013892
0.0144142
0.0149536
0.0155815
0.0163619
0.017331
0.0184884
0.0198117
0.0212703
0.0228378
0.0244939
0.026221
0.0280002
0.0297954
0.0315878
0.033343
0.0350386
0.0366169
0.0380719
0.0393624
0.0404828
0.0413923
0.0420652
0.0424697
0.0425481
0.0423207
0.0417657
0.0410811
0.040241
0.039557
0.0389798
0.0385562
0.0384051
0.0382814
0.038248
0.0381292
0.0383985
0.0385061
0.0379894
0.0369343
0.0355377
0.0330826
0.0302188
0.0293306
0.0285683
0.0281834
0.0297916
0.0329895
0.0345755
0.0332804
0.0262366
0.0165739
0.00772823
0.00269935
0.0200183
0.018218
0.0170919
0.0166952
0.0168012
0.01714
0.0175334
0.0179188
0.018314
0.018777
0.0193631
0.0201057
0.0210076
0.0220523
0.0232155
0.0244753
0.0258153
0.0272217
0.0286797
0.0301608
0.0316512
0.0331239
0.0345579
0.035906
0.0371566
0.0382783
0.0392602
0.0400675
0.0406763
0.0410717
0.0412091
0.0411247
0.0407777
0.0403218
0.0397139
0.039201
0.0387426
0.0383537
0.0381468
0.0379653
0.0378617
0.0377018
0.037749
0.0376813
0.0371591
0.0361574
0.0349125
0.03304
0.0306879
0.0296087
0.0289335
0.0284502
0.0292259
0.0311316
0.0321784
0.0304546
0.0242642
0.0159671
0.00817282
0.00279232
0.0231844
0.0216422
0.020648
0.0202506
0.0202733
0.0204976
0.0207731
0.0210422
0.021316
0.0216413
0.0220649
0.0226167
0.0233021
0.0241091
0.0250189
0.0260135
0.0270794
0.028206
0.0293819
0.0305853
0.0318052
0.0330213
0.034215
0.0353479
0.0364045
0.0373629
0.0382099
0.0389178
0.0394634
0.039842
0.0400167
0.0400262
0.039828
0.0395337
0.0391152
0.0387214
0.0383524
0.038004
0.0377651
0.0375435
0.0373763
0.0371727
0.0370459
0.0368246
0.0362788
0.0353491
0.0341913
0.0327013
0.0307866
0.0296084
0.0288985
0.0283509
0.0284785
0.0293338
0.0296749
0.0277677
0.0223278
0.0151872
0.00828899
0.00279855
0.0259474
0.0246301
0.0237524
0.0233749
0.0233379
0.0234678
0.0236434
0.0238153
0.0239888
0.0242003
0.0244891
0.0248818
0.0253853
0.0259916
0.026686
0.0274537
0.0282838
0.0291687
0.0300992
0.0310585
0.0320389
0.0330256
0.0340012
0.034935
0.0358113
0.0366156
0.0373329
0.0379428
0.0384234
0.0387753
0.0389663
0.0390301
0.0389327
0.03875
0.0384692
0.0381622
0.0378568
0.0375455
0.0372889
0.0370367
0.0368111
0.0365337
0.0362995
0.0359662
0.0353906
0.0345299
0.0334416
0.0321777
0.0306077
0.0293957
0.0285894
0.0279509
0.0276091
0.0276442
0.0273663
0.0253171
0.0205008
0.0143039
0.0081752
0.00275309
0.0283714
0.0272543
0.0264837
0.0261107
0.0260269
0.0260843
0.0261792
0.0262699
0.0263599
0.0264778
0.0266558
0.0269174
0.0272697
0.0277077
0.0282203
0.0287959
0.0294254
0.0301027
0.0308211
0.0315685
0.0323388
0.0331217
0.0339017
0.0346545
0.035366
0.036026
0.0366204
0.0371338
0.0375463
0.0378598
0.0380487
0.0381372
0.0381013
0.0379884
0.0377931
0.0375534
0.0372937
0.0370107
0.0367434
0.0364678
0.036197
0.0358766
0.0355418
0.0351234
0.0345186
0.0337069
0.032686
0.0315478
0.0302167
0.0290162
0.028094
0.0273299
0.0266488
0.0260703
0.0252545
0.023126
0.0188244
0.0133831
0.00790202
0.00266934
0.0304887
0.0295411
0.0288646
0.028507
0.0283841
0.0283805
0.0284112
0.0284362
0.0284571
0.0284977
0.028585
0.0287389
0.0289666
0.0292649
0.0296256
0.0300396
0.0304993
0.0310003
0.0315373
0.0321019
0.0326898
0.0332934
0.0338992
0.0344895
0.035052
0.0355791
0.0360578
0.0364765
0.036818
0.0370836
0.0372543
0.0373448
0.0373383
0.0372619
0.0371144
0.036915
0.0366951
0.0364263
0.0361501
0.0358543
0.0355402
0.0351839
0.0347807
0.0343013
0.0336726
0.0328873
0.0319263
0.0308597
0.0296714
0.0285009
0.0274722
0.0265606
0.0256296
0.0246165
0.0233686
0.0211873
0.0173114
0.0124731
0.00752532
0.00255524
0.032325
0.0315226
0.0309295
0.0305877
0.0304342
0.0303803
0.0303576
0.0303326
0.0303012
0.0302813
0.0302957
0.0303621
0.0304875
0.0306705
0.030905
0.031184
0.0315014
0.0318539
0.0322371
0.0326454
0.033076
0.0335238
0.0339765
0.0344227
0.0348515
0.0352566
0.035627
0.0359536
0.0362227
0.0364336
0.0365725
0.0366469
0.0366454
0.0365819
0.0364551
0.0362763
0.036051
0.0358061
0.0355274
0.0352161
0.0348702
0.0344774
0.0340252
0.0335002
0.0328529
0.0320783
0.0311605
0.0301379
0.0290237
0.0278766
0.026765
0.025706
0.0245847
0.0232776
0.0217054
0.0194808
0.0159571
0.011603
0.0070921
0.00242057
0.0339115
0.0332328
0.0327125
0.0323877
0.032212
0.0321172
0.0320489
0.0319798
0.0319072
0.0318426
0.0318025
0.0318008
0.0318425
0.0319311
0.0320618
0.0322291
0.0324281
0.0326563
0.0329102
0.0331862
0.0334817
0.0337948
0.034117
0.0344361
0.0347452
0.0350392
0.0353089
0.0355472
0.0357431
0.0358949
0.035992
0.0360374
0.0360228
0.0359548
0.0358312
0.0356599
0.0354431
0.0351902
0.034898
0.0345683
0.0341943
0.0337701
0.0332815
0.0327215
0.0320576
0.0312846
0.0303913
0.0293958
0.0283139
0.0271727
0.0260018
0.0248139
0.0235395
0.0220428
0.0202469
0.0179861
0.01475
0.0107907
0.00664111
0.00227545
0.0352756
0.0347009
0.0342438
0.0339363
0.0337452
0.033619
0.0335148
0.0334099
0.0333003
0.0331948
0.0331072
0.0330501
0.0330312
0.0330478
0.0330965
0.0331734
0.0332753
0.0334006
0.0335469
0.0337118
0.0338952
0.034094
0.0343017
0.0345097
0.0347123
0.0349061
0.0350835
0.0352385
0.0353625
0.0354531
0.035502
0.0355097
0.0354691
0.0353834
0.0352488
0.0350701
0.0348457
0.0345816
0.0342738
0.0339241
0.0335247
0.0330729
0.0325551
0.0319674
0.0312866
0.0305096
0.029626
0.0286432
0.0275722
0.026421
0.0252055
0.023917
0.0225186
0.0209039
0.0189703
0.0166829
0.0136773
0.0100463
0.00620034
0.00212867
0.0364415
0.0359535
0.0355507