/*--------------------------------*- C++ -*----------------------------------*\
| =========                 |                                                 |
| \\      /  F ield         | OpenFOAM: The Open Source CFD Toolbox           |
|  \\    /   O peration     | Version:  2312                                  |
|   \\  /    A nd           | Website:  www.openfoam.com                      |
|    \\/     M anipulation  |                                                 |
\*---------------------------------------------------------------------------*/
FoamFile
{
    version     2.0;
    format      ascii;
    arch        "LSB;label=32;scalar=64";
    class       surfaceScalarField;
    location    "37";
    object      phi;
}
// * * * * * * * * * * * * * * * * * * * * * * * * * * * * * * * * * * * * * //

dimensions      [0 3 -1 0 0 0 0];

oriented        oriented;

internalField   nonuniform List<scalar> 
26232
(
-0.00019678
0.000974189
-0.000777409
-0.000382361
0.00240909
-0.00222351
-0.000302531
0.00333046
-0.00341029
0.00023097
0.00368185
-0.00421536
0.0013844
0.00339209
-0.00454551
0.0033361
0.0023702
-0.0043219
0.00629414
0.000518429
-0.00347647
0.0105016
-0.00225659
-0.00195091
0.0162154
-0.00602484
0.000311083
0.0236735
-0.0108102
0.00335215
0.0330342
-0.016575
0.00721421
0.0443353
-0.023211
0.0119099
0.0574659
-0.0305461
0.0174156
0.0721579
-0.0383642
0.0236721
0.0880112
-0.0464224
0.0305692
0.104502
-0.0544859
0.0379951
0.121086
-0.0623145
0.0457308
0.137111
-0.0697576
0.0537321
0.152122
-0.0765793
0.0615687
0.165481
-0.0828895
0.0695306
0.177063
-0.0882641
0.0766823
0.186297
-0.0935126
0.084278
0.193282
-0.0971314
0.0901464
-0.101882
0.0981852
0.196979
-0.000229134
0.00120332
-0.00044315
0.00262311
-0.000320054
0.00320737
0.000411742
0.00295006
0.00202204
0.00178179
0.00480332
-0.000411084
0.00906429
-0.00374254
0.0151017
-0.00829396
0.0231353
-0.0140585
0.0332439
-0.0209188
0.0453173
-0.0286483
0.0590469
-0.0369405
0.0739531
-0.0454524
0.0894383
-0.0538494
0.104854
-0.0618384
0.119569
-0.0692003
0.133043
-0.0757886
0.144853
-0.0815676
0.154825
-0.0865516
0.162851
-0.0909157
0.169301
-0.0947139
0.174188
-0.0983993
0.178698
-0.101641
-0.105727
0.182543
-0.000190158
0.00139348
-0.000263204
0.00269615
0.000166996
0.00277717
0.00146266
0.00165439
0.00399974
-0.000755294
0.00815631
-0.00456765
0.0142703
-0.00985656
0.0225481
-0.0165717
0.0329822
-0.0244927
0.0453072
-0.0332438
0.0590185
-0.0423595
0.0734443
-0.0513664
0.0878472
-0.0598553
0.101527
-0.0675289
0.113913
-0.0742246
0.124632
-0.0799194
0.133549
-0.0847057
0.140772
-0.0887903
0.146602
-0.0923813
0.151491
-0.0958049
0.155874
-0.0990968
0.160193
-0.102719
0.164638
-0.106086
-0.110285
0.169196
-9.4173e-05
0.00148765
0.000124328
0.00247765
0.00110087
0.00180062
0.00328807
-0.000532801
0.00713691
-0.00460414
0.0130395
-0.0104703
0.0212131
-0.0180301
0.0315836
-0.0269423
0.0437425
-0.0366516
0.0570045
-0.0465058
0.0705406
-0.0558957
0.0835348
-0.0643606
0.095322
-0.0716425
0.105484
-0.0776905
0.113892
-0.0826325
0.120688
-0.0867155
0.126229
-0.090247
0.130947
-0.0935088
0.135296
-0.0967301
0.139527
-0.100035
0.143867
-0.103437
0.148184
-0.107036
0.152542
-0.110445
-0.11449
0.156747
3.61407e-05
0.00145151
0.000654603
0.00185919
0.00236861
8.66171e-05
0.00569829
-0.00386248
0.0111078
-0.0100136
0.0188614
-0.0182239
0.0288583
-0.028027
0.0405738
-0.0386578
0.0531627
-0.0492404
0.0656689
-0.059012
0.0772461
-0.0674729
0.0873194
-0.0744339
0.0956594
-0.0799824
0.102367
-0.0843977
0.107778
-0.0880441
0.112338
-0.0912755
0.116451
-0.0943598
0.120405
-0.0974626
0.124319
-0.100645
0.128208
-0.103924
0.132037
-0.107266
0.135724
-0.110723
0.139423
-0.114144
-0.117985
0.142919
0.000184374
0.00126714
0.00128916
0.000754402
0.00389138
-0.0025156
0.00853418
-0.00850528
0.0155715
-0.017051
0.0249357
-0.0275881
0.0360312
-0.0391225
0.0478754
-0.050502
0.059401
-0.060766
0.0697499
-0.0693609
0.0784474
-0.0761704
0.085432
-0.0814186
0.0909648
-0.0855151
0.095469
-0.0889018
0.0993692
-0.0919443
0.102976
-0.0948828
0.106461
-0.0978446
0.109876
-0.100877
0.113229
-0.103998
0.116518
-0.107213
0.119777
-0.110525
0.123028
-0.113974
0.126339
-0.117456
-0.121283
0.129638
0.000355961
0.000911179
0.00202731
-0.000916949
0.00563381
-0.0061221
0.011649
-0.0145204
0.020118
-0.02552
0.0304494
-0.0379195
0.0415529
-0.0502261
0.0522459
-0.061195
0.061639
-0.0701591
0.0693241
-0.0770459
0.0753508
-0.0821972
0.0800652
-0.0861329
0.0839068
-0.0893568
0.0872534
-0.0922484
0.0903504
-0.0950414
0.0933241
-0.0978564
0.0962267
-0.100747
0.0990874
-0.103738
0.101928
-0.106839
0.104767
-0.110051
0.10762
-0.113378
0.110454
-0.116809
0.113321
-0.120323
-0.124057
0.116095
0.000561059
0.00035012
0.0028766
-0.00323249
0.00754689
-0.0107924
0.0148093
-0.0217828
0.0241925
-0.0349032
0.034556
-0.0482829
0.0445836
-0.0602537
0.0532995
-0.0699109
0.0602953
-0.0771548
0.0656645
-0.0824152
0.0697851
-0.0863178
0.0730928
-0.0894407
0.0759386
-0.0922025
0.078546
-0.0948559
0.0810368
-0.0975321
0.0834716
-0.100291
0.0858815
-0.103157
0.0882791
-0.106135
0.0906644
-0.109224
0.0930343
-0.112421
0.0953817
-0.115726
0.0977139
-0.119141
0.100064
-0.122673
-0.126361
0.102368
0.000804758
-0.000454638
0.00381871
-0.00624644
0.00950257
-0.0164763
0.0176518
-0.0299321
0.0271945
-0.0444459
0.0366763
-0.0577648
0.044955
-0.0685324
0.0515306
-0.0764865
0.0564725
-0.0820967
0.060159
-0.0861017
0.063027
-0.0891858
0.0654274
-0.0918411
0.0675876
-0.0943626
0.0696334
-0.0969017
0.0716256
-0.0995244
0.0735884
-0.102254
0.0755267
-0.105095
0.0774392
-0.108048
0.0793271
-0.111112
0.0811962
-0.11429
0.0830584
-0.117588
0.0849213
-0.121004
0.0867946
-0.124546
-0.128207
0.0886402
0.00107976
-0.0015344
0.00479231
-0.00995899
0.0112894
-0.0229734
0.0197721
-0.0384148
0.0287138
-0.0533875
0.0367248
-0.0657758
0.043101
-0.0749086
0.0478097
-0.0811952
0.0512008
-0.0854878
0.0537185
-0.0886194
0.0557324
-0.0911997
0.0574859
-0.0935946
0.0591129
-0.0959896
0.0606751
-0.0984639
0.0621957
-0.101045
0.0636818
-0.10374
0.0651371
-0.106551
0.0665662
-0.109477
0.0679737
-0.112519
0.0693643
-0.115681
0.0707386
-0.118962
0.0720995
-0.122365
0.0734496
-0.125896
-0.12952
0.0747627
0.00136907
-0.00290347
0.00570272
-0.0142926
0.0126691
-0.0299397
0.0208814
-0.046627
0.0286796
-0.0611857
0.0350259
-0.0721221
0.0396796
-0.0795623
0.0429141
-0.0844297
0.0451752
-0.0877489
0.0468622
-0.0903064
0.0482463
-0.0925838
0.0494781
-0.0948264
0.0506277
-0.0971392
0.0517234
-0.0995595
0.0527762
-0.102098
0.0537916
-0.104756
0.0547726
-0.107532
0.055721
-0.110425
0.0566393
-0.113438
0.0575305
-0.116572
0.0583999
-0.119832
0.0592541
-0.123219
0.0600863
-0.126728
-0.130326
0.0608919
0.00165012
-0.00455359
0.00644608
-0.0190886
0.0134586
-0.0369522
0.0209052
-0.0540736
0.0273065
-0.0675871
0.0320662
-0.0768818
0.0352918
-0.082788
0.0374013
-0.0865392
0.0388265
-0.0891742
0.0398804
-0.0913603
0.0407433
-0.0934467
0.041502
-0.0955851
0.0421927
-0.0978299
0.0428296
-0.100196
0.043418
-0.102686
0.0439606
-0.105298
0.0444594
-0.10803
0.0449177
-0.110884
0.0453403
-0.11386
0.0457328
-0.116964
0.0461003
-0.120199
0.0464437
-0.123562
0.0467574
-0.127042
0.0470443
-0.130612
-0.000154957
0.00283123
-0.00267628
-0.000636769
0.00729205
-0.00681024
-0.00145171
0.0106853
-0.00987035
-0.00256797
0.0130964
-0.0119801
-0.00392906
0.0147549
-0.0133938
-0.00547425
0.0159446
-0.0143994
-0.0071524
0.0169131
-0.015235
-0.008927
0.0178286
-0.016054
-0.0107744
0.0187794
-0.016932
-0.0126792
0.0197958
-0.0178911
-0.0146289
0.0208744
-0.0189246
-0.0166118
0.0219955
-0.0200127
-0.0186144
0.0231314
-0.0211288
-0.0206223
0.0242489
-0.0222411
-0.0226194
0.0253101
-0.023313
-0.0245895
0.0262723
-0.0243021
-0.0265172
0.0270883
-0.0251606
-0.0283896
0.0277069
-0.0258345
-0.0301986
0.0280738
-0.0262647
-0.0319425
0.0281332
-0.0263893
-0.0336259
0.0278285
-0.0261451
-0.0352672
0.0270982
-0.0254569
-0.0369307
0.0258823
-0.0242188
0.0241953
-0.0387723
-0.0223537
-1.45818e-05
0.00284582
-0.000192668
0.00747014
-0.000620836
0.0111135
-0.00131628
0.0137918
-0.00224418
0.0156828
-0.0033453
0.0170457
-0.00455606
0.0181239
-0.0058229
0.0190955
-0.0071055
0.020062
-0.00837391
0.0210642
-0.00960374
0.0221042
-0.0107724
0.0231642
-0.0118569
0.024216
-0.0128338
0.0252258
-0.0136792
0.0261555
-0.0143702
0.0269632
-0.0148857
0.0276038
-0.0152083
0.0280295
-0.0153273
0.0281927
-0.0152372
0.0280431
-0.0149397
0.027531
-0.0144519
0.0266103
-0.0138137
0.0252441
0.0234587
-0.013077
0.00012274
0.00272308
0.00025876
0.00733412
0.000256415
0.0111158
4.56449e-05
0.0140026
-0.000369937
0.0160983
-0.000935984
0.0176117
-0.00158122
0.0187691
-0.00223595
0.0197502
-0.00284168
0.0206678
-0.00335211
0.0215746
-0.0037296
0.0224817
-0.00394124
0.0233758
-0.00395628
0.024231
-0.0037453
0.0250148
-0.00328055
0.0256908
-0.00253704
0.0262197
-0.00149388
0.0265607
-0.000135795
0.0266715
0.00154881
0.0265081
0.00356274
0.0260292
0.00590065
0.025193
0.00855004
0.0239609
0.0114912
0.022303
0.0201836
0.0147663
0.000240203
0.00248287
0.000670441
0.00690388
0.00109136
0.0106949
0.00138936
0.0137046
0.00153557
0.0159521
0.00156487
0.0175824
0.00154859
0.0187854
0.0015676
0.0197312
0.00169634
0.020539
0.001997
0.0212739
0.00252023
0.0219585
0.00330827
0.0225878
0.00439779
0.0231415
0.00582129
0.0235913
0.00760725
0.0239048
0.0097793
0.0240477
0.0123553
0.0239847
0.0153457
0.0236811
0.0187513
0.0231025
0.0225649
0.0222156
0.0267643
0.0209936
0.0313434
0.0193818
0.0362165
0.0174299
0.0148971
0.041503
0.000324651
0.00215822
0.000994747
0.00623378
0.00179416
0.00989548
0.00257923
0.0129195
0.00328758
0.0152438
0.00392972
0.0169403
0.00456518
0.0181499
0.0052758
0.0190206
0.00614525
0.0196696
0.00724807
0.0201711
0.00864629
0.0205603
0.0103906
0.0208435
0.0125224
0.0210097
0.015076
0.0210377
0.018079
0.0209018
0.0215527
0.020574
0.0255107
0.0200267
0.0299605
0.0192312
0.0348947
0.0181683
0.0403195
0.0167908
0.0461729
0.0151402
0.0525262
0.0130286
0.0591743
0.0107818
0.00760783
0.0664636
0.000367776
0.00179045
0.00119581
0.00540574
0.00228296
0.00880833
0.00347738
0.0117251
0.00469301
0.0140282
0.00591312
0.0157202
0.00717612
0.0168869
0.008553
0.0176437
0.0101262
0.0180964
0.011975
0.0183223
0.0141684
0.0183668
0.0167632
0.0182487
0.0198048
0.0179681
0.0233285
0.017514
0.0273611
0.0168692
0.0319222
0.0160128
0.0370217
0.0149272
0.0426744
0.0135784
0.048855
0.0119877
0.0556332
0.0100126
0.0628669
0.00790642
0.0708593
0.00503614
0.0791187
0.00252248
-0.00187571
0.0886022
0.000367406
0.00142304
0.00125489
0.00451826
0.00250326
0.00755996
0.00397693
0.0102514
0.00558274
0.0124223
0.00728284
0.0140201
0.00909121
0.0150785
0.0110588
0.0156761
0.0132555
0.0158997
0.0157553
0.0158225
0.0186265
0.0154956
0.021927
0.0149481
0.0257034
0.0141918
0.0299915
0.0132259
0.0348181
0.0120426
0.0402061
0.0106249
0.046165
0.00896834
0.0527396
0.00700382
0.059886
0.00484133
0.0677915
0.00210718
0.0761629
-0.000465031
0.0857878
-0.00458876
0.0956918
-0.00738145
-0.0138186
0.107635
0.000326401
0.00109664
0.00117141
0.00367325
0.00243589
0.00629549
0.00402108
0.00866624
0.00584567
0.0105977
0.00786347
0.0120023
0.0100687
0.0128734
0.0124895
0.0132553
0.0151763
0.0132129
0.0181887
0.0128101
0.0215863
0.012098
0.025423
0.0111115
0.0297452
0.00986955
0.0345939
0.00837719
0.0400068
0.00662966
0.0460338
0.00459791
0.0527075
0.00229461
0.0601275
-0.000416144
0.0683224
-0.00335365
0.0776544
-0.00722479
0.0877715
-0.0105821
0.0997122
-0.0165295
0.112206
-0.0198753
-0.0291191
0.127506
0.000250243
0.000846396
0.00095939
0.0029641
0.00209728
0.00515759
0.00361469
0.00714883
0.00545751
0.00875492
0.00758564
0.00987414
0.00998393
0.0104751
0.0126634
0.0105759
0.0156558
0.0102205
0.0190063
0.00945952
0.0227677
0.00833661
0.0269974
0.0068818
0.0317591
0.00510787
0.0371284
0.00300788
0.0431773
0.000580754
0.0500592
-0.00228393
0.0578971
-0.00554334
0.0668937
-0.00941268
0.0771368
-0.0135968
0.0889511
-0.0190391
0.10225
-0.0238807
0.117562
-0.0318414
0.134124
-0.0364378
-0.0481463
0.153151
0.000145631
0.000700765
0.000644195
0.00246553
0.00153706
0.00426473
0.00282906
0.00585684
0.00450241
0.00708157
0.00653604
0.00784051
0.00892026
0.00809086
0.0116645
0.00783166
0.0147996
0.00708536
0.0183788
0.0058804
0.022478
0.00423734
0.0271982
0.00216164
0.0326607
-0.00035468
0.0390458
-0.00337722
0.0465393
-0.00691276
0.0553086
-0.0110531
0.0655498
-0.0157846
0.0774251
-0.021288
0.091072
-0.0272437
0.106412
-0.0343794
0.123671
-0.0411395
0.142131
-0.0503016
0.162267
-0.0565739
-0.068655
0.182776
2.27834e-05
0.000677982
0.000267132
0.00222119
0.000845501
0.00368636
0.00181699
0.00488535
0.00320669
0.00569187
0.005028
0.0060192
0.00730157
0.00581729
0.0100702
0.00506308
0.0134093
0.00374621
0.0174322
0.00185755
0.0222923
-0.000622756
0.0281867
-0.00373278
0.0353292
-0.00749717
0.0439079
-0.0119559
0.0541045
-0.0171094
0.066029
-0.0229776
0.0796975
-0.029453
0.0950359
-0.0366265
0.111892
-0.0440997
0.129834
-0.0523212
0.148872
-0.0601781
0.167786
-0.0692154
0.1875
-0.0762878
-0.085966
0.204811
-9.9427e-05
-0.000101752
0.000174315
0.000844312
0.00199067
0.00368797
0.0060288
0.00914096
0.0131983
0.018408
0.0249994
0.0331765
0.0430949
0.0548111
0.0682708
0.0832883
0.0995661
0.116672
0.134141
0.15135
0.167854
0.182917
0.196776
0.208995
-0.0397411
0.027241
-0.0262722
-0.0405012
0.0207972
-0.0200371
-0.041515
0.0131047
-0.0120909
-0.0429635
0.0033283
-0.00187982
-0.0443686
-0.0084295
0.0098346
-0.0460805
-0.0221833
0.0238952
-0.0481235
-0.0379557
0.0399987
-0.0504443
-0.0557637
0.0580844
-0.0529796
-0.0752721
0.0778075
-0.055741
-0.0958491
0.0986105
-0.0587319
-0.116684
0.119675
-0.061723
-0.136926
0.139917
-0.0638428
-0.155827
0.157947
-0.063409
-0.172239
0.171806
-0.0583111
-0.183903
0.178805
-0.0469829
-0.187315
0.175987
-0.0296426
-0.178779
0.161439
-0.00878931
-0.156603
0.13575
0.0128345
-0.122925
0.101301
0.0326788
-0.0802703
0.060426
0.0499142
-0.0285221
0.0112867
0.0657107
0.0334773
-0.0492738
0.080949
0.100938
-0.116176
0.0946422
0.159193
-0.172886
0.105131
0.19525
-0.205739
0.111303
0.208876
-0.215048
0.114578
0.205169
-0.208444
0.115171
0.192996
-0.193589
0.114167
0.178396
-0.177392
0.115027
0.159252
-0.160112
0.11533
0.137573
-0.137875
0.109636
0.124013
-0.118319
0.101223
0.115921
-0.107508
0.0994768
0.0995602
-0.0978141
0.108189
0.0666529
-0.0753648
0.1229
0.0258967
-0.0406075
0.13756
-0.0129819
-0.00167806
0.148923
-0.0425184
0.0311553
0.156342
-0.0636741
0.0562548
0.160541
-0.0769013
0.0727018
0.162559
-0.0865744
0.0845565
0.16332
-0.0925496
0.0917893
0.163461
-0.0981034
0.0979618
0.163367
-0.100788
0.100882
0.163249
-0.103376
0.103494
0.163196
-0.102304
0.102356
0.163282
-0.101422
0.101337
0.16354
-0.0963636
0.0961055
0.164036
-0.0924266
0.0919301
0.164772
-0.0843691
0.0836335
0.165768
-0.0793572
0.0783612
0.166913
-0.070367
0.0692215
0.168114
-0.0666739
0.0654735
0.169203
-0.0591414
0.0580527
0.170112
-0.0588668
0.0579575
0.170786
-0.0532623
0.0525878
0.171144
-0.0548348
0.0544773
0.17125
-0.0495496
0.0494429
0.171012
-0.0513434
0.0515818
-0.0466257
0.0470033
-0.0131784
0.0273424
-0.0137203
0.021339
-0.0145418
0.0139263
-0.0159266
0.00471309
-0.0176397
-0.00671641
-0.0196805
-0.0201425
-0.0221762
-0.03546
-0.024957
-0.0529829
-0.0278872
-0.0723419
-0.0311564
-0.0925799
-0.0351889
-0.112651
-0.0405081
-0.131607
-0.0471479
-0.149188
-0.0540993
-0.165288
-0.0586945
-0.179308
-0.057415
-0.188595
-0.0480334
-0.188161
-0.0313895
-0.173247
-0.0112902
-0.143024
0.0091761
-0.100737
0.0289586
-0.0483046
0.0480374
0.0143985
0.0665672
0.0824078
0.0837092
0.142051
0.0969891
0.18197
0.106052
0.199813
0.111236
0.199985
0.112455
0.191778
0.112993
0.177857
0.114217
0.158028
0.110832
0.140958
0.101685
0.13316
0.0953767
0.12223
0.099656
0.0952809
0.113042
0.0532664
0.129046
0.00989298
0.14282
-0.0267559
0.152642
-0.0523407
0.15865
-0.0696815
0.161801
-0.0800521
0.163127
-0.0879009
0.163467
-0.0928898
0.163375
-0.0980113
0.163171
-0.100583
0.163028
-0.103234
0.163013
-0.102288
0.163175
-0.101584
0.163525
-0.0967135
0.164101
-0.0930028
0.164896
-0.0851639
0.165932
-0.0803938
0.167127
-0.0715611
0.16838
-0.0679278
0.169536
-0.060297
0.170499
-0.0598297
0.171233
-0.0539968
0.171664
-0.0552652
0.17185
-0.0497355
0.171726
-0.0512202
-0.0462967
0.0152451
0.0268635
0.0148902
0.021694
0.0140383
0.0147781
0.012534
0.00621746
0.0104065
-0.004589
0.00797655
-0.0177125
0.00515379
-0.0326372
0.00215864
-0.0499877
-0.000943392
-0.0692398
-0.00403411
-0.0894892
-0.0075377
-0.109148
-0.0123718
-0.126773
-0.0199858
-0.141574
-0.0309357
-0.154338
-0.0436387
-0.166605
-0.0537095
-0.178524
-0.0561437
-0.185727
-0.048301
-0.18109
-0.0320412
-0.159284
-0.0123972
-0.120381
0.00816051
-0.0688623
0.0300609
-0.00750188
0.0519938
0.0604748
0.0722426
0.121802
0.0888453
0.165367
0.100758
0.1879
0.107179
0.193564
0.109739
0.189217
0.111965
0.175632
0.11138
0.158612
0.10374
0.148599
0.0941158
0.142783
0.0927711
0.123575
0.10278
0.0852718
0.118837
0.0372093
0.134664
-0.00593352
0.14708
-0.0391725
0.155395
-0.0606557
0.160172
-0.0744582
0.162446
-0.0823262
0.163199
-0.0886541
0.163188
-0.0928785
0.162897
-0.0977205
0.1626
-0.100286
0.16244
-0.103074
0.162464
-0.102312
0.162704
-0.101824
0.163154
-0.0971634
0.16383
-0.0936789
0.16471
-0.0860439
0.165805
-0.0814881
0.167047
-0.0728034
0.168345
-0.0692256
0.169558
-0.0615103
0.170581
-0.0608523
0.171386
-0.0548024
0.171914
-0.0557933
0.172205
-0.0500263
0.172236
-0.0512509
-0.0460717
0.0421131
0.0262534
0.0421223
0.0216847
0.0413663
0.0155342
0.0398468
0.00773694
0.0374816
-0.00222375
0.034719
-0.0149499
0.0314942
-0.0294124
0.0281081
-0.0466016
0.0248927
-0.0660245
0.0219964
-0.0865929
0.0192653
-0.106417
0.0157865
-0.123294
0.00984531
-0.135632
-0.000450357
-0.144043
-0.015572
-0.151483
-0.0336452
-0.160451
-0.0488569
-0.170515
-0.0542524
-0.175694
-0.0470327
-0.166504
-0.0303926
-0.137021
-0.0099418
-0.0893131
0.0129218
-0.0303654
0.0372381
0.0361585
0.0602529
0.0987875
0.0799084
0.145712
0.0939822
0.173826
0.102088
0.185458
0.107139
0.184166
0.109826
0.172944
0.105759
0.162679
0.09558
0.158778
0.0888926
0.149471
0.0935409
0.118926
0.107638
0.0711747
0.124581
0.0202668
0.139436
-0.0207894
0.150371
-0.0501069
0.157308
-0.0675929
0.161019
-0.0781696
0.162548
-0.0838552
0.162814
-0.0889197
0.1625
-0.0925644
0.162035
-0.0972554
0.161657
-0.0999083
0.161488
-0.102905
0.161556
-0.102381
0.161877
-0.102145
0.162432
-0.0977179
0.163219
-0.0944664
0.164205
-0.0870295
0.165381
-0.0826648
0.166691
-0.0741132
0.168047
-0.0705816
0.169329
-0.0627916
0.170427
-0.0619507
0.171319
-0.055694
0.171964
-0.0564383
0.172377
-0.05044
0.172583
-0.051457
-0.0459905
0.0672225
0.0254944
0.0677109
0.0211964
0.0674955
0.0157496
0.0664783
0.00875412
0.0645024
-0.0002478
0.0622087
-0.0126563
0.0593878
-0.0265914
0.0562526
-0.0434664
0.0530483
-0.0628202
0.0498462
-0.0833907
0.046598
-0.103169
0.0429993
-0.119695
0.0383014
-0.130934
0.0306876
-0.136429
0.0172887
-0.138084
-0.00267911
-0.140483
-0.025404
-0.14779
-0.044453
-0.156645
-0.0512624
-0.159694
-0.0433183
-0.144965
-0.0249868
-0.107645
-0.00256729
-0.0527849
0.0237008
0.0098904
0.0485086
0.0739797
0.0701787
0.124042
0.0863072
0.157698
0.0971663
0.174599
0.104302
0.177031
0.105333
0.171913
0.0979843
0.170028
0.0884433
0.168319
0.0869876
0.150927
0.0968729
0.109041
0.113158
0.0548896
0.129777
0.00364741
0.143322
-0.0343339
0.152791
-0.0595764
0.158476
-0.0732778
0.161252
-0.0809455
0.162138
-0.084741
0.161984
-0.0887659
0.161408
-0.091988
0.16079
-0.0966382
0.160344
-0.0994622
0.160173
-0.102733
0.160292
-0.102501
0.160701
-0.102554
0.161367
-0.0983841
0.162276
-0.0953748
0.163382
-0.088136
0.164664
-0.0839463
0.166066
-0.0755151
0.167505
-0.0720207
0.168876
-0.0641626
0.170074
-0.0631494
0.171074
-0.0566938
0.171857
-0.0572206
0.172412
-0.0509956
0.172808
-0.051853
-0.0460831
0.0902221
0.0238745
0.0914589
0.0199595
0.0920965
0.0151121
0.0920359
0.00881474
0.0911882
0.000599826
0.0898235
-0.0112916
0.0878536
-0.0246215
0.0853362
-0.040949
0.0823325
-0.0598165
0.0789158
-0.0799741
0.0750622
-0.0993149
0.0705974
-0.115231
0.0652393
-0.125576
0.0583717
-0.129561
0.0483928
-0.128105
0.0323254
-0.124415
0.00812111
-0.123586
-0.0184274
-0.130097
-0.0395896
-0.138532
-0.0461866
-0.138368
-0.0362002
-0.117631
-0.0153538
-0.0736313
0.010734
-0.0161974
0.0375842
0.0471295
0.0610249
0.100601
0.0795528
0.13917
0.0927575
0.161395
0.0998028
0.169986
0.098175
0.173541
0.0898491
0.178354
0.0840167
0.174151
0.088281
0.146662
0.101728
0.0955937
0.118729
0.0378894
0.134272
-0.0118961
0.146379
-0.046441
0.154421
-0.0676184
0.158953
-0.0778093
0.1609
-0.0828924
0.16123
-0.0850717
0.160719
-0.0882542
0.159918
-0.0911876
0.159171
-0.0958908
0.158669
-0.0989603
0.158503
-0.102566
0.158681
-0.102679
0.159185
-0.103058
0.159972
-0.0991715
0.161013
-0.0964153
0.162254
-0.0893775
0.16366
-0.0853524
0.165178
-0.0770325
0.166726
-0.0735694
0.168213
-0.0656495
0.16954
-0.0644762
0.170675
-0.0578286
0.171618
-0.058164
0.172338
-0.0517156
0.172938
-0.0524533
-0.0463751
0.110027
0.0214821
0.112073
0.0179139
0.113613
0.0135713
0.114593
0.00783547
0.114957
0.000236054
0.114588
-0.0109232
0.113491
-0.0235249
0.111627
-0.0390845
0.108888
-0.0570777
0.105263
-0.0763488
0.100789
-0.094841
0.0954827
-0.109924
0.0892966
-0.11939
0.0821153
-0.12238
0.0735531
-0.119543
0.0618939
-0.112756
0.0439782
-0.10567
0.0174635
-0.103582
-0.0117643
-0.109304
-0.0331114
-0.117021
-0.0381563
-0.112586
-0.0255658
-0.0862218
-0.00279793
-0.0389652
0.0255266
0.0188049
0.051023
0.0751047
0.0719491
0.118244
0.0862875
0.147056
0.0920976
0.164176
0.089308
0.17633
0.0832914
0.184371
0.0829489
0.174494
0.0920236
0.137588
0.10733
0.0802874
0.123975
0.0212445
0.138148
-0.0260692
0.148652
-0.0569455
0.155288
-0.0742543
0.158752
-0.0812729
0.15997
-0.0841103
0.159831
-0.0849326
0.159023
-0.0874467
0.158038
-0.0902029
0.157185
-0.0950372
0.156641
-0.0984165
0.156489
-0.102415
0.156733
-0.102922
0.157341
-0.103666
0.158259
-0.10009
0.159444
-0.0976004
0.160836
-0.0907689
0.162386
-0.0869021
0.164041
-0.0786875
0.165724
-0.0752529
0.167352
-0.0672777
0.168835
-0.0659584
0.170132
-0.0591263
0.171261
-0.0592931
0.172171
-0.0526252
0.172992
-0.0532746
-0.0468907
0.129917
0.0190712
0.132244
0.0155877
0.134211
0.0116042
0.135759
0.00628738
0.13707
-0.00107491
0.137286
-0.0111392
0.136768
-0.0230076
0.135204
-0.0375204
0.132357
-0.0542299
0.128067
-0.0720593
0.122346
-0.0891197
0.11543
-0.103009
0.107755
-0.111715
0.099776
-0.114401
0.0917029
-0.11147
0.0829535
-0.104007
0.0712805
-0.0939974
0.0528328
-0.0851342
0.0258273
-0.0822989
-0.00420363
-0.0869898
-0.0240517
-0.0927382
-0.0266895
-0.083584
-0.0126677
-0.052987
0.0115592
-0.00542199
0.0379469
0.0487171
0.0605971
0.0955936
0.076042
0.131611
0.0820937
0.158124
0.0812258
0.177198
0.0800815
0.185515
0.0852048
0.16937
0.0974602
0.125332
0.113272
0.0644755
0.128825
0.00569171
0.141324
-0.0385687
0.150129
-0.0657504
0.155384
-0.0795093
0.157871
-0.0837592
0.158464
-0.0847033
0.157943
-0.0844123
0.156904
-0.0864074
0.155777
-0.0890757
0.154843
-0.0941032
0.154273
-0.0978462
0.154145
-0.102287
0.154462
-0.103239
0.155182
-0.104386
0.156243
-0.101151
0.157585
-0.0989432
0.159142
-0.0923257
0.160855
-0.0886144
0.162669
-0.0805021
0.164512
-0.0770956
0.166306
-0.0690721
0.167969
-0.0676216
0.169457
-0.0606142
0.170797
-0.0606325
0.171922
-0.0537508
0.172983
-0.0543355
-0.0476534
0.15442
0.0178025
0.15594
0.0140675
0.157234
0.0103108
0.15828
0.00524129
0.159107
-0.00190177
0.159059
-0.0110911
0.158158
-0.0221073
0.156001
-0.0353631
0.15224
-0.050469
0.146637
-0.0664568
0.139203
-0.0816852
0.130293
-0.0940987
0.120604
-0.102026
0.11103
-0.104827
0.102385
-0.102825
0.0949519
-0.0965735
0.087732
-0.0867775
0.0776313
-0.0750335
0.0603398
-0.0650074
0.0346912
-0.0613412
0.00593879
-0.0639858
-0.0117915
-0.0658537
-0.0123342
-0.0524443
0.00169204
-0.0194482
0.0249006
0.0255086
0.0472799
0.0732142
0.0638964
0.114995
0.0725973
0.149423
0.0760245
0.173771
0.0804546
0.181085
0.0899252
0.1599
0.103873
0.111384
0.119297
0.0490516
0.133066
-0.00807653
0.143707
-0.0492099
0.150754
-0.0727978
0.154683
-0.0834385
0.156301
-0.0853768
0.156382
-0.0847839
0.155573
-0.0836033
0.154369
-0.0852034
0.153143
-0.0878501
0.152156
-0.0931164
0.151576
-0.0972657
0.151483
-0.102195
0.151881
-0.103637
0.152722
-0.105227
0.153935
-0.102364
0.155449
-0.100457
0.157188
-0.0940641
0.159082
-0.0905088
0.161078
-0.0824982
0.163103
-0.079121
0.165088
-0.0710568
0.166956
-0.0694895
0.16866
-0.0623182
0.170233
-0.0622055
0.171601
-0.0551182
0.172921
-0.0556556
-0.0486868
0.182359
0.0182196
0.182223
0.0142034
0.181858
0.0106758
0.181378
0.00572195
0.180556
-0.00108026
0.178998
-0.00953267
0.176505
-0.0196143
0.172685
-0.031544
0.167127
-0.0449101
0.159579
-0.0589094
0.150126
-0.0722325
0.139302
-0.0832742
0.12801
-0.0907339
0.117257
-0.094074
0.107838
-0.0934056
0.100339
-0.0890749
0.0948564
-0.0812949
0.0900791
-0.0702562
0.082336
-0.0572644
0.0671995
-0.0462046
0.0439482
-0.0407345
0.0190409
-0.0409464
0.00380401
-0.0372074
0.00491654
-0.0205608
0.0188099
0.0116152
0.0378078
0.0542163
0.054982
0.0978208
0.0671984
0.137207
0.0757389
0.16523
0.0849453
0.171879
0.096901
0.147944
0.110971
0.0973137
0.125104
0.0349189
0.136793
-0.0197655
0.145231
-0.0576486
0.150471
-0.0780373
0.153153
-0.0861204
0.154028
-0.0862516
0.153718
-0.0844746
0.152719
-0.0826041
0.151422
-0.0839061
0.150146
-0.0865738
0.149136
-0.0921067
0.148563
-0.096693
0.148517
-0.102149
0.149004
-0.104124
0.149974
-0.106197
0.151351
-0.10374
0.153049
-0.102156
0.154985
-0.0960003
0.157081
-0.0926043
0.15928
-0.0846978
0.161512
-0.0813523
0.163711
-0.0732558
0.165806
-0.0715853
0.167751
-0.0642632
0.169581
-0.0640348
0.171215
-0.0567528
0.172815
-0.0572554
-0.050014
0.204041
0.0189899
0.202623
0.015621
0.200762
0.0125369
0.198566
0.0079179
0.195721
0.00176525
0.192282
-0.00609451
0.187645
-0.0149767
0.181624
-0.0255237
0.173921
-0.0372064
0.164417
-0.0494053
0.153324
-0.0611398
0.141284
-0.0712343
0.129242
-0.0786921
0.118161
-0.0829928
0.108631
-0.0838752
0.101053
-0.0814968
0.0959711
-0.0762133
0.0932678
-0.0675529
0.0914138
-0.0554103
0.0868759
-0.0416667
0.0755052
-0.0293639
0.0564175
-0.0218587
0.0364716
-0.0172614
0.0249022
-0.00899142
0.0261679
0.0103496
0.0377938
0.0425904
0.0533016
0.082313
0.0679088
0.122599
0.0801773
0.152962
0.0916761
0.16038
0.104389
0.135231
0.11798
0.083723
0.130296
0.0226028
0.139553
-0.029023
0.145674
-0.0637693
0.149163
-0.0815263
0.150749
-0.0877062
0.151045
-0.0865475
0.150485
-0.0839147
0.149402
-0.0815209
0.148087
-0.0825911
0.14681
-0.0852974
0.14581
-0.0911066
0.145264
-0.096147
0.145275
-0.10216
0.14586
-0.104708
0.146966
-0.107303
0.148514
-0.105288
0.150407
-0.104049
0.152555
-0.0981479
0.154868
-0.0949176
0.157291
-0.0871208
0.15975
-0.083811
0.162186
-0.0756918
0.164531
-0.0739309
0.166741
-0.066473
0.168848
-0.0661421
0.170774
-0.0586789
0.172674
-0.059155
-0.051658
0.208677
0.0193079
0.207151
0.0171463
0.205243
0.0144452
0.202727
0.0104343
0.199529
0.0049627
0.19521
-0.00177572
0.189698
-0.00946484
0.182698
-0.0185228
0.174075
-0.0285838
0.163851
-0.0391809
0.15236
-0.0496496
0.140297
-0.0591714
0.12855
-0.0669446
0.117941
-0.0723835
0.109062
-0.0749971
0.102145
-0.0745789
0.0970723
-0.0711411
0.0939676
-0.0644483
0.093037
-0.0544797
0.09284
-0.0414697
0.0900551
-0.026579
0.0815225
-0.0133261
0.0676451
-0.00338402
0.0537285
0.00492513
0.0468972
0.0171809
0.0499444
0.0395431
0.0604517
0.0718056
0.0739745
0.109077
0.0872884
0.139648
0.100323
0.147345
0.113679
0.121875
0.12607
0.0713323
0.135874
0.0127982
0.142017
-0.0351656
0.145547
-0.0672999
0.147281
-0.0832599
0.147847
-0.0882727
0.147639
-0.0863389
0.146885
-0.0831611
0.145759
-0.0803946
0.144458
-0.0812906
0.143206
-0.0840447
0.142234
-0.0901347
0.141727
-0.0956401
0.141804
-0.102237
0.142491
-0.105395
0.143738
-0.108551
0.145461
-0.107011
0.147556
-0.106143
0.149924
-0.100516
0.152468
-0.0974615
0.15513
-0.0897827
0.157834
-0.0865151
0.160527
-0.0783845
0.163142
-0.076546
0.165638
-0.0689692
0.168044
-0.0685479
0.170285
-0.0609197
0.172505
-0.0613749
-0.0536411
0.21282
0.0189739
-0.212486
0.214003
0.0159633
0.215207
0.0132413
0.216315
0.00932709
0.216863
0.00441465
0.216742
-0.00165492
0.216079
-0.00880185
0.21431
-0.0167535
0.211211
-0.0254852
0.206647
-0.0346166
0.2006
-0.0436028
0.193248
-0.0518191
0.184937
-0.0586344
0.176039
-0.0634855
0.166946
-0.065904
0.15796
-0.0655928
0.149256
-0.0624368
0.141105
-0.0562974
0.133914
-0.0472888
0.127758
-0.0353134
0.121487
-0.020308
0.112457
-0.00429631
0.098724
0.0103489
0.0816324
0.0220167
0.0656718
0.0331416
0.0556453
0.0495696
0.0532735
0.0741774
0.0582099
0.10414
0.0707279
0.12713
0.0907876
0.127286
0.115314
0.0973488
0.138551
0.0480955
0.155774
-0.00442536
0.16653
-0.0459216
0.17136
-0.0721301
0.171999
-0.0838982
0.170156
-0.0864302
0.167192
-0.0833749
0.16394
-0.0799092
0.160832
-0.0772864
0.15804
-0.0784988
0.155637
-0.0816414
0.15364
-0.0881375
0.152066
-0.0940668
0.150907
-0.101078
0.150157
-0.104645
0.149767
-0.108161
0.149709
-0.106954
0.149923
-0.106357
0.150382
-0.100975
0.151017
-0.0980966
0.151808
-0.0905736
0.152686
-0.0873933
0.153616
-0.0793146
0.154522
-0.0774521
0.155356
-0.069803
0.156126
-0.0693174
0.156759
-0.0615532
0.157375
-0.0619909
-0.054049
0.222237
0.0182483
-0.221512
0.222951
0.0152494
0.224103
0.0120888
0.225027
0.00840346
0.225507
0.00393473
0.225319
-0.00146712
0.224258
-0.00774092
0.222223
-0.014718
0.218993
-0.0222555
0.214448
-0.0300715
0.208605
-0.0377597
0.2016
-0.0448139
0.193685
-0.0507194
0.185179
-0.0549795
0.176438
-0.0571631
0.167819
-0.0569745
0.159653
-0.0542699
0.152205
-0.0488495
0.145673
-0.040757
0.140282
-0.0299221
0.136001
-0.016027
0.131274
0.000430265
0.123777
0.0178465
0.112291
0.0335025
0.0989347
0.0464976
0.0884018
0.0601026
0.0846153
0.0779638
0.0892914
0.0994642
0.102666
0.113756
0.122855
0.107096
0.145348
0.0748561
0.165159
0.0282846
0.179039
-0.0183054
0.186193
-0.0530761
0.187831
-0.0737678
0.185961
-0.0820283
0.182426
-0.082895
0.178439
-0.079388
0.174595
-0.0760658
0.171126
-0.0738172
0.168082
-0.0754543
0.165475
-0.0790351
0.163303
-0.0859649
0.161578
-0.092342
0.160292