/*--------------------------------*- C++ -*----------------------------------*\
| =========                 |                                                 |
| \\      /  F ield         | OpenFOAM: The Open Source CFD Toolbox           |
|  \\    /   O peration     | Version:  2312                                  |
|   \\  /    A nd           | Website:  www.openfoam.com                      |
|    \\/     M anipulation  |                                                 |
\*---------------------------------------------------------------------------*/
FoamFile
{
    version     2.0;
    format      ascii;
    arch        "LSB;label=32;scalar=64";
    class       volVectorField;
    location    "22";
    object      U;
}
// * * * * * * * * * * * * * * * * * * * * * * * * * * * * * * * * * * * * * //

dimensions      [0 1 -1 0 0 0 0];

internalField   nonuniform List<vector> 
5478
(
(-0.0177954 0.0123141 -5.53861e-20)
(-0.0340759 0.0286925 0)
(-0.0240369 0.0386834 8.34397e-20)
(0.0163643 0.0440283 -1.46032e-19)
(0.0913382 0.0480452 9.57063e-20)
(0.202807 0.0550053 -2.78871e-20)
(0.346082 0.0678699 -4.97507e-20)
(0.510078 0.0869565 0)
(0.679806 0.110124 0)
(0.846693 0.135936 7.40079e-20)
(0.990333 0.156281 -3.09278e-20)
(1.12149 0.179698 -5.96424e-20)
(1.21219 0.180341 -2.5544e-20)
(1.27997 0.196302 0)
(1.33025 0.164666 8.25432e-20)
(-0.0237771 0.0123134 1.10899e-19)
(-0.0323077 0.0191849 0)
(0.00128701 0.0206727 0)
(0.0858408 0.024444 -7.26571e-20)
(0.224914 0.0365346 9.58759e-20)
(0.406791 0.0597547 2.78602e-20)
(0.607643 0.0922524 -4.88385e-20)
(0.802183 0.128423 4.33e-20)
(0.974066 0.16385 1.14841e-19)
(1.10782 0.190412 -1.01925e-19)
(1.20606 0.210453 2.55218e-21)
(1.26245 0.213766 0)
(1.28551 0.211773 2.54952e-20)
(1.28777 0.195842 0)
(1.26498 0.176519 0)
(-0.0275798 0.0123422 -3.26054e-22)
(-0.0151558 0.0134949 -5.14272e-20)
(0.0671867 0.0143153 1.67982e-22)
(0.226447 0.0279959 0)
(0.444768 0.0596951 -3.21259e-20)
(0.679625 0.103781 2.75587e-20)
(0.891182 0.150002 2.37202e-20)
(1.05704 0.189725 0)
(1.16766 0.215995 -3.75423e-20)
(1.22922 0.228875 3.32083e-20)
(1.25009 0.226316 2.93353e-20)
(1.24486 0.216879 0)
(1.23088 0.19829 0)
(1.21498 0.185898 -7.30908e-20)
(1.20418 0.166056 6.50408e-20)
(-0.0249945 0.00995172 -5.99387e-20)
(0.0273308 0.00729664 5.06582e-20)
(0.186958 0.0184895 -4.36115e-20)
(0.436347 0.0565682 3.82425e-20)
(0.707792 0.112103 6.4459e-20)
(0.937562 0.167175 -5.48645e-20)
(1.0972 0.20911 -2.37002e-20)
(1.18588 0.23214 1.9915e-20)
(1.22078 0.238688 -1.83908e-20)
(1.22316 0.231821 0)
(1.21374 0.221623 0)
(1.20705 0.207192 -4.35314e-20)
(1.20693 0.199522 5.82994e-20)
(1.20843 0.187794 -3.34737e-20)
(1.21991 0.180016 0)
(-0.0125816 0.0051488 3.03485e-20)
(0.106435 0.00288509 2.53298e-20)
(0.366963 0.0412429 -9.12448e-20)
(0.680973 0.110235 1.23805e-21)
(0.940907 0.177284 -6.98836e-22)
(1.10572 0.223478 -6.55148e-22)
(1.18475 0.245174 2.23813e-20)
(1.20899 0.248755 1.96406e-20)
(1.20893 0.241984 1.49608e-20)
(1.20495 0.233456 -1.28658e-21)
(1.20414 0.223627 -3.50717e-20)
(1.20454 0.215389 0)
(1.20059 0.205094 1.80274e-20)
(1.19647 0.192095 -1.47771e-20)
(1.1809 0.181082 2.52485e-20)
(0.0142104 -0.000345424 -6.57041e-20)
(0.231128 0.0106451 7.08215e-20)
(0.584475 0.0904218 -2.42757e-20)
(0.897331 0.1773 1.83652e-20)
(1.08999 0.234616 -3.38316e-20)
(1.17738 0.259845 -2.58112e-20)
(1.2038 0.264184 4.57895e-22)
(1.206 0.258718 0)
(1.20257 0.250676 2.92751e-20)
(1.19759 0.240547 -2.60335e-20)
(1.19021 0.229829 1.11293e-20)
(1.18031 0.216658 0)
(1.17261 0.204453 6.97626e-21)
(1.16416 0.190535 -1.35855e-20)
(1.16375 0.182919 0)
(0.0605742 -0.00229146 -8.14765e-21)
(0.396374 0.0443925 8.39778e-22)
(0.787671 0.158779 1.17374e-20)
(1.0441 0.240982 2.00019e-20)
(1.16291 0.27796 -1.54378e-20)
(1.20078 0.286252 2.60323e-20)
(1.2043 0.281411 -5.95847e-21)
(1.19669 0.271696 0)
(1.18593 0.259303 -1.65182e-20)
(1.17525 0.246276 8.79973e-22)
(1.16681 0.232701 1.40531e-20)
(1.16218 0.220531 0)
(1.15794 0.208456 -9.94549e-21)
(1.15588 0.195948 0)
(1.14864 0.188006 6.77316e-21)
(0.128389 0.00601861 -9.20836e-21)
(0.571757 0.107264 0)
(0.940467 0.232511 1.259e-20)
(1.12744 0.297029 0)
(1.19178 0.315014 0)
(1.1999 0.310817 0)
(1.18939 0.298572 -5.01942e-21)
(1.17605 0.283708 0)
(1.16508 0.268796 3.2524e-21)
(1.15692 0.254008 0)
(1.15007 0.239859 -4.33778e-21)
(1.14234 0.225113 0)
(1.13527 0.210297 2.96504e-21)
(1.12701 0.195912 0)
(1.12117 0.184784 2.06331e-21)
(-0.0153226 -0.02978 -6.14856e-21)
(-0.062575 -0.0545952 0)
(-0.129413 -0.0652363 1.01167e-20)
(-0.192094 -0.0712018 0)
(-0.249785 -0.0755976 0)
(-0.303675 -0.0785303 0)
(-0.353697 -0.0797583 -7.46349e-21)
(-0.399978 -0.0792223 0)
(-0.442602 -0.0769774 6.56169e-21)
(-0.481618 -0.0731753 0)
(-0.517011 -0.0680443 -1.15021e-20)
(-0.548746 -0.0618305 0)
(-0.577062 -0.0548419 9.97661e-21)
(-0.602655 -0.0473992 0)
(-0.62581 -0.0401322 8.63231e-21)
(-0.0160193 0.0115144 3.08429e-20)
(-0.0591011 0.0145426 -2.22998e-20)
(-0.118795 0.00963003 1.02399e-20)
(-0.174614 0.00295531 3.73973e-20)
(-0.225489 -0.00337657 8.17342e-22)
(-0.272394 -0.00852908 -3.16806e-20)
(-0.315261 -0.0122337 2.184e-20)
(-0.354172 -0.0144444 0)
(-0.389171 -0.0152009 2.0019e-20)
(-0.420283 -0.0146312 1.2019e-21)
(-0.447283 -0.0129381 -1.06224e-20)
(-0.469764 -0.0104183 0)
(-0.487501 -0.00758252 -2.9425e-20)
(-0.501573 -0.00453148 0)
(-0.513402 -0.00182793 -4.31115e-20)
(-0.0185048 0.0419334 5.06503e-20)
(-0.0538972 0.0703943 1.18101e-20)
(-0.0984731 0.0738466 -2.03084e-20)
(-0.139054 0.0684403 -5.6586e-20)
(-0.174229 0.0611528 3.35936e-20)
(-0.204329 0.0544994 3.25315e-20)
(-0.229136 0.049123 -5.83414e-20)
(-0.248614 0.0451366 0)
(-0.262747 0.042536 -5.25314e-20)
(-0.271494 0.0412136 4.67094e-20)
(-0.274784 0.0409559 2.21121e-20)
(-0.272872 0.041899 0)
(-0.263307 0.0410383 1.94345e-20)
(-0.249951 0.0431664 -3.55773e-20)
(-0.225919 0.0383596 0)
(-0.0207026 0.0558782 2.65046e-20)
(-0.0479246 0.104367 -7.02256e-20)
(-0.0744237 0.119651 8.38524e-20)
(-0.0959556 0.118975 -7.53612e-20)
(-0.11163 0.112485 -3.46344e-20)
(-0.121274 0.105068 3.17739e-20)
(-0.124539 0.0984359 2.95012e-20)
(-0.121334 0.0930061 2.70734e-20)
(-0.111749 0.0888129 -7.6948e-20)
(-0.0961796 0.0860172 -2.02336e-21)
(-0.0719591 0.0837557 2.07724e-20)
(-0.0486247 0.0833714 0)
(-0.00572586 0.0807088 3.70247e-20)
(0.0228276 0.0835442 1.06999e-19)
(0.0952463 0.0842801 -6.38516e-20)
(-0.0207747 0.0539605 3.87708e-22)
(-0.0416877 0.113008 4.79557e-20)
(-0.0521406 0.140878 -4.2461e-20)
(-0.0550229 0.148341 3.80035e-20)
(-0.0508685 0.14536 6.89446e-20)
(-0.0398329 0.138571 -6.29958e-20)
(-0.0218393 0.131264 -2.85841e-20)
(0.00298686 0.12471 -8.16847e-20)
(0.0357893 0.119175 7.35676e-20)
(0.0703067 0.114946 0)
(0.125695 0.111186 0)
(0.15731 0.107437 8.02048e-20)
(0.248672 0.110012 -1.82943e-19)
(0.265794 0.0988926 6.64198e-20)
(0.406236 0.113818 0)
(-0.0183213 0.0417992 1.2807e-22)
(-0.0355787 0.0993327 -4.79429e-20)
(-0.0356665 0.134729 1.27698e-19)
(-0.0243576 0.150073 -3.76649e-20)
(-0.00361535 0.152286 -3.4335e-20)
(0.0254166 0.147789 3.12449e-20)
(0.0621907 0.140743 2.85952e-20)
(0.104921 0.132992 5.23761e-20)
(0.160709 0.127286 -9.24761e-20)
(0.206007 0.119963 4.24759e-20)
(0.301865 0.119799 3.9021e-20)
(0.32917 0.111719 0)
(0.487663 0.118405 0)
(0.484423 0.10547 1.30861e-19)
(0.698065 0.117377 -1.16482e-19)
(-0.0151029 0.0271572 -4.539e-23)
(-0.0311493 0.0730944 0)
(-0.0273893 0.106393 0)
(-0.00841924 0.123632 7.48033e-20)
(0.0232806 0.128491 -3.33628e-20)
(0.0660585 0.126012 2.91125e-20)
(0.119721 0.120698 5.42861e-20)
(0.182806 0.114738 -4.814e-20)
(0.265631 0.112178 4.60165e-20)
(0.340418 0.108818 -4.25207e-20)
(0.473009 0.112162 -2.30396e-21)
(0.531977 0.109771 0)
(0.730424 0.119452 3.11608e-20)
(0.749229 0.112345 0)
(0.999509 0.128987 0)
(-0.0142628 0.0164965 -5.5063e-20)
(-0.0309549 0.0467833 0)
(-0.0268128 0.0695538 -8.379e-20)
(-0.00293458 0.0817084 1.47084e-19)
(0.040207 0.0856528 -1.62003e-19)
(0.103478 0.0856359 -2.9632e-20)
(0.188254 0.0858193 5.09916e-20)
(0.293975 0.0888146 0)
(0.418847 0.0945806 0)
(0.55356 0.106199 -7.88716e-20)
(0.70245 0.115087 -3.89077e-20)
(0.830509 0.131935 6.44118e-20)
(0.993041 0.13925 -3.12096e-20)
(1.06801 0.149015 0)
(1.25029 0.15636 -1.01738e-19)
(-0.654574 -0.0306068 0)
(-0.678683 -0.0264975 4.06167e-21)
(-0.669416 -0.0139904 -3.75551e-21)
(-0.644372 -0.00755492 0)
(-0.578013 0.0109112 0)
(-0.500462 0.00813532 -1.18404e-22)
(-0.35332 0.012575 0)
(-0.187339 0.0243889 0)
(0.0280206 0.0394918 -1.9126e-23)
(0.221688 0.0476383 0)
(0.399152 0.0586936 0)
(0.531789 0.0547597 7.00121e-23)
(0.64377 0.0633449 0)
(0.71472 0.050025 4.43943e-23)
(0.781786 0.0634699 3.44237e-23)
(0.817892 0.0452065 0)
(0.860658 0.0642829 1.50901e-22)
(0.880629 0.0440023 -1.76946e-22)
(0.905009 0.0601201 0)
(0.919033 0.0502467 -7.55666e-23)
(0.930687 0.0492763 8.60157e-23)
(0.94511 0.0615522 -1.56145e-23)
(0.952058 0.0394636 2.0454e-23)
(0.963777 0.0593937 -1.95443e-23)
(0.971655 0.0478624 1.49287e-23)
(0.975332 0.038471 0)
(0.983968 0.060423 9.56024e-24)
(0.98481 0.0421051 -9.1411e-24)
(0.986168 0.036662 7.3925e-24)
(0.992334 0.0686182 0)
(0.990698 0.0439748 1.0453e-23)
(0.990004 0.0363622 0)
(0.995319 0.0696452 9.25011e-24)
(0.996564 0.07215 4.52066e-24)
(0.993387 0.0526158 -6.15867e-25)
(0.992253 0.0236575 5.24684e-24)
(1.00039 0.114517 0)
(1.00135 0.104793 -2.19441e-24)
(-0.531088 0.00127968 1.58514e-20)
(-0.577086 -0.0201424 -1.25157e-22)
(-0.568228 -0.019721 -1.42057e-20)
(-0.558786 -0.0363561 1.35484e-20)
(-0.506148 -0.0332321 0)
(-0.434691 -0.0543373 1.19326e-22)
(-0.31764 -0.0744359 -1.53526e-22)
(-0.164004 -0.0838367 0)
(0.022354 -0.0679601 1.92695e-23)
(0.199893 -0.0433666 0)
(0.357219 -0.0123067 0)
(0.486199 0.00063038 -7.05135e-23)
(0.587272 0.0241459 0)
(0.66208 0.0213347 -1.35936e-21)
(0.725006 0.0422134 1.14928e-21)
(0.768252 0.0289167 -7.93279e-22)
(0.811383 0.0519724 7.57219e-22)
(0.838681 0.0349327 3.30706e-23)
(0.867098 0.0531675 0)
(0.887826 0.0450562 0)
(0.906276 0.0447606 1.66238e-23)
(0.926686 0.057971 -1.15097e-22)
(0.940299 0.0364325 1.80323e-22)
(0.956154 0.0567841 -7.95302e-23)
(0.967378 0.0463629 -4.54091e-23)
(0.97356 0.0370181 0)
(0.98268 0.0594801 -2.06339e-23)
(0.984522 0.041921 0)
(0.98646 0.0359404 -7.41847e-24)
(0.992126 0.0682596 2.32463e-23)
(0.990985 0.044216 -4.33606e-23)
(0.990684 0.0359764 8.57329e-24)
(0.995654 0.0691483 -1.57206e-23)
(0.996815 0.0722827 -4.30359e-25)
(0.994137 0.0529783 -5.52702e-24)
(0.993318 0.0231778 4.60059e-24)
(1.00106 0.113907 6.11225e-25)
(1.00225 0.104786 -6.83965e-25)
(-0.217778 0.0379397 3.37925e-20)
(-0.26819 -0.00378639 -6.45755e-20)
(-0.259666 -0.0223885 1.74462e-21)
(-0.247082 -0.0499956 2.82315e-20)
(-0.209723 -0.0700137 3.62185e-22)
(-0.141745 -0.101938 -2.82671e-22)
(-0.0491569 -0.14422 1.5615e-22)
(0.0829038 -0.168527 -1.4167e-22)
(0.231319 -0.156667 0)
(0.370913 -0.121455 -4.88793e-21)
(0.482515 -0.0719231 4.66218e-21)
(0.583501 -0.0433527 1.39064e-22)
(0.650692 -0.00841198 0)
(0.711718 -0.00307429 2.70164e-21)
(0.748892 0.0244619 -2.50573e-21)
(0.786829 0.0154279 8.19594e-22)
(0.812264 0.0412377 -7.82052e-22)
(0.838157 0.0266162 -5.69727e-22)
(0.858039 0.0458275 4.78306e-22)
(0.878221 0.0391972 0)
(0.896699 0.0389209 0)
(0.917313 0.0531382 -2.0829e-22)
(0.934514 0.0323035 1.98849e-22)
(0.951559 0.0532362 1.39674e-22)
(0.964688 0.0443631 -1.81201e-23)
(0.97258 0.0351929 -1.1042e-22)
(0.981646 0.0583189 -2.12275e-25)
(0.984335 0.041688 3.58677e-23)
(0.98682 0.0351219 -8.6091e-23)
(0.991878 0.067839 7.8193e-23)
(0.991247 0.0444751 -9.86817e-24)
(0.991403 0.0355459 1.96703e-23)
(0.995963 0.0685933 -1.41342e-23)
(0.997 0.0724036 1.35142e-23)
(0.994885 0.0533385 5.01044e-24)
(0.994432 0.0226801 4.35559e-24)
(1.00171 0.113257 -1.41267e-23)
(1.0031 0.104755 -2.48629e-24)
(0.108744 0.0552738 0)
(0.0803213 0.0157577 3.29178e-20)
(0.0765311 -0.022232 -3.23672e-20)
(0.0938917 -0.0617221 0)
(0.123082 -0.0927156 -3.72223e-22)
(0.181714 -0.136992 2.90408e-22)
(0.269979 -0.19505 0)
(0.379399 -0.231276 -5.56613e-23)
(0.488498 -0.222888 -1.29054e-23)
(0.586878 -0.18018 0)
(0.659087 -0.117727 4.65315e-21)
(0.727162 -0.0742777 -4.57911e-21)
(0.765666 -0.0301048 2.2529e-22)
(0.808592 -0.0190046 2.71567e-21)
(0.824279 0.0118379 -2.58957e-21)
(0.850935 0.00528557 -1.14241e-22)
(0.857663 0.0333554 0)
(0.875778 0.0205809 7.00227e-23)
(0.882244 0.0402273 -8.18881e-22)
(0.895319 0.0346309 1.29448e-22)
(0.907522 0.0337036 9.48161e-23)
(0.92222 0.0486341 4.44378e-22)
(0.938069 0.0282299 3.02717e-22)
(0.952394 0.0495428 -3.72373e-22)
(0.964888 0.0423228 3.16021e-23)
(0.973016 0.0332457 0)
(0.981189 0.0570623 2.13343e-23)
(0.984366 0.0414564 -3.63402e-23)
(0.98727 0.034229 8.74261e-23)
(0.991625 0.067364 -7.93278e-23)
(0.991488 0.0447529 2.22374e-23)
(0.992142 0.0350695 0)
(0.996247 0.0679811 1.42774e-23)
(0.997132 0.0725099 -2.72416e-23)
(0.995627 0.053692 -1.13791e-23)
(0.995578 0.0221646 -1.84674e-23)
(1.00235 0.112568 1.41367e-23)
(1.00389 0.104703 -1.80831e-25)
(0.398343 0.0762079 5.05325e-22)
(0.396696 0.0346284 1.05492e-21)
(0.392616 -0.0104919 0)
(0.404917 -0.0645936 0)
(0.429208 -0.111198 0)
(0.47436 -0.167147 0)
(0.553598 -0.235372 1.11745e-20)
(0.642418 -0.280374 -1.54586e-20)
(0.709125 -0.271285 4.42028e-21)
(0.756503 -0.220594 0)
(0.788775 -0.150942 3.99292e-21)
(0.823651 -0.0993883 -3.90656e-21)
(0.844178 -0.0466627 -3.59423e-21)
(0.87223 -0.0290669 3.02474e-21)
(0.881194 0.00623851 -2.18462e-21)
(0.900965 0.00172672 2.19942e-21)
(0.902718 0.0312263 9.20616e-23)
(0.915658 0.0191205 1.06956e-21)
(0.915661 0.0384566 -1.01912e-21)
(0.92242 0.0330832 -9.15828e-23)
(0.928305 0.0307513 -7.3692e-23)
(0.935897 0.0457686 -3.83127e-22)
(0.947713 0.0252078 4.21394e-22)
(0.957392 0.0464145 7.96349e-23)
(0.967454 0.0406503 3.29581e-23)
(0.974666 0.031404 2.70202e-23)
(0.98131 0.0558211 0)
(0.984618 0.0412704 0)
(0.987801 0.0332868 0)
(0.991393 0.0668444 0)
(0.991713 0.0450498 -6.53464e-23)
(0.992877 0.0345536 4.08003e-23)
(0.99651 0.0673222 -2.89369e-23)
(0.997229 0.0726021 9.12807e-23)
(0.996356 0.0540345 -1.1549e-23)
(0.99673 0.0216341 -4.11121e-24)
(1.00297 0.111845 1.64589e-23)
(1.00463 0.104634 6.09293e-24)
(0.668594 0.0901881 -5.31653e-22)
(0.669855 0.0514813 6.83981e-20)
(0.666985 0.0061001 -6.56553e-20)
(0.67724 -0.0479129 -6.00568e-20)
(0.699191 -0.103939 5.71876e-20)
(0.738205 -0.16637 4.10683e-20)
(0.811159 -0.250221 -3.82478e-20)
(0.872701 -0.303157 3.27637e-22)
(0.888155 -0.293923 -7.12528e-23)
(0.880931 -0.244031 0)
(0.87086 -0.171879 1.11853e-22)
(0.87511 -0.117452 -7.06132e-21)
(0.88044 -0.0622503 6.72239e-21)
(0.895983 -0.0414425 1.85703e-22)
(0.902847 -0.00450079 0)
(0.917771 -0.00621659 1.86355e-21)
(0.921567 0.0255838 -3.15177e-21)
(0.933822 0.0159674 1.25141e-21)
(0.935455 0.0362292 0)
(0.941155 0.0322976 -6.09074e-22)
(0.94522 0.029104 1.77483e-22)
(0.948987 0.0442966 5.41035e-22)
(0.957629 0.0235069 4.25801e-22)
(0.963393 0.0441398 -3.98689e-22)
(0.970823 0.0396154 2.54099e-22)
(0.976823 0.0298957 -3.33535e-23)
(0.981778 0.0546969 -2.20667e-22)
(0.985018 0.0411915 1.45557e-22)
(0.988372 0.0323512 -1.38423e-22)
(0.991202 0.0662859 5.0811e-23)
(0.991931 0.0453613 -4.83119e-23)
(0.993588 0.0340189 0)
(0.996755 0.0666249 -2.94245e-23)
(0.99731 0.0726664 1.85741e-24)
(0.997068 0.0543628 0)
(0.99786 0.0210985 1.81661e-23)
(1.00355 0.11109 -1.13421e-23)
(1.00532 0.104551 2.91753e-24)
(0.960867 0.105944 0)
(0.94483 0.0686518 0)
(0.937266 0.0185344 -2.4935e-22)
(0.943 -0.0468609 0)
(0.958368 -0.112543 0)
(0.984151 -0.180371 4.41033e-20)
(1.02626 -0.252431 -4.19593e-20)
(1.04423 -0.303783 1.71669e-20)
(1.00934 -0.291064 -1.63795e-20)
(0.958648 -0.239923 0)
(0.919077 -0.170362 4.22239e-23)
(0.903032 -0.120447 -7.98354e-23)
(0.896663 -0.0667756 6.29536e-21)
(0.904575 -0.0453135 -4.79589e-22)
(0.909208 -0.00687558 -5.1527e-21)
(0.922167 -0.0082166 -6.3442e-23)
(0.926849 0.022781 4.86617e-23)
(0.938922 0.0137799 -2.23876e-21)
(0.943119 0.0340217 2.20191e-21)
(0.950169 0.0312648 0)
(0.9552 0.0274282 0)
(0.957985 0.0430022 3.26741e-23)
(0.96525 0.0220861 0)
(0.968525 0.042184 -3.44505e-22)
(0.973988 0.0387876 2.44228e-23)
(0.978975 0.0284768 2.5135e-22)
(0.98239 0.0536279 2.27783e-22)
(0.985518 0.0411193 -1.50774e-22)
(0.988955 0.0313645 1.66406e-23)
(0.991067 0.0657114 0)
(0.992161 0.0456799 4.50153e-23)
(0.994259 0.0334347 -4.2679e-23)
(0.996979 0.0659103 -1.59991e-23)
(0.997401 0.072728 -1.17383e-23)
(0.997765 0.0546623 1.34006e-23)
(0.998936 0.0205504 -8.42974e-24)
(1.0041 0.110322 0)
(1.00597 0.104462 -5.202e-24)
(1.22672 0.132784 6.2323e-20)
(1.20887 0.105627 6.69516e-20)
(1.1923 0.0614642 2.43458e-21)
(1.18636 -0.00114502 -1.24864e-19)
(1.18618 -0.0709123 5.91999e-20)
(1.18921 -0.147748 -4.03426e-22)
(1.18886 -0.224341 0)
(1.15612 -0.281035 -2.08607e-22)
(1.08656 -0.285478 -1.0349e-22)
(1.0102 -0.254085 0)
(0.952448 -0.198101 2.87207e-21)
(0.926706 -0.149159 -2.68394e-21)
(0.91376 -0.0900076 -9.60404e-23)
(0.917764 -0.0629086 -5.17798e-21)
(0.918497 -0.0186519 4.91275e-21)
(0.928922 -0.0165778 -6.33201e-23)
(0.931705 0.0160792 -5.16127e-23)
(0.943014 0.00966716 0)
(0.947804 0.0305667 -1.96132e-21)
(0.955814 0.0305387 1.85942e-21)
(0.962075 0.0261831 6.3234e-22)
(0.964655 0.0426678 -1.21417e-22)
(0.971355 0.0219117 -4.85157e-22)
(0.97298 0.0408657 3.63193e-22)
(0.976984 0.0389255 -6.22799e-23)
(0.981132 0.0275592 -5.21452e-22)
(0.9832 0.0526981 1.90301e-22)
(0.986174 0.0415116 -1.78193e-22)
(0.989582 0.0304213 1.31607e-22)
(0.991042 0.0650328 0)
(0.992442 0.0462016 0)
(0.994891 0.0328654 0)
(0.997199 0.0650556 -1.44765e-23)
(0.997527 0.0727594 1.55045e-23)
(0.998446 0.0550796 -2.08828e-23)
(0.999934 0.0199439 1.14485e-23)
(1.00462 0.109502 7.78933e-24)
(1.00658 0.10436 0)
(1.31733 0.140332 0)
(1.33086 0.108536 0)
(1.33163 0.0678544 0)
(1.3309 0.0195439 0)
(1.32143 -0.0399192 0)
(1.30114 -0.0978236 0)
(1.26587 -0.151375 0)
(1.20732 -0.183761 0)
(1.13073 -0.188219 0)
(1.05956 -0.175857 0)
(1.00426 -0.141824 0)
(0.971717 -0.115135 0)
(0.949001 -0.0740238 0)
(0.943146 -0.0580917 0)
(0.938641 -0.0201623 0)
(0.945473 -0.0194993 0)
(0.945649 0.0118536 0)
(0.953988 0.00553387 0)
(0.957268 0.0253296 0)
(0.964414 0.0264872 0)
(0.970065 0.0225023 0)
(0.972292 0.0397329 0)
(0.977658 0.0197392 0)
(0.977809 0.0384205 0)
(0.980622 0.0373589 0)
(0.983492 0.0258667 0)
(0.984547 0.0511875 0)
(0.987302 0.0407081 0)
(0.99028 0.0293075 0)
(0.99131 0.0641526 0)
(0.993011 0.045918 0)
(0.995575 0.0321926 0)
(0.997484 0.0643213 0)
(0.997876 0.0724941 0)
(0.99931 0.0549747 0)
(1.00103 0.0195213 0)
(1.00524 0.108665 0)
(1.00733 0.104184 0)
(1.26818 0.12559 0)
(1.29527 0.0934783 0)
(1.30509 0.0581337 0)
(1.30282 0.0131034 0)
(1.29113 -0.0390729 0)
(1.26863 -0.0935889 0)
(1.22943 -0.142187 0)
(1.17208 -0.180131 0)
(1.107 -0.193531 0)
(1.04741 -0.187326 0)
(0.99806 -0.156109 0)
(0.967381 -0.129526 0)
(0.94907 -0.0864704 0)
(0.945002 -0.0659252 0)
(0.942846 -0.0249107 0)
(0.9492 -0.0217592 0)
(0.951183 0.0102082 0)
(0.958821 0.00431455 0)
(0.962051 0.0246559 0)
(0.968706 0.0251901 0)
(0.973777 0.0221917 0)
(0.976116 0.0394022 0)
(0.980772 0.019764 0)
(0.980532 0.0390886 0)
(0.982908 0.0371315 0)
(0.984995 0.0258786 0)
(0.985661 0.0512766 0)
(0.988257 0.0399461 0)
(0.990855 0.0289709 0)
(0.99179 0.0641207 0)
(0.993657 0.0453106 0)
(0.996231 0.03164 0)
(0.997922 0.0642082 0)
(0.998502 0.0723559 0)
(1.00027 0.0546078 0)
(1.00217 0.0187897 0)
(1.006 0.108018 0)
(1.00824 0.104066 0)
(1.22836 0.10721 0)
(1.25271 0.0809194 0)
(1.26203 0.050322 0)
(1.26068 0.0166999 0)
(1.25098 -0.0191136 0)
(1.23168 -0.0567908 0)
(1.20102 -0.0901469 0)
(1.16057 -0.1147 0)
(1.11239 -0.120776 0)
(1.06461 -0.118173 0)
(1.02098 -0.0984298 0)
(0.991319 -0.0841509 0)
(0.970279 -0.0550385 0)
(0.960798 -0.0465735 0)
(0.953298 -0.0162652 0)
(0.955322 -0.0191891 0)
(0.955184 0.00959695 0)
(0.961842 0.00266885 0)
(0.964688 0.0226242 0)
(0.970543 0.0231395 0)
(0.974732 0.0206181 0)
(0.977129 0.0379566 0)
(0.981381 0.0186635 0)
(0.98131 0.0383795 0)
(0.983866 0.0361291 0)
(0.985574 0.0253133 0)
(0.986402 0.0507408 0)
(0.988953 0.039056 0)
(0.99124 0.0286159 0)
(0.992364 0.0637853 0)
(0.994318 0.0446066 0)
(0.996809 0.0312746 0)
(0.998475 0.0640715 0)
(0.999322 0.0720042 0)
(1.00124 0.0542182 0)
(1.00328 0.0182585 0)
(1.00683 0.107551 0)
(1.00928 0.10395 0)
(1.19586 0.0947473 0)
(1.2154 0.0735142 0)
(1.22333 0.0486852 0)
(1.22091 0.0211362 0)
(1.21076 -0.00835231 0)
(1.19413 -0.0396748 0)
(1.16997 -0.0674575 0)
(1.13821 -0.092326 0)
(1.09948 -0.104834 0)
(1.06144 -0.111463 0)
(1.02643 -0.0993963 0)
(1.00131 -0.0902777 0)
(0.982316 -0.0644371 0)
(0.973409 -0.056628 0)
(0.965393 -0.0248736 0)
(0.966064 -0.0252152 0)
(0.964141 0.00499637 0)
(0.968108 -0.00106602 0)
(0.968912 0.0189939 0)
(0.973687 0.0197419 0)
(0.976817 0.018231 0)
(0.978951 0.0360902 0)
(0.98242 0.0175993 0)
(0.982271 0.0378156 0)
(0.984809 0.0354602 0)
(0.985976 0.0248214 0)
(0.987203 0.0502291 0)
(0.9896 0.038299 0)
(0.991529 0.0280613 0)
(0.993129 0.0633044 0)
(0.995046 0.0439734 0)
(0.997285 0.0307577 0)
(0.999188 0.063687 0)
(1.00039 0.0715981 0)
(1.00225 0.0538704 0)
(1.00437 0.0176479 0)
(1.00776 0.106911 0)
(1.01057 0.103761 0)
(1.16582 0.0813444 0)
(1.18155 0.0653438 0)
(1.18811 0.0462039 0)
(1.18607 0.0245587 0)
(1.17786 0.00247628 0)
(1.16498 -0.0205766 0)
(1.1465 -0.0407248 0)
(1.1236 -0.0594563 0)
(1.09563 -0.067752 0)
(1.06719 -0.0726455 0)
(1.03834 -0.0631018 0)
(1.01518 -0.0587248 0)
(0.995895 -0.0386052 0)
(0.985219 -0.0367145 0)
(0.975403 -0.0109466 0)
(0.973331 -0.0160003 0)
(0.969446 0.0101264 0)
(0.971951 0.00143141 0)
(0.971935 0.0204409 0)
(0.975588 0.0204118 0)
(0.977528 0.0186242 0)
(0.97945 0.0361069 0)
(0.982401 0.0173644 0)
(0.982591 0.0375778 0)
(0.985392 0.0348276 0)
(0.986259 0.0242039 0)
(0.988117 0.0496634 0)
(0.990267 0.0374636 0)
(0.991888 0.027383 0)
(0.994116 0.0628143 0)
(0.995824 0.0432847 0)
(0.997746 0.0300952 0)
(1.00013 0.0632374 0)
(1.00169 0.07116 0)
(1.00329 0.0534396 0)
(1.00544 0.0168552 0)
(1.00892 0.106084 0)
(1.01224 0.103522 0)
(1.13934 0.0706725 0)
(1.15183 0.0593005 0)
(1.15718 0.0452501 0)
(1.15563 0.0289409 0)
(1.14903 0.012376 0)
(1.13875 -0.00557722 0)
(1.12448 -0.021286 0)
(1.10709 -0.0373452 0)
(1.08519 -0.0461369 0)
(1.06227 -0.0549717 0)
(1.03851 -0.0511801 0)
(1.01906 -0.0525574 0)
(1.00205 -0.0367625 0)
(0.992399 -0.0380502 0)
(0.982874 -0.0145554 0)
(0.980387 -0.0203874 0)
(0.976065 0.00555648 0)
(0.977593 -0.00257848 0)
(0.976582 0.0163059 0)
(0.979389 0.016556 0)
(0.980379 0.0154763 0)
(0.981986 0.0337035 0)
(0.984105 0.0157142 0)
(0.984125 0.036492 0)
(0.986737 0.0339003 0)
(0.987027 0.0234561 0)
(0.989297 0.0489515 0)
(0.991099 0.0366773 0)
(0.992409 0.0266563 0)
(0.995226 0.0621778 0)
(0.996676 0.0426002 0)
(0.998303 0.0294054 0)
(1.00125 0.0626381 0)
(1.00312 0.0706102 0)
(1.00441 0.0530122 0)
(1.00657 0.0159787 0)
(1.01041 0.105133 0)
(1.0143 0.103234 0)
(1.11597 0.062262 0)
(1.1256 0.0545161 0)
(1.12986 0.0445532 0)
(1.12876 0.0324911 0)
(1.12358 0.0202575 0)
(1.11577 0.00657101 0)
(1.10484 -0.00507295 0)
(1.09205 -0.0180646 0)
(1.07589 -0.0250301 0)
(1.0592 -0.0333559 0)
(1.04119 -0.0300544 0)
(1.0257 -0.0332177 0)
(1.0107 -0.0197908 0)
(1.00112 -0.0237763 0)
(0.991354 -0.00330187 0)
(0.987504 -0.0116658 0)
(0.981812 0.0119743 0)
(0.981734 0.00192907 0)
(0.979626 0.0193726 0)
(0.981469 0.0187947 0)
(0.981433 0.0169544 0)
(0.982835 0.0346278 0)
(0.984543 0.016037 0)
(0.984794 0.0363793 0)
(0.987621 0.0335191 0)
(0.987639 0.0228049 0)
(0.990408 0.0482094 0)
(0.991986 0.0359995 0)
(0.99303 0.0257729 0)
(0.996389 0.0614 0)
(0.997627 0.0420031 0)
(0.998982 0.0285998 0)
(1.00247 0.0617976 0)
(1.00464 0.0700209 0)
(1.00565 0.0526605 0)
(1.00782 0.0149745 0)
(1.01215 0.103959 0)
(1.01668 0.102856 0)
(1.09525 0.0553977 0)
(1.1027 0.0505921 0)
(1.10611 0.0440333 0)
(1.1054 0.0354512 0)
(1.10149 0.0267767 0)
(1.09566 0.0164797 0)
(1.08747 0.00794182 0)
(1.07795 -0.00260514 0)
(1.06585 -0.00819574 0)
(1.05327 -0.0169286 0)
(1.0389 -0.0155104 0)
(1.02609 -0.021977 0)
(1.01302 -0.0119328 0)
(1.00445 -0.0190675 0)
(0.995357 -0.0011785 0)
(0.991851 -0.0117391 0)
(0.986323 0.0104431 0)
(0.985936 -0.00031875 0)
(0.983557 0.0165229 0)
(0.984941 0.0160638 0)
(0.98424 0.0143118 0)
(0.985381 0.0326127 0)
(0.986499 0.0144377 0)
(0.986509 0.0350729 0)
(0.989161 0.0326225 0)
(0.988685 0.0218194 0)
(0.991695 0.04728 0)
(0.993014 0.0353083 0)
(0.993799 0.0247291 0)
(0.997606 0.0605005 0)
(0.998668 0.0414274 0)
(0.999799 0.0276382 0)
(1.0038 0.0607234 0)
(1.00624 0.0693861 0)
(1.00703 0.0523252 0)
(1.00925 0.0137428 0)
(1.01409 0.102457 0)
(1.0193 0.102341 0)
(1.07706 0.0501339 0)
(1.08275 0.0477075 0)
(1.08543 0.0438302 0)
(1.08499 0.0380447 0)
(1.08205 0.0321328 0)
(1.07776 0.0244794 0)
(1.07159 0.0183531 0)
(1.06477 0.00968749 0)
(1.05583 0.00547525 0)
(1.04666 -0.00304633 0)
(1.0359 -0.00185039 0)
(1.0263 -0.00941018 0)
(1.01596 -0.000479298 0)
(1.00875 -0.00904952 0)
(1.00035 0.00750857 0)
(0.996695 -0.00439727 0)
(0.9908 0.0162839 0)
(0.989567 0.0044313 0)
(0.98645 0.0198208 0)
(0.9872 0.018663 0)
(0.985777 0.0158768 0)
(0.986691 0.0336875 0)
(0.987531 0.0148331 0)
(0.987563 0.0348713 0)
(0.99032 0.0323971 0)
(0.989602 0.0211114 0)
(0.992887 0.0464591 0)
(0.994082 0.0347692 0)
(0.994678 0.0236723 0)
(0.998847 0.0595397 0)
(0.999807 0.0409179 0)
(1.00077 0.0266157 0)
(1.00521 0.059483 0)
(1.00791 0.0686883 0)
(1.00856 0.0520484 0)
(1.01088 0.0123348 0)
(1.01617 0.100635 0)
(1.02214 0.101745 0)
(1.06111 0.0458636 0)
(1.06541 0.0452299 0)
(1.06751 0.0434274 0)
(1.06725 0.0397789 0)
(1.06511 0.0360539 0)
(1.06202 0.0304474 0)
(1.05745 0.0263013 0)
(1.05264 0.0191907 0)
(1.04607 0.0161444 0)
(1.03956 0.00806015 0)
(1.03147 0.00914557 0)
(1.02409 0.000496216 0)
(1.01566 0.0079161 0)
(1.00968 -0.00284399 0)
(1.00216 0.0118526 0)
(0.999029 -0.00201252 0)
(0.993555 0.0171692 0)
(0.99229 0.00430777 0)
(0.989224 0.0186625 0)
(0.989899 0.0174749 0)
(0.988119 0.014182 0)
(0.988832 0.0323933 0)
(0.98937 0.0135504 0)
(0.989183 0.0334635 0)
(0.991867 0.0314497 0)
(0.990794 0.0197748 0)
(0.994173 0.0451258 0)
(0.995277 0.0338582 0)
(0.995669 0.022139 0)
(1.0001 0.0581106 0)
(1.00106 0.0400749 0)
(1.00187 0.025184 0)
(1.00669 0.0577178 0)
(1.00963 0.0676373 0)
(1.01029 0.0514503 0)
(1.0127 0.0105726 0)
(1.01839 0.0982624 0)
(1.0252 0.100696 0)
(1.04692 0.0431362 0)
(1.05014 0.0438939 0)
(1.05176 0.0436904 0)
(1.05165 0.0417057 0)
(1.05012 0.0396754 0)
(1.04799 0.0356588 0)
(1.04465 0.0330407 0)
(1.0414 0.0271228 0)
(1.03668 0.0251025 0)
(1.03218 0.0174811 0)
(1.02626 0.0187429 0)
(1.02087 0.00962574 0)
(1.01439 0.0165609 0)
(1.0099 0.00484999 0)
(1.00353 0.0187921 0)
(1.00107 0.00399924 0)
(0.99604 0.0221783 0)
(0.99468 0.00860368 0)
(0.991506 0.021792 0)
(0.991967 0.0201396 0)
(0.989892 0.0157664 0)
(0.990394 0.033747 0)
(0.990751 0.0143798 0)
(0.990527 0.0336576 0)
(0.993185 0.0318974 0)
(0.991977 0.0195525 0)
(0.995472 0.0447697 0)
(0.996492 0.0339965 0)
(0.996827 0.0213895 0)
(1.00145 0.0574407 0)
(1.0024 0.0401676 0)
(1.00316 0.0243736 0)
(1.00834 0.0564481 0)
(1.01146 0.0672429 0)
(1.01211 0.0516947 0)
(1.01491 0.00898261 0)
(1.02073 0.0960972 0)
(1.02849 0.1002 0)
(1.03446 0.0402223 0)
(1.03686 0.041919 0)
(1.03811 0.0428274 0)
(1.03808 0.0420204 0)
(1.03702 0.0412222 0)
(1.03561 0.0383791 0)
(1.03322 0.0368865 0)
(1.03113 0.0318766 0)
(1.02781 0.0306687 0)
(1.02485 0.0234475 0)
(1.02069 0.0249951 0)
(1.01695 0.0155296 0)
(1.01208 0.0221341 0)
(1.00888 0.00942759 0)
(1.00353 0.0225075 0)
(1.00171 0.0065851 0)
(0.997236 0.0235746 0)
(0.996099 0.0093026 0)
(0.993048 0.0212626 0)
(0.993734 0.0195112 0)
(0.991596 0.0141364 0)
(0.992066 0.0321513 0)
(0.992376 0.0125488 0)
(0.991918 0.0312447 0)
(0.994701 0.0299701 0)
(0.993186 0.017046 0)
(0.996691 0.0420927 0)
(0.997838 0.0319105 0)
(0.997894 0.0185449 0)
(1.00271 0.0544953 0)
(1.00393 0.0380691 0)
(1.00439 0.0216591 0)
(1.00991 0.0529996 0)
(1.01339 0.064723 0)
(1.01424 0.049849 0)
(1.01695 0.00598132 0)
(1.02317 0.0915902 0)
(1.03202 0.0975143 0)
(1.0229 0.0399798 0)
(1.0247 0.0424064 0)
(1.02569 0.0441672 0)
(1.02575 0.0442567 0)
(1.02508 0.0444204 0)
(1.02426 0.0424747 0)
(1.02258 0.0418861 0)
(1.0214 0.0375872 0)
(1.01909 0.0371452 0)
(1.01731 0.0303267 0)
(1.01445 0.0323665 0)
(1.01205 0.022724 0)
(1.0085 0.0294251 0)
(1.00651 0.01604 0)
(1.00224 0.0288896 0)
(1.00124 0.0121536 0)
(0.997595 0.0286712 0)
(0.996779 0.0138351 0)
(0.994152 0.0250187 0)
(0.994876 0.0231831 0)
(0.99291 0.0167581 0)
(0.993324 0.0348808 0)
(0.993599 0.014755 0)
(0.993313 0.0328475 0)
(0.995948 0.0320647 0)
(0.994553 0.0181753 0)
(0.998105 0.0431916 0)
(0.999121 0.0336189 0)
(0.999398 0.0189523 0)
(1.0042 0.055147 0)
(1.00547 0.0396632 0)
(1.00605 0.021886 0)
(1.01193 0.0527699 0)
(1.01545 0.0656302 0)
(1.01634 0.0515604 0)
(1.01991 0.00506242 0)
(1.02585 0.0902327 0)
(1.03603 0.0980736 0)
(1.01268 0.036614 0)
(1.01403 0.0393097 0)
(1.01483 0.0414465 0)
(1.01495 0.0419867 0)
(1.01462 0.0426554 0)
(1.01427 0.041209 0)
(1.01322 0.0411171 0)
(1.01276 0.0372609 0)
(1.01134 0.0372844 0)
(1.0105 0.0308014 0)
(1.00874 0.0331359 0)
(1.0074 0.0235138 0)
(1.00503 0.0301864 0)
(1.00405 0.0165387 0)
(1.00073 0.0289605 0)
(1.0005 0.0118791 0)
(0.997461 0.0275529 0)
(0.99719 0.0125041 0)
(0.994735 0.0225886 0)
(0.995911 0.0207653 0)
(0.994031 0.0134304 0)
(0.994584 0.0312603 0)
(0.995045 0.0110914 0)
(0.994423 0.0282301 0)
(0.997425 0.0279401 0)
(0.995666 0.0135927 0)
(0.999171 0.0379827 0)
(1.00057 0.0292967 0)
(1.00041 0.0138528 0)
(1.00538 0.0493989 0)
(1.00727 0.0351576 0)
(1.00726 0.0168737 0)
(1.01349 0.0462444 0)
(1.01754 0.0602806 0)
(1.01894 0.0469927 0)
(1.02203 -0.000234066 0)
(1.02828 0.0817154 0)
(1.03992 0.0919281 0)
(1.00191 0.0394305 0)
(1.00305 0.0424002 0)
(1.0038 0.0448954 0)
(1.00405 0.0458311 0)
(1.00402 0.0469871 0)
(1.0041 0.045967 0)
(1.00354 0.046387 0)
(1.0037 0.0428821 0)
(1.00294 0.0434637 0)
(1.00289 0.0371963 0)
(1.00193 0.0401048 0)
(1.00153 0.0303479 0)
(1.00007 0.0375297 0)
(1.00004 0.0233821 0)
(0.997637 0.0361483 0)
(0.998164 0.0183486 0)
(0.995998 0.0340845 0)