/*--------------------------------*- C++ -*----------------------------------*\
| =========                 |                                                 |
| \\      /  F ield         | OpenFOAM: The Open Source CFD Toolbox           |
|  \\    /   O peration     | Version:  2512                                  |
|   \\  /    A nd           | Website:  www.openfoam.com                      |
|    \\/     M anipulation  |                                                 |
\*---------------------------------------------------------------------------*/
FoamFile
{
    version     2.0;
    format      ascii;
    arch        "LSB;label=32;scalar=64";
    class       surfaceScalarField;
    location    "135.55";
    object      phi;
}
// * * * * * * * * * * * * * * * * * * * * * * * * * * * * * * * * * * * * * //

dimensions      [0 3 -1 0 0 0 0];

oriented        oriented;

internalField   nonuniform List<scalar> 
26232
(
-0.000400529
0.00218012
-0.00177959
-0.000779281
0.00434051
-0.00396175
-0.00051056
0.0047845
-0.00505323
0.000973521
0.00354247
-0.00502655
0.00425369
0.000419101
-0.00369927
0.00985942
-0.00483394
-0.0007718
0.0182445
-0.0123769
0.00399184
0.0295239
-0.0220715
0.0107921
0.0433728
-0.033409
0.0195601
0.0589938
-0.0455881
0.0299671
0.0752463
-0.0576985
0.041446
0.0908776
-0.0689157
0.0532844
0.104782
-0.0786488
0.0647447
0.116223
-0.0866237
0.0751825
0.124968
-0.0928908
0.0841452
0.131287
-0.0977625
0.0914435
0.135797
-0.101683
0.0971736
0.139184
-0.105072
0.101685
0.142005
-0.108201
0.105379
0.144453
-0.111219
0.108772
0.146702
-0.114006
0.111756
0.148497
-0.116929
0.115135
0.149502
-0.118737
0.117731
-0.121733
0.121761
0.149474
-0.00020382
0.00238394
-0.000102395
0.00423908
0.000953345
0.00372876
0.0036301
0.000865716
0.00857197
-0.00452276
0.0163
-0.012562
0.0269723
-0.0230492
0.0401933
-0.0352925
0.0550141
-0.0482297
0.0701506
-0.0607246
0.084311
-0.071859
0.096502
-0.0811066
0.106226
-0.0883726
0.11352
-0.093918
0.118836
-0.0982072
0.122805
-0.101731
0.125984
-0.104863
0.128731
-0.107819
0.131208
-0.110677
0.133451
-0.113462
0.135607
-0.116161
0.137521
-0.118843
0.140006
-0.121222
-0.124437
0.14271
7.83775e-06
0.0023761
0.000677666
0.00356925
0.00271021
0.00169622
0.006825
-0.00324907
0.0136501
-0.0113478
0.0234491
-0.022361
0.0358344
-0.0354345
0.0497518
-0.0492099
0.0637911
-0.0622691
0.0766283
-0.0735618
0.0873772
-0.0826079
0.0957424
-0.0894719
0.101957
-0.0945868
0.106561
-0.0985227
0.110143
-0.101789
0.113147
-0.104734
0.115823
-0.10754
0.118294
-0.11029
0.120622
-0.113005
0.12288
-0.11572
0.125083
-0.118365
0.127312
-0.121072
0.129574
-0.123484
-0.126301
0.131438
0.000200121
0.00217598
0.00148442
0.00228495
0.00460826
-0.00142763
0.0103028
-0.00894365
0.0189932
-0.0200382
0.0303976
-0.0337654
0.0434186
-0.0484555
0.056529
-0.0623202
0.0683489
-0.074089
0.0780546
-0.0832674
0.0854821
-0.0900354
0.0909702
-0.09496
0.0950779
-0.0986945
0.0983303
-0.101775
0.101091
-0.10455
0.103567
-0.107209
0.105867
-0.10984
0.108053
-0.112476
0.11018
-0.115132
0.112251
-0.11779
0.114337
-0.12045
0.11641
-0.123145
0.11863
-0.125705
-0.128767
0.121096
0.000394789
0.00178119
0.00234439
0.000335351
0.00665869
-0.00574193
0.0139528
-0.0162378
0.0241677
-0.0302532
0.0362656
-0.0458633
0.0486111
-0.060801
0.0597115
-0.0734207
0.0687215
-0.083099
0.0755208
-0.0900667
0.0804859
-0.0950006
0.0841712
-0.0986452
0.0870703
-0.101594
0.0895236
-0.104228
0.0917325
-0.106759
0.0938085
-0.109285
0.0958088
-0.11184
0.0977661
-0.114434
0.0996901
-0.117056
0.101609
-0.119709
0.103546
-0.122388
0.105499
-0.125098
0.107573
-0.127779
-0.130686
0.109493
0.000620693
0.0011605
0.0033122
-0.00235615
0.00886735
-0.0112971
0.0175582
-0.0249286
0.0285786
-0.0412736
0.0402394
-0.0575241
0.0508655
-0.0714272
0.0594806
-0.0820358
0.0659155
-0.0895339
0.0705367
-0.0946879
0.0738952
-0.0983591
0.0764848
-0.101235
0.0786506
-0.103759
0.080597
-0.106175
0.0824291
-0.108591
0.0841926
-0.111048
0.085907
-0.113555
0.0875825
-0.116109
0.0892376
-0.118711
0.0908878
-0.121359
0.0925521
-0.124052
0.0942508
-0.126797
0.0960304
-0.129559
-0.132521
0.0978651
0.000893872
0.000266628
0.00439085
-0.00585313
0.0111141
-0.0180203
0.020714
-0.0345285
0.0316129
-0.0521725
0.0419123
-0.0678235
0.0503761
-0.079891
0.0566769
-0.0883365
0.0611187
-0.0939757
0.0642461
-0.0978153
0.0665703
-0.100683
0.0684562
-0.103121
0.0701183
-0.105422
0.0716632
-0.10772
0.0731371
-0.110065
0.0745617
-0.112473
0.0759512
-0.114944
0.0773211
-0.117479
0.078684
-0.120074
0.0800535
-0.122729
0.0814463
-0.125445
0.0828647
-0.128215
0.084344
-0.131038
-0.133972
0.0857949
0.00120771
-0.000941083
0.00551725
-0.0101627
0.0131553
-0.0256584
0.022978
-0.0443512
0.0329393
-0.0621337
0.041417
-0.0763012
0.0477865
-0.0862605
0.0522129
-0.0927629
0.0552146
-0.0969774
0.0573293
-0.09993
0.0589566
-0.102311
0.0603355
-0.1045
0.061586
-0.106672
0.0627618
-0.108896
0.0638873
-0.111191
0.0649758
-0.113561
0.0660371
-0.116006
0.0670792
-0.118521
0.0681122
-0.121107
0.0691484
-0.123765
0.0701971
-0.126493
0.0712749
-0.129293
0.0724005
-0.132164
-0.135119
0.0735473
0.00154408
-0.00248516
0.00658183
-0.0152004
0.0147148
-0.0337914
0.0240755
-0.0537119
0.0326055
-0.0706637
0.0392102
-0.082906
0.0437916
-0.0908419
0.0467913
-0.0957625
0.0487685
-0.0989546
0.0501713
-0.101333
0.0512787
-0.103418
0.0522351
-0.105456
0.0531054
-0.107542
0.0539174
-0.109708
0.0546841
-0.111958
0.0554145
-0.114292
0.0561172
-0.116708
0.0568024
-0.119206
0.0574811
-0.121786
0.058163
-0.124447
0.0588591
-0.127189
0.0595768
-0.13001
0.0603208
-0.132908
-0.135868
0.0610696
0.00187243
-0.00435759
0.00745515
-0.0207831
0.0155878
-0.041924
0.0239789
-0.062103
0.0309034
-0.0775882
0.0358087
-0.0878113
0.0389533
-0.0939865
0.040887
-0.0976962
0.0421141
-0.100182
0.0429715
-0.10219
0.0436406
-0.104087
0.0442048
-0.10602
0.0446989
-0.108036
0.0451384
-0.110147
0.0455328
-0.112352
0.0458908
-0.11465
0.0462208
-0.117038
0.0465312
-0.119517
0.0468306
-0.122085
0.0471282
-0.124745
0.0474322
-0.127493
0.0477522
-0.13033
0.0480943
-0.13325
-0.136233
0.0484599
0.0021601
-0.00651768
0.00802596
-0.026649
0.0157022
-0.0496003
0.0228448
-0.0692455
0.0282027
-0.0829461
0.0316614
-0.09127
0.0336782
-0.0960033
0.0348023
-0.0988202
0.0354444
-0.100824
0.0358413
-0.102587
0.0361055
-0.104351
0.0362841
-0.106199
0.0363969
-0.108149
0.0364546
-0.110205
0.0364652
-0.112363
0.0364359
-0.11462
0.0363744
-0.116977
0.0362887
-0.119431
0.0361878
-0.121984
0.0360807
-0.124637
0.0359762
-0.127389
0.0358795
-0.130234
0.0357889
-0.133159
-0.136151
0.0357063
0.00238205
-0.00889974
0.00823746
-0.0325044
0.015122
-0.0564848
0.0209214
-0.0750449
0.0248574
-0.0868822
0.0271204
-0.0935329
0.0282467
-0.0971296
0.0287262
-0.0992997
0.0288729
-0.100971
0.0288458
-0.10256
0.0287129
-0.104218
0.0285012
-0.105987
0.0282234
-0.107871
0.0278872
-0.109869
0.0274996
-0.111975
0.0270674
-0.114188
0.0265977
-0.116507
0.0260975
-0.118931
0.0255738
-0.121461
0.025035
-0.124099
0.0244897
-0.126844
0.0239465
-0.12969
0.0234115
-0.132624
0.0228985
-0.135638
0.000270369
0.005398
-0.00566837
0.000402023
0.014484
-0.0146157
3.6215e-06
0.0214553
-0.0210569
-0.000994207
0.0262768
-0.025279
-0.00240924
0.0295709
-0.0281559
-0.00400831
0.0321282
-0.0305292
-0.00558541
0.0344802
-0.0329031
-0.00698122
0.0368112
-0.0354154
-0.00806194
0.0390518
-0.0379711
-0.00869438
0.0410051
-0.0403726
-0.0087367
0.0424308
-0.0423885
-0.00804428
0.0430877
-0.0437801
-0.00648352
0.0427559
-0.0443166
-0.00394776
0.0412556
-0.0437914
-0.00035716
0.0384557
-0.0420463
0.00435122
0.0342806
-0.0389889
0.0101056
0.0287811
-0.0345354
0.016834
0.0219986
-0.028727
0.02441
0.0140311
-0.0216072
0.0325849
0.00506829
-0.0132432
0.0413082
-0.00508971
-0.0036336
0.0504178
-0.0161912
0.00708153
0.0598526
-0.0286417
0.019207
-0.042855
0.0698095
0.032898
0.000600179
0.00479782
0.00151733
0.0135669
0.00215929
0.0208133
0.00231756
0.0261185
0.00208692
0.0298016
0.00171897
0.0324962
0.00147538
0.0347238
0.00156561
0.036721
0.00214788
0.0384696
0.00335053
0.0398024
0.00528648
0.0404949
0.00805458
0.0403196
0.011732
0.0390785
0.0163656
0.036622
0.0219605
0.0328607
0.0284691
0.027772
0.0358445
0.0214057
0.0439552
0.0138879
0.0526509
0.00533537
0.0618521
-0.00413294
0.0713516
-0.0145892
0.0809932
-0.0258327
0.0908505
-0.0384991
-0.0531672
0.101163
0.000828871
0.00396895
0.00240877
0.011987
0.00404971
0.0191724
0.00538759
0.0247806
0.00640653
0.0287827
0.00731826
0.0315845
0.00840512
0.0336369
0.00991721
0.0352089
0.0120389
0.0363478
0.0148969
0.0369445
0.0185759
0.0368158
0.0231276
0.0357679
0.0285715
0.0336347
0.0348925
0.030301
0.042042
0.0257112
0.049927
0.019887
0.058443
0.0128897
0.0673698
0.00496111
0.0767826
-0.00407743
0.0862914
-0.0136418
0.0960275
-0.0243253
0.105952
-0.0357576
0.116452
-0.0489985
-0.0644698
0.127754
0.000926292
0.00304266
0.00293859
0.00997471
0.00537937
0.0167316
0.00778782
0.0223722
0.0100129
0.0265576
0.0121698
0.0294276
0.0145073
0.0312994
0.0172859
0.0324303
0.0207108
0.032923
0.0249154
0.0327398
0.0299693
0.0317619
0.0358898
0.0298474
0.0426503
0.0268742
0.0501827
0.0227685
0.0583855
0.0175084
0.0671061
0.0111664
0.0761852
0.0038106
0.0855682
-0.0044219
0.0951271
-0.0136363
0.104745
-0.0232594
0.114958
-0.0345387
0.125837
-0.0466368
0.138029
-0.0611906
-0.0774956
0.151055
0.000893312
0.00214935
0.00304707
0.00782095
0.00595172
0.0138269
0.00914687
0.019177
0.0123781
0.0233264
0.0156359
0.0261698
0.01908
0.0278553
0.0229316
0.0285787
0.0273899
0.0284646
0.0325914
0.0275383
0.0386007
0.0257527
0.045416
0.0230321
0.0529786
0.0193116
0.06118
0.0145671
0.0698715
0.00881688
0.0788518
0.00218611
0.0882024
-0.00553993
0.0976755
-0.013895
0.107552
-0.0235125
0.118061
-0.0337687
0.129989
-0.046467
0.143129
-0.0597766
0.157813
-0.0758739
-0.0917595
0.172077
0.000754799
0.00139455
0.0027591
0.00581665
0.00571438
0.0108717
0.00925877
0.0156326
0.0131107
0.0194745
0.017159
0.0221215
0.0214519
0.0235623
0.026127
0.0239037
0.0313361
0.0232555
0.0371935
0.0216809
0.0437507
0.0191955
0.0509919
0.0157909
0.0588448
0.0114587
0.0671967
0.00621524
0.075877
0.000136552
0.0850871
-0.00702397
0.0946953
-0.0151482
0.105058
-0.0242576
0.116654
-0.0351083
0.12985
-0.0469646
0.144825
-0.0614426
0.160604
-0.0755557
0.176529
-0.091799
-0.104706
0.189475
0.00054342
0.000851128
0.00215985
0.00420022
0.00476745
0.00826405
0.00816055
0.0122395
0.0121097
0.0155253
0.0164625
0.0177686
0.0211772
0.0188476
0.0262965
0.0187843
0.0318972
0.0176548
0.0380445
0.0155337
0.0447665
0.0124734
0.0520533
0.00850412
0.059875
0.00363697
0.0683025
-0.00221227
0.0775314
-0.00909234
0.0876687
-0.0171613
0.0991706
-0.0266501
0.112466
-0.0375532
0.127595
-0.0502368
0.1443
-0.0636699
0.161433
-0.0785757
0.177496
-0.0916184
0.190987
-0.10529
-0.113254
0.199535
0.000286164
0.000564964
0.00135467
0.00313171
0.00331291
0.00630581
0.00611814
0.0094343
0.00963898
0.0120045
0.0137422
0.0136654
0.018346
0.0142439
0.0234281
0.0137022
0.0290097
0.0120733
0.0351374
0.00940589
0.0418873
0.00572362
0.049385
0.00100635
0.0578755
-0.00485351
0.0676368
-0.0119735
0.0790432
-0.0204987
0.0924088
-0.0305269
0.107784
-0.0420257
0.124931
-0.0546997
0.142876
-0.0681818
0.160537
-0.081331
0.176001
-0.0940399
0.188168
-0.103785
0.195774
-0.112896
-0.116284
0.198804
4.27264e-06
0.000560691
0.000453472
0.00268251
0.0016065
0.00515278
0.00356173
0.00747906
0.00629477
0.00927146
0.00973873
0.0102214
0.0138413
0.0101413
0.0186051
0.00893844
0.0241125
0.00656579
0.030529
0.00298945
0.0381337
-0.00188109
0.0472839
-0.00814383
0.0583316
-0.0159012
0.0715417
-0.0251836
0.0869308
-0.0358879
0.104172
-0.0477683
0.122475
-0.0603289
0.140751
-0.0729753
0.157478
-0.0849084
0.171496
-0.0953492
0.181435
-0.103979
0.187461
-0.109811
0.189614
-0.115049
-0.116425
0.189755
-0.000263218
0.000823909
-0.000395478
0.00281477
-8.87816e-06
0.00476618
0.00109548
0.00637471
0.00302549
0.00734144
0.00583544
0.00741148
0.00960886
0.0063679
0.0145102
0.00403711
0.0208479
0.000228032
0.0289154
-0.00507803
0.0390989
-0.0120646
0.051636
-0.0206809
0.0665112
-0.0307765
0.0833686
-0.0420411
0.101476
-0.0539951
0.119768
-0.0660605
0.13697
-0.0775308
0.151842
-0.0878476
0.163343
-0.0964089
0.171192
-0.103198
0.175426
-0.108214
0.177504
-0.111889
0.177959
-0.115505
-0.116952
0.178487
-0.000454895
0.0012788
-0.000987013
0.00334689
-0.00110953
0.0048887
-0.000494956
0.00576013
0.00109927
0.00574722
0.00392531
0.00458544
0.00828511
0.0020081
0.0145425
-0.00222026
0.0230272
-0.00825665
0.0340619
-0.0161128
0.0476334
-0.025636
0.0634198
-0.0364673
0.0807265
-0.0480832
0.0985418
-0.0598564
0.115676
-0.0711292
0.13093
-0.0813144
0.143362
-0.0899626
0.152458
-0.096944
0.158337
-0.102288
0.161742
-0.106604
0.16355
-0.110022
0.165169
-0.113508
0.166329
-0.116664
-0.118718
0.168094
-0.000500787
-0.00111565
-0.00128017
-0.000546591
0.00150136
0.00531499
0.0113149
0.0198868
0.0311902
0.0450445
0.0608545
0.0776716
0.0943331
0.109659
0.122675
0.132804
0.140015
0.144756
0.147848
0.150016
0.15175
0.153377
0.154444
0.157487
0.0777712
-0.0758017
0.06784
0.0859593
-0.105148
0.0969595
0.0934709
-0.131789
0.124278
0.0991418
-0.150689
0.145018
0.102085
-0.160709
0.157767
0.103107
-0.163914
0.162892
0.103338
-0.161689
0.161458
0.101083
-0.156137
0.158392
0.0947003
-0.154117
0.1605
0.0870209
-0.158878
0.166557
0.0840796
-0.160795
0.163736
0.0892664
-0.143353
0.138166
0.100453
-0.0986137
0.0874273
0.114332
-0.0326906
0.0188119
0.128401
0.0419238
-0.055993
0.141083
0.109312
-0.121994
0.150935
0.156245
-0.166097
0.156789
0.180935
-0.186788
0.159159
0.190973
-0.193343
0.160115
0.192385
-0.193342
0.160318
0.189881
-0.190084
0.158273
0.19539
-0.193345
0.153042
0.21677
-0.21154
0.145796
0.239818
-0.232571
0.138867
0.233366
-0.226437
0.134397
0.17603
-0.17156
0.133784
0.072846
-0.0722333
0.136642
-0.0460389
0.0431812
0.141934
-0.145783
0.140492
0.148107
-0.205034
0.198861
0.152727
-0.228738
0.224117
0.153217
-0.239184
0.238695
0.147946
-0.250463
0.255734
0.137486
-0.261759
0.272219
0.125326
-0.254209
0.266369
0.11596
-0.205265
0.214632
0.113116
-0.108226
0.111069
0.117805
0.0151173
-0.0198055
0.127366
0.12391
-0.133472
0.134868
0.200483
-0.207985
0.13453
0.251308
-0.25097
0.127398
0.291854
-0.284722
0.1191
0.295239
-0.28694
0.114939
0.237672
-0.233511
0.1172
0.121362
-0.123623
0.122864
-0.0193267
0.0136622
0.12557
-0.136767
0.134061
0.123451
-0.246568
0.248687
0.120426
-0.301576
0.304601
0.118668
-0.293586
0.295344
0.118446
-0.195097
0.195319
0.117985
-0.00903962
0.00950037
0.116031
0.155453
-0.153499
0.113958
0.326869
-0.324797
0.112542
0.333641
-0.332225
0.110278
0.194625
-0.192362
0.105131
0.0269164
-0.02177
0.0997224
-0.285884
0.291293
0.097976
-0.289922
0.291669
-0.036463
0.0399784
0.106098
-0.0807364
0.110728
-0.109778
0.113959
-0.13502
0.115101
-0.151831
0.113478
-0.159087
0.109256
-0.159691
0.104569
-0.157002
0.0997413
-0.15131
0.0919686
-0.146345
0.0812569
-0.148166
0.0728864
-0.152424
0.072774
-0.14324
0.0817745
-0.107614
0.0964871
-0.0474031
0.113812
0.0245993
0.130819
0.0923047
0.144915
0.142149
0.154477
0.171372
0.160059
0.185391
0.163665
0.188779
0.166148
0.187399
0.166696
0.194841
0.164483
0.218984
0.159799
0.244502
0.153916
0.239249
0.148738
0.181207
0.145611
0.0759737
0.145079
-0.0455075
0.14675
-0.147453
0.14963
-0.207914
0.151485
-0.230593
0.149878
-0.237577
0.143076
-0.24366
0.13146
-0.250143
0.118833
-0.241583
0.110159
-0.196591
0.10902
-0.107087
0.116292
0.00784559
0.127897
0.112305
0.136549
0.191831
0.137143
0.250714
0.130868
0.298128
0.122411
0.303695
0.117186
0.242898
0.118256
0.120292
0.123543
-0.0246141
0.126035
-0.139259
0.12309
-0.243622
0.119453
-0.297939
0.117511
-0.291644
0.118034
-0.19562
0.118177
-0.00918229
0.117224
0.156406
0.116241
0.327852
0.114534
0.335349
0.112097
0.197062
0.105742
0.0332717
0.0989309
-0.279073
0.0986492
-0.289641
-0.0340338
0.131164
-0.0841464
0.132899
-0.111513
0.131619
-0.13374
0.127568
-0.14778
0.121712
-0.15323
0.114242
-0.152222
0.106258
-0.149018
0.0991191
-0.14417
0.0906868
-0.137912
0.078508
-0.135987
0.065943
-0.139859
0.0602263
-0.137523
0.0654199
-0.112808
0.0796994
-0.0616826
0.0993224
0.00497627
0.120016
0.0716112
0.138187
0.123978
0.151559
0.158001
0.160545
0.176405
0.166972
0.182352
0.171952
0.182418
0.175412
0.191381
0.17663
0.217766
0.174952
0.24618
0.170439
0.243761
0.164414
0.187232
0.158439
0.0819489
0.154138
-0.0412065
0.151993
-0.145308
0.151475
-0.207396
0.150613
-0.229731
0.147204
-0.234169
0.139412
-0.235869
0.127053
-0.237783
0.113957
-0.228488
0.10574
-0.188373
0.106196
-0.107543
0.115544
-0.00150336
0.128865
0.0989847
0.138829
0.181867
0.140737
0.248806
0.135543
0.303323
0.126992
0.312246
0.120531
0.249359
0.120078
0.120744
0.124735
-0.0292705
0.127083
-0.141607
0.123332
-0.239872
0.11891
-0.293517
0.116661
-0.289395
0.117911
-0.19687
0.118858
-0.0101301
0.118944
0.156321
0.118988
0.327807
0.117057
0.33728
0.11451
0.199609
0.107142
0.0406397
0.0989845
-0.270915
0.0998725
-0.290528
-0.0326943
0.15333
-0.0864218
0.152489
-0.110671
0.147494
-0.128745
0.138855
-0.139141
0.128688
-0.143063
0.11836
-0.141895
0.108075
-0.138733
0.0992126
-0.135308
0.0909977
-0.129698
0.079526
-0.124515
0.064849
-0.125182
0.0538121
-0.126487
0.0536801
-0.112676
0.0654964
-0.0734989
0.0856864
-0.0152137
0.108916
0.0483821
0.130449
0.102444
0.147425
0.141025
0.159831
0.163999
0.16915
0.173033
0.176772
0.174795
0.183379
0.184775
0.188324
0.212821
0.190043
0.244461
0.187499
0.246305
0.180797
0.193934
0.171835
0.0909103
0.163707
-0.0330781
0.157711
-0.139312
0.153749
-0.203434
0.150185
-0.226166
0.145073
-0.229058
0.136661
-0.227457
0.124097
-0.225219
0.110704
-0.215095
0.102595
-0.180264
0.104149
-0.109097
0.115071
-0.0124248
0.130041
0.0840146
0.14162
0.170288
0.145171
0.245254
0.141232
0.307262
0.132764
0.320714
0.125112
0.257011
0.12282
0.123036
0.126476
-0.0329264
0.128686
-0.143818
0.124192
-0.235378
0.118834
-0.288158
0.11612
-0.286681
0.118061
-0.198811
0.119975
-0.012044
0.121112
0.155183
0.122133
0.326786
0.12003
0.339383
0.117472
0.202167
0.10931
0.0488014
0.0998528
-0.261458
0.101644
-0.29232
-0.0324241
0.172081
-0.0864262
0.167623
-0.106214
0.15878
-0.119901
0.146944
-0.127305
0.134053
-0.130173
0.121974
-0.129816
0.110595
-0.127353
0.100109
-0.124822
0.0916049
-0.121193
0.0822193
-0.11513
0.0684691
-0.111432
0.0541373
-0.112155
0.0481119
-0.10665
0.0554888
-0.0808759
0.0738538
-0.0335788
0.0980278
0.0242081
0.121807
0.0786644
0.141778
0.121055
0.157269
0.148508
0.169314
0.160988
0.179509
0.1646
0.189146
0.175138
0.197815
0.204152
0.203371
0.238904
0.203492
0.246185
0.197181
0.200246
0.185758
0.102333
0.173613
-0.0209333
0.163597
-0.129296
0.156208
-0.196045
0.150086
-0.220044
0.143435
-0.222407
0.134735
-0.218757
0.122449
-0.212933
0.108967
-0.201613
0.100637
-0.171935
0.102653
-0.111113
0.114625
-0.0243965
0.131086
0.0675537
0.144571
0.156802
0.150296
0.23953
0.148107
0.309451
0.139974
0.328847
0.131149
0.265837
0.126639
0.127545
0.128785
-0.0350718
0.130781
-0.145814
0.125639
-0.230236
0.119217
-0.281736
0.115861
-0.283326
0.118449
-0.201398
0.121461
-0.0150557
0.12365
0.152994
0.125612
0.324825
0.123372
0.341623
0.12091
0.204629
0.112218
0.0574925
0.101506
-0.250745
0.103936
-0.29475
-0.0331903
0.185588
-0.0825386
0.176943
-0.0975694
0.164475
-0.107433
0.150475
-0.113305
0.136586
-0.116284
0.124038
-0.117267
0.112992
-0.116307
0.102394
-0.114224
0.0930806
-0.111879
0.0851631
-0.107212
0.0746523
-0.100921
0.0603579
-0.0978604
0.0493699
-0.0956625
0.0503563
-0.0818622
0.0645431
-0.0477655
0.0875366
0.00121457
0.112295
0.0539062
0.134588
0.0987617
0.152817
0.130279
0.167309
0.146496
0.179647
0.152262
0.191848
0.162938
0.204052
0.191948
0.213374
0.229582
0.21612
0.243439
0.210605
0.205761
0.198114
0.114825
0.18296
-0.00577969
0.169196
-0.115532
0.158662
-0.185511
0.150209
-0.211592
0.142086
-0.214284
0.133241
-0.209911
0.12176
-0.201452
0.108557
-0.18841
0.099697
-0.163074
0.101415
-0.11283
0.113896
-0.0368779
0.131676
0.049774
0.147314
0.141164
0.155563
0.231281
0.155501
0.309513
0.148162
0.336185
0.138496
0.275504
0.131596
0.134445
0.131668
-0.0351432
0.133263
-0.14741
0.127609
-0.224581
0.120043
-0.274171
0.115846
-0.279128
0.11902
-0.204573
0.12321
-0.0192458
0.126455
0.149749
0.129338
0.321941
0.126993
0.343968
0.12473
0.206893
0.11582
0.0664024
0.103913
-0.238838
0.106709
-0.297547
-0.0349479
0.191377
-0.0743809
0.179573
-0.0857652
0.165416
-0.0932759
0.150895
-0.0987842
0.137315
-0.102704
0.125035
-0.104987
0.114381
-0.105653
0.104609
-0.104452
0.0951751
-0.102445
0.0874349
-0.0994721
0.0801631
-0.0936492
0.0693844
-0.0870817
0.0567591
-0.0830372
0.0510832
-0.0761863
0.05874
-0.0554224
0.0777799
-0.0178253
0.102052
0.0296344
0.125741
0.0750719
0.146272
0.109748
0.163077
0.129692
0.177366
0.137973
0.19147
0.148833
0.206262
0.177156
0.21913
0.216714
0.225282
0.237287
0.221352
0.20969
0.208208
0.127969
0.190801
0.0116272
0.174065
-0.0987959
0.160812
-0.172258
0.150377
-0.201157
0.140949
-0.204856
0.13193
-0.200892
0.121595
-0.191117
0.109211
-0.176026
0.0996802
-0.153544
0.100297
-0.113447
0.112588
-0.0491691
0.131456
0.0309062
0.149425
0.123195
0.160674
0.220032
0.163459
0.306728
0.157527
0.342117
0.147178
0.285852
0.137693
0.14393
0.135112
-0.0325623
0.136007
-0.148304
0.13
-0.218575
0.12128
-0.265451
0.116024
-0.273872
0.119683
-0.208232
0.125134
-0.0246967
0.129443
0.14544
0.133235
0.31815
0.130808
0.346395
0.12884
0.208861
0.120028
0.0752144
0.107034
-0.225845
0.10992
-0.300432
-0.0376376
0.188236
-0.0638127
0.175567
-0.0730965
0.162113
-0.0798215
0.148968
-0.0856396
0.136766
-0.0905012
0.12551
-0.0937313
0.11528
-0.0954237
0.106264
-0.0954362
0.0976517
-0.0938331
0.0896786
-0.091499
0.0836099
-0.0875806
0.0772312
-0.0807029
0.06743
-0.073236
0.0580646
-0.0668209
0.0578871
-0.055245
0.0702809
-0.0302191
0.0917585
0.00815687
0.115526
0.0513048
0.13754
0.0877339
0.156102
0.11113
0.171854
0.122221
0.187418
0.133269
0.20457
0.160003
0.220598
0.200687
0.229479
0.228406
0.227225
0.211944
0.214722
0.140471
0.196323
0.0300264
0.177814
-0.0802866
0.162427
-0.156871
0.150382
-0.189113
0.139867
-0.194341
0.130566
-0.191591
0.121464
-0.182015
0.110533
-0.165094
0.100547
-0.143558
0.099337
-0.112237
0.110593
-0.0604253
0.130218
0.0112816
0.150499
0.102914
0.164819
0.205712
0.170691
0.300856
0.167014
0.345794
0.156564
0.296302
0.144735
0.155759
0.139091
-0.0269179
0.138887
-0.148099
0.132684
-0.212372
0.122884
-0.255651
0.11636
-0.267348
0.120354
-0.212226
0.127127
-0.0314701
0.132501
0.140066
0.137198
0.313453
0.134733
0.34886
0.133135
0.210459
0.124753
0.0835968
0.11082
-0.211911
0.113526
-0.303139
-0.0411832
0.179761
-0.0538191
0.16862
-0.0619553
0.157113
-0.0683145
0.145799
-0.0743251
0.134897
-0.0795996
0.124624
-0.0834582
0.11501
-0.0858095
0.106413
-0.0868396
0.0989185
-0.0863385
0.0918035
-0.084384
0.0856746
-0.0814517
0.081417
-0.0764454
0.0764892
-0.0683082
0.0688365
-0.0591682
0.0633441
-0.0497526
0.0676156
-0.0344906
0.0835656
-0.00779314
0.105558
0.029312
0.128
0.0652927
0.147658
0.0914715
0.164162
0.105717
0.180156
0.117275
0.198393
0.141766
0.217128
0.181952
0.230004
0.21553
0.230875
0.211073
0.219279
0.152068
0.200062
0.0492436
0.180264
-0.0604889
0.163295
-0.139902
0.150039
-0.175856
0.138726
-0.183028
0.129024
-0.181889
0.120934
-0.173925
0.111983
-0.156143
0.102213
-0.133788
0.0987984
-0.108823
0.107971
-0.069598
0.127659
-0.00840616
0.150204
0.0803691
0.168043
0.187873
0.177542
0.291356
0.176679
0.346658
0.166563
0.306418
0.152485
0.169836
0.143475
-0.0179074
0.141767
-0.146392
0.135501
-0.206106
0.124788
-0.244938
0.116801
-0.259361
0.120938
-0.216362
0.1291
-0.0396322
0.135563
0.133603
0.141167
0.307849
0.138692
0.351334
0.13752
0.211631
0.12989
0.0912273
0.115205
-0.197227
0.117486
-0.305419
-0.0454891
0.170423
-0.0457553
0.161274
-0.0528066
0.151558
-0.0585977
0.14171
-0.0644779
0.131906
-0.0697951
0.122482
-0.0740344
0.113732
-0.0770598
0.105734
-0.0788411
0.098816
-0.0794207
0.0929242
-0.0784922
0.0874682
-0.0759957
0.0832225
-0.0721998
0.0808289
-0.0659145
0.077847
-0.0561863
0.0730294
-0.044935
0.0713525
-0.0328138
0.0788331
-0.0152737
0.0962802
0.0118648
0.117725
0.0438481
0.138044
0.0711522
0.155157
0.0886051
0.170937
0.101494
0.189011
0.123693
0.209116
0.161846
0.224341
0.200305
0.227421
0.207994
0.217962
0.161526
0.20079
0.066415
0.181349
-0.0410477
0.16335
-0.121903
0.149112
-0.161618
0.137274
-0.17119
0.12717
-0.171784
0.119673
-0.166429
0.112895
-0.149365
0.104305
-0.125199
0.0989327
-0.10345
0.10513
-0.0757954
0.123818
-0.0270938
0.148118
0.0560684
0.169046
0.166945
0.182184
0.278219
0.18476
0.344081
0.176414
0.314764
0.16061
0.18564
0.148246
-0.00554353
0.144537
-0.142684
0.138264
-0.199833
0.126896
-0.23357
0.117324
-0.249789
0.121352
-0.220391
0.130942
-0.0492217
0.138506
0.126039
0.145011
0.301344
0.142606
0.35374
0.14191
0.212327
0.13534
0.0977972
0.12012
-0.182006
0.121758
-0.307058
-0.0504429
0.161585
-0.0392461
0.153711
-0.0449324
0.145167
-0.0500539
0.136325
-0.0556355
0.127445
-0.0609152
0.118851
-0.0654407
0.110877
-0.0690855
0.103685
-0.0716493
0.0972927
-0.0730281
0.0919888
-0.0731883
0.0876684
-0.0716753
0.083946
-0.0684773
0.0817362
-0.0637047
0.0814676
-0.0559177
0.0809651
-0.0444325
0.0795701
-0.0314188
0.0815801
-0.0172837
0.0918804
0.00156458
0.108523
0.0272053
0.1273
0.0523757
0.144379
0.0715254
0.160348
0.0855256
0.178701
0.10534
0.199837
0.14071
0.217634
0.182508
0.224159
0.201469
0.216717
0.168968
0.19999
0.0831421
0.180409
-0.0214669
0.161982
-0.103476
0.147246
-0.146883
0.135291
-0.159234
0.124977
-0.161471
0.117645
-0.159096
0.112783
-0.144503
0.106231
-0.118647
0.0997894
-0.0970086
0.102377
-0.0783834
0.118837
-0.0435538
0.144405
0.0305003
0.16901
0.14234
0.186062
0.261167
0.191713
0.33843
0.185281
0.321197
0.168952
0.201969
0.153027
0.0103813
0.147042
-0.136699
0.140815
-0.193605
0.129145
-0.2219
0.117999
-0.238643
0.121493
-0.223885
0.132602
-0.0603307
0.141312
0.117329
0.148716
0.29394
0.146432
0.356023
0.146241
0.212519
0.140979
0.103059
0.125487
-0.166514
0.12631
-0.307881
-0.0559174
0.152059
-0.0338186
0.14525
-0.0381229
0.137965
-0.042769
0.13024
-0.0479099
0.122436
-0.0531112
0.114925
-0.0579303
0.107893
-0.0620539
0.101524
-0.0652796
0.0958543
-0.0673586
0.090914
-0.068248
0.0869723
-0.0677336
0.0838763
-0.0653813
0.0815279
-0.0613564
0.0809976
-0.0553873
0.0824966
-0.0459315
0.0841843
-0.0331065
0.08587
-0.0189694
0.0907168
-0.00328227
0.101606
0.0163162
0.115792
0.0381894
0.130428
0.0568898
0.145173
0.0707799
0.162236
0.0882772
0.183244
0.119702
0.204105
0.161647
0.214371
0.191203
0.209935
0.173404
0.197192
0.0958853
0.180172
-0.00444699
0.161431
-0.0847351
0.145819
-0.131271
0.133636
-0.147051
0.123151
-0.150986
0.115527
-0.151472
0.111876
-0.140851
0.107612
-0.114383
0.101111
-0.0905078
0.100441
-0.0777132
0.113303
-0.0564159
0.138214
0.00558985
0.165047
0.115507
0.186166
0.240049
0.196242
0.328355
0.192907
0.324532
0.177128
0.217748
0.158731
0.0287779
0.149674
-0.127642
0.143348
-0.187279
0.131618
-0.210169
0.119091
-0.226116
0.121577
-0.22637
0.133907
-0.0726608
0.143803
0.107433
0.152121
0.285621
0.150087
0.358058
0.150483
0.212122
0.146709
0.106833
0.131253
-0.151059
0.131102
-0.30773
-0.0617748
0.201234
-0.0292369
-0.205815
0.197499
-0.0343887
0.193632
-0.0389012
0.189217
-0.0434949
0.184163
-0.0480576
0.178577
-0.0523442
0.17258
-0.0560566
0.16625
-0.0589499
0.159669
-0.0607781
0.152851
-0.0614292
0.145865
-0.0607477
0.138923
-0.0584399
0.131952
-0.0543855
0.125047
-0.048482
0.118897
-0.0397816
0.113704
-0.0279136
0.108846
-0.0141105
0.104659
0.000904804
0.102621
0.0183542
0.104309
0.0365009
0.109756
0.0514427
0.118132
0.0624045
0.128524
0.0778846
0.140353
0.107873
0.151747
0.150253
0.162409
0.180541
0.17733
0.158483
0.193648
0.0795678
0.201376
-0.0121751
0.19841
-0.0817695
0.188971
-0.121832
0.177091
-0.13517
0.164618
-0.138513
0.152808
-0.139662
0.143667
-0.131711
0.134206
-0.104922
0.122471
-0.0787728
0.115004
-0.070246
0.118215
-0.0596276
0.130696
-0.00689125
0.143451
0.102752
0.154486
0.229014
0.163182
0.319659
0.169094
0.31862
0.170191
0.216651
0.166143
0.0328265
0.163618
-0.125118
0.15809
-0.181751
0.146168
-0.198246
0.130577
-0.210526
0.125762
-0.221555
0.129636
-0.076535
0.132109
0.104959
0.136869
0.280862
0.137131
0.357795
0.141126
0.208128
0.141468
0.106491
0.128263
-0.137854
0.12476
-0.304226
-0.065188
0.209228
-0.0255847
-0.21288
0.205294
-0.0304545
0.201266
-0.0348732
0.196787
-0.0390165
0.19174
-0.04301
0.186131
-0.046735
0.180063
-0.0499891
0.173655
-0.052542
0.167024
-0.0541468
0.160311
-0.0547166
0.153601
-0.0540379
0.147066
-0.0519041
0.140914
-0.0482343
0.135177
-0.0427447
0.130065
-0.03467
0.126133
-0.0239813
0.123199
-0.0111765
0.120504
0.00359995
0.118063
0.0207954
0.116961
0.0376028
0.11876
0.0496432
0.12433
0.0568352
0.133385
0.0688293
0.144212
0.0970459
0.155059
0.139406
0.169084
0.166516
0.18971
0.137858
0.208731
0.0605463
0.215629
-0.019073
0.210447
-0.076587
0.199153
-0.110539
0.18643
-0.122447
0.173854
-0.125938
0.161848
-0.127656
0.152952
-0.122815
0.144959
-0.0969288
0.134041
-0.0678544
0.125144
-0.0613492
0.126638
-0.0611219
0.139339
-0.0195926
0.154076
0.0880148
0.167496
0.215594
0.178671
0.308483
0.186602
0.31069
0.188425
0.214827
0.183524
0.0377274
0.17856
-0.120154
0.171546
-0.174737
0.158533
-0.185232
0.141036
-0.193029
0.135556
-0.216076
0.140524
-0.0815026
0.143538
0.101945
0.148756
0.275644
0.14932
0.357231
0.153957
0.203491
0.155619
0.10483
0.141702
-0.123938
0.136822
-0.299346
-0.0684923
0.217338
-0.0227123
-0.22021
0.213816
-0.0269323
0.209943
-0.0310004
0.205695
-0.0347683
0.200981
-0.0382963
0.19578
-0.0415337
0.190144
-0.0443536
0.184189
-0.0465871
0.178025
-0.0479825
0.171747
-0.0484382
0.165451
-0.0477419
0.159238
-0.0456918
0.153237
-0.0422328
0.147639
-0.0371471
0.142713
-0.0297439
0.138965
-0.0202332
0.136857
-0.00906827
0.135896
0.00456119
0.135256
0.0214354
0.134676
0.0381822
0.134908
0.0494114
0.136858
0.0548857
0.140983
0.0647045
0.147623
0.0904054
0.159172
0.127857
0.179897
0.14579
0.20627
0.111485
0.225273
0.041543
0.229787
-0.0235865
0.222753
-0.0695537
0.210878
-0.0986629
0.198238
-0.109807
0.185889
-0.113588
0.173491
-0.115258
0.164169
-0.113493