/*--------------------------------*- C++ -*----------------------------------*\
| =========                 |                                                 |
| \\      /  F ield         | OpenFOAM: The Open Source CFD Toolbox           |
|  \\    /   O peration     | Version:  2312                                  |
|   \\  /    A nd           | Website:  www.openfoam.com                      |
|    \\/     M anipulation  |                                                 |
\*---------------------------------------------------------------------------*/
FoamFile
{
    version     2.0;
    format      ascii;
    arch        "LSB;label=32;scalar=64";
    class       volScalarField;
    location    "69.5";
    object      p;
}
// * * * * * * * * * * * * * * * * * * * * * * * * * * * * * * * * * * * * * //

dimensions      [0 2 -2 0 0 0 0];

internalField   nonuniform List<scalar> 
5478
(
-0.398519
-0.396516
-0.389726
-0.380392
-0.37234
-0.36723
-0.366153
-0.367952
-0.370001
-0.369132
-0.363078
-0.349392
-0.33068
-0.304234
-0.273781
-0.406751
-0.404278
-0.39821
-0.390439
-0.382347
-0.3748
-0.367965
-0.36116
-0.352969
-0.342105
-0.327712
-0.310359
-0.290192
-0.266847
-0.2431
-0.420612
-0.416446
-0.410204
-0.402202
-0.3922
-0.379927
-0.365993
-0.350935
-0.334955
-0.317991
-0.300145
-0.281003
-0.260599
-0.238993
-0.216662
-0.439075
-0.432435
-0.424465
-0.414373
-0.399831
-0.381172
-0.360423
-0.339249
-0.318368
-0.297928
-0.277557
-0.257212
-0.236854
-0.216306
-0.196781
-0.46276
-0.452464
-0.441933
-0.426866
-0.4051
-0.379365
-0.352849
-0.327195
-0.302947
-0.280013
-0.258252
-0.237371
-0.217017
-0.197409
-0.178236
-0.492647
-0.47674
-0.462083
-0.438524
-0.407603
-0.374843
-0.34339
-0.314288
-0.287604
-0.26309
-0.240312
-0.218943
-0.198819
-0.179733
-0.161372
-0.527303
-0.504975
-0.481362
-0.446262
-0.405846
-0.366689
-0.331051
-0.299152
-0.270607
-0.244877
-0.221523
-0.20017
-0.18046
-0.162202
-0.144595
-0.559554
-0.532802
-0.495315
-0.446988
-0.39783
-0.353211
-0.314116
-0.280051
-0.250213
-0.223876
-0.200395
-0.179337
-0.160438
-0.14326
-0.127217
-0.413059
-0.413532
-0.414437
-0.4187
-0.426848
-0.439274
-0.456434
-0.478553
-0.505354
-0.535767
-0.567881
-0.598799
-0.624916
-0.643616
-0.647426
-0.419385
-0.417828
-0.418175
-0.422422
-0.431182
-0.445109
-0.464966
-0.491173
-0.523594
-0.560891
-0.600894
-0.640146
-0.673855
-0.700185
-0.70735
-0.422367
-0.418753
-0.418141
-0.4213
-0.429089
-0.442287
-0.461704
-0.487788
-0.520325
-0.557945
-0.597878
-0.637601
-0.670785
-0.696922
-0.704566
-0.420947
-0.415764
-0.41339
-0.414011
-0.418871
-0.428977
-0.445067
-0.467515
-0.496049
-0.529668
-0.56585
-0.600768
-0.629639
-0.651774
-0.653916
-0.415682
-0.409899
-0.405316
-0.402091
-0.40227
-0.407449
-0.418566
-0.436033
-0.459368
-0.487705
-0.517871
-0.551157
-0.575462
-0.589143
-0.579953
-0.408401
-0.403187
-0.396687
-0.389428
-0.384491
-0.384401
-0.390741
-0.404302
-0.424636
-0.45054
-0.477174
-0.502323
-0.51659
-0.518026
-0.495916
-0.401349
-0.39748
-0.389893
-0.379822
-0.371208
-0.367593
-0.371217
-0.382743
-0.400472
-0.420918
-0.439288
-0.451863
-0.45216
-0.440665
-0.410508
-0.397053
-0.394501
-0.386872
-0.376132
-0.366603
-0.362163
-0.364421
-0.372666
-0.384415
-0.395107
-0.401547
-0.398819
-0.38602
-0.364505
-0.334617
-0.629931
-0.574289
-0.484676
-0.385072
-0.299452
-0.246539
-0.233546
-0.271262
-0.329366
-0.339139
-0.276524
-0.195858
-0.136944
-0.109964
-0.105989
-0.134487
-0.179852
-0.192157
-0.155167
-0.116278
-0.0934874
-0.0810604
-0.081012
-0.0709806
-0.0665721
-0.0790542
-0.083463
-0.0710958
-0.0645173
-0.072645
-0.0837762
-0.0652784
-0.0297257
-0.0185609
-0.0100699
-0.00193269
-0.00126435
-0.000589795
-0.690837
-0.630542
-0.52898
-0.41116
-0.306924
-0.235358
-0.201564
-0.214481
-0.260173
-0.277689
-0.234079
-0.16976
-0.127075
-0.114192
-0.124183
-0.167798
-0.226677
-0.245173
-0.196531
-0.138138
-0.100531
-0.0800231
-0.0713732
-0.0568432
-0.0530099
-0.0680173
-0.0757949
-0.0684769
-0.0636609
-0.0720884
-0.0844121
-0.0652333
-0.0255574
-0.0127933
-0.00723515
-0.00641964
-0.0078477
-0.00263384
-0.685519
-0.62865
-0.531744
-0.411269
-0.298684
-0.214815
-0.166268
-0.15319
-0.17955
-0.204435
-0.180397
-0.133922
-0.108979
-0.111464
-0.135012
-0.190427
-0.257938
-0.283442
-0.231243
-0.157679
-0.106535
-0.0803908
-0.0664531
-0.0475809
-0.0412676
-0.0569764
-0.0681839
-0.0659909
-0.0629602
-0.0719094
-0.0851433
-0.0652634
-0.021969
-0.00739097
-0.00448885
-0.0113039
-0.0147574
-0.00481781
-0.624033
-0.576921
-0.493869
-0.382121
-0.27717
-0.19484
-0.137259
-0.105193
-0.106462
-0.123155
-0.115035
-0.0866771
-0.0805231
-0.0978329
-0.132958
-0.196083
-0.27097
-0.304562
-0.255069
-0.173449
-0.110944
-0.0806097
-0.0643189
-0.04277
-0.0329456
-0.0483953
-0.0618459
-0.0637488
-0.0621522
-0.0718493
-0.0857201
-0.0652459
-0.0190981
-0.0025359
-0.0019268
-0.0164901
-0.0218124
-0.00711653
-0.535652
-0.495895
-0.4323
-0.340397
-0.249904
-0.176773
-0.120671
-0.0769502
-0.0554327
-0.0564669
-0.0518986
-0.0362339
-0.0420893
-0.0740511
-0.118261
-0.185378
-0.267527
-0.307921
-0.270996
-0.186951
-0.115164
-0.0810869
-0.0637093
-0.0416922
-0.0286959
-0.0417023
-0.056417
-0.0613532
-0.061283
-0.0719616
-0.0863255
-0.0653268
-0.0170795
0.00166384
0.000549146
-0.0218822
-0.0290882
-0.00951315
-0.44319
-0.412084
-0.36662
-0.29873
-0.22786
-0.164535
-0.113548
-0.0678709
-0.0316814
-0.0186037
-0.0119167
0.000315129
-0.00802625
-0.0445015
-0.0938027
-0.161291
-0.24296
-0.29379
-0.26685
-0.191604
-0.117144
-0.08054
-0.0630252
-0.0432036
-0.0276073
-0.03847
-0.0521991
-0.0590142
-0.0602278
-0.0719584
-0.0867535
-0.0656891
-0.016171
0.00516302
0.00279596
-0.0273559
-0.0401886
-0.0119747
-0.361553
-0.342465
-0.312383
-0.26381
-0.210064
-0.154869
-0.106702
-0.0632962
-0.0229837
0.00240439
0.0128554
0.0200323
0.0129941
-0.0200978
-0.0655094
-0.129292
-0.21671
-0.276039
-0.26553
-0.195865
-0.121249
-0.0804594
-0.0620392
-0.0463538
-0.0296029
-0.0354454
-0.047556
-0.0562748
-0.0593487
-0.0723134
-0.0874367
-0.0659487
-0.0165403
0.00773695
0.00509831
-0.0326231
-0.0466089
-0.0143769
-0.309375
-0.300095
-0.278245
-0.243959
-0.205871
-0.161942
-0.117766
-0.0772256
-0.0355136
-0.0022387
0.0122224
0.0229491
0.0206903
-0.00471254
-0.0412572
-0.0933193
-0.169201
-0.228942
-0.233463
-0.185207
-0.122254
-0.0811572
-0.0606283
-0.045971
-0.0316692
-0.0367467
-0.0436762
-0.0538019
-0.0581132
-0.0718033
-0.0873252
-0.0643345
-0.016177
0.00933102
0.00706584
-0.0375119
-0.0524605
-0.0165738
-0.268871
-0.273431
-0.249752
-0.214284
-0.177
-0.138351
-0.0990973
-0.0627378
-0.0248933
0.00808601
0.0238296
0.0295168
0.029682
0.0263438
-0.0018369
-0.0543495
-0.13246
-0.199824
-0.214525
-0.165088
-0.10954
-0.0728509
-0.0551076
-0.0432017
-0.0302707
-0.0191602
-0.0371103
-0.0500997
-0.0566656
-0.0722771
-0.0892341
-0.0626954
-0.014067
0.011133
0.00936359
-0.0414353
-0.0583255
-0.0185172
-0.216294
-0.224936
-0.206357
-0.174903
-0.142385
-0.110242
-0.0784176
-0.0481066
-0.0168876
0.00971606
0.0250353
0.0318069
0.0357624
0.0366156
0.0224827
-0.0288359
-0.105327
-0.173197
-0.180062
-0.1383
-0.0938386
-0.0643681
-0.0483885
-0.0395707
-0.0291717
-0.0260107
-0.0341717
-0.0477386
-0.0555146
-0.0719499
-0.0862205
-0.060482
-0.012163
0.0116901
0.00990696
-0.0451745
-0.0638871
-0.020281
-0.176704
-0.18685
-0.174249
-0.148846
-0.121582
-0.0944098
-0.0666448
-0.0408454
-0.0128043
0.0127518
0.028766
0.0387951
0.0505882
0.0584256
0.0506242
-0.00583484
-0.079822
-0.137714
-0.141886
-0.110601
-0.0777679
-0.0554094
-0.0416272
-0.0354425
-0.0281562
-0.0239044
-0.0320544
-0.0466523
-0.0544243
-0.0700194
-0.0822408
-0.0572269
-0.0108668
0.0114171
0.00913999
-0.0489893
-0.0689108
-0.0219119
-0.144545
-0.152371
-0.14357
-0.123061
-0.0993589
-0.0755257
-0.051733
-0.0297414
-0.00663681
0.0156842
0.0310527
0.0422445
0.0536324
0.0725396
0.0732634
0.0229374
-0.0466078
-0.0960109
-0.101061
-0.0801865
-0.0594477
-0.0448914
-0.0336784
-0.0294109
-0.0269484
-0.0235643
-0.030993
-0.0457843
-0.0528836
-0.0663809
-0.0758252
-0.0518428
-0.00963079
0.00992379
0.00746082
-0.0522316
-0.0729167
-0.0232576
-0.113774
-0.121006
-0.115521
-0.0996576
-0.0803099
-0.0608676
-0.0413697
-0.0229992
-0.00380266
0.0161323
0.0315313
0.0439126
0.0573395
0.0765695
0.0820787
0.0464936
-0.0119526
-0.0534061
-0.0635168
-0.0540232
-0.0424664
-0.0341452
-0.0248341
-0.0208614
-0.0242827
-0.0215285
-0.0299098
-0.0443692
-0.0502648
-0.060021
-0.0666665
-0.0446986
-0.00834338
0.00731603
0.00515501
-0.0541666
-0.0751976
-0.024104
-0.0874745
-0.0948246
-0.0913783
-0.079232
-0.0637494
-0.0478458
-0.0317967
-0.0160956
2.90615e-05
0.0169901
0.0314424
0.043599
0.0566408
0.0718678
0.0780435
0.0572127
0.013692
-0.0211072
-0.0338057
-0.0315951
-0.0259443
-0.0227144
-0.0150361
-0.00931298
-0.0185322
-0.0163046
-0.0265771
-0.0407468
-0.04547
-0.0507861
-0.0543992
-0.035442
-0.00665049
0.00394456
0.00240652
-0.0540557
-0.0749807
-0.0242171
-0.0663587
-0.0722658
-0.0700688
-0.0610172
-0.0488624
-0.0360029
-0.0229722
-0.0100078
0.00313571
0.0169934
0.0296742
0.0409435
0.0521894
0.063207
0.0680792
0.0564183
0.0270589
0.000521581
-0.0115588
-0.0139361
-0.0122622
-0.0114968
-0.00499773
0.00302336
-0.00737128
-0.0058426
-0.0184523
-0.0320017
-0.0368652
-0.0389406
-0.0399037
-0.0243284
-0.00435634
0.000618936
0.000134645
-0.0510788
-0.0717202
-0.023409
-0.0470414
-0.052206
-0.0513981
-0.0449421
-0.0355898
-0.0253922
-0.0150458
-0.00464722
0.00598607
0.0170905
0.0278816
0.0374886
0.046438
0.0542123
0.0573447
0.050886
0.0327337
0.0135618
0.00335325
-0.000130161
-0.000652451
-9.78986e-05
0.00597533
0.0142374
0.00905021
0.0131136
-0.00126003
-0.0168348
-0.025069
-0.0259565
-0.0244661
-0.0118398
-0.000527012
-0.00193091
-0.00114335
-0.0445957
-0.0645149
-0.0214307
-0.030345
-0.0352848
-0.0353223
-0.0307255
-0.0236482
-0.0157676
-0.00772031
0.000398723
0.00876339
0.017407
0.0260132
0.0338161
0.0406437
0.0461681
0.0482589
0.0447054
0.0342875
0.0215174
0.0139888
0.0106369
0.00887015
0.0102105
0.0159857
0.0231682
0.0274459
0.0378497
0.0231287
0.00139667
-0.0116538
-0.0128859
-0.009713
0.000926764
0.00506446
-0.00215126
-0.000358422
-0.0341081
-0.053526
-0.0183291
-0.0163604
-0.0207548
-0.0213237
-0.0181732
-0.0129472
-0.00701781
-0.000913637
0.00524154
0.0116213
0.0181434
0.0246777
0.0307327
0.0358409
0.0398382
0.0414241
0.0395966
0.0340984
0.0262116
0.0206281
0.0183896
0.0167702
0.0188027
0.0245479
0.030638
0.0404756
0.0524444
0.0432156
0.0180435
0.00192694
-0.00083486
0.00359471
0.0134064
0.0127439
0.00240506
0.00455551
-0.0207348
-0.0410695
-0.0145074
-0.00421163
-0.00801925
-0.00897003
-0.00705278
-0.00338881
0.00093404
0.00543902
0.00998247
0.0146581
0.0194506
0.0242162
0.0287241
0.0324867
0.0353862
0.0367889
0.0360729
0.0334433
0.0290361
0.025432
0.0242444
0.0233577
0.025263
0.03071
0.0359462
0.0454617
0.0551474
0.0529294
0.0300086
0.013762
0.00995946
0.0144113
0.0240042
0.0222599
0.0123784
0.0137242
-0.00611151
-0.0282376
-0.0103327
0.00643836
0.00302402
0.00175089
0.00272501
0.00517182
0.00821595
0.0114089
0.0146215
0.0179032
0.0212808
0.0246408
0.0278601
0.0305971
0.0327177
0.0339521
0.0338783
0.0328129
0.0307343
0.0286079
0.028191
0.0280928
0.0296553
0.034352
0.0388229
0.045164
0.0525409
0.0531994
0.036221
0.0223809
0.0183932
0.022193
0.0311971
0.0317627
0.0253322
0.0254505
0.00787752
-0.0156637
-0.00633035
0.0158394
0.0127196
0.0112285
0.0115089
0.0130004
0.0150216
0.0171838
0.019359
0.0215534
0.0238176
0.0260807
0.0282756
0.0302106
0.0317552
0.0328181
0.0331298
0.032902
0.0320929
0.0312127
0.0311953
0.0317069
0.0329952
0.0365865
0.0401807
0.0439061
0.0487796
0.0498205
0.0388889
0.0283523
0.0254143
0.0277873
0.0350944
0.0382061
0.0372608
0.0355618
0.0185654
-0.00476545
-0.00274557
0.0236872
0.0209102
0.0193646
0.0191779
0.0199482
0.0211623
0.0224939
0.0238259
0.0251541
0.026525
0.027915
0.0292833
0.0305342
0.0315546
0.0323409
0.032749
0.0328921
0.032837
0.0326194
0.032878
0.0335566
0.0346348
0.0370828
0.0397657
0.0421249
0.0446542
0.045301
0.0389752
0.0315196
0.0287328
0.0303098
0.0360053
0.0398405
0.037222
0.0393952
0.0240363
0.00315542
-3.90268e-05
0.0310782
0.028631
0.0270705
0.0265414
0.0267783
0.0273962
0.0281201
0.0288385
0.0295402
0.0302663
0.0310264
0.0318033
0.032557
0.033218
0.0337971
0.0341909
0.0344337
0.0344817
0.0344799
0.0348389
0.0355384
0.0364189
0.0379261
0.0396255
0.0409223
0.0420618
0.0421136
0.0388815
0.0340392
0.0319837
0.0328066
0.0362371
0.0396194
0.0384504
0.0381408
0.0255088
0.00805471
0.00185465
0.0368104
0.0345447
0.0329452
0.0321458
0.031956
0.0320797
0.0322938
0.0324973
0.0326791
0.0328686
0.0330962
0.0333516
0.0336341
0.0338859
0.0341371
0.0343294
0.0345092
0.034688
0.0348912
0.0351599
0.0356923
0.0363209
0.0373471
0.0383392
0.0390367
0.0395564
0.0392286
0.0374456
0.0343721
0.032775
0.0332099
0.0350377
0.0365831
0.0358887
0.0341582
0.0242089
0.010059
0.00273499
0.0433883
0.0414619
0.0399527
0.0390043
0.0385176
0.0382909
0.0381525
0.0380107
0.0378502
0.0376913
0.0375679
0.0374811
0.0374383
0.0374086
0.0374135
0.0374175
0.0374445
0.0374492
0.0374963
0.0375492
0.0377445
0.0379719
0.0383274
0.0387615
0.0389998
0.038978
0.0383411
0.0372491
0.0353042
0.0340149
0.0335884
0.0339941
0.0347143
0.0332479
0.03042
0.0225193
0.0111
0.00338539
0.0467623
0.0448883
0.043376
0.0423182
0.0416233
0.0411254
0.0406909
0.0402432
0.0397743
0.0392964
0.0388494
0.0384334
0.0380742
0.0377429
0.0374773
0.0372381
0.0370744
0.0369286
0.0368583
0.0368304
0.0368749
0.0369756
0.0370734
0.0372506
0.0371874
0.0370857
0.0364243
0.0356169
0.0342497
0.0330727
0.0325838
0.0322439
0.0320099
0.0299831
0.0265718
0.0200657
0.0107012
0.0032917
0.0532241
0.0517656
0.0503838
0.04922
0.0482845
0.0475094
0.0468139
0.0461354
0.0454558
0.0447732
0.0441144
0.0434771
0.0428857
0.0423156
0.0418049
0.0413164
0.0408995
0.0404853
0.0401334
0.0397674
0.0394676
0.0391649
0.0388708
0.0385669
0.0380922
0.0376353
0.0367797
0.0359424
0.0347203
0.0335341
0.0325219
0.0313182
0.030266
0.0277992
0.0240853
0.0184988
0.010672
0.00348146
0.0541838
0.0526088
0.0512521
0.050145
0.0492274
0.0484016
0.0475984
0.0467709
0.0459258
0.0450637
0.0442266
0.0434032
0.0426348
0.0418859
0.0412081
0.040557
0.0399806
0.0394362
0.0389366
0.0384938
0.0380461
0.0377044
0.0372614
0.0369463
0.0363949
0.0359068
0.0351096
0.0342225
0.0332094
0.0319152
0.0308826
0.0293591
0.0277983
0.025227
0.0213744
0.0164563
0.00980378
0.00315084
0.0600352
0.0588522
0.0576109
0.0564007
0.0552617
0.0541867
0.0531598
0.0521477
0.0511502
0.0501467
0.0491662
0.048185
0.0472433
0.0463049
0.0454174
0.0445467
0.0437256
0.0429385
0.0421628
0.0414466
0.0406847
0.0400218
0.0392478
0.0385763
0.0377303
0.0369282
0.0359408
0.0348548
0.0336795
0.0322028
0.0308111
0.0289079
0.0268712
0.0241044
0.0202246
0.0156085
0.00967243
0.00324863
0.0595693
0.0583367
0.0571704
0.0560641
0.0549981
0.0539456
0.0528901
0.0518259
0.050751
0.0496803
0.0486125
0.0475699
0.0465392
0.0455468
0.0445702
0.0436434
0.0427351
0.0418848
0.0410457
0.0402658
0.0394803
0.0387451
0.037984
0.0372311
0.0364345
0.0355581
0.03464
0.0335152
0.0323717
0.0309048
0.02937
0.0274789
0.0251551
0.0224044
0.0186452
0.0142148
0.00894533
0.0030127
0.0626279
0.0615286
0.0603818
0.0592079
0.0580351
0.0568606
0.0557043
0.0545448
0.0534054
0.0522585
0.0511332
0.0500072
0.0489014
0.0478163
0.0467368
0.0457166
0.0446684
0.0437277
0.0427158
0.0418397
0.0408761
0.0400074
0.0391069
0.0381577
0.0372915
0.0361833
0.0352208
0.0339255
0.0326566
0.0311385
0.0293501
0.0274266
0.0248817
0.022052
0.0183619
0.0139258
0.00889868
0.00307007
-0.111747
-0.126439
-0.14218
-0.157173
-0.176121
-0.192551
-0.215187
-0.238212
-0.0960457
-0.10755
-0.120622
-0.132708
-0.148004
-0.160494
-0.174035
-0.189954
-0.0802597
-0.0888995
-0.0986582
-0.108094
-0.118599
-0.127358
-0.136363
-0.151322
-0.0655599
-0.0720026
-0.0789014
-0.0861321
-0.0934872
-0.101566
-0.111789
-0.126084
-0.0517247
-0.0565208
-0.0614715
-0.0675717
-0.0744698
-0.0832357
-0.091808
-0.100558
-0.0389576
-0.0426344
-0.0465586
-0.0521175
-0.0581079
-0.0640215
-0.0687079
-0.0753439
-0.0271646
-0.029992
-0.0329987
-0.0370638
-0.0408424
-0.0445712
-0.0491357
-0.0564191
-0.0161921
-0.0181814
-0.0201743
-0.0228985
-0.0258884
-0.0299034
-0.0346639
-0.0398806
-0.00593217
-0.00727878
-0.00873298
-0.0110892
-0.0140947
-0.0174804
-0.0204556
-0.0241044
0.00349742
0.00248994
0.00127064
-0.000721155
-0.00295774
-0.00518458
-0.00745656
-0.0109453
0.0121299
0.0113543
0.0104277
0.00900381
0.00736753
0.00547469
0.00321829
0.000146842
0.0201344
0.0195305
0.0188346
0.0177037
0.0162259
0.0144242
0.0124728
0.0100225
0.0275611
0.0269988
0.0263503
0.0253233
0.024024
0.0225569
0.0210117
0.0189417
0.0343051
0.0337262
0.0330817
0.0321795
0.0310837
0.0298014
0.0283434
0.0264049
0.0406957
0.0400419
0.0394006
0.0385932
0.0375985
0.0364073
0.0350711
0.0333836
0.0461414
0.0454926
0.0448029
0.0439391
0.0429225
0.0417635
0.0404872
0.0389117
0.0520686
0.0511778
0.0503239
0.0494428
0.0485148
0.0475002
0.0464062
0.0450966
0.0560683
0.0552654
0.054425
0.0534781
0.0524238
0.0512573
0.049989
0.0485285
0.0615188
0.0603907
0.0592997
0.0582543
0.0572636
0.0563087
0.0553912
0.054418
0.0640945
0.0630968
0.0620671
0.0609754
0.0598178
0.0585709
0.0572328
0.0557715
0.0686159
0.0673421
0.0661048
0.0649335
0.0638531
0.0628554
0.0619363
0.0610328
0.0697495
0.068516
0.0672793
0.0660235
0.0647537
0.0634608
0.0621591
0.0608508
0.0718657
0.0705616
0.069302
0.0680886
0.0669258
0.0658081
0.0647328
0.0636794
0.0547808
0.0570072
0.0579248
0.0569195
0.0536667
0.0482132
0.0404055
0.0295754
0.0145664
-0.00623247
-0.0349877
-0.0746647
-0.130082
-0.204872
-0.270435
0.0312415
0.0306953
0.0271522
0.0216208
0.0142957
0.00480547
-0.00749472
-0.0235224
-0.0445188
-0.072156
-0.108709
-0.157123
-0.221831
-0.307914
-0.374766
0.0087592
0.00457549
-0.00329444
-0.0127718
-0.0236623
-0.0367904
-0.0531244
-0.0736986
-0.0997921
-0.133149
-0.176176
-0.231762
-0.3036
-0.39605
-0.460181
-0.0149529
-0.0224992
-0.0334197
-0.0456674
-0.0593947
-0.075674
-0.0955096
-0.1199
-0.150098
-0.187848
-0.235858
-0.296559
-0.373363
-0.465325
-0.524793
-0.039824
-0.050051
-0.0627849
-0.0767639
-0.0926369
-0.111478
-0.134107
-0.16143
-0.194631
-0.235359
-0.286445
-0.350461
-0.428138
-0.515428
-0.56785
-0.0639474
-0.0764682
-0.0904298
-0.10575
-0.123333
-0.144105
-0.16871
-0.197981
-0.233112
-0.275656
-0.327904
-0.391909
-0.467218
-0.54631
-0.590278
-0.0870335
-0.100786
-0.115693
-0.132287
-0.151384
-0.173556
-0.199383
-0.229675
-0.265521
-0.308288
-0.3597
-0.421032
-0.490691
-0.558242
-0.59446
-0.108194
-0.122822
-0.13879
-0.156632
-0.176869
-0.199938
-0.226343
-0.256793
-0.292231
-0.333762
-0.382583
-0.438971
-0.499568
-0.552791
-0.58335
0.20612
0.220676
0.23707
0.25546
0.27583
0.298123
0.322308
0.348356
0.376163
0.405435
0.435546
0.465293
0.492634
0.513612
0.530616
0.200883
0.213932
0.228973
0.246205
0.265398
0.286296
0.308793
0.332853
0.358356
0.384936
0.411854
0.437768
0.460443
0.476023
0.487808
0.191539
0.202316
0.215474
0.231076
0.248531
0.267319
0.28722
0.308159
0.329975
0.35222
0.374012
0.393819
0.409095
0.416078
0.41999
0.178076
0.186099
0.196969
0.210416
0.22547
0.241418
0.257954
0.274924
0.292044
0.3087
0.323802
0.335581
0.34111
0.336497
0.330307
0.1607
0.165856
0.174457
0.185574
0.197692
0.209984
0.222205
0.234222
0.24565
0.25566
0.262886
0.265266
0.259476
0.241383
0.222524
0.139662
0.141553
0.147805
0.156585
0.165676
0.174089
0.181601
0.188084
0.193064
0.195543
0.193916
0.185823
0.167527
0.134731
0.101834
0.115887
0.114973
0.118886
0.124611
0.129894
0.133925
0.136508
0.137341
0.135704
0.130371
0.119519
0.100524
0.0692858
0.0215788
-0.0250217
0.0875315
0.0859944
0.0890615
0.0917609
0.0926989
0.0917683
0.0889999
0.083922
0.0755237
0.0623347
0.042312
0.0125763
-0.0313457
-0.0933433
-0.151607
0.0641237
0.0659655
0.065171
0.0664475
0.0663964
0.0682488
0.0691327
0.071532
0.0734145
0.076591
0.0798402
0.0841056
0.0888737
0.0946759
0.101143
0.108721
0.117123
0.12673
0.1373
0.149157
0.162033
0.176173
0.19129
0.0663571
0.0683124
0.0672796
0.068591
0.068328
0.0701918
0.0708862
0.0732152
0.0749467
0.0780188
0.0811012
0.0852495
0.0898539
0.0954858
0.101757
0.109093
0.117152
0.126388
0.136437
0.147755
0.159921
0.173345
0.187465
0.0685954
0.0706183
0.0693941
0.0706869
0.0702448
0.0720813
0.0726071
0.074851
0.0764202
0.0793976
0.0822823
0.0863215
0.0907453
0.0961885
0.102209
0.109239
0.116799
0.125497
0.134767
0.145244
0.156247
0.168374
0.180615
0.0708383
0.0728788
0.0715142
0.0727286
0.0721392
0.0739084
0.0742856
0.0764246
0.0778377
0.0807045
0.0833814
0.087287
0.0915141
0.096759
0.102417
0.109073
0.115956
0.123962
0.132148
0.14143
0.150709
0.160907
0.170438
0.0730831
0.0750947
0.0736306
0.0747129
0.0740077
0.07566
0.0759136
0.0779218
0.0791851
0.0819159
0.0843955
0.0881321
0.0921568
0.0971284
0.102297
0.108404
0.114462
0.121544
0.128415
0.1362
0.143319
0.151031
0.156944
0.0753243
0.0772709
0.0757284
0.0766421
0.0758491
0.0773355
0.0774712
0.0793264
0.0804475
0.0830205
0.085305
0.088872
0.0926872
0.0974143
0.101996
0.107596
0.112658
0.118769
0.123861
0.129786
0.133975
0.138701
0.140352
0.077556
0.0794109
0.0777985
0.0785211
0.0776537
0.0789343
0.078953
0.0806191
0.0816263
0.0840191
0.0861174
0.0894519
0.0929477
0.0972081
0.101124
0.105895
0.109932
0.114684
0.11813
0.121848
0.123142
0.124024
0.120908
0.0797721
0.0815185
0.0798313
0.0803393
0.07939
0.0804411
0.0803536
0.0817836
0.0826945
0.0849179
0.0868981
0.0901059
0.0933051
0.0972595
0.100487
0.104645
0.107356
0.110825
0.111616
0.11278
0.109813
0.107464
0.0978792
0.0819149
0.0835682
0.0818285
0.0821219
0.0810943
0.0818867
0.0816958
0.0828568
0.0836819
0.0856023
0.0873728
0.0901931
0.0927393
0.0960135
0.0983765
0.101344
0.102858
0.1044
0.103693
0.102132
0.0967361
0.0882647
0.0726621
0.0841002
0.0856822
0.0838853
0.0839895
0.0828509
0.0833991
0.0830819
0.0839681
0.0846387
0.0861637
0.0876187
0.0898524
0.0917279
0.0941517
0.0956887
0.0973594
0.0977851
0.0974714
0.0953914
0.0912714
0.0844454
0.0742747
0.0617269
0.086502
0.0879968
0.0861471
0.0860381
0.0847759
0.0850395
0.0845874
0.0851262
0.085599
0.0866125
0.0877157
0.0892253
0.0905003
0.0919184
0.0926942
0.0930133
0.0924162
0.0904738
0.087156
0.0815764
0.0742298
0.0645429
0.05316
0.089155
0.0905175
0.0886428
0.0882646
0.0868967
0.0868035
0.0862258
0.0863323
0.0865881
0.0870303
0.0877433
0.0885206
0.0891738
0.0895978
0.0895773
0.0887039
0.0870595
0.0839234
0.0795994
0.0734798
0.0659263
0.0566899
0.0459977
0.0920948
0.0932565
0.0913989
0.0906759
0.0892304
0.0886987
0.0879897
0.0876221
0.0875979
0.0874851
0.087721
0.0878018
0.0877792
0.0872805
0.0864246
0.0845684
0.081952
0.07803
0.073016
0.0666852
0.0591172
0.0503107
0.0402938
0.0953605
0.0962333
0.0944421
0.0933003
0.0917809
0.0907685
0.0898674
0.0890417
0.0886298
0.0880087
0.087674
0.0870893
0.086367
0.0850323
0.0833541
0.0807095
0.0773032
0.0728679
0.0674647
0.0610835
0.053714
0.0454161
0.0361242
0.0989985
0.0994769
0.097791
0.0961959
0.0945471
0.0930613
0.0918679
0.0906135
0.0897079
0.0886118
0.0876557
0.086412
0.0850093
0.0829417
0.0805151
0.0772539
0.0732956
0.0685397
0.0629968
0.0567259
0.0497229
0.0420181
0.0334909
0.10306
0.10304
0.101451
0.0994222
0.0975484
0.0956047
0.0940213
0.0923521
0.09088
0.0893037
0.0877322
0.0858374
0.0837962
0.0811161
0.0780664
0.0743502
0.0700609
0.0651552
0.0596659
0.0536473
0.0471167
0.040062
0.0323302
0.107594
0.10701
0.10543
0.103022
0.100826
0.0984254
0.0963729
0.0942728
0.0922037
0.0901144
0.0879676
0.0854706
0.0828361
0.0796646
0.0761584
0.0721353
0.0676869
0.0627839
0.0574849
0.051824
0.0458277
0.0394534
0.0325298
0.112649
0.111489
0.109767
0.107039
0.10443
0.101552
0.098974
0.0963995
0.0937356
0.0911081
0.0884296
0.0854113
0.0822517
0.0787049
0.074898
0.0707044
0.0662264
0.0614458
0.0564294
0.0511945
0.045762
0.0400701
0.0339379
0.118284
0.116575
0.114558
0.111517
0.108422
0.105023
0.101876
0.0987771
0.095538
0.092369
0.0891945
0.0857451
0.0821644
0.0783386
0.0743526
0.0701085
0.0657006
0.0611248
0.0564452
0.0516676
0.0467991
0.0417645
0.0363778
0.124579
0.122391
0.119922
0.116512
0.112866
0.108891
0.105134
0.101473
0.097682
0.0939894
0.0903528
0.0865568
0.0826613
0.0786388
0.0745635
0.070361
0.0660969
0.0617744
0.0574491
0.0531237
0.048791
0.0443688
0.0396688
0.131659
0.129071
0.126008
0.122097
0.117828
0.113216
0.108814
0.104561
0.100242
0.096059
0.0920043
0.0879173
0.0837951
0.0796465
0.0755461
0.0714414
0.0673677
0.0633207
0.0593434
0.0554347
0.0515789
0.0476941
0.0436103
0.139707
0.136772
0.132992
0.128385
0.123377
0.118063
0.11298
0.108117
0.103291
0.0986654
0.0942358
0.0898953
0.0856042
0.0813796
0.0772848
0.0732915
0.0694118
0.0656335
0.0619812
0.0584496
0.05501
0.0515714
0.0479492
0.148991
0.145688
0.141068
0.135532
0.129612
0.123507
0.117701
0.112202
0.106883
0.101856
0.0971085
0.0925651
0.088171
0.0839286
0.0798811
0.0760128
0.0723232
0.0687927
0.0654297
0.0622265
0.0591561
0.0561412
0.0530219
0.159904
0.156072
0.150423
0.143695
0.136701
0.12969
0.12307
0.116855
0.110961
0.105459
0.100335
0.0955315
0.090992
0.0866989
0.0826657
0.0788726
0.0753058
0.071939
0.0687653
0.0657698
0.0629214
0.060151
0.0573203
0.173061
0.168315
0.161154
0.15298
0.144841
0.136993
0.129664
0.12284
0.11645
0.110537
0.105081
0.10004
0.0953604
0.0910176
0.0870019
0.0832836
0.079836
0.0766272
0.0736402
0.070856
0.0682404
0.0657315
0.0632018
0.189434
0.183102
0.17342
0.162835
0.152823
0.143595
0.135207
0.12757
0.120577
0.114211
0.108418
0.103136
0.0983015
0.0938756
0.0898323
0.0861326
0.0827392
0.0796149
0.0767356
0.0740793
0.0716135
0.0692861
0.0669963
0.210089
0.201622
0.189604
0.177026
0.165318
0.154704
0.145158
0.136559
0.128784
0.121781
0.11548
0.109807
0.104685
0.100057
0.0958794
0.0921018
0.0886754
0.0855537
0.0827015
0.0800894
0.0776789
0.0754209
0.073226
0.236371
0.219919
0.201911
0.185913
0.172061
0.160031
0.149505
0.140193
0.131898
0.124504
0.117914
0.112029
0.106758
0.102032
0.0977996
0.0940112
0.0906175
0.0875687
0.0848221
0.0823415
0.0800876
0.0780167
0.0760599
0.282319
0.254991
0.229142
0.207919
0.190528
0.175796
0.163039
0.151921
0.142202
0.133691
0.12623
0.119678
0.113911
0.108823
0.104326
0.100346
0.0968107
0.093654
0.0908166
0.0882518
0.0859162
0.0837715
0.0817657
0.317131
0.269055
0.235673
0.213166
0.194966
0.179222
0.165569
0.153727
0.143479
0.134604
0.126912
0.120248
0.114468
0.109426
0.105003
0.101103
0.0976522
0.0945865
0.0918493
0.0893922
0.0871749
0.0851663
0.083335
0.475207
0.321645
0.270569
0.239871
0.214366
0.193177
0.175713
0.161369
0.149629
0.139948
0.131827
0.124883
0.118868
0.113607
0.108978
0.104884
0.101256
0.0980329
0.0951623
0.092593
0.090282
0.0881918
0.0862939
0.0522325
0.0284412
0.00708063
-0.013486
-0.035478
-0.0567036
-0.0770725
-0.0952953
0.0467395
0.02439
0.00165831
-0.0166796
-0.0346597
-0.0520814
-0.068769
-0.082847
0.0403679
0.0210969
9.56187e-05
-0.0157924
-0.0298382
-0.0437901
-0.0576561
-0.0697047
0.0343609
0.0176579
-0.000484363
-0.0145027
-0.0259344
-0.0372234
-0.0483503
-0.0576043
0.0294898
0.0149613
0.000173907
-0.0114577
-0.0205269
-0.0294201
-0.0380214
-0.0455758
0.0260528
0.0134569
0.00180834
-0.00741311
-0.0146426
-0.0217698
-0.0284131
-0.0343089
0.0241583
0.013324
0.00437791
-0.00260174
-0.0082682
-0.013925
-0.0190534
-0.0236227
0.0237844
0.0145418
0.00780211
0.00273824
-0.00161071
-0.00607717
-0.0100804
-0.0135752
0.0248115
0.0169732
0.0119612
0.00843737
0.0051948
0.00171098
-0.00141359
-0.00405384
0.0270551
0.0204248
0.0167147
0.0143662
0.0120303
0.00935125
0.00690295
0.00488847
0.0302975
0.0246781
0.0219087
0.0204105
0.0187868
0.016744
0.014799
0.0132114
0.0343388
0.0295462
0.0274142
0.0264872
0.0253974
0.0238507
0.0222886
0.0210027
0.0389945
0.0348933
0.0331513
0.0325549
0.0318408
0.0306822
0.0294167
0.0283301
0.0438251
0.0402253
0.0387674
0.0383854
0.0379156
0.0370238
0.0359719
0.0350243
0.0494992
0.0463199
0.0448614
0.0444282
0.0440554
0.04334
0.0424103
0.0414803
0.0541728
0.0513804
0.0500701
0.0496521
0.0492862
0.0486116
0.0477371
0.0468725
0.0604086
0.0577948
0.0562964
0.0556259
0.0551915
0.0546214
0.0538631
0.0529813
0.06454
0.0622406
0.060798
0.0599971
0.0593592
0.0586144
0.0577611
0.05689
0.0709083
0.0686526
0.0670111
0.0659496
0.0651937
0.0644572
0.0636073
0.0626139
0.0740628
0.0720786
0.0704454
0.0691677
0.0680961
0.0670856
0.0660819
0.0650806
0.0797593
0.0777534
0.0759902
0.0745289
0.0733005
0.072174
0.0710493
0.0698645
0.0815704
0.0797914
0.0780806
0.0764787
0.0749918
0.073596
0.07227
0.070991
0.0844694
0.0826364
0.0808551
0.0791561
0.0775514
0.0760357
0.0745946
0.073209
-0.45976
-0.467977
-0.478437
-0.492976
-0.512272
-0.534993
-0.556403
-0.570706
-0.45844
-0.464327
-0.472556
-0.484182
-0.498865
-0.515666
-0.531892
-0.54187
-0.457987
-0.461065
-0.46609
-0.473859
-0.483648
-0.492899
-0.497928
-0.494671
-0.457874
-0.457118
-0.457377
-0.458784
-0.46025
-0.459441
-0.453455
-0.439647
-0.455783
-0.449849
-0.443508
-0.436971
-0.429742
-0.420532
-0.407178
-0.387363
-0.448219
-0.436247
-0.423145
-0.409756
-0.396335
-0.381873
-0.3643
-0.341302
-0.432341
-0.414985
-0.396919
-0.379432
-0.362772
-0.345638
-0.325937
-0.301516
-0.407211
-0.386789
-0.366647
-0.347914
-0.330292
-0.312227
-0.291768
-0.267012
-0.374299
-0.35384
-0.334438
-0.316553
-0.299411
-0.281528
-0.261223
-0.236894
-0.336511
-0.318763
-0.302075
-0.286196
-0.270367
-0.253345
-0.233808
-0.210425
-0.29709
-0.283761
-0.270698
-0.257358
-0.243244
-0.227498
-0.20911
-0.187023
-0.258416
-0.250239
-0.241039
-0.23031
-0.218065
-0.20381
-0.18683
-0.166287
-0.22227
-0.21911
-0.213409
-0.205181
-0.194774
-0.182157
-0.166732
-0.147922
-0.188927
-0.190201
-0.187891
-0.182011
-0.173434
-0.162391
-0.14857
-0.131528
-0.158142
-0.16401
-0.164546
-0.160878
-0.153734
-0.144039
-0.13183
-0.116726
-0.406155
-0.401463
-0.401296
-0.406352
-0.41607
-0.428449
-0.44073
-0.4512
-0.408292
-0.404971
-0.40585
-0.411528
-0.421211
-0.432948
-0.443769
-0.452173
-0.409738
-0.40719
-0.408998
-0.415593
-0.425961
-0.437954
-0.447921
-0.454427
-0.413699
-0.411148
-0.413376
-0.42067
-0.43172
-0.444316
-0.45327
-0.457433
-0.420526
-0.416908
-0.418733
-0.426253
-0.437959
-0.45043
-0.458123
-0.459331
-0.430116
-0.423755
-0.423788
-0.430548
-0.442209
-0.453961
-0.459391
-0.456763
-0.442313
-0.430754
-0.426843