/*--------------------------------*- C++ -*----------------------------------*\
| =========                 |                                                 |
| \\      /  F ield         | OpenFOAM: The Open Source CFD Toolbox           |
|  \\    /   O peration     | Version:  2312                                  |
|   \\  /    A nd           | Website:  www.openfoam.com                      |
|    \\/     M anipulation  |                                                 |
\*---------------------------------------------------------------------------*/
FoamFile
{
    version     2.0;
    format      ascii;
    arch        "LSB;label=32;scalar=64";
    class       surfaceScalarField;
    location    "66.55";
    object      phi;
}
// * * * * * * * * * * * * * * * * * * * * * * * * * * * * * * * * * * * * * //

dimensions      [0 3 -1 0 0 0 0];

oriented        oriented;

internalField   nonuniform List<scalar> 
10785
(
-0.00147021
0.00405312
-0.00258291
-0.00237633
0.00668647
-0.00578034
-5.88293e-05
0.00458154
-0.00689904
0.00821518
-0.00354619
-0.00472782
0.0247814
-0.0186441
0.00207793
0.0502203
-0.0395181
0.0140792
0.0827202
-0.063372
0.0308721
0.119092
-0.0873664
0.0509945
0.155478
-0.109303
0.0729166
0.18883
-0.12809
0.0947373
0.215444
-0.143008
0.116394
0.235313
-0.154357
0.134489
0.247103
-0.163879
0.152089
0.252899
-0.169934
0.164137
-0.18083
0.175772
0.257957
-0.00066869
0.00472181
0.000583885
0.0054339
0.00721741
-0.00205199
0.0226019
-0.0189307
0.047382
-0.0434242
0.0786823
-0.0708184
0.111917
-0.0966068
0.142635
-0.118084
0.167788
-0.134456
0.185979
-0.14628
0.197978
-0.155008
0.206429
-0.162808
0.213224
-0.170674
0.223047
-0.179756
-0.190759
0.232976
0.00026225
0.00445956
0.00447177
0.00122438
0.0170116
-0.0145919
0.0396475
-0.0415666
0.0687653
-0.0725419
0.0984348
-0.100488
0.123825
-0.121997
0.142701
-0.13696
0.155437
-0.147191
0.16427
-0.155113
0.172037
-0.162775
0.180113
-0.170884
0.189042
-0.179603
0.19741
-0.188125
-0.196664
0.203315
0.00122263
0.00323693
0.00923847
-0.00679146
0.0280924
-0.0334458
0.054595
-0.0680692
0.0813603
-0.0993072
0.103049
-0.122176
0.118174
-0.137122
0.128232
-0.147018
0.135812
-0.154771
0.142879
-0.16218
0.14978
-0.169677
0.156302
-0.177406
0.161918
-0.185219
0.167214
-0.193421
-0.202766
0.173316
0.00244883
0.000788096
0.0150409
-0.0193836
0.0379835
-0.0563884
0.0626206
-0.0927064
0.0823144
-0.119001
0.0955819
-0.135444
0.104213
-0.145753
0.110575
-0.15338
0.116058
-0.160254
0.120949
-0.167071
0.125465
-0.174192
0.12982
-0.181762
0.134405
-0.189803
0.139463
-0.198479
-0.207104
0.143801
0.00416818
-0.00338009
0.0207704
-0.0359858
0.043307
-0.0789249
0.0623017
-0.111701
0.0749813
-0.131681
0.0827854
-0.143248
0.0879292
-0.150897
0.0918412
-0.157292
0.0951824
-0.163595
0.0983936
-0.170283
0.101635
-0.177434
0.104871
-0.184998
0.108018
-0.19295
0.110734
-0.201194
-0.20987
0.1135
0.00628425
-0.00966434
0.0245609
-0.0542624
0.0431911
-0.0975551
0.0561866
-0.124697
0.0637556
-0.13925
0.0680091
-0.147501
0.070687
-0.153575
0.0727543
-0.159359
0.0746331
-0.165474
0.0763594
-0.172009
0.0779001
-0.178975
0.0793011
-0.186399
0.0805865
-0.194236
0.0819807
-0.202589
-0.211139
0.0832494
0.00818805
-0.0178524
0.0251909
-0.0712653
0.0390333
-0.111397
0.0470604
-0.132724
0.0509096
-0.143099
0.052645
-0.149237
0.0535208
-0.154451
0.0540317
-0.15987
0.054277
-0.16572
0.0543188
-0.172051
0.0542195
-0.178875
0.0540049
-0.186184
0.0537765
-0.194007
0.0533905
-0.202203
0.0530037
-0.210752
-0.00214864
-0.00312082
0.00526945
-0.00635498
-0.000205386
0.00441173
-0.0119472
0.00491882
0.00067337
-0.0185923
0.00996275
-0.00331758
-0.0259341
0.0153554
-0.0080136
-0.0336929
0.0218198
-0.0140609
-0.0414817
0.0295964
-0.0218076
-0.0487347
0.0386082
-0.0313553
-0.0546888
0.0485692
-0.042615
-0.0584252
0.0589278
-0.0551914
-0.0589812
0.0688408
-0.0682849
-0.055318
0.0770638
-0.080727
-0.0464414
0.0822262
-0.0911028
-0.0321392
0.0833631
-0.0976653
0.0785874
-0.0113088
-0.0994178
-0.00154916
-0.00157166
-0.0045576
0.00280306
-0.00863979
0.00900101
-0.0134575
0.0147804
-0.0184557
0.0203536
-0.0230584
0.0264224
-0.0266739
0.0332118
-0.0285919
0.0405263
-0.0279617
0.0479389
-0.0238541
0.0548203
-0.0152425
0.0602291
-0.00152795
0.0633493
0.0181223
0.0625759
0.0436204
0.057865
0.045371
0.0768368
-0.000756922
-0.000814737
-0.00208429
0.00413043
-0.00392588
0.0108426
-0.00606014
0.0169147
-0.00783372
0.0221272
-0.00843078
0.0270195
-0.00707159
0.0318526
-0.00300243
0.0364571
0.00457786
0.0403586
0.0164394
0.0429588
0.0332706
0.0433979
0.0552849
0.041335
0.0834436
0.0344172
0.114538
0.0267709
0.00543506
0.154474
-0.000153439
-0.000661299
-4.26768e-05
0.00401967
0.000305852
0.0104941
0.000954027
0.0162665
0.00243551
0.0206457
0.00558329
0.0238717
0.0112555
0.0261804
0.0202285
0.0274841
0.033008
0.0275792
0.0503617
0.025605
0.0721067
0.021653
0.098246
0.0151956
0.130628
0.00203518
0.164771
-0.00737207
-0.0373221
0.207528
-2.87664e-05
-0.000632532
0.00065787
0.00333303
0.00227493
0.00887701
0.00487479
0.0136667
0.00878465
0.0167359
0.0146229
0.0180335
0.0230944
0.0177089
0.0348795
0.015699
0.0503932
0.0120655
0.0705097
0.00548844
0.0951691
-0.00300634
0.125645
-0.01528
0.16138
-0.0337002
0.203136
-0.0491276
-0.0840449
0.249858
-0.000421094
-0.000211439
-0.000214129
0.00312606
0.00125901
0.00740387
0.00421262
0.0107131
0.00892389
0.0120246
0.0158991
0.0110582
0.0259658
0.00764226
0.0400738
0.00159102
0.0595664
-0.00742713
0.0847852
-0.0197303
0.116741
-0.0349619
0.155947
-0.0544864
0.198754
-0.0765072
0.249703
-0.100076
-0.130865
0.296523
-0.00112877
0.000917335
-0.00209471
0.004092
-0.0017111
0.00702026
0.000674344
0.00832762
0.00583986
0.00685907
0.015012
0.00188608
0.0296697
-0.00701543
0.050924
-0.0196633
0.0796215
-0.0361245
0.114595
-0.0547037
0.156046
-0.0764133
0.20016
-0.0986001
0.245052
-0.121399
0.289312
-0.144336
-0.162435
0.320882
-0.00166557
-0.00335392
-0.0032327
0.000367095
0.00930409
0.0252694
0.0491261
0.0804573
0.117249
0.157283
0.197264
0.233153
0.263843
0.283644
0.29698
0.0403959
0.135794
-0.187498
0.098408
0.0187345
-0.0767466
0.14846
-0.134108
0.0840559
0.173147
-0.292105
0.267417
0.193582
-0.36524
0.344805
0.183921
-0.336057
0.345718
0.141889
-0.34138
0.383412
0.142982
-0.310177
0.309085
0.191908
-0.0801143
0.0311879
0.241326
0.149262
-0.19868
0.261439
0.258716
-0.278828
0.250335
0.354026
-0.342922
0.237319
0.439888
-0.426872
0.246398
0.355801
-0.364879
0.262631
0.120592
-0.136826
0.265509
-0.108651
0.105772
0.266783
-0.345201
0.343927
0.273012
-0.461179
0.454951
0.273838
-0.410658
0.409832
0.277689
-0.172644
0.168794
0.28555
0.226202
-0.234064
0.294136
0.56368
-0.572266
0.290665
0.615973
-0.612503
0.263525
0.298444
-0.271303
0.238356
-0.203771
0.228939
0.241331
-0.488975
0.486
0.254935
-0.279959
0.266355
0.254771
0.140821
-0.140657
0.236587
0.366676
-0.348491
0.212622
0.319276
-0.295311
0.195906
0.0779167
-0.0612005
0.190269
-0.192323
0.19796
0.198367
-0.334285
0.326187
0.216407
-0.334096
0.316057
0.232674
-0.284721
0.268454
0.238026
-0.180269
0.174917
0.238795
-0.147098
0.146329
-0.051445
0.0491106
0.123033
0.0895976
0.16333
-0.0215626
0.201784
-0.172561
0.208265
-0.298587
0.200091
-0.357065
0.186016
-0.321982
0.145427
-0.300792
0.133241
-0.297991
0.181032
-0.127905
0.235408
0.0948853
0.255666
0.238458
0.24292
0.366772
0.23114
0.451667
0.245719
0.341222
0.265817
0.100495
0.265411
-0.108245
0.260967
-0.340757
0.266214
-0.466426
0.265469
-0.409913
0.269645
-0.17682
0.285381
0.210466
0.302637
0.546425
0.301919
0.616691
0.271333
0.329029
0.240039
-0.172476
0.240621
-0.489557
0.256968
-0.296305
0.258346
0.139443
0.240132
0.38489
0.215978
0.343429
0.199494
0.0944008
0.193571
-0.1864
0.199627
-0.340342
0.216513
-0.350982
0.235156
-0.303364
0.243816
-0.18893
0.243914
-0.147196
-0.051791
0.19256
0.0515112
0.215178
-0.0441801
0.233006
-0.190389
0.229641
-0.295222
0.2054
-0.332825
0.185499
-0.30208
0.153594
-0.268887
0.136427
-0.280823
0.175924
-0.167402
0.231165
0.0396438
0.259484
0.21014
0.251855
0.374401
0.236776
0.466746
0.247374
0.330624
0.268913
0.0789551
0.266017
-0.105349
0.253604
-0.328344
0.256269
-0.469091
0.254708
-0.408353
0.258034
-0.180145
0.280558
0.187941
0.307046
0.519937
0.310083
0.613655
0.277263
0.361849
0.240201
-0.135415
0.237667
-0.487023
0.256717
-0.315355
0.26074
0.13542
0.243392
0.402238
0.219149
0.367672
0.202393
0.111157
0.196379
-0.180386
0.2011
-0.345062
0.216008
-0.365891
0.235411
-0.322767
0.247695
-0.201214
0.248724
-0.148225
-0.0509178
0.241199
0.0178406
0.262584
-0.0655653
0.261178
-0.188984
0.238866
-0.27291
0.2036
-0.297559
0.180885
-0.279365
0.156389
-0.244392
0.14078
-0.265214
0.179362
-0.205984
0.233386
-0.0143804
0.257127
0.186399
0.245447
0.386081
0.231664
0.480529
0.242523
0.319765
0.266625
0.0548533
0.264314
-0.103039
0.244029
-0.308059
0.243415
-0.468476
0.242917
-0.407855
0.245384
-0.182612
0.271967
0.161358
0.30591
0.485993
0.313099
0.606466
0.280225
0.394723
0.238873
-0.0940627
0.232904
-0.481054
0.254341
-0.336793
0.262054
0.127707
0.246492
0.4178
0.222297
0.391867
0.204853
0.128601
0.198452
-0.173985
0.20241
-0.34902
0.215455
-0.378936
0.234245
-0.341557
0.249526
-0.216495
0.252652
-0.151352
-0.0497341
0.277199
-0.0095
0.295072
-0.0834383
0.281796
-0.175708
0.244843
-0.235957
0.202349
-0.255064
0.176338
-0.253354
0.157395
-0.225449
0.136973
-0.244793
0.172324
-0.241335
0.230103
-0.072159
0.258214
0.158288
0.256919
0.387376
0.244398
0.49305
0.243596
0.320568
0.261693
0.0367556
0.259947
-0.101293
0.233371
-0.281484
0.227931
-0.463035
0.23015
-0.410075
0.232019
-0.18448
0.259675
0.133702
0.300771
0.444897
0.313451
0.593786
0.280958
0.427216
0.236027
-0.0491313
0.22646
-0.471487
0.25
-0.360334
0.262183
0.115525
0.248977
0.431006
0.22518
0.415663
0.207022
0.146759
0.199872
-0.166835
0.203229
-0.352377
0.214927
-0.390634
0.232395
-0.359025
0.249611
-0.233711
0.255403
-0.157143
-0.0490809
0.311251
-0.0242273
0.309725
-0.0819128
0.281297
-0.147279
0.238331
-0.192991
0.199234
-0.215968
0.172748
-0.226867
0.157315
-0.210017
0.130202
-0.217679
0.148201
-0.259334
0.21512
-0.139078
0.254224
0.119184
0.259261
0.382338
0.246222
0.506089
0.238788
0.328001
0.253071
0.0224734
0.252405
-0.100627
0.222448
-0.251526
0.210716
-0.451304
0.216423
-0.415782
0.21964
-0.187697
0.24582
0.107523
0.290143
0.400574
0.30767
0.576258
0.277659
0.457227
0.231364
-0.00283607
0.218517
-0.45864
0.243648
-0.385464
0.261032
0.0981402
0.251093
0.440945
0.227987
0.438769
0.209
0.165747
0.200788
-0.158623
0.203418
-0.355008
0.214245
-0.401461
0.230307
-0.375086
0.248441
-0.251845
0.256937
-0.165639
-0.0496126
0.320761
-0.0241063
0.301595
-0.0627468
0.264391
-0.110076
0.221832
-0.150432
0.188012
-0.182148
0.164735
-0.203589
0.151998
-0.19728
0.126616
-0.192297
0.117536
-0.250254
0.181144
-0.202686
0.242219
0.0581097
0.263685
0.360873
0.25904
0.510734
0.243404
0.343637
0.24263
0.0232466
0.240864
-0.0988613
0.209388
-0.22005
0.192176
-0.434092
0.200621
-0.424227
0.207157
-0.194233
0.231413
0.0832671
0.277803
0.354184
0.300588
0.553474
0.273381
0.484435
0.225345
0.0451997
0.209164
-0.442459
0.235353
-0.411654
0.258355
0.0751382
0.251765
0.447536
0.229718
0.460815
0.210328
0.185137
0.201173
-0.149468
0.202976
-0.35681
0.213225
-0.41171
0.22816
-0.390021
0.246495
-0.270181
0.257389
-0.176533
-0.0517641
0.289846
-0.0169717
0.269589
-0.0424902
0.240135
-0.080622
0.207117
-0.117414
0.176521
-0.151552
0.153889
-0.180957
0.141834
-0.185224
0.123483
-0.173946
0.09695
-0.223722
0.128597
-0.234334
0.20262
-0.0159125
0.255521
0.307971
0.261694
0.504562
0.239224
0.366107
0.234887
0.0275841
0.230451
-0.0944254
0.196422
-0.186021
0.173813
-0.411484
0.183685
-0.434099
0.19425
-0.204798
0.214054
0.063463
0.259042
0.309196
0.288132
0.524384
0.265103
0.507464
0.218275
0.0920274
0.199123
-0.423307
0.225228
-0.437758
0.253993
0.0463734
0.252269
0.449259
0.231562
0.481523
0.211397
0.205302
0.201113
-0.139184
0.202134
-0.357831
0.211901
-0.421477
0.226036
-0.404155
0.244167
-0.288313
0.25698
-0.189346
-0.0557793
0.504854
-0.0134524
-0.508373
0.500845
-0.0384815
0.489205
-0.0689816
0.468395
-0.096604
0.443071
-0.126229
0.411695
-0.149581
0.382284
-0.155813
0.358602
-0.150264
0.308203
-0.173324
0.249095
-0.175225
0.234367
-0.00118462
0.239925
0.302413
0.280717
0.463771
0.359197
0.287627
0.424306
-0.0375248
0.447861
-0.117981
0.428368
-0.166528
0.408777
-0.391892
0.389578
-0.4149
0.344817
-0.160037
0.3114
0.0968798
0.336269
0.284328
0.373359
0.487294
0.38301
0.497813
0.381395
0.093642
0.383346
-0.425258
0.390127
-0.444539
0.388121
0.04838
0.369485
0.467895
0.350196
0.500812
0.339691
0.215806
0.33555
-0.135043
0.335899
-0.35818
0.342214
-0.427792
0.352233
-0.414174
0.368514
-0.304594
0.381274
-0.202105
-0.0579457
0.530209
-0.0103779
-0.533284
0.523863
-0.0321351
0.510259
-0.0553782
0.489452
-0.075797
0.464189
-0.100965
0.429941
-0.115334
0.393656
-0.119528
0.366499
-0.123106
0.333188
-0.140013
0.265699
-0.107736
0.218944
0.0455703
0.250104
0.271252
0.354452
0.359423
0.449768
0.192311
0.490601
-0.0783576
0.494243
-0.121623
0.463796
-0.13608
0.43888
-0.366977
0.418246
-0.394266
0.361831
-0.103622
0.313902
0.144808
0.333924
0.264306
0.3838
0.437418
0.413921
0.467692
0.425497
0.082066
0.430221
-0.429982
0.437234
-0.451552
0.433088
0.0525262
0.414561
0.486421
0.396957
0.518416
0.388162
0.224602
0.383045
-0.129926
0.380143
-0.355279
0.38307
-0.430719
0.390445
-0.42155
0.403999
-0.318148
0.416509
-0.214615
-0.061164
0.558425
-0.00857438
-0.560228
0.552451
-0.0261612
0.541572
-0.0444996
0.52556
-0.0597851
0.503562
-0.0789673
0.476259
-0.0880308
0.450594
-0.0938627
0.414965
-0.0874769
0.368556
-0.0936031
0.32217
-0.0613504
0.290826
0.0769136
0.347064
0.215015
0.473406
0.233081
0.544517
0.121199
0.547237
-0.0810771
0.54109
-0.115477
0.515006
-0.109996
0.476841
-0.328812
0.445966
-0.363391
0.382564
-0.0402206
0.313629
0.213743
0.32931
0.248626
0.40372
0.363007
0.46122
0.410191
0.478069
0.0652171
0.47991
-0.431823
0.487061
-0.458703
0.483606
0.055982
0.466214
0.503813
0.451612
0.533019
0.44468
0.231534
0.438104
-0.12335
0.430868
-0.348043
0.428786
-0.428637
0.432844
-0.425607
0.443444
-0.328748
0.454671
-0.225843
-0.0649482
0.590402
-0.00679709
-0.592179
0.584223
-0.0199819
0.573548
-0.0338248
0.556863
-0.0430997
0.538105
-0.0602094
0.512958
-0.0628842
0.488308
-0.0692122
0.465557
-0.064726
0.428979
-0.0570253
0.400581
-0.0329528
0.405221
0.0722735
0.470318
0.149919
0.565782
0.137617
0.607431
0.0795502
0.591613
-0.0652588
0.571893
-0.0957566
0.546621
-0.0847235
0.504432
-0.286623
0.459835
-0.318794
0.384923
0.0346915
0.314256
0.28441
0.3406
0.222282
0.44221
0.261397
0.520707
0.331694
0.541133
0.0447916
0.537317
-0.428008
0.541712
-0.463098
0.537489
0.0602046
0.522709
0.518593
0.514494
0.541234
0.511161
0.234867
0.502381
-0.114571
0.489501
-0.335163
0.481082
-0.420218
0.48062
-0.425145
0.487647
-0.335775
0.496679
-0.234875
-0.0686345
0.62654
-0.00486188
-0.628476
0.620351
-0.0137922
0.611247
-0.024721
0.598785
-0.0306377
0.582779
-0.044204
0.564203
-0.0443077
0.542858
-0.0478671
0.52341
-0.0452779
0.496372
-0.0299873
0.479747
-0.0163278
0.503284
0.0487366
0.557053
0.0961499
0.616335
0.0783347
0.640891
0.0549935
0.624656
-0.0490238
0.610913
-0.0820134
0.594025
-0.0678351
0.54049
-0.233088
0.474329
-0.252633
0.397463
0.111558
0.347525
0.334348
0.391827
0.17798
0.508781
0.144443
0.597866
0.24261
0.612276
0.0303814
0.595041
-0.410773
0.594651
-0.462707
0.595734
0.0591218
0.588776
0.525551
0.588315
0.541695
0.587468
0.235713
0.574458
-0.101561
0.554232
-0.314936
0.538681
-0.404667
0.533169
-0.419633
0.536471
-0.339078
0.542984
-0.241388
-0.0717718
0.667519
-0.00296544
-0.669416
0.662757
-0.00902972
0.655037
-0.0170016
0.645034
-0.0206349
0.630686
-0.0298552
0.615969
-0.0295909
0.599076
-0.030974
0.583883
-0.0300847
0.569622
-0.0157269
0.560411
-0.00711615
0.581381
0.0277664
0.616922
0.0606084
0.654246
0.0410109
0.676461
0.032779
0.658549
-0.0311125
0.64133
-0.0647947
0.630187
-0.0566913
0.572005
-0.174907
0.498931
-0.179559
0.454897
0.155591
0.455384
0.333862
0.505103
0.12826
0.603965
0.045581
0.683091
0.163484
0.690071
0.0234013
0.656029
-0.376731
0.642678
-0.449357
0.645817
0.0559829
0.651232
0.520135
0.665665
0.527262
0.670975
0.230403
0.653475
-0.0840604
0.624907
-0.286368
0.601884
-0.381644
0.590989
-0.408738
0.590348
-0.338436
0.594093
-0.245133
-0.0740073
0.715029
-0.00118745
-0.716807
0.711141
-0.00514122
0.704544
-0.0104044
0.6968
-0.0128905
0.685665
-0.0187212
0.674737
-0.0186625
0.662943
-0.0191801
0.651074
-0.0182158
0.643678
-0.00833051
0.637916
-0.00135464
0.65163
0.0140531
0.675984
0.0362542
0.696757
0.0202374
0.712221
0.017315
0.703916
-0.0228069
0.6912
-0.0520791
0.678664
-0.0441553
0.616712
-0.112954
0.549885
-0.112732
0.561882
0.143594
0.61664
0.279104
0.653801
0.0910995
0.706917
-0.00753508
0.763901
0.1065
0.763703
0.0235999
0.710183
-0.323212
0.679199
-0.418372
0.68797
0.0472123
0.716512
0.491593
0.751612
0.492162
0.760464
0.221551
0.735608
-0.059204
0.698436
-0.249197
0.668921
-0.352128
0.653312
-0.393129
0.649072
-0.334197
0.650156
-0.246216
-0.0752404
0.769255
0.000589785
-0.771032
0.766175
-0.00206196
0.760994
-0.00522326
0.755138
-0.00703467
0.746936
-0.0105184
0.738629
-0.0103557
0.730324
-0.010875
0.721372
-0.00926425
0.71746
-0.00441822
0.715074
0.00103164
0.722253
0.00687377
0.738027
0.0204798
0.750281
0.00798328
0.76056
0.00703658
0.754165
-0.0164126
0.739659
-0.0375722
0.730688
-0.0351852
0.685775
-0.068041
0.633445
-0.0604019
0.676432
0.100606
0.757497
0.19804
0.779659
0.0689373
0.785568
-0.0134438
0.820515
0.0715523
0.826154
0.0179603
0.759516
-0.256573
0.703663
-0.362519
0.720115
0.0307602
0.777391
0.434317
0.83095
0.438603
0.843721
0.20878
0.816884
-0.0323673
0.776156
-0.208468
0.742342
-0.318315
0.722071
-0.372857
0.713671
-0.325797
0.711643
-0.244188
-0.0752141
0.83037
0.0020468
-0.831827
0.827996
0.000311561
0.824257
-0.00148393
0.819879
-0.00265688
0.81407
-0.004709
0.80807
-0.00435656
0.802395
-0.00519963
0.7965
-0.00336864
0.793914
-0.00183248
0.792544
0.00240123
0.796149
0.00326942
0.805424
0.0112047
0.811818
0.00158912
0.816866
0.00198864
0.814295
-0.0138418
0.803964
-0.0272416
0.794418
-0.0256383
0.766118
-0.0397417
0.733629
-0.027913
0.774474
0.0597617
0.845736
0.126778
0.860493
0.0541799
0.847856
-0.000806479
0.870711
0.0486964
0.881178
0.00749346
0.80692
-0.182315
0.717244
-0.272843
0.722519
0.0254856
0.805464
0.351372
0.887759
0.356308
0.917635
0.178904
0.897621
-0.012353
0.857552
-0.1684
0.82148
-0.282242
0.797492
-0.34887
0.785044
-0.31335
0.779434
-0.238578
-0.0736195
0.899069
0.00308786
-0.900111
0.897298
0.00208297
0.894677
0.00113705
0.891529
0.000490912
0.887562
-0.000741918
0.883445
-0.000239462
0.879459
-0.00121402
0.875536
0.000554399
0.873606
9.79709e-05
0.872641
0.00336643
0.874408
0.00150211
0.879001
0.00661168
0.882338
-0.00174812
0.884765
-0.00043773
0.88242
-0.0114974
0.874591
-0.0194123
0.866903
-0.0179499
0.852161
-0.0250005
0.836567
-0.0123187
0.863223
0.0331058
0.912655
0.0773465
0.926858
0.0399762
0.91303
0.0130215
0.923486
0.0382411
0.932511
-0.00153134
0.865375
-0.11518
0.762228
-0.169695
0.755035
0.0326782
0.850785
0.255622
0.953009
0.254083
0.992775
0.139139
0.975298
0.00512386
0.935852
-0.128954
0.900291
-0.246681
0.875515
-0.324093
0.861037
-0.298872
0.85283
-0.230371
-0.070579
0.975591
0.0038227
-0.976326
0.974365
0.0033087
0.972587
0.00291571
0.970399
0.00267878
0.967724
0.00193266
0.964926
0.00255931
0.962242
0.00146909
0.959626
0.00317121
0.958191
0.00153268
0.957207
0.00434999
0.957787
0.000921998
0.959799
0.00460039
0.96083
-0.00277918
0.961854
-0.00146209
0.959963
-0.00960591
0.955156
-0.0146057
0.950448
-0.0132422
0.94298
-0.0175316
0.936178
-0.00551734
0.952958
0.0163256
0.983417
0.0468881
0.994124
0.0292692
0.986927
0.0202187
0.990708
0.0344594
0.990447
-0.00127012
0.937612
-0.0623455
0.856396
-0.0884786
0.853984
0.0350902
0.945054
0.164553
1.03832
0.160821
1.07158
0.105876
1.0537
0.0229996
1.0188
-0.0940479
0.986475
-0.21436
0.961455
-0.299073
0.944447
-0.281863
0.933039
-0.218963
-0.066048
1.06015
0.00426626
-1.06059
1.05937
0.00408358
1.05825
0.00403965
1.05682
0.00410384
1.05511
0.00365044
1.05326
0.00440508
1.05146
0.00327286
1.04969
0.00494106
1.04854
0.00268164
1.04765
0.0052417
1.04754
0.00102841
1.04815
0.0039927
1.0482
-0.00283171
1.04844
-0.00170723
1.04703
-0.00819417
1.04401
-0.0115872
1.04135
-0.0105811
1.0381
-0.0142768
1.03596
-0.00338043
1.04649
0.0057996
1.06478
0.0285936
1.07158
0.0224704
1.06844
0.0233564
1.06893
0.0339739
1.06248
0.00518104
1.02396
-0.0238286
0.975095
-0.0396138
0.984433
0.0257531
1.05671
0.0922735
1.12375
0.093787
1.14479
0.0848345
1.13027
0.0375137
1.10363
-0.0674035
1.07697
-0.187697
1.05312
-0.275225
1.03459
-0.263339
1.02041
-0.204783
-0.0597337
1.15334
0.00446658
-1.15354
1.15292
0.0045085
1.15227
0.00468692
1.1514
0.00497165
1.15036
0.00469596
1.14919
0.0055753
1.14802
0.00444195
1.14684
0.00612173
1.14595
0.00356849
1.1452
0.00599138
1.14477
0.00145548
1.14476
0.00399963
1.14439
-0.00245844
1.14421
-0.00153075
1.14322
-0.007203
1.14158
-0.00994806
1.14034
-0.00933764
1.13933
-0.013265
1.13923
-0.00328392
1.14547
-0.000435388
1.15596
0.0180974
1.16015
0.0182805
1.15885
0.0246625
1.15789
0.0349303
1.15045
0.0126199
1.12513
0.00149805
1.09848
-0.0129653
1.11172
0.0125133
1.16235
0.0416416
1.20689
0.0492414
1.22127
0.070463
1.21247
0.0463119
1.19482
-0.0497535
1.17373
-0.166611
1.15095
-0.252439
1.13082
-0.24321
1.11415
-0.188113
-0.0524966
1.25573
0.00449387
-1.25575
1.25556
0.00467945
1.25525
0.00499228
1.25479
0.00543614
1.25421
0.00526877
1.25352
0.006266
1.25281
0.00514948
1.25206
0.00687527
1.25143
0.00419536
1.25086
0.00656287
1.25042
0.00189436
1.25018
0.00423983
1.24976
-0.00203586
1.2495
-0.00127082
1.2489
-0.00660048
1.24814
-0.00918878
1.24756
-0.00875572
1.24756
-0.0132634
1.2482
-0.00392525
1.25181
-0.00404534
1.25763
0.0122786
1.2601
0.0158013
1.25944
0.0253308
1.25798
0.0363818
1.25182
0.0187848
1.23643
0.0168915
1.22364
-0.000176988
1.23603
0.0001174
1.26922
0.00845202
1.29733
0.0211378
1.30723
0.060564
1.30399
0.0495487
1.29401
-0.039774
1.27789
-0.150488
1.25631
-0.230865
1.23519
-0.222088
1.21634
-0.16926
-0.0436823
1.36797
0.0043677
-1.36784
1.368
0.00464651
1.36796
0.00503572
1.3678
0.00559309
1.36758
0.00548946
1.36727
0.00657943
1.36694
0.00548174
1.36655
0.00725867
1.36619
0.0045617
1.36586
0.00688997
1.36552
0.00223799
1.36532
0.0044329
1.36496
-0.00167413
1.36476
-0.00107083
1.36435
-0.00618861
1.36403
-0.00887017
1.36375
-0.00847838
1.36403
-0.0135429
1.36469
-0.00458246
1.36662
-0.00597636
1.36976
0.00913692
1.37112
0.0144412
1.37097
0.0254827
1.37006
0.0372943
1.36609
0.0227483
1.35781
0.0251776
1.35281
0.00482402
1.36299
-0.0100662
1.38333
-0.0118908
1.39975
0.00472364
1.4072
0.0531148
1.40846
0.0482812
1.40407
-0.0353773
1.39035
-0.136768
1.36783
-0.20835
1.34455
-0.198805
1.32407
-0.148782
-0.0352243
1.49088
0.00412005
-1.49063
1.49107
0.00445527
1.49123
0.00487829
1.49132
0.00550784
1.49137
0.00543439
1.49136
0.00659043
1.49133
0.00551249
1.49126
0.00733149
1.49116
0.00466187
1.49108
0.00696674
1.49092
0.00239982
1.49087
0.00447927
1.49064
-0.00143932
1.49056
-0.000999328
1.49029
-0.00591941
1.4902
-0.00877607
1.49001
-0.00828752
1.49025
-0.0137853
1.49061
-0.00494179
1.49147
-0.0068335
1.49322
0.0073861
1.49389
0.0137701
1.49422
0.0251538
1.4942
0.0373141
1.49225
0.0246992
1.48861
0.0288145
1.48796
0.00547659
1.49598
-0.018088
1.50735
-0.0232545
1.51556
-0.00349251
1.5212
0.0474781
1.52529
0.0441911
1.52392
-0.0340131
1.511
-0.12384
1.48759
-0.184945
1.4631
-0.174319
1.44169
-0.127369
-0.02622
1.62515
0.00371795
-1.62475
1.62554
0.00406591
1.62594
0.00447354
1.62633
0.00512289
1.62671
0.00505191
1.62708
0.00622048
1.62742
0.00517457
1.62776
0.00698799
1.628
0.00442343
1.62829
0.00668337
1.62833
0.00235967
1.6285
0.00430538
1.62825
-0.00118495
1.62818
-0.000936751
1.62767
-0.00540637
1.62727
-0.00837499
1.62669
-0.00771162
1.62625
-0.0133408
1.62604
-0.0047371
1.62612
-0.00690597
1.6272
0.00630537
1.62782
0.0131468
1.62947
0.0235036
1.6313
0.0354805
1.63156
0.0244401
1.63189
0.0284852
1.63367
0.00369398
1.63808
-0.0224954
1.64117
-0.0263419
1.6439
-0.00622104
1.65093
0.0404466
1.65839
0.0367334
1.6569
-0.0325257
1.63972
-0.106658
1.6112
-0.156423
1.58358
-0.146706
1.56257
-0.106353
-0.0201253
1.77194
0.00315231
-1.77138
1.77254
0.00347071
1.77319
0.00382134
1.77389
0.00442441
1.77459
0.00434687
1.77537
0.00544278
1.77607
0.00447498
1.77685
0.00620613
1.77743
0.00384196
1.77809
0.00602291
1.77837
0.00208474
1.77876
0.00391796
1.77852
-0.00094416
1.77842
-0.000842973
1.77764
-0.00462046
1.77683
-0.00757161
1.77577
-0.00665064
1.77456
-0.01213
1.77367
-0.00385014
1.77303
-0.00625881
1.77372
0.00561153
1.7743
0.0125671
1.77737
0.0204336
1.78101
0.0318439
1.78302
0.0224221
1.78702
0.0244941
1.79024
0.000467197
1.79016
-0.0224178
1.78604
-0.022215
1.78532
-0.00550809
1.79519
0.0305769
1.80595
0.0259745
1.80312
-0.0296949
1.78047
-0.0840007
1.74734
-0.123301
1.71841
-0.117774
1.69881
-0.0867479
-0.0153894
1.93125
0.0022009
-1.9303
1.93235
0.00237819
1.93359
0.00257552
1.93507
0.00294866
1.93655
0.00286286
1.93839
0.00360224
1.93998
0.00288879
1.94199
0.00419035
1.94342
0.00241759
1.94515
0.00429241
1.94593
0.00129837
1.94671
0.0031471
1.94614
-0.000375834
1.94516
0.000129412
1.94272
-0.00217499
1.93929
-0.00413907
1.93579
-0.00315061
1.93065
-0.00699042
1.92782
-0.00101944
1.92535
-0.00379636
1.92581
0.00515769
1.92866
0.00971292
1.93628
0.0128206
1.94696
0.0211607
1.95523
0.014149
1.96635
0.0133781
1.9683
-0.00148462
1.95556
-0.00967693
1.93992
-0.00658022
1.93707
-0.00265793
1.95388
0.0137656
1.96994
0.00991752
1.96219
-0.021947
1.9284
-0.0502058
1.88672
-0.0816254
1.85402
-0.0850728
1.83624
-0.0689678
-0.0156705
2.10863
0.00137039
-2.1078
2.10958
0.00142563
2.11067
0.00148605
2.11199
0.00163043
2.1133
0.00155188
2.11502
0.00188598
2.11641
0.0014965
2.11842
0.00217989
2.11961
0.00122649
2.12152
0.00238439
2.12208
0.000743586
2.12307
0.00215034
2.12242
0.000275225
2.12143
0.00111781
2.11917
8.69074e-05
2.1154
-0.000366804
2.11212
0.000131339
2.10648
-0.00135279
2.10419
0.00127419
2.10115
-0.000757017
2.10241
0.00389764
2.10704
0.00507908
2.11437
0.00548685
2.12669
0.00883948
2.13576
0.00508011
2.14461
0.00453051
2.14336
-0.000237891
2.13161
0.00207985
2.12094
0.00408754
2.11692
0.00136319
2.12626
0.00442527
2.13578
0.000398137
2.12977
-0.0159411
2.1091
-0.0295306
2.07964
-0.0521718
2.05087
-0.0562962
2.0323
-0.0504003
-0.0144714
2.30401
0.000940914
-2.30358
2.30445
0.000977238
2.30494
0.00100009
2.30548
0.00108695
2.30601
0.00102178
2.30669
0.00121091
2.30721
0.000978217
2.30805
0.00133301
2.30844
0.000840758
2.30942
0.00140642
2.30955
0.000614912
2.31036
0.0013348
2.31026
0.0003817
2.31038
0.000993623
2.31016
0.000306502
2.30939
0.000408285
2.30897
0.000549982
2.30765
-3.27806e-05
2.30769
0.00123367
2.30653
0.000397999
2.30812
0.00231071
2.31087
0.00232321
2.31337
0.00299398
2.31834
0.00387196
2.32132
0.00209467
2.32273
0.00312224
2.32161
0.000884111
2.32211
0.00158146
2.32386
0.00233324
2.32222
0.00300467
2.32175
0.00489577
2.32196
0.000181364
2.31878
-0.0127615
2.31187
-0.0226179
2.29511
-0.0354086
2.27363
-0.034818
2.25466
-0.0314322
-0.00966009
2.51531
0.000446965
-2.51482
2.51583
0.000460294
2.51637
0.000458974
2.51696
0.000493337
2.51753
0.000456304
2.5182
0.000534479
2.51875
0.000435098
2.51949
0.000586153
2.51994
0.000393333
2.52071
0.000640503
2.52098
0.000344203
2.52164
0.0006706
2.52169
0.000329303
2.52205
0.000634917
2.52196
0.000401661
2.52183
0.000531583
2.52181
0.000577705
2.52134
0.000430581
2.52174
0.000841311
2.52167
0.000459835
2.52293
0.0010532
2.52441
0.000843091
2.52652
0.000885672
2.52929
0.00109936
2.53089
0.000495493
2.53302
0.000988997
2.53341
0.000502884
2.53333
0.00165896
2.53339
0.00226689
2.53416
0.00223535
2.53733
0.00172865
2.53805
-0.000538328
2.53112
-0.0058283
2.518
-0.00950106
2.49834
-0.0157468
2.47937
-0.0158507
2.4639
-0.0159589
-0.00585935
2.74731
-2.74686
2.74777
2.74823
2.74872
2.74918
2.74971
2.75015
2.75073
2.75113
2.75177
2.75211
2.75278
2.75311
2.75375
2.75415
2.75468
2.75526
2.75569
2.75653
2.75699
2.75804
2.75889
2.75977
2.76087
2.76137
2.76236
2.76286
2.76452
2.76678
2.76902
2.77075
2.77021
2.76438
2.75488
2.73913
2.72328
2.70732
0.433335
0.0454956
-0.425826
0.442364
0.0742195
0.450328
0.105536
0.460689
0.13344
0.469743
0.164262
0.482623
0.190435
0.4962
0.219399
0.245784
0.46582
0.0386528
-0.458977
0.47358
0.0664598
0.481478
0.0976379
0.490459
0.124459
0.500184
0.154538
0.510131
0.180488
0.521782
0.207747
0.234283
0.501686
0.0328608
-0.495894
0.507874
0.0602714
0.514744
0.0907685
0.521953
0.11725
0.53001
0.14648
0.538357
0.172142
0.548137
0.197966
0.222192
0.540274
0.0278817
-0.535295
0.545327
0.0552182
0.55109
0.0850057
0.55728
0.111059
0.564192
0.139569
0.572588
0.163745
0.5818
0.188755
0.211812
0.582543
0.0240007
-0.578662
0.586788
0.0509735
0.591854
0.0799388
0.597683
0.10523
0.604443
0.132809
0.611844
0.156344
0.619767
0.180832
0.203104
0.629036
0.0208059
-0.625841
0.632798
0.0472115
0.63746
0.0752773
0.642508
0.100181
0.648323
0.126994
0.654226
0.150441
0.661365
0.173693
0.195053
0.680289
0.018155
-0.677638
0.68337
0.0441312
0.687254
0.0713927
0.691292
0.0961433
0.696355
0.121932
0.702268
0.144527
0.709275
0.166686
0.187521
0.736293
0.0161202
-0.734259
0.738773
0.0416512
0.742261
0.0679052
0.746293
0.0921109
0.751729
0.116497
0.75756
0.138695
0.763946
0.1603
0.180436
0.798205
0.0144591
-0.796544
0.800565
0.0392912
0.804046
0.0644239
0.808147
0.0880104
0.813069
0.111574
0.818428
0.133336
0.824698
0.15403
0.173307
0.866507
0.0130716
-0.86512
0.868714
0.0370837
0.87193
0.0612087
0.875775
0.0841651
0.880567
0.106782
0.886275
0.127629
0.892842
0.147463
0.166039
0.941486
0.0119418
-0.940356
0.943568
0.0350018
0.946735
0.0580418
0.950813
0.0800871
0.955994
0.1016
0.961999
0.121624
0.968773
0.140689
0.158485
1.02401
0.0109321
-1.023
1.02613
0.0328842
1.02941
0.0547536
1.03373
0.0757722
1.03909
0.0962381
1.04533
0.115382
1.05252
0.133507
0.150411
1.11459
0.0100002
-1.11366
1.11674
0.0307286
1.12014
0.0513561
1.12468
0.0712347
1.13037
0.0905497