/*--------------------------------*- C++ -*----------------------------------*\
| =========                 |                                                 |
| \\      /  F ield         | OpenFOAM: The Open Source CFD Toolbox           |
|  \\    /   O peration     | Version:  2512                                  |
|   \\  /    A nd           | Website:  www.openfoam.com                      |
|    \\/     M anipulation  |                                                 |
\*---------------------------------------------------------------------------*/
FoamFile
{
    version     2.0;
    format      ascii;
    arch        "LSB;label=32;scalar=64";
    class       surfaceScalarField;
    location    "53.25";
    object      phi;
}
// * * * * * * * * * * * * * * * * * * * * * * * * * * * * * * * * * * * * * //

dimensions      [0 3 -1 0 0 0 0];

oriented        oriented;

internalField   nonuniform List<scalar> 
26232
(
-0.000176753
0.00160888
-0.00143213
-8.38791e-05
0.00316667
-0.00325955
0.000696383
0.00328436
-0.00406463
0.00253797
0.0019055
-0.00374709
0.00584036
-0.00112507
-0.00217732
0.011034
-0.00599352
0.000799908
0.0185142
-0.0128106
0.0053304
0.0284851
-0.021492
0.011521
0.040822
-0.0316865
0.0193496
0.055008
-0.0428053
0.0286192
0.0701917
-0.0541327
0.038949
0.0853372
-0.0649654
0.0498199
0.0994148
-0.0747291
0.0606515
0.11159
-0.0830596
0.0708848
0.121369
-0.0898366
0.0800571
0.128677
-0.0951746
0.0878663
0.133839
-0.0993677
0.094206
0.137429
-0.102791
0.0992016
0.140129
-0.10578
0.103079
0.142398
-0.108608
0.106338
0.144604
-0.11121
0.109004
0.146563
-0.113959
0.112001
0.14779
-0.115596
0.114369
-0.118184
0.118179
0.147796
-0.000129354
0.00173824
0.000151073
0.00288624
0.00136755
0.00206789
0.00403536
-0.000762309
0.0086787
-0.00576841
0.0157513
-0.0130661
0.0254584
-0.0225177
0.0375796
-0.0336131
0.0514228
-0.0455298
0.0659514
-0.0573338
0.0800194
-0.0682008
0.0926228
-0.0775688
0.103096
-0.0852025
0.111214
-0.0911771
0.117175
-0.0957975
0.121479
-0.099479
0.124727
-0.102616
0.127431
-0.105495
0.129907
-0.108256
0.132235
-0.110935
0.134518
-0.113493
0.136557
-0.115999
0.139123
-0.118162
-0.121105
0.142043
-1.27394e-06
0.00173951
0.000658618
0.00222635
0.00261122
0.000115283
0.00647712
-0.00462821
0.0128082
-0.0120995
0.0218749
-0.0221328
0.0334289
-0.0340717
0.0466477
-0.0468319
0.0603361
-0.0592182
0.0732653
-0.070263
0.0844845
-0.07942
0.0935079
-0.0865922
0.100343
-0.0920379
0.105377
-0.0962105
0.109169
-0.0995894
0.112243
-0.102554
0.114959
-0.105332
0.117491
-0.108027
0.119893
-0.110657
0.122211
-0.113253
0.124476
-0.115757
0.126797
-0.11832
0.129234
-0.120599
-0.123287
0.131417
0.000166572
0.00157294
0.00135536
0.00103756
0.00426924
-0.00279859
0.00957204
-0.00993101
0.0176693
-0.0201968
0.028383
-0.0328464
0.040829
-0.0465177
0.0536799
-0.0596828
0.0656258
-0.0711641
0.0757563
-0.0803936
0.0837253
-0.087389
0.0896957
-0.0925625
0.0941369
-0.0964791
0.0975844
-0.099658
0.100463
-0.102468
0.103028
-0.105119
0.105404
-0.107708
0.10765
-0.110273
0.109831
-0.112838
0.111981
-0.115404
0.114196
-0.117972
0.116457
-0.120581
0.11891
-0.123053
-0.125982
0.121605
0.000366088
0.00120685
0.002186
-0.000782351
0.0062137
-0.00682629
0.0130285
-0.0167458
0.0226372
-0.0298055
0.0341982
-0.0444074
0.0462793
-0.0585988
0.0574592
-0.0708627
0.0668094
-0.0805144
0.0740487
-0.0876328
0.0794139
-0.0927543
0.0833971
-0.0965457
0.0864983
-0.0995802
0.0890887
-0.102248
0.0913924
-0.104772
0.0935351
-0.107261
0.0955907
-0.109763
0.0976152
-0.112297
0.0996376
-0.114861
0.101685
-0.117452
0.103775
-0.120062
0.105896
-0.122702
0.108146
-0.125303
-0.128139
0.110303
0.000595456
0.000611397
0.00313177
-0.00331867
0.00834505
-0.0120396
0.0165245
-0.0249253
0.0270271
-0.0403081
0.0383784
-0.0557586
0.049
-0.0692204
0.0578553
-0.0797181
0.0646387
-0.0872978
0.0695978
-0.0925919
0.0732261
-0.0963826
0.0760109
-0.0993305
0.0783122
-0.101882
0.0803542
-0.10429
0.082263
-0.106681
0.0841049
-0.109103
0.0859132
-0.111572
0.0876999
-0.114084
0.0894779
-0.116639
0.0912612
-0.119235
0.0930746
-0.121875
0.0949414
-0.124569
0.0969199
-0.127282
-0.130189
0.0989707
0.000861824
-0.000250428
0.00417432
-0.00663117
0.0105217
-0.0183869
0.0196498
-0.0340534
0.0301938
-0.0508521
0.0403944
-0.0659592
0.0489949
-0.0778209
0.0555582
-0.0862814
0.060282
-0.0920215
0.0636506
-0.0959605
0.0661585
-0.0988906
0.0681789
-0.101351
0.0699446
-0.103647
0.0715813
-0.105927
0.0731476
-0.108247
0.0746692
-0.110625
0.07616
-0.113063
0.0776365
-0.115561
0.0791176
-0.11812
0.0806236
-0.120741
0.0821722
-0.123424
0.0837648
-0.126161
0.0854314
-0.128948
-0.131845
0.0870873
0.00116267
-0.0014131
0.0052594
-0.0107279
0.0125223
-0.0256498
0.0219735
-0.0435045
0.0317495
-0.0606281
0.0402631
-0.0744729
0.0468128
-0.0843706
0.0514672
-0.0909358
0.0546804
-0.0952348
0.0569652
-0.0982453
0.0587235
-0.100649
0.0602084
-0.102836
0.0615542
-0.104993
0.0628224
-0.107195
0.0640412
-0.109466
0.0652273
-0.111811
0.066395
-0.11423
0.0675567
-0.116722
0.0687233
-0.119286
0.0699048
-0.121922
0.0711088
-0.124628
0.0723502
-0.127403
0.0736512
-0.130249
-0.133181
0.074987
0.00148462
-0.00289772
0.0062919
-0.0155352
0.0140897
-0.0334476
0.0232017
-0.0526165
0.0316733
-0.0690996
0.0383773
-0.081177
0.043133
-0.0891263
0.0463139
-0.0941167
0.0484462
-0.097367
0.0499736
-0.0997726
0.0511845
-0.10186
0.0522341
-0.103885
0.0531947
-0.105954
0.0540987
-0.108099
0.0549628
-0.11033
0.0557978
-0.112646
0.0566125
-0.115045
0.0574164
-0.117526
0.0582205
-0.120091
0.0590367
-0.122738
0.059877
-0.125468
0.0607513
-0.128277
0.0616654
-0.131163
-0.134114
0.0625978
0.0018009
-0.00469863
0.00715285
-0.0208871
0.0150177
-0.0413125
0.0232689
-0.0608677
0.0302118
-0.0760425
0.0352355
-0.0862007
0.0385302
-0.0924209
0.0406035
-0.09619
0.0419476
-0.098711
0.0429033
-0.100728
0.0436612
-0.102618
0.0443118
-0.104536
0.0448944
-0.106536
0.0454266
-0.108631
0.0459186
-0.110822
0.0463793
-0.113107
0.0468181
-0.115484
0.0472451
-0.117953
0.0476701
-0.120516
0.0481017
-0.12317
0.048547
-0.125914
0.0490144
-0.128744
0.0495098
-0.131659
-0.13464
0.050036
0.00208093
-0.00677956
0.00773382
-0.02654
0.0152178
-0.0487965
0.0222997
-0.0679496
0.0277152
-0.081458
0.0312893
-0.0897748
0.0334295
-0.0945612
0.0346624
-0.097423
0.0353972
-0.0994459
0.0358774
-0.101209
0.0362224
-0.102963
0.0364836
-0.104797
0.0366826
-0.106735
0.0368307
-0.10878
0.0369365
-0.110928
0.0370083
-0.113178
0.0370541
-0.115529
0.0370818
-0.117981
0.0370997
-0.120533
0.0371163
-0.123187
0.0371405
-0.125938
0.0371788
-0.128783
0.037231
-0.131711
-0.134709
0.0373007
0.0023
-0.00907955
0.00797375
-0.0322138
0.0147336
-0.0555563
0.0205241
-0.0737401
0.0245338
-0.0854676
0.0269007
-0.0921417
0.0281281
-0.0957886
0.0286956
-0.0979904
0.0289207
-0.0996709
0.0289686
-0.101256
0.0289117
-0.102906
0.0287794
-0.104665
0.0285851
-0.106541
0.0283371
-0.108532
0.0280424
-0.110633
0.0277078
-0.112844
0.0273402
-0.115162
0.0269471
-0.117588
0.0265364
-0.120123
0.0261159
-0.122766
0.0256943
-0.125516
0.0252791
-0.128367
0.0248737
-0.131306
0.0244917
-0.134327
-3.79651e-05
0.00551562
-0.00547765
-0.0004301
0.0126219
-0.0122297
-0.00125472
0.016885
-0.0160604
-0.00245939
0.0191667
-0.017962
-0.00396013
0.0203262
-0.0188254
-0.00567316
0.0209913
-0.0192783
-0.0075373
0.0215144
-0.0196503
-0.00951057
0.0220145
-0.0200412
-0.0115598
0.0224682
-0.0204189
-0.0136509
0.0227844
-0.0206934
-0.0157423
0.0228429
-0.0207516
-0.0177835
0.0225075
-0.0204663
-0.0197164
0.0216312
-0.0196983
-0.0214779
0.0200624
-0.0183009
-0.0230045
0.0176539
-0.0161273
-0.0242362
0.0142715
-0.0130399
-0.0251217
0.00980297
-0.00891748
-0.0256456
0.00416199
-0.00363802
-0.0256774
-0.0025501
0.0025819
-0.0251257
-0.0104411
0.00988946
-0.0239681
-0.0194499
0.0182923
-0.0221158
-0.029499
0.0276468
-0.0195841
-0.0402976
0.0377658
-0.0515757
-0.0163098
0.0483015
0.000191127
0.00532449
0.00026521
0.0125478
1.49702e-05
0.0171352
-0.000576517
0.0197582
-0.00141365
0.0211633
-0.00239048
0.0219681
-0.00341423
0.0225382
-0.00441478
0.023015
-0.00533865
0.023392
-0.0061389
0.0235847
-0.00676902
0.0234731
-0.00718168
0.0229202
-0.00733026
0.0217798
-0.00717266
0.0199048
-0.00667438
0.0171556
-0.00581164
0.0134088
-0.00457041
0.00856173
-0.00295006
0.00254163
-0.000899784
-0.00460038
0.00163923
-0.0129801
0.00477224
-0.0225829
0.0085054
-0.0332322
0.0130769
-0.0448691
-0.0568309
0.0183321
0.000403568
0.00492092
0.000949281
0.0120021
0.00131877
0.0167657
0.00143793
0.019639
0.00136968
0.0212316
0.00123665
0.0221011
0.00115998
0.0226148
0.0012372
0.0229378
0.00154224
0.023087
0.0021329
0.022994
0.00305806
0.0225479
0.0043594
0.0216188
0.00606832
0.0200708
0.00820334
0.0177698
0.0107674
0.0145916
0.013746
0.0104302
0.0171015
0.00520623
0.020807
-0.00116386
0.0249412
-0.00873463
0.0294686
-0.0175075
0.0344717
-0.027586
0.0399901
-0.0387506
0.0461235
-0.0510024
-0.0636874
0.05298
0.000569291
0.00435163
0.00154069
0.0110307
0.00251631
0.0157901
0.00335239
0.0188029
0.00407856
0.0205054
0.0048117
0.021368
0.00568769
0.0217388
0.0068253
0.0218002
0.00831603
0.0215963
0.0102275
0.0210826
0.0126083
0.0201671
0.0154909
0.0187362
0.0188913
0.0166705
0.0228073
0.0138537
0.027219
0.0101799
0.0320869
0.00556233
0.0373384
-4.52724e-05
0.0430711
-0.00689656
0.049263
-0.0149266
0.0559044
-0.0241489
0.06319
-0.0348716
0.0710051
-0.0465658
0.0793811
-0.0593783
-0.0725818
0.0882754
0.000665562
0.00368607
0.00195368
0.00974257
0.0034397
0.0143041
0.00492536
0.0173173
0.0063931
0.0190376
0.00793485
0.0198262
0.00968299
0.0199907
0.0117649
0.0197183
0.014283
0.0190782
0.017311
0.0180546
0.020897
0.0165811
0.0250663
0.0145669
0.0298237
0.0119131
0.0351564
0.00852109
0.0410334
0.0043028
0.0474285
-0.000832722
0.0544768
-0.00709353
0.0620342
-0.014454
0.0703199
-0.0232123
0.0792811
-0.0331101
0.0891758
-0.0447662
0.0996402
-0.0570302
0.110663
-0.070401
-0.0835557
0.121637
0.00068385
0.00300222
0.00213914
0.00828727
0.00397253
0.0124707
0.0059594
0.0153304
0.00803643
0.0169606
0.0102564
0.0176063
0.0127292
0.0175179
0.0155746
0.0168728
0.0188956
0.0157572
0.0227683
0.0141819
0.0272418
0.0121076
0.0323426
0.00946615
0.03808
0.00617568
0.0444461
0.00215492
0.051515
-0.00276606
0.0593498
-0.00866751
0.0679911
-0.0157348
0.0775388
-0.0240016
0.0881838
-0.0338573
0.099785
-0.0447114
0.112418
-0.0573989
0.125277
-0.0698895
0.138276
-0.0833999
-0.0952427
0.149963
0.000629293
0.00237293
0.00208788
0.00682869
0.00406237
0.0104962
0.00633825
0.0130545
0.0088223
0.0144766
0.0115261
0.0149025
0.0145252
0.0145189
0.0179183
0.0134797
0.0218
0.0118754
0.0262486
0.00973327
0.0313263
0.00702987
0.0370884
0.00370402
0.0435805
-0.000316378
0.0509718
-0.00523642
0.0593258
-0.01112
0.0688039
-0.0181456
0.0795573
-0.0264883
0.0916685
-0.0361128
0.105068
-0.0472569
0.119395
-0.0590378
0.134153
-0.0721569
0.148211
-0.0839477
0.161233
-0.0964216
-0.105237
0.171227
0.000515637
0.00185729
0.00182527
0.00551905
0.00372664
0.00859483
0.00604934
0.0107318
0.00869528
0.0118306
0.011647
0.0119508
0.0149484
0.0112175
0.0186778
0.00975029
0.0229291
0.0076241
0.027805
0.00485739
0.0334122
0.00142265
0.0399251
-0.00280882
0.0475393
-0.00793063
0.0564124
-0.0141095
0.0667659
-0.0214735
0.0787426
-0.0301223
0.0923063
-0.0400521
0.107261
-0.051068
0.122976
-0.0629718
0.138786
-0.074847
0.15351
-0.0868814
0.166216
-0.0966539
0.176279
-0.106484
-0.111375
0.182418
0.00035978
0.00149751
0.00140083
0.004478
0.00304539
0.00695027
0.00519174
0.00858549
0.00776505
0.00925731
0.0107455
0.00897034
0.0141714
0.00779162
0.0181331
0.00578855
0.0227684
0.00298887
0.0282625
-0.000636729
0.0348761
-0.00519094
0.0428477
-0.0107805
0.0524444
-0.0175273
0.0638448
-0.0255099
0.0770795
-0.0347082
0.0919599
-0.0450027
0.107985
-0.0560773
0.124462
-0.0675447
0.140302
-0.078812
0.154681
-0.0892261
0.166285
-0.098485
0.174926
-0.105295
0.179996
-0.111555
-0.113306
0.181927
0.000180964
0.00131655
0.000884599
0.00377437
0.00215981
0.00567506
0.00398979
0.00675551
0.00635566
0.00689144
0.00928163
0.00604437
0.0128598
0.00421343
0.0172614
0.00138699
0.0227424
-0.00249211
0.0296122
-0.00750659
0.038173
-0.0137517
0.0486658
-0.0212733
0.0611676
-0.0300292
0.0755175
-0.0398598
0.0912754
-0.0504661
0.107731
-0.0614579
0.123955
-0.0723014
0.13895
-0.0825402
0.151705
-0.0915664
0.161663
-0.0991846
0.168238
-0.10506
0.172186
-0.109242
0.173379
-0.112749
-0.113563
0.173637
7.21777e-06
0.00130933
0.00037779
0.00340379
0.00128812
0.00476473
0.00282221
0.00522141
0.0050616
0.00465205
0.00814015
0.00296582
0.0122739
7.96855e-05
0.0177722
-0.00411128
0.024974
-0.00969394
0.0341792
-0.0167118
0.0455302
-0.0251026
0.0589238
-0.0346669
0.0739628
-0.0450682
0.0899661
-0.0558631
0.106043
-0.0665429
0.121194
-0.0766085
0.134485
-0.0855932
0.145179
-0.0932343
0.15292
-0.0993072
0.157853
-0.104117
0.160418
-0.107625
0.161926
-0.11075
0.162488
-0.113311
-0.114846
0.163771
-0.000122803
2.1446e-05
0.000721555
0.00219588
0.00467061
0.00843634
0.0138464
0.0212562
0.0309118
0.0428193
0.0566657
0.0718187
0.0874021
0.102424
0.115938
0.127196
0.135809
0.141776
0.145548
0.147769
0.149148
0.150398
0.151457
0.15479
-0.0125046
-0.0851437
0.0813384
-0.00919184
-0.103051
0.0997379
-0.00692213
-0.118731
0.116461
-0.00596082
-0.131805
0.130843
-0.00535
-0.142363
0.141752
-0.00289249
-0.149824
0.147366
0.00402
-0.151881
0.144969
0.0170222
-0.14432
0.131318
0.0349984
-0.123613
0.105637
0.0551473
-0.0892174
0.0690686
0.0746376
-0.0432583
0.0237679
0.0924714
0.0109476
-0.0287813
0.108748
0.0681117
-0.0843884
0.122967
0.118199
-0.132418
0.133987
0.151946
-0.162966
0.140676
0.168993
-0.175682
0.143767
0.175249
-0.17834
0.145531
0.174005
-0.175769
0.146444
0.169874
-0.170788
0.144893
0.174828
-0.173276
0.140385
0.195059
-0.190551
0.135542
0.214351
-0.209508
0.134045
0.200647
-0.199151
0.137483
0.134682
-0.13812
0.145137
0.0289274
-0.0365814
0.154697
-0.079717
0.0701566
0.162705
-0.16142
0.153412
0.167251
-0.209803
0.205256
0.170195
-0.229036
0.226092
0.172891
-0.226243
0.223547
0.173393
-0.229108
0.228605
0.170303
-0.261755
0.264845
0.165181
-0.299468
0.304591
0.159456
-0.284047
0.289772
0.153658
-0.18702
0.192818
0.14904
-0.0320945
0.0367133
0.146721
0.126812
-0.124494
0.146164
0.241685
-0.241128
0.142276
0.31006
-0.306172
0.131984
0.354372
-0.344079
0.118209
0.370904
-0.35713
0.105025
0.334899
-0.321715
0.094743
0.24069
-0.230408
0.0895462
0.106278
-0.101081
0.0911942
-0.034993
0.033345
0.0978125
-0.148407
0.141789
0.103966
-0.218816
0.212663
0.105619
-0.260165
0.258511
0.103651
-0.281801
0.28377
0.101838
-0.267717
0.26953
0.10397
-0.213302
0.21117
0.109447
-0.113029
0.107551
0.116974
-0.0197447
0.012218
0.124592
0.0771102
-0.084728
0.13061
0.123123
-0.129141
0.133474
0.164852
-0.167716
0.132817
0.175004
-0.174347
0.130506
0.157653
-0.155342
0.134871
0.13502
-0.139385
0.0317115
-0.0382019
0.0208953
-0.0877068
0.0230415
-0.105197
0.0236098
-0.119299
0.0214668
-0.129662
0.016056
-0.136952
0.00888662
-0.142654
0.00393253
-0.146927
0.00553461
-0.145922
0.0152732
-0.133351
0.0315237
-0.105468
0.0512995
-0.0630341
0.0720484
-0.00980133
0.0925246
0.0476355
0.111468
0.0992556
0.126983
0.136431
0.137649
0.158327
0.144308
0.16859
0.149022
0.169291
0.152262
0.166635
0.153143
0.173947
0.151746
0.196456
0.150123
0.215973
0.150414
0.200356
0.153087
0.132009
0.157771
0.0242432
0.163425
-0.0853709
0.167772
-0.165767
0.168975
-0.211005
0.168825
-0.228886
0.16895
-0.226367
0.166909
-0.227067
0.160624
-0.25547
0.152559
-0.291404
0.145956
-0.277444
0.141519
-0.182584
0.140254
-0.0308293
0.142286
0.12478
0.145204
0.238768
0.143536
0.311728
0.134884
0.363024
0.122197
0.383591
0.109044
0.348053
0.097656
0.252078
0.0904874
0.113447
0.0902576
-0.0347632
0.0960072
-0.154157
0.102494
-0.225303
0.105049
-0.26272
0.104137
-0.280889
0.103011
-0.266591
0.105276
-0.215567
0.110867
-0.11862
0.118352
-0.0272295
0.126014
0.0694478
0.131444
0.117692
0.133026
0.16327
0.131687
0.176343
0.12969
0.159649
0.135222
0.129488
0.0246194
0.0533087
-0.0880356
0.0540511
-0.105939
0.0540566
-0.119305
0.0519337
-0.127539
0.0459365
-0.130955
0.0348697
-0.131588
0.0207173
-0.132775
0.00950967
-0.134714
0.00719091
-0.131033
0.015435
-0.113712
0.0318637
-0.0794628
0.0531595
-0.0310971
0.0768023
0.0239927
0.099937
0.0761208
0.119728
0.11664
0.134424
0.143631
0.144791
0.158223
0.152526
0.161555
0.158182
0.160979
0.161618
0.170511
0.16338
0.194694
0.164946
0.214407
0.166884
0.198419
0.168332
0.130561
0.169708
0.0228668
0.171467
-0.0871303
0.172237
-0.166537
0.170239
-0.209007
0.167116
-0.225764
0.16478
-0.224031
0.160569
-0.222856
0.151569
-0.246471
0.140596
-0.280431
0.132948
-0.269796
0.129981
-0.179616
0.132127
-0.0329758
0.138429
0.118478
0.144803
0.232394
0.145579
0.310951
0.138903
0.3697
0.127533
0.394961
0.11433
0.361256
0.101617
0.264791
0.0923714
0.122692
0.090046
-0.0324378
0.094634
-0.158745
0.101297
-0.231966
0.104595
-0.266018
0.104673
-0.280967
0.104402
-0.26632
0.106865
-0.218031
0.112517
-0.124271
0.119968
-0.0346812
0.127559
0.0618574
0.132207
0.113044
0.132409
0.163069
0.130589
0.178163
0.129311
0.160926
0.136048
0.122751
0.0170668
0.0867329
-0.0864931
0.0845947
-0.103801
0.0816795
-0.11639
0.0780012
-0.123861
0.0729939
-0.125947
0.0642871
-0.122881
0.0493069
-0.117794
0.0303054
-0.115713
0.0151762
-0.115903
0.0113505
-0.109886
0.0203302
-0.0884425
0.0388474
-0.0496143
0.0629974
-0.0001573
0.0882878
0.0508304
0.111207
0.0937211
0.129623
0.125215
0.143737
0.14411
0.154597
0.150695
0.162765
0.152812
0.168751
0.164524
0.173591
0.189853
0.178197
0.209801
0.181701
0.194915
0.182363
0.129899
0.180687
0.0245432
0.178833
-0.0852759
0.176087
-0.163791
0.171099
-0.204019
0.165231
-0.219896
0.160576
-0.219375
0.15456
-0.21684
0.143452
-0.235362
0.129893
-0.266872
0.120918
-0.260821
0.119549
-0.178248
0.125028
-0.0384544
0.135238
0.108267
0.144858
0.222774
0.148194
0.307615
0.143687
0.374207
0.133646
0.405003
0.120449
0.374452
0.106507
0.278734
0.0952369
0.133962
0.0906541
-0.027855
0.0937474
-0.161838
0.100398
-0.238617
0.104308
-0.269928
0.105178
-0.281837
0.105877
-0.267018
0.10877
-0.220924
0.114517
-0.130018
0.121878
-0.042042
0.129164
0.0545709
0.132826
0.109382
0.131667
0.164228
0.129608
0.180223
0.129377
0.161158
0.137312
0.114816
0.00918375
0.118747
-0.0836034
0.114142
-0.0991956
0.107769
-0.110017
0.100185
-0.116277
0.0925244
-0.118287
0.0852528
-0.115609
0.0755102
-0.108052
0.0591352
-0.0993379
0.0382474
-0.0950156
0.0221972
-0.0938363
0.0193118
-0.085557
0.0308493
-0.0611518
0.0520484
-0.0213565
0.0773957
0.0254831
0.101967
0.0691499
0.123328
0.103854
0.140818
0.12662
0.154553
0.13696
0.16495
0.142415
0.173198
0.156276
0.180891
0.182161
0.18823
0.202462
0.193044
0.190101
0.193419
0.129524
0.190016
0.0279465
0.184968
-0.0802285
0.178985
-0.157807
0.171361
-0.196396
0.163113
-0.211648
0.156426
-0.212688
0.149101
-0.209516
0.136627
-0.222887
0.120896
-0.251141
0.110241
-0.250165
0.109742
-0.177749
0.118244
-0.0469564
0.132204
0.0943067
0.145189
0.20979
0.151418
0.301386
0.149478
0.376147
0.140921
0.41356
0.1276
0.387773
0.112343
0.29399
0.0990731
0.147232
0.0921384
-0.0209202
0.0933838
-0.163084
0.099756
-0.244989
0.104225
-0.274397
0.105637
-0.283249
0.107235
-0.268616
0.110851
-0.22454
0.11685
-0.136017
0.124045
-0.0492371
0.130746
0.0478697
0.133251
0.106877
0.130866
0.166612
0.128826
0.182263
0.129865
0.160119
0.138944
0.105736
0.00108403
0.145333
-0.0789733
0.138514
-0.0923764
0.129791
-0.101294
0.119738
-0.106224
0.108932
-0.10748
0.0989015
-0.105579
0.0909933
-0.100144
0.0820678
-0.0904125
0.0667189
-0.0796667
0.0465507
-0.0736681
0.0317711
-0.0707774
0.0312868
-0.0606675
0.0452113
-0.035281
0.0680936
0.00260075
0.0932855
0.043958
0.117017
0.0801226
0.137386
0.106251
0.153443
0.120903
0.165379
0.130479
0.175133
0.146522
0.18497
0.172323
0.194463
0.19297
0.200412
0.184152
0.200868
0.129068
0.196562
0.0322521
0.189433
-0.0730996
0.180858
-0.149232
0.171044
-0.186582
0.160855
-0.201459
0.152417
-0.20425
0.144142
-0.201241
0.131167
-0.209912
0.11403
-0.234005
0.10153
-0.237665
0.101018
-0.177236
0.111778
-0.0577172
0.129103
0.0769821
0.145446
0.193447
0.154608
0.292223
0.155246
0.375509
0.148362
0.420444
0.135318
0.400818
0.119019
0.310289
0.103826
0.162424
0.0945314
-0.0116257
0.0936309
-0.162183
0.0993293
-0.250688
0.104326
-0.279393
0.106095
-0.285018
0.108315
-0.270836
0.11284
-0.229064
0.119338
-0.142515
0.126338
-0.0562367
0.132206
0.0420014
0.133456
0.105627
0.130076
0.169993
0.128314
0.184026
0.130747
0.157686
0.140873
0.0956102
-0.00713793
0.16403
-0.0717763
0.15443
-0.0827772
0.14311
-0.0899735
0.131312
-0.0944259
0.119811
-0.0959798
0.108677
-0.0944453
0.0990775
-0.0905435
0.0925275
-0.0838625
0.0860686
-0.0732078
0.0737474
-0.0613469
0.056438
-0.0534679
0.0441805
-0.04841
0.0458173
-0.0369178
0.0612991
-0.0128811
0.0844977
0.0207594
0.10942
0.0552006
0.132068
0.0836029
0.150089
0.102882
0.163335
0.117233
0.174338
0.135519
0.185854
0.160808
0.196926
0.181897
0.203797
0.177281
0.204768
0.128097
0.200449
0.0365708
0.192142
-0.064792
0.18162
-0.138711
0.170048
-0.175009
0.158363
-0.189774
0.148557
-0.194443
0.139674
-0.192358
0.126874
-0.197113
0.109249
-0.216379
0.0950514
-0.223468
0.0936892
-0.175874
0.105768
-0.0697957
0.125726
0.0570238
0.145259
0.173913
0.158003
0.27948
0.16176
0.371752
0.156666
0.425538
0.143764
0.41372
0.126362
0.327691
0.109307
0.17948
0.0976976
-1.66021e-05
0.094539
-0.159025
0.0991219
-0.255271
0.104543
-0.284814
0.10662
-0.287095
0.109065
-0.273282
0.114448
-0.234447
0.12169
-0.149757
0.128552
-0.0630992
0.133447
0.0371069
0.13344
0.105634
0.129361
0.174071
0.128127
0.18526
0.131999
0.153814
0.14304
0.0845694
-0.0154062
0.173063
-0.0624211
0.161652
-0.0713664
0.14894
-0.0772621
0.135997
-0.0814828
0.123975
-0.0839579
0.113482
-0.0839523
0.104205
-0.081266
0.0968186
-0.0764763
0.0927015
-0.0690907
0.0893356
-0.057981
0.0812388
-0.0453712
0.0682636
-0.0354347
0.0588549
-0.0275091
0.0614803
-0.0155065
0.0766563
0.00558344
0.0988239
0.0330329
0.12168
0.0607467
0.140784
0.0837772
0.155311
0.102707
0.168038
0.122791
0.181641
0.147205
0.194483
0.169054
0.202739
0.169025
0.205175
0.125661
0.20193
0.039816
0.193211
-0.056073
0.181287
-0.126787
0.168394
-0.162116
0.155633
-0.177013
0.144784
-0.183595
0.135552
-0.183125
0.123466
-0.185027
0.106328
-0.199241
0.0908892
-0.208029
0.0879345
-0.17292
0.100172
-0.0820327
0.12192
0.0352754
0.144212
0.151621
0.160346
0.263347
0.167349
0.364748
0.164519
0.428369
0.152636
0.425602
0.134617
0.34571
0.115599
0.198498
0.101633
0.0139494
0.0961266
-0.153518
0.0991912
-0.258335
0.104796
-0.29042
0.107241
-0.28954
0.10955
-0.275591
0.11547
-0.240367
0.123577
-0.157864
0.130446
-0.0699678
0.134373
0.0331799
0.133212
0.106794
0.12877
0.178514
0.128299
0.18573
0.133604
0.148509
0.145406
0.0727669
-0.0236497
0.17192
-0.0524144
0.160402
-0.0598477
0.148227
-0.0650875
0.1362
-0.0694561
0.12479
-0.0725476
0.11466
-0.0738229
0.106227
-0.0728324
0.0993402
-0.0695896
0.0945399
-0.0642903
0.0928275
-0.0562687
0.0926508
-0.0451944
0.0893475
-0.0321315
0.0815192
-0.0196808
0.0753008
-0.00928809
0.0778747
0.00300949
0.0906878
0.0202199
0.108979
0.0424553
0.126819
0.0659375
0.141957
0.0875681
0.156602
0.108147
0.172715
0.131091
0.187797
0.153973
0.198107
0.158715
0.202787
0.120981
0.201084
0.0415196
0.192557
-0.047546
0.179766
-0.113996
0.166004
-0.148354
0.152575
-0.163584
0.141039
-0.172059
0.131601
-0.173687
0.120486
-0.173913
0.104645
-0.183399
0.0887704
-0.192155
0.0838082
-0.167957
0.0949786
-0.0932031
0.117533
0.012721
0.142319
0.126835
0.162343
0.243322
0.173408
0.353684
0.172985
0.428791
0.161604
0.436984
0.142865
0.364448
0.122306
0.219057
0.105914
0.0303412
0.0982778
-0.145881
0.0995744
-0.259632
0.105003
-0.295848
0.1079
-0.292438
0.109876
-0.277566
0.115844
-0.246335
0.124735
-0.166756
0.131789
-0.0770218
0.134905
0.0300644
0.132797
0.108902
0.128339
0.182972
0.128847
0.185222
0.135546
0.14181
0.147945
0.0603684
-0.0318002
0.164852
-0.0436301
0.154868
-0.0498638
0.144401
-0.0546201
0.134116
-0.0591714
0.124363
-0.0627943
0.115368
-0.0648273
0.107515
-0.0649799
0.101216
-0.0632909
0.0966547
-0.0597287
0.0941483
-0.0537623
0.0943785
-0.0454245
0.0964392
-0.0341922
0.0969864
-0.020228
0.0937468
-0.00604854
0.0903263
0.00643006
0.0924728
0.0180734
0.101457
0.0334713
0.114112
0.053282
0.127755
0.0739256
0.143192
0.0927098
0.161054
0.11323
0.178151
0.136875
0.190971
0.145895
0.198549
0.113403
0.199091
0.0409776
0.190914
-0.0393687
0.177321
-0.100404
0.162902
-0.133934
0.149086
-0.149768
0.137118
-0.160091
0.127622
-0.164191
0.117584
-0.163875
0.103549
-0.169364
0.088206
-0.176812
0.0813237
-0.161075
0.0903215
-0.102201
0.112483
-0.00944007
0.138834
0.100483
0.161924
0.220232
0.176847
0.338761
0.180241
0.425397
0.171079
0.446146
0.152547
0.382981
0.129985
0.241619
0.111067
0.0492593
0.100982
-0.135796
0.100234
-0.258884
0.105064
-0.300679
0.108457
-0.29583
0.110119
-0.279228
0.115641
-0.251856
0.125018
-0.176133
0.132401
-0.0844047
0.134971
0.0274939
0.132206
0.111668
0.128082
0.187095
0.129764
0.183541
0.137805
0.133768
0.150628
0.0475458
-0.0397925
0.156824
-0.0366838
0.14861
-0.0416493
0.13989
-0.0459006
0.131086
-0.0503669
0.122479
-0.0541872
0.114436
-0.0567846
0.107334
-0.0578775
0.101574
-0.0575318
0.0974023
-0.0555565
0.0950104
-0.0513704
0.0945342
-0.0449484
0.0965992
-0.0362571
0.100853
-0.0244822
0.104664
-0.00985933
0.106266
0.00482809
0.106165
0.0181744
0.107793
0.031843
0.113168
0.0479077
0.121808
0.0652849
0.134332
0.0801864
0.151017
0.0965442
0.168783
0.11911
0.183605
0.131073
0.193411
0.103597
0.195082
0.0393069
0.187189
-0.0314765
0.173264
-0.0864784
0.158753
-0.119424
0.145065
-0.13608
0.13298
-0.148006
0.123562
-0.154773
0.114559
-0.154872
0.102527
-0.157332
0.0885682
-0.162853
0.0804622
-0.152969
0.086552
-0.108291
0.107121
-0.030009
0.134825
0.0727792
0.161613
0.193444
0.180716
0.319658
0.187303
0.41881
0.179574
0.453874
0.160634
0.401921
0.137108
0.265145
0.11611
0.0702568
0.103917
-0.123603
0.101256
-0.256223
0.10521
-0.304633
0.108957
-0.299577
0.110423
-0.280694
0.11509
-0.256524
0.124447
-0.185491
0.132183
-0.0921405
0.134533
0.0251438
0.131478
0.114722
0.12803
0.190543
0.131039
0.180532
0.140352
0.124456
0.153423
0.0344751
-0.047567
0.149256
-0.0311505
0.142404
-0.0347975
0.13514
-0.0386361
0.127561
-0.0427884
0.120048
-0.0466738
0.113027
-0.0497634
0.106835
-0.0516859
0.101539
-0.0522361
0.0972263
-0.0512435
0.0943661
-0.0485101
0.0932266
-0.0438089
0.0941256
-0.0371562
0.0976882
-0.0280449
0.103198
-0.0153696
0.108785
-0.000757933
0.113473
0.0134859
0.117257
0.0280593
0.120861
0.0443032
0.126125
0.0600215
0.134232
0.0720791
0.146169
0.0846075
0.161415
0.103863
0.177239
0.115249
0.189342
0.0914943
0.192743
0.0359056
0.184591
-0.0233248
0.169841
-0.0717279
0.154931
-0.104514
0.141371
-0.122519
0.129218
-0.135853
0.119833
-0.145388
0.111725
-0.146764
0.101451
-0.147058
0.0890927
-0.150495
0.0807243
-0.144601
0.0840676
-0.111634
0.10103
-0.0469719
0.127735
0.046075
0.156531
0.164648
0.180127
0.296062
0.1921
0.406837
0.189094
0.45688
0.171632
0.419384
0.146314
0.290463
0.122534
0.094037
0.107716
-0.108785
0.103439
-0.251946
0.105998
-0.307192
0.109676
-0.303254
0.110978
-0.281996
0.114529
-0.260075
0.12328
-0.194242
0.131162
-0.100023
0.133586
0.0227201
0.130607
0.117701
0.128137
0.193014
0.132629
0.17604
0.143147
0.113938
0.156292
0.0213298
-0.0550699
0.196274
-0.0261272
-0.201297
0.192071
-0.030595
0.187716
-0.0342805
0.182775
-0.0378479
0.177209
-0.0411071
0.17121
-0.0437653
0.164975
-0.0454509
0.158636
-0.0458967
0.152297
-0.0449043
0.146133
-0.0423463
0.140262
-0.0379377
0.134806
-0.0317007
0.130333
-0.0235716
0.127592
-0.0126287
0.126585
0.000248742
0.125961
0.0141098
0.12446
0.0295604
0.122822
0.0459413
0.123096
0.0597479
0.125594
0.0695811
0.130666
0.0795359
0.142134
0.0923951
0.163157
0.0942257
0.187949
0.0667032
0.205068
0.0187866
0.209889
-0.0281462
0.205087
-0.0669257
0.196026
-0.0954533
0.185258
-0.111752
0.173642
-0.124238
0.162708
-0.134453
0.15255
-0.136607
0.141064
-0.135571
0.126454
-0.135885
0.111126
-0.129272
0.101875
-0.102384
0.103141
-0.0482373
0.112196
0.03702
0.123894
0.15295
0.134026
0.28593
0.140268
0.400595
0.141935
0.455213
0.139565
0.421753
0.134617
0.295411
0.130183
0.0984705
0.128945
-0.107546
0.128982
-0.251984
0.129002
-0.307211
0.12817
-0.302422
0.125109
-0.278936
0.122679
-0.257644
0.124191
-0.195753
0.125536
-0.101368
0.123143
0.0251135
0.117976
0.122867
0.1164
0.19459
0.122739
0.169701
0.133734
0.102943
0.145112
0.00995215
-0.0601578
0.204299
-0.0221069
-0.20832
0.200049
-0.0263446
0.195684
-0.0299158
0.190894
-0.0330581
0.185608
-0.0358203
0.179907
-0.0380644
0.173947
-0.0394911
0.167937
-0.0398866
0.162046
-0.0390139
0.156427
-0.0367272
0.151325
-0.0328359
0.146864
-0.0272394
0.143256
-0.0199633
0.140933
-0.0103062
0.140186
0.0009958
0.140982
0.013314
0.14249
0.0280523
0.144772
0.04366
0.148345
0.0561747
0.152608
0.0653177
0.158902
0.0732424
0.171856
0.0794407
0.191641
0.0744406
0.210351
0.0479928
0.220778
0.00835999
0.220987
-0.0283553
0.213956
-0.059895
0.203933
-0.0854298
0.192911
-0.10073
0.181308
-0.112635
0.170404
-0.123549
0.159997
-0.1262
0.148254
-0.123829
0.134463
-0.122094
0.120596
-0.115406
0.111734
-0.0935211
0.112159
-0.0486625
0.121138
0.0280411
0.133767
0.14032
0.145537
0.27416
0.153645
0.392487
0.157091
0.451767
0.155692
0.423152
0.150631
0.300472
0.146222
0.102879
0.144109
-0.105433
0.142925
-0.2508
0.14141
-0.305696
0.139429
-0.300441
0.135654
-0.275161
0.131979
-0.253969
0.132076
-0.195849
0.132542
-0.101835
0.129637
0.028019
0.1246
0.127904
0.124493
0.194697
0.132695
0.161499
0.144922
0.0907155
0.156386
-0.00151181
-0.0648528
0.212775
-0.0189493
-0.215932
0.208966
-0.0225365
0.204847
-0.025796
0.200394
-0.0286057
0.195539
-0.0309647
0.190318
-0.0328442
0.18485
-0.0340227
0.179298
-0.0343344
0.17383
-0.0335464
0.168596
-0.0314924
0.163856
-0.0280965
0.159747
-0.0231307
0.156497
-0.0167127
0.154566
-0.00837495
0.154066
0.00149575
0.155257
0.0121231
0.15831
0.0249989
0.163177
0.0387933
0.169559
0.0497926
0.176536
0.0583403
0.185114
0.0646646
0.198407
0.0661479
0.214718
0.0581299
0.22724
0.0354706
0.232249
0.00335128
0.229993
-0.0260996
0.222539
-0.0524414