/*--------------------------------*- C++ -*----------------------------------*\
| =========                 |                                                 |
| \\      /  F ield         | OpenFOAM: The Open Source CFD Toolbox           |
|  \\    /   O peration     | Version:  2512                                  |
|   \\  /    A nd           | Website:  www.openfoam.com                      |
|    \\/     M anipulation  |                                                 |
\*---------------------------------------------------------------------------*/
FoamFile
{
    version     2.0;
    format      ascii;
    arch        "LSB;label=32;scalar=64";
    class       volScalarField;
    location    "198.8";
    object      p;
}
// * * * * * * * * * * * * * * * * * * * * * * * * * * * * * * * * * * * * * //

dimensions      [0 2 -2 0 0 0 0];

internalField   nonuniform List<scalar> 
13248
(
-0.280267
-0.281876
-0.281809
-0.280638
-0.278332
-0.274584
-0.269125
-0.261856
-0.252882
-0.242464
-0.231032
-0.21915
-0.207423
-0.196388
-0.186423
-0.177708
-0.170218
-0.163829
-0.158255
-0.153426
-0.14886
-0.144707
-0.140054
-0.134662
-0.284229
-0.28494
-0.284445
-0.283096
-0.280806
-0.27723
-0.272089
-0.265216
-0.256614
-0.246482
-0.235227
-0.223381
-0.2115
-0.200048
-0.189336
-0.179521
-0.170629
-0.162602
-0.155336
-0.148654
-0.14232
-0.136136
-0.129624
-0.123259
-0.289678
-0.289309
-0.288082
-0.286187
-0.283523
-0.279786
-0.274634
-0.267796
-0.259176
-0.248928
-0.237446
-0.225262
-0.212914
-0.200852
-0.189391
-0.178714
-0.16887
-0.159835
-0.151455
-0.143629
-0.136104
-0.128837
-0.121652
-0.114728
-0.296258
-0.29472
-0.292574
-0.289838
-0.286545
-0.282366
-0.276852
-0.269601
-0.260455
-0.249589
-0.237459
-0.224651
-0.211728
-0.19914
-0.187177
-0.175973
-0.16555
-0.155839
-0.146756
-0.138196
-0.130017
-0.122248
-0.114601
-0.10751
-0.304173
-0.301405
-0.298154
-0.294577
-0.290509
-0.285584
-0.279216
-0.270934
-0.260647
-0.248681
-0.235621
-0.222111
-0.208696
-0.195746
-0.183462
-0.171918
-0.161104
-0.150976
-0.141461
-0.132479
-0.123951
-0.115836
-0.108015
-0.100789
-0.313959
-0.309915
-0.305653
-0.301095
-0.29601
-0.289852
-0.281939
-0.271911
-0.259929
-0.246546
-0.232453
-0.218263
-0.204414
-0.191159
-0.178619
-0.16682
-0.155746
-0.145343
-0.135555
-0.12632
-0.117575
-0.109297
-0.101377
-0.0940594
-0.326059
-0.320651
-0.315344
-0.309706
-0.303205
-0.295118
-0.284878
-0.272483
-0.258453
-0.243524
-0.22838
-0.213517
-0.199234
-0.185677
-0.172895
-0.160881
-0.149602
-0.139012
-0.129058
-0.119685
-0.110847
-0.102486
-0.0945635
-0.0872205
-0.340663
-0.333804
-0.327378
-0.320375
-0.311816
-0.300963
-0.287688
-0.272519
-0.256292
-0.239797
-0.223605
-0.208053
-0.193304
-0.179411
-0.166372
-0.154155
-0.142714
-0.131998
-0.121951
-0.112521
-0.103652
-0.0952961
-0.0874348
-0.0800852
-0.357628
-0.349271
-0.341551
-0.332662
-0.321187
-0.306742
-0.289932
-0.27182
-0.253402
-0.235378
-0.218144
-0.201876
-0.186621
-0.172365
-0.159063
-0.146658
-0.135089
-0.124296
-0.114216
-0.10479
-0.0959612
-0.0876803
-0.079928
-0.0726328
-0.376407
-0.366567
-0.357234
-0.345677
-0.330334
-0.311643
-0.29107
-0.270041
-0.249521
-0.230025
-0.21176
-0.19476
-0.178982
-0.164355
-0.150798
-0.13823
-0.126574
-0.115754
-0.1057
-0.0963426
-0.0876168
-0.0794736
-0.071867
-0.0646714
-0.396049
-0.384763
-0.373314
-0.358096
-0.337998
-0.31467
-0.290328
-0.266517
-0.244021
-0.223129
-0.203872
-0.186165
-0.169891
-0.154928
-0.141162
-0.128486
-0.116804
-0.106026
-0.0960707
-0.0868594
-0.0783242
-0.0704071
-0.0630247
-0.0560571
-0.415219
-0.402541
-0.388263
-0.368327
-0.342784
-0.314675
-0.286709
-0.26032
-0.236021
-0.213866
-0.193723
-0.175405
-0.158729
-0.143527
-0.129649
-0.116963
-0.105352
-0.0947135
-0.0849513
-0.0759815
-0.0677367
-0.0601556
-0.0531392
-0.0466013
-0.479296
-0.480962
-0.481873
-0.484322
-0.489079
-0.496102
-0.505147
-0.515845
-0.527669
-0.539877
-0.55152
-0.560957
-0.568457
-0.572387
-0.571749
-0.565863
-0.554414
-0.53755
-0.516003
-0.491147
-0.464852
-0.43909
-0.415931
-0.39795
-0.446537
-0.448516
-0.448753
-0.449597
-0.451926
-0.455746
-0.460838
-0.466858
-0.473327
-0.479625
-0.484433
-0.488079
-0.489361
-0.487586
-0.482259
-0.473174
-0.460487
-0.444779
-0.427067
-0.408811
-0.391827
-0.377895
-0.368285
-0.364506
-0.41549
-0.417486
-0.417045
-0.416407
-0.416467
-0.417262
-0.418585
-0.4201
-0.421341
-0.421702
-0.42116
-0.418886
-0.414457
-0.407597
-0.398253
-0.386661
-0.373391
-0.359361
-0.345809
-0.334142
-0.325835
-0.322399
-0.324797
-0.332079
-0.38734
-0.389173
-0.388215
-0.386457
-0.384721
-0.38305
-0.381256
-0.379054
-0.376093
-0.372028
-0.366583
-0.359474
-0.350572
-0.33994
-0.327884
-0.31498
-0.302075
-0.290228
-0.280784
-0.275026
-0.273956
-0.278408
-0.289354
-0.303912
-0.362597
-0.364224
-0.363002
-0.360592
-0.357664
-0.354234
-0.350146
-0.345198
-0.339112
-0.331664
-0.322707
-0.312205
-0.30029
-0.287299
-0.273797
-0.260587
-0.248673
-0.238717
-0.232664
-0.231042
-0.234876
-0.243617
-0.2591
-0.2769
-0.341254
-0.342757
-0.341543
-0.338932
-0.335393
-0.330885
-0.325297
-0.318438
-0.310172
-0.300397
-0.289106
-0.276435
-0.2627
-0.248425
-0.234307
-0.221231
-0.210176
-0.202119
-0.198203
-0.19876
-0.205106
-0.215469
-0.231993
-0.250147
-0.323053
-0.324598
-0.323612
-0.321129
-0.317419
-0.312354
-0.305802
-0.297671
-0.287925
-0.276586
-0.263783
-0.249787
-0.235004
-0.220127
-0.205906
-0.193236
-0.183073
-0.176254
-0.173824
-0.175616
-0.183161
-0.194054
-0.210539
-0.227702
-0.307749
-0.309515
-0.30887
-0.306674
-0.303035
-0.297722
-0.290584
-0.281607
-0.270852
-0.258462
-0.244686
-0.2299
-0.214672
-0.199703
-0.185815
-0.173898
-0.164857
-0.159412
-0.158422
-0.16155
-0.169985
-0.181146
-0.196714
-0.21179
-0.295331
-0.297423
-0.297108
-0.295194
-0.291707
-0.28631
-0.278884
-0.26944
-0.258116
-0.245162
-0.230942
-0.215971
-0.200898
-0.186492
-0.173601
-0.163072
-0.15569
-0.151997
-0.152401
-0.156618
-0.164753
-0.175064
-0.187589
-0.198828
-0.286094
-0.28847
-0.288386
-0.286671
-0.283319
-0.278063
-0.270699
-0.261269
-0.249967
-0.237127
-0.223192
-0.208819
-0.194662
-0.181494
-0.170104
-0.161193
-0.155312
-0.152752
-0.153495
-0.157213
-0.163299
-0.17082
-0.178546
-0.184391
-0.280482
-0.282938
-0.282984
-0.281459
-0.278398
-0.273501
-0.266596
-0.257717
-0.247081
-0.235021
-0.222024
-0.208697
-0.195735
-0.183856
-0.173723
-0.16585
-0.160502
-0.157708
-0.157172
-0.158443
-0.16097
-0.164054
-0.166958
-0.168438
-0.278698
-0.28091
-0.280979
-0.27967
-0.277001
-0.272673
-0.266525
-0.258532
-0.2488
-0.237671
-0.225619
-0.213235
-0.201178
-0.190081
-0.180451
-0.172604
-0.166568
-0.162251
-0.1592
-0.157161
-0.155596
-0.154303
-0.153351
-0.152406
-0.38606
-0.386825
-0.401043
-0.424441
-0.450455
-0.472372
-0.481915
-0.468862
-0.426206
-0.360666
-0.289956
-0.230035
-0.188368
-0.164351
-0.155418
-0.158793
-0.173337
-0.202596
-0.250653
-0.307575
-0.347589
-0.345904
-0.305081
-0.246372
-0.190677
-0.14983
-0.127038
-0.119184
-0.125377
-0.150591
-0.19495
-0.241185
-0.2618
-0.240246
-0.19337
-0.14516
-0.110413
-0.0919337
-0.0903033
-0.104573
-0.121183
-0.123226
-0.108216
-0.0893804
-0.0754912
-0.0696931
-0.0720398
-0.0773571
-0.0777251
-0.0698001
-0.058219
-0.0470377
-0.042588
-0.0382995
-0.032442
-0.0244471
-0.0243048
-0.0225621
-0.0222119
-0.00592413
-0.37091
-0.388478
-0.414065
-0.443015
-0.469608
-0.489544
-0.497312
-0.482985
-0.438864
-0.371657
-0.299174
-0.23703
-0.192315
-0.164159
-0.150361
-0.148903
-0.158076
-0.180136
-0.218997
-0.267698
-0.303534
-0.303934
-0.271619
-0.222409
-0.174794
-0.140122
-0.122245
-0.118789
-0.129902
-0.161283
-0.212304
-0.264082
-0.28756
-0.264008
-0.211725
-0.156424
-0.114339
-0.0892369
-0.0809888
-0.08856
-0.0998151
-0.100342
-0.0889456
-0.0759666
-0.0683494
-0.0693443
-0.0781935
-0.0886875
-0.09068
-0.0808283
-0.065237
-0.047679
-0.0372912
-0.0278246
-0.0212901
-0.0175724
-0.022953
-0.0303809
-0.0313099
-0.00813171
-0.35196
-0.381726
-0.414766
-0.446297
-0.471681
-0.488911
-0.494421
-0.47878
-0.434813
-0.368433
-0.296953
-0.235668
-0.190492
-0.160318
-0.142632
-0.136063
-0.139565
-0.154084
-0.183105
-0.222434
-0.254358
-0.257845
-0.234677
-0.195055
-0.155348
-0.126808
-0.113792
-0.114508
-0.130188
-0.166941
-0.223277
-0.279671
-0.306565
-0.282863
-0.226601
-0.165285
-0.116691
-0.0857431
-0.0716628
-0.0733862
-0.0800234
-0.0790892
-0.0704427
-0.0624146
-0.0606599
-0.0685944
-0.0842178
-0.0999793
-0.103524
-0.0913854
-0.0718011
-0.0482176
-0.0320792
-0.0175217
-0.0103264
-0.0107832
-0.0213861
-0.0378582
-0.0402524
-0.0103754
-0.330358
-0.365993
-0.40275
-0.434991
-0.459089
-0.473869
-0.47681
-0.459134
-0.415188
-0.351909
-0.285097
-0.227527
-0.183833
-0.153263
-0.133454
-0.122692
-0.120417
-0.127552
-0.147044
-0.177019
-0.204675
-0.214976
-0.196434
-0.165514
-0.133249
-0.110422
-0.101755
-0.106045
-0.125149
-0.165524
-0.226026
-0.286703
-0.317425
-0.295504
-0.237207
-0.171293
-0.117415
-0.0815151
-0.0625941
-0.0594375
-0.0621982
-0.0597822
-0.0529151
-0.0488431
-0.0524061
-0.0672352
-0.0898508
-0.111055
-0.116131
-0.101303
-0.0777723
-0.0486186
-0.0270739
-0.00761554
0.000325337
-0.00413589
-0.0195701
-0.0447984
-0.0488515
-0.0126759
-0.30396
-0.340065
-0.377903
-0.410585
-0.433017
-0.44663
-0.447433
-0.428108
-0.385372
-0.327263
-0.267307
-0.215186
-0.174193
-0.144019
-0.123091
-0.109781
-0.10309
-0.103411
-0.113811
-0.134674
-0.156716
-0.167472
-0.157164
-0.134841
-0.109458
-0.0916586
-0.0866067
-0.0937526
-0.115037
-0.157127
-0.220067
-0.284147
-0.318894
-0.301226
-0.243247
-0.174408
-0.116721
-0.0768257
-0.0539668
-0.0468465
-0.0465128
-0.0426287
-0.036601
-0.0353618
-0.0434555
-0.0650191
-0.0948726
-0.121716
-0.128346
-0.110464
-0.0830643
-0.0488691
-0.0223766
0.00169113
0.0105738
0.0023199
-0.0174678
-0.0510193
-0.0569297
-0.0150415
-0.275066
-0.308279
-0.344736
-0.378476
-0.399748
-0.410822
-0.409141
-0.388616
-0.348758
-0.297901
-0.246348
-0.200671
-0.163262
-0.134079
-0.11241
-0.097258
-0.0875731
-0.0832213
-0.0859187
-0.0978863
-0.113546
-0.123774
-0.11927
-0.10447
-0.0851299
-0.0715998
-0.0694187
-0.0786596
-0.10099
-0.142851
-0.205691
-0.272196
-0.310978
-0.299488
-0.24419
-0.174569
-0.114783
-0.0719363
-0.0459962
-0.0357171
-0.0330087
-0.0277607
-0.0217049
-0.0221621
-0.0339261
-0.0618559
-0.0989182
-0.13166
-0.139982
-0.118746
-0.087576
-0.0489516
-0.0180795
0.0102172
0.0203162
0.00851788
-0.0150409
-0.0563583
-0.0643167
-0.0174635
-0.249307
-0.277036
-0.309395
-0.337594
-0.359152
-0.368269
-0.364439
-0.344285
-0.309667
-0.267608
-0.224972
-0.185912
-0.152363
-0.124706
-0.102692
-0.086008
-0.0739627
-0.0660806
-0.0632476
-0.0674906
-0.0767155
-0.0851025
-0.0843812
-0.0756114
-0.0614573
-0.0514976
-0.0513522
-0.0619499
-0.0844468
-0.124179
-0.184134
-0.250591
-0.293716
-0.289375
-0.239554
-0.171827
-0.111809
-0.067146
-0.0388654
-0.0260577
-0.021603
-0.0152245
-0.00847635
-0.00963107
-0.0238742
-0.0575197
-0.101807
-0.140646
-0.150846
-0.126088
-0.0912331
-0.048831
-0.0142394
0.0178027
0.0294534
0.0143906
-0.0122905
-0.0606908
-0.0708595
-0.0199153
-0.228413
-0.248257
-0.27579
-0.299523
-0.314845
-0.320729
-0.315866
-0.298521
-0.271173
-0.238466
-0.204426
-0.171751
-0.142128
-0.116351
-0.0945724
-0.0768776
-0.0630354
-0.0525123
-0.04557
-0.0437107
-0.0469705
-0.0525278
-0.0570094
-0.0492861
-0.0394921
-0.0324423
-0.0336274
-0.0448294
-0.0665331
-0.10313
-0.15828
-0.222001
-0.268654
-0.272455
-0.229921
-0.166388
-0.107866
-0.0626088
-0.0326679
-0.0178283
-0.0121136
-0.00500145
0.00287783
0.00195423
-0.0136467
-0.0521027
-0.103
-0.148149
-0.160571
-0.132358
-0.0939696
-0.0484515
-0.0108557
0.0243264
0.0378854
0.0198621
-0.00923955
-0.0639093
-0.0764224
-0.0223533
-0.208393
-0.219783
-0.238985
-0.257415
-0.267388
-0.271496
-0.267972
-0.255776
-0.236469
-0.212388
-0.185819
-0.158795
-0.132886
-0.109133
-0.0879922
-0.0698031
-0.0547283
-0.0424129
-0.0327133
-0.0264648
-0.0244133
-0.0257723
-0.0283454
-0.0250907
-0.0196423
-0.0151513
-0.0170974
-0.0282626
-0.0488594
-0.0812859
-0.129758
-0.189603
-0.237918
-0.252695
-0.216367
-0.158572
-0.102896
-0.0582746
-0.0273321
-0.0109248
-0.00426836
0.00306792
0.0122058
0.0122512
-0.00328959
-0.0451037
-0.102623
-0.154058
-0.168945
-0.13758
-0.0957524
-0.0477917
-0.00792105
0.0297141
0.0455484
0.02489
-0.00595892
-0.0659893
-0.0809616
-0.0247233
-0.185583
-0.189124
-0.203476
-0.216019
-0.223219
-0.22724
-0.226311
-0.219347
-0.206735
-0.189466
-0.168966
-0.146835
-0.124425
-0.102816
-0.082713
-0.0645784
-0.0487944
-0.0353342
-0.0239131
-0.0148837
-0.00874855
-0.00582142
-0.00554671
-0.00540195
-0.00265099
-0.000202151
-0.0026632
-0.0132911
-0.0322862
-0.0605345
-0.102428
-0.15521
-0.202854
-0.221521
-0.196567
-0.147944
-0.0969442
-0.0543346
-0.0229886
-0.00535212
0.00209854
0.0091875
0.0194497
0.0209386
0.00651726
-0.0370971
-0.099891
-0.157271
-0.175237
-0.141375
-0.0965586
-0.0469502
-0.00558437
0.0338656
0.0523568
0.0294048
-0.00250814
-0.0668821
-0.0870485
-0.0269663
-0.164818
-0.167157
-0.177095
-0.184505
-0.189851
-0.193944
-0.194985
-0.191723
-0.183816
-0.171547
-0.155773
-0.137664
-0.118357
-0.0988485
-0.0799528
-0.062253
-0.0461637
-0.0319048
-0.01932
-0.00850002
0.000400813
0.00690287
0.0102501
0.0109136
0.0125597
0.0124994
0.00958204
-0.000266831
-0.0174055
-0.0411905
-0.0753997
-0.121935
-0.168215
-0.190799
-0.178565
-0.13791
-0.0915482
-0.0515384
-0.0201767
-0.00126902
0.00714969
0.0135267
0.0245198
0.0281194
0.0161698
-0.0274175
-0.0952104
-0.158827
-0.179624
-0.144246
-0.0967442
-0.0459843
-0.00386535
0.0365726
0.0582886
0.0334398
0.00102062
-0.0666005
-0.0889796
-0.0289463
-0.15088
-0.153722
-0.158757
-0.161153
-0.163635
-0.166204
-0.167367
-0.166006
-0.161374
-0.153215
-0.1418
-0.12773
-0.111775
-0.0947649
-0.0774613
-0.0605719
-0.0446403
-0.0299975
-0.0167004
-0.00496917
0.00529084
0.0141276
0.0204719
0.0228804
0.0233323
0.0221661
0.018979
0.0104139
-0.00556189
-0.0257089
-0.0528827
-0.0915624
-0.132223
-0.153555
-0.149839
-0.122051
-0.0829612
-0.0467681
-0.0169462
0.00244917
0.0118765
0.0174611
0.0278824
0.0328376
0.023831
-0.01723
-0.0874774
-0.156187
-0.18047
-0.144996
-0.0957742
-0.0438709
-0.00159563
0.0385411
0.0630643
0.0368847
0.00455942
-0.0650415
-0.0897784
-0.0305433
-0.141418
-0.150488
-0.151999
-0.151314
-0.150818
-0.150786
-0.150387
-0.148334
-0.143612
-0.135812
-0.125114
-0.112066
-0.0973678
-0.0817688
-0.0659012
-0.0502903
-0.035392
-0.0214732
-0.00857852
0.00299757
0.0133309
0.0228839
0.0308491
0.0354513
0.0353748
0.0311941
0.0265558
0.0194954
0.00748649
-0.00837312
-0.0310116
-0.0648581
-0.104012
-0.130354
-0.132702
-0.105932
-0.0698691
-0.0370982
-0.0101608
0.00774362
0.0166714
0.0216634
0.0320017
0.0394954
0.0328724
-0.00533986
-0.0772514
-0.152293
-0.181069
-0.143455
-0.0915907
-0.039696
0.00181767
0.0411433
0.0676372
0.0399827
0.00810697
-0.0624354
-0.0898172
-0.0316617
-0.127159
-0.137357
-0.140172
-0.138128
-0.1353
-0.133256
-0.131597
-0.129008
-0.124343
-0.11711
-0.107422
-0.0957784
-0.082784
-0.0690007
-0.0548874
-0.0408401
-0.0272042
-0.0141979
-0.00193767
0.0091713
0.0191054
0.0283221
0.0362115
0.0406401
0.0399494
0.036045
0.0311524
0.0248748
0.0151672
0.00252502
-0.0153617
-0.0440286
-0.0809858
-0.107316
-0.109598
-0.0872869
-0.0558273
-0.0273995
-0.00410555
0.0120428
0.0205778
0.0251155
0.0351242
0.042358
0.0382655
0.00307984
-0.0685691
-0.147109
-0.178662
-0.13901
-0.0857401
-0.0349536
0.00505725
0.0430671
0.0702548
0.0418712
0.0108352
-0.059349
-0.0890202
-0.032385
-0.112953
-0.124137
-0.127271
-0.12473
-0.120825
-0.117677
-0.115258
-0.112436
-0.108075
-0.101602
-0.0930206
-0.0827091
-0.0711559
-0.0588102
-0.0460269
-0.0331395
-0.0204582
-0.00825353
0.00339845
0.0141717
0.0238245
0.0326363
0.0403145
0.044922
0.0443323
0.0397599
0.0344192
0.0288176
0.0206864
0.00968879
-0.00528288
-0.0281404
-0.0579548
-0.0816982
-0.086621
-0.0695009
-0.043058
-0.0185783
0.0015223
0.0159435
0.0238411
0.0279594
0.0376399
0.0449161
0.0415702
0.00829908
-0.0618818
-0.139649
-0.172204
-0.132371
-0.0788224
-0.0298576
0.00812684
0.0441971
0.0720294
0.0427886
0.012723
-0.0556973
-0.0871253
-0.0327477
-0.100185
-0.110477
-0.113642
-0.111365
-0.107294
-0.103611
-0.100616
-0.0975275
-0.0933256
-0.0873895
-0.0796239
-0.070322
-0.0599173
-0.0488104
-0.0372874
-0.0256274
-0.0140439
-0.00276991
0.00805118
0.0181513
0.0272909
0.0355679
0.0427374
0.0472017
0.0470081
0.042552
0.0373436
0.0327918
0.0259386
0.0157701
0.00375382
-0.0113906
-0.0340759
-0.0572075
-0.0644751
-0.0518112
-0.030193
-0.00964495
0.00700474
0.019381
0.0264548
0.0302324
0.0394108
0.0466602
0.0438809
0.0123208
-0.0540451
-0.1283
-0.161473
-0.123132
-0.0706013
-0.0241601
0.0112308
0.0445192
0.0729051
0.042977
0.0142461
-0.0511478
-0.0840504
-0.0326618
-0.0873773
-0.0969321
-0.100211
-0.0983296
-0.0943875
-0.0904789
-0.0871193
-0.0838271
-0.079769
-0.0743617
-0.0674491
-0.0592182
-0.0499984
-0.0401213
-0.0298098
-0.0192775
-0.00870226
0.00170853
0.0117912
0.0212645
0.0298599
0.0375623
0.0441116
0.0482858
0.0485574
0.044696
0.0400296
0.0365988
0.0309858
0.0223099
0.0145467
0.00603384
-0.0125951
-0.0350099
-0.0434466
-0.0349152
-0.0183054
-0.0014545
0.01216
0.022471
0.0285539
0.0319501
0.0404916
0.0474899
0.0452006
0.0164705
-0.0435235
-0.112709
-0.145884
-0.110987
-0.0613042
-0.018203
0.0142152
0.0440446
0.0727092
0.0425813
0.0157262
-0.0456231
-0.0797337
-0.0320462
-0.0746854
-0.0839281
-0.0872525
-0.0856926
-0.082003
-0.0781285
-0.0746771
-0.0713725
-0.0675584
-0.0627009
-0.0565805
-0.0492815
-0.0410569
-0.0321982
-0.0229093
-0.0133854
-0.00378732
0.00571521
0.0149601
0.023672
0.0316026
0.0387042
0.0447153
0.0485706
0.0492861
0.0463857
0.0425722
0.0404243
0.0370517
0.0315753
0.0273728
0.0215142
0.00462538
-0.0160485
-0.0244474
-0.0192772
-0.00723642
0.006183
0.0170607
0.0252265
0.0302422
0.0331694
0.0409359
0.0472684
0.045653
0.0208905
-0.0311336
-0.0934786
-0.125729
-0.0959153
-0.0511388
-0.0121786
0.0170459
0.0428493
0.0712949
0.0416299
0.0171599
-0.0392458
-0.0741677
-0.0308321
-0.0633492
-0.071667
-0.074806
-0.0735406
-0.0702149
-0.0665823
-0.0632595
-0.0600867
-0.0565448
-0.0521623
-0.0467083
-0.0402192
-0.0329012
-0.025013
-0.0167401
-0.00823076
0.000392973
0.00898621
0.0174042
0.0253835
0.0326741
0.0391783
0.0447099
0.0483446
0.0494853
0.0477415
0.0450656
0.0441521
0.0435062
0.0419795
0.039843
0.0337322
0.0179205
0.000123916
-0.00751692
-0.00515482
0.00265258
0.0128695
0.0215422
0.0277301
0.0316998
0.034031
0.0409329
0.0462523
0.0450795
0.0245996
-0.0182356
-0.0717838
-0.101907
-0.0781927
-0.0403945
-0.00640777
0.0195866
0.0410712
0.0685314
0.0400525
0.0184861
-0.0321581
-0.0673695
-0.0289662
-0.0524988
-0.0599639
-0.0629631
-0.0620288
-0.0591383
-0.0558478
-0.0527538
-0.0497786
-0.0465182
-0.0425768
-0.0377445
-0.0320275
-0.0255799
-0.0186063
-0.0112611
-0.00367006
0.00405716
0.0117859
0.0193862
0.0266217
0.0332715
0.0391906
0.0442727
0.0477565
0.0492729
0.0486776
0.0472702
0.0474701
0.0488606
0.049992
0.048869
0.0424048
0.028467
0.0139027
0.00686929
0.00696657
0.0112846
0.0186673
0.0255427
0.0300275
0.0330588
0.034708
0.0406926
0.044762
0.0435279
0.0271639
-0.00574211
-0.0492078
-0.0761474
-0.0586187
-0.0294252
-0.00110481
0.0217592
0.038911
0.0644682
0.0378402
0.0197857
-0.0244861
-0.0593935
-0.0264176
-0.042208
-0.0490218
-0.0519249
-0.0512909
-0.0488128
-0.0458754
-0.043054
-0.0403303
-0.0373879
-0.0338921
-0.0296516
-0.0246477
-0.0189898
-0.0128424
-0.00634627
0.000380573
0.00724679
0.0141366
0.0209396
0.0274494
0.0334815
0.0388616
0.0435229
0.0469026
0.048743
0.0491143
0.0488469
0.0498055
0.052038
0.0541023
0.0535926
0.0478761
0.0365792
0.0248917
0.0182976
0.0168655
0.0185807
0.0235398
0.028931
0.032099
0.0343596
0.0353965
0.040439
0.0431801
0.0414049
0.0289368
0.00566328
-0.0277228
-0.0507467
-0.0384623
-0.0186207
0.0036194
0.0235154
0.0366915
0.0592409
0.035192
0.0212224
-0.0163814
-0.0503446
-0.0231862
-0.0328012
-0.0389769
-0.041717
-0.041308
-0.0392036
-0.0366281
-0.0341192
-0.0316902
-0.0290862
-0.0260222
-0.0223263
-0.0179679
-0.01303
-0.00764994
-0.00195085
0.00396539
0.0100259
0.0161274
0.0221762
0.0279939
0.0334344
0.0383182
0.0425896
0.0458671
0.0479668
0.0490599
0.0496751
0.0510526
0.0533501
0.0554084
0.055191
0.0506816
0.042019
0.0327883
0.0267286
0.0245137
0.0245561
0.0275853
0.0316976
0.0339236
0.0355373
0.0361409
0.0403151
0.0420134
0.0394816
0.0304405
0.0153062
-0.00911657
-0.0278678
-0.0193161
-0.00839876
0.00782478
0.0249158
0.0349552
0.053322
0.0325595
0.0229451
-0.0080686
-0.040404
-0.0193081
-0.0243078
-0.0297514
-0.0322673
-0.0320529
-0.0303155
-0.028111
-0.0259272
-0.0237987
-0.0215269
-0.0188718
-0.0156807
-0.0119173
-0.00764458
-0.00297432
0.0019905
0.00716041
0.0124729
0.0178378
0.0231794
0.0283463
0.0332212
0.0376429
0.0415557
0.0447171
0.0469916
0.048557
0.0497572
0.0513048
0.0533461
0.0550786
0.0549063
0.0514919
0.0450557
0.0379442
0.0326491
0.0301689
0.0292986
0.0308862
0.0338676
0.0354601
0.0365562
0.0369067
0.0402807
0.0414707
0.0378988
0.031819
0.02265
0.00553782
-0.0091065
-0.00300782
0.000763231
0.0116254
0.0260693
0.0342865
0.0476511
0.0307282
0.0250525
9.86218e-05
-0.0298762
-0.0148855
-0.0164831
-0.0212756
-0.023604
-0.0235743
-0.0221767
-0.0203156
-0.0184366
-0.0165976
-0.0146465
-0.0123783
-0.00965522
-0.0064375
-0.00277139
0.00125243
0.00554585
0.0100295
0.0146508
0.019335
0.02402
0.0285812
0.0329216
0.0369046
0.0404801
0.043499
0.0458541
0.0476736
0.049191
0.0507591
0.0524682
0.0538137
0.0536127
0.0510739
0.046381
0.0410239
0.0366344
0.0341683
0.0329089
0.0335144
0.0355341
0.0366704
0.0373881
0.0376185
0.0402684
0.0412987
0.0376995
0.0332768
0.0277483
0.015955
0.00469755
0.00913537
0.00853269
0.0151167
0.0271263
0.0347586
0.0433653
0.0306895
0.0275026
0.00752442
-0.0193502
-0.0101715
-0.00933222
-0.0135925
-0.0157597
-0.0158727
-0.0147562
-0.0131967
-0.0116027
-0.0100428
-0.00839582
-0.00648537
-0.00418894
-0.0014654
0.00165193
0.00508896
0.00876994
0.012627
0.016616
0.0206765
0.0247563
0.0287553
0.0325966
0.0361652
0.0394139
0.0422446
0.0445849
0.0464986
0.0481361
0.0496453
0.051053
0.0520639
0.0518621
0.0499955
0.0466061
0.0426274
0.039181
0.0368527
0.035526
0.0355345
0.0367843
0.0375581
0.03802
0.0381628
0.0402252
0.0411412
0.0382948
0.035206
0.0314462
0.0229792
0.0141841
0.0170373
0.0148995
0.0183728
0.0282301
0.0359823
0.0411491
0.0330903
0.0300428
0.0134708
-0.00975877
-0.00562509
-0.00296083
-0.0067091
-0.00867422
-0.00887298
-0.00799666
-0.00671686
-0.00539287
-0.00409351
-0.0027243
-0.00113783
0.000773775
0.00305261
0.00567559
0.00858295
0.0117101
0.0150002
0.0184154
0.0219075
0.0254339
0.0289147
0.0322896
0.035462
0.0383902
0.0409968
0.043243
0.0451372
0.0467664
0.0481776
0.049351
0.0501167
0.0499572
0.0486053
0.0461642
0.0431668
0.0399564
0.0384811
0.0373102
0.0370066
0.0376855
0.0381622
0.0384613
0.0385126
0.0401133
0.0409221
0.0391411
0.0371051
0.0341305
0.0276548
0.0207401
0.0222612
0.0199517
0.0213475
0.0292491
0.0370221
0.0404704
0.0366323
0.0319626
0.0173133
-0.00206522
-0.00187783
0.0027161
-0.000513181
-0.0022662
-0.00253794
-0.00188303
-0.000858081
0.000224549
0.00129192
0.00241235
0.00370867
0.00527699
0.0071597
0.00934149
0.0117751
0.0144061
0.0171872
0.0200855
0.0230628
0.0260861
0.0290913
0.0320303
0.0348233
0.037438
0.0398025
0.0418956
0.0436933
0.0452408
0.0465359
0.0475397
0.0481468
0.0480571
0.0471099
0.0453707
0.0432094
0.04089
0.0395089
0.0384574
0.0380025
0.0382883
0.0385262
0.0387183
0.0386913
0.0398975
0.0406247
0.0396901
0.0382475
0.0357336
0.0306026
0.0251914
0.0256051
0.0237426
0.0239465
0.0300424
0.0371314
0.0401007
0.0389293
0.0323919
0.0188795
0.0031914
0.000701863
0.00788797
0.00507123
0.00347433
0.00313521
0.00360699
0.00441911
0.00529337
0.00615468
0.00705367
0.0080938
0.00936005
0.0108937
0.0126859
0.0147002
0.0168905
0.0192174
0.0216532
0.024168
0.0267363
0.0293068
0.0318419
0.0342745
0.0365798
0.0386932
0.0405987
0.0422553
0.0436837
0.0448572
0.0457391
0.0462567
0.0462446
0.0456172
0.0443997
0.042887
0.0412067
0.0400281
0.0391106
0.0385963
0.0386306
0.0386874
0.0387903
0.0387099
0.0395589
0.0400632
0.0396236
0.038434
0.0363878
0.0323463
0.0280435
0.0277208
0.0263629
0.0259928
0.0300227
0.0362687
0.0391063
0.0387309
0.031251
0.0189887
0.00623722
0.00213021
0.0124164
0.00998718
0.00856207
0.00819896
0.00853209
0.00916371
0.00985348
0.0105319
0.011237
0.0120546
0.0130585
0.0142881
0.0157399
0.0173858
0.0191875
0.0211124
0.0231375
0.0252395
0.0273985
0.0295744
0.0317383
0.033833
0.0358367
0.0376945
0.039394
0.0408893
0.0421828
0.0432386
0.0440286
0.0445002
0.0445603
0.0441826
0.0433511
0.0423162
0.0410989
0.0401492
0.0393798
0.038862
0.0387446
0.0386736
0.0386937
0.0385806
0.0391201
0.0394651
0.0390663
0.0380094
0.0363783
0.0332654
0.0297566
0.0289776
0.0279588
0.0274549
0.0301079
0.0347731
0.0373387
0.0366805
0.0293686
0.0185393
0.00785541
0.00276501
0.0164659
0.0143756
0.0131154
0.0127346
0.0129418
0.0134113
0.013939
0.0144593
0.0149981
0.0156249
0.0164036
0.0173709
0.0185276
0.0198525
0.0213145
0.0228867
0.02455
0.0262862
0.0280806
0.0299014
0.0317252
0.0335055
0.0352233
0.0368327
0.038321
0.0396452
0.0407977
0.0417419
0.0424545
0.0429029
0.0430246
0.0428343
0.0422886
0.0415933
0.0407245
0.0399807
0.0393549
0.0388681
0.0386632
0.0385086
0.0384509
0.0383076
0.0385821
0.0387404
0.0383131
0.0373148
0.0359537
0.0335883
0.0307068
0.0296462
0.0288816
0.0283409
0.0298459
0.0330444
0.0350866
0.0339194
0.0272663
0.0178653
0.00865396
0.00299398
0.0200539
0.0182656
0.0171498
0.0167559
0.0168597
0.0171955
0.0175874
0.0179734
0.0183704
0.0188349
0.019422
0.0201653
0.0210689
0.0221171
0.023285
0.0245502
0.0258972
0.0273119
0.028783
0.0302864
0.031803
0.0332958
0.0347469
0.0361195
0.0374007
0.0385536
0.039565
0.0404034
0.0410451
0.0414751
0.041643
0.0415852
0.0412492
0.040792
0.0401855
0.0396125
0.0391099
0.0386725
0.0384204
0.038212
0.0380846
0.0379028
0.0379622
0.0379306
0.0374635
0.0365239
0.0353064
0.0334864
0.0311411
0.029922
0.0292383
0.0286661
0.029331
0.0312679
0.0326207
0.0310604
0.025133
0.0170231
0.00897305
0.00304823
0.023227
0.0216934
0.0207027
0.0203121
0.0203361
0.0205597
0.0208356
0.0211069
0.0213838
0.021712
0.0221383
0.0226927
0.0233813
0.0241931
0.0251084
0.0261088
0.0271813
0.0283153
0.0295026
0.0307253
0.0319674
0.0331992
0.0344046
0.0355545
0.0366407
0.0376284
0.0385022
0.0392379
0.0398109
0.0402167
0.0404138
0.0404432
0.0402557
0.0399633
0.0395469
0.0391114
0.0387067
0.0383234
0.0380486
0.0378039
0.0376171
0.0373877
0.037282
0.0370863
0.0365748
0.0357012
0.0345664
0.0331008
0.0312079
0.0299218
0.0291923
0.0286076
0.0286362
0.0295232
0.0301384
0.0283447
0.0230607
0.0160483
0.00898091
0.0030227
0.0260019
0.0246955
0.0238276
0.0234478
0.0234115
0.0235405
0.0237164
0.0238905
0.0240675
0.0242827
0.0245751
0.0249714
0.0254792
0.0260909
0.0267911
0.0275646
0.0284011
0.0292927
0.0302333
0.0312097
0.0322088
0.0332079
0.0341899
0.0351258
0.0360386
0.0368714
0.0376131
0.0382469
0.0387498
0.0391232
0.0393319
0.0394109
0.0393231
0.039141
0.0388552
0.0385242
0.0381947
0.0378601
0.0375778
0.0373068
0.0370687
0.0367891
0.0365482
0.0362373
0.0356829
0.034867
0.0338
0.0325415
0.0309989
0.0297108
0.0288712
0.0282299
0.0278143
0.0278622
0.0277754
0.0258526
0.0211194
0.015004
0.00876827
0.0029503
0.0284333
0.0273261
0.0265639
0.0261968
0.026112
0.0261682
0.0262627
0.0263552
0.0264485
0.0265702
0.0267523
0.027018
0.0273751
0.0278187
0.0283373
0.0289187
0.0295542
0.030238
0.0309658
0.0317287
0.0325166
0.0333129
0.0341056
0.0348799
0.0356018
0.0362788
0.0368909
0.037423
0.0378534
0.0381842
0.0383874
0.0384875
0.0384595
0.0383467
0.0381461
0.0378882
0.0376143
0.0373178
0.0370338
0.0367433
0.0364619
0.0361377
0.0358024
0.035401
0.0348095
0.034029
0.0330289
0.031886
0.0305782
0.029332
0.0283679
0.0276148
0.0268912
0.0263022
0.0256187
0.0236134
0.0193494
0.0139489
0.00840126
0.00284259
0.0305564
0.0296173
0.0289479
0.0285945
0.0284726
0.0284693
0.0285011
0.0285287
0.0285533
0.028598
0.0286896
0.028848
0.0290807
0.0293848
0.0297514
0.0301711
0.0306367
0.0311437
0.0316894
0.032268
0.0328713
0.0334868
0.0341033
0.0347076
0.0352836
0.0358249
0.0363179
0.0367517
0.0371078
0.0373873
0.0375695
0.0376691
0.0376693
0.0375943
0.0374448
0.0372388
0.0369974
0.0367268
0.0364394
0.0361333
0.0358144
0.0354521
0.0350477
0.0345807
0.0339618
0.0331953
0.0322538
0.0311799
0.0300054
0.028814
0.0277427
0.0268398
0.0258951
0.0248566
0.0236922
0.0216243
0.0177604
0.0129269
0.00793697
0.00270633
0.0323977
0.0316029
0.0310162
0.0306785
0.0305267
0.0304736
0.0304522
0.0304304
0.0304032
0.0303876
0.0304063
0.0304771
0.0306077
0.0307966
0.0310371
0.0313217
0.0316447
0.0320027
0.0323937
0.0328141
0.0332579
0.0337156
0.0341764
0.0346346
0.0350764
0.0354941
0.0358765
0.0362155
0.0364967
0.0367188
0.0368673
0.0369493
0.0369541
0.0368936
0.0367678
0.0365883
0.0363651
0.0361028
0.0358143
0.0354954
0.0351442
0.0347482
0.0342951
0.0337781
0.033139
0.0323745
0.0314723
0.0304449
0.0293343
0.0281813
0.027035
0.0259745
0.0248574
0.0235247
0.0219936
0.0198656
0.0163442
0.0119665
0.00742452
0.00254973
0.0339893
0.0333172
0.0328028
0.032482
0.0323086
0.0322153
0.032149
0.032083
0.0320141
0.0319537
0.0319176
0.031919
0.0319669
0.0320618
0.0321985
0.0323713
0.0325755
0.0328089
0.0330697
0.0333555
0.0336609
0.0339847
0.0343153
0.0346436
0.0349636
0.0352682
0.0355481
0.0357969
0.036003
0.036164
0.0362692
0.0363213
0.0363126
0.0362484
0.0361268
0.0359554
0.035737
0.0354782
0.0351799
0.0348448
0.0344665
0.0340403
0.0335513
0.0329959
0.0323385
0.031571
0.0306878
0.0296908
0.0286064
0.0274644
0.0262709
0.0250713
0.0238068
0.0222942
0.0205066
0.0183193
0.0150863
0.0110839
0.00690351
0.00238283
0.0353577
0.034789
0.0343375
0.0340341
0.0338455
0.0337211
0.0336192
0.0335175
0.0334119
0.033311
0.0332287
0.033178
0.0331631
0.0331843
0.0332378
0.0333194
0.033426
0.0335564
0.0337098
0.0338852
0.0340803
0.0342846
0.0344976
0.0347129
0.0349246
0.0351272
0.0353132
0.0354771
0.0356097
0.0357081
0.035764
0.0357778
0.0357426
0.0356608
0.0355288
0.0353508
0.0351256
0.0348592
0.0345484
0.0341955
0.0337934
0.0333402
0.0328224
0.0322371
0.0315607
0.030787
0.0299084
0.028926
0.0278506
0.0266974
0.0254698
0.0241653
0.0227728
0.0211534
0.0192088
0.0169687
0.0139703
0.0102864
0.00640351
0.0022154