/*--------------------------------*- C++ -*----------------------------------*\
| =========                 |                                                 |
| \\      /  F ield         | OpenFOAM: The Open Source CFD Toolbox           |
|  \\    /   O peration     | Version:  2312                                  |
|   \\  /    A nd           | Website:  www.openfoam.com                      |
|    \\/     M anipulation  |                                                 |
\*---------------------------------------------------------------------------*/
FoamFile
{
    version     2.0;
    format      ascii;
    arch        "LSB;label=32;scalar=64";
    class       volScalarField;
    location    "4.5";
    object      p;
}
// * * * * * * * * * * * * * * * * * * * * * * * * * * * * * * * * * * * * * //

dimensions      [0 2 -2 0 0 0 0];

internalField   nonuniform List<scalar> 
32230
(
-0.439226
-0.438946
-0.437245
-0.434304
-0.430423
-0.425969
-0.421479
-0.417573
-0.414842
-0.413739
-0.414508
-0.417106
-0.421192
-0.426141
-0.431113
-0.435163
-0.437377
-0.437018
-0.43362
-0.427039
-0.417425
-0.405146
-0.390692
-0.374585
-0.357317
-0.339316
-0.320935
-0.302457
-0.284105
-0.266046
-0.24841
-0.231278
-0.214718
-0.198675
-0.183234
-0.167731
-0.152497
-0.440779
-0.440668
-0.439099
-0.43633
-0.432677
-0.428485
-0.424233
-0.420459
-0.417668
-0.416228
-0.416289
-0.417727
-0.420141
-0.422894
-0.425206
-0.426284
-0.425449
-0.422239
-0.416457
-0.408154
-0.397573
-0.385072
-0.371048
-0.355885
-0.339928
-0.32347
-0.306755
-0.289983
-0.273317
-0.256887
-0.240792
-0.225105
-0.209878
-0.195112
-0.18086
-0.166874
-0.153567
-0.44434
-0.444111
-0.442544
-0.439909
-0.436508
-0.432642
-0.428704
-0.425135
-0.422321
-0.420516
-0.419761
-0.419857
-0.420374
-0.420725
-0.420265
-0.418418
-0.414762
-0.409085
-0.401377
-0.391789
-0.380571
-0.368016
-0.354418
-0.340046
-0.325138
-0.309896
-0.294494
-0.279079
-0.263773
-0.248677
-0.233874
-0.219427
-0.205394
-0.191782
-0.178675
-0.165864
-0.153477
-0.449738
-0.449154
-0.447436
-0.444855
-0.441635
-0.438033
-0.434358
-0.430928
-0.428001
-0.425697
-0.423955
-0.422516
-0.420971
-0.41884
-0.415671
-0.411119
-0.404998
-0.397278
-0.388056
-0.37751
-0.365856
-0.353314
-0.340087
-0.326359
-0.312291
-0.298023
-0.283678
-0.269363
-0.255172
-0.241185
-0.22747
-0.214084
-0.201078
-0.188476
-0.176361
-0.164554
-0.15325
-0.456695
-0.455572
-0.453596
-0.450927
-0.447759
-0.444299
-0.440761
-0.437337
-0.434141
-0.431161
-0.428244
-0.425113
-0.421432
-0.416881
-0.411214
-0.404306
-0.396143
-0.386808
-0.376438
-0.365195
-0.353245
-0.340736
-0.327807
-0.314577
-0.301155
-0.28764
-0.27412
-0.260676
-0.24738
-0.234295
-0.221477
-0.208973
-0.196829
-0.185067
-0.173747
-0.162728
-0.152147
-0.464954
-0.463213
-0.460852
-0.457974
-0.454727
-0.451268
-0.447715
-0.44412
-0.440449
-0.436569
-0.43227
-0.427316
-0.421495
-0.414668
-0.406789
-0.397895
-0.388084
-0.377485
-0.366234
-0.354461
-0.342279
-0.329786
-0.317071
-0.304213
-0.291286
-0.278358
-0.265493
-0.25275
-0.240182
-0.22784
-0.215765
-0.203997
-0.19257
-0.181504
-0.170846
-0.160482
-0.150551
-0.474378
-0.47197
-0.469151
-0.465974
-0.462537
-0.458942
-0.455196
-0.451203
-0.44679
-0.441742
-0.435853
-0.428983
-0.421081
-0.412185
-0.402402
-0.391874
-0.38075
-0.369165
-0.357231
-0.34504
-0.332666
-0.320169
-0.307603
-0.29502
-0.282467
-0.269991
-0.257638
-0.245451
-0.233468
-0.221727
-0.210261
-0.199097
-0.188262
-0.177773
-0.167658
-0.157831
-0.148418
-0.484923
-0.48183
-0.47852
-0.474986
-0.471268
-0.467391
-0.463233
-0.458557
-0.453085
-0.446581
-0.438916
-0.430089
-0.420215
-0.409477
-0.398078
-0.386211
-0.374031
-0.361656
-0.349167
-0.336625
-0.324072
-0.311542
-0.299066
-0.286676
-0.274403
-0.262276
-0.250328
-0.238586
-0.227079
-0.215832
-0.204869
-0.194208
-0.183868
-0.173862
-0.164206
-0.15484
-0.145875
-0.496602
-0.49282
-0.489008
-0.485084
-0.480994
-0.476658
-0.47182
-0.466124
-0.459252
-0.451023
-0.441442
-0.430671
-0.418965
-0.406603
-0.393835
-0.380858
-0.367811
-0.354782
-0.341826
-0.328975
-0.316249
-0.303665
-0.291237
-0.278982
-0.266917
-0.25506
-0.24343
-0.232045
-0.220923
-0.21008
-0.199531
-0.189288
-0.179363
-0.169762
-0.160495
-0.151521
-0.142931
-0.509433
-0.504959
-0.500645
-0.496297
-0.491722
-0.486709
-0.480872
-0.473792
-0.465189
-0.455014
-0.44344
-0.43078
-0.417392
-0.4036
-0.389658
-0.375741
-0.361957
-0.348367
-0.334997
-0.321861
-0.308963
-0.296304
-0.283889
-0.271722
-0.259811
-0.248162
-0.236786
-0.225691
-0.214885
-0.204378
-0.194177
-0.184287
-0.174714
-0.165462
-0.156531
-0.147898
-0.13963
-0.523386
-0.518221
-0.513407
-0.508583
-0.503373
-0.497413
-0.490225
-0.481399
-0.470778
-0.458501
-0.444915
-0.430453
-0.415528
-0.400467
-0.385499
-0.370763
-0.356334
-0.342243
-0.328498
-0.315094
-0.302024
-0.289279
-0.276854
-0.264744
-0.252946
-0.241461
-0.230289
-0.219431
-0.208888
-0.198663
-0.188756
-0.179167
-0.169898
-0.160947
-0.152309
-0.143975
-0.135982
-0.538366
-0.532519
-0.527197
-0.52182
-0.515776
-0.508557
-0.499649
-0.488744
-0.475885
-0.461419
-0.445851
-0.429691
-0.413361
-0.397161
-0.381278
-0.36581
-0.350799
-0.33625
-0.322156
-0.308497
-0.295257
-0.282419
-0.269967
-0.257891
-0.246179
-0.234825
-0.223821
-0.213162
-0.202843
-0.19286
-0.183208
-0.173883
-0.164881
-0.156196
-0.147823
-0.139756
-0.132004
-0.554201
-0.547693
-0.541845
-0.535797
-0.528673
-0.519851
-0.508867
-0.495607
-0.480361
-0.463685
-0.446202
-0.428453
-0.410835
-0.3936
-0.376886
-0.360751
-0.345205
-0.330233
-0.315812
-0.301913
-0.288509
-0.275576
-0.263091
-0.251035
-0.239392
-0.228146
-0.217286
-0.2068
-0.196676
-0.186906
-0.177481
-0.168392
-0.159631
-0.151188
-0.143057
-0.135235
-0.127699
-0.570641
-0.563508
-0.557099
-0.550222
-0.541732
-0.530953
-0.517573
-0.501749
-0.484044
-0.465193
-0.445888
-0.42666
-0.407858
-0.389676
-0.372201
-0.35545
-0.33941
-0.324046
-0.309321
-0.295198
-0.281641
-0.268617
-0.256098
-0.244058
-0.232474
-0.221326
-0.210595
-0.200264
-0.190318
-0.180743
-0.171526
-0.162655
-0.154117
-0.145902
-0.138
-0.130408
-0.123078
-0.587363
-0.579652
-0.572628
-0.564729
-0.55456
-0.541487
-0.525452
-0.506941
-0.486778
-0.465831
-0.444817
-0.424225
-0.404336
-0.385285
-0.367109
-0.349793
-0.333297
-0.317573
-0.302572
-0.288245
-0.27455
-0.261447
-0.248901
-0.23688
-0.225355
-0.2143
-0.203691
-0.193508
-0.18373
-0.174339
-0.165319
-0.156654
-0.14833
-0.140333
-0.132654
-0.125283
-0.118156
-0.603975
-0.595743
-0.58803
-0.578883
-0.566722
-0.551064
-0.532201
-0.51097
-0.48842
-0.465501
-0.44291
-0.421068
-0.400189
-0.380344
-0.361527
-0.343694
-0.326785
-0.310736
-0.295488
-0.280984
-0.267172
-0.254007
-0.241446
-0.229452
-0.217991
-0.207032
-0.196546
-0.186508
-0.176894
-0.167683
-0.158854
-0.15039
-0.142273
-0.134489
-0.127028
-0.119871
-0.112951
-0.620025
-0.61133
-0.60283
-0.592189
-0.577744
-0.559285
-0.537519
-0.513621
-0.488813
-0.464075
-0.440046
-0.417074
-0.395296
-0.374732
-0.355336
-0.337038
-0.319761
-0.303427
-0.287967
-0.273314
-0.259412
-0.246205
-0.233648
-0.221695
-0.210309
-0.199453
-0.189095
-0.179205
-0.169757
-0.160725
-0.152087
-0.143823
-0.135911
-0.128338
-0.121089
-0.114138
-0.107423
-0.635023
-0.625912
-0.616502
-0.604118
-0.587136
-0.565728
-0.541051
-0.514585
-0.487667
-0.461258
-0.435926
-0.411932
-0.389347
-0.368139
-0.348229
-0.329524
-0.31193
-0.295358
-0.279727
-0.264965
-0.251004
-0.237786
-0.225256
-0.213366
-0.202073
-0.191335
-0.181117
-0.171387
-0.162113
-0.153268
-0.144828
-0.136769
-0.129069
-0.121712
-0.114681
-0.107935
-0.101434
-0.648483
-0.639012
-0.628572
-0.614206
-0.594455
-0.56997
-0.542376
-0.513421
-0.484512
-0.456562
-0.430044
-0.405134
-0.381834
-0.360065
-0.339718
-0.320676
-0.302831
-0.286081
-0.270336
-0.255514
-0.241542
-0.228354
-0.215891
-0.204099
-0.192929
-0.182338
-0.172286
-0.162738
-0.153659
-0.14502
-0.136795
-0.128958
-0.121487
-0.114365
-0.107571
-0.101059
-0.0948129
-0.303232
-0.313165
-0.320481
-0.32881
-0.339839
-0.353467
-0.369239
-0.386614
-0.404985
-0.423689
-0.442012
-0.459197
-0.474456
-0.486988
-0.496003
-0.50075
-0.500551
-0.494835
-0.483192
-0.465427
-0.441388
-0.411438
-0.376043
-0.336053
-0.292376
-0.246216
-0.198897
-0.151783
-0.106183
-0.063259
-0.0239592
0.0110161
0.0412082
0.066445
0.0868261
0.102581
0.114136
-0.308236
-0.317795
-0.32494
-0.333189
-0.344176
-0.357806
-0.373631
-0.391114
-0.409649
-0.428575
-0.447181
-0.464708
-0.480368
-0.493357
-0.50288
-0.508184
-0.50858
-0.503483
-0.492421
-0.475106
-0.451684
-0.42225
-0.387261
-0.347457
-0.303813
-0.257515
-0.209889
-0.162322
-0.116153
-0.0725836
-0.0325996
0.00305745
0.033844
0.0596852
0.0806122
0.0968556
0.108922
-0.319738
-0.328432
-0.335164
-0.343188
-0.354036
-0.367626
-0.383523
-0.4012
-0.420062
-0.439456
-0.458674
-0.476962
-0.493531
-0.507573
-0.518285
-0.524897
-0.5267
-0.523075
-0.513513
-0.497684
-0.475539
-0.447254
-0.413173
-0.373941
-0.330477
-0.283943
-0.235681
-0.187126
-0.139701
-0.0946992
-0.0532278
-0.0161094
0.0161292
0.043292
0.0654462
0.0827987
0.0959716
-0.336455
-0.343849
-0.349952
-0.357627
-0.368249
-0.381749
-0.397713
-0.41563
-0.434919
-0.45494
-0.474995
-0.494336
-0.512176
-0.527701
-0.5401
-0.548581
-0.552403
-0.550904
-0.543517
-0.529841
-0.50976
-0.483292
-0.450659
-0.412398
-0.369345
-0.322618
-0.273567
-0.223687
-0.174511
-0.127481
-0.084005
-0.0447529
-0.0104589
0.018615
0.0425519
0.0615179
0.0762363
-0.356614
-0.362357
-0.367653
-0.374875
-0.385188
-0.398534
-0.414524
-0.432663
-0.452389
-0.473075
-0.49404
-0.514546
-0.533808
-0.551013
-0.56534
-0.57598
-0.582157
-0.583151
-0.578362
-0.56731
-0.54986
-0.525718
-0.495023
-0.458176
-0.415884
-0.369192
-0.319436
-0.268179
-0.217102
-0.16785
-0.121855
-0.0801715
-0.043506
-0.0121919
0.0138525
0.0347573
0.051296
-0.378207
-0.382051
-0.386399
-0.39307
-0.402977
-0.416074
-0.431991
-0.450248
-0.4703
-0.49154
-0.513304
-0.534865
-0.555449
-0.574244
-0.590425
-0.603172
-0.611696
-0.615249
-0.613191
-0.605035
-0.590255
-0.568702
-0.540314
-0.505298
-0.464196
-0.417933
-0.36779
-0.315433
-0.262676
-0.211322
-0.162984
-0.118909
-0.079897
-0.046341
-0.0181566
0.00476203
0.0231953
-0.399263
-0.401089
-0.404376
-0.410384
-0.419757
-0.432453
-0.44812
-0.466288
-0.486427
-0.507949
-0.530207
-0.552491
-0.574039
-0.594047
-0.611693
-0.626155
-0.636641
-0.642403
-0.642754
-0.637163
-0.625085
-0.6062
-0.580314
-0.54743
-0.507938
-0.462603
-0.412667
-0.359814
-0.305975
-0.253121
-0.203029
-0.157094
-0.116201
-0.0807913
-0.0507758
-0.0260651
-0.00589848
-0.418108
-0.417927
-0.420088
-0.425285
-0.433941
-0.44601
-0.46116
-0.478928
-0.49879
-0.520176
-0.542458
-0.564946
-0.586897
-0.607523
-0.626014
-0.641561
-0.65338
-0.660748
-0.663009
-0.659516
-0.649807
-0.63342
-0.610015
-0.579458
-0.541934
-0.498068
-0.449022
-0.396474
-0.34245
-0.289051
-0.238175
-0.191307
-0.149377
-0.112842
-0.0816045
-0.0555874
-0.0340612
-0.433543
-0.431527
-0.432515
-0.436747
-0.444434
-0.455566
-0.469838
-0.486791
-0.505911
-0.526641
-0.548372
-0.570441
-0.592128
-0.612675
-0.631298
-0.64722
-0.659694
-0.668025
-0.67156
-0.66973
-0.661993
-0.647833
-0.626803
-0.598615
-0.563287
-0.521313
-0.473786
-0.422385
-0.369189
-0.316376
-0.265894
-0.219242
-0.177331
-0.140599
-0.108925
-0.0822491
-0.0598729
-0.444953
-0.441424
-0.441243
-0.444332
-0.450763
-0.460578
-0.473524
-0.489169
-0.507011
-0.526508
-0.547078
-0.568088
-0.588855
-0.608661
-0.626767
-0.642444
-0.654997
-0.663753
-0.66814
-0.667573
-0.661485
-0.649305
-0.63048
-0.604588
-0.571519
-0.531685
-0.486155
-0.436632
-0.385224
-0.334116
-0.285212
-0.239938
-0.199119
-0.163136
-0.131836
-0.105181
-0.082501
-0.452281
-0.447668
-0.446407
-0.448219
-0.453105
-0.461189
-0.472311
-0.486099
-0.502091
-0.519776
-0.538604
-0.55798
-0.57727
-0.595809
-0.612916
-0.627923
-0.640178
-0.649095
-0.654085
-0.654564
-0.649931
-0.639525
-0.622683
-0.59888
-0.567947
-0.530302
-0.487068
-0.439997
-0.391198
-0.342773
-0.296485
-0.253598
-0.214794
-0.180373
-0.150149
-0.124119
-0.101631
-0.455925
-0.450722
-0.448562
-0.449055
-0.452183
-0.45817
-0.466986
-0.478376
-0.49196
-0.50729
-0.523866
-0.54115
-0.558563
-0.575502
-0.591354
-0.605499
-0.617352
-0.626359
-0.631903
-0.633362
-0.630038
-0.621157
-0.605956
-0.583874
-0.554789
-0.519241
-0.47848
-0.434316
-0.388791
-0.343827
-0.300947
-0.261189
-0.225065
-0.192794
-0.164163
-0.139219
-0.117321
-0.456576
-0.451278
-0.448481
-0.447743
-0.449049
-0.452715
-0.45887
-0.467423
-0.478134
-0.490665
-0.504603
-0.519483
-0.534801
-0.550021
-0.564572
-0.577861
-0.589422
-0.598591
-0.604713
-0.607058
-0.60479
-0.597017
-0.582937
-0.562066
-0.534469
-0.500907
-0.462788
-0.421921
-0.380179
-0.339206
-0.300223
-0.264017
-0.23094
-0.201147
-0.174421
-0.150865
-0.129841
-0.455042
-0.45009
-0.446961
-0.445204
-0.444807
-0.446153
-0.449523
-0.455023
-0.462603
-0.472082
-0.483178
-0.495528
-0.508719
-0.522302
-0.535571
-0.548263
-0.559639
-0.569009
-0.575602
-0.578525
-0.5768
-0.569485
-0.555866
-0.535682
-0.509301
-0.477736
-0.442482
-0.405235
-0.367592
-0.330857
-0.295936
-0.263393
-0.233452
-0.206238
-0.18154
-0.159531
-0.139558
-0.452114
-0.447847
-0.44468
-0.442192
-0.440374
-0.439635
-0.440388
-0.442931
-0.447423
-0.45388
-0.462178
-0.472078
-0.483232
-0.495167
-0.507625
-0.519785
-0.530958
-0.540343
-0.546989
-0.549851
-0.547895
-0.540265
-0.526496
-0.506669
-0.481469
-0.452072
-0.419927
-0.386487
-0.353012
-0.320461
-0.289478
-0.260451
-0.233529
-0.208824
-0.18614
-0.16572
-0.146882
-0.448494
-0.445125
-0.442154
-0.439228
-0.436355
-0.433948
-0.432507
-0.432496
-0.434272
-0.438045
-0.443863
-0.451614
-0.461033
-0.471763
-0.483238
-0.494732
-0.505406
-0.514263
-0.520206
-0.522137
-0.519118
-0.510549
-0.496314
-0.47684
-0.453021
-0.426037
-0.397143
-0.36748
-0.337975
-0.309301
-0.281911
-0.25608
-0.231926
-0.209557
-0.188798
-0.169951
-0.152243
-0.444812
-0.442417
-0.439776
-0.436651
-0.433095
-0.429513
-0.426457
-0.424506
-0.424175
-0.425836
-0.429681
-0.435699
-0.443683
-0.453202
-0.463623
-0.47412
-0.483689
-0.491213
-0.495564
-0.495755
-0.491099
-0.481341
-0.466706
-0.447841
-0.425678
-0.40125
-0.375542
-0.349391
-0.323446
-0.298179
-0.273913
-0.250852
-0.229124
-0.208827
-0.189858
-0.172543
-0.155922
-0.441666
-0.440184
-0.437909
-0.434751
-0.430836
-0.42656
-0.422499
-0.419296
-0.417559
-0.41776
-0.420177
-0.424844
-0.43154
-0.439781
-0.448838
-0.457765
-0.465477
-0.470856
-0.472901
-0.470872
-0.464411
-0.45358
-0.438821
-0.42084
-0.400461
-0.378502
-0.355685
-0.332599
-0.309696
-0.287306
-0.265665
-0.244925
-0.225218
-0.206609
-0.189155
-0.173152
-0.157632
-0.439636
-0.438891
-0.436943
-0.433859
-0.429848
-0.425303
-0.420791
-0.416969
-0.414471
-0.413799
-0.41524
-0.418817
-0.42426
-0.431012
-0.438259
-0.445007
-0.450198
-0.45285
-0.452206
-0.447833
-0.439673
-0.428
-0.413331
-0.396309
-0.377594
-0.357792
-0.337413
-0.316869
-0.296472
-0.276457
-0.256997
-0.238198
-0.220162
-0.202869
-0.186479
-0.171006
-0.156335
0.12314
0.128473
0.129902
0.12839
0.124761
0.1197
0.11377
0.107404
0.10091
0.0944941
0.0882914
0.0823874
0.0768335
0.0716567
0.0668651
0.0624323
0.0583665
0.0546286
0.0511981
0.0480444
0.0451882
0.0425578
0.040137
0.0379187
0.0358824
0.0340121
0.0322914
0.0307081
0.0292515
0.0279115
0.0266782
0.0255422
0.0244952
0.0235293
0.0226378
0.0218146
0.0210541
0.0203511
0.0197009
0.0190992
0.0185421
0.0180257
0.0175468
0.0171023
0.0166891
0.0163047
0.0159467
0.0156125
0.0153002
0.0150077
0.0147331
0.0144746
0.0142307
0.0139996
0.0137801
0.0135706
0.0133699
0.0131766
0.0129896
0.0128076
0.0126295
0.0124542
0.0122806
0.0121075
0.0119339
0.0117586
0.0115805
0.0113984
0.0112112
0.0110176
0.0108163
0.010606
0.0103853
0.0101525
0.0099062
0.00964462
0.00936588
0.00906819
0.00874907
0.00840707
0.00803816
0.00764284
0.00721259
0.00675455
0.00624903
0.00571739
0.00512367
0.00449933
0.00381425
0.00306649
0.00228516
0.00140471
0.000495952
0.118298
0.124305
0.126561
0.125768
0.122679
0.118039
0.112465
0.10641
0.100181
0.0939836
0.087958
0.0821972
0.0767593
0.0716719
0.0669407
0.0625755
0.0585394
0.0548292
0.0514163
0.0482269
0.0454391
0.0428383
0.0404263
0.038216
0.0361794
0.0343102
0.032588
0.0310018
0.0295419
0.0281986
0.026962
0.0258225
0.0247715
0.0238012
0.022905
0.0220768
0.0213111
0.0206028
0.0199473
0.0193402
0.0187776
0.0182557
0.0177714
0.0173213
0.0169028
0.016513
0.0161495
0.0158101
0.0154925
0.0151947
0.0149149
0.0146513
0.0144023
0.0141662
0.0139417
0.0137273
0.0135216
0.0133235
0.0131317
0.012945
0.0127622
0.0125822
0.012404
0.0122263
0.0120482
0.0118684
0.0116859
0.0114994
0.0113078
0.0111099
0.0109044
0.0106899
0.010465
0.0102281
0.00997767
0.00971205
0.0094293
0.00912763
0.0088046
0.00845865
0.00808595
0.00768664
0.00725284
0.00679055
0.00628194
0.00574561
0.00514906
0.0045204
0.00383112
0.00308121
0.00229326
0.00141181
0.00049618
0.106256
0.113778
0.117888
0.118716
0.11689
0.11326
0.10855
0.10325
0.0976654
0.0920046
0.0864191
0.081018
0.0758728
0.0710231
0.0664869
0.0622773
0.0583798
0.0547824
0.0514696
0.0484748
0.0455785
0.0429727
0.0405663
0.0384054
0.0363909
0.0345404
0.0328228
0.0312408
0.0297849
0.0284452
0.0272111
0.026073
0.0250221
0.0240509
0.0231529
0.0223222
0.0215535
0.0208418
0.0201825
0.0195714
0.0190045
0.0184783
0.0179894
0.0175347
0.0171114
0.0167168
0.0163485
0.0160043
0.0156818
0.0153792
0.0150945
0.0148261
0.0145722
0.0143313
0.014102
0.0138828
0.0136724
0.0134696
0.0132731
0.0130818
0.0128944
0.0127099
0.0125271
0.012345
0.0121624
0.0119782
0.0117913
0.0116005
0.0114047
0.0112025
0.0109928
0.0107742
0.0105451
0.0103041
0.0100497
0.00978004
0.00949333
0.00918771
0.00886078
0.00851092
0.00813444
0.00773115
0.00729382
0.00682725
0.00631557
0.00577452
0.00517512
0.00454209
0.00384851
0.00309645
0.0023017
0.00141915
0.000496464
0.0878608
0.0976119
0.104428
0.107614
0.107685
0.105616
0.102242
0.0980946
0.0934904
0.0886481
0.0837397
0.0788972
0.0742115
0.0697389
0.0655111
0.0615444
0.0578408
0.0543983
0.0512088
0.0482672
0.0455172
0.0429764
0.0406629
0.0384927
0.0364882
0.0347028
0.033001
0.0314291
0.0299836
0.0286544
0.027429
0.0262971
0.0252504
0.0242815
0.0233843
0.0225534
0.0217837
0.0210703
0.0204087
0.0197948
0.0192247
0.018695
0.0182023
0.0177436
0.0173162
0.0169173
0.0165447
0.016196
0.015869
0.0155618
0.0152726
0.0149995
0.014741
0.0144956
0.0142616
0.0140378
0.0138229
0.0136155
0.0134144
0.0132185
0.0130267
0.0128377
0.0126505
0.012464
0.012277
0.0120885
0.0118973
0.0117023
0.0115022
0.0112959
0.0110821
0.0108593
0.0106262
0.0103812
0.0101227
0.00984911
0.00955846
0.00924892
0.00891814
0.00856438
0.00818414
0.00777686
0.00733601
0.00686515
0.00635038
0.00580454
0.00520224
0.00456477
0.00386679
0.00311246
0.00231076
0.0014269
0.000496906
0.0645473
0.0769716
0.0870279
0.0930668
0.0954796
0.0954332
0.093812
0.0911606
0.0878166
0.0840293
0.0800017
0.0758922
0.0718131
0.0678394
0.0640194
0.0603837
0.0569498
0.0537257
0.0507113
0.0479008
0.0452726
0.0428289
0.0405763
0.0384735
0.0365595
0.0347635
0.0330925
0.0315575
0.0301347
0.0288229
0.0276127
0.0264928
0.0254546
0.0244915
0.0235981
0.0227695
0.0220009
0.0212876
0.0206253
0.0200099
0.0194378
0.0189055
0.0184099
0.0179479
0.017517
0.0171144
0.0167379
0.0163851
0.016054
0.0157426
0.015449
0.0151716
0.0149088
0.0146589
0.0144205
0.0141922
0.0139728
0.013761
0.0135555
0.0133553
0.013159
0.0129657
0.0127742
0.0125833
0.0123921
0.0121994
0.0120039
0.0118047
0.0116005
0.0113901
0.0111722
0.0109453
0.0107082
0.0104592
0.0101968
0.00991932
0.00962478
0.00931137
0.00897675
0.00861912
0.00823514
0.0078239
0.00737951
0.00690434
0.00638646
0.0058358
0.00523053
0.00458855
0.00388605
0.00312931
0.0023205
0.00143511
0.00049753
0.038174
0.0533597
0.0667965
0.0758976
0.0808923
0.0831305
0.0835707
0.0826963
0.0808401
0.0782953
0.0753113
0.0720779
0.0687299
0.0653614
0.0620398
0.0588127
0.0557128
0.0527605
0.0499664
0.0473342
0.0448596
0.0425434
0.0403824
0.0383624
0.0364926
0.0347307
0.0331368
0.0316042
0.0302315
0.0289506
0.0277617
0.026659
0.0256339
0.0246803
0.0237936
0.0229698
0.0222045
0.0214932
0.0208317
0.0202163
0.0196433
0.0191095
0.0186118
0.0181473
0.0177135
0.0173078
0.0169278
0.0165715
0.0162366
0.0159213
0.0156237
0.0153422
0.0150752
0.0148211
0.0145785
0.014346
0.0141223
0.0139062
0.0136964
0.0134918
0.0132913
0.0130937
0.012898
0.0127029
0.0125075
0.0123106
0.0121111
0.0119078
0.0116995
0.011485
0.0112631
0.0110323
0.0107912
0.0105383
0.010272
0.00999061
0.00969223
0.00937498
0.00903657
0.0086751
0.0082874
0.00787219
0.00742429
0.00694479
0.00642378
0.00586825
0.00525997
0.00461339
0.00390627
0.00314697
0.00233094
0.00144374
0.000498337
0.0107098
0.0283884
0.0449496
0.0570373
0.0646631
0.0692601
0.0718584
0.0729257
0.0727355
0.0715888
0.0697782
0.0675332
0.0650156
0.0623409
0.0595956
0.0568455
0.0541389
0.0515102
0.048982
0.046568
0.0442746
0.0421066
0.0400658
0.0381498
0.036353
0.0346542
0.0330969
0.0316751
0.0302521
0.0290266
0.0278751
0.0267954
0.0257877
0.0248471
0.0239701
0.0231537
0.022394
0.0216867
0.0210278
0.0204137
0.019841
0.0193067
0.0188078
0.0183416
0.0179056
0.0174973
0.0171145
0.0167549
0.0164167
0.0160978
0.0157966
0.0155113
0.0152403
0.0149822
0.0147355
0.0144989
0.0142711
0.0140508
0.0138369
0.0136282
0.0134235
0.0132218
0.0130219
0.0128227
0.0126232
0.0124222
0.0122186
0.0120113
0.011799
0.0115806
0.0113547
0.01112
0.010875
0.0106183
0.0103482
0.0100629
0.00976076
0.00943972
0.00909755
0.00873226
0.00834087
0.00792171
0.00747028
0.00698646
0.00646229
0.00590187
0.00529051
0.00463926
0.00392745
0.0031654
0.00234207
0.00145276
0.000499337
-0.0161025
0.00353981
0.0226506
0.0373867
0.0475061
0.0544138
0.0591271
0.0621066
0.0636481
0.0640166
0.0634941
0.0623318
0.0607239
0.0588141
0.056711
0.0544979
0.0522385
0.0499806
0.0477593
0.0455992
0.0435167
0.0415233
0.0396258
0.037827
0.0361273
0.0345266
0.0330291
0.0316352
0.030368
0.0290381
0.0279427
0.0269011
0.0259157
0.0249915
0.0241269
0.0233206
0.022569
0.0218678
0.0212132
0.0206019
0.0200308
0.019497
0.0189978
0.0185307
0.0180931
0.0176829
0.0172976
0.0169354
0.0165941
0.0162721
0.0159674
0.0156786
0.0154039
0.015142
0.0148915
0.014651
0.0144192
0.014195
0.013977
0.0137643
0.0135555
0.0133498
0.0131458
0.0129426
0.0127391
0.0125341
0.0123266
0.0121153
0.0118991
0.0116768
0.011447
0.0112085
0.0109597
0.0106992
0.0104253
0.0101363
0.00983035
0.00950555
0.00915966
0.00879059
0.00839553
0.00797244
0.00751749
0.00702934
0.00650198
0.00593664
0.00532214
0.00466614
0.0039496
0.00318458
0.00235392
0.00146218
0.000500551
-0.0409646
-0.0200147
0.000884438
0.0177326
0.0300396
0.0390832
0.0457993
0.050603
0.05379
0.0556761
0.056515
0.0565224
0.0558988
0.0548159
0.05341
0.0517851
0.0500202
0.0481761
0.0463001
0.0444278
0.0425852
0.0407913
0.0390593
0.037398
0.035813
0.0343098
0.032895
0.0315638
0.0303161
0.0291877
0.0279634
0.0269682
0.026017
0.025113
0.024263
0.0234698
0.022729
0.0220361
0.0213876
0.0207806
0.0202122
0.01968
0.0191815
0.0187143
0.0182759
0.0178643
0.0174772
0.0171127
0.0167689
0.016444
0.0161362
0.0158441
0.015566
0.0153006
0.0150464
0.0148022
0.0145666
0.0143385
0.0141167
0.0139
0.0136873
0.0134776
0.0132698
0.0130627
0.0128552
0.0126464
0.0124349
0.0122198
0.0119998
0.0117736
0.0115401
0.0112977
0.0110452
0.0107809
0.0105033
0.0102106
0.00990097
0.00957247
0.00922289
0.00885007
0.00845136
0.00802437
0.0075659
0.00707343
0.00654284
0.00597257
0.00535488
0.00469402
0.00397273
0.00320449
0.00236652
0.00147198
0.000502005
-0.0630906
-0.0414903
-0.0196116
-0.00129378
0.0127766
0.0236743
0.0322023
0.0387061
0.0434562
0.0467637
0.0489185
0.0501313
0.0505592
0.0503681
0.0497132
0.0487222
0.0474932
0.0461015
0.0446062
0.0430535
0.0414788
0.0399092
0.0383643
0.0368591
0.0354049
0.0340107
0.0326836
0.031428
0.0302402
0.0291183
0.0281005
0.0270022
0.026087
0.0252111
0.0243776
0.0236004
0.0228734
0.0221911
0.0215506
0.0209494
0.0203851
0.0198557
0.0193588
0.0188922
0.0184538
0.0180414
0.017653
0.0172867
0.0169408
0.0166134
0.0163029
0.0160077
0.0157265
0.0154577
0.0152001
0.0149523
0.0147131
0.0144813
0.0142557
0.0140353
0.0138188
0.0136053
0.0133936
0.0131827
0.0129715
0.0127588
0.0125435
0.0123246
0.0121009
0.011871
0.0116337
0.0113876
0.0111314
0.0108635
0.0105822
0.0102859
0.00997259
0.00964043
0.00928721
0.00891068
0.00850834
0.00807747
0.00761547
0.00711871
0.00658485
0.00600965
0.00538869
0.00472291
0.00399685
0.0032251
0.0023799
0.00148215
0.000503732
-0.0821436
-0.0604651
-0.0383532
-0.0192259
-0.0038735
0.00852858
0.0186117
0.0266404
0.032844
0.0375033
0.040891
0.0432358
0.0447206
0.0454724
0.0456266
0.0453185
0.0446658
0.0437617
0.0426793
0.0414758
0.040196
0.0388745
0.037538
0.0362075
0.0348993
0.033627
0.0324004
0.031226
0.0301081
0.0290419
0.0280248
0.0271001
0.0261302
0.0252837
0.0244689
0.0237116
0.0230016
0.0223323
0.0217018
0.021108
0.0205492
0.0200236
0.0195294
0.0190643
0.0186266
0.018214
0.0178249
0.0174574
0.0171097
0.0167801
0.0164672
0.0161694
0.0158853
0.0156134
0.0153525
0.0151014
0.0148587
0.0146234
0.0143942
0.0141701
0.01395
0.0137328
0.0135174
0.0133027
0.0130878
0.0128714
0.0126524
0.0124298
0.0122024
0.0119688
0.0117279
0.0114782
0.0112184
0.0109468
0.0106619
0.010362
0.0100452
0.0097094
0.00935259
0.00897238
0.00856644
0.00813172
0.00766619
0.00716515
0.00662799
0.00604786
0.00542357
0.00475278
0.00402198
0.0032464
0.00239409
0.00149266
0.000505771
-0.0981132
-0.0768034
-0.0550774
-0.0357495
-0.0196003
-0.00607443
0.00526534
0.0146003
0.0221102
0.028027
0.0325872
0.0360054
0.0384703
0.0401459
0.0411438
0.0415697
0.0415391
0.0411598
0.0405214
0.0396947
0.0387349
0.0376847
0.0365774
0.0354399
0.0342937
0.0331566
0.0320425
0.0309612
0.0299188
0.0289187
0.0279547
0.0270291
0.0261878
0.0253295
0.024531
0.023802
0.0231129
0.0224593
0.0218408
0.0212562
0.0207041
0.0201836
0.0196929
0.0192304
0.018794
0.0183821
0.0179928
0.0176245
0.0172755
0.0169442
0.0166292
0.016329
0.0160422
0.0157675
0.0155036
0.0152492
0.0150033
0.0147646
0.014532
0.0143044
0.0140807
0.0138599
0.0136409
0.0134226
0.0132041
0.012984
0.0127615
0.0125353
0.0123042
0.0120671
0.0118226
0.0115694
0.011306
0.0110309
0.0107425
0.010439
0.0101187
0.00977934
0.00941897
0.00903514
0.00862563
0.00818709
0.00771803
0.00721275
0.00667221
0.00608721
0.0054595
0.00478361
0.00404811
0.00326834
0.00240914
0.0015035
0.000508179
-0.111186
-0.0905657
-0.0696963
-0.0506804
-0.034182
-0.019914
-0.00763607
0.00276006
0.0113989
0.0184496
0.0241017
0.0285441
0.0319526
0.0344872
0.0362906
0.0374686
0.0381033
0.0382917
0.0381322
0.0377105
0.0370949
0.0363378
0.0354798
0.0345533
0.0335851
0.0325972
0.0316079
0.0306306
0.0296745
0.0287456
0.0278462
0.0269696
0.0261253
0.0253465
0.0245431
0.0238668
0.0232064
0.0225715
0.0219673
0.0213934
0.0208495
0.0203352
0.0198493
0.0193901
0.018956
0.0185453
0.0181564
0.0177879
0.017438
0.0171054
0.0167887
0.0164863
0.0161972
0.0159198
0.0156531
0.0153958
0.0151468
0.0149048
0.0146689
0.014438
0.0142109
0.0139866
0.0137641
0.0135424
0.0133203
0.0130968
0.0128707
0.012641
0.0124064
0.0121658
0.0119178
0.0116611
0.0113942
0.0111157
0.0108238
0.0105169
0.010193
0.00985021
0.00948633
0.00909892
0.00868586
0.00824354
0.00777095
0.00726148
0.0067175
0.00612766
0.00549644
0.00481539
0.00407525
0.00329089
0.00242508
0.00151464
0.000511026
-0.121648
-0.101935
-0.0822512
-0.0639399
-0.047473
-0.0328238
-0.019928
-0.00872729
0.000844467
0.00888207
0.0155219
0.020921
0.025233
0.0286025
0.0311659
0.0330483
0.0343517
0.0351421
0.0355009
0.0355174
0.0352728
0.0348313
0.0342424
0.0335451
0.032771
0.0319469
0.0310951
0.0302328
0.029373
0.0285245
0.027693
0.0268804
0.0260792
0.0253033
0.024467
0.0238953
0.0232798
0.0226689
0.0220811
0.0215195
0.0209851
0.0204783
0.0199982
0.0195433
0.0191123
0.0187036
0.0183157
0.0179474
0.0175972
0.0172636
0.0169455
0.0166414
0.0163501
0.0160704
0.0158011
0.015541
0.0152891
0.0150441
0.014805
0.0145708
0.0143405
0.0141129
0.013887
0.0136619
0.0134364
0.0132094
0.01298
0.0127468
0.0125088
0.0122648
0.0120134
0.0117533
0.011483
0.0112011
0.0109058
0.0105955
0.0102682
0.00992195
0.00955462
0.00916367
0.0087471
0.00830105
0.0078249
0.00731131
0.0067638
0.00616922
0.00553437
0.00484811
0.00410341
0.00331402
0.00244196
0.00152605
0.000514408
-0.129834
-0.111175
-0.0928868
-0.0755401
-0.0594005
-0.0446972
-0.031492
-0.0197433
-0.00944515
-0.000583253
0.00692256
0.0131929
0.0183533
0.0225264
0.0258345
0.0283963
0.0303218
0.0317064
0.0326088
0.0330977
0.0332549
0.0331543
0.0328559
0.0324064
0.0318436
0.031199
0.0304988
0.0297642
0.0290116
0.0282533
0.0274978
0.0267515
0.0260186
0.0253062
0.0247625
0.0239262
0.0233337
0.0227511
0.0221817
0.0216338
0.0211104
0.0206123
0.0201392
0.0196897
0.0192626
0.0188566
0.0184705
0.018103
0.0177528
0.0174188
0.0170996
0.016794
0.0165009
0.0162191
0.0159474
0.0156848
0.0154301
0.0151822
0.0149402
0.0147029
0.0144694
0.0142386
0.0140095
0.0137811
0.0135523
0.013322
0.0130892
0.0128527
0.0126114
0.012364
0.0121093
0.0118459
0.0115723
0.011287
0.0109884
0.0106748
0.0103442
0.00999452
0.00962379
0.00922935
0.0088093
0.00835957
0.00787986
0.00736222
0.00681109
0.00621186
0.00557324
0.00488174
0.00413259
0.00333767
0.00245982
0.00153769
0.000518449
-0.1361
-0.118608
-0.101823
-0.0855483
-0.0699276
-0.0554449
-0.0422076
-0.030154
-0.0193377
-0.0098232
-0.00158581
0.00545479
0.0113914
0.0163215
0.0203487
0.0235789
0.0261156
0.0280562
0.0294871
0.0304634
0.0310485
0.031314
0.0313266
0.0311413
0.0308032
0.0303499
0.0298127
0.0292169
0.0285822
0.0279239
0.0272536
0.0265806
0.0259141
0.0252644
0.0246541
0.0240639
0.0233815
0.0228188
0.0222706
0.0217368
0.021225
0.0207369
0.020272
0.0198289
0.0194066
0.0190041
0.0186204
0.0182543
0.0179047
0.0175706
0.0172507
0.0169441
0.0166494
0.0163658
0.016092
0.015827
0.0155697
0.0153191
0.0150743
0.0148341
0.0145976
0.0143637
0.0141315
0.0138999
0.0136679
0.0134344
0.0131984
0.0129587
0.0127141
0.0124635
0.0122055
0.0119389
0.011662
0.0113735
0.0110717
0.0107548
0.0104209
0.0100679
0.00969381
0.00929595
0.00887244
0.00841909
0.00793578
0.00741419
0.00685932
0.00625559
0.00561304
0.00491628
0.00416278
0.00336181
0.00247873
0.00154953
0.000523308
-0.140725
-0.124573
-0.109311
-0.0940315
-0.0789972
-0.0649309
-0.0518784
-0.0397315
-0.0285971
-0.0186057
-0.00978489
-0.00209725