/*--------------------------------*- C++ -*----------------------------------*\
| =========                 |                                                 |
| \\      /  F ield         | OpenFOAM: The Open Source CFD Toolbox           |
|  \\    /   O peration     | Version:  2312                                  |
|   \\  /    A nd           | Website:  www.openfoam.com                      |
|    \\/     M anipulation  |                                                 |
\*---------------------------------------------------------------------------*/
FoamFile
{
    version     2.0;
    format      ascii;
    arch        "LSB;label=32;scalar=64";
    class       volVectorField;
    location    "4.5";
    object      U;
}
// * * * * * * * * * * * * * * * * * * * * * * * * * * * * * * * * * * * * * //

dimensions      [0 1 -1 0 0 0 0];

internalField   nonuniform List<vector> 
32230
(
(-0.010611 0.00839764 5.70204e-20)
(-0.0287995 0.0230612 -1.15053e-19)
(-0.0412408 0.0355577 0)
(-0.0448055 0.0463737 -1.55513e-19)
(-0.0373746 0.0552338 4.95378e-20)
(-0.017365 0.0615303 -4.66985e-20)
(0.0165196 0.0647579 8.76822e-20)
(0.0653296 0.0646438 -6.64813e-22)
(0.129861 0.0611764 3.93868e-20)
(0.210519 0.0545564 -1.5145e-19)
(0.307026 0.0451064 -7.25363e-20)
(0.418037 0.0331863 0)
(0.540812 0.0191513 1.3528e-19)
(0.671091 0.00334561 -2.60262e-19)
(0.803316 -0.0138792 1.89159e-19)
(0.931212 -0.0321377 -2.42885e-19)
(1.04862 -0.0509936 -5.79034e-20)
(1.15039 -0.0699638 1.11791e-19)
(1.23311 -0.0885454 1.05297e-19)
(1.29549 -0.106261 -1.00765e-19)
(1.33824 -0.122706 0)
(1.36366 -0.137589 -8.53685e-20)
(1.37495 -0.15074 4.26207e-20)
(1.37551 -0.162101 0)
(1.3685 -0.171696 0)
(1.35649 -0.179601 -2.98592e-20)
(1.34143 -0.185918 -1.07619e-19)
(1.3247 -0.190757 1.03065e-19)
(1.30719 -0.194232 4.4114e-20)
(1.28948 -0.196451 3.96389e-20)
(1.27192 -0.197541 0)
(1.25474 -0.197565 0)
(1.23799 -0.196818 5.51246e-20)
(1.22191 -0.194828 -7.79561e-20)
(1.20578 -0.193628 4.29662e-20)
(1.1913 -0.188359 -7.87393e-20)
(1.17334 -0.191945 3.60915e-20)
(-0.0130698 0.00967301 2.31079e-22)
(-0.0317481 0.0228534 5.75297e-20)
(-0.0418491 0.0313718 -5.43475e-20)
(-0.0407694 0.0370615 4.31082e-22)
(-0.0264639 0.0405782 9.89461e-20)
(0.00278881 0.0420013 1.86827e-19)
(0.0484869 0.0412808 -2.21764e-19)
(0.111745 0.0384016 8.43176e-20)
(0.193053 0.0334507 3.56854e-22)
(0.291945 0.026611 7.57197e-20)
(0.406637 0.0181164 -4.58205e-22)
(0.533763 0.00820844 6.98596e-20)
(0.66837 -0.00288942 -2.01506e-19)
(0.804281 -0.0149762 6.35726e-20)
(0.934804 -0.02786 2.47881e-19)
(1.05364 -0.0413365 0)
(1.15579 -0.055171 5.75972e-20)
(1.23819 -0.069093 0)
(1.29994 -0.0828083 0)
(1.34216 -0.0960251 0)
(1.3674 -0.108485 -4.40795e-20)
(1.37896 -0.119986 1.64926e-19)
(1.38026 -0.130389 -1.50308e-19)
(1.37437 -0.139615 3.05503e-21)
(1.36376 -0.147634 2.21503e-19)
(1.35024 -0.154447 -1.18168e-19)
(1.33507 -0.160075 -1.02932e-19)
(1.31907 -0.164559 1.91628e-19)
(1.30274 -0.167951 -1.75668e-19)
(1.28642 -0.170307 7.41045e-20)
(1.27029 -0.171704 -7.22437e-20)
(1.25449 -0.172187 -3.0894e-20)
(1.23908 -0.171904 0)
(1.22416 -0.170691 7.31116e-20)
(1.20961 -0.169313 -8.85152e-20)
(1.19582 -0.16539 6.02423e-20)
(1.18107 -0.166722 -1.72639e-20)
(-0.0154082 0.0109145 -1.15379e-19)
(-0.0337068 0.0233177 0)
(-0.0396126 0.0292163 -1.6535e-19)
(-0.0312465 0.0313177 1.57734e-19)
(-0.00681475 0.0309746 1.98988e-19)
(0.0353059 0.0288256 -9.43438e-20)
(0.0964261 0.025219 -5.28177e-22)
(0.177168 0.0203913 4.1836e-20)
(0.277034 0.0145548 5.06691e-23)
(0.394001 0.00791962 -7.68321e-20)
(0.524263 0.000670721 -3.10925e-22)
(0.662296 -0.00706129 7.01882e-20)
(0.801334 -0.0152155 -6.70212e-20)
(0.93422 -0.0237901 6.38907e-20)
(1.05443 -0.0328081 -2.45154e-19)
(1.15701 -0.0422726 0)
(1.23917 -0.0521303 1.64593e-19)
(1.30041 -0.0622561 -1.05164e-19)
(1.34221 -0.0724648 -4.86812e-20)
(1.3674 -0.0825405 4.77645e-20)
(1.37942 -0.0922701 -1.77413e-21)
(1.38167 -0.101469 0)
(1.37711 -0.109991 1.58689e-21)
(1.36807 -0.117734 6.52972e-20)
(1.35623 -0.124628 -1.23707e-19)
(1.34272 -0.130636 1.14471e-21)
(1.32829 -0.13574 0)
(1.31341 -0.139944 0)
(1.29837 -0.143267 4.24382e-20)
(1.28338 -0.145735 -3.82617e-20)
(1.26856 -0.147395 -6.57518e-20)
(1.25402 -0.148257 9.38574e-20)
(1.23979 -0.14847 0)
(1.22606 -0.14776 2.42381e-20)
(1.21252 -0.147071 2.04228e-20)
(1.19986 -0.144222 -3.08578e-21)
(1.18608 -0.145975 -3.58623e-20)
(-0.0171226 0.0116413 5.79504e-20)
(-0.0337016 0.0232815 5.90974e-20)
(-0.0335051 0.0273809 0)
(-0.0154341 0.0270268 -1.05823e-19)
(0.02187 0.0240289 5.10559e-20)
(0.0796428 0.0194665 6.357e-22)
(0.15856 0.0140177 4.49907e-20)
(0.25818 0.00814648 4.26596e-20)
(0.376412 0.0021938 8.19041e-20)
(0.509188 -0.00360608 -7.77639e-20)
(0.650515 -0.0091468 -7.42153e-20)
(0.793041 -0.0144667 0)
(0.929049 -0.0197322 -8.42462e-23)
(1.05164 -0.0251813 6.36414e-20)
(1.15574 -0.0310454 6.08866e-20)
(1.2387 -0.0374779 1.13737e-19)
(1.3003 -0.0445135 -1.63455e-19)
(1.34232 -0.0520684 -5.00074e-20)
(1.36782 -0.0599717 -4.81791e-20)
(1.38036 -0.0680104 4.4932e-20)
(1.38337 -0.0759696 -4.17259e-20)
(1.37977 -0.0836588 -3.7137e-20)
(1.37182 -0.0909235 3.55736e-20)
(1.36114 -0.0976467 6.26544e-20)
(1.34881 -0.103745 -3.00602e-20)
(1.33554 -0.109162 1.05637e-19)
(1.32178 -0.113865 -1.2421e-19)
(1.30781 -0.117841 -8.65285e-20)
(1.2938 -0.12109 4.41347e-20)
(1.27989 -0.123623 1.11073e-19)
(1.26616 -0.125464 0)
(1.25268 -0.126632 2.93601e-20)
(1.23952 -0.127199 0)
(1.22675 -0.127033 -2.42221e-20)
(1.21428 -0.126801 2.16689e-20)
(1.20248 -0.124645 -3.84642e-20)
(1.18996 -0.126892 -3.28592e-20)
(-0.0178921 0.011612 5.91049e-20)
(-0.0310976 0.0220288 -1.18629e-19)
(-0.0229287 0.024643 1.129e-19)
(0.00694551 0.0225506 -1.07916e-19)
(0.0593022 0.0178433 0)
(0.134666 0.0119134 -4.80885e-20)
(0.232615 0.00570254 0)
(0.351089 -0.000141785 4.38973e-20)
(0.485893 -0.00520632 -8.26813e-20)
(0.630646 -0.0093173 3.94933e-20)
(0.777374 -0.0125532 7.41661e-20)
(0.917653 -0.0152149 0)
(1.04399 -0.017738 1.34112e-19)
(1.15097 -0.0205713 -6.36027e-20)
(1.23588 -0.0240646 0)
(1.29869 -0.0284021 5.58619e-20)
(1.34143 -0.0335929 0)
(1.36743 -0.0395081 1.47308e-19)
(1.38043 -0.0459387 -1.38436e-19)
(1.38399 -0.05265 4.2012e-20)
(1.38109 -0.0594203 0)
(1.37398 -0.0660609 1.44509e-19)
(1.36427 -0.0724215 -6.84727e-20)
(1.353 -0.0783883 -9.07046e-20)
(1.34083 -0.0838781 8.56065e-20)
(1.32817 -0.0888332 2.63149e-20)
(1.31526 -0.0932165 2.39996e-20)
(1.30225 -0.0970076 6.26106e-20)
(1.28924 -0.1002 -1.95947e-19)
(1.27633 -0.102796 1.0584e-19)
(1.26358 -0.10481 -3.53274e-20)
(1.25106 -0.106252 -8.90823e-20)
(1.23881 -0.107178 0)
(1.2269 -0.107502 2.33374e-20)
(1.21527 -0.107697 0)
(1.20417 -0.106478 1.91298e-20)
(1.19259 -0.10878 3.40704e-20)
(-0.0175663 0.0108247 6.01142e-20)
(-0.0255377 0.0193286 -1.20882e-19)
(-0.00753725 0.0204522 -3.68118e-22)
(0.0360225 0.0171034 1.08844e-19)
(0.105173 0.0114943 -5.17615e-20)
(0.199378 0.00523438 0)
(0.316618 -0.000558205 0)
(0.45267 -0.00516144 -4.38737e-20)
(0.600855 -0.00823473 4.16141e-20)
(0.752552 -0.00982743 4.81297e-22)
(0.898463 -0.010334 7.47747e-20)
(1.03023 -0.0103673 -7.14988e-20)
(1.14184 -0.0105833 -1.33556e-19)
(1.2303 -0.0115202 -1.24277e-19)
(1.2956 -0.0135011 2.36678e-19)
(1.33998 -0.0166178 -1.67879e-19)
(1.36706 -0.0207748 -5.12007e-20)
(1.38083 -0.0257619 0)
(1.38505 -0.0313241 1.77311e-19)
(1.38279 -0.0372116 -1.66949e-19)
(1.37639 -0.0432071 0)
(1.36743 -0.0491349 3.33358e-20)
(1.35695 -0.0548596 -2.61727e-21)
(1.34559 -0.0602798 -5.99374e-20)
(1.33372 -0.065322 -2.77899e-20)
(1.32158 -0.0699339 0)
(1.30931 -0.0740806 0)
(1.297 -0.0777404 2.11462e-20)
(1.28475 -0.0809027 -9.25552e-20)
(1.27261 -0.0835659 7.0754e-20)
(1.26064 -0.0857353 1.23266e-19)
(1.24888 -0.0874209 -5.82288e-20)
(1.23739 -0.0886561 0)
(1.22621 -0.0893884 -2.33271e-20)
(1.21529 -0.0899805 0)
(1.20484 -0.0893592 1.85973e-20)
(1.19409 -0.0917502 -1.69467e-20)
(-0.016105 0.0094065 -6.14288e-20)
(-0.0168006 0.0153402 0)
(0.0129478 0.0149097 -1.10174e-21)
(0.0719792 0.0107271 5.60837e-20)
(0.159348 0.0050279 -4.55718e-22)
(0.273024 -0.000465164 -7.99285e-22)
(0.408834 -0.0045976 -1.89525e-19)
(0.559916 -0.00676231 4.49343e-20)
(0.717028 -0.00690267 0)
(0.869853 -0.00545901 8.02688e-20)
(1.00888 -0.00320182 -1.10807e-21)
(1.12713 -0.00099173 -3.61985e-20)
(1.22103 0.000443124 -6.62607e-20)
(1.29038 0.000641117 3.30551e-20)
(1.33756 -0.000566154 5.92626e-20)
(1.36645 -0.00310788 0)
(1.38136 -0.00676403 5.11862e-20)
(1.38631 -0.0112525 0)
(1.3846 -0.0162923 -1.04043e-21)
(1.37866 -0.0216383 4.08088e-20)
(1.37018 -0.0270929 -7.29248e-20)
(1.36021 -0.0325048 6.98023e-20)
(1.34941 -0.0377603 0)
(1.33814 -0.0427753 8.58984e-22)
(1.32663 -0.0474875 0)
(1.315 -0.0518514 0)
(1.30334 -0.0558345 0)
(1.2917 -0.059415 0)
(1.28014 -0.0625806 -5.31472e-20)
(1.26871 -0.0653264 6.87928e-20)
(1.25744 -0.0676543 2.8435e-20)
(1.24638 -0.0695712 -5.67667e-20)
(1.23555 -0.0710951 0)
(1.225 -0.0722097 0)
(1.21471 -0.0731373 0)
(1.20479 -0.0731359 -5.43792e-20)
(1.1947 -0.0755974 3.42862e-20)
(-0.0134835 0.00753978 7.56058e-22)
(-0.00470509 0.0104579 -6.26416e-20)
(0.0388118 0.00853324 5.95064e-20)
(0.115036 0.00403971 1.57064e-21)
(0.221699 -0.00084739 1.52603e-22)
(0.354742 -0.00443119 1.022e-19)
(0.507285 -0.00572749 0)
(0.669587 -0.00448939 9.12375e-20)
(0.83024 -0.00114949 0)
(0.978287 0.00337997 -4.03778e-20)
(1.10535 0.00802025 0)
(1.20687 0.0118289 -3.57013e-20)
(1.28218 0.0141867 0)
(1.33363 0.0148411 3.12342e-20)
(1.36534 0.0138422 0)
(1.38199 0.0114307 5.33676e-20)
(1.38797 0.00792894 -4.93808e-20)
(1.38687 0.00366078 -4.56319e-20)
(1.38135 -0.00109203 -4.30549e-20)
(1.37322 -0.00610506 -7.7098e-20)
(1.3636 -0.0112085 7.37904e-20)
(1.35319 -0.0162766 -3.28748e-20)
(1.34235 -0.0212169 5.99429e-20)
(1.33129 -0.02596 -1.1157e-19)
(1.32012 -0.030454 7.80083e-20)
(1.30892 -0.0346597 0)
(1.29773 -0.0385484 2.1225e-20)
(1.2866 -0.0421 0)
(1.27558 -0.0453018 0)
(1.26469 -0.0481474 0)
(1.25398 -0.0506357 5.77588e-20)
(1.24347 -0.0527706 -5.53289e-20)
(1.2332 -0.0545627 0)
(1.22319 -0.0560069 0)
(1.21342 -0.0572453 1.97869e-20)
(1.20397 -0.0577482 3.51332e-20)
(1.19448 -0.0602227 -1.74999e-20)
(-0.00964897 0.00540196 -1.28406e-19)
(0.0109441 0.00514856 -5.41095e-22)
(0.0703114 0.00202721 1.22409e-19)
(0.165292 -0.00207066 -1.72793e-19)
(0.291813 -0.00514141 -3.7439e-22)
(0.443192 -0.00570749 -5.24307e-20)
(0.609444 -0.00321275 -4.95592e-20)
(0.778144 0.00198994 -6.78166e-22)
(0.936653 0.00886558 -1.74536e-19)
(1.07473 0.0160886 2.05052e-19)
(1.18632 0.0224501 -7.75724e-20)
(1.26983 0.0271254 0)
(1.32737 0.0297489 -9.88661e-20)
(1.3632 0.0303424 1.23637e-19)
(1.38243 0.0291765 -8.67084e-20)
(1.38989 0.0266304 -5.33641e-20)
(1.38957 0.0230893 4.93777e-20)
(1.38445 0.0188866 9.0412e-20)
(1.37654 0.0142843 0)
(1.3671 0.00947602 3.79609e-20)
(1.35687 0.00460119 3.49018e-20)
(1.34624 -0.000239903 8.14194e-22)
(1.33543 -0.00497358 -5.83503e-20)
(1.32455 -0.0095441 3.00805e-20)
(1.31366 -0.0139083 2.58231e-20)
(1.30281 -0.0180324 6.73559e-20)
(1.29204 -0.0218905 -6.40905e-20)
(1.28136 -0.0254634 1.84618e-20)
(1.27082 -0.0287381 -3.57256e-20)
(1.26043 -0.0317069 0)
(1.25023 -0.0343669 -4.20298e-20)
(1.24023 -0.0367196 5.39011e-20)
(1.23045 -0.03877 -1.17515e-20)
(1.22091 -0.0405244 0)
(1.21161 -0.0420547 -1.97848e-20)
(1.20258 -0.0430312 0)
(1.19357 -0.0455537 -4.71131e-20)
(-0.00451109 0.00314574 6.51138e-20)
(0.0303395 -0.000127227 -5.14667e-22)
(0.107588 -0.0038737 9.98413e-22)
(0.222554 -0.00667732 0)
(0.368773 -0.00687405 1.11095e-19)
(0.536407 -0.00345478 -8.23932e-22)
(0.712312 0.00344199 -9.57331e-22)
(0.882102 0.0127054 1.40117e-19)
(1.03323 0.0227295 -8.92725e-20)
(1.15748 0.0319579 -4.11724e-20)
(1.25181 0.0392732 -3.85998e-20)
(1.31766 0.0441338 1.06288e-19)
(1.35931 0.0465042 -9.94596e-20)
(1.38224 0.046683 6.24288e-20)
(1.39184 0.0451228 5.66739e-20)
(1.39264 0.0422923 0)
(1.38803 0.0385984 0)
(1.38031 0.0343574 -6.67779e-20)
(1.37093 0.0297986 8.00926e-20)
(1.36074 0.0250821 -1.14612e-19)
(1.35018 0.0203193 -1.02503e-19)
(1.33947 0.01559 9.67641e-20)
(1.32875 0.0109536 2.86825e-20)
(1.31805 0.00645637 0)
(1.30742 0.00213532 -2.40393e-20)
(1.29688 -0.00197995 4.29419e-20)
(1.28645 -0.00586615 -1.93223e-21)
(1.27614 -0.00950567 -1.92449e-20)
(1.26599 -0.012886 0)
(1.25601 -0.015999 0)
(1.24622 -0.0188408 4.05316e-20)
(1.23664 -0.0214109 -3.98743e-20)
(1.22728 -0.0237124 1.17516e-20)
(1.21815 -0.0257528 0)
(1.20924 -0.0275619 0)
(1.20058 -0.0289624 0)
(1.19199 -0.03151 0)
(0.00203928 0.000908747 -6.7424e-20)
(0.0536243 -0.004933 6.51194e-22)
(0.150588 -0.00847517 1.28011e-19)
(0.286237 -0.00893727 -6.08864e-20)
(0.451118 -0.00523155 -1.15012e-19)
(0.631925 0.00289855 5.44658e-20)
(0.812773 0.0144057 -5.15217e-20)
(0.9785 0.0274007 9.65512e-20)
(1.11805 0.0398783 0)
(1.22615 0.0502966 0)
(1.30301 0.0578282 3.8603e-20)
(1.35262 0.0623153 3.45401e-20)
(1.38077 0.0640644 -2.38349e-21)
(1.39347 0.0636112 -3.1736e-20)
(1.3959 0.0615338 5.47155e-20)
(1.39202 0.0583407 -2.7011e-20)
(1.38453 0.0544272 2.29823e-20)
(1.37515 0.0500758 -4.36462e-20)
(1.36487 0.0454788 6.07301e-20)
(1.35422 0.040765 9.02132e-20)
(1.34347 0.0360227 -8.56078e-20)
(1.33275 0.0313153 0)
(1.3221 0.0266913 -2.86865e-20)
(1.31155 0.0221892 -2.51282e-20)
(1.30113 0.0178409 7.2606e-20)
(1.29084 0.0136724 -9.91815e-22)
(1.28069 0.00970466 -1.89457e-21)
(1.27071 0.00595427 -5.485e-20)
(1.26091 0.00243348 3.21484e-20)
(1.2513 -0.000849295 -3.07911e-20)
(1.24189 -0.00388918 0)
(1.2327 -0.00668461 -3.67916e-20)
(1.22371 -0.00923742 1.20695e-20)
(1.21495 -0.0115542 -3.98632e-20)
(1.2064 -0.0136407 3.81943e-20)
(1.19807 -0.0154362 0)
(1.18985 -0.0180292 -7.49457e-21)
(0.0101006 -0.00116871 0)
(0.0808409 -0.00884295 0)
(0.199005 -0.0111365 3.33204e-20)
(0.355353 -0.00813437 -3.15054e-20)
(0.536948 0.000377514 1.16365e-19)
(0.727072 0.0136282 -8.37382e-20)
(0.908008 0.02956 2.62997e-20)
(1.06522 0.0456371 4.88927e-20)
(1.19031 0.0597171 -4.07775e-22)
(1.28141 0.0705144 0)
(1.3417 0.0776311 0)
(1.3771 0.081327 3.56687e-20)
(1.39423 0.0822163 0)
(1.39907 0.0810102 -8.95482e-20)
(1.3963 0.0783529 2.8757e-20)
(1.38917 0.0747511 -5.09164e-20)
(1.37978 0.0705655 2.35441e-20)
(1.36933 0.0660373 2.0349e-20)
(1.35849 0.0613229 -5.99935e-20)
(1.34757 0.0565245 1.70475e-20)
(1.33672 0.0517121 1.52217e-20)
(1.326 0.0469375 -1.5976e-20)
(1.31543 0.0422413 5.40392e-20)
(1.30502 0.037657 -7.73353e-20)
(1.29479 0.0332126 1.13866e-20)
(1.28472 0.0289313 2.1388e-20)
(1.27483 0.0248324 -5.65608e-20)
(1.26514 0.0209311 5.38137e-20)
(1.25564 0.0172388 -1.57555e-20)
(1.24635 0.0137638 0)
(1.23727 0.0105112 -1.30494e-20)
(1.2284 0.00748299 0)
(1.21975 0.004678 4.32174e-20)
(1.2113 0.00209307 -2.04338e-20)
(1.20307 -0.000269332 8.86513e-21)
(1.19505 -0.00242529 0)
(1.18716 -0.00506428 7.49713e-21)
(0.0197345 -0.0029337 3.56749e-20)
(0.111891 -0.0114316 -7.21902e-20)
(0.252265 -0.0112717 3.38693e-20)
(0.428565 -0.0036936 -1.63023e-21)
(0.62411 0.0103154 -6.06307e-20)
(0.819278 0.0287492 2.79904e-20)
(0.995789 0.0485873 -5.29403e-20)
(1.14109 0.0669022 0)
(1.25016 0.0817026 -4.54708e-20)
(1.32455 0.0921537 -2.11161e-20)
(1.36986 0.0983582 0)
(1.39329 0.100975 -3.56803e-20)
(1.40169 0.100863 0)
(1.40064 0.098842 8.84292e-20)
(1.39415 0.0955712 -5.60904e-20)
(1.38481 0.0915246 2.52929e-20)
(1.37416 0.087017 4.50081e-20)
(1.36302 0.0822476 -1.87402e-21)
(1.35181 0.0773413 -2.03531e-20)
(1.34072 0.0723794 0)
(1.3298 0.0674184 -1.59264e-20)
(1.3191 0.0625013 -1.49193e-20)
(1.3086 0.0576628 0)
(1.29831 0.052932 0)
(1.28823 0.0483337 -1.13906e-20)
(1.27836 0.0438884 -2.99373e-20)
(1.26871 0.0396135 5.73077e-20)
(1.25927 0.0355229 0)
(1.25005 0.0316274 3.10278e-20)
(1.24105 0.0279352 0)
(1.23227 0.0244512 1.30539e-20)
(1.22372 0.0211779 0)
(1.21537 0.0181147 9.87615e-21)
(1.20723 0.0152612 -2.92411e-20)
(1.19929 0.0126176 -8.86815e-21)
(1.19155 0.010127 0)
(1.18397 0.00741938 0)
(0.0309504 -0.00421906 3.74983e-20)
(0.146513 -0.0122758 3.62564e-20)
(0.309534 -0.00835923 0)
(0.50428 0.00480841 3.23675e-20)
(0.710407 0.0247287 -2.98922e-20)
(0.906327 0.0480747 5.84179e-20)
(1.0746 0.0710603 -2.6354e-20)
(1.20572 0.0906885 7.46969e-20)
(1.29836 0.105382 -1.73819e-21)
(1.35711 0.114885 -2.20635e-20)
(1.3894 0.11981 1.93705e-20)
(1.40303 0.121162 0)
(1.40467 0.119971 3.17404e-20)
(1.39929 0.117103 -7.4426e-20)
(1.39018 0.113191 2.77448e-20)
(1.37933 0.108661 4.84169e-20)
(1.36784 0.103776 -2.3908e-20)
(1.35624 0.098697 4.04025e-20)
(1.34479 0.0935237 -7.64054e-20)
(1.33358 0.0883207 -3.36981e-20)
(1.32263 0.0831346 9.44953e-20)
(1.31195 0.078002 -1.52693e-20)
(1.30153 0.0729532 0)
(1.29136 0.0680137 0)
(1.28143 0.0632056 2.13078e-20)
(1.27175 0.0585473 -1.10836e-20)
(1.26231 0.0540544 -9.67971e-21)
(1.25311 0.0497395 -8.11382e-21)
(1.24414 0.0456125 -1.52738e-20)
(1.23542 0.0416807 -1.9931e-20)
(1.22692 0.0379487 1.94211e-20)
(1.21864 0.0344188 0)
(1.21058 0.0310913 -5.02476e-21)
(1.20272 0.0279671 3.45589e-22)
(1.19506 0.0250389 0)
(1.18759 0.0222408 0)
(1.18029 0.0194431 6.75652e-21)
(0.0436961 -0.00484864 -1.8754e-20)
(0.184281 -0.010971 3.76152e-20)
(0.369764 -0.00196387 -3.59506e-20)
(0.580776 0.0176323 0)
(0.79379 0.0435728 -3.12402e-20)
(0.9865 0.0712779 2.90667e-20)
(1.14362 0.0965096 2.59875e-20)
(1.25936 0.116535 -2.62994e-20)
(1.33603 0.130396 0)
(1.3807 0.138477 0)
(1.40197 0.141869 -1.93806e-20)
(1.40778 0.141843 0)
(1.40429 0.139531 0)
(1.39576 0.135792 -2.93298e-20)
(1.38482 0.131209 -1.327e-20)
(1.37294 0.126147 3.58948e-20)
(1.36088 0.120823 -5.62146e-20)
(1.34897 0.115366 0)
(1.33736 0.109853 4.56367e-20)
(1.32607 0.104336 -1.6379e-21)
(1.3151 0.0988566 -4.7037e-20)
(1.30446 0.0934443 2.69369e-20)
(1.29412 0.088126 -1.25924e-21)
(1.28406 0.0829241 -3.52754e-20)
(1.27429 0.0778579 -2.06553e-20)
(1.26479 0.0729437 9.74449e-22)
(1.25555 0.0681949 1.77021e-20)
(1.24658 0.0636229 -7.44234e-21)
(1.23786 0.0592364 7.57214e-22)
(1.22939 0.0550419 -1.24865e-20)
(1.22116 0.0510436 4.17494e-20)
(1.21316 0.0472431 -1.17952e-21)
(1.20537 0.0436416 -1.52592e-20)
(1.19778 0.0402391 -8.28001e-21)
(1.19039 0.0370204 1.66687e-20)
(1.1832 0.0339347 0)
(1.17617 0.0310115 -6.76195e-21)
(0.057854 -0.00464724 3.88771e-20)
(0.224612 -0.00715568 0)
(0.431743 0.00823778 0)
(0.656321 0.0348709 0)
(0.872493 0.0666432 0)
(1.05861 0.0979444 0)
(1.2026 0.124465 0)
(1.30269 0.144037 0)
(1.36443 0.156462 0)
(1.39679 0.162768 -2.1164e-20)
(1.40898 0.164456 -1.92239e-20)
(1.40865 0.162987 0)
(1.40132 0.159528 0)
(1.39054 0.154894 1.45855e-20)
(1.37832 0.1496 3.89918e-20)
(1.36575 0.143952 -4.82101e-20)
(1.3533 0.138124 3.33878e-20)
(1.34118 0.132217 0)
(1.32945 0.126294 9.13476e-21)
(1.31812 0.120396 0)
(1.30717 0.114557 1.45881e-20)
(1.29658 0.108804 -3.44665e-20)
(1.28633 0.103161 -1.80637e-20)
(1.27641 0.0976457 3.45682e-20)
(1.26679 0.0922759 1.49494e-20)
(1.25747 0.0870654 -2.37044e-20)
(1.24844 0.0820258 -8.6225e-21)
(1.23969 0.0771671 0)
(1.23122 0.0724964 1.36215e-20)
(1.223 0.0680191 -4.25357e-22)
(1.21503 0.0637382 -1.18423e-20)
(1.20729 0.059655 0)
(1.19976 0.0557705 0)
(1.19243 0.0520814 0)
(1.18531 0.0485679 -3.78859e-21)
(1.17838 0.0452112 1.02395e-20)
(1.17163 0.0421241 -6.53506e-21)
(0.0732369 -0.00345179 0)
(0.266782 -0.000534508 0)
(0.49416 0.0224407 0)
(0.729272 0.0564581 -1.74632e-20)
(0.945091 0.0936099 4.6848e-22)
(1.12194 0.127609 -1.44106e-20)
(1.2517 0.154471 7.00644e-20)
(1.33655 0.172842 -1.4025e-20)
(1.38478 0.183351 -3.55269e-20)
(1.40665 0.187632 2.1179e-20)
(1.41148 0.187515 1.92378e-20)
(1.40644 0.184569 0)
(1.39629 0.179944 1.53531e-20)
(1.3839 0.174383 -1.4686e-20)
(1.3708 0.168332 0)
(1.35775 0.162038 -4.1316e-22)
(1.34504 0.15564 -1.62412e-20)
(1.33279 0.149215 0)
(1.321 0.142814 1.71655e-20)
(1.30966 0.136471 -1.64276e-20)
(1.29875 0.130215 1.41635e-20)
(1.28824 0.124068 6.01264e-21)
(1.2781 0.118051 -2.42976e-20)
(1.26832 0.112178 0)
(1.25886 0.106465 5.03585e-21)
(1.24973 0.100923 4.57614e-21)
(1.24091 0.0955615 0)
(1.23239 0.0903888 -7.20766e-21)
(1.22416 0.085411 6.90282e-21)
(1.21619 0.0806314 6.21955e-21)
(1.20848 0.0760523 0)
(1.201 0.0716741 9.72578e-21)
(1.19373 0.0674967 1.68985e-21)
(1.18666 0.0635122 -8.43243e-21)
(1.1798 0.0597002 -1.59916e-21)
(1.17314 0.056082 -1.40032e-21)
(1.16665 0.0527851 7.69231e-21)
(0.0895928 -0.00111701 5.27777e-21)
(0.309961 0.00911439 2.04657e-20)
(0.555676 0.0407129 9.36787e-21)
(0.798157 0.0821877 -2.69284e-20)
(1.01051 0.12405 1.70075e-20)
(1.17618 0.159783 -1.51059e-20)
(1.29133 0.186104 7.43838e-21)
(1.36182 0.202648 1.28214e-20)
(1.39811 0.210885 1.74379e-20)
(1.4112 0.212982 0)
(1.41019 0.211006 9.248e-21)
(1.40156 0.206567 -8.84473e-21)
(1.38936 0.200754 0)
(1.37584 0.194231 3.47359e-21)
(1.36215 0.187369 0)
(1.34878 0.180366 0)
(1.33592 0.173331 -4.87342e-21)
(1.32359 0.166323 7.38874e-21)
(1.31179 0.159382 -8.33632e-21)
(1.30049 0.152536 7.978e-21)
(1.28965 0.145809 0)
(1.27925 0.139219 0)
(1.26924 0.132782 1.43579e-20)
(1.25961 0.126512 -2.82782e-21)
(1.25034 0.120419 -2.32418e-21)
(1.24142 0.114514 0)
(1.23282 0.108802 -3.80482e-21)
(1.22453 0.103292 7.09082e-21)
(1.21654 0.0979859 -1.73908e-21)
(1.20884 0.0928869 0)
(1.20138 0.0879957 0)
(1.19416 0.083312 1.1554e-21)
(1.18716 0.0788338 -1.16385e-21)
(1.18035 0.0745486 0)
(1.17375 0.0704407 -9.53208e-22)
(1.16736 0.0665713 -8.61571e-22)
(1.16112 0.0630223 -1.46833e-21)
(0.106659 0.00248846 -5.20852e-21)
(0.353334 0.0219444 0)
(0.615087 0.0630008 0)
(0.861803 0.11174 -9.10451e-21)
(1.06806 0.157493 -4.15997e-21)
(1.22126 0.194005 3.97649e-21)
(1.32196 0.21901 -7.07177e-21)
(1.37924 0.233229 0)
(1.40517 0.238943 -5.8009e-21)
(1.41102 0.238757 0)
(1.40543 0.234892 2.27963e-21)
(1.39411 0.228943 -4.23462e-21)
(1.38044 0.221915 3.81739e-21)
(1.36616 0.214382 -3.57755e-21)
(1.35208 0.20665 -1.59886e-21)
(1.33853 0.198875 0)
(1.32558 0.191138 0)
(1.31325 0.183485 2.32614e-21)
(1.3015 0.175947 0)
(1.29027 0.168546 9.10947e-22)
(1.27955 0.1613 -4.76417e-23)
(1.26928 0.154223 -4.30681e-23)
(1.25944 0.147328 -2.87382e-21)
(1.25 0.140625 -3.21439e-21)
(1.24094 0.134121 2.3265e-21)
(1.23224 0.127824 0)
(1.22388 0.121737 0)
(1.21584 0.115867 0)
(1.20812 0.110214 -1.5639e-21)
(1.20068 0.104779 0)
(1.1935 0.0995618 0)
(1.18656 0.094561 -6.11306e-22)
(1.17983 0.0897725 -1.56709e-21)
(1.1733 0.0851816 -4.43488e-22)
(1.16698 0.0807807 -4.25761e-22)
(1.16086 0.0766676 -7.66505e-22)
(1.15491 0.0728388 0)
(-0.00889138 0.0043829 -2.48151e-21)
(-0.0416524 0.00842164 0)
(-0.0959115 0.00953185 0)
(-0.156061 0.00919474 -4.95163e-21)
(-0.215817 0.00822659 2.4784e-21)
(-0.273546 0.00701961 -2.36974e-21)
(-0.328603 0.00573101 -4.85732e-21)
(-0.380667 0.00440164 0)
(-0.429507 0.0030287 -4.87081e-21)
(-0.474864 0.00159922 0)
(-0.516426 0.000100671 -2.46352e-21)
(-0.553843 -0.00147696 2.35623e-21)
(-0.586735 -0.00314106 -2.4046e-21)
(-0.614705 -0.00489654 -4.74334e-21)
(-0.637349 -0.00674607 2.24984e-21)
(-0.654269 -0.00869024 0)
(-0.665081 -0.0107269 0)
(-0.669433 -0.0128512 4.00274e-21)
(-0.667021 -0.0150554 0)
(-0.657646 -0.0173121 -1.66528e-21)
(-0.641155 -0.0195568 9.46988e-23)
(-0.617475 -0.0218045 1.09742e-22)
(-0.586691 -0.0240232 -4.7923e-21)
(-0.54904 -0.0261505 -3.11376e-21)
(-0.504905 -0.028144 3.51657e-21)
(-0.454798 -0.0299433 0)
(-0.399407 -0.0314902 0)
(-0.339552 -0.0327318 0)
(-0.276156 -0.0336264 -1.10205e-21)
(-0.210197 -0.0341461 0)
(-0.142665 -0.0342767 0)
(-0.0745303 -0.0340194 1.74066e-22)
(-0.0068096 -0.0334183 2.04999e-22)
(0.059721 -0.0325187 -3.05604e-22)
(0.124518 -0.031349 9.33636e-22)
(0.186887 -0.0299194 7.31345e-22)
(0.246835 -0.0285844 0)
(-0.0101471 0.0295782 7.55644e-21)
(-0.043385 0.0611248 -1.03719e-20)
(-0.0966601 0.0749701 -5.26389e-21)
(-0.155411 0.0790286 2.49058e-20)
(-0.213718 0.0782889 -9.6783e-21)
(-0.270013 0.0754654 9.99183e-21)
(-0.323659 0.0717575 -1.4594e-20)
(-0.374317 0.0675326 9.89947e-21)
(-0.421745 0.0628152 1.47801e-20)
(-0.465672 0.0575338 1.00035e-20)
(-0.505779 0.0516077 -1.95294e-20)
(-0.541714 0.0449685 9.52825e-21)
(-0.573097 0.0375643 0)
(-0.599536 0.0293609 1.42131e-20)
(-0.620633 0.020343 -9.11239e-21)
(-0.636002 0.0105156 0)
(-0.645273 -9.36827e-05 2.56184e-20)
(-0.648111 -0.0114314 -2.02168e-20)
(-0.644202 -0.0234137 0)
(-0.633271 -0.0359048 0)
(-0.615295 -0.0486986 0)
(-0.590267 -0.0616682 0)
(-0.558189 -0.0745702 5.74673e-21)
(-0.519286 -0.087134 1.32603e-20)
(-0.473937 -0.0990372 -3.51323e-21)
(-0.422687 -0.10996 0)
(-0.366241 -0.11959 4.02801e-21)
(-0.305449 -0.127654 -6.74373e-21)
(-0.241268 -0.133939 3.86544e-21)
(-0.174712 -0.138315 0)
(-0.106802 -0.140738 0)
(-0.0385787 -0.14122 -6.12306e-23)
(0.0288725 -0.140079 1.0376e-22)
(0.0948283 -0.137369 0)
(0.158835 -0.133386 4.76761e-22)
(0.219983 -0.1282 5.85706e-22)
(0.278955 -0.123196 1.43798e-21)
(-0.0126629 0.0526048 0)
(-0.0467189 0.110308 0)
(-0.0976713 0.136989 0)
(-0.153222 0.145962 1.04118e-20)
(-0.20822 0.14595 3.48426e-22)
(-0.261239 0.141882 1.06556e-20)
(-0.31164 0.13603 -3.02066e-20)
(-0.359055 0.129135 -1.08036e-20)
(-0.40321 0.121284 9.69706e-21)
(-0.443817 0.112365 2.04226e-20)
(-0.480551 0.102238 2.03893e-20)
(-0.51306 0.0907845 0)
(-0.540974 0.0779121 0)
(-0.563915 0.0635614 0)
(-0.58151 0.0477063 0)
(-0.593399 0.030357 -3.71635e-20)
(-0.599246 0.0115639 8.93365e-21)
(-0.598742 -0.00857355 0)
(-0.591606 -0.0299027 -3.09871e-20)
(-0.577587 -0.0522233 2.96525e-20)
(-0.556698 -0.0752361 -2.59021e-20)
(-0.528919 -0.0986345 1.4166e-20)
(-0.494292 -0.121973 7.39956e-22)
(-0.453025 -0.144743 0)
(-0.405495 -0.166374 8.2402e-21)
(-0.352261 -0.186265 6.83736e-21)
(-0.294058 -0.203826 0)
(-0.23179 -0.218526 6.76834e-21)
(-0.166485 -0.229958 -6.48104e-21)
(-0.0992332 -0.237871 4.21039e-21)
(-0.0310645 -0.24218 0)
(0.0366971 -0.243111 -1.49638e-23)
(0.103088 -0.240921 1.56445e-21)
(0.167516 -0.235884 -1.8835e-21)
(0.229418 -0.228642 -7.28958e-21)
(0.287642 -0.219227 -9.77125e-23)
(0.344147 -0.210249 3.57051e-21)
(-0.0160792 0.0719491 3.26633e-22)
(-0.0512046 0.153394 0)
(-0.0986753 0.193002 0)
(-0.149415 0.207752 0)
(-0.199403 0.209323 0)
(-0.247433 0.204657 0)
(-0.292875 0.197126 0)
(-0.335317 0.187936 0)
(-0.374445 0.177298 0)
(-0.409947 0.165092 -2.0407e-20)
(-0.441491 0.151138 -2.03734e-20)
(-0.468731 0.135274 4.20003e-20)
(-0.491316 0.117378 -4.01723e-20)
(-0.508898 0.0973722 2.05967e-20)
(-0.521145 0.0752229 -1.95744e-20)
(-0.52775 0.0509473 7.56241e-20)
(-0.528434 0.0246172 -1.78427e-20)
(-0.522953 -0.00363085 0)
(-0.511115 -0.0335809 1.71706e-20)
(-0.49268 -0.0649687 0)
(-0.467733 -0.0975604 -2.78483e-20)
(-0.436302 -0.130772 -1.29003e-20)
(-0.398408 -0.164002 5.54431e-20)
(-0.354274 -0.196539 -2.10559e-20)
(-0.304287 -0.227554 -4.08269e-20)
(-0.249014 -0.256152 -2.51791e-21)
(-0.189217 -0.281429 1.29561e-20)
(-0.125866 -0.302529 0)
(-0.060067 -0.318826 -1.19684e-20)
(0.00702815 -0.32992 4.81446e-21)
(0.074122 -0.335739 7.69226e-21)
(0.140077 -0.336569 -1.93452e-21)
(0.204013 -0.332704 1.85301e-21)
(0.265036 -0.324826 0)
(0.322973 -0.31388 1.64901e-21)
(0.376267 -0.299832 1.91304e-21)
(0.428478 -0.286529 -3.85093e-21)
(-0.0199044 0.0864413 -3.50298e-20)
(-0.0562181 0.188186 -2.38297e-20)
(-0.0993149 0.240647 2.27806e-20)
(-0.143931 0.262263 0)
(-0.187459 0.26659 -2.24827e-20)
(-0.229004 0.262234 -2.21679e-20)
(-0.267974 0.253678 -2.29738e-20)
(-0.303911 0.242703 6.42484e-20)
(-0.336447 0.229738 0)
(-0.365243 0.214708 0)
(-0.389956 0.197419 -2.1965e-20)
(-0.410253 0.177686 0)
(-0.425808 0.155371 0)
(-0.436315 0.130386 -4.20496e-20)
(-0.441501 0.102701 -2.01751e-20)
(-0.441135 0.0723468 -2.08039e-20)
(-0.435023 0.0394179 -2.01477e-20)
(-0.422995 0.00407856 0)
(-0.404977 -0.0334304 -5.08038e-20)
(-0.381108 -0.0728204 1.66297e-21)
(-0.351269 -0.113797 3.06625e-20)
(-0.315384 -0.155665 -2.28957e-21)
(-0.27374 -0.197763 -4.89399e-20)
(-0.226548 -0.239214 2.5465e-20)
(-0.174199 -0.278927 0)
(-0.117279 -0.315724 0)
(-0.0565233 -0.348352 -2.03039e-21)
(0.00699061 -0.375522 3.20957e-20)
(0.0720236 -0.396366 -3.9654e-21)
(0.137319 -0.410318 -2.73537e-20)
(0.201606 -0.417271 -9.52391e-21)
(0.263727 -0.417474 5.44395e-21)
(0.322848 -0.411632 1.03094e-20)
(0.378109 -0.400627 1.78134e-21)
(0.429765 -0.38579 7.92321e-23)
(0.475873 -0.36714 0)
(0.521667 -0.349382 2.08313e-21)
(-0.0235877 0.0953655 -6.99315e-22)
(-0.061039 0.213015 2.55557e-20)
(-0.099202 0.277887 0)
(-0.136773 0.307506 2.39602e-20)
(-0.172725 0.315991 6.91619e-20)
(-0.206583 0.313093 -4.464e-20)
(-0.237842 0.304346 6.89072e-20)
(-0.26601 0.292211 -1.11819e-19)
(-0.290663 0.277456 -1.96703e-21)
(-0.311422 0.26013 6.65915e-20)
(-0.327937 0.240068 2.19503e-20)
(-0.339887 0.217088 0)
(-0.346979 0.191051 -4.50235e-20)
(-0.348966 0.161881 6.43715e-20)
(-0.345653 0.129567 -4.24724e-20)
(-0.336908 0.0941672 0)
(-0.322666 0.0558079 3.98539e-20)
(-0.302903 0.014676 -7.84744e-20)
(-0.277646 -0.0290048 2.88898e-22)
(-0.24722 -0.0749064 6.9925e-20)
(-0.211618 -0.122574 -6.58846e-20)
(-0.170884 -0.171497 9.14175e-20)
(-0.125286 -0.220975 0)
(-0.0750167 -0.270041 0)
(-0.0205088 -0.317359 -4.14764e-20)
(0.0375509 -0.361477 -1.54691e-20)
(0.0984851 -0.40068 4.86649e-20)
(0.161162 -0.433392 -1.20322e-20)
(0.22404 -0.458345 -2.24528e-20)
(0.285802 -0.474741 3.55269e-20)
(0.345204 -0.482408 -3.2317e-20)
(0.401159 -0.481783 0)
(0.453033 -0.473817 -2.04994e-21)
(0.500088 -0.459724 2.1835e-21)
(0.543128 -0.44119 0)
(0.579959 -0.418517 0)
(0.617348 -0.396569 -2.08098e-21)
(-0.0266018 0.098531 -2.59092e-20)
(-0.0649376 0.226888 5.60585e-22)
(-0.0979739 0.303141 -7.6516e-20)
(-0.128037 0.341706 4.64085e-23)
(-0.155712 0.355848 4.73053e-20)
(-0.181044 0.355761 2.39333e-20)
(-0.203691 0.347833 -4.66102e-20)
(-0.223164 0.335275 0)
(-0.238991 0.319322 -4.69247e-20)
(-0.250752 0.300251 -2.27607e-20)
(-0.258089 0.27799 4.7142e-20)
(-0.2607 0.252394 -1.85453e-19)
(-0.25834 0.223353 8.97344e-20)
(-0.250835 0.190821 -4.73531e-20)
(-0.238088 0.154828 8.78808e-20)
(-0.220093 0.115482 4.42047e-20)
(-0.196938 0.0729585 0)
(-0.168812 0.0274862 -8.20379e-20)
(-0.135871 -0.0206582 1.16854e-19)
(-0.0985016 -0.0712936 0)
(-0.0569061 -0.123887 -3.39897e-20)
(-0.0112359 -0.178028 -3.31803e-20)